0.12903226 	0.00077059107 	-0.00012808344 	4.1804466e-07 	0.00090264472 	-3.6942007e-07 	0.00036898126
0.13978495 	0.0010053185 	-0.00019279404 	2.7376954e-06 	0.0016614046 	-5.4806378e-06 	8.8658927e-05
0.15053763 	0.0011547587 	-0.00027695987 	-1.265789e-07 	0.0018731466 	1.0957505e-07 	0.00047081866
0.16129032 	0.0012540387 	-0.00031023018 	2.697376e-07 	0.0019682629 	-3.1729023e-07 	0.00030846016
0.17204301 	0.0012943764 	-0.00033086397 	-9.9513399e-08 	0.0020148018 	-3.9604006e-07 	0.00023883491
0.1827957 	0.0013331109 	-0.00034009289 	2.1857203e-07 	0.0020556414 	-1.6973182e-07 	6.5351438e-05
0.19354839 	0.0013548152 	-0.00035122867 	-4.8169075e-09 	0.0020943056 	-2.4947645e-07 	2.0041332e-05
0.20430108 	0.0013746778 	-0.00035676345 	-1.0919264e-09 	0.0021296509 	-5.6552865e-08 	0.00015167216
0.21505376 	0.0013904772 	-0.0003604333 	1.0150363e-08 	0.0021642154 	-6.3372158e-07 	0.0002823138
0.22580645 	0.001402911 	-0.00036293577 	5.6986435e-08 	0.0021962415 	-1.203332e-06 	0.00041215626
0.23655914 	0.001414422 	-0.00036494373 	6.1301619e-07 	0.0022211994 	-9.5237441e-08 	0.00041413859
0.24731183 	0.0014267283 	-0.0003655855 	2.068567e-06 	0.0022396923 	-2.3064961e-07 	0.00023125218
0.25806452 	0.0014277102 	-0.00036382888 	3.931446e-08 	0.0022832328 	-3.5342021e-07 	0.00078808866
0.2688172 	0.0014374934 	-0.00036270732 	2.4074817e-06 	0.0022908013 	-1.5706166e-07 	0.00039569551
0.27956989 	0.0014418419 	-0.00035970588 	2.5274668e-06 	0.0023162816 	-2.1154626e-08 	0.00044196902
0.29032258 	0.0014436653 	-0.00035670146 	7.410015e-07 	0.0023514458 	-6.2021031e-09 	0.00079429042
0.30107527 	0.0014546888 	-0.00035206507 	2.9177345e-06 	0.0023577828 	1.6263377e-07 	0.00012004413
0.31182796 	0.0014557963 	-0.00034852057 	5.6710704e-08 	0.0024076822 	-5.065214e-07 	0.00078181309
0.32258065 	0.0014680401 	-0.00034201939 	2.438759e-06 	0.0024184591 	2.7825601e-07 	3.7822014e-05
0.33333333 	0.0014718467 	-0.00033723463 	1.4053312e-07 	0.0024697163 	-8.340433e-07 	0.00059177558
0.34408602 	0.0014828105 	-0.00032912739 	1.7159686e-06 	0.0024910679 	2.6872224e-07 	3.6994646e-05
0.35483871 	0.001488596 	-0.0003221214 	2.7598189e-07 	0.0025405495 	-1.1056145e-06 	0.0004133645
0.3655914 	0.0014975743 	-0.00031243353 	7.6495697e-07 	0.0025722043 	1.3644906e-07 	0.00011487367
0.37634409 	0.0015047036 	-0.00030226677 	3.6229878e-07 	0.0026174858 	-9.9491512e-07 	0.00024514715
0.38709677 	0.0015120564 	-0.00029050714 	1.2010151e-07 	0.0026568966 	-3.2981288e-07 	0.00016161586
0.39784946 	0.0015193611 	-0.00027695699 	3.7441129e-07 	0.0026980971 	-7.2470238e-07 	8.6009006e-05
0.40860215 	0.0015259689 	-0.00026186206 	5.3627053e-07 	0.0027392459 	-1.0379936e-06 	1.0357017e-05
0.41935484 	0.0015324119 	-0.00024624468 	1.1975026e-07 	0.0027808662 	-1.7196088e-07 	7.923442e-05
0.43010753 	0.0015380388 	-0.00022747425 	9.4913089e-07 	0.002823213 	-1.3629481e-06 	0.00014983874
0.44086022 	0.0015436656 	-0.00020870382 	1.1354465e-07 	0.0028655599 	-1.6304966e-07 	0.00022044305
0.4516129 	0.0015481541 	-0.00018706781 	4.0512943e-07 	0.0029053381 	-4.5070346e-07 	0.00029368952
0.46236559 	0.0015523833 	-0.00016326313 	7.4430595e-07 	0.0029467776 	-8.280348e-07 	0.00035495975
0.47311828 	0.0015593838 	-0.00013836937 	9.7385739e-07 	0.0029817098 	-2.8068451e-07 	6.8708596e-05
0.48387097 	0.0015596766 	-0.0001113253 	6.0692194e-07 	0.0030233764 	-5.4639849e-07 	0.000485266
0.49462366 	0.0015624436 	-8.062546e-05 	5.6120581e-07 	0.0030622997 	-5.0524126e-07 	0.00053661497
0.50537634 	0.0015697894 	-4.7740024e-05 	1.3233467e-06 	0.003091017 	-5.7914825e-07 	3.3574555e-05
0.51612903 	0.0015698884 	-1.5543366e-05 	5.7373497e-07 	0.0031257225 	-6.3396092e-07 	0.00065626305
0.52688172 	0.0015764213 	2.3180886e-05 	5.7250606e-07 	0.0031488514 	-6.32603e-07 	0.00069721644
0.53763441 	0.0015885699 	6.4920133e-05 	1.2061446e-06 	0.0031607937 	-4.614393e-07 	8.0240858e-05
0.5483871 	0.0015847399 	0.00010081922 	1.0055305e-07 	0.0031990224 	-1.6416083e-07 	0.00081169023
0.55913978 	0.0015996608 	0.00014155945 	8.2692046e-07 	0.0031997171 	-1.3500133e-06 	0.00084192779
0.56989247 	0.0016230635 	0.00018307421 	6.7460422e-07 	0.003183695 	8.3058678e-08 	0.00038145519
0.58064516 	0.0016381022 	0.00022155777 	4.4190562e-07 	0.0031833301 	5.4408341e-08 	0.00062505488
0.59139785 	0.0016539581 	0.0002581912 	9.2292181e-07 	0.0031825732 	-2.0129634e-06 	0.00099558142
0.60215054 	0.0016799533 	0.0002950809 	3.0874056e-07 	0.0031632546 	2.0688626e-07 	0.00073524353
0.61290323 	0.0017110203 	0.00032975013 	7.6709269e-07 	0.003135157 	5.1402686e-07 	0.00036524258
0.62365591 	0.0017319438 	0.00036101103 	4.3761321e-07 	0.0031280164 	-1.0841686e-06 	0.0011341849
0.6344086 	0.0017588731 	0.00039485222 	1.6996834e-07 	0.0031117475 	1.5454537e-07 	0.00095422678
0.64516129 	0.0017903384 	0.00042863983 	7.7052678e-07 	0.0030892907 	7.0060899e-07 	0.00031032255
0.65591398 	0.0018145087 	0.00045692392 	3.5781749e-07 	0.0030817064 	-8.875828e-07 	0.0012327461
0.66666667 	0.0018431102 	0.00048921316 	2.3177345e-07 	0.0030689613 	2.290446e-07 	0.00091145497
0.67741935 	0.0018747969 	0.00052095422 	5.0814632e-07 	0.0030547982 	5.0216352e-07 	0.00055495256
0.68817204 	0.0019020787 	0.00054994315 	5.0226029e-07 	0.0030506925 	-1.1526702e-06 	0.0012943819
0.69892473 	0.0019353167 	0.00058291558 	4.6273501e-07 	0.0030415372 	5.0331514e-07 	0.00051999257
0.70967742 	0.0019674415 	0.00061318149 	8.3093245e-08 	0.0030398294 	9.0380213e-08 	0.0011950553
0.72043011 	0.0020001583 	0.00064508644 	8.1713924e-08 	0.0030409228 	-1.5637387e-07 	0.0013254483
0.7311828 	0.0020411949 	0.00067966605 	5.0597919e-07 	0.0030402155 	6.2267826e-07 	0.00035760068
0.74193548 	0.0020787722 	0.00071213649 	5.0102494e-07 	0.0030511196 	-7.0587205e-07 	0.0013530436
0.75268817 	0.0021242784 	0.00074788067 	4.7033494e-07 	0.0030592003 	6.6988706e-07 	0.00031578133
0.76344086 	0.0021708517 	0.00078309271 	2.6670432e-07 	0.003079445 	-2.2877724e-07 	0.001373017
0.77419355 	0.0022228927 	0.0008202634 	2.433344e-07 	0.0030994846 	4.0540538e-07 	0.00075618574
0.78494624 	0.002281208 	0.00085849191 	1.444375e-07 	0.0031302174 	-4.6185599e-08 	0.0013872314
0.79569892 	0.0023433517 	0.00089764359 	1.5079212e-07 	0.0031632191 	2.9425116e-07 	0.00094046864
0.80645161 	0.0024145158 	0.00093816235 	1.8279547e-07 	0.0032073792 	3.2277152e-08 	0.0013958748
0.8172043 	0.0024895803 	0.00097896445 	1.8136723e-07 	0.0032537291 	4.1306903e-07 	0.00077883591
0.82795699 	0.0025738513 	0.0010208857 	3.8265307e-07 	0.0033129405 	2.383423e-07 	0.0013976033
0.83870968 	0.0026627794 	0.0010619812 	3.122396e-07 	0.0033708827 	8.2690505e-07 	0.000155562
0.84946237 	0.0027591696 	0.0011042883 	3.9906864e-07 	0.0034452594 	4.0696406e-07 	0.0013900119
0.86021505 	0.0028612342 	0.0011449098 	3.9781315e-08 	0.003518809 	1.2242133e-07 	0.0012161983
0.87096774 	0.0029666024 	0.0011846502 	4.6803334e-08 	0.0035968823 	1.6819755e-07 	0.0010766574
0.88172043 	0.0030772646 	0.0012222413 	3.995219e-07 	0.0036784958 	6.6568126e-07 	0.0013870668
0.89247312 	0.0031889416 	0.0012573894 	1.8930232e-08 	0.0037581218 	3.5605069e-08 	0.001394033
0.90322581 	0.0032992878 	0.0012889978 	7.917719e-08 	0.0038315625 	4.0789286e-07 	0.00033764308
0.91397849 	0.003408137 	0.0013180832 	5.5897613e-08 	0.0039051444 	1.0681106e-07 	0.0013334477
0.92473118 	0.0035105491 	0.0013416549 	8.8953092e-08 	0.0039630733 	1.2568468e-07 	0.0013147452
0.93548387 	0.0036025633 	0.0013589267 	-6.1255386e-08 	0.0040057253 	-1.6601029e-07 	0.0012842268
0.94623656 	0.0036847801 	0.0013665121 	-7.7308143e-08 	0.0040303539 	-2.7469574e-07 	0.001240145
0.95698925 	0.0037581671 	0.0013760068 	3.0320201e-08 	0.0040330316 	1.8975537e-07 	1.7274209e-05
0.96774194 	0.0038122896 	0.001382939 	-4.4437042e-09 	0.0040124171 	-3.2661587e-08 	0.001135803
0.97849462 	0.0038137469 	0.0013733308 	-6.005341e-08 	0.0039277599 	-2.3918352e-07 	0.0010601178
0.98924731 	0.0032118351 	0.0011698858 	-2.6002934e-06 	0.0032422429 	-7.5520745e-06 	0.00084677548
