0.47826087 	0.90166717 	2.7084308e-05 	-5.5771576e-09
0.48913043 	1.1230537 	0.00017290601 	-3.2668295e-08
0.5 	1.2142981 	0.00031871508 	-5.4873991e-09
0.51086957 	1.2729407 	0.00048622128 	2.6543036e-07
0.52173913 	1.3157881 	0.00066783434 	-3.0284294e-07
0.5326087 	1.3491136 	0.00085700807 	1.8927935e-07
0.54347826 	1.3755892 	0.0010462708 	1.3004438e-06
0.55434783 	1.3967733 	0.0012285148 	9.0125516e-07
0.56521739 	1.4131837 	0.001392866 	7.4134808e-07
0.57608696 	1.4249837 	0.0015223935 	6.9587294e-07
0.58695652 	1.4326279 	0.0016042938 	1.260371e-07
0.59782609 	1.4369791 	0.0016402419 	-9.2212285e-08
0.60869565 	1.4390396 	0.0016407493 	-4.3128274e-07
0.61956522 	1.439785 	0.0016224214 	-1.0198793e-07
0.63043478 	1.4395299 	0.0015881666 	-8.7725407e-07
0.64130435 	1.4385662 	0.0015421215 	-1.5341699e-07
0.65217391 	1.4370464 	0.0014881683 	-1.2179686e-07
0.66304348 	1.4350893 	0.0014288319 	-9.5326766e-07
0.67391304 	1.4326259 	0.0013612641 	-2.3031261e-07
0.68478261 	1.4299188 	0.0012932177 	-7.5458729e-07
0.69565217 	1.4267586 	0.001219109 	-9.2848427e-08
0.70652174 	1.423348 	0.0011438585 	-1.9564958e-07
0.7173913 	1.4195335 	0.001065453 	-4.3413897e-08
0.72826087 	1.4155336 	0.00098752969 	-1.5536677e-07
0.73913043 	1.4110968 	0.0009075681 	-2.6242552e-08
0.75 	1.4064557 	0.00082835824 	-2.6675021e-07
0.76086957 	1.4014023 	0.00074952451 	-2.3618792e-09
0.77173913 	1.3959999 	0.00067016234 	-1.1772285e-09
0.7826087 	1.3902219 	0.0005939168 	6.0621033e-09
0.79347826 	1.3840576 	0.00051932967 	4.2706958e-08
0.80434783 	1.3774305 	0.0004475617 	-7.0412525e-07
0.81521739 	1.3704104 	0.00038013832 	1.4640672e-07
0.82608696 	1.3627512 	0.00031512525 	-1.8464675e-07
0.83695652 	1.3545123 	0.00025641916 	-2.0177499e-07
0.84782609 	1.3456161 	0.00020366246 	1.9982991e-07
0.85869565 	1.3358062 	0.00015610541 	6.4475627e-08
0.86956522 	1.3249984 	0.00011637516 	-3.0525584e-07
0.88043478 	1.3130365 	8.440087e-05 	-1.4485099e-07
0.89130435 	1.2996498 	6.052401e-05 	2.7813594e-08
0.90217391 	1.2844473 	4.5115392e-05 	9.7502316e-08
0.91304348 	1.2670115 	3.7448019e-05 	1.0146226e-07
0.92391304 	1.2467325 	3.647435e-05 	3.8959081e-08
0.93478261 	1.222691 	4.0610719e-05 	2.1168602e-08
0.94565217 	1.1936347 	4.647791e-05 	1.8213382e-08
0.95652174 	1.1573172 	5.1339339e-05 	1.2157088e-07
0.9673913 	1.1085629 	4.9827572e-05 	-7.6293893e-11
0.97826087 	1.0350432 	4.0344106e-05 	-2.1203741e-08
0.98913043 	0.88202804 	2.2563693e-05 	3.6386362e-08
