0.4742268 	0.0027468636 	-0.00089847783 	1.5533048e-08 	0.0027428454 	-4.3115153e-08 	0.00078744236
0.48453608 	0.0088584825 	-0.0031480573 	3.991395e-09 	0.0088333244 	-8.4813372e-09 	0.0030286918
0.49484536 	0.0082858936 	-0.0029675306 	1.4510936e-06 	0.0082445051 	-4.5580794e-06 	0.0032741092
0.50515464 	0.0072762999 	-0.0026469966 	-5.6923382e-09 	0.0072190741 	2.0225323e-08 	0.0028158094
0.51546392 	0.0062186891 	-0.0023052849 	8.7232356e-07 	0.006151117 	-2.576039e-06 	0.0023789969
0.5257732 	0.0051195664 	-0.0019308078 	4.0345698e-06 	0.0050472555 	-1.1301354e-05 	0.002033165
0.53608247 	0.0041186432 	-0.001548557 	1.5729544e-06 	0.0040473863 	-3.8857663e-06 	0.0016885812
0.54639175 	0.0033066074 	-0.0011821757 	2.2961895e-07 	0.0032422102 	-4.8790927e-07 	0.0013766213
0.55670103 	0.0027317675 	-0.00086468151 	8.5050961e-08 	0.0026795531 	-1.4709502e-07 	0.0011259433
0.56701031 	0.0023862553 	-0.00060691834 	7.5578719e-07 	0.0023488554 	-9.6374578e-07 	0.00095765898
0.57731959 	0.0022103481 	-0.00040222623 	1.7935048e-06 	0.0021877209 	-1.3817282e-06 	0.00086780197
0.58762887 	0.0021379476 	-0.00022532964 	2.3814311e-06 	0.0021295121 	-8.0427455e-07 	0.00083485368
0.59793814 	0.002122583 	-6.8624988e-05 	4.2644552e-07 	0.0021274285 	-2.8658036e-08 	0.00083472802
0.60824742 	0.0021416187 	6.9334371e-05 	-2.1869745e-07 	0.0021570939 	-4.6410189e-08 	2.860057e-05
0.6185567 	0.002177172 	0.00018978944 	6.5427935e-07 	0.0022050222 	7.1081337e-08 	0.00085276482
0.62886598 	0.002223701 	0.00029943313 	1.2480618e-06 	0.0022613625 	2.9803988e-07 	0.00088205881
0.63917526 	0.0022771008 	0.00040027064 	-1.3158245e-07 	0.0023223444 	-6.6719256e-08 	0.00021276416
0.64948454 	0.0023341958 	0.00048995052 	8.1412078e-07 	0.0023884835 	2.815723e-07 	0.00091943474
0.65979381 	0.0023946757 	0.00057374627 	3.0549383e-07 	0.0024559658 	1.3472964e-07 	0.00096273468
0.67010309 	0.0024570518 	0.00065027618 	-1.6649583e-08 	0.0025241136 	-1.0010583e-08 	0.00082692814
0.68041237 	0.0025210352 	0.00072040922 	8.2566606e-07 	0.0025935147 	4.3973976e-07 	0.001011054
0.69072165 	0.0025861956 	0.00078644948 	-5.0495985e-08 	0.0026619958 	-2.7505849e-08 	0.00044009097
0.70103093 	0.0026515146 	0.00084674455 	8.9694406e-07 	0.0027319454 	5.6609983e-07 	0.0010637241
0.71134021 	0.0027184223 	0.00090437631 	-3.5143272e-08 	0.0028004518 	-1.0968831e-08 	0.00042584922
0.72164948 	0.0027850499 	0.00095729873 	6.8461951e-07 	0.0028702743 	5.0564835e-07 	0.0011209431
0.73195876 	0.0028523856 	0.0010076502 	-7.5115296e-09 	0.0029382331 	5.7268199e-09 	0.00078978531
0.74226804 	0.0029227091 	0.0010563519 	3.9059057e-07 	0.003009657 	3.5202338e-07 	0.0011817683
0.75257732 	0.0029931522 	0.0011025695 	1.9794205e-08 	0.0030798629 	1.7839711e-08 	0.0011819021
0.7628866 	0.0030687406 	0.0011486384 	2.1984865e-07 	0.0031543766 	2.4796141e-07 	0.0012438673
0.77319588 	0.0031463723 	0.0011936054 	5.0225698e-08 	0.0032301845 	5.6648223e-08 	0.0012440118
0.78350515 	0.0032296972 	0.0012390836 	2.5284717e-07 	0.0033109093 	3.4637034e-07 	0.0013069705
0.79381443 	0.0033164871 	0.0012842476 	1.3945392e-08 	0.0033938648 	3.0294264e-08 	0.0010607029
0.80412371 	0.0034119778 	0.0013315526 	4.8021632e-07 	0.0034856571 	7.7812257e-07 	0.0013729179
0.81443299 	0.0035125122 	0.0013789266 	9.187526e-08 	0.0035789703 	1.9183631e-07 	0.00015905827
0.82474227 	0.0036255611 	0.0014308001 	5.0084105e-07 	0.0036886137 	9.3231341e-07 	0.001443508
0.83505155 	0.0037481186 	0.0014846242 	6.1047214e-08 	0.003804823 	1.2736429e-07 	0.0015202241
0.84536082 	0.0038843565 	0.0015417215 	6.0910558e-08 	0.0039325862 	1.344235e-07 	0.00092739136
0.8556701 	0.0040400741 	0.0016049664 	6.2104033e-07 	0.0040814256 	1.4254028e-06 	0.0016051102
0.86597938 	0.00421386 	0.0016728602 	3.2255432e-07 	0.004246648 	8.0344869e-07 	0.0016990029
0.87628866 	0.0044101213 	0.0017462262 	1.3147345e-07 	0.0044315254 	3.2498044e-07 	0.00058534628
0.88659794 	0.004635868 	0.0018282963 	7.3252931e-08 	0.0046487043 	1.925029e-07 	0.0011656534
0.89690722 	0.0048953771 	0.0019190641 	2.5251393e-07 	0.0048999973 	7.2074028e-07 	0.0019185672
0.90721649 	0.00519159 	0.0020184541 	6.0310604e-07 	0.0051873454 	1.8248953e-06 	0.0020441126
0.91752577 	0.0055271711 	0.002126962 	7.4426226e-07 	0.0055151403 	2.3748177e-06 	0.0021790699
0.92783505 	0.0059035485 	0.0022442776 	6.0586562e-07 	0.0058854496 	2.0293423e-06 	0.0023212519
0.93814433 	0.0063176186 	0.0023689192 	1.4971422e-07 	0.0062957579 	5.2304235e-07 	0.0024673662
0.94845361 	0.0067574449 	0.0024957524 	1.2817458e-07 	0.0067304299 	4.5463971e-07 	0.00041292323
0.95876289 	0.0072033015 	0.0026276236 	2.3598021e-07 	0.0071827972 	1.002168e-06 	0.0028821928
0.96907216 	0.0076011901 	0.0027230215 	5.4162484e-08 	0.0075806383 	2.0803967e-07 	0.0009802869
0.97938144 	0.0078489131 	0.0027844393 	-1.0714243e-08 	0.0078368895 	3.6580749e-08 	0.0031075739
0.98969072 	0.0072370557 	0.0025780339 	-6.6790315e-07 	0.0072276045 	-2.0238472e-06 	0.002908714
