0.47777778 	0.0074127631 	-0.0026744855 	1.116066e-09 	0.0073993535 	-3.0311268e-09 	0.00058831802
0.48888889 	0.0086791623 	-0.0030712834 	2.9699076e-07 	0.0086618072 	-8.5330517e-07 	0.0012067455
0.5 	0.0082480491 	-0.0029287978 	8.8233254e-07 	0.0082279994 	-2.5975746e-06 	0.0011512611
0.51111111 	0.0076472425 	-0.0027399702 	1.7389873e-06 	0.0076245207 	-5.2792991e-06 	0.0010730333
0.52222222 	0.0070142873 	-0.002523371 	3.7505145e-07 	0.0069885312 	-1.0946121e-06 	0.00094695625
0.53333333 	0.0063682092 	-0.0023025421 	3.1887351e-06 	0.0063399567 	-9.1612733e-06 	0.00087618131
0.54444444 	0.0057343683 	-0.002080395 	3.4410579e-06 	0.0057039596 	-9.6766923e-06 	0.00080175841
0.55555556 	0.005125253 	-0.0018591864 	2.5568412e-06 	0.0050932609 	-6.9655884e-06 	0.00072472274
0.56666667 	0.004554362 	-0.0016405128 	2.4207612e-06 	0.0045215 	-6.2688784e-06 	0.000646653
0.57777778 	0.0040369077 	-0.00142439 	3.0344908e-06 	0.004003868 	-7.1994691e-06 	0.00057005647
0.58888889 	0.0035862696 	-0.0012114643 	4.3448935e-06 	0.0035537253 	-9.0469266e-06 	0.00049856588
0.6 	0.0032094737 	-0.001004145 	3.98383e-06 	0.0031781505 	-6.9396019e-06 	0.00043617962
0.61111111 	0.0029067806 	-0.00080455453 	1.5666229e-06 	0.0028774206 	-2.1190476e-06 	0.00038665364
0.62222222 	0.0026817633 	-0.00061486115 	-1.6154487e-08 	0.0026548451 	2.8900803e-08 	0.00021539994
0.63333333 	0.0025506273 	-0.00043719042 	2.8964867e-06 	0.0025273779 	-2.5751246e-06 	0.00035305691
0.64444444 	0.0024765025 	-0.00026522441 	3.3197669e-06 	0.0024569226 	-1.3720448e-06 	0.00033797028
0.65555556 	0.0024492256 	-9.817898e-05 	-2.2495549e-08 	0.002433113 	2.3231632e-08 	0.00010693769
0.66666667 	0.0024837659 	5.7867721e-05 	3.1599431e-06 	0.0024719622 	-7.3513712e-09 	0.0003394682
0.67777778 	0.0025421806 	0.00020917855 	1.855309e-06 	0.0025341233 	6.4965963e-07 	0.00035470985
0.68888889 	0.0026296461 	0.00035358946 	1.1679843e-06 	0.0026250593 	4.089843e-07 	0.0003548832
0.7 	0.0027433169 	0.000490767 	3.1159534e-06 	0.0027418424 	2.0939629e-06 	0.00038191305
0.71111111 	0.0028686227 	0.00062448932 	2.093783e-07 	0.0028700126 	1.4070506e-07 	0.00038215738
0.72222222 	0.0030171926 	0.00074912677 	3.4235258e-06 	0.0030209308 	3.3433815e-06 	0.00041991276
0.73333333 	0.0031698159 	0.00087152412 	7.0697016e-08 	0.0031756987 	6.9042008e-08 	0.00042020779
0.74444444 	0.0033441253 	0.00098814942 	3.1601547e-06 	0.0033516571 	4.0447826e-06 	0.00046673632
0.75555556 	0.0035209621 	0.0011030971 	-8.9324083e-12 	0.0035299383 	2.1340537e-11 	0.00046665012
0.76666667 	0.0037191114 	0.0012149146 	3.0477011e-06 	0.003729059 	4.7983859e-06 	0.00051803366
0.77777778 	0.003920249 	0.0013252053 	-5.27233e-09 	0.0039300665 	2.5351978e-08 	6.1741646e-05
0.78888889 	0.0041379504 	0.0014328085 	2.2514026e-06 	0.0041489648 	4.1441615e-06 	0.00057058411
0.8 	0.0043602275 	0.0015387939 	6.1395212e-07 	0.0043713966 	1.2796436e-06 	0.00062290163
0.81111111 	0.0045928747 	0.0016425253 	7.9114906e-07 	0.004603761 	1.6489703e-06 	0.00062334458
0.82222222 	0.0048341869 	0.0017446447 	1.924492e-06 	0.0048446573 	4.4382429e-06 	0.00067511067
0.83333333 	0.0050813535 	0.001845637 	1.9792922e-07 	0.0050912585 	4.9627491e-07 	0.00072574444
0.84444444 	0.0053373231 	0.0019449274 	4.9610503e-07 	0.0053463829 	1.2439016e-06 	0.00072623077
0.85555556 	0.0055998454 	0.0020428783 	1.4634976e-06 	0.0056080708 	3.9349548e-06 	0.00077530465
0.86666667 	0.0058673081 	0.0021396111 	1.0498864e-06 	0.0058746495 	2.9940791e-06 	0.00082243655
0.87777778 	0.0061393292 	0.0022349667 	3.681411e-07 	0.0061457552 	1.1036666e-06 	0.00086733505
0.88888889 	0.0064148551 	0.0023286436 	7.322892e-10 	0.0064200538 	6.2996489e-09 	0.00075505425
0.9 	0.0066921918 	0.0024201529 	3.713407e-09 	0.006695152 	2.9474281e-08 	0.00012558995
0.91111111 	0.0069701466 	0.0025099407 	3.6475035e-09 	0.006972014 	2.6869193e-08 	0.00012572273
0.92222222 	0.0072465405 	0.0025977082 	4.5550164e-11 	0.0072488611 	3.0937628e-10 	0.0010094983
0.93333333 	0.007517078 	0.0026818903 	2.8944051e-07 	0.0075180451 	1.0067736e-06 	0.0010522826
0.94444444 	0.0077777985 	0.0027621532 	6.3732859e-07 	0.007776921 	2.2708391e-06 	0.0010806389
0.95555556 	0.0080207094 	0.002840158 	8.8259617e-08 	0.0080178181 	2.704719e-07 	0.0011056942
0.96666667 	0.0082106145 	0.002890144 	2.2621706e-08 	0.0082049094 	5.3851409e-07 	0.0011399753
0.97777778 	0.0082895066 	0.0029132965 	-1.5171624e-07 	0.0082807147 	-4.6846602e-07 	0.00115049
0.98888889 	0.0076602048 	0.0027163769 	-1.5006648e-06 	0.0076483857 	-4.6310827e-06 	0.0010577052
