0 	0.0049155502 	-3.3385021e-16 	-6.0487769e-22 	2.3591297e-18 	1.0300183e-19 	4.4971568e-21
0.010869565 	0.0049234288 	-0.00015114129 	2.3389331e-08 	0.0053536105 	-1.2796103e-05 	0.002359468
0.02173913 	0.0049583341 	-0.0003004504 	6.1214102e-09 	0.0053870717 	-1.0310515e-05 	0.0026080251
0.032608696 	0.0050154104 	-0.00044817788 	5.3171986e-09 	0.0054411852 	-2.9513912e-06 	0.0028593008
0.043478261 	0.0050926561 	-0.00059279839 	2.1614788e-08 	0.0055140557 	-4.357269e-06 	0.0031282713
0.054347826 	0.0051877305 	-0.00073400614 	1.2687789e-07 	0.0056004118 	-4.2503858e-07 	0.0018933743
0.065217391 	0.0053059487 	-0.0008801769 	3.0798992e-07 	0.0057072329 	-9.485018e-07 	0.00047712472
0.076086957 	0.0054137519 	-0.00099821366 	2.202993e-07 	0.0058091763 	-6.2968951e-07 	0.0019319687
0.086956522 	0.0055352637 	-0.0011203829 	6.5618246e-08 	0.0059247566 	-2.0666632e-06 	0.0042469064
0.097826087 	0.0056632855 	-0.0012375284 	1.0031721e-07 	0.0060396298 	-2.7100157e-07 	0.0037364663
0.10869565 	0.0057917258 	-0.0013478919 	6.2796337e-07 	0.0061471052 	-1.6305077e-06 	7.6041909e-05
0.11956522 	0.0059092495 	-0.0014477667 	8.7122323e-08 	0.0062587587 	-2.1961093e-07 	0.0045035448
0.13043478 	0.0060245648 	-0.0015415035 	2.7346989e-07 	0.0063555749 	-6.8934087e-07 	0.0034753739
0.14130435 	0.0061283629 	-0.0016262452 	5.9394938e-07 	0.0064380066 	-1.4608427e-06 	0.0016411851
0.15217391 	0.0062209276 	-0.0017035958 	3.2623847e-08 	0.0065204139 	-8.0239678e-08 	0.0057351613
0.16304348 	0.0062965238 	-0.0017696809 	9.2531565e-07 	0.0065643747 	-2.2236717e-06 	6.6589502e-05
0.17391304 	0.006360728 	-0.0018301718 	1.7587358e-08 	0.0066212756 	-1.1147617e-07 	0.006416478
0.18478261 	0.0063981787 	-0.0018758685 	9.2072468e-07 	0.0066250301 	-2.1590268e-06 	0.00059397824
0.19565217 	0.0064295575 	-0.0019191161 	3.1463537e-08 	0.0066467437 	-7.1752847e-08 	0.0064330511
0.20652174 	0.006424164 	-0.0019439209 	9.5056268e-07 	0.0066059906 	-2.1677658e-06 	0.00021126546
0.2173913 	0.0064186519 	-0.0019691778 	2.2068852e-08 	0.0065903678 	-5.0328192e-08 	0.006129673
0.22826087 	0.0063689784 	-0.0019732234 	7.3957867e-07 	0.0065078264 	-1.6325818e-06 	0.0010805022
0.23913043 	0.0063191615 	-0.0019774612 	2.0693645e-07 	0.0064428286 	-4.5680155e-07 	0.0044612496
0.25 	0.0062349723 	-0.0019652963 	3.6665504e-07 	0.0063341603 	-7.7932154e-07 	0.003037953
0.26086957 	0.0061347458 	-0.0019454228 	4.4905101e-07 	0.0062112859 	-9.5445334e-07 	0.0022080487
0.27173913 	0.0060281269 	-0.0019223971 	1.65408e-07 	0.0060904587 	-5.8655014e-07 	0.0052101253
0.2826087 	0.0058754883 	-0.0018762074 	5.7849355e-07 	0.0059095368 	-1.1796417e-06 	0.00042301512
0.29347826 	0.0057353623 	-0.0018360043 	1.0832063e-07 	0.0057582569 	-2.2088324e-07 	0.0038317065
0.30434783 	0.0055658835 	-0.0017795534 	1.1142036e-07 	0.0055719196 	-2.1888482e-07 	0.003490705
0.31521739 	0.0053761226 	-0.0017113854 	3.8941901e-07 	0.0053620642 	-7.6501196e-07 	0.00068323709
0.32608696 	0.0051995646 	-0.0016493529 	4.1406144e-07 	0.0051780718 	-1.2061978e-06 	0.0039488334
0.33695652 	0.0049963623 	-0.0015687465 	1.0071663e-07 	0.0049612213 	-1.9653958e-07 	0.0026572816
0.34782609 	0.0047874616 	-0.0014826589 	2.4104611e-07 	0.0047389713 	-4.7038011e-07 	0.00078104031
0.35869565 	0.0045919872 	-0.0014024386 	7.9499127e-07 	0.0045392447 	-2.0792745e-06 	0.0032684812
0.36956522 	0.0043885768 	-0.0013097161 	3.9040426e-08 	0.0043278227 	-8.3123085e-08 	0.0025629862
0.38043478 	0.0041844962 	-0.0012109966 	1.6777334e-07 	0.0041143208 	-3.572153e-07 	0.00031835224
0.39130435 	0.0039964674 	-0.0011213695 	3.6916919e-09 	0.0039257111 	-7.8601811e-09 	0.002602949
0.40217391 	0.003817847 	-0.0010248991 	6.1341972e-07 	0.0037437365 	-1.4015807e-06 	0.0026134107
0.41304348 	0.003649634 	-0.00092338848 	8.7620057e-08 	0.0035693823 	-2.3643263e-07 	0.00053272381
0.42391304 	0.0034940819 	-0.00082899067 	3.7523499e-08 	0.0034134879 	-1.0125284e-07 	0.0014205148
0.43478261 	0.0033562215 	-0.00073502199 	3.1456302e-06 	0.0032752488 	-5.8960614e-06 	0.0021366741
0.44565217 	0.0032356086 	-0.00063911142 	1.9405467e-08 	0.0031520697 	-6.804438e-08 	0.0015508079
0.45652174 	0.0031338859 	-0.0005431029 	6.1851027e-08 	0.0030466674 	-2.1687779e-07 	0.00027127401
0.4673913 	0.0030392975 	-0.00045446377 	1.7944991e-09 	0.0029536577 	-6.2923287e-09 	0.0017762753
0.47826087 	0.0029753054 	-0.00036489637 	2.1553534e-06 	0.0028881453 	-2.8980505e-06 	0.0018010185
0.48913043 	0.002927281 	-0.00027492062 	2.4603626e-08 	0.0028369748 	-9.1240706e-08 	0.0010623828
0.5 	0.0028964585 	-0.0001853974 	4.375578e-08 	0.0028030597 	-1.6226504e-07 	0.00046340828
0.51086957 	0.0028707145 	-9.7927504e-05 	6.5012887e-07 	0.0027775606 	-4.7006479e-07 	0.0016688527
0.52173913 	0.0028689466 	-1.1302877e-05 	1.5734119e-06 	0.0027735109 	-1.1376291e-06 	0.0016534042
0.5326087 	0.0028838954 	7.4726298e-05 	2.8320559e-08 	0.0027844806 	-9.1762468e-08 	0.00080686847
0.54347826 	0.0029119265 	0.00016170481 	3.1043434e-08 	0.0028098209 	-1.0058495e-07 	0.00073687228
0.55434783 	0.0029488824 	0.00024919885 	1.5233714e-06 	0.0028459576 	-1.8634151e-07 	0.0016661618
0.56521739 	0.0029978507 	0.00033507984 	4.669272e-07 	0.002892442 	-5.7115368e-08 	0.0016539919
0.57608696 	0.0030654131 	0.00041841368 	3.8597351e-08 	0.002955149 	-1.1137887e-07 	0.00024463876
0.58695652 	0.003138185 	0.00050453878 	4.560567e-09 	0.003028158 	-1.3160251e-08 	0.0015879581
0.59782609 	0.0032233792 	0.00058808597 	1.8098952e-06 	0.0031118949 	6.9405192e-07 	0.0017567213
0.60869565 	0.0033156399 	0.00066968166 	1.1209031e-08 	0.0032012774 	-4.2331439e-08 	0.00097472069
0.61956522 	0.0034182864 	0.00075105776 	1.1066935e-08 	0.0033031092 	-4.179481e-08 	0.0010763368
0.63043478 	0.0035277424 	0.00083210412 	1.8126349e-06 	0.003413577 	1.4753611e-06 	0.0019093776
0.64130435 	0.0036415565 	0.00091062619 	-7.4950962e-10 	0.0035265054 	-1.9521535e-08 	0.0014689314
0.65217391 	0.0037634653 	0.00098684686 	-1.8645412e-09 	0.0036480864 	-4.8563362e-08 	0.00090458725
0.66304348 	0.0038905763 	0.0010636407 	1.3951325e-06 	0.0037786123 	1.6562177e-06 	0.0020869212
0.67391304 	0.0040194281 	0.0011371764 	-9.2804041e-09 	0.0039082418 	-2.5919902e-08 	0.0015642838
0.68478261 	0.0041527344 	0.0012082088 	-1.6572212e-08 	0.0040435885 	-4.6285713e-08 	0.0012658265
0.69565217 	0.0042891247 	0.0012786834 	1.2522816e-06 	0.0041850531 	1.9011815e-06 	0.0022721514
0.70652174 	0.0044240906 	0.0013448055 	-4.0316833e-08 	0.0043214428 	-8.1498101e-08 	0.0010298208
0.7173913 	0.0045622001 	0.0014105741 	-1.6537552e-09 	0.0044665868 	-3.3429687e-09 	0.0024016259
0.72826087 	0.0046979732 	0.0014722453 	3.5918755e-07 	0.0046075903 	6.5352401e-07 	0.0024523126
0.73913043 	0.0048289408 	0.0015287353 	-9.0094811e-08 	0.0047405203 	-1.7590715e-07 	0.00047286386
0.75 	0.004960972 	0.0015853988 	6.4024843e-07 	0.0048829922 	1.3473177e-06 	0.002620951
0.76086957 	0.0050850282 	0.0016359209 	-8.04063e-08 	0.0050110316 	-1.6427006e-07 	0.0011496681
0.77173913 	0.0052055679 	0.001684387 	1.1756213e-07 	0.0051420452 	2.8260206e-07 	0.0027655112
0.7826087 	0.0053176468 	0.001727663 	-2.3873555e-08 	0.0052611797 	-5.206863e-08 	0.0023795979
0.79347826 	0.0054199518 	0.0017660643 	-1.7766834e-08 	0.0053720743 	-3.8749768e-08 	0.0025836153
0.80434783 	0.0055133233 	0.0018002906 	1.6304313e-08 	0.0054745368 	4.6841163e-08 	0.0028794559
0.81521739 	0.0055926921 	0.0018282611 	-3.8164015e-08 	0.0055616143 	-8.8984667e-08 	0.0023835994
0.82608696 	0.0056615914 	0.0018522091 	-1.0183192e-09 	0.0056404503 	1.8405843e-09 	0.0029648383
0.83695652 	0.0057140455 	0.0018696758 	-4.4899207e-09 	0.0057015507 	-1.1149714e-08 	0.00295492
0.84782609 	0.0057511748 	0.0018812255 	-5.9280525e-08 	0.0057456555 	-1.5615893e-07 	0.0021896296
0.85869565 	0.0057713417 	0.001887366 	-1.9970929e-07 	0.005775441 	-5.1495377e-07 	0.0030432395
0.86956522 	0.005774067 	0.0018865684 	-1.9441611e-07 	0.0057801012 	-5.4190423e-07 	0.00027825029
0.88043478 	0.0057588699 	0.0018817391 	-2.7601778e-07 	0.0057766764 	-7.7519318e-07 	0.0030392426
0.89130435 	0.0057250159 	0.0018705837 	-5.6890074e-09 	0.0057477018 	-1.6775158e-08 	0.0029274531
0.90217391 	0.0056697561 	0.0018525883 	-1.3911613e-07 	0.0056918297 	-4.348966e-07 	0.00076856401
0.91304348 	0.0055944575 	0.0018318069 	-2.188073e-07 	0.005622674 	-7.3372994e-07 	0.0029622155
0.92391304 	0.0054995798 	0.0018080089 	-4.1605164e-07 	0.005527454 	-1.3706256e-06 	0.0028957835
0.93478261 	0.0053828309 	0.0017704475 	-3.1950883e-08 	0.0054081311 	-1.0827765e-07 	0.0028240099
0.94565217 	0.0052332143 	0.0017325993 	-4.2496183e-07 	0.0052537072 	-1.6743612e-06 	0.0027615516
0.95652174 	0.0050633283 	0.0016925667 	-5.9411312e-08 	0.005073504 	-2.4880312e-07 	0.00058105107
0.9673913 	0.0048504183 	0.0016457501 	-4.1440775e-08 	0.0048573152 	-1.7278719e-07 	0.0025718255
0.97826087 	0.0045383631 	0.0015700719 	-1.7596486e-08 	0.0045351679 	-8.4273672e-08 	0.00052475215
0.98913043 	0.0034909485 	0.0012505338 	-3.3270275e-09 	0.0034861536 	-1.5897202e-08 	0.00034615756
