0.17894737 	0.5947845 	0.27461422 	-0.0013510234
0.18947368 	1.1222312 	0.4667427 	-3.376339e-05
0.2 	1.1199927 	0.42953974 	-7.5356324e-05
0.21052632 	1.1209975 	0.39812772 	-0.00027976406
0.22105263 	1.1248129 	0.37094286 	-0.00011473307
0.23157895 	1.1297152 	0.34668599 	-0.00042722819
0.24210526 	1.1346561 	0.3254516 	-0.00039922493
0.25263158 	1.1392648 	0.30642121 	-0.00047914611
0.26315789 	1.1433983 	0.28913346 	-0.0002931421
0.27368421 	1.1468024 	0.27303689 	-0.0001220697
0.28421053 	1.1500007 	0.25737269 	-0.00033889999
0.29473684 	1.1538169 	0.24597492 	-1.1849658e-05
0.30526316 	1.1556826 	0.23362638 	-0.00011217674
0.31578947 	1.1575932 	0.22028308 	-0.00035141622
0.32631579 	1.1596273 	0.21262923 	-2.7623464e-05
0.33684211 	1.1609165 	0.20119248 	-0.00012949595
0.34736842 	1.1619342 	0.19289423 	-3.7591717e-05
0.35789474 	1.1628814 	0.18450686 	-1.7521938e-05
0.36842105 	1.1632688 	0.17615689 	-1.6134626e-05
0.37894737 	1.1636682 	0.1691382 	-6.2058278e-05
0.38947368 	1.1635112 	0.16185824 	-4.8568066e-07
0.4 	1.1635644 	0.15527668 	-0.00010076689
0.41052632 	1.1630146 	0.14894553 	-0.00010151719
0.42105263 	1.1626735 	0.14291277 	-7.3319802e-05
0.43157895 	1.1618205 	0.13729387 	-0.00026323983
0.44210526 	1.1610717 	0.13175629 	3.7495999e-07
0.45263158 	1.1599254 	0.12680255 	-0.00037620965
0.46315789 	1.1587805 	0.12183526 	-0.0001223194
0.47368421 	1.1574317 	0.11719045 	-0.00017795124
0.48421053 	1.1560063 	0.1127662 	-0.00026364632
0.49473684 	1.1545333 	0.10815698 	2.6143786e-06
0.50526316 	1.1527473 	0.10439314 	-0.00020380114
0.51578947 	1.1510482 	0.10049555 	-0.0001433529
0.52631579 	1.1491811 	0.096451583 	5.4691091e-06
0.53684211 	1.1471109 	0.093133608 	-0.0001785818
0.54736842 	1.1451239 	0.089698072 	-9.8451074e-05
0.55789474 	1.1429917 	0.085995003 	1.2671139e-05
0.56842105 	1.1405762 	0.083145151 	-0.00011817544
0.57894737 	1.1383053 	0.080150463 	-0.00010670434
0.58947368 	1.1359992 	0.076869806 	1.7647351e-05
0.6 	1.133161 	0.074208915 	-4.6626963e-05
0.61052632 	1.1305277 	0.071522417 	-0.0001227965
0.62105263 	1.1279017 	0.068705854 	1.10638e-05
0.63157895 	1.124728 	0.066092321 	-4.1827375e-06
0.64210526 	1.1216412 	0.063603658 	-0.00011481592
0.65263158 	1.1185787 	0.061013935 	1.0136785e-05
0.66315789 	1.1149957 	0.058584441 	-5.1135261e-06
0.67368421 	1.1114679 	0.056284041 	-8.3216842e-05
0.68421053 	1.1079936 	0.053829707 	1.6582107e-05
0.69473684 	1.1038458 	0.051653829 	-3.4357184e-05
0.70526316 	1.0998447 	0.049505895 	-3.6030041e-05
0.71578947 	1.0957513 	0.047207497 	1.4325164e-05
0.72631579 	1.0910676 	0.045224493 	-8.2314199e-05
0.73684211 	1.0865831 	0.043129563 	8.4125081e-06
0.74736842 	1.0814517 	0.041133961 	-3.2342822e-05
0.75789474 	1.0763382 	0.039209444 	-1.5588169e-05
0.76842105 	1.0708145 	0.03722218 	-5.6606541e-06
0.77894737 	1.0650412 	0.035378166 	-3.3598358e-05
0.78947368 	1.0589659 	0.033466584 	1.5379195e-06
0.8 	1.0524402 	0.031691093 	-3.6272525e-05
0.81052632 	1.0456072 	0.029857313 	-1.1081084e-06
0.82105263 	1.0383004 	0.028129867 	-2.6822697e-05
0.83157895 	1.0305447 	0.026360996 	-1.6536682e-05
0.84210526 	1.0223643 	0.02467383 	-7.4971008e-06
0.85263158 	1.0134747 	0.022958359 	-4.0962295e-05
0.86315789 	1.0043349 	0.021254564 	4.3525778e-06
0.87368421 	0.99406506 	0.019626525 	-2.4662281e-05
0.88421053 	0.98323313 	0.017964702 	-3.1050903e-05
0.89473684 	0.97172695 	0.016315467 	5.0410139e-07
0.90526316 	0.95899384 	0.014700836 	-8.7292947e-06
0.91578947 	0.94496813 	0.0130635 	-2.85017e-05
0.92631579 	0.92943393 	0.011427718 	-3.4718542e-05
0.93684211 	0.91225957 	0.0098223226 	-2.1793367e-05
0.94736842 	0.89222399 	0.0082105581 	-2.055877e-05
0.95789474 	0.86626733 	0.0064838756 	-3.2174994e-06
0.96842105 	0.83204583 	0.0047887121 	-8.7648216e-06
0.97894737 	0.77831998 	0.0030515532 	-2.0163765e-06
0.98947368 	0.64785041 	0.0012704457 	-8.2111841e-06
