8.2204959e-36 	0.0055770236 	-3.7876585e-16 	-1.3767034e-22 	1.372402e-18 	2.0559782e-33 	1.3886782e-18
0.010869565 	0.0055995138 	-0.00024025986 	7.2479804e-08 	0.0062147258 	-2.4973488e-05 	0.0017943284
0.02173913 	0.00568047 	-0.00047386223 	2.3250544e-08 	0.0062936208 	-1.5146841e-05 	0.0021960566
0.032608696 	0.0058098447 	-0.00070387724 	1.1008094e-08 	0.006418531 	-2.9801154e-06 	0.0026067071
0.043478261 	0.0059814568 	-0.00092731286 	9.5549689e-08 	0.0065832606 	-1.0309549e-05 	0.0030544095
0.054347826 	0.0061874962 	-0.0011441365 	2.5255786e-07 	0.0067755664 	-7.0876365e-07 	0.0012805246
0.065217391 	0.0064315927 	-0.0013621687 	3.4714461e-07 	0.0070051325 	-9.3497135e-07 	0.0012685653
0.076086957 	0.0066550804 	-0.0015414701 	4.0720852e-07 	0.0072138494 	-1.0636099e-06 	0.00157268
0.086956522 	0.006893626 	-0.001721342 	5.4949996e-08 	0.0074403423 	-1.0184159e-06 	0.0049830929
0.097826087 	0.0071354724 	-0.0018910256 	1.2367428e-08 	0.0076610656 	-1.5433423e-07 	0.0055626885
0.10869565 	0.0073674413 	-0.0020467772 	8.0610522e-07 	0.0078580723 	-2.0317927e-06 	0.00099730211
0.11956522 	0.0075732249 	-0.0021857083 	2.8691028e-07 	0.0080435049 	-7.1261502e-07 	0.0047892201
0.13043478 	0.0077612183 	-0.0023112972 	2.6112614e-07 	0.0082016763 	-6.4857351e-07 	0.005461527
0.14130435 	0.0079181642 	-0.0024189904 	1.0632275e-06 	0.0083156619 	-2.5958929e-06 	0.001066715
0.15217391 	0.0080497681 	-0.0025148454 	2.3336438e-07 	0.0084264928 	-1.2932521e-06 	0.007931235
0.16304348 	0.0081334503 	-0.0025854911 	1.1756791e-06 	0.0084580477 	-2.8117485e-06 	0.001058365
0.17391304 	0.0081967547 	-0.0026480969 	1.9440819e-07 	0.0084965345 	-4.5418746e-07 	0.0072967478
0.18478261 	0.0082028317 	-0.0026826723 	1.0033546e-06 	0.0084518766 	-2.3440942e-06 	0.0017038423
0.19565217 	0.0081942023 	-0.0027117292 	9.8583193e-08 	0.0084161729 	-2.2525591e-07 	0.0071945056
0.20652174 	0.0081190767 	-0.0027086047 	8.8613068e-07 	0.0082905959 	-2.0247485e-06 	0.0011553846
0.2173913 	0.0080413577 	-0.0027055176 	7.9254402e-07 	0.008188413 	-2.8175953e-06 	0.0071650183
0.22826087 	0.0078886875 	-0.0026650671 	7.4781197e-07 	0.0079875684 	-1.6930468e-06 	0.00040381174
0.23913043 	0.0077465795 	-0.002630914 	1.0943107e-08 	0.0078243017 	-2.4775201e-08 	0.0062490216
0.25 	0.0075389899 	-0.0025620781 	2.8114441e-07 	0.0075811161 	-6.6092683e-07 	0.0028503311
0.26086957 	0.0073255304 	-0.0024901839 	1.9981982e-07 	0.0073418418 	-4.6974535e-07 	0.0033159421
0.27173913 	0.0070968732 	-0.0024086807 	4.6013133e-07 	0.0070934572 	-1.358149e-06 	0.0052740296
0.2826087 	0.0068276865 	-0.0023027178 	2.6187689e-07 	0.0067956523 	-7.3751283e-07 	0.00021853784
0.29347826 	0.0065796935 	-0.0022075571 	9.8576013e-07 	0.0065385427 	-2.691075e-06 	0.0044291782
0.30434783 	0.0063087142 	-0.0020945423 	2.286844e-08 	0.0062529118 	-1.1358037e-07 	0.0033637186
0.31521739 	0.0060329554 	-0.0019757176 	6.7958715e-08 	0.0059634781 	-3.3752962e-07 	0.0012447288
0.32608696 	0.005773826 	-0.0018632244 	3.4129121e-06 	0.0057006981 	-8.6892239e-06 	0.0035160311
0.33695652 	0.0055121177 	-0.0017434257 	6.3257666e-09 	0.0054317696 	-1.2244073e-07 	0.0024485581
0.34782609 	0.005258195 	-0.0016236079 	1.2344932e-08 	0.0051724248 	-2.3894692e-07 	0.001240342
0.35869565 	0.0050239315 	-0.001510799 	3.7534284e-06 	0.004938746 	-8.9475305e-06 	0.0027586297
0.36956522 	0.0047958755 	-0.0013964492 	8.6656711e-10 	0.0047087728 	-4.1604378e-08 	0.0024144868
0.38043478 	0.0045816796 	-0.0012829665 	6.1644876e-09 	0.0044912387 	-2.9596054e-07 	0.00065174055
0.39130435 	0.0043887266 	-0.00117855 	2.4590652e-06 	0.0043010366 	-5.4282693e-06 	0.0021671912
0.40217391 	0.0042073293 	-0.001074442 	1.6905162e-06 	0.0041195549 	-3.731734e-06 	0.0021044163
0.41304348 	0.004038134 	-0.00097028273 	2.2796131e-08 	0.0039471066 	-3.5478737e-07 	0.00028788948
0.42391304 	0.0038875008 	-0.00087505007 	2.431608e-07 	0.0037992436 	-4.7450058e-07 	0.0017317426
0.43478261 	0.0037602465 	-0.00078139412 	4.3419968e-06 	0.003671271 	-8.4729118e-06 	0.001686744
0.44565217 	0.0036344518 	-0.00068772741 	3.7842528e-09 	0.003544473 	-3.0022811e-08 	0.0015095286
0.45652174 	0.0035323266 	-0.00059632904 	3.0035446e-08 	0.0034392436 	-2.3828971e-07 	0.00049397526
0.4673913 	0.0034480685 	-0.00051088122 	2.0521208e-06 	0.0033550946 	-3.1918072e-06 	0.0014030461
0.47826087 	0.0033777687 	-0.00042529049 	3.2305697e-06 	0.003282634 	-5.0247313e-06 	0.0013707856
0.48913043 	0.0033122874 	-0.00033956688 	1.3471947e-08 	0.0032142677 	-6.8995909e-08 	0.0010265713
0.5 	0.003269035 	-0.00025433713 	2.5308291e-08 	0.0031675233 	-1.2961516e-07 	0.00068490074
0.51086957 	0.0032425652 	-0.00017075624 	2.6367418e-06 	0.0031388355 	-2.700119e-06 	0.0012158743
0.52173913 	0.0032244007 	-8.7243557e-05 	2.6555527e-06 	0.0031172137 	-2.719382e-06 	0.001192153
0.5326087 	0.0032129166 	-3.7155722e-06 	2.1752269e-08 	0.0031013713 	-7.8011304e-08 	0.00074986267
0.54347826 	0.0032208891 	8.1492574e-05 	9.5750894e-09 	0.0031058029 	-3.4339646e-08 	0.00096838412
0.55434783 	0.0032466211 	0.00016701978 	3.3474342e-06 	0.00312777 	-1.554621e-06 	0.0011353284
0.56521739 	0.00327444 	0.00025242863 	1.508279e-06 	0.0031514697 	-7.0047748e-07 	0.0011170918
0.57608696 	0.0033143797 	0.00033726466 	5.2963995e-08 	0.0031854665 	-1.357259e-07 	0.00011298678
0.58695652 	0.0033709879 	0.00042459054 	1.2702257e-06 	0.0032399442 	3.8015561e-08 	0.0011395758
0.59782609 	0.0034375121 	0.00051114763 	2.8790452e-06 	0.0033026242 	8.6164623e-08 	0.0011250186
0.60869565 	0.0035060771 	0.0005975144 	1.1736604e-08 	0.0033669616 	-2.1191053e-08 	0.00087442357
0.61956522 	0.0035922255 	0.00068489925 	1.6139023e-07 	0.003450329 	7.5011331e-08 	0.0011847024
0.63043478 	0.0036907104 	0.00077213367 	3.3922854e-06 	0.003546027 	1.5766744e-06 	0.0011728533
0.64130435 	0.0037891954 	0.0008593681 	2.6412672e-07 	0.003641725 	1.2276144e-07 	0.0011610042
0.65217391 	0.0039017242 	0.0009465319 	5.2060191e-09 	0.0037521459 	-6.4490785e-09 	0.0011190099
0.66304348 	0.0040259018 	0.001033775 	2.9869053e-06 	0.0038753558 	2.5445045e-06 	0.0012476282
0.67391304 	0.0041504994 	0.0011208681 	2.065389e-07 	0.0039987697 	1.7594772e-07 	0.0012379461
0.68478261 	0.0042870685 	0.0012073791 	1.4282604e-07 	0.0041354041 	1.7221401e-07 	0.0013482046
0.69565217 	0.0044322826 	0.0012931213 	2.3873531e-06 	0.0042814006 	2.8785763e-06 	0.0013403366
0.70652174 	0.0045782969 	0.0013781615 	6.3493508e-09 	0.0044274888 	-6.1595132e-09 	0.00086446115
0.7173913 	0.0047350655 	0.0014622775 	9.0434224e-07 	0.0045877374 	1.3945348e-06 	0.0014501614
0.72826087 	0.0048948775 	0.0015449197 	1.1506308e-06 	0.0047505647 	1.7743224e-06 	0.0014438626
0.73913043 	0.0050566864 	0.0016252712 	-2.7889927e-09 	0.0049147632 	-1.1733424e-08 	0.00072408471
0.75 	0.0052244006 	0.0017038105 	1.8853948e-06 	0.0050893106 	3.5410572e-06 	0.0015566856
0.76086957 	0.0053911217 	0.0017801456 	-1.2100653e-08 	0.0052605533 	-1.6806078e-08 	0.00099067055
0.77173913 	0.0055588065 	0.0018521465 	8.4253532e-07 	0.0054368589 	1.8888823e-06 	0.0016653002
0.7826087 	0.0057250653 	0.0019217672 	2.4282829e-07 	0.0056110297 	5.4439741e-07 	0.0016615062
0.79347826 	0.0058856985 	0.0019852947 	3.21127e-07 	0.0057811931 	8.6827311e-07 	0.0017642785
0.80434783 	0.0060413783 	0.0020445998 	3.2934877e-07 	0.005947185 	8.9050337e-07 	0.0017614474
0.81521739 	0.0061871256 	0.0020974488 	1.3189851e-07 	0.0061044751 	4.7081012e-07 	0.0018486243
0.82608696 	0.0063219489 	0.0021438806 	1.6520115e-07 	0.0062517465 	5.8968348e-07 	0.0018465677
0.83695652 	0.0064400491 	0.0021819379 	2.9229082e-08 	0.0063833182 	3.5939113e-07 	0.0019141059
0.84782609 	0.0065436827 	0.0022131139 	5.7363818e-09 	0.0065010455 	7.0532654e-08 	0.001912647
0.85869565 	0.0066179862 	0.0022317669 	-2.747597e-07 	0.0065901684 	-1.0688323e-07 	0.0019575589
0.86956522 	0.006674171 	0.0022426087 	-1.7017055e-07 	0.0066576616 	-3.6757951e-07 	0.00011063234
0.88043478 	0.0066936803 	0.0022404546 	-5.1412082e-07 	0.0066957149 	-8.5566999e-07 	0.0019770826
0.89130435 	0.0066837843 	0.0022273151 	-4.1503871e-07 	0.0066999413 	-8.8557006e-07 	0.0019726818
0.90217391 	0.0066381441 	0.0022012836 	-1.2641811e-07 	0.0066648882 	-3.1863399e-07 	0.00071700353
0.91304348 	0.0065442501 	0.0021614732 	-7.5750152e-07 	0.0065840239 	-1.894745e-06 	0.0019437103
0.92391304 	0.0064124581 	0.002110512 	-1.293696e-06 	0.00645956 	-3.4297613e-06 	0.0018928184
0.93478261 	0.0062342342 	0.0020411816 	-6.0901283e-07 	0.0062847651 	-1.7069951e-06 	0.0018303177
0.94565217 	0.0059839105 	0.0019554393 	-1.1801835e-06 	0.0060324641 	-3.7181259e-06 	0.0017719669
0.95652174 	0.0056849158 	0.0018627338 	-8.1787029e-08 	0.0057231487 	-2.8701246e-07 	0.00050488155
0.9673913 	0.005300176 	0.0017563477 	-3.9100713e-07 	0.0053264477 	-1.46739e-06 	0.001582154
0.97826087 	0.0047785217 	0.0016227174 	-2.6798314e-08 	0.0047859116 	-1.2227733e-07 	0.00045438108
0.98913043 	0.0035226522 	0.0012548115 	-3.4913875e-09 	0.0035198053 	-1.9437256e-08 	0.00041980544
