0.47916667 	0.94015747 	5.4587143e-05 	4.0976298e-08
0.48958333 	1.1338871 	0.00021538451 	-9.1468166e-08
0.5 	1.2208982 	0.00038450874 	8.8313382e-08
0.51041667 	1.2784239 	0.00057857513 	8.4610881e-07
0.52083333 	1.3206389 	0.00078514408 	-3.1031123e-07
0.53125 	1.3536362 	0.00099979743 	-1.6121101e-07
0.54166667 	1.3798628 	0.0012109084 	3.582014e-07
0.55208333 	1.4006388 	0.001413482 	6.9842958e-07
0.5625 	1.416396 	0.001589874 	4.3180669e-07
0.57291667 	1.4273636 	0.0017200396 	2.3036597e-09
0.58333333 	1.4339401 	0.0017906898 	-3.0737835e-07
0.59375 	1.4375779 	0.0018161974 	-3.8791485e-07
0.60416667 	1.4392942 	0.0018118325 	-1.0362467e-07
0.61458333 	1.4397165 	0.0017858267 	-7.5870119e-07
0.625 	1.4393394 	0.0017455759 	-1.7166774e-07
0.63541667 	1.438334 	0.0016953067 	-8.0643692e-08
0.64583333 	1.4368251 	0.0016371157 	-1.2082546e-06
0.65625 	1.4348737 	0.0015706807 	-2.2470476e-07
0.66666667 	1.4326123 	0.0015014781 	-7.8107812e-07
0.67708333 	1.4299978 	0.0014266482 	-4.5311843e-08
0.6875 	1.4270681 	0.0013478809 	-1.4624166e-08
0.69791667 	1.423852 	0.0012666512 	-1.5408633e-07
0.70833333 	1.4203205 	0.0011816892 	-1.3493774e-08
0.71875 	1.4165704 	0.0010965931 	-9.5621577e-08
0.72916667 	1.4125809 	0.0010103674 	-1.2954477e-07
0.73958333 	1.4082661 	0.00092303714 	-1.1371988e-08
0.75 	1.4037469 	0.00083633123 	-6.2575985e-07
0.76041667 	1.3989136 	0.00075008581 	1.7365229e-10
0.77083333 	1.393735 	0.00066331321 	-6.5602516e-07
0.78125 	1.3882861 	0.00057951852 	1.574064e-08
0.79166667 	1.3824758 	0.00049659499 	-1.4388245e-07
0.80208333 	1.3762988 	0.00041779081 	-2.3301847e-07
0.8125 	1.3697488 	0.0003420965 	7.9390455e-08
0.82291667 	1.3626731 	0.00027034348 	-1.1947702e-06
0.83333333 	1.3551897 	0.00020387773 	1.1523018e-07
0.84375 	1.3470524 	0.00014197787 	2.7516494e-08
0.85416667 	1.3381846 	8.7870287e-05 	-7.1718173e-07
0.86458333 	1.328602 	4.0545695e-05 	5.5000106e-08
0.875 	1.3180342 	1.8822797e-06 	2.4983639e-07
0.88541667 	1.3062143 	-2.8445214e-05 	3.7945684e-08
0.89583333 	1.2929312 	-4.8203455e-05 	-8.6193323e-08
0.90625 	1.2778698 	-5.7965796e-05 	-4.1829063e-08
0.91666667 	1.2605616 	-5.7924462e-05 	5.2070711e-08
0.92708333 	1.2403641 	-4.8970582e-05 	9.7565456e-08
0.9375 	1.2164126 	-3.305739e-05 	3.8976967e-08
0.94791667 	1.187284 	-1.329609e-05 	1.1726869e-07
0.95833333 	1.1505668 	5.6670524e-06 	8.4950319e-09
0.96875 	1.101468 	1.9366765e-05 	9.0191815e-08
0.97916667 	1.0265056 	2.3302701e-05 	-6.1073648e-10
0.98958333 	0.86974119 	1.9150531e-05 	3.7742493e-08
