0.47777778 	0.0074065238 	-0.0026722171 	1.3684859e-08 	0.0073931972 	-3.7105659e-08 	0.00058789516
0.48888889 	0.008685195 	-0.003074059 	1.5466296e-09 	0.0086751177 	-1.4071581e-09 	0.0048178529
0.5 	0.0082588401 	-0.0029334128 	-3.1894916e-09 	0.0082462039 	1.5534617e-08 	0.0046568403
0.51111111 	0.0076752602 	-0.0027531874 	-6.8702633e-09 	0.0076609483 	2.7157934e-08 	0.0048853639
0.52222222 	0.00703927 	-0.0025306668 	-3.2194738e-08 	0.0070158898 	1.2268662e-07 	0.0015124624
0.53333333 	0.006407933 	-0.0023162469 	-1.6086466e-09 	0.0063891618 	5.9469865e-09 	0.0050526488
0.54444444 	0.0057839945 	-0.0020976382 	5.1645419e-08 	0.0057626641 	-1.4507502e-07 	0.0047585543
0.55555556 	0.0051822885 	-0.0018785144 	-2.76165e-08 	0.0051567907 	9.3869262e-08 	0.0033160943
0.56666667 	0.0046172822 	-0.0016627542 	-4.0185952e-08 	0.0045899139 	1.2978173e-07 	0.0027609071
0.57777778 	0.0041011719 	-0.0014505358 	-2.8285338e-08 	0.0040737171 	8.3114733e-08 	0.0028250768
0.58888889 	0.0036458409 	-0.0012406137 	4.0533366e-07 	0.0036190222 	-8.5717024e-07 	0.0029867388
0.6 	0.0032626669 	-0.0010343021 	-4.0324736e-09 	0.003235986 	1.0470713e-08 	0.0025599432
0.61111111 	0.0029618315 	-0.00083424067 	-1.0167654e-07 	0.0029342114 	2.2868816e-07 	0.0011427857
0.62222222 	0.0027364828 	-0.00064453589 	-1.8419626e-07 	0.0027094714 	3.4694056e-07 	0.00021913577
0.63333333 	0.0025798318 	-0.0004673486 	-3.9832436e-08 	0.0025583815 	5.9238647e-08 	0.0016888395
0.64444444 	0.0024967224 	-0.00029419172 	-2.4553451e-08 	0.0024787577 	3.6515798e-08 	0.0017660282
0.65555556 	0.0024791498 	-0.00012497754 	-1.7583875e-07 	0.0024617122 	1.9799345e-07 	0.00010780834
0.66666667 	0.002493089 	3.2824533e-05 	-1.9108031e-08 	0.0024824138 	1.6802359e-08 	0.0017854413
0.67777778 	0.0025550055 	0.00018623711 	-6.8080476e-08 	0.0025468954 	5.9865541e-08 	0.0012409152
0.68888889 	0.0026423718 	0.00033288225 	-7.8344468e-08 	0.0026369919 	6.1251414e-08 	0.00093481068
0.7 	0.0027476193 	0.00047231665 	-1.3504913e-08 	0.0027474267 	1.0558435e-08 	0.0020455269
0.71111111 	0.0028837793 	0.00060812523 	-8.8390676e-08 	0.002883336 	7.7236473e-08 	0.00049995646
0.72222222 	0.0030221603 	0.00073629786 	9.7117331e-08 	0.0030279582 	9.3161464e-08 	0.0024865044
0.73333333 	0.0031870108 	0.00085929121 	-6.9729503e-08 	0.0031909005 	8.7218017e-08 	0.00046759351
0.74444444 	0.0033567151 	0.00098154906 	1.5619732e-07 	0.0033668208 	1.9779074e-07 	0.0027644193
0.75555556 	0.003541604 	0.00109458 	-5.0385501e-08 	0.0035485724 	1.0623762e-07 	0.00046865138
0.76666667 	0.003739428 	0.0012124544 	4.3902884e-07 	0.0037525306 	6.8566152e-07 	0.0030692824
0.77777778 	0.0039448552 	0.0013200182 	-3.8590011e-08 	0.0039528328 	1.4995629e-07 	6.205273e-05
0.78888889 	0.0041638288 	0.0014330477 	5.5266619e-08 	0.0041786634 	1.0095957e-07 	0.0033812432
0.8 	0.0043887969 	0.0015375614 	-1.2652569e-08 	0.0044002365 	1.0128671e-07 	0.0015715123
0.81111111 	0.0046232182 	0.0016429462 	-4.1275938e-09 	0.0046351481 	9.5755585e-08 	0.0018815544
0.82222222 	0.0048667498 	0.0017479824 	1.6352482e-07 	0.0048824089 	3.736484e-07 	0.0040018023
0.83333333 	0.0051140656 	0.0018469818 	1.3783654e-09 	0.005123788 	1.5056793e-07 	0.0011795853
0.84444444 	0.0053708265 	0.0019476943 	5.1744378e-09 	0.0053812554 	1.1935994e-07 	0.0018868014
0.85555556 	0.0056348851 	0.0020483161 	9.221034e-08 	0.0056497385 	2.4504003e-07 	0.0045932081
0.86666667 	0.0059017033 	0.0021449046 	1.910155e-09 	0.005914995 	2.8708509e-08 	0.0042078135
0.87777778 	0.0061713006 	0.0022389681 	9.4389429e-09 	0.0061800316 	1.1331978e-07 	0.0022690037
0.88888889 	0.0064441246 	0.0023317925 	1.5783193e-08 	0.0064490722 	1.6385006e-07 	0.00075761722
0.9 	0.0067191972 	0.0024233283 	1.8383356e-08 	0.0067219839 	1.7119272e-07 	0.00012602199
0.91111111 	0.006994553 	0.0025130676 	1.8393381e-08 	0.0069962915 	1.5478795e-07 	0.00012610014
0.92222222 	0.0072681709 	0.0026007571 	1.5553828e-08 	0.0072703767 	1.1751675e-07 	0.0010117103
0.93333333 	0.0075375876 	0.0026862589 	8.0680716e-09 	0.0075431763 	5.4152929e-08 	0.0035232995
0.94444444 	0.0077978603 	0.0027683529 	1.2727104e-07 	0.0078068919 	4.4430133e-07 	0.006383373
0.95555556 	0.0080353537 	0.002843478 	1.3804745e-08 	0.0080341601 	6.0337639e-08 	0.0020990229
0.96666667 	0.0082294651 	0.0028934421 	2.0040786e-09 	0.0082340742 	4.2952435e-08 	0.0067308661
0.97777778 	0.0083049557 	0.0029191671 	9.1872053e-09 	0.0083018554 	2.8838779e-08 	0.0042412365
0.98888889 	0.0076979503 	0.0027307245 	6.933579e-09 	0.0076926733 	1.9901913e-08 	0.0046621706
