0.4742268 	0.59058648 	7.2017392e-05 	-5.8313197e-09
0.48453608 	1.0689328 	0.00015574665 	-1.9475396e-08
0.49484536 	1.1866785 	0.00032773643 	6.6659186e-07
0.50515464 	1.2573328 	0.00053324968 	-5.2747106e-08
0.51546392 	1.3045111 	0.00074280903 	1.8255744e-07
0.5257732 	1.3416899 	0.00097509012 	1.8026338e-06
0.53608247 	1.3711581 	0.0012050267 	5.0136713e-07
0.54639175 	1.3944496 	0.0014271735 	-5.9952223e-08
0.55670103 	1.4122192 	0.0016262261 	-8.756334e-08
0.56701031 	1.4247057 	0.0017787904 	1.3429076e-07
0.57731959 	1.4324616 	0.0018697247 	2.5626127e-07
0.58762887 	1.4368163 	0.0019079285 	-2.3577522e-07
0.59793814 	1.4390021 	0.0019099902 	-4.9007711e-08
0.60824742 	1.4396532 	0.001884956 	-4.1085338e-07
0.6185567 	1.4394634 	0.001847696 	-2.4997215e-07
0.62886598 	1.4385929 	0.0017975615 	-8.9567843e-07
0.63917526 	1.4372012 	0.0017373753 	-2.6227594e-07
0.64948454 	1.4354191 	0.0016724883 	-7.1443632e-07
0.65979381 	1.4332778 	0.001601248 	-1.7575065e-07
0.67010309 	1.4307444 	0.0015232871 	-6.309608e-08
0.68041237 	1.4279467 	0.0014429666 	-1.2586913e-06
0.69072165 	1.4248192 	0.001357035 	-1.1205043e-07
0.70103093 	1.4214941 	0.0012712217 	-1.7808007e-06
0.71134021 	1.4178323 	0.0011802275 	-7.9468202e-08
0.72164948 	1.4140325 	0.0010913722 	-1.6082873e-06
0.73195876 	1.4099695 	0.0010000183 	-2.3929578e-08
0.74226804 	1.4056227 	0.00090843143 	-9.2942311e-07
0.75257732 	1.4010911 	0.00081708882 	3.0664051e-10
0.7628866 	1.3961863 	0.00072572475 	-4.295099e-07
0.77319588 	1.3910305 	0.00063465564 	4.2487111e-09
0.78350515 	1.3855416 	0.00054646102 	-5.4223436e-07
0.79381443 	1.3797774 	0.00045994141 	3.6099515e-08
0.80412371 	1.3735932 	0.00037684868 	-1.1216148e-06
0.81443299 	1.3671356 	0.00029768129 	1.4758248e-07
0.82474227 	1.3600942 	0.00022179073 	-9.4968208e-07
0.83505155 	1.3526673 	0.00015163015 	1.1247458e-08
0.84536082 	1.344644 	8.7659687e-05 	1.1802139e-07
0.8556701 	1.3358695 	3.0508753e-05 	-6.4061212e-07
0.86597938 	1.3263799 	-1.8849491e-05 	-1.7185232e-07
0.87628866 	1.3159672 	-5.8992661e-05 	2.1487096e-07
0.88659794 	1.3043176 	-8.9719243e-05 	1.4079089e-07
0.89690722 	1.2912147 	-0.00010952865 	-2.8435111e-08
0.90721649 	1.2762962 	-0.00011750936 	-1.6963191e-08
0.91752577 	1.2591318 	-0.00011432126 	6.1416246e-08
0.92783505 	1.2390678 	-0.00010060895 	9.1813348e-08
0.93814433 	1.2152248 	-7.8280865e-05 	2.5461213e-09
0.94845361 	1.1860979 	-5.0428438e-05 	1.7687719e-07
0.95876289 	1.1492846 	-2.2478853e-05 	4.7013572e-08
0.96907216 	1.0998357 	7.6466501e-07 	7.5629799e-08
0.97938144 	1.0245614 	1.3199438e-05 	4.0294772e-09
0.98969072 	0.86671066 	1.6480312e-05 	2.9661975e-08
