0.1768325896 	1.072851384e-16 	-1.541042633e-18 	-5.504734183e-21 	1.034449776e-16 	2.043758421e-19 	1.971948783e-19
0.1785907938 	4.900129185e-15 	-4.914836834e-16 	-3.255288698e-19 	3.706484264e-15 	-2.102567722e-17 	7.065589171e-18
0.1803486209 	3.060613611e-14 	-4.993442863e-15 	-2.047026426e-17 	2.01624729e-14 	-2.313606247e-16 	3.843527722e-17
0.1821054395 	1.074769702e-13 	-1.599976783e-14 	-1.259023317e-16 	7.741533328e-14 	-6.318103574e-16 	1.475751417e-16
0.1838606252 	2.357950772e-13 	-3.224220235e-14 	-3.797564671e-16 	1.82325042e-13 	-7.615617663e-16 	3.475622046e-16
0.1856135605 	3.049216385e-13 	-2.884105295e-14 	-3.84575913e-16 	2.616792064e-13 	-8.564284469e-17 	4.988332974e-16
0.1883063411 	3.46728719e-13 	-8.957921411e-15 	-1.224480345e-16 	3.359193669e-13 	7.466214606e-16 	6.403556773e-16
0.191337819 	7.650248792e-13 	-1.70623683e-15 	-1.907001113e-17 	7.715402505e-13 	4.558724488e-15 	1.470770156e-15
0.1947451987 	6.954858585e-12 	-1.062023144e-14 	-7.136909045e-17 	7.110035039e-12 	4.649864229e-14 	1.355370292e-14
0.1985670993 	8.793604703e-11 	-2.003604844e-13 	-5.573141792e-16 	9.056036033e-11 	2.685077657e-13 	1.726332167e-13
0.2029500116 	9.184718092e-10 	-3.383725138e-12 	5.959839435e-15 	9.514157934e-10 	-9.971272888e-13 	1.813662934e-12
0.2079040511 	7.163323612e-09 	-4.972633994e-11 	2.994712531e-13 	7.531538837e-09 	-3.773263129e-11 	1.435720631e-11
0.2134522109 	3.484732031e-08 	-8.368672814e-10 	1.037421317e-11 	3.981311086e-08 	-2.962277475e-10 	7.589485479e-11
0.2196601811 	1.129895037e-07 	-5.831075918e-09 	9.023331382e-11 	1.45494656e-07 	-7.739535747e-10 	2.773532525e-10
0.2267486692 	3.364697811e-07 	-2.27242907e-08 	1.769825699e-10 	4.823489525e-07 	-1.037722651e-09 	9.194911655e-10
0.2332577037 	9.644178596e-07 	-6.295931371e-08 	-4.236166052e-10 	1.361769167e-06 	8.617286188e-09 	2.595910516e-09
0.234647839 	1.106184515e-06 	-7.246671862e-08 	2.742122363e-11 	1.559655761e-06 	-3.830648969e-10 	2.973137364e-09
0.245957996 	3.600295068e-06 	-2.800580144e-07 	9.438078919e-10 	4.821800849e-06 	-9.874951448e-09 	9.191692569e-09
0.2581327455 	9.777465189e-06 	-8.627304667e-07 	5.962503511e-09 	1.265231968e-05 	-4.654240093e-08 	2.411883784e-08
0.2712030149 	2.13389625e-05 	-2.642695531e-06 	3.119764834e-08 	2.974118777e-05 	-1.529213633e-07 	5.669497003e-08
0.2851802459 	3.960785103e-05 	-4.019731797e-06 	6.616037229e-08 	5.528414685e-05 	-3.25968306e-07 	1.053869493e-07
0.3001737618 	6.647948244e-05 	-4.772526194e-06 	9.660020377e-08 	9.03953752e-05 	-5.504386375e-07 	1.723187092e-07
0.3163208608 	0.000106313879 	-6.847902882e-06 	1.636263423e-07 	0.0001448990352 	-8.339162811e-07 	2.762178338e-07
0.3336263772 	0.0001543329945 	-1.043722275e-05 	2.203051016e-07 	0.000216411213 	-7.91604298e-07 	4.125399204e-07
0.3521814245 	0.0002162028671 	-1.437845419e-05 	2.622050111e-07 	0.0003215662969 	-4.174133236e-07 	6.129947366e-07
0.3720724044 	0.0003056828509 	-1.431686002e-05 	2.207516355e-07 	0.0004280046992 	-2.216779033e-07 	8.158959145e-07
0.3934380589 	0.0003962638377 	-2.425757268e-05 	3.264407868e-07 	0.0006408903237 	-1.291630446e-07 	1.221715083e-06
0.4163236383 	0.0005030430033 	-2.447371751e-05 	2.284803794e-07 	0.0007904165682 	-1.46982471e-07 	1.506753664e-06
0.4408019705 	0.0006384815359 	-1.371127026e-05 	6.94735078e-08 	0.0008838723725 	-8.629939618e-08 	1.684906402e-06
0.4622799629 	0.0007257970382 	-1.360079764e-05 	-8.194858729e-09 	0.001212617586 	2.648983219e-06 	2.311586148e-06
0.4669995683 	0.0007448794428 	-1.326670378e-05 	2.892796523e-08 	0.001284597757 	-7.383285988e-08 	2.448800361e-06
0.4948343623 	0.0008442696539 	-4.196372619e-06 	1.766188336e-07 	0.001422641962 	-5.217003184e-07 	2.711950983e-06
0.5246517747 	0.000903085097 	2.755724531e-05 	3.145671377e-07 	0.001569396497 	-9.832193477e-07 	2.991705915e-06
0.5565711163 	0.0009151211121 	4.654534919e-05 	3.78854859e-07 	0.001561663161 	-1.340722792e-06 	2.976964027e-06
0.5907153384 	0.0008716324632 	5.193079161e-05 	2.537708006e-07 	0.001232855464 	-9.376789655e-07 	2.350165168e-06
0.6248041875 	0.0007141006553 	5.35607999e-05 	1.920799156e-07 	0.0009933792373 	-6.649236367e-07 	1.893656922e-06
0.6565865215 	0.0005288357003 	3.708562929e-05 	7.530863255e-08 	0.0006766978608 	-4.936452461e-07 	1.289974201e-06
0.6862306008 	0.0003691070181 	2.751037399e-05 	1.793050696e-08 	0.0004522264196 	-2.509214561e-07 	8.620692455e-07
0.7138920104 	0.0002607747029 	2.209198488e-05 	4.554072696e-09 	0.0003109039302 	-1.195286367e-07 	5.926693023e-07
0.7397136074 	0.0001857035469 	1.951070921e-05 	3.458170924e-09 	0.0002239906918 	-7.705735503e-08 	4.269885135e-07
0.7638267275 	0.000121564497 	1.307066613e-05 	7.40251555e-09 	0.0001445346959 	-3.299799054e-08 	2.755233018e-07
0.7863495136 	9.38630913e-05 	8.689690193e-06 	1.122266033e-08 	0.0001073571487 	-1.607962482e-08 	2.046525639e-07
0.8073911058 	7.820364526e-05 	8.675653381e-06 	1.10117848e-08 	9.010263844e-05 	-3.848935545e-08 	1.717606716e-07
0.8270511595 	5.139818589e-05 	6.983229119e-06 	8.504849907e-09 	5.981702808e-05 	-2.72470783e-08 	1.140278808e-07
0.845421889 	3.014965687e-05 	4.613982754e-06 	5.961681236e-09 	3.440885539e-05 	-6.188152654e-09 	6.559284182e-08
0.8625884684 	2.031967192e-05 	3.904155532e-06 	3.698792282e-09 	2.320524714e-05 	-2.946622373e-09 	4.423565062e-08
0.8786299155 	1.381931312e-05 	3.080717323e-06 	7.143593019e-10 	1.55583216e-05 	-5.581753688e-09 	2.965848519e-08
0.8936198082 	9.622027735e-06 	2.529220038e-06 	-8.053545518e-10 	1.079290161e-05 	-6.767353906e-09 	2.057427019e-08
0.9076267231 	4.916270299e-06 	1.457773206e-06 	-7.995807331e-10 	5.49008789e-06 	-4.03479607e-09 	1.046563341e-08
0.9207146719 	2.490044757e-06 	9.402887757e-07 	-8.632923457e-10 	2.794360326e-06 	-2.409240157e-09 	5.326827435e-09
0.9329434662 	1.143615431e-06 	5.895108848e-07 	-5.626605155e-10 	1.311343805e-06 	-1.097878531e-09 	2.499785761e-09
0.9443690234 	2.727421546e-07 	1.413125315e-07 	-6.401862672e-11 	3.017587229e-07 	-1.711395252e-10 	5.752359954e-10
0.9519339113 	8.533557249e-08 	4.908552474e-08 	-2.340896677e-11 	9.304230012e-08 	-4.93238188e-11 	1.773644838e-10
0.9586324528 	1.16422709e-08 	5.974995904e-09 	-1.640684104e-13 	1.233513087e-08 	-7.511810561e-13 	2.351418781e-11
0.9645635659 	2.150082386e-09 	1.021715008e-09 	-9.515722078e-14 	2.24269623e-09 	-2.103924677e-13 	4.275202339e-12
0.9698149412 	2.556615666e-10 	1.208409334e-10 	5.656176345e-14 	2.647043116e-10 	1.250988316e-13 	5.045999887e-13
0.9744642952 	3.232503265e-11 	1.524350042e-11 	1.583944349e-14 	3.330406566e-11 	3.477661386e-14 	6.348680554e-14
0.9785804997 	5.6047331e-12 	2.638420234e-12 	3.138513601e-15 	5.753872679e-12 	6.868976e-15 	1.096848053e-14
0.9822245787 	1.315457823e-12 	6.185370248e-13 	6.718864856e-16 	1.347017338e-12 	1.466097116e-15 	2.56778943e-15
0.9854505955 	3.230377945e-13 	1.516889734e-13 	1.577468703e-16 	3.298327479e-13 	3.431532128e-16 	6.287528898e-16
0.9883064419 	8.580040443e-14 	4.022675998e-14 	3.783367821e-17 	8.731482509e-14 	8.205579692e-17 	1.664463245e-16
0.9908345383 	2.285667096e-14 	1.069802239e-14 	8.863380696e-18 	2.317635296e-14 	1.917206189e-17 	4.418057027e-17
0.9924769413 	6.038254728e-15 	2.69760962e-15 	2.102149575e-18 	6.100321832e-15 	4.742452105e-18 	1.162890891e-17
0.9941195111 	1.457897382e-15 	4.852785138e-16 	3.455969846e-19 	1.465602163e-15 	1.029034837e-18 	2.793845065e-18
0.9957622477 	3.049412077e-16 	3.974792244e-17 	2.212853417e-20 	3.049695131e-16 	1.347553418e-19 	5.813566539e-19
0.9974051512 	1.480136631e-16 	3.486984394e-18 	6.945630236e-23 	1.477653487e-16 	-5.878372157e-24 	2.816818238e-19
0.9990482216 	8.270977643e-17 	3.494118691e-19 	1.0129879e-23 	8.255304481e-17 	1.702432199e-24 	1.573690478e-19
0.9990482216 	8.270977643e-17 	3.494118691e-19 	1.0129879e-23 	8.255304481e-17 	1.702432201e-24 	1.573690478e-19
