0.4709558481 	0.01703361217 	2.303895257e-07 	1.981224322e-10
0.4720092239 	0.06522641896 	3.839524799e-06 	-3.820186491e-10
0.4730625996 	0.1298417984 	1.411631973e-05 	-3.290394537e-09
0.4741159754 	0.1938365995 	3.139151562e-05 	-9.071013346e-09
0.4751693511 	0.2571751347 	5.555023653e-05 	-1.774414122e-08
0.4762227269 	0.3282130952 	9.097959935e-05 	-3.075446517e-08
0.4778443634 	0.417768499 	0.0001486979186 	-5.233904876e-08
0.4796765386 	0.5227532947 	0.0002351980072 	-8.579954925e-08
0.4817465869 	0.6374739293 	0.0003539221603 	-1.33587914e-07
0.4840853915 	0.7610841218 	0.0005115704665 	-1.991730852e-07
0.4867278453 	0.8914561476 	0.0007134918924 	-2.84625351e-07
0.4897133715 	1.024586712 	0.0009608153586 	-3.881547472e-07
0.4930865115 	1.15411635 	0.00124605697 	-5.005563741e-07
0.4968975894 	1.271485124 	0.001547644173 	-6.013416491e-07
0.5012034633 	1.367476258 	0.001829868318 	-6.575343759e-07
0.506068373 	1.440092834 	0.002061255189 	-6.185772714e-07
0.5134203412 	1.484055072 	0.002178455936 	-3.525990089e-07
0.5212948542 	1.499040299 	0.002158128558 	2.833686113e-07
0.529729052 	1.499813899 	0.00205547742 	1.351104774e-06
0.5387627144 	1.496158409 	0.001913045248 	2.730803837e-06
0.5484384488 	1.491434103 	0.001751171184 	4.116956993e-06
0.5588018907 	1.486308987 	0.001588279373 	5.147189233e-06
0.5699019192 	1.481136635 	0.001436892997 	5.642887356e-06
0.5817908876 	1.476175897 	0.00129330593 	5.73979784e-06
0.5945248701 	1.471032376 	0.001145257576 	5.624963026e-06
0.6081639266 	1.465458509 	0.0009884747662 	5.439918359e-06
0.6227723857 	1.459349522 	0.0008229716824 	5.264509964e-06
0.638419148 	1.452879663 	0.0006467120808 	5.126960161e-06
0.6551780116 	1.446262642 	0.0004617907761 	5.090660696e-06
0.6731280194 	1.439311795 	0.0002670821542 	5.250006626e-06
0.6923538328 	1.431890649 	6.538988341e-05 	5.664905085e-06
0.7129461301 	1.423992787 	-0.0001411770824 	6.299461414e-06
0.7350020349 	1.415814254 	-0.0003480663125 	7.024182869e-06
0.7570579485 	1.407582961 	-0.0005425132498 	7.690388867e-06
0.7776502527 	1.399070548 	-0.0007182423519 	8.198698084e-06
0.7968760713 	1.390103142 	-0.0008759496743 	8.47486925e-06
0.814826083 	1.381290576 	-0.001015988081 	8.495571783e-06
0.831584949 	1.373454031 	-0.001136007437 	8.226544935e-06
0.8472317127 	1.366493801 	-0.001243424994 	7.721160355e-06
0.8618401721 	1.359558623 	-0.001348776764 	7.137005543e-06
0.8754792281 	1.35194112 	-0.001450032126 	6.563096569e-06
0.8882132094 	1.343410681 	-0.001542550795 	5.962018243e-06
0.9001021759 	1.333709484 	-0.001625746017 	5.278757024e-06
0.9112022019 	1.32201086 	-0.001698652696 	4.512916346e-06
0.9215656407 	1.307429465 	-0.001753131449 	3.708205831e-06
0.9312413717 	1.289228459 	-0.001782524094 	2.928560645e-06
0.9402750304 	1.265318158 	-0.001782553261 	2.212982141e-06
0.9487092242 	1.230667618 	-0.001738832639 	1.615069783e-06
0.9565837329 	1.176765919 	-0.001625337348 	1.161855823e-06
0.9639356968 	1.099995371 	-0.001433937034 	8.555893595e-07
0.9688006083 	1.012191941 	-0.001209890642 	6.567663175e-07
0.9731064834 	0.9192669859 	-0.0009892095973 	5.068752817e-07
0.976917562 	0.8197572986 	-0.0007776518532 	3.805084281e-07
0.9802907021 	0.7187099498 	-0.0005903801651 	2.762814029e-07
0.9832762282 	0.6200899608 	-0.0004341426588 	1.940117452e-07
0.9859186816 	0.5265291103 	-0.0003094560855 	1.319090331e-07
0.9882574856 	0.4395040402 	-0.0002133771265 	8.683153094e-08
0.990327533 	0.3596497052 	-0.000141547964 	5.513392208e-08
0.9921597073 	0.2870522087 	-8.941414167e-05 	3.337453968e-08
0.9937813429 	0.2253548111 	-5.46923959e-05 	1.938779972e-08
0.9948347186 	0.1765114246 	-3.339280109e-05 	1.07942737e-08
0.9958880943 	0.1330016231 	-1.886535172e-05 	4.960872806e-09
0.9969414701 	0.08907065538 	-8.478154791e-06 	1.218604113e-09
0.9979948458 	0.04473261488 	-2.301687904e-06 	-3.541376479e-10
0.9990482216 	0.0128314652 	-1.49557275e-07 	-3.527041581e-10
0.9990482216 	0.0128314652 	-1.49557275e-07 	-3.527041581e-10
