0.4534793519 	0.009504024141 	-0.0005531300613 	3.487428547e-07
0.4534793519 	0.009504024141 	-0.0005531300613 	3.487428547e-07
0.4545349715 	0.03728973111 	-0.002148138957 	1.027396332e-06
0.4555906243 	0.07558063953 	-0.00427737046 	1.596314576e-06
0.4566462771 	0.1149982062 	-0.006372282016 	1.889697846e-06
0.4577018969 	0.155609029 	-0.008457690989 	1.962393863e-06
0.4587574508 	0.2030512951 	-0.01082984803 	1.883128777e-06
0.4603822371 	0.2651755306 	-0.01384939324 	1.54988324e-06
0.4622175431 	0.3403942517 	-0.01739814734 	9.978588426e-07
0.4642903799 	0.4250280822 	-0.02128517708 	3.529656919e-07
0.4666426815 	0.5188199073 	-0.02549274911 	-1.908841614e-07
0.4693021407 	0.6209092953 	-0.02998093105 	-4.146351719e-07
0.4723056461 	0.730193317 	-0.0347033094 	-1.406706964e-07
0.4730447499 	0.7553822622 	-0.03577436293 	-4.453301714e-05
0.4756893738 	0.8454325809 	-0.03958877214 	-1.805391654e-06
0.4795279125 	0.9653696519 	-0.04453930319 	-5.080028888e-06
0.4838641516 	1.086854802 	-0.04937312464 	-9.517599791e-06
0.4887697617 	1.214665413 	-0.05410295518 	-1.532772952e-05
0.4962020164 	1.338668529 	-0.05821816087 	-2.433113842e-05
0.5041837956 	1.42857722 	-0.06070804556 	-3.400031358e-05
0.5127499606 	1.476818295 	-0.06145518029 	-4.349981712e-05
0.5219457739 	1.496819674 	-0.06113834617 	-5.217888993e-05
0.5318185128 	1.504905102 	-0.06052775492 	-6.045876863e-05
0.5424177356 	1.511167868 	-0.05999241309 	-6.953786188e-05
0.5537955805 	1.516637228 	-0.05932619629 	-8.027872949e-05
0.5660070967 	1.516606721 	-0.05815043715 	-9.247368748e-05
0.5791106073 	1.50873377 	-0.0564238318 	-0.000105117555
0.5931681036 	1.497026112 	-0.05444861843 	-0.0001165662025
0.6082461593 	1.487673041 	-0.05249118835 	-0.0001250031726
0.6244207255 	1.482661695 	-0.0505441278 	-0.0001283098824
0.641762148 	1.479622 	-0.04853638818 	-0.0001252359527
0.6603550546 	1.476728005 	-0.04633062766 	-0.0001160622889
0.6802847741 	1.472996912 	-0.04391339912 	-0.0001029341832
0.7016438663 	1.466104018 	-0.0416233465 	-9.00265654e-05
0.7245320632 	1.453963526 	-0.03968710784 	-8.154037766e-05
0.747428821 	1.440191317 	-0.03818963866 	-7.767194398e-05
0.7688123516 	1.428790622 	-0.03696752958 	-7.538104516e-05
0.7887815006 	1.418950753 	-0.03589237734 	-7.283557876e-05
0.8074292531 	1.40963729 	-0.0349905936 	-6.943711363e-05
0.824842804 	1.399457607 	-0.03434273721 	-6.572594446e-05
0.8411037828 	1.388156888 	-0.03393653014 	-6.123192938e-05
0.8562883075 	1.377548502 	-0.03357864219 	-5.603066536e-05
0.8704676062 	1.369166857 	-0.03314693866 	-5.058338949e-05
0.8837081452 	1.361754207 	-0.0327190364 	-4.545566978e-05
0.8960719989 	1.351137332 	-0.03230470224 	-4.071344367e-05
0.9076171404 	1.329781323 	-0.03150875024 	-3.55790675e-05
0.9183977073 	1.290875398 	-0.0300530251 	-3.008513643e-05
0.9284642592 	1.232286294 	-0.02802768481 	-2.510138826e-05
0.9378640164 	1.151783624 	-0.02568629157 	-2.137973507e-05
0.9466410813 	1.047216899 	-0.02334666825 	-1.909417793e-05
0.954836645 	0.9193614139 	-0.02117781799 	-1.753137433e-05
0.9624891797 	0.7855702681 	-0.01919197903 	-1.541295582e-05
0.967553421 	0.667680388 	-0.01704602864 	-1.248240079e-05
0.9720360117 	0.5635895404 	-0.01408496486 	-8.185567187e-06
0.9760037277 	0.4632999378 	-0.01036128267 	-3.847585692e-06
0.9795156849 	0.3691566838 	-0.006782042759 	-9.287775736e-07
0.9826242168 	0.2868165444 	-0.004146594669 	2.722298142e-07
0.9853756515 	0.2175727646 	-0.002594137568 	4.307003226e-07
0.9878109997 	0.1614563901 	-0.001719306134 	2.830947921e-07
0.9899665651 	0.1173910878 	-0.001140922315 	1.604370225e-07
0.9918744833 	0.08345690708 	-0.000707826548 	9.989039698e-08
0.9935632004 	0.0588390552 	-0.0004116903903 	6.439273101e-08
0.9946601717 	0.04214788761 	-0.0002308269642 	3.955515391e-08
0.9957571594 	0.0293908942 	-0.0001026900043 	2.385012594e-08
0.9968541637 	0.01821627998 	-9.020326211e-06 	1.673271659e-08
0.9979511844 	0.008511338909 	2.68156829e-05 	1.102872496e-08
0.9990482216 	0.002258966346 	1.518087991e-05 	4.07712374e-09
