0.4709558481 	7.695138543e-17 	-2.578613843e-19 	2.937016255e-23 	7.680491886e-17 	6.090098633e-29 	1.464115222e-19
0.4720092239 	1.480304481e-16 	-2.486070622e-18 	1.394564698e-22 	1.477473841e-16 	1.235277969e-25 	2.816475783e-19
0.4730625996 	1.614834131e-16 	-1.031106681e-17 	-1.605294317e-20 	1.611665283e-16 	-7.38248218e-24 	3.072281968e-19
0.4741159754 	3.096075687e-16 	-3.63184712e-17 	-3.887704091e-19 	3.089697069e-16 	1.022278558e-18 	5.88982135e-19
0.4751693511 	7.276048754e-16 	-9.234526371e-17 	-2.463420548e-18 	7.260642733e-16 	5.099597825e-18 	1.384080304e-18
0.4762227269 	1.898241027e-15 	-2.17978636e-16 	-8.30684359e-18 	1.894158296e-15 	1.701016739e-17 	3.610792167e-18
0.4778443634 	6.691400372e-15 	-5.447203304e-16 	-2.280400674e-17 	6.677151386e-15 	4.737108455e-17 	1.272850636e-17
0.4796765386 	2.759499846e-14 	-1.106458878e-15 	-4.735465553e-17 	2.753866884e-14 	9.68891017e-17 	5.249635678e-17
0.4817465869 	1.315272084e-13 	-7.772286314e-16 	-3.296510571e-17 	1.312740098e-13 	9.359027689e-17 	2.502447484e-16
0.4840853915 	7.090234923e-13 	-7.348516175e-17 	-2.203686678e-18 	7.07674113e-13 	-5.8627582e-17 	1.349023547e-15
0.4867278453 	3.928163505e-12 	-7.958467399e-16 	-2.877544573e-18 	3.920683905e-12 	-1.446116872e-16 	7.473913221e-15
0.4897133715 	2.121276755e-11 	-6.210112787e-14 	-2.897506032e-16 	2.117187613e-11 	1.020439229e-14 	4.035948032e-14
0.4930865115 	1.18853621e-10 	-1.088826747e-12 	-3.728748249e-15 	1.186164115e-10 	2.190836443e-13 	2.261158481e-13
0.4968975894 	1.406728842e-09 	-3.413001634e-11 	-4.344138259e-13 	1.403656038e-09 	1.225984289e-11 	2.675758535e-12
0.5012034633 	1.686823049e-08 	-1.027928381e-09 	-1.365566939e-11 	1.682243294e-08 	2.150155693e-10 	3.206823274e-11
0.506068373 	1.3541702e-07 	-1.346096673e-08 	-8.21226159e-11 	1.34960654e-07 	1.362490414e-09 	2.572725169e-10
0.5134203412 	1.003285644e-06 	-1.460506758e-07 	-5.189775699e-10 	1.000228821e-06 	6.040222458e-09 	1.906714131e-09
0.5212948542 	4.790352078e-06 	-2.118429703e-07 	-1.970913907e-09 	4.806316497e-06 	1.119363972e-08 	9.162175089e-09
0.529729052 	1.287139825e-05 	1.307100271e-06 	-4.077782909e-09 	1.308121662e-05 	1.891776225e-08 	2.493643462e-08
0.5387627144 	2.408979375e-05 	1.892284644e-06 	-9.167985811e-09 	2.434219814e-05 	3.141976106e-08 	4.640299521e-08
0.5484384488 	3.553161289e-05 	1.36027342e-06 	-9.991691133e-09 	3.562112887e-05 	3.365289373e-08 	6.790377201e-08
0.5588018907 	4.726255928e-05 	5.723296886e-06 	1.155673781e-08 	4.754304195e-05 	2.046876755e-08 	9.063025187e-08
0.5699019192 	6.048625315e-05 	1.458821184e-05 	5.642526166e-08 	6.163580614e-05 	1.10569733e-08 	1.174949773e-07
0.5817908876 	7.150536276e-05 	1.90747385e-05 	6.723756867e-08 	7.352937476e-05 	2.509471666e-08 	1.401674247e-07
0.5945248701 	7.51866133e-05 	1.828490803e-05 	3.702435968e-08 	7.732300173e-05 	3.425776607e-08 	1.473991321e-07
0.6081639266 	7.175715112e-05 	1.772232858e-05 	1.406013488e-08 	7.367645448e-05 	1.750489876e-08 	1.404477996e-07
0.6227723857 	6.820721751e-05 	1.798627715e-05 	9.068606352e-09 	6.999452522e-05 	2.103295847e-08 	1.33429019e-07
0.638419148 	6.873447818e-05 	1.849582261e-05 	7.056333134e-09 	7.050704112e-05 	3.342341042e-08 	1.344060168e-07
0.6551780116 	6.787160096e-05 	1.808053571e-05 	-1.006320138e-09 	6.962682266e-05 	3.198686824e-08 	1.327280758e-07
0.6731280194 	6.357028492e-05 	1.701733704e-05 	-3.217133105e-09 	6.521213301e-05 	4.813766795e-08 	1.243124503e-07
0.6923538328 	7.192424819e-05 	1.886464801e-05 	-1.982335729e-09 	7.363039441e-05 	1.143015476e-07 	1.403599962e-07
0.7129461301 	9.553884351e-05 	2.53320199e-05 	2.691578564e-10 	9.769514441e-05 	1.888145129e-07 	1.862340982e-07
0.7350020349 	0.0001131463911 	3.257141854e-05 	1.062248079e-08 	0.0001159704844 	1.952963304e-07 	2.210719756e-07
0.7570579485 	0.0001179117145 	3.840546921e-05 	3.615988975e-08 	0.0001216791878 	1.6707637e-07 	2.319543509e-07
0.7776502527 	0.0001202452238 	4.381773339e-05 	6.499683959e-08 	0.000125687821 	9.412678652e-08 	2.3959592e-07
0.7968760713 	0.0001253901519 	4.404288587e-05 	5.316753698e-08 	0.0001336729045 	-1.271434517e-08 	2.548177085e-07
0.814826083 	0.0001281258922 	3.96340779e-05 	4.07020974e-08 	0.0001358224057 	-2.069596924e-08 	2.589152551e-07
0.831584949 	0.0001295464108 	3.821957236e-05 	3.510318502e-08 	0.0001331848642 	1.763857025e-08 	2.538873681e-07
0.8472317127 	0.0001273163542 	4.13993486e-05 	1.961467349e-08 	0.0001282174904 	1.168057531e-08 	2.44418173e-07
0.8618401721 	0.0001149944552 	4.496057481e-05 	1.119314358e-08 	0.0001146603247 	-2.802886082e-08 	2.185744471e-07
0.8754792281 	9.486729021e-05 	4.187974619e-05 	-8.982824591e-09 	9.44779324e-05 	-7.766604878e-08 	1.801011979e-07
0.8882132094 	7.070770155e-05 	3.489692791e-05 	-3.010544291e-08 	7.028429069e-05 	-9.079826876e-08 	1.339813926e-07
0.9001021759 	4.743093345e-05 	2.572955604e-05 	-4.12615577e-08 	4.618288857e-05 	-7.605710798e-08 	8.803742149e-08
0.9112022019 	2.7383611e-05 	1.419880176e-05 	-2.955751888e-08 	2.585508311e-05 	-5.135985838e-08 	4.928697445e-08
0.9215656407 	1.245924145e-05 	6.501226434e-06 	-1.550225525e-08 	1.168420069e-05 	-2.713217196e-08 	2.227333397e-08
0.9312413717 	4.171570434e-06 	2.224225094e-06 	-6.779174345e-09 	3.982511563e-06 	-9.610630521e-09 	7.59177392e-09
0.9402750304 	9.819980178e-07 	1.601510483e-07 	-2.331309642e-10 	9.708770634e-07 	-1.621886156e-09 	1.850761524e-09
0.9487092242 	2.040408994e-07 	3.935172465e-08 	-6.978478573e-11 	2.025051096e-07 	-2.361056702e-10 	3.860310223e-10
0.9565837329 	2.632989294e-08 	3.473942881e-09 	1.963698368e-12 	2.619741538e-08 	9.626838563e-12 	4.993955492e-11
0.9639356968 	6.083616158e-10 	1.022195755e-11 	6.29797479e-14 	6.070654768e-10 	9.533728631e-13 	1.157235524e-12
0.9688006083 	2.296991636e-11 	1.96726583e-14 	2.317519365e-16 	2.292602156e-11 	-5.362432033e-14 	4.370336904e-14
0.9731064834 	4.43113526e-12 	4.641421237e-16 	7.800393163e-18 	4.422700416e-12 	-2.739073338e-16 	8.430896218e-15
0.976917562 	7.848363742e-13 	1.542290433e-17 	2.840183392e-19 	7.833429924e-13 	1.050285725e-15 	1.493269462e-15
0.9802907021 	1.321750468e-13 	8.07304225e-18 	1.543752371e-19 	1.319235133e-13 	4.37963766e-16 	2.514828827e-16
0.9832762282 	2.185508112e-14 	4.984840944e-18 	1.061538874e-19 	2.181347217e-14 	1.409858407e-16 	4.158254069e-17
0.9859186816 	3.611874837e-15 	3.208029638e-18 	7.931355171e-20 	3.604988663e-15 	3.944812076e-17 	6.872110346e-18
0.9882574856 	6.841442112e-16 	2.348401637e-18 	6.478955499e-20 	6.828342422e-16 	1.046803106e-17 	1.30167185e-18
0.990327533 	2.299906996e-16 	2.559995344e-18 	5.84518016e-20 	2.295459381e-16 	2.478662852e-18 	4.37578357e-19
0.9921597073 	1.577846975e-16 	5.165031497e-18 	6.182512726e-20 	1.574730977e-16 	4.247881221e-19 	3.001874916e-19
0.9937813429 	1.480397762e-16 	1.14332383e-17 	7.281877784e-20 	1.477380463e-16 	-5.745159781e-23 	2.816297779e-19
0.9948347186 	1.480420783e-16 	1.744523221e-17 	5.50468678e-20 	1.477357636e-16 	-3.38698893e-23 	2.816254265e-19
0.9958880943 	1.480382527e-16 	1.514677298e-17 	1.571035662e-20 	1.477395976e-16 	-6.343062354e-24 	2.816327351e-19
0.9969414701 	1.480325822e-16 	7.00932876e-18 	4.998080965e-23 	1.477452602e-16 	5.714497202e-25 	2.816435296e-19
0.9979948458 	1.480301622e-16 	1.717161734e-18 	-1.788058497e-22 	1.47747667e-16 	5.626556666e-26 	2.816481176e-19
0.9990482216 	8.455763989e-17 	1.946793443e-19 	-2.051008372e-23 	8.439672052e-17 	-9.075480521e-27 	1.608836062e-19
0.9990482216 	8.455763989e-17 	1.946793443e-19 	-2.051008372e-23 	8.439672052e-17 	-9.075481099e-27 	1.608836062e-19
