0.2739420079 	1.002982287e-16 	-1.158013157e-18 	3.635420868e-21 	9.886127696e-17 	-1.693252312e-19 	1.884570709e-19
0.275272557 	3.54896173e-15 	-3.622146751e-16 	1.192744057e-18 	3.15333773e-15 	-7.549391333e-18 	6.011138139e-18
0.2766031854 	1.965520832e-14 	-5.689849941e-15 	2.582657618e-18 	1.355461854e-14 	-1.952068631e-19 	2.583887025e-17
0.2779335901 	6.717247044e-14 	-2.245298395e-14 	-3.700224116e-18 	4.317965496e-14 	1.489353125e-17 	8.231242353e-17
0.2792634708 	1.742039746e-13 	-5.850411455e-14 	-1.523487225e-17 	1.118093173e-13 	2.521362226e-17 	2.131396345e-16
0.2805925299 	3.295604825e-13 	-1.108364935e-13 	-9.282231345e-17 	2.124886388e-13 	1.657156854e-16 	4.050624036e-16
0.2826362867 	9.534073011e-13 	-3.196029927e-13 	-1.786167828e-15 	6.347018378e-13 	2.69893728e-15 	1.209918109e-15
0.2849408702 	2.627609721e-12 	-8.876614468e-13 	-6.059718455e-15 	1.855363093e-12 	8.230648937e-15 	3.536837726e-15
0.2875370716 	6.816574816e-12 	-1.160766721e-12 	-9.844161192e-15 	6.295495896e-12 	8.185037238e-16 	1.200096492e-14
0.2904580691 	2.108763222e-11 	-3.643115201e-13 	-8.043971568e-15 	2.306253622e-11 	-1.523832284e-13 	4.396360393e-14
0.2938196317 	8.730035097e-11 	1.60576491e-12 	-9.19913836e-15 	9.875976105e-11 	-1.248770857e-12 	1.882635534e-13
0.2976320779 	4.31821288e-10 	8.084158535e-12 	-3.059954532e-14 	4.950130264e-10 	-6.923931342e-12 	9.436324101e-13
0.3019179803 	2.113559576e-09 	4.270575498e-11 	-1.219073493e-13 	2.501977774e-09 	-3.08689618e-11 	4.769465025e-12
0.3067337774 	9.207653015e-09 	2.169840838e-10 	-5.366470985e-13 	1.122945734e-08 	-1.089831551e-10 	2.140646676e-11
0.3122569715 	3.842026087e-08 	9.577493211e-10 	-1.993527832e-12 	4.836507435e-08 	-3.511315286e-10 	9.219727409e-11
0.3185112727 	1.599544966e-07 	3.180748018e-09 	-1.775606324e-12 	2.047667415e-07 	-1.025872452e-09 	3.903423214e-10
0.3279565291 	6.207807106e-07 	6.281710575e-09 	1.900164393e-11 	7.805875407e-07 	-1.642178937e-09 	1.488016806e-09
0.3358853299 	1.675492419e-06 	1.608502685e-08 	1.12940468e-10 	2.077209212e-06 	1.61486941e-08 	3.959738088e-09
0.3381259885 	1.974187515e-06 	1.870720715e-08 	-3.891910347e-12 	2.444537037e-06 	-8.235449292e-10 	4.659967017e-09
0.3489508731 	5.22648181e-06 	1.098668428e-07 	-2.850281884e-10 	6.640071286e-06 	-1.235344876e-08 	1.265782138e-08
0.3605981766 	1.18031996e-05 	4.029766773e-07 	-1.945977833e-09 	1.550692296e-05 	-5.086395847e-08 	2.95605051e-08
0.3731708885 	2.378216818e-05 	8.927889574e-07 	-5.377406564e-09 	3.112679963e-05 	-1.41217913e-07 	5.933633134e-08
0.3867969958 	4.547418137e-05 	1.827883589e-06 	-7.88534781e-09 	6.039890568e-05 	-3.311469607e-07 	1.151371012e-07
0.4014972221 	7.867119336e-05 	3.118829198e-06 	-6.207982116e-09 	0.0001037075471 	-6.485788456e-07 	1.976954089e-07
0.4173643717 	0.0001260584985 	9.480657644e-06 	5.750695887e-09 	0.000195572306 	-1.260289841e-06 	3.728151718e-07
0.4344885207 	0.0002001438612 	1.32389745e-05 	3.759265689e-08 	0.0002929960701 	-1.832369067e-06 	5.585319436e-07
0.4530046648 	0.0002857024852 	3.059822178e-05 	1.196746354e-07 	0.0004836637757 	-1.99502509e-06 	9.219975839e-07
0.4729699124 	0.0003717740412 	3.828869227e-05 	1.454133442e-07 	0.0006073940177 	-1.929379304e-06 	1.157861814e-06
0.4944634565 	0.000478459703 	4.42799286e-05 	1.767912407e-07 	0.0007132990594 	-1.567150342e-06 	1.359746258e-06
0.5176484568 	0.0005603364248 	8.738771468e-05 	2.049619503e-07 	0.001000041031 	-1.865181214e-06 	1.906356152e-06
0.542569778 	0.0006332790875 	9.496440543e-05 	1.702489373e-07 	0.001090850244 	-1.588641713e-06 	2.079463751e-06
0.5693462178 	0.0006847860503 	0.000124147409 	1.551354782e-07 	0.001204538067 	-1.373231768e-06 	2.296184339e-06
0.5980874262 	0.0006892591967 	0.0001311974505 	1.133720109e-07 	0.001193105232 	-1.095260683e-06 	2.274390179e-06
0.6289040372 	0.0006485733968 	0.0001118022691 	1.014019159e-07 	0.001019145011 	-5.739204607e-07 	1.942773648e-06
0.6597287896 	0.0005353292435 	0.0001002665112 	6.86561957e-08 	0.0008434562665 	-3.802894996e-07 	1.60786207e-06
0.6885070106 	0.0004072090629 	5.975399215e-05 	2.613037447e-08 	0.0005755830461 	-2.269371589e-07 	1.097221261e-06
0.7153735372 	0.000294924333 	4.074133797e-05 	7.293006498e-09 	0.0003995745274 	-1.300105545e-07 	7.617001052e-07
0.7404577418 	0.0002137647331 	3.048071866e-05 	2.050668487e-09 	0.0002824814347 	-8.555340832e-08 	5.384881262e-07
0.763881608 	0.0001495499543 	2.461022018e-05 	1.284840243e-09 	0.0002004265211 	-6.997491806e-08 	3.820686549e-07
0.7857594625 	9.932679524e-05 	1.633476866e-05 	5.798143702e-09 	0.0001294372566 	-4.454286835e-08 	2.467433864e-07
0.8061955834 	7.527625824e-05 	1.212831798e-05 	1.11179119e-08 	9.493327496e-05 	-3.803679859e-08 	1.809692074e-07
0.8252873287 	5.586306827e-05 	1.122864388e-05 	1.03475642e-08 	7.179459493e-05 	-5.228751917e-08 	1.368604522e-07
0.8431242394 	3.620652539e-05 	8.767469948e-06 	8.79374415e-09 	4.697318506e-05 	-3.81454211e-08 	8.954394625e-08
0.8597896056 	2.370237518e-05 	6.048188328e-06 	7.175420763e-09 	2.959312193e-05 	-1.826794657e-08 	5.641271539e-08
0.8753606451 	1.594470923e-05 	4.636820544e-06 	3.392468637e-09 	1.969217074e-05 	-1.594868696e-08 	3.753875059e-08
0.8899091601 	9.555887381e-06 	2.929319547e-06 	-1.037660618e-09 	1.148621713e-05 	-1.661514876e-08 	2.189592228e-08
0.9035021065 	5.462937831e-06 	1.868424115e-06 	-3.268699451e-09 	6.50805201e-06 	-1.53685587e-08 	1.240615595e-08
0.9162019423 	2.477295068e-06 	9.293848692e-07 	-2.39373499e-09 	2.928261477e-06 	-8.357427183e-09 	5.582080243e-09
0.9280669907 	1.045011072e-06 	4.378373029e-07 	-1.698765559e-09 	1.222870411e-06 	-4.546175796e-09 	2.331130882e-09
0.939151752 	4.291173351e-07 	2.25904461e-07 	-1.1341957e-09 	5.043589849e-07 	-2.336949993e-09 	9.614484046e-10
0.9495071738 	1.215772247e-07 	7.336453008e-08 	-3.391447559e-10 	1.393276387e-07 	-5.920767747e-10 	2.655972035e-10
0.9563628554 	3.843137905e-08 	2.168663951e-08 	-1.570391012e-10 	4.223923565e-08 	-2.015453505e-10 	8.051972294e-11
0.962432965 	9.17115675e-09 	4.611371191e-09 	-1.939147331e-11 	9.77547916e-09 	-3.206318681e-11 	1.863478023e-11
0.9678072944 	1.96894626e-09 	9.38406215e-10 	-2.231727038e-12 	2.065080866e-09 	-4.815477158e-12 	3.936618091e-12
0.9725654226 	4.195931842e-10 	1.987471207e-10 	-2.23485535e-13 	4.363757236e-10 	-4.887168382e-13 	8.318534135e-13
0.9767778614 	9.120588335e-11 	4.308759217e-11 	1.367376233e-14 	9.430740354e-11 	3.002156487e-14 	1.797761225e-13
0.9805070848 	2.06854231e-11 	9.750439885e-12 	1.737315444e-14 	2.128588427e-11 	3.784618036e-14 	4.057681153e-14
0.9838084378 	4.946751646e-12 	2.326503181e-12 	6.624944071e-15 	5.065879322e-12 	1.437817273e-14 	9.656973975e-15
0.9867309446 	1.305650416e-12 	6.126057391e-13 	2.397562672e-15 	1.330389791e-12 	5.188792386e-15 	2.536092705e-15
0.9893180269 	3.818449501e-13 	1.787514091e-13 	9.000207865e-16 	3.872103972e-13 	1.94429086e-15 	7.381306365e-16
0.9916081409 	1.152984129e-13 	5.386818424e-14 	3.032220391e-16 	1.164336763e-13 	6.540714466e-16 	2.219549481e-16
0.9930959046 	3.517758924e-14 	1.565472214e-14 	9.508334772e-17 	3.540580332e-14 	2.144155631e-16 	6.749330166e-17
0.9945837944 	9.29412928e-15 	3.135138416e-15 	2.034444089e-17 	9.321123886e-15 	5.949341959e-17 	1.77686528e-17
0.9960718106 	1.564628583e-15 	2.441287773e-16 	1.649196945e-18 	1.564096969e-15 	1.019368889e-17 	2.981603541e-18
0.9975599529 	1.815551487e-16 	5.392902512e-18 	2.794287167e-20 	1.81245635e-16 	5.573487817e-19 	3.455045549e-19
0.9990482216 	8.271628027e-17 	3.992889098e-19 	2.197148296e-22 	8.255913286e-17 	1.62821351e-23 	1.573806534e-19
0.9990482216 	8.271628027e-17 	3.992889098e-19 	2.197148296e-22 	8.255913286e-17 	1.62821351e-23 	1.573806534e-19
