0.4709558481 	0.0128252625 	-2.548215241e-08 	-1.23023792e-08
0.4720092239 	0.0491263576 	8.466038097e-07 	-4.609530156e-08
0.4730625996 	0.09782670996 	3.758908799e-06 	-8.824422151e-08
0.4741159754 	0.1461084856 	9.005510233e-06 	-1.168198574e-07
0.4751693511 	0.1939702285 	1.661445523e-05 	-1.266117517e-07
0.4762227269 	0.2477797694 	2.782922167e-05 	-1.348664506e-07
0.4778443634 	0.3158957786 	4.585305653e-05 	-1.662396456e-07
0.4796765386 	0.3963024573 	7.277246751e-05 	-2.065541664e-07
0.4817465869 	0.4852052856 	0.0001099719477 	-2.152799912e-07
0.4840853915 	0.5828687124 	0.0001598628118 	-1.625900248e-07
0.4867278453 	0.689162018 	0.000224901899 	-1.84007361e-08
0.4897133715 	0.8032997404 	0.0003074440516 	2.513700944e-07
0.4930865115 	0.9234875205 	0.000409320685 	6.806885435e-07
0.4968975894 	1.046498516 	0.0005310198185 	1.2994307e-06
0.5012034633 	1.167312377 	0.000667632995 	2.125766194e-06
0.506068373 	1.288554403 	0.0008264551658 	3.118514181e-06
0.5134203412 	1.397664463 	0.0009759851243 	4.132521725e-06
0.5212948542 	1.469073034 	0.001054699165 	4.721213542e-06
0.529729052 	1.502547999 	0.001059414265 	4.402752404e-06
0.5387627144 	1.513937616 	0.001057872552 	2.852939107e-06
0.5484384488 	1.516796935 	0.001082901245 	-1.844377777e-07
0.5588018907 	1.516396952 	0.00105638145 	-3.28840137e-06
0.5699019192 	1.51365888 	0.000925294243 	-6.245007881e-06
0.5817908876 	1.509492367 	0.0007580724495 	-7.235751862e-06
0.5945248701 	1.503095212 	0.0006235549688 	-3.885072472e-06
0.6081639266 	1.495219784 	0.0005489633479 	5.737797185e-07
0.6227723857 	1.488816697 	0.0005256376435 	3.761201467e-06
0.638419148 	1.483219521 	0.0004326369062 	5.669027834e-06
0.6551780116 	1.476943336 	0.0002449151414 	4.574195479e-06
0.6731280194 	1.470142982 	7.760131384e-05 	-5.385139631e-07
0.6923538328 	1.46316382 	-8.254770676e-05 	-8.957787666e-06
0.7129461301 	1.455966196 	-0.0002778075433 	-2.032114476e-05
0.7350020349 	1.44758895 	-0.0004889414947 	-3.386056157e-05
0.7570579485 	1.437487773 	-0.0007012959541 	-4.753573008e-05
0.7776502527 	1.427954878 	-0.0008944515183 	-6.026089048e-05
0.7968760713 	1.420691677 	-0.001091551269 	-7.200662885e-05
0.814826083 	1.41426469 	-0.001335114302 	-8.074374601e-05
0.831584949 	1.407048523 	-0.001584943529 	-8.545936717e-05
0.8472317127 	1.398605101 	-0.001764145028 	-8.80098565e-05
0.8618401721 	1.38924702 	-0.00188243316 	-9.026554466e-05
0.8754792281 	1.379804283 	-0.001970724717 	-9.226899775e-05
0.8882132094 	1.370962126 	-0.002044895855 	-9.323428693e-05
0.9001021759 	1.362700413 	-0.002150147252 	-9.295970908e-05
0.9112022019 	1.353000086 	-0.002329637618 	-9.06458618e-05
0.9215656407 	1.336097418 	-0.002537828046 	-8.464742989e-05
0.9312413717 	1.304523137 	-0.002678631633 	-7.427649889e-05
0.9402750304 	1.253379954 	-0.002621114283 	-6.04862333e-05
0.9487092242 	1.180347899 	-0.002267821325 	-4.559118966e-05
0.9565837329 	1.082492304 	-0.001717160081 	-3.186145526e-05
0.9639356968 	0.9690325596 	-0.001166856051 	-2.109023097e-05
0.9688006083 	0.8619930147 	-0.0007576776708 	-1.393190142e-05
0.9731064834 	0.7643693505 	-0.0004873335205 	-9.147387417e-06
0.976917562 	0.669691652 	-0.0003008342545 	-5.75338087e-06
0.9802907021 	0.5798191351 	-0.0001798585686 	-3.477618035e-06
0.9832762282 	0.4959284786 	-0.0001059182866 	-2.014818009e-06
0.9859186816 	0.4186083999 	-6.220662267e-05 	-1.102081642e-06
0.9882574856 	0.3480121962 	-3.62750634e-05 	-5.529778643e-07
0.990327533 	0.2839932467 	-2.062778996e-05 	-2.420253368e-07
0.9921597073 	0.2262174853 	-1.116245043e-05 	-8.242348094e-08
0.9937813429 	0.1773338164 	-5.596856468e-06 	-1.676531963e-08
0.9948347186 	0.138775344 	-2.465037509e-06 	1.704600934e-09
0.9958880943 	0.1045439749 	-6.898967107e-07 	6.558306235e-09
0.9969414701 	0.0700384645 	1.634901756e-07 	8.383112915e-09
0.9979948458 	0.03520591508 	2.845176703e-07 	7.187989193e-09
0.9990482216 	0.01011115671 	1.189368685e-07 	3.068004805e-09
0.9990482216 	0.01011115671 	1.189368685e-07 	3.068004805e-09
