0.4709558481 	7.695138763e-17 	-2.627281726e-19 	2.507248547e-23 	7.680491653e-17 	5.46228659e-27 	1.464115177e-19
0.4720092239 	1.746695559e-16 	-1.970789173e-18 	-5.618396449e-21 	1.74336058e-16 	-3.72096812e-19 	3.323329808e-19
0.4730625996 	7.037709635e-16 	-3.748933665e-18 	-2.691745174e-20 	7.024286449e-16 	-7.304285401e-18 	1.339024227e-18
0.4741159754 	4.013854704e-15 	-3.578068013e-18 	-2.613975715e-20 	4.006213195e-15 	-4.977534622e-17 	7.636955819e-18
0.4751693511 	1.708555753e-14 	-2.912453984e-18 	-1.303326271e-21 	1.705304461e-14 	-2.163289225e-16 	3.250784268e-17
0.4762227269 	6.540296034e-14 	-2.683059494e-18 	9.371101572e-21 	6.527851526e-14 	-8.280005009e-16 	1.244389933e-16
0.4778443634 	2.214230783e-13 	-2.585825398e-18 	1.175503513e-20 	2.210017799e-13 	-2.770188109e-15 	4.212908167e-16
0.4796765386 	6.868313379e-13 	-2.478320679e-18 	1.179412583e-20 	6.855245284e-13 	-8.411852277e-15 	1.306800283e-15
0.4817465869 	2.053754394e-12 	-2.344492929e-18 	1.152319494e-20 	2.049846806e-12 	-2.433614917e-14 	3.907577737e-15
0.4840853915 	6.003161175e-12 	-2.160660999e-18 	1.105993875e-20 	5.991739243e-12 	-6.775470249e-14 	1.142192031e-14
0.4867278453 	1.754987131e-11 	-1.434189968e-17 	2.433311939e-20 	1.751647992e-11 	-1.867227299e-13 	3.339127919e-14
0.4897133715 	5.549167334e-11 	-1.115801211e-15 	4.626975875e-18 	5.538608209e-11 	-5.647906326e-13 	1.055812662e-13
0.4930865115 	1.892409555e-10 	-1.539436715e-14 	2.013650803e-17 	1.888807361e-10 	-1.810784052e-12 	3.600591797e-13
0.4968975894 	7.039177018e-10 	-4.154253409e-13 	1.066135239e-15 	7.025733261e-10 	-6.243408426e-12 	1.33930003e-12
0.5012034633 	2.983468468e-09 	-5.666601007e-12 	1.673037445e-14 	2.977711085e-09 	-2.340103142e-11 	5.67634494e-12
0.506068373 	2.977987123e-08 	-3.279489631e-10 	-1.975498874e-12 	2.971804382e-08 	-1.380772454e-11 	5.665085123e-11
0.5134203412 	3.842935306e-07 	-8.047379905e-09 	-4.037445914e-11 	3.834093743e-07 	1.218870587e-09 	7.308848306e-10
0.5212948542 	2.848788472e-06 	-3.675608963e-08 	-4.028945105e-10 	2.845062285e-06 	7.731092827e-09 	5.423479459e-09
0.529729052 	8.362581121e-06 	3.939352627e-07 	3.602993037e-09 	8.67616539e-06 	2.049599105e-08 	1.653918265e-08
0.5387627144 	1.712405375e-05 	1.738674869e-06 	-1.082441274e-08 	1.76250909e-05 	2.685676674e-08 	3.35983219e-08
0.5484384488 	2.698911615e-05 	1.484784968e-06 	-2.117992977e-08 	2.725008218e-05 	3.070923565e-08 	5.194623041e-08
0.5588018907 	3.846024724e-05 	2.345810057e-06 	-8.02623235e-09 	3.870409912e-05 	3.679898709e-08 	7.378077018e-08
0.5699019192 	5.24000797e-05 	1.117840073e-05 	1.213917348e-08 	5.351045239e-05 	3.979468499e-08 	1.020057947e-07
0.5817908876 	6.414150117e-05 	1.826643496e-05 	2.765073318e-08 	6.62114117e-05 	4.111384014e-08 	1.262173532e-07
0.5945248701 	6.841252043e-05 	1.799634711e-05 	2.596178572e-08 	7.054818968e-05 	3.867069673e-08 	1.344844574e-07
0.6081639266 	6.468396827e-05 	1.711174309e-05 	2.24214287e-08 	6.656769842e-05 	3.654393116e-08 	1.268965347e-07
0.6227723857 	5.965170712e-05 	1.652472422e-05 	2.214084379e-08 	6.131048829e-05 	4.075186995e-08 	1.16874831e-07
0.638419148 	5.8972605e-05 	1.622122584e-05 	2.306170462e-08 	6.055174474e-05 	5.17732158e-08 	1.15428455e-07
0.6551780116 	5.848885153e-05 	1.568783184e-05 	1.736297728e-08 	6.005517479e-05 	5.770487566e-08 	1.144818546e-07
0.6731280194 	5.667294285e-05 	1.519607709e-05 	3.804036957e-09 	5.820102729e-05 	3.559914622e-08 	1.109473341e-07
0.6923538328 	6.883901788e-05 	1.856664569e-05 	-1.26113116e-08 	7.066825796e-05 	2.774596229e-10 	1.347133409e-07
0.7129461301 	9.275329298e-05 	2.621452676e-05 	-1.922472322e-08 	9.540961474e-05 	1.378295503e-08 	1.818772434e-07
0.7350020349 	0.0001085770609 	3.327846466e-05 	-1.053071596e-08 	0.0001123563008 	4.922576061e-08 	2.141823372e-07
0.7570579485 	0.0001151594848 	3.885122896e-05 	7.271849438e-09 	0.0001206017707 	3.837154998e-08 	2.299004944e-07
0.7776502527 	0.0001210186996 	4.286162481e-05 	3.98083602e-08 	0.0001282898116 	5.709992513e-08 	2.445560373e-07
0.7968760713 	0.0001304683343 	4.313578243e-05 	7.158675131e-08 	0.0001381064566 	1.240404437e-07 	2.63269291e-07
0.814826083 	0.0001389527956 	4.305844718e-05 	9.176440484e-08 	0.0001457082461 	7.818798752e-08 	2.777604146e-07
0.831584949 	0.0001414045862 	4.575481421e-05 	8.70668536e-08 	0.0001461702137 	-5.218485059e-09 	2.786410533e-07
0.8472317127 	0.0001345317289 	5.005085296e-05 	5.195768006e-08 	0.0001368588731 	-1.91235993e-08 	2.608910501e-07
0.8618401721 	0.0001172019415 	4.824125125e-05 	3.090767599e-08 	0.0001184289893 	-7.552073912e-09 	2.257585692e-07
0.8754792281 	9.436670458e-05 	3.998462124e-05 	2.881787949e-08 	9.533436373e-05 	1.21393176e-08 	1.817337941e-07
0.8882132094 	6.982629864e-05 	3.348453032e-05 	2.436485601e-08 	7.046084174e-05 	9.94718087e-09 	1.343179479e-07
0.9001021759 	4.681075517e-05 	2.626998518e-05 	5.955423651e-09 	4.660535785e-05 	1.134803315e-09 	8.884276534e-08
0.9112022019 	2.687388089e-05 	1.535248906e-05 	-7.80846051e-09 	2.617684283e-05 	-4.344024959e-09 	4.990033791e-08
0.9215656407 	1.200452936e-05 	6.186745256e-06 	-5.534247505e-09 	1.168229249e-05 	-4.930310615e-09 	2.22696964e-08
0.9312413717 	3.840781916e-06 	1.707189088e-06 	-2.230677736e-09 	3.814812284e-06 	-2.596640515e-09 	7.272092485e-09
0.9402750304 	7.321557847e-07 	7.588006276e-08 	7.592314777e-11 	7.28093671e-07 	-2.124647008e-10 	1.3879489e-09
0.9487092242 	6.452699614e-08 	4.050009206e-09 	7.829278065e-11 	6.439905936e-08 	2.954460902e-10 	1.227625059e-10
0.9565837329 	2.473796519e-09 	3.646082361e-11 	1.904902694e-13 	2.468573487e-09 	-8.749337523e-13 	4.70578717e-12
0.9639356968 	1.826984969e-10 	1.434412948e-13 	1.873362306e-15 	1.823495452e-10 	-3.046684067e-13 	3.476089146e-13
0.9688006083 	3.762070419e-11 	1.964455301e-15 	2.418526506e-17 	3.754910595e-11 	-7.268014143e-14 	7.157903217e-14
0.9731064834 	6.353290318e-12 	3.413844899e-17 	4.284163401e-19 	6.341201914e-12 	-1.3755873e-14 	1.208809329e-14
0.976917562 	8.637672956e-13 	8.980277175e-19 	1.193522305e-20 	8.621238409e-13 	-1.22074203e-15 	1.643447656e-15
0.9802907021 	8.216442123e-14 	4.328916149e-19 	6.143227466e-21 	8.200808804e-14 	1.472254279e-16 	1.563302088e-16
0.9832762282 	4.987569067e-15 	1.454725179e-19 	3.036872154e-21 	4.978078615e-15 	4.800584028e-17 	9.489601426e-18
0.9859186816 	3.008503697e-16 	5.642357984e-20 	9.686248459e-22 	3.002776937e-16 	4.750253061e-18 	5.724127421e-19
0.9882574856 	1.480299767e-16 	1.295389877e-19 	4.65634911e-22 	1.477478467e-16 	-7.048885192e-25 	2.816484602e-19
0.990327533 	1.480304228e-16 	4.597887231e-19 	1.349089796e-21 	1.477473998e-16 	-1.591891986e-24 	2.816476082e-19
0.9921597073 	1.480317634e-16 	1.742666265e-18 	4.351173633e-21 	1.47746058e-16 	-3.884836114e-24 	2.816450505e-19
0.9937813429 	1.480348292e-16 	5.556080291e-18 	1.009589968e-20 	1.477429917e-16 	-6.68468259e-24 	2.816392052e-19
0.9948347186 	1.48038436e-16 	1.186190215e-17 	1.133286628e-20 	1.477393888e-16 	-4.755844454e-24 	2.816323371e-19
0.9958880943 	1.480374488e-16 	1.312447731e-17 	4.393293807e-21 	1.477403862e-16 	9.809024115e-26 	2.816342383e-19
0.9969414701 	1.480327668e-16 	7.00735938e-18 	-3.485244143e-22 	1.477450701e-16 	1.110096682e-24 	2.816431673e-19
0.9979948458 	1.480301997e-16 	1.747183888e-18 	-1.740313886e-22 	1.477476283e-16 	1.588217971e-25 	2.816480438e-19
0.9990482216 	8.455764157e-17 	1.980751878e-19 	-2.002089047e-23 	8.439671868e-17 	1.406808624e-27 	1.608836026e-19
0.9990482216 	8.455764157e-17 	1.980751878e-19 	-2.002089047e-23 	8.439671868e-17 	1.406807661e-27 	1.608836026e-19
