0.1768325896 	2.519224168e-07 	-2.671831537e-09 	3.507833393e-11 	2.425726195e-07 	-4.039449716e-09 	4.624108322e-10
0.1785907938 	3.713866142e-05 	-2.789160791e-06 	3.35867564e-08 	2.869239453e-05 	-4.9489989e-07 	5.46956786e-08
0.1803486209 	0.0004574576572 	-6.997964758e-05 	5.991582494e-07 	0.0002912334871 	-4.115558307e-06 	5.551719706e-07
0.1821054395 	0.001304902801 	-0.0002623893358 	1.907482376e-06 	0.0008681945494 	-1.056359345e-05 	1.655020113e-06
0.1838606252 	0.001939677965 	-0.0004369250643 	2.63511854e-06 	0.001493043121 	-1.700968167e-05 	2.846155158e-06
0.1856135605 	0.002178730989 	-0.0005113195744 	2.04819897e-06 	0.00202520012 	-1.971940172e-05 	3.860594305e-06
0.1883063411 	0.00213730044 	-0.000489394555 	1.639659875e-06 	0.002507577061 	-1.6492285e-05 	4.780138824e-06
0.191337819 	0.001960987327 	-0.0003946144372 	1.862183014e-06 	0.002842174246 	-1.092129918e-05 	5.417974054e-06
0.1947451987 	0.001841297375 	-0.0003211763189 	2.015236762e-06 	0.002979934719 	-6.504942965e-06 	5.680583804e-06
0.1985670993 	0.001745055668 	-0.0002714241265 	2.063278168e-06 	0.002977313109 	-4.195725738e-06 	5.675586287e-06
0.2029500116 	0.001663754977 	-0.0002403180451 	1.935734812e-06 	0.002878828855 	-2.964062845e-06 	5.487847926e-06
0.2079040511 	0.001589515881 	-0.0002262311918 	1.636720548e-06 	0.002761441344 	-2.152456218e-06 	5.264074704e-06
0.2134522109 	0.001524437129 	-0.0002191493404 	1.242835795e-06 	0.00265190764 	-1.521038308e-06 	5.055273022e-06
0.2196601811 	0.001466317036 	-0.0002128060174 	8.195513141e-07 	0.002556114158 	-9.419342525e-07 	4.872664021e-06
0.2267486692 	0.001415526719 	-0.0002061751182 	3.774208966e-07 	0.002475059385 	-3.963183085e-07 	4.718151096e-06
0.2332577037 	0.001377409313 	-0.0002007422759 	2.380620396e-08 	0.002416151122 	-1.167847356e-06 	4.605855573e-06
0.234647839 	0.001369111799 	-0.0002000699714 	5.763933792e-08 	0.002401703057 	-8.470128341e-08 	4.578313546e-06
0.245957996 	0.001326516248 	-0.0001945228925 	5.227766952e-07 	0.002330759683 	-6.403851035e-07 	4.443075757e-06
0.2581327455 	0.00129372456 	-0.0001900936741 	1.02990975e-06 	0.002278090333 	-1.047050134e-06 	4.342673337e-06
0.2712030149 	0.001272646263 	-0.0001872405434 	1.579698973e-06 	0.002246076686 	-1.333731013e-06 	4.281646428e-06
0.2851802459 	0.001259402152 	-0.0001844678386 	2.166125848e-06 	0.002229851992 	-1.506650796e-06 	4.250717652e-06
0.3001737618 	0.001252350264 	-0.0001810324546 	2.793624129e-06 	0.002227497289 	-1.592878589e-06 	4.246228934e-06
0.3163208608 	0.001249490479 	-0.0001760477664 	3.456848924e-06 	0.002236555537 	-1.586615398e-06 	4.263496471e-06
0.3336263772 	0.001250658454 	-0.0001690687335 	3.021845554e-06 	0.002257263788 	-1.107052155e-06 	4.302972154e-06
0.3521814245 	0.001254595173 	-0.0001592454893 	2.527531495e-06 	0.002288012972 	-7.335717639e-07 	4.361588646e-06
0.3720724044 	0.001261058104 	-0.0001458668665 	2.006972504e-06 	0.00232858612 	-4.656196148e-07 	4.438932341e-06
0.3934380589 	0.001269548654 	-0.0001278765384 	1.467954392e-06 	0.002378152222 	-2.869287286e-07 	4.533419109e-06
0.4163236383 	0.001279553239 	-0.0001042694567 	9.239179266e-07 	0.002435090094 	-1.672209094e-07 	4.641958517e-06
0.4408019705 	0.001291291926 	-7.407378279e-05 	3.964293962e-07 	0.002498209296 	-7.79706719e-08 	4.762281259e-06
0.4622799629 	0.001302086127 	-4.310946323e-05 	2.306183006e-07 	0.002552607076 	-6.025578059e-07 	4.865978548e-06
0.4669995683 	0.001305271337 	-3.662575697e-05 	6.932810016e-08 	0.002563982696 	-3.245097499e-08 	4.887663641e-06
0.4948343623 	0.001323688889 	8.662028995e-06 	3.876840186e-07 	0.002628531472 	-2.103805146e-07 	5.010711547e-06
0.5246517747 	0.001343261132 	6.667274044e-05 	5.989622847e-07 	0.002690219483 	-4.031866292e-07 	5.128306043e-06
0.5565711163 	0.001365087639 	0.0001396729208 	6.655672723e-07 	0.002742592423 	-6.022916853e-07 	5.228143423e-06
0.5907153384 	0.001389526219 	0.000224897752 	5.775120263e-07 	0.002774815872 	-7.670489487e-07 	5.289570273e-06
0.6248041875 	0.001426298262 	0.0003053689226 	4.606574492e-07 	0.002757624781 	-6.160248188e-07 	5.256799274e-06
0.6565865215 	0.001470846496 	0.0003684912535 	4.150855497e-07 	0.002697419917 	-2.400603994e-07 	5.142032072e-06
0.6862306008 	0.001512334739 	0.000413156908 	4.031392341e-07 	0.00261832741 	2.280160748e-08 	4.99125977e-06
0.7138920104 	0.001547184226 	0.0004452482204 	3.902979155e-07 	0.002532969363 	1.621361527e-07 	4.828543608e-06
0.7397136074 	0.001572014279 	0.0004729658309 	3.402820966e-07 	0.002454338833 	1.78911524e-07 	4.678651964e-06
0.7638267275 	0.001589447077 	0.0004992302278 	2.749716721e-07 	0.002383397867 	1.507272292e-07 	4.543418766e-06
0.7863495136 	0.001602128497 	0.0005263668284 	2.218111375e-07 	0.002321903776 	1.313302982e-07 	4.426193938e-06
0.8073911058 	0.001613110881 	0.0005549630946 	1.768935149e-07 	0.002270071486 	1.205180101e-07 	4.327387187e-06
0.8270511595 	0.001625344703 	0.0005845373146 	1.282086385e-07 	0.002228319144 	1.076948538e-07 	4.247795618e-06
0.845421889 	0.001641464351 	0.0006138389168 	6.812256486e-08 	0.002196939953 	8.274035701e-08 	4.187978158e-06
0.8625884684 	0.001663781476 	0.000641783822 	1.484102498e-08 	0.002176158589 	5.733726275e-08 	4.148363102e-06
0.8786299155 	0.001695797245 	0.0006662978981 	-1.979322294e-08 	0.002164846797 	4.007870914e-08 	4.126799683e-06
0.8936198082 	0.001742642558 	0.0006866890691 	-2.319633732e-08 	0.002163241407 	4.10759946e-08 	4.123739364e-06
0.9076267231 	0.00181011405 	0.0007092126858 	-7.322486718e-09 	0.002178334589 	5.578598804e-08 	4.152511163e-06
0.9207146719 	0.001904703169 	0.0007404423833 	6.0855413e-09 	0.002220871765 	7.025483897e-08 	4.233598844e-06
0.9329434662 	0.00203180365 	0.0007830423128 	1.422543614e-08 	0.002300950261 	7.743216629e-08 	4.386250713e-06
0.9443690234 	0.002177432181 	0.0008328638906 	1.517221158e-08 	0.002411349762 	6.958707293e-08 	4.596702846e-06
0.9519339113 	0.002311115801 	0.0008792687461 	1.1129626e-08 	0.002522399131 	5.212461271e-08 	4.808393808e-06
0.9586324528 	0.002421755884 	0.0009177955889 	4.763208176e-09 	0.002616878067 	2.952240581e-08 	4.988496918e-06
0.9645635659 	0.00250438291 	0.0009462353904 	-1.865209594e-09 	0.002685734979 	6.793410651e-09 	5.119757331e-06
0.9698149412 	0.002545603428 	0.0009593956011 	-7.136379896e-09 	0.002713157602 	-1.16557491e-08 	5.172032473e-06
0.9744642952 	0.002534259176 	0.0009529674072 	-1.036227835e-08 	0.002686162982 	-2.383109271e-08 	5.120573225e-06
0.9785804997 	0.002457585891 	0.0009222606118 	-1.157140751e-08 	0.002591075602 	-2.973101811e-08 	4.93931025e-06
0.9822245787 	0.002297152543 	0.0008612785222 	-1.120750679e-08 	0.002409387418 	-3.108928557e-08 	4.592962074e-06
0.9854505955 	0.002024594815 	0.0007586864572 	-1.125432729e-08 	0.002113123544 	-3.104244016e-08 	4.028200788e-06
0.9883064419 	0.001606472715 	0.0006003135233 	-1.090386191e-08 	0.00166929491 	-2.966508397e-08 	3.182140054e-06
0.9908345383 	0.001084079413 	0.0004037209325 	-8.57860225e-09 	0.001122596911 	-2.394414182e-08 	2.139981722e-06
0.9924769413 	0.0005861635201 	0.0002048880666 	-5.2474808e-09 	0.0006033421547 	-1.491446544e-08 	1.150137837e-06
0.9941195111 	0.0002216568721 	6.056843627e-05 	-1.79479296e-09 	0.0002252198795 	-5.70846973e-09 	4.293316869e-07
0.9957622477 	4.41678555e-05 	6.732305899e-06 	-1.557472438e-10 	4.430686894e-05 	-8.836522112e-10 	8.446120666e-08
0.9974051512 	3.102141114e-06 	1.431362961e-07 	-7.485245375e-13 	3.098012591e-06 	-2.608057845e-11 	5.905673046e-09
0.9990482216 	2.614739197e-08 	1.176587383e-10 	3.147575146e-15 	2.609782039e-08 	3.20027787e-13 	4.974969917e-11
0.9990482216 	2.614739197e-08 	1.176587383e-10 	3.147575146e-15 	2.609782039e-08 	3.20027787e-13 	4.974969917e-11
