0.2158351985 	1.391701936e-07 	-1.612059812e-09 	1.46821625e-11 	1.361063205e-07 	-1.033303027e-09 	2.594564757e-10
0.2158351985 	1.391701936e-07 	-1.612059812e-09 	1.46821625e-11 	1.361063205e-07 	-1.033303027e-09 	2.594564757e-10
0.2173898312 	1.800522926e-05 	-1.701811348e-06 	1.58599158e-08 	1.506483446e-05 	-1.270489821e-07 	2.871776154e-08
0.218944359 	0.0002538241089 	-5.071076927e-05 	3.512266572e-07 	0.0001725492119 	-1.329707953e-06 	3.289267555e-07
0.2204983132 	0.0009041073816 	-0.0002135400827 	9.752660576e-07 	0.0005822120329 	-3.349244925e-06 	1.109857952e-06
0.22205123 	0.001615183978 	-0.000399660089 	9.979766867e-07 	0.001057916057 	-4.973494249e-06 	2.016682036e-06
0.2236026504 	0.002068826019 	-0.0005294355136 	5.167149987e-07 	0.001466212568 	-7.39041622e-06 	2.795008668e-06
0.2259870383 	0.00221288319 	-0.0005626884732 	-3.248216536e-07 	0.001870075061 	-1.090421556e-05 	3.564882827e-06
0.2286733807 	0.002093801595 	-0.000468013626 	-6.864885732e-07 	0.002272413082 	-1.196131084e-05 	4.331850919e-06
0.2316959752 	0.001929136659 	-0.0003475496688 	-2.645980507e-07 	0.002621768411 	-9.704945415e-06 	4.997819273e-06
0.2350910569 	0.001799469739 	-0.0002574295277 	9.122351443e-08 	0.002840339634 	-6.533294021e-06 	5.414476775e-06
0.2389916993 	0.001705696722 	-0.000188270698 	4.161851018e-07 	0.00290498426 	-3.965955519e-06 	5.537707397e-06
0.2434078721 	0.00163042152 	-0.0001391922521 	6.59045983e-07 	0.002864797476 	-2.502113109e-06 	5.461100219e-06
0.2483623539 	0.001562000205 	-0.0001119902306 	6.89710021e-07 	0.002780278747 	-1.662221258e-06 	5.299984031e-06
0.2539168455 	0.001499160985 	-9.871450687e-05 	5.594524988e-07 	0.002687065378 	-1.081403396e-06 	5.122293442e-06
0.2602735202 	0.001445054736 	-9.193709695e-05 	3.458646472e-07 	0.002603377287 	-5.829495739e-07 	4.96276068e-06
0.2674522301 	0.001395882382 	-8.634553028e-05 	9.292878828e-08 	0.002529246402 	-1.365592999e-07 	4.82144661e-06
0.2701019815 	0.001384221377 	-8.433184841e-05 	3.141988865e-08 	0.002512918263 	-1.669054798e-06 	4.790320638e-06
0.277968411 	0.001349361487 	-7.933391042e-05 	2.287065911e-07 	0.00246021778 	-3.572632333e-07 	4.689858871e-06
0.2892151638 	0.001312171305 	-7.30771139e-05 	5.62431241e-07 	0.002406184221 	-7.456545778e-07 	4.58685589e-06
0.3013211162 	0.001286840373 	-6.850200053e-05 	9.342394971e-07 	0.002371637889 	-1.053690602e-06 	4.52100098e-06
0.3143027377 	0.001270291112 	-6.425168215e-05 	1.340775977e-06 	0.002352677483 	-1.289157008e-06 	4.484857176e-06
0.3282678633 	0.001260390976 	-5.921240941e-05 	1.783933328e-06 	0.002346537729 	-1.467604521e-06 	4.473153098e-06
0.3433513408 	0.001255785651 	-5.268059349e-05 	2.263080458e-06 	0.002351447682 	-1.593202662e-06 	4.482512833e-06
0.359565347 	0.001255926875 	-4.409688466e-05 	2.635262738e-06 	0.002366821051 	-1.601914073e-06 	4.511818747e-06
0.3770029629 	0.001259822025 	-3.281217127e-05 	2.313672553e-06 	0.00239115084 	-1.226864174e-06 	4.558198086e-06
0.3957533827 	0.001267117924 	-1.825680174e-05 	1.962275208e-06 	0.002423854557 	-9.274743351e-07 	4.62054046e-06
0.4159554384 	0.001277256735 	2.793789656e-07 	1.585472166e-06 	0.00246376285 	-6.909456964e-07 	4.69661676e-06
0.4376602607 	0.001289780345 	2.328362787e-05 	1.195110869e-06 	0.002509372955 	-5.021187373e-07 	4.783562296e-06
0.4609443107 	0.001304524293 	5.120822562e-05 	8.081925518e-07 	0.002559173063 	-3.480643111e-07 	4.878495143e-06
0.4859777749 	0.001321159332 	8.460639116e-05 	4.453664471e-07 	0.002610736525 	-2.08466342e-07 	4.976789433e-06
0.5128005118 	0.001339638369 	0.0001246312398 	1.324412167e-07 	0.002661205458 	-7.187051822e-08 	5.072997246e-06
0.5281619985 	0.001350663035 	0.0001505475294 	6.884999174e-07 	0.002685719142 	-1.933081011e-06 	5.119727142e-06
0.5414840545 	0.001360616074 	0.0001722813635 	7.72586698e-08 	0.002706454142 	-7.057553578e-08 	5.159253814e-06
0.5721687136 	0.001384240942 	0.0002286861884 	1.784739264e-07 	0.002741555182 	-2.002877974e-07 	5.226166153e-06
0.6050359512 	0.001409222586 	0.000292424089 	2.015690043e-07 	0.002758932733 	-2.985425204e-07 	5.259292595e-06
0.637884791 	0.001433734095 	0.0003567766278 	1.644784763e-07 	0.00275226729 	-3.4626096e-07 	5.246586408e-06
0.6685342863 	0.001458454744 	0.0004135976272 	1.129358854e-07 	0.002718407611 	-3.223844924e-07 	5.182040449e-06
0.6971361319 	0.001485610019 	0.0004568698702 	9.200356561e-08 	0.002656916632 	-2.184323304e-07 	5.064821552e-06
0.7238334956 	0.0015115112 	0.0004887678556 	9.130416868e-08 	0.002580438433 	-1.064773799e-07 	4.919032848e-06
0.7487597886 	0.001533569985 	0.0005132921871 	8.531286099e-08 	0.002500589814 	-3.920623758e-08 	4.766819188e-06
0.7720389899 	0.001551986548 	0.0005346199936 	7.157424088e-08 	0.002424454176 	-5.545717537e-09 	4.621683502e-06
0.7937834623 	0.001566881516 	0.0005574659232 	5.041164355e-08 	0.002358772384 	5.877773721e-09 	4.49647575e-06
0.8140976249 	0.001580931324 	0.0005821246133 	2.7797554e-08 	0.002304017805 	6.958088458e-09 	4.392098306e-06
0.8330771917 	0.001597180142 	0.0006066322413 	9.775570019e-09 	0.002259446379 	4.248727119e-09 	4.307132778e-06
0.8508109857 	0.001618334067 	0.0006281927531 	-8.356075493e-11 	0.002223667111 	1.71047345e-09 	4.238927549e-06
0.8673812119 	0.001646160697 	0.0006478559322 	-2.078765383e-09 	0.002198127839 	5.019298825e-10 	4.190242598e-06
0.8789729725 	0.001674556123 	0.0006612005284 	6.675714815e-08 	0.002186843738 	-5.850306736e-07 	4.168731967e-06
0.8828624254 	0.00168410117 	0.0006656750311 	-5.64815386e-10 	0.002183035624 	1.143677896e-09 	4.161472642e-06
0.897323651 	0.0017372072 	0.0006844977734 	-3.55472279e-09 	0.002181127847 	6.294690928e-09 	4.15783589e-06
0.9108370337 	0.001811343082 	0.0007099243505 	-2.217917022e-09 	0.002199728635 	1.689708664e-08 	4.193294162e-06
0.9234642351 	0.001913093795 	0.0007443552824 	2.948967672e-09 	0.002247149274 	3.404450626e-08 	4.28369108e-06
0.9352628795 	0.002046271104 	0.000789566941 	1.0079608e-08 	0.002331589155 	5.486551519e-08 	4.444656961e-06
0.9462868468 	0.002193680184 	0.0008402419574 	1.502247326e-08 	0.002442328618 	6.890030085e-08 	4.655757157e-06
0.9535860031 	0.002324075042 	0.0008854778114 	1.373875257e-08 	0.002548709593 	6.434422472e-08 	4.858548861e-06
0.9600493528 	0.002427863759 	0.0009214007148 	7.178772417e-09 	0.002634682672 	4.449409404e-08 	5.022437445e-06
0.9657723032 	0.002501736998 	0.0009464340266 	-3.378011202e-09 	0.0026926959 	1.230329147e-08 	5.133026781e-06
0.9708394384 	0.002534396303 	0.0009561787706 	-1.533616456e-08 	0.002709114415 	-2.504834228e-08 	5.164325035e-06
0.9753257253 	0.002516250754 	0.0009469364958 	-2.615535576e-08 	0.002672730307 	-6.015189778e-08 	5.094966812e-06
0.9792976023 	0.002435286291 	0.0009143575144 	-3.40136112e-08 	0.002570932052 	-8.739293724e-08 	4.900911045e-06
0.9828139396 	0.002272616778 	0.0008525196272 	-3.808565067e-08 	0.002385102644 	-1.056484454e-07 	4.546668545e-06
0.9859268946 	0.001997940861 	0.0007486697127 	-4.393186999e-08 	0.002085504579 	-1.211758296e-07 	3.975551363e-06
0.9886826718 	0.001578055199 	0.0005893444053 	-4.861587708e-08 	0.001639466025 	-1.322645213e-07 	3.125277909e-06
0.9911221987 	0.001058307774 	0.0003940485944 	-4.346154312e-08 	0.001095598758 	-1.213075652e-07 	2.088515739e-06
0.9927070693 	0.0005686879976 	0.0001984810464 	-2.906627856e-08 	0.0005851369006 	-8.261259516e-08 	1.115433563e-06
0.9942921068 	0.0002143081341 	5.81848788e-05 	-1.093348922e-08 	0.0002176444574 	-3.477475879e-08 	4.148908269e-07
0.9958773114 	4.289682868e-05 	6.506169999e-06 	-1.05073964e-09 	4.302456361e-05 	-5.961507782e-09 	8.20167763e-08
0.997462683 	3.060459495e-06 	1.419431895e-07 	-5.639487893e-12 	3.056332621e-06 	-1.964947027e-10 	5.826219439e-09
0.9990482216 	2.672023181e-08 	1.232818615e-10 	2.675438874e-14 	2.666954802e-08 	2.720236189e-12 	5.083957094e-11
