0.121376578 	1.039882102e-06 	2.830789302e-09 	-2.54599833e-10 	9.970173603e-07 	-3.0395859e-08 	1.900592195e-09
0.123583729 	0.0001388853051 	-1.131765049e-06 	-8.655542989e-08 	0.0001112278353 	-3.227625577e-06 	2.120311683e-07
0.1257894093 	0.0009800119702 	-0.00016246317 	3.983839133e-06 	0.0007742571965 	-1.821549236e-05 	1.47594941e-06
0.1279925952 	0.001977552367 	-0.0004241226659 	7.158961076e-06 	0.001649030925 	-2.704359493e-05 	3.143511267e-06
0.1301922761 	0.00225160154 	-0.0005553659068 	5.886486406e-06 	0.00230192873 	-2.301777531e-05 	4.388115947e-06
0.132387455 	0.002216987356 	-0.0005725387124 	5.063782944e-06 	0.002756469109 	-1.866816463e-05 	5.254596243e-06
0.1357557942 	0.002106345926 	-0.0005382953906 	4.563054768e-06 	0.002901256417 	-1.218554796e-05 	5.530601094e-06
0.1395413836 	0.001946201292 	-0.0004888829158 	4.291854579e-06 	0.002841682092 	-7.249515582e-06 	5.417035871e-06
0.1437868381 	0.001851515005 	-0.0004534117523 	3.911774472e-06 	0.002723364277 	-4.988895386e-06 	5.191489231e-06
0.1485346694 	0.001772984639 	-0.0004318437472 	3.391696721e-06 	0.002623500538 	-3.88812756e-06 	5.001121189e-06
0.1539572698 	0.001693458783 	-0.0004170627304 	2.784330048e-06 	0.002517338273 	-3.128173366e-06 	4.798746407e-06
0.1600645007 	0.001622019513 	-0.0004066831056 	2.17129044e-06 	0.002420957829 	-2.382288671e-06 	4.615018492e-06
0.1668783649 	0.001557792817 	-0.0003964261688 	1.595788438e-06 	0.002341937724 	-1.655175871e-06 	4.46438421e-06
0.1744706299 	0.001497042585 	-0.0003858695439 	1.047927045e-06 	0.002275016383 	-1.009438713e-06 	4.336813534e-06
0.1830959347 	0.001439517707 	-0.0003766496273 	5.0377393e-07 	0.002217351638 	-4.456550342e-07 	4.226888503e-06
0.1922476596 	0.001385720443 	-0.0003687860459 	3.4563615e-08 	0.002167018498 	-3.567800722e-07 	4.130939548e-06
0.1926955792 	0.001383303357 	-0.0003681479596 	3.073044095e-08 	0.002163219634 	-2.869283206e-08 	4.123697857e-06
0.2053746929 	0.001339520445 	-0.0003531675888 	8.424290196e-07 	0.002101776401 	-6.681289845e-07 	4.00656998e-06
0.2189675343 	0.00130587817 	-0.0003403619061 	1.612312977e-06 	0.002058662563 	-1.072908449e-06 	3.924383021e-06
0.2334990144 	0.001284771442 	-0.0003307081067 	2.339010984e-06 	0.002036184821 	-1.286069267e-06 	3.881534197e-06
0.2489714712 	0.001272122983 	-0.0003229400547 	3.020307558e-06 	0.002028840786 	-1.324012677e-06 	3.867534425e-06
0.2654937654 	0.001267565901 	-0.000316812841 	3.672002115e-06 	0.002036350232 	-1.244792056e-06 	3.881849517e-06
0.2832036071 	0.001268140206 	-0.0003110530536 	3.604254307e-06 	0.002055094601 	-8.802323431e-07 	3.917581493e-06
0.3020930082 	0.00127386061 	-0.0003051953707 	2.883295995e-06 	0.00208585042 	-4.543103275e-07 	3.976210632e-06
0.3222472526 	0.001283016886 	-0.0002980205558 	2.202375687e-06 	0.002127209865 	-1.792094829e-07 	4.05505323e-06
0.3437457136 	0.001294826547 	-0.0002883888776 	1.556332786e-06 	0.002179221732 	-2.376113253e-08 	4.154202305e-06
0.366723401 	0.001308525554 	-0.000274769688 	9.44576936e-07 	0.002242179132 	2.950244139e-08 	4.274216607e-06
0.3912146542 	0.001322501572 	-0.0002551415412 	3.687616994e-07 	0.002314665273 	2.085291065e-08 	4.412395339e-06
0.4093312864 	0.001332230484 	-0.000235911246 	4.033757873e-07 	0.002371896148 	-9.164777041e-07 	4.521493293e-06
0.4171316319 	0.001335933786 	-0.000226848913 	1.808894438e-07 	0.002394890084 	-3.557776393e-08 	4.565326125e-06
0.444521887 	0.001346622175 	-0.0001867513987 	7.082715674e-07 	0.002478008658 	-1.729897756e-07 	4.723773228e-06
0.4737879914 	0.001355958033 	-0.000133012031 	1.114874634e-06 	0.002566000548 	-3.748540095e-07 	4.891510228e-06
0.5050603485 	0.001363785682 	-5.943311543e-05 	1.321792546e-06 	0.002654033113 	-6.630098577e-07 	5.059324763e-06
0.5384624778 	0.001381965541 	3.913475966e-05 	1.234930328e-06 	0.002715864317 	-7.472163035e-07 	5.177192224e-06
0.574124097 	0.001417637904 	0.0001503180666 	9.863035123e-07 	0.002730059289 	-2.866655797e-07 	5.204251786e-06
0.6096731358 	0.001471525177 	0.0002452388316 	8.246875002e-07 	0.002687551005 	3.314953848e-07 	5.123219182e-06
0.642780273 	0.001529847993 	0.0003136418345 	7.595917399e-07 	0.002611291834 	6.992436524e-07 	4.977848007e-06
0.6736372215 	0.00157523827 	0.0003635951464 	6.600827083e-07 	0.002535177892 	6.935886683e-07 	4.832753679e-06
0.7024167125 	0.001608220745 	0.0004021960024 	5.292224926e-07 	0.002461812951 	5.231167899e-07 	4.69289971e-06
0.7292743072 	0.001629817719 	0.0004357410026 	4.277634233e-07 	0.002394938989 	3.876641819e-07 	4.565419352e-06
0.7543509671 	0.001643187889 	0.000467011248 	3.510271158e-07 	0.002333809746 	2.944046016e-07 	4.448890025e-06
0.777772227 	0.001651450252 	0.0004978078407 	2.966195493e-07 	0.002278970265 	2.439234554e-07 	4.344350732e-06
0.7996531056 	0.001657586245 	0.000529140897 	2.574125984e-07 	0.002231378742 	2.216958708e-07 	4.253628063e-06
0.8200980707 	0.001664433161 	0.0005613624932 	2.237383205e-07 	0.002192190277 	2.179152113e-07 	4.178923956e-06
0.8392033992 	0.001674661551 	0.0005941301332 	1.855004623e-07 	0.002162523757 	2.22622455e-07 	4.122371323e-06
0.8570577716 	0.001690797203 	0.0006262748724 	1.401270996e-07 	0.002143145213 	2.250343704e-07 	4.085430432e-06
0.8737433156 	0.001715736692 	0.0006566832048 	7.516527313e-08 	0.002134486969 	2.057286677e-07 	4.068925413e-06
0.8893364195 	0.001754207266 	0.0006839780604 	-5.709006025e-10 	0.002136461106 	1.706791427e-07 	4.072688666e-06
0.9039082323 	0.001812647398 	0.000708368685 	-1.952088305e-08 	0.002151588282 	1.705172047e-07 	4.101525269e-06
0.917525146 	0.00189783075 	0.0007364720846 	1.220493409e-08 	0.00218983356 	2.095354673e-07 	4.174431398e-06
0.9302491908 	0.002016214521 	0.0007755284913 	4.448464049e-08 	0.002264441745 	2.536345649e-07 	4.316655335e-06
0.9421383606 	0.00215729889 	0.0008235144901 	5.958323324e-08 	0.002372486492 	2.674299026e-07 	4.522618652e-06
0.9500106837 	0.002292409027 	0.0008704260796 	5.521180932e-08 	0.002486711872 	2.38292321e-07 	4.740363973e-06
0.9569817698 	0.002409215856 	0.0009113252817 	3.723189066e-08 	0.002589234643 	1.749237915e-07 	4.93580087e-06
0.9631544511 	0.002501203364 	0.0009434148063 	1.112046657e-08 	0.002669694062 	8.982566635e-08 	5.089178885e-06
0.9686199044 	0.002552740726 	0.0009606628392 	-1.661058271e-08 	0.002710042818 	2.77378412e-10 	5.166094829e-06
0.9734589462 	0.002550749743 	0.0009580278488 	-4.094737607e-08 	0.002695253012 	-7.980049835e-08 	5.137901348e-06
0.9777432055 	0.002481181184 	0.0009302952739 	-5.875202683e-08 	0.002610099009 	-1.411318443e-07 	4.975574151e-06
0.9815361564 	0.002325468266 	0.0008712478607 	-6.911605296e-08 	0.002435587743 	-1.820774988e-07 	4.642907176e-06
0.9848940386 	0.00205707706 	0.0007710804913 	-8.2358769e-08 	0.002145346742 	-2.143773469e-07 	4.089627159e-06
0.9878666762 	0.001641917981 	0.0006141301901 	-8.891411554e-08 	0.001705531671 	-2.333078898e-07 	3.251217394e-06
0.9904982048 	0.001116575108 	0.0004158631394 	-7.630113427e-08 	0.00115612283 	-2.10655146e-07 	2.203891443e-06
0.9922078258 	0.0006087637597 	0.0002133873514 	-5.265078474e-08 	0.0006267171119 	-1.448000397e-07 	1.194697002e-06
0.993917638 	0.000231475712 	6.403178594e-05 	-2.119026289e-08 	0.000235334776 	-6.188190056e-08 	4.486134909e-07
0.9956276413 	4.589724994e-05 	7.080897666e-06 	-2.109346433e-09 	4.605022879e-05 	-1.054330171e-08 	8.778453508e-08
0.9973378359 	3.164173599e-06 	1.459887813e-07 	-1.714264959e-11 	3.159998264e-06 	-3.711573492e-10 	6.023834968e-09
0.9990482216 	2.560903166e-08 	1.124524284e-10 	3.056793015e-14 	2.556050038e-08 	3.155436912e-12 	4.872541789e-11
