0.4709558481 	9.101829366e-08 	-3.844783275e-10 	7.70135952e-15 	9.084519356e-08 	-1.654745303e-12 	1.73176188e-10
0.4709558481 	9.101829366e-08 	-3.844783275e-10 	7.70135952e-15 	9.084519356e-08 	-1.654745303e-12 	1.73176188e-10
0.4720092239 	7.480782764e-06 	-2.830452795e-07 	6.398251668e-12 	7.467727148e-06 	-1.364159292e-10 	1.423556349e-08
0.4730625996 	8.753498817e-05 	-1.08013325e-05 	2.624572818e-10 	8.756124373e-05 	-1.612552176e-09 	1.669160669e-07
0.4741159754 	0.0004105810362 	-9.60303988e-05 	2.26894094e-09 	0.0004138307498 	-7.512057752e-09 	7.888764275e-07
0.4751693511 	0.001098109661 	-0.0003591922386 	7.54425153e-09 	0.001119664081 	-1.879171766e-08 	2.134390932e-06
0.4762227269 	0.002121163899 	-0.0007756281841 	1.223089354e-08 	0.002175213153 	-3.097643983e-08 	4.14656084e-06
0.4778443634 	0.003305322202 	-0.001226437662 	1.548698085e-08 	0.003392957936 	-4.156502249e-08 	6.467920851e-06
0.4796765386 	0.004362378571 	-0.001621536481 	1.88961504e-08 	0.004478660234 	-4.907149684e-08 	8.537571185e-06
0.4817465869 	0.005139747735 	-0.001909965559 	1.984236594e-08 	0.005276748762 	-5.079706718e-08 	1.005894974e-05
0.4840853915 	0.005664160142 	-0.002101519595 	1.817807857e-08 	0.005814531344 	-4.648863454e-08 	1.108411281e-05
0.4867278453 	0.005985314938 	-0.002219755077 	1.43751027e-08 	0.006143238968 	-3.56124776e-08 	1.17107209e-05
0.4897133715 	0.006144289292 	-0.002278313758 	8.051301648e-09 	0.006305124308 	-1.754909822e-08 	1.201931935e-05
0.4930865115 	0.006173547499 	-0.002288854717 	-9.231746125e-10 	0.006333556096 	7.867621614e-09 	1.207351824e-05
0.4968975894 	0.006094170283 	-0.002259106642 	-1.292194885e-08 	0.006250196175 	4.16225095e-08 	1.191461106e-05
0.5012034633 	0.005916514177 	-0.002192898517 	-2.888183274e-08 	0.006065687985 	8.630327285e-08 	1.156288717e-05
0.506068373 	0.005613715539 	-0.002080255243 	-5.251739805e-08 	0.005752299778 	1.522527711e-07 	1.096548215e-05
0.5134203412 	0.005127472872 	-0.001899626852 	-8.897177944e-08 	0.005250387914 	2.537787921e-07 	1.000869863e-05
0.5212948542 	0.004475727934 	-0.001657834992 	-1.35585926e-07 	0.004579327456 	3.829845494e-07 	8.729470889e-06
0.529729052 	0.00373345592 	-0.001382854225 	-1.748340557e-07 	0.003817172791 	4.912812939e-07 	7.276592268e-06
0.5387627144 	0.002984060097 	-0.001105597077 	-1.833861665e-07 	0.003049094433 	5.141051204e-07 	5.812421442e-06
0.5484384488 	0.002327601347 	-0.0008586405531 	-1.850819737e-07 	0.002376015861 	4.52307097e-07 	4.529346611e-06
0.5588018907 	0.001815464689 	-0.0006161732686 	-1.811728997e-07 	0.001844847015 	3.404755204e-07 	3.51679116e-06
0.5699019192 	0.001465971171 	-0.0003934747755 	-1.443570825e-07 	0.001478662713 	2.004564125e-07 	2.818742104e-06
0.5817908876 	0.001276953785 	-0.0002313554938 	-1.107404264e-07 	0.001283000351 	7.614773433e-08 	2.445755261e-06
0.5945248701 	0.001207075273 	-0.0001026819649 	-1.016869518e-07 	0.001213815013 	-9.6672277e-09 	2.313868777e-06
0.6081639266 	0.001207259931 	9.17573399e-06 	-1.011105738e-07 	0.001219154967 	-6.930343611e-08 	2.324048215e-06
0.6227723857 	0.001241973721 	0.0001071805203 	-1.001862069e-07 	0.001260905572 	-1.174113503e-07 	2.403636471e-06
0.638419148 	0.00129283885 	0.0001932410329 	-9.416083957e-08 	0.001320246975 	-1.592557116e-07 	2.516757678e-06
0.6551780116 	0.001350901543 	0.0002693851513 	-7.592435481e-08 	0.001388171334 	-1.928627133e-07 	2.646240384e-06
0.6731280194 	0.001411596018 	0.0003400204742 	-1.233338881e-08 	0.001460499666 	-2.01538643e-07 	2.784118288e-06
0.6923538328 	0.001472078904 	0.000389991434 	-1.769913939e-08 	0.001528610361 	-2.043204027e-07 	2.913956204e-06
0.7129461301 	0.001534085724 	0.0004271175383 	-5.986921532e-08 	0.001591378334 	-1.732914612e-07 	3.033609406e-06
0.7350020349 	0.001597047758 	0.0004831329585 	-3.263245352e-08 	0.001656457607 	-9.090351069e-08 	3.157668587e-06
0.7570579485 	0.001654972137 	0.0005461889168 	-2.723743015e-08 	0.001721509745 	-2.43657394e-08 	3.281676044e-06
0.7776502527 	0.001708917192 	0.000592061731 	-8.76627385e-08 	0.001781886579 	-4.33628558e-09 	3.39677107e-06
0.7968760713 	0.001765379324 	0.0006105258615 	-1.577403275e-07 	0.001838295044 	-8.406589132e-09 	3.504301282e-06
0.814826083 	0.001835320894 	0.0006246904778 	-1.619056308e-07 	0.001903332809 	-2.784809736e-10 	3.628281338e-06
0.831584949 	0.001929000998 	0.0006625184535 	-1.117222098e-07 	0.001992377271 	3.33357276e-08 	3.79802483e-06
0.8472317127 	0.002052084235 	0.0007237285857 	-3.315444065e-08 	0.002113852999 	9.741161475e-08 	4.029591332e-06
0.8618401721 	0.0022133572 	0.0008074029561 	4.762849133e-08 	0.002277165985 	1.819722329e-07 	4.340911274e-06
0.8754792281 	0.002422805418 	0.0008985553457 	1.006167731e-07 	0.002489158094 	2.687641811e-07 	4.745027153e-06
0.8882132094 	0.002693680249 	0.0009982311207 	1.288051691e-07 	0.002762356758 	3.500081358e-07 	5.265819739e-06
0.9001021759 	0.003034185313 	0.00112383224 	1.52428463e-07 	0.003107591519 	4.170718997e-07 	5.923933146e-06
0.9112022019 	0.00343369948 	0.001271516331 	1.634797216e-07 	0.00351455207 	4.485007676e-07 	6.699713064e-06
0.9215656407 	0.003863809548 	0.001430804338 	1.583710378e-07 	0.003954510956 	4.350104838e-07 	7.538396981e-06
0.9312413717 	0.004289169673 	0.001588565104 	1.4104587e-07 	0.00439106884 	3.875383499e-07 	8.370597644e-06
0.9402750304 	0.004681787285 	0.001734362559 	1.184561534e-07 	0.004795207183 	3.252815169e-07 	9.140997649e-06
0.9487092242 	0.005021763853 	0.001860753154 	9.503841749e-08 	0.005146046844 	2.605637385e-07 	9.809795555e-06
0.9565837329 	0.005291361573 	0.001961101439 	7.316808289e-08 	0.005424987597 	2.000737847e-07 	1.034153416e-05
0.9639356968 	0.005460935698 	0.002024342947 	5.544652753e-08 	0.005601204851 	1.510770627e-07 	1.067745322e-05
0.9688006083 	0.005531667187 	0.002050853083 	4.308786973e-08 	0.005675515096 	1.169593912e-07 	1.08191092e-05
0.9731064834 	0.005532402794 	0.002051337912 	3.422445351e-08 	0.005677524051 	9.256390812e-08 	1.082293883e-05
0.976917562 	0.005465301342 	0.00202662939 	2.724124683e-08 	0.00560961089 	7.342130091e-08 	1.069347747e-05
0.9802907021 	0.00531800979 	0.001972170691 	2.170785481e-08 	0.005459139459 	5.834426846e-08 	1.04066371e-05
0.9832762282 	0.005069429221 	0.001880229298 	1.730775039e-08 	0.005204479366 	4.648320829e-08 	9.921184182e-06
0.9859186816 	0.004690526262 	0.001740420992 	1.369544407e-08 	0.004815832125 	3.695548532e-08 	9.180314521e-06
0.9882574856 	0.004148048147 	0.00154126244 	1.057414704e-08 	0.004259090712 	2.872361345e-08 	8.119010651e-06
0.990327533 	0.00340859454 	0.001266389109 	7.806900136e-09 	0.003499472304 	2.114380806e-08 	6.67096684e-06
0.9921597073 	0.002473777193 	0.0009175010433 	5.199462121e-09 	0.002539269866 	1.400299639e-08 	4.840554118e-06
0.9937813429 	0.001496290207 	0.0005327750035 	2.389623033e-09 	0.001532041971 	7.545464322e-09 	2.920497805e-06
0.9948347186 	0.000724657261 	0.0002162565484 	4.79526459e-10 	0.0007358003617 	3.075599991e-09 	1.402639995e-06
0.9958880943 	0.000258928967 	5.270367879e-05 	3.534626871e-11 	0.0002602567268 	9.679744048e-10 	4.961216559e-07
0.9969414701 	5.417608706e-05 	5.578487235e-06 	-6.073950901e-12 	5.415156573e-05 	1.883685917e-10 	1.032279349e-07
0.9979948458 	4.610934679e-06 	1.430871635e-07 	-4.013723335e-13 	4.602638979e-06 	1.566460918e-11 	8.773909132e-09
0.9990482216 	6.148422133e-08 	2.120832735e-10 	-9.5424694e-16 	6.136728562e-08 	2.075560236e-13 	1.169831025e-10
0.9990482216 	6.148422133e-08 	2.120832735e-10 	-9.5424694e-16 	6.136728562e-08 	2.075560236e-13 	1.169831025e-10
