0.3673995292 	1.836313649e-07 	-1.378527513e-09 	9.774409703e-13 	1.82481785e-07 	-5.391520804e-11 	3.478610004e-10
0.3673995292 	1.836313649e-07 	-1.378527513e-09 	9.774409703e-13 	1.82481785e-07 	-5.391520804e-11 	3.478610004e-10
0.3684829761 	1.594281171e-05 	-1.030169419e-06 	1.318767443e-09 	1.532733534e-05 	-1.020828179e-08 	2.921816117e-08
0.3695665877 	0.0001937336462 	-3.598927503e-05 	5.027509115e-08 	0.000173831186 	-1.315110643e-07 	3.313705545e-07
0.3706502347 	0.0008723366181 	-0.0002556181089 	2.897133085e-07 	0.0007416915162 	-4.770544156e-07 	1.413870172e-06
0.3717337888 	0.002008892509 	-0.0006595238203 	4.688248181e-07 	0.001677326867 	-6.128612446e-07 	3.197451198e-06
0.3728171224 	0.003283890452 	-0.001133522896 	5.502017211e-07 	0.002712095568 	-4.45564206e-08 	5.170007941e-06
0.3744841553 	0.004263562724 	-0.001575643967 	1.166627489e-07 	0.003462817625 	1.745881202e-06 	6.601092833e-06
0.3763660564 	0.004351298134 	-0.001631074771 	-1.258002188e-06 	0.003528614937 	4.321410362e-06 	6.726520797e-06
0.3784895005 	0.003692042544 	-0.0013168953 	-2.355222669e-06 	0.003047537552 	5.850959385e-06 	5.809453593e-06
0.3808839529 	0.002907718352 	-0.0009987221058 	-2.113686678e-06 	0.00244772002 	4.985717777e-06 	4.666034666e-06
0.3836378911 	0.002316948586 	-0.0007550511128 	-1.746638311e-06 	0.002018358382 	2.280056761e-06 	3.847552049e-06
0.3867652482 	0.001967692259 	-0.0005450692209 	-1.542390054e-06 	0.001844337975 	-7.499878178e-07 	3.515820788e-06
0.390290462 	0.00178860561 	-0.0003690394615 	-1.079005568e-06 	0.001873845561 	-3.132740473e-06 	3.572070449e-06
0.3942632783 	0.001693790856 	-0.0002311119651 	-8.356691288e-07 	0.002017611547 	-4.219237949e-06 	3.846128375e-06
0.3988211095 	0.001627786213 	-0.0001132013419 	-6.196960011e-07 	0.002205932355 	-4.451566092e-06 	4.205120175e-06
0.4039948728 	0.001565026503 	9.546755762e-07 	-5.656874922e-07 	0.002414248617 	-4.081409972e-06 	4.602228869e-06
0.4118367251 	0.001509096245 	0.0001260322835 	-4.026661401e-07 	0.002592389917 	-2.624402921e-06 	4.941815699e-06
0.420339507 	0.00148792691 	0.0002327655573 	-9.761996415e-08 	0.002662551742 	-1.355651169e-06 	5.075563639e-06
0.429540511 	0.001488709579 	0.0002981156787 	1.257781053e-07 	0.00265495562 	-9.376643749e-07 	5.061083319e-06
0.4394675757 	0.001484643406 	0.0003345510399 	2.438426431e-07 	0.002637275625 	-6.880204569e-07 	5.027380334e-06
0.450208819 	0.00147914795 	0.0003533201481 	2.406302764e-07 	0.002622952309 	-5.117143284e-07 	5.000076113e-06
0.4618721886 	0.001475873245 	0.0003658088046 	1.815189479e-07 	0.002616188915 	-3.517647495e-07 	4.987183204e-06
0.4744877587 	0.001475778969 	0.0003779499281 	1.122793131e-07 	0.002615368197 	-2.085204536e-07 	4.985618687e-06
0.488139843 	0.001478888973 	0.0003910154231 	4.301478889e-08 	0.002619471732 	-7.789495558e-08 	4.993441165e-06
0.4975745988 	0.001482680447 	0.0003999175559 	8.179633297e-09 	0.002624717735 	-1.04697731e-06 	5.003441505e-06
0.5028917562 	0.001484809698 	0.0004048844667 	2.200445945e-08 	0.002627567044 	-4.20388201e-08 	5.008873081e-06
0.5188499572 	0.001492998396 	0.0004192466967 	7.899125088e-08 	0.00263864406 	-1.524912766e-07 	5.029988952e-06
0.5361130653 	0.001502837409 	0.0004340106531 	1.292425823e-07 	0.00265153818 	-2.547483173e-07 	5.054568728e-06
0.5547594807 	0.001513759558 	0.0004490216767 	1.711742862e-07 	0.002664911291 	-3.483987252e-07 	5.080061595e-06
0.574931013 	0.001525275123 	0.0004642795425 	2.032920753e-07 	0.002677131837 	-4.325511897e-07 	5.103357352e-06
0.596680164 	0.001536841067 	0.0004799699995 	2.23553231e-07 	0.002685920708 	-5.051265726e-07 	5.120111383e-06
0.6201143357 	0.001547910818 	0.0004960774457 	2.304232617e-07 	0.002688833045 	-5.637608122e-07 	5.125663105e-06
0.645332846 	0.001557595559 	0.0005123269608 	2.235306598e-07 	0.002682771797 	-6.044433383e-07 	5.114108683e-06
0.6724342449 	0.001564453371 	0.0005282520679 	2.045572506e-07 	0.002663920574 	-6.216459522e-07 	5.078173012e-06
0.6995933348 	0.001567573256 	0.0005428669582 	1.777187305e-07 	0.002631236871 	-6.130397609e-07 	5.01586879e-06
0.7249828856 	0.001567865274 	0.0005555580883 	1.490466972e-07 	0.002588088263 	-5.837058234e-07 	4.933615551e-06
0.7487060318 	0.001567019909 	0.0005667638288 	1.224271292e-07 	0.002538092515 	-5.389198046e-07 	4.838309759e-06
0.7708663551 	0.001566544294 	0.0005771520299 	9.924552104e-08 	0.002483969222 	-4.836559513e-07 	4.735135721e-06
0.7915646598 	0.001567824776 	0.0005871250599 	8.002563492e-08 	0.002428703835 	-4.226837939e-07 	4.629784533e-06
0.8108975394 	0.001572042505 	0.0005969340393 	6.492427047e-08 	0.002375282967 	-3.602031301e-07 	4.527949511e-06
0.8289546918 	0.00158020261 	0.0006068365537 	5.37894996e-08 	0.002326367597 	-2.993505043e-07 	4.434703221e-06
0.8458208373 	0.001593302796 	0.0006172030901 	4.630053243e-08 	0.002284205984 	-2.418124311e-07 	4.354331468e-06
0.861574609 	0.001612595411 	0.0006285952454 	4.223959058e-08 	0.002250750634 	-1.882315765e-07 	4.290556271e-06
0.8762895743 	0.001639977672 	0.0006418802931 	4.141020228e-08 	0.002227759267 	-1.386543087e-07 	4.246728336e-06
0.8900342399 	0.001678394651 	0.0006583006204 	4.316725946e-08 	0.00221698293 	-9.279830503e-08 	4.226185643e-06
0.9028724742 	0.001731846425 	0.0006793447534 	4.609510654e-08 	0.002220624013 	-5.04882961e-08 	4.233126558e-06
0.9148639184 	0.001804595654 	0.0007064086268 	4.81582257e-08 	0.002241860783 	-1.287493211e-08 	4.273609745e-06
0.9260642485 	0.00189958417 	0.0007403787406 	4.701944518e-08 	0.002284693582 	1.544274438e-08 	4.355260965e-06
0.9365254628 	0.002016232276 	0.0007811090973 	4.014242125e-08 	0.002351704726 	2.540477988e-08 	4.48300283e-06
0.9462961394 	0.002147583745 	0.000826431385 	2.552555714e-08 	0.002439012435 	7.557264629e-09 	4.64943559e-06
0.9554216696 	0.002268823691 	0.0008679195401 	6.377649532e-09 	0.002525085425 	-3.204653818e-08 	4.813514632e-06
0.9614619036 	0.002358203347 	0.0008979669503 	-9.815206734e-09 	0.002587748013 	-7.184171883e-08 	4.932966941e-06
0.9668091954 	0.002419855965 	0.0009177906271 	-1.795791825e-08 	0.002625489608 	-9.30401016e-08 	5.004912911e-06
0.9715429241 	0.002459153557 	0.0009290963527 	-1.705048511e-08 	0.002640313846 	-8.963416033e-08 	5.033172027e-06
0.9757334019 	0.002472914639 	0.0009307587456 	-7.268904645e-09 	0.00262900494 	-5.980721176e-08 	5.01161411e-06
0.9794429011 	0.002452846794 	0.0009201001031 	8.91333858e-09 	0.002584402438 	-1.171492871e-08 	4.926589344e-06
0.9827265717 	0.002381001394 	0.0008923108003 	3.119290554e-08 	0.002489802385 	3.865048639e-08 	4.746255351e-06
0.9856332522 	0.00222574985 	0.000836449601 	4.245904628e-08 	0.002313754556 	6.613077274e-08 	4.410659259e-06
0.9882061891 	0.001940819728 	0.0007278801122 	2.823502537e-08 	0.00200888263 	5.060941614e-08 	3.829488632e-06
0.9904836754 	0.001497268344 	0.0005576457679 	5.346709483e-09 	0.001545163406 	6.945303847e-09 	2.945510908e-06
0.9924996163 	0.0009721727098 	0.0003611571083 	-7.572202967e-09 	0.001001416237 	-2.328449216e-08 	1.908977677e-06
0.9938092065 	0.0005076922269 	0.0001763036978 	-9.526794948e-09 	0.0005203802863 	-2.490050129e-08 	9.919894579e-07
0.9951188621 	0.0001888730885 	5.023900827e-05 	-4.989277128e-09 	0.0001912331243 	-1.176582184e-08 	3.645434854e-07
0.9964285831 	3.871520938e-05 	5.727118175e-06 	-5.949426336e-10 	3.878483338e-05 	-1.624171673e-09 	7.393467211e-08
0.9977383696 	2.997643729e-06 	1.395887354e-07 	-4.912184608e-12 	2.993058274e-06 	7.499369205e-11 	5.705600948e-09
0.9990482216 	3.15793929e-08 	1.583108972e-10 	2.586699942e-14 	3.151933082e-08 	5.564567114e-12 	6.008460488e-11
0.9990482216 	3.15793929e-08 	1.583108972e-10 	2.586699942e-14 	3.151933082e-08 	5.564567114e-12 	6.008460488e-11
