0.3176601022 	1.353635014e-07 	-1.11720353e-09 	-1.101529859e-12 	1.342086491e-07 	2.753987168e-10 	2.558389865e-10
0.3188608126 	1.304124107e-05 	-9.487875681e-07 	1.453240702e-10 	1.226731594e-05 	1.549069754e-08 	2.33849137e-08
0.3200616632 	0.00016771061 	-3.371787857e-05 	5.743834704e-09 	0.0001418673239 	1.553733499e-07 	2.704385494e-07
0.3212624417 	0.0007484827545 	-0.000218607056 	-2.202236976e-07 	0.0005897785104 	8.239258511e-07 	1.124281761e-06
0.3224629377 	0.001660971213 	-0.0005358018753 	-7.208986972e-07 	0.0012744242 	2.288154925e-06 	2.429406734e-06
0.3236629424 	0.002565985394 	-0.0008780154366 	-1.784506425e-06 	0.001930393417 	4.569437738e-06 	3.679866378e-06
0.3255088723 	0.003014653779 	-0.00107034755 	-3.533513138e-06 	0.002246673779 	6.3585956e-06 	4.282784654e-06
0.327591533 	0.002803552613 	-0.0009717242713 	-3.479465645e-06 	0.002130111916 	5.232769265e-06 	4.060585346e-06
0.3299395659 	0.002399317504 	-0.0007860879794 	-1.577260406e-06 	0.001908431336 	1.68301994e-06 	3.638000548e-06
0.3325842128 	0.002110428296 	-0.0006340264345 	-1.015480459e-06 	0.001821199404 	-1.806866656e-06 	3.471712241e-06
0.3356287836 	0.001924307922 	-0.0004695107204 	-1.12554178e-06 	0.001902853237 	-4.106840877e-06 	3.627367141e-06
0.3390846671 	0.001801136864 	-0.0003194260861 	-7.975327e-07 	0.002091027911 	-5.087119329e-06 	3.98608037e-06
0.3429748198 	0.001707668102 	-0.0002025931695 	-5.782391706e-07 	0.002311616787 	-5.108149258e-06 	4.406584077e-06
0.3473522547 	0.001623895369 	-0.0001027676258 	-5.068474235e-07 	0.002512793946 	-4.172032385e-06 	4.790083655e-06
0.3523763078 	0.001557456249 	-8.075398288e-06 	-4.149164992e-07 	0.002646260015 	-2.606091706e-06 	5.044507079e-06
0.3580735657 	0.001517516526 	7.986998849e-05 	-1.529638242e-07 	0.002687739276 	-1.504120427e-06 	5.123578078e-06
0.3666947432 	0.001487130889 	0.0001484171067 	1.047996129e-07 	0.002668518783 	-8.58098867e-07 	5.086938476e-06
0.3760330498 	0.001456682114 	0.0001881847595 	1.745841338e-07 	0.002629530249 	-4.844113333e-07 	5.012615494e-06
0.3861248366 	0.001432287478 	0.000206504249 	1.093361704e-07 	0.002594977559 	-2.24453457e-07 	4.946748464e-06
0.3969939915 	0.001414861423 	0.0002177654993 	5.145259315e-10 	0.002572205364 	-9.261108373e-10 	4.903338332e-06
0.3970449088 	0.001414810773 	0.0002178118514 	2.897397032e-10 	0.002572151148 	-1.584481257e-08 	4.90323498e-06
0.40862673 	0.001403008111 	0.0002281615789 	1.076722342e-07 	0.002559073371 	-1.9363541e-07 	4.878305103e-06
0.4212554461 	0.001396215298 	0.0002395024357 	2.217586106e-07 	0.002554751118 	-3.70749963e-07 	4.870065686e-06
0.4349065359 	0.001393879025 	0.0002522164707 	3.401778924e-07 	0.002557943116 	-5.335550089e-07 	4.876150522e-06
0.4496703284 	0.001395538871 	0.0002664680856 	4.607210262e-07 	0.002567583121 	-6.857996348e-07 	4.894527052e-06
0.465635286 	0.001400737057 	0.0002822505703 	5.794352979e-07 	0.002582593621 	-8.300639861e-07 	4.923141236e-06
0.4829304922 	0.001409022717 	0.0002994708897 	6.914315621e-07 	0.002601895531 	-9.680340294e-07 	4.959936042e-06
0.5016158678 	0.001419781324 	0.0003179864187 	7.905959942e-07 	0.002624038756 	-1.10013509e-06 	5.002147183e-06
0.5217709233 	0.001432488941 	0.0003376757782 	8.705448535e-07 	0.002647579154 	-1.225980295e-06 	5.047021724e-06
0.5435505126 	0.001446686323 	0.0003586447127 	8.368039626e-07 	0.002670761006 	-1.216877199e-06 	5.091212777e-06
0.5670029 	0.001461855701 	0.0003812850114 	7.20798173e-07 	0.002691047628 	-1.109347939e-06 	5.129884716e-06
0.592242101 	0.001477640549 	0.0004058088148 	6.063787607e-07 	0.002705741371 	-1.019638247e-06 	5.157895075e-06
0.6193729967 	0.001493175109 	0.0004319796705 	4.950516748e-07 	0.002711076613 	-9.445941255e-07 	5.16806553e-06
0.6485002409 	0.001506753034 	0.0004589625483 	3.905440754e-07 	0.00270225485 	-8.796072799e-07 	5.151248797e-06
0.6776651358 	0.001516849575 	0.0004847538381 	2.987254731e-07 	0.002677054921 	-8.251585677e-07 	5.103210728e-06
0.7049135212 	0.001523709858 	0.0005077427484 	2.212886691e-07 	0.002638255213 	-7.77229445e-07 	5.0292477e-06
0.7303637708 	0.001528554022 	0.0005279666417 	1.567813578e-07 	0.002589513986 	-7.27873917e-07 	4.936333375e-06
0.7541322613 	0.00153271025 	0.0005460295318 	1.03455015e-07 	0.002533855113 	-6.725905787e-07 	4.830232095e-06
0.7763305871 	0.001537580816 	0.0005623483014 	6.033631287e-08 	0.002474749473 	-6.095259009e-07 	4.717560316e-06
0.7970645851 	0.001544380918 	0.0005771847706 	2.732412305e-08 	0.002415815667 	-5.39528866e-07 	4.605216103e-06
0.8164316561 	0.001554155283 	0.000590853328 	4.251319069e-09 	0.002360368832 	-4.655714919e-07 	4.499519025e-06
0.8345233061 	0.001567914923 	0.0006038371402 	-9.661964468e-09 	0.002311093192 	-3.900885859e-07 	4.405585959e-06
0.8514240754 	0.00158676348 	0.0006167717429 	-1.515327713e-08 	0.002270136764 	-3.139038521e-07 	4.327511624e-06
0.8672128418 	0.001612200699 	0.0006305088029 	-1.197716218e-08 	0.002239302865 	-2.36771956e-07 	4.268733644e-06
0.8819628947 	0.001646781531 	0.0006463137049 	3.636565404e-10 	0.002220255946 	-1.571742112e-07 	4.232424922e-06
0.8957424737 	0.001694615987 	0.0006659032802 	2.117718721e-08 	0.002215024786 	-7.190742671e-08 	4.222452876e-06
0.9086152595 	0.001760975223 	0.0006911654674 	4.776034134e-08 	0.002226882724 	2.131478286e-08 	4.245057402e-06
0.9206406786 	0.001850922429 	0.0007237428575 	7.482454547e-08 	0.002260978455 	1.173011842e-07 	4.310053342e-06
0.9318742292 	0.001967135343 	0.0007645789587 	9.329312101e-08 	0.002322998758 	1.940309043e-07 	4.428281277e-06
0.942367767 	0.002106472841 	0.0008129000531 	8.908981714e-08 	0.002413984831 	2.069928607e-07 	4.601726021e-06
0.952169758 	0.002244374052 	0.0008605464436 	5.245910401e-08 	0.00251440862 	1.194248471e-07 	4.793161674e-06
0.9586584556 	0.002352399271 	0.0008975937411 	-3.855565255e-09 	0.002595780128 	-3.556326961e-08 	4.948278384e-06
0.9644032374 	0.002428747982 	0.000923104104 	-5.954723626e-08 	0.002649856499 	-1.982793352e-07 	5.051362977e-06
0.9694892196 	0.002476011283 	0.0009377127409 	-1.015087271e-07 	0.002674978575 	-3.292505291e-07 	5.099252636e-06
0.9739918181 	0.002489271328 	0.0009394875647 	-1.197261688e-07 	0.002664834131 	-3.949987575e-07 	5.079914505e-06
0.9779778424 	0.002461792897 	0.000926004429 	-1.12970383e-07 	0.002612573119 	-3.861549462e-07 	4.980290493e-06
0.9815064743 	0.002380040606 	0.0008928939547 	-8.587701494e-08 	0.002505552642 	-3.233670531e-07 	4.776279717e-06
0.9846301336 	0.002219558546 	0.0008334827949 	-6.184823334e-08 	0.002320375479 	-2.584347706e-07 	4.423280578e-06
0.9873952463 	0.001940837003 	0.0007277271269 	-6.886790704e-08 	0.002017639881 	-2.500155562e-07 	3.846182386e-06
0.9898429272 	0.001511463642 	0.0005634125874 	-9.474373603e-08 	0.001564630601 	-2.898932542e-07 	2.982620791e-06
0.9920095855 	0.0009939062423 	0.0003695779786 	-9.806280851e-08 	0.001025981985 	-2.828193896e-07 	1.95580682e-06
0.9934171184 	0.0005246919397 	0.0001826798041 	-6.452119716e-08 	0.000538644819 	-1.904469387e-07 	1.026806734e-06
0.9948247484 	0.0001962042986 	5.2762403e-05 	-2.238937268e-08 	0.0001989024616 	-7.619664432e-08 	3.791633739e-07
0.9962324756 	3.987466676e-05 	6.000664981e-06 	-2.239576949e-09 	3.996595062e-05 	-1.205941096e-08 	7.618620984e-08
0.9976403 	2.994209581e-06 	1.411153955e-07 	-7.246354916e-12 	2.989864874e-06 	-1.34172827e-10 	5.699513441e-09
0.9990482216 	2.939420971e-08 	1.455090443e-10 	1.09372258e-13 	2.9338346e-08 	1.576177593e-11 	5.592704164e-11
0.9990482216 	2.939420971e-08 	1.455090443e-10 	1.09372258e-13 	2.9338346e-08 	1.576177593e-11 	5.592704164e-11
