0.4641652576 	8.495879113e-08 	-3.523339991e-10 	2.316897161e-13 	8.483844383e-08 	-2.564458983e-11 	1.617256536e-10
0.4651990941 	6.886202125e-06 	-2.546867327e-07 	1.29241963e-10 	6.903667175e-06 	-1.666970901e-09 	1.316030841e-08
0.4662329504 	7.965210322e-05 	-9.647558712e-06 	3.856989837e-09 	8.077799717e-05 	-1.579940129e-08 	1.539853137e-07
0.467266816 	0.0003717855157 	-8.634561968e-05 	2.608082354e-08 	0.0003845026312 	-5.327089428e-08 	7.32968882e-07
0.4683006803 	0.0009980485788 	-0.0003281599521 	7.026567025e-08 	0.001054891579 	-7.615570316e-08 	2.010916541e-06
0.4693345329 	0.001949969166 	-0.0007231580085 	9.794057203e-08 	0.002082029086 	-2.523046876e-08 	3.968926108e-06
0.4709260673 	0.003077520787 	-0.001161821609 	9.067952465e-08 	0.003290446234 	1.113258355e-07 	6.272505055e-06
0.4727241214 	0.004100348521 	-0.001552425111 	5.78676525e-08 	0.004382769553 	2.913443972e-07 	8.354776896e-06
0.4747554116 	0.004859816231 	-0.001838923527 	2.913525553e-08 	0.005191600397 	4.454144328e-07 	9.896633288e-06
0.4770589516 	0.005376338785 	-0.002028406566 	1.876985585e-08 	0.005738718341 	5.426797764e-07 	1.093959215e-05
0.4796634245 	0.005698583789 	-0.002147995315 	1.258820521e-08 	0.006077598658 	5.869974539e-07 	1.158559222e-05
0.4826056984 	0.005868966854 	-0.002211081441 	1.258161337e-08 	0.006253426464 	5.885576685e-07 	1.192076889e-05
0.4859295513 	0.005922733016 	-0.002230276025 	1.349385592e-08 	0.006303791025 	5.703620553e-07 	1.201677774e-05
0.4896996368 	0.005882611561 	-0.00221398576 	1.086339625e-08 	0.006253027311 	5.487703503e-07 	1.192000799e-05
0.4939594095 	0.00575959744 	-0.002166323154 	1.747435202e-09 	0.006112705679 	5.329811899e-07 	1.165251596e-05
0.4987781099 	0.005534707403 	-0.002080068115 	-2.129790356e-08 	0.005862019331 	5.411317777e-07 	1.117463811e-05
0.5060766604 	0.005158984968 	-0.00193685525 	-7.263742039e-08 	0.005449751548 	6.155137635e-07 	1.038874113e-05
0.5139128031 	0.004638765015 	-0.001739437798 	-1.539375449e-07 	0.004885134091 	7.669179602e-07 	9.31242333e-06
0.5223216845 	0.004016930731 	-0.001504187551 	-2.33228266e-07 	0.004215001671 	9.100017109e-07 	8.034964683e-06
0.5313471393 	0.00333610873 	-0.001247079471 	-2.564646118e-07 	0.003483680846 	8.847879953e-07 	6.640863932e-06
0.5410351781 	0.002677837033 	-0.0009979951344 	-2.036402276e-07 	0.002776151784 	6.353276169e-07 	5.292116892e-06
0.5514342349 	0.002107726283 	-0.0007368934027 	-6.948259527e-08 	0.002154399172 	3.180223842e-07 	4.106883605e-06
0.5625954391 	0.001663056669 	-0.0004788968966 	4.357299675e-08 	0.001660956786 	1.506281134e-07 	3.166245274e-06
0.5745729139 	0.001371406895 	-0.0002761390871 	1.523236578e-08 	0.001331882147 	9.324900905e-08 	2.538937549e-06
0.5874240993 	0.001226425105 	-0.0001179582055 	-7.265844265e-08 	0.001153635843 	-1.212928755e-07 	2.199150553e-06
0.6012101002 	0.001191922175 	1.475064339e-05 	-6.057678183e-08 	0.001084424959 	-4.70851124e-07 	2.067215372e-06
0.6159964431 	0.001222795917 	0.0001288986259 	1.023752498e-07 	0.001081221365 	-7.038164388e-07 	2.061108431e-06
0.6318568963 	0.00128299384 	0.0002203455218 	2.120544475e-07 	0.001113912032 	-7.898953136e-07 	2.123425929e-06
0.6488617476 	0.001350970924 	0.0002895668474 	4.554435525e-08 	0.001164102817 	-8.980024962e-07 	2.219103515e-06
0.6670934663 	0.001409788912 	0.0003246219135 	-2.928686403e-07 	0.001224797709 	-1.093607767e-06 	2.334804848e-06
0.6866360874 	0.001453269 	0.000305337763 	-4.850734164e-07 	0.001292322487 	-1.342121144e-06 	2.463525842e-06
0.7075804079 	0.001525080527 	0.0002793738538 	-4.350373385e-07 	0.001374489732 	-1.308139779e-06 	2.620159448e-06
0.7300239977 	0.001638518039 	0.0003364646298 	-2.488151458e-07 	0.001463297195 	-8.046903728e-07 	2.789451157e-06
0.7524754674 	0.001739451018 	0.000473362467 	-1.336355811e-07 	0.00153209995 	-4.840166453e-07 	2.920608329e-06
0.7734422652 	0.001787585437 	0.0005196819262 	-2.85482714e-07 	0.001597471189 	-3.910848445e-07 	3.04522408e-06
0.7930211359 	0.00183713932 	0.0004843115328 	-4.369625019e-07 	0.001686285069 	-2.762664461e-07 	3.214528021e-06
0.8113031807 	0.001946345542 	0.0005176935336 	-3.270430783e-07 	0.001803083081 	-2.410862374e-07 	3.437177494e-06
0.8283739048 	0.002094427553 	0.0006129231824 	-9.065824892e-08 	0.001950786812 	-1.881298297e-07 	3.718741857e-06
0.844313407 	0.002271951094 	0.0007368171067 	1.025747002e-07 	0.00213553738 	-8.808787024e-08 	4.070927789e-06
0.8591964582 	0.002485255014 	0.0008626380517 	1.546449899e-07 	0.002365908191 	3.974991084e-08 	4.510078583e-06
0.8730930293 	0.002747152302 	0.0009796020226 	1.588968585e-07 	0.002650101914 	1.879173805e-07 	5.051830805e-06
0.8860684419 	0.003073243335 	0.001104988769 	2.08190158e-07 	0.002996759465 	3.25299905e-07 	5.712656447e-06
0.8981837067 	0.003460799698 	0.001251507566 	2.350988333e-07 	0.003401279669 	4.013430118e-07 	6.483784385e-06
0.9094958036 	0.003881533335 	0.001409349603 	2.364275774e-07 	0.003836919778 	4.065679531e-07 	7.314235513e-06
0.9200579402 	0.004299375715 	0.001565808262 	2.17584936e-07 	0.004269301621 	3.567339152e-07 	8.138475481e-06
0.9299198015 	0.00468755627 	0.001711331047 	1.895149562e-07 	0.004672481564 	2.835386819e-07 	8.907048509e-06
0.9391277838 	0.005030329361 	0.001840249428 	1.610973388e-07 	0.0050309897 	2.123789974e-07 	9.590464659e-06
0.9477252122 	0.005316283061 	0.001948396163 	1.37861941e-07 	0.005333333502 	1.59270354e-07 	1.016681598e-05
0.9557525438 	0.005533681883 	0.00203140803 	1.225468234e-07 	0.005567328714 	1.320623738e-07 	1.061287589e-05
0.9632475577 	0.005659598477 	0.002080507691 	1.157360491e-07 	0.005708062069 	1.306591951e-07 	1.088115278e-05
0.968207324 	0.00569870032 	0.002097171838 	1.148450043e-07 	0.005759006668 	1.452841089e-07 	1.097826734e-05
0.9725972846 	0.005674996853 	0.002090431678 	1.152225188e-07 	0.005745295978 	1.642513344e-07 	1.095213096e-05
0.9764828888 	0.005585309465 	0.002059227641 	1.115163442e-07 	0.0056641148 	1.731944934e-07 	1.079737707e-05
0.9799220711 	0.005414310494 	0.001997890178 	9.847937938e-08 	0.005499601566 	1.571931325e-07 	1.048376912e-05
0.9829661133 	0.005137957126 	0.001897611179 	7.185012036e-08 	0.005227015289 	1.03883303e-07 	9.964143915e-06
0.9856604081 	0.004726098589 	0.001747600679 	3.171815628e-08 	0.004815168952 	1.276030092e-08 	9.179050329e-06
0.9880451351 	0.00414855003 	0.001537944292 	-1.13030968e-08 	0.00423266012 	-9.509351512e-08 	8.068626596e-06
0.9901558588 	0.003377836346 	0.001252882533 	-5.242019203e-08 	0.00345022022 	-1.886833011e-07 	6.577078679e-06
0.9920240589 	0.002424409773 	0.0008975618842 	-7.707132905e-08 	0.00247865413 	-2.315802955e-07 	4.725003679e-06
0.9936775992 	0.001446147456 	0.0005103653783 	-8.72664796e-08 	0.001475740522 	-2.131995817e-07 	2.813171596e-06
0.9947517089 	0.0006891454182 	0.0001995242324 	-6.59794503e-08 	0.000697619198 	-1.442322228e-07 	1.329856085e-06
0.995825826 	0.0002430953908 	4.705927241e-05 	-2.196175779e-08 	0.0002439071239 	-6.149018118e-08 	4.649547687e-07
0.9968999504 	5.039729122e-05 	4.803061929e-06 	-2.985709012e-09 	5.03431798e-05 	-1.437235899e-08 	9.596809286e-08
0.9979740823 	4.247471237e-06 	1.1824534e-07 	-9.494320719e-11 	4.239428136e-06 	-1.39514538e-09 	8.081528315e-09
0.9990482216 	5.482342914e-08 	1.635576382e-10 	-1.737460043e-13 	5.471894274e-08 	-2.323249283e-11 	1.043095132e-10
