0.3440231802 	6.366124327e-09 	5.642721615e-12 	-3.58743913e-15 	6.347673416e-09 	-3.970332446e-12 	1.210042978e-11
0.3453619003 	6.500481776e-07 	4.323298312e-09 	4.262532055e-12 	6.43865781e-07 	-1.345501944e-10 	1.227387132e-09
0.346700708 	8.369062576e-06 	1.347367889e-07 	4.33425551e-10 	8.191152312e-06 	-6.90171954e-10 	1.561461292e-08
0.348039379 	4.288205427e-05 	8.229747175e-07 	7.005576935e-09 	4.166714729e-05 	-5.085322987e-09 	7.942916351e-08
0.3493776909 	0.0001343060628 	5.716935351e-07 	4.816298935e-08 	0.0001316692937 	-3.697349818e-08 	2.509982694e-07
0.3507154234 	0.0003352411455 	-1.71172407e-05 	2.322853041e-07 	0.0003433128675 	-1.971670215e-07 	6.544497443e-07
0.3527731822 	0.0007219973504 	-0.0001134126863 	7.403269659e-07 	0.000803496777 	-7.369614698e-07 	1.531688177e-06
0.3550948411 	0.001277309723 	-0.0003424207318 	1.491777363e-06 	0.001536927857 	-1.685949197e-06 	2.929811663e-06
0.3577124116 	0.001932663345 	-0.0006550883551 	1.97553002e-06 	0.002422881189 	-2.656579501e-06 	4.618684951e-06
0.3606824659 	0.002685882826 	-0.001005444399 	2.12894559e-06 	0.003411029953 	-3.603569155e-06 	6.502371136e-06
0.3640355815 	0.003549579321 	-0.001378522677 	2.189454974e-06 	0.004498908602 	-4.528110736e-06 	8.576170202e-06
0.3678149006 	0.004516756151 	-0.001771974642 	2.040143442e-06 	0.005676061324 	-4.982738819e-06 	1.082015046e-05
0.3720736319 	0.005552261289 	-0.002195033514 	1.860144786e-06 	0.006910281712 	-4.699324028e-06 	1.317291756e-05
0.3769056112 	0.006581472957 	-0.002627565474 	1.565810638e-06 	0.008108221791 	-3.298828306e-06 	1.54565243e-05
0.3823489685 	0.007487489233 	-0.00304458883 	8.685313083e-07 	0.009138444171 	-6.711271358e-07 	1.742041449e-05
0.3884922639 	0.008152668429 	-0.00341674148 	-2.864414085e-07 	0.009845907279 	2.962001603e-06 	1.87690358e-05
0.3977735322 	0.008222484825 	-0.003596380651 	-1.62407769e-06 	0.009802510065 	6.123634918e-06 	1.868630865e-05
0.4077064413 	0.007454065023 	-0.003415427177 	-2.164473043e-06 	0.008754638117 	6.378096872e-06 	1.668877348e-05
0.4183256322 	0.006170090477 	-0.002926436275 	-1.25008327e-06 	0.00711643458 	3.111739581e-06 	1.356590222e-05
0.4261058455 	0.005286860934 	-0.002483503943 	9.168966555e-06 	0.006005755163 	-2.292142757e-05 	1.144863855e-05
0.4296566751 	0.004899826455 	-0.002287323951 	-2.236176222e-07 	0.005518843619 	3.316893361e-07 	1.052044982e-05
0.441725473 	0.004034534872 	-0.001765967364 	-4.205236925e-07 	0.00443039296 	4.194058703e-07 	8.445560345e-06
0.4546437824 	0.003582153485 	-0.001465700005 	-4.157184735e-07 	0.003850565721 	6.606434057e-07 	7.340248473e-06
0.4684694852 	0.003253456143 	-0.001274713889 	-7.706574936e-07 	0.003427213103 	2.221579136e-06 	6.533220718e-06
0.483263504 	0.002758916901 	-0.001071168994 	-1.492590702e-06 	0.002848762915 	4.097422948e-06 	5.430533889e-06
0.4990904661 	0.002020537866 	-0.0007618559383 	-1.759682817e-06 	0.00202846421 	3.806084493e-06 	3.866816567e-06
0.5160194649 	0.001395658211 	-0.0003964586841 	-8.39902138e-07 	0.001272063512 	1.096129159e-06 	2.424906605e-06
0.534125736 	0.001233398855 	-0.0001912150116 	1.635363151e-08 	0.000984400071 	-1.497326547e-07 	1.876540135e-06
0.5534985534 	0.001294299052 	-0.0001366179842 	-1.003998948e-07 	0.0009717339129 	6.708133783e-07 	1.852394917e-06
0.5742165405 	0.001372435062 	-9.091867299e-05 	-4.854047241e-07 	0.0009657293482 	1.231933454e-06 	1.840948548e-06
0.5963809076 	0.001426202522 	-9.83356832e-05 	-8.867136438e-07 	0.0009973830861 	1.537921969e-06 	1.90128937e-06
0.6200931186 	0.00133518464 	-0.0001799514614 	-1.082450849e-06 	0.001011042208 	1.240541416e-06 	1.927327453e-06
0.6454657031 	0.001334115139 	-9.585941744e-05 	-3.83158691e-07 	0.001053764096 	-1.971973417e-07 	2.008767245e-06
0.6726223762 	0.001562059927 	0.0001971159007 	4.947783784e-07 	0.001170722327 	-9.387934405e-07 	2.231722141e-06
0.6997690552 	0.001678090735 	0.0002085468513 	4.230073225e-07 	0.001281138067 	-5.364501523e-07 	2.44220523e-06
0.7251139532 	0.001726342479 	4.766119275e-05 	-1.671483854e-09 	0.001393712017 	2.875805721e-08 	2.656802466e-06
0.7487832758 	0.001845880702 	0.0001428724383 	-2.329113003e-08 	0.001485322939 	1.824349202e-07 	2.831438346e-06
0.7708923052 	0.001994760912 	0.0003556936258 	-3.047008403e-08 	0.00159334658 	6.958302252e-08 	3.03736143e-06
0.7915468462 	0.002168287731 	0.0005436504246 	-4.000384326e-08 	0.001744098319 	-3.592731153e-08 	3.324736143e-06
0.8108444999 	0.002361969617 	0.0006927378609 	-3.850071402e-08 	0.001937392088 	-7.411904463e-08 	3.69320779e-06
0.8288752071 	0.002584348936 	0.000824170572 	-3.559288416e-08 	0.002185497218 	-8.635362645e-08 	4.166165125e-06
0.8457226162 	0.002854304242 	0.0009525465483 	-3.47111519e-08 	0.002499961139 	-9.140032806e-08 	4.765620759e-06
0.8614643852 	0.003194392661 	0.001093999991 	-3.288818181e-08 	0.002884599546 	-8.711701668e-08 	5.498848467e-06
0.8761728768 	0.003605452812 	0.001256310614 	-2.672278157e-08 	0.003329173737 	-7.08449296e-08 	6.346330439e-06
0.8899155937 	0.00405613811 	0.001429578805 	-1.765266638e-08 	0.003804543606 	-4.676552457e-08 	7.252517531e-06
0.9027555604 	0.004506158306 	0.001600890581 	-8.464004555e-09 	0.004275860562 	-2.234734332e-08 	8.150978644e-06
0.9147516662 	0.004929202558 	0.001761683021 	-1.499350036e-09 	0.004720572854 	-3.750750317e-09 	8.998723875e-06
0.9259589634 	0.005314371693 	0.001908550819 	2.214600583e-09 	0.005129540115 	6.180965521e-09 	9.778329141e-06
0.9364289334 	0.005656454688 	0.002039894906 	2.018194335e-09 	0.005498252541 	5.542744801e-09 	1.04811975e-05
0.9418620584 	0.005817328097 	0.00210239884 	1.749840067e-06 	0.00567568777 	5.026244667e-06 	1.081943837e-05
0.9462086608 	0.005946108203 	0.002152430269 	2.889480421e-09 	0.005817711402 	7.845235472e-09 	1.109017488e-05
0.9553436498 	0.006145395438 	0.002231728941 	1.313656344e-08 	0.006047336825 	3.577364774e-08 	1.152790476e-05
0.961391458 	0.00623498163 	0.002270132736 	2.305592349e-08 	0.006164838298 	6.300428917e-08 	1.175189522e-05
0.9667463238 	0.006227316304 	0.002272520275 	3.14381439e-08 	0.006183947723 	8.627368318e-08 	1.17883231e-05
0.971487438 	0.006113467557 	0.00223586154 	3.661843149e-08 	0.006096719347 	1.009712763e-07 	1.162204157e-05
0.9756849854 	0.005876361544 	0.002153699509 	3.814920902e-08 	0.005884858276 	1.057460223e-07 	1.121817549e-05
0.9794011587 	0.005504064675 	0.002021397509 	3.740354609e-08 	0.005534784879 	1.042144347e-07 	1.055083829e-05
0.9826910629 	0.004986946783 	0.001835138845 	3.720538363e-08 	0.005034972944 	1.04107929e-07 	9.59805783e-06
0.9856035161 	0.004318021149 	0.001592140521 	3.99644498e-08 	0.004376410402 	1.123331282e-07 	8.342654587e-06
0.9881817623 	0.003495104701 	0.001290820382 	4.627987264e-08 	0.003553518793 	1.29163743e-07 	6.773994469e-06
0.9904641044 	0.002529997589 	0.0009353604495 	5.218713698e-08 	0.002578397643 	1.443458115e-07 	4.915142536e-06
0.9924844658 	0.001533605682 	0.000531163014 	4.968941573e-08 	0.001560724757 	1.348975677e-07 	2.975175168e-06
0.993796989 	0.0007356188454 	0.0001994849093 	3.075312595e-08 	0.0007425339874 	8.912477236e-08 	1.415476157e-06
0.9951096262 	0.0002568202384 	4.499061245e-05 	9.019541525e-09 	0.0002573202353 	3.579033988e-08 	4.90523887e-07
0.9964223774 	5.13055182e-05 	4.091472281e-06 	8.511916521e-10 	5.122762929e-05 	6.863578343e-09 	9.765409941e-08
0.9977352425 	3.969137099e-06 	8.115906662e-08 	1.247788205e-11 	3.961499183e-06 	3.987090512e-10 	7.551718484e-09
0.9990482216 	4.21020761e-08 	7.589220693e-11 	1.409493338e-15 	4.20217496e-08 	8.008621274e-13 	8.010513407e-11
0.9990482216 	4.21020761e-08 	7.589220693e-11 	1.409493338e-15 	4.20217496e-08 	8.008621274e-13 	8.010513407e-11
