/*--------------------------------*- C++ -*----------------------------------*\
  =========                 |
  \\      /  F ield         | OpenFOAM: The Open Source CFD Toolbox
   \\    /   O peration     | Website:  https://openfoam.org
    \\  /    A nd           | Version:  7
     \\/     M anipulation  |
\*---------------------------------------------------------------------------*/
FoamFile
{
    version     2.0;
    format      ascii;
    class       volVectorField;
    location    "2000";
    object      U;
}
// * * * * * * * * * * * * * * * * * * * * * * * * * * * * * * * * * * * * * //

dimensions      [0 1 -1 0 0 0 0];

internalField   nonuniform List<vector> 
15296
(
(2.6702841 3.0602284e-07 8.2925353e-17)
(2.670584 -9.3919992e-07 -5.2598095e-17)
(2.6706155 7.3619302e-08 2.4936152e-17)
(2.6705685 3.0082747e-07 -1.2526836e-16)
(2.6705254 4.1211113e-07 9.7413993e-17)
(2.6704427 7.0621643e-07 1.1175851e-16)
(2.6702974 1.0716212e-06 4.476733e-17)
(2.6700852 1.4551659e-06 -2.3559859e-18)
(2.6698017 1.8477333e-06 -8.3073475e-17)
(2.6694455 2.227995e-06 4.9964876e-17)
(2.6690198 2.5755338e-06 -5.8396712e-17)
(2.6685312 2.8808611e-06 -4.7764771e-19)
(2.6679868 3.1423701e-06 -5.948292e-17)
(2.6673941 3.3634023e-06 1.2028172e-16)
(2.6667596 3.5511369e-06 -6.1841643e-17)
(2.6660881 3.7156841e-06 3.8379857e-17)
(2.6653823 3.8696306e-06 -2.4375011e-17)
(2.6646423 4.028295e-06 5.1869369e-18)
(2.6638646 4.2104676e-06 -8.6655823e-17)
(2.6630419 4.439722e-06 -6.2064905e-17)
(2.6621612 4.7467778e-06 -9.8337026e-17)
(2.661202 5.1732813e-06 1.5315086e-17)
(2.6601335 5.7777133e-06 6.4294987e-17)
(2.6589095 6.6437663e-06 -1.0535461e-16)
(2.6574621 7.8941731e-06 -7.0726014e-17)
(2.6556905 9.7093206e-06 -1.1668818e-16)
(2.6534452 1.2364389e-05 -3.0164019e-17)
(2.6505004 1.6271098e-05 3.1632116e-17)
(2.6465176 2.2099458e-05 2.10614e-17)
(2.6409622 3.0861866e-05 8.2451683e-17)
(2.6330212 4.4423188e-05 -2.8966056e-17)
(2.6212905 6.5612043e-05 5.6982824e-17)
(2.6036016 0.00010083295 1.8780738e-16)
(2.5755299 0.00015745868 1.4109247e-16)
(2.5304277 0.00026291468 -1.6602409e-16)
(2.4459154 0.00044736829 7.1155218e-17)
(2.2828657 0.00074316926 7.3842947e-16)
(1.9042868 0.00025518516 -9.9550211e-15)
(2.6702777 1.0119537e-06 2.3599215e-17)
(2.6705755 -2.6188483e-06 -1.193799e-16)
(2.6706071 1.2838407e-07 1.299324e-16)
(2.6705601 7.301058e-07 -2.5878034e-16)
(2.6705169 1.009501e-06 2.3042398e-17)
(2.6704343 1.7997528e-06 1.1412582e-16)
(2.6702894 2.7916125e-06 1.9596267e-16)
(2.6700776 3.8371357e-06 3.6107323e-17)
(2.6697947 4.9116412e-06 -1.742057e-16)
(2.6694392 5.9556944e-06 -1.1408818e-16)
(2.6690145 6.9119773e-06 -1.8877498e-16)
(2.6685268 7.7536678e-06 1.2194204e-17)
(2.6679834 8.4756933e-06 -1.3917528e-17)
(2.6673917 9.08654e-06 1.824396e-16)
(2.6667582 9.6056063e-06 -1.5596903e-16)
(2.6660876 1.006102e-05 6.3052085e-17)
(2.6653826 1.0488306e-05 -9.4333712e-17)
(2.6646433 1.0930861e-05 -2.231807e-16)
(2.6638664 1.1441948e-05 -1.3046037e-16)
(2.6630445 1.2088578e-05 -1.1942448e-16)
(2.6621647 1.2958495e-05 -1.1547159e-16)
(2.6612066 1.4171175e-05 1.46069e-16)
(2.6601395 1.5894859e-05 8.2900324e-17)
(2.6589175 1.8370839e-05 -1.2156585e-16)
(2.6574731 2.1953431e-05 -1.8714528e-16)
(2.6557057 2.716452e-05 -2.3804967e-16)
(2.653467 3.4800801e-05 -7.1905014e-17)
(2.6505323 4.6058722e-05 1.7814822e-16)
(2.6465652 6.2883926e-05 7.1897099e-17)
(2.6410347 8.8238817e-05 2.4397235e-17)
(2.6331344 0.00012755206 -1.2729107e-17)
(2.6214713 0.00018918785 1.7271201e-16)
(2.6039023 0.00029184695 -1.1134757e-17)
(2.5760409 0.00046244584 -2.0386948e-16)
(2.5313637 0.00080707888 -4.4149639e-16)
(2.4477511 0.0015100851 1.8246804e-16)
(2.2871532 0.0032309008 6.9554788e-16)
(1.9111789 -0.0025692137 -1.2082221e-14)
(2.6702629 2.1209649e-06 -3.445974e-17)
(2.670557 -4.0737329e-06 7.7429552e-18)
(2.6705888 1.8167303e-07 2.3763889e-17)
(2.6705419 1.1278863e-06 -3.8493992e-16)
(2.6704989 1.5646206e-06 1.0933185e-16)
(2.6704166 2.8023028e-06 1.0899828e-17)
(2.670272 4.357696e-06 1.2078802e-16)
(2.6700608 5.9982022e-06 -3.9454835e-17)
(2.6697787 7.6850076e-06 -2.5344743e-16)
(2.6694241 9.325034e-06 -1.9259837e-16)
(2.6690004 1.0828241e-05 -1.0790741e-16)
(2.6685139 1.2152271e-05 -1.3157317e-16)
(2.6679717 1.3288846e-05 -5.9121494e-17)
(2.6673812 1.4250965e-05 1.0634779e-16)
(2.6667487 1.5068903e-05 -9.9565985e-17)
(2.6660792 1.578685e-05 8.9724657e-18)
(2.6653753 1.6460675e-05 -3.1302006e-16)
(2.664637 1.7158504e-05 -4.3618118e-16)
(2.663861 1.7963861e-05 -2.1767807e-16)
(2.66304 1.8981903e-05 -3.1620107e-16)
(2.6621612 2.035048e-05 -1.8657318e-16)
(2.6612044 2.2257395e-05 2.596799e-16)
(2.6601389 2.496708e-05 8.9069472e-17)
(2.6589191 2.8858637e-05 -1.5895572e-16)
(2.6574778 3.4488473e-05 -2.1028585e-16)
(2.655715 4.2675581e-05 -2.736396e-16)
(2.653483 5.4669376e-05 -1.2992553e-16)
(2.6505585 7.2343953e-05 2.108441e-16)
(2.6466072 9.8744289e-05 1.1663347e-16)
(2.6411012 0.00013849531 7.2383494e-17)
(2.63324 0.00020006466 -4.0933672e-17)
(2.6216398 0.0002964364 1.6704039e-16)
(2.6041774 0.00045673169 -4.9534044e-17)
(2.576497 0.00072272774 -1.6819992e-16)
(2.5322031 0.0012640796 -6.5477387e-16)
(2.4493834 0.0023735584 5.3976742e-17)
(2.291175 0.0052519218 1.8435401e-15)
(1.9168718 -0.001780422 -7.2801238e-15)
(2.6702395 3.5069184e-06 -5.1019934e-17)
(2.6705293 -5.608591e-06 -9.6117402e-17)
(2.6705611 2.5344037e-07 4.7764584e-17)
(2.6705143 1.5716721e-06 -3.3970785e-16)
(2.6704716 2.178863e-06 4.6103791e-17)
(2.6703897 3.8994156e-06 7.6143883e-17)
(2.6702457 6.0626525e-06 4.7411699e-17)
(2.6700352 8.3446503e-06 7.1398847e-18)
(2.6697539 1.069157e-05 -1.7402767e-16)
(2.6694004 1.2974323e-05 -1.8727182e-16)
(2.6689779 1.5067583e-05 -8.9576939e-19)
(2.6684927 1.6912131e-05 -1.2771704e-16)
(2.6679519 1.8496227e-05 -7.2216603e-17)
(2.6673628 1.9837833e-05 1.7830366e-16)
(2.6667317 2.097901e-05 -6.8821612e-17)
(2.6660635 2.1981182e-05 -8.61203e-17)
(2.6653608 2.2921913e-05 -3.7178069e-16)
(2.6646236 2.3895631e-05 -5.3895089e-16)
(2.6638487 2.501807e-05 -2.022142e-16)
(2.6630289 2.6435066e-05 -4.1810202e-16)
(2.6621513 2.8337965e-05 -1.7319899e-16)
(2.6611958 3.0987506e-05 2.8483346e-16)
(2.6601321 3.4750743e-05 -2.0822155e-17)
(2.6589146 4.0153683e-05 -1.1280014e-16)
(2.6574765 4.7968103e-05 -2.2449806e-16)
(2.6557185 5.9329471e-05 -3.3829777e-16)
(2.6534935 7.596972e-05 -8.821767e-17)
(2.6505795 0.00010048486 2.0701313e-16)
(2.6466443 0.00013709364 1.332595e-16)
(2.6411632 0.00019219368 1.5777528e-16)
(2.6333421 0.00027750926 5.4172807e-17)
(2.6218068 0.00041095371 9.0275932e-17)
(2.6044558 0.00063282919 -3.2809877e-17)
(2.5769667 0.0009990067 -1.1390658e-16)
(2.5330708 0.0017446748 -8.5599033e-16)
(2.45106 0.0032634164 -1.3720157e-16)
(2.2954287 0.0072833057 1.258623e-15)
(1.9232646 -0.0012598161 -6.3888173e-15)
(2.6702075 5.0639979e-06 -8.152534e-17)
(2.6704923 -7.0980814e-06 -9.2387998e-17)
(2.670524 3.394088e-07 5.2735483e-17)
(2.6704775 2.0274309e-06 -3.6090552e-16)
(2.6704352 2.8035389e-06 9.1141709e-19)
(2.6703538 5.0055462e-06 3.5307126e-17)
(2.6702104 7.7751787e-06 1.3047795e-17)
(2.6700008 1.0696677e-05 -3.8896921e-18)
(2.6697205 1.3701292e-05 -2.0282552e-16)
(2.6693682 1.6624326e-05 -1.4353489e-16)
(2.6689471 1.9305431e-05 4.3934931e-17)
(2.6684633 2.1668706e-05 -9.0147476e-17)
(2.6679241 2.3699223e-05 -1.4352643e-17)
(2.6673366 2.5420134e-05 2.6288575e-16)
(2.6667071 2.6885211e-05 -9.6248194e-17)
(2.6660404 2.8172711e-05 -1.126146e-16)
(2.6653391 2.9381372e-05 -3.9830886e-16)
(2.6646033 3.0631508e-05 -6.8592381e-16)
(2.6638297 3.2070793e-05 -2.7378656e-16)
(2.6630111 3.3885497e-05 -4.2552336e-16)
(2.6621349 3.6320095e-05 -9.7968286e-17)
(2.661181 3.9707659e-05 3.3504991e-16)
(2.6601191 4.4516895e-05 -9.7074737e-17)
(2.6589041 5.1419176e-05 -1.5086354e-16)
(2.6574694 6.1399246e-05 -2.0321798e-16)
(2.6557161 7.5905206e-05 -3.6653036e-16)
(2.6534982 9.7145494e-05 -7.5769972e-17)
(2.6505948 0.00012842762 1.3820947e-16)
(2.6466758 0.00017512736 1.4781974e-16)
(2.6412199 0.00024538169 2.671402e-16)
(2.6334388 0.00035411679 1.5619471e-16)
(2.6219683 0.00052404277 4.424114e-17)
(2.604728 0.00080646444 -1.3597231e-17)
(2.5774274 0.0012717551 -8.9117544e-17)
(2.5339255 0.0022180262 -8.0477774e-16)
(2.4526995 0.0041314215 -7.4360968e-16)
(2.2997103 0.0093027826 9.4151035e-16)
(1.9295355 -0.00081487746 -5.7579687e-15)
(2.6701549 7.2081005e-06 -1.2161502e-16)
(2.6704327 -8.9064066e-06 -1.1643823e-16)
(2.6704642 4.4992229e-07 2.9595219e-17)
(2.6704181 2.6193317e-06 -4.5117365e-16)
(2.6703764 3.615624e-06 -7.4203386e-17)
(2.6702958 6.4365838e-06 -5.7458449e-17)
(2.6701535 9.9867096e-06 -3.4284871e-17)
(2.669945 1.3731083e-05 -9.6852811e-17)
(2.6696662 1.7581196e-05 -2.9400847e-16)
(2.6693156 2.1327388e-05 -1.9437931e-16)
(2.6688964 2.4764981e-05 -6.0254444e-18)
(2.6684148 2.7796748e-05 -7.1563348e-17)
(2.6678778 3.0403508e-05 -2.1549789e-17)
(2.6672925 3.2614875e-05 3.6513623e-16)
(2.6666653 3.4499377e-05 -9.9108502e-17)
(2.6660009 3.6156587e-05 -6.795946e-17)
(2.6653017 3.7712266e-05 -3.0820557e-16)
(2.6645679 3.9319956e-05 -8.4409188e-16)
(2.6637963 4.1168348e-05 -2.3474114e-16)
(2.6629796 4.3495483e-05 -3.6969211e-16)
(2.6621053 4.6613709e-05 -1.1975359e-16)
(2.6611536 5.0948446e-05 3.9599798e-16)
(2.6600943 5.7098182e-05 -2.2462876e-17)
(2.6588826 6.5919844e-05 -1.5771478e-16)
(2.6574524 7.8669899e-05 -1.9865255e-16)
(2.6557055 9.7194979e-05 -4.6315954e-16)
(2.6534969 0.00012431067 -1.3192347e-16)
(2.6506073 0.00016422959 3.9095264e-17)
(2.6467093 0.00022379949 2.0710004e-16)
(2.641286 0.00031336258 3.667037e-16)
(2.6335568 0.00045190974 2.0972323e-16)
(2.6221699 0.00066819475 1.0917367e-16)
(2.6050725 0.001027463 5.1264625e-17)
(2.5780153 0.0016168987 -1.5300102e-17)
(2.5350211 0.0028136875 -8.9339798e-16)
(2.4547859 0.0052054989 -8.4515125e-16)
(2.3052854 0.01183141 1.4658481e-15)
(1.937616 0.00020637347 -6.2396709e-15)
(2.6700652 1.0264341e-05 -1.7345683e-16)
(2.6703334 -1.0970539e-05 -1.3153987e-17)
(2.6703648 5.7709501e-07 1.0779461e-16)
(2.6703195 3.3582818e-06 -3.9690596e-16)
(2.670279 4.6380823e-06 8.7134571e-18)
(2.6701998 8.2427063e-06 -1.2702096e-16)
(2.6700591 1.2784029e-05 -6.9633597e-17)
(2.6698524 1.7574401e-05 -2.4592798e-16)
(2.6695758 2.2498668e-05 -3.3138292e-16)
(2.6692276 2.7290719e-05 -1.8075208e-16)
(2.6688111 3.1689839e-05 -5.9823519e-17)
(2.6683322 3.5571328e-05 -3.6412118e-17)
(2.6677982 3.8910656e-05 1.0369456e-16)
(2.6672161 4.1746366e-05 3.2456424e-16)
(2.666592 4.4166442e-05 -9.9403293e-17)
(2.6659307 4.6297587e-05 -1.6866771e-17)
(2.6652346 4.8299208e-05 -2.9237003e-16)
(2.6645037 5.036601e-05 -8.21767e-16)
(2.6637349 5.2737763e-05 -2.9396631e-16)
(2.662921 5.571748e-05 -3.305889e-16)
(2.6620495 5.9703056e-05 -1.5871554e-17)
(2.6611009 6.5236434e-05 3.8368069e-16)
(2.6600454 7.307973e-05 2.9120541e-17)
(2.6588383 8.432347e-05 -1.314732e-16)
(2.6574143 0.00010056577 -4.8841171e-16)
(2.6556758 0.00012415362 -4.4521539e-16)
(2.6534793 0.00015866415 -3.2210274e-16)
(2.6506077 0.000209443 -2.7151507e-17)
(2.6467368 0.0002851796 2.3055424e-16)
(2.6413551 0.00039896312 3.8327275e-16)
(2.633692 0.00057485086 1.8661854e-16)
(2.6224115 0.00084905216 9.5878706e-17)
(2.6054957 0.0013041621 2.7280218e-16)
(2.5787467 0.0020470044 -5.4160093e-17)
(2.5363943 0.0035532831 -1.0383225e-15)
(2.4573737 0.0065142762 -1.0362273e-15)
(2.3123853 0.014998574 5.7179902e-16)
(1.9481983 0.0024276434 -2.3214936e-15)
(2.6699334 1.4288346e-05 -2.9805451e-16)
(2.6701914 -1.3039991e-05 1.0760748e-16)
(2.6702229 7.4285322e-07 -1.0433762e-17)
(2.6701787 4.1970012e-06 -3.6427344e-16)
(2.67014 5.7927617e-06 -4.7955363e-17)
(2.6700631 1.0276432e-05 6.9672498e-17)
(2.6699246 1.5932534e-05 -8.7733232e-17)
(2.6697204 2.1899209e-05 -3.1502372e-16)
(2.6694464 2.8030745e-05 -2.2991782e-16)
(2.6691013 3.3998962e-05 -1.7722569e-16)
(2.668688 3.9480705e-05 -2.1563302e-16)
(2.6682126 4.4319705e-05 -8.4981379e-17)
(2.6676822 4.8484714e-05 2.8861455e-16)
(2.6671038 5.2024364e-05 3.5193611e-16)
(2.6664836 5.5049058e-05 -1.0296461e-16)
(2.6658262 5.7716429e-05 1.1347283e-17)
(2.6651339 6.0223668e-05 -2.477967e-16)
(2.6644067 6.2811151e-05 -7.3368056e-16)
(2.6636415 6.5775067e-05 -3.6509309e-16)
(2.6628312 6.9490227e-05 -2.9916467e-16)
(2.6619635 7.4449349e-05 4.5284654e-17)
(2.6610189 8.1323817e-05 3.8213616e-16)
(2.6599679 9.1057683e-05 8.11304e-17)
(2.6587666 0.00010500109 -1.4902379e-16)
(2.6573498 0.00012513151 -5.2571718e-16)
(2.6556214 0.00015435042 -4.7453513e-16)
(2.6534391 0.00019707806 -3.5406082e-16)
(2.650588 0.00025991067 -1.2859963e-16)
(2.646748 0.0003535709 7.8676482e-17)
(2.6414133 0.00049416171 2.879935e-16)
(2.6338247 0.00071131474 1.5378329e-16)
(2.6226636 0.0010493211 9.8168103e-17)
(2.6059513 0.0016098937 2.4840964e-16)
(2.5795466 0.0025196524 -1.2016516e-16)
(2.5379097 0.0043632651 -9.1109733e-16)
(2.4601994 0.0079145109 -5.7245133e-16)
(2.3202789 0.01846414 8.6245936e-16)
(1.9605166 0.0052017196 -6.7941701e-16)
(2.669744 1.9326304e-05 -3.1221495e-16)
(2.6699929 -1.5047239e-05 2.6800753e-17)
(2.6700248 9.6575766e-07 -1.8963168e-16)
(2.6699824 5.1531246e-06 -3.6632986e-16)
(2.6699464 7.0955506e-06 -1.2232056e-16)
(2.6698725 1.2563332e-05 8.4185471e-17)
(2.6697371 1.9473865e-05 -2.1188392e-16)
(2.6695362 2.6764387e-05 -3.8771787e-16)
(2.6692658 3.4253369e-05 -1.3328166e-16)
(2.6689244 4.1544514e-05 -2.6450998e-16)
(2.6685152 4.8245348e-05 -2.3748582e-16)
(2.668044 5.4163247e-05 -6.5783855e-17)
(2.6675179 5.9258302e-05 3.2240946e-16)
(2.6669441 6.3590477e-05 3.668849e-16)
(2.6663286 6.7296233e-05 -1.9691041e-16)
(2.6656759 7.0568758e-05 4.2698371e-17)
(2.6649884 7.3647874e-05 -8.3703314e-17)
(2.6642659 7.6824823e-05 -4.6716451e-16)
(2.6635054 8.0458257e-05 -4.2683306e-16)
(2.6626997 8.5002397e-05 -2.190607e-16)
(2.6618368 9.1054936e-05 4.8449034e-17)
(2.6608973 9.9430771e-05 3.9299433e-16)
(2.6598521 0.00011127589 5.046122e-17)
(2.6586577 0.00012822862 -1.4854598e-16)
(2.6572498 0.00015268717 -5.6861344e-16)
(2.6555332 0.00018816691 -5.6525892e-16)
(2.6533672 0.00024002039 -3.5459876e-16)
(2.6505397 0.00031622194 -1.9594028e-16)
(2.6467347 0.00042973499 2.7730123e-17)
(2.6414532 0.00059995991 2.0928315e-16)
(2.6339482 0.00086264699 2.3626999e-16)
(2.6229204 0.0012708003 1.9499257e-16)
(2.6064354 0.0019471508 2.5223915e-16)
(2.5804141 0.0030384345 -1.8455347e-16)
(2.5395702 0.0052482963 -9.5982939e-16)
(2.4632672 0.0094013165 -1.0257029e-15)
(2.3289304 0.022221302 5.1445707e-16)
(1.9748052 0.0085662317 4.4222802e-16)
(2.6694767 2.5044893e-05 -2.1830582e-16)
(2.6697197 -1.6961206e-05 -1.7321535e-17)
(2.6697528 1.2593923e-06 -2.4129778e-16)
(2.6697129 6.2486073e-06 -2.9514374e-16)
(2.6696807 8.5776419e-06 -3.233109e-16)
(2.669611 1.5154344e-05 -5.6592212e-17)
(2.6694798 2.3485047e-05 -2.4434142e-16)
(2.6692832 3.227376e-05 -4.1782764e-16)
(2.6690173 4.1295862e-05 -1.2615427e-16)
(2.6686807 5.008088e-05 -2.4633592e-16)
(2.6682764 5.8160325e-05 -1.8247472e-16)
(2.6678104 6.5299825e-05 -6.9851946e-17)
(2.6672896 7.1447897e-05 8.5326917e-17)
(2.6667211 7.6676795e-05 3.470591e-16)
(2.6661112 8.1153341e-05 -2.0032068e-16)
(2.6654643 8.5111979e-05 -3.1184992e-17)
(2.6647827 8.8841037e-05 3.4708289e-18)
(2.6640662 9.268874e-05 -3.8662397e-16)
(2.6633116 9.7083192e-05 -4.3181636e-16)
(2.6625119 0.00010256666 -5.9070921e-17)
(2.661655 0.00010985321 -3.0825133e-17)
(2.6607219 0.00011991704 2.1983379e-16)
(2.6596839 0.00013412875 8.4034274e-17)
(2.658498 0.00015444765 -1.5267128e-16)
(2.6571007 0.00018374094 -5.2137254e-16)
(2.6553981 0.00022620752 -5.4170376e-16)
(2.6532513 0.00028823742 -3.5165963e-16)
(2.650451 0.00037933389 -9.809917e-17)
(2.646686 0.00051494745 8.0465797e-17)
(2.6414648 0.00071811265 1.9179765e-16)
(2.634054 0.0010313481 1.802111e-16)
(2.6231761 0.0015171082 1.7526049e-16)
(2.606946 0.0023214648 3.186726e-16)
(2.5813545 0.0036091176 -3.2532743e-16)
(2.5413917 0.006222701 -8.5217429e-16)
(2.46661 0.010988975 -1.3331838e-15)
(2.3383558 0.026319445 -7.9413545e-16)
(1.9915025 0.012902114 1.0775713e-15)
(2.6691076 3.1065204e-05 -2.3777477e-16)
(2.6693477 -1.8785145e-05 1.0930876e-16)
(2.6693839 1.5805595e-06 -3.2293049e-16)
(2.6693477 7.4392789e-06 -4.0358448e-16)
(2.6693207 1.0189449e-05 -3.5559933e-16)
(2.6692566 1.8010332e-05 5.0531706e-17)
(2.669131 2.7949191e-05 -8.291632e-17)
(2.6689399 3.8436165e-05 -3.7761258e-16)
(2.6686797 4.9193259e-05 -2.1404407e-17)
(2.6683491 5.9669085e-05 -3.9681651e-16)
(2.667951 6.9312344e-05 6.5871616e-17)
(2.6674912 7.7840744e-05 -7.5297182e-17)
(2.6669767 8.5186611e-05 1.0189611e-16)
(2.6664148 9.1434263e-05 3.8696712e-16)
(2.6658116 9.6785567e-05 -1.802101e-16)
(2.6651717 0.00010152343 -4.4417955e-17)
(2.6644973 0.00010599229 3.8334948e-17)
(2.6637881 0.000110605 -2.2429459e-16)
(2.6630409 0.00011586742 -2.276988e-16)
(2.6622487 0.00012241977 -2.770987e-17)
(2.6613995 0.00013110517 -8.3214858e-17)
(2.6604745 0.00014307443 1.4138739e-16)
(2.6594454 0.00015994753 -2.3960948e-17)
(2.6582699 0.00018404063 -2.2272708e-16)
(2.6568854 0.00021874277 -5.2609799e-16)
(2.6551993 0.00026901258 -4.7754224e-16)
(2.653075 0.00034239199 -3.2193966e-16)
(2.6503063 0.00045007507 -1.784783e-17)
(2.6465873 0.00061026187 4.1508852e-17)
(2.6414348 0.00084996997 5.1024218e-17)
(2.6341309 0.0012191643 2.6187104e-17)
(2.6234219 0.0017904276 1.9141785e-16)
(2.6074798 0.0027356172 3.1356351e-16)
(2.5823713 0.0042346825 -3.1960941e-16)
(2.5433886 0.0072897062 -9.8295952e-16)
(2.4702682 0.01266109 -1.7124741e-15)
(2.3485244 0.030680041 -1.5216221e-15)
(2.0111654 0.01810162 2.2573119e-15)
(2.6686054 3.7260692e-05 3.8695157e-17)
(2.6688466 -2.0450619e-05 -1.1686944e-16)
(2.668889 1.9203079e-06 -3.0934107e-16)
(2.6688585 8.7394774e-06 -4.9167717e-16)
(2.6688385 1.1956789e-05 -3.3308662e-16)
(2.6687819 2.117184e-05 8.0300095e-17)
(2.6686637 3.2930284e-05 1.4440023e-16)
(2.6684798 4.5340347e-05 -4.241914e-16)
(2.6682269 5.8055874e-05 -1.7688989e-16)
(2.6679037 7.0437562e-05 -4.4101636e-16)
(2.6675133 8.1846182e-05 4.4573396e-17)
(2.6670613 9.1945992e-05 -1.3967931e-16)
(2.6665546 0.00010064702 3.3319333e-17)
(2.6660005 0.0001080436 2.6365358e-16)
(2.6654055 0.00011437707 -4.3143331e-17)
(2.664774 0.00011998728 3.2452799e-17)
(2.6641083 0.00012528415 1.1422025e-16)
(2.6634081 0.00013075426 -1.4452967e-16)
(2.6626701 0.00013699062 -2.0517929e-16)
(2.6618873 0.00014474197 3.3417726e-17)
(2.6610478 0.00015499347 -1.6121179e-16)
(2.660133 0.00016908957 -2.1384373e-16)
(2.659115 0.0001889236 -2.9846139e-16)
(2.6579521 0.00021720336 -2.4520297e-16)
(2.656583 0.00025789145 -4.7518841e-16)
(2.6549165 0.00031678103 -4.2357468e-16)
(2.6528183 0.00040267827 -2.8787295e-16)
(2.6500859 0.00052862457 -2.4153368e-17)
(2.6464195 0.00071582267 1.594978e-16)
(2.6413447 0.00099559527 1.9057286e-16)
(2.634161 0.0014259959 -2.2401818e-16)
(2.6236408 0.0020902338 2.6521276e-16)
(2.6080207 0.0031883174 5.8164799e-16)
(2.5834466 0.0049141832 -2.8969979e-16)
(2.5455439 0.0084445921 -9.9783668e-16)
(2.4742355 0.014400673 -1.9404045e-15)
(2.3592576 0.035243356 -3.4924485e-15)
(2.0337239 0.024094188 2.4649954e-15)
(2.6679314 4.3616127e-05 5.3453859e-17)
(2.668178 -2.196928e-05 -2.0914554e-16)
(2.6682313 2.1901882e-06 -2.7266391e-16)
(2.6682092 1.011237e-05 -4.0799804e-16)
(2.6681987 1.3863667e-05 -1.5846206e-16)
(2.6681519 2.4641828e-05 2.5635609e-16)
(2.6680432 3.8461311e-05 -1.3872384e-16)
(2.6678687 5.305228e-05 -5.1906199e-16)
(2.6676251 6.7979651e-05 -1.9813186e-16)
(2.6673115 8.2507958e-05 -6.9927862e-16)
(2.6669307 9.5907061e-05 -2.0748264e-16)
(2.6664884 0.000107784 -3.7333658e-16)
(2.6659913 0.00011801905 -1.1326049e-16)
(2.6654469 0.0001267116 7.4809146e-18)
(2.6648617 0.00013414551 -6.4585916e-17)
(2.6642404 0.00014072696 5.0997605e-17)
(2.6635853 0.00014694277 2.1427051e-16)
(2.6628961 0.00015336453 -2.6767493e-16)
(2.6621695 0.00016068371 -3.3832988e-16)
(2.6613983 0.00016976988 2.4468227e-17)
(2.6605709 0.00018176451 -2.7113914e-16)
(2.6596688 0.00019822337 -5.600592e-16)
(2.6586645 0.00022133695 -3.0116515e-16)
(2.6575172 0.00025423886 -2.7216809e-16)
(2.6561664 0.0003015163 -3.9894436e-16)
(2.654523 0.0003698715 -3.4071756e-16)
(2.6524553 0.00046948728 -2.3820955e-16)
(2.6497647 0.00061540697 1.3806952e-16)
(2.646158 0.00083208503 2.5000866e-16)
(2.641171 0.0011554489 -2.1222908e-17)
(2.634122 0.0016522633 -1.6878411e-16)
(2.6238116 0.0024166657 3.739046e-16)
(2.6085488 0.0036791904 5.4465203e-16)
(2.5845618 0.0056431373 -2.2914088e-16)
(2.5478393 0.009682186 -5.4473924e-16)
(2.4785146 0.016186839 -1.1432796e-15)
(2.3704164 0.039903111 -2.3307922e-15)
(2.059021 0.03071418 2.0424652e-15)
(2.6670356 4.9826296e-05 1.4257074e-17)
(2.6672941 -2.3392243e-05 -1.370663e-16)
(2.6673639 2.3247248e-06 -2.6359299e-16)
(2.6673535 1.1609539e-05 -1.5711474e-16)
(2.6673552 1.6016607e-05 -1.0646108e-16)
(2.667321 2.8571777e-05 1.8684425e-16)
(2.6672245 4.4747187e-05 -2.095424e-16)
(2.6670618 6.1829887e-05 -3.5773072e-16)
(2.6668299 7.9268938e-05 -8.1679391e-17)
(2.666528 9.6223343e-05 -8.3126017e-16)
(2.6661593 0.00011187276 -4.0063304e-16)
(2.665729 0.00012576706 -5.7711746e-16)
(2.6652439 0.00013774857 -9.6795283e-17)
(2.6647112 0.00014791298 -1.9700653e-16)
(2.6641379 0.00015658698 -1.7423219e-16)
(2.6635288 0.0001642528 -3.9537819e-17)
(2.6628864 0.00017148783 1.0016735e-16)
(2.6622104 0.00017896277 -2.9635472e-16)
(2.6614976 0.00018748174 -4.8582538e-16)
(2.6607408 0.00019805039 -3.3503031e-16)
(2.6599283 0.00021198336 -6.099439e-16)
(2.659042 0.00023106728 -5.5815178e-16)
(2.6580546 0.00025781478 -2.4274047e-16)
(2.6569261 0.00029582034 -1.7355009e-16)
(2.6555974 0.00035034936 -2.7894911e-16)
(2.6539813 0.00042909321 -2.4650361e-16)
(2.6519491 0.00054373544 -1.4605215e-16)
(2.6493068 0.0007114927 3.4705285e-16)
(2.6457684 0.00096035066 1.3304094e-16)
(2.6408811 0.0013311672 -8.8601639e-17)
(2.6339842 0.0019001299 -7.7748476e-17)
(2.6239088 0.0027725185 3.5762405e-16)
(2.6090452 0.0042122822 2.3863684e-16)
(2.5857076 0.0064257506 -1.5055266e-16)
(2.5502793 0.011009975 -2.2766207e-16)
(2.483163 0.018024776 -7.4405379e-16)
(2.3820263 0.044616525 -6.8471928e-16)
(2.0870993 0.038040588 -5.7709173e-16)
(2.6658611 5.5152516e-05 9.038672e-18)
(2.6661361 -2.4355661e-05 -5.2773556e-17)
(2.6662284 2.1019849e-06 -2.0970811e-16)
(2.6662332 1.3172048e-05 -9.8893887e-17)
(2.6662502 1.8426399e-05 -1.4695845e-16)
(2.6662317 3.2973907e-05 2.0288544e-17)
(2.6661503 5.1831933e-05 -3.3160924e-16)
(2.6660022 7.1763431e-05 -3.6915401e-16)
(2.6657848 9.2061373e-05 -2.4987021e-16)
(2.6654974 0.00011176294 -7.6319302e-16)
(2.6651435 0.00012995672 -4.5914945e-16)
(2.6647281 0.00014614155 -4.0475956e-16)
(2.6642576 0.00016011954 -1.2319044e-16)
(2.6637394 0.00017197266 -1.6875989e-16)
(2.6631803 0.00018206475 -1.8155361e-16)
(2.6625858 0.00019095878 -1.9052895e-16)
(2.6619585 0.00019933539 -1.8521239e-16)
(2.6612983 0.00020798065 -2.9022263e-16)
(2.6606019 0.00021782944 -6.1104887e-16)
(2.6598625 0.00023004313 -4.5101941e-16)
(2.6590682 0.00024613153 -5.736212e-16)
(2.6582011 0.0002681371 -6.8291766e-16)
(2.6572344 0.00029892464 -4.3222383e-16)
(2.6561287 0.00034258886 5.165542e-17)
(2.6548265 0.00040512987 1.0969959e-16)
(2.6532426 0.00049531135 4.133284e-17)
(2.6512518 0.00062644504 8.4987215e-17)
(2.6486653 0.00081809806 3.1373735e-16)
(2.6452052 0.0011020682 6.5858282e-17)
(2.6404313 0.001524465 -5.1097533e-17)
(2.6337063 0.0021715837 -1.9065499e-16)
(2.6238946 0.0031598711 1.5319645e-16)
(2.6094766 0.0047894866 5.2981221e-17)
(2.5868567 0.0072621345 -2.6472372e-16)
(2.5528403 0.012423745 3.9271956e-18)
(2.4882026 0.019903321 -6.5286751e-16)
(2.3940353 0.049306849 2.8025062e-16)
(2.1178621 0.045907096 8.8607043e-16)
(2.66405 5.6329215e-05 1.5064958e-17)
(2.6643515 -2.3643749e-05 -3.8077918e-17)
(2.6644752 7.4296908e-07 -9.7038523e-17)
(2.6645019 1.4234699e-05 -1.3192977e-16)
(2.6645412 2.1160885e-05 -7.9591305e-17)
(2.6645454 3.8359672e-05 -1.1014367e-16)
(2.6644859 6.0802694e-05 -5.4541264e-16)
(2.6643593 8.4612281e-05 -7.8145676e-16)
(2.6641629 0.00010878309 -5.6251127e-16)
(2.6638967 0.00013217193 -6.2913544e-16)
(2.6635643 0.00015377256 -3.2803386e-16)
(2.6631706 0.000173047 -1.344046e-16)
(2.6627217 0.00018975031 6.0366194e-17)
(2.6622246 0.00020392445 8.4358935e-17)
(2.6616863 0.00021595553 -6.8725654e-17)
(2.6611126 0.00022650142 -2.4697584e-16)
(2.6605067 0.00023638302 -3.9880108e-16)
(2.6598688 0.00024654886 -2.5314348e-16)
(2.6591958 0.00025811573 -5.2690011e-16)
(2.6584809 0.00027245728 -3.3404891e-16)
(2.6577126 0.00029134439 -6.1414307e-16)
(2.6568732 0.00031715536 -6.6406574e-16)
(2.6559363 0.00035320812 -4.0781104e-16)
(2.6548635 0.00040423308 2.4755653e-16)
(2.6535988 0.00047715833 3.2395835e-16)
(2.6520598 0.00058210523 1.3221563e-16)
(2.650126 0.00073444163 1.7320247e-16)
(2.6476153 0.00095671871 2.1448706e-17)
(2.6442607 0.0012855039 3.2592184e-16)
(2.6396384 0.0017735327 -2.6125851e-16)
(2.6331417 0.0025194979 -2.7170487e-16)
(2.6236777 0.0036534154 -5.4043741e-17)
(2.609843 0.0055190897 -2.5432261e-16)
(2.5881546 0.0083075306 -5.4454394e-16)
(2.5559364 0.014160141 -1.3347097e-16)
(2.4945885 0.02217368 -1.0201406e-15)
(2.408535 0.054338305 -7.7696211e-16)
(2.1567695 0.056772472 -1.8360489e-16)
(2.661414 5.1353454e-05 -2.1307925e-16)
(2.6617399 -2.1854906e-05 1.3262928e-16)
(2.6619009 -1.7403897e-06 1.4573517e-16)
(2.6619558 1.4090041e-05 2.4459123e-17)
(2.6620236 2.3579335e-05 -2.8792026e-17)
(2.6620572 4.4090561e-05 -2.5292505e-16)
(2.6620268 7.0934766e-05 -7.3182861e-16)
(2.661929 9.9585601e-05 -8.9815018e-16)
(2.6617614 0.00012859311 -8.4412398e-16)
(2.661524 0.00015656558 -4.5939982e-16)
(2.6612207 0.00018239792 -5.8144664e-16)
(2.6608566 0.00020552909 -3.1536114e-18)
(2.6604371 0.00022565722 -3.9788723e-17)
(2.659969 0.00024275213 1.5752858e-16)
(2.6594594 0.0002572023 -2.9489093e-19)
(2.6589142 0.00026977413 -8.111087e-17)
(2.6583372 0.0002814675 -1.7370092e-16)
(2.6577291 0.00029343851 -1.2678021e-16)
(2.657087 0.00030702954 -1.5352135e-16)
(2.6564046 0.00032387459 -2.7617137e-16)
(2.6556705 0.00034606279 -6.7461226e-16)
(2.6548676 0.00037637744 -6.1820749e-16)
(2.65397 0.00041867063 -3.0452702e-16)
(2.6529405 0.0004784074 2.9596139e-16)
(2.6517251 0.00056357682 8.220763e-17)
(2.6502447 0.00068585476 -1.7425701e-17)
(2.6483838 0.00086295799 6.4095554e-17)
(2.6459686 0.0011208661 7.162772e-17)
(2.6427452 0.0015015459 6.2146323e-17)
(2.6383095 0.0020652581 -2.417538e-17)
(2.6320913 0.0029244494 -3.7246665e-16)
(2.6230472 0.0042236339 -3.6336496e-16)
(2.6099095 0.0063542427 -3.7534592e-16)
(2.5893207 0.009490866 -5.5087342e-16)
(2.5591592 0.01608351 -8.4985262e-17)
(2.501803 0.024722249 -9.2525084e-16)
(2.4241493 0.059140363 -7.1620682e-17)
(2.2002964 0.069097634 -2.1577108e-16)
(2.6581347 4.4700069e-05 6.9977952e-17)
(2.6584879 -2.1449132e-05 1.725635e-16)
(2.6586871 -4.4322158e-06 1.0475401e-16)
(2.6587707 1.4057172e-05 -2.4126984e-16)
(2.6588681 2.6302769e-05 -3.098574e-16)
(2.6589336 5.0257175e-05 -6.2531604e-17)
(2.6589356 8.1764233e-05 -1.4293175e-16)
(2.6588705 0.00011560021 -3.575657e-16)
(2.6587357 0.00014980583 -3.1924727e-16)
(2.6585314 0.00018270421 -2.8763728e-16)
(2.6582614 0.00021308275 -3.8151893e-16)
(2.6579309 0.00024037568 1.8104379e-16)
(2.6575453 0.00026423448 3.7482051e-18)
(2.6571107 0.00028453766 -6.5325953e-17)
(2.6566343 0.0003016443 -1.0049163e-16)
(2.6561222 0.00031641219 -8.2687472e-17)
(2.6555784 0.00033002595 -7.2196012e-17)
(2.6550041 0.00034386801 -4.9756469e-17)
(2.654397 0.00035952637 3.1620787e-17)
(2.653751 0.00037891255 -4.3037646e-16)
(2.6530553 0.00040445335 -5.2261223e-16)
(2.6522933 0.00043935571 -5.5587293e-16)
(2.65144 0.00048801984 -2.9211407e-16)
(2.6504593 0.00055664903 -1.6636762e-16)
(2.6492992 0.00065428031 -3.1699378e-16)
(2.6478839 0.00079411232 -1.0303089e-16)
(2.6461033 0.00099616515 2.1006979e-16)
(2.6437919 0.0012897592 3.0153008e-16)
(2.6407094 0.001722152 -1.1575585e-16)
(2.636472 0.0023607233 -2.5038834e-16)
(2.6305474 0.0033314642 -3.6530149e-16)
(2.6219422 0.0047907642 -4.5077173e-16)
(2.6095243 0.0071788045 -3.089473e-16)
(2.5900589 0.010644962 -6.6342939e-16)
(2.5619268 0.017915452 -3.8087156e-16)
(2.508731 0.027092112 -8.2042439e-16)
(2.4386476 0.06299101 -4.5806152e-16)
(2.2419595 0.079217262 -7.8828522e-16)
(2.6541284 4.4153403e-05 -1.1493042e-17)
(2.654497 -1.8343028e-05 2.1827891e-16)
(2.6547298 -6.2306765e-06 1.1039879e-16)
(2.6548427 1.4182907e-05 -2.3895654e-16)
(2.6549726 2.9288188e-05 3.53022e-19)
(2.6550741 5.6832694e-05 6.2533341e-17)
(2.6551129 9.3229181e-05 3.5768992e-17)
(2.6550849 0.00013257554 -1.8387553e-16)
(2.6549875 0.00017235153 -1.3997132e-16)
(2.6548206 0.00021054292 -2.24364e-16)
(2.6545883 0.00024579902 -1.5347701e-16)
(2.6542958 0.00027755728 2.4755771e-16)
(2.6539483 0.00030544429 2.4489234e-16)
(2.6535519 0.00032924849 -2.1070337e-16)
(2.6531133 0.00034927635 -1.5617566e-16)
(2.6526388 0.00036645121 -2.7651838e-17)
(2.6521328 0.00038213279 -3.3664002e-17)
(2.6515967 0.00039793723 1.695466e-16)
(2.6510288 0.00041571342 5.1783994e-17)
(2.6504234 0.0004376662 -1.3912973e-16)
(2.6497705 0.00046657666 -6.2963882e-17)
(2.649054 0.00050609466 -1.7092785e-16)
(2.6482499 0.00056118817 -2.0968236e-16)
(2.6473234 0.00063880739 -2.7218551e-16)
(2.6462246 0.0007490293 -3.0592591e-16)
(2.6448811 0.00090653837 -5.9735714e-17)
(2.6431882 0.001133593 -4.5697156e-17)
(2.6409888 0.0014627305 9.5359803e-17)
(2.6380567 0.0019463438 3.263797e-17)
(2.6340289 0.00265844 -1.5434769e-16)
(2.6284118 0.0037382738 -1.2469389e-16)
(2.6202632 0.0053513762 -3.4177167e-16)
(2.6085845 0.0079870177 -4.7949629e-16)
(2.5902653 0.011765195 -6.2823606e-16)
(2.5641378 0.019648431 -4.1836453e-16)
(2.5151984 0.029296681 -5.1749757e-16)
(2.4520111 0.06593477 -1.9892723e-16)
(2.2809472 0.087552731 -1.2175956e-15)
(2.6492113 4.400973e-05 2.892545e-17)
(2.6496177 -1.4659761e-05 1.5168251e-16)
(2.6498969 -6.8874804e-06 7.6482085e-17)
(2.6500486 1.4884361e-05 -1.5910338e-17)
(2.6502186 3.2680352e-05 -1.2349588e-16)
(2.6503631 6.3792609e-05 -1.8777999e-16)
(2.6504447 0.00010526868 -3.3198158e-16)
(2.650459 0.0001504891 -2.1118712e-16)