0.4709558481 	1.229853875e-06 	-3.746134649e-08 	2.36119622e-12 	1.2277693e-06 	-5.565248449e-11 	2.340469526e-09
0.4709558481 	1.229853875e-06 	-3.746134649e-08 	2.36119622e-12 	1.2277693e-06 	-5.565248449e-11 	2.340469526e-09
0.4720092239 	0.0001005492651 	-2.531247692e-05 	1.522663361e-09 	0.000102563514 	-4.697439334e-09 	1.955145637e-07
0.4730625996 	0.001045597776 	-0.0006042006522 	2.963280497e-08 	0.001170410672 	-5.038663163e-08 	2.231128039e-06
0.4741159754 	0.003281663118 	-0.002369839416 	8.457180735e-08 	0.003872151604 	-1.303620521e-07 	7.381397166e-06
0.4751693511 	0.005541159225 	-0.004243523074 	1.13614331e-07 	0.006643801132 	-1.7436541e-07 	1.266493151e-05
0.4762227269 	0.007045385769 	-0.005417209028 	1.150491982e-07 	0.008472471299 	-1.800262289e-07 	1.61508851e-05
0.4778443634 	0.008000198601 	-0.006100377781 	1.112730375e-07 	0.009615078458 	-1.730717418e-07 	1.832901191e-05
0.4796765386 	0.008469417217 	-0.006378688774 	1.019615667e-07 	0.01014175734 	-1.559428016e-07 	1.933300824e-05
0.4817465869 	0.008673014389 	-0.006516630125 	9.067497275e-08 	0.01036548874 	-1.334217083e-07 	1.975950248e-05
0.4840853915 	0.008718456033 	-0.006540548999 	7.611932878e-08 	0.01039927821 	-1.045896883e-07 	1.98239146e-05
0.4867278453 	0.008655504571 	-0.006498206361 	5.829722333e-08 	0.01031840462 	-6.907894328e-08 	1.966974706e-05
0.4897133715 	0.008513657422 	-0.006404631532 	3.674800495e-08 	0.01014665358 	-2.592733925e-08 	1.934234184e-05
0.4930865115 	0.00830606168 	-0.006268069803 	1.086037872e-08 	0.009899345175 	2.566530319e-08 	1.887090328e-05
0.4968975894 	0.008039366916 	-0.006092788996 	-1.986854724e-08 	0.009583741077 	8.622770018e-08 	1.826927416e-05
0.5012034633 	0.007717772382 	-0.005874722909 	-5.582355138e-08 	0.009201764262 	1.555759849e-07 	1.754112018e-05
0.506068373 	0.007306678693 	-0.005608758773 	-1.015342429e-07 	0.008719795193 	2.392489582e-07 	1.662235318e-05
0.5134203412 	0.006782139998 	-0.005247878573 	-1.58683e-07 	0.008096279959 	3.354500497e-07 	1.543375985e-05
0.5212948542 	0.006206342974 	-0.004815360791 	-2.188659367e-07 	0.007397698403 	4.223695461e-07 	1.410206924e-05
0.529729052 	0.005644437784 	-0.004371176181 	-2.746455622e-07 	0.006705408491 	4.805497389e-07 	1.278237226e-05
0.5387627144 	0.005125008834 	-0.003910858441 	-3.228852722e-07 	0.006041456939 	5.016704126e-07 	1.151669606e-05
0.5484384488 	0.004668986919 	-0.003442706934 	-3.615637978e-07 	0.00543015269 	4.836953419e-07 	1.035138026e-05
0.5588018907 	0.00428963576 	-0.002971145538 	-3.901255974e-07 	0.004887346991 	4.309430517e-07 	9.316641732e-06
0.5699019192 	0.003988768667 	-0.002499981508 	-4.093159759e-07 	0.004424102628 	3.516795499e-07 	8.433569225e-06
0.5817908876 	0.003760026483 	-0.002031525139 	-4.202512508e-07 	0.004045846508 	2.549367767e-07 	7.71250793e-06
0.5945248701 	0.003593558403 	-0.001567093849 	-4.239030834e-07 	0.003754976231 	1.486783014e-07 	7.158028338e-06
0.6081639266 	0.003480826538 	-0.001107336854 	-4.208209734e-07 	0.003552118885 	3.988981681e-08 	6.771325854e-06
0.6227723857 	0.00341636444 	-0.0006525728099 	-4.110311433e-07 	0.003436581778 	-6.441419498e-08 	6.551080017e-06
0.638419148 	0.003396704833 	-0.0002030140345 	-3.941468568e-07 	0.003405727179 	-1.567139291e-07 	6.492262576e-06
0.6551780116 	0.003418297885 	0.0002411793843 	-3.695575443e-07 	0.003454307811 	-2.295829389e-07 	6.584870763e-06
0.6731280194 	0.003476365278 	0.0006800025984 	-3.36641903e-07 	0.003574489823 	-2.768538787e-07 	6.81397108e-06
0.6923538328 	0.003565326844 	0.001113836052 	-2.949405535e-07 	0.003756834869 	-2.945233787e-07 	7.161571419e-06
0.7129461301 	0.003680298533 	0.001543717992 	-2.442716395e-07 	0.00399196578 	-2.809011138e-07 	7.609796286e-06
0.7350020349 	0.003816465677 	0.001964671856 	-1.858781399e-07 	0.004267545191 	-2.370889522e-07 	8.135127237e-06
0.7570579485 	0.003966333162 	0.002359543356 	-1.241602218e-07 	0.004562627484 	-1.695504417e-07 	8.697636102e-06
0.7776502527 	0.004123704258 	0.002715895707 	-6.430171047e-08 	0.004858332564 	-8.844401018e-08 	9.261332171e-06
0.7968760713 	0.00428884353 	0.003036804844 	-8.950351375e-09 	0.005149485896 	-1.565963321e-09 	9.816351343e-06
0.814826083 	0.004465111019 	0.003329579839 	4.087847941e-08 	0.005437892873 	8.627552005e-08 	1.03661352e-05
0.831584949 	0.004655522849 	0.003599815702 	8.455192031e-08 	0.00572607874 	1.714546281e-07 	1.091549756e-05
0.8472317127 	0.004862274954 	0.003851850239 	1.216480007e-07 	0.006016547229 	2.509546014e-07 	1.146921123e-05
0.8618401721 	0.005086475099 	0.004089040042 	1.518137403e-07 	0.006311392808 	3.220055047e-07 	1.203126885e-05
0.8754792281 	0.005328006642 	0.004313883284 	1.747074969e-07 	0.006612018086 	3.819119712e-07 	1.260434419e-05
0.8882132094 	0.005585484775 	0.004528070746 	1.900340926e-07 	0.006918868514 	4.280751834e-07 	1.318928639e-05
0.9001021759 	0.005856256166 	0.004732519971 	1.976531695e-07 	0.007231244068 	4.582105423e-07 	1.378476101e-05
0.9112022019 	0.006136527356 	0.004927429219 	1.977193743e-07 	0.007547052608 	4.70715476e-07 	1.438677986e-05
0.9215656407 	0.006421371933 	0.005112414827 	1.908043885e-07 	0.00786307113 	4.650903503e-07 	1.4989199e-05
0.9312413717 	0.006705295313 	0.00528646786 	1.779515464e-07 	0.00817436383 	4.42259268e-07 	1.558260941e-05
0.9402750304 	0.006981470976 	0.00544902251 	1.606603428e-07 	0.008476524292 	4.047071041e-07 	1.615861123e-05
0.9487092242 	0.007244217694 	0.005596080354 	1.406514074e-07 	0.00876102949 	3.561928799e-07 	1.670095721e-05
0.9565837329 	0.007484676197 	0.005737494796 	1.201090199e-07 	0.009024331039 	3.014634437e-07 	1.720288314e-05
0.9639356968 	0.007681821748 	0.005835941438 	1.012235469e-07 	0.009233472533 	2.491893413e-07 	1.760156496e-05
0.9688006083 	0.007819972114 	0.005893827094 	8.684827971e-08 	0.00937460025 	2.076385812e-07 	1.787059361e-05
0.9731064834 	0.007913202615 	0.005943979446 	7.671189112e-08 	0.009473707349 	1.753779874e-07 	1.805951929e-05
0.976917562 	0.007974265403 	0.00597105482 	6.861881778e-08 	0.009535473472 	1.488263657e-07 	1.817726268e-05
0.9802907021 	0.007998463172 	0.005977768697 	6.240358191e-08 	0.009557121459 	1.276467433e-07 	1.821852976e-05
0.9832762282 	0.007978189326 	0.005958374863 	5.7657462e-08 	0.009529875071 	1.111987162e-07 	1.816659058e-05
0.9859186816 	0.007899043942 	0.005902991218 	5.403958237e-08 	0.009437164928 	9.873925946e-08 	1.798985928e-05
0.9882574856 	0.007731414703 	0.005794987232 	5.134266585e-08 	0.009252868567 	8.961329581e-08 	1.763853919e-05
0.990327533 	0.00742567417 	0.00558833762 	4.913006865e-08 	0.008903726653 	8.29211732e-08 	1.697297766e-05
0.9921597073 	0.006879134997 	0.005248540631 	4.765817301e-08 	0.00827509175 	7.801721952e-08 	1.577462482e-05
0.9937813429 	0.005896894964 	0.004540581736 	4.544607398e-08 	0.007096208189 	7.264119721e-08 	1.35273451e-05
0.9948347186 	0.004448836823 	0.003385760341 	4.156665874e-08 	0.005326747394 	6.459387763e-08 	1.015426103e-05
0.9958880943 	0.00248596511 	0.001751572779 	2.779178852e-08 	0.002915379415 	4.36701756e-08 	5.557523453e-06
0.9969414701 	0.0007385303974 	0.000398704515 	8.423489724e-09 	0.000815392321 	1.503853662e-08 	1.55436439e-06
0.9979948458 	6.887167239e-05 	1.523187492e-05 	3.815300252e-10 	6.989934636e-05 	1.342257066e-09 	1.332475817e-07
0.9990482216 	9.219186723e-07 	2.411755195e-08 	6.249691748e-13 	9.202987308e-07 	1.753478873e-11 	1.754345165e-09
