0.2739420079 	1.496328068e-06 	-5.587286315e-08 	6.948934391e-11 	1.434901217e-06 	-9.760334015e-10 	2.73532053e-09
0.275272557 	0.000174422454 	-4.792828845e-05 	1.067911345e-07 	0.0001305318538 	-1.456245452e-07 	2.488299928e-07
0.2766031854 	0.002005423837 	-0.0009679906843 	1.538038159e-06 	0.001264207316 	-8.226494633e-07 	2.409930513e-06
0.2779335901 	0.005244750282 	-0.002805045249 	1.474884489e-06 	0.003198187742 	6.593541422e-07 	6.096634727e-06
0.2792634708 	0.007183588263 	-0.003943315686 	-1.462097806e-06 	0.004393820304 	3.947966826e-06 	8.375842698e-06
0.2805925299 	0.007540555535 	-0.004166236039 	-3.933169216e-06 	0.004713522864 	5.455643551e-06 	8.985284635e-06
0.2826362867 	0.007161880316 	-0.003959914136 	-5.352621338e-06 	0.004661053119 	3.258384255e-06 	8.885262717e-06
0.2849408702 	0.006444378068 	-0.003458654982 	-5.701781277e-06 	0.004544928027 	-2.533686107e-06 	8.663896017e-06
0.2875370716 	0.005850394467 	-0.002964261435 	-5.216492749e-06 	0.004644605433 	-8.750250327e-06 	8.853908856e-06
0.2904580691 	0.005407045085 	-0.002490853103 	-4.466754951e-06 	0.004965578672 	-1.299401322e-05 	9.46577306e-06
0.2938196317 	0.005061128769 	-0.002057304944 	-3.532397969e-06 	0.005432903724 	-1.477483124e-05 	1.035662449e-05
0.2976320779 	0.00476216803 	-0.001660580436 	-2.557313376e-06 	0.005963573688 	-1.480212171e-05 	1.136822894e-05
0.3019179803 	0.004481829335 	-0.001308624615 	-1.56514183e-06 	0.006521707925 	-1.397800261e-05 	1.243218792e-05
0.3067337774 	0.004202793484 	-0.001000579967 	-6.288517247e-07 	0.007102867665 	-1.259100756e-05 	1.354003991e-05
0.3122569715 	0.003908717462 	-0.0007322325816 	4.11592758e-08 	0.007706526044 	-1.050657084e-05 	1.469078056e-05
0.3185112727 	0.003557538215 	-0.0004803198117 	2.646670315e-07 	0.008349484297 	-6.79290576e-06 	1.591643769e-05
0.3279565291 	0.003122287475 	-0.000211172255 	1.790707288e-07 	0.008952014965 	-1.892235765e-06 	1.706502861e-05
0.3358853299 	0.002757857862 	3.457225137e-06 	2.644285898e-06 	0.0092367295 	1.382347018e-06 	1.760777364e-05
0.3381259885 	0.002651081047 	6.443992324e-05 	-3.70517755e-10 	0.009317039249 	-5.754398829e-07 	1.776086635e-05
0.3489508731 	0.002242514368 	0.0002909197192 	2.291596595e-07 	0.009238119261 	-1.125428459e-06 	1.761042291e-05
0.3605981766 	0.001933589839 	0.0004514915832 	1.145306489e-06 	0.008933437366 	6.561536307e-07 	1.702961454e-05
0.3731708885 	0.001712155083 	0.000552151877 	2.791259809e-06 	0.008612698603 	2.323032989e-06 	1.641819731e-05
0.3867969958 	0.001549384435 	0.0006123494515 	4.719445453e-06 	0.008328085182 	3.136339223e-06 	1.587564503e-05
0.4014972221 	0.001411642242 	0.0006542170857 	6.413502996e-06 	0.008078918591 	3.655949428e-06 	1.540066425e-05
0.4173643717 	0.001292724255 	0.0006973455276 	7.778016294e-06 	0.007883629326 	3.81404955e-06 	1.502838864e-05
0.4344885207 	0.001180541608 	0.000747117236 	8.997272514e-06 	0.00771361095 	3.878727499e-06 	1.470428636e-05
0.4530046648 	0.001070488584 	0.0008057143898 	8.003753447e-06 	0.007556934218 	3.154607829e-06 	1.440561696e-05
0.4729699124 	0.0009679919569 	0.0008762158868 	6.793649807e-06 	0.007430635608 	2.241691307e-06 	1.416485671e-05
0.4944634565 	0.000869717517 	0.0009554767506 	5.679294021e-06 	0.007317515167 	1.655853431e-06 	1.394921771e-05
0.5176484568 	0.0007786168923 	0.001048794604 	4.619548572e-06 	0.007231030982 	1.069932733e-06 	1.378435481e-05
0.542569778 	0.0006951967523 	0.001157664147 	3.666305764e-06 	0.007161267959 	6.407769874e-07 	1.36513671e-05
0.5693462178 	0.0006214029796 	0.001284633212 	2.85408174e-06 	0.007100767322 	3.194763451e-07 	1.353603607e-05
0.5980874262 	0.0005615054712 	0.00143523516 	2.162174522e-06 	0.00704004508 	1.138237388e-07 	1.34202826e-05
0.6289040372 	0.0005238667695 	0.001616130685 	1.598996863e-06 	0.006966569428 	2.713721142e-08 	1.328021759e-05
0.6597287896 	0.0005206868305 	0.001824605459 	1.269142687e-06 	0.006863980669 	1.949872778e-07 	1.30846549e-05
0.6885070106 	0.0006105973337 	0.002002589428 	1.155852407e-06 	0.006668095632 	5.243372021e-07 	1.271124358e-05
0.7153735372 	0.0007946243614 	0.002127725365 	1.116233076e-06 	0.006413441159 	7.720518732e-07 	1.222580137e-05
0.7404577418 	0.001010032529 	0.00223034368 	1.077234392e-06 	0.006203204615 	9.065539638e-07 	1.182503209e-05
0.763881608 	0.001233897685 	0.002322243598 	1.02182834e-06 	0.006054145877 	9.903509178e-07 	1.15408847e-05
0.7857594625 	0.001455450515 	0.002411769291 	9.463404565e-07 	0.005961586953 	1.046613711e-06 	1.136444167e-05
0.8061955834 	0.001673335906 	0.002498953106 	8.577092715e-07 	0.005908216535 	1.080596007e-06 	1.126270282e-05
0.8252873287 	0.001886064303 	0.002580948818 	7.596111642e-07 	0.005879530649 	1.09153883e-06 	1.120801955e-05
0.8431242394 	0.002092151614 	0.002654548918 	6.557378501e-07 	0.005862640727 	1.076477808e-06 	1.117582266e-05
0.8597896056 	0.00228970932 	0.002717428214 	5.503056029e-07 	0.005847172375 	1.034725351e-06 	1.114633568e-05
0.8753606451 	0.002477103824 	0.002768430178 	4.487106883e-07 	0.005824760045 	9.678287386e-07 	1.110361155e-05
0.8899091601 	0.00265314426 	0.002807587522 	3.57241606e-07 	0.005789323132 	8.80650018e-07 	1.103605895e-05
0.9035021065 	0.002817498878 	0.002835951357 	2.824970517e-07 	0.005736574031 	7.809073783e-07 	1.09355045e-05
0.9162019423 	0.002970190935 	0.002855781813 	2.310652942e-07 	0.005664992418 	6.796102364e-07 	1.079905005e-05
0.9280669907 	0.003112912734 	0.00286876345 	2.082294504e-07 	0.005573041251 	5.894536829e-07 	1.062376557e-05
0.939151752 	0.003246144661 	0.00288385818 	2.226456949e-07 	0.005464709482 	5.266261834e-07 	1.041725511e-05
0.9495071738 	0.003365395776 	0.002889922645 	2.697454659e-07 	0.005347338654 	5.091014036e-07 	1.019351369e-05
0.9563628554 	0.003461919696 	0.002893583777 	3.35534627e-07 	0.005242507368 	5.327837855e-07 	9.993676123e-06
0.962432965 	0.003542460224 	0.002908556796 	4.238880376e-07 	0.005156978306 	6.017394094e-07 	9.830633959e-06
0.9678072944 	0.003618076767 	0.002924952282 	5.291118033e-07 	0.005080875365 	7.118133021e-07 	9.685560602e-06
0.9725654226 	0.003688043867 	0.00294446686 	6.501776003e-07 	0.005016205753 	8.622070613e-07 	9.562282347e-06
0.9767778614 	0.003750440459 	0.002964410272 	7.831760135e-07 	0.004961228518 	1.048836604e-06 	9.457480457e-06
0.9805070848 	0.003799800886 	0.002979686826 	9.21487389e-07 	0.004909381203 	1.262493685e-06 	9.358645065e-06
0.9838084378 	0.003821734133 	0.002981712647 	1.053521332e-06 	0.004848754803 	1.48386496e-06 	9.243074296e-06
0.9867309446 	0.00378993061 	0.002944728791 	1.157617681e-06 	0.004738959816 	1.672147934e-06 	9.033774534e-06
0.9893180269 	0.003645033229 	0.002851721281 	1.199337921e-06 	0.004515251485 	1.754478659e-06 	8.60732428e-06
0.9916081409 	0.003251990022 	0.002553209252 	1.081555312e-06 	0.003992668069 	1.594803184e-06 	7.611135045e-06
0.9930959046 	0.002554442674 	0.00198422994 	7.598547451e-07 	0.003105207952 	1.155627717e-06 	5.919389404e-06
0.9945837944 	0.001465828634 	0.001065112305 	3.422292726e-07 	0.001743857258 	5.756668766e-07 	3.324276614e-06
0.9960718106 	0.000431429834 	0.0002461226153 	6.708137696e-08 	0.0004829918126 	1.525260789e-07 	9.207166355e-07
0.9975599529 	3.498772044e-05 	8.101487659e-06 	3.931979342e-09 	3.559952935e-05 	1.827783296e-08 	6.786259731e-08
0.9990482216 	3.268024291e-07 	7.987849504e-09 	9.050573642e-12 	3.262272774e-07 	3.145698147e-10 	6.218798608e-10
0.9990482216 	3.268024291e-07 	7.987849504e-09 	9.050573642e-12 	3.262272774e-07 	3.145698147e-10 	6.218798608e-10
