0.470659737 	1.093989497e-06 	-3.190015169e-08 	-8.526847184e-15 	1.092498493e-06 	1.133184032e-12 	2.082605771e-09
0.470659737 	1.093989497e-06 	-3.190015169e-08 	-8.526847189e-15 	1.092498493e-06 	1.133184032e-12 	2.082605771e-09
0.4716964622 	8.842011002e-05 	-2.129636601e-05 	1.87010183e-10 	9.02750958e-05 	-3.472025996e-10 	1.720894233e-07
0.4727331945 	0.0009222690434 	-0.0005210792675 	5.180911095e-09 	0.001033606243 	-4.52018271e-09 	1.970340775e-06
0.4737699337 	0.00296720995 	-0.002131959323 	1.353440441e-08 	0.003522528392 	-4.84095453e-09 	6.714918151e-06
0.4748066793 	0.005120597991 	-0.003931710356 	1.329545569e-08 	0.00619333917 	7.702194629e-09 	1.180622581e-05
0.4758434311 	0.006610503552 	-0.005112223046 	7.820389192e-09 	0.008028192264 	2.328249843e-08 	1.530396578e-05
0.4774394867 	0.007573426937 	-0.005806123276 	6.335721871e-09 	0.009196166486 	3.23061717e-08 	1.753044926e-05
0.4792427742 	0.008062360027 	-0.006100372169 	8.460874526e-09 	0.0097600826 	3.442228189e-08 	1.860543011e-05
0.4812801995 	0.008293455326 	-0.006254021764 	1.284106319e-08 	0.01002645313 	3.314486228e-08 	1.911320638e-05
0.48358615 	0.008376037471 	-0.006298553489 	1.857383529e-08 	0.0101134051 	3.023686217e-08 	1.927896099e-05
0.486192473 	0.008361802818 	-0.00628186907 	2.549801254e-08 	0.01009803908 	2.677948979e-08 	1.924966909e-05
0.4891372032 	0.008282105897 	-0.006220793618 	3.312295761e-08 	0.01000716526 	2.357966911e-08 	1.907643834e-05
0.4924642826 	0.008152007773 	-0.006125056696 	4.130562073e-08 	0.009858104719 	2.097754475e-08 	1.879228751e-05
0.496230251 	0.007979649114 	-0.005999928612 	5.020153887e-08 	0.009659584402 	1.901679536e-08 	1.841385261e-05
0.5004856092 	0.007770229655 	-0.005842243833 	5.976424679e-08 	0.009414155507 	1.771589218e-08 	1.794599693e-05
0.505296538 	0.007500280559 	-0.005656250678 	7.061836206e-08 	0.009102639718 	1.688071324e-08 	1.735216125e-05
0.512575218 	0.007150281354 	-0.005400321426 	8.411477374e-08 	0.008689111051 	1.728160594e-08 	1.656386068e-05
0.5203808573 	0.006752205116 	-0.00508577595 	9.83541578e-08 	0.008206216259 	1.734059767e-08 	1.564332899e-05
0.5287496252 	0.006337542977 	-0.004761467937 	1.124527614e-07 	0.007700558231 	1.685647036e-08 	1.467940425e-05
0.5377230685 	0.005914791759 	-0.004416953004 	1.264620815e-07 	0.007174385444 	1.496713116e-08 	1.367637267e-05
0.547345261 	0.005490291176 	-0.004055105116 	1.405610636e-07 	0.006636146074 	1.091805886e-08 	1.265033884e-05
0.5576630227 	0.005073236196 	-0.003675745471 	1.549638027e-07 	0.006092207994 	3.744515275e-09 	1.161344168e-05
0.5687261579 	0.004673490593 	-0.003279468817 	1.699611693e-07 	0.005552037445 	-7.642907518e-09 	1.058372648e-05
0.5805877104 	0.004302035078 	-0.002866833846 	1.858553775e-07 	0.005026495821 	-2.44355191e-08 	9.581898077e-06
0.5933042393 	0.00396951511 	-0.002438490868 	2.029224851e-07 	0.004528542421 	-4.773529562e-08 	8.632660499e-06
0.6069361121 	0.003685030835 	-0.001995078243 	2.213121051e-07 	0.004073029292 	-7.813774229e-08 	7.76432587e-06
0.6215479937 	0.003455445812 	-0.001537088997 	2.408885274e-07 	0.00367690649 	-1.15134117e-07 	7.009205713e-06
0.6372107484 	0.003286303143 	-0.001064892778 	2.609799473e-07 	0.003359157586 	-1.56636623e-07 	6.403487988e-06
0.6539962598 	0.003183673722 	-0.000578902352 	2.801898739e-07 	0.003139835542 	-1.99129959e-07 	5.985399216e-06
0.6719847469 	0.003154605728 	-7.972691585e-05 	2.96604691e-07 	0.003037447084 	-2.385482258e-07 	5.790218357e-06
0.6912601121 	0.003204746961 	0.0004317633117 	3.080481417e-07 	0.003065244109 	-2.708461908e-07 	5.843207212e-06
0.7119125193 	0.003335601112 	0.0009546177131 	3.122286837e-07 	0.003228399947 	-2.922482152e-07 	6.154227587e-06
0.7340386155 	0.003541290144 	0.001479181207 	3.065202553e-07 	0.003518027847 	-2.997944597e-07 	6.706338862e-06
0.7561688545 	0.003802477271 	0.001979068539 	2.903158052e-07 	0.003899524605 	-2.934575704e-07 	7.433577714e-06
0.7768330656 	0.004094199882 	0.002433331976 	2.667249273e-07 	0.004326383687 	-2.771013612e-07 	8.247289763e-06
0.7961274613 	0.004401417399 	0.002841862675 	2.391337449e-07 	0.0047685781 	-2.555476567e-07 	9.090235216e-06
0.814142334 	0.004716647866 	0.003211416983 	2.101950661e-07 	0.005211495473 	-2.324577877e-07 	9.934558831e-06
0.8309622617 	0.005033894016 	0.003547393781 	1.818707759e-07 	0.005646445106 	-2.09889414e-07 	1.076369372e-05
0.8466663774 	0.005348254811 	0.003854115775 	1.554393144e-07 	0.006068241412 	-1.886676214e-07 	1.156775471e-05
0.8613285871 	0.005655897872 	0.004135075835 	1.315993795e-07 	0.00647378982 	-1.689563378e-07 	1.234084269e-05
0.8750179829 	0.005953987176 	0.004393122922 	1.106225896e-07 	0.006861299234 	-1.506429239e-07 	1.307954334e-05
0.8877990797 	0.006240539432 	0.00463060437 	9.24891875e-08 	0.007229809248 	-1.335427969e-07 	1.378202585e-05
0.8997321264 	0.006514225493 	0.00484947058 	7.700889048e-08 	0.007578927068 	-1.174955066e-07 	1.444754144e-05
0.9108733837 	0.006774232835 	0.005051342736 	6.390104281e-08 	0.007908514525 	-1.023968534e-07 	1.507582674e-05
0.9212753826 	0.007019939075 	0.005237594988 	5.285165228e-08 	0.008218801327 	-8.820436173e-08 	1.566731963e-05
0.9309871706 	0.007251066751 	0.00540917471 	4.3545268e-08 	0.008509499952 	-7.491954269e-08 	1.6221472e-05
0.9400545422 	0.007466425216 	0.005567543433 	3.569356205e-08 	0.008781661154 	-6.257933999e-08 	1.67402869e-05
0.9485202539 	0.007665903807 	0.005710388877 	2.902767753e-08 	0.009032329931 	-5.119383275e-08 	1.721813126e-05
0.9564242262 	0.0078456953 	0.005849601783 	2.333741873e-08 	0.009263248786 	-4.088879376e-08 	1.765832677e-05
0.9638037307 	0.007992220738 	0.00594726648 	1.863649178e-08 	0.009447160628 	-3.232917631e-08 	1.800891386e-05
0.9686868836 	0.008094483652 	0.006006077302 	1.529972563e-08 	0.009573029691 	-2.592591242e-08 	1.824885528e-05
0.9730089153 	0.008162266635 	0.006059233361 	1.255977216e-08 	0.009664228999 	-2.112052155e-08 	1.842270651e-05
0.976834303 	0.008204143069 	0.006089741542 	1.008242286e-08 	0.009722856808 	-1.71993991e-08 	1.85344674e-05
0.9802201149 	0.008214297641 	0.006100119412 	7.753099928e-09 	0.009745005294 	-1.41446084e-08 	1.857668858e-05
0.9832168622 	0.008183947452 	0.0060841058 	5.453854665e-09 	0.009720692411 	-1.192473067e-08 	1.853034146e-05
0.9858692517 	0.008097577885 	0.006031492464 	3.100957697e-09 	0.009632185416 	-1.054695618e-08 	1.836162253e-05
0.9882168534 	0.007924454149 	0.005925514846 	6.194048192e-10 	0.009452511886 	-1.004331958e-08 	1.801911485e-05
0.9902946903 	0.007614075608 	0.00571958349 	-1.970624071e-09 	0.009107104036 	-1.03174937e-08 	1.736067148e-05
0.992133761 	0.007062666849 	0.005380509403 	-4.502340162e-09 	0.008481000128 	-1.104424726e-08 	1.616714342e-05
0.9937615021 	0.006072386161 	0.004670188518 	-5.837276475e-09 	0.00729840301 	-1.09413967e-08 	1.391278462e-05
0.9948188447 	0.004607734392 	0.003508315762 	-5.46028657e-09 	0.005514223891 	-9.288593212e-09 	1.051164334e-05
0.9958761879 	0.002595723711 	0.001835581225 	-3.739178332e-09 	0.003045717948 	-6.181763089e-09 	5.805984923e-06
0.9969335318 	0.0007782703016 	0.0004245120439 	-1.358120049e-09 	0.0008608282007 	-2.409244182e-09 	1.640977805e-06
0.9979908764 	7.271185174e-05 	1.636172165e-05 	-1.066895154e-10 	7.383753533e-05 	-3.157671076e-10 	1.407548644e-07
0.9990482216 	9.573422756e-07 	2.545097882e-08 	-3.20786296e-13 	9.556617491e-07 	-6.741647093e-12 	1.821756906e-09
