0.3809068052 	0.07204146598 	0.009636469473 	-1.828043583e-05
0.3819639198 	0.2779648639 	0.03624106213 	-7.114191592e-05
0.3830211992 	0.5362588431 	0.06856109512 	-0.0001373733861
0.3840785339 	0.7419526475 	0.09436824511 	-0.0001908311952
0.385135815 	0.8792433801 	0.1121465559 	-0.0002274529207
0.3861929345 	0.97677388 	0.1245513294 	-0.000254273469
0.3878197712 	1.057172507 	0.134340606 	-0.0002803670593
0.3896565669 	1.120178582 	0.1416966547 	-0.0003038731093
0.3917295634 	1.169147126 	0.1471224072 	-0.0003250294806
0.394067843 	1.208267275 	0.1512102189 	-0.0003444140448
0.396755554 	1.239796889 	0.154161801 	-0.0003624469811
0.3998076713 	1.26477428 	0.1560752664 	-0.0003788529145
0.4032493224 	1.284011264 	0.157014294 	-0.0003938999849
0.4071295106 	1.298464203 	0.1571067089 	-0.0004084016062
0.4115792059 	1.309212334 	0.1564618671 	-0.0004233391902
0.4166308648 	1.317733584 	0.1550300346 	-0.000410889024
0.4242899957 	1.324370613 	0.1526214126 	-0.0003644877252
0.4325944199 	1.328551018 	0.1494290577 	-0.0003174340912
0.4415815424 	1.330668642 	0.1457528047 	-0.0002712825324
0.4512802035 	1.331254465 	0.1416916399 	-0.0002267419238
0.4617756613 	1.330664231 	0.1372887949 	-0.0001841462537
0.4731719825 	1.329114212 	0.1325720947 	-0.0001438323275
0.485500853 	1.326735354 	0.1275752481 	-0.0001065376115
0.4988448325 	1.323585456 	0.1223072723 	-7.281984666e-05
0.5132858996 	1.319690558 	0.1168059384 	-4.26635481e-05
0.5289386969 	1.314965765 	0.1110876605 	-1.640284313e-05
0.5418282751 	1.31051879 	0.1064603839 	-9.224139786e-05
0.5458547894 	1.309117171 	0.105017655 	-4.606125933e-06
0.5640944687 	1.302001421 	0.09856992158 	-2.033982685e-05
0.5838275065 	1.293926689 	0.0918771342 	-3.141406385e-05
0.605107761 	1.285183091 	0.08505727103 	-3.880193302e-05
0.6280406075 	1.275842525 	0.07816499392 	-4.29305919e-05
0.6527238598 	1.265791344 	0.07117017647 	-4.353803029e-05
0.6792545965 	1.255090186 	0.06423949646 	-4.14688423e-05
0.7058458787 	1.244046817 	0.05771197057 	-3.811527888e-05
0.7307074168 	1.232841163 	0.05178110019 	-3.383134602e-05
0.7539388743 	1.221453753 	0.04646963173 	-2.923609928e-05
0.7756407309 	1.20990132 	0.04170600507 	-2.501941224e-05
0.7959110465 	1.198251253 	0.03739229105 	-2.120718296e-05
0.8148439719 	1.18656783 	0.03346838757 	-1.784127156e-05
0.8325271295 	1.174896362 	0.0298859037 	-1.491806997e-05
0.8490433661 	1.163258742 	0.0266056766 	-1.240810754e-05
0.8644696653 	1.151651576 	0.02359454879 	-1.026995241e-05
0.878878094 	1.140044751 	0.02082408204 	-8.45681264e-06
0.8923357983 	1.128378067 	0.01827008867 	-6.923740184e-06
0.9049053983 	1.116554855 	0.01591230012 	-5.629920957e-06
0.9166453775 	1.104430271 	0.0137327935 	-4.539618363e-06
0.9276103354 	1.091792042 	0.01171828494 	-3.621642155e-06
0.9378512652 	1.078319976 	0.00985194756 	-2.850458854e-06
0.9474158034 	1.063543001 	0.008130940239 	-2.203200432e-06
0.9563484579 	1.047888256 	0.006655395241 	-1.683102754e-06
0.9622608402 	1.03280405 	0.0055153447 	-1.334408472e-06
0.9674948231 	1.017656702 	0.004608812031 	-1.065417332e-06
0.9721281468 	1.00084582 	0.003824070974 	-8.441792364e-07
0.9762296655 	0.9817980904 	0.003142892496 	-6.626401291e-07
0.9798603561 	0.9597771773 	0.002556655719 	-5.138758987e-07
0.9830742178 	0.9337768806 	0.002049098133 	-3.927822568e-07
0.9859190669 	0.9023397552 	0.001611864181 	-2.951886857e-07
0.988437243 	0.8631400827 	0.001178637646 	-2.186851991e-07
0.990666234 	0.81240769 	0.0007903004794 	-1.57196752e-07
0.992639231 	0.7470222379 	0.0005655996237 	-1.056312496e-07
0.9939209151 	0.6670372627 	0.0006214335977 	-6.462000038e-08
0.9952026562 	0.556143568 	0.0006613517815 	-3.632849713e-08
0.9964844543 	0.3976754005 	0.0001509017273 	-2.177479586e-08
0.9977663094 	0.2059047417 	-0.0002814403233 	-3.637913234e-09
0.9990482216 	0.05875303476 	-0.0001613104503 	5.280745287e-09
0.9990482216 	0.05875303476 	-0.0001613104503 	5.280745287e-09
