0.1768325896 	0.1237238171 	0.06142039327 	-0.0008158597438
0.1785907938 	0.4503649591 	0.2170906227 	-0.002531651981
0.1803486209 	0.7712576584 	0.3602599291 	-0.00345236491
0.1821054395 	0.9394289288 	0.4268923984 	-0.003325242013
0.1838606252 	1.009201597 	0.4486106455 	-0.003007426522
0.1856135605 	1.042143867 	0.4538806443 	-0.002744232616
0.1883063411 	1.062501887 	0.4521460472 	-0.002447474415
0.191337819 	1.076114483 	0.4463746419 	-0.002151374137
0.1947451987 	1.086730985 	0.438218435 	-0.00184669982
0.1985670993 	1.095644703 	0.4276922892 	-0.001520856763
0.2029500116 	1.103406926 	0.4156805261 	-0.001195169358
0.2079040511 	1.110278969 	0.4031770381 	-0.0008990462473
0.2134522109 	1.11641001 	0.3894154365 	-0.0006252040674
0.2196601811 	1.121655348 	0.3743867126 	-0.0003745622888
0.2267486692 	1.126287844 	0.3586488337 	-0.0001534102085
0.2332577037 	1.129984338 	0.3441301308 	-0.0002052555333
0.234647839 	1.130586306 	0.340784076 	-2.915720327e-05
0.245957996 	1.134774319 	0.3192483227 	-0.0002200273273
0.2581327455 	1.139048838 	0.2971050275 	-0.0003496831236
0.2712030149 	1.143181211 	0.2760499556 	-0.0004217652738
0.2851802459 	1.147012905 	0.2563585034 	-0.0004437438714
0.3001737618 	1.150526097 	0.2375594578 	-0.0004226411196
0.3163208608 	1.153464674 	0.2197999655 	-0.0003657703566
0.3336263772 	1.155733572 	0.2031964204 	-0.0002090081986
0.3521814245 	1.157349094 	0.1872406973 	-9.913606954e-05
0.3720724044 	1.158026305 	0.1724299341 	-3.163920908e-05
0.3934380589 	1.157898074 	0.1582261658 	2.761666423e-06
0.4163236383 	1.15679163 	0.1447486743 	1.391910212e-05
0.4408019705 	1.154716534 	0.1320464952 	9.680412217e-06
0.4622799629 	1.15228719 	0.1220395566 	-0.0001534919655
0.4669995683 	1.151739772 	0.1197290942 	-2.173688147e-07
0.4948343623 	1.147885774 	0.107859414 	2.814519225e-06
0.5246517747 	1.143062933 	0.09661522393 	9.792389276e-06
0.5565711163 	1.137046275 	0.08609596684 	1.681638994e-05
0.5907153384 	1.12958921 	0.07629014347 	2.25286185e-05
0.6248041875 	1.120737749 	0.06736315662 	2.680406118e-05
0.6565865215 	1.110927473 	0.05956216449 	2.790811222e-05
0.6862306008 	1.100520446 	0.05286675346 	2.631005576e-05
0.7138920104 	1.089639428 	0.04706748735 	2.370417463e-05
0.7397136074 	1.078317422 	0.04198494321 	2.073502526e-05
0.7638267275 	1.066577562 	0.03748540258 	1.775197754e-05
0.7863495136 	1.054444744 	0.03346822435 	1.492038853e-05
0.8073911058 	1.041949363 	0.02985485502 	1.234005324e-05
0.8270511595 	1.029121953 	0.02658357172 	1.005081428e-05
0.845421889 	1.015986823 	0.02360448883 	8.062405598e-06
0.8625884684 	1.002553788 	0.02087721624 	6.364423006e-06
0.8786299155 	0.9888082145 	0.01836886717 	4.936657086e-06
0.8936198082 	0.9746980946 	0.01605168905 	3.753567061e-06
0.9076267231 	0.9601170655 	0.0139040333 	2.787955518e-06
0.9207146719 	0.9448746264 	0.01190390305 	2.011785436e-06
0.9329434662 	0.9286675996 	0.01004221718 	1.399343084e-06
0.9443690234 	0.9122286206 	0.008421776161 	9.462152237e-07
0.9519339113 	0.897146734 	0.007148231674 	6.690558154e-07
0.9586324528 	0.8827149449 	0.006114123836 	4.738274811e-07
0.9645635659 	0.8674269861 	0.005198255703 	3.277638808e-07
0.9698149412 	0.8508552043 	0.004383792331 	2.189888806e-07
0.9744642952 	0.8324213735 	0.003661806135 	1.388211523e-07
0.9785804997 	0.8112981463 	0.003017707048 	8.05304802e-08
0.9822245787 	0.7862510578 	0.00244656123 	3.861089407e-08
0.9854505955 	0.7552737897 	0.001890948479 	8.820548499e-09
0.9883064419 	0.7151069541 	0.001381485246 	-1.042113296e-08
0.9908345383 	0.66268977 	0.001000218918 	-1.260493928e-08
0.9924769413 	0.5973037831 	0.0009040210289 	-9.516641076e-09
0.9941195111 	0.5032811542 	0.0008751358057 	-1.724926297e-08
0.9957622477 	0.3631812571 	0.0002983549623 	-1.405865384e-08
0.9974051512 	0.1890858224 	-0.0002421162174 	-3.646654444e-09
0.9990482216 	0.05415171853 	-0.0001675994582 	-1.118612318e-09
