0.3440231802 	4.416382754e-07 	-6.971435624e-09 	2.127505542e-11 	4.484274712e-07 	-6.688904973e-10 	8.54827394e-10
0.3453619003 	4.13400101e-05 	-7.30988858e-06 	1.606143142e-08 	4.984713417e-05 	-5.558834144e-08 	9.502249201e-08
0.346700708 	0.0004128086775 	-0.0002336460684 	3.563192446e-07 	0.0007242798386 	-5.607133393e-07 	1.380678676e-06
0.348039379 	0.001333176599 	-0.001117542581 	1.119345183e-06 	0.002901579749 	-9.955791715e-07 	5.531217454e-06
0.3493776909 	0.002394246521 	-0.002261881286 	1.510775726e-06 	0.005568784757 	-3.057910189e-07 	1.061565151e-05
0.3507154234 	0.003268860063 	-0.00313628412 	1.328659922e-06 	0.007572772555 	1.051295646e-06 	1.443580923e-05
0.3527731822 	0.003972628278 	-0.003752723942 	9.011524544e-07 	0.008923606013 	2.311950106e-06 	1.701087325e-05
0.3550948411 	0.004467013679 	-0.00414293691 	3.398704441e-07 	0.009641130527 	3.307473857e-06 	1.83786744e-05
0.3577124116 	0.004802017167 	-0.004423432726 	-1.831506276e-07 	0.009985046423 	3.936466084e-06 	1.903427368e-05
0.3606824659 	0.005045964197 	-0.004598910762 	-6.2776879e-07 	0.01005209269 	4.236062466e-06 	1.91620825e-05
0.3640355815 	0.005222272228 	-0.004703058862 	-9.774111712e-07 	0.009938205355 	4.286173042e-06 	1.894498159e-05
0.3678149006 	0.005350748333 	-0.004758418721 	-1.230833949e-06 	0.009691681757 	4.144137062e-06 	1.847503909e-05
0.3720736319 	0.005447179731 	-0.004770150103 	-1.387208407e-06 	0.009335435132 	3.842640681e-06 	1.779593401e-05
0.3769056112 	0.005520515022 	-0.00474725834 	-1.448409657e-06 	0.008890856258 	3.414579012e-06 	1.694844311e-05
0.3823489685 	0.005579753057 	-0.004692625118 	-1.422226931e-06 	0.008372600604 	2.901856669e-06 	1.59605038e-05
0.3884922639 	0.005625917577 	-0.004614833688 	-1.320545336e-06 	0.007755399485 	2.336778617e-06 	1.478394692e-05
0.3977735322 	0.00566742418 	-0.004490229191 	-1.046220063e-06 	0.007001391199 	1.586626971e-06 	1.334659756e-05
0.4077064413 	0.005698927157 	-0.004326105608 	-7.02820548e-07 	0.006196404109 	9.140919746e-07 	1.181206843e-05
0.4183256322 	0.005709276218 	-0.00415211457 	-2.993796973e-07 	0.005426242431 	3.408217079e-07 	1.034392622e-05
0.4261058455 	0.005703685971 	-0.004020448808 	3.954018476e-06 	0.004922822084 	-1.167945881e-05 	9.38426712e-06
0.4296566751 	0.005700749272 	-0.003959799609 	-1.238163444e-07 	0.004692218604 	8.267818925e-08 	8.944672794e-06
0.441725473 	0.005670931472 	-0.003748426562 	-5.404049292e-07 	0.00399895012 	3.144971574e-07 	7.623110379e-06
0.4546437824 	0.005620314283 	-0.003514955637 	-9.815308827e-07 	0.003345916821 	5.196799767e-07 	6.378247411e-06
0.4684694852 	0.005549788131 	-0.003257095106 	-1.429273903e-06 	0.002738340025 	7.197484782e-07 	5.220037169e-06
0.483263504 	0.005461304919 	-0.002972817361 	-1.863781463e-06 	0.002184648829 	9.301166093e-07 	4.164547859e-06
0.4990904661 	0.005358502302 	-0.002659091192 	-2.258141693e-06 	0.001696037843 	1.149512651e-06 	3.233119518e-06
0.5160194649 	0.005247299787 	-0.002314147201 	-2.577633651e-06 	0.001286801657 	1.345284785e-06 	2.453001605e-06
0.534125736 	0.005138862643 	-0.001935960735 	-2.805470827e-06 	0.0009612909493 	1.469690156e-06 	1.832487726e-06
0.5534985534 	0.005059716859 	-0.001529468954 	-2.876210099e-06 	0.0007027565087 	1.478902973e-06 	1.339649227e-06
0.5742165405 	0.005042749687 	-0.001106046895 	-2.7353848e-06 	0.0004971624406 	1.225297598e-06 	9.477297909e-07
0.5963809076 	0.005110962696 	-0.0006705870854 	-2.475585385e-06 	0.0003468318745 	6.949145988e-07 	6.611579497e-07
0.6200931186 	0.005276150938 	-0.0002177515281 	-2.203078453e-06 	0.0002727858177 	1.42076738e-07 	5.200055855e-07
0.6454657031 	0.005546629812 	0.0002669854972 	-1.982133809e-06 	0.0002965183385 	-2.841953374e-07 	5.652463662e-07
0.6726223762 	0.005926816214 	0.000787657945 	-1.864300897e-06 	0.0004058215621 	-5.987762279e-07 	7.736086897e-07
0.6997690552 	0.00637851551 	0.001330414656 	-1.782626902e-06 	0.0005840658033 	-8.338592631e-07 	1.113391754e-06
0.7251139532 	0.006811775454 	0.001853432769 	-1.710292301e-06 	0.0008761777693 	-9.050101428e-07 	1.670238349e-06
0.7487832758 	0.007160529409 	0.00233294716 	-1.555440632e-06 	0.001329790647 	-8.399184871e-07 	2.534950569e-06
0.7708923052 	0.007434138467 	0.002783494187 	-1.305605869e-06 	0.001902129937 	-7.42171332e-07 	3.62598833e-06
0.7915468462 	0.007663964692 	0.003205928008 	-1.050505403e-06 	0.002525772351 	-6.273315934e-07 	4.814824103e-06
0.8108444999 	0.007864577243 	0.003593790435 	-8.087481613e-07 	0.003163599404 	-5.119468235e-07 	6.030699741e-06
0.8288752071 	0.008044082096 	0.003948788708 	-6.000594032e-07 	0.003794415083 	-4.052073046e-07 	7.233209751e-06
0.8457226162 	0.008205796466 	0.004273087 	-4.297660057e-07 	0.004408380681 	-3.116055042e-07 	8.403598825e-06
0.8614643852 	0.008351278578 	0.004569100385 	-2.969656726e-07 	0.005000311029 	-2.32877705e-07 	9.531982586e-06
0.8761728768 	0.008481124552 	0.004838906205 	-1.973473612e-07 	0.005567565425 	-1.689389304e-07 	1.061332712e-05
0.8899155937 	0.008595313808 	0.005084018268 	-1.25319262e-07 	0.006108684963 	-1.186167108e-07 	1.164485136e-05
0.9027555604 	0.00869313326 	0.005305238473 	-7.517848596e-08 	0.006622703098 	-8.00168517e-08 	1.262471279e-05
0.9147516662 	0.008773260948 	0.005502234304 	-4.166457184e-08 	0.007107808323 	-5.077874757e-08 	1.354945818e-05
0.9259589634 	0.008832597498 	0.005674257536 	-2.007523007e-08 	0.007562195926 	-2.830293901e-08 	1.441564724e-05
0.9364289334 	0.008867042085 	0.005815821334 	-6.026887074e-09 	0.007979457155 	-9.685901747e-09 	1.521106311e-05
0.9418620584 	0.008867602304 	0.005880413598 	1.071152235e-06 	0.008187454378 	5.597182277e-06 	1.560756363e-05
0.9462086608 	0.008867991792 	0.005932135265 	-2.729354567e-09 	0.008353978985 	-2.089980616e-09 	1.592500581e-05
0.9553436498 	0.008825751011 	0.00598815531 	-1.236278672e-08 	0.008644826867 	-1.087376993e-08 	1.647944271e-05
0.961391458 	0.008749055045 	0.005991776065 	-2.538755284e-08 	0.008831133759 	-2.495615874e-08 	1.683459543e-05
0.9667463238 	0.008644128375 	0.005974752301 	-4.397498891e-08 	0.008943616555 	-4.683983368e-08 	1.70490189e-05
0.971487438 	0.008502623691 	0.005921005189 	-6.759872964e-08 	0.008992530762 	-7.718136202e-08 	1.714226298e-05
0.9756849854 	0.008319508821 	0.005834143975 	-9.527543798e-08 	0.008974683832 	-1.151169683e-07 	1.710824177e-05
0.9794011587 	0.00808821319 	0.005710895334 	-1.250010545e-07 	0.008883338207 	-1.58414381e-07 	1.693411162e-05
0.9826910629 	0.007798648478 	0.005546497758 	-1.545722685e-07 	0.008706856743 	-2.037492201e-07 	1.65976889e-05
0.9856035161 	0.007430280492 	0.005332546369 	-1.803725349e-07 	0.008429376125 	-2.457670705e-07 	1.606873372e-05
0.9881817623 	0.006950573498 	0.005036117735 	-1.970981312e-07 	0.007999406228 	-2.757752565e-07 	1.524909159e-05
0.9904641044 	0.006291797534 	0.004646324801 	-1.975821058e-07 	0.007343734768 	-2.795763972e-07 	1.399919955e-05
0.9924844658 	0.00532883943 	0.003993659137 	-1.660961915e-07 	0.00627353028 	-2.356609213e-07 	1.195909235e-05
0.993796989 	0.004038410282 	0.003023043172 	-9.122414301e-08 	0.004764995101 	-1.375250501e-07 	9.083405024e-06
0.9951096262 	0.002278076327 	0.00160037531 	-1.597933623e-08 	0.002652255348 	-3.678065892e-08 	5.05593585e-06
0.9964223774 	0.0006727733975 	0.0003670602377 	6.055795462e-09 	0.0007422460356 	8.876327893e-10 	1.41492724e-06
0.9977352425 	5.734733776e-05 	1.221875738e-05 	-7.877931064e-11 	5.810734831e-05 	-1.581276189e-09 	1.10768756e-07
0.9990482216 	6.10820017e-07 	1.319425173e-08 	-1.614204396e-12 	6.096733677e-07 	-6.448054439e-11 	1.162206889e-09
0.9990482216 	6.10820017e-07 	1.319425173e-08 	-1.614204396e-12 	6.096733677e-07 	-6.448054439e-11 	1.162206889e-09
