0.4709558481 	1.106624254e-06 	-3.236584219e-08 	4.967864235e-13 	1.104728398e-06 	-1.375748679e-11 	2.10591937e-09
0.4709558481 	1.106624254e-06 	-3.236584219e-08 	4.967864235e-13 	1.104728398e-06 	-1.375748679e-11 	2.10591937e-09
0.4720092239 	9.050904309e-05 	-2.200760856e-05 	3.395150639e-10 	9.218729941e-05 	-1.157159038e-09 	1.757346148e-07
0.4730625996 	0.0009490021332 	-0.0005387217419 	7.219227315e-09 	0.001058381273 	-1.274473178e-08 	2.017568869e-06
0.4741159754 	0.003036269087 	-0.002179143106 	2.276131909e-08 	0.003577521979 	-3.562980268e-08 	6.819751213e-06
0.4751693511 	0.005208043567 	-0.003983255185 	3.378593684e-08 	0.006243849982 	-5.196123604e-08 	1.190251345e-05
0.4762227269 	0.006694065193 	-0.005150520282 	3.796938104e-08 	0.008054236887 	-5.873349749e-08 	1.535361407e-05
0.4778443634 	0.007654261887 	-0.005838867298 	4.104536225e-08 	0.009206047098 	-6.228357419e-08 	1.754928446e-05
0.4796765386 	0.008144820005 	-0.006133996294 	4.258978226e-08 	0.009763173813 	-6.26822382e-08 	1.861132282e-05
0.4817465869 	0.008379745225 	-0.006292175759 	4.311616391e-08 	0.01002751953 	-6.118648692e-08 	1.911523923e-05
0.4840853915 	0.008466065913 	-0.00634253393 	4.229907048e-08 	0.01011368998 	-5.837703676e-08 	1.927950406e-05
0.4867278453 	0.008454543604 	-0.006332604636 	4.043275215e-08 	0.0100973489 	-5.521084113e-08 	1.924835341e-05
0.4897133715 	0.008375913948 	-0.006278261616 	3.789464656e-08 	0.01000412449 	-5.242657989e-08 	1.907064178e-05
0.4930865115 	0.008244962217 	-0.006188855135 	3.513017072e-08 	0.009850994525 	-5.046552254e-08 	1.877873351e-05
0.4968975894 	0.008069761015 	-0.006069717878 	3.26017538e-08 	0.009646862289 	-4.929237155e-08 	1.838960073e-05
0.5012034633 	0.007855350483 	-0.005917650424 	3.060978978e-08 	0.009394621448 	-4.840915752e-08 	1.790875958e-05
0.506068373 	0.007577769302 	-0.00573712008 	2.924817071e-08 	0.009074414686 	-4.664039098e-08 	1.72983565e-05
0.5134203412 	0.007216491341 	-0.005486553299 	2.813125936e-08 	0.008650134355 	-4.14748589e-08 	1.648956026e-05
0.5212948542 	0.006804609251 	-0.00517673649 	2.644472387e-08 	0.008156414073 	-3.122187278e-08 	1.554839218e-05
0.529729052 	0.006375121035 	-0.004856122978 	2.316623646e-08 	0.007641239371 	-1.644282532e-08 	1.456632601e-05
0.5387627144 	0.005937212808 	-0.004514476093 	1.738779004e-08 	0.007107699957 	1.332664942e-09 	1.35492516e-05
0.5484384488 	0.005498201964 	-0.004154933695 	8.7449235e-09 	0.006564958253 	1.988417099e-08 	1.251463507e-05
0.5588018907 	0.005068294854 	-0.003777533029 	-2.635181854e-09 	0.006020269674 	3.665245733e-08 	1.147630725e-05
0.5699019192 	0.00465832091 	-0.003383107809 	-1.621857272e-08 	0.005483989719 	4.92276142e-08 	1.04540086e-05
0.5817908876 	0.004279947083 	-0.002972438943 	-3.123153689e-08 	0.00496773813 	5.574405627e-08 	9.469889588e-06
0.5945248701 	0.003943960347 	-0.002546379643 	-4.682469186e-08 	0.004484935676 	5.507343725e-08 	8.549533922e-06
0.6081639266 	0.003658913951 	-0.002105712625 	-6.223807742e-08 	0.004050426633 	4.671054303e-08 	7.721238919e-06
0.6227723857 	0.003430550555 	-0.001650999126 	-7.685166211e-08 	0.003680561477 	3.047025971e-08 	7.016173134e-06
0.638419148 	0.003263061223 	-0.001182527392 	-9.017916595e-08 	0.003393052018 	6.416088733e-09 	6.468100197e-06
0.6551780116 	0.003161315459 	-0.0007003596716 	-1.019267795e-07 	0.003206060861 	-2.4606159e-08 	6.111643079e-06
0.6731280194 	0.003131497037 	-0.0002044658673 	-1.120502133e-07 	0.003135820468 	-6.011209774e-08 	5.977745368e-06
0.6923538328 	0.003178773219 	0.0003051509584 	-1.207480335e-07 	0.003193205207 	-9.582277616e-08 	6.087136631e-06
0.7129461301 	0.003304622563 	0.0008284584695 	-1.283221114e-07 	0.003381247505 	-1.26921578e-07 	6.445597514e-06
0.7350020349 	0.003503697769 	0.001356605871 	-1.347061409e-07 	0.003689332066 	-1.498107154e-07 	7.032892315e-06
0.7570579485 	0.003757589687 	0.001863140113 	-1.393003375e-07 	0.004081856261 	-1.637782557e-07 	7.781152526e-06
0.7776502527 	0.004042170652 	0.00232612886 	-1.418474998e-07 	0.004512881233 	-1.712345419e-07 	8.602805921e-06
0.7968760713 	0.00434285371 	0.002744521761 	-1.424972221e-07 	0.004954122738 	-1.751090551e-07 	9.443934866e-06
0.814826083 	0.004652361638 	0.003124374412 	-1.41347169e-07 	0.005392592744 	-1.77010221e-07 	1.027978056e-05
0.831584949 	0.004964940246 	0.003470575663 	-1.385589785e-07 	0.005820781818 	-1.775063247e-07 	1.109602795e-05
0.8472317127 	0.005275907422 	0.003787090821 	-1.343441859e-07 	0.006234276384 	-1.766866478e-07 	1.188426352e-05
0.8618401721 	0.005581537436 	0.00407717134 	-1.289348266e-07 	0.006630473346 	-1.744956104e-07 	1.263952504e-05
0.8754792281 	0.00587897158 	0.004343512197 	-1.225468243e-07 	0.007007887452 	-1.708646638e-07 	1.335898123e-05
0.8882132094 	0.006166106127 	0.004588373878 	-1.153588813e-07 	0.007365744985 	-1.657447425e-07 	1.404115714e-05
0.9001021759 	0.006441437358 	0.004813671246 	-1.0750499e-07 	0.00770376868 	-1.591046369e-07 	1.468552426e-05
0.9112022019 	0.006703963096 	0.005021030462 	-9.907501887e-08 	0.008021897047 	-1.509263034e-07 	1.529196534e-05
0.9215656407 	0.006952880762 	0.005211861527 	-9.011875027e-08 	0.008320423648 	-1.412095379e-07 	1.586104001e-05
0.9312413717 	0.007187762196 	0.005387175011 	-8.065105622e-08 	0.008599116817 	-1.299723493e-07 	1.639230665e-05
0.9402750304 	0.0074072954 	0.005548510782 	-7.06612883e-08 	0.008859096233 	-1.172608994e-07 	1.688789968e-05
0.9487092242 	0.007611300658 	0.005693662512 	-6.011620375e-08 	0.009097459153 	-1.031047542e-07 	1.734228565e-05
0.9565837329 	0.007795882108 	0.005834625769 	-4.90061105e-08 	0.00931612391 	-8.756097114e-08 	1.775912145e-05
0.9639356968 	0.007947193526 	0.005933569663 	-3.818086526e-08 	0.009488798564 	-7.187079041e-08 	1.808828734e-05
0.9688006083 	0.008053634226 	0.005993226815 	-2.891312432e-08 	0.009605508778 	-5.799981264e-08 	1.831076944e-05
0.9731064834 	0.008125157043 	0.006047081398 	-2.090213101e-08 	0.009689214363 	-4.560477093e-08 	1.847033555e-05
0.976917562 	0.008170761145 	0.006078314638 	-1.34997468e-08 	0.009741236192 	-3.367381927e-08 	1.856950362e-05
0.9802907021 	0.008184659481 	0.006089528096 	-6.838001211e-09 	0.009757751312 	-2.236646602e-08 	1.860098603e-05
0.9832762282 	0.008158137117 	0.006074549214 	-1.024576991e-09 	0.009728808962 	-1.187332651e-08 	1.854581386e-05
0.9859186816 	0.008075734433 	0.006023219548 	3.85320111e-09 	0.009636711086 	-2.442833313e-09 	1.837024972e-05
0.9882574856 	0.007906726731 	0.005918808034 	7.709735236e-09 	0.009454518236 	5.639024266e-09 	1.80229395e-05
0.990327533 	0.007600501286 	0.005714686611 	1.050162967e-08 	0.00910762166 	1.20688586e-08 	1.736165822e-05
0.9921597073 	0.007052895841 	0.00537733538 	1.228353389e-08 	0.008480617715 	1.660501997e-08 	1.616641443e-05
0.9937813429 	0.006065103894 	0.004667629204 	1.273848472e-08 	0.007296604539 	1.848811963e-08 	1.390935624e-05
0.9948347186 	0.004601459559 	0.003504814468 	1.193327313e-08 	0.005510155769 	1.762752985e-08 	1.050388836e-05
0.9958880943 	0.002591482806 	0.001832620407 	7.937746844e-09 	0.003041779658 	1.214689906e-08 	5.798477446e-06
0.9969414701 	0.0007770355504 	0.0004236952401 	2.378033319e-09 	0.0008595467842 	4.183092129e-09 	1.638535069e-06
0.9979948458 	7.271926718e-05 	1.637639479e-05 	1.036947157e-10 	7.385043487e-05 	3.686987717e-10 	1.407794545e-07
0.9990482216 	9.735746717e-07 	2.59975828e-08 	1.594702533e-13 	9.718704512e-07 	4.801212972e-12 	1.852655197e-09
