0.4709558481 	1.117379935e-06 	-3.279438899e-08 	1.188708347e-12 	1.115467146e-06 	-2.930476292e-11 	2.126390408e-09
0.4720092239 	9.13861492e-05 	-2.228891251e-05 	7.74037064e-10 	9.30921115e-05 	-2.469103492e-09 	1.774594381e-07
0.4730625996 	0.0009575258888 	-0.0005444307367 	1.557337217e-08 	0.001068230482 	-2.680199596e-08 	2.036344197e-06
0.4741159754 	0.003058359544 	-0.002196214192 	4.615257278e-08 	0.003603966288 	-7.149321525e-08 	6.870161416e-06
0.4751693511 	0.005238656622 	-0.004007090047 	6.38107036e-08 	0.006280467729 	-9.829243403e-08 	1.197231706e-05
0.4762227269 	0.006727010426 	-0.00517542721 	6.601354639e-08 	0.008093218605 	-1.040141169e-07 	1.542792405e-05
0.4778443634 	0.007687498534 	-0.005863801852 	6.552025266e-08 	0.009244962498 	-1.036006889e-07 	1.762346803e-05
0.4796765386 	0.008177021187 	-0.006157953855 	6.254300785e-08 	0.009800182216 	-9.888820954e-08 	1.868187112e-05
0.4817465869 	0.008410140763 	-0.006314892733 	5.915916645e-08 	0.010061803 	-9.269705716e-08 	1.918059305e-05
0.4840853915 	0.008493979921 	-0.006363518921 	5.474600344e-08 	0.01014435967 	-8.483043502e-08 	1.933796902e-05
0.4867278453 	0.00847926198 	-0.006351420963 	4.944738176e-08 	0.01012354725 	-7.538355279e-08 	1.929829476e-05
0.4897133715 	0.008396652269 	-0.006294430391 	4.312630901e-08 	0.01002487767 	-6.406886023e-08 	1.911020311e-05
0.4930865115 	0.008260804963 	-0.006201836392 	3.561689098e-08 	0.009865206334 	-5.063220863e-08 	1.880582516e-05
0.4968975894 	0.008079641098 	-0.006078900386 	2.673469954e-08 	0.009653269575 	-3.474306193e-08 	1.84018148e-05
0.5012034633 	0.007858030397 	-0.005922358632 	1.629439077e-08 	0.009391792989 	-1.60909991e-08 	1.790336775e-05
0.506068373 	0.007571065871 	-0.005735956029 	2.667585463e-09 	0.009059694195 	7.742721957e-09 	1.727029515e-05
0.5134203412 	0.007197337777 	-0.005477578377 	-1.545664413e-08 	0.008619824045 	3.877893221e-08 	1.643178039e-05
0.5212948542 	0.00677121198 	-0.005158615897 	-3.668162725e-08 	0.008108357946 	7.384797853e-08 	1.545678385e-05
0.529729052 	0.006327479324 	-0.004828091324 	-5.959114669e-08 	0.007575213566 	1.089728268e-07 	1.444046248e-05
0.5387627144 	0.005876540491 	-0.004476021204 	-8.360942026e-08 	0.007024634668 	1.416957339e-07 	1.339090607e-05
0.5484384488 	0.005427186894 	-0.004105828916 	-1.080634066e-07 	0.006467162706 	1.691420452e-07 	1.232820957e-05
0.5588018907 	0.004991136679 	-0.003717933564 	-1.320930409e-07 	0.00591157659 	1.882439919e-07 	1.126910802e-05
0.5699019192 	0.004580431874 	-0.003313590835 	-1.54794419e-07 	0.005369664621 	1.962675842e-07 	1.023607319e-05
0.5817908876 	0.004207216849 	-0.002893995911 	-1.753102926e-07 	0.004854143695 	1.913084306e-07 	9.253347022e-06
0.5945248701 	0.003881709439 	-0.002460356292 	-1.929562711e-07 	0.004378982091 	1.726272814e-07 	8.34755694e-06
0.6081639266 	0.003610959202 	-0.002013689365 	-2.07339681e-07 	0.00395893029 	1.40668742e-07 	7.54682146e-06
0.6227723857 	0.003398904572 	-0.001554666354 	-2.182920671e-07 	0.003609627802 	9.690956586e-08 	6.880953834e-06
0.638419148 	0.003248359713 	-0.001083605407 	-2.257747991e-07 	0.003347478171 	4.392471399e-08 	6.381223778e-06
0.6551780116 	0.003163325038 	-0.000600556252 	-2.298145257e-07 	0.003188669088 	-1.420646461e-08 	6.078489527e-06
0.6731280194 	0.003148991009 	-0.0001054588724 	-2.304657705e-07 	0.003146787069 	-7.170310615e-08 	5.998650757e-06
0.6923538328 	0.003209060632 	0.0004017305117 	-2.278171169e-07 	0.00322975493 	-1.219518068e-07 	6.15681056e-06
0.7129461301 	0.00334366428 	0.0009210401322 	-2.21980898e-07 	0.003438077366 	-1.593547658e-07 	6.553931024e-06
0.7350020349 	0.003546947385 	0.001443797708 	-2.132116242e-07 	0.003759508346 	-1.807779708e-07 	7.166667809e-06
0.7570579485 	0.003801120328 	0.001944049937 	-2.022571778e-07 	0.004158266133 	-1.870500637e-07 	7.926810979e-06
0.7776502527 	0.004083432498 	0.002400459619 	-1.902254166e-07 	0.00458998593 	-1.829774205e-07 	8.749788903e-06
0.7968760713 	0.004380532692 	0.002812321907 	-1.779232206e-07 	0.005028483138 	-1.738330909e-07 	9.585686456e-06
0.814826083 	0.004685956655 	0.00318587149 	-1.657890358e-07 	0.00546236962 	-1.631397787e-07 	1.041279468e-05
0.831584949 	0.004994499709 	0.003526107629 	-1.540917338e-07 	0.005885204623 	-1.52900529e-07 	1.121883572e-05
0.8472317127 	0.005301822457 	0.003837040003 	-1.429314011e-07 	0.006293236579 	-1.440556089e-07 	1.199665803e-05
0.8618401721 	0.005604355304 	0.004121908845 	-1.322665234e-07 	0.00668421504 	-1.36820602e-07 	1.274197165e-05
0.8754792281 	0.005899240353 	0.004383359076 	-1.219525497e-07 	0.007056778778 	-1.309292658e-07 	1.345218168e-05
0.8882132094 	0.006184264627 	0.004623580947 	-1.117875139e-07 	0.007410122057 	-1.258205602e-07 	1.412575218e-05
0.9001021759 	0.006457754157 	0.004844415957 	-1.015577899e-07 	0.007743844597 	-1.207904421e-07 	1.476192009e-05
0.9112022019 	0.006718519326 	0.005047426973 	-9.107824183e-08 	0.008057725006 	-1.15115385e-07 	1.536026339e-05
0.9215656407 	0.006965585891 	0.005233979197 	-8.022315624e-08 	0.008351901691 	-1.081512344e-07 	1.592104591e-05
0.9312413717 	0.007198391778 	0.005405060591 	-6.894514818e-08 	0.008626019471 	-9.94038703e-08 	1.644359059e-05
0.9402750304 	0.007415538731 	0.005562210521 	-5.728531372e-08 	0.008881122791 	-8.857831464e-08 	1.692988842e-05
0.9487092242 	0.007616814103 	0.005703241694 	-4.536459644e-08 	0.009114284679 	-7.558828891e-08 	1.737435978e-05
0.9565837329 	0.007798333546 	0.005840180977 	-3.339808825e-08 	0.009327457624 	-6.056028786e-08 	1.778072666e-05
0.9639356968 	0.007946554401 	0.00593552924 	-2.24454102e-08 	0.00949483751 	-4.507100293e-08 	1.809979925e-05
0.9688006083 	0.008050305085 	0.005992350466 	-1.3703434e-08 	0.00960709051 	-3.150054869e-08 	1.831378466e-05
0.9731064834 	0.008119481264 	0.006043905721 	-6.659874838e-09 	0.00968700392 	-1.977451424e-08 	1.846612183e-05
0.976917562 	0.008162909653 	0.00607313418 	-5.43593747e-10 	0.009735566892 	-9.02091669e-09 	1.855869636e-05
0.9802907021 	0.008174833177 	0.006082622133 	4.674311311e-09 	0.009748983046 	6.091388787e-10 	1.858427128e-05
0.9832762282 	0.008146561789 	0.006066183302 	9.054584887e-09 	0.009717316116 	9.026165694e-09 	1.852390531e-05
0.9859186816 	0.008062654519 	0.006013643916 	1.267094561e-08 	0.009622882655 	1.618426022e-08 	1.834388888e-05
0.9882574856 	0.007892416033 	0.005908259072 	1.559135633e-08 	0.009438742772 	2.20983839e-08 	1.799286709e-05
0.990327533 	0.007585265025 	0.005703426555 	1.783124009e-08 	0.009090339616 	2.673553098e-08 	1.732871384e-05
0.9921597073 	0.007037123327 	0.005365529731 	1.959337287e-08 	0.008462282792 	3.014572401e-08 	1.613146297e-05
0.9937813429 	0.006049515072 	0.004655813905 	2.022934929e-08 	0.007278219852 	3.135343045e-08 	1.387430991e-05
0.9948347186 	0.004587189976 	0.003493660728 	1.951527271e-08 	0.005493097381 	2.974148497e-08 	1.047137033e-05
0.9958880943 	0.002581564236 	0.001824986336 	1.353572555e-08 	0.003029927915 	2.092810419e-08 	5.77588473e-06
0.9969414701 	0.0007734010486 	0.0004213258056 	4.240328927e-09 	0.0008553801503 	7.410167539e-09 	1.630592307e-06
0.9979948458 	7.235602966e-05 	1.626775637e-05 	1.959515599e-10 	7.34774386e-05 	6.64119831e-10 	1.4006842e-07
0.9990482216 	9.687012508e-07 	2.582017162e-08 	3.226914224e-13 	9.670050715e-07 	8.659436204e-12 	1.843380431e-09
