0.47777778 	0.0053234207 	-0.0022175033 	9.1664003e-09 	0.0053256826 	-2.0337767e-08 	0.00041439226
0.48888889 	0.0066076105 	-0.002689882 	1.0943021e-07 	0.0065996097 	-2.5001223e-07 	0.0021195988
0.5 	0.0063177178 	-0.0025808076 	4.1746493e-07 	0.0063085628 	-1.0830501e-06 	0.0020353661
0.51111111 	0.0058781023 	-0.0024246718 	9.3686115e-07 	0.0058721128 	-2.469433e-06 	0.0019029061
0.52222222 	0.0054081106 	-0.0022391991 	6.649483e-10 	0.0053960587 	1.8391912e-08 	0.0011641485
0.53333333 	0.0049315457 	-0.0020522767 	1.9794101e-06 	0.0049210058 	-4.906622e-06 	0.0015671818
0.54444444 	0.0044675382 	-0.0018638014 	2.1665507e-06 	0.0044555953 	-5.2534075e-06 	0.0014417315
0.55555556 	0.0040258331 	-0.001676434 	1.3775906e-06 	0.0040134669 	-3.2049533e-06 	0.0013127103
0.56666667 	0.0036156762 	-0.0014908679 	1.2308535e-06 	0.0036032235 	-2.7022631e-06 	0.0011832877
0.57777778 	0.0032453113 	-0.0013080059 	1.7178995e-06 	0.0032335439 	-3.4638982e-06 	0.0010570742
0.58888889 	0.0029213238 	-0.0011283296 	2.8021777e-06 	0.0029100917 	-5.0322027e-06 	0.00093911143
0.6 	0.0026459214 	-0.00095364031 	2.4553947e-06 	0.0026350946 	-3.813033e-06 	0.00083448198
0.61111111 	0.0024172598 	-0.00078571698 	4.1782795e-07 	0.0024072717 	-5.377783e-07 	0.00074742312
0.62222222 	0.0022399696 	-0.00062607052 	-1.4067708e-08 	0.0022303767 	6.4776855e-08 	0.0001804242
0.63333333 	0.0021140129 	-0.00047750336 	1.5867905e-06 	0.0021068299 	-1.5544197e-06 	0.00068179754
0.64444444 	0.0020280747 	-0.00033487306 	1.9009772e-06 	0.0020221358 	-1.2187463e-06 	0.00064132888
0.65555556 	0.0019766349 	-0.00019738789 	-6.7313272e-09 	0.0019709336 	3.8818085e-08 	8.5440566e-05
0.66666667 	0.00196342 	-6.9239747e-05 	1.8192546e-06 	0.0019605801 	-5.4834149e-07 	0.00062567313
0.67777778 	0.0019729431 	5.5885105e-05 	7.4554898e-07 	0.0019718144 	1.7410533e-08 	0.00063342367
0.68888889 	0.0020065202 	0.00017680703 	1.9120396e-07 	0.0020069994 	4.4651161e-09 	0.00063349074
0.7 	0.002064044 	0.00029409824 	1.9172161e-06 	0.0020657516 	6.302863e-07 	0.00066341292
0.71111111 	0.0021347092 	0.00041008443 	5.8947318e-09 	0.0021367655 	6.7879454e-09 	0.0003744963
0.72222222 	0.0022243457 	0.00052130286 	2.328599e-06 	0.002227824 	1.4238073e-06 	0.00071504045
0.73333333 	0.0023231122 	0.00063128283 	1.0267312e-08 	0.0023261232 	8.8218234e-09 	0.00034346993
0.74444444 	0.0024396671 	0.00073956919 	2.2479494e-06 	0.002443671 	1.9860589e-06 	0.00078606953
0.75555556 	0.0025627459 	0.00084560408 	1.3992827e-08 	0.0025654061 	1.2567653e-08 	0.00034041216
0.76666667 	0.0027043125 	0.00095231085 	2.3012423e-06 	0.002707479 	2.6360211e-06 	0.00086935161
0.77777778 	0.0028513613 	0.0010562505 	2.6719181e-08 	0.0028516583 	2.7827239e-08 	4.4914654e-05
0.78888889 	0.003013902 	0.0011603398 	1.6574276e-06 	0.0030152526 	2.3025076e-06 	0.00095849507
0.8 	0.0031825758 	0.0012622417 	8.1957523e-08 	0.0031828926 	1.3292949e-07 	0.0010504585
0.81111111 	0.0033618879 	0.001362323 	2.7522217e-07 	0.0033609994 	4.4639151e-07 	0.001050798
0.82222222 	0.0035507584 	0.0014607586 	1.4579484e-06 	0.0035487868 	2.6865585e-06 	0.0011438884
0.83333333 	0.0037456881 	0.0015576352 	8.806243e-09 	0.0037418581 	1.3948688e-08 	0.00086610758
0.84444444 	0.0039497726 	0.0016534785 	8.6758862e-08 	0.0039456955 	1.778062e-07 	0.0012368776
0.85555556 	0.0041608213 	0.0017472284 	1.0912899e-06 	0.004155959 	2.4447464e-06 	0.0013277125
0.86666667 	0.0043769217 	0.0018394785 	7.0609791e-07 	0.0043714143 	1.7048523e-06 	0.001415693
0.87777778 	0.0045976381 	0.001930023 	6.6897652e-08 	0.0045916671 	1.7197814e-07 	0.0014999507
0.88888889 	0.0048213368 	0.0020178687 	1.3480548e-08 	0.0048129185 	2.7718437e-08 	0.00056784024
0.9 	0.0050474154 	0.0021039159 	1.7595523e-08 	0.0050376974 	3.668439e-08 	9.4459574e-05
0.91111111 	0.0052739548 	0.0021879392 	1.5617583e-08 	0.0052642605 	3.2371727e-08 	9.4895155e-05
0.92222222 	0.0054991113 	0.0022695863 	8.389119e-09 	0.0054903648 	1.6984114e-08 	0.00076621496
0.93333333 	0.005719323 	0.0023484321 	1.2397771e-07 	0.0057136138 	3.7240486e-07 	0.0018476935
0.94444444 	0.0059310824 	0.0024232248 	4.76049e-07 	0.0059228152 	1.4925966e-06 	0.0019011334
0.95555556 	0.0061245807 	0.0024933069 	1.8673342e-09 	0.0061186275 	3.1169051e-09 	0.0015990683
0.96666667 	0.0062755293 	0.0025388592 	1.8220169e-08 	0.0062664326 	3.027159e-07 	0.00201044
0.97777778 	0.0063242317 	0.0025556187 	-8.1399541e-08 	0.0063161061 	-2.2468508e-07 	0.0020247057
0.98888889 	0.005741765 	0.0023515138 	-9.9700367e-07 	0.0057164502 	-2.6661013e-06 	0.0018254214
