0 	0.0048035048 	-3.2623724e-16 	-4.527136e-22 	1.2727296e-18 	5.5568573e-20 	2.4261763e-21
0.010869565 	0.0048264051 	-0.00023779973 	7.2432296e-08 	0.0058063228 	-2.5413003e-05 	0.0010953408
0.02173913 	0.0049197671 	-0.00047221229 	6.5578848e-10 	0.0058994893 	-1.4212241e-05 	0.0015366389
0.032608696 	0.0050705847 	-0.00070956032 	-1.5322267e-09 	0.0060485747 	-2.4709006e-06 	0.001987401
0.043478261 	0.0052742196 	-0.00094893804 	-1.1936043e-08 	0.0062486767 	-1.0206918e-05 	0.0024789515
0.054347826 	0.0055238568 	-0.0011921495 	2.5435733e-07 	0.0064895555 	-1.515862e-06 	0.00057602729
0.065217391 	0.0058232626 	-0.0014469269 	2.3488057e-07 	0.0067776054 	-1.2044027e-06 	0.0016800928
0.076086957 	0.0061110015 	-0.0016704592 	4.5656972e-07 	0.0070499728 	-2.0125152e-06 	0.00099494777
0.086956522 	0.0064189844 	-0.0018983763 	1.243831e-09 	0.0073434774 	-8.501549e-08 	0.0046918145
0.097826087 	0.0067389319 	-0.0021241895 	6.9533655e-08 	0.0076382706 	-2.0043395e-06 	0.0053943481
0.10869565 	0.0070532057 	-0.0023420514 	8.2635306e-07 	0.0079129989 	-2.8371713e-06 	0.0016226158
0.11956522 	0.0073374261 	-0.0025414539 	4.9739185e-07 	0.0081606526 	-1.5370342e-06 	0.0041689423
0.13043478 	0.0075997925 	-0.0027286471 	2.0320431e-07 	0.0083786386 	-6.2793946e-07 	0.0062589166
0.14130435 	0.007820129 	-0.0028959356 	1.5864757e-06 	0.0085327487 	-4.4341344e-06 	0.00036585566
0.15217391 	0.0080032498 	-0.0030434172 	3.2944271e-08 	0.0086706145 	-8.3397627e-08 	0.0081863642
0.16304348 	0.0081132064 	-0.0031583109 	1.490672e-06 	0.0087012084 	-3.7736002e-06 	0.0017648995
0.17391304 	0.0081878756 	-0.0032544 	3.3858631e-07 	0.0087170324 	-7.7703718e-07 	0.006814289
0.18478261 	0.0081768906 	-0.0033097305 	1.1163115e-06 	0.0086265154 	-2.5618742e-06 	0.0023900668
0.19565217 	0.0081323678 	-0.0033463161 	1.5955965e-07 	0.0085199453 	-3.3418581e-07 	0.0066713149
0.20652174 	0.0079899933 	-0.0033322801 	8.532977e-07 	0.0083005317 	-1.7871686e-06 	0.0017508321
0.2173913 	0.0078350636 	-0.0033087988 	9.0484637e-07 	0.0080900276 	-2.792541e-06 	0.0067021325
0.22826087 	0.0075749496 	-0.003224693 	5.8520345e-07 	0.0077603834 	-1.1645383e-06 	0.00021598375
0.23913043 	0.0073291581 	-0.0031454157 	1.7425428e-06 	0.0074712451 	-4.6531615e-06 	0.0056102008
0.25 	0.0070096516 	-0.0030161373 	8.1685041e-08 	0.0071023224 	-2.2449263e-07 	0.0022015222
0.26086957 	0.0066929087 	-0.0028853042 	3.0187897e-08 	0.0067499897 	-8.2964524e-08 	0.0034939124
0.27173913 	0.0063669005 	-0.0027407827 	8.1900843e-07 	0.0063952205 	-1.9554168e-06 	0.0043190635
0.2826087 	0.0060247719 	-0.0025786186 	-1.0657356e-07 	0.0060258977 	-2.1197432e-08 	0.00054557508
0.29347826 	0.0057124662 	-0.0024305167 	3.517315e-06 	0.0057013619 	-7.7747402e-06 	0.0033933358
0.30434783 	0.0054052498 	-0.0022785623 	-3.3219807e-08 	0.0053809723 	-4.6520816e-09 	0.0026061967
0.31521739 	0.0051135139 	-0.0021304237 	-7.9715408e-08 	0.0050807076 	-1.1163297e-08 	0.0013455294
0.32608696 	0.0048505306 	-0.0019964907 	5.8721619e-06 	0.0048149299 	-1.2495766e-05 	0.0025186684
0.33695652 	0.0045976985 	-0.0018661146 	-1.9915433e-08 	0.004557445 	-3.0494584e-08 	0.0018155343
0.34782609 	0.00436712 	-0.0017455034 	-2.7476097e-08 	0.0043249948 	-4.2071499e-08 	0.0012695993
0.35869565 	0.0041615575 	-0.0016382014 	5.4683968e-06 	0.0041190856 	-1.1582005e-05 	0.001874374
0.36956522 	0.003960769 	-0.0015332232 	9.2524622e-08 	0.0039165825 	-1.9596615e-07 	0.0017881167
0.38043478 	0.003779708 	-0.0014366335 	1.5044333e-08 	0.0037326913 	-8.8408768e-08 	0.00072114983
0.39130435 	0.0036188699 	-0.0013493315 	3.7971365e-06 	0.0035709259 	-7.9599689e-06 	0.0014045563
0.40217391 	0.0034629276 	-0.001263658 	2.1546847e-06 	0.0034120536 	-4.5168835e-06 	0.0013420172
0.41304348 	0.0033138022 	-0.0011786272 	1.1010774e-07 	0.0032573764 	-1.6158696e-07 	7.5084756e-05
0.42391304 	0.0031865457 	-0.0011005759 	1.694936e-06 	0.003127696 	-3.2340148e-06 	0.0010602752
0.43478261 	0.0030686006 	-0.0010215168 	4.6945071e-06 	0.0030035755 	-8.9573325e-06 	0.0010158029
0.44565217 	0.0029506555 	-0.00094245761 	4.140025e-07 	0.002879455 	-7.8993555e-07 	0.00097133068
0.45652174 	0.0028474841 	-0.00086153361 	6.3267168e-08 	0.002767972 	-5.0457813e-08 	0.00050408203
0.4673913 	0.0027660419 	-0.00077940803 	3.6714708e-06 	0.0026769772 	-5.4592845e-06 	0.00078113815
0.47826087 	0.0026886565 	-0.00069587063 	4.1643167e-06 	0.0025886655 	-6.1921205e-06 	0.00075009005
0.48913043 	0.0026112712 	-0.00061233322 	6.0697099e-08 	0.0025003537 	-9.0253403e-08 	0.00071904194
0.5 	0.0025532541 	-0.00052169176 	1.8596367e-09 	0.0024291211 	-8.400386e-10 	0.00062099276
0.51086957 	0.0025203222 	-0.0004252426 	4.8175605e-06 	0.0023818404 	-4.4945641e-06 	0.00060567781
0.52173913 	0.0024875136 	-0.00032875946 	4.1195399e-06 	0.0023346627 	-3.8433427e-06 	0.00058377326
0.5326087 	0.0024558184 	-0.00023198394 	1.5978665e-08 	0.0022884971 	-2.239121e-09 	0.00050453931
0.54347826 	0.0024525091 	-0.00012565082 	1.078553e-06 	0.0022714888 	-4.1650529e-07 	0.00052929307
0.55434783 	0.0024670272 	-1.6032956e-05 	6.1027428e-06 	0.0022740437 	-2.356699e-06 	0.00051297225
0.56521739 	0.0024815452 	9.3584911e-05 	2.9511335e-06 	0.0022765986 	-1.1396406e-06 	0.00049665143
0.57608696 	0.0025046109 	0.00020330959 	1.1115725e-07 	0.0022882039 	2.5623859e-08 	7.5478497e-06
0.58695652 	0.0025562279 	0.00031663328 	3.1727104e-06 	0.002334386 	2.4868548e-07 	0.00048893196
0.59782609 	0.0026137704 	0.00042873747 	4.7534548e-06 	0.0023861754 	3.7258843e-07 	0.00047599439
0.60869565 	0.0026713129 	0.00054084166 	3.4213209e-07 	0.0024379648 	2.6817223e-08 	0.00046305683
0.61956522 	0.0027521007 	0.00064958107 	1.4158702e-06 	0.0025160744 	6.6397903e-07 	0.00049367688
0.63043478 	0.0028431037 	0.00075579894 	5.0172514e-06 	0.0026047941 	2.3528638e-06 	0.00048302647
0.64130435 	0.0029341068 	0.00086201681 	1.0717347e-06 	0.0026935138 	5.0259507e-07 	0.00047237605
0.65217391 	0.0030379227 	0.00096396358 	7.8487432e-07 	0.0027957595 	6.4413593e-07 	0.00051419759
0.66304348 	0.0031525321 	0.0010612744 	4.2360295e-06 	0.0029090895 	3.4764532e-06 	0.0005053455
0.67391304 	0.0032671415 	0.0011585851 	8.3953718e-07 	0.0030224196 	6.8899702e-07 	0.00049649341
0.68478261 	0.0033914897 	0.0012514088 	9.2154671e-07 	0.0031460858 	1.0756357e-06 	0.00054313621
0.69565217 	0.0035227094 	0.0013404231 	2.9717089e-06 	0.003276772 	3.4685994e-06 	0.00053583303
0.70652174 	0.003653929 	0.0014294373 	6.080265e-08 	0.0034074582 	7.0969276e-08 	0.00052852985
0.7173913 	0.0037958585 	0.0015136464 	1.5272463e-06 	0.0035496581 	2.3064193e-06 	0.00057735646
0.72826087 	0.0039400731 	0.0015966292 	1.5493542e-06 	0.0036941514 	2.3398062e-06 	0.00057143914
0.73913043 	0.0040870563 	0.0016787449 	5.8562213e-08 	0.003841825 	1.077558e-07 	0.00062033046
0.75 	0.0042422799 	0.0017579388 	2.3523837e-06 	0.0039986381 	4.3284393e-06 	0.00061562973
0.76086957 	0.0043975034 	0.0018371328 	4.7840448e-08 	0.0041554513 	8.8027509e-08 	0.00061092901
0.77173913 	0.004560285 	0.0019138409 	1.4000504e-06 	0.0043216914 	3.0380394e-06 	0.00066072417
0.7826087 	0.0047243146 	0.0019900461 	5.7439312e-07 	0.00448945 	1.2464043e-06 	0.00065709313
0.79347826 	0.0048915519 	0.0020637824 	8.0555528e-07 	0.0046622807 	2.057188e-06 	0.00070599778
0.80434783 	0.0050605427 	0.0021358549 	7.0087281e-07 	0.004838025 	1.789855e-06 	0.00070327322
0.81521739 	0.0052290575 	0.0022043318 	5.3154519e-07 	0.0050152765 	1.6581514e-06 	0.00075006266
0.82608696 	0.0053964981 	0.0022693573 	5.1227187e-07 	0.0051933281 	1.5980285e-06 	0.00074808749
0.83695652 	0.0055580575 	0.0023280409 	4.102478e-07 	0.0053679055 	1.7760203e-06 	0.00079084728
0.84782609 	0.0057142478 	0.002381682 	1.6757646e-07 	0.0055389793 	7.25462e-07 	0.00078947033
0.85869565 	0.005852991 	0.002423107 	1.6379934e-07 	0.0056959603 	2.0467588e-06 	0.00082576732
0.86956522 	0.0059815657 	0.0024579712 	-3.8476475e-08 	0.0058427083 	1.8217765e-08 	5.0120754e-05
0.88043478 	0.0060754792 	0.0024741719 	-3.2288235e-07 	0.0059616346 	8.4653514e-07 	0.00085184071
0.89130435 	0.006141925 	0.0024765322 	-6.018479e-07 	0.0060527144 	-1.8877519e-07 	0.00086677619
0.90217391 	0.0061736213 	0.0024621164 	-3.636216e-08 	0.0061104611 	-4.0562987e-08 	0.00054832113
0.91304348 	0.0061362683 	0.0024186904 	-1.1381357e-06 	0.0061025665 	-1.3244117e-06 	0.00086695518
0.92391304 	0.0060471293 	0.0023549281 	-2.125868e-06 	0.0060399788 	-3.4335439e-06 	0.00085181647
0.93478261 	0.0058898733 	0.0022624119 	-1.355614e-06 	0.0059062835 	-2.511204e-06 	0.00082449553
0.94565217 	0.0056224598 	0.0021281749 	-2.1891133e-06 	0.0056596269 	-4.5942959e-06 	0.00079479934
0.95652174 	0.0052667252 	0.0019691054 	-6.0454106e-08 	0.0053144617 	-1.3508734e-07 	0.00037577649
0.9673913 	0.0047707662 	0.0017753092 	-1.0231802e-06 	0.0048149229 	-2.7947801e-06 	0.00068319911
0.97826087 	0.0040785927 	0.0015448853 	-2.6271986e-08 	0.0040963196 	-8.0634546e-08 	0.00033348214
0.98913043 	0.0026074772 	0.0010518843 	-2.3540561e-08 	0.0026265743 	-5.670291e-08 	0.00032611461
