0.47777778 	0.84197561 	-0.00060077645 	-8.878637e-09
0.48888889 	1.0926639 	3.1131272e-05 	-1.4840471e-08
0.5 	1.1861726 	6.5075229e-05 	-2.5118036e-08
0.51111111 	1.2436392 	0.00012221808 	-2.701638e-08
0.52222222 	1.2845925 	0.00015981483 	-1.0449129e-07
0.53333333 	1.3163639 	0.00021005911 	-4.5375703e-09
0.54444444 	1.3417513 	0.00026822223 	9.8709277e-09
0.55555556 	1.3623947 	0.00031844291 	-5.9615315e-08
0.56666667 	1.3793496 	0.00036783879 	-7.9432325e-08
0.57777778 	1.3932678 	0.00040919157 	-5.1347267e-08
0.58888889 	1.4046265 	0.00044481207 	4.6421208e-08
0.6 	1.4137103 	0.00047967978 	-6.9521968e-09
0.61111111 	1.4206652 	0.00051003209 	-1.715746e-07
0.62222222 	1.425926 	0.00053239522 	-3.0807767e-07
0.63333333 	1.4297614 	0.00054924456 	-6.6761805e-08
0.64444444 	1.4322452 	0.00056146417 	-4.1153212e-08
0.65555556 	1.4335684 	0.00056739754 	-2.957059e-07
0.66666667 	1.4342566 	0.00057077061 	-3.2255017e-08
0.67777778 	1.43401 	0.00056537696 	-1.149222e-07
0.68888889 	1.4331578 	0.00055637274 	-1.3582375e-07
0.7 	1.4318608 	0.00054493782 	-2.3413113e-08
0.71111111 	1.4297302 	0.00052822472 	-1.6210268e-07
0.72222222 	1.4274562 	0.00051209391 	-2.2490867e-08
0.73333333 	1.4242962 	0.00049089253 	-1.4015267e-07
0.74444444 	1.4209564 	0.00047018793 	-4.306329e-08
0.75555556 	1.4168644 	0.0004475399 	-1.1609406e-07
0.76666667 	1.4123709 	0.00042494128 	-1.2983826e-07
0.77777778 	1.4072212 	0.00040240711 	-1.0871047e-07
0.78888889 	1.4015743 	0.00038071551 	-1.6633571e-08
0.8 	1.3952231 	0.00035941566 	-4.9359403e-08
0.81111111 	1.3882681 	0.00033915388 	-3.2160164e-08
0.82222222 	1.3806286 	0.00031981092 	-4.7284858e-08
0.83333333 	1.3721436 	0.00030142509 	-3.6079246e-08
0.84444444 	1.3628019 	0.00028409778 	-2.1476664e-08
0.85555556 	1.3525148 	0.00026771362 	-2.5188245e-08
0.86666667 	1.3410793 	0.00025186475 	-4.1830376e-09
0.87777778 	1.3283723 	0.00023650669 	-1.4766076e-08
0.88888889 	1.3142211 	0.00022108758 	-2.1235036e-08
0.9 	1.2982959 	0.00020547866 	-2.4111115e-08
0.91111111 	1.280203 	0.00018933223 	-2.5061164e-08
0.92222222 	1.2593842 	0.00017016433 	-2.2368368e-08
0.93333333 	1.2350402 	0.00015570666 	-1.2112099e-08
0.94444444 	1.2059171 	0.00011796949 	-1.6244186e-08
0.95555556 	1.169351 	0.00012304 	-1.82999e-08
0.96666667 	1.1205425 	6.5518914e-05 	2.2845764e-09
0.97777778 	1.0457137 	5.5988417e-05 	-6.8907303e-09
0.98888889 	0.88603511 	0.00012277295 	-2.5427837e-09
