0.12903226 	0.95418827 	0.6307071 	5.1303653e-06
0.13978495 	0.93456632 	0.52550539 	-0.0025284894
0.15053763 	0.97156156 	0.49239008 	-0.00010712751
0.16129032 	0.98968184 	0.44449195 	-0.00014403379
0.17204301 	1.0093347 	0.41055662 	-0.00026142336
0.1827957 	1.02619 	0.37727399 	-7.0075839e-05
0.19354839 	1.0438497 	0.3503328 	-0.00011841938
0.20430108 	1.0581748 	0.32644012 	-2.6844037e-05
0.21505376 	1.0708235 	0.30473172 	-0.00029098997
0.22580645 	1.0814093 	0.28580059 	-0.00049912224
0.23655914 	1.0902117 	0.26806865 	-0.00010761391
0.24731183 	1.0988171 	0.25112907 	-0.00025439899
0.25806452 	1.1065381 	0.23999783 	-0.0001207066
0.2688172 	1.1119989 	0.22516461 	-0.00019241317
0.27956989 	1.1176779 	0.2139447 	-0.00011400873
0.29032258 	1.1221419 	0.20463523 	-3.3425025e-05
0.30107527 	1.1263369 	0.19237455 	-5.090303e-05
0.31182796 	1.1293015 	0.18573934 	-0.00014298611
0.32258065 	1.1327223 	0.17502677 	9.6711832e-06
0.33333333 	1.1344836 	0.16903094 	-0.00024118788
0.34408602 	1.1370364 	0.16032672 	3.397954e-05
0.35483871 	1.1380769 	0.15464046 	-0.00032274518
0.3655914 	1.1395506 	0.14759846 	2.3553779e-05
0.37634409 	1.1402783 	0.14208284 	-0.00028944441
0.38709677 	1.140848 	0.13624563 	-9.5950389e-05
0.39784946 	1.1413059 	0.13094803 	-0.00020567534
0.40860215 	1.1414134 	0.12588323 	-0.00029458947
0.41935484 	1.1413837 	0.12082007 	-4.5729997e-05
0.43010753 	1.1410883 	0.11634511 	-0.00036245228
0.44086022 	1.1407928 	0.11187014 	-4.3360214e-05
0.4516129 	1.1400496 	0.10765215 	-0.00010735587
0.46236559 	1.1393862 	0.10378591 	-0.00019723477
0.47311828 	1.1388383 	0.099490242 	3.1506275e-05
0.48387097 	1.1374534 	0.096282185 	-0.00010936949
0.49462366 	1.1364409 	0.092941084 	-0.00010113128
0.50537634 	1.135577 	0.089023342 	5.0206888e-05
0.51612903 	1.1337292 	0.086342059 	-7.2469785e-05
0.52688172 	1.1323186 	0.083415517 	-7.2314558e-05
0.53763441 	1.1310612 	0.07991456 	5.6426032e-05
0.5483871 	1.1288409 	0.077458962 	-1.0832387e-05
0.55913978 	1.1269912 	0.074884322 	-8.9082556e-05
0.56989247 	1.1252235 	0.071974222 	3.866275e-05
0.58064516 	1.1228784 	0.069353712 	2.5326385e-05
0.59139785 	1.1203938 	0.067062101 	-0.00010188818
0.60215054 	1.1181143 	0.064596556 	1.9237634e-05
0.61290323 	1.1156094 	0.061977155 	4.7797569e-05
0.62365591 	1.1124459 	0.059839136 	-5.0816106e-05
0.6344086 	1.1096555 	0.057606534 	1.1118478e-05
0.64516129 	1.1068063 	0.055159873 	5.0404006e-05
0.65591398 	1.1031407 	0.053176583 	-4.1792901e-05
0.66666667 	1.0999374 	0.051086131 	1.613494e-05
0.67741935 	1.0964961 	0.04889269 	3.5374674e-05
0.68817204 	1.0924831 	0.047032515 	-5.6237241e-05
0.69892473 	1.0889078 	0.044990129 	3.3016151e-05
0.70967742 	1.0845435 	0.043093672 	5.9287045e-06
0.72043011 	1.0802719 	0.04132993 	-8.3563897e-06
0.7311828 	1.0760785 	0.039336987 	3.5916196e-05
0.74193548 	1.0710001 	0.037669709 	-4.5408162e-05
0.75268817 	1.0663927 	0.035824998 	3.2419078e-05
0.76344086 	1.0607696 	0.034170532 	-2.1215875e-05
0.77419355 	1.0554698 	0.032475894 	1.6132805e-05
0.78494624 	1.049379 	0.030814371 	-1.0199382e-05
0.79569892 	1.0433574 	0.029206564 	9.6589247e-06
0.80645161 	1.0365894 	0.027581903 	-1.1780954e-05
0.8172043 	1.0298114 	0.02600699 	1.1401453e-05
0.82795699 	1.0221233 	0.024451998 	-2.3415775e-05
0.83870968 	1.0145579 	0.022862791 	1.9736989e-05
0.84946237 	1.0056624 	0.021402659 	-2.4337197e-05
0.86021505 	0.99661587 	0.019852931 	2.6084045e-06
0.87096774 	0.98686649 	0.018391597 	3.3052032e-06
0.88172043 	0.97611186 	0.016891194 	-2.8950129e-05
0.89247312 	0.96468556 	0.015382968 	-1.6815074e-06
0.90322581 	0.95240699 	0.013896772 	7.4826943e-06
0.91397849 	0.93827822 	0.012445813 	-6.8529487e-06
0.92473118 	0.92266733 	0.010943099 	-2.1099447e-05
0.93548387 	0.90531364 	0.0094432083 	-1.9768213e-05
0.94623656 	0.88458079 	0.0079301438 	-1.7503528e-05
0.95698925 	0.85869387 	0.0063409983 	2.6421803e-06
0.96774194 	0.82330327 	0.0047561711 	-6.7631856e-07
0.97849462 	0.76676159 	0.0031111184 	-1.652855e-06
0.98924731 	0.62847635 	0.0016348564 	-1.0899796e-05
