1.4326613e-19 	0.0038935833 	-2.6443337e-16 	-9.6114161e-23 	4.734071e-19 	3.3314407e-33 	4.7815333e-19
0.010869565 	0.0038997386 	-0.0001296621 	1.4735225e-08 	0.0042997909 	-6.916608e-06 	0.0023111193
0.02173913 	0.0039299401 	-0.00025790396 	3.1972997e-09 	0.0043287746 	-7.5902625e-06 	0.0021511421
0.032608696 	0.0039795914 	-0.00038631349 	2.9861865e-09 	0.0043762846 	-3.6382494e-06 	0.0020009666
0.043478261 	0.0040469782 	-0.00051362888 	1.183482e-08 	0.0044407272 	-5.4711192e-06 	0.0018664427
0.054347826 	0.0041303572 	-0.00064011541 	6.6504467e-09 	0.0045200215 	-2.079308e-08 	0.001628724
0.065217391 	0.0042361928 	-0.00077476616 	1.0435072e-07 	0.0046175042 	-2.967265e-07 	0.00031117364
0.076086957 	0.0043351583 	-0.00088639378 	1.3999485e-08 	0.0047130027 	-5.8420518e-07 	0.0014611903
0.086956522 	0.004450689 	-0.0010045346 	1.3535219e-07 	0.0048215201 	-7.6238363e-06 	0.0013446429
0.097826087 	0.0045706992 	-0.0011195776 	1.5378108e-07 	0.0049334422 	-5.1395903e-06 	0.001228149
0.10869565 	0.004694893 	-0.0012319632 	1.2169885e-07 	0.0050461864 	-2.8179992e-07 	5.5646472e-05
0.11956522 	0.0048161535 	-0.0013368575 	2.9710133e-07 	0.0051583196 	-6.2483866e-06 	0.00095379435
0.13043478 	0.0049354963 	-0.0014380146 	3.4103647e-07 	0.0052653966 	-4.7547481e-06 	0.00083085529
0.14130435 	0.0050508876 	-0.0015342397 	1.1585112e-07 	0.0053671413 	-1.6152024e-06 	0.00067971446
0.15217391 	0.0051554802 	-0.0016218909 	9.8988829e-07 	0.0054564192 	-9.6818363e-06 	0.00055283752
0.16304348 	0.0052565597 	-0.0017068605 	4.8951116e-08 	0.005540844 	-1.0158556e-07 	7.5988822e-05
0.17391304 	0.0053369686 	-0.0017789989 	1.4536085e-06 	0.0056038971 	-1.0548922e-05 	0.00027649007
0.18478261 	0.0054147561 	-0.0018496332 	1.126883e-07 	0.0056633987 	-6.3911514e-07 	0.00013913544
0.19565217 	0.0054653483 	-0.0019053311 	2.0588789e-06 	0.0056938731 	-1.1676994e-05 	1.5309689e-05
0.20652174 	0.005516 	-0.0019610795 	1.0905971e-08 	0.0057247966 	-2.0827808e-08 	8.1289337e-05
0.2173913 	0.0055310103 	-0.0019983956 	2.8048682e-06 	0.0057189153 	-1.3000651e-05 	0.00027532715
0.22826087 	0.0055457698 	-0.0020355783 	3.1966301e-07 	0.0057126339 	-1.4816479e-06 	0.00039980881
0.23913043 	0.0055260758 	-0.0020553136 	2.5049405e-06 	0.0056712837 	-9.830269e-06 	0.00051070764
0.25 	0.0054975094 	-0.002070491 	1.4144784e-06 	0.0056210301 	-5.5509116e-06 	0.00062283175
0.26086957 	0.0054482481 	-0.0020750803 	1.1904012e-06 	0.0055501184 	-4.055939e-06 	0.00070850432
0.27173913 	0.005371249 	-0.0020650793 	3.6073897e-06 	0.0054520387 	-1.229111e-05 	0.00080626785
0.2826087 	0.0052912147 	-0.0020535031 	6.2102728e-08 	0.0053500621 	-9.5579816e-08 	0.0004776637
0.29347826 	0.0051725387 	-0.0020205278 	3.3365719e-06 	0.0052127531 	-1.0018155e-05 	0.00093605846
0.30434783 	0.0050457761 	-0.0019827105 	2.6522874e-06 	0.0050671387 	-7.963571e-06 	0.0010178627
0.31521739 	0.0049062797 	-0.0019376014 	6.2334507e-08 	0.0049083152 	-8.4439809e-08 	0.00056309161
0.32608696 	0.0047388383 	-0.0018734746 	4.959613e-06 	0.0047265374 	-1.3197089e-05 	0.001064516
0.33695652 	0.0045680492 	-0.0018070291 	2.2177484e-06 	0.0045408277 	-5.9012314e-06 	0.0011295414
0.34782609 	0.0043832028 	-0.0017307837 	4.6094502e-08 	0.0043413922 	-5.1812435e-08 	0.00066325612
0.35869565 	0.0041876854 	-0.0016410502 	5.3943752e-06 	0.0041363187 	-1.2671443e-05 	0.0010879052
0.36956522 	0.0039901304 	-0.0015491505 	2.7422942e-06 	0.003928804 	-6.4416775e-06 	0.0011365238
0.38043478 	0.0037843285 	-0.0014485373 	7.0163717e-08 	0.003712622 	-5.9481743e-08 	0.00024409855
0.39130435 	0.0035892361 	-0.0013438431 	4.063045e-06 	0.0035130044 	-8.2824257e-06 	0.0010215844
0.40217391 	0.0033954313 	-0.0012356815 	4.4544335e-06 	0.0033139285 	-9.0802623e-06 	0.0010556617
0.41304348 	0.0032019404 	-0.0011243274 	3.0746462e-08 	0.0031146687 	-1.8491328e-08 	0.00051704967
0.42391304 	0.0030262517 	-0.0010126636 	1.0618271e-06 	0.0029367177 	-1.7852313e-06 	0.00090924168
0.43478261 	0.002873575 	-0.00090143991 	7.0389551e-06 	0.0027813665 	-1.1834472e-05 	0.00093198311
0.44565217 	0.0027208983 	-0.00079021626 	1.3753293e-06 	0.0026260153 	-2.312317e-06 	0.00095472453
0.45652174 	0.0025878287 	-0.00067763032 	3.0547908e-08 	0.0024892603 	-1.8990383e-08 	0.00019514372
0.4673913 	0.0024868407 	-0.00057310818 	2.4960738e-06 	0.0023870629 	-2.9842333e-06 	0.0008298122
0.47826087 	0.0024044489 	-0.00046870085 	4.9364292e-06 	0.002301922 	-5.9018512e-06 	0.00084501213
0.48913043 	0.002322057 	-0.00036429353 	3.976663e-08 	0.0022167811 	-4.7543826e-08 	0.00086021207
0.5 	0.0022771954 	-0.0002608856 	2.0724351e-08 	0.0021675238 	-1.3716934e-08 	0.00033857073
0.51086957 	0.0022533163 	-0.00016033624 	2.6421958e-06 	0.0021413438 	-1.4780248e-06 	0.00081795684
0.52173913 	0.0022441624 	-6.0224263e-05 	3.5772177e-06 	0.002129178 	-2.0010691e-06 	0.00082897225
0.5326087 	0.002241208 	3.9709901e-05 	8.2439047e-09 	0.0021228956 	-1.4878409e-09 	0.00064010573
0.54347826 	0.0022681534 	0.00014034632 	1.3138667e-08 	0.0021468986 	-2.3712363e-09 	0.00055266665
0.55434783 	0.0023134073 	0.00024046086 	3.0805131e-06 	0.0021906434 	2.2359596e-07 	0.00089301682
0.56521739 	0.0023652399 	0.00033966381 	1.7936248e-06 	0.0022406169 	1.3018846e-07 	0.00090193485
0.57608696 	0.0024306477 	0.00043707344 	2.118599e-08 	0.0023033245 	1.5492632e-08 	0.00020822213
0.58695652 	0.0025118516 	0.00053583878 	5.7462489e-07 	0.0023850213 	3.3105975e-07 	0.0010235256
0.59782609 	0.0026058548 	0.0006309865 	3.0113697e-06 	0.0024784073 	1.7349462e-06 	0.0010312222
0.60869565 	0.0027021582 	0.0007254058 	2.12515e-09 	0.0025736992 	8.4424207e-09 	0.00079963812
0.61956522 	0.0028130076 	0.00081824376 	2.5412838e-09 	0.0026843529 	1.0095563e-08 	0.00086563083
0.63043478 	0.0029314436 	0.00090814988 	2.6730193e-06 	0.002803831 	2.6254278e-06 	0.0011986991
0.64130435 	0.0030510084 	0.00099684364 	5.1846147e-08 	0.002923997 	5.0923057e-08 	0.00120544
0.65217391 	0.0031790947 	0.0010814429 	-8.1164414e-09 	0.003052628 	1.5810036e-08 	0.00074097904
0.66304348 	0.0033110714 	0.0011637693 	1.9337303e-06 	0.0031881022 	2.6083467e-06 	0.0013810452
0.67391304 	0.0034429767 	0.0012436827 	-1.2322478e-09 	0.0033226089 	2.7317442e-10 	0.0013519309
0.68478261 	0.0035782571 	0.0013188682 	-1.5503307e-08 	0.0034611628 	3.4368957e-09 	0.0010646812
0.69565217 	0.0037130963 	0.0013901789 	1.5602982e-06 	0.0036016148 	2.6789216e-06 	0.001561417
0.70652174 	0.0038459634 	0.0014579898 	-3.3700374e-08 	0.0037383368 	-1.294495e-08 	0.00091642484
0.7173913 	0.0039794254 	0.0015225674 	1.7119217e-07 	0.0038793469 	3.6467509e-07 	0.0017238157
0.72826087 	0.004106525 	0.0015808267 	5.2467146e-07 	0.0040131613 	1.1176598e-06 	0.0017278722
0.73913043 	0.0042293613 	0.001634384 	-8.8646661e-08 	0.0041406426 	-6.9442587e-08 	0.00038268824
0.75 	0.0043478537 	0.0016844222 	5.6954931e-07 	0.0042699443 	1.5484963e-06 	0.0018688352
0.76086957 	0.0044584803 	0.0017287113 	-6.1326006e-08 	0.004387231 	-6.7432455e-08 	0.0010383565
0.77173913 	0.0045616598 	0.0017680927 	9.1551516e-08 	0.0045011433 	3.9899244e-07 	0.0019837887
0.7826087 	0.0046546318 	0.0018018178 	1.2314999e-08 	0.0046032279 	5.3670235e-08 	0.0019862975
0.79347826 	0.0047370399 	0.0018294275 	-5.9738162e-09 	0.0046953557 	2.1208889e-08 	0.0020698768
0.80434783 	0.0048052997 	0.0018505187 	-2.3831099e-08 	0.0047732036 	8.4607747e-08 	0.0020717522
0.81521739 	0.0048628124 	0.0018662202 	-6.6766171e-09 	0.0048404413 	-1.0677268e-08 	0.0020447047
0.82608696 	0.0049034788 	0.0018749665 	-8.0356756e-08 	0.0048908695 	-7.1184321e-08 	0.0021278177
0.83695652 	0.004930412 	0.0018776615 	-8.3390701e-08 	0.0049274359 	-1.324076e-07 	0.0021546839
0.84782609 	0.004940705 	0.0018739227 	-1.9721278e-08 	0.0049461093 	-3.9357743e-08 	0.0019228651
0.85869565 	0.0049325848 	0.0018630425 	-4.6963124e-07 	0.0049466639 	-9.080141e-07 	0.0021570979
0.86956522 	0.0049090358 	0.0018462455 	-1.551065e-07 	0.0049272422 	-3.3761945e-07 	0.00026482391
0.88043478 	0.0048660688 	0.0018240754 	-5.6944387e-07 	0.0048942661 	-1.2548243e-06 	0.0021366462
0.89130435 	0.0048069781 	0.0017961406 	-1.2708761e-07 	0.0048390225 	-3.0630503e-07 	0.0020975153
0.90217391 	0.0047286288 	0.0017621324 	-1.0007205e-07 	0.0047609938 	-2.5592746e-07 	0.00066911595
0.91304348 	0.0046301387 	0.0017247041 	-4.5509234e-07 	0.0046673973 	-1.224163e-06 	0.0020423372
0.92391304 	0.0045153236 	0.0016849781 	-6.5998147e-07 	0.0045522151 	-1.8462992e-06 	0.0019746345
0.93478261 	0.0043829691 	0.0016350493 	-1.5920362e-07 	0.0044142362 	-4.6808464e-07 	0.0019072101
0.94565217 	0.0042179935 	0.0015832762 	-6.0566893e-07 	0.0042434513 	-2.0214479e-06 	0.0018492029
0.95652174 	0.0040356208 	0.0015313303 	-3.787198e-08 	0.00405151 	-1.440104e-07 	0.00048433322
0.9673913 	0.0038140349 	0.0014736299 	-1.3174325e-07 	0.0038235018 	-4.867366e-07 	0.001679723
0.97826087 	0.0035043803 	0.001390048 	-8.7664302e-09 	0.0034985127 	-4.3464393e-08 	0.00041967299
0.98913043 	0.0024988676 	0.0010317149 	9.805661e-10 	0.0025111762 	-2.0176418e-09 	0.00023311187
