0.47777778 	0.0053433963 	-0.002225768 	1.2325607e-09 	0.0053446437 	-2.8870657e-09 	0.00041586991
0.48888889 	0.0066151102 	-0.0026931333 	2.078683e-07 	0.0066002833 	-4.9113448e-07 	0.00091938637
0.5 	0.0063061381 	-0.0025777734 	7.5786075e-07 	0.0062876734 	-1.9887724e-06 	0.00088014005
0.51111111 	0.0058390866 	-0.0024118875 	1.5392183e-06 	0.0058211038 	-4.0969425e-06 	0.00081936317
0.52222222 	0.0053441011 	-0.0022201013 	3.3323605e-07 	0.0053200989 	-8.5258774e-07 	0.00072074939
0.53333333 	0.0048383865 	-0.0020230251 	2.8442551e-06 	0.0048137018 	-7.0918668e-06 	0.00066518855
0.54444444 	0.0043479199 	-0.0018246394 	3.0591442e-06 	0.004321777 	-7.4231662e-06 	0.00060758709
0.55555556 	0.00388487 	-0.0016277194 	2.2696098e-06 	0.0038583893 	-5.2479184e-06 	0.00054876744
0.56666667 	0.0034609661 	-0.0014332257 	2.1477982e-06 	0.0034352488 	-4.6238692e-06 	0.00049046414
0.57777778 	0.0030865348 	-0.0012420223 	2.6732578e-06 	0.0030621198 	-5.1940231e-06 	0.00043478509
0.58888889 	0.0027674627 	-0.0010560812 	3.771948e-06 	0.0027444119 	-6.4230825e-06 	0.00038420346
0.6 	0.002503828 	-0.00087811581 	3.3842619e-06 	0.0024825865 	-4.9090983e-06 	0.00034082728
0.61111111 	0.002291865 	-0.0007099832 	1.3065727e-06 	0.0022732238 	-1.533332e-06 	0.00030625145
0.62222222 	0.0021310911 	-0.00055251539 	-1.1968886e-08 	0.0021154469 	1.4732998e-08 	0.00017063917
0.63333333 	0.0020289437 	-0.00040777702 	2.3681466e-06 	0.0020167457 	-2.0316987e-06 	0.00028171837
0.64444444 	0.0019614131 	-0.00027015276 	2.6416092e-06 	0.0019524148 	-1.4019178e-06 	0.00026814152
0.65555556 	0.0019223845 	-0.00013845806 	-1.5081614e-08 	0.0019163769 	8.9919208e-09 	8.331646e-05
0.66666667 	0.001922916 	-1.6589189e-05 	2.4891347e-06 	0.0019205905 	-5.4195792e-07 	0.00026434446
0.67777778 	0.0019398624 	0.00010211467 	1.4829036e-06 	0.0019406656 	1.1024726e-07 	0.00026940875
0.68888889 	0.001977323 	0.00021647301 	9.3354161e-07 	0.0019808796 	6.940465e-08 	0.00026948541
0.7 	0.0020348992 	0.00032727262 	2.5726569e-06 	0.0020407323 	8.977276e-07 	0.0002828011
0.71111111 	0.0021015605 	0.00043644447 	1.7287118e-07 	0.0021094264 	6.0323329e-08 	0.00028293205
0.72222222 	0.0021882097 	0.00054134598 	2.9448466e-06 	0.0021975587 	1.7854797e-06 	0.00030429895
0.73333333 	0.0022785549 	0.00064504669 	6.0812121e-08 	0.0022892069 	3.6870785e-08 	0.00030447366
0.74444444 	0.0023884782 	0.00074686888 	2.829078e-06 	0.0023998067 	2.434513e-06 	0.00033315236
0.75555556 	0.0025010158 	0.00084771958 	-1.6709025e-12 	0.0025128271 	1.5504453e-11 	0.00033306371
0.76666667 	0.0026335749 	0.0009483345 	2.8205506e-06 	0.0026452425 	3.1376228e-06 	0.00036680889
0.77777778 	0.0027694451 	0.001048057 	1.5222246e-09 	0.0027801536 	2.1410167e-08 	4.3618594e-05
0.78888889 	0.0029225273 	0.0011470591 	2.1368699e-06 	0.002933084 	2.8906668e-06 	0.00040303128
0.8 	0.0030811358 	0.0012451011 	5.9351786e-07 	0.0030907922 	9.4260705e-07 	0.00044064092
0.81111111 	0.0032517408 	0.0013420116 	7.6481712e-07 	0.0032601637 	1.2146593e-06 	0.00044096379
0.82222222 	0.0034330843 	0.001438075 	1.8860214e-06 	0.0034402079 	3.4273824e-06 	0.0004795923
0.83333333 	0.0036218684 	0.0015335021 	1.9597843e-07 	0.0036276218 	3.9925916e-07 	0.00051863409
0.84444444 	0.0038223567 	0.001627894 	4.9121541e-07 	0.0038266304 	1.0007339e-06 	0.00051901346
0.85555556 	0.0040321948 	0.0017213606 	1.4599792e-06 	0.0040351249 	3.2781126e-06 	0.0005579583
0.86666667 	0.0042494124 	0.0018138943 	1.0526364e-06 	0.0042510947 	2.5677928e-06 	0.00059627568
0.87777778 	0.0044738067 	0.0019052853 	3.7023078e-07 	0.0044743941 	9.6881382e-07 	0.00063349698
0.88888889 	0.0047043584 	0.0019951669 	1.4114302e-09 	0.0047038199 	7.0564221e-09 	0.0005553988
0.9 	0.004939197 	0.0020829084 	6.6456201e-09 	0.0049369695 	3.3205845e-08 	9.2409404e-05
0.91111111 	0.0051763995 	0.0021688528 	6.1051058e-09 	0.0051737193 	3.0263013e-08 	9.3112902e-05
0.92222222 	0.0054135192 	0.0022524784 	7.1093443e-11 	0.0054112248 	3.4604041e-10 	0.0007557276
0.93333333 	0.0056455142 	0.0023324796 	2.9115746e-07 	0.0056433611 	9.1730308e-07 	0.00079111383
0.94444444 	0.0058689843 	0.0024085418 	6.2592298e-07 	0.0058644379 	2.0649508e-06 	0.00081557826
0.95555556 	0.0060737316 	0.0024803242 	8.3035112e-08 	0.0060711819 	2.5144823e-07 	0.00083669286
0.96666667 	0.00623253 	0.0025265976 	2.8686192e-08 	0.0062256753 	4.577577e-07 	0.00086548638
0.97777778 	0.006287694 	0.0025425422 	-1.5867127e-07 	0.0062802036 	-4.2905429e-07 	0.00087251958
0.98888889 	0.0057014224 	0.0023349559 	-1.6172344e-06 	0.0056768733 	-4.321947e-06 	0.00078669984
