0.47777778 	0.0053499704 	-0.0022285368 	2.0656184e-08 	0.0053511313 	-4.8417582e-08 	0.00041652365
0.48888889 	0.006623623 	-0.0026978221 	3.2936156e-09 	0.0066143518 	-3.9508251e-09 	0.003672715
0.5 	0.0063056178 	-0.00257981 	-4.4154783e-09 	0.0062916927 	2.051929e-08 	0.0035554709
0.51111111 	0.0058364084 	-0.0024163166 	-1.139944e-08 	0.005824397 	4.0888444e-08 	0.0037159683
0.52222222 	0.0053222658 	-0.0022136798 	-4.1796263e-08 	0.0052977821 	1.4241224e-07 	0.0011407604
0.53333333 	0.0048098836 	-0.0020160745 	-9.3461246e-09 	0.0047907997 	3.0453615e-08 	0.0037876224
0.54444444 	0.0043107002 	-0.0018145384 	-1.0666977e-08 	0.0042882641 	3.1304562e-08 	0.0035909628
0.55555556 	0.0038393855 	-0.0016134099 	-4.4362522e-08 	0.0038152815 	1.2045921e-07 	0.0024564582
0.56666667 	0.00341039 	-0.0014157429 	-5.9886256e-08 	0.0033864697 	1.447733e-07 	0.0020375817
0.57777778 	0.0030329669 	-0.001221853 	-4.8121296e-08 	0.0030107749 	1.0036254e-07 	0.002086111
0.58888889 	0.0027117682 	-0.0010338455 	-4.4464009e-09 	0.0026916577 	7.8164268e-09 	0.0024123269
0.6 	0.0024522994 	-0.00085335339 	-2.4109697e-08 	0.0024332736 	4.2382972e-08 	0.0019272744
0.61111111 	0.002252155 	-0.00068539058 	-1.1231883e-07 	0.0022345664 	1.6181691e-07 	0.00087411691
0.62222222 	0.0021029541 	-0.00052888983 	-1.7527069e-07 	0.002087746 	1.9329851e-07 	0.0001676496
0.63333333 	0.0019976286 	-0.0003852694 	-4.9303326e-08 	0.0019882172 	3.7061948e-08 	0.0013096985
0.64444444 	0.0019358533 	-0.00024915835 	-3.7116799e-08 	0.0019300376 	2.7901178e-08 	0.0013731973
0.65555556 	0.0019112744 	-0.00011954159 	-1.4611823e-07 	0.0019068556 	6.5409701e-08 	8.2903995e-05
0.66666667 	0.0019056792 	3.7776792e-07 	-2.5966721e-08 	0.0019073701 	6.151062e-09 	0.0013725364
0.67777778 	0.0019287043 	0.00011680607 	-5.9855542e-08 	0.0019328737 	1.4178731e-08 	0.00093448589
0.68888889 	0.001968726 	0.0002293623 	-5.970921e-08 	0.0019752481 	1.0644824e-08 	0.00070392872
0.7 	0.0020208048 	0.00033741463 	-1.8516378e-08 	0.0020312252 	3.3010585e-09 	0.001504045
0.71111111 	0.0020946783 	0.00044548887 	-5.5485031e-08 	0.0021048272 	2.3676873e-08 	0.00036757623
0.72222222 	0.0021709085 	0.0005483747 	-5.4413788e-09 	0.0021855218 	2.3219746e-09 	0.001829908
0.73333333 	0.002268376 	0.00065025854 	-3.1288718e-08 	0.0022811419 	5.2249912e-08 	0.00033613847
0.74444444 	0.0023691679 	0.00075231867 	-2.3328749e-09 	0.002386067 	3.8957335e-09 	0.002035289
0.75555556 	0.0024854894 	0.00084920458 	-6.3346485e-09 	0.0024992126 	9.4003146e-08 	0.00033107768
0.76666667 	0.0026104729 	0.00095138207 	7.244337e-08 	0.0026280611 	7.971854e-08 	0.002383529
0.77777778 	0.0027471885 	0.0010460981 	1.8160688e-08 	0.0027596081 	1.6144288e-07 	4.3196353e-05
0.78888889 	0.0028941881 	0.0011465549 	3.1783448e-09 	0.0029102702 	1.7534827e-08 	0.002400971
0.8 	0.0030515338 	0.0012411443 	2.4076506e-08 	0.0030638733 	1.3282932e-07 	0.0010936619
0.81111111 	0.003219 	0.0013372384 	2.9316931e-08 	0.0032303498 	1.4052362e-07 	0.0013094344
0.82222222 	0.0033971234 	0.0014341519 	1.7097673e-09 	0.0034101177 	8.1953563e-09 	0.0030070399
0.83333333 	0.003584811 	0.001526268 	4.8358715e-08 	0.0035919707 	2.210849e-07 	0.00082886296
0.84444444 	0.0037837034 	0.0016207224 	4.2263215e-08 	0.0037901081 	1.9101148e-07 	0.0013258473
0.85555556 	0.0039931666 	0.0017159129 	3.5849205e-09 	0.0040019049 	1.6264239e-08 	0.0034324307
0.86666667 	0.0042108162 	0.0018078204 	1.5938222e-08 	0.004217192 	7.2309291e-08 	0.0030050086
0.87777778 	0.004435708 	0.0018980299 	4.2400346e-08 	0.0044381543 	1.9432306e-07 	0.0016347081
0.88888889 	0.0046674194 	0.0019873944 	5.8487582e-08 	0.0046666844 	2.7073933e-07 	0.00055052215
0.9 	0.0049047565 	0.0020756618 	6.085048e-08 	0.004902232 	2.8330838e-07 	9.1613217e-05
0.91111111 	0.0051452065 	0.0021622498 	5.5455832e-08 	0.0051421701 	2.580093e-07 	9.2414073e-05
0.92222222 	0.0053861664 	0.0022465853 	4.3206242e-08 	0.005383506 	1.9892535e-07 	0.00075153379
0.93333333 	0.0056236365 	0.0023285239 	2.2266178e-08 	0.0056252291 	1.0021933e-07 	0.0026316682
0.94444444 	0.005854439 	0.0024077687 	5.8681991e-08 	0.0058568295 	1.958517e-07 	0.0053230003
0.95555556 	0.0060590617 	0.0024765051 	2.3728445e-08 	0.0060577775 	9.005869e-08 	0.0015810597
0.96666667 	0.0062273076 	0.0025234474 	9.7955956e-10 	0.0062273958 	3.2162797e-09 	0.0054685108
0.97777778 	0.0062815379 	0.0025412194 	1.2155928e-08 	0.0062783278 	3.5456843e-08 	0.0032072439
0.98888889 	0.0057196056 	0.0023439737 	8.5969553e-09 	0.0056961203 	2.190433e-08 	0.0034576438
