0.36082474 	0.0053643879 	-0.0019881452 	5.4800686e-08 	0.0041030009 	-1.3414979e-07 	0.0042952425
0.37113402 	0.0024852024 	-0.00077149208 	-4.5817425e-07 	0.002159016 	-1.719847e-07 	0.0016884398
0.3814433 	0.0021023157 	-0.00028548329 	-4.8583058e-07 	0.0025808218 	-1.5496917e-06 	0.00089113324
0.39175258 	0.0020406816 	-5.9587021e-05 	-3.5137954e-07 	0.0030403791 	-1.8732341e-06 	0.00057413312
0.40206186 	0.0019908006 	9.0369814e-05 	8.0475286e-07 	0.0032982162 	6.4663153e-07 	0.00077933414
0.41237113 	0.0019432732 	0.00020560612 	7.9889178e-07 	0.0033578208 	-2.6191099e-07 	0.00064467848
0.42268041 	0.0018981364 	0.00028954635 	6.2969295e-07 	0.0033415922 	-9.1468999e-07 	0.00050839728
0.43298969 	0.0018589424 	0.00034690964 	5.9082914e-07 	0.0033031911 	-1.5534026e-06 	0.00036851517
0.44329897 	0.0018257381 	0.00038482133 	4.4457182e-07 	0.003264354 	-2.2441739e-06 	0.000230276
0.45360825 	0.0017982444 	0.00041101832 	1.3794461e-07 	0.0032304154 	-1.5459431e-06 	9.7097036e-05
0.46391753 	0.0017753507 	0.00043017771 	1.4982157e-08 	0.0032026215 	-4.7262553e-07 	4.3843547e-05
0.4742268 	0.0017571619 	0.00044453805 	1.7467803e-08 	0.0031827916 	-5.5103743e-07 	0.00016797699
0.48453608 	0.0017425588 	0.00045691941 	8.5518247e-09 	0.0031687372 	-1.8504698e-06 	0.00028576084
0.49484536 	0.0017300347 	0.00046830765 	-2.706772e-09 	0.0031580846 	-3.8954105e-07 	0.00040006718
0.50515464 	0.0017199478 	0.00047906472 	-3.4272528e-10 	0.0031518455 	-4.9322797e-08 	0.00050436053
0.51546392 	0.0017116587 	0.00048935122 	-1.194658e-08 	0.0031481652 	-1.176192e-06 	0.00060698279
0.5257732 	0.0017041732 	0.00049915373 	4.0850327e-07 	0.0031432044 	-3.9431313e-07 	4.2928862e-05
0.53608247 	0.0016984848 	0.00050975036 	-7.9082066e-09 	0.0031462455 	-9.8584421e-07 	0.00079334316
0.54639175 	0.0016930408 	0.00051949263 	3.5469811e-07 	0.0031442803 	-3.4291539e-07 	0.0002843007
0.55670103 	0.0016888725 	0.00053020747 	-2.3799046e-10 	0.0031487115 	-6.3002856e-07 	0.00096080437
0.56701031 	0.0016848847 	0.00054015344 	4.3816458e-07 	0.0031472691 	-4.2891487e-07 	0.00026420741
0.57731959 	0.0016819185 	0.00055140614 	1.0300278e-08 	0.0031528424 	-6.7789902e-07 	0.0011112331
0.58762887 	0.0016791811 	0.00056189454 	6.1839434e-07 	0.0031501183 	-6.2008858e-07 	1.4400967e-05
0.59793814 	0.0016772475 	0.0005739219 	1.5044107e-08 	0.0031566693 	-3.9444531e-07 	0.0012467681
0.60824742 	0.0016759589 	0.00058576209 	3.9836923e-07 	0.0031549989 	-4.1380613e-07 	0.00048938609
0.6185567 	0.0016750525 	0.00059827513 	1.9230752e-07 	0.0031573954 	-1.9975948e-07 	0.00097056259
0.62886598 	0.0016750279 	0.00061168073 	9.563469e-08 	0.0031585757 	-1.0382928e-07 	0.0011919475
0.63917526 	0.0016758475 	0.00062519894 	5.3679222e-07 	0.0031537555 	-5.8278802e-07 	0.00024678072
0.64948454 	0.0016768284 	0.00063964536 	1.6976084e-08 	0.0031571118 	-1.7259944e-07 	0.001507051
0.65979381 	0.0016797334 	0.00065478678 	3.2156254e-07 	0.0031513386 	-3.6435464e-07 	0.00071409261
0.67010309 	0.0016831152 	0.00067064615 	3.4609777e-07 	0.0031473907 	-3.9215491e-07 	0.00069180999
0.68041237 	0.0016870317 	0.00068754756 	2.3737202e-08 	0.0031465236 	-1.7774935e-07 	0.0016122954
0.69072165 	0.0016937419 	0.00070435633 	4.4814455e-07 	0.0031360937 	-5.2154404e-07 	0.00029992521
0.70103093 	0.0017006962 	0.00072318078 	1.4473825e-07 	0.0031327381 	-1.6844425e-07 	0.0012411519
0.71134021 	0.0017099505 	0.00074247601 	1.5505973e-07 	0.0031253907 	-1.7865308e-07 	0.0011470632
0.72164948 	0.0017214476 	0.00076204269 	3.5132661e-07 	0.0031154131 	-4.0478325e-07 	0.00048061172
0.73195876 	0.0017336804 	0.00078349846 	3.8487773e-08 	0.003111258 	-1.8790983e-07 	0.0017347837
0.74226804 	0.0017503431 	0.00080427034 	3.9248591e-07 	0.0030984969 	-4.1894235e-07 	0.00013991962
0.75257732 	0.0017675332 	0.00082738347 	1.8624722e-09 	0.0030952745 	-1.9880165e-09 	0.0017645433
0.7628866 	0.0017891426 	0.00084972582 	2.6350366e-07 	0.0030853641 	-2.3573954e-07 	0.00053406846
0.77319588 	0.0018123763 	0.00087372046 	5.4868909e-08 	0.0030824918 	-4.9087634e-08 	0.0015351659
0.78350515 	0.0018388827 	0.00089702276 	1.9862629e-07 	0.0030775975 	-1.2238059e-07 	0.00070131617
0.79381443 	0.001867904 	0.00092170412 	4.2677981e-08 	0.0030792759 	-2.6295394e-08 	0.0015753261
0.80412371 	0.0018989123 	0.00094498887 	1.8365935e-07 	0.0030810888 	-3.911571e-08 	0.00057980057
0.81443299 	0.0019322849 	0.00096976534 	2.917068e-08 	0.0030921616 	-6.9080457e-08 	0.0018208676
0.82474227 	0.0019696397 	0.00099232551 	1.7260588e-07 	0.0030984858 	8.8044285e-09 	9.6371908e-05
0.83505155 	0.0020101992 	0.0010180945 	3.4787894e-08 	0.0031174631 	-8.6244963e-08 	0.0018189973
0.84536082 	0.0020610196 	0.0010362191 	4.6233197e-08 	0.0031251374 	4.2186934e-09 	0.00093072905
0.8556701 	0.002114878 	0.0010561993 	2.6717598e-08 	0.0031383958 	9.3861835e-09 	0.00086382922
0.86597938 	0.0021730053 	0.0010767572 	5.3990275e-08 	0.0031570722 	-1.9264266e-07 	0.0018311649
0.87628866 	0.0022347291 	0.0010927889 	7.4163251e-09 	0.0031711302 	8.55344e-09 	0.0010507223
0.88659794 	0.0022994929 	0.0011072275 	-9.0226536e-09 	0.0031855013 	2.1189393e-09 	0.00036454939
0.89690722 	0.0023673981 	0.0011212021 	-4.4507942e-09 	0.0032047388 	-3.5045158e-09 	0.0015670288
0.90721649 	0.0024372993 	0.0011321477 	-1.5473519e-08 	0.003217917 	-1.7965377e-07 	0.0018133492
0.91752577 	0.0025086835 	0.0011417412 	-1.2021476e-08 	0.0032264663 	-1.2268292e-07 	0.0018057788
0.92783505 	0.0025825291 	0.0011514034 	-1.6997934e-09 	0.0032277884 	-2.0467892e-08 	0.0017916296
0.93814433 	0.0026579726 	0.0011613201 	1.984683e-10 	0.0032234931 	-7.6010584e-09 	0.0017703491
0.94845361 	0.002737156 	0.001178793 	1.7805645e-09 	0.0032126143 	-1.376641e-07 	0.001744633
0.95876289 	0.0028263113 	0.0011936686 	3.1883012e-09 	0.0031923502 	-2.0168971e-08 	0.0017138146
0.96907216 	0.0029383239 	0.0012363584 	7.7044778e-08 	0.0031879342 	-7.1110117e-08 	0.0016984045
0.97938144 	0.0030981445 	0.0013078599 	2.5694019e-07 	0.0032215491 	4.2873807e-07 	0.0007483601
0.98969072 	0.0029368309 	0.0012533285 	5.5088035e-09 	0.0029621732 	1.2366377e-08 	0.0015817506
