0.35555556 	0.54584813 	-0.13116007 	-2.7469524e-05
0.36666667 	0.7530828 	-0.16764442 	-8.3780734e-05
0.37777778 	0.87219719 	-0.18142252 	-3.7696408e-05
0.38888889 	0.95705876 	-0.18730971 	4.8967281e-07
0.4 	1.0134927 	-0.18819468 	2.5769506e-05
0.41111111 	1.0597024 	-0.18681225 	7.2788282e-05
0.42222222 	1.0973532 	-0.18400613 	9.1840685e-05
0.43333333 	1.1285446 	-0.1803298 	8.3141487e-05
0.44444444 	1.1549893 	-0.17611954 	4.2907112e-05
0.45555556 	1.1777016 	-0.17138346 	-4.7483771e-05
0.46666667 	1.1976257 	-0.16690137 	3.6564132e-05
0.47777778 	1.2148909 	-0.16219162 	0.00014454722
0.48888889 	1.2303443 	-0.15747377 	9.9000962e-05
0.5 	1.2440838 	-0.15238117 	-7.4323393e-05
0.51111111 	1.2562181 	-0.14799961 	9.1270358e-05
0.52222222 	1.2667074 	-0.14336063 	8.3496483e-05
0.53333333 	1.2761216 	-0.13852086 	-4.7839826e-05
0.54444444 	1.2840533 	-0.13425062 	0.00017351151
0.55555556 	1.291032 	-0.12954944 	-4.9948896e-05
0.56666667 	1.297053 	-0.12547088 	0.0001111651
0.57777778 	1.3020483 	-0.12110644 	-2.1917499e-05
0.58888889 	1.3062323 	-0.11707893 	9.1485164e-05
0.6 	1.3093848 	-0.11287344 	-2.3541938e-05
0.61111111 	1.3116752 	-0.1090237 	0.0001106006
0.62222222 	1.3129608 	-0.10482757 	-4.2786822e-05
0.63333333 	1.3132751 	-0.1012468 	0.00016363903
0.64444444 	1.3128873 	-0.097197656 	-3.936631e-05
0.65555556 	1.3114029 	-0.09378818 	8.9662674e-05
0.66666667 	1.3096147 	-0.090204727 	2.2113759e-05
0.67777778 	1.3068072 	-0.086631109 	-3.9438678e-06
0.68888889 	1.3035535 	-0.083224255 	0.00011424524
0.7 	1.2999838 	-0.079623915 	-3.6938118e-05
0.71111111 	1.2955151 	-0.076422353 	0.00011710844
0.72222222 	1.2909227 	-0.073031053 	-8.3843628e-06
0.73333333 	1.2854782 	-0.069795231 	6.6323772e-05
0.74444444 	1.2798119 	-0.066548118 	1.2618379e-05
0.75555556 	1.2733708 	-0.063366169 	4.813208e-05
0.76666667 	1.266599 	-0.060215498 	1.7984718e-05
0.77777778 	1.2590532 	-0.057115739 	5.5312663e-05
0.78888889 	1.2511991 	-0.054069378 	5.8385973e-07
0.8 	1.2424284 	-0.051088021 	8.2643882e-05
0.81111111 	1.2334229 	-0.048073469 	-1.1942962e-05
0.82222222 	1.2232171 	-0.04523288 	6.5289656e-05
0.83333333 	1.2124202 	-0.042331714 	3.278365e-05
0.84444444 	1.2007809 	-0.03944992 	-1.1056812e-06
0.85555556 	1.1876886 	-0.03660792 	5.9596863e-05
0.86666667 	1.1735367 	-0.033770576 	4.8767453e-05
0.87777778 	1.1580819 	-0.030938733 	4.8915984e-06
0.88888889 	1.1407549 	-0.028107504 	2.4215974e-06
0.9 	1.1210895 	-0.025267046 	2.5668106e-05
0.91111111 	1.0988571 	-0.022407538 	3.8088691e-05
0.92222222 	1.0733114 	-0.019525408 	4.0550438e-05
0.93333333 	1.0433944 	-0.016601379 	3.4247801e-05
0.94444444 	1.0075943 	-0.013635338 	1.8989707e-05
0.95555556 	0.96598709 	-0.010818963 	4.7588999e-07
0.96666667 	0.9048572 	-0.0076033662 	6.9932442e-07
0.97777778 	0.81929136 	-0.0045822367 	1.9386958e-05
0.98888889 	0.65612901 	-0.0014056877 	9.9016337e-06
