0.47777778 	0.0053270419 	-0.0022189118 	1.0928702e-08 	0.0053287381 	-2.452871e-08 	0.00041461972
0.48888889 	0.0066147929 	-0.0026931021 	2.0366363e-09 	0.0066076586 	-1.9336827e-09 	0.0036677444
0.5 	0.0063204464 	-0.0025827697 	-2.3895644e-10 	0.006310279 	6.2653164e-09 	0.0035634939
0.51111111 	0.0058799903 	-0.0024287129 	-1.8078895e-09 	0.0058732222 	9.6066111e-09 	0.0037425886
0.52222222 	0.005397833 	-0.0022365237 	-1.5721448e-08 	0.0053795653 	7.1950507e-08 	0.0011602375
0.53333333 	0.0049169523 	-0.0020497795 	2.8861327e-07 	0.0049042372 	-7.1708848e-07 	0.0035419787
0.54444444 	0.0044468715 	-0.0018595328 	4.3416513e-07 	0.0044312359 	-1.0543574e-06 	0.0032527226
0.55555556 	0.0039990101 	-0.001669892 	-9.2724488e-09 	0.0039821133 	3.1366063e-08 	0.0025573553
0.56666667 	0.0035842759 	-0.0014823913 	-1.5832706e-08 	0.0035667672 	4.8912572e-08 	0.0021408035
0.57777778 	0.0032103484 	-0.001298324 	-6.3261358e-09 	0.0031942046 	1.7308026e-08 	0.0022092859
0.58888889 	0.0028844707 	-0.0011171376 	7.98795e-07 	0.0028691345 	-1.4235301e-06 	0.0021010228
0.6 	0.0026094595 	-0.00094098851 	3.7399937e-07 	0.002594543 	-5.7482554e-07 	0.0018650705
0.61111111 	0.0023878337 	-0.00077230155 	-4.7542655e-08 	0.0023728205 	9.7841946e-08 	0.00092615926
0.62222222 	0.0022154206 	-0.00061300609 	-9.2472393e-08 	0.0022010697 	1.6178622e-07 	0.00017760817
0.63333333 	0.0020870425 	-0.0004656294 	-9.6633984e-09 	0.0020770077 	1.3853153e-08 	0.0013720779
0.64444444 	0.0020041329 	-0.00032418084 	-1.3920072e-09 	0.0019960967 	1.9955391e-09 	0.0014188589
0.65555556 	0.0019632669 	-0.00018776556 	-7.8154992e-08 	0.0019550151 	9.0043378e-08 	8.4687807e-05
0.66666667 	0.0019451641 	-6.1341227e-05 	-3.1894347e-10 	0.0019416679 	3.1024731e-10 	0.0014018211
0.67777778 	0.0019608446 	6.220556e-05 	-2.2897675e-08 	0.0019590759 	2.2273358e-08 	0.00094777813
0.68888889 	0.0019971443 	0.00018193228 	-2.5700789e-08 	0.0019971618 	2.5584211e-08 	0.00071393156
0.7 	0.002048597 	0.00029687353 	5.6034225e-08 	0.0020520779 	1.8789578e-08 	0.0014972659
0.71111111 	0.0021254998 	0.00041231203 	-2.5378246e-08 	0.0021285058 	3.7953899e-08 	0.00037215227
0.72222222 	0.0022077526 	0.00052194947 	4.9061279e-07 	0.0022145483 	3.0101464e-07 	0.0016134689
0.73333333 	0.0023113056 	0.00063082204 	-1.2592866e-08 	0.00231664 	4.925492e-08 	0.00034125483
0.74444444 	0.002421785 	0.00073912223 	5.2383904e-07 	0.0024306119 	4.6202881e-07 	0.001772365
0.75555556 	0.0025470372 	0.00084277078 	2.8004927e-10 	0.002553288 	6.7161525e-08 	0.00033795194
0.76666667 	0.0026840759 	0.000950328 	7.5757779e-07 	0.0026933704 	8.6466614e-07 	0.0019584097
0.77777778 	0.0028310194 	0.001051439 	1.3427427e-08 	0.0028361897 	1.0436644e-07 	4.4538479e-05
0.78888889 	0.0029900691 	0.001156648 	3.4422225e-07 	0.0029986591 	4.7619298e-07 	0.0021577535
0.8 	0.0031577725 	0.0012561457 	1.2362232e-08 	0.0031635582 	6.7245985e-08 	0.0011315724
0.81111111 	0.0033352776 	0.0013560933 	1.3019559e-08 	0.003340546 	6.2950819e-08 	0.001354836
0.82222222 	0.0035224968 	0.0014555401 	3.9751571e-07 	0.0035290755 	7.2992455e-07 	0.002574517
0.83333333 	0.003716433 	0.0015505369 	2.3813626e-08 	0.003718671 	1.1072081e-07 	0.00085857091
0.84444444 	0.0039199563 	0.0016465505 	1.8270385e-08 	0.0039221573 	8.4321323e-08 	0.0013733671
0.85555556 	0.0041315314 	0.0017420014 	2.7431127e-07 	0.004135868 	6.1359908e-07 	0.0029908632
0.86666667 	0.0043483879 	0.001834457 	1.0185634e-09 	0.0043520554 	4.7265117e-09 	0.0031008194
0.87777778 	0.0045693311 	0.0019239985 	1.7271457e-08 	0.0045695583 	8.0850597e-08 	0.0016818356
0.88888889 	0.0047943805 	0.0020121334 	2.6977616e-08 	0.0047918603 	1.2689445e-07 	0.00056455762
0.9 	0.005022435 	0.0020987012 	2.8621522e-08 	0.0050184897 	1.3418744e-07 	9.3930455e-05
0.91111111 	0.0052513775 	0.0021832762 	2.5959297e-08 	0.0052471733 	1.2014644e-07 	9.4438241e-05
0.92222222 	0.0054792468 	0.0022654706 	1.9584742e-08 	0.0054755501 	8.789062e-08 	0.00076347121
0.93333333 	0.0057028382 	0.0023453395 	8.0157452e-09 	0.0057034622 	3.4101011e-08 	0.0026665578
0.94444444 	0.0059188906 	0.0024219118 	1.8681198e-07 	0.0059185304 	5.8918496e-07 	0.0043068414
0.95555556 	0.0061123889 	0.0024902559 	1.1973565e-08 	0.0061099519 	3.9073722e-08 	0.0015956082
0.96666667 	0.0062689956 	0.0025361677 	5.0929136e-09 	0.0062665179 	8.3233787e-08 	0.0045583852
0.97777778 	0.0063174091 	0.0025537708 	5.5120262e-09 	0.0063132887 	1.4032125e-08 	0.003224984
0.98888889 	0.0057509856 	0.002356345 	2.9331199e-09 	0.0057269988 	7.0696299e-09 	0.0034764605
