/*--------------------------------*- C++ -*----------------------------------*\
| =========                 |                                                 |
| \\      /  F ield         | OpenFOAM: The Open Source CFD Toolbox           |
|  \\    /   O peration     | Version:  2.4.0                                 |
|   \\  /    A nd           | Web:      www.OpenFOAM.org                      |
|    \\/     M anipulation  |                                                 |
\*---------------------------------------------------------------------------*/
FoamFile
{
    version     2.0;
    format      ascii;
    class       volSymmTensorField;
    location    "2000";
    object      Ax;
}
// * * * * * * * * * * * * * * * * * * * * * * * * * * * * * * * * * * * * * //

dimensions      [0 0 0 0 0 0 0];

internalField   nonuniform List<symmTensor> 
15296
(
(0.0057192544 -0.0058433056 -0.00035395747 0.037625003 0.079132603 -0.043344257)
(0.015317708 -0.0030487796 0.00029833338 0.0472052 0.076867323 -0.062522908)
(0.016809406 -0.0024700326 0.00028889631 0.047721449 0.074269489 -0.064530854)
(0.017980957 -0.0023247973 0.0011200345 0.04915807 0.071462477 -0.067139027)
(0.016890363 -0.0019298388 0.00085869457 0.028393207 -0.082218085 -0.045283569)
(0.020146665 -0.0013076724 -3.741112e-05 0.046351997 -0.080948266 -0.066498662)
(0.019355747 -4.9666967e-05 1.5145667e-05 0.047861697 -0.075928056 -0.067217444)
(0.018087914 0.0021499665 -0.00051129031 0.049290641 -0.072291723 -0.067378555)
(0.014560886 0.0074382984 -0.0014408075 0.029197239 0.081498849 -0.043758125)
(0.016447153 0.010591307 -0.00046905029 0.046431906 0.07917695 -0.062879059)
(0.013339662 0.016054184 0.0020832784 0.03100679 -0.079169461 -0.044346453)
(0.015448867 0.017840615 0.0019484393 0.042773697 -0.078470715 -0.058222564)
(0.015871936 0.018730777 0.0013330183 0.043944743 -0.076364208 -0.059816678)
(0.015494578 0.019984802 -0.0024048311 0.03143929 0.079593576 -0.046933868)
(0.020387226 0.013326427 -0.0015527083 0.045133513 0.078044908 -0.065520739)
(0.024691263 0.00096598649 -4.0133436e-05 0.047634046 0.076445821 -0.07232531)
(0.027059596 -0.016707352 0.0020008848 0.030467067 0.077347886 -0.057526663)
(0.023160678 -0.034530446 -0.00082010044 0.00010418434 -0.044668702 -0.023264862)
(0.014084669 -0.045968465 -0.0007921898 -0.010999993 -0.016611773 -0.003084676)
(-0.0079235274 -0.014320869 -8.8810883e-05 -0.00045439537 -0.0022047561 0.0083779227)
(-0.027336405 0.062880095 -2.105438e-06 -0.013260997 -0.00012609358 0.040597401)
(-0.061651253 0.12636304 2.3966201e-06 -0.037619113 -1.6619385e-05 0.099270366)
(-0.032124234 0.13872848 3.7955854e-07 -0.030866243 -6.8920358e-07 0.062990477)
(-0.0063125615 0.13545195 1.7620847e-07 -0.054181898 -4.9944024e-07 0.060494459)
(0.0021476941 0.13134956 2.164434e-07 -0.068926055 -1.202951e-06 0.066778361)
(0.0017934179 0.11724072 2.2007335e-07 -0.060367471 -1.7553544e-06 0.058574053)
(0.0013839827 0.1064617 1.826173e-07 -0.050862236 -1.717202e-06 0.049478254)
(0.0013967899 0.10116725 1.4421207e-07 -0.046438327 -1.4630777e-06 0.045041537)
(0.0010637947 0.098106315 1.0942967e-07 -0.043758189 -1.1547021e-06 0.042694394)
(0.00016177046 0.096163253 8.1225047e-08 -0.041767497 -8.7582903e-07 0.041605726)
(-0.0015910594 0.095382749 6.0057195e-08 -0.040378259 -6.4947486e-07 0.041969318)
(-0.0055454282 0.096075598 4.52261e-08 -0.039219342 -4.9064878e-07 0.04476477)
(-0.022537561 0.10196575 7.3177913e-09 -0.036238409 -1.2165792e-07 0.05877597)
(-0.042489121 0.13005314 -7.3846047e-08 -0.048141638 2.1060953e-06 0.090630759)
(-0.063410663 0.12727283 1.8105614e-05 -0.033776518 -4.2339074e-05 0.097187181)
(-0.068011087 0.10759553 0.00038834909 -0.022856992 -0.0035807169 0.090868079)
(-0.05751658 0.054149128 0.0012356768 0.011152786 -0.031681941 0.046363794)
(0.007727543 0.087395796 -8.1738836e-05 0.09874495 -0.00049544791 -0.10647249)
(-0.0065312552 -0.013417251 -0.00069193307 0.0018627662 0.032919172 0.004668489)
(-0.00035189279 -0.0083456096 6.830731e-05 0.00071161308 0.037845205 -0.00035972029)
(0.0011750976 -0.0068417471 0.00018374456 0.00061962593 0.037337053 -0.0017947236)
(0.0022900275 -0.0062806182 0.0010367554 0.0009080196 0.037468966 -0.0031980471)
(0.0051488903 -0.0054412176 0.0011375179 -0.0049808754 -0.031939043 -0.00016801489)
(0.0040783356 -0.00437015 0.00026585086 -0.0022845665 -0.039733651 -0.0017937691)
(0.0035211894 -0.0019097781 8.3114689e-05 -0.00079249678 -0.03876168 -0.0027286926)
(0.0024314316 0.0028002499 -0.00055167278 0.00071919884 -0.038221761 -0.0031506304)
(0.003182827 0.012020268 -0.00095894085 -0.004068438 0.031732939 0.00088561094)
(0.0013123952 0.020321004 -0.00015852674 -0.0011966624 0.038986536 -0.00011573275)
(0.0027023305 0.029620545 0.00094595957 -0.0044255431 -0.030869578 0.0017232126)
(0.0023017535 0.035427676 0.0011488791 -0.0033443264 -0.036253139 0.0010425729)
(0.0029131091 0.038297571 0.00064954109 -0.0034218817 -0.036072767 0.00050877265)
(0.0051476305 0.038946094 -0.0010139932 -0.0066372289 0.031526522 0.0014895985)
(0.0054690261 0.029002996 -0.0010910268 -0.003690643 0.037554175 -0.0017783831)
(0.0078749568 0.0049305376 -6.5384795e-06 -0.0027957074 0.03873815 -0.0050792494)
(0.014925313 -0.029890682 0.00091875619 -0.0093506959 0.030961965 -0.0055746169)
(0.024266589 -0.059519075 0.00039635125 -0.019341206 -0.014223432 -0.0049253835)
(0.023970207 -0.07624546 -0.00010627229 -0.024137234 -0.0051455484 0.00016702676)
(-0.002956162 -0.03364783 -4.2821664e-05 -0.0012183615 -0.00070514829 0.0041745235)
(-0.0039375972 0.092143978 -3.2561931e-06 -0.015754633 -3.0621605e-05 0.01969223)
(-0.014986822 0.13935314 2.0017949e-06 -0.030829618 -1.9540544e-06 0.04581644)
(-0.0038119803 0.13792692 3.3837592e-07 -0.035415668 -9.7537472e-08 0.039227648)
(0.017076258 0.13354148 1.2117301e-07 -0.046649293 -7.1694116e-08 0.029573035)
(0.02590316 0.13099679 9.2772187e-08 -0.051039215 -1.8165814e-07 0.025136054)
(0.031041326 0.12933777 7.8919248e-08 -0.054185044 -2.9011793e-07 0.023143719)
(0.033993381 0.12832554 6.8226253e-08 -0.05621792 -3.110678e-07 0.022224539)
(0.035561612 0.12776584 5.6696801e-08 -0.05733451 -2.7634938e-07 0.021772897)
(0.036182878 0.1275397 4.5728161e-08 -0.057848588 -2.221154e-07 0.02166571)
(0.036038351 0.12759104 3.6137712e-08 -0.057908335 -1.6961775e-07 0.021869984)
(0.034938529 0.12798753 2.8510773e-08 -0.057410502 -1.2483828e-07 0.022471973)
(0.031876788 0.12907016 2.2688483e-08 -0.055815398 -9.2236993e-08 0.02393861)
(0.018414347 0.13318012 9.8747217e-09 -0.048467423 -1.0849745e-08 0.030053076)
(0.0059892333 0.13613089 -4.9412141e-09 -0.040491141 3.8471117e-07 0.034501908)
(-0.0027093328 0.13769806 6.0620658e-06 -0.035263394 -5.3869076e-06 0.037972727)
(-0.0081211309 0.13843187 6.5440494e-05 -0.032218727 -0.0006528731 0.040339857)
(-0.032068198 0.11662675 2.1436286e-05 -0.0064850043 -0.0085891266 0.038553202)
(0.029585954 0.12219927 5.89135e-05 0.0452652 2.2407209e-05 -0.074851155)
(-0.00028662593 -0.019636179 -0.00070391474 -0.0032511928 0.019518905 0.0035378188)
(0.0071816418 -0.013585122 -0.00019608914 -0.006690073 0.028135079 -0.00049156885)
(0.0087286302 -0.011193632 -2.9178504e-05 -0.0069895518 0.029243033 -0.0017390784)
(0.010086874 -0.010072195 0.00066499059 -0.0072049587 0.031350653 -0.0028819155)
(0.0098880484 -0.0089669332 0.0011054513 -0.0077980921 -0.014928266 -0.0020899562)
(0.011519317 -0.0077223387 0.00052531571 -0.0093147253 -0.028188946 -0.0022045921)
(0.011249214 -0.0047735742 0.00023113277 -0.008509999 -0.030294137 -0.0027392152)
(0.010398287 0.0011465359 -0.00042256676 -0.0074763696 -0.032092789 -0.0029219173)
(0.0081734059 0.01176003 -0.00070246001 -0.0071201136 0.015178451 -0.0010532923)
(0.0090723878 0.02305656 8.8499139e-05 -0.0087020157 0.028482318 -0.00037037215)
(0.0085707944 0.034583731 0.00036905934 -0.0089737477 -0.015775148 0.00040295328)
(0.010359302 0.043025264 0.000400581 -0.011299479 -0.024936743 0.00094017668)
(0.01153271 0.047984351 -1.5181845e-05 -0.012400772 -0.026109913 0.00086806134)
(0.011881486 0.048924564 -0.00025309484 -0.012725916 0.016796478 0.00084443025)
(0.013430582 0.039663178 -0.00042478308 -0.012113959 0.026756395 -0.0013166225)
(0.014661759 0.013077617 8.6472792e-05 -0.0099351629 0.029258681 -0.0047265963)
(0.01888203 -0.029389943 0.00039287691 -0.012807541 0.017520333 -0.0060744891)
(0.026853861 -0.066466506 0.00044998163 -0.022412599 -0.0059385838 -0.0044412613)
(0.029029568 -0.086933313 3.9214881e-05 -0.030357715 -0.002310091 0.0013281474)
(0.0034616383 -0.05400128 -1.9874401e-05 -0.0080157487 -0.00032156975 0.0045541104)
(-0.0023468958 0.086072055 -6.7293594e-07 -0.013425579 -9.8708952e-06 0.015772475)
(-0.028374929 0.14070251 2.8729091e-06 -0.020072803 -6.4752063e-07 0.048447732)
(-0.0052746164 0.13826088 3.4848618e-07 -0.034268777 -1.603905e-07 0.039543393)
(0.016131537 0.13387948 1.1162294e-07 -0.044783815 -6.2846995e-08 0.028652278)
(0.022751577 0.13204376 8.805668e-08 -0.047296316 -7.5359541e-08 0.024544738)
(0.027724788 0.13052443 8.1673911e-08 -0.049810746 -8.7104964e-08 0.022085958)
(0.031141163 0.12941613 7.3594649e-08 -0.051818931 -8.2921441e-08 0.020677768)
(0.032997613 0.12879161 6.316111e-08 -0.052940108 -6.7035777e-08 0.019942495)
(0.03383692 0.12850474 5.2148515e-08 -0.05347466 -4.8862504e-08 0.01963774)
(0.033898226 0.12848795 4.1868039e-08 -0.053571283 -3.3803357e-08 0.019673056)
(0.033017887 0.12880207 3.330566e-08 -0.053142761 -2.2437669e-08 0.020124874)
(0.03034346 0.12973956 2.6773882e-08 -0.051725939 -1.5253122e-08 0.021382478)
(0.018846194 0.13325691 1.3308457e-08 -0.045668808 9.2886695e-09 0.026822614)
(0.010727497 0.1352737 -3.0209366e-08 -0.040989962 1.9854343e-07 0.030262465)
(0.0057929688 0.1362944 3.1258555e-06 -0.038057189 -1.3047662e-06 0.03226422)
(0.0016446328 0.1370509 2.1780344e-05 -0.035089869 -0.00023756473 0.033445236)
(-0.011748245 0.13865625 -0.00014784005 -0.027972137 -0.003270489 0.039720382)
(0.041738956 0.12700207 9.2462621e-05 0.026235727 -0.00024862727 -0.067974683)
(-0.0018738455 -0.023840806 -0.0005503688 8.8819378e-05 0.011101135 0.0017850262)
(0.004684255 -0.018248253 -0.00034411302 -0.0025183761 0.02028622 -0.0021658789)
(0.006079317 -0.01529522 -0.00019977566 -0.0028397959 0.022555933 -0.0032395211)
(0.0073564783 -0.013738033 0.00028393621 -0.003176 0.025711672 -0.0041804783)
(0.0079581948 -0.012423375 0.00086330893 -0.0038561549 -0.0040281206 -0.0041020399)
(0.0086233913 -0.011030524 0.00062765364 -0.0043377679 -0.018771515 -0.0042856234)
(0.0084750743 -0.008052476 0.00036193908 -0.0040306649 -0.023039218 -0.0044444094)
(0.0077669827 -0.0018414239 -0.0001977066 -0.0033840855 -0.026361315 -0.0043828972)
(0.0064019031 0.0090124258 -0.00055380184 -0.0031931897 0.0045578691 -0.0032087135)
(0.0064522839 0.021915325 8.7949453e-05 -0.0040318733 0.019919537 -0.0024204106)
(0.0068748116 0.034849643 0.000198716 -0.0053861811 -0.0066317318 -0.0014886305)
(0.0082894569 0.045332394 7.455938e-05 -0.0075098818 -0.01681611 -0.00077957505)
(0.0097330803 0.052152979 -0.00028829618 -0.0092601744 -0.01894239 -0.00047290583)
(0.010607479 0.054077635 -4.238612e-05 -0.010119398 0.0079239978 -0.0004880815)
(0.011068163 0.046942771 -2.5239031e-05 -0.0086345439 0.018482633 -0.0024336195)
(0.010788824 0.022193563 0.00021853076 -0.004887056 0.021154424 -0.0059017677)
(0.014354009 -0.022822345 0.00023805432 -0.0066619458 0.0098553886 -0.0076920633)
(0.024635821 -0.065741084 0.00026280761 -0.019839131 -0.0022368691 -0.0047966898)
(0.030421777 -0.089552008 4.2908044e-05 -0.032049464 -0.0010958045 0.0016276873)
(0.010938601 -0.069091239 -1.1948435e-05 -0.01611114 -0.00015184957 0.0051725387)
(-0.0048446394 0.061181708 -2.6194771e-07 -0.0065220042 -4.9864141e-06 0.011366644)
(-0.039831129 0.14080724 3.3907892e-06 -0.017955885 -3.1470975e-06 0.057787013)
(-0.0057034344 0.13835233 3.5111254e-07 -0.035654684 -2.9468107e-07 0.041358118)
(0.019085766 0.13308237 9.5584347e-08 -0.047641733 -9.2640323e-08 0.028555967)
(0.025236576 0.13127141 7.6942333e-08 -0.05019528 -6.7861448e-08 0.024958703)
(0.029199085 0.13002014 7.710546e-08 -0.051866292 -4.786171e-08 0.022667207)
(0.031966161 0.12911187 7.435988e-08 -0.053193313 -2.838087e-08 0.021227151)
(0.033571027 0.12857128 6.704842e-08 -0.054026336 -1.1798367e-08 0.020455309)
(0.034303832 0.12832269 5.7328341e-08 -0.05441683 -3.8393585e-11 0.020112998)
(0.034339355 0.12831748 4.7150773e-08 -0.054444289 6.3788121e-09 0.020104934)
(0.033535615 0.12860948 3.7970725e-08 -0.054036847 8.7784405e-09 0.020501232)
(0.031164389 0.12945906 3.0667638e-08 -0.052806008 8.4394963e-09 0.021641619)
(0.021979621 0.13238425 1.6462743e-08 -0.048480629 1.6195697e-08 0.026501008)
(0.017006541 0.1337297 -3.5191936e-08 -0.046075832 1.5985411e-07 0.029069291)
(0.011637442 0.13501808 2.0035646e-06 -0.042528707 -7.1673037e-08 0.030891266)
(0.0078972415 0.13580462 9.546739e-06 -0.039580715 -0.00012067442 0.031683474)
(-0.0050085179 0.13777645 -7.6517159e-05 -0.031176751 -0.0014059447 0.036185269)
(0.039561796 0.13068897 3.5954887e-05 0.015284833 -0.00058629835 -0.054846629)
(-0.0014570193 -0.026177866 -0.00035881804 -0.00056545263 0.0058656371 0.002022472)
(0.0049718604 -0.021692233 -0.00036193781 -0.0033524899 0.013861639 -0.0016193706)
(0.0062463823 -0.018599314 -0.00028109857 -0.0037060282 0.016760564 -0.0025403541)
(0.0074331837 -0.016789073 1.2971134e-05 -0.0041261927 0.020282177 -0.0033069909)
(0.0082487872 -0.015409546 0.00055730472 -0.0043731131 0.0025255217 -0.0038756741)
(0.0087119934 -0.01396319 0.00058337946 -0.0047743035 -0.011002112 -0.00393769)
(0.0086052214 -0.011230711 0.00042261821 -0.0047187324 -0.016474976 -0.003886489)
(0.0079691966 -0.0054679811 1.5555507e-05 -0.004294641 -0.020650279 -0.0036745556)
(0.0068167001 0.0046163594 -0.00040293506 -0.0036100929 -0.001856466 -0.0032066072)
(0.0064908916 0.01759836 -1.4652724e-05 -0.0041727894 0.012709816 -0.0023181021)
(0.0069015195 0.031036958 0.00014686146 -0.0053455696 -0.0015065985 -0.0015559499)
(0.0081236526 0.042737691 -1.1063718e-07 -0.007477411 -0.010830223 -0.00064624164)
(0.0096194673 0.051055771 -0.00030929453 -0.0095349963 -0.01357689 -8.4470979e-05)
(0.010669748 0.054428087 -4.7595744e-05 -0.010515567 0.0027069358 -0.00015418189)
(0.01097829 0.049747338 0.00011272045 -0.0094469207 0.012147615 -0.0015313697)
(0.010084568 0.029294721 0.0002656485 -0.0054841891 0.014459654 -0.0046003784)
(0.011880638 -0.012926158 0.00016962816 -0.0047088698 0.0056280028 -0.0071717682)
(0.021504627 -0.059610586 0.00012714999 -0.01646902 -0.00066211871 -0.0050356071)
(0.029425685 -0.08756612 2.5555026e-05 -0.030693442 -0.00054495464 0.0012677571)
(0.016415869 -0.077072725 -9.7823968e-06 -0.021672122 -7.7799197e-05 0.0052562532)
(-0.0064803388 0.02671199 -1.1131857e-06 -0.0008864418 -6.116912e-06 0.0073667806)
(-0.047245199 0.14034992 3.2225992e-06 -0.018604743 -8.0478169e-06 0.065849943)
(-0.0043915135 0.1381635 3.4074201e-07 -0.038480572 -4.8536168e-07 0.042872085)
(0.021656646 0.13236393 7.6356035e-08 -0.04970695 -1.3316669e-07 0.028050304)
(0.026729745 0.13080707 6.3487927e-08 -0.051211934 -8.0911385e-08 0.024482188)
(0.03003298 0.12973843 6.8404563e-08 -0.052461577 -4.5861586e-08 0.022428596)
(0.032527061 0.12890985 7.0182034e-08 -0.053679138 -1.7343463e-08 0.021152077)
(0.03407867 0.12838347 6.6254725e-08 -0.054531829 2.9567959e-09 0.020453159)
(0.034827556 0.12812792 5.8619521e-08 -0.054970031 1.5256195e-08 0.020142475)
(0.03491489 0.12810503 4.9435326e-08 -0.055054824 2.0504805e-08 0.020139934)
(0.03421175 0.12836562 4.043036e-08 -0.054720003 2.0681404e-08 0.020508254)
(0.032077756 0.12914694 3.294413e-08 -0.053620635 1.7997214e-08 0.021542878)
(0.024913766 0.13152401 1.9287155e-08 -0.050640851 1.9913403e-08 0.025727084)
(0.02000228 0.13294208 -3.630245e-08 -0.048213863 1.4349596e-07 0.028211583)
(0.013977611 0.13447459 1.4582815e-06 -0.04420911 4.3784517e-07 0.030231499)
(0.010330167 0.13527807 5.4015339e-06 -0.041190203 -7.1920532e-05 0.030860036)
(-0.0017782372 0.13724187 -4.4615902e-05 -0.032819665 -0.00073038078 0.034597902)
(0.039218713 0.13283715 -3.66083e-05 0.002842807 -0.00072059068 -0.042061519)
(-0.0010074285 -0.027434853 -0.0001671708 -0.0010671536 0.0023443247 0.0020745822)
(0.0054951756 -0.024417043 -0.00028557699 -0.0040310056 0.0077746245 -0.00146417)
(0.0067029118 -0.021644825 -0.00028451241 -0.0044158502 0.010660517 -0.0022870616)
(0.0077904219 -0.019802553 -0.0001729272 -0.0048332027 0.013926222 -0.0029572192)
(0.0086998672 -0.018447077 0.00022035673 -0.0049976124 0.0059526739 -0.0037022547)
(0.0091497755 -0.017093139 0.00042197855 -0.0052669605 -0.0037936938 -0.003882815)
(0.009078352 -0.014879873 0.00040453198 -0.0052899861 -0.0093243622 -0.0037883659)
(0.0085339639 -0.010330499 0.00020348252 -0.0050131998 -0.013701132 -0.0035207641)
(0.0075057833 -0.0022756477 -0.00018074557 -0.004209789 -0.0052169753 -0.0032959943)
(0.0068036699 0.0089466361 -0.0001294931 -0.0041389619 0.0056839291 -0.002664708)
(0.0066923791 0.021442955 5.4133379e-05 -0.0046356425 0.00094311804 -0.0020567366)
(0.0073408918 0.033358408 1.7578431e-05 -0.0060721467 -0.0056505329 -0.0012687451)
(0.0084710426 0.04287074 -0.00019037741 -0.0078287444 -0.0086146563 -0.00064229816)
(0.0094944009 0.048170241 -7.2245012e-05 -0.0089097685 -0.00052269201 -0.00058463244)
(0.0099800776 0.046722349 9.8093567e-05 -0.0085516639 0.0064884388 -0.0014284138)
(0.0092946602 0.032951066 0.00021221363 -0.0055806993 0.0083200598 -0.0037139608)
(0.0095999517 0.00021172539 9.9326624e-05 -0.003137314 0.0030984862 -0.0064626378)
(0.016194871 -0.044630143 4.7175922e-05 -0.010195203 2.128358e-05 -0.0059996687)
(0.024567015 -0.077588281 1.2511026e-05 -0.023993564 -0.0002543508 -0.00057345129)
(0.018762858 -0.07687895 -7.2833335e-06 -0.022888276 -4.8211107e-05 0.0041254175)
(-0.002491763 -0.013847742 -1.9949349e-06 -0.0025465532 -1.0217965e-05 0.0050383162)
(-0.057210876 0.11467475 1.7913539e-06 -0.0089096771 -1.5286109e-05 0.066120554)
(-0.00070703911 0.13757496 2.6776198e-07 -0.043348328 -9.8219896e-07 0.044055367)
(0.022488506 0.13212615 5.7544044e-08 -0.051130231 -2.0279813e-07 0.028641725)
(0.026970529 0.13072945 5.1924796e-08 -0.051614338 -1.0741854e-07 0.024643809)
(0.029850692 0.12979216 6.0201416e-08 -0.052361844 -6.0049472e-08 0.022511152)
(0.032211028 0.12901133 6.5562855e-08 -0.053426215 -2.3995224e-08 0.021215187)
(0.033802405 0.12847582 6.4903376e-08 -0.054297192 1.6330017e-09 0.020494787)
(0.034622468 0.12819848 5.9593474e-08 -0.054787171 1.7488235e-08 0.020164703)
(0.034786601 0.12815048 5.1691852e-08 -0.054927387 2.4776777e-08 0.020140786)
(0.034181873 0.12837847 4.3082017e-08 -0.054659485 2.5538984e-08 0.020477612)
(0.032229184 0.12910079 3.5549981e-08 -0.053666871 2.2522656e-08 0.021437687)
(0.026980415 0.13090715 2.2603259e-08 -0.051950055 2.1334134e-08 0.02496964)
(0.020274427 0.13291109 -4.25675e-08 -0.048828381 1.3058658e-07 0.028553954)
(0.013456959 0.13463655 1.0882713e-06 -0.04428495 7.4271339e-07 0.030827991)
(0.0094484945 0.13549501 3.3112487e-06 -0.040740012 -4.3485155e-05 0.031291517)
(-0.00067465466 0.13699521 -3.1448276e-05 -0.033632093 -0.00039431082 0.034306747)
(0.038445386 0.13370558 -8.586663e-05 -0.0075207443 -0.00060314238 -0.030924641)
(-0.00084190053 -0.028405851 -3.5749405e-05 -0.0011432831 0.00047461263 0.0019851836)
(0.0057804425 -0.026696162 -0.00015924894 -0.004248325 0.0032964218 -0.0015321175)
(0.006998231 -0.024537507 -0.00021417479 -0.0046868237 0.0055957269 -0.0023114074)
(0.0080103397 -0.022889673 -0.00022970586 -0.0050636622 0.0081820574 -0.0029466774)
(0.0089972591 -0.02160984 -4.2271298e-05 -0.0053885878 0.0064103181 -0.0036086712)
(0.0094446375 -0.020429505 0.00018963955 -0.0055185707 0.0010666541 -0.0039260668)
(0.0094229364 -0.018823001 0.00028721409 -0.005520163 -0.0034086773 -0.0039027733)
(0.0090068931 -0.015757434 0.00027202973 -0.005330556 -0.0072964504 -0.0036763371)
(0.00819625 -0.010257796 4.3078021e-05 -0.004763854 -0.0056034373 -0.003432396)
(0.0072609011 -0.0019325883 -0.00012282073 -0.0041720018 0.00062643728 -0.0030888994)
(0.0066070808 0.0083161003 -3.8656764e-05 -0.0039526955 0.0012556198 -0.0026543853)
(0.0064639365 0.019242292 2.4852319e-05 -0.0043202092 -0.0020867719 -0.0021437273)
(0.006883101 0.029217193 -5.4655687e-05 -0.0052419974 -0.0046407621 -0.0016411037)
(0.0075878297 0.036349209 -6.2746839e-05 -0.0061415975 -0.0019088964 -0.0014462322)
(0.0081288816 0.038433497 3.0785417e-05 -0.0062594653 0.0024062723 -0.0018694163)
(0.0079373554 0.031932959 0.0001089675 -0.0046711279 0.0038233882 -0.0032662275)
(0.007747047 0.011701551 4.3970761e-05 -0.0022898497 0.0015939257 -0.0054571973)
(0.010892744 -0.024476951 7.7155479e-06 -0.0044659478 0.00024653693 -0.0064267962)
(0.017595685 -0.060234845 1.6669543e-06 -0.014774904 -9.8453898e-05 -0.0028207802)
(0.017607938 -0.069719918 -5.1208013e-06 -0.019739325 -3.6629731e-05 0.0021313869)
(0.0054074821 -0.043679728 -2.0385227e-06 -0.00976771 -1.3559537e-05 0.0043602279)
(-0.044431055 0.031262378 -2.9304803e-08 0.00049074505 -1.9102521e-05 0.043940309)
(0.00072289905 0.1370552 2.0694033e-08 -0.050392778 -2.3212305e-06 0.049669879)
(0.021688707 0.13235731 2.7154107e-08 -0.052382933 -3.4777502e-07 0.030694226)
(0.026553632 0.13085916 3.8969871e-08 -0.051905432 -1.5183675e-07 0.0253518)
(0.029217511 0.12999214 5.0884293e-08 -0.05210556 -8.5789386e-08 0.022888049)
(0.031475032 0.12925225 5.9603248e-08 -0.052946597 -4.0636674e-08 0.021471564)
(0.033141957 0.12869928 6.2443142e-08 -0.053821498 -7.9143528e-09 0.020679541)
(0.034075014 0.12838846 5.9920884e-08 -0.054377377 1.3540399e-08 0.020302363)
(0.034346645 0.12830605 5.3748302e-08 -0.054586929 2.482893e-08 0.020240284)
(0.033858001 0.12849552 4.5841051e-08 -0.054394521 2.7768774e-08 0.02053652)
(0.032068475 0.12915993 3.8437652e-08 -0.053497181 2.5468792e-08 0.021428707)
(0.028341484 0.1305013 2.6284875e-08 -0.052619819 2.2207121e-08 0.024278335)
(0.019172625 0.13329209 -4.9033391e-08 -0.048708032 1.1881073e-07 0.029535408)
(0.011717893 0.13511277 8.4544072e-07 -0.043785254 9.3493958e-07 0.032067362)
(0.0070083814 0.1360576 2.3531053e-06 -0.039449315 -2.5730311e-05 0.032440934)
(-0.0010597096 0.13699196 -2.382311e-05 -0.033311191 -0.0002135644 0.0343709)
(0.037278158 0.13396404 -9.7093894e-05 -0.016892467 -0.00036190667 -0.020385691)
(-0.00070889946 -0.029191248 1.8963601e-05 -0.0012607564 -0.00015185353 0.0019696559)
(0.0060159854 -0.028286009 -5.247222e-05 -0.0044773415 0.00086140055 -0.0015386439)
(0.0073063153 -0.026797571 -0.00011604294 -0.005011994 0.0022961609 -0.0022943213)
(0.0083022924 -0.025525317 -0.00018313155 -0.0053880066 0.0040328612 -0.0029142858)
(0.0093018793 -0.024411351 -0.00015592603 -0.0057848302 0.004901521 -0.0035170491)
(0.0097769418 -0.023420613 -2.8979854e-06 -0.0059289168 0.0030032778 -0.0038480251)
(0.009813179 -0.022309333 0.00012686943 -0.0059235663 0.00021125243 -0.0038896127)
(0.00953103 -0.020466531 0.00021295001 -0.0057989905 -0.0026644571 -0.0037320395)
(0.0089372134 -0.017176905 0.00016154382 -0.0054563853 -0.003985231 -0.0034808281)
(0.0080679881 -0.011823807 -1.957005e-05 -0.0048413747 -0.0016708333 -0.0032266134)
(0.007160394 -0.0044975056 -6.8342151e-05 -0.0042179247 0.0004432165 -0.0029424694)
(0.0064483338 0.0042546795 -4.6255482e-06 -0.0038050321 -0.00039682327 -0.0026433017)
(0.006127259 0.013370843 1.3054509e-05 -0.0037844296 -0.0020182282 -0.0023428294)
(0.0062204576 0.021267032 -1.4321754e-05 -0.004046794 -0.0018676685 -0.0021736636)
(0.0064916747 0.026017243 -9.7293005e-07 -0.0041309861 0.00020873627 -0.0023606886)
(0.0065291625 0.02534352 2.8607077e-05 -0.0034203281 0.0011937584 -0.0031088343)
(0.0064523038 0.016098616 7.6393417e-06 -0.0019417677 0.00066142403 -0.0045105361)
(0.0075970683 -0.0073879364 -6.5743918e-06 -0.001708872 0.00020537436 -0.0058881963)
(0.011477066 -0.039665855 -5.2893832e-06 -0.0072155176 -2.9507377e-05 -0.0042615482)
(0.013908221 -0.056709427 -4.427953e-06 -0.013850962 -2.9197026e-05 -5.7258703e-05)
(0.0099413376 -0.053844356 -1.6638226e-06 -0.013356378 -1.47142e-05 0.00341504)
(-0.019138506 -0.026116639 9.3930359e-08 -0.011299622 -1.9566879e-05 0.030438128)
(-0.0052969073 0.13612308 -5.4026176e-07 -0.061129166 -5.0910292e-06 0.066426073)
(0.019373013 0.1329643 -3.8049927e-08 -0.054434872 -6.540531e-07 0.03506186)
(0.026017272 0.13102625 1.8515602e-08 -0.052541692 -2.3245203e-07 0.02652442)
(0.028604334 0.13018505 3.7464875e-08 -0.052028537 -1.2931897e-07 0.023424204)
(0.030700757 0.12950214 5.026917e-08 -0.052519548 -6.9711041e-08 0.021818791)
(0.032391906 0.12894907 5.7163046e-08 -0.053318224 -2.6798448e-08 0.020926318)
(0.033433832 0.12860755 5.8139304e-08 -0.053922567 2.9080573e-09 0.020488736)
(0.033823598 0.12848818 5.4417343e-08 -0.054205065 2.0524275e-08 0.020381467)
(0.033466144 0.12863465 4.7784012e-08 -0.054098117 2.7459303e-08 0.020631973)
(0.031839219 0.12923949 4.0884342e-08 -0.053299035 2.7076233e-08 0.021459817)
(0.02898401 0.1303175 2.9618657e-08 -0.052706131 2.2705274e-08 0.023722121)
(0.018379805 0.13360414 -5.1050365e-08 -0.048631424 1.0687381e-07 0.030251619)
(0.010205538 0.13554603 6.7650805e-07 -0.043556044 1.0063189e-06 0.033350506)
(0.0042457349 0.13667322 1.776171e-06 -0.038140562 -1.5592608e-05 0.033894827)
(-0.0021468415 0.13709788 -1.9402497e-05 -0.032692021 -0.00012136578 0.034838862)
(0.036259999 0.13371605 -7.6967128e-05 -0.024535457 -0.00013568454 -0.011724542)
(-0.000527514 -0.029861097 2.6648367e-05 -0.0014303205 -0.00021273075 0.0019578345)
(0.0061939258 -0.029478442 7.4905357e-06 -0.0046646007 -0.00014312951 -0.0015293251)
(0.0075717646 -0.028516451 -3.3187748e-05 -0.0053062033 0.00047950886 -0.0022655614)
(0.0085966616 -0.027679188 -9.734528e-05 -0.0057295795 0.0013993346 -0.0028670821)
(0.0095985156 -0.026821482 -0.00015002754 -0.0061471132 0.0027827944 -0.0034514025)
(0.010096336 -0.02602971 -0.00010179486 -0.0063334356 0.0028934151 -0.0037629004)
(0.010180448 -0.025269605 -8.5715175e-06 -0.0063529483 0.0017680028 -0.0038274994)
(0.010006858 -0.024256814 9.4920928e-05 -0.0062882145 0.00012328756 -0.0037186438)
(0.009596243 -0.022552952 0.00015576072 -0.0060992101 -0.0017898371 -0.0034970329)
(0.0089382385 -0.0196184 7.1299891e-05 -0.0056906606 -0.0018970685 -0.0032475779)
(0.0080903957 -0.01515059 -3.0957288e-05 -0.0050712795 -0.00036992543 -0.0030191162)
(0.0071920325 -0.0091632009 -2.7792685e-05 -0.004374266 5.9862634e-05 -0.0028177665)
(0.0064088406 -0.0020815929 1.5961376e-05 -0.0037488016 -0.00054959219 -0.002660039)
(0.0058930498 0.0051321263 2.3137821e-05 -0.0033031992 -0.001185804 -0.0025898505)
(0.0056559142 0.011040704 8.2333936e-06 -0.0029455352 -0.00061688546 -0.002710379)
(0.0055001819 0.014114916 -6.5202182e-07 -0.0023864348 -0.00010977 -0.0031137471)
(0.0053968031 0.012713471 -1.0472205e-05 -0.0014879129 4.8462715e-05 -0.0039088902)
(0.0057908734 0.0016685321 -1.1951785e-05 -0.00080400336 5.3142725e-05 -0.00498687)
(0.0074315962 -0.02118965 -8.4520472e-06 -0.0028519918 -1.9659827e-05 -0.0045796043)
(0.0096189451 -0.040310721 -4.6881878e-06 -0.0078773558 -2.4520488e-05 -0.0017415893)
(0.0095460034 -0.0499012 -1.5354251e-06 -0.011269926 -1.4175061e-05 0.0017239229)
(-0.0034435223 -0.046884491 6.0402784e-07 -0.018171593 -1.7492582e-05 0.021615115)
(-0.01700992 0.12858257 -1.458489e-06 -0.079628763 -9.5766217e-06 0.096638682)
(0.014127336 0.13388447 -1.9386745e-07 -0.059596078 -1.2990115e-06 0.045468743)
(0.025455995 0.13118439 -1.8089933e-08 -0.054129625 -3.7900953e-07 0.02867363)
(0.0280546 0.13035875 1.7412105e-08 -0.052236002 -1.9922446e-07 0.024181402)
(0.029947479 0.12974251 3.6522731e-08 -0.052213814 -1.1443789e-07 0.022266334)
(0.031599388 0.12920834 4.8343877e-08 -0.052848964 -5.7070483e-08 0.021249576)
(0.032721952 0.12884649 5.3628195e-08 -0.05345127 -1.617558e-08 0.020729318)
(0.033231518 0.12869084 5.3188494e-08 -0.053796287 1.0333904e-08 0.020564769)
(0.033019564 0.12879054 4.8525035e-08 -0.053780137 2.3412431e-08 0.020760573)
(0.031563658 0.12933316 4.2618761e-08 -0.053087722 2.6531602e-08 0.021524064)
(0.029099353 0.13029633 3.2455767e-08 -0.052440225 2.2184352e-08 0.023340873)
(0.019154685 0.13348889 -4.563688e-08 -0.049175855 9.3963157e-08 0.030021169)
(0.0095630675 0.13580065 5.4975225e-07 -0.043936474 9.9142706e-07 0.034373406)
(0.0017248706 0.13723382 1.3102954e-06 -0.037193199 -9.7153121e-06 0.035468328)
(-0.0036067981 0.1372476 -1.6190638e-05 -0.032059252 -7.0744122e-05 0.03566605)
(0.035393756 0.13320499 -4.7287042e-05 -0.030553897 1.3299345e-05 -0.0048398595)
(-0.00040900143 -0.030603489 1.6203051e-05 -0.0015457614 -0.00011319401 0.0019547628)
(0.0063203924 -0.030573725 2.5032343e-05 -0.00480599 -0.00034250995 -0.0015144024)
(0.0077751408 -0.029909683 1.3260445e-05 -0.0055364311 -0.00025561054 -0.0022387098)
(0.0088430049 -0.029449253 -2.2836183e-05 -0.0060236905 4.6053177e-05 -0.0028193143)
(0.0098679601 -0.028879506 -8.5959007e-05 -0.0064762022 0.0010054365 -0.0033917579)
(0.010380184 -0.028296254 -0.00010865665 -0.0066862272 0.0018091147 -0.0036939564)
(0.010491527 -0.027776738 -7.7185862e-05 -0.0067290695 0.0018242159 -0.0037624579)
(0.010383504 -0.027243954 -9.4281002e-06 -0.0067051095 0.0012692698 -0.0036783948)
(0.010102336 -0.026494175 7.7960576e-05 -0.0066145856 -6.0302261e-05 -0.0034877507)
(0.0096457692 -0.025181571 8.9480992e-05 -0.0064020656 -0.0010650353 -0.0032437036)
(0.0090096673 -0.022946606 2.0167545e-05 -0.0060003026 -0.00063151346 -0.0030093647)
(0.0082266461 -0.019552295 -2.0197413e-05 -0.0054103459 -1.4858132e-05 -0.0028163002)
(0.0073671088 -0.014985483 -2.1834891e-06 -0.0046752641 4.2791003e-05 -0.0026918447)
(0.0065445502 -0.0095932936 2.6456586e-05 -0.0038768848 -0.00047194144 -0.0026676654)
(0.0058664814 -0.0041663632 2.4476493e-05 -0.0030836387 -0.00062078316 -0.0027828427)
(0.0053156456 0.00035244683 5.8707906e-06 -0.0022652396 -0.00052663763 -0.003050406)
(0.0048583285 0.0032405745 -9.4236659e-06 -0.0013312023 -0.00027999993 -0.0035271262)
(0.0047676201 0.001330177 -1.1941407e-05 -0.00055018509 -0.00010154192 -0.004217435)