/*--------------------------------*- C++ -*----------------------------------*\
| =========                 |                                                 |
| \\      /  F ield         | OpenFOAM: The Open Source CFD Toolbox           |
|  \\    /   O peration     | Version:  2.4.0                                 |
|   \\  /    A nd           | Web:      www.OpenFOAM.org                      |
|    \\/     M anipulation  |                                                 |
\*---------------------------------------------------------------------------*/
FoamFile
{
    version     2.0;
    format      ascii;
    class       volScalarField;
    location    "2000";
    object      p;
}
// * * * * * * * * * * * * * * * * * * * * * * * * * * * * * * * * * * * * * //

dimensions      [0 2 -2 0 0 0 0];

internalField   nonuniform List<scalar> 
15296
(
0.25739171
0.25656379
0.25588859
0.25522261
0.25428454
0.25339413
0.25243029
0.25147092
0.25043906
0.24957621
0.24862777
0.24781348
0.24700202
0.24618111
0.24551142
0.24485494
0.24413648
0.24336454
0.24267702
0.24227537
0.24182699
0.24138229
0.24169158
0.2392119
0.23187859
0.223732
0.21693875
0.21144381
0.20730978
0.20443605
0.20339929
0.20488974
0.21037285
0.22324331
0.24235152
0.25296613
0.27421117
0.33482604
0.25722509
0.25633524
0.25565331
0.25497715
0.25414448
0.25316733
0.25219497
0.25122905
0.25030307
0.24936142
0.24849311
0.24762634
0.24681046
0.24604873
0.24530208
0.24461858
0.24399101
0.24337327
0.24276992
0.24230581
0.2420095
0.24173156
0.24204117
0.24189154
0.23972519
0.23551117
0.23114342
0.22758443
0.2250792
0.22367357
0.22412231
0.22730333
0.23545204
0.25324633
0.27610336
0.29908519
0.3084048
0.29053924
0.25727914
0.256403
0.25571991
0.25504392
0.25419468
0.25323863
0.25226464
0.25129673
0.25035393
0.24943398
0.24855351
0.24770557
0.24689414
0.24612236
0.24538457
0.24469251
0.24404789
0.24342964
0.2428433
0.24233087
0.24203665
0.24180798
0.24214039
0.24247366
0.24122748
0.23844433
0.2354255
0.23289314
0.2312154
0.23051474
0.23156417
0.23523438
0.24344257
0.2597686
0.28470758
0.31230024
0.33309094
0.3194149
0.2572836
0.25640942
0.25572568
0.25505028
0.25419636
0.25324462
0.2522715
0.25130382
0.2503562
0.24944221
0.24856224
0.24772162
0.24691506
0.2461426
0.2454048
0.24470373
0.24405312
0.24345227
0.24289043
0.24236779
0.24202609
0.24186483
0.24217597
0.24277901
0.24227582
0.24029034
0.23791491
0.2358748
0.23459093
0.2342239
0.23557274
0.23952091
0.24786739
0.26421831
0.29026911
0.32022921
0.34738156
0.33264379
0.2572823
0.25640816
0.25572369
0.25504876
0.25419512
0.25324244
0.25227016
0.25130284
0.25035482
0.24944024
0.24856285
0.24772441
0.24692149
0.24615178
0.24541356
0.2447079
0.24405098
0.24345886
0.24291626
0.24240087
0.24200921
0.24191652
0.24218086
0.24293728
0.24300095
0.2416976
0.23988266
0.23827456
0.23733412
0.23725423
0.23885663
0.24303652
0.25143382
0.26782181
0.29460417
0.32651405
0.35570627
0.34332871
0.25728507
0.25641317
0.25572755
0.25505319
0.25419967
0.25324695
0.25227517
0.2513081
0.25035918
0.24944334
0.24856573
0.24772793
0.24692717
0.24615999
0.24542428
0.24471921
0.2440554
0.24345773
0.24292551
0.2424249
0.2420058
0.24192021
0.24214421
0.24296215
0.24347806
0.24286586
0.24166155
0.24052572
0.23995632
0.24017937
0.24203833
0.24643674
0.25476316
0.2710906
0.29845986
0.33225868
0.36426756
0.3553162
0.25728765
0.25641886
0.25573153
0.25505787
0.25420523
0.25325266
0.25228119
0.25131444
0.2503655
0.24944807
0.24856883
0.24772952
0.24692861
0.24616298
0.24543023
0.24472904
0.2440638
0.24345464
0.24292049
0.24243577
0.24202266
0.24187412
0.24211276
0.24287634
0.24367797
0.243712
0.24314571
0.24251206
0.24233205
0.24286421
0.24497462
0.24957883
0.25786186
0.2739989
0.30164773
0.33708149
0.372294
0.36631583
0.25728962
0.25642493
0.25573533
0.25506258
0.25421106
0.25325897
0.25228789
0.25132158
0.25037324
0.24945519
0.24857456
0.24773318
0.24693052
0.24616462
0.24543333
0.24473579
0.24407342
0.24345723
0.24291286
0.24243513
0.24204102
0.24186129
0.24209983
0.24273924
0.24362338
0.24414786
0.24417072
0.24402645
0.24422345
0.24504766
0.24738621
0.25216961
0.26047169
0.27622222
0.30382599
0.3404458
0.37868251
0.37545083
0.25729119
0.25643215
0.25573943
0.25506792
0.25421749
0.25326614
0.25229565
0.25132997
0.25038235
0.24946475
0.24858374
0.24774116
0.24693675
0.24616938
0.24543779
0.24474176
0.24408232
0.24346523
0.24291129
0.24243077
0.2420467
0.24187833
0.24206331
0.24259084
0.24340712
0.24424156
0.244782
0.24512436
0.24570292
0.24681624
0.24937122
0.25431609
0.262673
0.27789247
0.30521198
0.34257501
0.3837129
0.38265848
0.25729271
0.25644075
0.25574372
0.25507376
0.25422456
0.25327398
0.25230422
0.25133931
0.25039248
0.24947572
0.24859526
0.2477527
0.2469476
0.24617906
0.24544639
0.24475001
0.24409133
0.24347519
0.24291666
0.24242975
0.24204333
0.24187598
0.24199339
0.24244234
0.24309511
0.24406123
0.24501739
0.24582117
0.2467985
0.24821277
0.25098548
0.25608162
0.26447917
0.2791598
0.30597674
0.3436213
0.38750051
0.38801743
0.2572944
0.25645128
0.25574835
0.25508021
0.25423244
0.25328265
0.25231367
0.2513496
0.2504036
0.24948773
0.24860819
0.24776639
0.2469617
0.24619305
0.24545981
0.24476262
0.24410319
0.24348666
0.24292618
0.2424342
0.24204006
0.24185761
0.24193808
0.24229253
0.24274503
0.24359706
0.24490395
0.24613066
0.24750015
0.24922573
0.25222654
0.25747124
0.26588856
0.28010747
0.30618588
0.34363046
0.38999585
0.3914742
0.25729569
0.25646433
0.25575357
0.25508743
0.25424126
0.25329225
0.25232408
0.25136088
0.2504157
0.24950065
0.24862201
0.24778117
0.24697741
0.2462095
0.24547661
0.24477924
0.24411912
0.24350124
0.2429385
0.2424428
0.24204082
0.24183867
0.24189775
0.24216942
0.24244427
0.24295453
0.24430125
0.24605585
0.2478133
0.24984628
0.25306272
0.25845812
0.26689989
0.28071856
0.30588127
0.34266653
0.39112322
0.39290179
0.25729723
0.2564806
0.25575965
0.25509568
0.25425124
0.25330295
0.25233559
0.2513733
0.25042896
0.24951467
0.24863682
0.24779683
0.24699402
0.2462271
0.2454951
0.2447983
0.24413826
0.24351952
0.2429542
0.24245473
0.24204545
0.24182302
0.24185418
0.24207981
0.2422617
0.24247786
0.24334208
0.24530437
0.24760085
0.25007868
0.25350966
0.2590362
0.26748373
0.2809652
0.30510486
0.34081001
0.39085101
0.39226625
0.25729979
0.25650084
0.25576692
0.25510532
0.25426279
0.25331511
0.25234855
0.25138723
0.25044377
0.24953028
0.24865316
0.24781392
0.2470119
0.24624587
0.2455148
0.24481882
0.24415936
0.24354056
0.24297339
0.24247027
0.24205367
0.24181052
0.24180557
0.24199085
0.24216118
0.24227149
0.24266936
0.24402524
0.246502
0.24958213
0.25356126
0.25922455
0.26764939
0.28080556
0.30384985
0.33813019
0.38921167
0.38953805
0.2573021
0.25652618
0.2557758
0.25511673
0.25427639
0.25332917
0.25236336
0.25140307
0.25046058
0.24954794
0.24867161
0.24783309
0.24703178
0.24626648
0.24553617
0.24484087
0.24418194
0.24356327
0.24299487
0.2424887
0.24206515
0.24180138
0.24175803
0.24189755
0.24204743
0.24216783
0.24243504
0.24319042
0.24502521
0.24810395
0.2526408
0.25866254
0.26735394
0.2801978
0.30216205
0.33469508
0.38623542
0.38492682
0.25730479
0.25656338
0.25578941
0.25513281
0.25429549
0.25334855
0.25238346
0.25142441
0.25048312
0.24957157
0.24869627
0.2478587
0.24705826
0.24629375
0.24556417
0.24486945
0.24421084
0.24359195
0.24302189
0.24251224
0.24208101
0.24179385
0.24170538
0.24178968
0.24190129
0.24202109
0.24229642
0.24285794
0.24399155
0.2463491
0.25042188
0.25660467
0.26573069
0.27852463
0.29961697
0.32975412
0.38100177
0.37841283
0.25731562
0.25661063
0.25580972
0.25515446
0.25432053
0.25337349
0.2524089
0.25145114
0.25051118
0.24960089
0.24872681
0.2478904
0.247091
0.24632743
0.24559863
0.24490443
0.24424594
0.24362648
0.24305424
0.24254039
0.24210083
0.24178968
0.24165394
0.24167858
0.24174919
0.24184252
0.24210189
0.2426786
0.24373509
0.2454574
0.24854753
0.25388378
0.26234193
0.27485382
0.29542218
0.32342338
0.37377943
0.37013678
0.2573323
0.25666348
0.25583614
0.25517993
0.2543492
0.2534016
0.25243704
0.25148036
0.25054166
0.24963261
0.24875977
0.24792457
0.2471263
0.24636372
0.24563573
0.24494203
0.24428359
0.2436634
0.24308875
0.24257032
0.24212233
0.24178966
0.24161295
0.24158496
0.24161792
0.24168964
0.24191802
0.24245542
0.24346747
0.24514654
0.24788115
0.25229788
0.2595315
0.27068106
0.28973127
0.3157237
0.36494557
0.36195964
0.25735566
0.25672322
0.25586945
0.25520976
0.25438191
0.25343317
0.25246804
0.25151217
0.2505746
0.24966673
0.24879515
0.24796121
0.24716412
0.24640261
0.24567549
0.24498232
0.24432391
0.24370293
0.24312584
0.24260262
0.24214609
0.24179341
0.24157994
0.2415044
0.24150073
0.24155101
0.2417527
0.24223939
0.24317851
0.24476658
0.2473814
0.2515167
0.25802733
0.26768651
0.28459443
0.30742323
0.35498211
0.35342089
0.25738716
0.25679068
0.25591035
0.25524448
0.25441895
0.2534684
0.25250198
0.25154657
0.25060998
0.24970322
0.24883289
0.24800025
0.24720441
0.24644401
0.24571781
0.24502522
0.24436685
0.24374508
0.24316557
0.24263754
0.24217254
0.24180125
0.24155428
0.24143483
0.24139485
0.24142076
0.24159521
0.24203846
0.24290451
0.24437555
0.24681066
0.25065532
0.25677987
0.26561132
0.28091773
0.30019608
0.34508055
0.34520701
0.25742771
0.25686676
0.25595969
0.25528465
0.25446056
0.25350745
0.25253893
0.25158355
0.25064776
0.24974203
0.24887295
0.24804168
0.24724715
0.24648794
0.24576271
0.24507073
0.24441241
0.24378984
0.24320793
0.24267509
0.24220174
0.24181313
0.2415356
0.24137546
0.2412994
0.24129825
0.24144228
0.24184004
0.24263483
0.24399575
0.24624765
0.24977952
0.25544389
0.26348869
0.27770279
0.29414618
0.3357199
0.33831127
0.25747825
0.25695225
0.25601828
0.25533075
0.25450687
0.25355034
0.25257876
0.25162288
0.25068767
0.24978286
0.24891503
0.24808518
0.24729206
0.24653412
0.24580993
0.24511861
0.24446036
0.24383695
0.24325265
0.24271499
0.24223337
0.24182855
0.24152308
0.24132524
0.24121352
0.2411831
0.24129377
0.24164283
0.24236373
0.24361326
0.24568831
0.24891771
0.25412085
0.26136855
0.27441003
0.28853171
0.3264833
0.33191492
0.25754054
0.25704815
0.25608695
0.25538337
0.25455803
0.253597
0.25262123
0.25166418
0.25072924
0.24982523
0.24895863
0.24813026
0.24733864
0.24658207
0.245859
0.24516839
0.24451022
0.24388597
0.24329927
0.24275679
0.24226697
0.24184688
0.24151572
0.2412829
0.24113612
0.2410746
0.24114954
0.24144744
0.24209133
0.24322544
0.2451219
0.24805574
0.25280775
0.25930557
0.27113798
0.28331397
0.31707566
0.32490816
0.25761754
0.25715656
0.25616716
0.25544343
0.25461432
0.25364745
0.25266614
0.25170711
0.25077207
0.24986867
0.24900325
0.24817642
0.2473864
0.2466313
0.24590944
0.24521962
0.24456157
0.24393646
0.24334736
0.24280007
0.24230212
0.24186753
0.2415126
0.24124719
0.24106597
0.24097178
0.2410088
0.24125339
0.24181776
0.24283307
0.24454799
0.24718982
0.25149178
0.25728221
0.26789741
0.27845622
0.30771815
0.31726299
0.25770967
0.25727865
0.2562599
0.2555116
0.2546759
0.25370152
0.25271314
0.25175114
0.25081554
0.24991254
0.24904825
0.24822301
0.24743469
0.24668118
0.24596065
0.24527168
0.24461381
0.24398785
0.24339636
0.24284429
0.24233827
0.24188983
0.24151273
0.24121681
0.24100182
0.24087356
0.24087051
0.24105965
0.24154233
0.24243629
0.24396701
0.24632026
0.25017105
0.2552917
0.26467736
0.27388962
0.29858116
0.30923081
0.25782124
0.25741697
0.25636636
0.25558842
0.25474259
0.25375865
0.25276145
0.25179538
0.2508587
0.24995586
0.24909264
0.24826907
0.24748259
0.24673081
0.24601173
0.24532373
0.24466609
0.24403932
0.24344545
0.24288863
0.24237462
0.2419129
0.24151503
0.24119044
0.24094239
0.24077894
0.24073382
0.24086544
0.24126433
0.24203498
0.24337948
0.24544888
0.24884835
0.25333729
0.26148998
0.26956776
0.28982343
0.3009582
0.25795339
0.25757274
0.25648712
0.25567401
0.25481389
0.25381787
0.25280989
0.2518385
0.25090016
0.24999725
0.24913507
0.24831326
0.24752878
0.24677892
0.24606144
0.24537454
0.24471722
0.24408968
0.24349346
0.24293196
0.24241009
0.2419356
0.24151815
0.24116654
0.24088621
0.24068675
0.24059782
0.24067003
0.24098325
0.24162914
0.242786
0.24457735
0.24752822
0.25142213
0.25836193
0.26544104
0.28159281
0.29261946
0.25811214
0.25774978
0.2566237
0.25576881
0.25488939
0.25387813
0.25285713
0.25187907
0.25093843
0.2500352
0.24917406
0.24835417
0.24757189
0.24682414
0.24610847
0.24542282
0.24476595
0.24413771
0.24353919
0.24297308
0.24244347
0.24195665
0.24152062
0.24114338
0.24083154
0.24059543
0.24046116
0.24047216
0.24069789
0.24121778
0.24218585
0.24370463
0.24621208
0.2495419
0.25531207
0.26146076
0.27396418
0.2843668
0.25830236
0.2579518
0.25677754
0.25587315
0.25496852
0.25393813
0.25290154
0.25191537
0.25097174
0.25006796
0.2492079
0.2483901
0.24761027
0.24686489
0.24615125
0.24546703
0.24481074
0.24418189
0.24358114
0.2430105
0.24247328
0.24197452
0.24152077
0.24111909
0.24077646
0.24050331
0.24032238
0.2402706
0.24040723
0.24080021
0.24157906
0.24283049
0.24490334
0.24769373
0.25235954
0.25760492
0.26695218
0.2763483
0.25853121
0.25818364
0.25694996
0.25598684
0.25505014
0.25399584
0.25294083
0.2519451
0.25099784
0.25009333
0.24923447
0.24841905
0.24764197
0.24689926
0.24618791
0.24550535
0.2448498
0.24422045
0.24361755
0.24304249
0.24249782
0.24198749
0.24151674
0.24109164
0.24071892
0.24040851
0.24017991
0.24006403
0.24011031
0.24037587
0.24096609
0.24195527
0.24360636
0.24587711
0.24952014
0.25387143
0.26054454
0.26869158
0.25880888
0.25845075
0.25714172
0.25610896
0.25513231
0.25404843
0.25297204
0.25196551
0.2510141
0.25010886
0.24925153
0.24843889
0.24766499
0.24692536
0.24621664
0.24553601
0.2448814
0.24425172
0.24364678
0.24306743
0.24251548
0.24199391
0.24150679
0.24105913
0.24065697
0.24030921
0.24003217
0.23985115
0.23980613
0.23994405
0.24034715
0.24107894
0.24232432
0.24409184
0.24680201
0.25026462
0.254714
0.26147201
0.2591509
0.25876026
0.25735375
0.25623877
0.25521295
0.25409259
0.25299188
0.25197371
0.25101788
0.25011217
0.24925696
0.24844773
0.24767758
0.24694152
0.24623587
0.24555751
0.24490411
0.24427428
0.24366746
0.24308397
0.24252494
0.24199246
0.24148953
0.24102004
0.24058904
0.24020402
0.23987805
0.23963116
0.23949437
0.23950493
0.23972354
0.24020318
0.24106163
0.24234224
0.24421142
0.2468009
0.24942179
0.25475529
0.25956579
0.25910895
0.25757797
0.25637061
0.25528725
0.25412367
0.25299706
0.25196753
0.25100754
0.25010196
0.24924969
0.24844458
0.24767874
0.24694674
0.24624454
0.24556873
0.24491677
0.24428701
0.24367854
0.24309121
0.24252555
0.24198285
0.24146514
0.24097522
0.24051696
0.2400962
0.23972288
0.23941216
0.23918694
0.23907556
0.2391199
0.23936241
0.23986752
0.24069702
0.2418396
0.24362079
0.24479375
0.24880863
0.26003966
0.25947903
0.25779663
0.25649343
0.25534841
0.25413782
0.25298655
0.25194757
0.25098441
0.25007992
0.24923146
0.24843099
0.24766979
0.24694206
0.24624341
0.24557025
0.24491984
0.24429031
0.24368048
0.2430898
0.24251831
0.24196661
0.2414359
0.24092798
0.24044553
0.23999274
0.23957672
0.23920841
0.23890382
0.23868362
0.23857435
0.23860886
0.23881194
0.23925276
0.23980385
0.24089812
0.24097879
0.24388983
0.26055697
0.25985708
0.257998
0.25660104
0.25539341
0.25413449
0.25296165
0.25191573
0.25095066
0.25004835
0.24920442
0.24840893
0.2476525
0.24692905
0.24623395
0.2455634
0.24491457
0.2442854
0.2436745
0.24308102
0.24250456
0.24194517
0.24140334
0.24088
0.24037671
0.23989616
0.23944294
0.23902447
0.23865102
0.2383369
0.23809641
0.23795422
0.23790584
0.23802264
0.23810078
0.23863356
0.23789619
0.2399168
0.26111474
0.26023273
0.25817173
0.25668782
0.25541804
0.25411135
0.25292141
0.25187146
0.25090602
0.25000718
0.24916859
0.24837848
0.24762704
0.24690799
0.24621648
0.24554862
0.24490146
0.24427286
0.24366124
0.2430655
0.24248489
0.241919
0.24136771
0.24083118
0.24030999
0.23980542
0.2393199
0.23885786
0.23842479
0.2380297
0.23767699
0.23738465
0.23712572
0.23697256
0.23666752
0.23674367
0.23537844
0.23668593
0.26172464
0.26060269
0.25831555
0.25675431
0.25542143
0.25406833
0.25286647
0.25181535
0.25085129
0.24995738
0.24912504
0.24834081
0.24759468
0.24688024
0.24619248
0.24552744
0.24488216
0.24425439
0.24364243
0.24304497
0.242461
0.24188969
0.24133041
0.24078267
0.24024612
0.23972085
0.23920739
0.23870763
0.23822303
0.23775829
0.23730956
0.23688973
0.23645374
0.23607595
0.2354569
0.23516381
0.23330488
0.23404874
0.26237831
0.26094427
0.25841957
0.25679981
0.25540454
0.25400908
0.25280158
0.25175216
0.25079131
0.24990376
0.2490784
0.24830043
0.24755984
0.24685012
0.24616616
0.24550403
0.24486072
0.24423396
0.24362194
0.24302321
0.2424365
0.24186067
0.24129462
0.24073732
0.24018761
0.23964451
0.2391069
0.23857454
0.23804546
0.23752087
0.23698994
0.23646196
0.23587647
0.2353121
0.23443293
0.23384351
0.23158624
0.23189514
0.26313056
0.26127525
0.25849908
0.25683741
0.25537656
0.25394292
0.25273529
0.25168946
0.25073316
0.24985292
0.24903487
0.24826321
0.24752808
0.24682294
0.24614265
0.24548329
0.24484189
0.24421615
0.24360419
0.24300445
0.24241545
0.24183577
0.24126394
0.24069842
0.24013738
0.23957889
0.23902041
0.2384599
0.23789244
0.23731648
0.23671516
0.23609553
0.23538339
0.23466444
0.23356757
0.23274293
0.23015522
0.23014135
0.2639494
0.26157003
0.25855066
0.25686917
0.25533996
0.2538745
0.25267205
0.25163125
0.25068071
0.24980845
0.24899777
0.2482323
0.24750245
0.24680165
0.24612478
0.245468
0.24482839
0.24420361
0.24359177
0.24299119
0.24240025
0.24181728
0.24124049
0.24066792
0.24009712
0.23952537
0.23894889
0.23836413
0.23776364
0.23714371
0.23648214
0.23578501
0.23496526
0.23411877
0.23283786
0.23182953
0.22895957
0.22872106
0.26485696
0.26181858
0.25857461
0.2568937
0.25529239
0.25380324
0.2526109
0.25157649
0.25063306
0.24976949
0.24896631
0.24820703
0.24748237
0.24678577
0.2461122
0.24545793
0.24482006
0.24419628
0.24358467
0.2429835
0.242391
0.2418053
0.24122434
0.24064579
0.24006669
0.23948361
0.2388917
0.23828615
0.23765732
0.23699984
0.23628674
0.23552424
0.23461285
0.23366166
0.2322236
0.2310752
0.22795687
0.22757983
0.26584699
0.2619925
0.25856516
0.25690555
0.2552297
0.25372699
0.25254914
0.25152247
0.25058764
0.24973345
0.248938
0.24818503
0.24746559
0.24677322
0.24610297
0.24545125
0.24481523
0.2441926
0.24358148
0.24298005
0.24238644
0.2417986
0.24121424
0.24063071
0.24004459
0.23945189
0.23884677
0.23822342
0.23757024
0.23688065
0.23612336
0.23530566
0.23431586
0.23327912
0.23170544
0.230454
0.22711077
0.226673
0.2669301
0.26207669
0.25852748
0.25690457
0.2551522
0.25364656
0.25248619
0.25146829
0.25054334
0.24969898
0.24891136
0.24816478
0.24745062
0.2467625
0.24609564
0.24544659
0.24481256
0.24419129
0.24358089
0.24297951
0.24238518
0.24179567
0.24120848
0.24062068
0.24002846
0.23942731
0.23881059
0.23817166
0.23749731
0.23678009
0.23598473
0.2351204
0.23406324
0.23295702
0.231265
0.22994191
0.22638932
0.22596498
0.26810985
0.26205382
0.25846724
0.25689047
0.25506191
0.25356426
0.25242313
0.25141487
0.25050078
0.24966641
0.2488866
0.24814639
0.24743745
0.24675354
0.24609007
0.2454437
0.2448117
0.24419183
0.24358217
0.24298082
0.24238572
0.24179452
0.24120457
0.24061275
0.24001488
0.23940601
0.23877882
0.23812596
0.23743271
0.23669123
0.2358626
0.23495871
0.23384345
0.23268152
0.23088555
0.22951771
0.22576612
0.22542803
0.26939164
0.26191083
0.25839299
0.25686369
0.25496225
0.25348301
0.25236168
0.25136385
0.25046136
0.24963695
0.24886483
0.24813085
0.24742698
0.24674711
0.24608681
0.24544282
0.24481247
0.24419356
0.24358425
0.24298258
0.24238636
0.24179314
0.24120004
0.24060379
0.24000009
0.23938375
0.23874702
0.23808189
0.23737208
0.23660954
0.23575217
0.23481526
0.23365055
0.23244547
0.23055891
0.22917079
0.2252295
0.22504937
0.27077543
0.26163538
0.25831299
0.25682353
0.2548565
0.25340499
0.25230314
0.25131656
0.25042618
0.24961156
0.24884689
0.24811885
0.24741964
0.24674334
0.24608576
0.24544373
0.24481457
0.24419603
0.24358626
0.24298345
0.24238555
0.24179017
0.24119397
0.24059332
0.23998397
0.23936094
0.23871633
0.238042
0.23732057
0.23654379
0.23566617
0.23470646
0.23350391
0.23226986
0.23030686
0.22892095
0.22479777
0.22484131
0.27225835
0.26121818
0.25823562
0.2567687
0.25474796
0.25333181
0.25224846
0.25127401
0.25039599
0.2495908
0.24883322
0.24811085
0.24741611
0.24674307
0.24608767
0.24544703
0.24481887
0.24420067
0.2435901
0.24298566
0.24238596
0.24178922
0.2411924
0.24059176
0.23998269
0.23935991
0.23871495
0.23803957
0.23731569
0.23653505
0.23564858
0.23467844
0.23345116
0.23220273
0.23017691
0.22881231
0.22451204
0.22482613
0.27383143
0.26065222
0.2581695
0.25669798
0.25464065
0.25326526
0.25219907
0.25123796
0.25037308
0.24957807
0.24882849
0.24811246
0.24742295
0.24675381
0.24610059
0.24546111
0.24483421
0.24421833
0.24361143
0.24301196
0.24241847
0.24182914
0.24124148
0.24065183
0.24005491
0.23944451
0.23881123
0.23814613
0.23742996
0.23665461
0.23576798
0.23479605
0.23355299
0.23229985
0.23022077
0.22888971
0.22441536
0.22502026
0.27548722
0.25993395
0.25812196
0.25660825
0.25453576
0.25320464
0.25215488
0.25120938
0.25035888
0.24957498
0.24883411
0.24812446
0.24744019
0.246777
0.24613136
0.24550126
0.24488556
0.2442835
0.24369374
0.24311411
0.24254201
0.24197452
0.24140843
0.24083961
0.24026236
0.23967005
0.23905264
0.23840069
0.23769378
0.23692401
0.23603665
0.23506183
0.23380224
0.2325437
0.23041274
0.22911624
0.22446818
0.22536148
0.27697299
0.25919315
0.25810347
0.25651959
0.25445508
0.25316589
0.25213267
0.25120471
0.2503691
0.24959651
0.24886647
0.24816894
0.24749845
0.24685188
0.24622654
0.24561958
0.24502842
0.24445113
0.2438857
0.24332947
0.24277933
0.24223186
0.24168319
0.24112877
0.24056275
0.2399785
0.23936597
0.23871586
0.23800744
0.23723349
0.23633735
0.23535307
0.2340736
0.23280668
0.23062847
0.22936285
0.2245603
0.22569674
0.27816488
0.25855697
0.25809805
0.25645197
0.25441117
0.25315912
0.25214339
0.25123416
0.25041651
0.24966109
0.24894985
0.24827414
0.24762769
0.24700602
0.24640551
0.24582252
0.2452537
0.24469612
0.24414702
0.2436035
0.24306258
0.2425212
0.24197587
0.24142242
0.24085529
0.24026816
0.23965113
0.23899517
0.23827943
0.23749727
0.23659077
0.23559654
0.2343012
0.2330265
0.2308159
0.22956908
0.22466367
0.22595165
0.2792759
0.25793261
0.25810376
0.25640865
0.25440727
0.25319576
0.25220493
0.25132228
0.25053189
0.2498046
0.24912207
0.24847472
0.24785519
0.24725744
0.24667653
0.24610837
0.24554987
0.24499858
0.24445229
0.24390865
0.24336526
0.24281962
0.24226881
0.24170912
0.24113541
0.24054158
0.23991772
0.23925473
0.23853141
0.23774129
0.23682543
0.23582226
0.23451354
0.23323177
0.23099519
0.22976205
0.22477501
0.22617458
0.28029647
0.25733522
0.25813766
0.25641458
0.2544674
0.25329955
0.25233899
0.25148761
0.25072711
0.25002787
0.24937018
0.24874286
0.24813805
0.24754995
0.24697405
0.24640693
0.24584629
0.2452906
0.24473856
0.24418858
0.24363871
0.24308651
0.24252903
0.24196255
0.24138195
0.24078119
0.24015032
0.23948021
0.2387494
0.23795156
0.2370269
0.23601531
0.23469483
0.23340621
0.23114851
0.22992483
0.22487315
0.22635446
0.28123159
0.2567956
0.2582386
0.25650734
0.25461532
0.25348135
0.25254328
0.2517155
0.25097585
0.250293
0.24964646
0.24902483
0.24842085
0.24782989
0.24724893
0.24667565
0.24610822
0.24554525
0.24498557
0.24442784
0.24387026
0.24331045
0.24274543
0.24217142
0.24158326
0.24097493
0.2403365
0.23965887
0.23892048
0.23811511
0.23718243
0.23616333
0.23483319
0.23353867
0.23126495
0.2300478
0.22494774
0.22648627
0.28207931
0.25635978
0.25845391
0.2567046
0.25483618
0.25371212
0.25278279
0.25196609
0.25123409
0.25055412
0.24990638
0.24928048
0.24866997
0.24807085
0.24748078
0.24689805
0.24632115
0.24574879
0.24517981
0.24461284
0.24404617
0.24347756
0.24290407
0.24232197
0.24172609
0.24111041
0.24046495
0.23978059
0.23903564
0.23822398
0.23728485
0.23625983
0.23492251
0.23362358
0.23133871
0.23012633
0.22499223
0.22656904
0.28284558
0.25612115
0.25879844
0.2569659
0.25508097
0.25395003
0.25301962
0.25220258
0.25146623
0.2507783
0.25012032
0.24948297
0.24886048
0.2482492
0.24764694
0.24705221
0.24646375
0.24588045
0.24530122
0.24472469
0.24414912
0.24357224
0.24299109
0.24240186
0.24179937
0.24117755
0.24052636
0.23983667
0.23908667
0.23827029
0.23732652
0.23629741
0.23495538
0.23365378
0.23136217
0.23015383
0.224998
0.22659922
0.28361258
0.25623917
0.25924241
0.25723119
0.25530977
0.25416232
0.25321865
0.25238781
0.25163563
0.25093095
0.2502562
0.24960258
0.24896471
0.24833914
0.24772374
0.24711699
0.24651758
0.24592437
0.24533615
0.24475148
0.24416852
0.24358493
0.24299767
0.24240289
0.24179534
0.24116894
0.24051359
0.23982012
0.23906667
0.23824724
0.23730067
0.23626932
0.23492498
0.23362261
0.23132821
0.23012414
0.22495683
0.22657334
0.28451005
0.25659181
0.25969875
0.25745413
0.25548147
0.25430296
0.253332
0.25247635
0.25170106
0.25097529
0.25028165
0.24961135
0.24895885
0.24832047
0.24769383
0.24707718
0.24646907
0.24586817
0.24527315
0.24468243
0.24409407
0.24350565
0.2429141
0.24231548
0.24170454
0.24107519
0.24041727
0.23972159
0.23896631
0.23814546
0.23719787
0.23616611
0.23482173
0.23352061
0.23122696
0.23002827
0.22485789
0.22648515
0.28542492
0.25682387
0.25997126
0.25751209
0.2554739
0.25425042
0.25324356
0.25235884
0.25155917
0.25081282
0.25010183
0.24941695
0.24875218
0.24810345
0.247468
0.24684381
0.24622918
0.24562264
0.24502273
0.24442774
0.24383566
0.24324398
0.24264959
0.24204852
0.24143554
0.24080456
0.24014536
0.23944875
0.23869294
0.23787202
0.23692486
0.23589425
0.23455157
0.23325362
0.23096312
0.2297719
0.22460311
0.22624153
0.28608698
0.25696832
0.25994698
0.25729602
0.25518417
0.2539157
0.25287759
0.25196979
0.2511519
0.25039079
0.24966775
0.24897295
0.2483
0.24764447
0.24700336
0.24637441
0.24575576
0.24514581
0.244543
0.24394555
0.24335136
0.24275792
0.24216203
0.24155972
0.24094584
0.24031429
0.23965477
0.23895813
0.23820258
0.23738235
0.23643623
0.23540745
0.23406677
0.23277288
0.23048485
0.22930326
0.22413311
0.22578685
0.28646897
0.25665023
0.25952325
0.25679366
0.25466684
0.25339283
0.25234953
0.25143621
0.25061263
0.24984617
0.24911838
0.24841943
0.24774291
0.24708436
0.24644073
0.24580967
0.24518925
0.24457782
0.24397378
0.24337529
0.24278025
0.24218609
0.24158962
0.24098683
0.24037259
0.23974072
0.23908096
0.23838417
0.23762851
0.23680833
0.23586221
0.2348339
0.23349306
0.23220097
0.22991113
0.22873628
0.22355727
0.22522063
0.2861383
0.25527354
0.25865045
0.25616993
0.25414427
0.25291689
0.2518964
0.25099445
0.25017649
0.24941281
0.24868632
0.24798787
0.24731144
0.24665281
0.24600902
0.24537778
0.2447572
0.24414562
0.24354143
0.24294284
0.24234769
0.24175344
0.24115687
0.24055399
0.23993952
0.23930726
0.23864699
0.2379496
0.23719318
0.2363721
0.23542472
0.23439514
0.23305196
0.23175859
0.22946341
0.22828968
0.22309776
0.22475948
0.2854825
0.25405273
0.25803874
0.25586126
0.25392948
0.2527387
0.25173552
0.25084252
0.25002952
0.24926875
0.24854405
0.24784675
0.24717108
0.24651297
0.24586956
0.24523861
0.24461825
0.24400684
0.2434028
0.24280431
0.24220926
0.24161508
0.24101856
0.24041572
0.23980117
0.23916873
0.23850821
0.23781049
0.23705363
0.23623201
0.23528388
0.23425343
0.23290891
0.23161431
0.2293165
0.2281415
0.22294452
0.22460095
0.28532951
0.25364333
0.2578503
0.2558005
0.25390605
0.25272736
0.25172928
0.25083876
0.25002709
0.24926709
0.24854284
0.24784582
0.24717031
0.2465123
0.24586894
0.24523801
0.24461765
0.24400623
0.24340217
0.24280366
0.24220858
0.24161436
0.24101781
0.24041493
0.23980033
0.23916781
0.2385072
0.23780938
0.23705241
0.23623066
0.23528238
0.23425174
0.232907
0.23161211
0.22931395
0.22813846
0.22294101
0.2245957
0.83236151
0.29656756
0.23635497
0.17435576
0.13602678
0.11120813
0.089612706
0.070252522
0.052213559
0.034726153
0.017506576
0.00050343436
-0.016262312
-0.032712863
-0.048740236
-0.064220344
-0.079027985
-0.093036445
-0.10611256
-0.11812708
-0.12894439
-0.13841287
-0.14635976
-0.1524885
-0.15656252
-0.15711686
0.83134752
0.30018644
0.23838143
0.17546596
0.13667487
0.11162247
0.089921151
0.070498803
0.052420163
0.034905361
0.017664508
0.00064349071
-0.016138076
-0.03260304
-0.048643732
-0.064136249
-0.078955476
-0.092974721
-0.10606073
-0.11808419
-0.12890943
-0.13838473
-0.14633725
-0.15247021
-0.15654707
-0.15710174
0.83112779
0.30545108
0.24200037
0.17773584
0.1382181
0.11277688
0.090876538
0.071329675
0.053164522
0.035584462
0.018290701
0.0012254325
-0.015594004
-0.032090917
-0.048157986
-0.063672063
-0.078508859
-0.092542322
-0.10563946
-0.11767152
-0.12850318
-0.137983
-0.14593852
-0.1520732
-0.1561508
-0.15670502
0.83211146
0.30979835
0.24500601
0.18024238
0.14042952
0.11474474
0.092691539
0.073030831
0.054774437
0.037116084
0.019752344
0.0026250271
-0.014249925
-0.030793603
-0.046897826
-0.062440469
-0.077298739
-0.091347792
-0.10445526
-0.11649347
-0.12732793
-0.13680792
-0.14476163
-0.15089341
-0.15496702
-0.15551697
0.83307549
0.31349902
0.24653785
0.18150679
0.14190868
0.11629797
0.094302545
0.074682904
0.056451527
0.038801594
0.02143314
0.0042939445
-0.012598605
-0.029158971
-0.045275914
-0.060827499
-0.075691799
-0.089744612
-0.10285389
-0.11489236
-0.12572595
-0.13520423
-0.14315558
-0.14928483
-0.15335466
-0.15390056
0.83193001
0.31847585
0.24870037
0.18243065
0.14281962
0.11722077
0.095292695
0.075768175
0.057633341
0.040061711
0.022750527
0.0056528742
-0.011210587
-0.027749101
-0.043848391
-0.059385568
-0.074238438
-0.088282526
-0.10138553
-0.11341963
-0.12425042
-0.13372707
-0.14167731
-0.14780545
-0.15187224
-0.15241377
0.82763459
0.32438899
0.25235726
0.18363887
0.14353898
0.11774945
0.095753446
0.076235828
0.058156667
0.0406505
0.023401304
0.0063578964
-0.010456603
-0.026955372
-0.043024417
-0.058538624
-0.073374091
-0.087405029
-0.10049826
-0.11252506
-0.12335029
-0.13282232
-0.14076789
-0.1468902
-0.150948
-0.15147855
0.82118164
0.32978474
0.25686131
0.18530545
0.14430558
0.11815768
0.095986666
0.076375625
0.058277194
0.040786912
0.023565417
0.0065536997
-0.010224713
-0.026689698
-0.042731668
-0.058224712
-0.073043631
-0.087061502
-0.10014424
-0.11216226
-0.12297964
-0.13244381
-0.14038063
-0.14649224
-0.15053616
-0.15105318
0.8136782
0.33468871
0.26198641
0.18779688
0.14556772
0.1188225
0.096345499
0.076543025
0.058331067
0.040797389
0.023565363
0.006561921
-0.010201799
-0.026652699
-0.042681793