/*--------------------------------*- C++ -*----------------------------------*\
| =========                 |                                                 |
| \\      /  F ield         | OpenFOAM: The Open Source CFD Toolbox           |
|  \\    /   O peration     | Version:  2.4.0                                 |
|   \\  /    A nd           | Web:      www.OpenFOAM.org                      |
|    \\/     M anipulation  |                                                 |
\*---------------------------------------------------------------------------*/
FoamFile
{
    version     2.0;
    format      ascii;
    class       volSymmTensorField;
    location    "2000";
    object      Rx;
}
// * * * * * * * * * * * * * * * * * * * * * * * * * * * * * * * * * * * * * //

dimensions      [0 0 0 0 0 0 0];

internalField   nonuniform List<symmTensor> 
15296
(
(-0.00062475576 -0.0085778874 -0.0011365398 0.0055216005 0.13600402 -0.0048968447)
(0.013122379 -0.0046126363 -0.00015195683 0.0030666736 0.14719339 -0.016189052)
(0.015808336 -0.0037776517 -0.0001063256 0.0017914712 0.14586982 -0.017599807)
(0.017927222 -0.0035523318 0.00093392169 7.8994147e-05 0.14592237 -0.018006216)
(0.016501812 -0.0031347098 0.001111708 0.0048259644 -0.13259457 -0.021327776)
(0.01988847 -0.002023173 0.00015084036 0.0033232792 -0.15144317 -0.023211749)
(0.01944573 -7.8317472e-05 2.6206582e-05 0.0016737128 -0.1483971 -0.021119443)
(0.017933392 0.0033903608 -0.001165817 5.2805071e-05 -0.14698154 -0.017986197)
(0.012688015 0.010820636 -0.0017333691 0.0049140766 0.13233879 -0.017602091)
(0.013497814 0.016093703 0.00098273961 0.0033184435 0.14959532 -0.016816258)
(0.0093511449 0.023603189 0.0019287258 0.0053437766 -0.13166154 -0.014694922)
(0.010600069 0.026808424 9.4283843e-05 0.0043414905 -0.1449062 -0.014941559)
(0.011074491 0.028445228 -0.0013245554 0.0037952461 -0.1445522 -0.014869738)
(0.011141151 0.029689813 -0.0020608085 0.0058375407 0.13348042 -0.016978692)
(0.019178562 0.020501868 -4.408682e-06 0.0033796784 0.14788393 -0.02255824)
(0.027539985 0.0015346429 0.00012437219 0.0015719471 0.14981913 -0.029111932)
(0.02986276 -0.026323655 0.001363957 0.0018832521 0.13182414 -0.031746012)
(0.021671125 -0.054941891 -0.0006124458 0.00067598784 -0.067217036 -0.022347113)
(0.0028961093 -0.070980384 -0.00074401202 0.0022859717 -0.024126116 -0.0051820809)
(-0.013001928 -0.020129217 -0.00011766479 0.00097695924 -0.0031735091 0.012024969)
(-0.067184215 0.082246305 -1.19028e-05 0.0097886764 -0.00017647603 0.057395538)
(-0.19578636 0.13998414 -1.4927861e-06 0.046484536 -1.8459112e-05 0.14930182)
(-0.19368747 0.15959302 -6.1726159e-07 0.11042369 -7.4635494e-07 0.083263779)
(-0.16915285 0.18062399 -1.9497958e-07 0.089292296 -5.7099216e-07 0.079860557)
(-0.15434175 0.18839203 -4.8509984e-08 0.062532613 -1.5119373e-06 0.09180914)
(-0.11926296 0.1715818 4.5503032e-08 0.039669527 -2.3129022e-06 0.079593433)
(-0.095932838 0.15639426 5.2814289e-08 0.029994083 -2.3126062e-06 0.065938754)
(-0.085395226 0.14886746 4.4250977e-08 0.025926253 -1.9862591e-06 0.059468973)
(-0.080004772 0.14422887 3.291988e-08 0.02386055 -1.5731642e-06 0.056144222)
(-0.077478595 0.14082316 2.3202002e-08 0.022758512 -1.1949894e-06 0.054720083)
(-0.078041462 0.13857395 1.5589208e-08 0.022555068 -8.8533656e-07 0.055486394)
(-0.083601739 0.13707534 9.1853879e-09 0.023585887 -6.6650931e-07 0.060015852)
(-0.11233183 0.13464092 -2.5818647e-08 0.029887608 -1.5361597e-07 0.082444225)
(-0.18574903 0.15472734 3.4953069e-07 0.051162823 2.7917319e-06 0.13458621)
(-0.19963945 0.13836315 2.9138204e-05 0.054211035 -4.4869132e-05 0.14542841)
(-0.17230779 0.11726565 0.00040120678 0.0368918 -0.0047412575 0.13541599)
(-0.10176995 0.061026411 0.0010626235 0.027852094 -0.046724481 0.073917851)
(0.089188765 0.1729487 -0.0012029009 0.076466243 -0.0020532954 -0.16565501)
(-0.011980061 -0.018983242 -0.00057092458 0.0015229848 0.048084141 0.010457076)
(-0.0025803699 -0.012155162 -0.00017936653 -0.0072448973 0.054823023 0.0098252671)
(-0.00014512636 -0.010055137 -0.00016203407 -0.0095995532 0.054025816 0.0097446796)
(0.0015361752 -0.0092957575 0.00089367934 -0.012081848 0.054242877 0.010545673)
(0.0061941827 -0.0083264636 0.00097416222 -0.0038929316 -0.046300657 -0.002301251)
(0.0041313139 -0.0065236316 0.0003213213 -0.0091295871 -0.05728118 0.0049982732)
(0.0035207822 -0.0028454879 0.00020284312 -0.011157578 -0.055905409 0.0076367959)
(0.0019282738 0.0041770723 -0.0010627501 -0.012326738 -0.055281932 0.010398464)
(0.0024787473 0.017476216 -0.0026559701 -0.0024478658 0.046062474 -3.088152e-05)
(-0.0029095828 0.029756652 -3.5557524e-05 -0.0056805558 0.056530752 0.0085901385)
(-0.0038339021 0.043270183 0.0033073253 0.00095188331 -0.044931528 0.0028820188)
(-0.0078589804 0.051870823 0.0014011069 -0.00034126311 -0.052833493 0.0082002436)
(-0.0087879029 0.056393297 -0.00045584552 -0.00044759659 -0.052698856 0.0092354995)
(-0.0054419054 0.057475884 -0.0040060308 0.0033817889 0.045998961 0.0020601165)
(-0.00016204759 0.043178209 -0.0010982507 -0.005463255 0.054429674 0.0056253026)
(0.0097569559 0.0074790862 0.00016050306 -0.013409993 0.055702811 0.0036530375)
(0.013645849 -0.046340732 0.0023236615 -0.0075620598 0.044486099 -0.0060837889)
(0.0046611404 -0.096170277 -0.0018520336 0.0070839106 -0.020795671 -0.011745051)
(-0.0168347 -0.12219325 -0.0010873784 0.023972567 -0.0076725494 -0.0071378666)
(-0.012933818 -0.048006848 -0.00010707459 0.0080304874 -0.001032551 0.0049033302)
(-0.073564228 0.12743227 -7.0650771e-06 0.05299756 -4.8328794e-05 0.020566668)
(-0.18097414 0.16925113 -3.7925709e-06 0.12849576 -2.7174721e-06 0.052478379)
(-0.17244766 0.17561288 -6.9249305e-07 0.13131855 -1.1089987e-07 0.041129112)
(-0.15016884 0.19020867 -2.2243177e-07 0.12566737 -1.1360874e-07 0.024501479)
(-0.13885779 0.19629828 -1.1905988e-07 0.12198333 -3.0874187e-07 0.016874454)
(-0.13166986 0.20014401 -5.2862777e-08 0.11820954 -4.9233944e-07 0.013460321)
(-0.12735989 0.20245119 -2.6804879e-08 0.11547572 -5.252433e-07 0.011884174)
(-0.12500755 0.20368479 -1.7774541e-08 0.11389735 -4.6503076e-07 0.011110203)
(-0.12405639 0.20420688 -1.5603798e-08 0.11313027 -3.7287586e-07 0.010926117)
(-0.12426204 0.20417262 -1.4837099e-08 0.11298672 -2.8429445e-07 0.011275315)
(-0.12589345 0.20345218 -1.4900739e-08 0.11358739 -2.0907987e-07 0.012306061)
(-0.13028498 0.20136356 -1.5613151e-08 0.11546566 -1.5475005e-07 0.01481932)
(-0.14809093 0.19180932 -4.8513251e-08 0.12274327 -1.8588794e-08 0.02534766)
(-0.16242123 0.18237012 1.3614199e-07 0.12942907 6.8897602e-07 0.032992162)
(-0.17153785 0.17587802 1.1065127e-05 0.13257874 -7.6568575e-06 0.038959109)
(-0.17683003 0.17187853 0.00028442361 0.13377876 -0.0011398898 0.043051271)
(-0.14777485 0.13473114 0.002458414 0.10199168 -0.01451323 0.04578317)
(0.088916794 0.19559566 -0.00062508361 0.033885158 -0.00056370389 -0.12280195)
(-0.0037639698 -0.028581335 0.00010865804 -0.00080444422 0.028492041 0.004568414)
(0.0081940864 -0.020476537 0.00030166439 -0.0091231499 0.040439179 0.00092906348)
(0.01085056 -0.016998176 0.00022338351 -0.011392404 0.041829841 0.00054184357)
(0.012914718 -0.015343425 0.00097664542 -0.013655191 0.044661254 0.00074047305)
(0.013569876 -0.013842319 0.00053587795 -0.008245033 -0.02180208 -0.0053248432)
(0.015506832 -0.011952711 9.1831112e-05 -0.011848445 -0.040526912 -0.0036583866)
(0.015283292 -0.007366869 0.00010172715 -0.013404139 -0.043286807 -0.0018791531)
(0.014106492 0.0018051066 -0.00058612993 -0.014401319 -0.04571254 0.00029482727)
(0.010604551 0.01766497 -0.002205817 -0.0070549128 0.02214683 -0.0035496381)
(0.0081711623 0.034991814 -0.001395485 -0.0077492555 0.041094327 -0.00042190683)
(0.0027433652 0.052172876 0.0029364642 -0.0011949936 -0.023005317 -0.0015483716)
(-0.00044093214 0.065394594 0.0027755131 0.00018119388 -0.036261253 0.00025973826)
(-0.002641946 0.073357224 0.0015176985 0.0017943983 -0.038018003 0.00084754765)
(-0.0024616135 0.074733676 -0.0041204672 0.0049152487 0.0246473 -0.0024536351)
(0.0060693439 0.061205997 -0.0026934307 -0.0035341348 0.038693407 -0.0025352091)
(0.019169382 0.020416901 -0.0004733455 -0.014089324 0.041731533 -0.0050800578)
(0.020261111 -0.046602071 0.0019997897 -0.01023557 0.025085676 -0.010025541)
(0.00012599475 -0.10855157 -0.0012575745 0.01235827 -0.0087508508 -0.012484265)
(-0.028207814 -0.14190906 -0.00073332797 0.036325448 -0.003500142 -0.0081176346)
(-0.018222391 -0.079039139 -7.755161e-05 0.014707269 -0.00047451005 0.0035151224)
(-0.061891946 0.1204353 -9.0972591e-06 0.046272358 -1.5329932e-05 0.015619588)
(-0.19074706 0.1599052 -6.0876504e-06 0.13427469 -5.2180074e-07 0.056472366)
(-0.17337088 0.17478402 -7.1166437e-07 0.13176635 -2.256502e-07 0.041604532)
(-0.15122933 0.1890298 -2.0738348e-07 0.12836417 -1.0892985e-07 0.022865155)
(-0.14317109 0.19314954 -1.5241222e-07 0.12736129 -1.3756989e-07 0.015809795)
(-0.13657864 0.19660212 -1.3962296e-07 0.12497167 -1.5861058e-07 0.011606974)
(-0.13174965 0.19913794 -1.277537e-07 0.12254393 -1.4965458e-07 0.0092057112)
(-0.12901971 0.20053538 -1.1291285e-07 0.12106641 -1.2069468e-07 0.0079532956)
(-0.12775612 0.20118304 -9.6350189e-08 0.12032168 -8.8176066e-08 0.0074344349)
(-0.12763834 0.20126941 -7.9527821e-08 0.12014435 -6.1301217e-08 0.007493992)
(-0.12889179 0.20068796 -6.4632156e-08 0.12063014 -4.1031e-08 0.0082616508)
(-0.13258113 0.19888312 -5.3304106e-08 0.12218239 -2.8228432e-08 0.010398749)
(-0.1475217 0.19093038 -6.5019656e-08 0.12783206 1.2564966e-08 0.019689645)
(-0.15718914 0.18498374 5.7126182e-08 0.13160308 3.5548274e-07 0.025586059)
(-0.16287073 0.18120353 6.0416637e-06 0.13384206 -1.3037285e-06 0.029028676)
(-0.16748178 0.17775291 0.0001258456 0.13643696 -0.00041356021 0.031044814)
(-0.18166766 0.16719911 0.001569576 0.13969438 -0.0058428075 0.041973276)
(0.056623928 0.20196729 -0.00035231217 0.057118064 -0.00070150606 -0.11374199)
(-0.0071553748 -0.034222399 0.00028932899 0.0055045245 0.016219487 0.0016508503)
(0.0038189167 -0.027012409 0.00061868818 -9.4854845e-05 0.029364624 -0.0037240619)
(0.0064980589 -0.022786409 0.00053713735 -0.0019153521 0.03258931 -0.0045827069)
(0.0085560744 -0.020534826 0.0010505143 -0.0034766547 0.037100599 -0.0050794198)
(0.010377223 -0.0187629 0.00036731371 -0.0037720179 -0.0057586559 -0.006605205)
(0.011247333 -0.016711542 -0.00010052063 -0.0035061221 -0.026983133 -0.007741211)
(0.011287366 -0.01217689 -9.6334919e-05 -0.004250204 -0.033137907 -0.0070371619)
(0.010564617 -0.0027371357 -0.00039305563 -0.0048499269 -0.037951211 -0.0057146899)
(0.0086779223 0.013424039 -0.0013284779 -0.0034836942 0.0065381433 -0.0051942281)
(0.0052289915 0.032667388 -0.0015956001 -0.00026130654 0.028801153 -0.0049676849)
(0.00039011432 0.051995028 0.0016784664 0.003410018 -0.0096100052 -0.0038001323)
(-0.0046505735 0.06785132 0.002707973 0.0084012952 -0.024574278 -0.0037507217)
(-0.0082354714 0.078468523 0.0021828782 0.011818784 -0.027862601 -0.0035833131)
(-0.0084544236 0.081677962 -0.002888447 0.012978981 0.011572934 -0.0045245579)
(-0.0020953271 0.071102 -0.0030388272 0.0085646823 0.026954944 -0.0064693552)
(0.011333576 0.033739955 -0.0011141198 -0.0020061057 0.030444316 -0.0093274704)
(0.016701976 -0.035279789 0.001137292 -0.0047260252 0.014094222 -0.01197595)
(-0.0018545061 -0.10598757 -0.0004971779 0.014523672 -0.0032905935 -0.012669166)
(-0.031503156 -0.14691026 -0.00038259831 0.039919855 -0.0016686748 -0.0084166995)
(-0.024063772 -0.10433153 -4.3888455e-05 0.021894696 -0.00022560502 0.0021690762)
(-0.0349043 0.086130451 -7.2736434e-06 0.02204589 -6.9976792e-06 0.01285841)
(-0.19618728 0.15567216 -6.638389e-06 0.12374541 -3.3786159e-06 0.07244186)
(-0.17310889 0.17555304 -7.0273598e-07 0.1283325 -4.1906879e-07 0.044776385)
(-0.14750384 0.19176541 -1.6400034e-07 0.12477985 -1.5322394e-07 0.022723988)
(-0.13992548 0.19564188 -1.3310463e-07 0.12338354 -1.1588229e-07 0.016541942)
(-0.13459479 0.1982183 -1.4683099e-07 0.12198124 -8.4100815e-08 0.01261355)
(-0.13061668 0.20013403 -1.5239684e-07 0.12046645 -5.1507098e-08 0.010150232)
(-0.12821694 0.20128512 -1.4441987e-07 0.11938497 -2.296456e-08 0.0088319634)
(-0.12709078 0.20182106 -1.2797933e-07 0.11884324 -2.4503326e-09 0.0082475474)
(-0.12700023 0.20186756 -1.0781056e-07 0.11876746 8.9936907e-09 0.0082327714)
(-0.12813572 0.2013365 -8.7833546e-08 0.11922934 1.3597181e-08 0.0089063834)
(-0.13138134 0.19977425 -7.127443e-08 0.12053641 1.3487244e-08 0.010844928)
(-0.14342158 0.19374744 -7.5677041e-08 0.12426846 2.5926183e-08 0.019153122)
(-0.14966371 0.19031285 -2.0189431e-08 0.12609003 2.7385244e-07 0.02357368)
(-0.15627304 0.18603564 3.7655391e-06 0.1295667 5.3253127e-07 0.026706338)
(-0.16082449 0.18272724 7.3216839e-05 0.13276382 -0.00020827095 0.028060663)
(-0.17584572 0.17158505 0.00071311414 0.13996519 -0.0025009532 0.035880528)
(0.015547818 0.20622232 -4.7737756e-05 0.082193442 -0.00090191177 -0.09774126)
(-0.0073576794 -0.03764066 0.00022607758 0.0052855973 0.0085821488 0.0020720822)
(0.0034034068 -0.03216875 0.00066674272 -7.5624499e-05 0.020083186 -0.0033277823)
(0.0061061819 -0.027752674 0.00065763663 -0.0016772057 0.024223579 -0.0044289763)
(0.0081975304 -0.025159202 0.0010214323 -0.0029217062 0.02925775 -0.0052758242)
(0.010153753 -0.023238377 0.00038299697 -0.0044025936 0.0036358292 -0.0057511598)
(0.011039471 -0.021140212 -0.00014647672 -0.0042389479 -0.0158377 -0.0068005229)
(0.011265814 -0.016994484 -0.00023057008 -0.0045629637 -0.023711963 -0.0067028505)
(0.010931164 -0.008226844 -0.00037425253 -0.0049456959 -0.029719701 -0.0059854677)
(0.0097588738 0.006910709 -0.00066628118 -0.0051564433 -0.0026671001 -0.0046024305)
(0.0068693819 0.026284318 -0.001166343 -0.0023957369 0.018365552 -0.004473645)
(0.002470621 0.046401669 0.00062986979 0.00089714767 -0.0021786416 -0.0033677687)
(-0.0028536861 0.064062176 0.0019693103 0.0061715891 -0.015802414 -0.0033179029)
(-0.0072680317 0.076894381 0.0019951889 0.010576396 -0.019942305 -0.0033083642)
(-0.0086338899 0.082307728 -0.0015590681 0.012359711 0.0039422358 -0.0037258214)
(-0.0042893012 0.075366254 -0.0025329029 0.0098240928 0.017745458 -0.0055347916)
(0.0076186724 0.044377026 -0.0012999238 0.0005184591 0.02085722 -0.0081371315)
(0.015994147 -0.01976357 0.00052347784 -0.005294722 0.0080397452 -0.010699425)
(0.00098646536 -0.094805829 -9.3422299e-05 0.010877682 -0.00097133212 -0.011864147)
(-0.028972056 -0.14313866 -0.00017673915 0.037362526 -0.00082799781 -0.0083904697)
(-0.027685212 -0.11913787 -2.068371e-05 0.026993086 -0.00011557354 0.00069212628)
(-0.01424629 0.037755701 -4.2116286e-06 0.0042400245 -8.3866207e-06 0.010006266)
(-0.19721277 0.1545205 -5.1283532e-06 0.1109871 -1.0507429e-05 0.086225669)
(-0.17096865 0.17778595 -6.4296993e-07 0.12351387 -7.0259723e-07 0.047454774)
(-0.14413122 0.19396082 -1.0879249e-07 0.12226983 -2.214548e-07 0.021861383)
(-0.13790283 0.19680956 -9.8699827e-08 0.12217595 -1.3759303e-07 0.015726884)
(-0.13344744 0.19886693 -1.2876086e-07 0.12123968 -7.9770509e-08 0.012207755)
(-0.1298347 0.20060137 -1.4835689e-07 0.1198103 -3.1627717e-08 0.010024397)
(-0.12749149 0.20173903 -1.4964586e-07 0.11866117 3.2395384e-09 0.0088303224)
(-0.12632649 0.2023073 -1.3812229e-07 0.11802692 2.4584415e-08 0.0082995711)
(-0.12615028 0.2024071 -1.1963386e-07 0.11785618 3.3916671e-08 0.0082941021)
(-0.12713474 0.20196038 -9.8982288e-08 0.11821468 3.4612258e-08 0.008920062)
(-0.13004509 0.200578 -8.0512946e-08 0.11936699 3.0435195e-08 0.010678101)
(-0.1394686 0.19614728 -8.2372158e-08 0.12163905 3.3302169e-08 0.017829546)
(-0.1457826 0.19277082 -7.0320491e-08 0.12368166 2.4006743e-07 0.022100936)
(-0.15342029 0.18797187 2.5476637e-06 0.1278451 1.2425929e-06 0.025575188)
(-0.15804836 0.18464139 4.8218377e-05 0.13139791 -0.0001235056 0.026650444)
(-0.17293478 0.17369609 0.00038209109 0.1397752 -0.0012962813 0.033159579)
(-0.01147135 0.20866937 0.00018441351 0.093323517 -0.0009315744 -0.081852167)
(-0.0071951556 -0.039529387 0.00013607591 0.0050042104 0.0034340037 0.0021909452)
(0.00332875 -0.036299652 0.00051119545 -0.00028853488 0.01127728 -0.0030402151)
(0.0059851497 -0.032377444 0.00058797411 -0.0017873527 0.015422699 -0.004197797)
(0.0080768196 -0.029767981 0.00082767734 -0.0028984425 0.020104972 -0.0051783771)
(0.009969154 -0.027855721 0.00040890115 -0.0043180863 0.008569809 -0.0056510677)
(0.011020137 -0.025899924 -5.7515552e-05 -0.0048169779 -0.0054766941 -0.0062031594)
(0.011395644 -0.022554439 -0.00023760395 -0.0050969583 -0.013439294 -0.0062986856)
(0.011399684 -0.015619038 -0.00036439398 -0.0054722521 -0.019735744 -0.0059274323)
(0.010860905 -0.0034208021 -0.00027658027 -0.0061049074 -0.0075006531 -0.004755998)
(0.0092518756 0.013399498 -0.00052933124 -0.0050160174 0.0082122666 -0.0042358582)
(0.0061486647 0.032089305 1.972964e-05 -0.0026376275 0.001365076 -0.0035110372)
(0.0018743277 0.049968347 0.00097471747 0.0013595055 -0.0082097106 -0.0032338332)
(-0.0024259753 0.064414424 0.0013166784 0.0056448839 -0.012583925 -0.0032189086)
(-0.0048914291 0.07261063 -0.00046284229 0.0083703082 -0.00077991824 -0.0034788792)
(-0.0031486904 0.07056459 -0.0015248687 0.0079411851 0.0094593971 -0.0047924947)
(0.0047922616 0.049717504 -0.0010307762 0.0021232371 0.012019297 -0.0069154987)
(0.013983403 0.00033112573 0.00013314346 -0.0045644132 0.0044253366 -0.0094189896)
(0.0072435234 -0.069399983 5.1577288e-05 0.0039148661 2.8861631e-05 -0.01115839)
(-0.018230174 -0.12444831 -6.1017847e-05 0.026827008 -0.00038127099 -0.0085968336)
(-0.024546495 -0.12027368 -9.5780909e-06 0.0256351 -7.1216644e-05 -0.0010886041)
(-0.0053178514 -0.019944897 -2.3576016e-06 -0.0018186914 -1.431279e-05 0.0071365428)
(-0.15713521 0.12999943 -1.3925205e-06 0.066660311 -2.2035322e-05 0.090474903)
(-0.16586597 0.1821635 -3.3295089e-07 0.11630073 -1.537074e-06 0.049565238)
(-0.14280209 0.19509142 -4.3406255e-08 0.11991343 -3.3984697e-07 0.02288866)
(-0.13754083 0.19711964 -6.1087484e-08 0.12153435 -1.824596e-07 0.016006476)
(-0.13373649 0.19872052 -1.0394082e-07 0.12138637 -1.0398673e-07 0.012350122)
(-0.13033729 0.20031826 -1.3577682e-07 0.12020434 -4.3338135e-08 0.010132945)
(-0.12793347 0.20148889 -1.4737157e-07 0.11903168 5.1134828e-10 0.0089017862)
(-0.12665296 0.20212029 -1.4285108e-07 0.11831532 2.7944328e-08 0.0083376447)
(-0.12635043 0.20228636 -1.281087e-07 0.11805494 4.0826082e-08 0.008295487)
(-0.12717316 0.20192198 -1.0837808e-07 0.11830576 4.2620076e-08 0.0088673951)
(-0.12980294 0.20068008 -8.8908732e-08 0.11930539 3.8008233e-08 0.010497555)
(-0.13655391 0.19776382 -8.9049792e-08 0.12002674 3.6259462e-08 0.016527173)
(-0.14511293 0.1933394 -1.1343882e-07 0.12243018 2.1305117e-07 0.022682751)
(-0.15378196 0.18790136 1.7288502e-06 0.12718455 1.6501999e-06 0.026597415)
(-0.15893215 0.18409014 3.2216842e-05 0.13154577 -7.4452952e-05 0.027386378)
(-0.17215086 0.17437182 0.00021632984 0.13945848 -0.00069989504 0.032692382)
(-0.035020171 0.2092409 0.00028465187 0.10264386 -0.00072394382 -0.067623691)
(-0.007363373 -0.040945385 5.9472016e-05 0.0053277813 0.00069527045 0.0020355917)
(0.0028963644 -0.039717432 0.00028774164 0.00018740171 0.0047842239 -0.0030837661)
(0.0054523551 -0.036736944 0.00041311753 -0.0012617496 0.0081018512 -0.0041906054)
(0.0074913817 -0.034442101 0.00057543177 -0.0023385318 0.011822829 -0.0051528498)
(0.0093948951 -0.032668587 0.00042152402 -0.0035479525 0.0092432358 -0.0058469425)
(0.010471505 -0.030963045 9.7781882e-05 -0.0042938494 0.001530855 -0.0061776558)
(0.01092286 -0.028544248 -0.00012924089 -0.0046987405 -0.0049195698 -0.0062241194)
(0.011109987 -0.023865401 -0.00028999298 -0.0051416108 -0.010521324 -0.0059683767)
(0.011077468 -0.015479087 -0.0001832088 -0.0058602685 -0.0080708149 -0.0052171991)
(0.010542026 -0.0029084087 -0.00015124603 -0.0060187073 0.00091225352 -0.0045233183)
(0.0090794794 0.012451962 -0.00011975084 -0.0051203557 0.001813197 -0.0039591237)
(0.0065155492 0.028768061 0.0002685749 -0.0029529406 -0.0030184732 -0.0035626086)
(0.0032861516 0.043697915 0.00060911989 0.00015273718 -0.006732785 -0.0034388888)
(0.00056702771 0.054455459 9.2565106e-05 0.0030178654 -0.0027798556 -0.0035848931)
(5.7505454e-05 0.057657812 -0.00059768954 0.0043742035 0.0034886568 -0.0044317089)
(0.0034380988 0.047873736 -0.00056518746 0.0025475705 0.0055166194 -0.0059856693)
(0.010187843 0.017555202 -4.6909603e-05 -0.0021025994 0.0022767012 -0.008085244)
(0.011122604 -0.037204481 4.9168302e-05 -0.0010939631 0.00035076447 -0.010028641)
(-0.0051076826 -0.093973066 -9.5152995e-06 0.013656997 -0.00014514791 -0.0085493147)
(-0.016321459 -0.10880122 -6.5430314e-06 0.019053126 -5.37598e-05 -0.0027316662)
(-0.0080900286 -0.065089559 -3.0497926e-06 0.0037941079 -1.9494444e-05 0.0042959207)
(-0.066841444 0.040576802 -2.0041061e-07 0.0028210699 -2.8644029e-05 0.064020374)
(-0.16065935 0.18661707 6.6257982e-07 0.10120368 -3.9409115e-06 0.059455664)
(-0.14325476 0.19547132 8.1446527e-08 0.11681018 -5.9136039e-07 0.026444574)
(-0.13801123 0.19709555 -9.9005122e-09 0.12078559 -2.5790741e-07 0.017225638)
(-0.13465018 0.19829517 -6.9948554e-08 0.12165333 -1.476647e-07 0.012996845)
(-0.13145414 0.19973039 -1.1507043e-07 0.12088231 -7.2045152e-08 0.010571825)
(-0.12895196 0.20094401 -1.3899693e-07 0.11973449 -1.6381521e-08 0.0092174707)
(-0.12749684 0.20166704 -1.4389363e-07 0.11892441 2.0551596e-08 0.0085724334)
(-0.12702001 0.20192237 -1.350188e-07 0.11855519 4.0305689e-08 0.0084648252)
(-0.12764761 0.20165473 -1.1767014e-07 0.11868051 4.5927024e-08 0.0089670925)
(-0.1300247 0.20053425 -9.7866672e-08 0.11954347 4.2702939e-08 0.010481232)
(-0.13456916 0.19875596 -9.5925925e-08 0.11923258 3.7890308e-08 0.015336579)
(-0.14597518 0.19303451 -1.5586828e-07 0.12162101 1.889717e-07 0.024354167)
(-0.15536968 0.18710135 1.1204409e-06 0.12665092 1.89976e-06 0.028718756)
(-0.16141783 0.18249396 2.0880083e-05 0.13206782 -4.391914e-05 0.029350008)
(-0.17288094 0.17379138 0.00011982956 0.14005603 -0.00038003974 0.032824908)
(-0.056304549 0.20881099 0.00025833286 0.1099073 -0.0004058594 -0.053602747)
(-0.0075151112 -0.042096493 2.1570648e-05 0.005547608 -0.00022280177 0.0019675032)
(0.0025788236 -0.042113952 0.00011385224 0.00055255863 0.0012507712 -0.0031313823)
(0.005014348 -0.040162988 0.0002232687 -0.00083227865 0.0033272817 -0.0041820693)
(0.006961322 -0.03844714 0.00033120595 -0.0018838801 0.0058333701 -0.0050774419)
(0.0088334023 -0.036950721 0.00035442544 -0.0029314385 0.007076749 -0.0059019638)
(0.0099039073 -0.035537189 0.00020869307 -0.0036605678 0.0043292423 -0.0062433394)
(0.010362205 -0.033869975 2.3288756e-05 -0.0041216476 0.00029943713 -0.0062405575)
(0.010566917 -0.031049787 -0.00013425798 -0.0045700173 -0.0038501303 -0.0059968996)
(0.01067408 -0.026001256 -0.00016315183 -0.0051664728 -0.0057520574 -0.0055076072)
(0.010646474 -0.017832782 -8.9520195e-05 -0.0057769501 -0.0024054684 -0.0048695242)
(0.010264777 -0.0067584597 -7.6663413e-05 -0.0059451553 0.00064232579 -0.0043196219)
(0.0092451543 0.0063664797 5.1687009e-06 -0.0053684823 -0.00057350512 -0.003876672)
(0.0075212284 0.019967646 0.00017745456 -0.0038835955 -0.0029164819 -0.003637633)
(0.0055102833 0.031738369 0.00016090657 -0.0018316332 -0.0027012728 -0.00367865)
(0.0041244929 0.038825844 -0.00010323548 6.3021486e-05 0.00029926712 -0.0041875144)
(0.0044370867 0.037789437 -0.00019353428 0.00080809581 0.0017157688 -0.0052451825)
(0.0073410171 0.023993254 -7.1830608e-05 -0.00050632783 0.00094254154 -0.0068346892)
(0.010635831 -0.011064828 3.8436832e-06 -0.0020392027 0.00029014143 -0.0085966282)
(0.003969916 -0.060379426 8.7005901e-09 0.0040611497 -4.3386955e-05 -0.0080310658)
(-0.0066165355 -0.087268572 -5.9853316e-06 0.010483273 -4.2452479e-05 -0.003866738)
(-0.010160352 -0.081695898 -4.4707304e-06 0.0084401904 -2.1494292e-05 0.0017201619)
(-0.035271989 -0.035195406 -3.1021049e-06 -0.0092894696 -3.0625288e-05 0.044561459)
(-0.15434626 0.18832889 2.8555474e-06 0.065437682 -9.6599049e-06 0.088908574)
(-0.14476533 0.19566456 3.6818429e-07 0.11072493 -1.1447793e-06 0.034040397)
(-0.13851777 0.19721453 7.7989559e-08 0.11927004 -3.9666245e-07 0.019247728)
(-0.13549689 0.19797576 -1.7135755e-08 0.12157936 -2.2148265e-07 0.013917531)
(-0.13261221 0.19914962 -8.0071613e-08 0.12144564 -1.2155829e-07 0.01116657)
(-0.13010034 0.20034019 -1.1946128e-07 0.12046096 -4.8975026e-08 0.0096393823)
(-0.12848171 0.20114499 -1.3703979e-07 0.11959116 1.8423288e-09 0.0088905472)
(-0.12781561 0.20149744 -1.3706688e-07 0.11911021 3.2358799e-08 0.008705403)
(-0.12822434 0.20133959 -1.2443982e-07 0.11909512 4.486797e-08 0.0091292159)
(-0.13035727 0.20033774 -1.0573538e-07 0.11982349 4.5068644e-08 0.010533775)
(-0.13360655 0.19913129 -1.0161025e-07 0.11922814 3.8433516e-08 0.014378412)
(-0.14635877 0.19294092 -1.9115972e-07 0.12079793 1.6660529e-07 0.025560839)
(-0.15649008 0.18662658 6.9801094e-07 0.12558028 1.9640334e-06 0.030909795)
(-0.16403994 0.18083339 1.3595772e-05 0.1322069 -2.6537688e-05 0.03183304)
(-0.17431367 0.17273064 6.6201976e-05 0.14065455 -0.00021733172 0.033659122)
(-0.073205418 0.20782466 0.00016171225 0.11478891 -0.00012262431 -0.041583488)
(-0.0075533357 -0.043095564 7.6624764e-06 0.005645465 -0.00031219452 0.0019078707)
(0.0023153889 -0.043914302 2.0408088e-05 0.00087224908 -0.00020812225 -0.003187638)
(0.0046562763 -0.042780183 8.1054761e-05 -0.00044145996 0.00069536043 -0.0042148164)
(0.0064967643 -0.041734666 0.00014014044 -0.0014343865 0.0020265315 -0.0050623778)
(0.0082994784 -0.040643321 0.00022545509 -0.0023985395 0.0040227098 -0.0059009389)
(0.0093388057 -0.039545077 0.00022069418 -0.0030395555 0.0041773312 -0.0062992502)
(0.0097674568 -0.03841496 0.00012872227 -0.0034483241 0.0025497716 -0.0063191327)
(0.0099133897 -0.036859246 2.3610802e-05 -0.0038132551 0.00017296691 -0.0061001346)
(0.0099471566 -0.034221741 -8.3204892e-05 -0.0042312197 -0.0025903646 -0.0057159369)
(0.0099743519 -0.029691206 -0.00010301217 -0.0047761701 -0.0027406459 -0.0051981818)
(0.0099740416 -0.022849155 -5.6930719e-05 -0.0053070336 -0.00053197519 -0.0046670079)
(0.0098109623 -0.013766193 -3.6911156e-05 -0.0056042537 8.6753743e-05 -0.0042067086)
(0.0092924663 -0.0031165081 1.4002135e-05 -0.0054054603 -0.00079449951 -0.003887006)
(0.0083675468 0.0076581897 6.7458788e-05 -0.004557946 -0.0017111785 -0.0038096008)
(0.0072747462 0.016442679 3.6314512e-05 -0.0031975324 -0.0008897473 -0.0040772138)
(0.0064378863 0.020979943 -1.8171611e-05 -0.0016967304 -0.00016076204 -0.0047411559)
(0.0065749962 0.018865625 -3.5811658e-05 -0.00072815662 6.5118254e-05 -0.0058468396)
(0.0083977479 0.0024807842 -1.8579395e-05 -0.0011702265 7.2787031e-05 -0.0072275214)
(0.0072601299 -0.03171715 -6.9407074e-06 -0.00010921152 -2.9086145e-05 -0.0071509183)
(0.00084558201 -0.060963385 -6.734446e-06 0.0035468315 -3.5395908e-05 -0.0043924135)
(-0.0070930334 -0.075516941 -5.1546569e-06 0.0073947975 -2.0717706e-05 -0.0003017641)
(-0.026204077 -0.068363496 -5.0569091e-06 -0.0037332245 -2.8088961e-05 0.029937301)
(-0.1316267 0.18090259 6.4404403e-06 -0.0094020465 -2.250919e-05 0.14102874)
(-0.14653406 0.19598255 1.0362757e-06 0.09424351 -2.4432697e-06 0.052290555)
(-0.13875958 0.19782125 2.3929254e-07 0.11579324 -6.5552039e-07 0.022966336)
(-0.13618832 0.19784215 6.5483248e-08 0.12096918 -3.4077967e-07 0.015219138)
(-0.13371457 0.19864119 -2.5995018e-08 0.12178088 -1.9736058e-07 0.011933686)
(-0.13130314 0.19972952 -8.5388927e-08 0.12111064 -1.0055757e-07 0.010192499)
(-0.12957113 0.20057745 -1.1946826e-07 0.12026957 -3.1043652e-08 0.0093015602)
(-0.12871593 0.2010237 -1.3201787e-07 0.11969783 1.4467353e-08 0.0090180988)
(-0.128884 0.20098638 -1.2709806e-07 0.11953595 3.7442751e-08 0.0093480552)
(-0.13076012 0.20011145 -1.1155068e-07 0.12011704 4.3738438e-08 0.010643087)
(-0.13341809 0.19908298 -1.0564312e-07 0.11969643 3.6988117e-08 0.013721661)
(-0.14488764 0.1938103 -2.1230618e-07 0.11975078 1.4489356e-07 0.02513686)
(-0.15643068 0.1869236 4.0549405e-07 0.12378558 1.8930448e-06 0.032645102)
(-0.16613616 0.17957922 8.9144134e-06 0.13161945 -1.6499592e-05 0.034516705)
(-0.17611327 0.17147215 3.4627893e-05 0.14098732 -0.00012814204 0.035125954)
(-0.086457164 0.20657989 6.3303328e-05 0.11810401 6.3010126e-05 -0.031646848)
(-0.0077207542 -0.044184571 3.1347882e-06 0.0058650476 -0.0001662486 0.0018557066)
(0.0020039956 -0.045560145 -1.1546256e-05 0.0012361542 -0.00049800979 -0.0032401498)
(0.0043114571 -0.044901496 5.29167e-06 -4.5948744e-05 -0.0003709675 -0.0042655084)
(0.0060547506 -0.044441498 2.4460048e-05 -0.00096229092 6.7304439e-05 -0.0050924597)
(0.0077837717 -0.043802594 9.3758667e-05 -0.0018741826 0.0014554833 -0.0059095891)
(0.0087698291 -0.043032283 0.00015270885 -0.0024403997 0.0026153547 -0.0063294294)
(0.0091515473 -0.042273374 0.00014739549 -0.0027594308 0.0026354886 -0.0063921165)
(0.0092244017 -0.041451574 0.00011197425 -0.0030004467 0.0018319904 -0.006223955)
(0.0091376518 -0.040270813 2.215482e-05 -0.0032409628 -9.134719e-05 -0.005896689)
(0.0090167184 -0.038208515 -6.3619178e-05 -0.0035465161 -0.0015432322 -0.0054702023)
(0.0089545071 -0.034727247 -5.4240791e-05 -0.0039593593 -0.0009134453 -0.0049951479)
(0.0089656808 -0.029493658 -3.0088056e-05 -0.0044219239 -2.0829074e-05 -0.0045437569)
(0.0089633077 -0.022520133 -9.4623157e-06 -0.0047831369 6.1154064e-05 -0.0041801708)
(0.0088070521 -0.014360751 5.351167e-06 -0.004813579 -0.00068232016 -0.0039934731)
(0.0084014223 -0.0062131489 2.0629753e-05 -0.004329599 -0.00089528445 -0.0040718233)
(0.007729932 0.00052662225 9.3017832e-06 -0.0032972258 -0.00075866289 -0.0044327062)
(0.0069782265 0.004803955 -1.0831674e-05 -0.0018511515 -0.00040394538 -0.005127075)
(0.0069142671 0.0019690467 -1.6870171e-05 -0.00080244665 -0.00014747673 -0.0061118205)
(0.006855002 -0.015042103 -1.2199959e-05 -0.00069293537 -6.8923098e-05 -0.0061620666)
(0.0041351337 -0.037522746 -8.0585787e-06 0.00021814214 -3.7916692e-05 -0.0043532758)
(-0.0023794284 -0.057552176 -5.1648098e-06 0.0038438438 -1.9122345e-05 -0.0014644155)
(-0.017634304 -0.067830848 -4.747056e-06 -0.0012696773 -2.2613863e-05 0.018903981)