-0.1 	0.0099 	-4.5739779e-20 	-50277.049 	757931.58 	-452.56443 	32894.173 	-46429.987 	2685.2391
-5.9305859e-17 	0.1385 	-3.0357661e-18 	-492.53759 	-116.23781 	1.9868267 	282.108 	-13.153266 	40.634104
0.1 	0.1811 	-3.0357661e-18 	-98.28532 	-10.590755 	-2.4611726 	113.5021 	1.0132065 	-5.5128025
0.2 	0.214 	-8.6736174e-19 	-1.5556607 	79.154869 	-0.36988228 	80.63545 	1.4243968 	4.6775238
0.3 	0.2333 	-3.9031278e-18 	50.464278 	-61.043228 	0.92963217 	-29.676713 	0.16798502 	6.1207068
0.4 	0.2651 	-6.0715322e-18 	1229.5447 	-2274.7281 	-27.172183 	-1285.5548 	-15.487661 	-1.645167
0.5 	0.2921 	-7.0202091e-18 	2117.017 	-3978.7751 	26.062962 	-2400.7035 	-5.2089134 	170.91451
0.6 	0.3156 	-2.2985086e-17 	510.29873 	-1478.7929 	7.1746675 	-891.25802 	3.5941505 	13.228119
0.7 	0.3364 	-2.6020852e-17 	-84.091704 	-551.43164 	-39.765989 	-781.09099 	241.59209 	588.71531
0.8 	0.3548 	-2.1033522e-17 	-1170.812 	6045.9443 	-12.408746 	816.5856 	418.28401 	351.94837
0.9 	0.3714 	-1.3010426e-17 	1594.0643 	6776.8488 	-28.359096 	-2175.6297 	114.36487 	340.4845
1 	0.3863 	-2.0816682e-17 	2601.4578 	3019.4923 	-79.972641 	-3147.9579 	20.318526 	172.37103
1.1 	0.3998 	-2.4286129e-17 	3094.1342 	-568.05402 	-44.184896 	-3766.6334 	-8.5501098 	-1.1651161
4.17 	0.4913 	0 	-10322.23 	-71870.362 	50.705831 	13281.845 	-2165.4565 	356.52772
4.27 	0.4913 	0 	-2086.3637 	-16383.768 	119.06103 	4109.0137 	-441.34395 	527.594
4.37 	0.4913 	-1.7347235e-18 	-4742.5328 	-18476.811 	102.98946 	6890.4718 	-641.29364 	669.70173
4.47 	0.4913 	-3.469447e-18 	-9974.4502 	-19640.605 	25.015118 	11404.613 	232.16917 	633.85212
4.57 	0.4913 	-4.3368087e-18 	-26756.099 	-28449.289 	122.29526 	25260.221 	2555.1802 	1357.0472
4.67 	0.4913 	-5.2041704e-18 	-37409.524 	-24941.672 	267.79649 	33503.034 	4391.794 	1991.6134
4.77 	0.4913 	-5.2041704e-18 	-16229.219 	-7711.2571 	147.15554 	14886.421 	1199.6907 	77.90911
4.87 	0.4913 	-6.0715322e-18 	-5393.3545 	-1269.8527 	30.450987 	5771.0956 	878.26457 	-192.77083
4.97 	0.4913 	-4.3368087e-18 	-23664.156 	-8798.1141 	-49.426195 	30545.202 	7870.7447 	-3767.628
5.07 	0.5013 	-2.6020852e-18 	-85976.595 	51117.869 	-145.83884 	100890.89 	587.5991 	-441.62645
5.17 	0.5013 	-8.6736174e-19 	-40628.797 	31757.803 	-528.7957 	44377.748 	605.04342 	153.46791
5.27 	0.5013 	2.6020852e-18 	-5999.7127 	-9629.9146 	-311.57446 	4010.6855 	20.078175 	94.170232
5.37 	0.5013 	8.6736174e-19 	4166.5945 	-38204.106 	-334.79727 	-8136.3433 	568.13818 	300.98318
5.47 	0.5013 	1.7347235e-18 	4526.1256 	-53638.661 	170.07118 	-7193.8322 	300.96091 	37.738845
8.6667 	0.4961 	1.994932e-17 	0.022653652 	-8.8889446e-13 	-2.7353207e-14 	0.022627322 	-0.00017788519 	0.0088417391
8.9167 	0.4961 	2.0816682e-17 	0.0096440333 	6.3553894e-09 	-2.7746264e-10 	0.009627327 	-1.1433728e-05 	0.0008321938
9.1667 	0.4961 	2.2117724e-17 	0.0031407765 	-1.8381848e-09 	3.2893367e-11 	0.003137626 	-7.2284689e-06 	0.0014747684
9.4167 	0.4961 	1.6479873e-17 	0.001194043 	-1.294905e-06 	1.3001033e-08 	0.0011917015 	-2.1517766e-06 	0.00024027796
9.6667 	0.4961 	1.3010426e-17 	0.0011691838 	-0.05304906 	-0.00075719624 	0.0009472321 	-0.00013671594 	0.00026670812
9.9167 	0.4961 	1.2143064e-17 	-0.015162291 	-0.034972067 	-9.9642178e-05 	0.020081713 	9.7058706e-05 	0.00028081864
10.1667 	0.4961 	1.1275703e-17 	-0.0050874758 	-0.012521272 	0.00044516704 	0.0097850576 	-0.00058107093 	0.0009377309
10.4167 	0.4961 	1.5612511e-17 	0.0034853627 	-0.0065336964 	-1.2218682e-05 	-0.00066591163 	-0.00053779751 	0.00079649774
10.6667 	0.4961 	1.3877788e-17 	0.0044361481 	-0.012331431 	3.32738e-05 	-0.0094089865 	-0.00072036954 	-0.0015554977
10.9167 	0.4961 	1.4528309e-17 	0.001293943 	-0.00036784739 	2.2661359e-06 	0.0016111988 	-6.672388e-06 	0.00041621914
11.1667 	0.4856 	2.1684043e-17 	0.00056293778 	-5.6656654e-07 	1.0671999e-08 	0.0005621168 	5.7249743e-08 	6.3183193e-05
11.4167 	0.4646 	2.6888214e-17 	0.00018857348 	7.5741111e-08 	3.3159535e-09 	0.00018875886 	-1.4769301e-06 	8.8476053e-06
11.6667 	0.4226 	1.6479873e-17 	0.00734249 	-0.0036924298 	-8.3172853e-06 	-0.0051618164 	-1.1244474e-05 	5.3602971e-05
11.9167 	0.3701 	2.1250363e-17 	0.00029393985 	-6.7138736e-05 	-8.9200341e-07 	0.00029087365 	-5.1671845e-09 	6.4659902e-05
12.1667 	0.2966 	2.1141942e-17 	-0.0081799699 	-0.010063905 	0.00017413568 	0.010287952 	0.00011810464 	-6.0700019e-06
12.4167 	0.1811 	2.1684043e-17 	0.00029802419 	-2.2162563e-07 	-1.4548031e-08 	0.00029747014 	-9.2457665e-07 	6.3919283e-07
12.6667 	0.0236 	1.2739376e-17 	0.0019376403 	-9.3085852e-07 	-1.4054861e-09 	0.0019346536 	-1.8725728e-05 	0.00036382047
12.9167 	0.0236 	1.3457659e-17 	0.010214498 	3.6373674e-06 	-5.385218e-08 	0.010190979 	-5.2635379e-06 	8.6075555e-05
13.1667 	0.0236 	1.3444107e-17 	4.0417419e-06 	-1.9080007e-07 	4.3043548e-10 	3.7013564e-06 	-1.3135312e-07 	5.400744e-09
13.4167 	0.0236 	1.3498317e-17 	1.104082e-05 	1.3294289e-08 	-3.4249951e-10 	1.1021083e-05 	4.2386129e-07 	2.5666147e-08
13.6667 	0.0236 	1.3444107e-17 	0.017078724 	-4.3263145e-09 	-2.8404134e-11 	0.017046319 	0.00010147475 	8.0149959e-05
13.9167 	0.0236 	1.3444107e-17 	0.017845606 	-0.0010845501 	-4.2813843e-05 	0.016703635 	0.00035203277 	0.00019008768
14.1667 	0.0236 	1.3715157e-17 	0.0060828994 	0.012857602 	-9.2457344e-05 	0.0036295187 	0.0023461078 	0.00057621006
14.4167 	0.0236 	1.3552527e-17 	301.12799 	-1182.8087 	-50.527023 	249.2342 	1.7732153 	11.50365
14.6667 	0.0236 	1.3227267e-17 	34.505435 	-514.34518 	22.417537 	14.579043 	-0.54185835 	0.35744962
14.9167 	0.0236 	1.3606737e-17 	-8832.8299 	-75617.505 	705.00323 	7217.5554 	9842.3901 	750.36928
15.1667 	0.0236 	1.3715157e-17 	0.75196179 	-0.74659212 	0.028262581 	0.77541777 	-0.032614077 	0.011517173
15.4167 	0.0236 	1.3633842e-17 	-1.8546061e-06 	-0.00023788543 	-2.2085667e-06 	2.7873385e-06 	5.729905e-08 	8.7104641e-09
15.6667 	0.0236 	1.3715157e-17 	0.023204726 	-3.1538878e-05 	1.3685473e-06 	0.023161831 	0.0001831871 	0.00028719551
15.9167 	0.0236 	1.3769368e-17 	0.074816968 	-0.015941051 	3.5446432e-05 	0.075746582 	-0.0022073689 	0.024029438
16.1667 	0.0236 	1.4365679e-17 	20.719967 	-3.3895893 	-0.029325233 	20.920841 	0.17905681 	0.051591728
16.4167 	0.0236 	1.4148838e-17 	4.1926468 	-1.5507253e-05 	8.7817523e-08 	4.1862591 	-0.010008762 	0.84152744
