0.2739420079 	0.2513578411 	0.06395548805 	-0.0003488532713
0.275272557 	0.9524049519 	0.2389726635 	-0.00126605524
0.2766031854 	1.699871086 	0.4238325053 	-0.002141128093
0.2779335901 	2.148574646 	0.5338293739 	-0.002536579584
0.2792634708 	2.395693496 	0.5923363278 	-0.002602550902
0.2805925299 	2.553561792 	0.6277104128 	-0.002491774853
0.2826362867 	2.656581617 	0.647785755 	-0.002273847334
0.2849408702 	2.708348682 	0.6538665956 	-0.002064471389
0.2875370716 	2.73182939 	0.6522269464 	-0.00188355294
0.2904580691 	2.74380625 	0.646918516 	-0.001709082733
0.2938196317 	2.750912768 	0.6393775865 	-0.001526672662
0.2976320779 	2.7553512 	0.6301020577 	-0.00133210176
0.3019179803 	2.75788535 	0.6193205923 	-0.001126856007
0.3067337774 	2.758775625 	0.6069736657 	-0.0009150275981
0.3122569715 	2.758110444 	0.5929253711 	-0.000696978443
0.3185112727 	2.755719479 	0.5758651129 	-0.0004754847095
0.3279565291 	2.751801184 	0.5544862025 	-0.0001954959429
0.3358853299 	2.747703835 	0.5363354457 	-0.000330886501
0.3381259885 	2.746359941 	0.5312212769 	-4.640757045e-05
0.3489508731 	2.739614846 	0.5077626573 	-0.0002395497259
0.3605981766 	2.732157917 	0.483939636 	-0.0004013512702
0.3731708885 	2.723944647 	0.4598081268 	-0.000530498363
0.3867969958 	2.714902725 	0.4354268155 	-0.0006263418861
0.4014972221 	2.704953151 	0.4109189298 	-0.0006878817917
0.4173643717 	2.69399611 	0.386395292 	-0.0007163047167
0.4344885207 	2.681908633 	0.3619249065 	-0.0007138233945
0.4530046648 	2.66856912 	0.3375755372 	-0.0005399744159
0.4729699124 	2.653875381 	0.3134515531 	-0.0003856144342
0.4944634565 	2.637724589 	0.2896350526 	-0.0002658573953
0.5176484568 	2.619985109 	0.2661708919 	-0.000176414528
0.542569778 	2.600498872 	0.2431244154 	-0.0001127010215
0.5693462178 	2.579022574 	0.2205404996 	-6.951237288e-05
0.5980874262 	2.555206831 	0.1984182247 	-4.173024115e-05
0.6289040372 	2.52909056 	0.1771018391 	-2.483677862e-05
0.6597287896 	2.501748469 	0.1575615788 	-1.533908921e-05
0.6885070106 	2.474429402 	0.1404133485 	-1.005879987e-05
0.7153735372 	2.447479499 	0.1254334123 	-6.863565754e-06
0.7404577418 	2.420827802 	0.1122209654 	-4.750380936e-06
0.763881608 	2.394412865 	0.1004767596 	-3.266081953e-06
0.7857594625 	2.368142415 	0.0899632972 	-2.187894163e-06
0.8061955834 	2.341917368 	0.08048993509 	-1.398442988e-06
0.8252873287 	2.315662918 	0.07190674594 	-8.429305106e-07
0.8431242394 	2.289308824 	0.06409422277 	-4.888137621e-07
0.8597896056 	2.26274795 	0.05695075869 	-2.801212485e-07
0.8753606451 	2.235816581 	0.05039018219 	-1.50492211e-07
0.8899091601 	2.208269384 	0.0443377534 	-1.384695283e-07
0.9035021065 	2.179781365 	0.0387300568 	-3.235549441e-07
0.9162019423 	2.149966752 	0.0335227283 	-6.731008189e-07
0.9280669907 	2.118295866 	0.02867859684 	-1.112512906e-06
0.939151752 	2.083959165 	0.02416166228 	-1.605552491e-06
0.9495071738 	2.048487605 	0.02021998104 	-2.076082417e-06
0.9563628554 	2.015520371 	0.0171315172 	-2.442651204e-06
0.962432965 	1.983712047 	0.01461568469 	-2.730232965e-06
0.9678072944 	1.949872999 	0.01237310839 	-2.966997513e-06
0.9725654226 	1.913226447 	0.01037169882 	-3.141756419e-06
0.9767778614 	1.872696166 	0.00858570086 	-3.244844503e-06
0.9805070848 	1.82673067 	0.00699335562 	-3.268265457e-06
0.9838084378 	1.77299857 	0.005576528158 	-3.195694385e-06
0.9867309446 	1.707708072 	0.004324107408 	-3.011070806e-06
0.9893180269 	1.62373791 	0.003222516836 	-2.711012332e-06
0.9916081409 	1.515934886 	0.002317791838 	-2.296745336e-06
0.9930959046 	1.385971955 	0.001638494875 	-1.830163806e-06
0.9945837944 	1.202960287 	0.001073330088 	-1.326193316e-06
0.9960718106 	0.908112886 	0.0005185039256 	-7.553228512e-07
0.9975599529 	0.4922497318 	-0.0001540899493 	-3.019921968e-07
0.9990482216 	0.1442934554 	-0.0003054822779 	-8.116263616e-08
0.9990482216 	0.1442934554 	-0.0003054822779 	-8.116263616e-08
