16.6667 0.9790 0.0210 0.7235 0.0008 4.6595 0.4954 0.5720 
16.6667 0.9685 0.0315 0.7612 0.0005 4.8236 0.6561 0.7000 
16.6667 0.9580 0.0420 0.7898 -0.0003 5.0349 0.8207 0.8177 
16.6667 0.9475 0.0525 0.8124 -0.0001 5.2074 0.9701 0.9062 
16.6667 0.9370 0.0630 0.8311 0.0005 5.3644 1.0647 0.9656 
16.6667 0.9265 0.0735 0.8479 0.0013 5.5128 1.1402 1.0249 
16.6667 0.9160 0.0840 0.8634 0.0014 5.6455 1.2153 1.0837 
16.6667 0.9055 0.0945 0.8779 0.0013 5.7527 1.3157 1.1484 
16.6667 0.8950 0.1050 0.8921 0.0012 5.8201 1.4165 1.2039 
16.6667 0.8845 0.1155 0.9065 0.0008 5.8601 1.4600 1.2301 
16.6667 0.8740 0.1260 0.9213 0.0004 5.9004 1.4785 1.2391 
16.6667 0.8635 0.1365 0.9357 0.0013 5.9465 1.4803 1.2406 
16.6667 0.8530 0.1470 0.9493 0.0035 5.9889 1.4550 1.2447 
16.6667 0.8425 0.1575 0.9623 0.0052 6.0281 1.4264 1.2517 
16.6667 0.8320 0.1680 0.9751 0.0052 6.0487 1.4096 1.2462 
16.6667 0.8215 0.1785 0.9879 0.0036 6.0308 1.3993 1.2275 
16.6667 0.8110 0.1890 1.0002 0.0016 5.9840 1.3818 1.2025 
16.6667 0.8005 0.1995 1.0116 0.0004 5.9183 1.3507 1.1686 
16.6667 0.7900 0.2100 1.0223 0.0005 5.8380 1.3138 1.1293 
16.6667 0.7795 0.2205 1.0334 0.0015 5.7556 1.2938 1.0993 
16.6667 0.7690 0.2310 1.0450 0.0020 5.6670 1.2920 1.0756 
16.6667 0.7585 0.2415 1.0561 0.0012 5.5516 1.2730 1.0363 
16.6667 0.7480 0.2520 1.0663 0.0007 5.4093 1.2302 0.9820 
16.6667 0.7375 0.2625 1.0760 0.0007 5.2515 1.1888 0.9297 
16.6667 0.7270 0.2730 1.0856 0.0004 5.0810 1.1522 0.8802 
16.6667 0.7165 0.2835 1.0957 0.0013 4.8973 1.1227 0.8408 
16.6667 0.7060 0.2940 1.1053 0.0039 4.6952 1.0930 0.8090 
16.6667 0.6955 0.3045 1.1135 0.0053 4.5076 1.0580 0.7703 
16.6667 0.6850 0.3150 1.1205 0.0044 4.3216 0.9994 0.7134 
16.6667 0.6745 0.3255 1.1273 0.0022 4.1000 0.9479 0.6509 
16.6667 0.6640 0.3360 1.1339 0.0009 3.8816 0.9148 0.5932 
16.6667 0.6535 0.3465 1.1402 0.0006 3.6732 0.8823 0.5342 
16.6667 0.6430 0.3570 1.1462 0.0008 3.4677 0.8521 0.4822 
16.6667 0.6325 0.3675 1.1521 0.0014 3.2758 0.8265 0.4381 
16.6667 0.6220 0.3780 1.1580 0.0015 3.0933 0.8049 0.3963 
16.6667 0.6115 0.3885 1.1637 0.0006 2.9152 0.7847 0.3594 
16.6667 0.6010 0.3990 1.1690 -0.0011 2.7450 0.7637 0.3245 
16.6667 0.5906 0.4094 1.1737 -0.0026 2.5817 0.7417 0.2866 
16.6667 0.5801 0.4199 1.1778 -0.0022 2.4277 0.7181 0.2477 
16.6667 0.5696 0.4304 1.1813 -0.0004 2.2856 0.6921 0.2091 
16.6667 0.5591 0.4409 1.1838 0.0012 2.1538 0.6646 0.1720 
16.6667 0.5486 0.4514 1.1853 0.0017 2.0354 0.6431 0.1359 
16.6667 0.5381 0.4619 1.1862 0.0011 1.9390 0.6309 0.0990 
16.6667 0.5276 0.4724 1.1868 0.0003 1.8647 0.6218 0.0620 
16.6667 0.5171 0.4829 1.1871 0.0005 1.8000 0.6137 0.0254 
16.6667 0.5066 0.4934 1.1872 0.0019 1.7469 0.6106 -0.0146 
16.6667 0.4961 0.5039 1.1871 0.0027 1.7171 0.6133 -0.0576 
16.6667 0.4856 0.5144 1.1865 0.0010 1.7151 0.6151 -0.1020 
16.6667 0.4751 0.5249 1.1853 -0.0020 1.7368 0.6204 -0.1484 
16.6667 0.4646 0.5354 1.1832 -0.0041 1.7766 0.6362 -0.1976 
16.6667 0.4541 0.5459 1.1798 -0.0045 1.8336 0.6533 -0.2502 
16.6667 0.4436 0.5564 1.1752 -0.0032 1.9103 0.6687 -0.3020 
16.6667 0.4331 0.5669 1.1692 -0.0006 2.0114 0.6873 -0.3523 
16.6667 0.4226 0.5774 1.1620 0.0009 2.1322 0.7096 -0.4051 
16.6667 0.4121 0.5879 1.1540 0.0002 2.2622 0.7337 -0.4593 
16.6667 0.4016 0.5984 1.1458 -0.0007 2.3951 0.7604 -0.5144 
16.6667 0.3911 0.6089 1.1374 -0.0014 2.5382 0.7856 -0.5728 
16.6667 0.3806 0.6194 1.1285 -0.0020 2.6961 0.8061 -0.6282 
16.6667 0.3701 0.6299 1.1192 -0.0011 2.8600 0.8327 -0.6778 
16.6667 0.3596 0.6404 1.1094 -0.0006 3.0288 0.8722 -0.7308 
16.6667 0.3491 0.6509 1.0987 -0.0024 3.1970 0.9138 -0.7851 
16.6667 0.3386 0.6614 1.0870 -0.0048 3.3509 0.9551 -0.8333 
16.6667 0.3281 0.6719 1.0746 -0.0057 3.5012 0.9990 -0.8740 
16.6667 0.3176 0.6824 1.0618 -0.0048 3.6559 1.0346 -0.9119 
16.6667 0.3071 0.6929 1.0492 -0.0037 3.8081 1.0771 -0.9576 
16.6667 0.2966 0.7034 1.0371 -0.0036 3.9232 1.1239 -0.9973 
16.6667 0.2861 0.7139 1.0249 -0.0040 4.0084 1.1607 -1.0278 
16.6667 0.2756 0.7244 1.0121 -0.0037 4.0821 1.1754 -1.0415 
16.6667 0.2651 0.7349 0.9991 -0.0020 4.1325 1.1818 -1.0436 
16.6667 0.2546 0.7454 0.9862 -0.0003 4.1686 1.1970 -1.0523 
16.6667 0.2441 0.7559 0.9735 -0.0002 4.2027 1.2201 -1.0686 
16.6667 0.2336 0.7664 0.9603 -0.0016 4.2282 1.2369 -1.0793 
16.6667 0.2231 0.7769 0.9463 -0.0029 4.2513 1.2420 -1.0843 
16.6667 0.2126 0.7874 0.9322 -0.0032 4.2568 1.2398 -1.0803 
16.6667 0.2021 0.7979 0.9184 -0.0029 4.2296 1.2403 -1.0678 
16.6667 0.1916 0.8084 0.9051 -0.0031 4.1872 1.2424 -1.0519 
16.6667 0.1811 0.8189 0.8921 -0.0040 4.1331 1.2363 -1.0281 
16.6667 0.1706 0.8294 0.8794 -0.0046 4.0544 1.2271 -0.9979 
16.6667 0.1601 0.8399 0.8672 -0.0043 3.9452 1.2149 -0.9620 
16.6667 0.1496 0.8504 0.8554 -0.0035 3.8081 1.1992 -0.9208 
16.6667 0.1391 0.8609 0.8438 -0.0022 3.6657 1.1930 -0.8753 
16.6667 0.1286 0.8714 0.8324 -0.0005 3.5456 1.1906 -0.8250 
16.6667 0.1181 0.8819 0.8210 0.0003 3.4384 1.1853 -0.7754 
16.6667 0.1076 0.8924 0.8098 -0.0001 3.3230 1.1762 -0.7242 
16.6667 0.0971 0.9029 0.7994 -0.0011 3.2050 1.1562 -0.6662 
16.6667 0.0866 0.9134 0.7901 -0.0021 3.0761 1.1322 -0.5999 
16.6667 0.0761 0.9239 0.7811 -0.0028 2.9229 1.1060 -0.5292 
16.6667 0.0656 0.9344 0.7726 -0.0032 2.7630 1.0822 -0.4585 
16.6667 0.0551 0.9449 0.7652 -0.0030 2.6203 1.0652 -0.3877 
16.6667 0.0446 0.9554 0.7592 -0.0022 2.5112 1.0570 -0.3170 
16.6667 0.0341 0.9659 0.7544 -0.0010 2.4188 1.0502 -0.2431 
16.6667 0.0236 0.9764 0.7507 0.0001 2.3414 1.0500 -0.1683 
