/*--------------------------------*- C++ -*----------------------------------*\
  =========                 |
  \\      /  F ield         | OpenFOAM: The Open Source CFD Toolbox
   \\    /   O peration     | Website:  https://openfoam.org
    \\  /    A nd           | Version:  7
     \\/     M anipulation  |
\*---------------------------------------------------------------------------*/
FoamFile
{
    version     2.0;
    format      ascii;
    class       volScalarField;
    location    "2000";
    object      omega;
}
// * * * * * * * * * * * * * * * * * * * * * * * * * * * * * * * * * * * * * //

dimensions      [0 0 -1 0 0 0 0];

internalField   nonuniform List<scalar> 
15296
(
0.8560018
0.85290818
0.8498687
0.84687658
0.84392504
0.84101201
0.83813635
0.83529713
0.83249351
0.82972463
0.82698962
0.82428766
0.82161794
0.81897967
0.8163721
0.81379457
0.81124584
0.80872561
0.8062331
0.80376745
0.80132898
0.79890862
0.79656988
0.79386298
0.79187617
0.79521304
0.83569157
0.99249038
0.71068081
2.2324279
5.9112416
11.071601
14.217116
9.0777705
3.0906219
0.0081438685
34.037889
2.3320343
0.85602713
0.85293055
0.84989175
0.84689984
0.84394868
0.84103615
0.83816105
0.83532244
0.83251947
0.82975125
0.82701691
0.8243156
0.82164651
0.81900886
0.81640189
0.81382493
0.81127675
0.80875705
0.80626504
0.80379985
0.80136216
0.79894001
0.79661606
0.79384004
0.79185145
0.79542079
0.83853356
1.0062256
0.70105593
2.1379121
5.7404684
10.829398
14.209227
9.5260062
3.3363458
0.023567394
35.45374
0.60589042
0.85607988
0.85297869
0.84993943
0.84694673
0.84399522
0.84108266
0.83820772
0.83536942
0.83256686
0.82979913
0.82706532
0.82436456
0.82169601
0.81905887
0.81645238
0.81387588
0.81132812
0.8088088
0.80631717
0.80385219
0.80141569
0.79898794
0.79670007
0.79375792
0.79177207
0.79591446
0.84547465
1.0356443
0.68919977
1.9589536
5.3967033
10.287211
14.069983
10.452752
3.8981972
0.03880844
37.375422
0.035550313
0.85615707
0.85305193
0.85001061
0.8470159
0.84406312
0.84114979
0.83827443
0.83543597
0.83263346
0.82986593
0.82713243
0.82443202
0.82176383
0.81912704
0.81652087
0.81394466
0.81139715
0.80887805
0.80638662
0.80392153
0.80148695
0.79904792
0.79682461
0.79360991
0.79159627
0.79631109
0.85534317
1.0762264
0.6782281
1.7219906
4.9230943
9.4883987
13.622912
11.621364
4.8298751
0.052636617
38.026085
9.4457355
0.85625778
0.85315035
0.85010495
0.84710672
0.84415145
0.84123636
0.83835975
0.83552047
0.83271749
0.82994978
0.82721628
0.82451599
0.82184799
0.8192114
0.81660541
0.81402934
0.81148197
0.80896292
0.80647158
0.80400595
0.80157481
0.79911509
0.7969991
0.79338371
0.79126
0.79602824
0.86700137
1.1237193
0.66977452
1.443125
4.315626
8.3985366
12.632745
12.772483
6.2920519
0.05793419
32.871989
41.940441
0.85641812
0.85331018
0.85025706
0.84725228
0.844292
0.84137306
0.83849353
0.83565208
0.8328476
0.83007893
0.82734491
0.8246444
0.82197635
0.81933978
0.81673384
0.81415776
0.81161039
0.80909125
0.80659991
0.80413277
0.80170931
0.79920623
0.79729431
0.79301738
0.79059739
0.79392672
0.88188064
1.1848309
0.66258393
1.0915604
3.4867099
6.8718568
10.768821
13.658643
8.9009881
0.077903204
30.325361
168.63265
0.85668503
0.85358027
0.85051546
0.84750064
0.844532
0.84160615
0.83872097
0.83587499
0.83306699
0.8302957
0.8275598
0.82485797
0.82218898
0.8195517
0.81694513
0.81436841
0.81182045
0.80930054
0.8068088
0.80433804
0.80192908
0.7993487
0.79776056
0.792584
0.78970173
0.78866734
0.89798872
1.2499248
0.65245463
0.79508795
2.8391473
5.7603469
9.1793547
13.948955
11.56527
0.44004718
167.13836
52.239813
0.85707801
0.85396734
0.85088974
0.84786205
0.84488145
0.84194508
0.83905084
0.83619718
0.83338282
0.83060641
0.82786651
0.82516161
0.82249023
0.81985102
0.81724279
0.81466451
0.81211511
0.80959352
0.80710092
0.80462324
0.8022388
0.79954063
0.79838344
0.79220737
0.78885698
0.7790215
0.91098326
1.3017461
0.63455581
0.58466892
2.4266438
5.1279813
8.331517
14.570305
10.887899
1.760696
580.20962
168.3514
0.85764466
0.85450713
0.85141748
0.84837361
0.84537643
0.84242465
0.83951653
0.83665058
0.83382554
0.83104013
0.82829284
0.825582
0.82290588
0.82026281
0.81765132
0.81507008
0.81251802
0.80999342
0.80749969
0.80500957
0.80266521
0.7997989
0.79916626
0.79200063
0.78854252
0.76363462
0.9172913
1.3310739
0.60535435
0.44041208
2.2065926
4.892769
8.3989051
16.415199
5.2304257
11.796525
3328.5245
964.68621
0.85840965
0.85525543
0.85214876
0.84908414
0.84606504
0.84309189
0.84016371
0.83727929
0.8344376
0.83163756
0.8288778
0.82615663
0.8234721
0.82082219
0.81820501
0.81561882
0.81306251
0.81053305
0.80803836
0.80552726
0.80324362
0.80016305
0.80007935
0.79206896
0.78962756
0.74237189
0.91268114
1.3316724
0.56995342
0.33996285
2.1697614
5.130385
10.095959
19.383324
0.49097179
96.504541
23072.341
2658.673
0.85943005
0.85627838
0.85314769
0.85005702
0.8470101
0.84400874
0.84105302
0.83814234
0.83527608
0.83245363
0.82967407
0.82693596
0.82423733
0.82157589
0.81894924
0.81635504
0.81379218
0.81125509
0.80876038
0.80621634
0.80401347
0.80070863
0.80105909
0.79238613
0.79326261
0.71769147
0.89366121
1.3001218
0.54224102
0.26207927
2.3696583
6.3992486
16.066522
23.374554
0.11306316
890.73081
181981.71
7673.7208
0.86083334
0.85764822
0.85449343
0.85137209
0.84829069
0.84525326
0.84226117
0.8393146
0.83641357
0.83355821
0.83074843
0.82798349
0.82526186
0.82258122
0.81993877
0.81733147
0.81475789
0.81220892
0.80971574
0.80712442
0.80500698
0.80155117
0.80205293
0.79262843
0.80033916
0.69528586
0.85984915
1.2338423
0.5367378
0.20127199
3.0421875
11.533004
31.92739
18.72773
0.10500518
12509.856
1598620.3
24612.411
0.8626974
0.85947804
0.856291
0.85313149
0.85000798
0.84692583
0.84388741
0.84089373
0.83794561
0.83504406
0.83219016
0.8293845
0.82662664
0.82391488
0.82124642
0.81861754
0.81602647
0.81345866
0.81096844
0.80831753
0.80625078
0.80283944
0.80315214
0.79208522
0.81064329
0.68284175
0.81796135
1.1274107
0.58948073
0.11369167
6.3611329
27.330262
53.568238
1.9523026
464.86215
41663.308
15693841
886920.48
0.86513931
0.86191084
0.85867595
0.85546767
0.85229363
0.84915769
0.84606249
0.84300976
0.84000096
0.83703799
0.83412319
0.83125894
0.82844679
0.8256867
0.8229768
0.82031311
0.81769454
0.81509671
0.81260877
0.80989724
0.80778019
0.80471335
0.80477508
0.78982177
0.82205235
0.68674607
0.78552284
0.96997643
0.77726819
0.024569674
18.228307
56.20897
72.214657
17.823518
2323.943
310442.35
1.7465545e+08
2.1536121e+09
0.86843241
0.86510799
0.86181484
0.85854964
0.85531549
0.85211555
0.84895242
0.84582814
0.84274453
0.83970386
0.83670943
0.83376544
0.83087611
0.82804435
0.82527076
0.82255214
0.81989042
0.81724484
0.81475238
0.81200233
0.80965959
0.80719487
0.80775858
0.78531932
0.830426
0.70750235
0.79042715
0.74870855
1.1732772
0.59493379
69.915264
124.70432
65.471516
97.535905
11380.952
1753703.6
1.8320653e+09
9.5533492e+09
0.87351738
0.87008971
0.86670532
0.86335379
0.86003206
0.85674069
0.85348141
0.85025605
0.84706629
0.84391416
0.84080301
0.83773834
0.83472742
0.83177771
0.82889479
0.82607821
0.82333809
0.82060577
0.81808649
0.81533755
0.81251569
0.81068493
0.81394315
0.7782831
0.83315904
0.74309365
0.86945027
0.48259631
0.44466506
4.1429762
389.36179
322.81197
148.10454
1.6001411
4820.016
356062.61
1.9752343e+08
3.8023957e+09
0.88101861
0.87749346
0.8739916
0.87051708
0.86707088
0.86365328
0.86026492
0.85690681
0.85357995
0.85028546
0.84702576
0.84380609
0.84063539
0.83752518
0.834487
0.83152453
0.82866319
0.82579116
0.8232264
0.82044229
0.81706924
0.81558428
0.82372019
0.76759379
0.83766249
0.79456146
1.1069797
0.21082411
2.9935409
49.356983
4041.2383
896.56051
114.68027
1.4220374
549.02222
43895.561
18840440
6.8353749e+08
0.89056296
0.88688632
0.88323228
0.87960457
0.87600482
0.87243335
0.86889031
0.86537604
0.86189092
0.85843507
0.85500938
0.85161744
0.84826757
0.84497309
0.84175023
0.8386066
0.83559042
0.83252231
0.82993353
0.82694077
0.82316891
0.8223585
0.83313207
0.75416281
0.82770474
1.0380771
1.6884418
0.33774748
36.889341
1568.8516
21527.918
1146410.3
18220.604
255.64265
407.83874
28836.832
1802301.7
58237952
0.90250893
0.89862117
0.89476817
0.89094715
0.88715665
0.88339587
0.87966438
0.87596213
0.87228911
0.86864485
0.86502878
0.86144211
0.85789058
0.85438653
0.85094824
0.84758541
0.84437951
0.84103008
0.83852004
0.83490895
0.83087369
0.83414
0.83217481
0.7390039
0.67270694
2.3455722
3.5120703
0.7707714
236.92191
15138.912
1028873.3
2871508.2
303897.94
4768.322
2.220446e-16
4923.4423
155831.26
5290140.7
0.91719432
0.91306894
0.90897705
0.9049188
0.90089369
0.89690101
0.89294005
0.88901047
0.88511205
0.88124414
0.87740535
0.87359473
0.86981444
0.86607365
0.86238895
0.85876857
0.85534242
0.85158926
0.84937606
0.8444975
0.83965262
0.85802432
0.80056447
0.6927265
0.090723342
10.098426
19.986298
2.8011615
162.15029
456.14892
109308.57
1056213.9
41022.41
714.60122
2.220446e-16
201.18062
11426.674
466170.3
0.93508071
0.93066584
0.92628452
0.92193943
0.91763117
0.91335935
0.90912309
0.90492166
0.90075465
0.89662143
0.89252052
0.88844977
0.88440802
0.8804004
0.87643821
0.87252351
0.86885266
0.86455883
0.86287881
0.8562053
0.84838078
0.90349421
0.72588633
0.28183552
2.555444
0.97446705
113.46286
5905.3803
1721.3359
3767.0513
31151.187
55951.61
2169.4929
30928.42
2.220446e-16
27.959009
1439.1964
38994.041
0.9566784
0.95189616
0.94716023
0.94247065
0.93782547
0.93322279
0.92866075
0.92413799
0.91965371
0.91520734
0.91079774
0.90642268
0.9020789
0.89776817
0.89349445
0.88924939
0.88530162
0.88041205
0.8791472
0.87094499
0.85864246
0.96432937
0.52266696
0.90336071
0.25866638
2.220446e-16
2159.3355
64084.352
92515.015
4288888.4
2.0161347e+08
365143.16
6658031.9
339633.8
10424.388
2.220446e-16
179.75978
2200.6759
0.98246215
0.97725682
0.97211164
0.96702245
0.96198455
0.95699485
0.95205097
0.9471512
0.94229449
0.93748027
0.93270788
0.92797575
0.92327998
0.91862047
0.91399461
0.90938106
0.90509641
0.8997248
0.89824623
0.88847053
0.88251475
0.99915784
0.19243683
2.1930578
0.049768342
200.55132
8821.0833
989174.51
15711.263
703873.32
2.1234225e+09
7.5074933e+08
71701180
1320808.8
34969.841
1745.7317
2.220446e-16
359.62302
1.0129867
1.0073424
1.0017435
0.99619665
0.99070274
0.98526119
0.97987067
0.97452975
0.96923735
0.9639928
0.95879567
0.95364523
0.94853808
0.94347347
0.93844544
0.93342143
0.92871159
0.92304792
0.92043475
0.91242163
0.89758159
1.0365019
0.46559973
0.2351428
2.220446e-16
1046.914
42185.458
8277733.5
588927.07
1228025.9
45651618
13618017
164793.78
181524.46
247903.21
9993.9605
252.79052
2840.5342
1.0492617
1.0430075
1.03683
1.0307257
1.024688
1.0187129
1.0127973
1.0069391
1.0011366
0.99538891
0.98969537
0.98405571
0.97846762
0.97293011
0.96743753
0.96195476
0.95670437
0.95098051
0.94621289
0.94191652
0.92819624
0.9676579
0.91153824
0.10947211
0.0029545719
577.49446
21372.068
638732.87
125786.25
24725.82
124134.18
57619.559
4921.9162
478241.26
16940681
70113.311
24193.385
12330.503
1.0919228
1.0850193
1.07819
1.0714388
1.0647627
1.0581586
1.051624
1.0451564
1.0387541
1.0324157
1.0261401
1.019927
1.0137751
1.0076832
1.0016477
0.99564147
0.98976142
0.98388644
0.97751411
0.9738719
0.96743671
0.93911104
1.0965024
0.53838465
0.015772497
24.135984
823.158
54295.546
39872.455
11110.373
11608.249
4955.5226
3823.7365
87740.373
2.9121277e+08
386565.89
230989.69
6287.9278
1.1422781
1.134535
1.1268959
1.1193591
1.1119165
1.104562
1.097291
1.0901003
1.0829873
1.07595
1.0689869
1.0620971
1.0552799
1.048534
1.0418567
1.0352357
1.028674
1.022299
1.0154161
1.0094769
1.0081035
0.97541854
1.0375833
1.0350906
0.078269698
2.220446e-16
192.04247
3485.2571
3615.5135
1568.659
1221.2509
989.08661
74766.792
2327296.2
2.2419218e+09
2.4118833e+08
2754758.5
89610.408
1.201473
1.1927716
1.184189
1.1757257
1.1673735
1.1591258
1.1509774
1.1429247
1.1349649
1.1270957
1.119315
1.1116213
1.1040139
1.096492
1.0890524
1.0816928
1.0743906
1.0672219
1.0600693
1.0523267
1.049002
1.0356434
1.0127671
1.1871453
0.46326158
0.041016363
11.0157
320.95895
265.83976
241.49343
26.630706
533.15775
31049.803
587384.47
10346841
1343416.6
316176.27
6863.2506
1.2714164
1.2615301
1.2517914
1.2421989
1.2327416
1.2234107
1.2142
1.205105
1.1961226
1.1872499
1.1784843
1.1698238
1.161267
1.1528132
1.14446
1.1362051
1.1280393
1.1199515
1.1120502
1.1038868
1.0960772
1.0934447
1.0627967
1.0990896
1.1580324
0.25618087
0.064428966
0.37871946
11.723924
3.2524591
56.8037
200.60079
40617.578
864303.29
1007565.7
166510.21
1595.9172
1328.5948
1.354539
1.3431692
1.331987
1.3209884
1.3101589
1.2994863
1.2889626
1.2785821
1.2683409
1.2582354
1.2482623
1.2384185
1.2287019
1.2191112
1.2096448
1.2002988
1.1910714
1.1819446
1.1729271
1.1641814
1.1546043
1.1483251
1.1386697
1.111947
1.1799403
1.111008
0.61546588
0.083896681
0.55261555
27.937614
506.58172
16136.997
425441.84
7940591.3
41718.185
38967.874
129975.9
6276.112
1.454124
1.4408731
1.4278646
1.4150902
1.4025304
1.3901691
1.3779955
1.3660025
1.3541853
1.3425391
1.3310596
1.3197427
1.3085848
1.2975838
1.2867377
1.2760434
1.2654959
1.2550939
1.244791
1.2347666
1.224597
1.2145287
1.2075329
1.1933945
1.1723816
1.2462429
1.1430234
0.048764252
11.846603
76.491116
1076.5422
18109.182
96545.188
53747309
1.2572371e+08
223374.04
1338598.2
26948.148
1.5748424
1.5591593
1.5437954
1.5287353
1.5139522
1.499424
1.4851367
1.4710814
1.4572518
1.4436419
1.430246
1.4170581
1.4040734
1.391288
1.3786992
1.3663036
1.3540954
1.3420709
1.3302115
1.318536
1.3071046
1.2955554
1.2847025
1.2763212
1.2500071
1.3871959
0.077029015
4.008942
87.634853
80.752644
5179.6247
114026.63
54742368
1.6412413e+11
2.6039897e+10
3.0283581e+08
13840798
633933.24
1.718442
1.6996537
1.6812864
1.6633143
1.6457016
1.6284189
1.6114482
1.5947792
1.5784041
1.5623153
1.5465049
1.530965
1.5156885
1.5006695
1.4859037
1.4713864
1.4571111
1.4430698
1.4292556
1.4156652
1.4022953
1.3894008
1.3754762
1.3661915
1.3520522
1.3466994
1.3166564
0.42159132
5.6572384
298.84605
6117.2651
128835.99
45691383
3.9001571e+10
9.3310645e+09
2.6015059e+08
14123195
807311.99
1.8805519
1.8579124
1.8358416
1.8142952
1.7932225
1.7725826
1.7523518
1.7325172
1.7130686
1.6939956
1.6752871
1.6569318
1.6389192
1.6212407
1.6038893
1.5868578
1.5701378
1.553719
1.5375942
1.5217632
1.5062249
1.491075
1.4762232
1.4605516
1.4577201
1.3865736
1.6194181
0.83837048
0.62011187
20.236617
424.48599
15791.368
4270322
1.3368648e+09
5.8019914e+08
77553333
3801303.9
693038.83
2.0581112
2.0309264
2.0044878
1.9787273
1.9535782
1.9289871
1.9049251
1.8813779
1.8583333
1.8357778
1.8136962
1.7920725
1.770892
1.7501421
1.7298122
1.7098919
1.6903694
1.6712324
1.6524723
1.6340896
1.6161016
1.5984884
1.5817674
1.5630209
1.5553448
1.5196899
1.531258
1.6033737
0.17849817
7.2733652
153.29236
11896.782
201124.88
48847589
29536787
12127356
2693689.5
4486906.2
2.2540645
2.2213988
2.1897129
2.1589056
2.1288883
2.099591
2.0709794
2.043038
2.0157519
1.9891028
1.9630695
1.9376295
1.9127614
1.888447
1.8646705
1.8414167
1.8186696
1.7964138
1.7746393
1.7533479
1.7325586
1.7122895
1.6927155
1.6732979
1.6551059
1.6453611
1.5778362
1.7210231
0.83877955
0.039326729
320.22549
6445.4629
111560.08
1863843.7
1494436
1609825.4
5927049.2
18481161
2.4719082
2.4325474
2.3944775
2.3575561
2.3216649
2.2867113
2.2526542
2.2194753
2.1871545
2.1556659
2.1249787
2.0950603
2.0658797
2.03741
2.0096281
1.9825121
1.9560401
1.9301926
1.9049578
1.8803387
1.8563559
1.8330514
1.810435
1.7889673
1.7654793
1.7580538
1.6976614
1.7191091
1.9319662
0.19889565
2.220446e-16
942.32747
3395.8113
70011.947
70324.737
129459.52
795867.81
94711356
2.7153124
2.6677405
2.6219111
2.5776037
2.534644
2.492903
2.4523299
2.4129031
2.3745958
2.3373717
2.3011873
2.2659957
2.2317531
2.1984211
2.1659662
2.1343575
2.1035658
2.073566
2.0443442
2.0159042
1.9882699
1.9614857
1.9355861
1.9107434
1.8862322
1.8648516
1.8447019
1.7696473
2.063772
0.81234863
0.19040772
20.051833
443.83376
2177.2318
2866.4798
8576.277
44694.004
7642408.5
2.9878559
2.9308374
2.8758765
2.8227577
2.7713032
2.7213817
2.6729573
2.6260173
2.5805328
2.5364567
2.4937286
2.4522833
2.4120589
2.373001
2.3350621
2.298199
2.2623721
2.2275492
2.1937131
2.160868
2.1290413
2.098279
2.0686311
2.0401339
2.0129297
1.9856012
1.9675235
1.9183837
1.9363442
2.0216522
1.0883583
2.9911677
63.759926
239.15488
283.31529
2318.9174
31745.211
575219.33
3.3003842
3.2302487
3.1631338
3.0986406
3.0364378
2.9763064
2.9181826
2.862037
2.8078197
2.7554577
2.7048605
2.6559325
2.6085842
2.5627373
2.5183234
2.4752815
2.4335571
2.3931077
2.3539107
2.3159697
2.2793145
2.2439928
2.2100545
2.1775316
2.1464367
2.1166983
2.0879682
2.0675255
1.9931025
2.1728143
1.6667556
0.92384193
0.72321166
33.792811
12.418783
381.83134
1189.6119
34584.833
3.6531904
3.5686919
3.4875696
3.4095406
3.3343111
3.2617004
3.191696
3.124291
3.0594294
2.9970123
2.9369116
2.878991
2.8231227
2.7691942
2.7171079
2.6667769
2.618126
2.5710975
2.5256598
2.4818137
2.4395893
2.3990345
2.3601953
2.3230946
2.2877122
2.2540961
2.2214932
2.1933266
2.1575537
2.1263453
2.1568413
2.1639765
0.78876614
0.35185409
1.8898089
58.571522
86.203888
1494.2325
4.0667444
3.961099
3.8604009
3.764175
3.6718968
3.5832717
3.4982504
3.4167857
3.3387672
3.2640298
3.1923731
3.1235915
3.0574953
2.9939197
2.9327223
2.8737788
2.8169834
2.7622561
2.7095511
2.6588622
2.6102165
2.5636587
2.5192274
2.4769306
2.436737
2.3985871
2.3622765
2.327919
2.2959624
2.2553676
2.2530408
2.2696921
1.8070454
2.021002
0.63309646
0.40595445
7.1874841
146.47568
4.5434651
4.4120447
4.287094
4.1681655
4.0545836
3.9459905
3.8423247
3.743497
3.6493252
3.5595507
3.4738708
3.3919822
3.313609
3.2385129
3.1664903
3.0973652
3.0309904
2.9672547
2.9060916
2.8474821
2.7914458
2.7380196
2.6872296
2.6390641
2.5934671
2.5503321
2.5094969
2.4708015
2.4342562
2.3983047
2.3649718
2.3554035
2.2143108
2.3721069
2.0364606
0.56629139
2.2894535
30.032161
5.099671
4.9350846
4.7791947
4.6314862
4.4910024
4.3573162
4.2303476
4.1099415
3.995813
3.8875718
3.784772
3.6869749
3.5937861
3.5048668
3.4199299
3.3387299
3.2610636
3.1867773
3.1157737
3.0480127
2.9834977
2.9222496
2.8642743
2.8095324
2.7579318
2.7093227
2.6635036
2.6202885
2.5794186
2.5405787
2.5031962
2.4717397
2.421209
2.4068124
2.3949212
2.4270593
0.95753686
5.3745347
5.7584389
5.551322
5.3553428
5.170229
4.9948354
4.8287484
4.6719038
4.5240631
4.3847808
4.2534625
4.129445
4.0120896
3.9008282
3.7951776
3.6947312
3.599145
3.508135
3.4214848
3.3390516
3.2607587
3.1865757
3.1164925
3.0504801
2.9884396
2.9302185
2.8756098
2.8243727
2.7762493
2.7308896
2.6879419
2.6472373
2.608389
2.5702074
2.5323319
2.5097627
2.5084803
2.3522911
1.3740577
6.5633915
6.2960531
6.0441423
5.8075815
5.5848314
5.3754151
5.1791652
4.9956098
4.8239896
4.6633527
4.5126826
4.3710245
4.2375406
4.111524
3.9923889
3.8796452
3.7728835
3.6718003
3.5761695
3.4858222
3.400653
3.3206151
3.2456013
3.1753262
3.1096051
3.0482132
2.9909021
2.9373073
2.8871437
2.8400342
2.795627
2.7536537
2.7136363
2.6752725
2.6425393
2.6022003
2.6296011
2.336291
7.5641579
7.2107006
6.8793669
6.5706492
6.2824939
6.0142264
5.7653208
5.5347778
5.3212346
5.1231178
4.9388241
4.766893
4.606063
4.4552834
4.3136957
4.1805362
4.0551808
3.9372489
3.826271
3.7218682
3.6239452
3.5324904
3.4472772
3.3680938
3.2946744
3.2266805
3.1637249
3.1054339
3.0514903
3.00142
2.9547284
2.9111593
2.8701263
2.831577
2.7980194
2.7551002
2.7445175
2.6856917
8.8337427
8.3512645
7.904194
7.4926996
7.1132671
6.7644258
6.4447038
6.1520369
5.8839689
5.6378696
5.4111671
5.2016197
5.0071995
4.8262852
4.6575498
4.4995738
4.3517269
4.2137215
4.0850022
3.9653199
3.854448
3.7520972
3.6579195
3.5716216
3.4926747
3.4204923
3.3544902
3.294128
3.2388809
3.1881754
3.1414293
3.0982638
3.0582023
3.0209314
2.9874378
2.9517743
2.9265276
2.8793275
10.464806
9.7947507
9.1799001
8.6206371
8.1118079
7.6508011
7.2344216
6.8586616
6.5190923
6.211277
5.9307845
5.6740768
5.437404
5.2186117
5.0162036
4.8293133
4.6572203
4.4991582
4.354567
4.222877
4.1032395
3.9947585
3.8965528
3.8077686
3.7275984
3.655271
3.5900595
3.5313043
3.4783605
3.4305096
3.3870187
3.3473698
3.3109905
3.2775545
3.2470732
3.216613
3.1937909
3.1387968
12.324822
11.409593
10.575667
9.8259854
9.1539779
8.5548338
8.0222854
7.5492343
7.127772
6.7505444
6.4094815
6.0998977
5.8183046
5.5627315
5.3314446
5.1232243
4.9361715
4.7683753
4.6180882
4.4836818
4.3636346
4.2565413
4.1611134
4.07618
4.0006862
3.9336681
3.874245
3.8216268
3.7750331
3.7335915
3.6964165
3.6628868
3.6323232
3.604458
3.5789176
3.5530313
3.5348486
3.4777491
14.227902
13.008982
11.917587
10.952535
10.101878
9.356078
8.7037783
8.1331735
7.6306542
7.1857845
6.7898091
6.436894
6.123418
5.8454809
5.5992965
5.3815429
5.1892114
5.0194851
4.8697593
4.73768
4.621198
4.5185316
4.4281401
4.3486872
4.2789952
4.217996
4.1647068
4.1182312
4.0776797
4.0420763
4.0104344
3.9820812
3.9563068
3.9328845
3.9112532
3.8887916
3.8740451
3.8171694
16.493429
14.86633
13.42636
12.174254
11.092333
10.163404
9.3674926
8.6846867
8.0969789
7.5887479
7.1490499
6.7678001
6.4367977
6.149377
5.8998449
5.6831221
5.4946503
5.3304174
5.1870086
5.0616126
4.9519479
4.8561482
4.7726565
4.7000849
4.6371956
4.5828361
4.5359211
4.4954506
4.4604325
4.4297788
4.4023872
4.3775957
4.3547001
4.3335762
4.3134333
4.2918392
4.2777904
4.2164774
19.236907
17.013218
15.086931
13.445821
12.065175
10.915417
9.9665819
9.1828635
8.533045
7.9900628
7.5331624
7.1471438
6.8203644
6.5432141
6.3073787
6.1056831
5.9321386
5.7819624
5.6514898
5.5379787
5.4393329
5.3538319
5.2799589
5.2163409
5.161646
5.1146203
5.0740729
5.0389243
5.008107
4.9804064
4.9545603
4.9300008
4.9060556
4.8828442
4.8591668
4.8328765
4.8137484
4.7354802
22.509631
19.456559
16.821038
14.640655
12.897735
11.541025
10.491066
9.6707926
9.0187782
8.4927917
8.0644755
7.713758
7.4251819
7.1860783
6.9859439
6.81643
6.6712895
6.5460733
6.4376821
6.3439019
6.2629805
6.1933301
6.1333776
6.0816333
6.0366694
5.9971542
5.9618594
5.9297347
5.8997206
5.8704548
5.840419
5.8092874
5.776453
5.7425488
5.7054903
5.6636771
5.6279852
5.5083715
26.535002
22.081006
18.343956
15.499017
13.473091
12.063293
11.068058
10.342196
9.7954783
9.3746173
9.0464861
8.787915
8.5812667
8.4129673
8.2729555
8.154332
8.0526747
7.9651496
7.8897566
7.8248483
7.7688279
7.7200281
7.676744
7.6373689
7.6005268
7.565049
7.5299365
7.4944221
7.4575905
7.4178611
7.3732658
7.3239379
7.2693234
7.2110181
7.1449147
7.0707721
6.9994867
6.799856
31.316873
24.310569
19.053971
15.777269
13.896217
12.820069
12.173191
11.754076
11.465009
11.258574
11.107301
10.991623
10.897539
10.816463
10.744181
10.679312
10.621619
10.570773
10.525909
10.485715
10.448622
10.412968
10.377207
10.339919
10.300153
10.257396
10.211236
10.161379
10.107004
10.046047
9.9757807
9.8969888
9.8090033
9.7149517
9.6064167
9.4866345
9.3607418
9.0432936
36.256333
24.636896
18.262123
15.740384
15.046203
14.977831
15.052075
15.125339
15.176459
15.209834
15.225363
15.219215
15.190939
15.145488
15.090394
15.032603
14.976541
14.923772
14.87383
14.82537
14.77689
14.726922
14.67418
14.617362
14.556478
14.491785
14.423251
14.350669
14.272792
14.186633
14.08865
13.980626
13.861603
13.736887
13.590101
13.432904
13.249761
12.811219
38.383309
20.814477
16.346102
17.610189
19.756514
21.208743
21.970627
22.333743
22.507312
22.584725
22.593919
22.545502
22.454227
22.33907
22.216588
22.097385
21.986055
21.88292
21.78622
21.693851
21.604095
21.514964
21.424346
21.3315
21.237713
21.143155
21.047408
20.949739
20.847846
20.737601
20.615483
20.485452
20.346127
20.205721
20.034503
19.863126
19.625101
19.103992
30.980764
12.100524
18.571477
28.207771
33.636032
35.615581
36.142652
36.216678
36.172657
36.079605
35.937192
35.749372
35.534782
35.315031
35.104695
34.909902
34.731094
34.565953
34.411353
34.264686
34.124257
33.985736
33.845745
33.707547
33.572177
33.438861
33.306551
33.173962
33.037557
32.892209
32.735794
32.57642
32.410933
32.250792
32.045987
31.864896
31.538032
31.008444
11.432177
9.2359918
37.691934
55.550842
61.309903
62.291301
62.23726
62.038021
61.864209
61.718252
61.559692
61.367184
61.146855
60.915674
60.68646
60.463763
60.24852
60.040582
59.838494
59.640813
59.447467
59.249142
59.040365
58.833112
58.629903
58.429311
58.229944
58.03029
57.82647
57.613597
57.390377
57.168747
56.941032
56.720823
56.437628
56.210791
55.733439
55.306401
4.0356427
27.884591
84.644056
105.55931
111.01214
111.77755
111.73683
111.55449
111.45294
111.46242
111.48293
111.43749
111.31064
111.12322
110.89961
110.65128
110.38688
110.11398
109.83497
109.55042
109.2638
108.95706
108.61781
108.27969
107.94577
107.61426
107.28373
106.95289
106.61828
106.2755
105.92239
105.57348
105.21686
104.86797
104.44628
104.1067
103.44974
103.07348
173.33899
106.77042
211.60317
252.85816
264.64002
267.59377
268.70635
268.96772
269.37067
270.13167
270.92696
271.48598
271.7348
271.72874
271.55002
271.2403
270.83837
270.37874
269.87519
269.33314
268.76752
268.13631
267.38928
266.64219
265.89957
265.15948
264.42056
263.68204
262.94102
262.19283
261.43279
260.67779
259.91287
259.15493
258.3221
257.5843
256.50384
255.82556
714.81096
3516.2219
829.71082
1045.7322
1084.6595
1098.8582
1105.9739
1108.2112
1110.9695
1115.3812
1119.9876
1123.5429
1125.6697
1126.5896
1126.6829
1126.1302
1125.1203
1123.8224
1122.3027
1120.5843
1118.7393
1116.6049
1113.9067
1111.2147
1108.5336
1105.8615
1103.1971
1100.5403
1097.8892
1095.2391
1092.5828
1089.9369
1087.2886
1084.6506
1081.9609
1079.3483
1076.4835
1073.772
14990.996
14541.773
14428.302
14389.264
14361.56
14335.499
14310.087
14285.145
14260.234
14235.259
14210.334
14185.562
14160.973
14136.552
14112.267
14088.103
14064.045
14040.079
14016.198
13992.401
13968.682
13945.051
13921.533
13898.08
13874.692
13851.369
13828.11
13804.915
13781.784
13758.715
13735.708
13712.765
13689.883
13667.065
13644.302
13621.61
13598.95
13576.244
14773.747
16018.025
17974.965
19519.667
20914.531
22165.185
23288.376
24297.99
25202.11
26006.266
26713.029
27700.5
69937.768
30768.703
28710.077
28873.505
29036.537
29122.16
29128.987
31612.077
880874.8
116674.24
30854.441
27806.573
27759.395
27358.368
1334.9824
11253.66
1311.2204
879.15148
1701.2465
2030.5144
2254.7461
2439.1076
2601.3297
2759.6738
2686.5119
18829.592
6230159.3
304131.95
14484.702
3800.438
3291.5562
3276.2956
3184.036
42375.666
1.4037288e+08
13785647
299201.38
7405.7991
945.61813
3006.2069
2733.884
157967.2
7986.6184
227.40991
123.16178
540.6489
611.43248
653.62855
692.24439
952.49525
1747.4584
395503.56
1.4501142e+08
6935504.3
275494.78
14918.213
1279.3153
787.97097
1418.0758
362214.85
3.2284793e+09
3.1795718e+08
6850446.8
32518.088
2193.8523
1069.9918
10539.22
1023203.5
52686.326
8717.6007
691.18072
357.19021
235.67315
240.29354
234.37717
1317.8402
10721.339
3844294.7
1.3990946e+09
71440537
2988548.8
162523.46
8252.7359
398.93364
7101.7458
3544423.5
3.2990349e+10
3.2560845e+09
69571263
69286.299
8116.8163
2659.1383
38830.859
4814633
410277.28
37297.594
4022.637
448.85392
56.921028
10.829795
146.18892
4330.0906
1240.5355
83733.607
9.0374629e+09
5.4100258e+08
23152372
1259753.3
70798.731
1370.4441
47302.812
21154723
2.4387597e+11
2.43537e+10
4.8623571e+08
995449.39
62125.954
12420.934
115709.4
20146815
3014308.3
394829.31
46437.447
4053.9867
49.82754
28.879537
907.51437
26978.972
5274.467
398636.98
5.7234988e+10
4.1356091e+09
1.9653745e+08
10283356
573498.1
28107.578
392400.03
1.1219915e+08
1.7041358e+12
1.8441007e+11
3.0619651e+09
11564724
821804.5
87520.803
22241.835
847563.34
336456.28
63966.294
12286.147
2280.5986
144.19626
99.799285
3471.3125
259624.66
239896.54
38550340
8.3977457e+09
2.695728e+08
22348652
2371036.7
258078.23
23502.754
1657651
4.2126378e+08
1.2683873e+13
1.3373684e+12
2.3164573e+10
2156671.6
7609675.8
740765.08
2890.1997
25615.703
11774.522
3993.0165
1551.0944
750.14013
230.00183
948.27248
10728.55
2669177.3
259745.26
2052465.1
4.0481793e+08
3760934.4
423296.6
173598.47
43209.841
6712.3128
194906.49
44422882
1.6989187e+12
3.9322906e+11
3.2678503e+09
15461178
67810509
5819555.3
443.84519
4908.1001
1025.8243
736.97051
412.91009
234.75385
80.446718
3829.0771
180288.76
28708463
2448470.6
573875.09
5040860.5
40572.64
108586.87
6803.8369
2037.4973
950.57549
20321.511
4208472.9
1.8211514e+11
7.4237077e+10
1.0411717e+09
8275374.5
6.5540857e+08
48632679
7.3930408
913.87841
246.45418
161.78651
189.02887
102.08138
146.53614
12623.288
2408712.5
3.3381732e+08
27305091
124314.52
1221707.4
42578.135
38798.172
138.2657
436.60717
221.04161
4977.0398
94689438
1.6649522e+10
9.1408622e+09
53128719
39560467
6.6041517e+09
4.8391198e+08
26.23766
2.220446e-16
67.880749
18640.381
489.36888
240.42215
258.97934
4452.3158
206947.06
26419097
234857.88
18742.551
6160.9865
352517.11
56321.364
9552.623
1631.7513
212.40259
52471.406
8425784
1.3507662e+09
2.9113236e+08
145468.66
3429552.7
7.5167389e+10
5.8506028e+09
101.79914
1.0723928
104.27386
98844.321
17184.367
18961.31
2595.1785
937.50638
1350.0816
839456.05
16956.423
7287.7678
17683.453
2821203.4
520742.92
95216.328
17337.874
2948.1124
4423.6824
634644.61
92528356
40023921
600421.36
36257543
5.0512353e+09
78435909
54228.648
75.633237
6803.9284
541686.15
79991.26
242635.39
7676.8127
295.16191
1509.2821
43063.033
3697.357
1881.3341
6396.6834
281396.39
81816.197
21968.96
5361.7276
1214.8459
301.61757
37859.198
5217410.8
793893.53
8526.9003
2201100.1
2.7522098e+08
40091201
440232.42
5733.8781
94470.35
53618946
4026904.6
2927219.8
23072.056
245.004
1078.6478
3993.4646
5547.0441
903.56197
1022.2772
29971.287
13012.623
4067.7939
1227.5189
386.87476
22.105405
157.91058
228843.54
17250.761
10387.293
102408.14
12058132
1667211.3
1097073.7
17252.612
361035.34
1.2429143e+09
1.7427593e+08
35227620
270990.59
29793.757
3588.705
966452.09
26764.861
10346.609
5225.3985
4672.5759
2624.9021
1056.7143
400.79952
172.07335
84.195566
66.284184
3064.1869
3546.7921
1764557.5
43171.02
431107.68
58910.509
1023991.3
37085.798
288251.11
12241552
5064999.9
512634.39
66500.046
165682.41
9875629.1
5873670.1
1437224
69359.741
29016.073
1741.7564
127.1382
105.78735
112.84654
105.40625
50.5734
0.68311055
18539.202
193385.26
10171816
43548704
2155551.9
606301.74
12368501
139775.96
33057.283
1957309.9
26659.659
89922.962
4285.6899
1064987.5
54191640
31918369
7739156.1
245385.16
155605.19
11380.911
1472.2031