0 	0.0009134537635 	-3.731617105e-17 	-2.143094709e-24 	1.52443033e-30 	8.754913708e-38 	5.028010302e-45
0 	0.001030924059 	1.668737392e-05 	-1.588186776e-22 	0.0003528147807 	-3.388131789e-21 	6.725630318e-07
0 	0.001030924059 	1.668737392e-05 	-1.588186776e-22 	0.0003528147807 	-3.388131789e-21 	6.725630318e-07
0.001074327146 	0.001036491068 	2.380761269e-05 	-1.039289752e-06 	0.0005035090877 	-2.197136251e-05 	9.598282642e-07
0.002146986776 	0.0009943035899 	-1.051127852e-05 	4.63685814e-07 	0.0004684237989 	-2.02905234e-05 	8.929459523e-07
0.003217959715 	0.0009727239086 	-1.334309244e-05 	6.199980187e-07 	0.0004725536248 	-1.979211195e-05 	9.008185483e-07
0.004287226928 	0.00100029901 	-1.127541215e-05 	6.351260383e-07 	0.0005204078792 	-2.004759743e-05 	9.920420577e-07
0.005354769522 	0.001096869475 	-9.888409823e-06 	7.365217984e-07 	0.000623567521 	-2.097967029e-05 	1.188693007e-06
0.006420568743 	0.001269699569 	-1.882179096e-05 	1.097115981e-06 	0.0007764760713 	-2.214308824e-05 	1.480179202e-06
0.007484605976 	0.001512367439 	-5.358026459e-05 	1.788689767e-06 	0.0009558952908 	-2.291564727e-05 	1.822202102e-06
0.008546862746 	0.00181067377 	-0.0001305761691 	2.727013759e-06 	0.001127086419 	-2.271833463e-05 	2.148539972e-06
0.009607320712 	0.002149499156 	-0.0002575017905 	3.726446114e-06 	0.001256926584 	-2.128620737e-05 	2.396051414e-06
0.01066596167 	0.002431323443 	-0.0003722829617 	4.004839837e-06 	0.001362748918 	-1.924217121e-05 	2.597778193e-06
0.01172276756 	0.002602092895 	-0.000431019492 	3.518029363e-06 	0.001464599247 	-1.715609371e-05 	2.791933229e-06
0.01277772044 	0.002720694992 	-0.0004654537986 	2.923297931e-06 	0.001545070634 	-1.502090273e-05 	2.945334059e-06
0.01383080251 	0.002807401507 	-0.0004878331932 	2.354625436e-06 	0.001602254003 	-1.290091743e-05 	3.054341453e-06
0.01488199612 	0.002868518098 	-0.0005011679423 	1.844335594e-06 	0.001640781258 	-1.086949742e-05 	3.127785109e-06
0.01593128371 	0.002910157023 	-0.0005085129005 	1.406378174e-06 	0.001665707044 	-8.956291243e-06 	3.175300585e-06
0.0169786479 	0.002937680115 	-0.0005123628463 	1.039739282e-06 	0.001681548253 	-7.164292494e-06 	3.205498333e-06
0.01802407142 	0.002955472637 	-0.0005145205022 	7.363251862e-07 	0.00169185943 	-5.484889507e-06 	3.225154302e-06
0.01906753711 	0.002966783614 	-0.0005161731173 	4.859442771e-07 	0.001699162375 	-3.905115828e-06 	3.239075745e-06
0.02010902796 	0.002973845241 	-0.0005180099566 	2.789090949e-07 	0.001705067902 	-2.412033419e-06 	3.250333321e-06
0.02114852709 	0.002978076905 	-0.0005203625266 	1.0706369e-07 	0.001710481571 	-9.940958167e-07 	3.260653279e-06
0.02190656462 	0.002979979679 	-0.0005226163919 	2.207556339e-07 	0.001714592506 	-5.354784922e-07 	3.268489863e-06
0.02213602389 	0.002970855255 	-0.0005215025077 	6.457057432e-08 	0.001712202631 	-3.473819813e-07 	3.263934097e-06
0.02298658729 	0.002937684511 	-0.0005186947466 	2.800690522e-07 	0.001704853062 	-1.593658954e-06 	3.249923775e-06
0.02383601527 	0.002905117555 	-0.0005169746769 	4.636118629e-07 	0.001698533434 	-2.780235968e-06 	3.237876808e-06
0.02468429274 	0.002873252169 	-0.0005161478345 	6.213956258e-07 	0.001693072722 	-3.914531377e-06 	3.227467173e-06
0.0255314047 	0.002842111851 	-0.0005160497691 	7.58110091e-07 	0.001688312768 	-5.002073978e-06 	3.218393377e-06
0.02637733621 	0.002811690879 	-0.0005165375783 	8.77252368e-07 	0.001684109435 	-6.046932136e-06 	3.210380656e-06
0.02722207243 	0.00278197232 	-0.0005174988574 	9.815511717e-07 	0.001680354526 	-7.052280832e-06 	3.203222758e-06
0.02806559858 	0.002752906036 	-0.000518908792 	1.074848809e-06 	0.001677040385 	-8.02308729e-06 	3.196905084e-06
0.02890789998 	0.002724447344 	-0.0005207269472 	1.161251611e-06 	0.001674147544 	-8.96671365e-06 	3.191390525e-06
0.02974896199 	0.002693499104 	-0.0005213262227 	1.221399255e-06 	0.001668504799 	-9.86821939e-06 	3.180633883e-06
0.03105328552 	0.002655024094 	-0.0005250772591 	1.269742355e-06 	0.001666597439 	-1.088582206e-05 	3.176997926e-06
0.03237895466 	0.002613838569 	-0.0005284954489 	1.067006363e-06 	0.00166257445 	-9.732374438e-06 	3.16932899e-06
0.03372619192 	0.002573049427 	-0.0005327740824 	8.999694925e-07 	0.001659180468 	-8.612839026e-06 	3.162859118e-06
0.03509521438 	0.002532897674 	-0.0005374762725 	7.548276267e-07 	0.001656090306 	-7.521438516e-06 	3.156968409e-06
0.03648623309 	0.002493412594 	-0.0005424256732 	6.248187768e-07 	0.001653181833 	-6.453102753e-06 	3.151424051e-06
0.03789945241 	0.002454617475 	-0.0005475459431 	5.069747173e-07 	0.001650409105 	-5.406334916e-06 	3.146138462e-06
0.03933506942 	0.002416516557 	-0.0005527922097 	3.99200831e-07 	0.00164775181 	-4.380160676e-06 	3.141072919e-06
0.04079327314 	0.002379098463 	-0.0005581452555 	3.001815686e-07 	0.001645210512 	-3.374178651e-06 	3.136228498e-06
0.04227424383 	0.002342368115 	-0.000563569164 	2.083826369e-07 	0.001642773359 	-2.387868681e-06 	3.131582608e-06
0.04377815219 	0.00230634937 	-0.0005690105734 	1.220860553e-07 	0.001640415874 	-1.420449887e-06 	3.127088585e-06
0.04530515853 	0.002271057703 	-0.0005744344126 	4.004107581e-08 	0.001638128852 	-4.714588671e-07 	3.122728887e-06
0.04608381709 	0.002253727505 	-0.0005772044403 	2.646168237e-07 	0.001637146808 	-7.785404999e-07 	3.120856837e-06
0.04669962032 	0.002238026977 	-0.000575635271 	1.371153317e-07 	0.001632222838 	-3.811971346e-07 	3.111470382e-06
0.04795657 	0.002207666367 	-0.0005727403776 	4.063826063e-07 	0.001623043279 	-1.13008908e-06 	3.093971591e-06
0.04923369681 	0.002178511351 	-0.0005700630451 	6.663048018e-07 	0.001614451686 	-1.853264556e-06 	3.077593627e-06
0.05053116635 	0.002150506129 	-0.0005675933384 	9.172510844e-07 	0.001606426445 	-2.551699722e-06 	3.062295288e-06
0.0518491351 	0.002123600208 	-0.0005653216061 	1.159580394e-06 	0.001598942395 	-3.226356143e-06 	3.048028608e-06
0.0531877496 	0.002097754961 	-0.0005632340138 	1.393645859e-06 	0.001591963537 	-3.878125224e-06 	3.034724965e-06
0.05454714558 	0.002072930949 	-0.0005613174587 	1.619781062e-06 	0.001585457463 	-4.507826802e-06 	3.02232258e-06
0.05592744703 	0.002049084794 	-0.0005595615438 	1.838294119e-06 	0.001579398871 	-5.116223749e-06 	3.010773219e-06
0.05732876521 	0.002026175222 	-0.0005579563648 	2.049467888e-06 	0.001573762968 	-5.704035793e-06 	3.000029622e-06
0.05875119761 	0.002004162857 	-0.0005564926826 	1.884529643e-06 	0.001568524921 	-5.244953116e-06 	2.990044448e-06
0.06019482689 	0.001983009726 	-0.0005551618472 	1.656661108e-06 	0.001563659785 	-4.610740748e-06 	2.980770148e-06
0.06165971967 	0.001962677119 	-0.000553954908 	1.435179981e-06 	0.001559144779 	-3.994239318e-06 	2.972163292e-06
0.06314592535 	0.001943122675 	-0.0005528567892 	1.219831838e-06 	0.001554941754 	-3.394721151e-06 	2.964151157e-06
0.06465775049 	0.001924191797 	-0.0005518344578 	1.009714018e-06 	0.001550948457 	-2.809914261e-06 	2.956538822e-06
0.06623409489 	0.00190563897 	-0.0005509580758 	7.997002863e-07 	0.001547356795 	-2.225465602e-06 	2.949692117e-06
0.06783446702 	0.001887707971 	-0.0005501483311 	5.951745137e-07 	0.001543951598 	-1.656360539e-06 	2.943200865e-06
0.06945913953 	0.001870442486 	-0.000549433082 	3.959841903e-07 	0.001540813802 	-1.102088515e-06 	2.937219353e-06
0.07110838511 	0.001853798749 	-0.0005488067541 	2.019330693e-07 	0.00153792897 	-5.620495605e-07 	2.931720062e-06
0.0727824764 	0.00183774712 	-0.0005482606208 	1.281277592e-08 	0.001535275222 	-3.56657567e-08 	2.926661281e-06
0.07289842475 	0.001836681964 	-0.0005482318263 	2.65584915e-08 	0.001535119551 	-7.786084175e-08 	2.926364529e-06
0.07426181252 	0.001822611478 	-0.0005463291113 	1.642307051e-07 	0.001532983815 	-2.72283178e-07 	2.922293223e-06
0.0757472134 	0.001807790998 	-0.0005444402566 	3.340263957e-07 	0.001530965844 	-5.539894427e-07 	2.918446409e-06
0.07725503592 	0.001793232933 	-0.0005426985787 	4.972309538e-07 	0.001529199595 	-8.250086768e-07 	2.915079446e-06
0.07878553239 	0.00177892268 	-0.0005410984109 	6.540204211e-07 	0.00152767356 	-1.085641397e-06 	2.9121704e-06
0.08033895541 	0.00176484845 	-0.0005396347008 	8.045555821e-07 	0.001526378094 	-1.33613352e-06 	2.909700883e-06
0.08191555778 	0.001751001283 	-0.0005383029334 	9.489814466e-07 	0.001525305343 	-1.57667499e-06 	2.907655921e-06
0.08351559245 	0.001737375066 	-0.0005370991505 	9.44034788e-07 	0.001524449234 	-1.5690696e-06 	2.906023939e-06
0.08513931241 	0.001723966494 	-0.0005360199263 	7.799871302e-07 	0.001523805444 	-1.296811329e-06 	2.904796696e-06
0.08678697065 	0.001710775035 	-0.0005350623609 	6.21633671e-07 	0.001523371347 	-1.033737015e-06 	2.903969187e-06
0.08845882009 	0.001697802876 	-0.0005342240593 	4.688625055e-07 	0.001523145946 	-7.79728236e-07 	2.90353951e-06
0.09015511346 	0.00168505484 	-0.0005335031055 	3.215751021e-07 	0.001523129791 	-5.34715457e-07 	2.903508714e-06
0.0918761033 	0.001672538283 	-0.0005328980266 	1.796854161e-07 	0.001523324875 	-2.986756396e-07 	2.903880597e-06
0.09362204182 	0.001660262896 	-0.0005324077602 	4.311920415e-08 	0.00152373453 	-7.162947769e-08 	2.904661515e-06
0.09419342311 	0.001656379568 	-0.0005322871509 	1.037518598e-07 	0.00152396408 	-3.239337337e-07 	2.9050991e-06
0.09531469617 	0.001649333139 	-0.0005307700319 	1.240855617e-07 	0.001523055541 	-1.485833164e-07 	2.903367172e-06
0.09699468175 	0.001639275148 	-0.0005286366838 	3.040296703e-07 	0.001522024482 	-3.602083779e-07 	2.901401688e-06
0.0986997996 	0.001629588646 	-0.0005266116021 	4.796833761e-07 	0.001521280424 	-5.620939042e-07 	2.899983306e-06
0.1004303306 	0.00162027838 	-0.0005246942484 	6.511010064e-07 	0.001520824838 	-7.543055142e-07 	2.899114832e-06
0.1021865562 	0.001611346405 	-0.000522884115 	8.18350918e-07 	0.001520657206 	-9.369829375e-07 	2.89879528e-06
0.1039687584 	0.001602771438 	-0.0005211745841 	9.81499672e-07 	0.001520747742 	-1.110376014e-06 	2.898967866e-06
0.105801143 	0.001594475312 	-0.0005195561865 	1.031644585e-06 	0.001521161272 	-1.152823899e-06 	2.89975617e-06
0.1076898344 	0.00158646593 	-0.0005180269034 	8.505532362e-07 	0.001521915925 	-9.384657805e-07 	2.901194748e-06
0.1096057252 	0.001578836736 	-0.0005165920595 	6.736621391e-07 	0.001522914493 	-7.337448365e-07 	2.903098296e-06
0.1115490892 	0.001571597525 	-0.0005152585205 	5.009458764e-07 	0.001524190638 	-5.386471079e-07 	2.905530982e-06
0.1135202004 	0.001564733012 	-0.0005140195202 	3.322691077e-07 	0.001525729788 	-3.529081273e-07 	2.908465031e-06
0.1155193324 	0.001558205591 	-0.0005128614212 	1.672260046e-07 	0.001527497307 	-1.755605197e-07 	2.911834413e-06
0.1175467585 	0.001551984131 	-0.0005117704555 	5.41764695e-09 	0.001529461492 	-5.624874198e-09 	2.915578695e-06
0.1176158625 	0.001551783064 	-0.0005117357562 	9.230099732e-09 	0.001529536213 	-3.036703049e-08 	2.915721135e-06
0.1195071859 	0.001544272848 	-0.0005107611454 	1.342754057e-07 	0.001531932367 	-8.897604171e-08 	2.92028887e-06
0.1214927075 	0.001536590029 	-0.0005098519221 	2.687856762e-07 	0.001534621372 	-1.735989653e-07 	2.925414861e-06
0.1235069599 	0.001528910481 	-0.0005090557022 	3.991520631e-07 	0.00153753647 	-2.515565601e-07 	2.930971849e-06
0.1255502441 	0.001520910045 	-0.0005081852116 	5.251022419e-07 	0.001539825584 	-3.240594094e-07 	2.935335535e-06
0.1286698652 	0.001510024049 	-0.0005074853987 	7.098290613e-07 	0.00154571294 	-4.259764089e-07 	2.946558473e-06
0.1318034845 	0.001499333411 	-0.0005067867283 	6.080870658e-07 	0.001550923035 	-3.55547569e-07 	2.956490362e-06
0.1349511188 	0.001489101084 	-0.000506245002 	4.182905794e-07 	0.001556262313 	-2.384750508e-07 	2.966668509e-06
0.1381127882 	0.001479249897 	-0.0005058285927 	2.383669036e-07 	0.001561642124 	-1.328040631e-07 	2.976923923e-06
0.1413694387 	0.001469552935 	-0.0005055324929 	6.315782082e-08 	0.001567311022 	-3.443391439e-08 	2.987730419e-06
0.1425900493 	0.001466052652 	-0.0005054547931 	1.302633681e-07 	0.001569474362 	-4.616553018e-07 	2.991854347e-06
0.1445658929 	0.001461795527 	-0.0005039796226 	1.5005097e-07 	0.001571643286 	-7.459642657e-08 	2.99598892e-06
0.1477280931 	0.001455306181 	-0.0005017867197 	3.801039933e-07 	0.001575301169 	-1.846471575e-07 	3.002961859e-06
0.1509048918 	0.001449109296 	-0.0004997633991 	5.993639493e-07 	0.001579121024 	-2.837851735e-07 	3.010243565e-06
0.1540963343 	0.001443216902 	-0.0004979078822 	8.081103214e-07 	0.001583115474 	-3.718767927e-07 	3.017858097e-06
0.15730247 	0.001437631078 	-0.0004962182147 	7.078181764e-07 	0.001587305037 	-3.156267038e-07 	3.025844569e-06
0.1605233532 	0.001432358903 	-0.000494692133 	4.928061242e-07 	0.001591703614 	-2.122792649e-07 	3.034229479e-06
0.1637590427 	0.001427401984 	-0.000493326472 	2.871815316e-07 	0.001596322748 	-1.191147811e-07 	3.043034833e-06
0.1670096021 	0.001422750565 	-0.0004921164405 	9.067042449e-08 	0.001601148405 	-3.608526766e-08 	3.052233877e-06
0.1685683127 	0.001420662989 	-0.0004916015573 	1.314962459e-07 	0.00160361162 	-5.084839113e-07 	3.056929448e-06
0.1702759792 	0.001417956072 	-0.0004907595374 	1.054325708e-07 	0.001606247712 	-1.891699024e-08 	3.061954573e-06
0.1735378181 	0.001413125508 	-0.0004892974662 	2.990239123e-07 	0.001611559497 	-4.832012487e-08 	3.07208031e-06
0.176816035 	0.001408627307 	-0.0004879899772 	4.840607561e-07 	0.001617104754 	-6.947497736e-08 	3.082651112e-06
0.1801107166 	0.001404440659 	-0.0004868272795 	6.60981434e-07 	0.001622895438 	-8.276120655e-08 	3.093689765e-06
0.1834219551 	0.00140055783 	-0.0004858009168 	7.778843746e-07 	0.001628922579 	-8.295491571e-08 	3.105179171e-06
0.1867498487 	0.001396966497 	-0.0004849021744 	5.926023569e-07 	0.00163518168 	-5.204323834e-08 	3.117110757e-06
0.1900945014 	0.001393658591 	-0.0004841227589 	4.146989974e-07 	0.001641666732 	-2.851362258e-08 	3.129473069e-06
0.1934560237 	0.001390627816 	-0.0004834570556 	2.438069291e-07 	0.001648365439 	-1.20781374e-08 	3.142242667e-06
0.1968739022 	0.00138781886 	-0.0004828885176 	7.770910415e-08 	0.001655377176 	-2.332918541e-09 	3.155608985e-06
0.1985304137 	0.001386574415 	-0.0004826528488 	1.093235699e-07 	0.001658889649 	-4.52419474e-07 	3.162304735e-06
0.2002921667 	0.001385661272 	-0.0004820133495 	9.469177198e-08 	0.001662236081 	9.376714637e-10 	3.168683965e-06
0.203671274 	0.001384101789 	-0.0004808925964 	2.699191357e-07 	0.001668910544 	8.135210371e-09 	3.181407346e-06
0.2070684227 	0.001382709136 	-0.0004798820821 	4.384044756e-07 	0.001675857614 	2.213562899e-08 	3.194650392e-06
0.2104837616 	0.001381478412 	-0.0004789738826 	6.004868152e-07 	0.001683071682 	4.261270581e-08 	3.208402411e-06
0.213917447 	0.001380408364 	-0.0004781611686 	7.564855751e-07 	0.001690545508 	6.925508365e-08 	3.222649601e-06
0.2173696432 	0.001379497652 	-0.0004774379568 	6.055057232e-07 	0.001698273427 	6.798018141e-08 	3.237381163e-06
0.2208498461 	0.001378739836 	-0.0004767980349 	4.412885629e-07 	0.001706280159 	5.87746579e-08 	3.25264422e-06
0.2244220358 	0.00137808017 	-0.000476211372 	2.795198837e-07 	0.001714720428 	4.319899963e-08 	3.268733718e-06
0.2280123558 	0.001377586813 	-0.0004757002693 	1.235080416e-07 	0.001723412582 	2.174003315e-08 	3.28530338e-06
0.2309642662 	0.001377298064 	-0.0004753313074 	3.522055669e-08 	0.001730735453 	-1.49008446e-07 	3.299262807e-06
0.231601588 	0.001377288659 	-0.0004751584292 	2.94971578e-08 	0.001732249211 	6.996482311e-09 	3.30214845e-06
0.2351229535 	0.001377345755 	-0.0004742429641 	1.883558618e-07 	0.001740869962 	4.810401555e-08 	3.318581997e-06
0.2386642333 	0.001377525898 	-0.0004733838845 	3.423245984e-07 	0.001749747208 	9.362147994e-08 	3.335504495e-06
0.2422256574 	0.001377829571 	-0.0004725777269 	4.916636259e-07 	0.001758885481 	1.43297156e-07 	3.352924584e-06
0.245844 	0.001378228647 	-0.0004718013282 	6.38148883e-07 	0.001768381748 	1.974542005e-07 	3.371027108e-06
0.2495251984 	0.001378725488 	-0.0004710464678 	6.024862659e-07 	0.001778245804 	1.972451119e-07 	3.389830741e-06
0.2532263804 	0.001379344238 	-0.0004703266173 	4.503398527e-07 	0.001788369532 	1.554319774e-07 	3.409129379e-06
0.2569478097 	0.001380057127 	-0.0004696280004 	3.025941741e-07 	0.001798755098 	1.097341153e-07 	3.428927155e-06
0.2606897621 	0.001380861436 	-0.000468941999 	1.589923516e-07 	0.00180940079 	6.040134958e-08 	3.449220802e-06
0.2644525256 	0.001381764756 	-0.0004682666798 	1.927420559e-08 	0.001820308208 	7.649776216e-09 	3.470013373e-06
0.2649834881 	0.00138190033 	-0.0004681694448 	2.598145926e-08 	0.001821880011 	-9.860980722e-08 	3.473009666e-06
0.2682013626 	0.001382955159 	-0.0004672482567 	1.274527486e-07 	0.001831120465 	4.850840362e-08 	3.490624539e-06
0.2720083861 	0.001384230464 	-0.0004661524118 	2.738678134e-07 	0.001842259225 	1.083155735e-07 	3.511858112e-06
0.2758373145 	0.00138558104 	-0.0004650533337 	4.166585766e-07 	0.001853680754 	1.708078644e-07 	3.533630722e-06
0.2796884853 	0.001386980884 	-0.0004639372935 	5.560625855e-07 	0.001865378272 	2.357151792e-07 	3.555929442e-06
0.28356225 	0.001388425149 	-0.0004627929375 	6.292521009e-07 	0.001877353553 	2.752209204e-07 	3.578757655e-06
0.2874589747 	0.001389928657 	-0.0004616193253 	4.888702238e-07 	0.001889622938 	2.201575897e-07 	3.602146513e-06
0.2914374958 	0.001391443904 	-0.0004603696805 	3.495663646e-07 	0.001902333986 	1.618154437e-07 	3.626377304e-06
0.2954539871 	0.001393005042 	-0.0004590584749 	2.129338536e-07 	0.001915385414 	1.011230868e-07 	3.651256953e-06
0.2994935987 	0.001394610266 	-0.0004576896054 	7.929231266e-08 	0.001928711025 	3.855766197e-08 	3.676659272e-06
0.3019494975 	0.001395590956 	-0.0004568136501 	7.916341779e-08 	0.001936945637 	-2.396742534e-07 	3.69235673e-06
0.3035411544 	0.00139632199 	-0.0004561341908 	5.522013263e-08 	0.001942151687 	2.245342225e-08 	3.702280908e-06
0.3075897287 	0.001398197265 	-0.0004543404547 	1.925454191e-07 	0.001955633631 	7.995810087e-08 	3.72798124e-06
0.3117070592 	0.001400059157 	-0.0004524312134 	3.286756364e-07 	0.001969537536 	1.391016808e-07 	3.754485948e-06
0.3158763763 	0.001401922219 	-0.0004504068393 	4.629720256e-07 	0.001983822313 	1.992877524e-07 	3.781716703e-06
0.3200711507 	0.001403797296 	-0.0004482815311 	5.946470649e-07 	0.001998397185 	2.598277003e-07 	3.80950046e-06
0.3242918762 	0.001405657284 	-0.0004460343343 	6.324600455e-07 	0.002013262426 	2.799590496e-07 	3.837837741e-06
0.3285390659 	0.001407514662 	-0.0004436575856 	5.020625318e-07 	0.002028440797 	2.246935586e-07 	3.866771935e-06
0.3328661155 	0.001409324143 	-0.0004410938585 	3.72492072e-07 	0.002044063768 	1.682372206e-07 	3.89655366e-06
0.3372333222 	0.00141110995 	-0.0004383525927 	2.450681677e-07 	0.002060043983 	1.114798029e-07 	3.927016391e-06
0.3416275151 	0.001412876956 	-0.0004354416026 	1.200296436e-07 	0.002076305443 	5.488724079e-08 	3.958015254e-06
0.3459484157 	0.001414560759 	-0.0004324069517 	5.809979041e-09 	0.002092488661 	-1.145294406e-08 	3.988864965e-06
0.3460484185 	0.001414605036 	-0.000432330843 	2.968729196e-09 	0.002092857183 	1.136971124e-09 	3.989567471e-06
0.3504786873 	0.001416501552 	-0.000428779311 	1.317757038e-07 	0.002109411695 	5.046185743e-08 	4.021124972e-06
0.3549828372 	0.001418320889 	-0.0004249652694 	2.595321683e-07 	0.002126390739 	9.911806755e-08 	4.053491749e-06
0.35951625 	0.001420090022 	-0.0004209158299 	3.848129444e-07 	0.002143676528 	1.461704864e-07 	4.086443267e-06
0.3640795876 	0.001421796702 	-0.0004166240059 	5.076608095e-07 	0.002161231929 	1.912697342e-07 	4.11990874e-06
0.3686755843 	0.001423433591 	-0.0004120628036 	6.281761569e-07 	0.002179101811 	2.340408445e-07 	4.153973702e-06
0.373358679 	0.001424960642 	-0.0004071614431 	6.201388532e-07 	0.00219739461 	2.277725257e-07 	4.188844862e-06
0.3780726351 	0.001426410725 	-0.0004019480562 	5.012765557e-07 	0.002215983867 	1.808897864e-07 	4.224281151e-06
0.3828182057 	0.001427787571 	-0.0003964302872 	3.848767294e-07 	0.002234804186 	1.360007315e-07 	4.26015791e-06
0.3875975535 	0.00142906983 	-0.0003905662363 	2.708704336e-07 	0.002253906354 	9.336261022e-08 	4.296571952e-06
0.3924622408 	0.001430220279 	-0.0003842751772 	1.580709243e-07 	0.002273388724 	5.292350081e-08 	4.333710763e-06
0.3973596973 	0.001431269539 	-0.0003775761561 	4.801427831e-08 	0.002293133647 	1.554187229e-08 	4.371350074e-06
0.3995609819 	0.001431697521 	-0.0003744089902 	1.81326265e-07 	0.002302049777 	-1.809860209e-07 	4.388346696e-06
0.4022763705 	0.001432362671 	-0.0003704182286 	6.128284763e-08 	0.002312904107 	1.448419409e-08 	4.409038067e-06
0.4072278368 	0.001433431661 	-0.0003627520519 	1.693827918e-07 	0.002332804955 	3.781810203e-08 	4.446974615e-06
0.4122531061 	0.001434351478 	-0.0003545598031 	2.749920241e-07 	0.002353015097 	5.743086439e-08 	4.485500761e-06
0.4173143592 	0.001435148264 	-0.0003458594184 	3.769522365e-07 	0.002373428606 	7.276817939e-08 	4.524414584e-06
0.422412537 	0.001435822971 	-0.0003366418242 	4.75113153e-07 	0.002394007332 	8.354019814e-08 	4.563643355e-06
0.427575927 	0.001436329516 	-0.000326811941 	5.698542494e-07 	0.002414815076 	8.949241899e-08 	4.603308698e-06
0.4327946249 	0.001436680187 	-0.0003163390386 	6.557632266e-07 	0.002435806207 	8.957863497e-08 	4.643323629e-06
0.4380519682 	0.001436900568 	-0.0003052417637 	5.583759133e-07 	0.00245688574 	6.392680934e-08 	4.683507076e-06
0.4433556139 	0.001436963915 	-0.0002934600284 	4.642008457e-07 	0.002478058728 	4.201109164e-08 	4.723868676e-06
0.4487334003 	0.001436849931 	-0.0002809037768 	3.731261466e-07 	0.002499343361 	2.406333835e-08 	4.764443102e-06
0.4541517666 	0.001436591226 	-0.0002675830938 	2.861639144e-07 	0.002520628168 	1.040826113e-08 	4.80501786e-06
0.4596118531 	0.001436194422 	-0.0002534778462 	2.034615707e-07 	0.002541859131 	1.214984678e-09 	4.845489977e-06
0.4651459664 	0.001435619793 	-0.0002384670655 	1.248345793e-07 	0.002563058867 	-3.380830927e-09 	4.885902566e-06
0.4707278335 	0.001434898464 	-0.0002225246772 	5.127057891e-08 	0.002584128157 	-3.229772635e-09 	4.926066488e-06
0.4749329857 	0.001434262378 	-0.0002098983339 	1.959766718e-07 	0.002599727033 	-1.081532003e-07 	4.955802283e-06
0.4763506212 	0.001434087795 	-0.0002056326586 	1.703661031e-08 	0.002604942089 	-2.63729701e-09 	4.965743628e-06
0.4820326335 	0.001433219081 	-0.0001876925482 	8.015518919e-08 	0.002625413686 	-1.575348304e-08 	5.004768181e-06
0.4877703369 	0.001432228104 	-0.000168761538 	1.370474106e-07 	0.002645536027 	-3.308406745e-08 	5.043126956e-06
0.493555219 	0.00143108787 	-0.0001487720895 	1.864379255e-07 	0.002665225722 	-5.472110053e-08 	5.080660988e-06
0.4994072706 	0.001429351998 	-0.0001272540358 	2.235218811e-07 	0.002684563584 	-8.229108689e-08 	5.117524327e-06
0.5053176938 	0.001427707715 	-0.0001034776196 	2.366102146e-07 	0.002700108532 	-5.980360507e-08 	5.147157318e-06
0.511278026 	0.001427365444 	-7.761822144e-05 	2.292612395e-07 	0.002708909667 	6.478103244e-08 	5.163934728e-06
0.5173077372 	0.001429357882 	-5.070197004e-05 	2.267584768e-07 	0.002710402233 	2.652091171e-07 	5.166779973e-06
0.5233956724 	0.001434360328 	-2.387731401e-05 	2.422013596e-07 	0.002705250212 	4.298318549e-07 	5.15695879e-06
0.5295365024 	0.001441799219 	2.061413483e-06 	2.650375679e-07 	0.002696307325 	4.999498622e-07 	5.139911161e-06
0.5357509981 	0.001450473779 	2.701724684e-05 	2.791728399e-07 	0.00268628387 	5.428995391e-07 	5.12080367e-06
0.5420221314 	0.001459755032 	5.11879683e-05 	2.5708734e-07 	0.002675802424 	5.071824148e-07 	5.100823121e-06
0.5483526887 	0.001469169183 	7.474544247e-05 	2.243471105e-07 	0.002665326884 	4.480507697e-07 	5.080853831e-06
0.5547556326 	0.00147852344 	9.770964546e-05 	1.960166518e-07 	0.002654972899 	3.944006528e-07 	5.061116257e-06
0.5611453472 	0.001487739659 	0.0001198721497 	1.713916135e-07 	0.00264474315 	3.472328291e-07 	5.041615512e-06
0.5674604494 	0.001496721648 	0.0001410889713 	1.501124946e-07 	0.002634724035 	3.060209585e-07 	5.022516294e-06
0.5737018556 	0.001505477171 	0.0001613807945 	1.318967513e-07 	0.002624863547 	2.701471671e-07 	5.003719464e-06
0.5798639363 	0.001514009453 	0.0001807664817 	1.16254461e-07 	0.002615115631 	2.389599199e-07 	4.985137227e-06
0.5859581069 	0.001522256649 	0.0001993074729 	1.028311179e-07 	0.002605525411 	2.118398363e-07 	4.966855601e-06
0.5919785117 	0.001530228586 	0.0002170521644 	9.135823312e-08 	0.002596017227 	1.883816271e-07 	4.94873036e-06
0.5979243277 	0.001537914336 	0.0002340266121 	8.151446276e-08 	0.002586579201 	1.680768877e-07 	4.930738859e-06
0.603806435 	0.001545286833 	0.0002502981928 	7.31017765e-08 	0.002577227328 	1.505037514e-07 	4.91291159e-06
0.6096166771 	0.001552368942 	0.0002659007528 	6.593831851e-08 	0.002567893006 	1.353609596e-07 	4.895117779e-06
0.6153571087 	0.001559147205 	0.0002808591808 	5.981734378e-08 	0.002558588475 	1.222788699e-07 	4.877380757e-06
0.6210352419 	0.001565612 	0.0002952308837 	5.462207164e-08 	0.002549312971 	1.109886831e-07 	4.859699067e-06
0.6266451332 	0.001571785673 	0.0003090396297 	5.022156033e-08 	0.002540014802 	1.012677728e-07 	4.841974174e-06
0.6321888401 	0.00157765413 	0.0003223091258 	4.648424854e-08 	0.002530716917 	9.286218141e-08 	4.824249821e-06
0.637672122 	0.001583216187 	0.0003350886031 	4.334033258e-08 	0.002521412241 	8.559532625e-08 	4.806512522e-06
0.6430906123 	0.00158849238 	0.0003473982255 	4.070335295e-08 	0.002512061501 	7.931260071e-08 	4.788687413e-06
0.6484456802 	0.001593472584 	0.0003592571931 	3.848616516e-08 	0.002502687631 	7.38428947e-08 	4.770818211e-06
0.653742691 	0.001598156001 	0.0003707083938 	3.664776313e-08 	0.00249328997 	6.906581522e-08 	4.752903657e-06
0.6589779999 	0.001602563489 	0.0003817725272 	3.513745347e-08 	0.002483833931 	6.488214787e-08 	4.734877819e-06
0.6641527762 	0.001606690993 	0.0003924619209 	3.389303194e-08 	0.002474337169 	6.117909971e-08 	4.716774351e-06
0.6692707843 	0.001610533693 	0.0004028129676 	3.28916334e-08 	0.002464812465 	5.787339695e-08 	4.698617618e-06
0.6743305076 	0.001614113423 	0.0004128494091 	3.210872717e-08 	0.002455226333 	5.49060898e-08 	4.680343786e-06
0.6793323654 	0.001617433035 	0.0004225778484 	3.149751464e-08 	0.002445588003 	5.22058649e-08 	4.661970451e-06
0.6842786275 	0.001620483897 	0.0004320270101 	3.104504596e-08 	0.002435922758 	4.971673785e-08 	4.643545806e-06
0.6891698224 	0.001623285934 	0.0004412229139 	3.074392932e-08 	0.002426202654 	4.740587515e-08 	4.625016587e-06
0.6940055861 	0.001625848814 	0.000450171465 	3.056180679e-08 	0.002416426417 	4.523145381e-08 	4.606380362e-06
0.6987869863 	0.001628165323 	0.0004588908588 	3.048694007e-08 	0.002406622082 	4.316047221e-08 	4.587690574e-06
0.7035162408 	0.001630247088 	0.000467407044 	3.0520366e-08 	0.002396779433 	4.11738675e-08 	4.56892775e-06
0.7081923019 	0.001632109852 	0.0004757315431 	3.064876907e-08 	0.002386885908 	3.925184827e-08 	4.550067942e-06
0.7128159963 	0.001633754326 	0.0004838712202 	3.085447103e-08 	0.002376959559 	3.73791343e-08 	4.531145561e-06
0.7173887898 	0.001635180908 	0.0004918476434 	3.114079437e-08 	0.002367015094 	3.554592725e-08 	4.512188647e-06
0.7219111564 	0.001636406929 	0.0004996785195 	3.151055402e-08 	0.002357036593 	3.374817472e-08 	4.493166852e-06
0.7263831588 	0.001637442616 	0.0005073688047 	3.194768088e-08 	0.002347026283 	3.197988136e-08 	4.474084417e-06
0.7308055292 	0.001638286957 	0.0005149291927 	3.244878992e-08 	0.002337006833 	3.024323279e-08 	4.454984561e-06
0.7351796769 	0.001638948476 	0.0005223783635 	3.302094533e-08 	0.002326980704 	2.854118831e-08 	4.435871973e-06
0.73950552 	0.001639443348 	0.0005297277356 	3.366427716e-08 	0.002316938867 	2.687698555e-08 	4.41672944e-06
0.7437835465 	0.001639779364 	0.0005369810292 	3.436629443e-08 	0.002306891231 	2.525692114e-08 	4.397575854e-06
0.7480144128 	0.001639958407 	0.0005441492432 	3.512888264e-08 	0.002296857629 	2.369274707e-08 	4.378449019e-06
0.7521992977 	0.001639992134 	0.0005512474773 	3.595973729e-08 	0.002286838555 	2.219410475e-08 	4.35934988e-06
0.7563381148 	0.00163989586 	0.0005582836046 	3.685669666e-08 	0.002276830727 	2.076962399e-08 	4.340272178e-06
0.7604314361 	0.001639677596 	0.0005652612521 	3.781051447e-08 	0.002266846783 	1.943262165e-08 	4.321240005e-06
0.7644798564 	0.00163934251 	0.0005721892886 	3.882257178e-08 	0.002256904091 	1.820007731e-08 	4.302286472e-06
0.7684842987 	0.001638902761 	0.0005790798285 	3.989956734e-08 	0.002247006489 	1.708517183e-08 	4.283418891e-06
0.772444869 	0.00163837395 	0.0005859392087 	4.103904599e-08 	0.002237153857 	1.609960411e-08 	4.264637036e-06
0.7763620792 	0.001637766178 	0.0005927703209 	4.223178566e-08 	0.002227358338 	1.525887051e-08 	4.245964054e-06
0.7802364736 	0.001637086934 	0.0005995788976 	4.347573494e-08 	0.00221763709 	1.458207749e-08 	4.227432654e-06
0.784068756 	0.001636348114 	0.000606374271 	4.477497679e-08 	0.002207998702 	1.40840694e-08 	4.209059208e-06
0.7878592533 	0.00163556601 	0.0006131621499 	4.612812792e-08 	0.002198445054 	1.377663183e-08 	4.190847299e-06
0.7916083725 	0.001634753471 	0.0006199438738 	4.752345936e-08 	0.002188986458 	1.367406969e-08 	4.172816587e-06
0.7953166163 	0.001633919845 	0.000626722387 	4.895537746e-08 	0.002179640287 	1.379400471e-08 	4.155000187e-06
0.7989845177 	0.001633077224 	0.0006335031957 	5.04223206e-08 	0.002170418606 	1.415110294e-08 	4.137421101e-06
0.8026125957 	0.001632241375 	0.0006402911844 	5.170956662e-08 	0.002161327121 	1.469474592e-08 	4.120090202e-06
0.8062011484 	0.001631427633 	0.0006470864211 	5.061601816e-08 	0.002152374029 	1.479099469e-08 	4.10302312e-06
0.8097506432 	0.001630647939 	0.0006538896168 	4.951333643e-08 	0.002143574451 	1.508475443e-08 	4.08624868e-06
0.8132615384 	0.001629915071 	0.0006607013072 	4.839708803e-08 	0.002134942213 	1.555517981e-08 	4.069793235e-06
0.8167343376 	0.001629242758 	0.0006675241592 	4.726804913e-08 	0.002126489291 	1.617903118e-08 	4.053679615e-06
0.8201694132 	0.001628648035 	0.0006743585966 	4.611905653e-08 	0.002118222011 	1.693003146e-08 	4.037919883e-06