0 	0.009057943502 	-3.700327073e-16 	-2.125124618e-23 	1.511647809e-29 	8.681502765e-37 	4.985849866e-44
0.0003149815133 	0.00904473093 	0.0002788104255 	-7.626542398e-09 	0.01200326273 	-1.0376659e-07 	2.288155489e-05
0.0006299624726 	0.009039423476 	0.0002394011485 	-4.66544804e-09 	0.01212777916 	-9.033201371e-08 	2.311891781e-05
0.0009449428773 	0.009044693747 	0.0002235863873 	-3.468467925e-09 	0.0121406648 	-7.297321543e-08 	2.314348144e-05
0.001259922727 	0.009041113678 	0.0002242789245 	-2.683913377e-09 	0.01214956841 	-5.542087596e-08 	2.31604542e-05
0.00157490202 	0.009039508922 	0.0002338549802 	-1.939880087e-09 	0.01215050577 	-3.762237755e-08 	2.316224106e-05
0.001889880757 	0.009037955118 	0.000248669819 	-1.105444339e-09 	0.01214973971 	-1.978389111e-08 	2.316078072e-05
0.002204858937 	0.009035983258 	0.0002669384424 	-1.181852332e-10 	0.0121485319 	-1.939247925e-09 	2.315847832e-05
0.002239077857 	0.009035732845 	0.0002691956472 	-8.244798644e-08 	0.01214835128 	-8.241799577e-06 	2.315813399e-05
0.002519836559 	0.009033668816 	0.0002877207488 	-1.198185939e-09 	0.01214687695 	-1.624641398e-08 	2.315532352e-05
0.002834813624 	0.009031058671 	0.0003104787028 	-2.773464329e-09 	0.01214478463 	-3.446790602e-08 	2.315133498e-05
0.00314979013 	0.009028147894 	0.0003348931399 	-4.615033814e-09 	0.01214231035 	-5.267822969e-08 	2.314661831e-05
0.003464766077 	0.009024928743 	0.0003607706527 	-6.743069173e-09 	0.01213948748 	-7.087297481e-08 	2.314123714e-05
0.003779741465 	0.009021396491 	0.0003879947136 	-9.176518646e-09 	0.01213633069 	-8.904818083e-08 	2.313521942e-05
0.004094716294 	0.009017546681 	0.000416498057 	-1.19339644e-08 	0.012132847 	-1.072001526e-07 	2.312857853e-05
0.004409690564 	0.009013374434 	0.000446246151 	-1.503411454e-08 	0.01212903976 	-1.253254097e-07 	2.312132087e-05
0.004724664274 	0.009008874571 	0.0004772268684 	-1.849608947e-08 	0.01212490983 	-1.434206494e-07 	2.311344808e-05
0.005039637424 	0.00900404168 	0.0005094437717 	-2.233958543e-08 	0.0121204563 	-1.614827237e-07 	2.310495842e-05
0.005354610015 	0.008998870107 	0.0005429115884 	-2.658496013e-08 	0.01211567704 	-1.795086316e-07 	2.309584782e-05
0.005669582045 	0.008993353955 	0.0005776530631 	-3.12532668e-08 	0.01211056902 	-1.974955229e-07 	2.30861105e-05
0.005984553517 	0.008987487092 	0.0006136967032 	-3.636625104e-08 	0.0121051285 	-2.15440699e-07 	2.307573937e-05
0.006299524428 	0.008981263157 	0.0006510751157 	-4.194632093e-08 	0.01209935124 	-2.333416224e-07 	2.30647263e-05
0.00661449478 	0.008974675563 	0.000689823748 	-4.801649533e-08 	0.01209323255 	-2.511959248e-07 	2.305306239e-05
0.006929464573 	0.008967717496 	0.000729979913 	-5.460033589e-08 	0.01208676744 	-2.690014182e-07 	2.304073808e-05
0.007244433807 	0.00896038204 	0.0007715820264 	-6.172186565e-08 	0.01207995039 	-2.867560764e-07 	2.302774289e-05
0.007559402482 	0.008952662414 	0.0008146689884 	-6.940547251e-08 	0.01207277505 	-3.04458008e-07 	2.301406471e-05
0.007874370599 	0.008944551132 	0.0008592795125 	-7.767577013e-08 	0.01206523597 	-3.2210574e-07 	2.299969312e-05
0.008189338158 	0.008936036016 	0.0009054499638 	-8.655723229e-08 	0.01205733646 	-3.396992381e-07 	2.298463445e-05
0.008504305159 	0.008927103223 	0.0009531912696 	-9.607126151e-08 	0.0120490818 	-3.572384929e-07 	2.296889878e-05
0.008819271603 	0.008917767675 	0.001002188687 	-1.062027356e-07 	0.01204041932 	-3.747153956e-07 	2.295238569e-05
0.009134237491 	0.008908044656 	0.001047848336 	-1.165257328e-07 	0.01203130164 	-3.921272781e-07 	2.293500485e-05
0.009449202822 	0.008896497552 	0.001071671369 	-1.254125669e-07 	0.01202044361 	-4.09405666e-07 	2.291430643e-05
0.009938585273 	0.008881910424 	0.001061261492 	-1.345600298e-07 	0.01200686414 	-4.363330906e-07 	2.288842018e-05
0.01043716429 	0.00886591121 	0.001032581586 	-1.421382445e-07 	0.01199201072 	-4.636054709e-07 	2.286010545e-05
0.01094511266 	0.008849891477 	0.001002634846 	-1.495784985e-07 	0.01197702243 	-4.912724818e-07 	2.283153359e-05
0.01146260645 	0.008833815543 	0.0009743459077 	-1.572366173e-07 	0.01196192679 	-5.193430771e-07 	2.28027571e-05
0.011989825 	0.008817654664 	0.0009476567644 	-1.651435783e-07 	0.01194674243 	-5.478344665e-07 	2.277381149e-05
0.01252695103 	0.008801401517 	0.0009223045005 	-1.73293525e-07 	0.01193145246 	-5.767560428e-07 	2.274466457e-05
0.01307417071 	0.008785050299 	0.0008980410279 	-1.816739718e-07 	0.01191604418 	-6.06116962e-07 	2.27152921e-05
0.01363167369 	0.008768594666 	0.0008746414827 	-1.902681556e-07 	0.0119005122 	-6.35928267e-07 	2.268568384e-05
0.01419965319 	0.008752030139 	0.0008519012351 	-1.990552356e-07 	0.01188485335 	-6.662019724e-07 	2.265583371e-05
0.01477830605 	0.008735354567 	0.0008296326956 	-2.080102987e-07 	0.01186906567 	-6.9695074e-07 	2.2625738e-05
0.01536783281 	0.008718567953 	0.0008076626035 	-2.171043232e-07 	0.01185314868 	-7.28187948e-07 	2.259539579e-05
0.01596843781 	0.008701672381 	0.0007858297831 	-2.263041372e-07 	0.01183710352 	-7.59927766e-07 	2.256480927e-05
0.01658032918 	0.008684672007 	0.0007639832825 	-2.35572383e-07 	0.01182093298 	-7.921852023e-07 	2.253398372e-05
0.01720371899 	0.008667573064 	0.0007419807987 	-2.448674822e-07 	0.0118046415 	-8.249761466e-07 	2.250292763e-05
0.0178388233 	0.008650383978 	0.0007196870198 	-2.541435007e-07 	0.01178823504 	-8.58317312e-07 	2.247165236e-05
0.01848586221 	0.008633115434 	0.000696967926 	-2.633487853e-07 	0.01177172104 	-8.922262419e-07 	2.244017208e-05
0.01914505996 	0.008615780153 	0.0006736312824 	-2.724115094e-07 	0.01175510905 	-9.267217718e-07 	2.2408505e-05
0.01981664503 	0.008598375683 	0.0006493725534 	-2.812065142e-07 	0.0117383939 	-9.618221208e-07 	2.237664129e-05
0.02050358683 	0.008580894483 	0.0006239490269 	-2.896983197e-07 	0.01172156498 	-9.976524889e-07 	2.234456069e-05
0.02120541641 	0.008563370984 	0.0005972408016 	-2.978284224e-07 	0.01170464834 	-1.034269856e-06 	2.231231287e-05
0.02192043459 	0.008545860734 	0.0005693456179 	-3.055181434e-07 	0.01168769301 	-1.071651268e-06 	2.22799913e-05
0.02264888916 	0.008528400119 	0.0005403815257 	-3.127577037e-07 	0.01167073078 	-1.109835861e-06 	2.224765657e-05
0.02339103257 	0.008511016653 	0.0005102602321 	-3.194829099e-07 	0.01165378181 	-1.148863827e-06 	2.221534714e-05
0.02414712203 	0.00849373991 	0.0004788794118 	-3.256164079e-07 	0.01163686962 	-1.188778549e-06 	2.21831078e-05
0.02491741955 	0.008476602349 	0.0004461379656 	-3.310768224e-07 	0.01162001957 	-1.229625804e-06 	2.215098692e-05
0.0257021921 	0.00845963922 	0.0004119372205 	-3.35779883e-07 	0.0116032593 	-1.27145411e-06 	2.211903718e-05
0.02650171163 	0.008442888609 	0.000376180972 	-3.36614528e-07 	0.01158661882 	-1.3026117e-06 	2.208731581e-05
0.02731625522 	0.008426391515 	0.0003387755214 	-3.181764109e-07 	0.01157013058 	-1.261563521e-06 	2.205588464e-05
0.02814610515 	0.008410191912 	0.0002996297612 	-2.994705146e-07 	0.01155382952 	-1.220039939e-06 	2.202481028e-05
0.02899154899 	0.008394336811 	0.00025865531 	-2.805579846e-07 	0.0115377531 	-1.178008094e-06 	2.199416417e-05
0.02985287974 	0.008378876304 	0.0002157666944 	-2.615071794e-07 	0.01152194145 	-1.135432246e-06 	2.196402277e-05
0.03073039586 	0.008363863617 	0.000170881574 	-2.42393357e-07 	0.01150643736 	-1.092273626e-06 	2.193446766e-05
0.03162440146 	0.008349355141 	0.0001239210088 	-2.232983117e-07 	0.01149128637 	-1.048490268e-06 	2.190558566e-05
0.03253520634 	0.008335410463 	7.480976438e-05 	-2.043099544e-07 	0.01147653683 	-1.00403685e-06 	2.187746894e-05
0.03346312612 	0.008322092378 	2.347665448e-05 	-1.855218292e-07 	0.01146223995 	-9.588645129e-07 	2.185021511e-05
0.03440848235 	0.008309466893 	-3.014508473e-05 	-1.670325581e-07 	0.01144844984 	-9.129206786e-07 	2.182392732e-05
0.03537160262 	0.008297603224 	-8.611739581e-05 	-1.489451614e-07 	0.01143522352 	-8.661490299e-07 	2.179871429e-05
0.03635282068 	0.008286573817 	-0.0001444970604 	-1.313659317e-07 	0.01142262092 	-8.184898962e-07 	2.177469022e-05
0.03735247653 	0.008276454287 	-0.0002053363856 	-1.143986145e-07 	0.01141070485 	-7.698803821e-07 	2.175197488e-05
0.03837091657 	0.00826732325 	-0.000268698392 	-9.81391785e-08 	0.01139954134 	-7.202535625e-07 	2.173069414e-05
0.03940849371 	0.008259259052 	-0.0003347103034 	-8.267715581e-08 	0.01138919587 	-6.695389183e-07 	2.171097279e-05
0.04046733527 	0.00825234037 	-0.0004036487403 	-6.807735485e-08 	0.01137972806 	-6.175461004e-07 	2.169292452e-05
0.04155102344 	0.008246666264 	-0.0004757155835 	-5.444652449e-08 	0.01137121452 	-5.639937907e-07 	2.167669534e-05
0.04265507529 	0.008242346531 	-0.0005506389139 	-4.201169248e-08 	0.01136375843 	-5.091117853e-07 	2.166248197e-05
0.0437798734 	0.008239480573 	-0.0006281333644 	-3.093921339e-08 	0.01135745221 	-4.527985982e-07 	2.165046056e-05
0.04492580757 	0.008238164525 	-0.0007081953951 	-2.134319599e-08 	0.01135237615 	-3.949520146e-07 	2.164078417e-05
0.0460932749 	0.008238494742 	-0.000790813827 	-1.332243722e-08 	0.01134861606 	-3.354662176e-07 	2.163361639e-05
0.04728267995 	0.008240569118 	-0.0008759681787 	-6.967457854e-09 	0.01134625975 	-2.742310479e-07 	2.162912461e-05
0.04849443489 	0.008244486754 	-0.0009636281944 	-2.360771531e-09 	0.01134539676 	-2.111314302e-07 	2.162747952e-05
0.04972895962 	0.00825034752 	-0.001053753765 	4.241866272e-10 	0.0113461183 	-1.460467934e-07 	2.162885497e-05
0.05098668193 	0.008258251638 	-0.001146294919 	1.324044854e-09 	0.01134851687 	-7.885096529e-08 	2.163342731e-05
0.05226803766 	0.008268299247 	-0.001241191919 	2.863459809e-10 	0.01135268588 	-9.412228125e-09 	2.16413746e-05
0.05244057823 	0.008269922195 	-0.001254034207 	-3.815287143e-07 	0.01135348147 	-1.610946325e-06 	2.164289121e-05
0.05357347081 	0.008280552834 	-0.001338358052 	1.970128825e-09 	0.01135876472 	-6.439190216e-08 	2.165296257e-05
0.05490343374 	0.008295142223 	-0.001437730907 	6.17872618e-09 	0.01136681088 	-1.410884772e-07 	2.166830078e-05
0.0562583873 	0.00831216945 	-0.001539226472 	1.247576402e-08 	0.0113769118 	-2.205270356e-07 	2.168755593e-05
0.057638801 	0.008331731629 	-0.001642757337 	2.086469123e-08 	0.01138915449 	-3.028610189e-07 	2.171089391e-05
0.05904515316 	0.008353935654 	-0.001748275289 	3.134260735e-08 	0.01140361367 	-3.882440957e-07 	2.173845713e-05
0.06047923244 	0.008378902808 	-0.001855948966 	4.394728292e-08 	0.01142042005 	-4.769304065e-07 	2.177049475e-05
0.06194729124 	0.008406708963 	-0.001966949463 	5.901176471e-08 	0.0114397926 	-5.694834804e-07 	2.180742423e-05
0.06344293631 	0.008441603287 	-0.002101597408 	7.941369781e-08 	0.01146461961 	-6.666600872e-07 	2.18547514e-05
0.06573896912 	0.008489555521 	-0.002277563215 	1.154766222e-07 	0.01149921416 	-8.161904818e-07 	2.192069823e-05
0.06806060914 	0.008547746136 	-0.00247111251 	1.610351777e-07 	0.01154183673 	-9.721683548e-07 	2.200194869e-05
0.07040814194 	0.008611826481 	-0.002660812391 	2.125327455e-07 	0.01158940936 	-1.133453004e-06 	2.209263535e-05
0.0727818563 	0.008681531878 	-0.002845951247 	2.690506757e-07 	0.01164163623 	-1.299900116e-06 	2.219219428e-05
0.07518204421 	0.008756567512 	-0.003026624165 	3.300265513e-07 	0.01169822169 	-1.471400263e-06 	2.23000619e-05
0.07760900091 	0.008836608146 	-0.003202981855 	3.949926159e-07 	0.01175887122 	-1.647829506e-06 	2.241567676e-05
0.08006302493 	0.008921414352 	-0.003375338288 	4.636272537e-07 	0.01182334059 	-1.829059345e-06 	2.253857328e-05
0.08255609596 	0.009010771291 	-0.003544122511 	4.736383454e-07 	0.01189137002 	-1.781416697e-06 	2.26682563e-05
0.08507824308 	0.009104226307 	-0.003709218054 	4.553532263e-07 	0.01196251867 	-1.643641258e-06 	2.28038854e-05
0.08762852215 	0.009201274938 	-0.003870379677 	4.306826392e-07 	0.01203630212 	-1.500255392e-06 	2.294453716e-05
0.09020724696 	0.009301503299 	-0.004027685262 	4.001898346e-07 	0.0121122757 	-1.351378139e-06 	2.308936392e-05
0.09281473479 	0.00940449168 	-0.004181204445 	3.643790299e-07 	0.01218998758 	-1.197171905e-06 	2.323750435e-05
0.09545130646 	0.009509806335 	-0.004330989357 	3.236967552e-07 	0.01226896605 	-1.037838545e-06 	2.338805928e-05
0.09811728639 	0.009617021147 	-0.004477095386 	2.785419816e-07 	0.01234873785 	-8.736240495e-07 	2.35401265e-05
0.1008152168 	0.009725805825 	-0.004619716951 	2.292404642e-07 	0.012428884 	-7.046557329e-07 	2.369290732e-05
0.1035538849 	0.009835779048 	-0.004759012293 	1.759166224e-07 	0.01250892393 	-5.30730292e-07 	2.384548568e-05
0.1063231032 	0.009946308624 	-0.004894717374 	1.19080102e-07 	0.01258820645 	-3.530833297e-07 	2.399662021e-05
0.1091232125 	0.0100567709 	-0.005026582563 	5.900097393e-08 	0.01266611306 	-1.721481876e-07 	2.414513186e-05
0.1117768629 	0.01015973609 	-0.005146526375 	1.04767945e-08 	0.01273730974 	-6.863645765e-07 	2.428085252e-05
0.1119545574 	0.01016663279 	-0.005154562409 	4.139564484e-09 	0.01274208608 	-1.191286775e-08 	2.428995756e-05
0.1148174862 	0.01027538496 	-0.005278416725 	7.110314278e-08 	0.01281551453 	-2.029346052e-07 	2.442993259e-05
0.1177123515 	0.01038242334 	-0.00539660039 	1.378381713e-07 	0.0128857473 	-3.960412943e-07 	2.456381576e-05
0.1206406417 	0.01048700219 	-0.005507152762 	2.046626707e-07 	0.01295269172 	-5.910031436e-07 	2.469143043e-05
0.1236130938 	0.01058871431 	-0.005610868863 	2.754482137e-07 	0.01301565938 	-7.870542138e-07 	2.481146429e-05
0.1266187072 	0.01068715405 	-0.005710135924 	3.499435876e-07 	0.01307337848 	-9.827189106e-07 	2.492149294e-05
0.1296578519 	0.01078162652 	-0.005805735166 	4.266317295e-07 	0.01312513307 	-1.177458749e-06 	2.502015157e-05
0.132730902 	0.01087142427 	-0.005897357675 	5.052414344e-07 	0.01317037668 	-1.370098614e-06 	2.510639847e-05
0.1358382358 	0.01095591016 	-0.005984674714 	5.854491246e-07 	0.01320836421 	-1.559739191e-06 	2.517881325e-05
0.1389802357 	0.01103444983 	-0.006067371464 	6.668856502e-07 	0.01323837684 	-1.745406823e-06 	2.523602567e-05
0.142164066 	0.01110639783 	-0.006145193405 	7.49319897e-07 	0.01325967809 	-1.926391656e-06 	2.527663177e-05
0.1453889171 	0.01117097961 	-0.006217723212 	8.321568114e-07 	0.01327147654 	-2.101276734e-06 	2.52991229e-05
0.1486497487 	0.01122735 	-0.006284392948 	8.06880182e-07 	0.01327298127 	-2.001299561e-06 	2.530199134e-05
0.1519469623 	0.01127470547 	-0.006344724518 	7.342611695e-07 	0.01326341689 	-1.78904845e-06 	2.528375897e-05
0.1552809637 	0.01131224961 	-0.006398261927 	6.593366921e-07 	0.01324201682 	-1.578332128e-06 	2.524296448e-05
0.1586521634 	0.01133917556 	-0.006444530866 	5.825294473e-07 	0.01320800374 	-1.370187552e-06 	2.517812611e-05
0.1620666825 	0.01135465297 	-0.006483093166 	5.042041339e-07 	0.01316054683 	-1.165371949e-06 	2.508766005e-05
0.1655254184 	0.01135779461 	-0.006513410913 	4.249521721e-07 	0.01309883856 	-9.652196237e-07 	2.497002693e-05
0.1690227476 	0.011347716 	-0.006534846935 	3.455267114e-07 	0.01302216991 	-7.713848203e-07 	2.482387517e-05
0.1725591007 	0.0113235757 	-0.006546834168 	2.666123487e-07 	0.01292985683 	-5.851458788e-07 	2.464790079e-05
0.176134913 	0.01128454951 	-0.006548829543 	1.889660622e-07 	0.01282123741 	-4.078109148e-07 	2.444084199e-05
0.1797506248 	0.01122979944 	-0.006540281489 	1.134062189e-07 	0.01269562182 	-2.407074126e-07 	2.420138376e-05
0.1834159144 	0.01115847353 	-0.006520659746 	4.063879497e-08 	0.0125522988 	-8.484605541e-08 	2.392817025e-05
0.1855771689 	0.0111068329 	-0.006502458689 	2.940044001e-06 	0.01245822682 	-7.472677749e-06 	2.374884291e-05
0.1871241627 	0.01106985327 	-0.006489435496 	2.929387083e-08 	0.01239086976 	-5.976572501e-08 	2.362044164e-05
0.1908737914 	0.01096335353 	-0.00644609798 	9.582495545e-08 	0.0122110897 	-1.923283381e-07 	2.327773086e-05
0.1946652623 	0.01083844967 	-0.006390191739 	1.564476945e-07 	0.01201268288 	-3.089745546e-07 	2.289951232e-05
0.1984990422 	0.01069468666 	-0.006321319862 	2.101965696e-07 	0.01179550107 	-4.085594457e-07 	2.248550344e-05
0.2023809985 	0.01053168003 	-0.006239153173 	2.562214116e-07 	0.01155944833 	-4.901930758e-07 	2.20355213e-05
0.2063115745 	0.01034931764 	-0.006143483633 	2.935903478e-07 	0.01130478729 	-5.528913438e-07 	2.155006657e-05
0.2102860148 	0.0101478607 	-0.006034274379 	3.214847305e-07 	0.01103223076 	-5.959809943e-07 	2.103049809e-05
0.2143048088 	0.009927805215 	-0.005911665876 	3.393655717e-07 	0.01074269317 	-6.193126809e-07 	2.047855896e-05
0.2183684513 	0.009689820582 	-0.005775917366 	3.469054628e-07 	0.01043723529 	-6.231018757e-07 	1.989627134e-05
0.2224824929 	0.009434810751 	-0.005627461443 	3.440832848e-07 	0.0101171197 	-6.080437093e-07 	1.928604205e-05
0.2266474495 	0.009164194566 	-0.005467041231 	3.311264164e-07 	0.009784167289 	-5.75249707e-07 	1.865134222e-05
0.2308588887 	0.008879974779 	-0.005295751632 	3.086872097e-07 	0.009440802956 	-5.265420907e-07 	1.799679437e-05
0.2351173289 	0.008584497155 	-0.005114956573 	2.38718765e-07 	0.009089718148 	-3.989373497e-07 	1.732752915e-05
0.2394232945 	0.008280302733 	-0.004926188889 	1.73979669e-07 	0.008733718065 	-2.837135856e-07 	1.664889404e-05
0.2437845959 	0.007970205328 	-0.004731227347 	1.202702686e-07 	0.008375804231 	-1.898728396e-07 	1.59666108e-05
0.2481966718 	0.007657591889 	-0.004532266501 	7.757123222e-08 	0.008019536316 	-1.166046857e-07 	1.528746513e-05
0.2526579903 	0.007346099772 	-0.00433171912 	4.538170427e-08 	0.007668636161 	-6.24001015e-08 	1.461855191e-05
0.2571691007 	0.007039245156 	-0.004132015291 	2.276026632e-08 	0.007326573138 	-2.511009255e-08 	1.396648472e-05
0.2617331245 	0.006740294373 	-0.003935506674 	8.381423968e-09 	0.006996456471 	-2.103022717e-09 	1.33371906e-05
0.2663542099 	0.006452318196 	-0.003744487817 	6.273571264e-10 	0.006681121273 	9.547249114e-09 	1.273607407e-05
0.2710268726 	0.006178148548 	-0.003561146517 	-2.307047296e-09 	0.006383105159 	1.289347406e-08 	1.216797253e-05
0.275751688 	0.005919930579 	-0.003387263619 	-2.276679081e-09 	0.006104172625 	1.092303694e-08 	1.163624959e-05
0.28052953 	0.005678936917 	-0.00322406526 	-1.023963595e-09 	0.005845156865 	6.327704274e-09 	1.114249356e-05
0.2853683996 	0.005455720933 	-0.003072290932 	-5.146259031e-11 	0.005606157366 	1.336049367e-09 	1.068689409e-05
0.2868768159 	0.005392396565 	-0.003029136513 	2.593150977e-06 	0.005538533326 	-4.245005878e-06 	1.055798387e-05
0.2902612788 	0.005250367552 	-0.002932346325 	1.45360568e-09 	0.005386834255 	1.694872763e-09 	1.026880328e-05
0.2952087702 	0.005062238536 	-0.00280409323 	5.351841586e-09 	0.005186145633 	2.266771006e-09 	9.886234992e-06
0.3002114828 	0.004890053962 	-0.002686912059 	1.174489867e-08 	0.005002442097 	1.107998766e-10 	9.536044993e-06
0.3052771643 	0.00473217041 	-0.002579880173 	2.075864016e-08 	0.004833771031 	-4.944027252e-09 	9.214511062e-06
0.3103995605 	0.004586853364 	-0.002481953399 	3.224945837e-08 	0.004678165464 	-1.273247068e-08 	8.917883604e-06
0.3155791317 	0.004452223371 	-0.002391940315 	4.590768332e-08 	0.004533567927 	-2.286048502e-08 	8.642240509e-06
0.320817158 	0.004326326054 	-0.002308558619 	6.132932248e-08 	0.004397886209 	-3.480738743e-08 	8.383593443e-06
0.3261196354 	0.004207300523 	-0.002230553526 	7.806023051e-08 	0.004269174144 	-4.79938371e-08 	8.138232475e-06
0.3314812991 	0.004093517841 	-0.002156798198 	9.561654676e-08 	0.004145765445 	-6.182668196e-08 	7.902981193e-06
0.336902809 	0.003983502367 	-0.002086253391 	1.135593014e-07 	0.004026170111 	-7.575640664e-08 	7.674999248e-06
0.3423871157 	0.003875940746 	-0.002017979025 	1.31498923e-07 	0.00390907131 	-8.928475606e-08 	7.451776388e-06
0.3479363295 	0.003769757368 	-0.001951182965 	1.490617392e-07 	0.003793414762 	-1.019534286e-07 	7.231302861e-06
0.3535474839 	0.003664131325 	-0.001885232807 	1.659196169e-07 	0.003678416651 	-1.133713062e-07 	7.012084499e-06
0.3592212696 	0.00355841643 	-0.001819609892 	1.818053158e-07 	0.003563462766 	-1.232105528e-07 	6.792950446e-06
0.3649627704 	0.003452138625 	-0.001753905516 	1.730443436e-07 	0.003448111564 	-1.155346375e-07 	6.573058995e-06
0.370769322 	0.003345061939 	-0.00168785879 	1.619495996e-07 	0.003332169619 	-1.058249772e-07 	6.352041423e-06
0.3766406864 	0.003237122539 	-0.001621315854 	1.498205751e-07 	0.00321561521 	-9.517058654e-08 	6.129856325e-06
0.3825794668 	0.003128391606 	-0.001554211701 	1.369085683e-07 	0.003098547178 	-8.393211203e-08 	5.906692118e-06
0.3885874109 	0.003019106741 	-0.001486592197 	1.234331265e-07 	0.002981239065 	-7.244111713e-08 	5.68307025e-06
0.3946624157 	0.002909673507 	-0.001418629888 	1.095420752e-07 	0.002864152969 	-6.092370245e-08 	5.45987161e-06
0.4008056513 	0.002800593168 	-0.001350607656 	9.5370908e-08 	0.00274786284 	-4.981507601e-08 	5.238190303e-06
0.4070212331 	0.00269249476 	-0.001282846433 	8.216268789e-08 	0.002632985437 	-3.961095425e-08 	5.019202043e-06
0.4133061932 	0.002586246834 	-0.001215261917 	7.171344953e-08 	0.002520207922 	-3.048078029e-08 	4.804216754e-06
0.4196613049 	0.002482855589 	-0.001147307733 	6.286952061e-08 	0.002410247237 	-2.261575213e-08 	4.594601128e-06
0.4260907495 	0.002383255978 	-0.001078886374 	5.359436015e-08 	0.002303833866 	-1.588153462e-08 	4.391747665e-06
0.4325922399 	0.002288332223 	-0.001010410229 	4.418594935e-08 	0.002201868868 	-1.00253343e-08 	4.197374041e-06
0.4391662983 	0.002198982885 	-0.0009421176983 	3.522907491e-08 	0.002105338767 	-5.313494702e-09 	4.013360839e-06
0.4458164752 	0.002116125439 	-0.0008740911629 	2.677858668e-08 	0.002015113704 	-1.918286147e-09 	3.841366791e-06
0.4525413396 	0.002040664482 	-0.0008064373759 	1.887388764e-08 	0.001931995263 	2.214656962e-10 	3.682919941e-06
0.4593412644 	0.001973376882 	-0.0007392570121 	1.148710944e-08 	0.001856698385 	1.131890164e-09 	3.539383165e-06
0.4662195511 	0.001914879072 	-0.0006726306529 	4.577309044e-09 	0.001789769831 	8.568554865e-10 	3.411798738e-06
0.471104341 	0.001880273585 	-0.000626273924 	9.757551966e-07 	0.001748909369 	-1.086673584e-06 	3.333907342e-06
0.4731749089 	0.001865604377 	-0.0006066248099 	1.965589292e-09 	0.001731584832 	5.643433583e-10 	3.300881959e-06
0.4802079543 	0.001825749249 	-0.0005412547778 	8.299594422e-09 	0.001682285761 	3.111987569e-09 	3.206904227e-06
0.4873218078 	0.001795256781 	-0.0004765304604 	1.438984259e-08 	0.001641754145 	6.605608757e-09 	3.129639702e-06
0.4945150618 	0.001773951 	-0.000412576982 	2.032047089e-08 	0.001609820603 	1.093823341e-08 	3.068765495e-06
0.5017088021 	0.001761512215 	-0.0003498074771 	2.610020482e-08 	0.001586321515 	1.596094818e-08 	3.023969704e-06
0.5088246559 	0.001757204346 	-0.0002886352109 	3.168194816e-08 	0.00157070499 	2.148928952e-08 	2.994200266e-06
0.5158619961 	0.001760044307 	-0.0002290961125 	3.707518956e-08 	0.001562107987 	2.739897517e-08 	2.977811989e-06
0.5228223256 	0.001769102715 	-0.0001710619103 	4.228371763e-08 	0.001559690133 	3.359690023e-08 	2.973202888e-06
0.5297067628 	0.00178356122 	-0.0001144190442 	4.728177895e-08 	0.001562716603 	3.998932778e-08 	2.97897218e-06
0.5365152377 	0.001802712413 	-5.906817077e-05 	5.206502e-08 	0.001570565897 	4.650806848e-08 	2.993935116e-06
0.5432491873 	0.001825964653 	-4.905774884e-06 	5.6636619e-08 	0.001582709605 	5.310202813e-08 	3.017084399e-06
0.5499094439 	0.001852826968 	4.816986071e-05 	6.098469448e-08 	0.001598709711 	5.971092523e-08 	3.047585047e-06
0.55649621 	0.00188289155 	0.000100259037 	6.512259526e-08 	0.001618213254 	6.629704896e-08 	3.084764221e-06
0.5630107473 	0.001915830522 	0.0001514722073 	6.906750919e-08 	0.001640927006 	7.283388504e-08 	3.128062946e-06
0.5694538871 	0.001951377788 	0.0002019190124 	7.282073952e-08 	0.001666612187 	7.928164258e-08 	3.17702604e-06
0.5758259306 	0.001989313137 	0.0002517054431 	7.640365339e-08 	0.001695081175 	8.56205078e-08 	3.231295844e-06
0.5821279228 	0.002029462999 	0.000300943889 	7.983863207e-08 	0.001726176749 	9.184142548e-08 	3.29057265e-06
0.5883608325 	0.002071688911 	0.0003497428346 	8.312988082e-08 	0.001759768932 	9.792115985e-08 	3.354608687e-06
0.5945249646 	0.002115875819 	0.0003982019581 	8.629477462e-08 	0.001795755796 	1.038529581e-07 	3.423209652e-06
0.6006211498 	0.002161936362 	0.0004464227862 	8.935184819e-08 	0.001834050799 	1.096425965e-07 	3.496210571e-06
0.606650536 	0.00220980615 	0.0004945021971 	9.230221544e-08 	0.0018745803 	1.15284007e-07 	3.573471064e-06
0.6126133893 	0.002259433854 	0.0005425245861 	9.515040764e-08 	0.001917284993 	1.207777939e-07 	3.654878079e-06
0.6185104433 	0.002310783172 	0.0005905703732 	9.790540488e-08 	0.001962117911 	1.261369498e-07 	3.740342081e-06
0.6243427419 	0.002363833231 	0.000638716499 	1.005637683e-07 	0.002009037205 	1.313695839e-07 	3.829783296e-06
0.6301107689 	0.002418569445 	0.0006870257974 	1.031103289e-07 	0.002058007571 	1.364720042e-07 	3.923134425e-06
0.6358151458 	0.002474980467 	0.0007355486485 	1.055362167e-07 	0.002109003503 	1.414550184e-07 	4.020346844e-06
0.6414566659 	0.002533061391 	0.0007843090437 	1.077974269e-07 	0.002161998179 	1.463246311e-07 	4.121369425e-06
0.647036138 	0.002592699909 	0.0008333401047 	1.098858369e-07 	0.002216826327 	1.509336699e-07 	4.225887114e-06
0.65255404 	0.002653692693 	0.0008827095618 	1.118248574e-07 	0.002273210505 	1.551884743e-07 	4.333371028e-06
0.6580110512 	0.00271596143 	0.0009324184309 	1.135122236e-07 	0.00233104602 	1.59276594e-07 	4.443621594e-06
0.6634079914 	0.002779514484 	0.0009824216206 	1.148640314e-07 	0.002390349729 	1.633092011e-07 	4.556670947e-06
0.6687454422 	0.002844333585 	0.001032678346 	1.158406416e-07 	0.002451115097 	1.672439368e-07 	4.672506627e-06
0.6740239929 	0.002910385426 	0.001083124019 	1.163726731e-07 	0.002513335323 	1.710722032e-07 	4.79111567e-06
0.6792442933 	0.002977623734 	0.001133680111 	1.163921575e-07 	0.00257699503 	1.747764784e-07 	4.912468765e-06
0.6844071263 	0.003045990365 	0.001184249231 	1.158168075e-07 	0.002642069641 	1.78332782e-07 	5.03651906e-06
0.6895129981 	0.003115412794 	0.001234709751 	1.145538228e-07 	0.002708526999 	1.817148314e-07 	5.163205257e-06
0.6945625248 	0.003185805012 	0.001284918493 	1.125017873e-07 	0.002776330936 	1.849112842e-07 	5.292458405e-06
0.6995563279 	0.003257070582 	0.001334714296 	1.095340093e-07 	0.002845439624 	1.879161442e-07 	5.424198771e-06
0.7044951269 	0.003329103472 	0.001383912783 	1.054967666e-07 	0.002915804944 	1.907059778e-07 	5.558334629e-06
0.7093794255 	0.003401790064 	0.001432300016 	1.002358697e-07 	0.00298736906 	1.932022562e-07 	5.694755724e-06
0.7142098238 	0.003475010497 	0.001479630666 	9.365100472e-08 	0.003060070733 	1.953289321e-07 	5.833345319e-06
0.7189869164 	0.003548614671 	0.00152566264 	8.595072206e-08 	0.003133905332 	1.971855725e-07 	5.974094587e-06
0.7237113541 	0.003622521721 	0.001571381666 	8.515316308e-08 	0.003208742692 	1.982023206e-07 	6.116755396e-06
0.7283836644 	0.003696669792 	0.001617849121 	6.940973129e-08 	0.003284777725 	2.020967463e-07 	6.2616993e-06
0.7330044134 	0.003770490551 	0.001659236961 	5.039967281e-08 	0.003363743349 	2.056491245e-07 	6.412229727e-06
0.7375741699 	0.003844484833 	0.001695668304 	5.054674237e-08 	0.003446245863 	2.041563544e-07 	6.56950245e-06
0.7420935234 	0.003920022673 	0.001733007568 	5.059607695e-08 	0.003531061224 	2.015646796e-07 	6.731184101e-06
0.7465630238 	0.003997580235 	0.001771108021 	5.061194361e-08 	0.003617232054 	1.990378304e-07 	6.895449653e-06
0.7509832008 	0.004077127353 	0.001809740906 	5.059843302e-08 	0.003703859963 	1.968472524e-07 	7.060586524e-06
0.7553545986 	0.004158257833 	0.001848658557 	5.052651796e-08 	0.003790293066 	1.950223557e-07 	7.225352041e-06
0.7596777566 	0.004240279895 	0.001887582308 	5.036222438e-08 	0.003876008628 	1.935311267e-07 	7.388749726e-06
0.7639532349 	0.004322369427 	0.001926226642 	5.014895728e-08 	0.003960570899 	1.923722755e-07 	7.549948916e-06
0.7681815307 	0.004403892473 	0.001964410269 	4.992045186e-08 	0.004043792945 	1.914333697e-07 	7.708593267e-06
0.7723631646 	0.004484465947 	0.002002055661 	4.965719925e-08 	0.004125684331 	1.905070857e-07 	7.86470101e-06
0.7764986516 	0.004563849598 	0.00203912452 	4.934680997e-08 	0.004206290473 	1.894715374e-07 	8.018358719e-06
0.7805885059 	0.004641912765 	0.002075598928 	4.899050745e-08 	0.004285646933 	1.883021227e-07 	8.169634189e-06
0.7846332395 	0.0047185957 	0.00211146889 	4.859944587e-08 	0.004363762775 	1.870303259e-07 	8.318544694e-06
0.7886333369 	0.0047938756 	0.002146726285 	4.8191386e-08 	0.004440625113 	1.857113414e-07 	8.465065673e-06
0.7925892905 	0.004867745037 	0.002181363206 	4.778537892e-08 	0.00451620946 	1.843975668e-07 	8.609150447e-06
0.7965015875 	0.004940200623 	0.00221537256 	4.739843257e-08 	0.00459049125 	1.831277747e-07 	8.750752184e-06
0.8003707124 	0.005011240011 	0.002248749218 	4.704475715e-08 	0.004663452385 	1.819289032e-07 	8.889836386e-06
0.8041971471 	0.005080863053 	0.002281490962 	4.673505611e-08 	0.004735083917 	1.808168619e-07 	9.026385995e-06
0.8079813545 	0.005149073271 	0.002313599071 	4.647894933e-08 	0.004805387747 	1.798069463e-07 	9.160404634e-06
0.8117238006 	0.00521588009 	0.002345078478 	4.628531752e-08 	0.004874375189 	1.789153005e-07 	9.291913874e-06
0.8154249461 	0.005281300011 	0.002375937652 	4.616208729e-08 	0.004942065622 	1.781575197e-07 	9.420950652e-06
0.819085247 	0.005345356715 	0.002406188348 	4.611628235e-08 	0.005008485478 	1.77548223e-07 	9.547565357e-06
0.8227051594 	0.005408081139 	0.002435845223 	4.61534214e-08 	0.005073666403 	1.770987014e-07 	9.671818316e-06
0.8262851241 	0.005469510417 	0.002464925507 	4.627768079e-08 	0.00513764512 	1.768173424e-07 	9.793779534e-06
0.8298255813 	0.005529686767 	0.002493448733 	4.649267044e-08 	0.00520046344 	1.767125624e-07 	9.913528711e-06
0.8333269671 	0.005588657017 	0.002521436415 	4.680050785e-08 	0.005262167018 	1.767897095e-07 	1.003115288e-05
0.8367897125 	0.005646471463 	0.002548911757 	4.720161493e-08 	0.00532280544 	1.770503823e-07 	1.014674657e-05
0.8402142449 	0.005703183202 	0.00257589931 	4.769455448e-08 	0.005382431204 	1.774922477e-07 	1.026040985e-05