0.4642857292 	2.66476983e-08 	-3.39811531e-11 	6.273658399e-15 	2.660097334e-08 	-2.185598085e-12 	5.070884854e-11
0.4642857292 	2.66476983e-08 	-3.39811531e-11 	6.273658399e-15 	2.660097334e-08 	-2.185598085e-12 	5.070884854e-11
0.4644580585 	2.9763864e-07 	-1.470554228e-09 	2.337887331e-13 	2.972440735e-07 	-2.007765728e-11 	5.666298188e-10
0.4646303886 	1.645470192e-06 	-1.897256728e-08 	2.771575689e-12 	1.644551267e-06 	-1.020388138e-10 	3.134971795e-09
0.4648027194 	5.451807017e-06 	-1.177496627e-07 	1.608117546e-11 	5.455138212e-06 	-3.185369957e-10 	1.039900961e-08
0.464975051 	1.343032316e-05 	-4.774398425e-07 	6.134121969e-11 	1.346024421e-05 	-7.47749405e-10 	2.565896654e-08
0.4651473832 	2.745492057e-05 	-1.468669615e-06 	1.778295635e-10 	2.757305575e-05 	-1.461338155e-09 	5.256190779e-08
0.4653197161 	4.947991514e-05 	-3.728631978e-06 	4.25231166e-10 	4.981763731e-05 	-2.513891167e-09 	9.49662628e-08
0.4654920495 	8.147133745e-05 	-8.221743787e-06 	8.813551437e-10 	8.226717168e-05 	-3.932383581e-09 	1.568240942e-07
0.4656643834 	0.0001253273543 	-1.626746349e-05 	1.634197016e-09 	0.000126967516 	-5.705946863e-09 	2.420353743e-07
0.4658367177 	0.0001827794905 	-2.951435148e-05 	2.768251644e-09 	0.0001858353946 	-7.777490976e-09 	3.542539123e-07
0.4660090525 	0.0002552739772 	-4.984184175e-05 	4.346638827e-09 	0.0002605284624 	-1.003950754e-08 	4.966396595e-07
0.4661813876 	0.0003438405324 	-7.918248427e-05 	6.392602304e-09 	0.000352293741 	-1.233656984e-08 	6.715697853e-07
0.466353723 	0.0004489645888 	-0.0001192783203 	8.875455033e-09 	0.0004618120208 	-1.447629084e-08 	8.803420657e-07
0.4665260587 	0.0005704861339 	-0.0001714108725 	1.170602902e-08 	0.0005890659418 	-1.624865572e-08 	1.122923408e-06
0.4666983945 	0.000707550365 	-0.0002361644268 	1.474451877e-08 	0.0007332637889 	-1.745109461e-08 	1.397804582e-06
0.4668707305 	0.0008586293255 	-0.0003132846093 	1.781973782e-08 	0.0008928452799 	-1.791440549e-08 	1.702011257e-06
0.4670430666 	0.001021619495 	-0.00040167266 	2.075488002e-08 	0.001065579539 	-1.752391286e-08 	2.031290764e-06
0.4672154027 	0.001194002247 	-0.0004995167501 	2.33928768e-08 	0.001248743867 	-1.623143895e-08 	2.380452881e-06
0.4673877388 	0.001373044747 	-0.0006045235874 	2.561515719e-08 	0.001439341802 	-1.405289407e-08 	2.74378552e-06
0.4675600748 	0.001555989382 	-0.0007144472113 	2.741990582e-08 	0.001634342002 	-1.10513144e-08 	3.115510097e-06
0.4677324107 	0.001740621753 	-0.0008218829169 	2.744817964e-08 	0.001830705155 	-7.560347294e-09 	3.489832844e-06
0.4679047464 	0.001925576767 	-0.0009174098953 	2.703798936e-08 	0.002026046356 	-4.23698894e-09 	3.862207465e-06
0.4680770819 	0.002109558794 	-0.00100504706 	2.763381857e-08 	0.002219508117 	-9.598155701e-10 	4.230999352e-06
0.4682494171 	0.002291308955 	-0.00109161387 	2.796472369e-08 	0.002410567254 	2.726195045e-09 	4.595211169e-06
0.468421752 	0.002469928009 	-0.001176684856 	2.804376102e-08 	0.002598300377 	6.769296873e-09 	4.953082679e-06
0.4685940865 	0.002644656875 	-0.001259900698 	2.788919874e-08 	0.002781926329 	1.111762765e-08 	5.303124779e-06
0.4687664205 	0.002814887583 	-0.001340970791 	2.752157404e-08 	0.002960797463 	1.571514197e-08 	5.644102876e-06
0.4689387541 	0.002980144442 	-0.001419668426 	2.696334445e-08 	0.00313441217 	2.050608628e-08 	5.975060762e-06
0.4691110871 	0.003140074249 	-0.001495825946 	2.623778721e-08 	0.003302403108 	2.543729324e-08 	6.29529818e-06
0.4692834196 	0.003294443322 	-0.001569331965 	2.536795582e-08 	0.003464523204 	3.046095534e-08 	6.604344141e-06
0.4694557514 	0.003463374387 	-0.001649767415 	2.424396254e-08 	0.003641894636 	3.628645702e-08 	6.942463389e-06
0.4697235139 	0.003664417897 	-0.001745488847 	2.263765458e-08 	0.003852938895 	4.353612806e-08 	7.344772404e-06
0.469996307 	0.003875432653 	-0.001845955131 	2.068773495e-08 	0.004074406974 	5.159900033e-08 	7.766952115e-06
0.4702742251 	0.004076686941 	-0.001941772313 	1.856978039e-08 	0.004285569272 	5.964177765e-08 	8.169486145e-06
0.4705573642 	0.004267719465 	-0.002032725802 	1.632784433e-08 	0.004485931331 	6.7550282e-08 	8.551431918e-06
0.470845822 	0.004448252081 	-0.002118696525 	1.39984075e-08 	0.004675205429 	7.522785784e-08 	8.912240955e-06
0.4711396981 	0.004618170997 	-0.002199654013 	1.160843216e-08 	0.004853277675 	8.259108662e-08 	9.251696146e-06
0.471439094 	0.004777497001 	-0.002275646135 	9.174551802e-09 	0.005020175285 	8.956748568e-08 	9.569849379e-06
0.4717441131 	0.004926357337 	-0.002346789594 	6.703220765e-09 	0.005176038932 	9.609462647e-08 	9.866968809e-06
0.4720548606 	0.005064962631 	-0.002413261494 	4.191534523e-09 	0.005321099797 	1.021218086e-07 	1.014349514e-05
0.4723714436 	0.005193593133 	-0.002475244435 	1.75425734e-09 	0.005455660997 	1.076059984e-07 	1.040000618e-05
0.4726939714 	0.005312642008 	-0.002532044799 	-2.789136443e-10 	0.005580043998 	1.124765974e-07 	1.063711475e-05
0.473022555 	0.00542252095 	-0.002583791278 	-1.969631609e-09 	0.005694678578 	1.16735428e-07 	1.085564012e-05
0.4733573078 	0.005523609941 	-0.002631468965 	-3.577902415e-09 	0.005800054387 	1.204254033e-07 	1.10565157e-05
0.473698345 	0.005616319393 	-0.002675247186 	-5.08453831e-09 	0.005896600586 	1.23533543e-07 	1.124055959e-05
0.4740457841 	0.005701062557 	-0.002715302508 	-6.473626243e-09 	0.00598475034 	1.260539569e-07 	1.140859752e-05
0.4743997447 	0.005778255428 	-0.002751817255 	-7.733171266e-09 	0.006064939933 	1.279899046e-07 	1.156146118e-05
0.4747603486 	0.005848312529 	-0.002784976772 	-8.855080927e-09 	0.006137606381 	1.29350698e-07 	1.169998362e-05
0.4751277197 	0.005911686181 	-0.002814986815 	-9.840589806e-09 	0.006203224395 	1.301640484e-07 	1.182506979e-05
0.4755030077 	0.005968831113 	-0.002842056122 	-1.069249018e-08 	0.006262268745 	1.304546484e-07 	1.193762474e-05
0.4758860811 	0.006020097904 	-0.002866346173 	-1.140649468e-08 	0.006315109737 	1.302373153e-07 	1.203835435e-05
0.4762763472 	0.006065791864 	-0.002887997964 	-1.197825478e-08 	0.006362068832 	1.295270597e-07 	1.212787144e-05
0.4766739408 	0.006106257336 	-0.002907171745 	-1.241090703e-08 	0.00640350618 	1.283501041e-07 	1.220686254e-05
0.4770789995 	0.006141849464 	-0.002924033863 	-1.271257731e-08 	0.006439794413 	1.267439168e-07 	1.2276038e-05
0.4774916633 	0.006172909057 	-0.002938744368 	-1.289277622e-08 	0.006471290391 	1.247468548e-07 	1.233607809e-05
0.4779120749 	0.006199762171 	-0.00295145675 	-1.296203354e-08 	0.006498335309 	1.223980156e-07 	1.238763322e-05
0.4783403796 	0.006222720013 	-0.002962317778 	-1.293159667e-08 	0.006521254637 	1.197368172e-07 	1.243132383e-05
0.4787767255 	0.00624207908 	-0.002971467481 	-1.281319529e-08 	0.006540358284 	1.168025528e-07 	1.246774069e-05
0.4792212634 	0.006258121963 	-0.002979039458 	-1.261924015e-08 	0.006555941457 	1.136349242e-07 	1.249744655e-05
0.4796741471 	0.006271119325 	-0.002985161759 	-1.236254852e-08 	0.006568286732 	1.102735853e-07 	1.252098007e-05
0.480135533 	0.006281327841 	-0.002989955872 	-1.205503586e-08 	0.006577661953 	1.067553837e-07 	1.253885185e-05
0.4806055808 	0.006288985965 	-0.002993534692 	-1.170719661e-08 	0.006584315892 	1.031133312e-07 	1.255153611e-05
0.4810844527 	0.006294314961 	-0.002996002981 	-1.132849432e-08 	0.006588479369 	9.937763074e-08 	1.255947285e-05
0.4815723144 	0.006297520924 	-0.002997458311 	-1.092752307e-08 	0.006590367399 	9.557616085e-08 	1.256307196e-05
0.4820693345 	0.006298794979 	-0.00299799115 	-1.05119922e-08 	0.006590179445 	9.17345072e-08 	1.256271367e-05
0.4825756847 	0.006298313498 	-0.00299768496 	-1.008872827e-08 	0.006588099689 	8.787600766e-08 	1.255874907e-05
0.4830915401 	0.006296238327 	-0.002996616301 	-9.663691318e-09 	0.006584297313 	8.402180572e-08 	1.255150069e-05
0.483617079 	0.006292717029 	-0.002994854955 	-9.242001719e-09 	0.006578926847 	8.019091978e-08 	1.254126309e-05
0.4841524829 	0.0062878832 	-0.002992464065 	-8.827973372e-09 	0.006572128459 	7.640040294e-08 	1.252830347e-05
0.4846979369 	0.006281857025 	-0.002989500303 	-8.425154341e-09 	0.006564027816 	7.266559651e-08 	1.251286139e-05
0.4852536295 	0.006274744847 	-0.002986013973 	-8.036364196e-09 	0.006554737982 	6.899981433e-08 	1.249515239e-05
0.4858197528 	0.006266636653 	-0.002982047987 	-7.663534724e-09 	0.006544357704 	6.541270827e-08 	1.247536469e-05
0.4863971602 	0.006257606013 	-0.002977635928 	-7.306219041e-09 	0.006532956568 	6.19051487e-08 	1.245363096e-05
0.4869872469 	0.006247715467 	-0.00297280775 	-6.963044355e-09 	0.006520605306 	5.847701834e-08 	1.243008602e-05
0.4875884075 	0.006237031138 	-0.002967595223 	-6.638815727e-09 	0.006507380847 	5.51531476e-08 	1.240487653e-05
0.4882008498 	0.006225608578 	-0.002962023769 	-6.334215071e-09 	0.006493339126 	5.193949113e-08 	1.23781091e-05
0.4888247852 	0.006213481604 	-0.002956109737 	-6.048708783e-09 	0.00647852217 	4.88407621e-08 	1.234986387e-05
0.4894604292 	0.006200674858 	-0.002949864621 	-5.781495153e-09 	0.00646295905 	4.585918469e-08 	1.232019624e-05
0.4901080013 	0.006187202537 	-0.002943295064 	-5.531488945e-09 	0.006446668982 	4.299609539e-08 	1.228914284e-05
0.4907677251 	0.00617306853 	-0.002936402877 	-5.297380384e-09 	0.006429661191 	4.025203856e-08 	1.225672126e-05
0.4914398285 	0.006158266325 	-0.002929184977 	-5.077691912e-09 	0.006411934687 	3.762677236e-08 	1.222292962e-05
0.4921245435 	0.006142778673 	-0.002921633225 	-4.870826963e-09 	0.006393477926 	3.511934915e-08 	1.21877459e-05
0.4928221066 	0.006126577028 	-0.002913734161 	-4.675111527e-09 	0.006374268223 	3.272819889e-08 	1.215112687e-05
0.4935327586 	0.006109620775 	-0.002905468639 	-4.488826126e-09 	0.006354270881 	3.045116428e-08 	1.211300638e-05
0.494256745 	0.006091856378 	-0.002896811389 	-4.310225028e-09 	0.006333437836 	2.828542881e-08 	1.20732928e-05
0.4949943156 	0.006073216922 	-0.002887730599 	-4.1375411e-09 	0.006311705226 	2.622721065e-08 	1.203186441e-05
0.4957457251 	0.006053621215 	-0.002878187599 	-3.968960478e-09 	0.006288992308 	2.427117906e-08 	1.198856727e-05
0.496511233 	0.006032967399 	-0.002868135279 	-3.802425204e-09 	0.00626520336 	2.240962726e-08 	1.194321893e-05
0.4972915864 	0.006011129599 	-0.002857512492 	-3.63461552e-09 	0.006240192204 	2.062642397e-08 	1.189554071e-05
0.4980891876 	0.005987990627 	-0.002846259126 	-3.460681047e-09 	0.006213788753 	1.888813099e-08 	1.18452084e-05
0.4989017502 	0.005960340234 	-0.00283280865 	-3.296963883e-09 	0.006182268377 	1.715567013e-08 	1.17851218e-05
0.5001491012 	0.005924923973 	-0.002815575363 	-2.998336649e-09 	0.006141891395 	1.468323147e-08 	1.170815205e-05
0.5014103017 	0.00588494604 	-0.002796122898 	-2.691102623e-09 	0.006096351303 	1.229612977e-08 	1.162133998e-05
0.502685506 	0.005843609917 	-0.002776007932 	-2.351868583e-09 	0.006049311351 	1.00165386e-08 	1.153166875e-05
0.5039748697 	0.005800879588 	-0.002755213253 	-1.973895113e-09 	0.00600075244 	7.836909112e-09 	1.143910197e-05
0.5052785505 	0.005756729553 	-0.002733729061 	-1.551701041e-09 	0.005950678101 	5.749127217e-09 	1.134364637e-05
0.5065967078 	0.005711140126 	-0.002711549123 	-1.080706697e-09 	0.00589909937 	3.742771161e-09 	1.124532297e-05
0.5079295026 	0.005664066678 	-0.00268865049 	-5.568060434e-10 	0.005845964116 	1.806098944e-09 	1.114403241e-05
0.5092206927 	0.005617636731 	-0.002666069354 	6.02117531e-08 	0.005793683349 	-1.37407927e-07 	1.104437073e-05
0.5092813988 	0.005615453043 	-0.002665007391 	-2.417800203e-11 	0.005791224825 	7.315020806e-11 	1.10396841e-05
0.5106484713 	0.005565315773 	-0.002640631123 	-5.931886524e-10 	0.005734924216 	1.680397347e-09 	1.093235949e-05
0.5120307241 	0.005513688177 	-0.002615535794 	-1.222740992e-09 	0.005677091559 	3.253997616e-09 	1.082211438e-05
0.5134283261 	0.005460551932 	-0.002589714749 	-1.916015329e-09 	0.005617723979 	4.807379066e-09 	1.070894327e-05
0.5148414483 	0.005405883092 	-0.002563157359 	-2.676245569e-09 	0.005556802733 	6.354274197e-09 	1.059281044e-05
0.5162702635 	0.00534965305 	-0.002535850995 	-3.506780486e-09 	0.005494304795 	7.908700243e-09 	1.0473672e-05
0.5177149467 	0.005291819233 	-0.002507777228 	-4.41096438e-09 	0.005430197341 	9.48447065e-09 	1.035146538e-05
0.5191764905 	0.005232301746 	-0.002478896849 	-5.392036265e-09 	0.005364387682 	1.109380155e-08 	1.022601388e-05
0.5206581837 	0.005171026347 	-0.002449176541 	-6.454868439e-09 	0.005296810535 	1.275353581e-08 	1.009719305e-05
0.5221563259 	0.005107998051 	-0.002418621122 	-7.600301607e-09 	0.00522748644 	1.447263376e-08 	9.965042059e-06
0.5236711006 	0.005043213906 	-0.002387229397 	-8.833692452e-09 	0.005156412388 	1.626919593e-08 	9.829555162e-06
0.525202693 	0.004976620239 	-0.00235497856 	-1.0159669e-08 	0.005083548579 	1.816232325e-08 	9.690656491e-06
0.5267512907 	0.004908162208 	-0.002321843761 	-1.158313801e-08 	0.005008843477 	2.016952728e-08 	9.548247803e-06
0.5283170833 	0.004837772941 	-0.002287795862 	-1.310910418e-08 	0.004932241816 	2.230845994e-08 	9.402223747e-06
0.5299006786 	0.00476533994 	-0.002252780636 	-1.474100239e-08 	0.004853618676 	2.459043153e-08 	9.25234619e-06
0.5315060786 	0.004690746512 	-0.002216745273 	-1.648529465e-08 	0.004772867219 	2.703534484e-08 	9.098411468e-06
0.5331292981 	0.004613969173 	-0.002179682193 	-1.834513925e-08 	0.004689983725 	2.9662132e-08 	8.940412493e-06
0.5347705361 	0.004534975833 	-0.002141577383 	-2.032924006e-08 	0.00460494027 	3.24982914e-08 	8.778296031e-06
0.5364299936 	0.004453668022 	-0.002102388399 	-2.244411342e-08 	0.004517659493 	3.557262515e-08 	8.611914611e-06
0.5381078739 	0.004369935718 	-0.002062066915 	-2.469598329e-08 	0.004428048133 	3.891086207e-08 	8.441090453e-06
0.5398043827 	0.004283626124 	-0.002020543141 	-2.708806173e-08 	0.004335959605 	4.253032315e-08 	8.265544125e-06
0.541522211 	0.004194544877 	-0.00197772784 	-2.962234695e-08 	0.004241203371 	4.644292353e-08 	8.084912407e-06
0.543261121 	0.004102553886 	-0.001933558821 	-3.229612473e-08 	0.004143644197 	5.064732435e-08 	7.898937505e-06
0.5450193315 	0.004007591875 	-0.001888005271 	-3.508339276e-08 	0.004043185838 	5.507135283e-08 	7.707435952e-06
0.546797058 	0.00390974571 	-0.001841099785 	-3.78925733e-08 	0.003939829242 	5.946600173e-08 	7.510409555e-06
0.5485945187 	0.003809464576 	-0.001793035301 	-4.059997788e-08 	0.003833863688 	6.345635998e-08 	7.308409756e-06
0.550411934 	0.003707499858 	-0.001744130483 	-4.313987075e-08 	0.003725775169 	6.671692483e-08 	7.102362999e-06
0.5522516129 	0.003604737375 	-0.001694749825 	-4.550449906e-08 	0.003616086526 	6.896916941e-08 	6.893265958e-06
0.554113947 	0.00350227986 	-0.001645343835 	-4.769326282e-08 	0.003505467434 	6.988161694e-08 	6.682395223e-06
0.555996951 	0.0034014591 	-0.001596461877 	-4.970913153e-08 	0.003394812862 	6.913134897e-08 	6.471456855e-06
0.557900856 	0.003303580336 	-0.00154867599 	-5.155556981e-08 	0.003285273013 	6.670936539e-08 	6.262643457e-06
0.5598258958 	0.003209515481 	-0.001502482687 	-5.321403478e-08 	0.003178391066 	6.366528183e-08 	6.05889676e-06
0.561772307 	0.0031191262 	-0.001456779711 	-4.365156615e-08 	0.003076062536 	6.172952975e-08 	5.863830142e-06
0.5637436946 	0.003031179507 	-0.001398313758 	-3.748005713e-08 	0.002979680781 	6.067178325e-08 	5.680099728e-06
0.565737713 	0.002944407656 	-0.001334070525 	-4.234674866e-08 	0.002887647064 	5.918788808e-08 	5.504657884e-06
0.5677538642 	0.002858802392 	-0.001276735695 	-4.243667665e-08 	0.002797764668 	5.707519945e-08 	5.333317055e-06
0.5697923962 	0.002774896904 	-0.001219970795 	-4.160996935e-08 	0.002709824498 	5.445883608e-08 	5.16567865e-06
0.5718535597 	0.002692854508 	-0.001163691786 	-4.005267734e-08 	0.002623838231 	5.150409072e-08 	5.001764926e-06
0.5739395723 	0.002612786665 	-0.001107890834 	-3.799868312e-08 	0.00253988278 	4.826895268e-08 	4.841722503e-06
0.5760506688 	0.00253483339 	-0.001052577903 	-3.566183353e-08 	0.002458102852 	4.472155808e-08 	4.68582723e-06
0.578185199 	0.002459181343 	-0.000997790003 	-3.319866261e-08 	0.002378657819 	4.084080452e-08 	4.534382917e-06
0.5803434258 	0.002385995751 	-0.000943543371 	-3.069256861e-08 	0.00230169007 	3.660964851e-08 	4.387660995e-06
0.5825256149 	0.002315415082 	-0.0008898250843 	-2.81728442e-08 	0.002227311858 	3.19929858e-08 	4.245875451e-06
0.5847338703 	0.002247571381 	-0.0008366101606 	-2.563774834e-08 	0.002155629213 	2.694792141e-08 	4.109228406e-06
0.5869684579 	0.002182632061 	-0.0007839023122 	-2.308076904e-08 	0.002086787577 	2.14436071e-08 	3.977997114e-06
0.5892278534 	0.002120791837 	-0.0007317337469 	-2.050469532e-08 	0.002020953082 	1.546199289e-08 	3.852498268e-06
0.5915123353 	0.00206222093 	-0.0006801209606 	-1.790200571e-08 	0.001958274127 	8.987896621e-09 	3.733014759e-06
0.5938221857 	0.002007055209 	-0.0006290518212 	-1.525210596e-08 	0.001898855604 	1.99668109e-09 	3.619746541e-06
0.5961603287 	0.001955414744 	-0.0005785072351 	-1.252598657e-08 	0.001842791029 	-5.528947171e-09 	3.512871879e-06
0.5985251933 	0.001907432876 	-0.0005285018011 	-9.708104492e-09 	0.001790186767 	-1.357920687e-08 	3.412593535e-06
0.6009163178 	0.001863220464 	-0.0004790588986 	-6.790222382e-09 	0.001741120703 	-2.213363875e-08 	3.31905998e-06
0.6033339976 	0.001822834591 	-0.0004301777602 	-3.750937159e-09 	0.001695620207 	-3.11678841e-08 	3.232323388e-06
0.6057794613 	0.001786290129 	-0.000381841615 	-5.605298802e-10 	0.001653659189 	-4.06641832e-08 	3.152334025e-06
0.6082543018 	0.001753578679 	-0.0003340447087 	2.807754304e-09 	0.001615183626 	-5.059916941e-08 	3.078988907e-06
0.6107566274 	0.001724678909 	-0.0002868096457 	6.363483282e-09 	0.001580110015 	-6.094584109e-08 	3.012128857e-06
0.6132867477 	0.00169954121 	-0.000240156291 	1.011753821e-08 	0.001548306187 	-7.170273759e-08 	2.951501922e-06
0.6158450817 	0.00167810097 	-0.0001940833118 	1.408915426e-08 	0.001519590716 	-8.29243082e-08 	2.896762252e-06
0.6184346228 	0.001660303738 	-0.0001486004714 	1.82899251e-08 	0.001493773846 	-9.455340938e-08 	2.847548123e-06
0.6210529287 	0.00164614384 	-0.0001037136495 	2.225619669e-08 	0.001470781168 	-1.050051841e-07 	2.80371769e-06
0.6237003239 	0.001635618287 	-5.934539096e-05 	2.620043996e-08 	0.001450790235 	-1.159141307e-07 	2.765609415e-06
0.6263771365 	0.001628585319 	-1.544440931e-05 	3.021676151e-08 	0.001433989836 	-1.267183594e-07 	2.733583183e-06
0.6290862714 	0.001624763607 	2.794158619e-05 	3.434760818e-08 	0.001420287047 	-1.369826952e-07 	2.70746186e-06
0.6318255697 	0.001623856914 	7.074890977e-05 	3.854592347e-08 	0.001409439486 	-1.466503615e-07 	2.686783394e-06
0.6345953098 	0.001625599103 	0.0001129364471 	4.276953262e-08 	0.001401207934 	-1.557315863e-07 	2.671091768e-06
0.6373960678 	0.001629749299 	0.0001544871502 	4.699358323e-08 	0.001395378522 	-1.64248996e-07 	2.659979288e-06
0.6402301167 	0.001636093085 	0.0001953872475 	5.119653333e-08 	0.00139176536 	-1.722295739e-07 	2.653091598e-06
0.6430956648 	0.001644438374 	0.0002356085735 	5.534974544e-08 	0.001390204311 	-1.797045075e-07 	2.650115803e-06
0.6459930683 	0.001654614602 	0.0002751286973 	5.94220237e-08 	0.001390548406 	-1.866951425e-07 	2.650771746e-06
0.6489235108 	0.00166647032 	0.0003139431634 	6.339488182e-08 	0.001392677017 	-1.932154325e-07 	2.654829469e-06
0.6518878645 	0.00167987385 	0.0003520449861 	6.724979525e-08 	0.001396481707 	-1.992962026e-07 	2.662082266e-06
0.6548851782 	0.001694707306 	0.000389419687 	7.095871471e-08 	0.001401865353 	-2.049628329e-07 	2.672344992e-06
0.6579158249 	0.001710868031 	0.0004260624367 	7.449332347e-08 	0.001408747543 	-2.102274465e-07 	2.685464357e-06
0.6609817596 	0.001728266939 	0.0004619778331 	7.782839716e-08 	0.001417065442 	-2.151009038e-07 	2.701320584e-06
0.6640821389 	0.001746824596 	0.0004971601584 	8.092767091e-08 	0.001426759058 	-2.196110842e-07 	2.719799311e-06
0.6672170054 	0.001766471918 	0.0005316007176 	8.373182735e-08 	0.001437775183 	-2.237677039e-07 	2.740799107e-06
0.6703874269 	0.001787146437 	0.0005652989968 	8.617135435e-08 	0.001450082814 	-2.275638464e-07 	2.764260873e-06
0.673594155 	0.001808794022 	0.0005982458812 	8.814805048e-08 	0.001463652002 	-2.31011319e-07 	2.790127518e-06
0.6768365625 	0.001831362919 	0.0006304161602 	8.950806491e-08 	0.001478455267 	-2.341067467e-07 	2.818346655e-06
0.6801152063 	0.001854802404 	0.0006617779183 	9.003408945e-08 	0.001494483993 	-2.368170837e-07 	2.84890186e-06
0.6834316982 	0.001879062226 	0.0006922815205 	8.941821325e-08 	0.001511739754 	-2.391042619e-07 	2.881796137e-06
0.6867851015 	0.001904084133 	0.0007218371565 	8.72056998e-08 	0.001530224914 	-2.409169643e-07 	2.917033991e-06
0.6901758354 	0.001929799309 	0.0007503118299 	8.272820809e-08 	0.001549960171 	-2.421709445e-07 	2.954654875e-06
0.6936055424 	0.001956120898 	0.000777509911 	7.501244768e-08 	0.001570989542 	-2.426868222e-07 	2.994742701e-06
0.6970735343 	0.001982925366 	0.0008031333536 	6.289803012e-08 	0.001593378951 	-2.419243255e-07 	3.037423137e-06
0.700580145 	0.002010056501 	0.0008268782357 	4.870551141e-08 	0.001617220972 	-2.406881718e-07 	3.082872655e-06
0.7041267955 	0.002037495437 	0.0008489252815 	2.998677963e-08 	0.001642500384 	-2.376028206e-07 	3.131062242e-06
0.7077131112 	0.00206522071 	0.0008675753911 	-9.666579553e-09 	0.001669815224 	-2.258132094e-07 	3.183131919e-06
0.7113393773 	0.002093598311 	0.0008825496323 	-3.683773069e-08 	0.001699308906 	-2.152520307e-07 	3.239355074e-06
0.7150069301 	0.002123225605 	0.0008967813616 	-3.454537412e-08 	0.001730118873 	-2.126157856e-07 	3.298087433e-06
0.7187154514 	0.002154233462 	0.0009115075927 	-3.219770977e-08 	0.001761922478 	-2.100084587e-07 	3.358713944e-06
0.7224653199 	0.002186621323 	0.0009267580956 	-2.989006309e-08 	0.001794764216 	-2.076572302e-07 	3.421319425e-06
0.7262578107 	0.00222043091 	0.0009425618285 	-2.762667249e-08 	0.001828693888 	-2.055519441e-07 	3.48599881e-06
0.7300925709 	0.002255614088 	0.0009589077153 	-2.537844892e-08 	0.001863690407 	-2.035660464e-07 	3.552711901e-06
0.7339274599 	0.002291889827 	0.000975690902 	-2.313005581e-08 	0.001899556836 	-2.016297306e-07 	3.621083285e-06
0.7377205243 	0.00232894592 	0.0009927940262 	-2.086862745e-08 	0.001936075095 	-1.996933855e-07 	3.690697235e-06
0.7414716977 	0.002366677858 	0.001010183729 	-1.857727656e-08 	0.001973191754 	-1.977095862e-07 	3.761451904e-06
0.7451816807 	0.002405088373 	0.001027870596 	-1.606127823e-08 	0.002010940907 	-1.935274909e-07 	3.83341228e-06
0.7488510254 	0.002444189822 	0.001045864257 	-1.335534798e-08 	0.002049347858 	-1.868086117e-07 	3.906626604e-06
0.7524798606 	0.002483994685 	0.001064175207 	-1.068042303e-08 	0.002088441951 	-1.799738063e-07 	3.981150812e-06
0.7560688559 	0.002524508916 	0.00108281937 	-8.024817023e-09 	0.002128277945 	-1.729898485e-07 	4.057089288e-06
0.7596184549 	0.00256573778 	0.001101815085 	-5.381004885e-09 	0.002168920821 	-1.658264906e-07 	4.134565905e-06
0.7631288782 	0.002607683414 	0.00112118467 	-2.743417897e-09 	0.002210453211 	-1.584658344e-07 	4.213738185e-06
0.7666007261 	0.002650346655 	0.00114095756 	-1.045171672e-10 	0.00225298573 	-1.508895152e-07 	4.294816986e-06
0.7700344366 	0.00269373952 	0.001161167116 	2.538605017e-09 	0.002296635493 	-1.430938615e-07 	4.378025567e-06
0.7734302599 	0.002737887502 	0.001181850517 	5.184020419e-09 	0.002341524076 	-1.350993456e-07 	4.463595681e-06
0.7767887125 	0.00278283243 	0.001203048844 	7.82468444e-09 	0.002387776007 	-1.269419714e-07 	4.551764717e-06
0.7801102773 	0.002828640601 	0.001224801707 	1.044264649e-08 	0.00243549193 	-1.186814047e-07 	4.642724529e-06
0.7833951996 	0.002875398389 	0.001247144456 	1.301243751e-08 	0.002484741425 	-1.103987283e-07 	4.736607755e-06
0.7866439137 	0.002923206462 	0.001270107375 	1.550590836e-08 	0.002535564333 	-1.021788201e-07 	4.833490343e-06
0.7898569628 	0.002972176694 	0.001293711852 	1.78921941e-08 	0.002587957202 	-9.410788713e-08 	4.933365713e-06
0.7930345721 	0.003022418826 	0.001317968206 	2.014251871e-08 	0.002641874646 	-8.626894191e-08 	5.036147345e-06
0.7961771359 	0.003074027428 	0.001342876619 	2.223517486e-08 	0.002697243017 	-7.872987309e-08 	5.141694851e-06
0.7992851568 	0.003127073141 	0.001368426708 	2.41554545e-08 	0.002753965132 	-7.154149452e-08 	5.249822966e-06
0.8023589322 	0.003181594196 	0.001394596868 	2.589495059e-08 	0.002811924204 	-6.474025767e-08 	5.360309067e-06
0.805398811 	0.00323758979 	0.001421356721 	2.745373332e-08 	0.002870999872 	-5.834651163e-08 	5.472923709e-06
0.8084052021 	0.003295020479 	0.001448669642 	2.883809109e-08 	0.002931078495 	-5.236368427e-08 	5.587450263e-06
0.8113785157 	0.003353815117 	0.001476493734 	3.005581504e-08 	0.002992050913 	-4.678726755e-08 	5.703680638e-06
0.8143190433 	0.003413875077 	0.001504784244 	3.111676085e-08 	0.003053819514 	-4.160716987e-08 	5.821428759e-06
0.8172271484 	0.003475082437 	0.001533496344 	3.203149023e-08 	0.003116303026 	-3.680735968e-08 	5.9405397e-06
0.8201032429 	0.003537310332 	0.001562586177 	3.280868786e-08 	0.003179431569 	-3.237126781e-08 	6.060880248e-06
0.8229476498 	0.003600429702 	0.001592010893 	3.345385144e-08 	0.003243140902 	-2.828450592e-08 	6.182327943e-06
0.8257606958 	0.003664312692 	0.001621729179 	3.397189355e-08 	0.003307372409 	-2.45338186e-08 	6.304771049e-06
0.8285427279 	0.003728835723 	0.001651701287 	3.436664844e-08 	0.003372070719 	-2.110546332e-08 	6.428104009e-06
0.8312941389 	0.003793881814 	0.001681887717 	3.463990474e-08 	0.003437175844 	-1.798822819e-08 	6.552212472e-06
0.8340152199 	0.003859338255 	0.001712247984 	3.47924214e-08 	0.00350262051 	-1.517245768e-08 	6.676968195e-06
0.836706302 	0.003925093609 	0.001742740169 	3.482598963e-08 	0.00356833148 	-1.264790361e-08 	6.802231568e-06
0.8393677168 	0.003991035798 	0.001773320323 	3.474277019e-08 	0.003634228681 	-1.040336762e-08 	6.927849947e-06
0.841999829 	0.004057050896 	0.001803941548 	3.454442489e-08 	0.003700221952 	-8.428490206e-09 	7.053651465e-06
0.8446029242 	0.004123021823 	0.001834554078 	3.423360213e-08 	0.003766212711 	-6.71213098e-09 	7.179448191e-06
0.8471773226 	0.004188830957 	0.001865107329 	3.381610209e-08 	0.003832100171 	-5.239276949e-09 	7.305048002e-06
0.8497233412 	0.004254367327 	0.001895552963 	3.330059126e-08 	0.003897787033 	-3.990443203e-09 	7.430265418e-06
0.8522413154 	0.004319533098 	0.001925847352 	3.269698629e-08 	0.003963183273 	-2.944551002e-09 	7.554928827e-06
0.8547315346 	0.004384244345 	0.001955952094 	3.201474219e-08 	0.004028207532 	-2.082236628e-09 	7.678883139e-06
0.8571943021 	0.004448426671 	0.001985832844 	3.126309291e-08 	0.004092786675 	-1.386491388e-09 	7.801988935e-06
0.8596299208 	0.004512010908 	0.00201545757 	3.04502331e-08 	0.004156852385 	-8.421360091e-10 	7.924115983e-06
0.8620386999 	0.004574930611 	0.002044795283 	2.95833111e-08 	0.004220337969 	-4.357551288e-10 	8.045137151e-06
0.8644209325 	0.004637120981 	0.002073815535 	2.866830055e-08 	0.004283177269 	-1.54828807e-10 	8.164926323e-06
0.8667769039 	0.004698518309 	0.002102488643 	2.771199331e-08 	0.004345306417 	1.372515079e-11 	8.283361745e-06
0.8691069039 	0.004759060448 	0.002130786058 	2.672127314e-08 	0.004406665001 	8.361647851e-11 	8.400328261e-06
0.8714112196 	0.004818688123 	0.002158680558 	2.570286571e-08 	0.004467195324 	6.828298767e-11 	8.51571588e-06
0.8736901437 	0.004877345388 	0.00218614641 	2.466270135e-08 	0.004526842693 	-1.933243499e-11 	8.629420344e-06
0.8759439454 	0.004934979901 	0.002213159482 	2.360654782e-08 	0.004585555666 	-1.667850344e-10 	8.741343589e-06
0.8781729018 	0.004991542826 	0.002239697523 	2.254042063e-08 	0.004643287569 	-3.617636152e-10 	8.851396642e-06
0.880377287 	0.005046989527 	0.002265740266 	2.147000721e-08 	0.004699996062 	-5.925544985e-10 	8.95949879e-06
0.8825573737 	0.005101279812 	0.002291269483 	2.040058612e-08 	0.004755643115 	-8.482590384e-10 	9.06557754e-06
0.8847134322 	0.005154378277 	0.002316268982 	1.93364539e-08 	0.004810194557 	-1.1190425e-09 	9.16956775e-06
0.8868457226 	0.005206254024 	0.002340724633 	1.828188362e-08 	0.004863620634 	-1.395885272e-09 	9.271412702e-06
0.8889545069 	0.005256880383 	0.002364624436 	1.724096724e-08 	0.004915896675 	-1.670451186e-09 	9.371065366e-06
0.8910400442 	0.005306235339 	0.002387958455 	1.62173517e-08 	0.004967002164 	-1.935427933e-09 	9.468486631e-06
0.8931025917 	0.005354301233 	0.002410718785 	1.521423274e-08 	0.005016920996 	-2.184415509e-09 	9.563645799e-06
0.8951424045 	0.005401064914 	0.002432899444 	1.423394653e-08 	0.005065640708 	-2.412059415e-09 	9.656519112e-06
0.8971597301 	0.005446517304 	0.002454496296 	1.327869422e-08 	0.005113152746 	-2.613890645e-09 	9.747090261e-06
0.8991548164 	0.005490652942 	0.002475507005 	1.235047909e-08 	0.005159452799 	-2.786186925e-09 	9.83535103e-06
0.9011279084 	0.005533470141 	0.002495930895 	1.145091909e-08 	0.005204539861 	-2.926135546e-09 	9.921299503e-06
0.9030792486 	0.005574970595 	0.002515768859 	1.058127803e-08 	0.005248416295 	-3.031687047e-09 	1.000494018e-05
0.9050090786 	0.005615159215 	0.002535023216 	9.742289962e-09 	0.005291087343 	-3.101522565e-09 	1.008628306e-05
0.9069176333 	0.005654043936 	0.002553697562 	8.934322096e-09 	0.005332560671 	-3.135022744e-09 	1.016534275e-05
0.9088051471 	0.005691635094 	0.002571796688 	8.15774665e-09 	0.005372846771 	-3.132163136e-09 	1.024213925e-05
0.9106718518 	0.005727945313 	0.00258932643 	7.412685958e-09 	0.005411958361 	-3.093488379e-09 	1.031669681e-05
0.9125179768 	0.005762989337 	0.00260629353 	6.699034761e-09 	0.005449909872 	-3.020078614e-09 	1.038904294e-05
0.914343749 	0.005796783568 	0.002622705516 	6.016481242e-09 	0.005486717512 	-2.913427948e-09 	1.045920853e-05
0.9161493933 	0.005829346062 	0.002638570542 	5.364326213e-09 	0.005522398435 	-2.775377362e-09 	1.052722629e-05
0.9179351304 	0.005860696057 	0.002653897265 	4.741869484e-09 	0.005556970818 	-2.608134796e-09 	1.059313086e-05
0.9197011796 	0.005890853565 	0.002668694741 	4.148380792e-09 	0.005590453856 	-2.4141904e-09 	1.065695884e-05