0.3362433877 	3.039611086e-08 	-5.997366877e-11 	-2.874330411e-17 	3.029544768e-08 	3.283580378e-14 	5.775154347e-11
0.3362433877 	3.039611086e-08 	-5.997366877e-11 	-2.87433041e-17 	3.029544768e-08 	3.283580378e-14 	5.775154347e-11
0.3363017955 	1.42518479e-07 	-1.00551032e-09 	-4.128253816e-11 	1.415300687e-07 	4.85634583e-09 	2.697956472e-10
0.3364356309 	4.000680553e-07 	-3.177312239e-09 	3.982553846e-15 	3.970407969e-07 	3.017724336e-13 	7.568701107e-10
0.3366277463 	2.309403888e-06 	-4.325600375e-08 	2.223183635e-13 	2.274149089e-06 	1.127919878e-12 	4.335160231e-09
0.3368198693 	7.872811705e-06 	-2.756002883e-07 	2.724796184e-12 	7.661213923e-06 	-2.388215739e-12 	1.460440306e-08
0.3370119991 	1.982103732e-05 	-1.131447069e-06 	1.681609612e-11 	1.897626084e-05 	-2.135764167e-11 	3.617402734e-08
0.3372041348 	4.127918912e-05 	-3.490589386e-06 	6.878558059e-11 	3.871125161e-05 	-6.494350736e-11 	7.379440481e-08
0.3373962757 	7.564374208e-05 	-8.814706419e-06 	2.125256621e-10 	6.921450741e-05 	-1.238651321e-10 	1.319420883e-07
0.3375884208 	0.000126404011 	-1.917619382e-05 	5.324219682e-10 	0.000112492406 	-1.479798415e-10 	2.144417915e-07
0.3377805694 	0.0001968488414 	-3.711660464e-05 	1.126733391e-09 	0.0001700180278 	-2.264840597e-11 	3.241016151e-07
0.3379727207 	0.0002896516099 	-6.53015217e-05 	2.063718828e-09 	0.0002425632027 	4.490121742e-10 	4.623928814e-07
0.3381648737 	0.0004063883465 	-0.0001060126872 	3.317244013e-09 	0.0003300793884 	1.551098632e-09 	6.292230551e-07
0.3383570277 	0.0005471045229 	-0.0001606071503 	4.707523398e-09 	0.0004316506501 	3.64390848e-09 	8.228461102e-07
0.3385491818 	0.0007100709901 	-0.0002291222476 	5.880460182e-09 	0.0005455323389 	7.140063071e-09 	1.039936261e-06
0.3387413353 	0.0008918361844 	-0.0003101710999 	6.364356175e-09 	0.0006692649306 	1.248358416e-08 	1.27580497e-06
0.3389334873 	0.001087565107 	-0.0004011397841 	4.24595655e-09 	0.0007998791714 	1.960057379e-08 	1.524792016e-06
0.3391256369 	0.001287422371 	-0.0004866223586 	-5.152738762e-09 	0.0009385533202 	2.676265932e-08 	1.789143486e-06
0.3393177834 	0.001486823362 	-0.0005624468592 	-1.536284718e-08 	0.001083679264 	3.573747825e-08 	2.06579387e-06
0.3395099259 	0.001687355846 	-0.0006382933362 	-2.126152937e-08 	0.001229912435 	4.837555715e-08 	2.344554937e-06
0.3397020636 	0.001887047679 	-0.0007138184417 	-2.813577747e-08 	0.001375535545 	6.300679787e-08 	2.62215306e-06
0.3398941957 	0.002083993397 	-0.0007883193802 	-3.598967168e-08 	0.001519162779 	7.967622937e-08 	2.895946486e-06
0.3400863214 	0.002276565087 	-0.0008612164792 	-4.478401676e-08 	0.001659577596 	9.841880722e-08 	3.163616154e-06
0.3402784399 	0.002463412583 	-0.000932079221 	-5.441659407e-08 	0.001795736071 	1.192617754e-07 	3.42317205e-06
0.3404705503 	0.002643451826 	-0.001000643313 	-6.47183985e-08 	0.001926744225 	1.422513948e-07 	3.672910004e-06
0.3406626518 	0.002815837096 	-0.001066811099 	-7.547156915e-08 	0.002051828268 	1.674647363e-07 	3.911354956e-06
0.3408547436 	0.002979917253 	-0.001130626338 	-8.645600739e-08 	0.002170308478 	1.950091512e-07 	4.137211166e-06
0.3410468249 	0.003135181471 	-0.001192222216 	-9.751465451e-08 	0.002281581988 	2.250099578e-07 	4.349329403e-06
0.3412388949 	0.003281203648 	-0.001251752589 	-1.086160059e-07 	0.002385116426 	2.575893339e-07 	4.546694817e-06
0.3414309528 	0.00341759509 	-0.001309323468 	-1.198929423e-07 	0.002480454528 	2.928412746e-07 	4.728435737e-06
0.3416229978 	0.003543974065 	-0.001364940089 	-1.316474047e-07 	0.002567224566 	3.308082014e-07 	4.893843547e-06
0.341815029 	0.003659964198 	-0.001418474341 	-1.443247289e-07 	0.002645134171 	3.714684439e-07 	5.042360907e-06
0.3420070457 	0.003779053043 	-0.001476696783 	-1.598769032e-07 	0.002722827531 	4.188902206e-07 	5.190466044e-06
0.3423053646 	0.003907225212 	-0.001544141164 	-1.850126406e-07 	0.002803154513 	4.867031177e-07 	5.343591598e-06
0.3426092492 	0.004022505754 	-0.00161087377 	-2.188022425e-07 	0.002871282955 	5.64674947e-07 	5.473463343e-06
0.3429187992 	0.00410986034 	-0.001668161381 	-2.619838509e-07 	0.002918379207 	6.475602855e-07 	5.563241889e-06
0.343234116 	0.004167918642 	-0.001713736558 	-3.159445567e-07 	0.002944659651 	7.336555855e-07 	5.61333972e-06
0.3435553022 	0.004196109754 	-0.001745667718 	-3.815591901e-07 	0.002950926838 	8.209013507e-07 	5.625286721e-06
0.3438824622 	0.004194680474 	-0.001762487953 	-4.59408634e-07 	0.002938455484 	9.07045081e-07 	5.601512854e-06
0.3442157019 	0.0041645881 	-0.001763210234 	-5.500534547e-07 	0.002908867099 	9.898298377e-07 	5.545109168e-06
0.3445551286 	0.004107330742 	-0.001747283211 	-6.541564007e-07 	0.002864002161 	1.067190528e-06 	5.459584127e-06
0.3449008511 	0.004025058599 	-0.00171500831 	-7.637869139e-07 	0.002805767643 	1.138251261e-06 	5.34857295e-06
0.3452529799 	0.003921701975 	-0.001669451932 	-8.522302379e-07 	0.002736011681 	1.205186135e-06 	5.215598699e-06
0.3456116268 	0.003799896356 	-0.001609041659 	-8.116978832e-07 	0.002658710117 	1.296755393e-06 	5.068240433e-06
0.3459769053 	0.003662270439 	-0.00153383629 	-7.582006018e-07 	0.002576694219 	1.373998334e-06 	4.911895337e-06
0.3463489302 	0.003514960572 	-0.001453780551 	-8.066904244e-07 	0.002489045917 	1.400763989e-06 	4.744813312e-06
0.346727818 	0.003362887171 	-0.001374589706 	-8.47268072e-07 	0.002396459656 	1.410575305e-06 	4.568318166e-06
0.3471136864 	0.003209048628 	-0.001296756453 	-8.740125998e-07 	0.002301558275 	1.400713204e-06 	4.387409758e-06
0.3475066549 	0.003056588218 	-0.001221351735 	-8.810854461e-07 	0.002206820325 	1.368650035e-06 	4.206812893e-06
0.347906844 	0.002908647143 	-0.001149762722 	-8.209089883e-07 	0.002114576423 	1.247115899e-06 	4.030970379e-06
0.348314376 	0.002768210063 	-0.001083478284 	-7.251056981e-07 	0.002027032891 	1.08775969e-06 	3.864088075e-06
0.3487293745 	0.002637934596 	-0.001023872984 	-6.152518089e-07 	0.00194631927 	9.180712216e-07 	3.710225479e-06
0.3491519642 	0.00251997223 	-0.0009719691382 	-4.993053235e-07 	0.001874459052 	7.41734236e-07 	3.573239932e-06
0.3495822713 	0.002415826559 	-0.0009281754246 	-3.873350456e-07 	0.001812977226 	5.677992645e-07 	3.456038484e-06
0.3500204234 	0.002325292981 	-0.0008903540867 	-3.669260627e-07 	0.001762823263 	3.896506638e-07 	3.360431092e-06
0.3504665492 	0.002242318847 	-0.0008439508097 	-4.448721263e-07 	0.001726380197 	2.189978383e-07 	3.290960478e-06
0.3509207785 	0.002165095066 	-0.0007878912772 	-4.389710927e-07 	0.001701649307 	9.737633949e-08 	3.243816528e-06
0.3513845503 	0.002096817119 	-0.0007347675365 	-3.714967293e-07 	0.001684229854 	4.333298944e-09 	3.210610208e-06
0.3518696828 	0.002036637 	-0.0006848637218 	-3.239384488e-07 	0.001674316789 	-8.411473823e-08 	3.191713152e-06
0.3523637086 	0.001984076476 	-0.00063793118 	-2.737130944e-07 	0.001672356823 	-1.588820231e-07 	3.187976912e-06
0.3528667873 	0.001938928552 	-0.0005949091693 	-2.230396506e-07 	0.001678003812 	-2.196181518e-07 	3.198741643e-06
0.3533790813 	0.001900514242 	-0.0005557280898 	-1.85396581e-07 	0.001690897931 	-2.666922479e-07 	3.223321418e-06
0.3539007558 	0.001867854035 	-0.0005190942028 	-1.620606841e-07 	0.001710479088 	-2.959647512e-07 	3.260648545e-06
0.354431979 	0.001839951707 	-0.0004839345221 	-1.411817556e-07 	0.001735602329 	-3.060913021e-07 	3.308540425e-06
0.3549729218 	0.001816059208 	-0.0004502407744 	-1.198182861e-07 	0.001764928483 	-3.01136042e-07 	3.364444226e-06
0.3555237583 	0.00179552347 	-0.0004181649598 	-9.977235768e-08 	0.001797424996 	-2.849781834e-07 	3.426391611e-06
0.3560846653 	0.001777742142 	-0.0003876730365 	-8.123456908e-08 	0.001832345614 	-2.598327499e-07 	3.492960015e-06
0.3566558229 	0.001762219725 	-0.0003586974161 	-6.4196985e-08 	0.001869090414 	-2.272843888e-07 	3.563005815e-06
0.3572374142 	0.001748556961 	-0.0003311553158 	-4.859385769e-08 	0.001907161125 	-1.8864873e-07 	3.635579172e-06
0.3578296256 	0.001736427923 	-0.0003049556911 	-3.432938928e-08 	0.001946149457 	-1.449922371e-07 	3.709901768e-06
0.3584326466 	0.001725563962 	-0.0002800034939 	-2.129092783e-08 	0.001985722688 	-9.717019984e-08 	3.785339346e-06
0.35904667 	0.001715742269 	-0.000256202862 	-9.357795337e-09 	0.002025609451 	-4.587398588e-08 	3.861374602e-06
0.3595770964 	0.001708137416 	-0.0002369105181 	1.549414585e-07 	0.002059527835 	2.491637601e-07 	3.92603247e-06
0.3596716997 	0.001706777773 	-0.0002334608121 	-1.643414252e-09 	0.002065593088 	-8.072499753e-09 	3.937594527e-06
0.3603070346 	0.001698516278 	-0.0002116915138 	-1.204294884e-08 	0.002105513004 	-6.309262769e-08 	4.013692983e-06
0.3609539542 	0.001690819493 	-0.0001908035215 	-2.163520937e-08 	0.002145193432 	-1.203071946e-07 	4.089334908e-06
0.3616126648 	0.001683575362 	-0.0001707179921 	-3.05224631e-08 	0.002184515087 	-1.793655793e-07 	4.16429291e-06
0.3622833765 	0.001676687987 	-0.0001513625146 	-3.87927774e-08 	0.002223380935 	-2.399729391e-07 	4.238382019e-06
0.3629663027 	0.001670074934 	-0.0001326712062 	-4.651879817e-08 	0.002261712191 	-3.018788288e-07 	4.311452047e-06
0.3636616609 	0.001663664162 	-0.0001145850655 	-5.375740707e-08 	0.002299446944 	-3.648679109e-07 	4.383384974e-06
0.364369672 	0.001657387947 	-9.705392767e-05 	-6.054978398e-08 	0.002336546503 	-4.287524891e-07 	4.454107044e-06
0.3650905608 	0.001651202378 	-8.001683488e-05 	-6.692195867e-08 	0.002372946998 	-4.933719541e-07 	4.523496505e-06
0.3658245562 	0.001645050292 	-6.340533328e-05 	-7.288206226e-08 	0.002408723692 	-5.585939432e-07 	4.591696826e-06
0.3665815357 	0.001638831656 	-4.711963934e-05 	-7.853997353e-08 	0.002444130757 	-6.252210814e-07 	4.659192534e-06
0.3673642267 	0.00163251136 	-3.108221283e-05 	-8.390193631e-08 	0.002479107414 	-6.932773139e-07 	4.725867763e-06
0.3681610793 	0.001626101104 	-1.536751308e-05 	-8.875602148e-08 	0.002513366597 	-7.615939416e-07 	4.791175287e-06
0.3689723428 	0.00161956437 	-4.882508027e-08 	-9.269445086e-08 	0.002546838177 	-8.311983262e-07 	4.854981423e-06
0.369798271 	0.001612842337 	1.488403368e-05 	-9.562030386e-08 	0.002579585401 	-9.022505993e-07 	4.917406733e-06
0.3706391218 	0.00160597279 	2.959222688e-05 	-1.028364849e-07 	0.002611439711 	-9.672302223e-07 	4.978129901e-06
0.3714951578 	0.001599047534 	4.468747666e-05 	-1.280445647e-07 	0.002641410413 	-9.979557319e-07 	5.03526239e-06
0.372366646 	0.001592351103 	6.096125035e-05 	-1.663861887e-07 	0.002665642972 	-8.594290059e-07 	5.081456382e-06
0.3732538578 	0.001586335699 	7.867503353e-05 	-1.841485286e-07 	0.002679856914 	-5.802768576e-07 	5.108552107e-06
0.3741570696 	0.001580982568 	9.731187559e-05 	-1.844613138e-07 	0.002685777575 	-4.481581737e-07 	5.119838531e-06
0.3750765622 	0.001575431011 	0.000117835423 	-1.621140017e-07 	0.002688863884 	-3.955136425e-07 	5.125721894e-06
0.376486773 	0.00156905053 	0.0001408258822 	-1.196419254e-07 	0.002691167539 	-3.267851707e-07 	5.1301133e-06
0.3779110756 	0.001562437436 	0.0001631348247 	-8.089388515e-08 	0.002692159685 	-2.627553598e-07 	5.132004606e-06
0.3793496129 	0.001556214781 	0.0001825782369 	-4.972366063e-08 	0.002691794113 	-2.038701237e-07 	5.131307725e-06
0.3808025294 	0.001550334726 	0.0001993173647 	-2.587268074e-08 	0.002690355488 	-1.497514791e-07 	5.128565305e-06
0.3823059562 	0.001544723475 	0.0002135853956 	-9.559440491e-09 	0.002688064217 	-9.847091807e-08 	5.124197507e-06
0.3838280091 	0.00153940688 	0.0002255773908 	-1.055481499e-09 	0.002685101208 	-5.068485735e-08 	5.118549187e-06
0.3853651093 	0.001534384648 	0.0002353885147 	3.142293775e-10 	0.00268168698 	-5.987102803e-09 	5.11204072e-06
0.3855803392 	0.001533723508 	0.0002364815931 	4.167047405e-08 	0.002681169065 	-8.201522392e-08 	5.111053431e-06
0.3869151756 	0.001529610721 	0.0002432939355 	2.805308733e-09 	0.002677953661 	-3.611287853e-08 	5.104923977e-06
0.3884802461 	0.001525063753 	0.0002496412489 	1.088324796e-08 	0.002674031014 	-7.594917387e-08 	5.097446321e-06
0.3900608389 	0.001520717941 	0.0002547262275 	2.299508081e-08 	0.002670012307 	-1.13809697e-07 	5.089785549e-06
0.3916571133 	0.0015165469 	0.0002587992516 	3.800580373e-08 	0.002665972523 	-1.499360848e-07 	5.082084598e-06
0.3932692312 	0.001512550022 	0.0002621255863 	5.494585013e-08 	0.002661949491 	-1.84552123e-07 	5.07441558e-06
0.3948973565 	0.001508693845 	0.0002648447284 	7.302610376e-08 	0.002657993366 	-2.178271148e-07 	5.066874106e-06
0.3965690669 	0.001504929421 	0.0002671021501 	9.193265561e-08 	0.002654129319 	-2.505563715e-07 	5.059508159e-06
0.3982718105 	0.001501275292 	0.0002690958501 	1.111702346e-07 	0.002650364548 	-2.825581571e-07 	5.052331459e-06
0.3999912797 	0.001497756031 	0.0002708900264 	1.274926876e-07 	0.002646754139 	-3.069280242e-07 	5.045449017e-06
0.4017276483 	0.001494369713 	0.0002725496486 	1.15419313e-07 	0.002643328695 	-2.662416717e-07 	5.038919168e-06
0.4034810924 	0.001491110554 	0.0002741427947 	1.018900607e-07 	0.002640098041 	-2.271165923e-07 	5.032760643e-06
0.4052517911 	0.001487973906 	0.000275705383 	8.736824384e-08 	0.002637073699 	-1.893606867e-07 	5.026995407e-06
0.4070399258 	0.001484968964 	0.0002772896053 	7.218829547e-08 	0.002634250134 	-1.528163841e-07 	5.021612907e-06
0.4088456808 	0.001482089647 	0.0002788942522 	5.656394404e-08 	0.002631632185 	-1.173350046e-07 	5.016622369e-06
0.4106892378 	0.001479300424 	0.0002804944851 	4.042620336e-08 	0.002629232337 	-8.236039963e-08 	5.012047592e-06
0.4125745154 	0.001476607462 	0.0002821632319 	2.385245615e-08 	0.002627029946 	-4.779593472e-08 	5.007849222e-06
0.4144781776 	0.00147403914 	0.0002839100185 	7.140657966e-09 	0.002625031037 	-1.409059176e-08 	5.004038746e-06
0.4152956098 	0.001472999077 	0.0002846717562 	1.656540763e-09 	0.002624274818 	-2.449348547e-07 	5.002597183e-06
0.4163989494 	0.001471590192 	0.0002856981747 	9.557572137e-09 	0.002623245881 	-1.873388092e-08 	5.000635742e-06
0.4183374299 	0.001469252302 	0.0002875387441 	2.625558035e-08 	0.002621670316 	-5.075983341e-08 	4.997632278e-06
0.4202949142 	0.001467026288 	0.0002894328948 	4.303043147e-08 	0.002620305189 	-8.211238193e-08 	4.995029967e-06
0.4222716086 	0.001464927707 	0.0002914200214 	5.988470176e-08 	0.002619124739 	-1.128481084e-07 	4.9927797e-06
0.4242727255 	0.001462923098 	0.0002934157916 	7.684583659e-08 	0.002618161404 	-1.430769339e-07 	4.990943317e-06
0.4263330869 	0.001460992608 	0.0002954616737 	9.424641496e-08 	0.002617401168 	-1.733894678e-07 	4.989494095e-06
0.4284134725 	0.001459172347 	0.0002976259429 	1.117104103e-07 	0.002616807474 	-2.031358358e-07 	4.98836235e-06
0.4305141024 	0.00145746175 	0.000299827759 	1.292161271e-07 	0.002616408903 	-2.323287322e-07 	4.987602563e-06
0.4326352002 	0.001455846614 	0.0003020734677 	1.365761939e-07 	0.002616198653 	-2.428833534e-07 	4.987201767e-06
0.4347769937 	0.00145433463 	0.0003043894436 	1.198368705e-07 	0.002616157028 	-2.108553184e-07 	4.987122419e-06
0.4369397142 	0.001452922678 	0.0003067574923 	1.030499749e-07 	0.002616287578 	-1.794530114e-07 	4.987371283e-06
0.4391442892 	0.00145158343 	0.0003091461909 	8.601394857e-08 	0.002616610743 	-1.482763074e-07 	4.987987325e-06
0.4413946634 	0.001450322739 	0.0003116179471 	6.87330114e-08 	0.002617097073 	-1.173076315e-07 	4.988914405e-06
0.443666834 	0.001449157384 	0.0003141683129 	5.143986256e-08 	0.002617733901 	-8.694629326e-08 	4.990128376e-06
0.4459610492 	0.001448077699 	0.000316748767 	3.412946327e-08 	0.002618534534 	-5.714946288e-08 	4.991654606e-06
0.448277562 	0.001447083855 	0.0003193851939 	1.680735432e-08 	0.002619480821 	-2.789017503e-08 	4.993458492e-06
0.4505459865 	0.001446204348 	0.0003219933501 	8.189078701e-10 	0.002620538451 	-1.563971508e-08 	4.995474629e-06
0.4506165593 	0.001446176793 	0.000322074363 	5.159622193e-10 	0.002620571009 	-8.581153087e-10 	4.995536694e-06
0.4529933429 	0.001445327275 	0.0003247728435 	1.771424724e-08 	0.002621822763 	-2.922114255e-08 	4.997922885e-06
0.4554208951 	0.001444544026 	0.0003275457085 	3.511911887e-08 	0.002623219463 	-5.746874246e-08 	5.000585383e-06
0.4578719627 	0.001443842272 	0.0003303978367 	5.248287689e-08 	0.002624739141 	-8.522480443e-08 	5.003482311e-06
0.4603468233 	0.001443211124 	0.0003332686281 	6.979641406e-08 	0.002626398807 	-1.125085872e-07 	5.006646097e-06
0.4628457593 	0.001442658991 	0.0003362084826 	8.706339216e-08 	0.002628166825 	-1.393569924e-07 	5.010016429e-06
0.4653690586 	0.00144217101 	0.0003391634246 	1.042670853e-07 	0.002630076515 	-1.657835846e-07 	5.01365683e-06
0.4679520536 	0.001441730238 	0.0003421499303 	1.216797985e-07 	0.002632134706 	-1.922037766e-07 	5.017580314e-06
0.470569172 	0.001441356515 	0.0003452372824 	1.390745072e-07 	0.002634290524 	-2.183136879e-07 	5.021689903e-06
0.4732116477 	0.001441046614 	0.0003483541583 	1.310359926e-07 	0.002636558768 	-2.04483897e-07 	5.026013806e-06
0.4758797916 	0.00144080093 	0.0003515209197 	1.142825543e-07 	0.00263891984 	-1.773488925e-07 	5.030514665e-06
0.478573921 	0.001440609907 	0.0003547106873 	9.760785929e-08 	0.002641392442 	-1.506863306e-07 	5.035228132e-06
0.4813208668 	0.001440458813 	0.0003579261988 	8.081868503e-08 	0.00264398999 	-1.241457706e-07 	5.04017978e-06
0.4841109496 	0.001440359875 	0.0003612278055 	6.403437609e-08 	0.002646670467 	-9.790448932e-08 	5.045289514e-06
0.4869280722 	0.001440313185 	0.0003645698587 	4.738784526e-08 	0.002649434195 	-7.214193318e-08 	5.050557948e-06
0.4897725782 	0.001440321526 	0.0003679634527 	3.088512611e-08 	0.002652261964 	-4.683355945e-08 	5.055948461e-06
0.4926448178 	0.001440368646 	0.0003713665212 	1.45275694e-08 	0.002655185291 	-2.195132918e-08 	5.061521135e-06
0.4952388018 	0.001440434873 	0.0003744046919 	4.249628666e-09 	0.002657857621 	-6.135194096e-08 	5.066615339e-06
0.4955778201 	0.001440442951 	0.0003748009855 	1.859688782e-09 	0.002658205799 	-2.843159083e-09 	5.067279064e-06
0.4985460505 	0.001440557163 	0.0003783184339 	1.779835771e-08 	0.002661266328 	-2.713837447e-08 	5.073113283e-06
0.50154319 	0.001440714627 	0.0003818749668 	3.352228709e-08 	0.002664377597 	-5.099773832e-08 	5.079044225e-06
0.5045696182 	0.001440908435 	0.0003854650346 	4.902704689e-08 	0.00266753755 	-7.444455456e-08 	5.085067973e-06
0.5076367908 	0.001441123254 	0.00038906872 	6.43722119e-08 	0.002670769736 	-9.759659673e-08 	5.09122942e-06
0.5107623923 	0.001441362108 	0.0003927351558 	7.963189101e-08 	0.002674047523 	-1.20584956e-07 	5.097477791e-06
0.5139184742 	0.001441633719 	0.0003964705913 	9.460612973e-08 	0.002677339951 	-1.431542324e-07 	5.103754075e-06
0.5171054487 	0.001441937744 	0.0004002536028 	1.092941994e-07 	0.002680639759 	-1.65324097e-07 	5.110044426e-06
0.520325042 	0.001442252399 	0.0004040388664 	1.236867804e-07 	0.002683983961 	-1.871135764e-07 	5.116419404e-06
0.523612288 	0.001442574693 	0.0004078697642 	1.379556095e-07 	0.002687356232 	-2.087768755e-07 	5.122847891e-06
0.5269316876 	0.001442921575 	0.0004117917585 	1.259430061e-07 	0.002690700198 	-1.907772793e-07 	5.129222419e-06
0.5302836887 	0.001443289817 	0.0004157601316 	1.116866371e-07 	0.002694018943 	-1.694153023e-07 	5.135548869e-06
0.533669638 	0.00144365609 	0.00041973029 	9.771116726e-08 	0.002697347732 	-1.484884751e-07 	5.141894466e-06
0.5371230183 	0.001444019396 	0.0004237462456 	8.386474932e-08 	0.002700666005 	-1.277227099e-07 	5.148220016e-06
0.5406103399 	0.001444399013 	0.0004278619165 	7.036491381e-08 	0.002703910506 	-1.074625835e-07 	5.154404937e-06
0.5441320894 	0.001444782752 	0.000432010393 	5.72197173e-08 	0.002707102995 	-8.767167267e-08 	5.160490708e-06
0.5476960233 	0.00144515191 	0.0004361703732 	4.439137527e-08 	0.00271026181 	-6.826900609e-08 	5.166512289e-06
0.5513203417 	0.001445512514 	0.000440391186 	3.182936865e-08 	0.002713351471 	-4.915457282e-08 	5.17240204e-06
0.5549805169 	0.001445878204 	0.0004447038346 	1.967934685e-08 	0.002716323272 	-3.053757133e-08 	5.17806712e-06
0.5586770766 	0.001446227446 	0.000449031693 	7.943287575e-09 	0.002719215058 	-1.23915727e-08 	5.183579667e-06
0.5612874305 	0.00144645319 	0.0004520634858 	1.424349097e-08 	0.00272116659 	-1.985565579e-07 	5.18729983e-06
0.5624282509 	0.001446550692 	0.0004533861787 	3.360943932e-09 	0.002722017463 	-5.369418181e-09 	5.188921831e-06
0.5662275028 	0.001446862128 	0.000457822797 	1.40529684e-08 	0.002724672224 	-2.259682006e-08 	5.193982542e-06
0.5700647233 	0.001447159078 	0.0004623160313 	2.428234028e-08 	0.002727178831 	-3.932197204e-08 	5.198760832e-06
0.5739448569 	0.001447422009 	0.0004668229701 	3.406738756e-08 	0.002729560632 	-5.55874163e-08 	5.203301208e-06
0.5778866303 	0.001447656653 	0.0004713888098 	4.344234063e-08 	0.002731778106 	-7.146290993e-08 	5.207528329e-06
0.5818679746 	0.001447875524 	0.0004760464306 	5.230303461e-08 	0.002733780221 	-8.680371028e-08 	5.211344916e-06
0.5858894948 	0.00144805347 	0.0004807159626 	6.065800049e-08 	0.002735610541 	-1.016219937e-07 	5.214834016e-06
0.5899727857 	0.00144818994 	0.0004854261408 	6.855914597e-08 	0.00273724087 	-1.160086169e-07 	5.217941874e-06
0.5941006535 	0.001448303082 	0.0004902341508 	7.591248319e-08 	0.002738603542 	-1.298388643e-07 	5.220539507e-06
0.5982704142 	0.001448369484 	0.0004950624435 	8.27236377e-08 	0.002739738208 	-1.431052371e-07 	5.222702495e-06
0.6024979472 	0.001448385865 	0.00049992369 	8.902861304e-08 	0.002740623753 	-1.558663896e-07 	5.22439059e-06
0.6067750414 	0.001448369473 	0.0005048751124 	9.476270049e-08 	0.002741193097 	-1.68039439e-07 	5.225475918e-06
0.6110958307 	0.001448299849 	0.0005098517266 	9.992896868e-08 	0.002741476647 	-1.796031685e-07 	5.226016443e-06
0.6154737333 	0.001448173803 	0.000514858683 	1.045576684e-07 	0.002741454871 	-1.905974568e-07 	5.225974932e-06
0.6199031021 	0.001448007219 	0.0005199478683 	1.085968519e-07 	0.002741062836 	-2.00951744e-07 	5.225227604e-06
0.6243780584 	0.001447779763 	0.0005250581883 	1.039094482e-07 	0.002740329232 	-1.953289607e-07 	5.223829151e-06
0.6289117321 	0.001447491527 	0.00053019906 	9.698521719e-08 	0.002739227888 	-1.853429347e-07 	5.221729683e-06
0.6334968048 	0.001447156065 	0.000535411878 	9.047362556e-08 	0.002737699608 	-1.759355834e-07 	5.218816357e-06
0.6381294517 	0.001446752101 	0.0005406358919 	8.437831113e-08 	0.002735774794 	-1.67098483e-07 	5.215147127e-06
0.6428238051 	0.001446286579 	0.0005458954835 	7.8662189e-08 	0.002733411632 	-1.587753119e-07 	5.210642283e-06
0.6475684204 	0.001445765154 	0.0005512059691 	7.335077436e-08 	0.002730572089 	-1.510518012e-07 	5.205229325e-06
0.6523649443 	0.001445171775 	0.0005565213476 	6.842594621e-08 	0.002727275446 	-1.438881988e-07 	5.198945008e-06
0.6572223575 	0.001444523686 	0.0005618700263 	6.38741806e-08 	0.002723471419 	-1.37276602e-07 	5.191693474e-06
0.6620766355 	0.00144382342 	0.0005671933097 	5.974207261e-08 	0.002719191907 	-1.313275172e-07 	5.183535535e-06
0.6668799146 	0.001443077497 	0.0005724344172 	5.602100095e-08 	0.002714486809 	-1.260307491e-07 	5.17456631e-06
0.6716326517 	0.001442311456 	0.0005776142388 	5.269056303e-08 	0.002709335666 	-1.213716052e-07 	5.1647468e-06
0.6763304893 	0.001441516312 	0.0005826954302 	4.971848673e-08 	0.002703785258 	-1.173054923e-07 	5.154166181e-06
0.680980885 	0.001440698895 	0.0005876906098 	4.705652441e-08 	0.002697843231 	-1.137695388e-07 	5.142839025e-06
0.6855796658 	0.001439870677 	0.0005926190675 	4.468657164e-08 	0.002691501783 	-1.107664663e-07 	5.130750462e-06
0.690125814 	0.001439019585 	0.0005974417265 	4.257579679e-08 	0.002684814492 	-1.082354337e-07 	5.118002628e-06
0.6946265976 	0.001438161966 	0.0006021823201 	4.068889854e-08 	0.002677769733 	-1.061268933e-07 	5.104573358e-06
0.6990762349 	0.001437304739 	0.0006068491428 	3.900935902e-08 	0.002670372739 	-1.044361829e-07 	5.090472633e-06
0.7034757701 	0.001436440764 	0.0006114141915 	3.750853831e-08 	0.00266266889 	-1.031032313e-07 	5.075786955e-06
0.7078302603 	0.001435588425 	0.0006159047941 	3.61620677e-08 	0.002654642486 	-1.020969384e-07 	5.060486398e-06
0.7121354456 	0.001434750441 	0.0006203206017 	3.495561289e-08 	0.002646309349 	-1.014031173e-07 	5.044601122e-06
0.7163924516 	0.001433923259 	0.0006246414029 	3.386715316e-08 	0.002637708847 	-1.009696194e-07 	5.028206175e-06
0.7206051784 	0.001433125067 	0.0006288926495 	3.287893406e-08 	0.00262882694 	-1.007722533e-07 	5.011274793e-06
0.7247704865 	0.001432358388 	0.0006330741743 	3.198000425e-08 	0.002619680158 	-1.007955852e-07 	4.993838484e-06
0.7288890892 	0.001431619353 	0.0006371666972 	3.115500002e-08 	0.002610308964 	-1.00995276e-07 	4.975974383e-06
0.7329646301 	0.001430925428 	0.0006411917661 	3.039000658e-08 	0.002600703575 	-1.013466116e-07 	4.957663843e-06
0.7369945217 	0.001430282333 	0.00064515579 	2.967759451e-08 	0.002590872991 	-1.018388043e-07 	4.938924016e-06
0.7409793914 	0.001429683266 	0.00064903703 	2.900864106e-08 	0.002580862711 	-1.024344498e-07 	4.91984164e-06
0.7449217639 	0.001429144212 	0.0006528512324 	2.837218745e-08 	0.002570670391 	-1.03106568e-07 	4.900412245e-06
0.7488205855 	0.00142867544 	0.0006566128404 	2.776356279e-08 	0.002560294407 	-1.038492936e-07 	4.880632736e-06
0.7526760103 	0.001428267685 	0.000660299938 	2.717884911e-08 	0.00254978221 	-1.046329872e-07 	4.860593567e-06
0.7564895149 	0.001427933277 	0.0006639200805 	2.661042586e-08 	0.00253914287 	-1.054293937e-07 	4.840312029e-06
0.7602614981 	0.001427686111 	0.0006674919862 	2.605538925e-08 	0.002528368423 	-1.062343659e-07 	4.819772938e-06
0.763991624 	0.001427519485 	0.0006710017645 	2.551315697e-08 	0.002517496623 	-1.070276344e-07 	4.799048266e-06
0.767680541 	0.001427437671 	0.0006744455855 	2.498083622e-08 	0.002506553063 	-1.077841147e-07 	4.778186798e-06
0.7713298015 	0.001427455538 	0.0006778397836 	2.445605637e-08 	0.002495532981 	-1.08493672e-07 	4.75717946e-06
0.7749386674 	0.001427575661 	0.0006811865296 	2.393955156e-08 	0.002484451621 	-1.091479805e-07 	4.736055307e-06
0.7785076447 	0.001427792722 	0.0006844726178 	2.343327742e-08 	0.002473348843 	-1.097282577e-07 	4.714890327e-06
0.7820377123 	0.001428118455 	0.0006877060955 	2.29356751e-08 	0.002462233028 	-1.102170172e-07 	4.693700494e-06
0.7855292473 	0.001428563816 	0.0006908999687 	2.24478079e-08 	0.002451103129 	-1.106126741e-07 	4.672483813e-06
0.7889822604 	0.001429124672 	0.0006940472127 	2.19729995e-08 	0.002439989492 	-1.109034879e-07 	4.651298131e-06
0.7923972207 	0.001429801999 	0.0006971429905 	2.151392738e-08 	0.002428921281 	-1.110753714e-07 	4.630199044e-06
0.7957751119 	0.001430608423 	0.0007001984157 	2.107119224e-08 	0.002417901214 	-1.111185501e-07 	4.609191734e-06
0.799115918 	0.001431550499 	0.0007032210991 	2.06481431e-08 	0.002406936332 	-1.110324038e-07 	4.588289622e-06
0.8024199552 	0.001432623966 	0.0007062042439 	2.025013843e-08 	0.002396058604 	-1.108079566e-07 	4.567553649e-06
0.8056876609 	0.001433832949 	0.0007091477984 	1.988105341e-08 	0.002385290452 	-1.104354338e-07 	4.547026558e-06
0.808919881 	0.00143518961 	0.0007120628217 	1.954346103e-08 	0.002374634088 	-1.099096983e-07 	4.526712568e-06
0.8121165911 	0.001436698894 	0.0007149547511 	1.860419541e-08 	0.002364100559 	-1.05608916e-07 	4.506632732e-06
0.815278181 	0.001438359143 	0.0007178202211 	1.749090674e-08 	0.002353717807 	-9.987054186e-08 	4.486840322e-06
0.8184050606 	0.001440175693 	0.0007206612168 	1.64765873e-08 	0.002343505726 	-9.425861361e-08 	4.467373258e-06
0.8214979011 	0.001442161054 	0.0007234883237 	1.555465579e-08 	0.002333467557 	-8.877420014e-08 	4.448237718e-06
0.824556818 	0.001444321959 	0.0007263081035 	1.471948352e-08 	0.002323613183 	-8.341744236e-08 	4.429452543e-06
0.8275821714 	0.001446659754 	0.0007291206173 	1.396817499e-08 	0.002313965942 	-7.819539081e-08 	4.411062219e-06
0.8305743473 	0.001449179989 	0.0007319283138 	1.329702235e-08 	0.002304546427 	-7.31132687e-08 	4.393106005e-06
0.8335338579 	0.001451895668 	0.0007347408661 	1.270052681e-08 	0.002295360856 	-6.817214862e-08 	4.375595753e-06
0.8364609812 	0.001454817316 	0.0007375672313 	1.217301097e-08 	0.002286416105 	-6.336965485e-08 	4.358544573e-06
0.8393560156 	0.001457949115 	0.0007404101054 	1.171119382e-08 	0.002277732719 	-5.870986956e-08 	4.341991625e-06
0.8422193257 	0.001461297876 	0.0007432729521 	1.131146302e-08 	0.002269331969 	-5.419619268e-08 	4.325977461e-06
0.8450513006 	0.001464876609 	0.0007461641633 	1.096907544e-08 	0.002261225611 	-4.983003013e-08 	4.31052449e-06
0.8478523485 	0.00146870044 	0.0007490946575 	1.067819098e-08 	0.002253419852 	-4.560869979e-08 	4.295644544e-06
0.8506227078 	0.001472778636 	0.00075207065 	1.043432197e-08 	0.002245932001 	-4.153300096e-08 	4.281370618e-06
0.8533627237 	0.001477121789 	0.0007550982627 	1.023326419e-08 	0.002238781788 	-3.760517054e-08 	4.267740325e-06
0.8560727368 	0.001481742855 	0.0007581848666 	1.007049061e-08 	0.002231988257 	-3.382693544e-08 	4.254789967e-06
0.8587531258 	0.001486660009 	0.000761341341 	9.940804423e-09 	0.002225563694 	-3.019893078e-08 	4.242542964e-06
0.861404197 	0.001491891677 	0.000764579319 	9.838320732e-09 	0.0022195193 	-2.672029263e-08 	4.231020668e-06
0.8640262397 	0.001497451875 	0.0007679067363 	9.758360602e-09 	0.002213877208 	-2.339368955e-08 	4.220265274e-06
0.8666195773 	0.001503358181 	0.0007713331254 	9.695999364e-09 	0.002208658517 	-2.022195235e-08 	4.210316997e-06
0.8691845291 	0.001509630192 	0.0007748690442 	9.646099334e-09 	0.002203884338 	-1.720787872e-08 	4.201216085e-06
0.8717214379 	0.001516291856 	0.0007785274799 	9.603047017e-09 	0.00219957177 	-1.435392555e-08 	4.192995133e-06
0.8742305906 	0.001523367781 	0.0007823221079 	9.560614115e-09 	0.002195737743 	-1.166238837e-08 	4.185686411e-06
0.8767122763 	0.001530879739 	0.0007862642231 	9.51357577e-09 	0.002192408358 	-9.137969611e-09 	4.179339678e-06
0.8791667987 	0.001538853479 	0.0007903668924 	9.456633939e-09 	0.002189608252 	-6.785712012e-09 	4.174001898e-06
0.881594458 	0.001547316789 	0.0007946440631 	9.38452589e-09 	0.002187362793 	-4.61106273e-09 	4.169721429e-06