0.2478607252 	2.756086141e-08 	-7.005903922e-11 	6.200429138e-14 	2.742114794e-08 	-1.67903609e-11 	5.227232928e-11
0.2478607252 	2.756086141e-08 	-7.005903922e-11 	6.200429138e-14 	2.742114794e-08 	-1.67903609e-11 	5.227232928e-11
0.2480966905 	4.583310576e-07 	-5.071980832e-09 	6.131150008e-12 	4.511449276e-07 	-3.83487857e-10 	8.600076213e-10
0.248332665 	2.864280197e-06 	-7.675524075e-08 	1.030329825e-10 	2.763199014e-06 	-2.585518377e-09 	5.267425312e-09
0.248568647 	1.025987141e-05 	-5.147646967e-07 	7.332193898e-10 	9.598745578e-06 	-9.45972444e-09 	1.82978769e-08
0.2488046349 	2.674438876e-05 	-2.163477853e-06 	3.194246597e-09 	2.399632121e-05 	-2.427025224e-08 	4.574365767e-08
0.2490406268 	5.715725129e-05 	-6.697904144e-06 	1.006347974e-08 	4.869674838e-05 	-4.959439303e-08 	9.282953698e-08
0.2492766213 	0.0001066717487 	-1.667900413e-05 	2.505075474e-08 	8.566803841e-05 	-8.645254679e-08 	1.633070914e-07
0.2495126165 	0.0001800227528 	-3.51920298e-05 	5.187125632e-08 	0.0001357858257 	-1.338315096e-07 	2.588455236e-07
0.2497486107 	0.0002803748595 	-6.504517632e-05 	9.232305332e-08 	0.0001987044237 	-1.887419125e-07 	3.787858585e-07
0.2499846024 	0.0004081557898 	-0.0001077910252 	1.445758584e-07 	0.0002729139003 	-2.466707969e-07 	5.202497465e-07
0.2502205898 	0.0005603764256 	-0.0001630498949 	2.031989879e-07 	0.0003559025648 	-3.019488343e-07 	6.784492066e-07
0.2504565713 	0.0007290399574 	-0.0002256782878 	2.221749753e-07 	0.0004461407476 	-3.735321854e-07 	8.504682634e-07
0.2506925451 	0.0009018043896 	-0.0002847880022 	2.190128225e-07 	0.0005448761537 	-4.376507099e-07 	1.038685389e-06
0.2509285096 	0.001073704155 	-0.0003390324784 	2.336059612e-07 	0.0006488051078 	-4.690419293e-07 	1.236802861e-06
0.2511644632 	0.001244791171 	-0.0003930106212 	2.419315613e-07 	0.0007522727507 	-4.883557882e-07 	1.434040946e-06
0.2514004042 	0.001411828941 	-0.0004457117592 	2.438876915e-07 	0.0008533264039 	-4.95244565e-07 	1.626677296e-06
0.2516363308 	0.0015720674 	-0.0004962958306 	2.397419282e-07 	0.0009502911472 	-4.900008853e-07 	1.811519046e-06
0.2518722415 	0.001723294388 	-0.0005441183174 	2.300185361e-07 	0.001041778925 	-4.734645563e-07 	1.985920179e-06
0.2521081347 	0.001863825235 	-0.0005887332668 	2.152972791e-07 	0.001126683292 	-4.469260115e-07 	2.147771501e-06
0.2523440085 	0.001992447307 	-0.0006298592672 	1.960354909e-07 	0.001204166218 	-4.120939324e-07 	2.295475493e-06
0.2525798615 	0.00210833647 	-0.0006673168947 	1.725292564e-07 	0.001273651728 	-3.710451751e-07 	2.427934187e-06
0.2528156919 	0.002210973889 	-0.0007009630465 	1.450569804e-07 	0.001334824169 	-3.260982114e-07 	2.544545861e-06
0.2530514981 	0.002300088282 	-0.0007306499758 	1.141246722e-07 	0.001387621144 	-2.796134904e-07 	2.645191571e-06
0.2532872785 	0.002375632661 	-0.0007562224468 	8.06737422e-08 	0.001432213342 	-2.337710089e-07 	2.730196692e-06
0.2535230314 	0.002437787315 	-0.0007775476832 	4.61475358e-08 	0.001468969873 	-1.903835364e-07 	2.800264857e-06
0.2537587551 	0.0024869718 	-0.0007945611728 	1.239066771e-08 	0.001498413119 	-1.507859474e-07 	2.856391866e-06
0.2539944482 	0.002523848941 	-0.0008073100503 	-1.857995212e-08 	0.001521170198 	-1.158159962e-07 	2.899773185e-06
0.2542301088 	0.002549309608 	-0.0008159815695 	-4.48634845e-08 	0.00153793002 	-8.587945194e-08 	2.931722064e-06
0.2544657354 	0.002564437606 	-0.0008209085718 	-6.495522457e-08 	0.00154940702 	-6.107489868e-08 	2.953600416e-06
0.2547013264 	0.002570471402 	-0.0008225401646 	-7.796542213e-08 	0.001556287215 	-4.135130687e-08 	2.96671598e-06
0.2549368801 	0.002567962101 	-0.0008210331285 	-8.400952635e-08 	0.001559439786 	-2.50391631e-08 	2.972725656e-06
0.2553027985 	0.002553778496 	-0.0008156018179 	-7.89956674e-08 	0.001557793425 	-1.398342624e-08 	2.969587234e-06
0.2556754916 	0.00252748399 	-0.0008066892053 	-6.328212658e-08 	0.001550624427 	-1.500999757e-08 	2.955921131e-06
0.2560550761 	0.002493643378 	-0.0007963102808 	-4.09888717e-08 	0.001540111703 	-3.142247512e-08 	2.935880959e-06
0.2564416703 	0.002455743622 	-0.0007858675361 	-1.635180518e-08 	0.001528849384 	-6.478735049e-08 	2.914411848e-06
0.2568353939 	0.002416731808 	-0.0007764138692 	8.115622373e-09 	0.001519831464 	-1.14169749e-07 	2.897221186e-06
0.2572363681 	0.0023790074 	-0.0007686653192 	3.02779065e-08 	0.001516129566 	-1.732823107e-07 	2.890164339e-06
0.2576447153 	0.002343785125 	-0.0007620256606 	7.296114703e-09 	0.001520585393 	-2.476779952e-07 	2.898658384e-06
0.2580605592 	0.002307068808 	-0.000748363212 	-9.540048534e-08 	0.001537387851 	-3.340379838e-07 	2.930688539e-06
0.2584840249 	0.00226290628 	-0.0007169443981 	-1.474207049e-07 	0.001569268739 	-3.738129965e-07 	2.991462372e-06
0.2589152389 	0.002216634941 	-0.00067595017 	-1.267235931e-07 	0.001610899448 	-3.685191794e-07 	3.070822074e-06
0.2593543286 	0.002174694788 	-0.000636259307 	-1.07011181e-07 	0.00165773914 	-3.505840086e-07 	3.160111546e-06
0.2598014228 	0.002136161416 	-0.000597286976 	-8.575943834e-08 	0.001710282407 	-3.143934087e-07 	3.260273615e-06
0.2602566512 	0.002100717333 	-0.0005593691729 	-6.314779403e-08 	0.001767768524 	-2.589381148e-07 	3.369858132e-06
0.260720145 	0.002068241291 	-0.0005229306133 	-4.054708576e-08 	0.00182896561 	-1.863754501e-07 	3.486516787e-06
0.2611920358 	0.002038535136 	-0.000488297643 	-1.917462139e-08 	0.001892735313 	-9.916958074e-08 	3.608079565e-06
0.2616714541 	0.002011409821 	-0.0004557499609 	3.088885385e-09 	0.001957936827 	5.834556027e-09 	3.732371773e-06
0.261672451 	0.002011353075 	-0.0004556818753 	-4.040925273e-11 	0.001958073334 	-2.002169947e-10 	3.732631993e-06
0.2621588784 	0.001986443414 	-0.0004252182537 	-1.832459919e-08 	0.002024253243 	-1.020453851e-07 	3.858789294e-06
0.2626540653 	0.001963523028 	-0.0003968797724 	-3.385384045e-08 	0.002090364628 	-2.126423141e-07 	3.984815968e-06
0.2631581466 	0.001942331186 	-0.0003705955733 	-4.641820133e-08 	0.002155808749 	-3.300231657e-07 	4.109570651e-06
0.2636712583 	0.001922618096 	-0.0003462479151 	-5.602662228e-08 	0.00222011141 	-4.524691358e-07 	4.232149396e-06
0.2641935365 	0.00190414954 	-0.0003236915314 	-6.283583087e-08 	0.002282906695 	-5.785100199e-07 	4.351854662e-06
0.2647251181 	0.001886709406 	-0.0003027694168 	-6.708793325e-08 	0.002343921236 	-7.068990651e-07 	4.468165335e-06
0.2652661398 	0.001870099143 	-0.0002833264472 	-6.90671841e-08 	0.002402963461 	-8.365626415e-07 	4.580716226e-06
0.265816739 	0.001854143743 	-0.0002651887476 	-6.903794457e-08 	0.002459915692 	-9.666087816e-07 	4.689283006e-06
0.2663787789 	0.00183857244 	-0.0002481496647 	-6.697126765e-08 	0.002515158475 	-1.09710352e-06 	4.794591105e-06
0.2669678609 	0.001823079929 	-0.0002320649815 	-6.231738217e-08 	0.002569064885 	-1.232842955e-06 	4.897351705e-06
0.2675675323 	0.001807739642 	-0.0002168171911 	-5.728033933e-08 	0.00262090858 	-1.365506487e-06 	4.996180198e-06
0.2681779758 	0.001792583289 	-0.0002020547435 	-5.878610207e-08 	0.002670057658 	-1.490825797e-06 	5.089872001e-06
0.2687993775 	0.001777553031 	-0.0001862411066 	-9.305499988e-08 	0.002711790706 	-1.51259419e-06 	5.169426789e-06
0.269431926 	0.001762645835 	-0.0001681732102 	-1.664631463e-07 	0.002742080148 	-1.391268325e-06 	5.227166884e-06
0.2700758133 	0.001747907083 	-0.0001481777634 	-2.443422437e-07 	0.002762080785 	-1.236286845e-06 	5.265293657e-06
0.2707312343 	0.001733483584 	-0.0001271578035 	-2.895174428e-07 	0.002773767396 	-1.175054909e-06 	5.287571586e-06
0.2713983871 	0.001719371519 	-0.0001064392476 	-2.96027296e-07 	0.002780945811 	-1.208385923e-06 	5.301255639e-06
0.2720774729 	0.001705610167 	-8.693838254e-05 	-2.860085597e-07 	0.002786022294 	-1.234317627e-06 	5.310932827e-06
0.2727686961 	0.001692241701 	-6.893884474e-05 	-2.660728053e-07 	0.00278909808 	-1.254865642e-06 	5.316796131e-06
0.2734722645 	0.001679294603 	-5.253183709e-05 	-2.169675197e-07 	0.002790322397 	-1.154666939e-06 	5.319130018e-06
0.274188389 	0.001666843958 	-3.773087332e-05 	-1.628563049e-07 	0.002789841011 	-1.029218356e-06 	5.318212364e-06
0.274917284 	0.001654923301 	-2.454634772e-05 	-1.123855867e-07 	0.002787815748 	-9.121355956e-07 	5.314351648e-06
0.2756591673 	0.001643541634 	-1.295953706e-05 	-6.72786149e-08 	0.002784416804 	-8.033944959e-07 	5.307872316e-06
0.27641426 	0.001632698651 	-2.914932041e-06 	-2.87033308e-08 	0.002779813735 	-7.027401374e-07 	5.299097589e-06
0.277182787 	0.001622383833 	5.671526662e-06 	2.614624592e-09 	0.002774171939 	-6.097307784e-07 	5.288342758e-06
0.2779649765 	0.00161257624 	1.290624285e-05 	2.635264837e-08 	0.002767649975 	-5.237713253e-07 	5.275910081e-06
0.2787610603 	0.001603246795 	1.891275669e-05 	4.258635037e-08 	0.002760396914 	-4.441689892e-07 	5.26208373e-06
0.2795712742 	0.001594360747 	2.382556443e-05 	5.173225576e-08 	0.002752550407 	-3.701837815e-07 	5.247126108e-06
0.2803958572 	0.001585879857 	2.778384077e-05 	5.446062682e-08 	0.002744235544 	-3.010688144e-07 	5.231275668e-06
0.2812350526 	0.001577764222 	3.09254779e-05 	5.16006849e-08 	0.002735564382 	-2.361021706e-07 	5.214746024e-06
0.2820891073 	0.001569974292 	3.33815939e-05 	4.404897248e-08 	0.002726635862 	-1.746112439e-07 	5.197725782e-06
0.2829582719 	0.00156247429 	3.527839873e-05 	3.269606832e-08 	0.002717535381 	-1.159910344e-07 	5.180377736e-06
0.2838428013 	0.001555207934 	3.671561918e-05 	1.836304484e-08 	0.002708303229 	-5.970881759e-08 	5.162778688e-06
0.2847556243 	0.001548096332 	3.777641377e-05 	1.505858682e-09 	0.002698932183 	-4.568223994e-09 	5.14491487e-06
0.2848333523 	0.001547522142 	3.7839306e-05 	7.894503316e-10 	0.002698152914 	-6.161960035e-08 	5.143429368e-06
0.2856962892 	0.001541104388 	3.851776103e-05 	1.58069864e-08 	0.002689434277 	-4.992937312e-08 	5.126809221e-06
0.2866531183 	0.001534270845 	3.90566962e-05 	3.470388613e-08 	0.002679969417 	-1.028306425e-07 	5.108766568e-06
0.2876267427 	0.001527602383 	3.945092317e-05 	5.484824039e-08 	0.002670618357 	-1.544278172e-07 	5.090940848e-06
0.2886174419 	0.001521082114 	3.974957085e-05 	7.587387949e-08 	0.002661409206 	-2.049571902e-07 	5.073385647e-06
0.2896255 	0.001514698011 	3.998757035e-05 	9.753306473e-08 	0.002652363435 	-2.545916811e-07 	5.056141893e-06
0.2906512055 	0.001508439555 	4.018591529e-05 	1.196794965e-07 	0.002643497897 	-3.034522482e-07 	5.039241714e-06
0.2916948513 	0.001502308358 	4.036379223e-05 	1.422382554e-07 	0.002634822372 	-3.516183392e-07 	5.022703752e-06
0.292756735 	0.001496321602 	4.056689475e-05 	1.651539999e-07 	0.002626338697 	-3.991432735e-07 	5.00653151e-06
0.2938371588 	0.001490462023 	4.074684262e-05 	1.884271614e-07 	0.002618061385 	-4.460541067e-07 	4.990752653e-06
0.2949364296 	0.001483984292 	4.068536156e-05 	2.121306543e-07 	0.002608971011 	-4.918685762e-07 	4.973423873e-06
0.2966211408 	0.001476412962 	4.04774902e-05 	2.480734472e-07 	0.002598320817 	-5.605557965e-07 	4.953121642e-06
0.2983211975 	0.001468569946 	4.02793201e-05 	2.309474755e-07 	0.002587283784 	-5.08936348e-07 	4.93208199e-06
0.3000367404 	0.001461079677 	4.02033071e-05 	1.971628076e-07 	0.002576900933 	-4.23995359e-07 	4.91228939e-06
0.3017679123 	0.001453832298 	4.02014468e-05 	1.63050994e-07 	0.002567097479 	-3.421785382e-07 	4.893601283e-06
0.3035615948 	0.001446792778 	4.029633756e-05 	1.275964028e-07 	0.002557793213 	-2.611886256e-07 	4.875864766e-06
0.3053762146 	0.001440021325 	4.050162196e-05 	9.162940905e-08 	0.002549024367 	-1.829022371e-07 	4.859148908e-06
0.3072070693 	0.001433558445 	4.077857476e-05 	5.517537157e-08 	0.002540836315 	-1.07376601e-07 	4.843540205e-06
0.309054309 	0.001427389783 	4.111650206e-05 	1.816254463e-08 	0.002533210087 	-3.445331489e-08 	4.829002496e-06
0.3099572036 	0.001424539982 	4.130601973e-05 	-1.518567603e-08 	0.002529774772 	-4.385571865e-07 	4.82245383e-06
0.3109144486 	0.001421493409 	4.149297112e-05 	1.872926637e-08 	0.002526095382 	-3.574216254e-08 	4.81543989e-06
0.3127878846 	0.001415861289 	4.190087932e-05 	5.555755342e-08 	0.002519468923 	-1.03394761e-07 	4.802808018e-06
0.3146782044 	0.001410495439 	4.234953337e-05 	9.305867919e-08 	0.002513330127 	-1.688851078e-07 	4.791105767e-06
0.3165855688 	0.001405388947 	4.284855089e-05 	1.312763503e-07 	0.002507656244 	-2.323231308e-07 	4.780289769e-06
0.318510141 	0.001400506243 	4.337136723e-05 	1.702438109e-07 	0.002502406056 	-2.937991886e-07 	4.770281451e-06
0.3204874336 	0.001395804198 	4.392065615e-05 	2.107121543e-07 	0.00249754096 	-3.545026071e-07 	4.761007225e-06
0.3225010989 	0.001391297557 	4.452757787e-05 	2.523655112e-07 	0.002493061734 	-4.138657398e-07 	4.752468576e-06
0.324532613 	0.001387014442 	4.517791919e-05 	2.492085763e-07 	0.002488987966 	-3.984190332e-07 	4.744702842e-06
0.3265821488 	0.001382947969 	4.586555925e-05 	2.116022495e-07 	0.002485317461 	-3.298388789e-07 	4.737705839e-06
0.3286498823 	0.001379086935 	4.65952707e-05 	1.73251061e-07 	0.002482034943 	-2.633432098e-07 	4.731448447e-06
0.3307359925 	0.001375424432 	4.736679246e-05 	1.341286566e-07 	0.002479125265 	-1.98838051e-07 	4.725901792e-06
0.3328406618 	0.001371956306 	4.819013162e-05 	9.421630401e-08 	0.002476572945 	-1.362387289e-07 	4.721036362e-06
0.334964076 	0.001368664371 	4.905154843e-05 	5.349324019e-08 	0.002474359266 	-7.54608001e-08 	4.716816473e-06
0.3371320833 	0.001365515872 	4.994415043e-05 	1.141118367e-08 	0.002472469084 	-1.570209069e-08 	4.713213262e-06
0.3377175152 	0.001364723337 	5.019523083e-05 	-4.255232182e-09 	0.002472054322 	-1.898359197e-07 	4.71242261e-06
0.3393444052 	0.001362498359 	5.087191963e-05 	3.084523676e-08 	0.002470863239 	-4.294050325e-08 	4.710152075e-06
0.3415743451 	0.00135964475 	5.184746576e-05 	7.344433538e-08 	0.002469562829 	-9.98123689e-08 	4.707673132e-06
0.3438239536 	0.001356958116 	5.286470003e-05 	1.168536534e-07 	0.002468578343 	-1.550590596e-07 	4.705796427e-06
0.346093434 	0.001354426652 	5.39281222e-05 	1.610862199e-07 	0.002467900084 	-2.087508442e-07 	4.704503477e-06
0.3483829935 	0.001352048187 	5.50424943e-05 	2.061488222e-07 	0.002467516445 	-2.609547201e-07 	4.703772155e-06
0.3506928437 	0.001349820637 	5.62204239e-05 	2.520670864e-07 	0.002467415363 	-3.11743348e-07 	4.703579465e-06
0.3530295839 	0.001347719043 	5.742729391e-05 	2.880069126e-07 	0.002467594236 	-3.480549749e-07 	4.703920447e-06
0.3554374975 	0.001345727298 	5.869791206e-05 	2.457099287e-07 	0.002468056793 	-2.900967026e-07 	4.704802208e-06
0.3578664156 	0.001343867708 	6.005554847e-05 	2.026345545e-07 	0.002468786015 	-2.33784775e-07 	4.706192308e-06
0.3603165657 	0.001342147088 	6.145955948e-05 	1.587546712e-07 	0.002469776396 	-1.790298969e-07 	4.70808025e-06
0.3627881801 	0.001340548883 	6.291321066e-05 	1.140650196e-07 	0.002471022258 	-1.257682669e-07 	4.710455209e-06
0.3652814963 	0.001339075622 	6.443642456e-05 	6.856380954e-08 	0.002472512256 	-7.393823664e-08 	4.713295559e-06
0.3677967568 	0.001337720719 	6.601537079e-05 	2.225015615e-08 	0.002474243984 	-2.34740811e-08 	4.716596714e-06
0.3690001284 	0.001337132029 	6.677800006e-05 	1.543760032e-09 	0.002475176789 	-2.89171567e-07 	4.718374899e-06
0.3703570904 	0.001336458879 	6.76210461e-05 	2.43447784e-08 	0.002476206026 	-2.624258772e-08 	4.720336912e-06
0.3729676944 	0.001335293317 	6.929525379e-05 	7.133518531e-08 	0.002478395219 	-7.530166348e-08 	4.724510122e-06
0.3756010887 	0.001334243031 	7.104655195e-05 	1.190421847e-07 	0.002480811816 	-1.230996428e-07 	4.729116827e-06
0.3782575372 	0.00133330191 	7.284906697e-05 	1.674546418e-07 	0.002483447329 	-1.696945275e-07 	4.734140848e-06
0.3809373097 	0.001332464487 	7.47219657e-05 	2.165613714e-07 	0.002486293464 	-2.151511551e-07 	4.739566373e-06
0.3836406821 	0.001331729226 	7.666163703e-05 	2.66357192e-07 	0.002489349305 	-2.595336413e-07 	4.745391655e-06
0.3863896793 	0.001331081249 	7.865905833e-05 	3.158365508e-07 	0.00249263222 	-3.019051679e-07 	4.751649804e-06
0.389197645 	0.001330519363 	8.075639885e-05 	2.699693922e-07 	0.002496140428 	-2.532179759e-07 	4.758337421e-06
0.3920300409 	0.001330054612 	8.294333552e-05 	2.234873286e-07 	0.00249984653 	-2.05784715e-07 	4.765402283e-06
0.3948871681 	0.001329682128 	8.518587326e-05 	1.76389715e-07 	0.002503738936 	-1.595219347e-07 	4.77282229e-06
0.397769335 	0.001329397539 	8.751509972e-05 	1.287017459e-07 	0.002507808036 	-1.1437819e-07 	4.780579126e-06
0.4006768572 	0.001329196166 	8.990190393e-05 	8.043954114e-08 	0.00251206754 	-7.028587425e-08 	4.788698925e-06
0.4036541291 	0.001329064916 	9.237413964e-05 	3.083101616e-08 	0.002516539432 	-2.649302212e-08 	4.797223592e-06
0.4055087421 	0.001329033366 	9.396765865e-05 	1.247483588e-08 	0.002519405534 	-2.194436761e-07 	4.80268718e-06
0.4066666498 	0.001329010871 	9.494869732e-05 	1.860753684e-08 	0.002521180312 	-1.653903259e-08 	4.8060704e-06
0.4097021532 	0.001329040314 	9.756079997e-05 	6.71190173e-08 	0.002525958922 	-5.87704876e-08 	4.815179759e-06
0.4127643706 	0.001329145749 	0.000100255453 	1.15987525e-07 	0.002530889078 	-1.001087227e-07 	4.824578008e-06
0.4158536567 	0.001329323671 	0.000103018941 	1.651810267e-07 	0.002535980993 	-1.406148842e-07 	4.834284612e-06
0.4190035533 	0.001329564191 	0.0001058693073 	2.152267343e-07 	0.002541256368 	-1.807848811e-07 	4.844340944e-06
0.4222017372 	0.001329871045 	0.00010884614 	2.658044006e-07 	0.002546696341 	-2.204334478e-07 	4.854711043e-06
0.4254279802 	0.001330249831 	0.0001119080189 	3.165052982e-07 	0.002552273999 	-2.593185679e-07 	4.865343609e-06
0.428682672 	0.001330694282 	0.000115061493 	3.064457739e-07 	0.002557974026 	-2.482195919e-07 	4.876209445e-06
0.4319662123 	0.001331197906 	0.0001182846655 	2.601334546e-07 	0.002563813567 	-2.084559894e-07 	4.887341234e-06
0.4353200549 	0.001331752002 	0.000121613816 	2.129952236e-07 	0.002569812647 	-1.689446938e-07 	4.898777147e-06
0.4387139945 	0.001332362542 	0.0001250826364 	1.65654519e-07 	0.002575939047 	-1.301591831e-07 	4.910455769e-06
0.4421378657 	0.001333034358 	0.0001286453341 	1.183264245e-07 	0.002582167143 	-9.216731835e-08 	4.92232825e-06
0.445592109 	0.001333756331 	0.0001322971531 	7.10507236e-08 	0.002588494245 	-5.490632213e-08 	4.934389465e-06
0.4490909705 	0.001334521444 	0.0001360419745 	2.365526333e-08 	0.002594939799 	-1.814979922e-08 	4.946676483e-06
0.4508620033 	0.001334923522 	0.0001379710734 	3.705387382e-08 	0.002598201548 	-2.86167068e-07 	4.952894283e-06
0.4526540059 	0.001335330464 	0.0001399037264 	2.301181352e-08 	0.002601485431 	-1.845555826e-08 	4.959154277e-06
0.4562464102 	0.001336189301 	0.0001438724128 	6.833494617e-08 	0.0026080954 	-5.450958747e-08 	4.971754715e-06
0.4598709613 	0.001337094228 	0.0001479496824 	1.132978997e-07 	0.002614765687 	-8.996149368e-08 	4.984470137e-06
0.4635297771 	0.001338033816 	0.0001521150244 	1.578686577e-07 	0.002621517331 	-1.24884405e-07 	4.997340646e-06
0.4672662354 	0.001339003575 	0.0001564258877 	2.025296331e-07 	0.002628358225 	-1.597329202e-07 	5.010381292e-06
0.4710361103 	0.00134000942 	0.0001609020428 	2.465306927e-07 	0.002635243293 	-1.940506094e-07 	5.023506144e-06
0.4748399356 	0.001341052333 	0.000165496856 	2.898255164e-07 	0.00264215125 	-2.278772509e-07 	5.03667463e-06
0.4786793613 	0.001342117799 	0.0001701895626 	3.323520329e-07 	0.002649100997 	-2.612706293e-07 	5.04992278e-06
0.4825957524 	0.001343202863 	0.0001750421722 	3.003656351e-07 	0.002656094606 	-2.362879766e-07 	5.063254543e-06
0.486547475 	0.001344313847 	0.0001800816751 	2.593668286e-07 	0.002663084385 	-2.044045963e-07 	5.076579003e-06
0.4905351173 	0.001345449014 	0.0001852418274 	2.190720831e-07 	0.002670058887 	-1.731249478e-07 	5.089874344e-06
0.4945682564 	0.001346593824 	0.0001905248015 	1.794002842e-07 	0.002677028796 	-1.423071159e-07 	5.103160927e-06
0.4986692407 	0.001347749798 	0.000195992171 	1.402400559e-07 	0.002683978817 	-1.117770931e-07 	5.116409598e-06
0.5028076531 	0.001348921988 	0.000201650701 	1.02075492e-07 	0.002690867419 	-8.18426452e-08 	5.129541189e-06
0.5069841407 	0.001350102884 	0.0002074319275 	6.494594434e-08 	0.002697696539 	-5.24365219e-08 	5.14255939e-06
0.5112216396 	0.001351282649 	0.000213373862 	2.867438754e-08 	0.002704462807 	-2.333796568e-08 	5.155457776e-06
0.5147184832 	0.00135224843 	0.0002183926564 	2.850776529e-08 	0.002709896175 	-1.232314312e-07 	5.165815286e-06
0.5155119101 	0.001352468086 	0.0002195250769 	6.192497715e-09 	0.002711124835 	-5.316531369e-09 	5.168157453e-06
0.5198395751 	0.001353662227 	0.0002258171404 	3.853374747e-08 	0.002717654295 	-3.340672113e-08 	5.180604418e-06
0.5242131926 	0.001354849747 	0.0002322562046 	6.961623095e-08 	0.002724065775 	-6.101029709e-08 	5.192826482e-06
0.5286556948 	0.001356031093 	0.0002389062116 	9.950591125e-08 	0.002730333945 	-8.825466956e-08 	5.204775356e-06
0.5331398208 	0.001357210328 	0.0002457788663 	1.278516364e-07 	0.002736415421 	-1.149027801e-07 	5.216368339e-06
0.5376663255 	0.001358379045 	0.0002528007911 	1.546231598e-07 	0.002742315714 	-1.409688079e-07 	5.227615937e-06
0.5422617001 	0.001359533028 	0.000260025631 	1.799346479e-07 	0.002748012325 	-1.66610734e-07 	5.238475263e-06
0.5469046699 	0.001360678838 	0.0002674993675 	2.034822412e-07 	0.002753452902 	-1.916186553e-07 	5.248846514e-06
0.5515919481 	0.001361809744 	0.0002751391434 	2.252181561e-07 	0.002758640832 	-2.159533669e-07 	5.25873615e-06
0.556343005 	0.001362920984 	0.0002829798751 	2.452054307e-07 	0.002763551224 	-2.397089109e-07 	5.268096722e-06
0.5611476171 	0.001364019665 	0.0002910766446 	2.632435381e-07 	0.002768130292 	-2.627395023e-07 	5.276825698e-06
0.5659985932 	0.001365099523 	0.0002993540773 	2.750529687e-07 	0.00277237763 	-2.806519875e-07 	5.284922306e-06
0.5709123736 	0.001366157583 	0.0003078353028 	2.502287354e-07 	0.002776264514 	-2.613793747e-07 	5.292331787e-06
0.5758818988 	0.001367200906 	0.0003165719714 	2.267540104e-07 	0.002779735266 	-2.428464881e-07 	5.298948005e-06
0.5808999763 	0.001368222713 	0.0003254915948 	2.046704801e-07 	0.002782789067 	-2.25061684e-07 	5.304769399e-06
0.585982671 	0.001369222941 	0.0003346183593 	1.838863196e-07 	0.002785390142 	-2.079345863e-07 	5.30972777e-06
0.5911208992 	0.001370208066 	0.0003439900934 	1.645302459e-07 	0.002787483501 	-1.91635185e-07 	5.313718294e-06
0.5963100062 	0.001371170343 	0.0003535352332 	1.465916865e-07 	0.002789069955 	-1.761536082e-07 	5.316742516e-06
0.6015672442 	0.001372114133 	0.0003632904812 	1.299868405e-07 	0.002790102371 	-1.614374603e-07 	5.318710588e-06
0.6068785218 	0.001373041719 	0.0003732620242 	1.148131455e-07 	0.002790538937 	-1.476437618e-07 	5.319542804e-06
0.6122458951 	0.001373947189 	0.0003833952494 	1.009943534e-07 	0.002790373441 	-1.347284244e-07 	5.319227322e-06
0.6176802584 	0.0013748378 	0.0003937111975 	8.850218052e-08 	0.002789550027 	-1.227242491e-07 	5.317657667e-06
0.6231089688 	0.001375703248 	0.0004040908886 	7.744720764e-08 	0.002788070068 	-1.118331279e-07 	5.314836455e-06
0.628479262 	0.001376545664 	0.0004144229945 	6.77750013e-08 	0.002785942718 	-1.020563685e-07 	5.310781134e-06
0.6337917032 	0.001377392211 	0.000424705427 	5.940484661e-08 	0.002783139031 	-9.340231685e-08 	5.305436527e-06
0.6390410869 	0.001378236526 	0.0004348814121 	5.219697742e-08 	0.002779714146 	-8.581316623e-08 	5.298907744e-06
0.644236594 	0.001379074305 	0.0004449587801 	4.599887341e-08 	0.002775694126 	-7.919535716e-08 	5.291244468e-06
0.6493731342 	0.001379910295 	0.0004549445434 	4.073278312e-08 	0.002771077353 	-7.356147195e-08 	5.282443617e-06
0.6544495689 	0.001380736579 	0.0004647843968 	3.626136302e-08 	0.002765908444 	-6.88062831e-08 	5.272590239e-06
0.6594747915 	0.001381564485 	0.0004745020332 	3.247135337e-08 	0.002760179781 	-6.485750945e-08 	5.261669816e-06
0.6644417602 	0.001382396584 	0.0004840948247 	2.929014387e-08 	0.002753902198 	-6.17061212e-08 	5.249702997e-06
0.6693518272 	0.001383227712 	0.0004935221649 	2.660523778e-08 	0.002747118322 	-5.924426221e-08 	5.236771043e-06
0.6742111561 	0.001384070704 	0.0005028107762 	2.433862328e-08 	0.002739820116 	-5.742339008e-08 	5.222858634e-06
0.6790145641 	0.00138492516 	0.0005119497152 	2.242685528e-08 	0.002732029289 	-5.621124436e-08 	5.208007153e-06
0.6837634788 	0.001385787818 	0.0005209087125 	2.078742659e-08 	0.00272378601 	-5.55103202e-08 	5.192293173e-06
0.6884626381 	0.001386671572 	0.0005297129463 	1.936639054e-08 	0.002715084166 	-5.527960381e-08 	5.175705039e-06
0.6931082167 	0.00138757573 	0.0005383538377 	1.811750023e-08 	0.002705946815 	-5.548280125e-08 	5.158286709e-06
0.6977011208 	0.001388496303 	0.000546803927 	1.698410812e-08 	0.00269641615 	-5.603420279e-08 	5.140118613e-06
0.7022457724 	0.001389446152 	0.0005550853463 	1.59285753e-08 	0.002686489088 	-5.689042838e-08 	5.121194873e-06
0.7067390029 	0.001390427005 	0.0005631993167 	1.492267317e-08 	0.002676181885 	-5.802409581e-08 	5.101546478e-06
0.7111815988 	0.001391431564 	0.0005711163586 	1.393166472e-08 	0.002665542444 	-5.936189727e-08 	5.081264748e-06
0.7155766245 	0.00139247143 	0.0005788519933 	1.293461165e-08 	0.002654574698 	-6.085960934e-08 	5.060357175e-06
0.7199227611 	0.001393552156 	0.000586418585 	1.192344435e-08 	0.002643284907 	-6.250743642e-08 	5.038835696e-06
0.7242202053 	0.001394664114 	0.0005937879702 	1.088217795e-08 	0.002631723317 	-6.424864995e-08 	5.016796091e-06
0.7284707509 	0.0013958174 	0.0006009684498 	9.792999072e-09 	0.002619902779 	-6.602994299e-08 	4.994262861e-06
0.7326748377 	0.001397022396 	0.0006079811753 	8.64392536e-09 	0.002607820366 	-6.783386684e-08 	4.971230423e-06
0.7368320496 	0.001398270715 	0.0006148079923 	7.418489637e-09 	0.002595517944 	-6.960624123e-08 	4.947778588e-06
0.7409431719 	0.001399563081 	0.000621441313 	6.110355304e-09 	0.00258302771 	-7.130104833e-08 	4.923968731e-06
0.7450100561 	0.00140090719 	0.0006278952176 	4.765088162e-09 	0.002570355304 	-7.295338284e-08 	4.899811602e-06
0.7490317742 	0.001402303769 	0.0006341711383 	3.433268904e-09 	0.002557522304 	-7.460496527e-08 	4.875348338e-06
0.7530089314 	0.001403757487 	0.000640263719 	2.068902072e-09 	0.002544562098 	-7.617875707e-08 	4.850642584e-06
0.7569426995 	0.001405279566 	0.0006461859358 	6.278800409e-10 	0.00253148304 	-7.757638349e-08 	4.825710263e-06
0.7608334894 	0.001406858153 	0.0006519353971 	-7.640286022e-10 	0.002518309463 	-7.891561184e-08 	4.800597764e-06
0.7646812936 	0.001408472198 	0.0006574864733 	-1.938758337e-09 	0.002505101167 	-8.039869961e-08 	4.775419081e-06
0.7684866645 	0.001410136575 	0.0006628456394 	-2.951444394e-09 	0.002491882229 	-8.1954705e-08 	4.750220111e-06
0.7722507669 	0.001411914065 	0.0006680217177 	-2.564669044e-09 	0.002478591626 	-8.186287253e-08 	4.724884528e-06
0.7759735373 	0.00141382803 	0.000673018625 	-1.731767525e-10 	0.002465206604 	-7.922832968e-08 	4.699368956e-06
0.779655338 	0.001415834105 	0.0006778541437 	2.681872429e-09 	0.002451813072 	-7.562265354e-08 	4.673837161e-06
0.7832966776 	0.001417909072 	0.000682537781 	5.111522904e-09 	0.002438481817 	-7.211792013e-08 	4.648424085e-06
0.7868985473 	0.00142005806 	0.0006870904221 	6.720024542e-09 	0.002425232457 	-6.903294241e-08 	4.623167121e-06
0.7904608766 	0.001422283563 	0.0006915336946 	7.049597866e-09 	0.002412080229 	-6.652842441e-08 	4.59809532e-06
0.7939841139 	0.001424579656 	0.000695873177 	5.826701248e-09 	0.002399057218 	-6.468332741e-08 	4.573269842e-06
0.7974687307 	0.001426941177 	0.000700113161 	2.882467697e-09 	0.002386195489 	-6.363496992e-08 	4.548751811e-06
0.8009155059 	0.001429367722 	0.0007042602861 	-1.742220878e-09 	0.002373514562 	-6.353560634e-08 	4.524578439e-06
0.8043245387 	0.001431859059 	0.0007083132044 	-7.667472686e-09 	0.002361031905 	-6.445138734e-08 	4.500783025e-06
0.8076962384 	0.001434420914 	0.0007122805406 	-1.484056162e-08 	0.002348762302 	-6.644220014e-08 	4.477393752e-06
0.8110310454 	0.001437093876 	0.0007161483533 	-2.200616263e-08 	0.002336680121 	-6.819480676e-08 	4.454361758e-06
0.8143295486 	0.001439929558 	0.0007198521777 	-2.600232478e-08 	0.002324736039 	-6.711234592e-08 	4.431593016e-06
0.8175920432 	0.001442894708 	0.0007234009478 	-2.752468679e-08 	0.002312982379 	-6.396943907e-08 	4.409187275e-06
0.820818861 	0.001445939722 	0.0007268396233 	-2.88045786e-08 	0.002301507457 	-6.086135398e-08 	4.387312883e-06
0.824010415 	0.001449086939 	0.0007301824787 	-2.985496409e-08 	0.002290319373 	-5.781244901e-08 	4.365985287e-06
0.8271671471 	0.001452371064 	0.0007334571255 	-3.080120665e-08 	0.002279395412 	-5.458594183e-08 	4.34516118e-06
0.8302895134 	0.001455797659 	0.0007366773253 	-3.086913493e-08 	0.002268730269 	-5.010630594e-08 	4.324830454e-06
0.8333777685 	0.001459356404 	0.0007398412518 	-2.964706335e-08 	0.002258351352 	-4.441140358e-08 	4.305045354e-06
0.8364323014 	0.001463052442 	0.0007429521073 	-2.826577654e-08 	0.002248281799 	-3.920256099e-08 	4.285849987e-06
0.839453495 	0.001466898305 	0.0007460198466 	-2.684868688e-08 	0.0022385308 	-3.426080384e-08 	4.267261872e-06
0.8424417766 	0.001470907194 	0.0007490568287 	-2.54150242e-08 	0.002229100558 	-2.953128078e-08 	4.24928521e-06
0.8453974796 	0.001475090767 	0.0007520746841 	-2.394856624e-08 	0.00221999422 	-2.504204591e-08 	4.231925999e-06
0.8483209236 	0.001479456475 	0.0007550807216 	-2.245064272e-08 	0.002211226061 	-2.079820093e-08 	4.215211451e-06
0.851212471 	0.001484014545 	0.000758083292 	-2.092836759e-08 	0.002202809847 	-1.679052341e-08 	4.199167807e-06
0.8540724785 	0.001488776833 	0.000761091659 	-1.938834602e-08 	0.002194758899 	-1.300862184e-08 	4.183820463e-06
0.8569013304 	0.001493758848 	0.0007641171419 	-1.783590349e-08 	0.002187083165 	-9.443598506e-09 	4.169188381e-06
0.8596993388 	0.001498977181 	0.0007671719315 	-1.62764546e-08 	0.00217979192 	-6.084861268e-09 	4.155289241e-06
0.862466824 	0.00150444609 	0.0007702658902 	-1.471745898e-08 	0.002172903337 	-2.920993235e-09 	4.142157688e-06
0.8652041249 	0.001510183849 	0.0007734106597 	-1.316546522e-08 	0.002166434555 	5.706198402e-11 	4.129826392e-06