0.4709558481 	0.008252661867 	2.514373011e-09 	-1.706795114e-13
0.4709558481 	0.008252661867 	2.514373011e-09 	-1.706795114e-13
0.4711314108 	0.02269209892 	3.04471723e-08 	-1.988158208e-12
0.4713069734 	0.04535782367 	1.126286676e-07 	-7.308065384e-12
0.471482536 	0.06799492748 	2.5223496e-07 	-1.629396038e-11
0.4716580986 	0.09059950146 	4.502838536e-07 	-2.894727801e-11
0.4718336613 	0.1131663746 	7.074234537e-07 	-4.522779199e-11
0.4720092239 	0.1356880691 	1.024789206e-06 	-6.513986342e-11
0.4721847865 	0.1581534304 	1.402369644e-06 	-8.868775647e-11
0.4723603491 	0.1805460392 	1.837553806e-06 	-1.158558288e-10
0.4725359118 	0.2028425952 	2.324473238e-06 	-1.466109847e-10
0.4727114744 	0.2250115621 	2.854950342e-06 	-1.809209385e-10
0.472887037 	0.2470124347 	3.421396104e-06 	-2.187800448e-10
0.4730625996 	0.2687959984 	4.020469568e-06 	-2.602209534e-10
0.4732381623 	0.2903058387 	4.655163389e-06 	-3.052972196e-10
0.4734137249 	0.3114811219 	5.334747182e-06 	-3.540802289e-10
0.4735892875 	0.3322603473 	6.075345887e-06 	-4.067309609e-10
0.4737648501 	0.3525854873 	6.8921355e-06 	-4.632598149e-10
0.4739404128 	0.3724058007 	7.737549082e-06 	-5.218812124e-10
0.4741159754 	0.3916807078 	8.390379605e-06 	-5.774529395e-10
0.474291538 	0.4103814891 	9.367295869e-06 	-6.517742661e-10
0.4744671006 	0.4285191508 	1.090223782e-05 	-7.364441149e-10
0.4746426632 	0.4461431675 	1.203252932e-05 	-7.9678399e-10
0.4748182259 	0.4632836322 	1.287805919e-05 	-8.649664451e-10
0.4749937885 	0.4799446272 	1.397997739e-05 	-9.520891025e-10
0.4751693511 	0.4961293029 	1.518557786e-05 	-1.037957561e-09
0.4753449137 	0.5118423024 	1.642944512e-05 	-1.126040113e-09
0.4755204764 	0.5270896194 	1.771356198e-05 	-1.218056551e-09
0.475696039 	0.5418783252 	1.904387643e-05 	-1.314055167e-09
0.4758716016 	0.5562163876 	2.041749458e-05 	-1.413897241e-09
0.4760471642 	0.570113138 	2.18227189e-05 	-1.517537483e-09
0.4762227269 	0.5854208887 	2.347354502e-05 	-1.640330125e-09
0.4764955107 	0.603844374 	2.565584266e-05 	-1.801235801e-09
0.4767734216 	0.6235073187 	2.820418775e-05 	-1.989666221e-09
0.4770565557 	0.642681665 	3.089754237e-05 	-2.191748886e-09
0.4773450114 	0.661373984 	3.375385788e-05 	-2.408122948e-09
0.4776388886 	0.6795917048 	3.678683766e-05 	-2.639483057e-09
0.4779382892 	0.6973435075 	4.00038294e-05 	-2.886550331e-09
0.4782433171 	0.714638871 	4.341211176e-05 	-3.15008286e-09
0.4785540779 	0.7314875685 	4.70197654e-05 	-3.430873437e-09
0.4788706795 	0.7478994537 	5.083506897e-05 	-3.729720685e-09
0.4791932316 	0.7638856145 	5.48659563e-05 	-4.047393919e-09
0.4795218461 	0.7794614551 	5.912085101e-05 	-4.384742934e-09
0.4798566368 	0.7946453528 	6.360978717e-05 	-4.74279294e-09
0.48019772 	0.8094530243 	6.834387605e-05 	-5.122657125e-09
0.4805452138 	0.8238971391 	7.333464501e-05 	-5.525507728e-09
0.4808992388 	0.837989686 	7.859414437e-05 	-5.952597613e-09
0.4812599177 	0.8517424547 	8.413509413e-05 	-6.40524758e-09
0.4816273755 	0.8651671123 	8.997086405e-05 	-6.884847146e-09
0.4820017397 	0.8782752004 	9.611548573e-05 	-7.39285963e-09
0.48238314 	0.8910781222 	0.0001025836965 	-7.930827666e-09
0.4827717088 	0.9035871385 	0.0001093909914 	-8.500379111e-09
0.4831675807 	0.9158133716 	0.0001165536796 	-9.103233726e-09
0.4835708931 	0.9277678175 	0.0001240889462 	-9.741210758e-09
0.4839817856 	0.9394613637 	0.0001320149205 	-1.041623738e-08
0.4844004009 	0.9509048089 	0.000140350751 	-1.113035781e-08
0.4848268841 	0.9621088822 	0.0001491166863 	-1.188574268e-08
0.485261383 	0.9730842559 	0.000158334161 	-1.268469744e-08
0.4857040484 	0.9838415503 	0.0001680258654 	-1.35296677e-08
0.4861550336 	0.9943913258 	0.0001782157795 	-1.442324441e-08
0.4866144951 	1.004744068 	0.0001889292953 	-1.536817481e-08
0.4870825921 	1.014910178 	0.0002001933608 	-1.636736054e-08
0.487559487 	1.024899987 	0.0002120364388 	-1.742384486e-08
0.4880453452 	1.034723766 	0.0002244884953 	-1.854081337e-08
0.4885403351 	1.044391748 	0.0002375810862 	-1.972158591e-08
0.4890446283 	1.053914131 	0.0002513473867 	-2.096959411e-08
0.4895583997 	1.063301082 	0.0002658221848 	-2.228835685e-08
0.4900818274 	1.072562735 	0.000281041866 	-2.368144796e-08
0.4906150929 	1.081709185 	0.0002970443789 	-2.515245546e-08
0.4911583811 	1.090750474 	0.0003138691774 	-2.67049326e-08
0.4917118805 	1.099696574 	0.000331557135 	-2.834234047e-08
0.4922757829 	1.108557368 	0.0003501504271 	-3.00679825e-08
0.4928502838 	1.117342621 	0.0003696923786 	-3.188493167e-08
0.4934355824 	1.126061957 	0.0003902272717 	-3.379595093e-08
0.4940318817 	1.134724826 	0.0004118001109 	-3.580340835e-08
0.4946393885 	1.143340477 	0.0004344563404 	-3.790918747e-08
0.4952583133 	1.151917933 	0.0004582415108 	-4.011459371e-08
0.4958888709 	1.160465968 	0.0004832008918 	-4.242025601e-08
0.4965312797 	1.168993089 	0.0005093790264 	-4.482602203e-08
0.4971857627 	1.177507543 	0.0005368192248 	-4.73308425e-08
0.4978525466 	1.186017322 	0.0005655629955 	-4.993263843e-08
0.4985318627 	1.194530201 	0.0005956494149 	-5.26281423e-08
0.4992239466 	1.203053805 	0.0006271144379 	-5.541270337e-08
0.4999290382 	1.211595697 	0.0006599901572 	-5.828004975e-08
0.5006473819 	1.220163512 	0.0006943040281 	-6.122200884e-08
0.501379227 	1.228765096 	0.0007300781169 	-6.42282119e-08
0.502124827 	1.237408602 	0.0007673284847 	-6.728584957e-08
0.5028844406 	1.246102403 	0.0008060644957 	-7.037956117e-08
0.5036583311 	1.254854431 	0.0008462868824 	-7.349148645e-08
0.5044467669 	1.263670131 	0.0008879863261 	-7.660186041e-08
0.5052500214 	1.27254715 	0.0009311611324 	-7.969236319e-08
0.506068373 	1.282600603 	0.0009816214345 	-8.313683584e-08
0.507324668 	1.294795459 	0.001045476379 	-8.723997361e-08
0.5085949819 	1.307772551 	0.001116904919 	-9.151810058e-08
0.5098794711 	1.320348283 	0.001189782472 	-9.550563947e-08
0.5111782938 	1.332494835 	0.001263669945 	-9.903009075e-08
0.5124916099 	1.344177953 	0.001337996433 	-1.019058165e-07
0.5138195812 	1.355351899 	0.001412077336 	-1.039623573e-07
0.5151623712 	1.365965067 	0.00148512663 	-1.050780422e-07
0.5165201452 	1.375965818 	0.001556335118 	-1.052365881e-07
0.5178930705 	1.385305901 	0.001624925495 	-1.045194089e-07
0.5192813161 	1.393944646 	0.001690129707 	-1.030527988e-07
0.520685053 	1.401857533 	0.001751119473 	-1.009584788e-07
0.522104454 	1.40905276 	0.001807442964 	-9.942164873e-08
0.523539694 	1.415599701 	0.001859943377 	-9.808701003e-08
0.5249909497 	1.421626736 	0.001909227639 	-9.576205153e-08
0.5264583998 	1.427240322 	0.001955528686 	-9.380342356e-08
0.527942225 	1.432470114 	0.001999458783 	-9.19791579e-08
0.5294426081 	1.437311126 	0.002040699478 	-8.945041292e-08
0.5309597337 	1.441760953 	0.002078710956 	-8.66706961e-08
0.5324937889 	1.445821289 	0.002113328534 	-8.361171783e-08
0.5340449624 	1.449498359 	0.00214440857 	-8.027490636e-08
0.5356134452 	1.45280295 	0.002171847205 	-7.672175639e-08
0.5371994306 	1.45575006 	0.002195609526 	-7.302895602e-08
0.5388031139 	1.458358147 	0.002215725792 	-6.927164365e-08
0.5404246925 	1.460648084 	0.00223227947 	-6.551589861e-08
0.5420643661 	1.462641951 	0.002245393382 	-6.181015094e-08
0.5437223366 	1.464361927 	0.002255203112 	-5.81632043e-08
0.5453988083 	1.465829568 	0.002261847185 	-5.461748593e-08
0.5470939875 	1.467066801 	0.00226551766 	-5.128828436e-08
0.5488080831 	1.468098421 	0.002266470724 	-4.824350579e-08
0.5505413061 	1.468951609 	0.002264992514 	-4.551879434e-08
0.5522938699 	1.469651999 	0.002261386589 	-4.313205153e-08
0.5540659904 	1.470221197 	0.002255927846 	-4.103122333e-08
0.5558578859 	1.470676889 	0.002248833636 	-3.915761794e-08
0.5576697768 	1.471033597 	0.00224028155 	-3.747588378e-08
0.5595018865 	1.471303309 	0.002230421241 	-3.595632231e-08
0.5613544406 	1.471495972 	0.002219378545 	-3.457328404e-08
0.563227667 	1.471619883 	0.002207259385 	-3.330565872e-08
0.5651217966 	1.471681999 	0.00219415336 	-3.213615915e-08
0.5670370626 	1.471688178 	0.002180136599 	-3.105048075e-08
0.5689737009 	1.471643377 	0.002165274032 	-3.00366877e-08
0.5709319499 	1.471551806 	0.00214962123 	-2.908475511e-08
0.5729120508 	1.471417053 	0.002133225899 	-2.818621196e-08
0.5749142474 	1.471242191 	0.002116129116 	-2.733386192e-08
0.5769387863 	1.471029855 	0.002098366345 	-2.652156383e-08
0.5789859169 	1.470782313 	0.002079968266 	-2.574405649e-08
0.5810558911 	1.470501521 	0.002060961486 	-2.499681668e-08
0.583148964 	1.470189169 	0.002041369112 	-2.427594292e-08
0.5852653933 	1.46984672 	0.002021211248 	-2.357805935e-08
0.5874054395 	1.469475442 	0.002000505406 	-2.290023598e-08
0.5895693664 	1.469076434 	0.001979266858 	-2.223992214e-08
0.5917574402 	1.468650646 	0.001957508932 	-2.159489079e-08
0.5939699306 	1.468198905 	0.001935243274 	-2.096319185e-08
0.5962071099 	1.467721924 	0.001912480065 	-2.034311291e-08
0.5984692536 	1.467220319 	0.001889228209 	-1.973314605e-08
0.6007566404 	1.466694619 	0.001865495503 	-1.913195986e-08
0.6030695519 	1.46614528 	0.00184128878 	-1.853837567e-08
0.6054082729 	1.465572689 	0.001816614034 	-1.795134737e-08
0.6077730914 	1.464977173 	0.001791476534 	-1.736994427e-08
0.6101642987 	1.464359007 	0.001765880923 	-1.679333645e-08
0.6125821893 	1.463718418 	0.001739831302 	-1.62207824e-08
0.6150270608 	1.463055589 	0.001713331314 	-1.565161842e-08
0.6174992144 	1.462370668 	0.001686384212 	-1.508524973e-08
0.6199989545 	1.461663763 	0.001658992924 	-1.452114288e-08
0.622526589 	1.460934956 	0.001631160109 	-1.395881949e-08
0.625082429 	1.460184295 	0.001602888211 	-1.339785097e-08
0.6276667894 	1.459411806 	0.00157417951 	-1.283785425e-08
0.6302799884 	1.458617487 	0.00154503616 	-1.227848832e-08
0.6329223478 	1.457801317 	0.001515460237 	-1.17194515e-08
0.6355941931 	1.456963252 	0.001485453773 	-1.116047935e-08
0.6382958531 	1.456103227 	0.001455018793 	-1.060134323e-08
0.6410276607 	1.455221162 	0.001424157347 	-1.004184924e-08
0.6437899523 	1.454316957 	0.001392871544 	-9.481837695e-09
0.646583068 	1.453390496 	0.001361163575 	-8.921182954e-09
0.6494073518 	1.452441644 	0.001329035747 	-8.359793495e-09
0.6522631514 	1.451470254 	0.001296490506 	-7.797612303e-09
0.6551508186 	1.450476161 	0.001263530459 	-7.234617394e-09
0.658070709 	1.449459184 	0.0012301584 	-6.670822481e-09
0.6610231822 	1.448419127 	0.001196377331 	-6.106277667e-09
0.6640086017 	1.447355776 	0.001162190478 	-5.541070139e-09
0.6670273351 	1.446268903 	0.001127601314 	-4.975324786e-09
0.6700797543 	1.445158262 	0.001092613573 	-4.409204663e-09
0.6731662352 	1.444023589 	0.001057231266 	-3.842911252e-09
0.6762871577 	1.442864602 	0.001021458693 	-3.276684454e-09
0.6794429063 	1.441681 	0.0009853004562 	-2.710802249e-09
0.6826338695 	1.440472459 	0.0009487614705 	-2.145579976e-09
0.6858604404 	1.439238638 	0.0009118469684 	-1.58136915e-09
0.6891230163 	1.437979168 	0.0008745625075 	-1.018555804e-09
0.6924219988 	1.436693659 	0.0008369139727 	-4.575582829e-10
0.6957577944 	1.435381694 	0.0007989075778 	1.011755348e-10
0.6991308138 	1.434042826 	0.0007605498628 	6.57171647e-10
0.7025414724 	1.432676579 	0.0007218476902 	1.209933974e-09
0.7059901901 	1.431282444 	0.0006828082372 	1.758949081e-09
0.7094773917 	1.429859879 	0.0006434389865 	2.303691608e-09
0.7130035066 	1.428408302 	0.0006037477136 	2.843630418e-09
0.7165689691 	1.426927092 	0.000563742468 	3.378235371e-09
0.7201742182 	1.425415582 	0.0005234315528 	3.906984723e-09
0.7238196978 	1.42387306 	0.0004828235494 	4.429374702e-09
0.727505857 	1.422298763 	0.0004419273704 	4.94493275e-09
0.7312331497 	1.420691871 	0.000400751955 	5.453221211e-09
0.7350020349 	1.419055871 	0.0003594160239 	5.952518793e-09
0.7387709215 	1.417404011 	0.0003182772927 	6.43848844e-09
0.7424982157 	1.415749868 	0.0002776864347 	6.907330158e-09
0.7461843763 	1.414097532 	0.0002377484842 	7.358395186e-09
0.7498298574 	1.412446711 	0.000198458241 	7.792353655e-09
0.7534351078 	1.410797111 	0.0001598099052 	8.20989658e-09
0.7570005716 	1.409148435 	0.0001217974417 	8.611742148e-09
0.7605266877 	1.407500385 	8.441453848e-05 	8.998635109e-09
0.7640138905 	1.405852661 	4.765460381e-05 	9.371352885e-09
0.7674626093 	1.404204963 	1.151081322e-05 	9.730719521e-09
0.770873269 	1.402556991 	-2.402384343e-05 	1.007762633e-08
0.7742462894 	1.400908445 	-5.895651802e-05 	1.041305728e-08
0.777582086 	1.399259025 	-9.329445731e-05 	1.073811304e-08
0.7808810695 	1.397608434 	-0.0001270449505 	1.105400956e-08
0.7841436462 	1.395956372 	-0.0001602152858 	1.136199361e-08
0.787370218 	1.394302542 	-0.0001928127439 	1.166319669e-08
0.7905611821 	1.392646647 	-0.0002248444525 	1.195879975e-08
0.7937169314 	1.390988389 	-0.0002563166243 	1.224998999e-08
0.7968378547 	1.389327471 	-0.0002872350166 	1.253165054e-08
0.7999243362 	1.387663595 	-0.0003176151476 	1.278229871e-08
0.8029767561 	1.38599644 	-0.000347460929 	1.30557798e-08
0.8059954902 	1.384324879 	-0.0003767495222 	1.337756518e-08
0.8089809102 	1.382646359 	-0.0004054637878 	1.371809041e-08
0.8119333839 	1.380957902 	-0.0004335646903 	1.409386716e-08
0.8148532749 	1.379256875 	-0.0004609994295 	1.449233779e-08
0.8177409426 	1.377540794 	-0.0004877424921 	1.490535727e-08
0.8205967427 	1.375807203 	-0.0005137770184 	1.533970517e-08
0.8234210268 	1.374053657 	-0.0005390882887 	1.57921738e-08
0.8262141429 	1.372277755 	-0.0005636647203 	1.625572302e-08
0.8289764348 	1.370477211 	-0.0005874987191 	1.67250292e-08
0.8317082427 	1.368649936 	-0.0006105869691 	1.719715061e-08
0.8344099031 	1.366794112 	-0.0006329302993 	1.767047798e-08
0.8370817486 	1.364908248 	-0.0006545331484 	1.814383146e-08
0.8397241082 	1.362991214 	-0.0006754027594 	1.861613154e-08
0.8423373074 	1.361042234 	-0.000695548266 	1.908646261e-08
0.844921668 	1.359060862 	-0.0007149797865 	1.955423114e-08
0.8474775082 	1.35704692 	-0.0007337075941 	2.001923983e-08
0.8500051427 	1.35500043 	-0.0007517414129 	2.04816529e-08
0.8525048829 	1.352921531 	-0.0007690898747 	2.094190785e-08
0.8549770366 	1.350810398 	-0.0007857601582 	2.140063348e-08
0.8574219081 	1.348667175 	-0.0008017578088 	2.185860261e-08
0.8598397987 	1.346491908 	-0.0008170867169 	2.231671792e-08
0.862231006 	1.34428451 	-0.0008317492138 	2.277601574e-08
0.8645958245 	1.342044734 	-0.0008457462411 	2.323767297e-08
0.8669345455 	1.339772163 	-0.0008590775482 	2.370300827e-08
0.8692474569 	1.337466216 	-0.0008717418831 	2.417347493e-08
0.8715348435 	1.335126157 	-0.0008837371519 	2.465064596e-08
0.8737969871 	1.332751117 	-0.0008950605337 	2.513619352e-08
0.8760341663 	1.33034011 	-0.0009057085491 	2.563186539e-08
0.8782466565 	1.327892054 	-0.000915677083 	2.613946103e-08
0.8804347301 	1.325405783 	-0.0009249613714 	2.666081025e-08
0.8825986568 	1.322880058 	-0.000933555959 	2.719775703e-08
0.8847387028 	1.320313572 	-0.0009414546356 	2.775215024e-08
0.8868551318 	1.317704951 	-0.0009486503573 	2.832584208e-08
0.8889482045 	1.315052744 	-0.0009551351544 	2.892069374e-08
0.8910181784 	1.312355421 	-0.0009609000268 	2.953858652e-08
0.8930653087 	1.309611353 	-0.000965934827 	3.018143565e-08
0.8950898473 	1.306818798 	-0.0009702281269 	3.085120315e-08
0.8970920436 	1.303975883 	-0.0009737670702 	3.154990548e-08
0.8990721441 	1.30108058 	-0.0009765372088 	3.227961155e-08
0.9010303927 	1.298130683 	-0.0009785223294 	3.304242641e-08
0.9029670306 	1.295123779 	-0.0009797042754 	3.384045642e-08
0.9048822962 	1.292057222 	-0.0009800627772 	3.467575216e-08
0.9067764254 	1.288928101 	-0.0009795753028 	3.555022642e-08
0.9086496514 	1.28573321 	-0.0009782169482 	3.646554571e-08
0.910502205 	1.282469015 	-0.0009759603879 	3.742299566e-08
0.9123343142 	1.279131627 	-0.0009727759048 	3.842332216e-08
0.9141462048 	1.275716772 	-0.0009686315224 	3.946655244e-08
0.9159380997 	1.27221977 	-0.0009634932598 	4.055180212e-08
0.9177102197 	1.268635516 	-0.0009573255249 	4.167707645e-08
0.9194627831 	1.264958469 	-0.0009500916596 	4.28390755e-08
0.9211960055 	1.261182653 	-0.0009417546441 	4.40330147e-08
0.9229101006 	1.257301662 	-0.0009322779601 	4.52524729e-08
0.9246052793 	1.253308686 	-0.0009216266043 	4.648928059e-08
0.9262817504 	1.249196534 	-0.0009097682367 	4.773346052e-08
0.9279397204 	1.244957688 	-0.0008966744373 	4.897323167e-08
0.9295793934 	1.240584348 	-0.0008823220364 	5.019508559e-08
0.9312009714 	1.236068506 	-0.0008666944772 	5.138394071e-08
0.9328046541 	1.231402015 	-0.0008497831607 	5.252337669e-08
0.9343906389 	1.22657667 	-0.0008315887212 	5.359594573e-08
0.9359591211 	1.221584293 	-0.0008121221759 	5.458355289e-08
0.937510294 	1.216416816 	-0.0007914058967 	5.54678922e-08
0.9390443485 	1.211066357 	-0.0007694743575 	5.623092085e-08
0.9405614735 	1.205525292 	-0.000746374615 	5.685535023e-08
0.942061856 	1.199786314 	-0.0007221665001 	5.732513084e-08
0.9435456805 	1.193842478 	-0.0006969225013 	5.762590771e-08
0.9450131299 	1.187687221 	-0.0006707273461 	5.774542536e-08
0.946464385 	1.181314371 	-0.0006436772928 	5.767386464e-08
0.9478996243 	1.174718127 	-0.0006158791631 	5.740409858e-08
0.9493190246 	1.167893018 	-0.0005874491571 	5.693186016e-08
0.9507227608 	1.160833842 	-0.0005585114982 	5.625582022e-08
0.9521110058 	1.153535581 	-0.0005291969643 	5.537757878e-08
0.9534839303 	1.145993307 	-0.0004996413647 	5.430157714e-08
0.9548417036 	1.138202082 	-0.0004699840225 	5.303494154e-08
0.9561844929 	1.130156887 	-0.0004403663183 	5.158727095e-08
0.9575124634 	1.121852623 	-0.0004109303461 	4.997038192e-08
0.9588257788 	1.113284281 	-0.000381817792 	4.819803362e-08
0.9601246008 	1.104447496 	-0.0003531691687 	4.628569224e-08
0.9614090893 	1.095339891 	-0.0003251225707 	4.425034306e-08
0.9626794024 	1.085964006 	-0.0002978092869 	4.210987959e-08
0.9639356968 	1.077158194 	-0.0002735488742 	4.007396189e-08
0.9647540487 	1.069884407 	-0.0002544907708 	3.838103758e-08
0.9655573034 	1.063430409 	-0.0002382651111 	3.68750205e-08
0.9663457395 	1.056984408 	-0.0002226733984 	3.537049278e-08
0.9671196303 	1.050546434 	-0.0002077118353 	3.387298067e-08
0.9678792442 	1.044112174 	-0.000193378959 	3.238822575e-08
0.9686248445 	1.037675449 	-0.0001796707644 	3.092149426e-08
0.9693566897 	1.031229395 	-0.0001665811608 	2.947749025e-08
0.9700750337 	1.024766987 	-0.0001541024768 	2.806039551e-08
0.9707801255 	1.018281232 	-0.0001422255369 	2.66738854e-08
0.9714722095 	1.011765228 	-0.000130939703 	2.532113943e-08
0.9721515258 	1.005212146 	-0.0001202329737 	2.400485849e-08
0.9728183099 	0.9986151947 	-0.0001100921139 	2.272728743e-08
0.9734727929 	0.9919675872 	-0.0001005028002 	2.149024072e-08
0.9741152019 	0.9852625045 	-9.14497729e-05 	2.029513024e-08
0.9747457596 	0.9784930744 	-8.291699081e-05 	1.914299454e-08
0.9753646845 	0.9716523558 	-7.488778339e-05 	1.803452912e-08
0.9759721914 	0.9647333308 	-6.734499691e-05 	1.697011701e-08
0.9765684907 	0.9577289032 	-6.02711323e-05 	1.594985938e-08
0.9771537895 	0.9506319014 	-5.364847286e-05 	1.497360571e-08
0.9777282904 	0.9434350844 	-4.74592012e-05 	1.404098309e-08
0.9782921928 	0.9361311491 	-4.168550485e-05 	1.315142452e-08
0.9788456922 	0.9287127395 	-3.630967047e-05 	1.230419587e-08
0.9793889805 	0.9211724543 	-3.13141669e-05 	1.14984213e-08
0.979922246 	0.9135028548 	-2.668171726e-05 	1.073310697e-08
0.9804456737 	0.9056964701 	-2.239536059e-05 	1.000716309e-08
0.9809594451 	0.8977458008 	-1.8438507e-05 	9.319424662e-09
0.9814637383 	0.8896433199 	-1.479499097e-05 	8.668671369e-09
0.9819587281 	0.88138147 	-1.144908833e-05 	8.053638748e-09
0.9824445862 	0.8729526556 	-8.385516279e-06 	7.47303099e-09
0.9829214811 	0.8643492311 	-5.589515166e-06 	6.925549826e-09
0.9833895781 	0.8555634947 	-3.046904989e-06 	6.409902284e-09
0.9838490396 	0.8465876922 	-7.440250393e-07 	5.924793087e-09
0.9843000247 	0.8374140224 	1.332291917e-06 	5.468939261e-09
0.98474269 	0.8280346356 	3.194697421e-06 	5.041079935e-09
0.9851771888 	0.8184416279 	4.855337033e-06 	4.639975339e-09
0.9856036719 	0.8086270322 	6.325873517e-06 	4.264409779e-09
0.9860222871 	0.7985828095 	7.61750673e-06 	3.913194029e-09
0.9864331796 	0.7883008411 	8.740993056e-06 	3.585166856e-09
0.9868364919 	0.7777729232 	9.706665657e-06 	3.279196079e-09
0.9872323637 	0.7669907659 	1.052445531e-05 	2.994179287e-09
0.9876209323 	0.7559459967 	1.120391167e-05 	2.729044245e-09
0.9880023326 	0.7446301698 	1.175422523e-05 	2.482749037e-09
0.9883766967 	0.7330347811 	1.218424877e-05 	2.254282403e-09
0.9887441544 	0.7211512869 	1.250251169e-05 	2.042664784e-09
0.9891048331 	0.7089711059 	1.271721978e-05 	1.846946729e-09
0.9894588579 	0.6964855261 	1.283627319e-05 	1.666198655e-09
0.9898063516 	0.6836851549 	1.286718897e-05 	1.499567523e-09
0.9901474347 	0.6705589321 	1.281694112e-05 	1.346295982e-09
0.9904822253 	0.6570953651 	1.269175102e-05 	1.205680892e-09
0.9908108397 	0.6432852199 	1.24976031e-05 	1.077041253e-09
0.9911333916 	0.6291211437 	1.224072472e-05 	9.596826296e-10
0.9914499931 	0.6145961704 	1.192730329e-05 	8.529116609e-10
0.9917607538 	0.5997036243 	1.156339326e-05 	7.560526768e-10
0.9920657815 	0.5844373664 	1.115492552e-05 	6.684506959e-10
0.9923651819 	0.5687921199 	1.070761992e-05 	5.894718287e-10
0.992659059 	0.5527638152 	1.022673357e-05 	5.185020783e-10
0.9929475145 	0.5363499386 	9.717718794e-06 	4.549483679e-10
0.9932306485 	0.5195498246 	9.190430534e-06 	3.982607991e-10
0.9935085592 	0.5023643538 	8.656760537e-06 	3.479507164e-10
0.9937813429 	0.486305342 	8.14736754e-06 	3.069689772e-10
0.9939569055 	0.4729963195 	7.707993364e-06 	2.768919048e-10
0.9941324681 	0.4609423371 	7.318452983e-06 	2.523800778e-10
0.9943080307 	0.4485355886 	6.935079544e-06 	2.296435555e-10
0.9944835934 	0.4357716282 	6.55492493e-06 	2.085992891e-10
0.994659156 	0.4226473141 	6.164206212e-06 	1.893464845e-10
0.9948347186 	0.4091604222 	5.687546149e-06 	1.72022663e-10
0.9950102812 	0.3953093223 	5.180905765e-06 	1.540660725e-10
0.9951858439 	0.3810853893 	4.953477425e-06 	1.376922798e-10
0.9953614065 	0.3664612928 	4.829487511e-06 	1.265317829e-10
0.9955369691 	0.3514080118 	4.389863766e-06 	1.147876509e-10
0.9957125317 	0.3359235595 	3.881149758e-06 	1.018867691e-10
0.9958880943 	0.3200268639 	3.507166026e-06 	9.10759693e-11
0.996063657 	0.3037441544 	3.149961315e-06 	8.122157186e-11
0.9962392196 	0.2871081795 	2.789970895e-06 	7.196420901e-11
0.9964147822 	0.2701568178 	2.437331985e-06 	6.326091614e-11
0.9965903448 	0.2529311389 	2.101458136e-06 	5.510989952e-11
0.9967659075 	0.2354731497 	1.789163872e-06 	4.752256648e-11
0.9969414701 	0.2178235476 	1.505353182e-06 	4.052304827e-11
0.9971170327 	0.2000197905 	1.252152357e-06 	3.412766429e-11
0.9972925953 	0.1820947158 	1.02869755e-06 	2.832990492e-11
0.997468158 	0.1640758061 	8.321491455e-07 	2.310320533e-11
0.9976437206 	0.1459850745 	6.591971353e-07 	1.841527304e-11
0.9978192832 	0.127839446 	5.072393251e-07 	1.424238463e-11
0.9979948458 	0.1096514688 	3.7486589e-07 	1.057638054e-11
0.9981704085 	0.09143018807 	2.617379776e-07 	7.423623113e-12
0.9983459711 	0.07318204266 	1.681751985e-07 	4.799765135e-12
0.9985215337 	0.05491168304 	9.480194283e-08 	2.726355654e-12
0.9986970963 	0.03662264976 	4.245458644e-08 	1.232935898e-12
0.998872659 	0.01831788223 	1.147716399e-08 	3.380322776e-13
0.9990482216 	0.007714231203 	1.092438804e-09 	3.409490005e-14
