6.019744331e-37 	0.008803025876 	-3.5961888e-16 	-2.065317254e-23 	1.469105517e-29 	8.437179307e-37 	4.845533136e-44
0.0003137191626 	0.008788188035 	0.0005376446996 	-7.272149815e-09 	0.01276357947 	3.988117498e-08 	2.433092992e-05
0.0006274377305 	0.008783508163 	0.0005154633781 	-2.475357379e-09 	0.01299942948 	1.132828721e-08 	2.47805256e-05
0.0007529268723 	0.008786092813 	0.0005101381652 	-4.736536556e-06 	0.01301138895 	-0.0001129763346 	2.480332366e-05
0.000941155703 	0.008789964343 	0.0005021350635 	-3.036651248e-09 	0.01302918299 	2.330914037e-08 	2.483724405e-05
0.001254873079 	0.008785194215 	0.0005177535939 	-8.566993815e-09 	0.01305061383 	6.218935117e-08 	2.487809719e-05
0.001568589859 	0.008783697494 	0.0005506614838 	-1.504050851e-08 	0.01305543937 	1.009612451e-07 	2.4887296e-05
0.001882306041 	0.008782763167 	0.0005941688446 	-2.272329083e-08 	0.01305743938 	1.395833999e-07 	2.489110858e-05
0.002196021624 	0.008781686427 	0.0006446630729 	-3.17717419e-08 	0.01305930328 	1.780454446e-07 	2.489466171e-05
0.00250973661 	0.008780534657 	0.0007001786168 	-4.2293096e-08 	0.01306100641 	2.163296189e-07 	2.489790835e-05
0.002823450996 	0.008779360208 	0.0007595888627 	-5.437217312e-08 	0.01306256711 	2.544165198e-07 	2.490088347e-05
0.003137164783 	0.0087781692 	0.0008222132056 	-6.808282504e-08 	0.01306410756 	2.922874402e-07 	2.490381999e-05
0.003450877969 	0.008776970089 	0.0008876265065 	-8.349366212e-08 	0.01306571682 	3.299230841e-07 	2.490688769e-05
0.003764590556 	0.008775780117 	0.0009555602489 	-1.006713323e-07 	0.01306744924 	3.673029785e-07 	2.491019016e-05
0.004078302543 	0.008774621386 	0.001025846408 	-1.196825039e-07 	0.01306934505 	4.044055529e-07 	2.491380411e-05
0.004392013928 	0.008773519232 	0.001098383532 	-1.405951511e-07 	0.01307143863 	4.412083512e-07 	2.491779504e-05
0.004705724713 	0.008772501981 	0.001173115428 	-1.634794963e-07 	0.01307376067 	4.776882873e-07 	2.49222215e-05
0.005019434897 	0.008771600854 	0.001250017322 	-1.884087917e-07 	0.01307633935 	5.138219984e-07 	2.492713718e-05
0.00533314448 	0.008770849881 	0.001329086535 	-2.154600211e-07 	0.01307920096 	5.49586292e-07 	2.49325922e-05
0.005646853463 	0.008770285837 	0.001410336036 	-2.447145167e-07 	0.01308237027 	5.849587064e-07 	2.49386338e-05
0.005960561844 	0.00876994822 	0.001493789839 	-2.762583863e-07 	0.0130858706 	6.199182468e-07 	2.494530638e-05
0.006274269624 	0.008769879232 	0.001579479641 	-3.101825048e-07 	0.01308972367 	6.544464651e-07 	2.495265141e-05
0.006587976804 	0.008770123732 	0.001667442305 	-3.465816201e-07 	0.01309394959 	6.88528942e-07 	2.49607072e-05
0.006901683384 	0.008770729223 	0.00175771796 	-3.855519919e-07 	0.01309856652 	7.221563332e-07 	2.496950835e-05
0.007215389363 	0.008771746278 	0.001850348438 	-4.271869836e-07 	0.01310358889 	7.553244639e-07 	2.497908239e-05
0.007529094743 	0.008773229321 	0.001945375551 	-4.715686294e-07 	0.01310902437 	7.880449973e-07 	2.498944392e-05
0.007842799523 	0.00877523303 	0.002042839385 	-5.187443352e-07 	0.01311488454 	8.203947719e-07 	2.500061503e-05
0.008156503703 	0.008777796008 	0.00214277863 	-5.686443434e-07 	0.0131212346 	8.525325029e-07 	2.501272e-05
0.008470207286 	0.008780940032 	0.002245194678 	-6.208684668e-07 	0.01312816562 	8.837047393e-07 	2.502593245e-05
0.00878391027 	0.008784706019 	0.00234937254 	-6.700201874e-07 	0.01313522803 	9.162464489e-07 	2.503939537e-05
0.009097612657 	0.008786416592 	0.002446892033 	-7.39088178e-07 	0.01314103806 	9.392672313e-07 	2.505047091e-05
0.009411314447 	0.008777915401 	0.002501541061 	-7.76404719e-07 	0.01313936774 	9.780398265e-07 	2.504728682e-05
0.009898733563 	0.008755741399 	0.002489161197 	-8.198309775e-07 	0.01312609632 	1.031968139e-06 	2.50219878e-05
0.01039531224 	0.008726823128 	0.00244156025 	-8.802482877e-07 	0.01310674906 	1.075113068e-06 	2.498510654e-05
0.01090122258 	0.008697890213 	0.002391371573 	-9.046149846e-07 	0.01308630576 	1.14437498e-06 	2.494613592e-05
0.01141663991 	0.008669342666 	0.002344531397 	-9.345618288e-07 	0.01306615951 	1.215393063e-06 	2.490773157e-05
0.01194174287 	0.008640616918 	0.002300971248 	-9.724097238e-07 	0.01304664084 	1.283475801e-06 	2.487052357e-05
0.01247671344 	0.008612312884 	0.002259931735 	-1.009257434e-06 	0.01302753233 	1.351249124e-06 	2.483409743e-05
0.01302173702 	0.008584473721 	0.002220991453 	-1.047375661e-06 	0.01300872784 	1.419043847e-06 	2.479825086e-05
0.0135770025 	0.008557038287 	0.002183741831 	-1.087041418e-06 	0.0129901718 	1.487553508e-06 	2.476287789e-05
0.01414270231 	0.008529949582 	0.002147812361 	-1.128298255e-06 	0.01297183916 	1.556704138e-06 	2.472793078e-05
0.0147190325 	0.008503162946 	0.002112867743 	-1.171108442e-06 	0.01295370777 	1.626453306e-06 	2.469336731e-05
0.01530619282 	0.008476644389 	0.002078604143 	-1.21540413e-06 	0.01293575978 	1.696789569e-06 	2.465915346e-05
0.01590438673 	0.008450369027 	0.002044745341 	-1.261107951e-06 	0.01291798296 	1.767697641e-06 	2.46252659e-05
0.01651382157 	0.008424320125 	0.002011039359 	-1.308142179e-06 	0.01290037068 	1.839147462e-06 	2.459169199e-05
0.01713470852 	0.00839848835 	0.001977255593 	-1.356432437e-06 	0.01288292194 	1.911092611e-06 	2.455842984e-05
0.01776726278 	0.008372871342 	0.001943181819 	-1.405908953e-06 	0.01286564054 	1.983470904e-06 	2.452548669e-05
0.01841170354 	0.008347472935 	0.00190861489 	-1.456506499e-06 	0.01284853216 	2.056211424e-06 	2.449287336e-05
0.01906825416 	0.008322290312 	0.001873273294 	-1.508146297e-06 	0.01283159754 	2.129244363e-06 	2.446059126e-05
0.01973714216 	0.008297266977 	0.001836587854 	-1.560518183e-06 	0.01281479014 	2.20253606e-06 	2.442855169e-05
0.02042153748 	0.008272367983 	0.001798161942 	-1.613491699e-06 	0.01279808519 	2.276458208e-06 	2.439670741e-05
0.02112091823 	0.008247656491 	0.001757949675 	-1.667133037e-06 	0.01278154343 	2.350860087e-06 	2.436517422e-05
0.02183344139 	0.008223258724 	0.001716173776 	-1.721537014e-06 	0.0127652679 	2.425288608e-06 	2.433414853e-05
0.02255935386 	0.008199281081 	0.001673081493 	-1.776797395e-06 	0.01274934753 	2.499581897e-06 	2.430379988e-05
0.02329890722 	0.008175775548 	0.001628605894 	-1.791519865e-06 	0.01273383617 	2.515475404e-06 	2.427423093e-05
0.02405235775 	0.008152793882 	0.001582641251 	-1.730316929e-06 	0.01271878755 	2.423728791e-06 	2.424554407e-05
0.02481996657 	0.008130394336 	0.001535086863 	-1.668203405e-06 	0.01270425788 	2.330029068e-06 	2.421784648e-05
0.02560199967 	0.008108641231 	0.001485850746 	-1.605130308e-06 	0.01269030984 	2.234453051e-06 	2.419125765e-05
0.02639872806 	0.008087604944 	0.001434849524 	-1.541059385e-06 	0.01267701294 	2.137084535e-06 	2.416591005e-05
0.02721042784 	0.008067362018 	0.001382008189 	-1.475962344e-06 	0.01266444337 	2.038015977e-06 	2.414194896e-05
0.02803738028 	0.008047995175 	0.001327259914 	-1.409820293e-06 	0.01265268415 	1.937349701e-06 	2.411953261e-05
0.02887987195 	0.008029593297 	0.001270545914 	-1.342623293e-06 	0.01264182527 	1.835199127e-06 	2.409883259e-05
0.0297381948 	0.008012251374 	0.001211815336 	-1.274369979e-06 	0.01263196388 	1.731690162e-06 	2.408003403e-05
0.03061264626 	0.007996070435 	0.001151025176 	-1.205067251e-06 	0.01262320431 	1.626962775e-06 	2.406333586e-05
0.03150352933 	0.007981157431 	0.00108814022 	-1.134730025e-06 	0.01261565813 	1.521172749e-06 	2.404895075e-05
0.03241115274 	0.007967625094 	0.001023132986 	-1.063381024e-06 	0.01260944412 	1.414493634e-06 	2.403710511e-05
0.03333583098 	0.007955591738 	0.0009559836768 	-9.910506268e-07 	0.01260468811 	1.307118921e-06 	2.402803884e-05
0.03427788447 	0.007945181013 	0.0008866801221 	-9.177767519e-07 	0.01260152285 	1.1992644e-06 	2.402200496e-05
0.03523763963 	0.007936521601 	0.000815217698 	-8.436048093e-07 	0.01260008764 	1.091170679e-06 	2.401926905e-05
0.03621542904 	0.00792974691 	0.0007415990398 	-7.685876782e-07 	0.01260052779 	9.831060315e-07 	2.40201081e-05
0.03721159148 	0.007924994704 	0.0006658319312 	-6.927854612e-07 	0.01260299347 	8.753701004e-07 	2.402480837e-05
0.03822647215 	0.00792240562 	0.0005879088834 	-6.162625213e-07 	0.0126076392 	7.682974558e-07 	2.403366442e-05
0.03926042268 	0.007922120794 	0.0005076960321 	-5.39060516e-07 	0.01261462606 	6.622623868e-07 	2.404698333e-05
0.04031569926 	0.007924291875 	0.0004247775271 	-4.610672526e-07 	0.01262412852 	5.575022763e-07 	2.406509765e-05
0.04139611951 	0.007929096603 	0.0003389872116 	-3.821978237e-07 	0.01263633666 	4.541904252e-07 	2.408836976e-05
0.0424968417 	0.007936713717 	0.0002508574678 	-3.030608494e-07 	0.0126514287 	3.533203118e-07 	2.411713938e-05
0.04361824725 	0.00794730184 	0.0001608443768 	-2.238159545e-07 	0.01266957084 	2.554444333e-07 	2.415172336e-05
0.04476072477 	0.007961013352 	6.903070949e-05 	-1.446009931e-07 	0.01269092767 	1.61169798e-07 	2.419243541e-05
0.04592467013 	0.007977998784 	-2.45263411e-05 	-6.555828552e-08 	0.01271565901 	7.116216674e-08 	2.423958021e-05
0.04691067477 	0.007994972042 	-0.0001037175813 	-6.917188003e-07 	0.01273914668 	-2.137756547e-06 	2.428435424e-05
0.04711048667 	0.007998425618 	-0.0001197347912 	-1.462697898e-08 	0.01274369542 	2.363406105e-08 	2.429302541e-05
0.04831858527 	0.008022511198 	-0.0002163729324 	-1.027720541e-07 	0.01277426322 	1.626806428e-07 	2.435129612e-05
0.04954938458 	0.008050301231 	-0.0003145239961 	-1.922399038e-07 	0.01280859166 	2.975818837e-07 	2.441673568e-05
0.05080331105 	0.008081931303 	-0.0004141186117 	-2.829473527e-07 	0.01284681081 	4.274657797e-07 	2.448959199e-05
0.0520807992 	0.008117531726 	-0.0005150861157 	-3.747917184e-07 	0.01288904076 	5.513691297e-07 	2.4570094e-05
0.05338229166 	0.0081572267 	-0.0006173554883 	-4.676433152e-07 	0.01293539106 	6.682299352e-07 	2.465845057e-05
0.05470823941 	0.008201133236 	-0.0007208564817 	-5.613356822e-07 	0.01298596135 	7.768785867e-07 	2.47548516e-05
0.05605910188 	0.008249361154 	-0.0008255218341 	-6.556529156e-07 	0.01304083881 	8.7602741e-07 	2.485946328e-05
0.05743534714 	0.008302019342 	-0.0009312989038 	-7.503109692e-07 	0.0131000775 	9.642604886e-07 	2.49723887e-05
0.05883745205 	0.008359242007 	-0.001038232464 	-8.449068635e-07 	0.01316369569 	1.040033372e-06 	2.509366265e-05
0.06026729956 	0.008421241273 	-0.001146906823 	-9.38850061e-07 	0.01323195741 	1.101677927e-06 	2.522378845e-05
0.06173156424 	0.008488361703 	-0.001260472152 	-1.030795975e-06 	0.01330566847 	1.14759269e-06 	2.536430223e-05
0.06322334345 	0.00857189755 	-0.001408840949 	-1.112517795e-06 	0.013396209 	1.167110765e-06 	2.553689765e-05
0.06551344073 	0.00868503374 	-0.001616286741 	-1.221113769e-06 	0.01351543025 	1.177904243e-06 	2.576416647e-05
0.06782907795 	0.008817976846 	-0.001848457015 	-1.307432022e-06 	0.01365206009 	1.129972187e-06 	2.602462093e-05
0.07017053993 	0.008958985541 	-0.00207356992 	-1.373534873e-06 	0.01379337588 	1.024034362e-06 	2.629400809e-05
0.07253811468 	0.009107046172 	-0.002290140919 	-1.413900425e-06 	0.01393820645 	8.510513838e-07 	2.657009541e-05
0.07493209339 	0.009261151028 	-0.002497623288 	-1.208905702e-06 	0.01408571757 	5.150537168e-07 	2.685129261e-05
0.07735277052 	0.009406766027 	-0.002699873932 	-9.868693399e-07 	0.0142376243 	2.014794931e-07 	2.714086906e-05
0.07980044382 	0.009533842038 	-0.002901461181 	-7.787833528e-07 	0.01439491524 	-7.164133662e-08 	2.74407093e-05
0.08228795177 	0.009656787466 	-0.003100344139 	-5.999173658e-07 	0.01455370156 	-2.774466842e-07 	2.774340017e-05
0.0848045662 	0.009785607938 	-0.003297436265 	-3.898724565e-07 	0.01471037414 	-4.211325973e-07 	2.804206165e-05
0.08734924993 	0.009931692673 	-0.003486526031 	-2.663019706e-07 	0.01485755659 	-4.361355173e-07 	2.83226323e-05
0.08992231604 	0.01009733002 	-0.003664841917 	-2.088059364e-07 	0.01499234194 	-3.604697643e-07 	2.857957064e-05
0.09252408108 	0.0102708492 	-0.003837108433 	-1.377033545e-07 	0.0151182344 	-2.720197225e-07 	2.881955666e-05
0.09515486517 	0.01044768804 	-0.004002399976 	-7.244264724e-08 	0.01523647423 	-1.814157442e-07 	2.904495464e-05
0.09781499197 	0.01062478047 	-0.004161238902 	-2.299771641e-08 	0.01534850324 	-9.185728713e-08 	2.925851306e-05
0.100507166 	0.01079963426 	-0.00431483794 	-2.572074968e-10 	0.01545545722 	-5.096386628e-09 	2.946239709e-05
0.1006723289 	0.01080990867 	-0.004323853212 	-8.42926808e-08 	0.01546168279 	-8.421861377e-07 	2.947426475e-05
0.1032407961 	0.01097069022 	-0.004458658308 	-2.394339703e-07 	0.0155566587 	1.042060012e-09 	2.965531524e-05
0.1060049194 	0.01113537087 	-0.00459959898 	-4.474645634e-07 	0.01565491454 	-1.409921892e-08 	2.984261818e-05
0.108799876 	0.01129802711 	-0.004735469312 	-5.871146849e-07 	0.01574825406 	-1.923817669e-08 	3.002054923e-05
0.11162601 	0.01146451515 	-0.004860943591 	-6.404852481e-07 	0.01583421516 	2.441660551e-09 	3.018441499e-05
0.114483669 	0.01162985026 	-0.004979708364 	-5.97961161e-07 	0.01591462461 	5.163321584e-08 	3.033769774e-05
0.1173732048 	0.01178702025 	-0.005095975572 	-4.41711601e-07 	0.01599221859 	1.193972273e-07 	3.048561345e-05
0.1202961886 	0.01193476787 	-0.005210472858 	-1.492001228e-07 	0.01606766673 	2.027222071e-07 	3.062943857e-05
0.1232641206 	0.01207694715 	-0.005320876234 	9.886695174e-08 	0.01613921078 	3.449040518e-07 	3.076582142e-05
0.1262651629 	0.01221635934 	-0.00542498849 	1.950182955e-07 	0.01620495062 	5.347350182e-07 	3.089113982e-05
0.1292996849 	0.01235004588 	-0.00552532622 	2.540274801e-07 	0.0162653267 	6.786527575e-07 	3.10062334e-05
0.1323680601 	0.0124760203 	-0.005622243019 	2.57428661e-07 	0.01632064146 	6.97966913e-07 	3.11116787e-05
0.1354706662 	0.0125941266 	-0.005716131148 	1.914704933e-07 	0.01637038882 	5.615183257e-07 	3.120651101e-05
0.138607885 	0.01270516746 	-0.005807392694 	1.202045558e-07 	0.01641325184 	4.221547588e-07 	3.128821984e-05
0.1417873791 	0.01280940819 	-0.005896246026 	5.975514759e-08 	0.01644800279 	3.014711366e-07 	3.13544648e-05
0.1450082501 	0.01290631299 	-0.005982609728 	2.171439069e-08 	0.01647386682 	1.969523207e-07 	3.140376884e-05
0.1482650567 	0.01299522514 	-0.006065915703 	6.040523585e-09 	0.01649012696 	1.058568743e-07 	3.143476517e-05
0.1515582 	0.01307555584 	-0.006145483339 	4.081327602e-09 	0.01649589499 	3.124217793e-08 	3.144576065e-05
0.1548880853 	0.01314668849 	-0.006220684548 	8.051358076e-09 	0.01649022729 	-2.249760685e-08 	3.143495644e-05
0.1582551226 	0.01320792991 	-0.006290968124 	1.237912226e-08 	0.01647211349 	-5.080205574e-08 	3.14004265e-05
0.1616658524 	0.01325847622 	-0.006355875035 	1.228126845e-08 	0.01644038466 	-4.91309423e-08 	3.133994254e-05
0.1651212069 	0.01329733233 	-0.006414633022 	3.567781678e-09 	0.01639375554 	-1.330120538e-08 	3.125105448e-05
0.1659171165 	0.01330320685 	-0.006426348875 	8.420350431e-07 	0.01637936803 	-4.091643562e-06 	3.122362788e-05
0.1686151167 	0.01332310262 	-0.006465815288 	1.243780092e-09 	0.01633007981 	-2.24859128e-08 	3.112967084e-05
0.1721480121 	0.01333477405 	-0.006508813362 	1.831177495e-08 	0.0162488433 	-9.662555891e-08 	3.097481146e-05
0.175720328 	0.01333115706 	-0.006542850501 	5.526908058e-08 	0.01614892246 	-2.229670942e-07 	3.078433457e-05
0.1793325041 	0.01331086342 	-0.006567060583 	1.14110989e-07 	0.01602879545 	-4.022718895e-07 	3.055533909e-05
0.182994898 	0.0132723612 	-0.00658057206 	1.962456589e-07 	0.01588679129 	-6.347428048e-07 	3.028463971e-05
0.1867003698 	0.0132140847 	-0.006582231016 	3.020805845e-07 	0.01572141396 	-9.187711665e-07 	2.996938455e-05
0.1904471912 	0.01313449332 	-0.006570865957 	4.31298509e-07 	0.01553131646 	-1.251678126e-06 	2.960700587e-05
0.1942358234 	0.01303204415 	-0.006545498958 	5.829882e-07 	0.01531515106 	-1.629736042e-06 	2.919493454e-05
0.1980667329 	0.01290517806 	-0.006505171696 	7.556599938e-07 	0.01507158686 	-2.048030169e-06 	2.873063348e-05
0.201946184 	0.01275232993 	-0.00644902617 	9.474224216e-07 	0.01479927572 	-2.500713586e-06 	2.821153277e-05
0.205874617 	0.01257215881 	-0.006376180853 	1.114443369e-06 	0.01449723089 	-2.874112647e-06 	2.763575138e-05
0.2098468907 	0.01236370874 	-0.006285843769 	1.100162854e-06 	0.01416503831 	-2.778868807e-06 	2.700249998e-05
0.2138634941 	0.01212631285 	-0.006177508657 	1.060144112e-06 	0.01380258715 	-2.627049161e-06 	2.631156735e-05
0.2179249219 	0.01185955072 	-0.006050837553 	9.956374332e-07 	0.01341000936 	-2.423099926e-06 	2.556320496e-05
0.2220370961 	0.01156335059 	-0.005905731871 	9.08347564e-07 	0.01298776892 	-2.172470144e-06 	2.475829732e-05
0.226200533 	0.01123840397 	-0.005742383651 	8.008470142e-07 	0.01253722224 	-1.882828485e-06 	2.389943012e-05
0.2304104359 	0.0108863642 	-0.005561408942 	6.765020939e-07 	0.01206085492 	-1.563619509e-06 	2.299134162e-05
0.2346673231 	0.01050963821 	-0.005363920516 	5.393107944e-07 	0.0115619061 	-1.225360859e-06 	2.204020649e-05
0.238971719 	0.01011127675 	-0.005151415375 	3.940311249e-07 	0.01104421338 	-8.798611032e-07 	2.105334028e-05
0.2433319693 	0.00969519342 	-0.004925898111 	2.459034866e-07 	0.01051244831 	-5.394508501e-07 	2.003964827e-05
0.2477431375 	0.009266702782 	-0.00469008909 	1.012400484e-07 	0.00997281194 	-2.181108021e-07 	1.901095136e-05
0.2510499412 	0.008944596141 	-0.004510137965 	3.664226184e-06 	0.009572374208 	-8.058724235e-06 	1.824760574e-05
0.2522035389 	0.008832279166 	-0.004447354452 	3.502497774e-08 	0.009432711153 	-7.746630285e-08 	1.798136914e-05
0.2567137226 	0.008398982448 	-0.004201514651 	1.599869111e-07 	0.008900036123 	-3.473202855e-07 	1.696594249e-05
0.2612769989 	0.007973462697 	-0.003956479987 	2.646312413e-07 	0.008381943199 	-5.642985363e-07 	1.597831338e-05
0.2658977798 	0.007562723617 	-0.003716451924 	3.443630701e-07 	0.007885912242 	-7.221781869e-07 	1.503274051e-05
0.2705701354 	0.007173585263 	-0.003485669275 	3.965860593e-07 	0.007419150569 	-8.192386178e-07 	1.414296303e-05
0.275294641 	0.006811693028 	-0.003267899937 	4.21393428e-07 	0.00698746366 	-8.594211167e-07 	1.33200478e-05
0.2800721922 	0.006480913845 	-0.003066068532 	4.212560876e-07 	0.006594600665 	-8.511272093e-07 	1.257114174e-05
0.2849113354 	0.006183352224 	-0.002882170555 	4.006224545e-07 	0.006242323111 	-8.059609435e-07 	1.189960281e-05
0.2898044922 	0.005919569866 	-0.002717335588 	3.65108282e-07 	0.005930742018 	-7.368151893e-07 	1.130564265e-05
0.2947522652 	0.005688322582 	-0.002571630876 	3.209147051e-07 	0.005658023238 	-6.565409652e-07 	1.078576486e-05
0.2997552636 	0.005486838198 	-0.002444147765 	2.737684211e-07 	0.00542067418 	-5.759078623e-07 	1.033331159e-05
0.3048217599 	0.005311461032 	-0.00233330112 	2.284136386e-07 	0.005214268309 	-5.02897122e-07 	9.939844629e-06
0.3099449938 	0.005158256467 	-0.00223715308 	1.732906944e-07 	0.005034156754 	-4.072625217e-07 	9.596501944e-06
0.3151254131 	0.005023133313 	-0.002153498577 	1.220347622e-07 	0.004875602119 	-3.117024076e-07 	9.294252741e-06
0.3203643454 	0.004902058635 	-0.002080059825 	8.776207078e-08 	0.004733973191 	-2.459445027e-07 	9.024268641e-06
0.3256681805 	0.004791347569 	-0.002014671599 	6.573265691e-08 	0.004605061059 	-2.008011481e-07 	8.778526289e-06
0.3310312183 	0.0046878409 	-0.001955403276 	5.208068308e-08 	0.004485302088 	-1.692235216e-07 	8.550232404e-06
0.3364541189 	0.004588807905 	-0.001900554223 	4.377393768e-08 	0.004371660569 	-1.459411251e-07 	8.333600084e-06
0.3419400009 	0.004491939734 	-0.001848650509 	3.853375227e-08 	0.004261564227 	-1.271904915e-07 	8.123725858e-06
0.3474910806 	0.004395380599 	-0.001798456785 	3.471921931e-08 	0.004152941969 	-1.10436693e-07 	7.916661644e-06
0.3531041231 	0.004297687586 	-0.001748967309 	3.117988965e-08 	0.004044214261 	-9.405034338e-08 	7.709396412e-06
0.3587798191 	0.004197719332 	-0.001699352479 	2.713365867e-08 	0.003934139739 	-7.705240134e-08 	7.499563779e-06
0.3645235755 	0.004094613093 	-0.001648926746 	2.208908771e-08 	0.003821757535 	-5.896280422e-08 	7.285332065e-06
0.3703324803 	0.003987827936 	-0.001597166981 	1.581207418e-08 	0.003706458496 	-3.973945999e-08 	7.065540051e-06
0.3762062255 	0.003877058595 	-0.001543683177 	8.248583065e-09 	0.003587922064 	-1.958242738e-08 	6.839576665e-06
0.3818349366 	0.003768250494 	-0.001491117212 	1.810789642e-07 	0.003472442701 	-4.049088532e-07 	6.619440904e-06
0.3821475528 	0.003762208548 	-0.00148819731 	4.398506022e-10 	0.003466031564 	-1.197716686e-09 	6.607219496e-06
0.3881582854 	0.003643456358 	-0.001430532997 	9.270957028e-09 	0.003340964741 	-2.356138075e-08 	6.36880737e-06
0.3942361112 	0.003521188244 	-0.001370688026 	1.88544622e-08 	0.003213110412 	-4.504002555e-08 	6.125081483e-06
0.4003822316 	0.00339596212 	-0.001308752431 	2.873482559e-08 	0.003083039186 	-6.495030956e-08 	5.877129575e-06
0.4066010098 	0.003268510572 	-0.001244916009 	3.842197448e-08 	0.002951458939 	-8.257484194e-08 	5.626301053e-06
0.4128892032 	0.003139801701 	-0.001179487829 	4.745319997e-08 	0.002819317652 	-9.723908179e-08 	5.374403034e-06
0.4192475857 	0.003010936883 	-0.001112840042 	5.547079162e-08 	0.002687684497 	-1.084130577e-07 	5.123473654e-06
0.4256805892 	0.002883133484 	-0.001045376356 	6.222052805e-08 	0.002557693293 	-1.156531198e-07 	4.87567429e-06
0.4321857004 	0.002757757698 	-0.0009775445768 	6.755128277e-08 	0.002430610123 	-1.186223173e-07 	4.633418448e-06
0.4387634212 	0.002636209455 	-0.0009097734655 	7.141114086e-08 	0.00230773489 	-1.171581054e-07 	4.399184103e-06
0.4454175046 	0.002519870401 	-0.0008424516709 	7.371962128e-08 	0.002190357431 	-1.110885675e-07 	4.175430042e-06
0.4521463543 	0.002410113867 	-0.0007759655079 	7.433022003e-08 	0.002079774067 	-1.005696778e-07 	3.964627415e-06
0.4589503101 	0.002308198248 	-0.0007101340712 	7.506943686e-08 	0.001977146133 	-8.579436966e-08 	3.768990049e-06
0.4658328557 	0.002213562686 	-0.0006463437205 	6.824421972e-08 	0.00188192545 	-7.283892754e-08 	3.587472961e-06
0.4727925432 	0.002126060036 	-0.0005864289556 	5.915298702e-08 	0.001793401835 	-5.820023831e-08 	3.418722347e-06
0.479829972 	0.002048552429 	-0.0005295333288 	5.652405226e-08 	0.001713368493 	-3.573942299e-08 	3.266156554e-06
0.486948429 	0.001983248764 	-0.000475148701 	5.309042291e-08 	0.001643462249 	-1.072705239e-08 	3.132895824e-06
0.4941463394 	0.001930563008 	-0.0004236353156 	5.030609772e-08 	0.001584002079 	1.582831558e-08 	3.019548213e-06
0.5013447716 	0.001890514695 	-0.0003750458854 	4.776573866e-08 	0.001535066393 	4.24288012e-08 	2.926263194e-06
0.508465376 	0.00186252505 	-0.0003293891055 	4.222517065e-08 	0.001496224125 	6.324640878e-08 	2.852219037e-06
0.5155074155 	0.001845462887 	-0.0002863286225 	3.818911372e-08 	0.001466662057 	8.040563088e-08 	2.795865519e-06
0.5224724405 	0.001838072846 	-0.0002454434814 	3.536302634e-08 	0.001445462142 	9.423013026e-08 	2.755452589e-06
0.5293615891 	0.001839154654 	-0.0002063777273 	3.346799166e-08 	0.0014317086 	1.051005539e-07 	2.729234515e-06
0.5361747244 	0.001847609172 	-0.000168809864 	3.233894931e-08 	0.001424579178 	1.13546036e-07 	2.715643854e-06
0.5429133278 	0.001862468167 	-0.0001324363786 	3.179823042e-08 	0.001423343598 	1.200207684e-07 	2.713288495e-06
0.5495782327 	0.001882900345 	-9.699249345e-05 	3.170015361e-08 	0.001427369404 	1.249325538e-07 	2.720962801e-06
0.5561695966 	0.001908192247 	-6.225465587e-05 	3.192063496e-08 	0.001436136217 	1.285912795e-07 	2.737674783e-06
0.5626887148 	0.001937746182 	-2.802097332e-05 	3.235675225e-08 	0.001449203284 	1.312414961e-07 	2.762584245e-06
0.5691364214 	0.00197106337 	5.874749461e-06 	3.293840713e-08 	0.001466199186 	1.331053594e-07 	2.794983158e-06
0.5755129821 	0.00200771743 	3.956560693e-05 	3.361347937e-08 	0.001486829204 	1.343349405e-07 	2.834309706e-06
0.5818194612 	0.002047353077 	7.317370655e-05 	3.4342811e-08 	0.001510845277 	1.350419751e-07 	2.880091017e-06
0.5880568427 	0.002089674028 	0.0001067988809 	3.510890999e-08 	0.001538034114 	1.353426927e-07 	2.931920496e-06
0.5942253977 	0.002134423456 	0.0001405192488 	3.590049585e-08 	0.001568225042 	1.353113337e-07 	2.989472795e-06
0.6003259628 	0.002181389585 	0.0001744125392 	3.670660427e-08 	0.001601271209 	1.349972939e-07 	3.052467974e-06
0.6063597157 	0.002230403434 	0.0002085482584 	3.75258834e-08 	0.001637038685 	1.344668109e-07 	3.120650725e-06
0.612326888 	0.002281324819 	0.0002429814319 	3.835750172e-08 	0.001675413262 	1.337703422e-07 	3.193803335e-06
0.6182282137 	0.002334045459 	0.0002777681687 	3.919376746e-08 	0.001716299559 	1.329352383e-07 	3.271743981e-06
0.6240647607 	0.002388493333 	0.000312966837 	4.002733327e-08 	0.00175960776 	1.319969632e-07 	3.354301449e-06
0.6298369959 	0.002444619993 	0.0003486233217 	4.085619094e-08 	0.00180525658 	1.310028287e-07 	3.441320786e-06
0.6355455349 	0.002502393654 	0.0003847773837 	4.16705152e-08 	0.001853184126 	1.29969142e-07 	3.53268401e-06
0.6411911782 	0.002561806622 	0.0004214745144 	4.245801438e-08 	0.001903334055 	1.289084932e-07 	3.628283713e-06
0.6467747435 	0.002622866152 	0.0004587494246 	4.321490443e-08 	0.00195565313 	1.278531708e-07 	3.728018411e-06
0.6522966938 	0.002685581658 	0.0004966161951 	4.392214869e-08 	0.002010096616 	1.268109561e-07 	3.831802828e-06
0.6577577088 	0.002749924384 	0.0005350881765 	4.458700626e-08 	0.00206655135 	1.256677682e-07 	3.939421242e-06
0.6631586198 	0.002815811833 	0.0005742047081 	4.523561706e-08 	0.002124775043 	1.243612212e-07 	4.050411783e-06
0.6685000027 	0.002883188678 	0.0006139933253 	4.584138723e-08 	0.002184567766 	1.230755253e-07 	4.164393332e-06
0.6737824424 	0.002952062934 	0.0006544450684 	4.638575822e-08 	0.002245888082 	1.219047939e-07 	4.281286897e-06
0.679006589 	0.00302245739 	0.0006955540236 	4.687738168e-08 	0.002308742392 	1.208201363e-07 	4.401104681e-06
0.6841732363 	0.003094382995 	0.0007373164832 	4.731084013e-08 	0.002373124745 	1.198232892e-07 	4.523835341e-06
0.6892828813 	0.003167835008 	0.0007797138075 	4.768275402e-08 	0.002439026464 	1.189168711e-07 	4.649462333e-06
0.6943361397 	0.003242792524 	0.0008227204905 	4.797498959e-08 	0.002506438284 	1.180872753e-07 	4.777967999e-06
0.6993336336 	0.003319223709 	0.0008663100058 	4.815878887e-08 	0.002575346117 	1.17319917e-07 	4.909325479e-06
0.7042760903 	0.003397083365 	0.0009104458761 	4.820214797e-08 	0.002645727256 	1.166120061e-07 	5.043491492e-06
0.7091640066 	0.003476304416 	0.0009550735909 	4.807016773e-08 	0.00271755559 	1.159563716e-07 	5.180416261e-06
0.7139979828 	0.003556797364 	0.001000125496 	4.772634565e-08 	0.002790806898 	1.153227579e-07 	5.320053613e-06
0.7187786138 	0.003638468368 	0.001045520177 	4.715130038e-08 	0.002865430422 	1.146827727e-07 	5.46230679e-06
0.7235065557 	0.003721239042 	0.001091145293 	4.636204526e-08 	0.002941305297 	1.140360371e-07 	5.60694539e-06
0.7281823321 	0.003804926467 	0.001136993102 	4.536460268e-08 	0.003018529894 	1.132980883e-07 	5.754156935e-06
0.7328065091 	0.003890469127 	0.001186474351 	4.359997146e-08 	0.003097479871 	1.124138216e-07 	5.904657534e-06
0.737379656 	0.003972179654 	0.001232217073 	4.394587795e-08 	0.003181690812 	1.102243643e-07 	6.065186993e-06
0.7419023644 	0.004048077511 	0.001269616968 	4.449216844e-08 	0.003272376031 	1.075272455e-07 	6.238058225e-06
0.7463751843 	0.004124964868 	0.001305862774 	4.279559589e-08 	0.0033655546 	1.059923448e-07 	6.415682474e-06
0.7507986441 	0.004205006039 	0.001341766219 	4.149422271e-08 	0.003458507522 	1.050304603e-07 	6.59287658e-06
0.7551732887 	0.004287941173 	0.001377075451 	4.03848057e-08 	0.003550307563 	1.040826924e-07 	6.767872971e-06
0.7594996577 	0.0043728768 	0.001411890609 	3.931271827e-08 	0.003641046195 	1.028358528e-07 	6.940846023e-06
0.7637783137 	0.004458949096 	0.001446340878 	3.824727797e-08 	0.003731003377 	1.01313367e-07 	7.112329415e-06
0.7680097523 	0.004545449108 	0.001480471792 	3.716984938e-08 	0.003820295228 	9.956008058e-08 	7.282544501e-06
0.7721944944 	0.004631745306 	0.001514237044 	3.605757069e-08 	0.003908808214 	9.758498209e-08 	7.451274853e-06
0.7763330552 	0.004717369107 	0.001547568014 	3.494915521e-08 	0.003996362643 	9.552638984e-08 	7.618177928e-06
0.7804259499 	0.004802068922 	0.001580423994 	3.387748466e-08 	0.004082842125 	9.348795324e-08 	7.783031857e-06
0.7844736913 	0.004885695357 	0.00161277617 	3.284110403e-08 	0.004168156905 	9.147687576e-08 	7.94566554e-06
0.7884767633 	0.004968124091 	0.001644596518 	3.183746946e-08 	0.004252219079 	8.949380332e-08 	8.105911408e-06
0.7924356588 	0.00504924601 	0.001675860153 	3.086401775e-08 	0.004334951146 	8.75375736e-08 	8.263621722e-06
0.7963508653 	0.005128964925 	0.001706546287 	2.991921222e-08 	0.004416288865 	8.560906342e-08 	8.418674021e-06
0.8002228677 	0.005207198041 	0.001736637789 	2.900247312e-08 	0.004496179752 	8.371121852e-08 	8.570968256e-06
0.8040521488 	0.00528387703 	0.001766120434 	2.811622333e-08 	0.004574580195 	8.185500138e-08 	8.72042129e-06
0.8078391712 	0.005358946765 	0.001794983404 	2.726177802e-08 	0.004651456117 	8.004779523e-08 	8.866968164e-06
0.8115844012 	0.005432364503 	0.001823218974 	2.643973134e-08 	0.004726782186 	7.829432594e-08 	9.010560588e-06
0.8152883001 	0.005504099352 	0.001850822355 	2.565096502e-08 	0.00480054123 	7.659959386e-08 	9.151165825e-06
0.8189513238 	0.005574131248 	0.00187779184 	2.489654998e-08 	0.004872724589 	7.496870572e-08 	9.288767371e-06
0.8225739295 	0.005642450962 	0.00190412827 	2.417877435e-08 	0.004943330616 	7.340999798e-08 	9.423362082e-06
0.8261565578 	0.005709059282 	0.001929835287 	2.350034223e-08 	0.005012365142 	7.193287011e-08 	9.554961075e-06
0.8296996493 	0.005773965808 	0.001954919658 	2.286252972e-08 	0.005079842607 	7.054224364e-08 	9.683591879e-06
0.8332036402 	0.005837188952 	0.001979390805 	2.226664299e-08 	0.00514578491 	6.924287644e-08 	9.809296236e-06
0.8366689621 	0.00589875531 	0.002003261023 	2.171397219e-08 	0.00521022194 	6.803932718e-08 	9.932131124e-06
0.8400960425 	0.005958699346 	0.002026545206 	2.120580205e-08 	0.005273190899 	6.693599191e-08 	1.005216746e-05
0.8434853052 	0.006017063535 	0.002049260423 	2.074446574e-08 	0.005334734912 	6.594046437e-08 	1.016948746e-05