0.4709558481 	2.714499183e-08 	-2.684639621e-11 	-4.758574774e-18 	2.709334113e-08 	1.05106305e-14 	5.164743841e-11
0.4709558481 	2.714499183e-08 	-2.684639621e-11 	-4.758574771e-18 	2.709334113e-08 	1.05106305e-14 	5.164743841e-11
0.4711314108 	3.04718836e-07 	-1.177772157e-09 	-2.078936355e-16 	3.041384848e-07 	1.180331104e-13 	5.79772483e-10
0.4713069734 	1.698444103e-06 	-1.537211139e-08 	-2.706605024e-15 	1.695194474e-06 	6.581365081e-13 	3.231511823e-09
0.471482536 	5.656148232e-06 	-9.601180717e-08 	-1.690119075e-14 	5.645175832e-06 	2.192675474e-12 	1.076127413e-08
0.4716580986 	1.398535246e-05 	-3.908893691e-07 	-6.901043274e-14 	1.395734382e-05 	5.424634866e-12 	2.660657657e-08
0.4718336613 	2.868031834e-05 	-1.206005815e-06 	-2.144598676e-13 	2.861928069e-05 	1.113283592e-11 	5.455630331e-08
0.4720092239 	5.185023175e-05 	-3.069373029e-06 	-5.527874618e-13 	5.172832269e-05 	2.014685795e-11 	9.86085602e-08
0.4721847865 	8.566304488e-05 	-6.783967454e-06 	-1.245373057e-12 	8.543049293e-05 	3.332936615e-11 	1.628542637e-07
0.4723603491 	0.0001322795519 	-1.345571485e-05 	-2.535532405e-12 	0.0001318470163 	5.155631476e-11 	2.513370581e-07
0.4725359118 	0.0001937641681 	-2.447919738e-05 	-4.768155259e-12 	0.0001929748571 	7.568989644e-11 	3.678637122e-07
0.4727114744 	0.0002719642237 	-4.146408547e-05 	-8.402290842e-12 	0.000270554343 	1.06540334e-10 	5.157517745e-07
0.472887037 	0.0003683567607 	-6.609243497e-05 	-1.400621277e-11 	0.0003659064653 	1.448138524e-10 	6.975194213e-07
0.4730625996 	0.000483873342 	-9.99129868e-05 	-2.222340608e-11 	0.0004797566975 	1.910472185e-10 	9.14549607e-07
0.4732381623 	0.0006187281993 	-0.0001441015146 	-3.370319803e-11 	0.0006120779298 	2.455356014e-10 	1.166790652e-06
0.4734137249 	0.0007722880916 	-0.0001992380773 	-4.900278716e-11 	0.00076199455 	3.082692559e-10 	1.452573398e-06
0.4735892875 	0.0009430255099 	-0.0002651604588 	-6.848390652e-11 	0.0009277844588 	3.789003711e-10 	1.768615043e-06
0.4737648501 	0.001128583718 	-0.0003409387902 	-9.22370937e-11 	0.001106993993 	4.567567148e-10 	2.110238223e-06
0.4739404128 	0.00132595398 	-0.0004249815067 	-1.200610536e-10 	0.00129664989 	5.409075074e-10 	2.471775075e-06
0.4741159754 	0.001531740498 	-0.0005152409755 	-1.515148656e-10 	0.001493512876 	6.303450753e-10 	2.847050642e-06
0.474291538 	0.001742561376 	-0.0006098185736 	-1.840046072e-10 	0.001694379831 	7.237599667e-10 	3.229958886e-06
0.4744671006 	0.001953083197 	-0.000699787297 	-2.625158259e-10 	0.001895651111 	8.243306901e-10 	3.613637886e-06
0.4746426632 	0.002159362575 	-0.0007783659918 	-3.422721572e-10 	0.002094864869 	9.238437628e-10 	3.993394678e-06
0.4748182259 	0.002362224532 	-0.0008514990809 	-3.764224082e-10 	0.002291683202 	1.01626544e-09 	4.368585124e-06
0.4749937885 	0.002562205726 	-0.0009235895899 	-4.101425835e-10 	0.002485682364 	1.107549525e-09 	4.738401446e-06
0.4751693511 	0.002758338115 	-0.0009942937265 	-4.433517323e-10 	0.002675946332 	1.197465642e-09 	5.10109745e-06
0.4753449137 	0.002949821035 	-0.001063324905 	-4.75990091e-10 	0.002861706253 	1.285899736e-09 	5.455207489e-06
0.4755204764 	0.003136020683 	-0.001130453038 	-5.07989043e-10 	0.003042341039 	1.372657456e-09 	5.799547596e-06
0.475696039 	0.00331645258 	-0.001195503178 	-5.392975194e-10 	0.003217379465 	1.457594729e-09 	6.133219485e-06
0.4758716016 	0.00349076961 	-0.001258350539 	-5.698785985e-10 	0.003386486185 	1.540609977e-09 	6.455583894e-06
0.4760471642 	0.003658755962 	-0.001318916769 	-5.99703798e-10 	0.003549451001 	1.621621614e-09 	6.766240126e-06
0.4762227269 	0.003842304382 	-0.001385092738 	-6.327304582e-10 	0.00372750785 	1.71137242e-09 	7.105665969e-06
0.4764955107 	0.004060397889 	-0.001463722625 	-6.727081316e-10 	0.003939073345 	1.820072284e-09 	7.508968605e-06
0.4767734216 	0.004288935863 	-0.00154612045 	-7.157271892e-10 	0.004160772578 	1.937148228e-09 	7.93158896e-06
0.4770565557 	0.004506563102 	-0.001624589041 	-7.581737334e-10 	0.004371886887 	2.052840888e-09 	8.33403151e-06
0.4773450114 	0.004712841745 	-0.001698974137 	-8.001730578e-10 	0.004571988206 	2.167613083e-09 	8.715480239e-06
0.4776388886 	0.004907531532 	-0.001769198235 	-8.418076216e-10 	0.004760844124 	2.281942268e-09 	9.075492108e-06
0.4779382892 	0.005090566153 	-0.001835254372 	-8.830849616e-10 	0.004938390781 	2.396316719e-09 	9.413945384e-06
0.4782433171 	0.005262020082 	-0.001897197942 	-9.239016766e-10 	0.005104700294 	2.511229231e-09 	9.730977538e-06
0.4785540779 	0.005422078274 	-0.001955139816 	-9.64009454e-10 	0.0052599519 	2.627169234e-09 	1.002693025e-05
0.4788706795 	0.005571011485 	-0.002009240635 	-1.002989255e-09 	0.005404408151 	2.74461125e-09 	1.030230401e-05
0.4791932316 	0.005709159148 	-0.002059505091 	-1.038901771e-09 	0.005538398294 	2.863994764e-09 	1.055772647e-05
0.4795218461 	0.005836921223 	-0.002105597008 	-1.080084521e-09 	0.005662310313 	2.985646022e-09 	1.079393722e-05
0.4798566368 	0.005954744389 	-0.002147772509 	-1.128952592e-09 	0.005776577319 	3.109550785e-09 	1.101176189e-05
0.48019772 	0.006063084499 	-0.002186606529 	-1.177985914e-09 	0.005881641272 	3.235664285e-09 	1.121204298e-05
0.4805452138 	0.006162390249 	-0.002222242259 	-1.22736001e-09 	0.005977937318 	3.364194915e-09 	1.139561001e-05
0.4808992388 	0.006253111985 	-0.002254828083 	-1.277242116e-09 	0.006065902188 	3.495376208e-09 	1.15632955e-05
0.4812599177 	0.00633569936 	-0.002284515418 	-1.327778889e-09 	0.006145971912 	3.629420025e-09 	1.171593065e-05
0.4816273755 	0.006410597503 	-0.002311456501 	-1.379096151e-09 	0.006218578129 	3.766509802e-09 	1.185433828e-05
0.4820017397 	0.006478243652 	-0.002335802594 	-1.431301263e-09 	0.006284144816 	3.906803037e-09 	1.197932661e-05
0.48238314 	0.006539064551 	-0.002357702599 	-1.484486018e-09 	0.006343085756 	4.050436049e-09 	1.209168442e-05
0.4827717088 	0.006593474513 	-0.002377302033 	-1.538729575e-09 	0.00639580266 	4.197529348e-09 	1.219217749e-05
0.4831675807 	0.006641874031 	-0.00239474227 	-1.594101279e-09 	0.006442683815 	4.348193025e-09 	1.2281546e-05
0.4835708931 	0.006684648813 	-0.002410160003 	-1.650663176e-09 	0.006484103152 	4.502531631e-09 	1.236050277e-05
0.4839817856 	0.006722169157 	-0.002423686864 	-1.708472022e-09 	0.006520419636 	4.660647846e-09 	1.242973208e-05
0.4844004009 	0.006754789609 	-0.002435449187 	-1.767580425e-09 	0.006551976935 	4.822643984e-09 	1.248988907e-05
0.4848268841 	0.006782848868 	-0.002445567878 	-1.828036767e-09 	0.006579103326 	4.988620331e-09 	1.254159951e-05
0.485261383 	0.006806669925 	-0.002454158402 	-1.889883524e-09 	0.006602111835 	5.158669267e-09 	1.258546012e-05
0.4857040484 	0.006826560447 	-0.002461330864 	-1.953153607e-09 	0.006621300611 	5.332864121e-09 	1.262203926e-05
0.4861550336 	0.006842814596 	-0.002467190616 	-2.017868381e-09 	0.006636954682 	5.511252266e-09 	1.265188027e-05
0.4866144951 	0.006855713994 	-0.002471838573 	-2.084016709e-09 	0.006649346886 	5.693797181e-09 	1.267550325e-05
0.4870825921 	0.006865524361 	-0.002475369991 	-2.151564758e-09 	0.006658734623 	5.880404731e-09 	1.269339889e-05
0.487559487 	0.006872493112 	-0.002477873599 	-2.220504056e-09 	0.006665357543 	6.071052747e-09 	1.270602402e-05
0.4880453452 	0.006876850905 	-0.002479432148 	-2.290852043e-09 	0.006669439027 	6.26579151e-09 	1.271380446e-05
0.4885403351 	0.006878812886 	-0.002480122851 	-2.362635865e-09 	0.006671187403 	6.464699032e-09 	1.271713735e-05
0.4890446283 	0.006878578855 	-0.002480017443 	-2.435892809e-09 	0.006670796106 	6.667881544e-09 	1.271639143e-05
0.4895583997 	0.006876333428 	-0.002479182238 	-2.510671154e-09 	0.00666844384 	6.875475112e-09 	1.271190736e-05
0.4900818274 	0.006872246207 	-0.002477678199 	-2.587031453e-09 	0.006664294748 	7.087648526e-09 	1.270399804e-05
0.4906150929 	0.006866471973 	-0.002475561005 	-2.665048271e-09 	0.006658498598 	7.304607386e-09 	1.269294896e-05
0.4911583811 	0.006859150895 	-0.002472881129 	-2.74481239e-09 	0.006651190985 	7.526599504e-09 	1.267901862e-05
0.4917118805 	0.006850408763 	-0.002469683928 	-2.826433557e-09 	0.006642493566 	7.753921769e-09 	1.266243892e-05
0.4922757829 	0.006840357243 	-0.002466009729 	-2.910043834e-09 	0.006632514301 	7.986928636e-09 	1.264341567e-05
0.4928502838 	0.006829094146 	-0.002461893928 	-2.995801639e-09 	0.00662134772 	8.226042469e-09 	1.262212906e-05
0.4934355824 	0.006816703697 	-0.002457367076 	-3.083896609e-09 	0.006609075185 	8.471766e-09 	1.25987342e-05
0.4940318817 	0.006803256801 	-0.002452454971 	-3.174555417e-09 	0.006595765146 	8.724697244e-09 	1.257336157e-05
0.4946393885 	0.006788811259 	-0.002447178725 	-3.268048762e-09 	0.006581473359 	8.985547286e-09 	1.254611745e-05
0.4952583133 	0.006773411939 	-0.002441554807 	-3.364699724e-09 	0.006566243048 	9.255161493e-09 	1.251708424e-05
0.4958888709 	0.006757090834 	-0.002435595059 	-3.464893815e-09 	0.006550104974 	9.534544843e-09 	1.248632059e-05
0.4965312797 	0.006739867 	-0.00242930665 	-3.569091034e-09 	0.006533077376 	9.824892294e-09 	1.245386125e-05
0.4971857627 	0.006721746301 	-0.002422691976 	-3.677840344e-09 	0.006515165739 	1.012762537e-08 	1.241971669e-05
0.4978525466 	0.006702720933 	-0.002415748468 	-3.791797047e-09 	0.006496362338 	1.044443664e-08 	1.238387219e-05
0.4985318627 	0.006682768657 	-0.002408468313 	-3.91174359e-09 	0.006476645516 	1.077734407e-08 	1.234628644e-05
0.4992239466 	0.00666185171 	-0.002400838045 	-4.038614348e-09 	0.006455978634 	1.112875808e-08 	1.230688962e-05
0.4999290382 	0.006639915341 	-0.002392838023 	-4.173524771e-09 	0.006434308663 	1.150156415e-08 	1.226558064e-05
0.5006473819 	0.00661688599 	-0.00238444177 	-4.317804645e-09 	0.006411564411 	1.189922403e-08 	1.222222377e-05
0.501379227 	0.006592669206 	-0.002375615232 	-4.473033693e-09 	0.006387654448 	1.232589611e-08 	1.217664474e-05
0.502124827 	0.006567147578 	-0.002366316037 	-4.641074799e-09 	0.006362464982 	1.278656951e-08 	1.212862661e-05
0.5028844406 	0.006540179334 	-0.002356493008 	-4.824095783e-09 	0.006335858291 	1.328719281e-08 	1.207790686e-05
0.5036583311 	0.006511599009 	-0.002346086419 	-5.02456273e-09 	0.006307673019 	1.383474352e-08 	1.20241779e-05
0.5044467669 	0.006481223294 	-0.002335029911 	-5.24516271e-09 	0.006277728462 	1.443706832e-08 	1.196709525e-05
0.5052500214 	0.006448867779 	-0.002323255976 	-5.488573595e-09 	0.006245837841 	1.510213238e-08 	1.190630287e-05
0.506068373 	0.006409922838 	-0.002309086559 	-5.79290972e-09 	0.006207446772 	1.593459833e-08 	1.183311882e-05
0.507324668 	0.006359435872 	-0.00229071972 	-6.208318012e-09 	0.006157668665 	1.70707858e-08 	1.173822791e-05
0.5085949819 	0.006301708332 	-0.002269721142 	-6.709371011e-09 	0.006100750925 	1.843946984e-08 	1.162972688e-05
0.5098794711 	0.006241351832 	-0.002247769755 	-7.256869254e-09 	0.006041251 	1.993239169e-08 	1.151630348e-05
0.5111782938 	0.006178404695 	-0.002224880804 	-7.848034822e-09 	0.005979216428 	2.154150677e-08 	1.139804835e-05
0.5124916099 	0.006112902644 	-0.002201068123 	-8.480836143e-09 	0.005914688697 	2.326110564e-08 	1.127504056e-05
0.5138195812 	0.006044869088 	-0.002176340816 	-9.154033807e-09 	0.005847695171 	2.508785258e-08 	1.114733228e-05
0.5151623712 	0.005974311728 	-0.002150702233 	-9.867091333e-09 	0.005778247018 	2.702037325e-08 	1.10149448e-05
0.5165201452 	0.005901222305 	-0.002124149973 	-1.062004442e-08 	0.005706339632 	2.905878361e-08 	1.087786933e-05
0.5178930705 	0.005825577741 	-0.002096676314 	-1.141336842e-08 	0.005631954026 	3.120429273e-08 	1.073606969e-05
0.5192813161 	0.005747341783 	-0.002068268816 	-1.224785455e-08 	0.005555058576 	3.345888099e-08 	1.05894856e-05
0.520685053 	0.005666466714 	-0.002038910949 	-1.312450335e-08 	0.005475610776 	3.582505076e-08 	1.043803601e-05
0.522104454 	0.005582894949 	-0.002008582675 	-1.404444253e-08 	0.00539355883 	3.830564556e-08 	1.028162219e-05
0.523539694 	0.005496560414 	-0.001977260956 	-1.500887273e-08 	0.005308843015 	4.090372993e-08 	1.01201303e-05
0.5249909497 	0.005407389637 	-0.001944920151 	-1.601904201e-08 	0.005221396744 	4.362252123e-08 	9.953433406e-06
0.5264583998 	0.005315302532 	-0.001911532313 	-1.707624719e-08 	0.00513114733 	4.646536593e-08 	9.781392939e-06
0.527942225 	0.005220212818 	-0.001877067334 	-1.818185655e-08 	0.005038016388 	4.943575294e-08 	9.60385948e-06
0.5294426081 	0.005122028084 	-0.001841492964 	-1.933734299e-08 	0.004941919895 	5.253734939e-08 	9.420672856e-06
0.5309597337 	0.005020649519 	-0.001804774694 	-2.054430493e-08 	0.004842767944 	5.577401514e-08 	9.231661679e-06
0.5324937889 	0.004915971513 	-0.001766875557 	-2.180443151e-08 	0.004740464398 	5.914968574e-08 	9.036642687e-06
0.5340449624 	0.0048078816 	-0.001727755996 	-2.311933495e-08 	0.004634906923 	6.266790642e-08 	8.835420801e-06
0.5356134452 	0.004696261887 	-0.001687374129 	-2.449008638e-08 	0.004525988376 	6.633051951e-08 	8.627791777e-06
0.5371994306 	0.004580994088 	-0.001645687185 	-2.591597149e-08 	0.004413601993 	7.013384839e-08 	8.413552096e-06
0.5388031139 	0.004461972158 	-0.001602655734 	-2.739180859e-08 	0.004297655411 	7.406058739e-08 	8.192525686e-06
0.5404246925 	0.004339244305 	-0.00155829501 	-2.882952643e-08 	0.004178209366 	7.787073852e-08 	7.964828325e-06
0.5420643661 	0.004213349006 	-0.001512797577 	-3.007535078e-08 	0.004055799668 	8.115160754e-08 	7.731481419e-06
0.5437223366 	0.004085262835 	-0.001466517095 	-3.107895743e-08 	0.003931383371 	8.377233314e-08 	7.494309377e-06
0.5453988083 	0.003955938969 	-0.001419802142 	-3.18607315e-08 	0.003805891684 	8.579330555e-08 	7.255087342e-06
0.5470939875 	0.003826232921 	-0.001372966499 	-3.241462937e-08 	0.003680156044 	8.720540906e-08 	7.015400267e-06
0.5488080831 	0.003697038588 	-0.001326336038 	-3.27245639e-08 	0.003555039175 	8.79779059e-08 	6.77689274e-06
0.5505413061 	0.003569297658 	-0.001280252421 	-3.276999046e-08 	0.003431447748 	8.807680327e-08 	6.541293129e-06
0.5522938699 	0.003444001413 	-0.0012350755 	-3.252903937e-08 	0.003310337793 	8.746857154e-08 	6.310423894e-06
0.5540659904 	0.003322165426 	-0.001191178148 	-3.198977421e-08 	0.003192694198 	8.612954212e-08 	6.086162505e-06
0.5558578859 	0.003204756123 	-0.001148927097 	-3.117128557e-08 	0.003079465231 	8.40755125e-08 	5.870316622e-06
0.5576697768 	0.003092569756 	-0.001108635169 	-3.016004576e-08 	0.002971397299 	8.148630855e-08 	5.664309109e-06
0.5595018865 	0.002986068221 	-0.001070481829 	-2.909502986e-08 	0.002868759695 	7.863889831e-08 	5.468653309e-06
0.5613544406 	0.002884186556 	-0.001031914396 	-3.542795831e-08 	0.002770946838 	7.688256244e-08 	5.282194817e-06
0.563227667 	0.002783926327 	-0.0009866890071 	-3.889067789e-08 	0.002676393064 	7.572170677e-08 	5.101949046e-06
0.5651217966 	0.002685881434 	-0.0009396163106 	-3.552778936e-08 	0.002584549901 	7.426720206e-08 	4.926870449e-06
0.5670370626 	0.002591452775 	-0.0008958549367 	-3.564352116e-08 	0.002495659479 	7.295510115e-08 	4.7574206e-06
0.5689737009 	0.002499699816 	-0.0008520900265 	-3.578965638e-08 	0.002409628351 	7.144509658e-08 	4.593421358e-06
0.5709319499 	0.002410815461 	-0.000808355905 	-3.589083377e-08 	0.002326614753 	6.97490439e-08 	4.435174368e-06
0.5729120508 	0.002325049218 	-0.0007647637006 	-3.591804171e-08 	0.002246781435 	6.781103457e-08 	4.282989876e-06
0.5749142474 	0.00224264608 	-0.000721437841 	-3.585396088e-08 	0.00217034037 	6.562005433e-08 	4.13727196e-06
0.5769387863 	0.002163859942 	-0.0006785036718 	-3.568358002e-08 	0.002097503435 	6.317259869e-08 	3.998424517e-06
0.5789859169 	0.002088943614 	-0.0006360863139 	-3.539657813e-08 	0.002028475216 	6.047130542e-08 	3.866837548e-06
0.5810558911 	0.002018135869 	-0.0005943075073 	-3.498806418e-08 	0.001963446545 	5.752854318e-08 	3.742874826e-06
0.583148964 	0.001951649665 	-0.0005532819431 	-3.445839443e-08 	0.001902584664 	5.436702984e-08 	3.626855166e-06
0.5852653933 	0.001889661029 	-0.0005131139133 	-3.381271322e-08 	0.001846023674 	5.101912439e-08 	3.519034198e-06
0.5874054395 	0.001832299162 	-0.0004738944817 	-3.306023414e-08 	0.001793856491 	4.752554026e-08 	3.419589048e-06
0.5895693664 	0.001779638655 	-0.0004356993859 	-3.221325553e-08 	0.001746128762 	4.393347016e-08 	3.328606732e-06
0.5917574402 	0.001731694522 	-0.0003985878948 	-3.128597509e-08 	0.001702835205 	4.029411014e-08 	3.24607718e-06
0.5939699306 	0.001688420733 	-0.0003626027719 	-3.02932117e-08 	0.001663918961 	3.665950172e-08 	3.171892001e-06
0.5962071099 	0.001649713131 	-0.0003277713506 	-2.924922017e-08 	0.001629274759 	3.307846015e-08 	3.105850525e-06
0.5984692536 	0.001615417773 	-0.0002941072738 	-2.816696124e-08 	0.001598757048 	2.95913336e-08 	3.047675285e-06
0.6007566404 	0.001585345031 	-0.000261613393 	-2.705733008e-08 	0.001572194014 	2.622410715e-08 	2.997038759e-06
0.6030695519 	0.00155929017 	-0.0002302820685 	-2.592612168e-08 	0.00154940715 	2.298570786e-08 	2.953600664e-06
0.6054082729 	0.001537056419 	-0.0002001325357 	-2.474177207e-08 	0.001530227198 	1.986625683e-08 	2.917038344e-06
0.6077730914 	0.001518506402 	-0.0001711300753 	-2.363577075e-08 	0.001514540591 	1.681006439e-08 	2.887135311e-06
0.6101642987 	0.001503545428 	-0.0001430585802 	-2.274173979e-08 	0.001502267594 	1.384571657e-08 	2.863739567e-06
0.6125821893 	0.001491979374 	-0.0001157368163 	-2.190697966e-08 	0.001493215036 	1.112764649e-08 	2.846482876e-06
0.6150270608 	0.001483484971 	-8.914233976e-05 	-2.105838295e-08 	0.001487061119 	8.725906783e-09 	2.834751799e-06
0.6174992144 	0.001477720851 	-6.324652941e-05 	-2.025193641e-08 	0.001483476445 	6.613271113e-09 	2.827918415e-06
0.6199989545 	0.001474385969 	-3.798577771e-05 	-1.949283014e-08 	0.001482173734 	4.75854212e-09 	2.825435085e-06
0.622526589 	0.001473219492 	-1.330044561e-05 	-1.877719601e-08 	0.001482902424 	3.13450933e-09 	2.826824171e-06
0.625082429 	0.001473995357 	1.086249575e-05 	-1.810065661e-08 	0.001485443818 	1.716663697e-09 	2.831668775e-06
0.6276667894 	0.001476517298 	3.454983475e-05 	-1.745899175e-08 	0.001489606925 	4.834069708e-10 	2.839604813e-06
0.6302799884 	0.001480614709 	5.780267892e-05 	-1.684822539e-08 	0.001495224585 	-5.842179924e-10 	2.850313634e-06
0.6329223478 	0.00148613908 	8.065699763e-05 	-1.626465447e-08 	0.001502150226 	-1.502897557e-09 	2.863515832e-06
0.6355941931 	0.001492960923 	0.0001031441336 	-1.57048577e-08 	0.001510255148 	-2.287335036e-09 	2.878966066e-06
0.6382958531 	0.001500967142 	0.0001252912793 	-1.51656912e-08 	0.001519426217 	-2.950486688e-09 	2.896448672e-06
0.6410276607 	0.001510058786 	0.0001471219171 	-1.464427684e-08 	0.00152956391 	-3.5037675e-09 	2.915773932e-06
0.6437899523 	0.001520149143 	0.000168656223 	-1.413798694e-08 	0.001540580646 	-3.957230422e-09 	2.936774893e-06
0.646583068 	0.001531162112 	0.0001899114363 	-1.364442747e-08 	0.001552399365 	-4.319722225e-09 	2.959304657e-06
0.6494073518 	0.001543030831 	0.0002109021967 	-1.316142078e-08 	0.001564952315 	-4.599019767e-09 	2.983234068e-06
0.6522631514 	0.001555696505 	0.0002316408519 	-1.268698837e-08 	0.001578180008 	-4.801949697e-09 	3.008449728e-06
0.6551508186 	0.001569107431 	0.0002521377383 	-1.221933412e-08 	0.00159203034 	-4.934493921e-09 	3.03485231e-06
0.658070709 	0.001583218167 	0.0002724014362 	-1.175682825e-08 	0.001606457825 	-5.001882628e-09 	3.062355107e-06
0.6610231822 	0.001597988846 	0.0002924390045 	-1.129799187e-08 	0.001621422954 	-5.008676429e-09 	3.090882801e-06
0.6640086017 	0.001613384598 	0.0003122561953 	-1.084148258e-08 	0.001636891639 	-4.958838897e-09 	3.120370415e-06
0.6670273351 	0.001629375084 	0.0003318576517 	-1.038608092e-08 	0.001652834757 	-4.855800625e-09 	3.150762428e-06
0.6700797543 	0.001645934108 	0.0003512470909 	-9.930677819e-09 	0.001669227751 	-4.702515786e-09 	3.18201203e-06
0.6731662352 	0.001663039317 	0.0003704274747 	-9.474262905e-09 	0.001686050315 	-4.501512061e-09 	3.214080513e-06
0.6762871577 	0.001680671964 	0.0003894011696 	-9.015913775e-09 	0.001703286129 	-4.25493467e-09 	3.246936765e-06
0.6794429063 	0.001698816731 	0.0004081700976 	-8.554786023e-09 	0.001720922651 	-3.964585193e-09 	3.280556879e-06
0.6826338695 	0.001717461619 	0.0004267358801 	-8.090103999e-09 	0.001738950963 	-3.631955719e-09 	3.314923852e-06
0.6858604404 	0.001736597871 	0.000445099976 	-7.6211522e-09 	0.001757365659 	-3.25825884e-09 	3.350027381e-06
0.6891230163 	0.001756219961 	0.0004632638153 	-7.147267171e-09 	0.00177616478 	-2.84445392e-09 	3.385863731e-06
0.6924219988 	0.001776325615 	0.0004812289308 	-6.667829866e-09 	0.001795349795 	-2.391270003e-09 	3.4224357e-06
0.6957577944 	0.00179691588 	0.0004989970869 	-6.182258354e-09 	0.001814925613 	-1.8992257e-09 	3.459752652e-06
0.6991308138 	0.001817995235 	0.0005165704088 	-5.690000792e-09 	0.001834900654 	-1.368646303e-09 	3.497830631e-06
0.7025414724 	0.00183957174 	0.0005339515131 	-5.19052858e-09 	0.001855286939 	-7.996783952e-10 	3.536692557e-06
0.7059901901 	0.001861657233 	0.0005511436396 	-4.683329649e-09 	0.001876100244 	-1.923021614e-10 	3.5763685e-06
0.7094773917 	0.001884267562 	0.000568150787 	-4.167901799e-09 	0.001897360279 	4.536584499e-10 	3.616896036e-06
0.7130035066 	0.001907422869 	0.0005849778537 	-3.64374602e-09 	0.001919090929 	1.138527525e-09 	3.658320694e-06
0.7165689691 	0.001931147916 	0.0006016307855 	-3.110359736e-09 	0.001941320532 	1.862770883e-09 	3.700696497e-06
0.7201742182 	0.001955472476 	0.0006181167313 	-2.567229861e-09 	0.001964082201 	2.626991737e-09 	3.744086564e-06
0.7238196978 	0.0019804318 	0.0006344442012 	-2.013825525e-09 	0.00198741415 	3.431927724e-09 	3.788563743e-06
0.727505857 	0.002006067083 	0.0006506233653 	-1.44959084e-09 	0.002011360278 	4.278447867e-09 	3.834211719e-06
0.7312331497 	0.002032427124 	0.0006666707159 	-8.739762564e-10 	0.002035971484 	5.167551561e-09 	3.881127518e-06
0.7350020349 	0.002059503324 	0.0006825929139 	-2.882913099e-10 	0.002061240741 	6.097804245e-09 	3.929297744e-06
0.7387709215 	0.002087136677 	0.000698356972 	3.021752418e-10 	0.002087012336 	7.061652772e-09 	3.978425568e-06
0.7424982157 	0.002115150731 	0.0007139367367 	8.920602581e-10 	0.002113113148 	8.050410524e-09 	4.028180969e-06
0.7461843763 	0.002143505105 	0.0007293503282 	1.479836732e-09 	0.002139504401 	9.060498405e-09 	4.078490032e-06
0.7498298574 	0.002172222741 	0.0007446237924 	2.065755573e-09 	0.002166210909 	1.009096391e-08 	4.12940006e-06
0.7534351078 	0.002201325562 	0.0007597771622 	2.650065436e-09 	0.00219325649 	1.114093739e-08 	4.180956454e-06
0.7570005716 	0.002230835521 	0.0007748291397 	3.232986447e-09 	0.002220664747 	1.220962512e-08 	4.23320421e-06
0.7605266877 	0.00226077451 	0.0007897973187 	3.814715906e-09 	0.002248459184 	1.329629939e-08 	4.286188132e-06
0.7640138905 	0.002291164361 	0.0008046982599 	4.395433593e-09 	0.002276663119 	1.44002911e-08 	4.339952671e-06
0.7674626093 	0.002322026817 	0.0008195475666 	4.975306605e-09 	0.002305299681 	1.55209903e-08 	4.394541918e-06
0.770873269 	0.002353383461 	0.0008343599857 	5.55449776e-09 	0.002334391957 	1.665786005e-08 	4.449999881e-06
0.7742462894 	0.002385255863 	0.00084914954 	6.13317589e-09 	0.002363962788 	1.781039336e-08 	4.506370104e-06
0.777582086 	0.002417666602 	0.0008639292992 	6.711474122e-09 	0.002394032859 	1.897787226e-08 	4.563692015e-06
0.7808810695 	0.002450638233 	0.0008787103497 	7.289375153e-09 	0.002424621883 	2.015971185e-08 	4.622003198e-06
0.7841436462 	0.002484180073 	0.000893508862 	7.867791606e-09 	0.002455776331 	2.135911906e-08 	4.681392234e-06
0.787370218 	0.002518334254 	0.0009083779455 	8.452346034e-09 	0.002487509991 	2.257206578e-08 	4.741885411e-06
0.7905611821 	0.00255377897 	0.0009253122191 	9.322985466e-09 	0.002520012663 	2.382425143e-08 	4.803844537e-06
0.7937169314 	0.002589848451 	0.0009412361164 	9.825063442e-09 	0.002552960172 	2.505811351e-08 	4.866651647e-06
0.7968378547 	0.002626275382 	0.0009541680697 	1.000867542e-08 	0.002586385727 	2.632679171e-08 	4.930370045e-06
0.7999243362 	0.002664251474 	0.0009674080526 	1.053895592e-08 	0.002621032408 	2.773238058e-08 	4.996416249e-06
0.8029767561 	0.002703911579 	0.0009812324704 	1.110024092e-08 	0.002657184967 	2.923162111e-08 	5.065333073e-06
0.8059954902 	0.002745191077 	0.0009956540178 	1.168528857e-08 	0.002694957572 	3.080476826e-08 	5.137338158e-06
0.8089809102 	0.002787994204 	0.001010646939 	1.228340534e-08 	0.002734309783 	3.241850663e-08 	5.212354408e-06
0.8119333839 	0.002832203497 	0.001026169449 	1.288572417e-08 	0.002775137296 	3.404654571e-08 	5.290182995e-06
0.8148532749 	0.002877702883 	0.001042177313 	1.348677608e-08 	0.002817319335 	3.567234116e-08 	5.370593686e-06
0.8177409426 	0.002924395055 	0.001058631685 	1.408422639e-08 	0.002860744599 	3.728842459e-08 	5.453374309e-06
0.8205967427 	0.002972206609 	0.001075502285 	1.467736233e-08 	0.002905323465 	3.889234988e-08 	5.538354017e-06
0.8234210268 	0.003021085753 	0.001092767307 	1.526594612e-08 	0.002950989822 	4.048338059e-08 	5.625406787e-06
0.8262141429 	0.003070997476 	0.001110411867 	1.584974292e-08 	0.002997697741 	4.206099013e-08 	5.714445061e-06
0.8289764348 	0.003121918435 	0.001128426099 	1.642838105e-08 	0.003045416464 	4.362435194e-08 	5.805410211e-06
0.8317082427 	0.00317383239 	0.001146803347 	1.700131345e-08 	0.003094125348 	4.517218156e-08 	5.898262881e-06
0.8344099031 	0.003226726409 	0.001165538638 	1.756780191e-08 	0.003143809412 	4.670268155e-08 	5.992974516e-06
0.8370817486 	0.003280587899 	0.00118462746 	1.812690483e-08 	0.003194455753 	4.821351097e-08 	6.089520519e-06
0.8397241082 	0.003335402385 	0.001204064854 	1.8677466e-08 	0.003246050832 	4.970175849e-08 	6.187875078e-06
0.8423373074 	0.003391151923 	0.001223844764 	1.92181051e-08 	0.003298578536 	5.116391625e-08 	6.288007482e-06
0.844921668 	0.00344781401 	0.001243959599 	1.974721118e-08 	0.00335201887 	5.259585738e-08 	6.389879612e-06
0.8474775082 	0.00350536088 	0.001264399938 	2.026294002e-08 	0.003406347105 	5.39928216e-08 	6.493444327e-06
0.8500051427 	0.00356375906 	0.001285154353 	2.07632167e-08 	0.003461533242 	5.534941389e-08 	6.598644443e-06
0.8525048829 	0.003622969123 	0.001306209294 	2.124574597e-08 	0.003517541698 	5.665962355e-08 	6.705412127e-06
0.8549770366 	0.003682945585 	0.001327549038 	2.170803473e-08 	0.003574331132 	5.791687626e-08 	6.813668571e-06
0.8574219081 	0.003743636949 	0.001349155679 	2.214743422e-08 	0.003631854408 	5.911413999e-08 	6.923323924e-06
0.8598397987 	0.003804985906 	0.001371009185 	2.256121236e-08 	0.003690058733 	6.02441137e-08 	7.034277544e-06
0.862231006 	0.003866929775 	0.001393087552 	2.294666397e-08 	0.003748886015 	6.129952158e-08 	7.146418695e-06
0.8645958245 	0.003929401205 	0.001415367051 	2.330125281e-08 	0.003808273524 	6.227349751e-08 	7.259627792e-06
0.8669345455 	0.003992329109 	0.001437822575 	2.362275228e-08 	0.003868154786 	6.315997228e-08 	7.37377812e-06
0.8692474569 	0.004055639655 	0.001460428007 	2.390933257e-08 	0.003928460568 	6.395392092e-08 	7.488737702e-06
0.8715348435 	0.004119257058 	0.001483156516 	2.415955603e-08 	0.003989119669 	6.465136401e-08 	7.604370807e-06
0.8737969871 	0.004183103991 	0.001505980705 	2.437229475e-08 	0.004050059326 	6.524915562e-08 	7.720538732e-06
0.8760341663 	0.004247101607 	0.001528872614 	2.454662147e-08 	0.004111205231 	6.574469283e-08 	7.83709982e-06
0.8782466565 	0.004311169379 	0.001551803646 	2.468176954e-08 	0.004172481333 	6.613580595e-08 	7.953909102e-06
0.8804347301 	0.004375225044 	0.001574744535 	2.477715127e-08 	0.004233809749 	6.642080409e-08 	8.070818109e-06
0.8825986568 	0.004439184796 	0.001597665402 	2.483236449e-08 	0.004295110894 	6.659848982e-08 	8.187675128e-06
0.8847387028 	0.00450296362 	0.001620535863 	2.484723703e-08 	0.004356303758 	6.666827616e-08 	8.304325736e-06
0.8868551318 	0.004566475797 	0.001643325204 	2.482187446e-08 	0.00441730637 	6.663031458e-08 	8.420613668e-06
0.8889482045 	0.00462963553 	0.001666002604 	2.475666846e-08 	0.004478036365 	6.648551877e-08 	8.536381918e-06
0.8910181784 	0.00469235758 	0.00168853736 	2.4652298e-08 	0.004538411597 	6.623556986e-08 	8.65147389e-06
0.8930653087 	0.004754557915 	0.001710899122 	2.450972391e-08 	0.004598350747 	6.588290359e-08 	8.765734569e-06
0.8950898473 	0.004816154339 	0.001733058119 	2.43301773e-08 	0.004657773935 	6.543068097e-08 	8.879011681e-06
0.8970920436 	0.004877067094 	0.00175498538 	2.411514271e-08 	0.004716603303 	6.488274445e-08 	8.991156807e-06
0.8990721441 	0.004937219433 	0.00177665294 	2.38663367e-08 	0.00477476357 	6.424356155e-08 	9.102026441e-06
0.9010303927 	0.004996538127 	0.001798034031 	2.358568259e-08 	0.004832182541 	6.351815817e-08 	9.211482959e-06
0.9029670306 	0.005054953936 	0.001819103252 	2.327528231e-08 	0.004888791564 	6.271204414e-08 	9.319395491e-06
0.9048822962 	0.005112401994 	0.001839836717 	2.29373862e-08 	0.004944525928 	6.183113299e-08 	9.425640679e-06
0.9067764254 	0.005168822143 	0.001860212174 	2.257436154e-08 	0.004999325196 	6.08816585e-08 	9.530103314e-06
0.9086496514 	0.005224159186 	0.001880209108 	2.218866066e-08 	0.005053133469 	5.987009001e-08 	9.632676838e-06
0.910502205 	0.00527836307 	0.00189980881 	2.178278933e-08 	0.005105899586 	5.880304849e-08 	9.733263723e-06
0.9123343142 	0.00533138899 	0.001918994421 	2.135927617e-08 	0.005157577245 	5.76872252e-08 	9.831775703e-06
0.9141462048 	0.005383197434 	0.001937750952 	2.092064349e-08 	0.005208125064 	5.652930434e-08 	9.928133895e-06
0.9159380997 	0.005433754142 	0.00195606528 	2.046938022e-08 	0.005257506573 	5.533589109e-08 	1.002226878e-05
0.9177102197 	0.005483030022 	0.001973926118 	2.000791719e-08 	0.005305690146 	5.411344589e-08 	1.011412006e-05
0.9194627831 	0.005531000984 	0.001991323968 	1.953860503e-08 	0.005352648875 	5.286822583e-08 	1.020363645e-05
0.9211960055 	0.005577647743 	0.002008251051 	1.9063695e-08 	0.005398360396 	5.160623352e-08 	1.029077531e-05
0.9229101006 	0.00562295556 	0.002024701224 	1.858532272e-08 	0.005442806669 	5.033317378e-08 	1.037550226e-05
0.9246052793 	0.005666913955 	0.002040669881 	1.810549494e-08 	0.005485973719 	4.905441816e-08 	1.045779066e-05