0.4709558481 	0.008030984099 	2.355520585e-10 	-1.276589659e-13
0.4709558481 	0.008030984099 	2.355520585e-10 	-1.276589659e-13
0.4711314108 	0.02208327925 	3.11899767e-09 	-1.333683369e-12
0.4713069734 	0.0441423805 	1.185536659e-08 	-4.800961633e-12
0.471482536 	0.06617522784 	2.740717903e-08 	-1.056580804e-11
0.4716580986 	0.0881781565 	5.096932806e-08 	-1.856895818e-11
0.4718336613 	0.1101462983 	8.405418848e-08 	-2.872423841e-11
0.4720092239 	0.1320725792 	1.280875077e-07 	-4.097417408e-11
0.4721847865 	0.1539464013 	1.833768324e-07 	-5.526488529e-11
0.4723603491 	0.175752107 	2.479208152e-07 	-7.153811709e-11
0.4725359118 	0.1974674017 	3.167193578e-07 	-8.973188344e-11
0.4727114744 	0.2190620022 	3.82498586e-07 	-1.097814764e-10
0.472887037 	0.2404968559 	4.382967265e-07 	-1.31619226e-10
0.4730625996 	0.2617242867 	4.809860712e-07 	-1.551724505e-10
0.4732381623 	0.2826893333 	5.13571328e-07 	-1.803604741e-10
0.4734137249 	0.3033323293 	5.451416791e-07 	-2.070976658e-10
0.4735892875 	0.3235924734 	5.904986023e-07 	-2.3530827e-10
0.4737648501 	0.3434118545 	6.654235839e-07 	-2.648985772e-10
0.4739404128 	0.3627392463 	7.459556456e-07 	-2.955466855e-10
0.4741159754 	0.381533057 	6.772340597e-07 	-3.265246008e-10
0.474291538 	0.3997631283 	6.967710826e-07 	-3.606156332e-10
0.4744671006 	0.4174282801 	1.148709673e-06 	-3.965316437e-10
0.4746426632 	0.4345657339 	1.514998962e-06 	-4.297317466e-10
0.4748182259 	0.4512141104 	1.501742136e-06 	-4.645603703e-10
0.4749937885 	0.4673874086 	1.509914353e-06 	-5.023301736e-10
0.4751693511 	0.4830892667 	1.646868757e-06 	-5.402610283e-10
0.4753449137 	0.4983242477 	1.80282468e-06 	-5.788001613e-10
0.4755204764 	0.5130982236 	1.958132241e-06 	-6.181355795e-10
0.475696039 	0.5274181418 	2.118643485e-06 	-6.582266848e-10
0.4758716016 	0.541291846 	2.283587748e-06 	-6.990159527e-10
0.4760471642 	0.5547285352 	2.442264834e-06 	-7.40458981e-10
0.4762227269 	0.5695172985 	2.627525402e-06 	-7.88375944e-10
0.4764955107 	0.5872974531 	2.906045765e-06 	-8.493759867e-10
0.4767734216 	0.6062498523 	3.244913466e-06 	-9.186057248e-10
0.4770565557 	0.6247055573 	3.5904033e-06 	-9.904502575e-10
0.4773450114 	0.6426707803 	3.954779529e-06 	-1.064921058e-09
0.4776388886 	0.6601526506 	4.345645386e-06 	-1.142045364e-09
0.4779382892 	0.6771596755 	4.764190044e-06 	-1.22184791e-09
0.4782433171 	0.6937013787 	5.211279216e-06 	-1.304354443e-09
0.4785540779 	0.7097878899 	5.688286045e-06 	-1.389594598e-09
0.4788706795 	0.7254297238 	6.196676058e-06 	-1.477600942e-09
0.4791932316 	0.7406383566 	6.737756399e-06 	-1.568407466e-09
0.4795218461 	0.7554274931 	7.312743996e-06 	-1.662055628e-09
0.4798566368 	0.7698120045 	7.923126568e-06 	-1.758600239e-09
0.48019772 	0.7838052606 	8.570677445e-06 	-1.858103723e-09
0.4805452138 	0.7974191119 	9.257089573e-06 	-1.960632631e-09
0.4808992388 	0.8106650034 	9.983980897e-06 	-2.066260446e-09
0.4812599177 	0.8235541814 	1.075307133e-05 	-2.175068113e-09
0.4816273755 	0.8360977062 	1.156615936e-05 	-2.287143797e-09
0.4820017397 	0.8483064322 	1.242510302e-05 	-2.402582881e-09
0.48238314 	0.8601909891 	1.333182397e-05 	-2.521488124e-09
0.4827717088 	0.8717617713 	1.428831584e-05 	-2.643969835e-09
0.4831675807 	0.8830289356 	1.529665188e-05 	-2.770146091e-09
0.4835708931 	0.8940024061 	1.635899252e-05 	-2.900142965e-09
0.4839817856 	0.9046918838 	1.747759314e-05 	-3.034094808e-09
0.4844004009 	0.9151068608 	1.86548124e-05 	-3.172144583e-09
0.4848268841 	0.9252566362 	1.989312225e-05 	-3.314444259e-09
0.485261383 	0.9351503331 	2.119512101e-05 	-3.461155281e-09
0.4857040484 	0.9447969153 	2.256353269e-05 	-3.612449197e-09
0.4861550336 	0.9542052003 	2.400120354e-05 	-3.768507687e-09
0.4866144951 	0.9633838711 	2.551114039e-05 	-3.929523038e-09
0.4870825921 	0.9723414903 	2.709654073e-05 	-4.095699988e-09
0.487559487 	0.9810865196 	2.876077014e-05 	-4.267256013e-09
0.4880453452 	0.9896273398 	3.050736028e-05 	-4.444420843e-09
0.4885403351 	0.9979722671 	3.234004016e-05 	-4.627437569e-09
0.4890446283 	1.006129565 	3.426275519e-05 	-4.8165638e-09
0.4895583997 	1.014107455 	3.627967875e-05 	-5.012072299e-09
0.4900818274 	1.021914122 	3.839522894e-05 	-5.214251779e-09
0.4906150929 	1.029557717 	4.06140882e-05 	-5.423407777e-09
0.4911583811 	1.037046361 	4.294122479e-05 	-5.639863566e-09
0.4917118805 	1.044388144 	4.538191655e-05 	-5.863961124e-09
0.4922757829 	1.051591122 	4.794177729e-05 	-6.096062161e-09
0.4928502838 	1.058663319 	5.062678617e-05 	-6.336549228e-09
0.4934355824 	1.06561272 	5.344332047e-05 	-6.58582692e-09
0.4940318817 	1.072447275 	5.639819225e-05 	-6.84432317e-09
0.4946393885 	1.079174897 	5.94986893e-05 	-7.112490601e-09
0.4952583133 	1.085803472 	6.275262115e-05 	-7.390807837e-09
0.4958888709 	1.092340868 	6.61683706e-05 	-7.679780666e-09
0.4965312797 	1.098794951 	6.975495176e-05 	-7.979942805e-09
0.4971857627 	1.10517361 	7.352207542e-05 	-8.291855989e-09
0.4978525466 	1.111484786 	7.74802229e-05 	-8.616108992e-09
0.4985318627 	1.117736515 	8.164072965e-05 	-8.953315285e-09
0.4992239466 	1.12393697 	8.601588017e-05 	-9.304109085e-09
0.4999290382 	1.130094506 	9.061901533e-05 	-9.669140024e-09
0.5006473819 	1.136217703 	9.546465272e-05 	-1.004906745e-08
0.501379227 	1.142315376 	0.0001005686207 	-1.044455663e-08
0.502124827 	1.148396532 	0.0001059482126 	-1.085628041e-08
0.5028844406 	1.154470196 	0.0001116223426 	-1.128493342e-08
0.5036583311 	1.160545005 	0.000117611528 	-1.173127717e-08
0.5044467669 	1.166628342 	0.0001239374821 	-1.219625131e-08
0.5052500214 	1.172724646 	0.0001306237809 	-1.268108474e-08
0.506068373 	1.179611328 	0.0001386250002 	-1.325319932e-08
0.507324668 	1.187990822 	0.0001490753036 	-1.399090752e-08
0.5085949819 	1.196980189 	0.0001612178766 	-1.483821346e-08
0.5098794711 	1.205795446 	0.0001741411221 	-1.573072066e-08
0.5111782938 	1.214441049 	0.0001878610654 	-1.667015977e-08
0.5124916099 	1.22292506 	0.0002023927125 	-1.76572055e-08
0.5138195812 	1.231257016 	0.0002177516782 	-1.869184248e-08
0.5151623712 	1.239446802 	0.0002339547767 	-1.977385725e-08
0.5165201452 	1.247504048 	0.0002510198008 	-2.090306295e-08
0.5178930705 	1.255437834 	0.0002689651833 	-2.207937141e-08
0.5192813161 	1.263256549 	0.0002878096548 	-2.33027702e-08
0.520685053 	1.270967833 	0.0003075718882 	-2.457324027e-08
0.522104454 	1.278578572 	0.0003282701405 	-2.589065541e-08
0.523539694 	1.286094916 	0.0003499219021 	-2.7254697e-08
0.5249909497 	1.29352231 	0.0003725435601 	-2.86647985e-08
0.5264583998 	1.300865535 	0.0003961500834 	-3.012011306e-08
0.527942225 	1.308128757 	0.0004207547294 	-3.161948076e-08
0.5294426081 	1.31531557 	0.0004463687723 	-3.31613642e-08
0.5309597337 	1.322429042 	0.0004730012297 	-3.474371965e-08
0.5324937889 	1.329471745 	0.0005006585157 	-3.636376054e-08
0.5340449624 	1.336445737 	0.0005293438382 	-3.801757816e-08
0.5356134452 	1.343352472 	0.0005590561245 	-3.969979074e-08
0.5371994306 	1.350192529 	0.0005897884112 	-4.140343894e-08
0.5388031139 	1.35696503 	0.0006215234238 	-4.311653609e-08
0.5404246925 	1.363666462 	0.0006542201052 	-4.48162145e-08
0.5420643661 	1.370288768 	0.0006877955199 	-4.646811067e-08
0.5437223366 	1.376817397 	0.0007221119433 	-4.802474172e-08
0.5453988083 	1.383230662 	0.0007569674892 	-4.942515031e-08
0.5470939875 	1.389500653 	0.0007920965625 	-5.060679197e-08
0.5488080831 	1.395594934 	0.0008271838455 	-5.151856956e-08
0.5505413061 	1.401478543 	0.0008618798645 	-5.21330253e-08
0.5522938699 	1.407116317 	0.000895815305 	-5.246571922e-08
0.5540659904 	1.412475795 	0.0009286195323 	-5.258942938e-08
0.5558578859 	1.417531102 	0.0009599370536 	-5.260168836e-08
0.5576697768 	1.422268376 	0.0009894360808 	-5.256866435e-08
0.5595018865 	1.426693381 	0.001017025174 	-5.286018232e-08
0.5613544406 	1.430842466 	0.001043285984 	-5.323284961e-08
0.563227667 	1.434784282 	0.001068639737 	-5.322592573e-08
0.5651217966 	1.438580909 	0.00109327005 	-5.339258449e-08
0.5670370626 	1.442251055 	0.001117588291 	-5.366117885e-08
0.5689737009 	1.44578969 	0.001141478236 	-5.372738846e-08
0.5709319499 	1.449190964 	0.001164652985 	-5.376683598e-08
0.5729120508 	1.452448873 	0.001187029793 	-5.374011899e-08
0.5749142474 	1.455557448 	0.001208494555 	-5.360890685e-08
0.5769387863 	1.45851094 	0.001228911783 	-5.335511023e-08
0.5789859169 	1.461304044 	0.001248146294 	-5.296729193e-08
0.5810558911 	1.463932119 	0.001266067282 	-5.243880826e-08
0.583148964 	1.466391395 	0.001282550645 	-5.176876086e-08
0.5852653933 	1.468679163 	0.001297482552 	-5.096178613e-08
0.5874054395 	1.470793917 	0.001310762892 	-5.002728574e-08
0.5895693664 	1.472735444 	0.001322308035 	-4.897849634e-08
0.5917574402 	1.474504853 	0.001332052758 	-4.783142062e-08
0.5939699306 	1.476104534 	0.001339951183 	-4.660366748e-08
0.5962071099 	1.477538051 	0.001345976714 	-4.531338524e-08
0.5984692536 	1.478809998 	0.001350121188 	-4.397851212e-08
0.6007566404 	1.479925828 	0.001352393538 	-4.261583899e-08
0.6030695519 	1.48089172 	0.001352816139 	-4.123839254e-08
0.6054082729 	1.481714527 	0.001351424761 	-3.986536489e-08
0.6077730914 	1.482402062 	0.001348281507 	-3.852712546e-08
0.6101642987 	1.482963653 	0.001343477246 	-3.724619401e-08
0.6125821893 	1.483409829 	0.001337119848 	-3.603699015e-08
0.6150270608 	1.483751009 	0.001329326569 	-3.490784922e-08
0.6174992144 	1.483996558 	0.001320210434 	-3.385325081e-08
0.6199989545 	1.484154656 	0.00130987059 	-3.286424752e-08
0.622526589 	1.484232423 	0.001298394875 	-3.193472493e-08
0.625082429 	1.484236058 	0.001285862296 	-3.105890323e-08
0.6276667894 	1.484170956 	0.001272343667 	-3.023110553e-08
0.6302799884 	1.484041806 	0.001257902332 	-2.94460414e-08
0.6329223478 	1.483852684 	0.001242594972 	-2.869886108e-08
0.6355941931 	1.48360713 	0.001226472341 	-2.798513174e-08
0.6382958531 	1.483308214 	0.001209579917 	-2.730081332e-08
0.6410276607 	1.482958592 	0.001191958486 	-2.664223346e-08
0.6437899523 	1.482560559 	0.00117364467 	-2.600605998e-08
0.646583068 	1.482116089 	0.001154671402 	-2.538927335e-08
0.6494073518 	1.481626873 	0.001135068351 	-2.478914011e-08
0.6522631514 	1.481094353 	0.001114862304 	-2.420318782e-08
0.6551508186 	1.480519747 	0.001094077508 	-2.362918124e-08
0.658070709 	1.479904074 	0.001072735982 	-2.306510003e-08
0.6610231822 	1.479248177 	0.001050857796 	-2.250911773e-08
0.6640086017 	1.478552734 	0.001028461321 	-2.195958216e-08
0.6670273351 	1.477818282 	0.001005563467 	-2.141499719e-08
0.6700797543 	1.477045225 	0.0009821798841 	-2.087400579e-08
0.6731662352 	1.476233844 	0.0009583251629 	-2.033537439e-08
0.6762871577 	1.475384311 	0.0009340130092 	-1.979797839e-08
0.6794429063 	1.474496695 	0.0009092564106 	-1.926078873e-08
0.6826338695 	1.473570966 	0.0008840677918 	-1.872285946e-08
0.6858604404 	1.472607006 	0.0008584591605 	-1.818331608e-08
0.6891230163 	1.471604606 	0.0008324422467 	-1.764134469e-08
0.6924219988 	1.470563476 	0.0008060286358 	-1.709618174e-08
0.6957577944 	1.469483244 	0.0007792298982 	-1.654710427e-08
0.6991308138 	1.468363456 	0.000752057716 	-1.599342069e-08
0.7025414724 	1.467203578 	0.0007245240077 	-1.543446179e-08
0.7059901901 	1.466002996 	0.0006966410534 	-1.486957221e-08
0.7094773917 	1.46476101 	0.0006684216216 	-1.429810193e-08
0.7130035066 	1.463476837 	0.0006398790988 	-1.371939806e-08
0.7165689691 	1.462149602 	0.000611027617 	-1.313279658e-08
0.7201742182 	1.460778335 	0.0005818821829 	-1.253761418e-08
0.7238196978 	1.459361966 	0.0005524588868 	-1.193314053e-08
0.727505857 	1.457899317 	0.0005227752427 	-1.13186294e-08
0.7312331497 	1.456389088 	0.0004928500224 	-1.069328476e-08
0.7350020349 	1.454834021 	0.0004627826285 	-1.005796221e-08
0.7387709215 	1.453246352 	0.0004328479468 	-9.417291975e-09
0.7424982157 	1.451639092 	0.0004033177525 	-8.776052528e-09
0.7461843763 	1.450016373 	0.0003742848664 	-8.13541942e-09
0.7498298574 	1.448378087 	0.0003457607267 	-7.494926792e-09
0.7534351078 	1.44672408 	0.000317755942 	-6.854128604e-09
0.7570005716 	1.445054154 	0.0002902807601 	-6.212596228e-09
0.7605266877 	1.44336807 	0.0002633449451 	-5.569911635e-09
0.7640138905 	1.44166555 	0.0002369577872 	-4.925656617e-09
0.7674626093 	1.439946279 	0.0002111282051 	-4.279400182e-09
0.770873269 	1.438209903 	0.0001858647379 	-3.630700608e-09
0.7742462894 	1.436456037 	0.0001611752087 	-2.979140354e-09
0.777582086 	1.434684255 	0.0001370674227 	-2.324191469e-09
0.7808810695 	1.432894102 	0.0001135547661 	-1.664523533e-09
0.7841436462 	1.431085089 	9.065285467e-05 	-9.989687328e-10
0.787370218 	1.429256692 	6.830229612e-05 	-3.365327974e-10
0.7905611821 	1.427408196 	4.655894254e-05 	3.373922177e-10
0.7937169314 	1.425531879 	2.555026053e-05 	1.032569282e-09
0.7968378547 	1.423608964 	5.186992523e-06 	1.722396408e-09
0.7999243362 	1.421621403 	-1.449305579e-05 	2.420656052e-09
0.8029767561 	1.419560086 	-3.332627096e-05 	3.142065284e-09
0.8059954902 	1.417422505 	-5.126760335e-05 	3.873532717e-09
0.8089809102 	1.415210223 	-6.828764311e-05 	4.612906056e-09
0.8119333839 	1.412926852 	-8.436119957e-05 	5.358373263e-09
0.8148532749 	1.410576584 	-9.947291489e-05 	6.108032402e-09
0.8177409426 	1.408163272 	-0.0001136153323 	6.860648457e-09
0.8205967427 	1.405689945 	-0.0001267857874 	7.615509956e-09
0.8234210268 	1.403158663 	-0.0001389845131 	8.37209742e-09
0.8262141429 	1.400570565 	-0.0001502135483 	9.12989206e-09
0.8289764348 	1.397926029 	-0.0001604760886 	9.888284294e-09
0.8317082427 	1.395224858 	-0.0001697761521 	1.064651581e-08
0.8344099031 	1.392466467 	-0.000178118473 	1.140362923e-08
0.8370817486 	1.389650038 	-0.0001855085508 	1.21584205e-08
0.8397241082 	1.386774645 	-0.0001919528011 	1.290939653e-08
0.8423373074 	1.383839338 	-0.0001974587698 	1.365474335e-08
0.844921668 	1.380843203 	-0.0002020353818 	1.439230895e-08
0.8474775082 	1.377785398 	-0.0002056932014 	1.511960415e-08
0.8500051427 	1.374665169 	-0.0002084446803 	1.583382379e-08
0.8525048829 	1.371481854 	-0.000210304374 	1.653188936e-08
0.8549770366 	1.368234888 	-0.0002112891071 	1.721051248e-08
0.8574219081 	1.364923788 	-0.0002114180723 	1.786627585e-08
0.8598397987 	1.361548147 	-0.000210712859 	1.84957245e-08
0.862231006 	1.35810763 	-0.0002091974161 	1.909545629e-08
0.8645958245 	1.35460196 	-0.0002068979663 	1.966219942e-08
0.8669345455 	1.351030923 	-0.0002038428996 	2.019286707e-08
0.8692474569 	1.347394365 	-0.0002000626707 	2.068458658e-08
0.8715348435 	1.343692206 	-0.0001955897178 	2.113470881e-08
0.8737969871 	1.339924445 	-0.0001904584038 	2.154080986e-08
0.8760341663 	1.336091176 	-0.0001847049661 	2.1900696e-08
0.8782466565 	1.332192596 	-0.0001783674539 	2.221241733e-08
0.8804347301 	1.328229011 	-0.0001714856364 	2.247429122e-08
0.8825986568 	1.324200839 	-0.0001641008685 	2.26849297e-08
0.8847387028 	1.320108612 	-0.000156255915 	2.28432654e-08
0.8868551318 	1.315952967 	-0.0001479947371 	2.294857457e-08
0.8889482045 	1.31173464 	-0.000139362249 	2.300049392e-08
0.8910181784 	1.307454457 	-0.0001304040512 	2.299902918e-08
0.8930653087 	1.303113322 	-0.0001211661507 	2.29445567e-08
0.8950898473 	1.298712199 	-0.000111694672 	2.283781818e-08
0.8970920436 	1.294252102 	-0.0001020355664 	2.267990942e-08
0.8990721441 	1.289734076 	-9.223432477e-05 	2.247226368e-08
0.9010303927 	1.285159178 	-8.233569931e-05 	2.221663016e-08
0.9029670306 	1.280528461 	-7.238343757e-05 	2.191504849e-08
0.9048822962 	1.275842955 	-6.24200337e-05 	2.156981985e-08
0.9067764254 	1.271103648 	-5.248649915e-05 	2.118347551e-08
0.9086496514 	1.266311469 	-4.262215558e-05 	2.075874348e-08
0.910502205 	1.261467264 	-3.286445174e-05 	2.029851409e-08
0.9123343142 	1.256571786 	-2.324880533e-05 	1.980580516e-08
0.9141462048 	1.251625672 	-1.380847082e-05 	1.928372739e-08
0.9159380997 	1.246629427 	-4.574433053e-06 	1.873545062e-08
0.9177102197 	1.241583409 	4.424673441e-06 	1.816417138e-08
0.9194627831 	1.236487814 	1.316262013e-05 	1.757308232e-08
0.9211960055 	1.23134266 	2.161561615e-05 	1.696534375e-08
0.9229101006 	1.226147773 	2.976231721e-05 	1.634405774e-08
0.9246052793 	1.22090278 	3.758381304e-05 	1.571224494e-08
0.9262817504 	1.21560709 	4.506359513e-05 	1.507282427e-08
0.9279397204 	1.210259887 	5.218750628e-05 	1.442859561e-08
0.9295793934 	1.204860118 	5.894367374e-05 	1.37822255e-08
0.9312009714 	1.199406484 	6.532242776e-05 	1.313623587e-08
0.9328046541 	1.193897432 	7.131620719e-05 	1.249299552e-08
0.9343906389 	1.18833114 	7.691945389e-05 	1.18547144e-08
0.9359591211 	1.182705514 	8.212849754e-05 	1.122344035e-08
0.937510294 	1.177018171 	8.694143245e-05 	1.060105808e-08
0.9390443485 	1.171266434 	9.135798756e-05 	9.989290198e-09
0.9405614735 	1.16544732 	9.537939102e-05 	9.389699923e-09
0.942061856 	1.159557529 	9.900823025e-05 	8.803695439e-09
0.9435456805 	1.153593431 	0.0001022483082 	8.232535651e-09
0.9450131299 	1.147551062 	0.0001051044963 	7.67733729e-09
0.946464385 	1.141426111 	0.0001075825849 	7.139083261e-09
0.9478996243 	1.135213916 	0.0001096891297 	6.618632119e-09
0.9493190246 	1.128909471 	0.0001114312961 	6.116728463e-09
0.9507227608 	1.122507429 	0.0001128166992 	5.634013825e-09
0.9521110058 	1.116002126 	0.0001138532407 	5.171037511e-09
0.9534839303 	1.109387617 	0.000114548942 	4.728266759e-09
0.9548417036 	1.102657736 	0.0001149117762 	4.306095615e-09
0.9561844929 	1.095806179 	0.0001149495046 	3.904851925e-09
0.9575124634 	1.088826625 	0.0001146695324 	3.524802367e-09
0.9588257788 	1.081712887 	0.0001140788205 	3.166156518e-09
0.9601246008 	1.074459116 	0.0001131838583 	2.829068671e-09
0.9614090893 	1.067060027 	0.0001119905977 	2.513620161e-09
0.9626794024 	1.059511157 	0.0001105048092 	2.219771719e-09
0.9639356968 	1.052466964 	0.0001088966481 	1.969488804e-09
0.9647540487 	1.046663557 	0.0001074236556 	1.77988308e-09
0.9655573034 	1.04150413 	0.0001060152688 	1.622983157e-09
0.9663457395 	1.036330451 	0.0001045209591 	1.476135999e-09
0.9671196303 	1.03113769 	0.0001029511669 	1.338779043e-09
0.9678792442 	1.025920181 	0.0001013156499 	1.210342869e-09
0.9686248445 	1.020671837 	9.962334871e-05 	1.090275773e-09
0.9693566897 	1.015386371 	9.788236267e-05 	9.780613447e-10
0.9700750337 	1.01005741 	9.609996721e-05 	8.732181391e-10
0.9707801255 	1.004678549 	9.42826667e-05 	7.7529665e-10
0.9714722095 	0.9992433634 	9.243626441e-05 	6.83877075e-10
0.9721515258 	0.9937454071 	9.05659351e-05 	5.985673893e-10
0.9728183099 	0.9881782038 	8.867629452e-05 	5.190015726e-10
0.9734727929 	0.9825352335 	8.677146363e-05 	4.44837982e-10
0.9741152019 	0.9768099196 	8.485512683e-05 	3.757578695e-10
0.9747457596 	0.9709956204 	8.29305842e-05 	3.114639872e-10
0.9753646845 	0.9650856222 	8.100079807e-05 	2.516792712e-10
0.9759721914 	0.9590731374 	7.906843436e-05 	1.961455618e-10
0.9765684907 	0.9529513051 	7.713589915e-05 	1.446223659e-10
0.9771537895 	0.9467131952 	7.520537087e-05 	9.688563235e-11
0.9777282904 	0.9403518142 	7.327882855e-05 	5.272657532e-11
0.9782921928 	0.9338601124 	7.135807652e-05 	1.195052476e-11
0.9788456922 	0.9272309919 	6.944476582e-05 	-2.562416593e-11
0.9793889805 	0.9204573144 	6.75404128e-05 	-6.016716723e-11
0.979922246 	0.9135319074 	6.564641509e-05 	-9.183714863e-11
0.9804456737 	0.9064475696 	6.376406526e-05 	-1.207827093e-10
0.9809594451 	0.8991970738 	6.189456273e-05 	-1.471432323e-10
0.9814637383 	0.8917731675 	6.003902371e-05 	-1.710496228e-10
0.9819587281 	0.884168571 	5.819848856e-05 	-1.926248971e-10
0.9824445862 	0.8763759728 	5.637392681e-05 	-2.119853707e-10
0.9829214811 	0.868388022 	5.45662521e-05 	-2.292413984e-10
0.9833895781 	0.8601973173 	5.277633233e-05 	-2.444965845e-10
0.9838490396 	0.8517963938 	5.100497191e-05 	-2.578487423e-10
0.9843000247 	0.8431777107 	4.925291574e-05 	-2.693916848e-10
0.98474269 	0.8343336404 	4.752087711e-05 	-2.792148203e-10
0.9851771888 	0.8252564567 	4.580953706e-05 	-2.874031853e-10
0.9856036719 	0.8159383208 	4.411953875e-05 	-2.940382676e-10
0.9860222871 	0.8063712675 	4.245149458e-05 	-2.991983697e-10
0.9864331796 	0.7965471928 	4.080599143e-05 	-3.029589214e-10
0.9868364919 	0.7864578426 	3.918359486e-05 	-3.053928017e-10
0.9872323637 	0.7760948051 	3.758485354e-05 	-3.065706492e-10
0.9876209323 	0.7654495068 	3.601030385e-05 	-3.065611848e-10
0.9880023326 	0.7545132138 	3.446047498e-05 	-3.054315184e-10
0.9883766967 	0.7432770395 	3.293589453e-05 	-3.03247446e-10
0.9887441544 	0.7317319591 	3.143709401e-05 	-3.000735609e-10
0.9891048331 	0.7198688312 	2.996460728e-05 	-2.959728688e-10
0.9894588579 	0.7076784146 	2.851895792e-05 	-2.910072856e-10
0.9898063516 	0.6951513336 	2.710068893e-05 	-2.85244208e-10
0.9901474347 	0.6822777774 	2.571041499e-05 	-2.787465811e-10
0.9904822253 	0.669046988 	2.434871096e-05 	-2.715650144e-10
0.9908108397 	0.6554479874 	2.301598263e-05 	-2.637548934e-10
0.9911333916 	0.6414710742 	2.171274627e-05 	-2.55375792e-10
0.9914499931 	0.6271076907 	2.04397352e-05 	-2.464845279e-10
0.9917607538 	0.6123497224 	1.919772209e-05 	-2.371383041e-10
0.9920657815 	0.5971895613 	1.79875305e-05 	-2.273945148e-10
0.9923651819 	0.5816203747 	1.680994832e-05 	-2.173105733e-10
0.992659059 	0.5656364374 	1.566543715e-05 	-2.069450867e-10
0.9929475145 	0.5492334854 	1.455483211e-05 	-1.963557314e-10
0.9932306485 	0.532409016 	1.348412768e-05 	-1.855788325e-10
0.9935085592 	0.5151619608 	1.246237445e-05 	-1.746257327e-10
0.9937813429 	0.4990124085 	1.154932843e-05 	-1.64578044e-10
0.9939569055 	0.4856048962 	1.080827183e-05 	-1.564961628e-10
0.9941324681 	0.473444784 	1.016974137e-05 	-1.493352479e-10
0.9943080307 	0.4609122214 	9.552113546e-06 	-1.421315173e-10
0.9944835934 	0.4480014889 	8.951643832e-06 	-1.349079517e-10
0.994659156 	0.4347081912 	8.367314107e-06 	-1.270409028e-10
0.9948347186 	0.4210288846 	7.747643213e-06 	-1.173206004e-10
0.9950102812 	0.4069610553 	6.982135658e-06 	-1.135856005e-10
0.9951858439 	0.3925007014 	6.487248485e-06 	-1.110925461e-10
0.9953614065 	0.3776226945 	6.346019655e-06 	-9.756092827e-11
0.9955369691 	0.3622862495 	5.826351142e-06 	-8.724965237e-11
0.9957125317 	0.3464793033 	5.116148152e-06 	-8.307099767e-11
0.9958880943 	0.3302193078 	4.610681589e-06 	-7.622135911e-11
0.996063657 	0.3135322497 	4.140681296e-06 	-6.900597723e-11
0.9962392196 	0.2964520314 	3.670709347e-06 	-6.215234691e-11
0.9964147822 	0.2790191328 	3.211243904e-06 	-5.566181938e-11
0.9965903448 	0.2612785363 	2.773328515e-06 	-4.948685458e-11
0.9967659075 	0.2432771548 	2.364976842e-06 	-4.360645041e-11
0.9969414701 	0.2250611343 	1.992428044e-06 	-3.799367013e-11
0.9971170327 	0.206673436 	1.658887117e-06 	-3.262806753e-11
0.9972925953 	0.1881520185 	1.36381435e-06 	-2.751729593e-11
0.997468158 	0.1695287879 	1.103927928e-06 	-2.270038656e-11
0.9976437206 	0.1508293155 	8.750880219e-07 	-1.823428122e-11
0.9978192832 	0.13207319 	6.739140663e-07 	-1.417639868e-11
0.9979948458 	0.1132748047 	4.985297038e-07 	-1.057352931e-11
0.9981704085 	0.09444437017 	3.484757322e-07 	-7.45923056e-12
0.9983459711 	0.07558897365 	2.241938241e-07 	-4.857147556e-12
0.9985215337 	0.05671355534 	1.265628325e-07 	-2.788498759e-12
0.9986970963 	0.03782172187 	5.677479776e-08 	-1.282541881e-12
0.998872659 	0.01891635789 	1.538324173e-08 	-3.6364526e-13
0.9990482216 	0.007965747507 	1.476976824e-09 	-4.423427359e-14
