0.4642857292 	0.007928896965 	-0.0002320699422 	-2.406147035e-07
0.4642857292 	0.007928896965 	-0.0002320699422 	-2.406147035e-07
0.4644580585 	0.02204885099 	-0.0006445011488 	-6.72874991e-07
0.4646303886 	0.0440757244 	-0.001286885375 	-1.342822547e-06
0.4648027194 	0.0660786532 	-0.001927277089 	-2.005986388e-06
0.464975051 	0.08805390689 	-0.002565557824 	-2.662886851e-06
0.4651473832 	0.1099965681 	-0.003201642258 	-3.313390965e-06
0.4653197161 	0.131899622 	-0.003835384253 	-3.957067657e-06
0.4654920495 	0.1537527516 	-0.004466538591 	-4.593400196e-06
0.4656643834 	0.1755409258 	-0.005094723424 	-5.221779103e-06
0.4658367177 	0.197242938 	-0.005719379459 	-5.84144433e-06
0.4660090525 	0.218830132 	-0.006339732441 	-6.451443742e-06
0.4661813876 	0.2402656233 	-0.006954768459 	-7.050611572e-06
0.466353723 	0.2615043396 	-0.007563232262 	-7.637570464e-06
0.4665260587 	0.2824941343 	-0.008163657659 	-8.210764114e-06
0.4666983945 	0.3031780436 	-0.008754433171 	-8.768523709e-06
0.4668707305 	0.3234974952 	-0.009333895791 	-9.309163422e-06
0.4670430666 	0.3433960182 	-0.009900441611 	-9.831090171e-06
0.4672154027 	0.3628228449 	-0.01045266012 	-1.033290467e-05
0.4673877388 	0.3817358261 	-0.01098949749 	-1.081348136e-05
0.4675600748 	0.4001033381 	-0.01150998164 	-1.12721402e-05
0.4677324107 	0.4179169192 	-0.01201353012 	-1.170873124e-05
0.4679047464 	0.4352057277 	-0.01250133567 	-1.212415204e-05
0.4680770819 	0.4520100842 	-0.01297508476 	-1.25200323e-05
0.4682494171 	0.4683470973 	-0.01343498687 	-1.289725453e-05
0.468421752 	0.4842196058 	-0.01388093783 	-1.325610059e-05
0.4685940865 	0.4996312082 	-0.01431320087 	-1.359694266e-05
0.4687664205 	0.5145868534 	-0.01473197748 	-1.39201866e-05
0.4689387541 	0.5290926274 	-0.01513746501 	-1.422626452e-05
0.4691110871 	0.5431555697 	-0.01552989762 	-1.451563347e-05
0.4692834196 	0.5567840684 	-0.01590956798 	-1.478878637e-05
0.4694557514 	0.5717928575 	-0.01632694224 	-1.509146448e-05
0.4697235139 	0.5898466876 	-0.01682770413 	-1.542058692e-05
0.469996307 	0.6090987275 	-0.01736035031 	-1.57669366e-05
0.4702742251 	0.6278520693 	-0.01787781435 	-1.608837736e-05
0.4705573642 	0.6461109243 	-0.0183802163 	-1.638533e-05
0.470845822 	0.6638806294 	-0.01886771606 	-1.66582287e-05
0.4711396981 	0.6811680086 	-0.01934053091 	-1.690753503e-05
0.471439094 	0.6979809714 	-0.01979890876 	-1.713371993e-05
0.4717441131 	0.7143280602 	-0.02024311243 	-1.733724625e-05
0.4720548606 	0.7302181558 	-0.02067341225 	-1.751856313e-05
0.4723714436 	0.745660863 	-0.02109010049 	-1.767814134e-05
0.4726939714 	0.7606689705 	-0.02149356067 	-1.78165604e-05
0.473022555 	0.7752580291 	-0.02188425331 	-1.793447492e-05
0.4733573078 	0.7894416764 	-0.02226258699 	-1.803246575e-05
0.473698345 	0.8032310424 	-0.02262889951 	-1.811102478e-05
0.4740457841 	0.8166367558 	-0.02298351184 	-1.817062028e-05
0.4743997447 	0.8296693399 	-0.02332674049 	-1.821172128e-05
0.4747603486 	0.8423392786 	-0.02365889717 	-1.823480516e-05
0.4751277197 	0.8546654438 	-0.02398051256 	-1.824055278e-05
0.4755030077 	0.8666712847 	-0.0242922345 	-1.822827697e-05
0.4758860811 	0.8783627739 	-0.02459425171 	-1.819815362e-05
0.4762763472 	0.8897355569 	-0.02488648267 	-1.815110655e-05
0.4766739408 	0.9007941095 	-0.02516907551 	-1.808736913e-05
0.4770789995 	0.9115483409 	-0.02544231848 	-1.800730793e-05
0.4774916633 	0.922007987 	-0.02570649284 	-1.79112841e-05
0.4779120749 	0.9321826343 	-0.0259618734 	-1.779965277e-05
0.4783403796 	0.9420817326 	-0.02620872898 	-1.76727629e-05
0.4787767255 	0.9517146043 	-0.02644732273 	-1.753095696e-05
0.4792212634 	0.9610904518 	-0.02667791239 	-1.737457046e-05
0.4796741471 	0.9702183614 	-0.02690075045 	-1.720393135e-05
0.480135533 	0.9791073093 	-0.02711608433 	-1.701935966e-05
0.4806055808 	0.9877661733 	-0.0273241568 	-1.682116746e-05
0.4810844527 	0.9962037483 	-0.02752520652 	-1.660965891e-05
0.4815723144 	1.004428758 	-0.02771946841 	-1.638513026e-05
0.4820693345 	1.012449863 	-0.02790717394 	-1.614786982e-05
0.4825756847 	1.020275665 	-0.0280885513 	-1.589815785e-05
0.4830915401 	1.027914706 	-0.02826382553 	-1.563626644e-05
0.483617079 	1.035375473 	-0.02843321858 	-1.536245928e-05
0.4841524829 	1.042666391 	-0.02859694942 	-1.507699153e-05
0.4846979369 	1.049795823 	-0.02875523386 	-1.478010986e-05
0.4852536295 	1.056772072 	-0.02890828296 	-1.447205282e-05
0.4858197528 	1.063605333 	-0.02905634643 	-1.415306996e-05
0.4863971602 	1.070310755 	-0.02919978224 	-1.38224878e-05
0.4869872469 	1.076898906 	-0.02933884072 	-1.347887947e-05
0.4875884075 	1.083370087 	-0.02947355188 	-1.312505857e-05
0.4882008498 	1.089727061 	-0.02960399862 	-1.2761173e-05
0.4888247852 	1.095977586 	-0.02973037296 	-1.238741743e-05
0.4894604292 	1.102129303 	-0.02985286171 	-1.20039763e-05
0.4901080013 	1.108189765 	-0.02997164777 	-1.161102412e-05
0.4907677251 	1.11416646 	-0.03008691118 	-1.120872606e-05
0.4914398285 	1.120066838 	-0.03019882979 	-1.079723816e-05
0.4921245435 	1.125898345 	-0.03030758012 	-1.037670759e-05
0.4928221066 	1.131668459 	-0.03041333811 	-9.947272826e-06
0.4935327586 	1.137384716 	-0.0305162799 	-9.509063924e-06
0.494256745 	1.143054725 	-0.03061658211 	-9.062202612e-06
0.4949943156 	1.148686145 	-0.03071442088 	-8.606802272e-06
0.4957457251 	1.154286581 	-0.03080996687 	-8.142967379e-06
0.496511233 	1.159864215 	-0.03090339279 	-7.670794948e-06
0.4972915864 	1.165430981 	-0.03099493694 	-7.189696016e-06
0.4980891876 	1.170995107 	-0.03108475784 	-6.696880302e-06
0.4989017502 	1.177260209 	-0.03118413156 	-6.197221387e-06
0.5001491012 	1.184856925 	-0.03130066197 	-5.430334594e-06
0.5014103017 	1.192983048 	-0.03142155319 	-4.659984464e-06
0.502685506 	1.20093125 	-0.03153547674 	-3.885596681e-06
0.5039748697 	1.208707352 	-0.03164256588 	-3.107665698e-06
0.5052785505 	1.216319018 	-0.03174301459 	-2.326675442e-06
0.5065967078 	1.223774731 	-0.03183704381 	-1.543090725e-06
0.5079295026 	1.231088981 	-0.03192496102 	-7.573531137e-07
0.5092206927 	1.237953387 	-0.0320033581 	-2.996361686e-08
0.5092813988 	1.23827616 	-0.03200706862 	-3.453936394e-08
0.5106484713 	1.245337762 	-0.03208399308 	-8.039823389e-07
0.5120307241 	1.252276242 	-0.03215533213 	-1.573474597e-06
0.5134283261 	1.259098597 	-0.03222127311 	-2.342642682e-06
0.5148414483 	1.265812001 	-0.03228199423 	-3.111134513e-06
0.5162702635 	1.272423165 	-0.0323376568 	-3.878617823e-06
0.5177149467 	1.278939218 	-0.03238841301 	-4.644778919e-06
0.5191764905 	1.28537095 	-0.03243443791 	-5.41032e-06
0.5206581837 	1.291726526 	-0.03247585845 	-6.178167992e-06
0.5221563259 	1.298005179 	-0.03251273053 	-6.942857987e-06
0.5236711006 	1.304207258 	-0.03254511845 	-7.704095111e-06
0.525202693 	1.310337004 	-0.0325731178 	-8.461604639e-06
0.5267512907 	1.316398342 	-0.03259681048 	-9.215124785e-06
0.5283170833 	1.322395249 	-0.03261626667 	-9.964405317e-06
0.5299006786 	1.328335206 	-0.0326315666 	-1.070967906e-05
0.5315060786 	1.334224346 	-0.03264276093 	-1.145443873e-05
0.5331292981 	1.340060644 	-0.03264987548 	-1.219312392e-05
0.5347705361 	1.345842847 	-0.03265294111 	-1.292549098e-05
0.5364299936 	1.351573515 	-0.03265200938 	-1.365131606e-05
0.5381078739 	1.357255159 	-0.03264712513 	-1.437039004e-05
0.5398043827 	1.362892198 	-0.03263833385 	-1.508251153e-05
0.541522211 	1.368490285 	-0.03262566949 	-1.578994711e-05
0.543261121 	1.374050179 	-0.03260915401 	-1.649105949e-05
0.5450193315 	1.379568139 	-0.03258879193 	-1.718338102e-05
0.546797058 	1.38503961 	-0.0325645292 	-1.78666736e-05
0.5485945187 	1.390456029 	-0.03253618709 	-1.854061178e-05
0.550411934 	1.395801761 	-0.03250338773 	-1.920470102e-05
0.5522516129 	1.40105174 	-0.03246548703 	-1.986009005e-05
0.554113947 	1.406166245 	-0.03242157068 	-2.050482784e-05
0.555996951 	1.411093815 	-0.03237050758 	-2.113517086e-05
0.557900856 	1.415783532 	-0.03231111722 	-2.174961521e-05
0.5598258958 	1.420199019 	-0.03224271279 	-2.234724233e-05
0.561772307 	1.424340685 	-0.03216574458 	-2.292932616e-05
0.5637436946 	1.428267623 	-0.03208183901 	-2.349993669e-05
0.565737713 	1.432056248 	-0.03199299449 	-2.405579203e-05
0.5677538642 	1.435736918 	-0.0319003168 	-2.459594531e-05
0.5697923962 	1.439308809 	-0.03180406138 	-2.511988169e-05
0.5718535597 	1.442771229 	-0.03170422347 	-2.562730786e-05
0.5739395723 	1.446123705 	-0.0316006818 	-2.611958974e-05
0.5760506688 	1.449363548 	-0.03149341326 	-2.659540296e-05
0.578185199 	1.452486259 	-0.03138244404 	-2.705292355e-05
0.5803434258 	1.455487936 	-0.03126776989 	-2.749208184e-05
0.5825256149 	1.458365667 	-0.03114934093 	-2.79127572e-05
0.5847338703 	1.461116725 	-0.03102707746 	-2.831593466e-05
0.5869684579 	1.463736903 	-0.03090094571 	-2.870017231e-05
0.5892278534 	1.466220995 	-0.03077096686 	-2.906388928e-05
0.5915123353 	1.468564649 	-0.03063714692 	-2.940706508e-05
0.5938221857 	1.470764882 	-0.03049944303 	-2.97296196e-05
0.5961603287 	1.472819092 	-0.0303578006 	-3.003267502e-05
0.5985251933 	1.474723878 	-0.0302122537 	-3.031377245e-05
0.6009163178 	1.476476398 	-0.03006286787 	-3.057248121e-05
0.6033339976 	1.478075359 	-0.02990967758 	-3.08089063e-05
0.6057794613 	1.479520705 	-0.0297526815 	-3.1023601e-05
0.6082543018 	1.480812827 	-0.02959190991 	-3.121610481e-05
0.6107566274 	1.481952473 	-0.02942747786 	-3.138492993e-05
0.6132867477 	1.482941674 	-0.02925949524 	-3.153043726e-05
0.6158450817 	1.483783943 	-0.0290880032 	-3.165298763e-05
0.6184346228 	1.484483696 	-0.02891303955 	-3.169649617e-05
0.6210529287 	1.485046161 	-0.02873478215 	-3.113361349e-05
0.6237003239 	1.485478148 	-0.02855343364 	-3.058493409e-05
0.6263771365 	1.485787727 	-0.0283690829 	-3.005025777e-05
0.6290862714 	1.485983007 	-0.02818178242 	-2.952893923e-05
0.6318255697 	1.486071535 	-0.02799169463 	-2.902308713e-05
0.6345953098 	1.486060385 	-0.02779896739 	-2.853252999e-05
0.6373960678 	1.485956042 	-0.0276036559 	-2.805678019e-05
0.6402301167 	1.485764334 	-0.02740579641 	-2.7595744e-05
0.6430956648 	1.485490582 	-0.02720549216 	-2.715083002e-05
0.6459930683 	1.485139593 	-0.02700281776 	-2.672158467e-05
0.6489235108 	1.484715556 	-0.02679778559 	-2.630725151e-05
0.6518878645 	1.484222206 	-0.02659041955 	-2.590857081e-05
0.6548851782 	1.48366296 	-0.0263807844 	-2.552589412e-05
0.6579158249 	1.483040738 	-0.0261689039 	-2.515855985e-05
0.6609817596 	1.482357976 	-0.02595476465 	-2.480598768e-05
0.6640821389 	1.481616946 	-0.02573840216 	-2.446926902e-05
0.6672170054 	1.480819627 	-0.02551985044 	-2.414783338e-05
0.6703874269 	1.479967556 	-0.02529910445 	-2.384083502e-05
0.673594155 	1.479062084 	-0.02507616882 	-2.354892546e-05
0.6768365625 	1.478104504 	-0.02485108617 	-2.327204449e-05
0.6801152063 	1.477095792 	-0.02462387714 	-2.300936665e-05
0.6834316982 	1.476036738 	-0.02439455492 	-2.276103317e-05
0.6867851015 	1.474928306 	-0.02416319816 	-2.25276056e-05
0.6901758354 	1.473771371 	-0.02392989335 	-2.230848543e-05
0.6936055424 	1.47256681 	-0.02369474034 	-2.210374976e-05
0.6970735343 	1.47131603 	-0.02345793443 	-2.191473687e-05
0.700580145 	1.470020876 	-0.02321978257 	-2.174248222e-05
0.7041267955 	1.468683414 	-0.02298068608 	-2.158538671e-05
0.7077131112 	1.467303138 	-0.02274069847 	-2.143865744e-05
0.7113393773 	1.465873902 	-0.0224992389 	-2.129509381e-05
0.7150069301 	1.464388053 	-0.02225549417 	-2.115444072e-05
0.7187154514 	1.462841175 	-0.02200898222 	-2.10219123e-05
0.7224653199 	1.461231079 	-0.0217595816 	-2.089769042e-05
0.7262578107 	1.459556261 	-0.02150723087 	-2.078153123e-05
0.7300925709 	1.457820236 	-0.02125257244 	-2.067413778e-05
0.7339274599 	1.456037172 	-0.02099774323 	-2.057451876e-05
0.7377205243 	1.454222174 	-0.02074486393 	-2.048251808e-05
0.7414716977 	1.452380481 	-0.02049456814 	-2.039781773e-05
0.7451816807 	1.450512336 	-0.02024681331 	-2.010218668e-05
0.7488510254 	1.448617825 	-0.02000154377 	-1.955928665e-05
0.7524798606 	1.44669691 	-0.01975870235 	-1.902192117e-05
0.7560688559 	1.444749175 	-0.0195182222 	-1.849095176e-05
0.7596184549 	1.442773733 	-0.01928001814 	-1.796618749e-05
0.7631288782 	1.440769051 	-0.01904399192 	-1.74482812e-05
0.7666007261 	1.438732674 	-0.01881002776 	-1.69378581e-05
0.7700344366 	1.436661179 	-0.01857798773 	-1.643465348e-05
0.7734302599 	1.434550173 	-0.0183477238 	-1.59391312e-05
0.7767887125 	1.432394278 	-0.01811908259 	-1.545180201e-05
0.7801102773 	1.430187381 	-0.01789190628 	-1.497239726e-05
0.7833951996 	1.427922989 	-0.01766604983 	-1.450117969e-05
0.7866439137 	1.425594512 	-0.01744138788 	-1.403857786e-05
0.7898569628 	1.423195709 	-0.01721781359 	-1.358441698e-05
0.7930345721 	1.420721213 	-0.01699525024 	-1.313870974e-05
0.7961771359 	1.418166803 	-0.01677365138 	-1.270177895e-05
0.7992851568 	1.415529646 	-0.01655299488 	-1.227367391e-05
0.8023589322 	1.412808511 	-0.01633327957 	-1.185414556e-05
0.805398811 	1.410003672 	-0.01611452164 	-1.144342058e-05
0.8084052021 	1.407116655 	-0.01589674863 	-1.104168659e-05
0.8113785157 	1.404149962 	-0.01567998785 	-1.064868485e-05
0.8143190433 	1.401106742 	-0.01546426633 	-1.026444408e-05
0.8172271484 	1.397990357 	-0.0152496101 	-9.889121911e-06
0.8201032429 	1.394804074 	-0.01503603989 	-9.522722942e-06
0.8229476498 	1.391550906 	-0.01482357096 	-9.164983863e-06
0.8257606958 	1.388233493 	-0.01461221759 	-8.815971415e-06
0.8285427279 	1.384854035 	-0.01440199633 	-8.475752218e-06
0.8312941389 	1.381414354 	-0.01419292384 	-8.144188451e-06
0.8340152199 	1.377916015 	-0.01398501916 	-7.821066812e-06
0.836706302 	1.374360388 	-0.0137783062 	-7.506401835e-06
0.8393677168 	1.370748679 	-0.01357281349 	-7.200190274e-06
0.841999829 	1.367081998 	-0.01336857053 	-6.902245229e-06
0.8446029242 	1.363361411 	-0.01316560748 	-6.612364847e-06
0.8471773226 	1.359587921 	-0.01296395565 	-6.330512809e-06
0.8497233412 	1.355762458 	-0.01276364642 	-6.056639711e-06
0.8522413154 	1.351885923 	-0.01256470963 	-5.790581081e-06
0.8547315346 	1.347959249 	-0.01236717349 	-5.532108379e-06
0.8571943021 	1.343983419 	-0.0121710668 	-5.281152631e-06
0.8596299208 	1.339959481 	-0.01197641967 	-5.037639062e-06
0.8620386999 	1.335888557 	-0.01178326257 	-4.801451085e-06
0.8644209325 	1.331771859 	-0.01159162506 	-4.57234416e-06
0.8667769039 	1.327610669 	-0.01140153672 	-4.350212016e-06
0.8691069039 	1.323406319 	-0.01121302829 	-4.134963411e-06
0.8714112196 	1.319160162 	-0.01102612988 	-3.926501224e-06
0.8736901437 	1.314873565 	-0.01084087017 	-3.724635617e-06
0.8759439454 	1.310547898 	-0.01065727596 	-3.529190712e-06
0.8781729018 	1.306184513 	-0.01047537316 	-3.340064928e-06
0.880377287 	1.301784719 	-0.01029518615 	-3.15715322e-06
0.8825573737 	1.297349768 	-0.01011673747 	-2.980342855e-06
0.8847134322 	1.292880847 	-0.009940046648 	-2.809437272e-06
0.8868457226 	1.288379069 	-0.009765130297 	-2.644296747e-06
0.8889545069 	1.283845455 	-0.009592003285 	-2.484813706e-06
0.8910400442 	1.279280921 	-0.009420677649 	-2.330879032e-06
0.8931025917 	1.274686267 	-0.009251162932 	-2.182379854e-06
0.8951424045 	1.270062172 	-0.009083465366 	-2.039142805e-06
0.8971597301 	1.265409186 	-0.008917587873 	-1.901034453e-06
0.8991548164 	1.260727721 	-0.008753531231 	-1.767948507e-06
0.9011279084 	1.256018041 	-0.008591293365 	-1.639778638e-06
0.9030792486 	1.251280255 	-0.008430869492 	-1.516418746e-06
0.9050090786 	1.246514312 	-0.0082722522 	-1.397735307e-06
0.9069176333 	1.241719998 	-0.008115430909 	-1.283587142e-06
0.9088051471 	1.236896928 	-0.007960392725 	-1.173873632e-06
0.9106718518 	1.232044542 	-0.00780712273 	-1.06849539e-06
0.9125179768 	1.227162099 	-0.007655603441 	-9.673539908e-07
0.914343749 	1.222248671 	-0.007505815522 	-8.703507219e-07
0.9161493933 	1.217303142 	-0.007357737314 	-7.773577063e-07
0.9179351304 	1.212324204 	-0.007211344875 	-6.882695642e-07
0.9197011796 	1.207310351 	-0.007066612903 	-6.029959323e-07
0.921447758 	1.20225988 	-0.006923514428 	-5.214479259e-07
0.9231750801 	1.197170881 	-0.006782020769 	-4.435381773e-07
0.9248833582 	1.192041238 	-0.0066421021 	-3.691802407e-07
0.9265728023 	1.186868624 	-0.006503727111 	-2.982691248e-07
0.9282436194 	1.181650502 	-0.006366862998 	-2.3071408e-07
0.9298960149 	1.176384115 	-0.006231476196 	-1.664363389e-07
0.9315301917 	1.171066489 	-0.006097532237 	-1.053588526e-07
0.9331463504 	1.165694425 	-0.005964995669 	-4.74062987e-08
0.9345222492 	1.161020177 	-0.005852087844 	8.652461322e-07
0.934744687 	1.160264467 	-0.005833834607 	-7.681805924e-09
0.9363253843 	1.154772806 	-0.005704033401 	-6.09018266e-08
0.9378886538 	1.149215724 	-0.00557552764 	-1.111558449e-07
0.9394346874 	1.14358908 	-0.005448279427 	-1.585134101e-07
0.940963675 	1.137888494 	-0.005322250822 	-2.030415039e-07
0.9424758045 	1.132109334 	-0.005197403592 	-2.448053252e-07
0.9439712616 	1.12624672 	-0.005073699376 	-2.838683076e-07
0.9454502299 	1.120295526 	-0.004951099944 	-3.202921517e-07
0.9469128912 	1.114250387 	-0.00482956744 	-3.541404326e-07
0.9483594251 	1.108105713 	-0.004709064208 	-3.854797006e-07
0.9497900093 	1.101855713 	-0.004589553171 	-4.143661388e-07
0.9512048194 	1.09549443 	-0.004470998307 	-4.408539543e-07
0.9526040292 	1.089015785 	-0.004353364602 	-4.649957958e-07
0.9539878108 	1.082413646 	-0.004236618305 	-4.868427989e-07
0.9553563339 	1.075681891 	-0.004120727139 	-5.064446218e-07
0.9567097669 	1.068814498 	-0.004005660451 	-5.238496129e-07
0.9580482759 	1.061805604 	-0.003891388519 	-5.391089549e-07
0.9593720254 	1.054649528 	-0.003777882846 	-5.522697383e-07
0.960681178 	1.047340677 	-0.003665122056 	-5.633757608e-07
0.9619758945 	1.039873199 	-0.003553087315 	-5.724695501e-07
0.963256334 	1.032892986 	-0.003451105909 	-5.812393736e-07
0.9640904201 	1.027129724 	-0.003368863907 	-5.832147059e-07
0.9649091234 	1.021992393 	-0.003297053551 	-5.859786142e-07
0.9657127275 	1.016825733 	-0.003226280901 	-5.879207896e-07
0.9665015107 	1.011624251 	-0.003156504848 	-5.890744731e-07
0.9672757463 	1.006382399 	-0.003087689951 	-5.894719539e-07
0.9680357026 	1.001094586 	-0.003019802211 	-5.891450133e-07
0.9687816429 	0.9957551767 	-0.002952808658 	-5.881236123e-07
0.9695138255 	0.9903584851 	-0.002886677754 	-5.864361501e-07
0.9702325042 	0.9848987658 	-0.002821379448 	-5.841099364e-07
0.9709379278 	0.9793702024 	-0.002756885124 	-5.811712546e-07
0.971630341 	0.9737668989 	-0.00269316756 	-5.776454354e-07
0.9723099835 	0.9680828717 	-0.002630200918 	-5.735569312e-07
0.9729770908 	0.962312045 	-0.002567960724 	-5.689293895e-07
0.9736318941 	0.9564482491 	-0.002506423871 	-5.637857263e-07
0.9742746202 	0.950485222 	-0.002445568629 	-5.581481979e-07
0.9749054919 	0.9444166149 	-0.00238537467 	-5.520384716e-07
0.9755247278 	0.9382359998 	-0.002325823094 	-5.454776942e-07
0.9761325423 	0.9319368813 	-0.002266896471 	-5.384865573e-07
0.9767291462 	0.925512709 	-0.002208578877 	-5.310853587e-07
0.9773147462 	0.9189568921 	-0.002150855931 	-5.232940601e-07
0.9778895451 	0.9122628136 	-0.00209371485 	-5.151323551e-07
0.9784537421 	0.9054238454 	-0.00203714446 	-5.066198996e-07
0.9790075328 	0.898433361 	-0.001981135219 	-4.977760069e-07
0.979551109 	0.891284747 	-0.00192567925 	-4.886197452e-07
0.9800846592 	0.8839714127 	-0.001870770349 	-4.791700611e-07
0.9806083682 	0.8764867963 	-0.001816403977 	-4.694458029e-07
0.9811224175 	0.8688243688 	-0.00176257725 	-4.594657418e-07
0.9816269852 	0.8609776344 	-0.001709288923 	-4.49248588e-07
0.9821222462 	0.8529401286 	-0.001656539368 	-4.388129999e-07
0.9826083721 	0.8447054121 	-0.001604330545 	-4.28177591e-07
0.9830855314 	0.8362670625 	-0.001552665947 	-4.173609348e-07
0.9835538894 	0.8276186601 	-0.001501550537 	-4.063815598e-07
0.9840136086 	0.8187537712 	-0.001450990733 	-3.952579332e-07
0.984464848 	0.8096659345 	-0.001400994363 	-3.840084642e-07
0.9849077643 	0.8003486543 	-0.001351570562 	-3.726514979e-07
0.9853425108 	0.7907953912 	-0.001302729722 	-3.612052865e-07
0.9857692383 	0.7809995506 	-0.001254483463 	-3.496879762e-07
0.9861880946 	0.7709544689 	-0.001206844579 	-3.38117602e-07
0.9865992248 	0.7606534011 	-0.001159826983 	-3.265120715e-07
0.9870027716 	0.7500895105 	-0.001113445658 	-3.148891496e-07
0.9873988747 	0.7392558613 	-0.001067716598 	-3.032664418e-07
0.9877876714 	0.7281454164 	-0.001022656759 	-2.916613768e-07
0.9881692965 	0.7167510393 	-0.0009782839987 	-2.800911888e-07
0.9885438823 	0.7050655037 	-0.0009346170313 	-2.685729055e-07
0.9889115585 	0.69308151 	-0.0008916753463 	-2.571233418e-07
0.9892724526 	0.6807917047 	-0.0008494790929 	-2.4575903e-07
0.9896266897 	0.6681886859 	-0.0008080490404 	-2.344961915e-07
0.9899743926 	0.6552649058 	-0.0007674070619 	-2.233508158e-07
0.9903156818 	0.6420120902 	-0.0007275752872 	-2.123389278e-07
0.9906506755 	0.628421164 	-0.0006885748342 	-2.014758362e-07
0.99097949 	0.6144837256 	-0.0006504283445 	-1.907762636e-07
0.9913022391 	0.600192905 	-0.0006131603203 	-1.802554274e-07
0.9916190347 	0.585542724 	-0.0005767948234 	-1.699282907e-07
0.9919299867 	0.5705276897 	-0.0005413559055 	-1.598091494e-07
0.9922352028 	0.5551429767 	-0.000506868205 	-1.49912012e-07
0.9925347888 	0.5393847567 	-0.0004733570009 	-1.402505661e-07
0.9928288486 	0.523250557 	-0.0004408472406 	-1.308380961e-07
0.993117484 	0.5067395479 	-0.000409359002 	-1.216875852e-07
0.9934007952 	0.489852132 	-0.0003789104003 	-1.128119237e-07
0.9936788803 	0.4740726289 	-0.0003520057631 	-1.049831654e-07
0.9938578551 	0.4609947114 	-0.0003308357188 	-9.872374217e-08
0.9940368302 	0.4491484334 	-0.0003124966482 	-9.332697364e-08
0.9942158055 	0.4369535487 	-0.0002944059482 	-8.799463766e-08
0.994394781 	0.4244056927 	-0.0002765887422 	-8.273385465e-08
0.9945737568 	0.4115019254 	-0.0002590852792 	-7.756132278e-08
0.9947527327 	0.3982402474 	-0.0002420061884 	-7.250418798e-08
0.9949317089 	0.3846190816 	-0.0002252929256 	-6.746072254e-08
0.9951106853 	0.3706278065 	-0.0002086449765 	-6.249313049e-08
0.9952896619 	0.3562348205 	-0.0001923011545 	-5.777986059e-08
0.9954686388 	0.3414083259 	-0.0001766807212 	-5.313692364e-08
0.9956476158 	0.3261462299 	-0.0001615362898 	-4.852640048e-08
0.9958265931 	0.3104688108 	-0.0001467185984 	-4.408111532e-08
0.9960055706 	0.2944050989 	-0.0001323897637 	-3.978552273e-08
0.9961845483 	0.2779922077 	-0.0001186102442 	-3.564347124e-08
0.9963635262 	0.2612738748 	-0.0001054120348 	-3.166870207e-08
0.9965425044 	0.2442982326 	-9.282750301e-05 	-2.787541628e-08
0.9967214828 	0.2271150828 	-8.089008637e-05 	-2.427685006e-08
0.9969004614 	0.2097730802 	-6.963354057e-05 	-2.088568136e-08
0.9970794402 	0.1923172539 	-5.909303985e-05 	-1.771397207e-08
0.9972584192 	0.174787192 	-4.930537843e-05 	-1.477291168e-08
0.9974373985 	0.1572160466 	-4.030765796e-05 	-1.207269462e-08
0.9976163779 	0.1396303353 	-3.213549687e-05 	-9.622609226e-09
0.9977953576 	0.1220503824 	-2.482192848e-05 	-7.431310707e-09
0.9979743375 	0.1044911815 	-1.839724945e-05 	-5.507100603e-09
0.9981533176 	0.08696346057 	-1.288841372e-05 	-3.857496634e-09
0.998332298 	0.06947476983 	-8.316969784e-06 	-2.487595336e-09
0.9985112786 	0.05203046638 	-4.708124552e-06 	-1.403984155e-09
0.9986902593 	0.03463452155 	-2.140399889e-06 	-6.415785508e-10
0.9988692404 	0.01729011889 	-7.870828028e-07 	-2.988412307e-10
0.9990482216 	0.007226153706 	-3.698363888e-07 	-2.092861913e-10
