0.4709558481 	2.810002114e-08 	-3.752176805e-11 	2.809986878e-16 	2.804655628e-08 	-1.126910011e-13 	5.34645314e-11
0.4709558481 	2.810002114e-08 	-3.752176805e-11 	2.809986878e-16 	2.804655628e-08 	-1.126910011e-13 	5.34645314e-11
0.4711314108 	3.154475558e-07 	-1.645980972e-09 	1.233174034e-14 	3.148473286e-07 	-1.267406941e-12 	6.001865156e-10
0.4713069734 	1.758240768e-06 	-2.148048006e-08 	1.610055551e-13 	1.754894576e-06 	-7.076637149e-12 	3.345316809e-09
0.471482536 	5.854888577e-06 	-1.341314445e-07 	1.005658783e-12 	5.843741176e-06 	-2.36069006e-11 	1.113979487e-08
0.4716580986 	1.447381628e-05 	-5.458258626e-07 	4.091148353e-12 	1.444623794e-05 	-5.84572535e-11 	2.753854464e-08
0.4718336613 	2.966896117e-05 	-1.682577024e-06 	1.259265982e-11 	2.961236122e-05 	-1.199868436e-10 	5.644939081e-08
0.4720092239 	5.359435791e-05 	-4.276111018e-06 	3.189165241e-11 	5.349193253e-05 	-2.168608693e-10 	1.019704907e-07
0.4721847865 	8.842793605e-05 	-9.430071401e-06 	6.988116435e-11 	8.825852713e-05 	-3.57514197e-10 	1.682452829e-07
0.4723603491 	0.0001362787249 	-1.864406161e-05 	1.367423252e-10 	0.0001360168235 	-5.494030397e-10 	2.592858694e-07
0.4725359118 	0.0001990672767 	-3.377008687e-05 	2.439405842e-10 	0.000198683233 	-7.980161021e-10 	3.787454632e-07
0.4727114744 	0.0002783789259 	-5.688067901e-05 	4.0233704e-10 	0.0002778394314 	-1.105722932e-09 	5.296391777e-07
0.472887037 	0.0003753005858 	-9.004461427e-05 	6.196269024e-10 	0.0003745694626 	-1.470665395e-09 	7.140335018e-07
0.4730625996 	0.0004902639396 	-0.0001350342882 	8.977237718e-10 	0.0004893032204 	-1.886009242e-09 	9.327479329e-07
0.4732381623 	0.0006229272376 	-0.0001930203647 	1.230993575e-09 	0.0006216984604 	-2.339894274e-09 	1.185130058e-06
0.4734137249 	0.000772128988 	-0.0002643292014 	1.606155894e-09 	0.0007705945808 	-2.81629834e-09 	1.468967447e-06
0.4735892875 	0.0009359357726 	-0.0003483321976 	2.004125786e-09 	0.0009340607284 	-3.296788583e-09 	1.780579357e-06
0.4737648501 	0.001111784652 	-0.0004435005586 	2.403295857e-09 	0.001109540195 	-3.762802387e-09 	2.115091993e-06
0.4739404128 	0.001296698634 	-0.0005476083912 	2.783259589e-09 	0.001294064543 	-4.196783963e-09 	2.466846686e-06
0.4741159754 	0.001487541546 	-0.0006581322225 	3.154149742e-09 	0.001484484327 	-4.585286907e-09 	2.829839719e-06
0.474291538 	0.00168128658 	-0.0007704122892 	2.860902018e-09 	0.00167777187 	-4.932596195e-09 	3.198299498e-06
0.4744671006 	0.001875489921 	-0.0008711871684 	2.461026339e-09 	0.001871547529 	-5.271562035e-09 	3.56768976e-06
0.4746426632 	0.00206878025 	-0.0009609714732 	2.621810414e-09 	0.002064438086 	-5.612713946e-09 	3.935392773e-06
0.4748182259 	0.0022602205 	-0.001049889554 	2.77807519e-09 	0.002255441981 	-5.944262028e-09 	4.299499283e-06
0.4749937885 	0.00244875147 	-0.001137452045 	2.929632935e-09 	0.002443519635 	-6.26637429e-09 	4.658027566e-06
0.4751693511 	0.002633466462 	-0.001223241973 	3.076848932e-09 	0.002627793511 	-6.57845048e-09 	5.009304789e-06
0.4753449137 	0.002813635364 	-0.001306918609 	3.220254075e-09 	0.002807525046 	-6.8818065e-09 	5.351923048e-06
0.4755204764 	0.002988681899 	-0.001388213607 	3.360455923e-09 	0.002982135131 	-7.177867543e-09 	5.684778401e-06
0.475696039 	0.003158172206 	-0.001466925449 	3.498077184e-09 	0.003151191096 	-7.467964881e-09 	6.007046058e-06
0.4758716016 	0.003321802954 	-0.001542913445 	3.633697444e-09 	0.003314391707 	-7.753319323e-09 	6.318151782e-06
0.4760471642 	0.003479393953 	-0.001616093677 	3.767731856e-09 	0.003471555562 	-8.034773988e-09 	6.61774977e-06
0.4762227269 	0.003651465926 	-0.001695994107 	3.916865635e-09 	0.003643140051 	-8.347106268e-09 	6.944837495e-06
0.4764955107 	0.003855584248 	-0.001790770552 	4.083808057e-09 	0.003846655725 	-8.694656116e-09 	7.332794935e-06
0.4767734216 	0.004068933983 	-0.001889830795 	4.237152607e-09 	0.004059349517 	-9.009726032e-09 	7.738248417e-06
0.4770565557 	0.004271500547 	-0.001983887683 	4.360868573e-09 	0.004261257948 	-9.256574587e-09 	8.123142004e-06
0.4773450114 	0.004462891706 	-0.002072775403 	4.458608907e-09 	0.004451984085 	-9.438365733e-09 	8.486719031e-06
0.4776388886 	0.004642895647 	-0.002156430302 	4.535545317e-09 	0.004631315965 	-9.55727127e-09 	8.828575438e-06
0.4779382892 	0.004811456414 	-0.002234888609 	4.599098733e-09 	0.004799196897 	-9.613983438e-09 	9.148603154e-06
0.4782433171 	0.004968642003 	-0.00230828236 	4.659796963e-09 	0.004955693015 	-9.607584514e-09 	9.446928251e-06
0.4785540779 	0.005114616273 	-0.002376836321 	4.732009966e-09 	0.005100965976 	-9.535647174e-09 	9.723858891e-06
0.4788706795 	0.005249618254 	-0.002440865687 	4.834520332e-09 	0.005235252812 	-9.394705529e-09 	9.979846923e-06
0.4791932316 	0.005373952077 	-0.002500204571 	4.903830146e-09 	0.005358857228 	-9.181443564e-09 	1.021547129e-05
0.4795218461 	0.00548799588 	-0.002553446603 	4.820886345e-09 	0.005472159486 	-8.895448558e-09 	1.043145689e-05
0.4798566368 	0.005592208178 	-0.002600953075 	4.625741691e-09 	0.00557561531 	-8.53901008e-09 	1.062867244e-05
0.48019772 	0.005687044666 	-0.002644227666 	4.402234544e-09 	0.005669673969 	-8.111337351e-09 	1.080797439e-05
0.4805452138 	0.005772912478 	-0.002683433632 	4.14744025e-09 	0.005754739163 	-7.607125588e-09 	1.097013229e-05
0.4808992388 	0.005850207692 	-0.002718734581 	3.857623959e-09 	0.005831204205 	-7.019217103e-09 	1.111589591e-05
0.4812599177 	0.005919318644 	-0.002750294622 	3.528433897e-09 	0.005899454934 	-6.339045392e-09 	1.124600077e-05
0.4816273755 	0.005980622728 	-0.002778275937 	3.154873164e-09 	0.005959866394 	-5.556576814e-09 	1.136116181e-05
0.4820017397 	0.006034482342 	-0.002802836243 	2.731226218e-09 	0.006012798769 	-4.660154722e-09 	1.146206563e-05
0.48238314 	0.006081241194 	-0.002824126587 	2.250995808e-09 	0.006058593724 	-3.636358905e-09 	1.154936354e-05
0.4827717088 	0.006121221298 	-0.002842289599 	1.706887255e-09 	0.00609757144 	-2.469962219e-09 	1.16236659e-05
0.4831675807 	0.006154720901 	-0.00285745826 	1.090869483e-09 	0.006130028603 	-1.144055037e-09 	1.168553827e-05
0.4835708931 	0.006182013572 	-0.002869755265 	3.943271946e-10 	0.006156237537 	3.596254884e-10 	1.173549978e-05
0.4839817856 	0.006203348622 	-0.002879293046 	-3.917024635e-10 	0.006176446678 	2.060174061e-09 	1.177402402e-05
0.4844004009 	0.006218952923 	-0.002886174466 	-1.276234506e-09 	0.006190882438 	3.976863123e-09 	1.180154259e-05
0.4848268841 	0.006229034054 	-0.002890494153 	-2.268018013e-09 	0.006199752386 	6.128441218e-09 	1.181845118e-05
0.485261383 	0.006233784618 	-0.00289234042 	-3.375230845e-09 	0.006203249605 	8.532469333e-09 	1.182511785e-05
0.4857040484 	0.006233387551 	-0.002891797662 	-4.605214731e-09 	0.006201557997 	1.120477232e-08 	1.182189318e-05
0.4861550336 	0.006228022183 	-0.002888949158 	-5.964269798e-09 	0.006194858271 	1.415905041e-08 	1.180912164e-05
0.4866144951 	0.006217855579 	-0.002883871671 	-7.459696069e-09 	0.006183319431 	1.741053549e-08 	1.17871254e-05
0.4870825921 	0.006203020482 	-0.002876624465 	-9.101666982e-09 	0.006167077024 	2.097931407e-08 	1.175616286e-05
0.487559487 	0.006183622169 	-0.002867255016 	-1.090009288e-08 	0.006146239878 	2.48849112e-08 	1.171644147e-05
0.4880453452 	0.0061597513 	-0.002855805841 	-1.286223929e-08 	0.006120902772 	2.914215387e-08 	1.16681419e-05
0.4885403351 	0.006131477394 	-0.00284231023 	-1.499399535e-08 	0.006091140059 	3.376330653e-08 	1.16114059e-05
0.4890446283 	0.006098846927 	-0.002826791124 	-1.730056797e-08 	0.006057003859 	3.875926091e-08 	1.154633281e-05
0.4895583997 	0.006061884293 	-0.002809261549 	-1.978632358e-08 	0.006018524997 	4.413920584e-08 	1.147298141e-05
0.4900818274 	0.006020593045 	-0.002789725186 	-2.245460903e-08 	0.005975714229 	4.991024808e-08 	1.139137218e-05
0.4906150929 	0.005974957414 	-0.002768177059 	-2.530755759e-08 	0.005928563729 	5.607699543e-08 	1.130149023e-05
0.4911583811 	0.005924944095 	-0.00274460436 	-2.834588418e-08 	0.005877048831 	6.264111269e-08 	1.120328851e-05
0.4917118805 	0.005870504315 	-0.002718987394 	-3.156867358e-08 	0.005821130033 	6.960085455e-08 	1.109669174e-05
0.4922757829 	0.005811576168 	-0.002691300641 	-3.497316505e-08 	0.005760755259 	7.695057983e-08 	1.098160064e-05
0.4928502838 	0.005748087218 	-0.002661513953 	-3.855453693e-08 	0.005695862394 	8.468025178e-08 	1.085789681e-05
0.4934355824 	0.005679957362 	-0.002629593842 	-4.230569509e-08 	0.005626382058 	9.277492998e-08 	1.072544797e-05
0.4940318817 	0.005607101917 	-0.002595504884 	-4.621706966e-08 	0.005552240619 	1.012142623e-07 	1.058411378e-05
0.4946393885 	0.005529434899 	-0.002559211193 	-5.027642579e-08 	0.005473363399 	1.099719899e-07 	1.043375188e-05
0.4952583133 	0.005446872446 	-0.002520677941 	-5.446869555e-08 	0.005389678031 	1.190154836e-07 	1.027422431e-05
0.4958888709 	0.005359336283 	-0.00247987289 	-5.877583909e-08 	0.005301117872 	1.283053399e-07 	1.010540403e-05
0.4965312797 	0.005266757127 	-0.002436767857 	-6.317674303e-08 	0.005207625382 	1.377950639e-07 	9.927181363e-06
0.4971857627 	0.005169077819 	-0.002391340037 	-6.764716023e-08 	0.005109155266 	1.474308608e-07 	9.739469953e-06
0.4978525466 	0.005066255947 	-0.002343573046 	-7.215968649e-08 	0.005005677171 	1.571515261e-07 	9.542211944e-06
0.4985318627 	0.004958265558 	-0.002293457509 	-7.668375546e-08 	0.004897177575 	1.66888355e-07 	9.335381559e-06
0.4992239466 	0.004845097461 	-0.002240990952 	-8.118561523e-08 	0.004783660414 	1.765648773e-07 	9.118986299e-06
0.4999290382 	0.004726757487 	-0.002186176686 	-8.562823498e-08 	0.004665145842 	1.860961398e-07 	8.893064585e-06
0.5006473819 	0.004603262193 	-0.002129021387 	-8.997107476e-08 	0.004541666354 	1.953873652e-07 	8.657678362e-06
0.501379227 	0.00447463216 	-0.002069531276 	-9.416956096e-08 	0.004413259761 	2.043317183e-07 	8.412899706e-06
0.502124827 	0.004340884279 	-0.002007707752 	-9.817361106e-08 	0.00427996189 	2.128039706e-07 	8.158796917e-06
0.5028844406 	0.004202031211 	-0.001943545984 	-1.019227667e-07 	0.00414180569 	2.206531449e-07 	7.8954328e-06
0.5036583311 	0.004058630031 	-0.001877306344 	-1.04861235e-07 	0.003999351963 	2.267669091e-07 	7.623876404e-06
0.5044467669 	0.003911954364 	-0.001809596582 	-1.064927555e-07 	0.003853838924 	2.30161967e-07 	7.346488109e-06
0.5052500214 	0.00376301711 	-0.001740874402 	-1.073028621e-07 	0.003706200346 	2.317771384e-07 	7.065047945e-06
0.506068373 	0.003593360425 	-0.001662556652 	-1.076616519e-07 	0.00353802388 	2.32285577e-07 	6.744456858e-06
0.507324668 	0.003387372458 	-0.001567357254 	-1.070322939e-07 	0.003333821422 	2.304866166e-07 	6.355190218e-06
0.5085949819 	0.003169921793 	-0.001466701441 	-1.048062311e-07 	0.003118359457 	2.251248032e-07 	5.944459829e-06
0.5098794711 	0.002963895155 	-0.001371145124 	-1.007232107e-07 	0.002914426613 	2.157083813e-07 	5.555707148e-06
0.5111782938 	0.002772571474 	-0.001282241467 	-9.47776044e-08 	0.002725331771 	2.022464665e-07 	5.195239822e-06
0.5124916099 	0.002598526637 	-0.001201204426 	-8.752618667e-08 	0.002553374683 	1.861071314e-07 	4.867441819e-06
0.5138195812 	0.002442645761 	-0.001126666616 	-9.41758257e-08 	0.002399217509 	1.703176601e-07 	4.573575399e-06
0.5151623712 	0.002302639144 	-0.001043875735 	-1.006329681e-07 	0.002261436423 	1.568622853e-07 	4.310926356e-06
0.5165201452 	0.00217583459 	-0.0009578490707 	-9.38993603e-08 	0.002137318178 	1.4421995e-07 	4.074322483e-06
0.5178930705 	0.002061741058 	-0.0008813843487 	-8.91562103e-08 	0.002025673355 	1.306109256e-07 	3.861496422e-06
0.5192813161 	0.00196036275 	-0.0008092920054 	-8.482135687e-08 	0.001926790276 	1.163226966e-07 	3.67299779e-06
0.520685053 	0.001871545022 	-0.0007415090936 	-8.013712971e-08 	0.001840544793 	1.01984007e-07 	3.508589928e-06
0.522104454 	0.001794915609 	-0.0006779808021 	-7.539358204e-08 	0.001766463116 	8.791818065e-08 	3.367369661e-06
0.523539694 	0.001729815716 	-0.0006185582898 	-7.078540727e-08 	0.001703891661 	7.442812796e-08 	3.248091079e-06
0.5249909497 	0.001675370056 	-0.0005630299638 	-6.639922596e-08 	0.001651961928 	6.18101409e-08 	3.149098574e-06
0.5264583998 	0.001630542628 	-0.0005111705557 	-6.222155294e-08 	0.00160964377 	5.028444492e-08 	3.068428403e-06
0.527942225 	0.001594210707 	-0.0004627913491 	-5.819633424e-08 	0.001575834169 	3.994140047e-08 	3.003977906e-06
0.5294426081 	0.001565268944 	-0.0004178703168 	-5.375191235e-08 	0.001549452322 	3.077058507e-08 	2.953686774e-06
0.5309597337 	0.0015427813 	-0.0003766852179 	-4.905253714e-08 	0.001529560434 	2.246711503e-08 	2.915767307e-06
0.5324937889 	0.001526076887 	-0.0003387069652 	-4.583329755e-08 	0.001515484274 	1.481608423e-08 	2.888934233e-06
0.5340449624 	0.001514465375 	-0.0003026307161 	-4.392389944e-08 	0.001506529653 	8.204420014e-09 	2.871864237e-06
0.5356134452 	0.001507037422 	-0.0002680685069 	-4.196852417e-08 	0.001501748298 	2.877427272e-09 	2.862749644e-06
0.5371994306 	0.001502913134 	-0.0002351137133 	-4.003262966e-08 	0.001500234284 	-1.385747336e-09 	2.859863513e-06
0.5388031139 	0.00150139516 	-0.000203593804 	-3.833427877e-08 	0.001501297559 	-4.832192608e-09 	2.861890411e-06
0.5404246925 	0.001501943433 	-0.000173325895 	-3.684490623e-08 	0.001504404457 	-7.628915959e-09 	2.867813023e-06
0.5420643661 	0.001504138493 	-0.0001441547726 	-3.553158727e-08 	0.001509135549 	-9.908055094e-09 	2.876831799e-06
0.5437223366 	0.001507650839 	-0.0001159498966 	-3.436717988e-08 	0.001515161359 	-1.177426382e-08 	2.888318667e-06
0.5453988083 	0.001512219672 	-8.860125107e-05 	-3.332897054e-08 	0.001522221335 	-1.330820264e-08 	2.901776944e-06
0.5470939875 	0.001517637244 	-6.201599597e-05 	-3.239765871e-08 	0.00153010768 	-1.457249623e-08 	2.916810509e-06
0.5488080831 	0.001523736947 	-3.611574835e-05 	-3.155681772e-08 	0.001538653451 	-1.56162778e-08 	2.933101124e-06
0.5505413061 	0.001530384269 	-1.083434682e-05 	-3.079250978e-08 	0.00154772362 	-1.647835003e-08 	2.950391386e-06
0.5522938699 	0.001537469902 	1.388399657e-05 	-3.009294571e-08 	0.001557208233 	-1.718955523e-08 	2.968471695e-06
0.5540659904 	0.001544904457 	3.808623184e-05 	-2.94481682e-08 	0.001567017165 	-1.777458546e-08 	2.987170247e-06
0.5558578859 	0.001552614372 	6.181175399e-05 	-2.884976193e-08 	0.001577076063 	-1.825335114e-08 	3.006345301e-06
0.5576697768 	0.00156053874 	8.509348095e-05 	-2.829059757e-08 	0.001587323191 	-1.86420151e-08 	3.025879175e-06
0.5595018865 	0.001568626812 	0.0001079587642 	-2.776461296e-08 	0.001597706963 	-1.895377986e-08 	3.04567353e-06
0.5613544406 	0.001576836041 	0.000130430162 	-2.726663048e-08 	0.001608183997 	-1.919949198e-08 	3.065645669e-06
0.563227667 	0.001585130531 	0.0001525260988 	-2.679220661e-08 	0.001618717572 	-1.938810991e-08 	3.085725592e-06
0.5651217966 	0.001593479797 	0.0001742614306 	-2.633750891e-08 	0.0016292764 	-1.952706912e-08 	3.105853653e-06
0.5670370626 	0.001601857779 	0.0001956479307 	-2.589921517e-08 	0.00163983364 	-1.96225694e-08 	3.125978685e-06
0.5689737009 	0.001610242039 	0.0002166947095 	-2.547443081e-08 	0.001650366099 	-1.967980233e-08 	3.146056481e-06
0.5709319499 	0.001618613125 	0.0002374085767 	-2.506062074e-08 	0.001660853598 	-1.970313272e-08 	3.166048567e-06
0.5729120508 	0.001626954043 	0.0002577943575 	-2.465555304e-08 	0.001671278439 	-1.969624401e-08 	3.185921212e-06
0.5749142474 	0.001635249834 	0.0002778551666 	-2.425725232e-08 	0.001681624984 	-1.966225553e-08 	3.205644604e-06
0.5769387863 	0.001643487227 	0.000297592648 	-2.386396108e-08 	0.001691879305 	-1.96038176e-08 	3.225192189e-06
0.5789859169 	0.001651654349 	0.0003170071854 	-2.347410767e-08 	0.00170202889 	-1.952318892e-08 	3.244540119e-06
0.5810558911 	0.0016597405 	0.0003360980864 	-2.308627995e-08 	0.001712062411 	-1.942230007e-08 	3.263666799e-06
0.583148964 	0.001667735955 	0.0003548637455 	-2.269920364e-08 	0.001721969528 	-1.930280577e-08 	3.282552517e-06
0.5852653933 	0.001675631806 	0.0003733017885 	-2.231172465e-08 	0.001731740723 	-1.916612826e-08 	3.301179131e-06
0.5874054395 	0.001683419837 	0.0003914092001 	-2.19227949e-08 	0.00174136717 	-1.901349343e-08 	3.319529813e-06
0.5895693664 	0.001691092416 	0.0004091824392 	-2.153146095e-08 	0.001750840622 	-1.884596115e-08 	3.337588846e-06
0.5917574402 	0.001698642406 	0.0004266175409 	-2.113685513e-08 	0.001760153322 	-1.866445091e-08 	3.355341442e-06
0.5939699306 	0.001706063098 	0.0004437102098 	-2.073818861e-08 	0.001769297932 	-1.846976358e-08 	3.372773609e-06
0.5962071099 	0.001713348155 	0.0004604559044 	-2.033474637e-08 	0.001778267465 	-1.826260012e-08 	3.389872032e-06
0.5984692536 	0.001720491566 	0.000476849914 	-1.992588333e-08 	0.001787055245 	-1.804357759e-08 	3.406623983e-06
0.6007566404 	0.001727487612 	0.0004928874301 	-1.951102192e-08 	0.001795654868 	-1.781324311e-08 	3.423017254e-06
0.6030695519 	0.001734330839 	0.000508563612 	-1.908965028e-08 	0.001804060171 	-1.757208602e-08 	3.439040099e-06
0.6054082729 	0.001741016044 	0.0005238736483 	-1.866132142e-08 	0.001812265216 	-1.732054845e-08 	3.454681196e-06
0.6077730914 	0.001747538255 	0.000538812815 	-1.822565275e-08 	0.001820264275 	-1.705903472e-08 	3.469929625e-06
0.6101642987 	0.001753892734 	0.0005533765301 	-1.778232602e-08 	0.001828051821 	-1.678791952e-08 	3.484774852e-06
0.6125821893 	0.001760074965 	0.0005675604055 	-1.733108757e-08 	0.001835622531 	-1.650755516e-08 	3.499206729e-06
0.6150270608 	0.001766080666 	0.0005813602969 	-1.687174852e-08 	0.001842971286 	-1.621827789e-08 	3.513215499e-06
0.6174992144 	0.001771905789 	0.0005947723515 	-1.640418511e-08 	0.001850093181 	-1.592041343e-08 	3.52679181e-06
0.6199989545 	0.001777546532 	0.0006077930541 	-1.592833879e-08 	0.001856983535 	-1.561428174e-08 	3.53992674e-06
0.622526589 	0.001782999351 	0.0006204192712 	-1.544421631e-08 	0.00186363791 	-1.530020107e-08 	3.552611827e-06
0.625082429 	0.001788260977 	0.0006326482942 	-1.495188934e-08 	0.001870052124 	-1.497849128e-08 	3.564839102e-06
0.6276667894 	0.001793328432 	0.0006444778808 	-1.445149403e-08 	0.001876222278 	-1.464947653e-08 	3.576601131e-06
0.6302799884 	0.001798199047 	0.0006559062949 	-1.394323009e-08 	0.001882144779 	-1.431348726e-08 	3.587891063e-06
0.6329223478 	0.001802870489 	0.0006669323456 	-1.342735966e-08 	0.001887816363 	-1.397086153e-08 	3.598702679e-06
0.6355941931 	0.001807340778 	0.0006775554237 	-1.290420572e-08 	0.001893234128 	-1.362194568e-08 	3.609030446e-06
0.6382958531 	0.001811608316 	0.0006877755381 	-1.237415034e-08 	0.001898395563 	-1.326709434e-08 	3.618869574e-06
0.6410276607 	0.001815671914 	0.000697593349 	-1.183763249e-08 	0.001903298576 	-1.290666981e-08 	3.628216081e-06
0.6437899523 	0.001819530814 	0.0007070102006 	-1.129514574e-08 	0.001907941535 	-1.254104072e-08 	3.63706685e-06
0.646583068 	0.001823184722 	0.0007160281514 	-1.074723565e-08 	0.001912323295 	-1.217058019e-08 	3.645419703e-06
0.6494073518 	0.001826633839 	0.0007246500023 	-1.019449713e-08 	0.001916443238 	-1.179566318e-08 	3.65327346e-06
0.6522631514 	0.001829878885 	0.0007328793231 	-9.63757165e-09 	0.00192030131 	-1.141666345e-08 	3.660628016e-06
0.6551508186 	0.001832921136 	0.000740720476 	-9.077144458e-09 	0.001923898054 	-1.103394976e-08 	3.667484411e-06
0.658070709 	0.001835762453 	0.0007481786379 	-8.513941904e-09 	0.001927234654 	-1.064788161e-08 	3.673844898e-06
0.6610231822 	0.001838405318 	0.0007552598184 	-7.948728845e-09 	0.001930312971 	-1.025880447e-08 	3.679713026e-06
0.6640086017 	0.001840852865 	0.0007619708769 	-7.382306248e-09 	0.001933135584 	-9.867044523e-09 	3.68509371e-06
0.6670273351 	0.001843108914 	0.0007683195354 	-6.815508992e-09 	0.001935705829 	-9.472902902e-09 	3.689993312e-06
0.6700797543 	0.001845178011 	0.0007743143889 	-6.249203924e-09 	0.001938027845 	-9.076649652e-09 	3.694419719e-06
0.6731662352 	0.001847065463 	0.0007799649123 	-5.684288169e-09 	0.001940106614 	-8.678517266e-09 	3.69838243e-06
0.6762871577 	0.001848777374 	0.0007852814642 	-5.121687657e-09 	0.001941948007 	-8.278693961e-09 	3.701892638e-06
0.6794429063 	0.001850320693 	0.0007902752863 	-4.562355857e-09 	0.001943558832 	-7.877316713e-09 	3.704963319e-06
0.6826338695 	0.001851703249 	0.0007949584995 	-4.007272637e-09 	0.001944946883 	-7.47446411e-09 	3.707609329e-06
0.6858604404 	0.001852933801 	0.000799344095 	-3.457443188e-09 	0.001946120989 	-7.070149098e-09 	3.709847502e-06
0.6891230163 	0.001854022087 	0.0008034459216 	-2.913896887e-09 	0.001947091074 	-6.664311669e-09 	3.711696753e-06
0.6924219988 	0.001854978877 	0.0008072786669 	-2.37768597e-09 	0.001947868213 	-6.256811558e-09 	3.713178197e-06
0.6957577944 	0.001855816031 	0.0008108578343 	-1.84988393e-09 	0.001948464701 	-5.847421049e-09 	3.714315268e-06
0.6991308138 	0.001856546566 	0.0008141997133 	-1.33158344e-09 	0.001948894119 	-5.435817951e-09 	3.715133857e-06
0.7025414724 	0.001857184725 	0.0008173213437 	-8.238936963e-10 	0.001949171414 	-5.021578833e-09 	3.715662458e-06
0.7059901901 	0.00185774606 	0.000820240473 	-3.279370481e-10 	0.001949312986 	-4.60417264e-09 	3.715932335e-06
0.7094773917 	0.001858247522 	0.0008229755066 	1.551552153e-10 	0.001949336785 	-4.182954785e-09 	3.715977703e-06
0.7130035066 	0.001858707567 	0.0008255454504 	6.242479965e-10 	0.001949262417 	-3.757161741e-09 	3.715835936e-06
0.7165689691 	0.001859146271 	0.0008279698454 	1.07820858e-09 	0.001949111264 	-3.325906266e-09 	3.715547797e-06
0.7201742182 	0.001859585471 	0.0008302686957 	1.515914055e-09 	0.001948906614 	-2.888174645e-09 	3.715157677e-06
0.7238196978 	0.001860048926 	0.0008324623845 	1.936259721e-09 	0.001948673803 	-2.442827186e-09 	3.714713875e-06
0.727505857 	0.001860562448 	0.0008345716359 	2.33817119e-09 	0.001948440484 	-1.988590778e-09 	3.714269103e-06
0.7312331497 	0.001861154132 	0.0008366198502 	2.720799105e-09 	0.001948236766 	-1.524043836e-09 	3.71388076e-06
0.7350020349 	0.001861852451 	0.0008386413586 	3.083766914e-09 	0.001948095366 	-1.048930128e-09 	3.713611213e-06
0.7387709215 	0.001862680217 	0.0008406837243 	3.427063121e-09 	0.001948048755 	-5.660096119e-10 	3.713522359e-06
0.7424982157 	0.001863654048 	0.0008427917351 	3.751218901e-09 	0.001948123762 	-7.855666283e-11 	3.713665343e-06
0.7461843763 	0.001864790464 	0.0008449913124 	4.057035407e-09 	0.001948342146 	4.126425112e-10 	3.714081645e-06
0.7498298574 	0.001866106489 	0.0008472937285 	4.345002643e-09 	0.001948723807 	9.079671166e-10 	3.714809196e-06
0.7534351078 	0.001867617978 	0.0008497059698 	4.61546907e-09 	0.001949287178 	1.407693988e-09 	3.715883137e-06
0.7570005716 	0.001869339702 	0.000852233243 	4.868818125e-09 	0.001950049281 	1.912013674e-09 	3.717335919e-06
0.7605266877 	0.001871285374 	0.0008548791551 	5.105468045e-09 	0.001951025911 	2.421039294e-09 	3.719197646e-06
0.7640138905 	0.001873467714 	0.0008576458394 	5.325869468e-09 	0.001952231684 	2.934809154e-09 	3.721496185e-06
0.7674626093 	0.001875898521 	0.0008605340817 	5.530503086e-09 	0.001953680098 	3.453292971e-09 	3.724257265e-06
0.770873269 	0.001878588724 	0.0008635434424 	5.719876079e-09 	0.001955383596 	3.97640098e-09 	3.727504605e-06
0.7742462894 	0.001881548442 	0.0008666723731 	5.894516223e-09 	0.00195735363 	4.50399474e-09 	3.731260037e-06
0.777582086 	0.001884787032 	0.0008699183296 	6.054962419e-09 	0.001959600722 	5.035899312e-09 	3.735543619e-06
0.7808810695 	0.001888313138 	0.0008732778807 	6.20175066e-09 	0.001962134524 	5.571916006e-09 	3.74037375e-06
0.7841436462 	0.001892134743 	0.0008767468101 	6.335395487e-09 	0.001964963879 	6.111834294e-09 	3.745767286e-06
0.787370218 	0.001896259216 	0.0008803202132 	6.456368817e-09 	0.00196809688 	6.655440702e-09 	3.751739657e-06
0.7905611821 	0.00190069336 	0.0008839925855 	6.565080787e-09 	0.001971540935 	7.202522134e-09 	3.758304984e-06
0.7937169314 	0.001905443458 	0.0008877579027 	6.661870724e-09 	0.001975302829 	7.75286072e-09 	3.7654762e-06
0.7968378547 	0.001910515324 	0.0008916096926 	6.747019891e-09 	0.00197938879 	8.306217112e-09 	3.773265177e-06
0.7999243362 	0.001915914355 	0.0008955410959 	6.820799217e-09 	0.001983804553 	8.862302626e-09 	3.781682847e-06
0.8029767561 	0.001921645584 	0.0008995449196 	6.883564534e-09 	0.001988555428 	9.420756835e-09 	3.790739335e-06
0.8059954902 	0.001927713728 	0.0009036136846 	6.935915547e-09 	0.001993646395 	9.981141414e-09 	3.800444135e-06
0.8089809102 	0.001934123267 	0.0009077396947 	6.97893868e-09 	0.001999082159 	1.054279015e-08 	3.810806212e-06
0.8119333839 	0.001940878706 	0.0009119151312 	7.014442244e-09 	0.002004866844 	1.110434031e-08 	3.821833429e-06
0.8148532749 	0.001947984806 	0.0009161319484 	7.044797602e-09 	0.002011003792 	1.166494788e-08 	3.833532156e-06
0.8177409426 	0.001955444478 	0.000920381779 	7.073906855e-09 	0.002017500024 	1.223192488e-08 	3.845915782e-06
0.8205967427 	0.001963258955 	0.0009246617905 	7.118339426e-09 	0.002024366225 	1.279227144e-08 	3.859004668e-06
0.8234210268 	0.001971443806 	0.0009291725132 	7.677914078e-09 	0.00203158584 	1.333153078e-08 	3.872767262e-06
0.8262141429 	0.001980074256 	0.0009340061782 	7.441982196e-09 	0.002039097898 	1.382052576e-08 	3.887087332e-06
0.8289764348 	0.001989270727 	0.0009385138661 	6.823839615e-09 	0.002046843113 	1.429388438e-08 	3.901851864e-06
0.8317082427 	0.001999071235 	0.0009426906905 	7.122448119e-09 	0.002054842329 	1.481435046e-08 	3.917100593e-06
0.8344099031 	0.002009432636 	0.0009470778216 	7.426524959e-09 	0.002063180605 	1.539640617e-08 	3.932995664e-06
0.8370817486 	0.002020315176 	0.000951682119 	7.733603517e-09 	0.002071938603 	1.60424615e-08 	3.949690843e-06
0.8397241082 	0.002031688446 	0.0009565075296 	8.04290467e-09 	0.002081170557 	1.672351268e-08 	3.967289514e-06
0.8423373074 	0.002043529782 	0.0009615553004 	8.353812735e-09 	0.002090904578 	1.742079064e-08 	3.985845262e-06
0.844921668 	0.002055818586 	0.0009668240058 	8.66588663e-09 	0.002101154755 	1.812020454e-08 	4.00538495e-06
0.8474775082 	0.002068536993 	0.0009723099711 	8.978871576e-09 	0.002111922331 	1.881476876e-08 	4.025910941e-06
0.8500051427 	0.002081670442 	0.000978007846 	9.292747742e-09 	0.002123197547 	1.950401195e-08 	4.047404636e-06
0.8525048829 	0.002095207403 	0.0009839112729 	9.607719106e-09 	0.00213496312 	2.019071485e-08 	4.069833088e-06
0.8549770366 	0.00210913882 	0.0009900135794 	9.924119801e-09 	0.002147198071 	2.08780304e-08 	4.093156305e-06
0.8574219081 	0.0021234576 	0.000996308403 	1.024229787e-08 	0.002159881065 	2.156817391e-08 	4.117333618e-06
0.8598397987 	0.002138158258 	0.001002790164 	1.056253805e-08 	0.00217299285 	2.226234698e-08 	4.142328325e-06
0.862231006 	0.002153236665 	0.001009454346 	1.088504556e-08 	0.002186517664 	2.296114732e-08 	4.168110378e-06
0.8645958245 	0.002168689835 	0.001016297579 	1.120997772e-08 	0.00220044374 	2.366494952e-08 	4.19465735e-06
0.8669345455 	0.002184515716 	0.001023317568 	1.15374982e-08 	0.002214763128 	2.437410702e-08 	4.221954083e-06
0.8692474569 	0.002200712962 	0.001030512919 	1.186783196e-08 	0.002229471081 	2.508904104e-08 	4.249991531e-06
0.8715348435 	0.00221728075 	0.001037882916 	1.22013096e-08 	0.002244565255 	2.581031302e-08 	4.27876522e-06
0.8737969871 	0.002234218626 	0.001045427308 	1.25383971e-08 	0.002260044888 	2.653871662e-08 	4.308273703e-06
0.8760341663 	0.002251526425 	0.001053146129 	1.287971136e-08 	0.002275910127 	2.727536966e-08 	4.338517258e-06
0.8782466565 	0.002269204252 	0.001061039586 	1.32260238e-08 	0.002292161549 	2.802177173e-08 	4.369496985e-06
0.8804347301 	0.002287252522 	0.001069108009 	1.357825469e-08 	0.002308799917 	2.87798113e-08 	4.40121434e-06
0.8825986568 	0.002305672047 	0.001077351856 	1.393746193e-08 	0.002325826148 	2.955173049e-08 	4.433671069e-06
0.8847387028 	0.002324464176 	0.001085771773 	1.43048279e-08 	0.002343241428 	3.03400701e-08 	4.466869431e-06
0.8868551318 	0.002343630949 	0.00109436868 	1.468164771e-08 	0.002361047433 	3.114761725e-08 	4.500812626e-06
0.8889482045 	0.002363175296 	0.001103143874 	1.5069321e-08 	0.002379246599 	3.197736948e-08 	4.535505294e-06
0.8910181784 	0.00238310123 	0.00111209914 	1.546934834e-08 	0.002397842386 	3.283251915e-08 	4.570954033e-06
0.8930653087 	0.002403414062 	0.001121236858 	1.588333171e-08 	0.002416839535 	3.371645432e-08 	4.60716788e-06
0.8950898473 	0.00242412061 	0.001130560107 	1.631297809e-08 	0.002436244293 	3.463276992e-08 	4.644158741e-06
0.8970920436 	0.002445229419 	0.001140072761 	1.676010471e-08 	0.00245606461 	3.558528255e-08 	4.681941775e-06
0.8990721441 	0.002466750976 	0.001149779584 	1.722664482e-08 	0.002476310333 	3.657804479e-08 	4.72053575e-06
0.9010303927 	0.002488697942 	0.001159686326 	1.771465306e-08 	0.002496993385 	3.761535673e-08 	4.759963394e-06
0.9029670306 	0.002511085395 	0.001169799827 	1.822631005e-08 	0.002518127953 	3.870177426e-08 	4.800251756e-06
0.9048822962 	0.002533931098 	0.001180128124 	1.876392622e-08 	0.002539730705 	3.984211501e-08 	4.841432606e-06
0.9067764254 	0.002557255788 	0.001190680573 	1.932994489e-08 	0.002561821017 	4.104146319e-08 	4.88354288e-06
0.9086496514 	0.002581083502 	0.001201467987 	1.992694477e-08 	0.00258442124 	4.230517473e-08 	4.926625187e-06
0.910502205 	0.002605441936 	0.001212502789 	2.055764185e-08 	0.002607557003 	4.363888374e-08 	4.970728381e-06
0.9123343142 	0.002630362838 	0.001223799177 	2.122489044e-08 	0.00263125755 	4.504851068e-08 	5.015908211e-06
0.9141462048 	0.00265588243 	0.001235373319 	2.193168263e-08 	0.002655556125 	4.654027193e-08 	5.062228049e-06
0.9159380997 	0.00268204187 	0.001247243551 	2.268114517e-08 	0.002680490399 	4.812068912e-08 	5.109759704e-06
0.9177102197 	0.002708887728 	0.0012594306 	2.347653219e-08 	0.00270610294 	4.97965955e-08 	5.158584326e-06
0.9194627831 	0.002736472482 	0.001271957819 	2.432121175e-08 	0.002732441736 	5.1575135e-08 	5.208793392e-06
0.9211960055 	0.002764855007 	0.001284851434 	2.521864359e-08 	0.002759560754 	5.346374746e-08 	5.260489778e-06
0.9229101006 	0.002794101057 	0.001298140787 	2.617234484e-08 	0.002787520533 	5.547013161e-08 	5.313788887e-06