0 	0.6673443229 	-2.726094663e-14 	5.199677329e-20
0.0003187685652 	0.6673329909 	-2.105128867e-05 	7.94161188e-10
0.0006375366988 	0.6673108039 	-3.925183732e-05 	1.42634812e-09
0.0009563044003 	0.6672893156 	-5.778462051e-05 	2.013350783e-09
0.001275071669 	0.6672676678 	-7.672457789e-05 	2.559439716e-09
0.001593838505 	0.6672449623 	-9.574409041e-05 	3.052122617e-09
0.001912604907 	0.6672206552 	-0.0001147765437 	3.488794096e-09
0.002231370875 	0.6671943991 	-0.000133821425 	3.869314828e-09
0.002550136408 	0.6671659528 	-0.000152876538 	4.193544336e-09
0.002868901507 	0.6671351355 	-0.0001719381127 	4.461313579e-09
0.003187666171 	0.6671018035 	-0.0001910038354 	4.67251363e-09
0.003506430399 	0.6670658356 	-0.000210072444 	4.827079268e-09
0.003825194192 	0.6670271253 	-0.0002291431204 	4.924968278e-09
0.004143957549 	0.6669855753 	-0.0002482152815 	4.96615371e-09
0.00446272047 	0.666941094 	-0.000267288507 	4.950620772e-09
0.004781482955 	0.6668935931 	-0.0002863624906 	4.878364837e-09
0.005100245004 	0.666842986 	-0.0003054370056 	4.749390105e-09
0.005419006617 	0.6667891864 	-0.0003245118826 	4.563708734e-09
0.005737767794 	0.6667321074 	-0.0003435869953 	4.321340268e-09
0.006056528535 	0.6666716612 	-0.0003626622507 	4.022311254e-09
0.006375288839 	0.666607758 	-0.0003817375824 	3.666654965e-09
0.006694048708 	0.666540306 	-0.0004008129457 	3.254411205e-09
0.007012808141 	0.6664692111 	-0.0004198883172 	2.78562616e-09
0.007331567139 	0.6663943765 	-0.0004389636968 	2.260352279e-09
0.007650325701 	0.6663157024 	-0.0004580390773 	1.678648223e-09
0.007969083828 	0.6662330862 	-0.0004771143577 	1.040578812e-09
0.008287841521 	0.6661464221 	-0.0004961895565 	3.462147657e-10
0.008437852995 	0.6661036806 	-0.0005051670755 	5.098489577e-10
0.008606598778 	0.6660555654 	-0.0005152662246 	4.097549423e-10
0.008925355602 	0.6659604109 	-0.0005343467701 	1.227220033e-09
0.009244111993 	0.6658609248 	-0.0005534254848 	2.101478867e-09
0.00956286795 	0.6657430893 	-0.0005751699966 	3.046588637e-09
0.0100581404 	0.6655953143 	-0.0006023388272 	4.592833299e-09
0.01056272042 	0.6654343326 	-0.0006325421074 	6.321518458e-09
0.01107678291 	0.6652743005 	-0.000663314034 	8.227636377e-09
0.01160050605 	0.6651150801 	-0.0006946586842 	1.031950149e-08
0.01213407137 	0.6649565092 	-0.0007265891334 	1.260568112e-08
0.01267766381 	0.6647984506 	-0.0007591174319 	1.509501913e-08
0.0132314718 	0.6646407917 	-0.0007922543192 	1.779664255e-08
0.01379568728 	0.6644834429 	-0.0008260106208 	2.071995918e-08
0.01437050582 	0.6643263362 	-0.0008603974579 	2.387465727e-08
0.01495612667 	0.6641694234 	-0.0008954261523 	2.727070573e-08
0.01555275281 	0.6640126757 	-0.000931108199 	3.091835179e-08
0.01616059102 	0.6638560825 	-0.0009674552717 	3.48281184e-08
0.016779852 	0.6636996501 	-0.001004479218 	3.901080307e-08
0.01741075039 	0.6635434007 	-0.001042192055 	4.347747119e-08
0.01805350486 	0.6633873738 	-0.001080605986 	4.823944601e-08
0.0187083382 	0.6632316258 	-0.00111973338 	5.33083025e-08
0.01937547738 	0.6630762315 	-0.001159586773 	5.869585671e-08
0.02005515364 	0.6629211701 	-0.001200210964 	6.441672893e-08
0.02074973487 	0.6627664004 	-0.001241674141 	7.05032745e-08
0.02145891096 	0.6626121712 	-0.001283981505 	7.697269337e-08
0.02218141421 	0.6624588755 	-0.001327092966 	8.38273878e-08
0.02291749506 	0.6623067671 	-0.001370999465 	9.108115114e-08
0.02366740864 	0.6621560299 	-0.001415714439 	9.875019125e-08
0.02443141485 	0.6620068688 	-0.001461251551 	1.068512615e-07
0.02520977851 	0.6618595099 	-0.001507624559 	1.154016751e-07
0.0260027694 	0.6617142016 	-0.001554847333 	1.244193172e-07
0.02681066235 	0.6615712154 	-0.00160293385 	1.339226584e-07
0.02763373738 	0.6614308472 	-0.001651898188 	1.439307664e-07
0.02847227976 	0.661293418 	-0.001701754512 	1.544633187e-07
0.02932658012 	0.6611592752 	-0.001752517059 	1.655406125e-07
0.03019693454 	0.661028794 	-0.00180420012 	1.771835753e-07
0.03108364468 	0.6609023785 	-0.001856818032 	1.894137725e-07
0.03198701785 	0.6607804631 	-0.001910385148 	2.022534146e-07
0.03290736715 	0.6606635142 	-0.001964915823 	2.157253614e-07
0.03384501154 	0.6605520316 	-0.002020424392 	2.298531244e-07
0.034800276 	0.6604465503 	-0.002076925136 	2.44660866e-07
0.03577349159 	0.6603476421 	-0.002134432264 	2.601733956e-07
0.0367649956 	0.6602559175 	-0.002192959873 	2.764161602e-07
0.03777513166 	0.6601720278 	-0.002252521923 	2.934152312e-07
0.03880424984 	0.6600966678 	-0.002313132194 	3.111972878e-07
0.0398527068 	0.6600305634 	-0.002374824568 	3.297938039e-07
0.0409222433 	0.6599744919 	-0.002437689665 	3.442177383e-07
0.04201573524 	0.6599294262 	-0.002501777894 	3.415409567e-07
0.04312977606 	0.6598964529 	-0.002567026288 	3.382495903e-07
0.04426475185 	0.6598765822 	-0.002633391936 	3.343032e-07
0.04542105599 	0.6598708215 	-0.002700886307 	3.296719588e-07
0.04659908922 	0.659880238 	-0.002769520338 	3.243251503e-07
0.04779925982 	0.659905962 	-0.002839304277 	3.182312205e-07
0.04902198374 	0.6599491898 	-0.002910247605 	3.113577979e-07
0.05026768475 	0.6600111863 	-0.002982358944 	3.036717266e-07
0.05153679457 	0.6600932883 	-0.00305564596 	2.951391139e-07
0.05282975304 	0.6601969072 	-0.003130115243 	2.857253902e-07
0.05414700825 	0.6603235323 	-0.003205772177 	2.753953818e-07
0.05548901673 	0.6604747338 	-0.003282620835 	2.641134047e-07
0.05685624356 	0.660652166 	-0.003360664038 	2.518433856e-07
0.05824916257 	0.6608575704 	-0.003439903101 	2.385489443e-07
0.0596682565 	0.6610928289 	-0.003520349372 	2.24194652e-07
0.0611150311 	0.661360244 	-0.003602084647 	2.087288316e-07
0.06259447225 	0.6616624471 	-0.003685173041 	1.920235228e-07
0.0641017149 	0.6620500195 	-0.003780379289 	1.746293597e-07
0.0664155543 	0.6626105979 	-0.003898436513 	1.450904906e-07
0.0687552027 	0.6633365721 	-0.004027540036 	1.137467765e-07
0.07112094796 	0.6641852684 	-0.004156944982 	8.014515429e-08
0.07351308118 	0.6651573363 	-0.004286583263 	4.430447731e-08
0.07593189667 	0.6662533521 	-0.004416366788 	6.246636573e-09
0.076319773 	0.6664468752 	-0.004436954038 	9.239948688e-08
0.07837769205 	0.6674736651 	-0.004546211799 	3.444815903e-08
0.08085076825 	0.6688205481 	-0.004676133449 	7.740741214e-08
0.08336052852 	0.6702968426 	-0.004806165263 	1.227254673e-07
0.0858992737 	0.6719027625 	-0.004936087438 	1.701531857e-07
0.0884663388 	0.6736378597 	-0.005065666343 	2.196127143e-07
0.09106203972 	0.6755029059 	-0.005194781654 	2.710465386e-07
0.0936866959 	0.6774988544 	-0.00532332117 	3.243923088e-07
0.09634063034 	0.6796266907 	-0.005451169543 	3.795824128e-07
0.09902416965 	0.6818877992 	-0.00557822822 	4.365459991e-07
0.1017393693 	0.6842855537 	-0.005704489949 	4.952595184e-07
0.1044931515 	0.6868230936 	-0.005829902223 	5.557836283e-07
0.1072776549 	0.6894995575 	-0.005954207619 	6.178022965e-07
0.1100932221 	0.6923142269 	-0.006077182926 	6.812053135e-07
0.1129401996 	0.6952681679 	-0.006198693685 	7.458871106e-07
0.115818938 	0.6983624506 	-0.006318601622 	8.117357866e-07
0.1187297916 	0.7015983912 	-0.006436774228 	7.846888071e-07
0.1216740008 	0.7049799334 	-0.006553161475 	7.366433207e-07
0.1246600133 	0.7085111119 	-0.006667691349 	6.864695026e-07
0.1276793401 	0.7121903313 	-0.006780100805 	6.345408139e-07
0.130732353 	0.7160161339 	-0.006890152722 	5.809418985e-07
0.1338194279 	0.719989527 	-0.006997688259 	5.257815716e-07
0.1369409448 	0.7241114993 	-0.007102546364 	4.692116774e-07
0.1400972879 	0.7283847824 	-0.007204640393 	4.113873329e-07
0.1432941265 	0.7328139682 	-0.00730393851 	3.519841668e-07
0.1465309181 	0.7373998176 	-0.007400025089 	2.915027781e-07
0.1498038247 	0.7421381386 	-0.007492627606 	2.306518129e-07
0.1531132491 	0.7470251958 	-0.007582064729 	1.691664041e-07
0.1564595988 	0.7520605829 	-0.007668100466 	1.069434166e-07
0.1598432858 	0.7572472627 	-0.007750295584 	4.423109941e-08
0.1622451615 	0.760993011 	-0.007805201452 	1.140472163e-06
0.1632691727 	0.7625902504 	-0.00782861636 	1.913683874e-08
0.166738053 	0.7680910965 	-0.007902895072 	8.328419985e-08
0.1702456402 	0.7737474204 	-0.007972855939 	1.473390002e-07
0.1737923664 	0.7795584021 	-0.00803827129 	2.111218483e-07
0.1773786681 	0.7855248963 	-0.008098938863 	2.744451825e-07
0.1810049869 	0.7916506012 	-0.00815467815 	3.371137053e-07
0.1846789635 	0.79794047 	-0.008205305514 	3.990606667e-07
0.1883955412 	0.8043926237 	-0.00825057402 	4.598832152e-07
0.1921535922 	0.8110038147 	-0.008290238029 	5.193223858e-07
0.1959535793 	0.8177735952 	-0.008324079137 	5.77152308e-07
0.1997959703 	0.8247038156 	-0.008351889131 	6.331404858e-07
0.2036854422 	0.831798395 	-0.008373459381 	6.871168481e-07
0.207622447 	0.8390571529 	-0.008388561219 	7.387614493e-07
0.211603387 	0.8464755916 	-0.00839696422 	7.877378093e-07
0.2156287526 	0.8540510042 	-0.008398455573 	8.338021838e-07
0.2196990393 	0.861783918 	-0.008392829502 	7.984338578e-07
0.2238186833 	0.8696767548 	-0.008379876652 	7.291381331e-07
0.2279881991 	0.8777276711 	-0.008359394421 	6.610159979e-07
0.232204247 	0.885930337 	-0.008331206266 	5.943980637e-07
0.236467346 	0.8942800169 	-0.008295153964 	5.295173163e-07
0.2407780212 	0.9027757856 	-0.008251078164 	4.665996771e-07
0.2451424756 	0.9114175914 	-0.008198823865 	4.057995957e-07
0.2495572744 	0.9201982776 	-0.008138294962 	3.474814276e-07
0.2540213442 	0.9291085897 	-0.008069443877 	2.918923564e-07
0.2585352349 	0.9381421172 	-0.007992237952 	2.39227887e-07
0.2631015014 	0.9472947469 	-0.007906654939 	1.896375152e-07
0.2677235003 	0.9565595902 	-0.00781272958 	1.432979756e-07
0.2723970843 	0.9659231114 	-0.007710608466 	1.00409209e-07
0.2771228288 	0.9753722384 	-0.00760049174 	6.103773918e-08
0.2819015435 	0.9848976005 	-0.007482591181 	2.519397969e-08
0.2856242117 	0.9922776171 	-0.007386098905 	2.519303235e-06
0.2867395923 	0.9944890702 	-0.007357183529 	7.348086875e-09
0.2916316387 	1.004127877 	-0.007224724504 	3.700128007e-08
0.2965782851 	1.013794826 	-0.00708572792 	6.341225058e-08
0.3015801405 	1.023474628 	-0.00694073492 	8.686438959e-08
0.3066433776 	1.033151592 	-0.006790354549 	1.077230047e-07
0.3117632607 	1.042802314 	-0.006635377814 	1.263563075e-07
0.3169402875 	1.052403607 	-0.006476656468 	1.432718069e-07
0.322175596 	1.061936152 	-0.006315029766 	1.590200059e-07
0.3274740002 	1.071380493 	-0.006151372765 	1.74153401e-07
0.3328315415 	1.080712144 	-0.005986665069 	1.891861725e-07
0.3382488795 	1.089909106 	-0.005821842807 	2.046291326e-07
0.3437284601 	1.098953651 	-0.005657742237 	2.209066485e-07
0.3492720762 	1.107827986 	-0.005495149773 	2.382870889e-07
0.3548775666 	1.116513492 	-0.005334793183 	2.569155291e-07
0.3605456212 	1.124995972 	-0.005177227602 	2.768067826e-07
0.3662803549 	1.133264884 	-0.005022834307 	2.97823835e-07
0.3720798471 	1.141308349 	-0.004871901792 	3.196688007e-07
0.3779440693 	1.149116463 	-0.004724563869 	3.419967428e-07
0.3838752086 	1.156682425 	-0.00458078661 	3.563572484e-07
0.3898747874 	1.163999123 	-0.004440426142 	3.431399751e-07
0.3959413294 	1.171057868 	-0.004303305946 	3.29392192e-07
0.4020759105 	1.177850964 	-0.004169386701 	3.141946241e-07
0.4082819033 	1.184370125 	-0.0040379576 	2.9782736e-07
0.4145571631 	1.190600337 	-0.003908570053 	2.816862455e-07
0.4209024622 	1.196522685 	-0.003782007015 	2.652158816e-07
0.4273212302 	1.202120646 	-0.003657848098 	2.481550366e-07
0.4338118585 	1.207378151 	-0.003535373796 	2.309771047e-07
0.4403749295 	1.212278765 	-0.003414690331 	2.138548866e-07
0.4470133871 	1.216806361 	-0.003295660173 	1.969402413e-07
0.4537262956 	1.220944356 	-0.003178198051 	1.804005385e-07
0.460514127 	1.224678149 	-0.003062259212 	1.643332255e-07
0.4673796373 	1.227996178 	-0.002947810623 	1.488333443e-07
0.4743220061 	1.2308897 	-0.002834845355 	1.339961393e-07
0.4813419013 	1.233354251 	-0.002723345205 	1.198456637e-07
0.4884419439 	1.235389886 	-0.002613269756 	1.064203836e-07
0.4956212291 	1.236997738 	-0.002504824146 	9.375444284e-08
0.5028008937 	1.238181174 	-0.002398833376 	8.194963947e-08
0.5099024955 	1.238960443 	-0.002296005275 	7.110805109e-08
0.5169257377 	1.239370495 	-0.002196317599 	6.116952109e-08
0.5238719808 	1.239447325 	-0.002099502508 	5.205445999e-08
0.5307422839 	1.23922405 	-0.002005300785 	4.372428106e-08
0.5375367778 	1.238730634 	-0.001913469308 	3.61128629e-08
0.5442567658 	1.237993776 	-0.001823781308 	2.915437337e-08
0.5509030776 	1.237036999 	-0.001736030068 	2.281821198e-08
0.5574760505 	1.235880874 	-0.001650030523 	1.704926141e-08
0.5639768449 	1.234543199 	-0.001565618364 	1.179607597e-08
0.5704062841 	1.233039325 	-0.001482650637 	7.037323165e-09
0.5767647764 	1.231382493 	-0.001401005872 	2.73169397e-09
0.5811455924 	1.230129603 	-0.001344980443 	1.255052184e-06
0.5830533074 	1.229584012 	-0.001320583775 	1.221411358e-09
0.5892728019 	1.227653577 	-0.001241302588 	4.89941114e-09
0.5954236652 	1.225599578 	-0.001163094862 	8.190509445e-09
0.6015067106 	1.223429216 	-0.00108591246 	1.112805083e-08
0.6075229967 	1.221148711 	-0.001009721055 	1.372576731e-08
0.6134728931 	1.218763599 	-0.000934501344 	1.600257308e-08
0.6193571321 	1.21627876 	-0.0008602440406 	1.798627565e-08
0.6251766857 	1.21369852 	-0.0007869479964 	1.969619724e-08
0.630932088 	1.211026974 	-0.0007146214975 	2.11430533e-08
0.6366239785 	1.208268195 	-0.0006432782457 	2.235166576e-08
0.6422531291 	1.205426236 	-0.0005729357077 	2.334555111e-08
0.6478203216 	1.202505012 	-0.0005036140343 	2.413584136e-08
0.6533260787 	1.199508261 	-0.0004353324411 	2.474205031e-08
0.6587710783 	1.196439461 	-0.0003681062423 	2.518708639e-08
0.6641561061 	1.193301812 	-0.0003019469823 	2.548943012e-08
0.6694817605 	1.190098307 	-0.0002368623745 	2.566047508e-08
0.6747486444 	1.186831696 	-0.0001728531742 	2.572031928e-08
0.6799574061 	1.183504442 	-0.0001099018902 	2.568925457e-08
0.6851087964 	1.180118729 	-4.800163792e-05 	2.55722252e-08
0.6902033484 	1.176676433 	1.278646676e-05 	2.538279376e-08
0.6952416799 	1.173174768 	7.258370754e-05 	2.514513752e-08
0.7002244109 	1.169593061 	0.0001316271031 	2.486010189e-08
0.7051522365 	1.165894129 	0.0001900947854 	2.45417172e-08
0.7100256822 	1.162048104 	0.0002482990461 	2.419573869e-08
0.714845347 	1.15804194 	0.0003064966426 	2.380639037e-08
0.7196118242 	1.153872825 	0.0003648017836 	2.336467016e-08
0.7243257496 	1.149543811 	0.0004232966324 	2.28610474e-08
0.7289876612 	1.145061199 	0.00048199712 	2.2290799e-08
0.733598126 	1.140433166 	0.0005408503235 	2.165875846e-08
0.7381577117 	1.135669148 	0.0005997509243 	2.097331695e-08
0.7426670004 	1.130779516 	0.000658561402 	2.024311052e-08
0.7471265425 	1.125775193 	0.0007171329315 	1.947396356e-08
0.7515368708 	1.120667019 	0.0007753234557 	1.867317558e-08
0.7558985284 	1.11546499 	0.0008330086655 	1.784701592e-08
0.7602120532 	1.110177825 	0.0008900876201 	1.700050238e-08
0.7644779982 	1.104812995 	0.0009464839807 	1.613621133e-08
0.7686968657 	1.099376884 	0.001002142496 	1.525605247e-08
0.7728691753 	1.09387485 	0.001057023576 	1.436215691e-08
0.7769954407 	1.088311277 	0.001111098705 	1.345582834e-08
0.781076174 	1.082689656 	0.001164346074 	1.25377267e-08
0.7851118841 	1.077012699 	0.001216747328 	1.160720094e-08
0.7891030575 	1.071282482 	0.001268285231 	1.066420315e-08
0.7930501855 	1.065500577 	0.001318941906 	9.708868755e-09
0.7969537543 	1.059668188 	0.001368698321 	8.74101534e-09
0.8008142465 	1.053786266 	0.001417533888 	7.760054494e-09
0.804632142 	1.047855599 	0.001465426649 	6.76450943e-09
0.8084079044 	1.04187688 	0.001512353445 	5.752854025e-09
0.8121419985 	1.035850738 	0.001558289683 	4.723272712e-09
0.8158348843 	1.029777746 	0.001603209361 	3.673415963e-09
0.8194870164 	1.023658437 	0.001647084776 	2.600433876e-09
0.823098849 	1.017493297 	0.001689886094 	1.500980621e-09
0.8266708229 	1.011282772 	0.001731581058 	3.71441626e-10
0.8302033774 	1.005027268 	0.001772134363 	-7.919403142e-10
0.8336969477 	0.9987271543 	0.001811507099 	-1.993104812e-09
0.8371519639 	0.9923827694 	0.001849656484 	-3.236057229e-09
0.8405688521 	0.9859944379 	0.001886535392 	-4.524707799e-09
0.8439480343 	0.9795624845 	0.00192209226 	-5.862547142e-09
0.8472899247 	0.9730872535 	0.001956271008 	-7.252810418e-09
0.8505949349 	0.966569127 	0.001989010705 	-8.698609681e-09
0.853863472 	0.9600085493 	0.002020245404 	-1.020304832e-08
0.8570959383 	0.9534060583 	0.002049903771 	-1.176943004e-08
0.8602927321 	0.9467623232 	0.002077908323 	-1.340137207e-08
0.863454248 	0.9400781903 	0.002104174737 	-1.510232071e-08
0.8665808742 	0.9333547304 	0.00212861118 	-1.687567123e-08
0.8696729957 	0.9265932751 	0.002151117872 	-1.872406904e-08
0.8727309934 	0.9197954288 	0.002171587734 	-2.064810831e-08
0.8757552438 	0.9129630379 	0.002189908452 	-2.264495305e-08
0.8787461193 	0.906098099 	0.002205966211 	-2.470692029e-08
0.8817039887 	0.8992025965 	0.002219651204 	-2.682012846e-08
0.8846292159 	0.8922782834 	0.002230864525 	-2.896396078e-08
0.887522161 	0.8853264421 	0.002239524833 	-3.11132812e-08
0.8903831803 	0.8783477068 	0.002245572775 	-3.324164099e-08
0.8932126262 	0.8713420691 	0.002248970528 	-3.532799045e-08
0.8960108469 	0.8643092267 	0.002249693086 	-3.736620278e-08
0.8987781872 	0.8572494484 	0.002247708733 	-3.937534545e-08
0.901514988 	0.8501651055 	0.002242947798 	-4.140609127e-08
0.9042215861 	0.8430629199 	0.002235262058 	-4.353755605e-08
0.9068983149 	0.8359567665 	0.002224381408 	-4.586023867e-08
0.909545504 	0.8288705155 	0.002209880384 	-4.844142185e-08
0.9121634793 	0.8218399179 	0.002191173661 	-5.128238032e-08
0.9147525634 	0.814912052 	0.002167563248 	-5.428309006e-08
0.9173130749 	0.8081406644 	0.002138342203 	-5.724117214e-08
0.9198453292 	0.8015762167 	0.002102909192 	-5.991157129e-08
0.9223496383 	0.7952507439 	0.002060942934 	-6.205583254e-08
0.9248263104 	0.7891592356 	0.002013245147 	-6.319597247e-08
0.9272756506 	0.7832391501 	0.001961169823 	-6.375365817e-08
0.9296979604 	0.7773997344 	0.001905416768 	-6.431359318e-08
0.9320935383 	0.7720731604 	0.001852199911 	-6.430638259e-08
0.9336540211 	0.7677708766 	0.001808349163 	-6.39426315e-08
0.9351857158 	0.7639875024 	0.001769210905 	-6.364360087e-08
0.9366891533 	0.7602355949 	0.001729877538 	-6.323587088e-08
0.938164855 	0.756512276 	0.001690386766 	-6.271814333e-08
0.9396133326 	0.7528147129 	0.001650808446 	-6.211176107e-08
0.9410350883 	0.7491400874 	0.001611198626 	-6.142834447e-08
0.942430615 	0.7454855973 	0.001571604179 	-6.0676369e-08
0.9438003967 	0.7418484518 	0.001532069185 	-5.986427513e-08
0.9451449083 	0.7382258684 	0.001492635448 	-5.900006573e-08
0.9464646159 	0.7346150692 	0.001453342161 	-5.809096794e-08
0.9477599773 	0.7310132764 	0.001414225955 	-5.714342472e-08
0.9490314414 	0.7274177084 	0.001375321048 	-5.616314242e-08
0.9502794492 	0.7238255742 	0.001336659384 	-5.515513079e-08
0.9515044335 	0.7202340689 	0.001298270747 	-5.412374902e-08
0.9527068189 	0.7166403673 	0.001260182878 	-5.307276145e-08
0.9538870224 	0.7130416182 	0.001222421589 	-5.200539883e-08
0.9550454531 	0.7094349379 	0.001185010866 	-5.092442115e-08
0.9561825128 	0.705817403 	0.001147972971 	-4.983217954e-08
0.9572985957 	0.7021860431 	0.001111328547 	-4.873067558e-08
0.9583940889 	0.6985378328 	0.001075096705 	-4.762161673e-08
0.959469372 	0.6948696836 	0.001039295116 	-4.650646498e-08
0.9605248181 	0.6911784344 	0.001003940102 	-4.53864431e-08
0.961560793 	0.6874608422 	0.0009690467123 	-4.426264608e-08
0.9625776559 	0.6837135718 	0.0009346288079 	-4.31360659e-08
0.9635757595 	0.6799331848 	0.0009006991311 	-4.200760189e-08
0.9645554498 	0.6761161276 	0.0008672693811 	-4.087808594e-08
0.9655170665 	0.6722587193 	0.0008343502809 	-3.974830339e-08
0.966460943 	0.6683571377 	0.0008019516438 	-3.861900921e-08
0.9673874067 	0.664407405 	0.000770082446 	-3.749093753e-08
0.9682967787 	0.6604053719 	0.000738750891 	-3.636481273e-08
0.9691893743 	0.6563467013 	0.0007079643501 	-3.524139941e-08
0.9700655031 	0.6522268496 	0.0006777291896 	-3.412154907e-08
0.9709254688 	0.6480410474 	0.000648051923 	-3.30057492e-08
0.9717695697 	0.6437842777 	0.0006189435844 	-3.189302718e-08
0.9725980983 	0.6394512582 	0.0005904129031 	-3.078472151e-08
0.9734113421 	0.6350364111 	0.0005623995165 	-2.970397702e-08
0.9742095829 	0.6305336873 	0.000534963815 	-2.861072353e-08
0.9749930975 	0.6259294178 	0.0005082265694 	-2.749248642e-08
0.9757621576 	0.6211971543 	0.0004820778857 	-2.642571528e-08
0.9765170299 	0.6163087895 	0.0004565315851 	-2.536422076e-08
0.9772579761 	0.6112428142 	0.000431727087 	-2.426982597e-08
0.9779852532 	0.6059820241 	0.0004076775102 	-2.318002248e-08
0.9786991132 	0.6005115022 	0.0003843821413 	-2.209547195e-08
0.9793998037 	0.5948174144 	0.0003618484458 	-2.101704848e-08
0.9800875677 	0.5888862772 	0.0003400834192 	-1.994836676e-08
0.9807626437 	0.5827045013 	0.0003190912066 	-1.889303379e-08
0.9814252657 	0.5762580989 	0.000298873917 	-1.785400347e-08
0.9820756634 	0.56953249 	0.0002794320692 	-1.683374803e-08
0.9827140624 	0.5625123717 	0.0002607646232 	-1.58344e-08
0.9833406841 	0.5551816242 	0.0002428689856 	-1.485783794e-08
0.9839557457 	0.5475232447 	0.0002257410612 	-1.390576421e-08
0.9845594604 	0.5395192981 	0.0002093753273 	-1.297977333e-08
0.9851520377 	0.5311508866 	0.000193764922 	-1.208140371e-08
0.9857336829 	0.5223981376 	0.0001789017507 	-1.121217292e-08
0.9863045978 	0.5132402096 	0.0001647764843 	-1.03735984e-08
0.9868649803 	0.5036553071 	0.0001513781542 	-9.56720931e-09
0.9874150247 	0.4936206444 	0.0001386943626 	-8.794578411e-09
0.9879549217 	0.4831121093 	0.000126717118 	-8.057406295e-09
0.9884848586 	0.4721026202 	0.000115447105 	-7.357326729e-09
0.9890050191 	0.4615631559 	0.0001057239091 	-6.749328815e-09
0.9893397925 	0.4526310126 	9.821084197e-05 	-6.27943763e-09
0.9896745659 	0.4443731475 	9.182029887e-05 	-5.880074728e-09
0.9900093393 	0.4356990536 	8.564078384e-05 	-5.492051359e-09
0.9903441127 	0.4265869853 	7.966778989e-05 	-5.115480617e-09
0.9906788861 	0.4170158259 	7.390059355e-05 	-4.750795329e-09
0.9910136596 	0.4069636965 	6.834156525e-05 	-4.398326956e-09
0.991348433 	0.396407756 	6.29929355e-05 	-4.058405472e-09
0.9916832064 	0.3853243739 	5.785655411e-05 	-3.731438417e-09
0.9920179798 	0.3736894765 	5.293661533e-05 	-3.418063626e-09
0.9923527532 	0.3614790315 	4.824274238e-05 	-3.118612821e-09
0.9926875266 	0.3486696749 	4.376391503e-05 	-2.829915751e-09
0.9930223001 	0.3352394077 	3.937795798e-05 	-2.544992328e-09
0.9933570735 	0.3211675123 	3.506892854e-05 	-2.305373323e-09
0.9936918469 	0.3064238972 	3.146886136e-05 	-2.088956666e-09
0.9940266203 	0.2909426635 	2.84606715e-05 	-1.828095623e-09
0.9943613937 	0.2746480161 	2.505135043e-05 	-1.594538392e-09
0.9946961672 	0.2575260859 	2.158394288e-05 	-1.405238294e-09
0.9950309406 	0.2396270153 	1.851864505e-05 	-1.213732351e-09
0.995365714 	0.2210360484 	1.559745154e-05 	-1.032181556e-09
0.9957004874 	0.2018671683 	1.282168321e-05 	-8.646020443e-10
0.9960352608 	0.1822499626 	1.028696143e-05 	-7.110816618e-10
0.9963700342 	0.162313017 	8.068383498e-06 	-5.712547718e-10
0.9967048077 	0.1421690961 	6.177973608e-06 	-4.450553493e-10
0.9970395811 	0.1219062591 	4.578462851e-06 	-3.328609403e-10
0.9973743545 	0.1015860025 	3.225294416e-06 	-2.354201007e-10
0.9977091279 	0.08124676771 	2.096566149e-06 	-1.535994029e-10
0.9980439013 	0.06091005975 	1.195858665e-06 	-8.828769229e-11
0.9983786747 	0.04058677471 	5.416943525e-07 	-4.060724435e-11
0.9987134482 	0.02028228707 	1.483650829e-07 	-1.146084777e-11
0.9990482216 	0.008552113074 	1.485380585e-08 	-1.334233853e-12
0.9990482216 	0.008552113074 	1.485380585e-08 	-1.334233853e-12
