1.719619184e-36 	0.7219816565 	-2.949522205e-14 	4.278668247e-20
0.0003200309159 	0.7219707335 	-1.7605469e-05 	7.208294305e-10
0.0006400614409 	0.7219491288 	-3.281228196e-05 	1.307862372e-09
0.0009600915746 	0.7219278797 	-4.830880451e-05 	1.86729709e-09
0.001280121317 	0.7219063005 	-6.414445722e-05 	2.402767749e-09
0.001600150666 	0.7218835394 	-8.004594595e-05 	2.902929835e-09
0.001920179623 	0.7218590749 	-9.595837434e-05 	3.365380878e-09
0.002240208187 	0.7218325743 	-0.0001118814762 	3.789980263e-09
0.002560236358 	0.7218038068 	-0.0001278134009 	4.176586229e-09
0.002880264135 	0.7217726011 	-0.0001437510086 	4.525034113e-09
0.003200291518 	0.7217388216 	-0.0001596923948 	4.835222903e-09
0.003520318506 	0.7217023553 	-0.0001756365346 	5.107101244e-09
0.003840345101 	0.7216631036 	-0.0001915827727 	5.340648447e-09
0.0041603713 	0.7216209773 	-0.0002075306507 	5.535867708e-09
0.004480397105 	0.7215758932 	-0.000223479847 	5.692783699e-09
0.004800422516 	0.7215277714 	-0.000239430136 	5.811441177e-09
0.005120447531 	0.7214765344 	-0.0002553813592 	5.891904169e-09
0.005440472151 	0.7214221051 	-0.0002713334064 	5.934255621e-09
0.005760496377 	0.7213644065 	-0.0002872862045 	5.938597349e-09
0.006080520207 	0.7213033606 	-0.0003032397085 	5.905050176e-09
0.006400543643 	0.7212388884 	-0.0003191938966 	5.833754207e-09
0.006720566684 	0.7211709089 	-0.0003351487655 	5.724869203e-09
0.007040589331 	0.7210993394 	-0.0003511043313 	5.578575023e-09
0.007360611583 	0.7210240948 	-0.0003670606313 	5.395072128e-09
0.007680633441 	0.7209450877 	-0.000383017694 	5.17458212e-09
0.008000654905 	0.7208622279 	-0.0003989754504 	4.917348367e-09
0.008320675975 	0.7207754228 	-0.0004149339491 	4.623636709e-09
0.008640696652 	0.7206845769 	-0.0004308946729 	4.293736252e-09
0.008960716935 	0.7205895947 	-0.0004468601078 	3.927960112e-09
0.009280736826 	0.7204904209 	-0.0004628246038 	3.526643979e-09
0.009600756325 	0.7203730643 	-0.0004810190213 	3.103873872e-09
0.01009799211 	0.7202258298 	-0.0005037541197 	2.343893411e-09
0.01060457247 	0.7200651574 	-0.0005290329182 	1.497750814e-09
0.01112067299 	0.7199051005 	-0.000554790457 	5.496359851e-10
0.01140056368 	0.7198201508 	-0.0005687573958 	3.374116719e-10
0.01164647258 	0.7197454794 	-0.0005810294526 	5.203124774e-10
0.01218215349 	0.7195861214 	-0.0006077617541 	1.72875187e-09
0.0127279014 	0.7194269236 	-0.0006349975369 	3.065728136e-09
0.01328390549 	0.7192677654 	-0.0006627459836 	4.53718449e-09
0.01385035847 	0.7191085467 	-0.0006910163511 	6.149193079e-09
0.0144274567 	0.7189491871 	-0.0007198181881 	7.907934967e-09
0.01501540022 	0.7187896238 	-0.0007491612397 	9.819675083e-09
0.0156143928 	0.7186298099 	-0.000779055413 	1.189073093e-08
0.01622464209 	0.7184697136 	-0.0008095107797 	1.412743339e-08
0.01684635961 	0.7183093181 	-0.000840537577 	1.653611112e-08
0.01747976086 	0.7181486218 	-0.0008721461953 	1.912312875e-08
0.01812506539 	0.7179876382 	-0.0009043471621 	2.18949809e-08
0.01878249687 	0.7178263952 	-0.0009371511132 	2.485840992e-08
0.01945228319 	0.7176649363 	-0.0009705688015 	2.802047242e-08
0.02013465651 	0.7175032121 	-0.001004635379 	3.138970967e-08
0.02083178422 	0.7173411467 	-0.001039403726 	3.498635859e-08
0.02154340914 	0.7171789313 	-0.00107487917 	3.882118774e-08
0.02226840742 	0.717016897 	-0.001111032767 	4.2895873e-08
0.02300703036 	0.7168552454 	-0.001147859014 	4.721942632e-08
0.02375953399 	0.7166941111 	-0.001185369481 	5.180212241e-08
0.02452617913 	0.7165336459 	-0.001223575952 	5.665461878e-08
0.0253072315 	0.7163740191 	-0.001262490303 	6.178795868e-08
0.02610296183 	0.7162154187 	-0.001302124516 	6.721357578e-08
0.02691364592 	0.716058052 	-0.00134249068 	7.294329969e-08
0.02773956477 	0.7159021461 	-0.001383600982 	7.898936128e-08
0.02858100463 	0.7157479494 	-0.001425467697 	8.536439811e-08
0.02943825716 	0.7155957319 	-0.001468103175 	9.20814598e-08
0.03031161947 	0.7154457867 	-0.001511519829 	9.91540135e-08
0.03120139428 	0.7152984311 	-0.001555730123 	1.065959494e-07
0.03210788998 	0.7151540074 	-0.001600746554 	1.144215864e-07
0.03303142075 	0.7150128845 	-0.00164658164 	1.226456778e-07
0.03397230668 	0.7148754589 	-0.001693247899 	1.31283417e-07
0.03493087388 	0.7147421564 	-0.001740757835 	1.403504442e-07
0.03590745458 	0.7146134333 	-0.001789123911 	1.498628514e-07
0.03690238724 	0.7144897778 	-0.001838358536 	1.598371896e-07
0.0379160167 	0.714371712 	-0.001888474036 	1.702904752e-07
0.03894869426 	0.7142597937 	-0.001939482635 	1.812401988e-07
0.04000077783 	0.7141545932 	-0.001991411849 	1.927066931e-07
0.04107387931 	0.7140566835 	-0.002044332328 	2.047272052e-07
0.04217063918 	0.7139668224 	-0.002098284335 	2.173427627e-07
0.04328800965 	0.7138859385 	-0.002153222033 	2.305389721e-07
0.044426378 	0.7138148856 	-0.002209114758 	2.443290821e-07
0.0455861388 	0.7137544768 	-0.002265973257 	2.587334217e-07
0.04676769399 	0.713705574 	-0.002323808001 	2.737728064e-07
0.04797145311 	0.7136690904 	-0.002382629034 	2.845543379e-07
0.04919783336 	0.7136459922 	-0.002442445926 	2.820054526e-07
0.05044725979 	0.7136373012 	-0.002503267738 	2.789688805e-07
0.05172016545 	0.7136440971 	-0.00256510296 	2.754231559e-07
0.0530169915 	0.7136675194 	-0.002627959449 	2.713462205e-07
0.0543381874 	0.7137087701 	-0.002691844347 	2.667154111e-07
0.05568421106 	0.7137691159 	-0.002756764032 	2.615074529e-07
0.05705552898 	0.7138498907 	-0.002822724182 	2.556984678e-07
0.05845261643 	0.7139524982 	-0.002889729675 	2.492639084e-07
0.05987595761 	0.7140784411 	-0.002957793564 	2.421796159e-07
0.06132696399 	0.7142294861 	-0.003026982831 	2.344119327e-07
0.06281019925 	0.7144077084 	-0.003097350159 	2.258733298e-07
0.06432130776 	0.7146458721 	-0.003178030269 	2.172037764e-07
0.0666410827 	0.7150093338 	-0.003278182381 	2.012904031e-07
0.06898673389 	0.7155039495 	-0.003387838217 	1.844513733e-07
0.07135854997 	0.7161038083 	-0.003497896956 	1.660900908e-07
0.0737568228 	0.7168093183 	-0.00360830605 	1.461917677e-07
0.07618184749 	0.7176208318 	-0.003719000563 	1.247411029e-07
0.07863392243 	0.7185387885 	-0.003829910581 	1.017269315e-07
0.08111334936 	0.7195646118 	-0.003941056222 	7.714815503e-08
0.0836286727 	0.7207003427 	-0.00405246781 	5.087051607e-08
0.08617295058 	0.7219462795 	-0.004163977797 	2.305742551e-08
0.08820882703 	0.7230192618 	-0.004252154683 	1.200477427e-07
0.08874561102 	0.7233021867 	-0.004275406746 	6.2162154e-09
0.09134697064 	0.7247686011 	-0.004386664089 	3.692984859e-08
0.0939773496 	0.7263465369 	-0.00449766681 	6.91036065e-08
0.09663707163 	0.7280368689 	-0.004608328692 	1.027091361e-07
0.09932646406 	0.7298407845 	-0.004718576407 	1.377046762e-07
0.1020474201 	0.7317609468 	-0.004828407599 	1.74071635e-07
0.1048062404 	0.7337999084 	-0.004937783738 	2.118531636e-07
0.1075958387 	0.7359573323 	-0.005046503611 	2.508453441e-07
0.1104165586 	0.7382329682 	-0.005154391806 	2.909881258e-07
0.113268747 	0.740627872 	-0.005261342433 	3.322229178e-07
0.1161527553 	0.7431431192 	-0.005367246059 	3.744877884e-07
0.1190689383 	0.7457799824 	-0.005471997484 	4.177173608e-07
0.1220184539 	0.7485416967 	-0.005575557719 	4.618637158e-07
0.1250089864 	0.7514316146 	-0.005677870327 	5.069678245e-07
0.1280328844 	0.7544489336 	-0.005778723733 	5.527782981e-07
0.1310905201 	0.7575929322 	-0.005877926035 	5.991959002e-07
0.1341822699 	0.7608647156 	-0.005975349754 	6.461241409e-07
0.1373085144 	0.7642653859 	-0.00607086354 	6.215365302e-07
0.1404696386 	0.7677973613 	-0.006164366956 	5.858211186e-07
0.1436708133 	0.7714644759 	-0.006255781688 	5.488217145e-07
0.1469115851 	0.7752678757 	-0.006344947254 	5.106646884e-07
0.1501885166 	0.7792062331 	-0.006431663104 	4.715895428e-07
0.1535020113 	0.783279498 	-0.006515809514 	4.317850157e-07
0.1568524772 	0.7874886585 	-0.006597173482 	3.907566642e-07
0.1602403266 	0.7918351988 	-0.006675467944 	3.488923463e-07
0.1636700028 	0.7963208487 	-0.006750783854 	3.07031909e-07
0.1671422645 	0.8009447396 	-0.006823254827 	2.64506359e-07
0.1706532711 	0.8057045225 	-0.006892530544 	2.213492823e-07
0.1742034549 	0.8106000951 	-0.006958293127 	1.780971884e-07
0.1777932531 	0.8156326015 	-0.007020440702 	1.347810866e-07
0.1814231076 	0.8208053575 	-0.007078837599 	9.149685902e-08
0.1850999798 	0.8261226713 	-0.007133328269 	4.827473105e-08
0.188819334 	0.8315836349 	-0.007183699663 	5.390226014e-09
0.1892955931 	0.832293028 	-0.007189530437 	5.419388868e-07
0.1925801925 	0.8371862239 	-0.007229745785 	3.727594329e-08
0.1963830182 	0.8429306745 	-0.007271273178 	7.930339826e-08
0.2002282796 	0.8488189526 	-0.007308105631 	1.205023471e-07
0.2041202567 	0.8548546454 	-0.007340071696 	1.607707241e-07
0.2080594045 	0.8610382272 	-0.007366977188 	1.998888721e-07
0.2120425111 	0.8673668671 	-0.007388617746 	2.376159656e-07
0.2160700672 	0.8738391379 	-0.007404803729 	2.737839357e-07
0.2201425686 	0.8804561584 	-0.007415354689 	3.082314974e-07
0.2242640801 	0.8872205917 	-0.007420088974 	3.408343238e-07
0.2284351157 	0.8941318802 	-0.00741881984 	3.713762858e-07
0.2326526998 	0.9011860546 	-0.007411368987 	3.996419479e-07
0.2369173517 	0.9083804655 	-0.007397570586 	4.254711395e-07
0.2412295967 	0.9157155479 	-0.007377259406 	4.487022614e-07
0.2455951021 	0.9231925773 	-0.007350268287 	4.692076873e-07
0.2500108086 	0.9308074231 	-0.007316454412 	4.867646101e-07
0.2544757956 	0.938554449 	-0.007275699409 	5.012355342e-07
0.2589906129 	0.9464304165 	-0.007227891031 	4.927577295e-07
0.263557627 	0.9544341071 	-0.007172916916 	4.456610085e-07
0.2681799304 	0.9625623406 	-0.007110689599 	4.002719137e-07
0.2728538215 	0.9708068621 	-0.007041181389 	3.568263145e-07
0.2775798758 	0.9791599539 	-0.006964391207 	3.154837183e-07
0.2823588813 	0.9876170492 	-0.006880316294 	2.76383252e-07
0.2871966566 	0.9961731729 	-0.00678898167 	2.396393909e-07
0.2920884254 	1.00481648 	-0.006690517242 	2.054470909e-07
0.2970347901 	1.013534848 	-0.006585100952 	1.739043885e-07
0.3020363598 	1.022319211 	-0.006472916841 	1.450762708e-07
0.307098782 	1.031160012 	-0.006354194522 	1.189905534e-07
0.3122178274 	1.040040928 	-0.006229299969 	9.5704976e-08
0.3173940061 	1.048945124 	-0.006098662465 	7.518020395e-08
0.3226284087 	1.057858141 	-0.005962729097 	5.732407029e-08
0.3279254551 	1.066764365 	-0.005822011258 	4.200504124e-08
0.3332816223 	1.075642508 	-0.005677158169 	2.906608245e-08
0.3386975697 	1.084471672 	-0.005528861853 	1.826985945e-08
0.3441755749 	1.093232744 	-0.005377824696 	9.333044407e-09
0.3497173251 	1.101904524 	-0.005224812609 	1.954023207e-09
0.3514027616 	1.104478669 	-0.005178448873 	3.125656349e-06
0.3553209274 	1.110462995 	-0.00507065934 	4.233017296e-09
0.3609870718 	1.118886078 	-0.00491616643 	9.589614351e-09
0.3667195497 	1.127153412 	-0.004762087517 	1.444552202e-08
0.3725166888 	1.135242322 	-0.004609181474 	1.909333639e-08
0.3783785302 	1.143131395 	-0.004458127299 	2.378992204e-08
0.3843071225 	1.150802195 	-0.004309476416 	2.872266631e-08
0.3903039129 	1.15823681 	-0.004163681183 	3.398393399e-08
0.396367634 	1.165417246 	-0.004021086333 	3.958950602e-08
0.4024993303 	1.172328157 	-0.003881880357 	4.550501987e-08
0.4087021267 	1.178955721 	-0.003746292728 	5.177298385e-08
0.4149741531 	1.185284946 	-0.003614218752 	5.787892102e-08
0.4213161813 	1.191300258 	-0.003485109373 	6.369097737e-08
0.4277313904 	1.196982749 	-0.003359252988 	6.989279698e-08
0.4342183981 	1.20231126 	-0.00323709013 	7.560208971e-08
0.4407778066 	1.207269091 	-0.003118006364 	8.042444971e-08
0.4474123577 	1.211842733 	-0.003001555929 	8.487025445e-08
0.4541212809 	1.216018328 	-0.002887696249 	8.86573304e-08
0.4609050812 	1.219783633 	-0.002776211334 	9.176856183e-08
0.4677663327 	1.223128822 	-0.002666896647 	9.423533706e-08
0.4747043718 	1.226046214 	-0.002559592114 	9.609119194e-08
0.4817198836 	1.228531653 	-0.002454143721 	9.739765056e-08
0.4888153226 	1.230584783 	-0.002350395813 	9.821111977e-08
0.4959899515 	1.232205726 	-0.002248441702 	9.859568322e-08
0.5031649243 	1.233396567 	-0.002148972367 	9.86111495e-08
0.5102617754 	1.234176558 	-0.002052582 	9.830907804e-08
0.5172803182 	1.234580042 	-0.001959197533 	9.77551886e-08
0.5242218659 	1.234642706 	-0.001868533479 	9.699805716e-08
0.5310874576 	1.234397663 	-0.001780326405 	9.257717495e-08
0.5378772912 	1.233875151 	-0.001694338972 	8.763264136e-08
0.5445926252 	1.233102375 	-0.001610357033 	8.300190916e-08
0.5512342888 	1.23210354 	-0.00152819159 	7.865963581e-08
0.557802664 	1.230900026 	-0.00144767864 	7.457273954e-08
0.5642988774 	1.229510519 	-0.001368675948 	7.07102052e-08
0.5707237498 	1.227951305 	-0.001291062751 	6.705126042e-08
0.577077725 	1.226236565 	-0.001214738719 	6.357129163e-08
0.5833617689 	1.224378541 	-0.001139620516 	6.024862457e-08
0.5895767917 	1.222387826 	-0.001065640084 	5.707115052e-08
0.5957232321 	1.220273653 	-0.0009927443324 	5.402516011e-08
0.6018018976 	1.218043996 	-0.0009208913311 	5.109853051e-08
0.6078138169 	1.215705758 	-0.0008500482113 	4.8286306e-08
0.6137593944 	1.213265052 	-0.0007801912946 	4.558483999e-08
0.6196393617 	1.210727213 	-0.0007113018215 	4.298971244e-08
0.625454667 	1.20809699 	-0.0006433665684 	4.049891328e-08
0.6312058611 	1.205378951 	-0.000576378108 	3.811441561e-08
0.6368935895 	1.202577533 	-0.0005103324409 	3.583496471e-08
0.6425186168 	1.199696872 	-0.0004452293266 	3.365862824e-08
0.6480817161 	1.196740776 	-0.0003810683591 	3.158681105e-08
0.653583425 	1.193712782 	-0.0003178475293 	2.961845241e-08
0.6590244207 	1.190616089 	-0.0002555631325 	2.775072789e-08
0.6644054777 	1.187453561 	-0.000194209799 	2.598115825e-08
0.6697271999 	1.184227808 	-0.0001337816543 	2.430832588e-08
0.6749901949 	1.180941169 	-7.426318897e-05 	2.273323601e-08
0.6801951104 	1.177595687 	-1.561457544e-05 	2.126363268e-08
0.6853426864 	1.174193131 	4.210616462e-05 	1.986459912e-08
0.6904334652 	1.170734748 	9.888906479e-05 	1.856628362e-08
0.6954680649 	1.167207256 	0.0001549326932 	1.740169953e-08
0.7004471053 	1.163572633 	0.0002103569796 	1.628458441e-08
0.705371273 	1.159791109 	0.0002654268784 	1.525027037e-08
0.7102411011 	1.155841135 	0.0003204963539 	1.433171559e-08
0.715057188 	1.151716531 	0.0003756832424 	1.347520094e-08
0.7198201268 	1.147420828 	0.0004310365869 	1.266799242e-08
0.724530548 	1.142963216 	0.0004865667656 	1.188292573e-08
0.7291889935 	1.13835581 	0.0005422368607 	1.109225267e-08
0.7337960302 	1.133611857 	0.0005979707352 	1.027754338e-08
0.7383522256 	1.128744669 	0.0006536640732 	9.430772773e-09
0.7428581594 	1.123766979 	0.0007091951704 	8.551658569e-09
0.747314382 	1.118690475 	0.000764437269 	7.644766083e-09
0.7517214274 	1.113525347 	0.0008192699671 	6.715897178e-09
0.7560798383 	1.108279978 	0.0008735858411 	5.770583565e-09
0.7603901521 	1.10296108 	0.000927294297 	4.812806067e-09
0.7646529193 	1.097574179 	0.0009803224291 	3.843916995e-09
0.7688686441 	1.092124007 	0.001032612364 	2.862428377e-09
0.7730378455 	1.086614673 	0.00108411798 	1.864860028e-09
0.7771610371 	1.081049727 	0.001134802007 	8.465839661e-10
0.78123873 	1.075432207 	0.001184632787 	-1.976034866e-10
0.7852714323 	1.069764681 	0.001233581618 	-1.273206517e-09
0.789259631 	1.06404931 	0.001281620645 	-2.385930348e-09
0.7932038172 	1.058287906 	0.001328721189 	-3.541537544e-09
0.7971044765 	1.052482011 	0.001374852917 	-4.74590819e-09
0.8009620913 	1.046632962 	0.001419983192 	-6.005084681e-09
0.8047771403 	1.040741971 	0.001464076907 	-7.325500085e-09
0.8085500876 	1.034810174 	0.001507096438 	-8.713792517e-09
0.8122813978 	1.028838668 	0.001549001484 	-1.017663354e-08
0.8159715303 	1.022828533 	0.001589749177 	-1.172065677e-08
0.8196209396 	1.016780851 	0.001629294083 	-1.335228194e-08
0.8232300789 	1.010696708 	0.001667588184 	-1.507772729e-08
0.8267993892 	1.004577208 	0.001704580978 	-1.690288024e-08
0.8303293095 	0.9984234744 	0.001740219374 	-1.8832851e-08
0.8338202746 	0.992236647 	0.001774447559 	-2.087216411e-08
0.8372727143 	0.9860178992 	0.001807206929 	-2.302484635e-08
0.8406870545 	0.9797684523 	0.001838435725 	-2.529452677e-08
0.8440637165 	0.9734896009 	0.001868068746 	-2.768495317e-08
0.8474031146 	0.967182746 	0.00189603697 	-3.019944044e-08
0.8507056601 	0.9608494257 	0.001922267045 	-3.284066752e-08
0.8539717594 	0.9544913437 	0.001946681159 	-3.561036804e-08
0.857201815 	0.9481103856 	0.001969197311 	-3.850841129e-08
0.8603962247 	0.941708607 	0.001989730184 	-4.153128797e-08
0.8635553826 	0.9352881847 	0.002008193118 	-4.467053197e-08
0.8666796769 	0.9288513191 	0.002024501191 	-4.790972399e-08
0.8697694922 	0.9224000851 	0.002038575269 	-5.122268065e-08
0.8728252091 	0.9159362435 	0.002050346844 	-5.457382355e-08
0.8758472039 	0.909461048 	0.002059762678 	-5.792153768e-08
0.8788358488 	0.9029751015 	0.002066787783 	-6.122531109e-08
0.881791512 	0.8964783459 	0.002071404957 	-6.445587486e-08
0.8847145574 	0.8899702907 	0.00207360901 	-6.760511995e-08
0.8876053449 	0.8834505929 	0.002073393859 	-7.069048941e-08
0.8904642303 	0.876920088 	0.002070731825 	-7.37534382e-08
0.8932915657 	0.8703823175 	0.002065546129 	-7.685134442e-08
0.8960876994 	0.8638454804 	0.002057679439 	-8.005089389e-08
0.8988529757 	0.8573245458 	0.002046864225 	-8.343503984e-08
0.9015877351 	0.8508429832 	0.002032704145 	-8.713046093e-08
0.9042923145 	0.8444332567 	0.002014680599 	-9.134379437e-08
0.9069670469 	0.8381350151 	0.001992201253 	-9.638859654e-08
0.9096122615 	0.831990002 	0.001964691285 	-1.027050091e-07
0.9122282842 	0.826033311 	0.001931699241 	-1.106493834e-07
0.9148154371 	0.8202816183 	0.001893112525 	-1.191000765e-07
0.9173740388 	0.8147198529 	0.001849956476 	-1.242127339e-07
0.9199044044 	0.809287479 	0.001803425287 	-1.255123812e-07
0.9224068456 	0.8039090909 	0.00175406801 	-1.234850376e-07
0.9248816704 	0.7985483641 	0.001703023125 	-1.19363955e-07
0.9273291837 	0.7931985367 	0.001650922089 	-1.162228575e-07
0.9297496868 	0.7878544745 	0.001597580845 	-1.137688217e-07
0.9321434779 	0.7829570305 	0.001547648752 	-1.116441863e-07
0.9337027968 	0.7789887117 	0.001506620119 	-1.099502018e-07
0.935233349 	0.7754889611 	0.001470257382 	-1.084582765e-07
0.9367356652 	0.7720085884 	0.001433979309 	-1.06976599e-07
0.9382102662 	0.7685449386 	0.001397790295 	-1.054901837e-07
0.9396576634 	0.7650954054 	0.001361738923 	-1.039859246e-07
0.9410783587 	0.7616573966 	0.001325866487 	-1.024560618e-07
0.9424728445 	0.7582283338 	0.001290205473 	-1.008951148e-07
0.9438416045 	0.7548056478 	0.001254785709 	-9.929898613e-08
0.9451851132 	0.7513867736 	0.001219635294 	-9.76649459e-08
0.9465038366 	0.7479691456 	0.001184780297 	-9.599147737e-08
0.9477982317 	0.7445501926 	0.00115024475 	-9.427806492e-08
0.9490687475 	0.7411273323 	0.001116050782 	-9.252501544e-08
0.9503158245 	0.7376979659 	0.00108221873 	-9.073331535e-08
0.9515398951 	0.7342594719 	0.001048767237 	-8.890451038e-08
0.9527413837 	0.7308091996 	0.001015713351 	-8.704060223e-08
0.9539207068 	0.7273444629 	0.0009830726185 	-8.514396022e-08
0.9550782736 	0.723862533 	0.0009508591711 	-8.32172458e-08
0.9562144852 	0.7203606309 	0.0009190858158 	-8.126334817e-08
0.9573297356 	0.71683592 	0.000887764117 	-7.928532952e-08
0.9584244117 	0.7132854974 	0.0008569044757 	-7.728637853e-08
0.9594988928 	0.7097063856 	0.0008265162033 	-7.526977171e-08
0.9605535516 	0.7060955232 	0.000796607594 	-7.323886529e-08
0.9615887538 	0.702449755 	0.0007671859929 	-7.119701724e-08
0.9626048583 	0.6987658221 	0.0007382578557 	-6.914756389e-08
0.9636022174 	0.6950403504 	0.0007098288076 	-6.709380212e-08
0.964581177 	0.6912698395 	0.0006819036967 	-6.503895321e-08
0.9655420764 	0.6874506502 	0.000654486647 	-6.29861156e-08
0.966485249 	0.6835789915 	0.000627581115 	-6.093822211e-08
0.9674110216 	0.6796509066 	0.000601189921 	-5.889807469e-08
0.9683197153 	0.6756622581 	0.0005753151467 	-5.68683691e-08
0.9692116452 	0.671608712 	0.0005499581829 	-5.485073363e-08
0.9700871205 	0.6674857205 	0.0005251217076 	-5.284351293e-08
0.9709464448 	0.6632885049 	0.0005008123607 	-5.084937618e-08
0.9717899161 	0.6590120382 	0.000477018714 	-4.891487552e-08
0.9726178268 	0.6546509826 	0.0004536926056 	-4.695742852e-08
0.9734304639 	0.6501977847 	0.000430929262 	-4.495086426e-08
0.9742281093 	0.6456347469 	0.0004088111926 	-4.304749169e-08
0.9750110395 	0.6409326964 	0.0003872338483 	-4.115125254e-08
0.975779526 	0.6360640806 	0.0003662460358 	-3.919090536e-08
0.9765338353 	0.6310091054 	0.0003459498521 	-3.725396154e-08
0.9772742289 	0.6257522291 	0.0003263343253 	-3.535122605e-08
0.9780009634 	0.6202800873 	0.0003073971246 	-3.348835583e-08
0.978714291 	0.6145802734 	0.0002891416376 	-3.167071843e-08
0.9794144589 	0.6086406417 	0.0002715677659 	-2.990034687e-08
0.98010171 	0.6024489064 	0.0002546719112 	-2.817752817e-08
0.9807762824 	0.5959923995 	0.0002384485255 	-2.65028577e-08
0.9814384101 	0.5892579102 	0.0002228908463 	-2.487784596e-08
0.9820883228 	0.5822315685 	0.0002079911829 	-2.330458848e-08
0.9827262456 	0.5748987547 	0.0001937410572 	-2.178524441e-08
0.9833523999 	0.5672440258 	0.0001801312743 	-2.03216732e-08
0.9839670027 	0.5592510578 	0.0001671519609 	-1.891527634e-08
0.9845702672 	0.5509026009 	0.0001547925992 	-1.756697043e-08
0.9851624025 	0.5421804508 	0.0001430420803 	-1.627720975e-08
0.9857436139 	0.5330654367 	0.0001318887808 	-1.50460112e-08
0.9863141029 	0.5235374295 	0.0001213205287 	-1.387297339e-08
0.9868740674 	0.5135753603 	0.0001113241633 	-1.275728731e-08
0.9874237016 	0.5031571954 	0.0001018858335 	-1.16975986e-08
0.9879631959 	0.4922596318 	9.299724858e-05 	-1.06914545e-08
0.9884927375 	0.4808565306 	8.465946739e-05 	-9.735585284e-09
0.98901251 	0.4699541294 	7.748009828e-05 	-8.904884183e-09
0.9893470337 	0.4607261392 	7.193541421e-05 	-8.259444969e-09
0.9896815574 	0.4522056288 	6.722587228e-05 	-7.704702945e-09
0.9900160812 	0.4432668606 	6.268030206e-05 	-7.164100998e-09
0.9903506049 	0.4338883009 	5.829198151e-05 	-6.639163864e-09
0.9906851286 	0.4240489286 	5.405869407e-05 	-6.130677661e-09
0.9910196523 	0.4137269408 	4.998151821e-05 	-5.639390398e-09
0.991354176 	0.4028995879 	4.606143513e-05 	-5.165983752e-09
0.9916886998 	0.3915433551 	4.229885077e-05 	-4.711147659e-09
0.9920232235 	0.3796343089 	3.869557672e-05 	-4.275886344e-09
0.9923577472 	0.3671485778 	3.526013338e-05 	-3.860761781e-09
0.9926922709 	0.3540629801 	3.199530319e-05 	-3.46107552e-09
0.9930267946 	0.3403557762 	2.880890649e-05 	-3.066402917e-09
0.9933613184 	0.3260071344 	2.550690979e-05 	-2.740301581e-09
0.9936958421 	0.3109946289 	2.281636029e-05 	-2.449653155e-09
0.9940303658 	0.295259061 	2.090946269e-05 	-2.092672659e-09
0.9943648895 	0.2787161041 	1.848535777e-05 	-1.779468529e-09
0.9946994132 	0.2613428351 	1.581417929e-05 	-1.536295821e-09
0.9950339369 	0.2431879053 	1.355413837e-05 	-1.292763248e-09
0.9953684607 	0.2243352243 	1.139461156e-05 	-1.067250773e-09
0.9957029844 	0.2048977985 	9.319185389e-06 	-8.657249009e-10
0.9960375081 	0.1850047624 	7.422863332e-06 	-6.878858617e-10
0.9963720318 	0.164784778 	5.78236588e-06 	-5.324173484e-10
0.9967065555 	0.1443510565 	4.41018754e-06 	-3.982325687e-10
0.9970410793 	0.1237922438 	3.267684164e-06 	-2.847342824e-10
0.997375603 	0.1031703689 	2.307496189e-06 	-1.916305436e-10
0.9977101267 	0.08252425326 	1.50475719e-06 	-1.184351627e-10
0.9980446504 	0.06187561655 	8.604974507e-07 	-6.418691678e-11
0.9983791741 	0.04123544102 	3.903237667e-07 	-2.761970463e-11
0.9987136979 	0.02060910734 	1.069493037e-07 	-7.190169453e-12
0.9990482216 	0.008691050369 	1.070929831e-08 	-6.660710532e-13
0.9990482216 	0.008691050369 	1.070929831e-08 	-6.660710532e-13
