0.3675691744 	3.582060053e-08 	-6.736478969e-11 	2.940804001e-15 	3.571355692e-08 	3.705118426e-13 	6.807996556e-11
0.3677500057 	4.391242588e-07 	-3.239193509e-09 	4.692412952e-13 	4.364214206e-07 	-2.777952214e-11 	8.319405248e-10
0.3679308446 	2.474181393e-06 	-4.261177946e-08 	7.524501786e-12 	2.444899653e-06 	-2.071312636e-10 	4.660658262e-09
0.3681116904 	8.311639315e-06 	-2.666521502e-07 	5.080304664e-11 	8.142050883e-06 	-7.670958436e-10 	1.552101195e-08
0.3682925426 	2.071939071e-05 	-1.083545645e-06 	2.124870315e-10 	2.005520752e-05 	-1.953623014e-09 	3.82307996e-08
0.3684734006 	4.283220028e-05 	-3.32470575e-06 	6.538939077e-10 	4.083406127e-05 	-3.957564781e-09 	7.784107003e-08
0.3686542637 	7.803466262e-05 	-8.380858214e-06 	1.623246901e-09 	7.305559181e-05 	-6.868874725e-09 	1.392642627e-07
0.3688351313 	0.0001298107848 	-1.825784916e-05 	3.42890259e-09 	0.0001190420994 	-1.064401784e-08 	2.269273274e-07
0.3690160028 	0.0002015063015 	-3.54937899e-05 	6.368040267e-09 	0.0001806720959 	-1.508899061e-08 	3.4441123e-07
0.3691968776 	0.0002959885386 	-6.289549134e-05 	1.061797516e-08 	0.0002591929382 	-1.986461201e-08 	4.940937791e-07
0.3693777551 	0.0004152323164 	-0.0001031023668 	1.612297618e-08 	0.0003550587562 	-2.451803102e-08 	6.768406728e-07
0.3695586347 	0.0005599098489 	-0.0001580606394 	2.252843916e-08 	0.0004678236874 	-2.853765353e-08 	8.91801973e-07
0.3697395158 	0.0007290964488 	-0.0002285544508 	2.9206834e-08 	0.0005961183457 	-3.142150224e-08 	1.136367249e-06
0.3699203977 	0.000920196161 	-0.0003139485769 	3.538017768e-08 	0.0007377257126 	-3.274215613e-08 	1.406310248e-06
0.3701012798 	0.001129140864 	-0.000412229615 	4.034130213e-08 	0.0008897389856 	-3.217413632e-08 	1.696089797e-06
0.3702821617 	0.001350893952 	-0.0005206132843 	4.142881609e-08 	0.001048722624 	-3.019227831e-08 	1.999156799e-06
0.3704630425 	0.001576117417 	-0.0006221212722 	3.101611978e-08 	0.001215162661 	-2.985611998e-08 	2.31643777e-06
0.3706439218 	0.001800246227 	-0.0007116731536 	2.126069587e-08 	0.001387427816 	-2.876669228e-08 	2.644823033e-06
0.370824799 	0.002024598012 	-0.0008003513013 	1.975028192e-08 	0.001560404149 	-2.478089959e-08 	2.974564e-06
0.3710056733 	0.002247382436 	-0.0008884018422 	1.792059206e-08 	0.001732168868 	-2.029766982e-08 	3.301995294e-06
0.3711865443 	0.002466715518 	-0.0009750905165 	1.583526188e-08 	0.001901285441 	-1.54278736e-08 	3.624378485e-06
0.3713674113 	0.002680987994 	-0.001059794656 	1.357539207e-08 	0.00206650014 	-1.027878104e-08 	3.93932362e-06
0.3715482738 	0.002888858052 	-0.00114201746 	1.124518102e-08 	0.002226754317 	-4.9627062e-09 	4.244812622e-06
0.371729131 	0.003089238211 	-0.001221397171 	8.967344757e-09 	0.002381168905 	4.271371006e-10 	4.539169744e-06
0.3719099825 	0.003281274394 	-0.001297711477 	6.873666459e-09 	0.002529018445 	5.821092002e-09 	4.821012061e-06
0.3720908276 	0.003464316924 	-0.001370872995 	5.086373971e-09 	0.002669703963 	1.117042008e-08 	5.089197759e-06
0.3722716657 	0.003637885443 	-0.001440911313 	3.694290962e-09 	0.002802728682 	1.643990398e-08 	5.342779845e-06
0.3724524963 	0.003801630339 	-0.001507941218 	2.732190648e-09 	0.002927680479 	2.159713093e-08 	5.5809727e-06
0.3726333187 	0.003955295367 	-0.001572121162 	2.171110521e-09 	0.003044221028 	2.660136897e-08 	5.803131378e-06
0.3728141323 	0.00409869263 	-0.001633606594 	1.922471351e-09 	0.003152066734 	3.139670943e-08 	6.008715267e-06
0.3729949365 	0.004249400608 	-0.001700632283 	1.904720161e-09 	0.003264009825 	3.683607199e-08 	6.222109911e-06
0.3732758447 	0.004418169092 	-0.00177966308 	1.79485002e-09 	0.003387112911 	4.213658678e-08 	6.456778608e-06
0.3735620054 	0.004580500866 	-0.001861195357 	1.313955574e-09 	0.003502426425 	4.692734785e-08 	6.676598215e-06
0.3738535141 	0.0047180911 	-0.001936868302 	1.828292851e-10 	0.003596478473 	4.971723194e-08 	6.855887559e-06
0.3741504675 	0.004829579355 	-0.002005415082 	-1.55770191e-09 	0.00366862918 	4.983623591e-08 	6.993426859e-06
0.374452964 	0.004914025153 	-0.002065487994 	-3.518362847e-09 	0.003718728362 	4.663877629e-08 	7.088929825e-06
0.3747611033 	0.004971077333 	-0.002115926507 	-5.018805746e-09 	0.003747101574 	3.957249804e-08 	7.143017054e-06
0.3750749871 	0.005001075633 	-0.002155997822 	-5.183711253e-09 	0.00375450564 	2.822651629e-08 	7.15713126e-06
0.3753947182 	0.005004964066 	-0.002185494634 	-3.026175844e-09 	0.003742025781 	1.235807277e-08 	7.133341182e-06
0.3755993181 	0.004987836823 	-0.002184765234 	5.137841442e-08 	0.003725818066 	-4.784479579e-07 	7.102444772e-06
0.3757202004 	0.00497770235 	-0.002184334392 	-1.884154813e-09 	0.003716227123 	7.497959798e-09 	7.084161768e-06
0.3760513922 	0.004918784639 	-0.002146562864 	-9.202251706e-09 	0.003680047367 	3.093812994e-08 	7.015193097e-06
0.376388741 	0.004836618185 	-0.00209418533 	-2.073588159e-08 	0.00362917957 	5.885187378e-08 	6.918224939e-06
0.3767323563 	0.004735206716 	-0.002035058406 	-3.657324035e-08 	0.003563042497 	9.134870816e-08 	6.792149296e-06
0.3770823489 	0.004616170099 	-0.001969485517 	-5.635796297e-08 	0.003483078258 	1.282587203e-07 	6.639715231e-06
0.3774388313 	0.004482169441 	-0.001899176497 	-7.793201663e-08 	0.003391004383 	1.688058392e-07 	6.464196835e-06
0.3778019175 	0.004336795943 	-0.001826749495 	-9.945500211e-08 	0.003288963511 	2.118073023e-07 	6.269678572e-06
0.3781717233 	0.004182690097 	-0.001753280103 	-1.22020776e-07 	0.003179024129 	2.564495457e-07 	6.060103553e-06
0.3785483659 	0.004021560177 	-0.001678608646 	-1.46640263e-07 	0.003063006494 	3.01885782e-07 	5.838941696e-06
0.3789319641 	0.003855217766 	-0.001602789653 	-1.727680098e-07 	0.002942696701 	3.467553447e-07 	5.609597793e-06
0.3793226385 	0.003685669744 	-0.00152618684 	-1.995011464e-07 	0.002819903973 	3.894462371e-07 	5.375520724e-06
0.3797205109 	0.003515099438 	-0.001449446441 	-2.255657695e-07 	0.002696470082 	4.281411198e-07 	5.140221422e-06
0.3801257049 	0.003345809887 	-0.001373443883 	-2.493920836e-07 	0.002574251778 	4.609015716e-07 	4.907239365e-06
0.3805383456 	0.003180161281 	-0.001299230816 	-2.691705947e-07 	0.002455102729 	4.857086902e-07 	4.680108162e-06
0.3809585596 	0.003020510196 	-0.001227979477 	-2.829575205e-07 	0.002340863274 	5.004531693e-07 	4.46233601e-06
0.381386475 	0.00286905621 	-0.001160864511 	-2.888706787e-07 	0.002233263824 	5.028440737e-07 	4.257221552e-06
0.3818233582 	0.002726971722 	-0.001098662769 	-2.853886184e-07 	0.002133477297 	4.904284813e-07 	4.067000698e-06
0.3822794906 	0.002595721834 	-0.001042197225 	-2.725417785e-07 	0.002042867765 	4.632913669e-07 	3.894273746e-06
0.3827440409 	0.002477803366 	-0.00099230305 	-2.534932823e-07 	0.001963238416 	4.226067303e-07 	3.742478075e-06
0.3832171622 	0.00237105858 	-0.0009395216517 	-3.27399211e-07 	0.00189675754 	3.561180192e-07 	3.615747049e-06
0.3836990102 	0.00227243132 	-0.0008775313477 	-3.961160861e-07 	0.001843039586 	2.90265174e-07 	3.513345697e-06
0.3841897433 	0.002183695238 	-0.0008160352771 	-3.745519284e-07 	0.00179881773 	2.369309322e-07 	3.429046548e-06
0.384689523 	0.002105565518 	-0.0007595793637 	-3.755084116e-07 	0.001763066375 	1.673045971e-07 	3.360894531e-06
0.3851985134 	0.002036879389 	-0.0007062113355 	-3.74646291e-07 	0.001736175503 	8.972153898e-08 	3.309633054e-06
0.3857168816 	0.00197691265 	-0.0006558727104 	-3.713828419e-07 	0.001717722463 	6.991958442e-09 	3.274456432e-06
0.3862447977 	0.001924874932 	-0.0006086021957 	-3.641567973e-07 	0.001707177261 	-8.127523232e-08 	3.254354344e-06
0.3867824347 	0.001879964643 	-0.0005646702863 	-3.484723057e-07 	0.001704120333 	-1.756927254e-07 	3.248526991e-06
0.3873299689 	0.001841508446 	-0.0005244444996 	-3.265576652e-07 	0.001708225268 	-2.769495996e-07 	3.256352138e-06
0.3878875794 	0.001808819265 	-0.0004874154264 	-3.149284099e-07 	0.001719104491 	-3.817977354e-07 	3.27709096e-06
0.3884554486 	0.001781075601 	-0.0004523274481 	-2.986724716e-07 	0.001735921884 	-4.558249663e-07 	3.309149585e-06
0.3890337624 	0.001757509745 	-0.0004186577586 	-2.725951203e-07 	0.001757439135 	-4.95350146e-07 	3.350167446e-06
0.3896227096 	0.00173746158 	-0.0003865312334 	-2.456610482e-07 	0.001782542837 	-5.184531756e-07 	3.398022079e-06
0.3902224824 	0.001720316119 	-0.0003559599181 	-2.203906127e-07 	0.001810433275 	-5.292537944e-07 	3.451189007e-06
0.3908332767 	0.001705543431 	-0.00032685997 	-1.969228184e-07 	0.001840504084 	-5.300049535e-07 	3.508512325e-06
0.3914552915 	0.001692715967 	-0.0002991358273 	-1.752561979e-07 	0.001872256107 	-5.223427283e-07 	3.569040507e-06
0.3920887296 	0.001681489148 	-0.0002726876748 	-1.553246325e-07 	0.001905275292 	-5.076780757e-07 	3.631984251e-06
0.3927337972 	0.001671582055 	-0.0002474152821 	-1.370305581e-07 	0.001939221434 	-4.871704837e-07 	3.696695032e-06
0.3933907042 	0.001662762943 	-0.0002232206601 	-1.202566911e-07 	0.001973817306 	-4.617570857e-07 	3.762644379e-06
0.3940596643 	0.001654834529 	-0.0002000118279 	-1.048731193e-07 	0.002008846658 	-4.322019529e-07 	3.82942006e-06
0.3947408949 	0.001647650331 	-0.0001776849643 	-9.074754e-08 	0.002044092742 	-3.991326404e-07 	3.896608892e-06
0.3954346172 	0.001641070925 	-0.000156122141 	-7.774074357e-08 	0.00207949172 	-3.63094459e-07 	3.964089183e-06
0.3961494788 	0.001634927357 	-0.0001351625209 	-6.558753549e-08 	0.002115197267 	-3.239100794e-07 	4.032153879e-06
0.3968878893 	0.001629134319 	-0.0001146831327 	-5.41623936e-08 	0.002151082016 	-2.817379275e-07 	4.100560185e-06
0.3976397877 	0.001623662156 	-9.474722227e-05 	-4.353455688e-08 	0.002186787517 	-2.376215225e-07 	4.168624793e-06
0.3984054155 	0.001618450611 	-7.539679902e-05 	-3.361301766e-08 	0.002222131637 	-1.918249676e-07 	4.236000509e-06
0.3991850187 	0.001613435901 	-5.656430892e-05 	-2.430945064e-08 	0.002257046327 	-1.445877168e-07 	4.302557612e-06
0.3999788474 	0.001608560527 	-3.82000079e-05 	-1.554854886e-08 	0.002291482886 	-9.611909783e-08 	4.368203265e-06
0.4007871563 	0.00160377639 	-2.025936187e-05 	-7.269390806e-09 	0.002325397979 	-4.659940314e-08 	4.432854858e-06
0.4015479658 	0.00159940024 	-4.031201367e-06 	5.859059717e-08 	0.002356231559 	9.800603466e-08 	4.491632233e-06
0.4016101199 	0.001599042382 	-2.703074943e-06 	-5.851709252e-10 	0.002358755322 	-3.755022106e-09 	4.496443226e-06
0.4024470408 	0.001594324395 	1.450201584e-05 	-8.158795316e-09 	0.002391527758 	-5.414663649e-08 	4.558916598e-06
0.4032992213 	0.001589598555 	3.13243668e-05 	-1.535274956e-08 	0.002423680753 	-1.052073889e-07 	4.620209142e-06
0.4041669344 	0.00158431985 	4.942554829e-05 	-2.210612626e-08 	0.002459187977 	-1.567788084e-07 	4.687895779e-06
0.4054980656 	0.001577873993 	7.050558389e-05 	-3.165291767e-08 	0.002501108082 	-2.351502878e-07 	4.767807151e-06
0.4068429052 	0.001570640169 	9.254998955e-05 	-3.965265557e-08 	0.002544965971 	-3.142886843e-07 	4.851412478e-06
0.4082015963 	0.001563249917 	0.0001137546866 	-4.723945842e-08 	0.002586703043 	-3.904008041e-07 	4.930974936e-06
0.4095742835 	0.001555776466 	0.0001350439951 	-6.475525973e-08 	0.002626106505 	-4.615435766e-07 	5.006088888e-06
0.4109925526 	0.001548453159 	0.000157961644 	-9.300201714e-08 	0.002659356882 	-4.572945721e-07 	5.069473348e-06
0.4124285917 	0.0015429293 	0.0001820121653 	-1.170592303e-07 	0.002676473608 	-3.484329089e-07 	5.102102583e-06
0.4138792945 	0.00153913586 	0.0002062520706 	-1.385541225e-07 	0.002680307118 	-3.030532836e-07 	5.109410319e-06
0.4153448143 	0.001535857756 	0.0002299529476 	-1.423849833e-07 	0.002681075984 	-3.236487961e-07 	5.110875992e-06
0.4168253059 	0.001532982879 	0.0002515303497 	-1.102181738e-07 	0.002680810225 	-3.062914961e-07 	5.110369381e-06
0.4183209264 	0.001530288782 	0.000270513408 	-7.303417653e-08 	0.002679911958 	-2.683695521e-07 	5.108657036e-06
0.4198318349 	0.001527756305 	0.0002870723629 	-4.352677158e-08 	0.002678549082 	-2.320335601e-07 	5.106059014e-06
0.4213581924 	0.001525416313 	0.000301438561 	-2.0422511e-08 	0.002676830949 	-1.974220167e-07 	5.102783775e-06
0.4229001622 	0.001523211991 	0.000313720239 	-3.615538304e-09 	0.002674925939 	-1.64156321e-07 	5.099152297e-06
0.4244819438 	0.001521065562 	0.0003241287632 	7.128260771e-09 	0.002672938393 	-1.31276824e-07 	5.095363482e-06
0.4260925758 	0.001518974662 	0.0003329602464 	1.229952184e-08 	0.002670880412 	-9.8990948e-08 	5.091440399e-06
0.4277195391 	0.001516934901 	0.0003403449983 	1.262207386e-08 	0.002668823472 	-6.757665189e-08 	5.087519298e-06
0.4293630066 	0.001514928869 	0.0003464829957 	8.950462983e-09 	0.002666809634 	-3.703289177e-08 	5.083680364e-06
0.4310231538 	0.001512944582 	0.0003516089975 	2.13528766e-09 	0.002664849818 	-7.380712005e-09 	5.07994441e-06
0.431448537 	0.001512443175 	0.0003526961803 	3.017932663e-08 	0.002664368998 	-1.284324774e-07 	5.079027833e-06
0.4326988195 	0.001510969327 	0.0003559033688 	6.656128543e-09 	0.002662949458 	-2.14034823e-08 	5.076321796e-06
0.4343910777 	0.001509022063 	0.0003595820895 	1.721229491e-08 	0.002661101304 	-4.933326865e-08 	5.0727987e-06
0.436100568 	0.001507106194 	0.0003627698763 	2.912127521e-08 	0.002659325722 	-7.640582615e-08 	5.069413947e-06
0.4378450104 	0.001505189944 	0.0003655337652 	4.206521687e-08 	0.002657659714 	-1.029693175e-07 	5.066238074e-06
0.4396278893 	0.001503290527 	0.000368056543 	5.573985568e-08 	0.00265606421 	-1.290949826e-07 	5.063196599e-06
0.4414287725 	0.001501441419 	0.0003704216962 	6.970878512e-08 	0.002654542613 	-1.544555571e-07 	5.060296012e-06
0.4432478542 	0.001499645185 	0.0003726411628 	8.376982979e-08 	0.002653131527 	-1.791250295e-07 	5.05760609e-06
0.445085332 	0.001497901478 	0.0003747764335 	9.780595466e-08 	0.002651832137 	-2.031887114e-07 	5.055129091e-06
0.4469414059 	0.001496214212 	0.0003768609556 	1.117444509e-07 	0.002650652134 	-2.267201536e-07 	5.052879678e-06
0.4488162792 	0.001494614629 	0.0003789775615 	1.193665317e-07 	0.002649561201 	-2.374677986e-07 	5.050800056e-06
0.4507145584 	0.001493067292 	0.0003810299045 	1.070100384e-07 	0.002648633224 	-2.094005803e-07 	5.049031074e-06
0.4526669111 	0.001491559662 	0.0003830824701 	9.407347807e-08 	0.002647850547 	-1.814591191e-07 	5.047539075e-06
0.4546388831 	0.001490138968 	0.0003852436579 	8.099366112e-08 	0.002647155251 	-1.542935502e-07 	5.046213648e-06
0.4566306909 	0.00148879869 	0.0003874173263 	6.781918807e-08 	0.002646605848 	-1.277961565e-07 	5.045166333e-06
0.4586425543 	0.001487529191 	0.0003896180727 	5.460602584e-08 	0.002646198214 	-1.01909098e-07 	5.044389269e-06
0.4606746966 	0.001486343277 	0.0003918817744 	4.139296481e-08 	0.002645910199 	-7.658330532e-08 	5.043840232e-06
0.4627273447 	0.001485240517 	0.0003941887504 	2.820071782e-08 	0.002645754041 	-5.176650809e-08 	5.043542552e-06
0.4648189542 	0.001484191004 	0.0003964931551 	1.489470835e-08 	0.002645766179 	-2.714172149e-08 	5.043565689e-06
0.466953052 	0.0014832068 	0.0003988742302 	1.481492788e-09 	0.002645900298 	-2.680977953e-09 	5.043821359e-06
0.4671922495 	0.001483106659 	0.0003991473997 	1.523604382e-09 	0.002645927286 	-5.531594356e-08 	5.043872805e-06
0.469107006 	0.001482304326 	0.0004013337898 	1.183084028e-08 	0.002646134198 	-2.131822469e-08 	5.044267237e-06
0.4712824151 	0.001481471046 	0.0004038138031 	2.505204221e-08 	0.002646505004 	-4.487917426e-08 	5.044974095e-06
0.4734797172 	0.001480711066 	0.0004063456349 	3.818053841e-08 	0.002646990118 	-6.802979992e-08 	5.045898857e-06
0.4756991628 	0.001480027116 	0.0004089258702 	5.121338815e-08 	0.002647589654 	-9.079634395e-08 	5.047041741e-06
0.4779561872 	0.001479391722 	0.000411503117 	6.425283689e-08 	0.002648344634 	-1.133764628e-07 	5.048480942e-06
0.4802602884 	0.001478811981 	0.0004141453664 	7.735356924e-08 	0.002649213133 	-1.358734717e-07 	5.050136542e-06
0.4825874655 	0.001478304783 	0.0004168677366 	9.033160708e-08 	0.002650168845 	-1.580031821e-07 	5.051958396e-06
0.4849379871 	0.001477853308 	0.0004195973786 	1.031758578e-07 	0.002651247106 	-1.797652078e-07 	5.05401386e-06
0.4873121266 	0.001477473133 	0.0004223952627 	1.158949643e-07 	0.002652402245 	-2.012009134e-07 	5.056215877e-06
0.4897101617 	0.001477143484 	0.0004251927965 	1.141272786e-07 	0.002653684239 	-1.974873069e-07 	5.058659712e-06
0.492163323 	0.001476847513 	0.0004280017579 	1.010428688e-07 	0.00265509736 	-1.742928918e-07 	5.061353514e-06
0.4946490888 	0.001476612292 	0.0004309097129 	8.805641953e-08 	0.00265657049 	-1.514610489e-07 	5.06416171e-06
0.4971597453 	0.001476427721 	0.0004338382851 	7.522055923e-08 	0.002658136722 	-1.290535556e-07 	5.067147383e-06
0.4996955911 	0.0014762982 	0.0004368112536 	6.253887024e-08 	0.00265977148 	-1.070554186e-07 	5.070263686e-06
0.5022569303 	0.001476211341 	0.0004397946165 	5.0007411e-08 	0.002661501131 	-8.543902926e-08 	5.073560883e-06
0.5048675072 	0.001476151005 	0.0004427835155 	3.74817188e-08 	0.002663340492 	-6.392517013e-08 	5.077067216e-06
0.507518827 	0.001476134991 	0.0004458494668 	2.504813849e-08 	0.002665231682 	-4.265621723e-08 	5.080672349e-06
0.5101966917 	0.001476159559 	0.0004489471675 	1.280402088e-08 	0.002667185121 	-2.177944389e-08 	5.084396147e-06
0.5129014286 	0.001476230506 	0.0004520903112 	7.501617432e-10 	0.002669178991 	-1.2749303e-09 	5.088197017e-06
0.5130736398 	0.001476236555 	0.0004522880754 	1.256715677e-09 	0.002669310075 	-3.213034199e-08 	5.0884469e-06
0.5156320481 	0.00147632577 	0.0004552240035 	1.103635172e-08 	0.002671249405 	-1.887156335e-08 	5.092143801e-06
0.518419256 	0.00147643569 	0.0004583682795 	2.277829392e-08 	0.002673401713 	-3.894383104e-08 	5.096246699e-06
0.5212419599 	0.001476582928 	0.0004615941781 	3.43310194e-08 	0.002675569691 	-5.870901998e-08 	5.100379467e-06
0.5240930218 	0.001476761632 	0.0004648485688 	4.565011169e-08 	0.002677769622 	-7.810873546e-08 	5.104573148e-06
0.5269728009 	0.001476966573 	0.0004681261957 	5.673654552e-08 	0.002679999652 	-9.716176021e-08 	5.108824205e-06
0.5298914659 	0.001477178715 	0.0004713968153 	6.763469749e-08 	0.002682290735 	-1.159569563e-07 	5.113191645e-06
0.532864735 	0.001477404216 	0.0004747103321 	7.840029478e-08 	0.002684606276 	-1.345985725e-07 	5.11760571e-06
0.5358678962 	0.001477653366 	0.0004780813223 	8.889182974e-08 	0.002686912266 	-1.528848597e-07 	5.122001567e-06
0.538901337 	0.001477925542 	0.0004814903021 	9.911425939e-08 	0.002689205391 	-1.708312362e-07 	5.126372902e-06
0.5419666093 	0.00147819421 	0.0004848822196 	1.090632487e-07 	0.002691534065 	-1.884457221e-07 	5.130812e-06
0.5450948104 	0.001478458279 	0.0004882953612 	1.057354586e-07 	0.002693875282 	-1.831816767e-07 	5.135275011e-06
0.5482545274 	0.001478739656 	0.000491785326 	9.508831542e-08 	0.002696162255 	-1.652576411e-07 	5.139634618e-06
0.5514461789 	0.001479032484 	0.0004953101478 	8.471518534e-08 	0.002698405934 	-1.477486338e-07 	5.143911693e-06
0.5546709803 	0.001479309611 	0.0004988172246 	7.460297714e-08 	0.002700651871 	-1.306163163e-07 	5.148193074e-06
0.5579586754 	0.001479571692 	0.0005023440336 	6.463837301e-08 	0.002702874191 	-1.136329615e-07 	5.152429433e-06
0.5612796104 	0.001479843496 	0.0005059534427 	5.497112941e-08 	0.002704998567 	-9.708682261e-08 	5.156479083e-06
0.564634237 	0.001480108412 	0.0005095812442 	4.560577095e-08 	0.002707057559 	-8.094960224e-08 	5.160404095e-06
0.5680294603 	0.001480346091 	0.0005131991108 	3.651088502e-08 	0.002709075651 	-6.51526644e-08 	5.164251139e-06
0.5714814891 	0.001480564568 	0.0005168512416 	2.764549639e-08 	0.00271101224 	-4.96129016e-08 	5.167942816e-06
0.5749685919 	0.00148078124 	0.0005205764683 	1.910789206e-08 	0.002712811489 	-3.45048522e-08 	5.171372685e-06
0.5784912566 	0.001480969406 	0.0005242991582 	1.089623358e-08 	0.002714523347 	-1.980623845e-08 	5.174635963e-06
0.5820660421 	0.001481121096 	0.0005280257114 	2.955414502e-09 	0.002716140626 	-5.409322287e-09 	5.177718945e-06
0.583462122 	0.001481172773 	0.0005294860534 	5.502368161e-09 	0.002716703798 	-2.544242713e-07 	5.178792508e-06
0.5856870712 	0.001481254521 	0.0005318113851 	4.617066341e-09 	0.002717597381 	-8.596830054e-09 	5.180495926e-06
0.5893448323 	0.001481364242 	0.0005356334004 	1.180717876e-08 	0.002718893758 	-2.216062754e-08 	5.182967181e-06
0.593044075 	0.001481427936 	0.0005394464612 	1.866539194e-08 	0.002720063294 	-3.532630952e-08 	5.185196641e-06
0.5968014921 	0.001481453063 	0.0005432884381 	2.522124879e-08 	0.002721064547 	-4.815241494e-08 	5.187105308e-06
0.6005975097 	0.001481455724 	0.000547197532 	3.140455228e-08 	0.002721840674 	-6.051920929e-08 	5.188584822e-06
0.6044326823 	0.001481405596 	0.0005510967622 	3.722706518e-08 	0.002722446129 	-7.244073312e-08 	5.189738986e-06
0.6083262453 	0.001481303437 	0.0005550071837 	4.273038371e-08 	0.002722853492 	-8.399286254e-08 	5.190515534e-06
0.6122629626 	0.001481171276 	0.0005589859957 	4.785045007e-08 	0.002722989501 	-9.507185148e-08 	5.190774805e-06
0.6162404639 	0.001480981472 	0.000562962396 	5.259739064e-08 	0.00272290173 	-1.05677503e-07 	5.190607488e-06
0.6202729019 	0.001480731332 	0.0005669430553 	5.700187371e-08 	0.002722572034 	-1.158602042e-07 	5.189978997e-06
0.6243530268 	0.001480441113 	0.0005709818949 	6.101996368e-08 	0.002721930107 	-1.255509918e-07 	5.188755304e-06
0.6284756376 	0.001480087442 	0.0005750215123 	6.465954162e-08 	0.002721011717 	-1.347394139e-07 	5.187004598e-06
0.6326526999 	0.001479667269 	0.0005790625771 	6.79466605e-08 	0.002719801198 	-1.434611022e-07 	5.184697012e-06
0.6368792419 	0.00147919901 	0.000583153008 	7.084506584e-08 	0.002718232061 	-1.516572725e-07 	5.181705802e-06
0.6411500483 	0.001478659856 	0.0005872392611 	7.336888901e-08 	0.002716337711 	-1.593217463e-07 	5.178094645e-06
0.6454768345 	0.001478050157 	0.0005913264853 	7.554054226e-08 	0.002714095893 	-1.664791731e-07 	5.173821116e-06
0.6498531354 	0.001477385621 	0.0005954532199 	7.732768433e-08 	0.002711447128 	-1.730718795e-07 	5.168771833e-06
0.65427556 	0.001476642633 	0.0005995659665 	7.875542045e-08 	0.002708426634 	-1.791059184e-07 	5.163013933e-06
0.6587567266 	0.001475828896 	0.0006036837281 	7.852173255e-08 	0.002704996157 	-1.815465379e-07 	5.156474489e-06
0.6632864859 	0.001474951481 	0.0006078222074 	7.449229076e-08 	0.002701118822 	-1.752163325e-07 	5.149083212e-06
0.6678663167 	0.001473993108 	0.000611941084 	7.072925097e-08 	0.002696818136 	-1.693377049e-07 	5.14088491e-06
0.6725042632 	0.001472974189 	0.000616066735 	6.721915498e-08 	0.002692048028 	-1.638949498e-07 	5.131791757e-06
0.6771398434 	0.00147190217 	0.0006201566268 	6.399949922e-08 	0.002686847802 	-1.589837307e-07 	5.121878682e-06
0.6817269438 	0.001470787895 	0.0006241672285 	6.106967781e-08 	0.002681275474 	-1.545961678e-07 	5.111256276e-06
0.6862659936 	0.001469657382 	0.0006281207737 	5.841311184e-08 	0.002675315531 	-1.507163018e-07 	5.099894968e-06
0.6907531043 	0.001468500533 	0.0006319870261 	5.601318619e-08 	0.002669013899 	-1.47310322e-07 	5.087882306e-06
0.6951949272 	0.001467326519 	0.0006357763419 	5.383540495e-08 	0.002662375397 	-1.443209031e-07 	5.075227476e-06
0.6995877647 	0.001466148303 	0.000639507647 	5.186537839e-08 	0.002655391697 	-1.417495531e-07 	5.061914602e-06
0.7039307073 	0.001464953541 	0.0006431483713 	5.008662673e-08 	0.002648116185 	-1.395508544e-07 	5.048045455e-06
0.7082302496 	0.001463759128 	0.0006467189363 	4.847268658e-08 	0.002640538859 	-1.376798499e-07 	5.033600965e-06
0.7124812566 	0.001462573031 	0.0006502282579 	4.701219417e-08 	0.002632664724 	-1.361341502e-07 	5.018590676e-06
0.7166846618 	0.001461388215 	0.0006536532996 	4.569010281e-08 	0.002624538639 	-1.348676722e-07 	5.003100099e-06
0.7208449964 	0.001460223725 	0.0006570179966 	4.448705424e-08 	0.002616146156 	-1.338509834e-07 	4.987101693e-06
0.7249584804 	0.001459083286 	0.000660323808 	4.339430895e-08 	0.00260750228 	-1.330744667e-07 	4.970624063e-06
0.729026125 	0.001457963691 	0.0006635544836 	4.240018205e-08 	0.002598645418 	-1.324979796e-07 	4.953740423e-06
0.7330514326 	0.001456883703 	0.0006667324898 	4.149004199e-08 	0.002589562524 	-1.32098382e-07 	4.936425902e-06
0.7370316237 	0.001455846835 	0.0006698592846 	4.065732037e-08 	0.002580269059 	-1.318648117e-07 	4.918709975e-06
0.7409673456 	0.001454849614 	0.0006729193684 	3.989466615e-08 	0.002570804069 	-1.317638153e-07 	4.900667074e-06
0.744861872 	0.00145390982 	0.0006759317404 	3.919027177e-08 	0.002561158673 	-1.317722392e-07 	4.882280267e-06
0.7487129188 	0.001453034088 	0.0006789032363 	3.853889092e-08 	0.002551341044 	-1.318820787e-07 	4.863565139e-06
0.7525210598 	0.001452216138 	0.0006818162465 	3.793776122e-08 	0.002541394632 	-1.320661109e-07 	4.844604513e-06
0.7562885687 	0.001451472002 	0.0006846847011 	3.737731325e-08 	0.002531317725 	-1.323000489e-07 	4.825395127e-06
0.7600145333 	0.001450812685 	0.0006875220048 	3.685299715e-08 	0.002521108458 	-1.325783026e-07 	4.805933427e-06
0.7636991078 	0.00145022969 	0.0006903104281 	3.636563548e-08 	0.002510811662 	-1.328802715e-07 	4.786304871e-06
0.7673436288 	0.001449735279 	0.0006930568856 	3.590860988e-08 	0.002500436385 	-1.33181591e-07 	4.766526711e-06
0.7709484819 	0.001449343825 	0.0006957781713 	3.547784862e-08 	0.00248997493 	-1.334766734e-07 	4.74658427e-06
0.7745133872 	0.001449049597 	0.0006984634384 	3.507527782e-08 	0.002479462518 	-1.337514283e-07 	4.72654469e-06
0.7780389421 	0.001448857042 	0.0007011099603 	3.469919599e-08 	0.002468923509 	-1.33985646e-07 	4.706454411e-06
0.7815265585 	0.001448781169 	0.0007037322412 	3.434584054e-08 	0.002458353547 	-1.341680723e-07 	4.686305125e-06
0.784975603 	0.001448825422 	0.000706333073 	3.401579647e-08 	0.002447766484 	-1.342916514e-07 	4.66612324e-06
0.7883865467 	0.00144898527 	0.000708901892 	3.246435657e-08 	0.002437199661 	-1.293680325e-07 	4.645979938e-06
0.7917602851 	0.001449272436 	0.0007114460032 	3.097170199e-08 	0.002426661302 	-1.244126844e-07 	4.625890898e-06
0.7950971832 	0.001449698407 	0.0007139772387 	2.953897054e-08 	0.002416150295 	-1.19449862e-07 	4.605853996e-06
0.7983972724 	0.001450260231 	0.0007164904705 	2.817050179e-08 	0.002405694738 	-1.144972113e-07 	4.5859228e-06
0.8016609923 	0.001450959536 	0.0007189821725 	2.686946058e-08 	0.00239532215 	-1.095718954e-07 	4.566149763e-06
0.8048892448 	0.001451809291 	0.0007214624428 	2.563248658e-08 	0.002385035431 	-1.046797815e-07 	4.546540418e-06
0.8080820428 	0.001452817147 	0.0007239387165 	2.445615887e-08 	0.002374841016 	-9.982308164e-08 	4.52710703e-06
0.8112396897 	0.001453980426 	0.0007264061546 	2.334353719e-08 	0.002364768671 	-9.501729908e-08 	4.50790634e-06
0.8143625974 	0.00145530424 	0.0007288654863 	2.229493215e-08 	0.002354839793 	-9.02744549e-08 	4.48897914e-06
0.8174515457 	0.001456801611 	0.0007313270003 	2.130612236e-08 	0.002345057044 	-8.559679711e-08 	4.470330501e-06
0.8205065383 	0.00145847905 	0.0007337964031 	2.037417676e-08 	0.00233543105 	-8.0987221e-08 	4.45198068e-06
0.8235279445 	0.001460336733 	0.0007362718427 	1.949996626e-08 	0.002325988448 	-7.645704492e-08 	4.433980457e-06
0.8265161521 	0.0014623813 	0.0007387558846 	1.868237492e-08 	0.002316748999 	-7.201468514e-08 	4.4163675e-06
0.8294717838 	0.001464626397 	0.0007412585156 	1.79171078e-08 	0.002307717193 	-6.766150853e-08 	4.399150367e-06
0.8323949679 	0.001467080564 	0.0007437864916 	1.720052582e-08 	0.002298903543 	-6.339867893e-08 	4.382349101e-06
0.8352860472 	0.001469747314 	0.0007463410719 	1.653182727e-08 	0.002290331248 	-5.923417383e-08 	4.366007924e-06
0.8381453877 	0.001472634111 	0.0007489255263 	1.590926616e-08 	0.00228202142 	-5.517444221e-08 	4.350167081e-06
0.8409734693 	0.001475755669 	0.0007515494081 	1.532896068e-08 	0.002273982028 	-5.12218699e-08 	4.334841766e-06
0.8437705646 	0.001479124778 	0.0007542218793 	1.478630557e-08 	0.002266221508 	-4.737600052e-08 	4.320048058e-06
0.8465369613 	0.001482748423 	0.0007569468644 	1.42792868e-08 	0.002258760999 	-4.364272418e-08 	4.305826255e-06
0.8492730063 	0.001486636 	0.0007597289164 	1.380553433e-08 	0.002251622714 	-4.002757594e-08 	4.292218698e-06
0.851979068 	0.001490802796 	0.0007625768278 	1.336154325e-08 	0.002244820352 	-3.653436596e-08 	4.279251507e-06
0.8546555343 	0.001495266308 	0.0007655016698 	1.29422749e-08 	0.002238362493 	-3.316336348e-08 	4.266941032e-06
0.8573026396 	0.001500038698 	0.0007685105964 	1.254416409e-08 	0.002232267922 	-2.991840691e-08 	4.255323086e-06
0.859920713 	0.001505133278 	0.0007716106677 	1.216399338e-08 	0.002226557874 	-2.680464369e-08 	4.244438148e-06
0.862510079 	0.001510565539 	0.0007748100029 	1.179821392e-08 	0.002221253156 	-2.382683002e-08 	4.23432588e-06
0.8650710966 	0.00151635586 	0.0007781197529 	1.14424599e-08 	0.002216368375 	-2.098847956e-08 	4.22501413e-06
0.8676040616 	0.00152252496 	0.0007815517781 	1.109138594e-08 	0.002211916984 	-1.829175378e-08 	4.216528541e-06
0.8701092526 	0.001529089431 	0.0007851148167 	1.074116098e-08 	0.002207922341 	-1.574205218e-08 	4.208913641e-06
0.8725869784 	0.001536068974 	0.0007888189068 	1.03878147e-08 	0.002204406876 	-1.334472147e-08 	4.202212189e-06
0.8750375438 	0.001543485074 	0.0007926749367 	1.002728407e-08 	0.002201392923 	-1.110499846e-08 	4.196466757e-06
0.8774612751 	0.001551363196 	0.0007966958678 	9.655019531e-09 	0.002198898832 	-9.027476716e-09 	4.191712327e-06
0.8798584493 	0.001559729474 	0.0008008952828 	9.26573699e-09 	0.002196942284 	-7.116344913e-09 	4.187982601e-06
0.8822293439 	0.001568607448 	0.000805284775 	8.855438605e-09 	0.002195548744 	-5.377483644e-09 	4.185326128e-06
0.8845742495 	0.001578024313 	0.0008098774311 	8.420114538e-09 	0.002194741736 	-3.816334009e-09 	4.183787746e-06
0.886893453 	0.00158800926 	0.0008146871062 	7.955815171e-09 	0.002194544664 	-2.43789162e-09 	4.183412073e-06
0.8891872474 	0.001598595407 	0.0008197291999 	7.458495221e-09 	0.002194978127 	-1.246423004e-09 	4.184238373e-06
0.8914559102 	0.001609818816 	0.0008250205158 	6.923292179e-09 	0.002196059421 	-2.455250391e-10 	4.18629962e-06
0.8936997032 	0.001621714595 	0.0008305767603 	6.346451328e-09 	0.00219781101 	5.611481297e-10 	4.189638634e-06