0.4709558481 	2.731038229e-08 	-2.709288517e-11 	-1.595873487e-16 	2.72584171e-08 	7.946667312e-14 	5.196211907e-11
0.4711314108 	3.06575751e-07 	-1.188421279e-09 	-6.865597284e-15 	3.059918867e-07 	8.921687164e-13 	5.833055821e-10
0.4713069734 	1.708795272e-06 	-1.550906737e-08 	-8.791989396e-14 	1.705526305e-06 	4.973040767e-12 	3.251207163e-09
0.471482536 	5.690619802e-06 	-9.685470768e-08 	-5.386559911e-13 	5.679584239e-06 	1.655951859e-11 	1.082686612e-08
0.4716580986 	1.407057066e-05 	-3.942690771e-07 	-2.148966391e-12 	1.4042409e-05 	4.092728928e-11 	2.676873445e-08
0.4718336613 	2.885498732e-05 	-1.216266862e-06 	-6.487325291e-12 	2.879363835e-05 	8.384454317e-11 	5.488867748e-08
0.4720092239 	5.216567659e-05 	-3.095043647e-06 	-1.612367744e-11 	5.204319026e-05 	1.512755792e-10 	9.920878528e-08
0.4721847865 	8.618323546e-05 	-6.839660478e-06 	-3.471585816e-11 	8.594964855e-05 	2.490598523e-10 	1.638439186e-07
0.4723603491 	0.0001330804425 	-1.356395098e-05 	-6.687369967e-11 	0.0001326460463 	3.824713878e-10 	2.528602314e-07
0.4725359118 	0.0001949320954 	-2.467170304e-05 	-1.177200774e-10 	0.0001941393987 	5.556162678e-10 	3.700836522e-07
0.4727114744 	0.0002735930854 	-4.178202369e-05 	-1.921135285e-10 	0.0002721770498 	7.706847916e-10 	5.188451047e-07
0.472887037 	0.0003705437902 	-6.658506244e-05 	-2.93597228e-10 	0.0003680825627 	1.027165067e-09 	7.016676678e-07
0.4730625996 	0.0004867135396 	-0.0001006344742 	-4.232818874e-10 	0.0004825783005 	1.321227469e-09 	9.199283664e-07
0.4732381623 	0.0006223078678 	-0.0001451061351 	-5.789985286e-10 	0.0006156277209 	1.645545028e-09 	1.173557541e-06
0.4734137249 	0.0007766783558 	-0.0002005745409 	-7.550779905e-10 	0.0007663397993 	1.989753541e-09 	1.460856651e-06
0.4735892875 	0.0009482769728 	-0.0002668665988 	-9.429573371e-10 	0.0009329725003 	2.34156355e-09 	1.778504892e-06
0.4737648501 	0.001134723331 	-0.0003430378368 	-1.132512699e-09 	0.001113050032 	2.68830112e-09 	2.121782717e-06
0.4739404128 	0.001332984737 	-0.0004274807376 	-1.313724618e-09 	0.001303577468 	3.018485416e-09 	2.484980964e-06
0.4741159754 	0.001539643991 	-0.0005181327799 	-1.478118108e-09 	0.001501296409 	3.322658377e-09 	2.86188822e-06
0.474291538 	0.0017513044 	-0.0006130901787 	-1.629988401e-09 	0.001702989694 	3.595693819e-09 	3.246371678e-06
0.4744671006 	0.0019625908 	-0.0007033140528 	-1.566302841e-09 	0.00190503811 	3.815769907e-09 	3.631532115e-06
0.4746426632 	0.002169585531 	-0.000782093922 	-1.465472888e-09 	0.002104989712 	4.013608501e-09 	4.012695442e-06
0.4748182259 	0.002373150356 	-0.0008554865624 	-1.536991601e-09 	0.002302520421 	4.216069405e-09 	4.389243874e-06
0.4749937885 	0.002573795251 	-0.0009278228263 	-1.600958998e-09 	0.002497195656 	4.398809892e-09 	4.76034898e-06
0.4751693511 	0.002770550958 	-0.0009987585481 	-1.657429478e-09 	0.002688098463 	4.562054666e-09 	5.124262789e-06
0.4753449137 	0.002962616797 	-0.001068007057 	-1.706579629e-09 	0.002874459661 	4.706074114e-09 	5.479519028e-06
0.4755204764 	0.003149359608 	-0.001135338482 	-1.748803899e-09 	0.003055658715 	4.831934795e-09 	5.824934788e-06
0.475696039 	0.003330296083 	-0.001200578289 	-1.784566949e-09 	0.003231225496 	4.940892937e-09 	6.159613867e-06
0.4758716016 	0.003505080636 	-0.001263602233 	-1.814361258e-09 	0.003400826091 	5.034255893e-09 	6.482919741e-06
0.4760471642 	0.003673499232 	-0.001324332579 	-1.838671311e-09 	0.003564251859 	5.113236542e-09 	6.794454676e-06
0.4762227269 	0.003857499703 	-0.001390681151 	-1.860284984e-09 	0.003742795504 	5.187021019e-09 	7.134808487e-06
0.4764955107 	0.004076103348 	-0.00146950716 	-1.879177861e-09 	0.003954916784 	5.257535193e-09 	7.539170603e-06
0.4767734216 	0.004305146783 	-0.001552101014 	-1.891291686e-09 	0.004177175216 	5.312462235e-09 	7.962856947e-06
0.4770565557 	0.00452323176 	-0.001630748853 	-1.895897347e-09 	0.004388805126 	5.348209602e-09 	8.366282375e-06
0.4773450114 	0.004729928044 	-0.001705298933 	-1.894486426e-09 	0.004589385753 	5.368827905e-09 	8.748644798e-06
0.4776388886 	0.004925003012 	-0.001775676034 	-1.888482905e-09 	0.004778691954 	5.378321055e-09 	9.109515033e-06
0.4779382892 	0.005108397792 	-0.001841875002 	-1.879142505e-09 	0.004956666944 	5.380475151e-09 	9.44878483e-06
0.4782433171 	0.005280193975 	-0.001903952338 	-1.867472383e-09 	0.005123389622 	5.37877775e-09 	9.766604592e-06
0.4785540779 	0.005440583223 	-0.001962019096 	-1.854162728e-09 	0.005279045652 	5.376384233e-09 	1.006332825e-05
0.4788706795 	0.005589842544 	-0.002016235019 	-1.83953223e-09 	0.005423903574 	5.376078753e-09 	1.033946771e-05
0.4791932316 	0.005728317185 	-0.002066591847 	-1.820549244e-09 	0.005558298026 	5.380179131e-09 	1.059566089e-05
0.4795218461 	0.005856412094 	-0.002112801478 	-1.80841392e-09 	0.005682621339 	5.390416421e-09 	1.083265568e-05
0.4798566368 	0.005974576233 	-0.002155137353 	-1.807841307e-09 	0.005797308798 	5.40781979e-09 	1.105128185e-05
0.48019772 	0.006083266931 	-0.00219413222 	-1.809446057e-09 	0.005902804069 	5.433091775e-09 	1.125238516e-05
0.4805452138 	0.006182935705 	-0.002229930815 	-1.813570672e-09 	0.005999545078 	5.46688461e-09 	1.143680041e-05
0.4808992388 	0.006274035612 	-0.002262682931 	-1.820459726e-09 	0.0060879712 	5.5095975e-09 	1.160536517e-05
0.4812599177 	0.006357018641 	-0.002292541197 	-1.830251624e-09 	0.006168520741 	5.561357285e-09 	1.175891498e-05
0.4816273755 	0.006432331843 	-0.00231965887 	-1.842991492e-09 	0.006241627229 	5.622062512e-09 	1.189827627e-05
0.4820017397 	0.006500414014 	-0.002344188055 	-1.858648368e-09 	0.006307716187 	5.691436435e-09 	1.202426019e-05
0.48238314 	0.006561693136 	-0.002366278348 	-1.877134052e-09 	0.00636720265 	5.769083262e-09 	1.213765792e-05
0.4827717088 	0.006616584485 	-0.002386075828 	-1.898322499e-09 	0.006420489325 	5.854544429e-09 	1.223923714e-05
0.4831675807 	0.006665489301 	-0.002403722323 	-1.922068567e-09 	0.006467965291 	5.947350433e-09 	1.232973952e-05
0.4835708931 	0.006708793858 	-0.002419354888 	-1.948224832e-09 	0.006510005108 	6.047063871e-09 	1.24098791e-05
0.4839817856 	0.006746868886 	-0.002433105446 	-1.976655252e-09 	0.006546968241 	6.153310451e-09 	1.24803411e-05
0.4844004009 	0.006780069247 	-0.002445100557 	-2.007244587e-09 	0.006579198751 	6.265796081e-09 	1.254178141e-05
0.4848268841 	0.006808733846 	-0.0024554613 	-2.039902888e-09 	0.006607025202 	6.384309563e-09 	1.259482636e-05
0.485261383 	0.006833185755 	-0.002464303247 	-2.074564755e-09 	0.006630760786 	6.508711587e-09 	1.264007298e-05
0.4857040484 	0.006853732557 	-0.002471736537 	-2.111183469e-09 	0.006650703655 	6.638911557e-09 	1.267808963e-05
0.4861550336 	0.006870668101 	-0.002477866467 	-2.149717876e-09 	0.006667138621 	6.77482713e-09 	1.270941925e-05
0.4866144951 	0.006884273188 	-0.002482793702 	-2.190105811e-09 	0.006680337804 	6.916309821e-09 	1.273458056e-05
0.4870825921 	0.006894812398 	-0.002486613126 	-2.232280025e-09 	0.006690557579 	7.063187568e-09 	1.275406229e-05
0.487559487 	0.006902532373 	-0.002489413219 	-2.2762117e-09 	0.006698036906 	7.215383412e-09 	1.276831997e-05
0.4880453452 	0.006907663344 	-0.002491276598 	-2.321899552e-09 	0.006702998802 	7.372888246e-09 	1.277777872e-05
0.4885403351 	0.00691042014 	-0.002492280374 	-2.369347065e-09 	0.006705651318 	7.535701425e-09 	1.278283515e-05
0.4890446283 	0.006911002361 	-0.002492496212 	-2.41855914e-09 	0.006706187704 	7.70382232e-09 	1.278385765e-05
0.4895583997 	0.006909594549 	-0.002491990402 	-2.469539625e-09 	0.006704786589 	7.877241997e-09 	1.278118674e-05
0.4900818274 	0.006906366384 	-0.002490823925 	-2.522289535e-09 	0.006701612157 	8.055934182e-09 	1.277513539e-05
0.4906150929 	0.006901472896 	-0.002489052538 	-2.576805892e-09 	0.006696814363 	8.239845889e-09 	1.276598946e-05
0.4911583811 	0.006895054707 	-0.002486726861 	-2.633081414e-09 	0.006690529161 	8.428890195e-09 	1.275400812e-05
0.4917118805 	0.006887238296 	-0.002483892475 	-2.691105551e-09 	0.006682878767 	8.622945401e-09 	1.273942434e-05
0.4922757829 	0.006878136303 	-0.002480590032 	-2.750867465e-09 	0.006673971951 	8.821865401e-09 	1.272244547e-05
0.4928502838 	0.006867847846 	-0.002476855367 	-2.812361405e-09 	0.006663904345 	9.025504122e-09 	1.270325382e-05
0.4934355824 	0.006856458855 	-0.00247271961 	-2.875594445e-09 	0.006652758767 	9.233752315e-09 	1.268200725e-05
0.4940318817 	0.006844042408 	-0.002468209304 	-2.940596e-09 	0.006640605547 	9.446579241e-09 	1.265883983e-05
0.4946393885 	0.006830659043 	-0.002463346498 	-3.007428157e-09 	0.006627502823 	9.664068815e-09 	1.26338624e-05
0.4952583133 	0.00681635702 	-0.002458148838 	-3.076195898e-09 	0.006613496803 	9.886442842e-09 	1.260716303e-05
0.4958888709 	0.006801172519 	-0.002452629614 	-3.14705673e-09 	0.006598621953 	1.011407181e-08 	1.257880743e-05
0.4965312797 	0.00678512972 	-0.002446797777 	-3.22022994e-09 	0.006582901068 	1.034748126e-08 	1.254883906e-05
0.4971857627 	0.006768240738 	-0.0024406579 	-3.296006322e-09 	0.006566345219 	1.058736447e-08 	1.251727901e-05
0.4978525466 	0.006750505364 	-0.002434210066 	-3.374759622e-09 	0.006548953498 	1.08346102e-08 	1.248412556e-05
0.4985318627 	0.006731910585 	-0.002427449678 	-3.456960913e-09 	0.00653071255 	1.109034833e-08 	1.244935324e-05
0.4992239466 	0.006712429813 	-0.002420367177 	-3.5431968e-09 	0.006511595835 	1.135601083e-08 	1.241291147e-05
0.4999290382 	0.006692021834 	-0.002412947656 	-3.634192009e-09 	0.006491562604 	1.163340132e-08 	1.237472256e-05
0.5006473819 	0.006670629457 	-0.002405170371 	-3.73083616e-09 	0.006470556596 	1.192476574e-08 	1.233467927e-05
0.501379227 	0.006648177947 	-0.002397008195 	-3.834213428e-09 	0.006448504516 	1.223285814e-08 	1.229264188e-05
0.502124827 	0.006624573476 	-0.002388427081 	-3.945636262e-09 	0.006425314513 	1.256102052e-08 	1.224843529e-05
0.5028844406 	0.006599702061 	-0.00237938573 	-4.066694318e-09 	0.006400875149 	1.291336106e-08 	1.220184706e-05
0.5036583311 	0.006573429991 	-0.00236983587 	-4.199293611e-09 	0.006375055956 	1.329496638e-08 	1.215262851e-05
0.5044467669 	0.006545607891 	-0.002359723847 	-4.345434734e-09 	0.006347711403 	1.371105113e-08 	1.210050219e-05
0.5052500214 	0.006516082823 	-0.002348994767 	-4.506559591e-09 	0.006318691131 	1.416446633e-08 	1.204518149e-05
0.506068373 	0.006480684723 	-0.002336134261 	-4.707656474e-09 	0.006283893093 	1.472448521e-08 	1.197884675e-05
0.507324668 	0.006435047251 	-0.002319556522 	-4.984371154e-09 	0.006239023196 	1.549317541e-08 	1.189331226e-05
0.5085949819 	0.006383181124 	-0.00230071837 	-5.322126076e-09 	0.006188025996 	1.643261979e-08 	1.179609742e-05
0.5098794711 	0.006329241356 	-0.002281128689 	-5.693638123e-09 	0.006134988812 	1.74650207e-08 	1.169499381e-05
0.5111782938 	0.006273234697 	-0.002260789801 	-6.095587082e-09 	0.006079920915 	1.857845361e-08 	1.159001909e-05
0.5124916099 	0.006215174258 	-0.002239706664 	-6.526490636e-09 	0.006022837765 	1.97682456e-08 	1.148120274e-05
0.5138195812 	0.006155070207 	-0.002217883143 	-6.985602974e-09 	0.005963751111 	2.103183909e-08 	1.136856716e-05
0.5151623712 	0.00609292522 	-0.002195320388 	-7.472555019e-09 	0.005902665028 	2.236745028e-08 	1.12521201e-05
0.5165201452 	0.006028732667 	-0.002172016241 	-7.987339692e-09 	0.005839574606 	2.377440983e-08 	1.113185223e-05
0.5178930705 	0.005962476292 	-0.002147965116 	-8.530286294e-09 	0.005774465778 	2.525331619e-08 	1.10077367e-05
0.5192813161 	0.00589413061 	-0.002123158141 	-9.10200659e-09 	0.00570731575 	2.68058462e-08 	1.087973009e-05
0.520685053 	0.005823661603 	-0.002097583401 	-9.703324299e-09 	0.005638093718 	2.843435328e-08 	1.074777365e-05
0.522104454 	0.005751027512 	-0.002071226238 	-1.033519551e-08 	0.00556676166 	3.014142972e-08 	1.061179492e-05
0.523539694 	0.005676179614 	-0.002044069524 	-1.099864181e-08 	0.005493275092 	3.192961836e-08 	1.04717091e-05
0.5249909497 	0.005599062914 	-0.002016093916 	-1.169472036e-08 	0.005417583735 	3.380138957e-08 	1.032742034e-05
0.5264583998 	0.005519616717 	-0.001987278062 	-1.242453825e-08 	0.005339632048 	3.575937315e-08 	1.017882276e-05
0.527942225 	0.005437775035 	-0.001957598755 	-1.31892939e-08 	0.00525935961 	3.78066853e-08 	1.002580118e-05
0.5294426081 	0.005353466806 	-0.001927031004 	-1.399031468e-08 	0.005176701324 	3.994710606e-08 	9.868231514e-06
0.5309597337 	0.005266615883 	-0.001895548046 	-1.482906829e-08 	0.005091587413 	4.218496035e-08 	9.705980743e-06
0.5324937889 	0.005177140777 	-0.001863121252 	-1.570714974e-08 	0.005003943185 	4.452478523e-08 	9.538906484e-06
0.5340449624 	0.005084954123 	-0.001829719938 	-1.662626901e-08 	0.004913688545 	4.697101518e-08 	9.366856055e-06
0.5356134452 	0.004989961931 	-0.001795311088 	-1.758826112e-08 	0.004820737288 	4.952787472e-08 	9.189665125e-06
0.5371994306 	0.004892062742 	-0.001759859016 	-1.859509904e-08 	0.004724996316 	5.219947712e-08 	9.007156224e-06
0.5388031139 	0.004791147071 	-0.001723325101 	-1.964882756e-08 	0.004626365163 	5.49898651e-08 	8.819137832e-06
0.5404246925 	0.00468709795 	-0.001685667822 	-2.075126531e-08 	0.004524736581 	5.790245984e-08 	8.625405508e-06
0.5420643661 	0.004579794171 	-0.001646843622 	-2.190315297e-08 	0.004419999866 	6.09378693e-08 	8.42574822e-06
0.5437223366 	0.004469118924 	-0.001606809755 	-2.310227805e-08 	0.004312050576 	6.408881628e-08 	8.21996687e-06
0.5453988083 	0.004355014212 	-0.001565543951 	-2.430591303e-08 	0.004200845356 	6.724068009e-08 	8.007978813e-06
0.5470939875 	0.004237742502 	-0.00152313948 	-2.541230226e-08 	0.004086654509 	7.012520508e-08 	7.79029932e-06
0.5488080831 	0.004118018057 	-0.001479854343 	-2.634405956e-08 	0.00397018678 	7.254415654e-08 	7.568279459e-06
0.5505413061 	0.003996687325 	-0.001435997533 	-2.708943633e-08 	0.003852279593 	7.447238612e-08 	7.343515589e-06
0.5522938699 	0.003874540664 	-0.00139186025 	-2.764987212e-08 	0.003733715128 	7.590856e-08 	7.117498767e-06
0.5540659904 	0.003752385756 	-0.001347740675 	-2.801661064e-08 	0.003615288107 	7.681119206e-08 	6.891743949e-06
0.5558578859 	0.003631079092 	-0.00130395475 	-2.817624686e-08 	0.003497833559 	7.712308147e-08 	6.667842935e-06
0.5576697768 	0.003511533885 	-0.001260838557 	-2.811163654e-08 	0.003382230047 	7.679466672e-08 	6.447470513e-06
0.5595018865 	0.003394709735 	-0.001218743588 	-2.780570116e-08 	0.0032693845 	7.581875622e-08 	6.232355536e-06
0.5613544406 	0.003281563997 	-0.001178020509 	-2.725440148e-08 	0.00316019201 	7.427146981e-08 	6.0242043e-06
0.563227667 	0.003172940927 	-0.001138983674 	-2.649098459e-08 	0.003055449418 	7.233750819e-08 	5.824535808e-06
0.5651217966 	0.003069426487 	-0.001101832244 	-2.562167131e-08 	0.002955614754 	7.032763056e-08 	5.634223192e-06
0.5670370626 	0.002971061675 	-0.00106658872 	-2.481323217e-08 	0.00286066686 	6.848366722e-08 	5.453226116e-06
0.5689737009 	0.002874099841 	-0.001024431196 	-2.852549086e-08 	0.002768934402 	6.745796976e-08 	5.278358555e-06
0.5709319499 	0.002778389577 	-0.0009779196166 	-3.055701599e-08 	0.002679450456 	6.672895708e-08 	5.107777284e-06
0.5729120508 	0.002686260286 	-0.0009352557746 	-2.868448775e-08 	0.002592529868 	6.569678461e-08 	4.942082484e-06
0.5749142474 	0.00259649208 	-0.000892871319 	-2.905128537e-08 	0.002508020656 	6.466216897e-08 	4.780984438e-06
0.5769387863 	0.0025090742 	-0.0008503711966 	-2.93943425e-08 	0.002426071145 	6.34455346e-08 	4.624765894e-06
0.5789859169 	0.00242422254 	-0.0008078303117 	-2.964177031e-08 	0.002346791997 	6.206078638e-08 	4.473637804e-06
0.5810558911 	0.002342148903 	-0.000765351654 	-2.977306992e-08 	0.002270357156 	6.047727215e-08 	4.327931752e-06
0.583148964 	0.002263075232 	-0.0007230408844 	-2.978390488e-08 	0.002196954599 	5.869284396e-08 	4.188006079e-06
0.5852653933 	0.002187233209 	-0.000681005186 	-2.967456826e-08 	0.002126773619 	5.670786535e-08 	4.054221623e-06
0.5874054395 	0.002114855325 	-0.0006393520851 	-2.944855004e-08 	0.002060002575 	5.452486804e-08 	3.926937457e-06
0.5895693664 	0.002046165942 	-0.0005981871026 	-2.911131483e-08 	0.001996822537 	5.215168561e-08 	3.806498743e-06
0.5917574402 	0.001981372177 	-0.0005576112458 	-2.86694136e-08 	0.001937399092 	4.960254313e-08 	3.693221142e-06
0.5939699306 	0.001920654522 	-0.0005177185677 	-2.813012448e-08 	0.001881874286 	4.689825418e-08 	3.587375429e-06
0.5962071099 	0.001864157924 	-0.0004785938993 	-2.750139071e-08 	0.001830359231 	4.406595004e-08 	3.489173417e-06
0.5984692536 	0.001811984098 	-0.0004403109417 	-2.679179167e-08 	0.001782927877 	4.113826087e-08 	3.398756073e-06
0.6007566404 	0.001764185769 	-0.0004029309243 	-2.601039861e-08 	0.001739612523 	3.815190933e-08 	3.316184969e-06
0.6030695519 	0.001720763651 	-0.0003665019865 	-2.516650015e-08 	0.001700401742 	3.514564385e-08 	3.241438323e-06
0.6054082729 	0.001681667094 	-0.0003310593519 	-2.42692661e-08 	0.00166524157 	3.215734218e-08 	3.174413262e-06
0.6077730914 	0.001646799531 	-0.0002966260114 	-2.332757553e-08 	0.00163404107 	2.9220109e-08 	3.114936437e-06
0.6101642987 	0.001616029154 	-0.0002632145415 	-2.234929068e-08 	0.001606683202 	2.635777928e-08 	3.062784737e-06
0.6125821893 	0.001589205963 	-0.0002308268405 	-2.134041989e-08 	0.001583041219 	2.358191232e-08 	3.017716547e-06
0.6150270608 	0.001566181319 	-0.0001994846647 	-2.027744066e-08 	0.001562992514 	2.089096449e-08 	2.979498143e-06
0.6174992144 	0.001546859676 	-0.0001691703558 	-1.9249815e-08 	0.001546463482 	1.824186389e-08 	2.947989214e-06
0.6199989545 	0.001531197212 	-0.0001397082374 	-1.836111975e-08 	0.00153341945 	1.565256115e-08 	2.923123664e-06
0.622526589 	0.001519057785 	-0.0001109387258 	-1.75098077e-08 	0.001523718986 	1.325289102e-08 	2.904631883e-06
0.625082429 	0.001510159115 	-8.284501271e-05 	-1.664019834e-08 	0.001517077859 	1.11134788e-08 	2.89197205e-06
0.6276667894 	0.001504182861 	-5.540957465e-05 	-1.579396804e-08 	0.001513187106 	9.220732922e-09 	2.884555192e-06
0.6302799884 	0.001500842406 	-2.857923712e-05 	-1.497879489e-08 	0.001511771421 	7.553372702e-09 	2.881856503e-06
0.6329223478 	0.001499885184 	-2.302252264e-06 	-1.41938179e-08 	0.001512586492 	6.091907629e-09 	2.883410255e-06
0.6355941931 	0.001501089077 	2.346848494e-05 	-1.34372605e-08 	0.001515415644 	4.817927006e-09 	2.888803406e-06
0.6382958531 	0.001504258785 	4.877540311e-05 	-1.270709121e-08 	0.001520066969 	3.714479774e-09 	2.897670124e-06
0.6410276607 	0.001509222683 	7.36564945e-05 	-1.200116618e-08 	0.001526370486 	2.766108952e-09 	2.909686379e-06
0.6437899523 	0.001515830017 	9.814560445e-05 	-1.131731186e-08 	0.001534175677 	1.958750147e-09 	2.924565242e-06
0.646583068 	0.001523948387 	0.000122272743 	-1.065338443e-08 	0.001543349367 	1.279648376e-09 	2.942052846e-06
0.6494073518 	0.001533461536 	0.000146064405 	-1.000731028e-08 	0.00155377388 	7.172829275e-10 	2.961924865e-06
0.6522631514 	0.001544267406 	0.0001695438881 	-9.377112121e-09 	0.001565345418 	2.61290862e-10 	2.983983433e-06
0.6551508186 	0.001556276457 	0.0001927316043 	-8.760925508e-09 	0.001577972649 	-9.760995046e-11 	3.008054444e-06
0.658070709 	0.001569410201 	0.000215645378 	-8.157007367e-09 	0.001591575466 	-3.676975349e-10 	3.033985193e-06
0.6610231822 	0.001583599954 	0.0002383007317 	-7.563737734e-09 	0.001606083902 	-5.563201726e-10 	3.061642305e-06
0.6640086017 	0.001598785751 	0.000260711156 	-6.979618125e-09 	0.001621437181 	-6.699674875e-10 	3.090909922e-06
0.6670273351 	0.001614915442 	0.0002828883635 	-6.403268215e-09 	0.001637582889 	-7.143398873e-10 	3.121688129e-06
0.6700797543 	0.001631943919 	0.0003048425293 	-5.833419658e-09 	0.001654476254 	-6.944156568e-10 	3.153891578e-06
0.6731662352 	0.001649832471 	0.0003265825165 	-5.268908233e-09 	0.001672079523 	-6.145130514e-10 	3.187448302e-06
0.6762871577 	0.001668548256 	0.0003481160887 	-4.70866702e-09 	0.00169036143 	-4.783483667e-10 	3.222298697e-06
0.6794429063 	0.001688063872 	0.0003694501114 	-4.151719759e-09 	0.001709296742 	-2.890916455e-10 	3.258394665e-06
0.6826338695 	0.001708357017 	0.0003905907426 	-3.597173046e-09 	0.001728865886 	-4.941805978e-11 	3.295698892e-06
0.6858604404 	0.001729410231 	0.0004115436153 	-3.04420936e-09 	0.001749054637 	2.384458359e-10 	3.334184263e-06
0.6891230163 	0.00175121071 	0.000432314012 	-2.4920814e-09 	0.001769853882 	5.726786183e-10 	3.373833405e-06
0.6924219988 	0.001773750194 	0.0004529070339 	-1.940105572e-09 	0.001791259435 	9.518240113e-10 	3.414638338e-06
0.6957577944 	0.001797024909 	0.000473327766 	-1.387656156e-09 	0.001813271919 	1.374756326e-09 	3.45660025e-06
0.6991308138 	0.001821035576 	0.0004935814388 	-8.341620197e-10 	0.001835896703 	1.840648723e-09 	3.499729378e-06
0.7025414724 	0.001845787477 	0.0005136735894 	-2.791035465e-10 	0.001859143895 	2.348943686e-09 	3.544044987e-06
0.7059901901 	0.001871290573 	0.0005336102219 	2.779894371e-10 	0.00188302839 	2.899328105e-09 	3.589575472e-06
0.7094773917 	0.001897559678 	0.00055339797 	8.375363312e-10 	0.001907569975 	3.491710925e-09 	3.636358553e-06
0.7130035066 	0.001924614694 	0.0005730442616 	1.399902691e-09 	0.001932793493 	4.126201702e-09 	3.684441591e-06
0.7165689691 	0.001952480898 	0.00059255749 	1.96539462e-09 	0.001958729073 	4.803090967e-09 	3.733882013e-06
0.7201742182 	0.001981189301 	0.0006119471888 	2.534248455e-09 	0.001985412387 	5.522836148e-09 	3.784747826e-06
0.7238196978 	0.002010777091 	0.0006312242088 	3.106621513e-09 	0.002012884962 	6.286070581e-09 	3.83711819e-06
0.727505857 	0.002041288079 	0.0006504010291 	3.682585661e-09 	0.002041194729 	7.09356717e-09 	3.891084474e-06
0.7312331497 	0.002072774271 	0.0006694961238 	4.262020341e-09 	0.002070397262 	7.945868645e-09 	3.946752619e-06
0.7350020349 	0.002105215598 	0.0006885074144 	4.842559199e-09 	0.002100477485 	8.840555901e-09 	4.004093883e-06
0.7387709215 	0.002138405471 	0.000707371032 	5.417567983e-09 	0.002131239726 	9.769513055e-09 	4.062735265e-06
0.7424982157 	0.002172113443 	0.0007260296343 	5.980486692e-09 	0.002162464759 	1.072449827e-08 	4.122258858e-06
0.7461843763 	0.002206275498 	0.0007444913143 	6.528726461e-09 	0.0021940941 	1.170245222e-08 	4.182553172e-06
0.7498298574 	0.002240906706 	0.0007627818381 	7.061311196e-09 	0.002226146623 	1.270233109e-08 	4.24365419e-06
0.7534351078 	0.002276021753 	0.0007809207169 	7.576965338e-09 	0.002258640813 	1.372288211e-08 	4.305597146e-06
0.7570005716 	0.002311635798 	0.0007989255624 	8.074002743e-09 	0.002291595459 	1.476295602e-08 	4.368417861e-06
0.7605266877 	0.002347764284 	0.0008168122266 	8.550221766e-09 	0.00232502971 	1.582150542e-08 	4.432152836e-06
0.7640138905 	0.002384422825 	0.0008345947774 	9.002801216e-09 	0.002358962983 	1.689754998e-08 	4.496839085e-06
0.7674626093 	0.002421627028 	0.0008522854725 	9.428206844e-09 	0.002393415038 	1.799018928e-08 	4.562514278e-06
0.770873269 	0.002459392463 	0.0008698947425 	9.822107305e-09 	0.002428405881 	1.909841776e-08 	4.62921655e-06
0.7742462894 	0.002497735391 	0.0008874308751 	1.017913546e-08 	0.002463954183 	2.022034977e-08 	4.696981493e-06
0.777582086 	0.00253667232 	0.0009048988522 	1.049246346e-08 	0.002500077233 	2.135439222e-08 	4.765842067e-06
0.7808810695 	0.002576209176 	0.0009223049686 	1.075714865e-08 	0.002536812761 	2.251026906e-08 	4.835870193e-06
0.7841436462 	0.002616369483 	0.0009396860802 	1.098189217e-08 	0.002574188931 	2.367419022e-08 	4.907119561e-06
0.787370218 	0.002657680093 	0.0009585609867 	1.197776029e-08 	0.002612339167 	2.491620494e-08 	4.979844515e-06
0.7905611821 	0.002699920652 	0.0009773410082 	1.143380792e-08 	0.002651088511 	2.601070404e-08 	5.053711535e-06
0.7937169314 	0.00274268623 	0.0009935194554 	1.029681678e-08 	0.002690387743 	2.715025201e-08 	5.128626793e-06
0.7968378547 	0.002786811812 	0.001008990472 	1.08939443e-08 	0.00273086833 	2.85898966e-08 	5.205794043e-06
0.7999243362 	0.002832794976 	0.001025103407 	1.149254051e-08 	0.002773031042 	3.007736532e-08 	5.28616789e-06
0.8029767561 	0.002880560518 	0.001041874298 	1.208284037e-08 	0.002817015444 	3.158924466e-08 	5.370014385e-06
0.8059954902 	0.002929994477 	0.001059274558 	1.266235979e-08 	0.002862772538 	3.309900815e-08 	5.457240123e-06
0.8089809102 	0.002980972364 	0.001077256263 	1.323635252e-08 	0.002910167406 	3.461001194e-08 	5.547587915e-06
0.8119333839 	0.003033365973 	0.001095768097 	1.38085558e-08 	0.002959048168 	3.612408747e-08 	5.640768234e-06
0.8148532749 	0.003087053412 	0.0011147612 	1.4380217e-08 	0.003009269208 	3.76391318e-08 	5.736503493e-06
0.8177409426 	0.003141926357 	0.001134192606 	1.495087676e-08 	0.003060703345 	3.915123369e-08 	5.834551254e-06
0.8205967427 	0.003197893784 	0.00115402693 	1.551906294e-08 	0.003113247221 	4.065568595e-08 	5.934714485e-06
0.8234210268 	0.003254882393 	0.001174236382 	1.608279839e-08 	0.003166820977 	4.21474571e-08 	6.036840955e-06
0.8262141429 	0.003312834351 	0.001194799631 	1.663992172e-08 	0.003221364425 	4.362143479e-08 	6.140815926e-06
0.8289764348 	0.003371703376 	0.001215700087 	1.718824148e-08 	0.00327683167 	4.507248668e-08 	6.246551911e-06
0.8317082427 	0.003431450215 	0.001236924041 	1.772557483e-08 	0.003333185523 	4.649539702e-08 	6.353978018e-06
0.8344099031 	0.003492038314 	0.001258458943 	1.824972406e-08 	0.003390392494 	4.788474623e-08 	6.463030404e-06
0.8370817486 	0.003553430135 	0.001280291986 	1.875843025e-08 	0.003448418722 	4.923478687e-08 	6.573644523e-06
0.8397241082 	0.003615584313 	0.001302409022 	1.924932833e-08 	0.003507226938 	5.053934907e-08 	6.685749326e-06
0.8423373074 	0.003678453658 	0.001324793808 	1.97199159e-08 	0.003566774346 	5.179178949e-08 	6.799263236e-06
0.844921668 	0.003741983892 	0.001347427513 	2.016754022e-08 	0.003627011279 	5.298498442e-08 	6.914091573e-06
0.8474775082 	0.003806112979 	0.001370288455 	2.058940582e-08 	0.003687880432 	5.411136971e-08 	7.030125098e-06
0.8500051427 	0.003870770954 	0.001393352 	2.098261124e-08 	0.003749316578 	5.51630512e-08 	7.147239467e-06
0.8525048829 	0.003935880225 	0.001416590658 	2.134423958e-08 	0.003811246762 	5.61320543e-08 	7.265295609e-06
0.8549770366 	0.004001356524 	0.001439974417 	2.167154179e-08 	0.003873591163 	5.701082175e-08 	7.384141365e-06
0.8574219081 	0.004067110729 	0.001463471417 	2.196222446e-08 	0.003936264874 	5.779299681e-08 	7.503614877e-06
0.8598397987 	0.004133051566 	0.00148704896 	2.221474967e-08 	0.003999180594 	5.847424718e-08 	7.623549726e-06
0.862231006 	0.004199088538 	0.001510674607 	2.24284511e-08 	0.004062251599 	5.905259955e-08 	7.743780591e-06
0.8645958245 	0.00426513397 	0.001534316943 	2.260334329e-08 	0.004125393838 	5.9527944e-08 	7.864147249e-06
0.8669345455 	0.004331103404 	0.001557945729 	2.273974835e-08 	0.004188526394 	5.990103352e-08 	7.984495448e-06
0.8692474569 	0.004396914652 	0.001581531548 	2.283800023e-08 	0.004251570568 	6.017267794e-08 	8.104675165e-06
0.8715348435 	0.004462486574 	0.001605045347 	2.28983861e-08 	0.004314448643 	6.034356987e-08 	8.224538252e-06
0.8737969871 	0.004527738384 	0.001628458161 	2.292123825e-08 	0.004377083146 	6.041451847e-08 	8.343937023e-06
0.8760341663 	0.004592589544 	0.001651741066 	2.290702004e-08 	0.004439396673 	6.038667456e-08 	8.462723926e-06
0.8782466565 	0.004656960088 	0.001674865276 	2.285639094e-08 	0.004501312151 	6.026170563e-08 	8.580752036e-06
0.8804347301 	0.004720771173 	0.001697802344 	2.277023933e-08 	0.004562753334 	6.004188691e-08 	8.697876007e-06
0.8825986568 	0.004783945676 	0.001720524371 	2.264967909e-08 	0.004623645363 	5.973009503e-08 	8.813953138e-06
0.8847387028 	0.004846408775 	0.001743004218 	2.249603915e-08 	0.004683915315 	5.932978228e-08 	8.928844417e-06
0.8868551318 	0.00490808849 	0.001765215697 	2.23108476e-08 	0.004743492724 	5.884493571e-08 	9.042415518e-06
0.8889482045 	0.004968916181 	0.001787133761 	2.209581159e-08 	0.004802310069 	5.82800247e-08 	9.154537725e-06
0.8910181784 	0.005028826987 	0.001808734659 	2.185279402e-08 	0.004860303203 	5.763994002e-08 	9.265088756e-06
0.8930653087 	0.005087760207 	0.001829996082 	2.158378807e-08 	0.004917411733 	5.69299269e-08 	9.373953486e-06
0.8950898473 	0.005145659613 	0.001850897278 	2.129089042e-08 	0.00497357934 	5.615551429e-08 	9.481024557e-06
0.8970920436 	0.005202473703 	0.001871419151 	2.097627395e-08 	0.005028754037 	5.532244249e-08 	9.586202865e-06
0.8990721441 	0.005258155875 	0.001891544326 	2.064216067e-08 	0.005082888361 	5.443659131e-08 	9.689397932e-06
0.9010303927 	0.00531266455 	0.001911257202 	2.029079544e-08 	0.005135939504 	5.350391038e-08 	9.790528156e-06
0.9029670306 	0.005365963222 	0.001930543972 	1.992442104e-08 	0.005187869388 	5.25303529e-08 	9.889520946e-06
0.9048822962 	0.005418020446 	0.001949392626 	1.9545255e-08 	0.00523864467 	5.152181401e-08 	9.986312747e-06
0.9067764254 	0.005468809777 	0.001967792935 	1.915546843e-08 	0.005288236708 	5.048407442e-08 	1.008084896e-05
0.9086496514 	0.005518309648 	0.001985736408 	1.875716722e-08 	0.005336621461 	4.942275008e-08 	1.017308374e-05
0.910502205 	0.005566503202 	0.00200321624 	1.835237556e-08 	0.005383779348 	4.834324833e-08 	1.026297978e-05
0.9123343142 	0.005613378088 	0.002020227242 	1.794302206e-08 	0.005429695071 	4.725073066e-08 	1.035050791e-05
0.9141462048 	0.005658926207 	0.00203676575 	1.753092826e-08 	0.005474357388 	4.615008187e-08 	1.04356467e-05
0.9159380997 	0.005703143437 	0.002052829537 	1.711779957e-08 	0.005517758866 	4.50458857e-08 	1.051838198e-05
0.9177102197 	0.00574602932 	0.002068417697 	1.670521855e-08 	0.005559895602 	4.394240637e-08 	1.059870631e-05
0.9194627831 	0.005787586741 	0.002083530539 	1.629464029e-08 	0.005600766925 	4.284357589e-08 	1.067661841e-05
0.9211960055 	0.00582782158 	0.002098169462 	1.588738983e-08 	0.005640375077 	4.175298658e-08 	1.075212256e-05
0.9229101006 	0.005866742356 	0.00211233683 	1.548466133e-08 	0.00567872489 	4.067388833e-08 	1.082522796e-05
0.9246052793 	0.005904359871 	0.002126035855 	1.50875189e-08 	0.005715823458 	3.960919005e-08 	1.089594814e-05
0.9262817504 	0.005940686846 	0.00213927046 	1.469689874e-08 	0.0057516798 	3.856146477e-08 	1.09643003e-05