0.4709477638 	0.008027847395 	-1.226445641e-06 	-4.133247842e-10
0.4711221554 	0.02224136125 	-3.401068677e-06 	-1.111545866e-09
0.471296547 	0.04444694905 	-7.001603034e-06 	-2.336069847e-09
0.4714709388 	0.06661469068 	-1.096797421e-05 	-3.835202725e-09
0.4716453306 	0.0887410968 	-1.524611968e-05 	-5.578498598e-09
0.4718197225 	0.1108215205 	-1.980470043e-05 	-7.557124543e-09
0.4719941144 	0.1328491662 	-2.462702159e-05 	-9.773210145e-09
0.4721685065 	0.1548137889 	-2.969830245e-05 	-1.222833778e-08
0.4723428986 	0.1767001809 	-3.500413079e-05 	-1.492142596e-08
0.4725172908 	0.1984866169 	-4.053161073e-05 	-1.784920968e-08
0.4726916831 	0.2201435198 	-4.626873391e-05 	-2.100638665e-08
0.4728660755 	0.2416326811 	-5.220170071e-05 	-2.438558965e-08
0.4730404679 	0.2629073854 	-5.831145824e-05 	-2.797744987e-08
0.4732148605 	0.2839136984 	-6.457163956e-05 	-3.177075142e-08
0.4733892531 	0.3045929731 	-7.094906334e-05 	-3.575267556e-08
0.4735636458 	0.3248853353 	-7.740486337e-05 	-3.990918957e-08
0.4737380385 	0.3447336337 	-8.389942499e-05 	-4.422510998e-08
0.4739124314 	0.3640871872 	-9.043028667e-05 	-4.868242504e-08
0.4740868243 	0.3829047246 	-9.712040733e-05 	-5.325853575e-08
0.4742612173 	0.4011562011 	-0.0001037628963 	-5.796614497e-08
0.4744356104 	0.418838536 	-0.0001099827655 	-6.277974357e-08
0.4746100035 	0.4359868705 	-0.0001162187492 	-6.764235788e-08
0.4747843968 	0.4526412966 	-0.0001228348232 	-7.25871483e-08
0.4749587901 	0.4688176513 	-0.000129448416 	-7.761709383e-08
0.4751331835 	0.484519879 	-0.0001359003637 	-8.269188215e-08
0.475307577 	0.4997527548 	-0.0001423008942 	-8.780384436e-08
0.4754819705 	0.5145223502 	-0.0001486671798 	-9.294391988e-08
0.4756563641 	0.528835807 	-0.0001549879514 	-9.810171524e-08
0.4758307578 	0.5427011575 	-0.0001612589622 	-1.032678121e-07
0.4760051516 	0.5561277636 	-0.0001674873688 	-1.084340282e-07
0.4761795455 	0.5709029419 	-0.0001745131031 	-1.142650446e-07
0.4764505135 	0.5886621631 	-0.0001831619677 	-1.216075092e-07
0.4767265746 	0.6075860592 	-0.0001926558889 	-1.296839032e-07
0.4770078244 	0.6260073399 	-0.0002022178576 	-1.378412726e-07
0.4772943605 	0.6439324606 	-0.0002118285199 	-1.460652582e-07
0.4775862823 	0.6613688438 	-0.0002214738461 	-1.543451715e-07
0.477883691 	0.678325324 	-0.0002311473132 	-1.626737977e-07
0.4781866897 	0.6948117921 	-0.0002408433239 	-1.710466857e-07
0.4784953834 	0.7108387875 	-0.0002505562216 	-1.794617724e-07
0.4788098793 	0.7264172378 	-0.0002602805508 	-1.879189406e-07
0.4791302864 	0.7415588093 	-0.000270010908 	-1.964193954e-07
0.4794567158 	0.7562771961 	-0.0002797429096 	-2.049656123e-07
0.4797892807 	0.7705874219 	-0.0002894728343 	-2.135610097e-07
0.4801280965 	0.7845031559 	-0.0002991961358 	-2.222084475e-07
0.4804732805 	0.7980365267 	-0.0003089081382 	-2.309102014e-07
0.4808249525 	0.8111992373 	-0.0003186044581 	-2.396685447e-07
0.4811832346 	0.8240027707 	-0.000328280565 	-2.484852518e-07
0.4815482508 	0.8364584047 	-0.0003379313927 	-2.573611905e-07
0.4819201278 	0.8485786905 	-0.0003475548857 	-2.662993946e-07
0.4822991814 	0.8603767623 	-0.0003571510404 	-2.753120907e-07
0.4826854948 	0.8718624108 	-0.0003667150843 	-2.843994804e-07
0.4830790692 	0.8830433493 	-0.0003762407438 	-2.935537951e-07
0.4834800412 	0.8939286277 	-0.000385724875 	-3.027744761e-07
0.4838885498 	0.9045280408 	-0.000395165411 	-3.120617891e-07
0.4843047367 	0.9148511441 	-0.0004045602295 	-3.214159379e-07
0.4847287461 	0.9249072744 	-0.0004139074017 	-3.308372137e-07
0.4851607251 	0.9347055685 	-0.000423205227 	-3.403260472e-07
0.4856008235 	0.9442549813 	-0.0004324522054 	-3.498830422e-07
0.486049194 	0.9535643025 	-0.0004416470257 	-3.595090074e-07
0.486505992 	0.9626421696 	-0.000450788529 	-3.692049828e-07
0.4869713759 	0.9714970839 	-0.0004598756661 	-3.789722423e-07
0.4874455071 	0.9801374293 	-0.0004689075032 	-3.888122912e-07
0.4879285501 	0.9885714913 	-0.0004778832206 	-3.987268703e-07
0.4884206723 	0.996807474 	-0.0004868020781 	-4.087179488e-07
0.4889220444 	1.004853511 	-0.0004956633881 	-4.187877134e-07
0.4894328402 	1.012717676 	-0.0005044664965 	-4.289385575e-07
0.489953237 	1.020407987 	-0.0005132107602 	-4.391730727e-07
0.4904834151 	1.027932411 	-0.0005218955301 	-4.494940453e-07
0.4910235584 	1.035298863 	-0.0005305201397 	-4.599044589e-07
0.4915738543 	1.04251521 	-0.0005390838091 	-4.70407442e-07
0.4921344935 	1.049589264 	-0.0005475853418 	-4.810060715e-07
0.4927056705 	1.056529142 	-0.0005560240936 	-4.917044883e-07
0.4932877038 	1.063343831 	-0.0005644019675 	-5.025172453e-07
0.493881014 	1.070041437 	-0.0005727184488 	-5.134620497e-07
0.494485476 	1.076628116 	-0.0005809692535 	-5.245190115e-07
0.4951012995 	1.083110428 	-0.0005891517387 	-5.35690652e-07
0.4957286979 	1.089495817 	-0.0005972641668 	-5.469811611e-07
0.4963678888 	1.095791677 	-0.0006053042215 	-5.583949262e-07
0.4970190939 	1.102005376 	-0.0006132691492 	-5.699366115e-07
0.4976825391 	1.108144276 	-0.0006211557845 	-5.816111666e-07
0.4983584543 	1.114215771 	-0.0006289605365 	-5.934238573e-07
0.499047074 	1.120227322 	-0.0006366793913 	-6.053802959e-07
0.499748637 	1.126186503 	-0.0006443079241 	-6.174864475e-07
0.5004633866 	1.132101034 	-0.0006518413143 	-6.297486036e-07
0.5011915706 	1.137978802 	-0.0006592743467 	-6.421733106e-07
0.5019334415 	1.143827833 	-0.0006666012813 	-6.5476719e-07
0.5026892566 	1.14965617 	-0.0006738153002 	-6.675364928e-07
0.5034592781 	1.155471736 	-0.0006809084072 	-6.804873105e-07
0.5042438613 	1.1612824 	-0.0006878743545 	-6.936351394e-07
0.5050436692 	1.167093524 	-0.0006947043625 	-7.070145345e-07
0.5058585101 	1.173645124 	-0.0007022147347 	-7.217100978e-07
0.5071094171 	1.181603294 	-0.0007110098619 	-7.413084562e-07
0.5083742844 	1.190130147 	-0.0007200076875 	-7.621076844e-07
0.5096532679 	1.198482874 	-0.0007283556808 	-7.829845559e-07
0.5109465251 	1.206666308 	-0.0007360374476 	-8.039279525e-07
0.5122542152 	1.214687841 	-0.0007430432419 	-8.249300447e-07
0.5135764994 	1.222556036 	-0.000749366221 	-8.459873335e-07
0.5149135406 	1.230280975 	-0.0007550029058 	-8.671050089e-07
0.5162662944 	1.237872712 	-0.0007599455303 	-8.883454976e-07
0.5176342307 	1.245338722 	-0.0007641799678 	-9.096481611e-07
0.5190174329 	1.252685963 	-0.0007676934166 	-9.310075368e-07
0.5204160715 	1.259922016 	-0.0007704719175 	-9.524253574e-07
0.5218303186 	1.267054036 	-0.0007725003764 	-9.73902766e-07
0.5232603485 	1.27408863 	-0.0007737628045 	-9.954400299e-07
0.5247063373 	1.281032028 	-0.0007742429356 	-1.017037212e-06
0.5261686128 	1.287890741 	-0.0007739263953 	-1.038709036e-06
0.5276479262 	1.294670357 	-0.0007727959905 	-1.060493148e-06
0.5291437481 	1.301374322 	-0.0007708333809 	-1.082323085e-06
0.5306562627 	1.308005923 	-0.0007680231181 	-1.10419644e-06
0.5321856561 	1.314568874 	-0.0007643494746 	-1.126110443e-06
0.5337321168 	1.321066518 	-0.0007597971327 	-1.148062037e-06
0.5352958352 	1.327501938 	-0.0007543513472 	-1.170047969e-06
0.5368770803 	1.333878668 	-0.000747999953 	-1.192073763e-06
0.5384767466 	1.34019975 	-0.0007407293431 	-1.214183524e-06
0.5400942639 	1.346466377 	-0.0007325271605 	-1.236300079e-06
0.5417298313 	1.35267958 	-0.0007233855602 	-1.258415494e-06
0.5433836504 	1.358840655 	-0.0007132978986 	-1.280517168e-06
0.5450559248 	1.364950024 	-0.0007022615732 	-1.302586473e-06
0.5467468603 	1.371006902 	-0.0006902850396 	-1.324595025e-06
0.5484571216 	1.377007875 	-0.0006773977065 	-1.346534031e-06
0.5501868379 	1.382943983 	-0.0006636613621 	-1.368328348e-06
0.551935856 	1.388799572 	-0.0006491833416 	-1.389887516e-06
0.5537043912 	1.39455309 	-0.0006341237024 	-1.411156372e-06
0.5554926614 	1.400177726 	-0.0006186946128 	-1.432083433e-06
0.5573008867 	1.405642698 	-0.0006031527808 	-1.452602425e-06
0.5591296733 	1.410914949 	-0.0005877808298 	-1.472620917e-06
0.560979278 	1.415960523 	-0.0005728562244 	-1.491918979e-06
0.5628495219 	1.420747898 	-0.0005586117019 	-1.510180705e-06
0.5647406352 	1.42525378 	-0.0005452222084 	-1.527151745e-06
0.5666528508 	1.429470539 	-0.0005328161709 	-1.542955357e-06
0.5685864042 	1.433417152 	-0.0005210215885 	-1.558590411e-06
0.570542153 	1.437154477 	-0.0005096084229 	-1.574442575e-06
0.572519863 	1.440754901 	-0.0004988294826 	-1.590655256e-06
0.5745196412 	1.444247887 	-0.0004882504426 	-1.60720835e-06
0.5765417339 	1.447631554 	-0.0004776551788 	-1.623214277e-06
0.5785863901 	1.450901809 	-0.0004673558902 	-1.638581188e-06
0.580654223 	1.454054242 	-0.0004574021931 	-1.653476898e-06
0.5827454845 	1.457083872 	-0.0004478441184 	-1.66785539e-06
0.584860081 	1.45998532 	-0.0004387620978 	-1.681665472e-06
0.5869982727 	1.462753368 	-0.0004302428222 	-1.694897734e-06
0.5891603231 	1.465383167 	-0.0004223739526 	-1.707542158e-06
0.5913468362 	1.467870252 	-0.0004152438403 	-1.719605089e-06
0.5935580815 	1.47021041 	-0.0004089398102 	-1.731049923e-06
0.5957940003 	1.472399921 	-0.0004035466367 	-1.741837606e-06
0.5980548679 	1.474435995 	-0.0003991430498 	-1.751957336e-06
0.6003409626 	1.476316944 	-0.0003958003519 	-1.761402519e-06
0.6026530526 	1.478042076 	-0.0003935795326 	-1.770191413e-06
0.6049910812 	1.479611535 	-0.0003925296198 	-1.778281898e-06
0.6073551978 	1.481026487 	-0.0003926874867 	-1.785670927e-06
0.6097456934 	1.482289208 	-0.000394076696 	-1.792368752e-06
0.6121630337 	1.483402941 	-0.0003967079211 	-1.798397666e-06
0.6146077555 	1.484371699 	-0.0004005791977 	-1.803759661e-06
0.6170797555 	1.485200225 	-0.0004056777165 	-1.808438819e-06
0.6195793382 	1.485894253 	-0.0004119729307 	-1.812467991e-06
0.6221068308 	1.486460965 	-0.0004194120625 	-1.815884401e-06
0.6246630389 	1.486908967 	-0.0004279274464 	-1.818725374e-06
0.6272477691 	1.487247317 	-0.0004374399438 	-1.820975678e-06
0.6298613396 	1.487484562 	-0.0004478655109 	-1.822652256e-06
0.6325040724 	1.4876284 	-0.0004591260256 	-1.823763176e-06
0.6351767681 	1.487685661 	-0.0004711495039 	-1.824320976e-06
0.637879297 	1.487662389 	-0.0004838672029 	-1.824288672e-06
0.6406119808 	1.487563938 	-0.0004972153848 	-1.823670973e-06
0.6433751986 	1.487395022 	-0.0005111358509 	-1.822474972e-06
0.6461696471 	1.487159773 	-0.0005255744108 	-1.820696922e-06
0.6489952759 	1.486861827 	-0.0005404798069 	-1.818305858e-06
0.651852433 	1.486504356 	-0.0005558052152 	-1.815305898e-06
0.6547416225 	1.486090098 	-0.0005715078182 	-1.811704685e-06
0.6576632951 	1.485621425 	-0.0005875474108 	-1.807479171e-06
0.6606175679 	1.485100392 	-0.0006038861524 	-1.802615916e-06
0.6636048046 	1.484528737 	-0.0006204895108 	-1.797120711e-06
0.6666256648 	1.483907905 	-0.0006373253498 	-1.790995466e-06
0.669680296 	1.483239125 	-0.000654362713 	-1.784209815e-06
0.6727690111 	1.4825234 	-0.0006715728296 	-1.776768071e-06
0.6758923155 	1.481761501 	-0.0006889287534 	-1.76867888e-06
0.6790506612 	1.48095402 	-0.0007064045379 	-1.759919699e-06
0.6822442482 	1.480101397 	-0.0007239751463 	-1.75048559e-06
0.6854734979 	1.479203887 	-0.0007416168234 	-1.740387656e-06
0.6887390312 	1.47826158 	-0.0007593065307 	-1.729616275e-06
0.6920410019 	1.477274462 	-0.0007770212466 	-1.718157611e-06
0.6953798168 	1.476242363 	-0.0007947387568 	-1.706024851e-06
0.698756113 	1.475164956 	-0.0008124370754 	-1.69321765e-06
0.7021701015 	1.474041828 	-0.0008300937891 	-1.679718946e-06
0.7056221843 	1.472872422 	-0.0008476867454 	-1.665544245e-06
0.7091129689 	1.471656035 	-0.0008651934489 	-1.650697125e-06
0.7126427354 	1.470391867 	-0.0008825907007 	-1.635162847e-06
0.7162118886 	1.469078977 	-0.0008998550257 	-1.61895963e-06
0.7198210316 	1.46771627 	-0.0009169620989 	-1.602091993e-06
0.723470467 	1.466302542 	-0.0009338865353 	-1.584550574e-06
0.7271606282 	1.464836425 	-0.0009506019722 	-1.566357994e-06
0.7308921198 	1.46331638 	-0.0009670810954 	-1.547516669e-06
0.7346652493 	1.461744964 	-0.0009832532604 	-1.528067497e-06
0.7384384104 	1.460134382 	-0.0009989605971 	-1.508222869e-06
0.7421700295 	1.458497809 	-0.001014059631 	-1.488181975e-06
0.7458604665 	1.456839584 	-0.001028509056 	-1.468023456e-06
0.7495102185 	1.455159707 	-0.001042312082 	-1.447795305e-06
0.7531197524 	1.453458115 	-0.001055473196 	-1.427516736e-06
0.756689452 	1.451734707 	-0.001067998296 	-1.407227308e-06
0.7602197968 	1.449989323 	-0.001079894571 	-1.386967128e-06
0.7637112218 	1.448221774 	-0.001091171053 	-1.366752012e-06
0.7671641163 	1.446431847 	-0.001101839285 	-1.34661747e-06
0.7705789354 	1.444619298 	-0.001111912779 	-1.326596664e-06
0.7739561018 	1.442783876 	-0.001121403368 	-1.306699847e-06
0.7772959987 	1.440925336 	-0.001130322807 	-1.286985278e-06
0.7805990549 	1.439043433 	-0.001138742593 	-1.267653111e-06
0.7838656901 	1.437137828 	-0.001146693645 	-1.248418393e-06
0.7870962757 	1.435203311 	-0.001154009859 	-1.229147469e-06
0.7902912146 	1.433225186 	-0.001160527646 	-1.209975216e-06
0.7934509267 	1.43118544 	-0.001166023621 	-1.190495462e-06
0.7965757693 	1.429069971 	-0.001170282897 	-1.170658313e-06
0.7996661275 	1.426869605 	-0.001173325735 	-1.150694316e-06
0.802722403 	1.424579774 	-0.001175231667 	-1.130681062e-06
0.8057449565 	1.422199897 	-0.001176062405 	-1.110709121e-06
0.8087341544 	1.419732386 	-0.001175858532 	-1.090859717e-06
0.811690371 	1.417181496 	-0.001174644264 	-1.071174282e-06
0.8146139778 	1.414552249 	-0.001172432977 	-1.05166004e-06
0.8175053211 	1.411849571 	-0.001169232436 	-1.032324246e-06
0.8203647569 	1.409077704 	-0.001165048529 	-1.013177288e-06
0.8231926472 	1.406239921 	-0.001159887853 	-9.942268115e-07
0.8259893348 	1.403338488 	-0.001153759678 	-9.754741661e-07
0.8287551595 	1.400374772 	-0.001146677027 	-9.569284871e-07
0.831490462 	1.397349447 	-0.001138656911 	-9.385982113e-07
0.8341955884 	1.394262725 	-0.001129720325 	-9.204865378e-07
0.8368708632 	1.391114583 	-0.00111989208 	-9.025953553e-07
0.8395166151 	1.387904935 	-0.001109200389 	-8.849329735e-07
0.8421331699 	1.384633745 	-0.001097676372 	-8.675076457e-07
0.8447208566 	1.381301104 	-0.001085353812 	-8.503231111e-07
0.8472799872 	1.377907256 	-0.001072268968 	-8.33382614e-07
0.8498108765 	1.37445259 	-0.001058460187 	-8.166930598e-07
0.8523138363 	1.370937598 	-0.001043967398 	-8.002601812e-07
0.8547891789 	1.367362849 	-0.00102883169 	-7.840858713e-07
0.8572372056 	1.363728957 	-0.001013095005 	-7.681696159e-07
0.8596582172 	1.360036565 	-0.0009967998173 	-7.525142528e-07
0.8620525118 	1.356286343 	-0.000979988936 	-7.371218467e-07
0.8644203861 	1.352479004 	-0.000962705484 	-7.219928963e-07
0.8667621311 	1.348615324 	-0.0009449930261 	-7.071243004e-07
0.8690780339 	1.344696156 	-0.0009268956241 	-6.925162124e-07
0.8713683797 	1.340722437 	-0.0009084577393 	-6.781687923e-07
0.8736334505 	1.336695184 	-0.0008897241183 	-6.640816376e-07
0.8758735272 	1.332615492 	-0.0008707396414 	-6.502515366e-07
0.8780888836 	1.328484523 	-0.0008515491696 	-6.366752644e-07
0.8802797925 	1.324303494 	-0.0008321972753 	-6.233510962e-07
0.8824465238 	1.320073662 	-0.0008127279878 	-6.102767983e-07
0.8845893445 	1.315796304 	-0.0007931845396 	-5.974495168e-07
0.8867085191 	1.311472707 	-0.0007736091622 	-5.848638465e-07
0.8888043077 	1.307104151 	-0.0007540428958 	-5.72515539e-07
0.8908769682 	1.302691893 	-0.000734525341 	-5.6040085e-07
0.892926756 	1.298237147 	-0.0007150944847 	-5.485157069e-07
0.8949539235 	1.293741074 	-0.0006957865188 	-5.368556662e-07
0.8969587209 	1.289204765 	-0.0006766357194 	-5.254144746e-07
0.8989413945 	1.284629228 	-0.0006576743541 	-5.141867563e-07
0.9009021883 	1.280015373 	-0.0006389325537 	-5.03167684e-07
0.9028413438 	1.275364 	-0.0006204382487 	-4.923523038e-07
0.9047590998 	1.270675786 	-0.0006022171169 	-4.817355699e-07
0.9066556928 	1.265951273 	-0.0005842925497 	-4.713116317e-07
0.9085313561 	1.261190859 	-0.0005666856719 	-4.61074402e-07
0.9103863205 	1.256394788 	-0.0005494153393 	-4.510188512e-07
0.9122208145 	1.251563136 	-0.0005324981506 	-4.411399749e-07
0.914035064 	1.246695808 	-0.0005159485049 	-4.31432817e-07
0.9158292924 	1.241792528 	-0.0004997786383 	-4.21892438e-07
0.9176037208 	1.236852828 	-0.0004839987018 	-4.12513159e-07
0.9193585675 	1.231876048 	-0.0004686168503 	-4.032899666e-07
0.9210940486 	1.226861322 	-0.0004536393052 	-3.942183108e-07
0.9228103778 	1.22180758 	-0.0004390704487 	-3.852937501e-07
0.9245077665 	1.216713537 	-0.0004249129255 	-3.765119628e-07
0.9261864236 	1.21157769 	-0.000411167729 	-3.678687253e-07
0.9278465561 	1.206398316 	-0.0003978343116 	-3.593593863e-07
0.9294883681 	1.201173465 	-0.0003849106988 	-3.509797646e-07
0.9311120619 	1.195900956 	-0.0003723935793 	-3.427260808e-07
0.9327178375 	1.190578374 	-0.0003602784111 	-3.345946762e-07
0.9343058925 	1.185203064 	-0.0003485595318 	-3.265820126e-07
0.9358764224 	1.17977213 	-0.0003372302589 	-3.186846683e-07
0.9374296209 	1.174282421 	-0.0003262829863 	-3.108991783e-07
0.9389656789 	1.168730536 	-0.0003157092995 	-3.032219603e-07
0.9404847858 	1.163112809 	-0.0003055000754 	-2.956499278e-07
0.9419871286 	1.157425309 	-0.0002956455728 	-2.881801097e-07
0.9434728922 	1.151663827 	-0.0002861355413 	-2.808096248e-07
0.9449422596 	1.14582388 	-0.000276959323 	-2.735356749e-07
0.9463954118 	1.139900701 	-0.000268105953 	-2.663555342e-07
0.9478325277 	1.133889246 	-0.0002595642597 	-2.592664416e-07
0.9492537843 	1.1277842 	-0.0002513229814 	-2.522655688e-07
0.9506593566 	1.121579993 	-0.0002433708768 	-2.453503942e-07
0.9520494176 	1.115270829 	-0.0002356968391 	-2.385184881e-07
0.9534241385 	1.108850731 	-0.0002282900324 	-2.317675311e-07
0.9547836887 	1.102313604 	-0.0002211400394 	-2.250953524e-07
0.9561282354 	1.095653318 	-0.0002142370239 	-2.18499971e-07
0.9574579444 	1.08886381 	-0.0002075718682 	-2.119796132e-07
0.9587729793 	1.081939202 	-0.0002011362345 	-2.055325646e-07
0.9600735021 	1.074873911 	-0.0001949227362 	-1.991573253e-07
0.9613596729 	1.067662701 	-0.0001889259183 	-1.928528533e-07
0.9626316501 	1.060300603 	-0.0001831416234 	-1.86618659e-07
0.9638895903 	1.053425225 	-0.0001780213772 	-1.809091993e-07
0.9647090145 	1.047754567 	-0.0001739903088 	-1.764391696e-07
0.9655133219 	1.042706444 	-0.0001705399734 	-1.724976997e-07
0.9663027912 	1.037636769 	-0.0001671985591 	-1.686271421e-07
0.9670776964 	1.032540527 	-0.0001639554269 	-1.648247113e-07
0.9678383059 	1.027412299 	-0.0001608013447 	-1.610883203e-07
0.9685848837 	1.022246446 	-0.0001577279177 	-1.57415845e-07
0.9693176884 	1.017037203 	-0.0001547274035 	-1.538051377e-07
0.9700369743 	1.011778729 	-0.0001517927394 	-1.502540943e-07
0.9707429906 	1.00646512 	-0.0001489175197 	-1.467606637e-07
0.9714359823 	1.001090412 	-0.0001460959324 	-1.433228528e-07
0.9721161895 	0.9956485731 	-0.0001433226916 	-1.399387299e-07
0.9727838481 	0.9901334934 	-0.000140592975 	-1.366064264e-07
0.9734391897 	0.9845389747 	-0.0001379023695 	-1.333241377e-07
0.9740824414 	0.9788587214 	-0.0001352468235 	-1.30090123e-07
0.9747138263 	0.973086335 	-0.0001326226081 	-1.269027051e-07
0.9753335633 	0.9672153118 	-0.0001300262838 	-1.237602705e-07
0.9759418673 	0.9612390439 	-0.0001274546751 	-1.206612699e-07
0.9765389492 	0.9551508237 	-0.0001249048488 	-1.176042195e-07
0.977125016 	0.9489438511 	-0.0001223740979 	-1.145877032e-07
0.977700271 	0.9426112417 	-0.0001198599284 	-1.116103744e-07
0.9782649135 	0.9361460379 	-0.0001173600487 	-1.086709584e-07
0.9788191394 	0.9295412185 	-0.0001148723626 	-1.057682489e-07
0.9793631409 	0.9227897092 	-0.0001123949629 	-1.029011213e-07
0.9798971065 	0.9158843915 	-0.0001099261266 	-1.00068533e-07
0.9804212214 	0.9088181094 	-0.0001074643111 	-9.726952241e-08
0.9809356674 	0.9015836744 	-0.0001050081508 	-9.450321018e-08
0.9814406227 	0.8941738679 	-0.0001025564549 	-9.17688003e-08
0.9819362625 	0.8865814404 	-0.0001001082056 	-8.906558052e-08
0.9824227587 	0.8787991086 	-9.766255827e-05 	-8.639292255e-08
0.9829002799 	0.8708195482 	-9.521883463e-05 	-8.37502828e-08
0.9833689917 	0.862635385 	-9.277651228e-05 	-8.113720198e-08
0.9838290566 	0.8542391814 	-9.033523844e-05 	-7.855330254e-08
0.9842806342 	0.8456234242 	-8.789483576e-05 	-7.599828985e-08
0.9847238809 	0.8367805127 	-8.545528205e-05 	-7.347195383e-08
0.9851589505 	0.8277027467 	-8.301670498e-05 	-7.097416679e-08
0.9855859939 	0.8183823126 	-8.057938893e-05 	-6.850488382e-08
0.9860051591 	0.8088112699 	-7.814377359e-05 	-6.606414482e-08
0.9864165915 	0.7989815374 	-7.571045061e-05 	-6.365207561e-08
0.9868204336 	0.7888848815 	-7.328016161e-05 	-6.126888927e-08
0.9872168256 	0.7785129082 	-7.085379637e-05 	-5.891488764e-08
0.9876059049 	0.7678570569 	-6.843239066e-05 	-5.659046276e-08
0.9879878064 	0.7569086014 	-6.601712398e-05 	-5.429609793e-08
0.9883626624 	0.7456586552 	-6.360931679e-05 	-5.203236759e-08
0.9887306031 	0.7340981861 	-6.121042646e-05 	-4.979993375e-08
0.9890917559 	0.7222180367 	-5.882204404e-05 	-4.759953686e-08
0.989446246 	0.710008949 	-5.644590452e-05 	-4.543198742e-08
0.9897941965 	0.6974615644 	-5.408392391e-05 	-4.329817765e-08
0.9901357279 	0.6845662755 	-5.173819046e-05 	-4.119913038e-08
0.9904709586 	0.67131248 	-4.941076294e-05 	-3.913588154e-08
0.9908000049 	0.6576889339 	-4.710386738e-05 	-3.710947276e-08
0.991122981 	0.6436856222 	-4.481996462e-05 	-3.512116064e-08
0.9914399986 	0.6292938745 	-4.256147307e-05 	-3.317231297e-08
0.9917511679 	0.6145054843 	-4.033087511e-05 	-3.126430234e-08
0.9920565967 	0.5993127265 	-3.813078665e-05 	-2.939857155e-08
0.9923563908 	0.5837086189 	-3.59640235e-05 	-2.757662691e-08
0.9926506543 	0.5676872555 	-3.383387155e-05 	-2.580002379e-08
0.9929394891 	0.5512441641 	-3.174335846e-05 	-2.40703472e-08
0.9932229954 	0.534376608 	-2.969039044e-05 	-2.238920842e-08
0.9935012716 	0.517083252 	-2.766984227e-05 	-2.075837593e-08
0.993774414 	0.5008883138 	-2.587450359e-05 	-1.931061472e-08
0.9939502075 	0.4874415718 	-2.446925004e-05 	-1.817053328e-08
0.994126001 	0.4752447873 	-2.323925382e-05 	-1.717994393e-08
0.9943017945 	0.4626732955 	-2.200596867e-05 	-1.620181415e-08
0.9944775881 	0.4497212202 	-2.077542359e-05 	-1.523723831e-08
0.9946533816 	0.4363840189 	-1.954786581e-05 	-1.428743793e-08
0.9948291751 	0.4226581118 	-1.837155939e-05 	-1.33537449e-08
0.9950049687 	0.4085409464 	-1.740181514e-05 	-1.243892243e-08
0.9951807622 	0.3940299227 	-1.61971161e-05 	-1.154140563e-08
0.9953565558 	0.3791007771 	-1.461036397e-05 	-1.065983578e-08
0.9955323493 	0.3637100559 	-1.345478854e-05 	-9.801224481e-09
0.9957081429 	0.3478433556 	-1.256052315e-05 	-8.967385074e-09
0.9958839365 	0.3315178892 	-1.148712764e-05 	-8.156074136e-09
0.9960597301 	0.3147596789 	-1.042092502e-05 	-7.369546959e-09
0.9962355236 	0.2976029736 	-9.406495311e-06 	-6.610672501e-09
0.9964113172 	0.2800889288 	-8.438149212e-06 	-5.881920343e-09
0.9965871108 	0.2622635057 	-7.509230466e-06 	-5.185590575e-09
0.9967629044 	0.2441748281 	-6.616289318e-06 	-4.523936052e-09
0.996938698 	0.2258703819 	-5.757577217e-06 	-3.899165583e-09
0.9971144916 	0.2073944827 	-4.934303836e-06 	-3.313433465e-09
0.9972902852 	0.1887863535 	-4.151438948e-06 	-2.768833543e-09
0.9974660788 	0.1700790002 	-3.416713187e-06 	-2.267390113e-09
0.9976418724 	0.1512988892 	-2.738655497e-06 	-1.811049942e-09
0.9978176661 	0.1324662929 	-2.124894501e-06 	-1.401684076e-09
0.9979934597 	0.1135960956 	-1.581377618e-06 	-1.04109796e-09
0.9981692533 	0.09469883819 	-1.112465138e-06 	-7.310383442e-10
0.998345047 	0.07578181529 	-7.215450672e-07 	-4.732230919e-10
0.9985208406 	0.05685008718 	-4.118768241e-07 	-2.695300553e-10
0.9986966343 	0.03790732306 	-1.871060013e-07 	-1.223247977e-10
0.9988724279 	0.01895643453 	-4.723466261e-08 	-3.230140938e-11
0.9990482216 	0.007936227685 	1.640236295e-09 	-1.194931234e-12
