0.2974940496 	2.567143651e-08 	-5.545646884e-11 	9.584600634e-15 	2.557211691e-08 	-1.454297943e-12 	4.874756223e-11
0.2977032251 	3.723280466e-07 	-3.349824647e-09 	1.089099951e-12 	3.685736614e-07 	-6.086752887e-11 	7.026038384e-10
0.2979124097 	2.221331832e-06 	-4.772918089e-08 	1.857730165e-11 	2.173681934e-06 	-4.448362604e-10 	4.14364191e-09
0.2981216023 	7.727044668e-06 	-3.111988371e-07 	1.337415554e-10 	7.429171753e-06 	-1.696112679e-09 	1.416206619e-08
0.2983308017 	1.972616595e-05 	-1.293132514e-06 	5.923373081e-10 	1.851192529e-05 	-4.482745199e-09 	3.528887472e-08
0.2985400069 	4.151150749e-05 	-4.008506116e-06 	1.912609765e-09 	3.778486174e-05 	-9.405086985e-09 	7.202844823e-08
0.2987492165 	7.667424966e-05 	-1.011022234e-05 	4.928284434e-09 	6.732813805e-05 	-1.681613846e-08 	1.28346144e-07
0.2989584294 	0.0001288341588 	-2.184633607e-05 	1.067451957e-08 	0.0001087089408 	-2.666315494e-08 	2.072294553e-07
0.2991676445 	0.0002011943727 	-4.177872405e-05 	2.006097301e-08 	0.0001627933503 	-3.838996119e-08 	3.103293717e-07
0.2993768607 	0.0002959523728 	-7.226997674e-05 	3.339497619e-08 	0.0002296255361 	-5.093182503e-08 	4.377300929e-07
0.2995860767 	0.0004137024821 	-0.0001148686491 	4.996398974e-08 	0.0003083913297 	-6.279880759e-08 	5.878795873e-07
0.2997952915 	0.0005530310594 	-0.000169813001 	6.792465169e-08 	0.0003974642708 	-7.220153079e-08 	7.576773696e-07
0.3000045038 	0.000710495402 	-0.0002358988573 	8.489393215e-08 	0.0004945000801 	-7.707743627e-08 	9.426545919e-07
0.3002137125 	0.0008791586093 	-0.0003066541033 	7.364121322e-08 	0.0005984797424 	-8.733724589e-08 	1.140868728e-06
0.3004229164 	0.001050410049 	-0.0003720216545 	5.380260497e-08 	0.0007099580921 	-9.614617663e-08 	1.353377446e-06
0.3006321145 	0.001221766035 	-0.0004326826359 	5.247178107e-08 	0.0008258180302 	-9.243432632e-08 	1.57423869e-06
0.3008413056 	0.001393450516 	-0.0004934518032 	4.854966983e-08 	0.0009419045359 	-8.372045892e-08 	1.795531834e-06
0.3010504885 	0.001563243422 	-0.0005535554566 	4.183384598e-08 	0.001056713576 	-6.952324361e-08 	2.014389774e-06
0.3012596621 	0.00172921314 	-0.0006123445764 	3.226731815e-08 	0.00116891691 	-4.944355953e-08 	2.228280514e-06
0.3014688252 	0.001889750257 	-0.0006693260212 	1.997450992e-08 	0.001277358097 	-2.316262849e-08 	2.434999557e-06
0.3016779767 	0.002043565971 	-0.0007241868468 	5.215569648e-09 	0.001381038833 	9.614550726e-09 	2.632643856e-06
0.3018871155 	0.002189663038 	-0.0007767905263 	-1.174730696e-08 	0.001479092943 	4.915176497e-08 	2.819562242e-06
0.3020962405 	0.002327278355 	-0.0008271348922 	-3.084637923e-08 	0.001570766477 	9.562095538e-08 	2.994317478e-06
0.3023053504 	0.00245580811 	-0.0008752767699 	-5.238059227e-08 	0.001655411443 	1.490141106e-07 	3.155674308e-06
0.3025144442 	0.002574734671 	-0.0009212448249 	-7.707683902e-08 	0.001732492026 	2.090613415e-07 	3.302611324e-06
0.3027235208 	0.002683574031 	-0.0009649672034 	-1.06009171e-07 	0.001801597477 	2.751804334e-07 	3.434345519e-06
0.3029325789 	0.002781854193 	-0.00100623285 	-1.380319481e-07 	0.001862455651 	3.40606094e-07 	3.550358114e-06
0.3031416175 	0.00286912344 	-0.001044692393 	-1.716686738e-07 	0.001914944575 	3.9906177e-07 	3.650416592e-06
0.3033506355 	0.0029449812 	-0.001079891444 	-2.093745034e-07 	0.001959097049 	4.549557866e-07 	3.734583477e-06
0.3035596318 	0.003009130747 	-0.001111315788 	-2.508693428e-07 	0.001995073362 	5.069106747e-07 	3.803164331e-06
0.3037686051 	0.003067784041 	-0.001141795353 	-3.030198041e-07 	0.002026541467 	5.611243333e-07 	3.863151284e-06
0.3040932534 	0.003119318391 	-0.001170926704 	-3.689577397e-07 	0.002052459464 	6.135528025e-07 	3.91255819e-06
0.3044239396 	0.003149487597 	-0.001191038497 	-4.415694174e-07 	0.002065619973 	6.567209434e-07 	3.937645778e-06
0.3047607701 	0.003152650161 	-0.001197621794 	-5.080141582e-07 	0.002064410575 	6.81241257e-07 	3.935340329e-06
0.3051038528 	0.003130321948 	-0.001190291489 	-5.612694685e-07 	0.002050672727 	6.868718801e-07 	3.909152172e-06
0.3054532974 	0.003084953583 	-0.001169580256 	-5.940744303e-07 	0.002026404809 	6.751014492e-07 	3.862890776e-06
0.3058092146 	0.003020296759 	-0.001137659277 	-5.967242948e-07 	0.001993436474 	6.48933281e-07 	3.800043966e-06
0.306171717 	0.002941747044 	-0.00109886386 	-5.669570381e-07 	0.001953319446 	6.104303068e-07 	3.723569762e-06
0.3065409184 	0.002854672035 	-0.001057336999 	-5.170054661e-07 	0.001907807005 	5.595461517e-07 	3.636810399e-06
0.306916934 	0.002762974785 	-0.001015187493 	-4.556736459e-07 	0.001859067415 	4.972308072e-07 	3.543899194e-06
0.3072998807 	0.00266994852 	-0.0009738262629 	-3.850213379e-07 	0.001809346356 	4.256814684e-07 	3.449117037e-06
0.3076898765 	0.002578836108 	-0.0009347926475 	-3.093383404e-07 	0.001760837839 	3.465977033e-07 	3.35664632e-06
0.3080870409 	0.002492524041 	-0.0008994488849 	-2.341686068e-07 	0.00171573711 	2.613045419e-07 	3.270671795e-06
0.3084914948 	0.002413302748 	-0.000868758798 	-1.649853874e-07 	0.001676250156 	1.722505197e-07 	3.195398687e-06
0.3089033604 	0.002342771389 	-0.0008431387967 	-1.06329121e-07 	0.001644307304 	8.557038516e-08 	3.134506733e-06
0.3093227611 	0.002281309019 	-0.000821576927 	-9.71285791e-08 	0.001621258326 	-1.919765761e-09 	3.090568975e-06
0.3097498216 	0.002223760173 	-0.0007930480117 	-1.626130539e-07 	0.001610071349 	-8.980082155e-08 	3.069243488e-06
0.310184668 	0.002166024885 	-0.0007501438066 	-1.717094888e-07 	0.001611211641 	-1.39671981e-07 	3.071417201e-06
0.3106274272 	0.002113019062 	-0.0007050405235 	-1.238383166e-07 	0.001619766949 	-1.610499972e-07 	3.087725996e-06
0.3110782274 	0.002067500324 	-0.0006649679411 	-9.765804494e-08 	0.001634002884 	-1.785533918e-07 	3.114863645e-06
0.311537198 	0.002027691285 	-0.0006271389226 	-8.000400764e-08 	0.001655087245 	-1.827045602e-07 	3.155056296e-06
0.3120044692 	0.001992650505 	-0.0005904916761 	-6.485754685e-08 	0.00168256267 	-1.709084925e-07 	3.207432093e-06
0.3124801721 	0.001961703691 	-0.0005546922261 	-4.885172036e-08 	0.001715290336 	-1.450513449e-07 	3.269820121e-06
0.3129644388 	0.001934343779 	-0.0005200191927 	-3.263487843e-08 	0.001752135445 	-1.07890119e-07 	3.34005714e-06
0.313457402 	0.001910070375 	-0.0004866493693 	-1.68353576e-08 	0.00179220224 	-6.136944579e-08 	3.416435585e-06
0.3139606955 	0.001888293573 	-0.000454516988 	-1.700957393e-09 	0.001835098059 	-6.793202185e-09 	3.49820694e-06
0.3140196842 	0.001886083428 	-0.0004510427707 	1.571174023e-07 	0.00184018641 	2.139028569e-07 	3.50790675e-06
0.3144864039 	0.001868529737 	-0.0004234480979 	-1.318918212e-08 	0.001880596397 	-5.313149486e-08 	3.584939417e-06
0.3150214844 	0.001850613554 	-0.0003936584178 	-2.706328566e-08 	0.001927741755 	-1.189678491e-07 	3.674811573e-06
0.3155662914 	0.001834409833 	-0.0003654258633 	-3.980257151e-08 	0.001975694426 	-1.900704013e-07 	3.766222692e-06
0.3161209968 	0.001819649466 	-0.0003386902812 	-5.137110386e-08 	0.002024039806 	-2.655176607e-07 	3.858382423e-06
0.3166857751 	0.001806101098 	-0.0003133790483 	-6.177879788e-08 	0.002072436997 	-3.445295089e-07 	3.950640921e-06
0.3172608041 	0.001793565686 	-0.0002894068213 	-7.106720372e-08 	0.002120604482 	-4.264427254e-07 	4.042461534e-06
0.3178462644 	0.001781870074 	-0.0002666822505 	-7.929681583e-08 	0.002168314019 	-5.106900195e-07 	4.133409172e-06
0.3184423396 	0.001770863164 	-0.0002451123916 	-8.653620012e-08 	0.002215382151 	-5.967833046e-07 	4.223134114e-06
0.3190492165 	0.001760412882 	-0.0002246060158 	-9.28532973e-08 	0.002261662749 	-6.843005444e-07 	4.311357797e-06
0.3196670849 	0.001750403556 	-0.0002050760249 	-9.830854672e-08 	0.002307040931 	-7.728761783e-07 	4.397861223e-06
0.320296138 	0.001740733703 	-0.0001864410768 	-1.029498409e-07 	0.002351428014 	-8.621939093e-07 	4.48247534e-06
0.3209365718 	0.001731314443 	-0.0001686263084 	-1.06813951e-07 	0.00239475667 	-9.519690599e-07 	4.565071801e-06
0.3215885862 	0.001722068956 	-0.000151562893 	-1.099413027e-07 	0.002436975104 	-1.041902082e-06 	4.645551871e-06
0.3222523839 	0.001712930843 	-0.000135188534 	-1.123516334e-07 	0.002478044858 	-1.131728303e-06 	4.723842237e-06
0.3229281712 	0.001703832257 	-0.0001194573044 	-1.137748812e-07 	0.002517962441 	-1.221866285e-06 	4.799936244e-06
0.3236161579 	0.001694680992 	-0.0001043579876 	-1.132993938e-07 	0.002556805306 	-1.314354292e-06 	4.873981541e-06
0.3243165573 	0.001685456173 	-8.9821474e-05 	-1.131037036e-07 	0.002594511616 	-1.403836915e-06 	4.945860248e-06
0.3250295861 	0.001676170541 	-7.551245851e-05 	-1.234815322e-07 	0.00263085306 	-1.484214346e-06 	5.01513714e-06
0.3257554648 	0.001666902389 	-6.062426817e-05 	-1.596402868e-07 	0.002663312843 	-1.421515868e-06 	5.077014509e-06
0.3264944175 	0.001657834434 	-4.427204409e-05 	-2.009982051e-07 	0.002687563405 	-1.081261607e-06 	5.12324282e-06
0.3272466721 	0.001649085802 	-2.629832608e-05 	-2.26589536e-07 	0.002702181812 	-8.019949227e-07 	5.151109567e-06
0.3280124601 	0.001640669417 	-7.422202216e-06 	-2.2089789e-07 	0.00270976611 	-6.636295209e-07 	5.165567347e-06
0.3287920171 	0.001632484413 	1.133843353e-05 	-1.936869273e-07 	0.002714243488 	-5.886302793e-07 	5.174102473e-06
0.3295855824 	0.001624432688 	2.928726674e-05 	-1.603822777e-07 	0.002717500205 	-5.170606196e-07 	5.180310681e-06
0.3304044215 	0.001616451559 	4.620334627e-05 	-1.281972249e-07 	0.002719615114 	-4.481077024e-07 	5.184342285e-06
0.3312516186 	0.001608561772 	6.203826343e-05 	-9.831609559e-08 	0.002720637245 	-3.816011301e-07 	5.186290751e-06
0.3321139468 	0.001600874101 	7.66471822e-05 	-7.129646299e-08 	0.002720615928 	-3.188802637e-07 	5.186250115e-06
0.3329916665 	0.00159343501 	8.992511132e-05 	-4.794910655e-08 	0.002719644261 	-2.599464604e-07 	5.184397848e-06
0.3338850422 	0.001586249307 	0.0001018771773 	-2.888592687e-08 	0.002717824553 	-2.045868498e-07 	5.180928977e-06
0.3347943428 	0.001579319387 	0.0001125264833 	-1.444937569e-08 	0.002715258043 	-1.525475624e-07 	5.176036497e-06
0.3357198416 	0.001572643391 	0.0001219157668 	-4.774565178e-09 	0.002712043352 	-1.035397085e-07 	5.169908403e-06
0.3366618167 	0.001566221436 	0.0001301100592 	1.971097926e-10 	0.002708272345 	-5.725265659e-08 	5.162719815e-06
0.3376205503 	0.001560057181 	0.000137205422 	7.049385539e-10 	0.002704026651 	-1.337301504e-08 	5.154626343e-06
0.3379264957 	0.00155820014 	0.0001390796293 	7.569558326e-08 	0.002702572302 	-1.570972221e-07 	5.151853949e-06
0.338594552 	0.001554126845 	0.0001431801501 	1.354307e-09 	0.002699383209 	-2.867389552e-08 	5.145774651e-06
0.3395850516 	0.001547793736 	0.0001482965191 	6.883879919e-09 	0.00269383735 	-6.870365403e-08 	5.135202703e-06
0.3411037153 	0.001540539396 	0.0001528508838 	2.028747593e-08 	0.002686765353 	-1.261472132e-07 	5.121721511e-06
0.3426370071 	0.001533108522 	0.0001564686778 	3.942241515e-08 	0.002678841102 	-1.794440901e-07 	5.106615685e-06
0.3441850697 	0.001526124949 	0.0001590367763 	6.194404791e-08 	0.002670873579 	-2.296342881e-07 	5.091427372e-06
0.3457480479 	0.001519453191 	0.0001608274508 	8.631359731e-08 	0.002662953748 	-2.773292569e-07 	5.076329973e-06
0.3473669816 	0.001513007406 	0.0001621081159 	1.119630009e-07 	0.002655121524 	-3.243742524e-07 	5.061399578e-06
0.3490055772 	0.001506816915 	0.0001631134186 	1.377437849e-07 	0.002647477784 	-3.698528282e-07 	5.046828484e-06
0.3506597448 	0.001500897966 	0.0001639309309 	1.63121467e-07 	0.002640137262 	-4.139549632e-07 	5.032835411e-06
0.3523296368 	0.001495225956 	0.0001646650845 	1.477320859e-07 	0.002633136928 	-3.590866457e-07 	5.019490827e-06
0.3540154081 	0.00148978569 	0.0001653838609 	1.285947206e-07 	0.002626494291 	-3.020924565e-07 	5.006828114e-06
0.3557172157 	0.001484565313 	0.0001661270811 	1.08316362e-07 	0.002620218314 	-2.473910227e-07 	4.994864358e-06
0.3574352186 	0.001479553627 	0.0001669111286 	8.732427587e-08 	0.002614313005 	-1.946579184e-07 	4.983607198e-06
0.3591695786 	0.001474752834 	0.0001677712258 	6.587487095e-08 	0.002608768045 	-1.436553326e-07 	4.973036964e-06
0.3609204596 	0.001470133736 	0.0001686759355 	4.408443191e-08 	0.002603564601 	-9.418728525e-08 	4.963117753e-06
0.3627191701 	0.001465653124 	0.0001696209755 	2.158981392e-08 	0.002598676387 	-4.522036806e-08 	4.953799458e-06
0.3644419757 	0.001461587834 	0.0001705939201 	-9.099640815e-10 	0.00259437396 	-4.308953149e-08 	4.945597837e-06
0.3645511443 	0.00146132891 	0.0001706551383 	1.351946431e-09 	0.00259409954 	-2.809830515e-09 	4.945074716e-06
0.3663965782 	0.001457178053 	0.0001717468904 	2.41332468e-08 	0.002589842963 	-4.92106078e-08 	4.936960496e-06
0.3682594268 	0.00145321144 	0.000172896922 	4.716287241e-08 	0.002585929208 	-9.439113992e-08 	4.929499793e-06
0.3701398671 	0.001449420022 	0.0001741092226 	7.045390437e-08 	0.002582346147 	-1.384320909e-07 	4.922669483e-06
0.3720380791 	0.001445797369 	0.0001753784363 	9.401842062e-08 	0.002579083396 	-1.814029337e-07 	4.916449772e-06
0.3739542458 	0.001442344914 	0.0001767180845 	1.178749813e-07 	0.002576124644 	-2.23371872e-07 	4.910809569e-06
0.3758885531 	0.0014390495 	0.0001781111358 	1.420341196e-07 	0.002573455998 	-2.643939718e-07 	4.905722387e-06
0.3778638087 	0.001435875599 	0.0001795362748 	1.667890664e-07 	0.00257106741 	-3.049996625e-07 	4.901169075e-06
0.379884383 	0.001432824727 	0.0001810381797 	1.688708216e-07 	0.002568945212 	-3.033459545e-07 	4.897123575e-06
0.3819238389 	0.001429923196 	0.000182614691 	1.456273282e-07 	0.002567092811 	-2.570165151e-07 	4.893592384e-06
0.3839823744 	0.001427170291 	0.0001842400116 	1.221134209e-07 	0.002565514999 	-2.117973603e-07 	4.890584636e-06
0.3860601911 	0.001424554443 	0.0001859191243 	9.832379282e-08 	0.002564202618 	-1.676309299e-07 	4.888082874e-06
0.3881574941 	0.001422073033 	0.0001876524145 	7.424769389e-08 	0.002563145909 	-1.24459647e-07 	4.886068492e-06
0.390274492 	0.001419731985 	0.0001894645043 	4.988593317e-08 	0.002562326756 	-8.223489125e-08 	4.88450696e-06
0.3924170564 	0.001417502391 	0.0001913005686 	2.514731276e-08 	0.002561754088 	-4.077669408e-08 	4.883415295e-06
0.3945853924 	0.001415402424 	0.0001931628406 	1.772375456e-10 	0.002561427739 	-1.061707628e-08 	4.882793183e-06
0.3946244435 	0.00141536432 	0.0001931962301 	4.459030035e-10 	0.002561421477 	-7.232219573e-10 	4.882781246e-06
0.3968485406 	0.001413334681 	0.0001951782851 	2.571635514e-08 	0.002561289355 	-4.105382663e-08 	4.882529384e-06
0.3990933791 	0.001411431352 	0.0001972027145 	5.12462449e-08 	0.00256138505 	-8.054625753e-08 	4.882711806e-06
0.4013591875 	0.001409638722 	0.0001992732095 	7.703697771e-08 	0.002561702457 	-1.192454703e-07 	4.883316872e-06
0.4036461983 	0.001407961727 	0.0002014119128 	1.030917263e-07 	0.0025622261 	-1.571990836e-07 	4.884315081e-06
0.4059546488 	0.00140639533 	0.0002036042845 	1.294117755e-07 	0.002562955463 	-1.944501547e-07 	4.88570545e-06
0.4083080945 	0.001404915615 	0.0002058339809 	1.562744369e-07 	0.002563902904 	-2.314178612e-07 	4.887511534e-06
0.4107109084 	0.001403525549 	0.0002081500164 	1.837172946e-07 	0.002565052563 	-2.681532221e-07 	4.889703105e-06
0.4131360043 	0.001402241206 	0.0002105425165 	1.744964464e-07 	0.002566390105 	-2.511197825e-07 	4.892252832e-06
0.4155836376 	0.001401055805 	0.0002129742596 	1.492488346e-07 	0.002567916737 	-2.118401172e-07 	4.895163015e-06
0.418054069 	0.001399966592 	0.0002154665721 	1.237772706e-07 	0.002569619473 	-1.733353014e-07 	4.898408904e-06
0.4205475644 	0.001398973051 	0.0002180168897 	9.808441815e-08 	0.002571496643 	-1.355634287e-07 	4.901987312e-06
0.4230837798 	0.001398056007 	0.000220604464 	7.193792797e-08 	0.002573567193 	-9.815230151e-08 	4.905934355e-06
0.4256746989 	0.001397215459 	0.0002232772817 	4.52384062e-08 	0.002575817599 	-6.094268231e-08 	4.910224256e-06
0.4282895784 	0.001396465061 	0.0002260314606 	1.83688494e-08 	0.002578225787 	-2.44417974e-08 	4.914814931e-06
0.430085928 	0.00139601109 	0.0002279281121 	1.072000561e-08 	0.002579974429 	-1.732447757e-07 	4.918148328e-06
0.4309275931 	0.001395794726 	0.0002288129849 	8.418500815e-09 	0.002580788338 	-1.132124221e-08 	4.919699866e-06
0.4335878205 	0.0013952027 	0.0002316539946 	3.481878161e-08 	0.002583480268 	-4.630494651e-08 	4.924831432e-06
0.4362729455 	0.001394686323 	0.0002345279614 	6.134167024e-08 	0.002586333494 	-8.070522816e-08 	4.930270474e-06
0.4390226095 	0.001394229876 	0.0002374561628 	8.840574639e-08 	0.002589359936 	-1.150859645e-07 	4.936039714e-06
0.4418080164 	0.00139384752 	0.0002404905809 	1.156474445e-07 	0.002592523245 	-1.490194781e-07 	4.942069859e-06
0.4446192947 	0.001393541486 	0.0002435687428 	1.429351356e-07 	0.002595820112 	-1.823836824e-07 	4.948354604e-06
0.447456771 	0.001393307687 	0.0002467070082 	1.702619639e-07 	0.002599235628 	-2.152191446e-07 	4.954865527e-06
0.4503207787 	0.001393139137 	0.0002498857202 	1.97609044e-07 	0.002602783039 	-2.475573511e-07 	4.961627879e-06
0.4532413803 	0.001393023128 	0.0002531152082 	1.796592285e-07 	0.002606477537 	-2.231213284e-07 	4.968670618e-06
0.4562076383 	0.001392967688 	0.0002564449039 	1.538083902e-07 	0.002610289921 	-1.89437318e-07 	4.975938083e-06
0.4592014673 	0.001392976204 	0.0002598305702 	1.279669578e-07 	0.002614208394 	-1.563783536e-07 	4.98340778e-06
0.4622232313 	0.001393047556 	0.0002632803556 	1.021496936e-07 	0.002618216048 	-1.239092423e-07 	4.991047483e-06
0.4652733019 	0.001393169863 	0.0002667625983 	7.636102926e-08 	0.002622335738 	-9.198907792e-08 	4.998900757e-06
0.4683888986 	0.00139333289 	0.0002703061144 	5.026210612e-08 	0.002626576304 	-6.014906878e-08 	5.006984454e-06
0.4715430232 	0.001393548308 	0.000273957365 	2.419089643e-08 	0.002630897556 	-2.877355132e-08 	5.015221961e-06
0.4745135296 	0.001393800341 	0.0002774183311 	3.665246783e-09 	0.002634996481 	-3.676231629e-08 	5.023035652e-06
0.4747263845 	0.001393817849 	0.000277665283 	1.681964972e-09 	0.002635289286 	-2.044006883e-09 	5.02359382e-06
0.4779369786 	0.001394125939 	0.0002814051793 	2.658735951e-08 	0.002639740269 	-3.215491042e-08 	5.032078631e-06
0.4811902733 	0.001394468502 	0.0002851883629 	5.141961394e-08 	0.00264428014 	-6.191724034e-08 	5.040732887e-06
0.4845059799 	0.001394846501 	0.000289063195 	7.629102019e-08 	0.002648893079 	-9.150556596e-08 	5.04952643e-06
0.487852787 	0.001395267259 	0.0002930279487 	1.008723201e-07 	0.002653547695 	-1.205862474e-07 	5.058399422e-06
0.4912311382 	0.001395729863 	0.000297059839 	1.251501223e-07 	0.00265823155 	-1.491890656e-07 	5.067328151e-06
0.4946429456 	0.001396217221 	0.0003011247795 	1.491097678e-07 	0.002662972381 	-1.773513955e-07 	5.076365493e-06
0.498127308 	0.001396725466 	0.0003052719046 	1.730222221e-07 	0.002667763368 	-2.054150571e-07 	5.085498446e-06
0.5016444901 	0.001397266661 	0.0003095352177 	1.964866082e-07 	0.002672555708 	-2.330078184e-07 	5.094633978e-06
0.5051949766 	0.001397839716 	0.0003138682818 	1.858175469e-07 	0.002677342276 	-2.202313664e-07 	5.103758507e-06
0.508780257 	0.001398425204 	0.0003182363978 	1.632789643e-07 	0.002682149407 	-1.935255071e-07 	5.112922235e-06
0.5124376631 	0.001399021219 	0.0003226911497 	1.408110407e-07 	0.002686964979 	-1.66984096e-07 	5.122102054e-06
0.5161297417 	0.001399641254 	0.0003272752477 	1.187773323e-07 	0.002691734979 	-1.410384769e-07 	5.131194999e-06
0.5198570229 	0.001400277767 	0.0003319208135 	9.719830714e-08 	0.002696467178 	-1.156363866e-07 	5.140215885e-06
0.523628147 	0.001400913859 	0.0003366156487 	7.602296321e-08 	0.002701175139 	-9.067436761e-08 	5.149190568e-06
0.527463351 	0.001401553751 	0.0003414147438 	5.517891455e-08 	0.002705831086 	-6.602304368e-08 	5.158066097e-06
0.5313352305 	0.001402207071 	0.0003463391229 	3.491691258e-08 	0.002710391645 	-4.194562206e-08 	5.16675979e-06
0.5352443644 	0.001402858292 	0.0003513138596 	1.525066008e-08 	0.002714879289 	-1.840590955e-08 	5.175314487e-06
0.5383963734 	0.001403367069 	0.0003553250752 	1.783943178e-08 	0.002718382007 	-1.352355045e-07 	5.181991641e-06
0.5392111012 	0.001403497443 	0.0003563585157 	3.778271621e-09 	0.002719285504 	-4.71552443e-09 	5.183713957e-06
0.5432275581 	0.001404133585 	0.0003615216047 	2.163316007e-08 	0.002723559012 	-2.716435845e-08 	5.19186045e-06
0.5472829419 	0.001404766729 	0.0003667785482 	3.878329666e-08 	0.00272769537 	-4.903357781e-08 	5.199745499e-06
0.5513827524 	0.001405380924 	0.000372092778 	5.52461107e-08 	0.002731707996 	-7.037705403e-08 	5.20739468e-06
0.5555477881 	0.001405979868 	0.0003775177994 	7.106700022e-08 	0.002735562136 	-9.128635553e-08 	5.214741742e-06
0.5597534302 	0.001406572051 	0.0003830785168 	8.606402453e-08 	0.002739211822 	-1.115731505e-07 	5.221699057e-06
0.5640003478 	0.001407139187 	0.0003886953098 	1.002351441e-07 	0.002742685163 	-1.312477303e-07 	5.228320211e-06
0.5683125441 	0.001407679242 	0.0003944067231 	1.136535267e-07 	0.00274595523 	-1.504279795e-07 	5.234553868e-06
0.5726708226 	0.00140820535 	0.0004002673178 	1.261571406e-07 	0.002748961417 	-1.68951086e-07 	5.240284495e-06
0.5770721925 	0.001408700495 	0.0004061948389 	1.377372863e-07 	0.002751729876 	-1.867965853e-07 	5.245561947e-06
0.5815342978 	0.001409160741 	0.0004122101892 	1.484406996e-07 	0.002754237292 	-2.040385019e-07 	5.250341778e-06
0.5860479421 	0.001409599084 	0.0004183719281 	1.581569396e-07 	0.002756422046 	-2.205681487e-07 	5.254506527e-06
0.5906065957 	0.001410000168 	0.0004246086266 	1.668732839e-07 	0.002758303849 	-2.363426426e-07 	5.258093768e-06
0.5952251617 	0.001410360755 	0.000430931934 	1.583475251e-07 	0.002759859154 	-2.279708435e-07 	5.261058611e-06
0.5998973013 	0.001410692991 	0.0004373958991 	1.457826634e-07 	0.002761026696 	-2.13586404e-07 	5.26328427e-06
0.6046164761 	0.001410981279 	0.0004439327907 	1.339318511e-07 	0.002761825165 	-1.998929126e-07 	5.264806374e-06
0.6093972599 	0.001411225468 	0.0004505577592 	1.227378441e-07 	0.002762224346 	-1.868088978e-07 	5.265567325e-06
0.6142314654 	0.001411435946 	0.000457313013 	1.122600125e-07 	0.00276216683 	-1.744539278e-07 	5.265457682e-06
0.6191148444 	0.001411596114 	0.0004641315539 	1.024971072e-07 	0.002761672905 	-1.628160983e-07 	5.264516123e-06
0.6240630691 	0.001411711716 	0.0004710436568 	9.339779533e-08 	0.002760698039 	-1.518367878e-07 	5.262657758e-06
0.6290633844 	0.001411786789 	0.0004780624134 	8.501124266e-08 	0.002759202844 	-1.416304796e-07 	5.259807502e-06
0.6341176252 	0.001411808492 	0.00048513708 	7.730045199e-08 	0.002757198041 	-1.321486746e-07 	5.25598579e-06
0.6392357207 	0.001411789426 	0.0004922957365 	7.024929784e-08 	0.002754630446 	-1.233946478e-07 	5.25109124e-06
0.6443496457 	0.001411725991 	0.0004994569783 	6.392622468e-08 	0.002751520352 	-1.155120624e-07 	5.245162536e-06
0.6494093653 	0.001411619564 	0.0005065451569 	5.830836478e-08 	0.00274790511 	-1.084910616e-07 	5.23827088e-06
0.6544153788 	0.001411496102 	0.0005135747527 	5.336066628e-08 	0.002743758552 	-1.023203373e-07 	5.230366388e-06
0.6593628846 	0.001411349432 	0.0005204998156 	4.901847962e-08 	0.0027391282 	-9.694306887e-08 	5.221539651e-06
0.6642601772 	0.001411181645 	0.000527333918 	4.52018697e-08 	0.0027340298 	-9.228300633e-08 	5.211820682e-06
0.6691026176 	0.001411001461 	0.0005340934053 	4.187806709e-08 	0.002728457773 	-8.834383109e-08 	5.20119885e-06
0.6738891066 	0.001410798144 	0.0005407322357 	3.898079953e-08 	0.002722462944 	-8.504287778e-08 	5.189771041e-06
0.6786277074 	0.001410586342 	0.0005472761661 	3.645162694e-08 	0.002716033698 	-8.232018383e-08 	5.177515111e-06
0.6833120008 	0.001410371211 	0.0005537306594 	3.425907135e-08 	0.002709176563 	-8.016799251e-08 	5.164443506e-06
0.6879431659 	0.001410146169 	0.000560062145 	3.234706107e-08 	0.00270193591 	-7.850547931e-08 	5.150640808e-06
0.6925268012 	0.001409927673 	0.0005662996472 	3.067589767e-08 	0.002694297343 	-7.729514651e-08 	5.136079577e-06
0.697058177 	0.001409717116 	0.0005724392528 	2.921682424e-08 	0.002686278387 	-7.651530809e-08 	5.120793219e-06
0.701538554 	0.001409510995 	0.0005784562552 	2.792698244e-08 	0.002677918635 	-7.609493264e-08 	5.104857208e-06
0.7059722417 	0.001409325766 	0.0005843776198 	2.677792564e-08 	0.002669205542 	-7.600412306e-08 	5.08824763e-06
0.7103557504 	0.001409162665 	0.0005902001711 	2.574765565e-08 	0.002660157658 	-7.621927649e-08 	5.070999848e-06
0.7146898764 	0.001409017774 	0.0005959006065 	2.480562766e-08 	0.002650816171 	-7.667903461e-08 	5.053192378e-06
0.7189786441 	0.001408907167 	0.0006015018745 	2.393057637e-08 	0.002641172543 	-7.735243151e-08 	5.034808942e-06
0.72321917 	0.001408835115 	0.0006070087277 	2.310862914e-08 	0.002631237951 	-7.8222688e-08 	5.015870849e-06
0.7274121495 	0.001408794715 	0.0006123953595 	2.231991695e-08 	0.002621059038 	-7.923711415e-08 	4.996467011e-06
0.7315603692 	0.001408800911 	0.0006176784761 	2.154882881e-08 	0.002610634515 	-8.036141761e-08 	4.976594974e-06
0.7356626389 	0.001408862488 	0.0006228724892 	2.078821325e-08 	0.002599964759 	-8.1586809e-08 	4.956255453e-06
0.7397191247 	0.001408969887 	0.0006279515689 	2.00270746e-08 	0.002589098899 	-8.2870415e-08 	4.935542105e-06
0.7437314537 	0.001409134687 	0.000632923362 	1.92551982e-08 	0.002578047195 	-8.417569408e-08 	4.914474484e-06
0.7477000423 	0.001409369417 	0.0006378076052 	1.846985144e-08 	0.002566803384 	-8.549756359e-08 	4.893040655e-06
0.7516245074 	0.0014096666 	0.0006425874378 	1.766725288e-08 	0.002555407593 	-8.680628051e-08 	4.871317111e-06
0.7555055586 	0.001410029884 	0.0006472577845 	1.68434232e-08 	0.002543887208 	-8.806850312e-08 	4.849356056e-06
0.7593448937 	0.001410473028 	0.0006518360996 	1.599791891e-08 	0.002532239057 	-8.927309078e-08 	4.827151441e-06
0.7631416759 	0.001410997406 	0.0006563235522 	1.51325462e-08 	0.002520481048 	-9.040880784e-08 	4.80473741e-06
0.7668964541 	0.001411597084 	0.000660704754 	1.424905531e-08 	0.002508655555 	-9.144992657e-08 	4.782194733e-06
0.7706102984 	0.00141228317 	0.0006649883116 	1.334866876e-08 	0.002496772631 	-9.237659054e-08 	4.759542577e-06
0.7742836007 	0.001413065782 	0.0006691882575 	1.243511032e-08 	0.002484833038 	-9.318883608e-08 	4.736782394e-06
0.7779163576 	0.001413940236 	0.0006732964596 	1.151186047e-08 	0.002472869547 	-9.387023818e-08 	4.713976656e-06
0.7815090748 	0.001414907281 	0.0006773076394 	1.058185772e-08 	0.002460913171 	-9.440183414e-08 	4.69118448e-06
0.7850628227 	0.001415979104 	0.0006812341874 	9.647498586e-09 	0.002448967874 	-9.477297811e-08 	4.668413423e-06
0.7885775598 	0.001417161308 	0.0006850841296 	8.713410856e-09 	0.002437042786 	-9.498374221e-08 	4.645680891e-06
0.7920536207 	0.001418448474 	0.0006888493894 	7.786004217e-09 	0.002425172785 	-9.502307349e-08 	4.623053371e-06
0.7954914742 	0.001419843438 	0.0006925293226 	6.872603013e-09 	0.002413382906 	-9.488301092e-08 	4.600578584e-06
0.7988920361 	0.001421356824 	0.0006961354548 	5.980788806e-09 	0.002401677518 	-9.456534397e-08 	4.578264861e-06
0.8022552571 	0.001422991904 	0.0006996730685 	5.118765971e-09 	0.002390070144 	-9.40757803e-08 	4.556137981e-06
0.8055815523 	0.001424745701 	0.0007031381412 	4.294091899e-09 	0.00237859094 	-9.341003458e-08 	4.534255426e-06
0.8088713591 	0.001426622736 	0.0007065330311 	3.512069145e-09 	0.002367260693 	-9.256206169e-08 	4.512656828e-06
0.8121254 	0.001428634898 	0.0007098697136 	2.775996385e-09 	0.002356082428 	-9.152897642e-08 	4.491347947e-06
0.8153437808 	0.001430788101 	0.0007131556492 	2.089241187e-09 	0.002345065808 	-9.030995917e-08 	4.470347208e-06
0.818526883 	0.001433082572 	0.000716390973 	1.456500272e-09 	0.002334234209 	-8.889792779e-08 	4.44969917e-06
0.8216751167 	0.001435522401 	0.0007195781959 	8.835711656e-10 	0.002323608012 	-8.728759236e-08 	4.429442685e-06
0.8247890302 	0.001438118626 	0.0007227273173 	3.673612602e-10 	0.002313192959 	-8.326459213e-08 	4.409588698e-06
0.8278689088 	0.001440879281 	0.0007258472278 	-5.091974998e-11 	0.002302995626 	-7.714929984e-08 	4.390149748e-06
0.8309150649 	0.00144380579 	0.0007289398806 	-3.547267369e-10 	0.002293036437 	-7.125822826e-08 	4.371164765e-06
0.8339278849 	0.001446902315 	0.0007320081543 	-5.518360211e-10 	0.002283335898 	-6.559190337e-08 	4.352672843e-06
0.8369077818 	0.001450179395 	0.0007350603943 	-6.513222943e-10 	0.002273903959 	-6.014723684e-08 	4.334692944e-06
0.8398551864 	0.001453649624 	0.0007381076251 	-6.62354391e-10 	0.00226474447 	-5.491590604e-08 	4.317232414e-06
0.8427703435 	0.001457319486 	0.0007411556615 	-5.932173741e-10 	0.002255872454 	-4.98922759e-08 	4.300319884e-06
0.8456536179 	0.001461196538 	0.0007442099987 	-4.511312516e-10 	0.002247305365 	-4.507334807e-08 	4.283988632e-06
0.8485053691 	0.001465290514 	0.0007472773693 	-2.42867792e-10 	0.002239059678 	-4.045610109e-08 	4.26827006e-06
0.8513259985 	0.001469616138 	0.0007503680685 	2.513128429e-11 	0.002231144974 	-3.603725333e-08 	4.253182435e-06
0.8541158245 	0.001474188288 	0.0007534931346 	3.462736381e-10 	0.00222356958 	-3.181126182e-08 	4.238741629e-06
0.8568751499 	0.001479017381 	0.0007566595958 	7.139462182e-10 	0.002216352913 	-2.777480527e-08 	4.224984656e-06
0.8596043157 	0.001484117577 	0.0007598762156 	1.121440696e-09 	0.002209513118 	-2.392475887e-08 	4.211946106e-06
0.8623036579 	0.001489505269 	0.0007631529549 	1.56189772e-09 	0.002203068006 	-2.025771811e-08 	4.199659931e-06
0.8649735387 	0.001495201274 	0.0007665023186 	2.028649978e-09 	0.002197031397 	-1.677081858e-08 	4.188152475e-06
0.8676142563 	0.001501227151 	0.0007699375527 	2.514927681e-09 	0.002191417051 	-1.346128107e-08 	4.177449973e-06
0.8702261138 	0.001507601574 	0.0007734692897 	3.014178286e-09 	0.002186248544 	-1.032860577e-08 	4.167597361e-06
0.8728094309 	0.001514347266 	0.0007771100137 	3.519857957e-09 	0.002181548434 	-7.373230783e-09 	4.158637646e-06
0.8753645232 	0.001521489013 	0.0007808731482 	4.025296102e-09 	0.002177340526 	-4.596051343e-09 	4.150616204e-06
0.8778917136 	0.001529055603 	0.0007847739398 	4.523884845e-09 	0.002173647452 	-1.999072143e-09 	4.143576177e-06