0.2644156299 	-0.001709447729 	0.0006492827457 	3.664109978e-07
0.2646754896 	-0.005361633635 	0.002036580926 	1.293138526e-06
0.2649353589 	-0.01053441213 	0.00400034711 	2.526008371e-06
0.2651952363 	-0.0155190204 	0.005890624764 	3.696636003e-06
0.2654551202 	-0.02031483075 	0.007707677121 	4.805496286e-06
0.2657150089 	-0.0249213189 	0.00945164201 	5.852691423e-06
0.2659749007 	-0.0293380105 	0.01112258167 	6.838237488e-06
0.2662347939 	-0.03356442829 	0.012720548 	7.762213091e-06
0.2664946871 	-0.03760006096 	0.01424558518 	8.624772273e-06
0.2667545784 	-0.04144433918 	0.01569771541 	9.426129015e-06
0.2670144664 	-0.04509661381 	0.01707692859 	1.016654839e-05
0.2672743493 	-0.04855613956 	0.01838317613 	1.084634114e-05
0.2675342255 	-0.05182206798 	0.01961636848 	1.146585896e-05
0.2677940935 	-0.05489345327 	0.02077637731 	1.202549131e-05
0.2680539515 	-0.05776927426 	0.02186304363 	1.252566435e-05
0.268313798 	-0.06044847612 	0.02287619334 	1.296684302e-05
0.2685736313 	-0.06293003491 	0.02381566126 	1.33495366e-05
0.2688334499 	-0.06521304745 	0.02468132454 	1.367430809e-05
0.2690932521 	-0.06729684774 	0.02547314588 	1.39417876e-05
0.2693530363 	-0.06918114919 	0.02619122627 	1.415268939e-05
0.2696128008 	-0.07086620903 	0.02683586584 	1.430783217e-05
0.2698725442 	-0.07235300799 	0.02740763012 	1.440816138e-05
0.2701322648 	-0.07364343408 	0.02790741769 	1.445477208e-05
0.270391961 	-0.07474045584 	0.02833652361 	1.444893036e-05
0.2706516312 	-0.07564826768 	0.02869669217 	1.439209092e-05
0.2709112737 	-0.07637238922 	0.0289901522 	1.428590879e-05
0.2711708871 	-0.07691970273 	0.02921962917 	1.413224222e-05
0.2714304698 	-0.07729841724 	0.02938833215 	1.393314166e-05
0.27169002 	-0.0775179552 	0.02949991641 	1.369082459e-05
0.2719495364 	-0.07758874476 	0.0295583902 	1.340768131e-05
0.2722090172 	-0.0775037357 	0.02956650716 	1.311908545e-05
0.2726121164 	-0.07714010139 	0.02948452845 	1.252178355e-05
0.2730226937 	-0.07643497323 	0.02928808563 	1.187076644e-05
0.2734408794 	-0.0754282308 	0.02898771618 	1.114031124e-05
0.2738668057 	-0.07414804174 	0.02859471655 	1.033538977e-05
0.2743006065 	-0.07262228043 	0.02812024409 	9.460921959e-06
0.2747424172 	-0.07087697367 	0.02757473782 	8.521528029e-06
0.2751923751 	-0.06893530777 	0.02696756868 	7.52131778e-06
0.2756506189 	-0.06681711959 	0.02630686411 	6.463759579e-06
0.2761172892 	-0.0645387733 	0.02559947363 	5.351619267e-06
0.2765925279 	-0.06211329976 	0.02485103133 	4.186952254e-06
0.2770764787 	-0.05955068649 	0.02406607329 	2.971132251e-06
0.2775692866 	-0.05685823266 	0.02324817783 	1.70490163e-06
0.2780710981 	-0.05404091146 	0.02240010752 	3.884314092e-07
0.2782174433 	-0.05319976215 	0.02214928892 	-1.10770544e-05
0.2785812028 	-0.05109276587 	0.02152203358 	1.058991752e-06
0.2791002472 	-0.04801933249 	0.02061640317 	2.599234254e-06
0.2796287271 	-0.04482382598 	0.01968498952 	4.202710345e-06
0.2801667944 	-0.04150476847 	0.01872843288 	5.871255302e-06
0.2807146025 	-0.03805527834 	0.01774582418 	7.607218245e-06
0.2812750716 	-0.03446275403 	0.01673467238 	9.423502006e-06
0.2818477708 	-0.03072188126 	0.01569461718 	1.132458834e-05
0.2824309516 	-0.02683375261 	0.01462709448 	1.330746788e-05
0.2830248016 	-0.02279482337 	0.01353225111 	1.537541204e-05
0.2836295115 	-0.01859665547 	0.01240910597 	1.754614888e-05
0.2842452756 	-0.01422760464 	0.01125597762 	1.986490447e-05
0.2848722913 	-0.009669480118 	0.01006939239 	2.238486991e-05
0.2855107595 	-0.00489174643 	0.008842528 	2.51488188e-05
0.2861608845 	0.0001422135453 	0.007566992099 	2.819233929e-05
0.2868228742 	0.005468767071 	0.00623459297 	3.15291953e-05
0.2874969401 	0.01112659171 	0.004836710656 	3.513612255e-05
0.2881832971 	0.01714826603 	0.003366754096 	3.89813677e-05
0.2888821641 	0.02355559978 	0.001821498262 	4.305068689e-05
0.2895937637 	0.03036557627 	0.0001993530577 	4.73414851e-05
0.2903183221 	0.03759343428 	-0.001500820045 	5.185502169e-05
0.2910560697 	0.0452538868 	-0.003280142702 	5.659233116e-05
0.2918072407 	0.05336170671 	-0.005139746687 	6.155347917e-05
0.2925720732 	0.06193184499 	-0.007080763107 	6.67366618e-05
0.2933508096 	0.07097919234 	-0.009104249872 	7.213737998e-05
0.2941436964 	0.08051822827 	-0.01121109682 	7.774732871e-05
0.2949509843 	0.09056259976 	-0.0134019229 	8.355305707e-05
0.2957729283 	0.1011246683 	-0.01567699578 	8.95349658e-05
0.2966097878 	0.1122210028 	-0.0180374822 	9.566784841e-05
0.2974635723 	0.1238854605 	-0.02048826472 	0.0001019325407
0.2983377009 	0.136143454 	-0.02303244998 	0.0001083093067
0.2992276355 	0.1489790466 	-0.02566446218 	0.0001147227128
0.300133654 	0.1623775847 	-0.02837894396 	0.0001211214682
0.3010560391 	0.176335558 	-0.03117269807 	0.0001274538012
0.3019950783 	0.1908451716 	-0.03404156511 	0.0001336658445
0.302951064 	0.2058945063 	-0.03698053432 	0.0001397027193
0.3039242937 	0.2214676447 	-0.03998381219 	0.0001455095419
0.3049150699 	0.2375448563 	-0.04304489442 	0.0001510323214
0.3059237003 	0.2541028677 	-0.04615666182 	0.0001558215989
0.3069504978 	0.2711152281 	-0.04931150416 	0.0001499145532
0.3079957807 	0.2885527186 	-0.05250145428 	0.0001435778031
0.3090598729 	0.306383571 	-0.05571824605 	0.0001368620808
0.3101431036 	0.3245728222 	-0.05895304021 	0.0001298264512
0.3112458079 	0.3430794864 	-0.06219526888 	0.0001225400017
0.3123683265 	0.3618550601 	-0.06543083321 	0.0001150817557
0.3135122755 	0.3808572028 	-0.06864268392 	0.0001075265669
0.3146835825 	0.4000142837 	-0.07180653824 	9.992128185e-05
0.3158758469 	0.4215226766 	-0.0752629779 	9.205241442e-05
0.317704102 	0.4480931272 	-0.07941726591 	8.106913185e-05
0.3195502637 	0.4766657987 	-0.0837623816 	7.011858116e-05
0.3214145144 	0.5048559795 	-0.08793825712 	5.960968256e-05
0.3232970394 	0.532554871 	-0.09193365962 	4.967160232e-05
0.3251980266 	0.5596588208 	-0.09573545722 	4.041418605e-05
0.3271176667 	0.5860768471 	-0.09933353885 	3.191922358e-05
0.3290561529 	0.6117658388 	-0.1027256034 	2.423917262e-05
0.3310248725 	0.6367045691 	-0.1059131565 	1.737500072e-05
0.3330140035 	0.6607985022 	-0.1088889165 	1.137988349e-05
0.3350225342 	0.6839725498 	-0.1116494622 	6.253315675e-06
0.3370506672 	0.7061997067 	-0.1141981299 	1.972735e-06
0.3381571377 	0.7177007992 	-0.115465629 	-3.130934521e-05
0.3390971357 	0.7274316405 	-0.116536017 	1.324025701e-06
0.3411619064 	0.7476651951 	-0.1186703744 	3.691915316e-06
0.3432469275 	0.7669653011 	-0.1206159976 	5.414191656e-06
0.3453545206 	0.7853851034 	-0.1223852066 	6.564654058e-06
0.3474928304 	0.8029788812 	-0.1239902278 	7.222743883e-06
0.3496519862 	0.8197618812 	-0.1254393091 	7.453492411e-06
0.3518322108 	0.835771435 	-0.1267428912 	7.331931717e-06
0.3540337312 	0.8510686453 	-0.1279131225 	6.924794782e-06
0.3562567775 	0.865715444 	-0.1289615842 	6.289910353e-06
0.3585015842 	0.8797734501 	-0.1298991054 	5.475425778e-06
0.3607694558 	0.8933153773 	-0.1307363595 	4.518785245e-06
0.363070291 	0.9064068875 	-0.1314828658 	3.451492609e-06
0.3653935267 	0.9190712656 	-0.1321446608 	2.297037754e-06
0.3677394098 	0.9313351604 	-0.1327277615 	1.077662722e-06
0.3701081911 	0.9432345123 	-0.1332381892 	-1.903440895e-07
0.3725001261 	0.9548004604 	-0.1336811824 	-1.493759093e-06
0.3749154743 	0.9660668059 	-0.1340614784 	-2.822571614e-06
0.3773607938 	0.9770702631 	-0.1343835028 	-3.913102049e-06
0.3798350537 	0.9878279477 	-0.1346505535 	-4.619748409e-06
0.382333422 	0.9983441762 	-0.1348653305 	-5.121760722e-06
0.3848561731 	1.008630572 	-0.135030709 	-5.444611671e-06
0.3874035867 	1.018702371 	-0.1351494486 	-5.611372852e-06
0.3899759473 	1.028578121 	-0.1352240534 	-5.642366585e-06
0.3925787978 	1.038280917 	-0.1352568995 	-5.554145754e-06
0.3952126831 	1.047821579 	-0.1352500254 	-5.363503662e-06
0.3978722652 	1.057199639 	-0.1352052518 	-5.087746806e-06
0.400557846 	1.066420606 	-0.1351244517 	-4.739998493e-06
0.4032697328 	1.075493907 	-0.1350094087 	-4.331327334e-06
0.406008239 	1.084434775 	-0.1348616068 	-3.87032617e-06
0.4087820714 	1.093260704 	-0.134682456 	-3.364672668e-06
0.4115848843 	1.101971776 	-0.1344732057 	-2.827452146e-06
0.4144151314 	1.110565769 	-0.1342351669 	-2.267738309e-06
0.4172731459 	1.119047678 	-0.1339696247 	-1.692992798e-06
0.4201592673 	1.12742708 	-0.1336774709 	-1.10862871e-06
0.4230787224 	1.135713975 	-0.1333592767 	-5.177308284e-07
0.4256598016 	1.142876922 	-0.133058976 	6.88617687e-06
0.4260313562 	1.143907619 	-0.1330156811 	-6.915215738e-08
0.4290112187 	1.151998591 	-0.1326475718 	-6.142853732e-07
0.4320204923 	1.159991688 	-0.13225516 	-1.156036515e-06
0.4350595456 	1.167887497 	-0.1318386273 	-1.693560412e-06
0.4381332835 	1.175687346 	-0.1313975739 	-2.22681246e-06
0.4412418738 	1.183385809 	-0.1309316792 	-2.754506213e-06
0.4443811937 	1.190970281 	-0.1304409783 	-3.2748592e-06
0.4475516365 	1.198430574 	-0.1299252911 	-3.787837353e-06
0.4507536034 	1.205762055 	-0.1293839939 	-4.29412329e-06
0.4539939518 	1.212961519 	-0.1288165058 	-4.793986285e-06
0.4572683068 	1.220016572 	-0.1282227312 	-5.285214086e-06
0.4605752163 	1.226914011 	-0.1276027917 	-5.766643681e-06
0.463915109 	1.233645578 	-0.1269565617 	-6.236961109e-06
0.4672907009 	1.240206761 	-0.1262836692 	-6.694872748e-06
0.4707054135 	1.246591534 	-0.1255840476 	-7.137664772e-06
0.47415421 	1.252789616 	-0.1248582296 	-7.56151097e-06
0.4776375492 	1.258794801 	-0.124106784 	-7.964241237e-06
0.4811561589 	1.264606768 	-0.123329734 	-8.344800444e-06
0.4847169261 	1.27022548 	-0.1225271506 	-8.702792615e-06
0.4883134143 	1.275643761 	-0.1216997468 	-9.036837295e-06
0.4919461152 	1.280855532 	-0.120848109 	-9.347789306e-06
0.4956155304 	1.285858312 	-0.1199720581 	-9.636879914e-06
0.4993283155 	1.290648765 	-0.1190713595 	-9.90476442e-06
0.5030787283 	1.295216993 	-0.1181463916 	-1.015270013e-05
0.5068671448 	1.299552426 	-0.1171967338 	-1.038796773e-05
0.5106946664 	1.303643783 	-0.1162203015 	-1.001032366e-05
0.5145663473 	1.307478541 	-0.1152180621 	-9.597027989e-06
0.5184773905 	1.311061483 	-0.1141922574 	-9.191817526e-06
0.5224283605 	1.314414696 	-0.1131428264 	-8.789710047e-06
0.5264218091 	1.317543073 	-0.1120729826 	-8.386761134e-06
0.53045932 	1.32043801 	-0.1109848505 	-8.00618463e-06
0.5345382192 	1.323095227 	-0.1098772058 	-7.649368292e-06
0.5386591113 	1.325514104 	-0.1087500704 	-7.303548762e-06
0.5428263239 	1.327695298 	-0.1076040047 	-6.969586417e-06
0.5470373053 	1.329639635 	-0.1064400821 	-6.647089452e-06
0.5512918523 	1.331351132 	-0.1052594627 	-6.334168338e-06
0.5555922218 	1.332837815 	-0.1040631299 	-6.030257674e-06
0.5599396906 	1.334109799 	-0.1028523138 	-5.735392195e-06
0.564332385 	1.335178158 	-0.1016285338 	-5.449673007e-06
0.5687713493 	1.336054823 	-0.1003929756 	-5.173501278e-06
0.5732599783 	1.336751462 	-0.09914662097 	-4.907765563e-06
0.5777955849 	1.337278575 	-0.09789073889 	-4.653588056e-06
0.5823788822 	1.337645924 	-0.09662621813 	-4.410929496e-06
0.5870133849 	1.33786215 	-0.09535366937 	-4.179818179e-06
0.5916969559 	1.337934502 	-0.09407397027 	-3.960763421e-06
0.596430101 	1.33786926 	-0.09278771544 	-3.752992248e-06
0.6012158168 	1.33767167 	-0.0914952976 	-3.555863883e-06
0.6060527059 	1.337346051 	-0.09019731044 	-3.36930216e-06
0.6109411544 	1.336895981 	-0.08889414187 	-3.19218841e-06
0.6158839412 	1.336324258 	-0.08758604801 	-3.02363448e-06
0.6208798165 	1.335633106 	-0.08627345621 	-2.863197454e-06
0.6259293901 	1.334824144 	-0.08495661805 	-2.709616451e-06
0.6310352503 	1.333898299 	-0.08363567813 	-2.562050048e-06
0.6361961061 	1.332859037 	-0.08231433824 	-2.420025728e-06
0.6413556442 	1.331717151 	-0.08100386742 	-2.283808899e-06
0.6464578705 	1.330486139 	-0.079715049 	-2.154385491e-06
0.6515023363 	1.329174272 	-0.07845063486 	-2.032001684e-06
0.6564904702 	1.327786251 	-0.07721006021 	-1.914586564e-06
0.6614231636 	1.32632599 	-0.07599274455 	-1.800086535e-06
0.6663004374 	1.324796529 	-0.07479790755 	-1.689732792e-06
0.6711236044 	1.323200222 	-0.07362483014 	-1.584106117e-06
0.67589329 	1.321539077 	-0.07247291533 	-1.482216949e-06
0.6806097216 	1.319814615 	-0.07134149296 	-1.383280196e-06
0.6852740248 	1.318027625 	-0.07022985266 	-1.286527771e-06
0.6898868111 	1.316178329 	-0.06913726176 	-1.1914529e-06
0.694448359 	1.314266555 	-0.06806296467 	-1.097731041e-06
0.6989595869 	1.312291777 	-0.0670063282 	-1.004359251e-06
0.7034212188 	1.31025292 	-0.06596669393 	-9.097195503e-07
0.7078334987 	1.308148217 	-0.06494328808 	-8.122804611e-07
0.7121971452 	1.305975617 	-0.06393553624 	-7.143018054e-07
0.7165130473 	1.303732789 	-0.06294293202 	-6.179246856e-07
0.7207813715 	1.301416881 	-0.06196488547 	-5.214095291e-07
0.7250027336 	1.299024657 	-0.06100083439 	-4.2620162e-07
0.7291779672 	1.296552603 	-0.06005021576 	-3.339589385e-07
0.7333073775 	1.293997035 	-0.05911245084 	-2.345372267e-07
0.7373914647 	1.291354177 	-0.05818697735 	-1.419604721e-07
0.7414308672 	1.288620216 	-0.05727328413 	-5.878224438e-08
0.7454261616 	1.28579147 	-0.05637088011 	1.548837233e-08
0.7493776899 	1.282864547 	-0.0554792983 	8.158825054e-08
0.753285986 	1.279836396 	-0.05459811425 	1.40264589e-07
0.7571516794 	1.276704456 	-0.05372695626 	1.922160434e-07
0.7609751521 	1.273466895 	-0.05286549633 	2.380736977e-07
0.7647568488 	1.270122677 	-0.05201344243 	2.78445534e-07
0.7684972659 	1.266671597 	-0.05117056056 	3.138964537e-07
0.7721969808 	1.263114356 	-0.05033666712 	3.4491344e-07
0.7758563233 	1.259452626 	-0.04951161867 	3.719008444e-07
0.7794757553 	1.255688926 	-0.04869530379 	3.95224287e-07
0.7830557412 	1.25182647 	-0.04788765247 	4.151873426e-07
0.7865967991 	1.247869077 	-0.04708862395 	4.320058675e-07
0.7900992616 	1.243821037 	-0.0462981918 	4.458313561e-07
0.7935635712 	1.23968685 	-0.04551633716 	4.567989563e-07
0.7969901642 	1.235470986 	-0.04474304966 	4.650154338e-07
0.8003795064 	1.231177705 	-0.04397831971 	4.705382735e-07
0.8037319478 	1.226810877 	-0.04322211907 	4.733840029e-07
0.8070478986 	1.222373828 	-0.04247439571 	4.736142574e-07
0.8103277703 	1.217869364 	-0.04173508652 	4.71329598e-07
0.8135719856 	1.213299942 	-0.04100412764 	4.666429455e-07
0.8167809129 	1.208667802 	-0.04028144784 	4.596422559e-07
0.8199549264 	1.203975028 	-0.03956696796 	4.504518359e-07
0.8230944158 	1.199223575 	-0.03886061408 	4.392028395e-07
0.8261997663 	1.194415307 	-0.0381623156 	4.26024793e-07
0.8292713657 	1.189552026 	-0.03747200443 	4.110178357e-07
0.8323095512 	1.184635496 	-0.03678960743 	3.942797844e-07
0.8353146926 	1.179667411 	-0.03611505154 	3.759266931e-07
0.8382871547 	1.174649389 	-0.0354482637 	3.56070942e-07
0.8412273011 	1.169582967 	-0.03478917368 	3.348193509e-07
0.8441354798 	1.164469602 	-0.03413770793 	3.122456829e-07
0.8470120255 	1.159310641 	-0.0334937845 	2.884382715e-07
0.8498572854 	1.154107299 	-0.03285732116 	2.634943015e-07
0.8526716023 	1.148860643 	-0.03222823086 	2.375085072e-07
0.8554553162 	1.143571585 	-0.03160642602 	2.105720825e-07
0.858208756 	1.138240867 	-0.03099181397 	1.827485327e-07
0.860932241 	1.132869054 	-0.03038429283 	1.541136037e-07
0.8636260981 	1.127456509 	-0.02978375869 	1.247519095e-07
0.8662906499 	1.122003389 	-0.02919010274 	9.474593865e-08
0.8689262156 	1.11650964 	-0.02860321244 	6.417593325e-08
0.8715331104 	1.110974989 	-0.02802297302 	3.310607737e-08
0.8741116355 	1.105398944 	-0.02744926186 	1.592439991e-09
0.8742402096 	1.105115706 	-0.02742066005 	1.423471927e-06
0.8766620555 	1.099781124 	-0.0268818637 	3.407599458e-08
0.8791847196 	1.094120224 	-0.02632073604 	7.011538032e-08
0.881679931 	1.088415008 	-0.02576574918 	1.062557948e-07
0.8841479877 	1.082664013 	-0.02521676794 	1.424344964e-07
0.8865891798 	1.076865519 	-0.02467365321 	1.786113384e-07
0.8890037943 	1.071017543 	-0.02413625969 	2.147371328e-07
0.8913921189 	1.065117827 	-0.02360444111 	2.507573182e-07
0.8937544381 	1.059163834 	-0.02307804873 	2.866202748e-07
0.8960910333 	1.053152742 	-0.02255693019 	3.222773645e-07
0.8984021827 	1.047081435 	-0.02204093303 	3.576834902e-07
0.9006881588 	1.040946498 	-0.02152990247 	3.928114501e-07
0.9029492311 	1.034744207 	-0.02102367941 	4.276289341e-07
0.9051856689 	1.028470519 	-0.02052210463 	4.620992951e-07
0.9073977385 	1.022121069 	-0.02002501821 	4.961887142e-07
0.9095857032 	1.015691163 	-0.01953225854 	5.298661738e-07
0.9117498232 	1.009175773 	-0.01904366376 	5.631034455e-07
0.9138903558 	1.002569534 	-0.01855907354 	5.95879604e-07
0.9160075533 	0.9958667416 	-0.01807832623 	6.281835812e-07
0.9181016674 	0.9890613471 	-0.01760126021 	6.599953183e-07
0.9201729476 	0.9821469587 	-0.01712771705 	6.912961024e-07
0.9222216405 	0.9751168443 	-0.01665754016 	7.220688483e-07
0.9242479902 	0.967963934 	-0.0161905755 	7.522976306e-07
0.9262522379 	0.9606808225 	-0.01572667318 	7.819671179e-07
0.928234622 	0.9532597676 	-0.01526568908 	8.110652412e-07
0.9301953773 	0.94569268 	-0.01480748285 	8.395837052e-07
0.9321347374 	0.9379710943 	-0.01435191875 	8.67504545e-07
0.9340529335 	0.9300861147 	-0.01389886679 	8.948073305e-07
0.9359501942 	0.9220283207 	-0.01344819907 	9.214705106e-07
0.9378267459 	0.9137876241 	-0.01299978615 	9.474742532e-07
0.9396828124 	0.9053530864 	-0.01255349158 	9.728055538e-07
0.941518615 	0.896712738 	-0.0121091672 	9.974648438e-07
0.9433343722 	0.8878535129 	-0.01166664885 	1.021475277e-06
0.9451303003 	0.8787615284 	-0.01122576004 	1.044873234e-06
0.9469066138 	0.8694231286 	-0.01078632846 	1.067691214e-06
0.9486635247 	0.8598273593 	-0.01034823639 	1.089900424e-06
0.9504012431 	0.8508133588 	-0.009948366431 	1.111603666e-06
0.9515333004 	0.8433583705 	-0.009625726942 	1.124615585e-06
0.9526445538 	0.8367188616 	-0.009343999003 	1.137037706e-06
0.9537353842 	0.8300615801 	-0.009066696212 	1.148489254e-06
0.9548061655 	0.8233867719 	-0.008793825725 	1.158908781e-06
0.9558572649 	0.8166921158 	-0.008525355829 	1.168248017e-06
0.9568890428 	0.8099741122 	-0.008261244182 	1.176484226e-06
0.9579018529 	0.8032288464 	-0.008001449583 	1.183605327e-06
0.9588960429 	0.7964523994 	-0.007745938499 	1.189602502e-06
0.9598719539 	0.7896410576 	-0.007494687398 	1.194467939e-06
0.9608299208 	0.7827914092 	-0.007247682882 	1.198193494e-06
0.9617702725 	0.7759003745 	-0.007004920905 	1.200770099e-06
0.9626933319 	0.7689651994 	-0.006766405578 	1.202187794e-06
0.9635994159 	0.761983431 	-0.006532147859 	1.202436156e-06
0.9644888358 	0.754952882 	-0.006302164275 	1.201504933e-06
0.9653618972 	0.7478715934 	-0.006076475735 	1.199384726e-06
0.9662188999 	0.7407377969 	-0.00585510645 	1.196067642e-06
0.9670601386 	0.7335498788 	-0.005638082955 	1.191547881e-06
0.9678859023 	0.7263063485 	-0.005425433228 	1.185822236e-06
0.9686964749 	0.7190058086 	-0.005217185877 	1.178890503e-06
0.9694921351 	0.7116469294 	-0.005013369398 	1.170755811e-06
0.9702731565 	0.7042284258 	-0.004814011602 	1.161424907e-06
0.9710398077 	0.6967490368 	-0.004619138896 	1.150908643e-06
0.9717923523 	0.6892075068 	-0.004428775653 	1.139221489e-06
0.9725310493 	0.6816025685 	-0.004242943843 	1.126381658e-06
0.9732561528 	0.6739329274 	-0.004061662529 	1.112411261e-06
0.9739679123 	0.6661972467 	-0.003884947409 	1.09733625e-06
0.9746665729 	0.6583941322 	-0.003712810459 	1.081186318e-06
0.975352375 	0.6505221183 	-0.003545259618 	1.063994757e-06
0.9760255547 	0.642579653 	-0.003382298513 	1.045798284e-06
0.9766863437 	0.6345650832 	-0.003223926235 	1.02663684e-06
0.9773349698 	0.626476639 	-0.003070137171 	1.006553375e-06
0.9779716561 	0.6183124179 	-0.002920920872 	9.855936094e-07
0.9785966221 	0.6100703673 	-0.00277626198 	9.638057891e-07
0.979210083 	0.6017482675 	-0.00263614019 	9.412404282e-07
0.9798122502 	0.5933437126 	-0.002500530263 	9.179500441e-07
0.9804033311 	0.5848540909 	-0.002369402069 	8.939888839e-07
0.9809835295 	0.5762765643 	-0.002242720669 	8.694126581e-07
0.9815530453 	0.5676080462 	-0.002120446444 	8.442782819e-07
0.9821120749 	0.5588451788 	-0.002002535224 	8.186434136e-07
0.9826608108 	0.5499843063 	-0.001888938473 	7.925661833e-07
0.9831994424 	0.5410214484 	-0.001779603527 	7.661054503e-07
0.9837281553 	0.531952276 	-0.001674473872 	7.393206536e-07
0.9842471318 	0.5227720962 	-0.001573489365 	7.122715074e-07
0.984756551 	0.5134758359 	-0.001476586479 	6.850180359e-07
0.9852565885 	0.504058022 	-0.00138369852 	6.576202778e-07
0.9857474168 	0.4945127599 	-0.001294755868 	6.301378875e-07
0.9862292052 	0.4848337179 	-0.001209686288 	6.026301095e-07
0.98670212 	0.4750141175 	-0.001128415198 	5.751557226e-07
0.9871663243 	0.4650467327 	-0.001050865974 	5.47772963e-07
0.9876219783 	0.4549239011 	-0.0009769602781 	5.205394405e-07
0.9880692392 	0.4446375497 	-0.0009066184022 	4.935120182e-07
0.9885082614 	0.4341792389 	-0.0008397596156 	4.667466211e-07
0.9889391965 	0.4235402287 	-0.0007763025586 	4.402979759e-07
0.9893621932 	0.412711558 	-0.0007161657466 	4.142192057e-07
0.9897773974 	0.4016841691 	-0.0006592679382 	3.885623912e-07
0.9901849527 	0.3904491229 	-0.0006055290776 	3.63379298e-07
0.9905849996 	0.378997799 	-0.0005548702021 	3.387189378e-07
0.9909776764 	0.3673217911 	-0.0005072071052 	3.146271826e-07
0.9913631185 	0.3554114844 	-0.000462442236 	2.911545826e-07
0.9917414592 	0.3442961647 	-0.0004239320119 	2.703295961e-07
0.9919849628 	0.3350776631 	-0.0003942695107 	2.5376279e-07
0.9922284702 	0.3267037382 	-0.0003689425187 	2.394476212e-07
0.9924719814 	0.3180535955 	-0.0003442754853 	2.253654883e-07
0.9927154964 	0.3091204002 	-0.0003203053745 	2.116188031e-07
0.9929590152 	0.2998991674 	-0.000297120636 	1.983800478e-07
0.9932025378 	0.2903846753 	-0.000274766421 	1.848483502e-07
0.9934460642 	0.280564866 	-0.0002529588141 	1.713091699e-07
0.9936895945 	0.2704052006 	-0.0002317201462 	1.589779773e-07
0.9939331285 	0.2598592639 	-0.0002114938618 	1.466036046e-07
0.9941766663 	0.2489038141 	-0.0001920910699 	1.33973623e-07
0.9944202079 	0.2375390493 	-0.0001732952754 	1.220032448e-07
0.9946637534 	0.225775382 	-0.0001552805376 	1.104944082e-07
0.9949073026 	0.2136354086 	-0.0001381158525 	9.94262995e-08
0.9951508557 	0.2011552451 	-0.0001218490012 	8.883198671e-08
0.9953944125 	0.1883845045 	-0.0001065297709 	7.87323978e-08
0.9956379732 	0.1753844631 	-9.220122399e-05 	6.913991412e-08
0.9958815376 	0.1622243899 	-7.889320832e-05 	6.00737031e-08
0.9961251059 	0.1489765735 	-6.662464149e-05 	5.156413577e-08
0.996368678 	0.1357110287 	-5.540961577e-05 	4.364517109e-08
0.9966122538 	0.1224909667 	-4.526091396e-05 	3.634304771e-08
0.9968558335 	0.1093698069 	-3.618809799e-05 	2.967153848e-08
0.997099417 	0.09638998515 	-2.819263502e-05 	2.363651178e-08
0.9973430042 	0.08358332507 	-2.12647685e-05 	1.824427379e-08
0.9975865953 	0.07097246445 	-1.538384527e-05 	1.350699952e-08
0.9978301902 	0.05857278605 	-1.051600457e-05 	9.441500423e-09
0.9980737889 	0.0463944079 	-6.602133376e-06 	6.061863512e-09
0.9983173913 	0.03444394643 	-3.587976847e-06 	3.388907461e-09
0.9985609976 	0.02272590972 	-1.644272711e-06 	1.530054523e-09
0.9988046077 	0.0112436813 	-1.535949697e-06 	7.880141492e-10
0.9990482216 	0.004656427759 	-1.745703914e-06 	6.280689459e-10
