0.4709558481 	0.008230496889 	2.299832527e-09 	-1.671562149e-13
0.4709558481 	0.008230496889 	2.299832527e-09 	-1.671562149e-13
0.4711314108 	0.02263122115 	2.786393558e-08 	-1.873279738e-12
0.4713069734 	0.04523627493 	1.030908781e-07 	-6.835887003e-12
0.471482536 	0.06781291821 	2.309318925e-07 	-1.517009642e-11
0.4716580986 	0.0903572512 	4.124048062e-07 	-2.684333362e-11
0.4718336613 	0.1128641182 	6.482200129e-07 	-4.178474555e-11
0.4720092239 	0.1353260679 	9.395193005e-07 	-5.996449884e-11
0.4721847865 	0.1577319887 	1.286299378e-06 	-8.135216722e-11
0.4723603491 	0.1800655272 	1.685984806e-06 	-1.058996744e-10
0.4725359118 	0.2023034765 	2.132766204e-06 	-1.335445947e-10
0.4727114744 	0.2244144216 	2.618524151e-06 	-1.642273739e-10
0.472887037 	0.2463580031 	3.135692581e-06 	-1.979151816e-10
0.4730625996 	0.2680851638 	3.68090253e-06 	-2.346129581e-10
0.4732381623 	0.2895396408 	4.25709001e-06 	-2.743482596e-10
0.4734137249 	0.3106607243 	4.873443082e-06 	-3.171689155e-10
0.4735892875 	0.3313869898 	5.545886105e-06 	-3.632079448e-10
0.4737648501 	0.3516604253 	6.289589875e-06 	-4.124667759e-10
0.4739404128 	0.371430241 	7.059331376e-06 	-4.633312771e-10
0.4741159754 	0.390655752 	7.640637225e-06 	-5.111678372e-10
0.474291538 	0.4093080867 	8.521630809e-06 	-5.756545906e-10
0.4744671006 	0.4273969947 	9.947271566e-06 	-6.491896471e-10
0.4746426632 	0.4449706714 	1.100028774e-05 	-7.004973563e-10
0.4748182259 	0.4620600528 	1.175842642e-05 	-7.586365285e-10
0.4749937885 	0.4786702175 	1.274831466e-05 	-8.336130452e-10
0.4751693511 	0.4948043515 	1.384368284e-05 	-9.072233036e-10
0.4753449137 	0.510467076 	1.497456073e-05 	-9.826287085e-10
0.4755204764 	0.525664357 	1.614066678e-05 	-1.061412819e-09
0.475696039 	0.5404032364 	1.734787328e-05 	-1.143651744e-09
0.4758716016 	0.5546916512 	1.859345355e-05 	-1.229253523e-09
0.4760471642 	0.5685389045 	1.986576256e-05 	-1.318208221e-09
0.4762227269 	0.5837904747 	2.13591238e-05 	-1.423748578e-09
0.4764955107 	0.6021440855 	2.333507173e-05 	-1.562323455e-09
0.4767734216 	0.621729741 	2.564172367e-05 	-1.724952367e-09
0.4770565557 	0.6408258079 	2.807582925e-05 	-1.899698116e-09
0.4773450114 	0.659438784 	3.06545192e-05 	-2.087102821e-09
0.4776388886 	0.6775760309 	3.339061446e-05 	-2.287753591e-09
0.4779382892 	0.6952461812 	3.629055444e-05 	-2.502254319e-09
0.4782433171 	0.7124586998 	3.936066653e-05 	-2.731234823e-09
0.4785540779 	0.7292233912 	4.260803717e-05 	-2.975352336e-09
0.4788706795 	0.7455501833 	4.603994186e-05 	-3.235270648e-09
0.4791932316 	0.761450191 	4.966334755e-05 	-3.511629285e-09
0.4795218461 	0.7769385674 	5.348561046e-05 	-3.805132889e-09
0.4798566368 	0.7920332206 	5.751547629e-05 	-4.116631532e-09
0.48019772 	0.8067495522 	6.17626527e-05 	-4.447053525e-09
0.4805452138 	0.8211001089 	6.623718483e-05 	-4.797380347e-09
0.4808992388 	0.8350967935 	7.094953889e-05 	-5.168659026e-09
0.4812599177 	0.8487513124 	7.591076442e-05 	-5.561991976e-09
0.4816273755 	0.8620752446 	8.113247402e-05 	-5.978536778e-09
0.4820017397 	0.8750800356 	8.662684993e-05 	-6.419509122e-09
0.48238314 	0.8877769841 	9.240668198e-05 	-6.88618601e-09
0.4827717088 	0.9001772359 	9.84854134e-05 	-7.379909137e-09
0.4831675807 	0.912291787 	0.0001048771899 	-7.902088696e-09
0.4835708931 	0.9241314943 	0.0001115969135 	-8.454207707e-09
0.4839817856 	0.9357070921 	0.0001186603019 	-9.037826873e-09
0.4844004009 	0.9470292111 	0.0001260839535 	-9.654589885e-09
0.4848268841 	0.9581083974 	0.0001338854187 	-1.030622895e-08
0.485261383 	0.9689551276 	0.0001420832763 	-1.099456975e-08
0.4857040484 	0.9795798159 	0.0001506971973 	-1.172153512e-08
0.4861550336 	0.9899928111 	0.0001597479742 	-1.248914747e-08
0.4866144951 	1.000204386 	0.0001692576308 	-1.329953652e-08
0.4870825921 	1.010224734 	0.0001792495655 	-1.415494168e-08
0.487559487 	1.020063981 	0.0001897485247 	-1.505770533e-08
0.4880453452 	1.029732206 	0.000200780589 	-1.601027471e-08
0.4885403351 	1.039239462 	0.0002123732658 	-1.701520297e-08
0.4890446283 	1.048595783 	0.000224555538 	-1.807514261e-08
0.4895583997 	1.057811196 	0.0002373578798 	-1.919283896e-08
0.4900818274 	1.06689572 	0.000250812269 	-2.037112065e-08
0.4906150929 	1.075859367 	0.0002649521901 	-2.161288647e-08
0.4911583811 	1.084712133 	0.000279812621 	-2.292108768e-08
0.4917118805 	1.093463985 	0.0002954300012 	-2.429870503e-08
0.4922757829 	1.102124852 	0.0003118421782 	-2.574871918e-08
0.4928502838 	1.110704603 	0.0003290883297 	-2.727407362e-08
0.4934355824 	1.119213024 	0.0003472088556 	-2.887762898e-08
0.4940318817 	1.127659804 	0.0003662452391 	-3.056210803e-08
0.4946393885 	1.136054505 	0.0003862398712 	-3.23300307e-08
0.4952583133 	1.144406549 	0.0004072358356 	-3.418363866e-08
0.4958888709 	1.152725202 	0.0004292766502 	-3.612480911e-08
0.4965312797 	1.161019565 	0.0004524059629 	-3.815495716e-08
0.4971857627 	1.169298581 	0.0004766671981 	-4.027492588e-08
0.4978525466 	1.177571051 	0.0005021031528 	-4.24848622e-08
0.4985318627 	1.185845672 	0.0005287555438 	-4.478407673e-08
0.4992239466 	1.194131105 	0.0005566645075 	-4.717088522e-08
0.4999290382 	1.202436065 	0.0005858680594 	-4.964243118e-08
0.5006473819 	1.210769438 	0.0006164015249 	-5.219449323e-08
0.501379227 	1.219140401 	0.0006482969878 	-5.48212902e-08
0.502124827 	1.227558498 	0.0006815828523 	-5.751531182e-08
0.5028844406 	1.236033496 	0.0007162833289 	-6.026720289e-08
0.5036583311 	1.244574689 	0.0007524167521 	-6.30657194e-08
0.5044467669 	1.253188829 	0.0007899940294 	-6.589803966e-08
0.5052500214 	1.261874949 	0.0008290337429 	-6.875142342e-08
0.506068373 	1.271728364 	0.0008748404104 	-7.197979644e-08
0.507324668 	1.28370858 	0.0009331059524 	-7.589915798e-08
0.5085949819 	1.296496653 	0.0009986820305 	-8.007332829e-08
0.5098794711 	1.308937097 	0.001066066893 	-8.409775957e-08
0.5111782938 	1.321013154 	0.001134984599 	-8.787826667e-08
0.5124916099 	1.332708256 	0.001205049299 	-9.125198162e-08
0.5138195812 	1.343994218 	0.001275764742 	-9.40558495e-08
0.5151623712 	1.35482895 	0.001346525232 	-9.615567889e-08
0.5165201452 	1.365162303 	0.001416612876 	-9.748740075e-08
0.5178930705 	1.37494271 	0.001485251055 	-9.811950612e-08
0.5192813161 	1.384121485 	0.001551651063 	-9.815824815e-08
0.520685053 	1.392656623 	0.001615027245 	-9.74893861e-08
0.522104454 	1.40051865 	0.001674598772 	-9.552712722e-08
0.523539694 	1.407701488 	0.001729709089 	-9.198889665e-08
0.5249909497 	1.414242246 	0.001781139559 	-8.927399197e-08
0.5264583998 	1.420251766 	0.001829754793 	-8.782387273e-08
0.527942225 	1.42585797 	0.001875463723 	-8.723225145e-08
0.5294426081 	1.431107807 	0.00191894787 	-8.719497412e-08
0.5309597337 	1.435995464 	0.001960218243 	-8.586544074e-08
0.5324937889 	1.440516103 	0.001998574208 	-8.354845052e-08
0.5340449624 	1.444668257 	0.002033817323 	-8.077855451e-08
0.5356134452 	1.448454407 	0.002065788557 	-7.768495508e-08
0.5371994306 	1.451881217 	0.002094351128 	-7.435690556e-08
0.5388031139 	1.454959468 	0.002119427717 	-7.088223641e-08
0.5404246925 	1.457703653 	0.002141003547 	-6.733333923e-08
0.5420643661 	1.460131235 	0.002159118562 	-6.376858865e-08
0.5437223366 	1.462261669 	0.00217385755 	-6.023454531e-08
0.5453988083 	1.464115333 	0.002185337303 	-5.675844733e-08
0.5470939875 	1.465712599 	0.002193681649 	-5.33367599e-08
0.5488080831 	1.467073385 	0.002199025409 	-5.001740939e-08
0.5505413061 	1.468218477 	0.002201562932 	-4.690876701e-08
0.5522938699 	1.469171677 	0.002201541758 	-4.407258049e-08
0.5540659904 	1.469958481 	0.002199234246 	-4.154578045e-08
0.5558578859 	1.470602295 	0.002194924338 	-3.932919144e-08
0.5576697768 	1.471122701 	0.002188860969 	-3.736583603e-08
0.5595018865 	1.471535791 	0.002181241164 	-3.560625871e-08
0.5613544406 	1.471854843 	0.002172228218 	-3.401956807e-08
0.563227667 	1.472090864 	0.002161960208 	-3.257949962e-08
0.5651217966 	1.472253028 	0.00215055359 	-3.126370172e-08
0.5670370626 	1.472349016 	0.002138106785 	-3.005377475e-08
0.5689737009 	1.472385292 	0.002124703349 	-2.893448572e-08
0.5709319499 	1.472367315 	0.0021104145 	-2.789306645e-08
0.5729120508 	1.472299718 	0.002095301145 	-2.691873748e-08
0.5749142474 	1.472186444 	0.002079415539 	-2.600235632e-08
0.5769387863 	1.472030864 	0.002062802643 	-2.513613935e-08
0.5789859169 	1.471835868 	0.002045501249 	-2.431343822e-08
0.5810558911 	1.471603937 	0.002027544903 	-2.352855772e-08
0.583148964 	1.471337211 	0.002008962682 	-2.277660562e-08
0.5852653933 	1.471037535 	0.001989779836 	-2.205336797e-08
0.5874054395 	1.470706506 	0.00197001833 	-2.135520515e-08
0.5895693664 	1.470345503 	0.001949697301 	-2.067896516e-08
0.5917574402 	1.469955722 	0.001928833444 	-2.002191123e-08
0.5939699306 	1.469538197 	0.001907441341 	-1.938166126e-08
0.5962071099 	1.469093824 	0.001885533741 	-1.875613699e-08
0.5984692536 	1.468623377 	0.001863121805 	-1.814352137e-08
0.6007566404 	1.468127521 	0.001840215315 	-1.754222248e-08
0.6030695519 	1.467606831 	0.00181682285 	-1.695084312e-08
0.6054082729 	1.467061796 	0.001792951952 	-1.636815483e-08
0.6077730914 	1.466492833 	0.001768609255 	-1.579307591e-08
0.6101642987 	1.465900296 	0.001743800614 	-1.522465245e-08
0.6125821893 	1.465284479 	0.001718531211 	-1.466204222e-08
0.6150270608 	1.464645624 	0.001692805647 	-1.410450076e-08
0.6174992144 	1.463983927 	0.00166662803 	-1.35513694e-08
0.6199989545 	1.463299543 	0.001640002049 	-1.300206504e-08
0.622526589 	1.462592589 	0.001612931045 	-1.245607123e-08
0.625082429 	1.461863148 	0.001585418069 	-1.191293058e-08
0.6276667894 	1.461111269 	0.00155746594 	-1.137223827e-08
0.6302799884 	1.460336977 	0.001529077295 	-1.083363646e-08
0.6329223478 	1.459540267 	0.001500254636 	-1.029680957e-08
0.6355941931 	1.458721112 	0.001471000369 	-9.761480326e-09
0.6382958531 	1.45787946 	0.001441316848 	-9.227406462e-09
0.6410276607 	1.45701524 	0.001411206406 	-8.694378059e-09
0.6437899523 	1.45612836 	0.001380671387 	-8.162215421e-09
0.646583068 	1.455218708 	0.001349714181 	-7.630767447e-09
0.6494073518 	1.454286156 	0.001318337248 	-7.099910466e-09
0.6522631514 	1.453330555 	0.001286543145 	-6.569547468e-09
0.6551508186 	1.452351742 	0.001254334551 	-6.039607702e-09
0.658070709 	1.451349535 	0.001221714286 	-5.510046572e-09
0.6610231822 	1.450323734 	0.001188685335 	-4.980845793e-09
0.6640086017 	1.449274126 	0.001155250864 	-4.452013754e-09
0.6670273351 	1.448200476 	0.001121414239 	-3.923586024e-09
0.6700797543 	1.447102534 	0.001087179042 	-3.39562594e-09
0.6731662352 	1.445980031 	0.001052549085 	-2.868225198e-09
0.6762871577 	1.44483268 	0.00101752842 	-2.341504404e-09
0.6794429063 	1.443660173 	0.0009821213567 	-1.815613477e-09
0.6826338695 	1.442462182 	0.0009463324667 	-1.290731852e-09
0.6858604404 	1.441238358 	0.000910166595 	-7.6706838e-10
0.6891230163 	1.439988328 	0.0008736288661 	-2.448608612e-10
0.6924219988 	1.438711695 	0.000836724689 	2.7562487e-10
0.6957577944 	1.437408037 	0.0007994597615 	7.940964042e-10
0.6991308138 	1.436076903 	0.0007618400717 	1.310236833e-09
0.7025414724 	1.434717813 	0.0007238718984 	1.82370751e-09
0.7059901901 	1.433330255 	0.0006855618099 	2.334151578e-09
0.7094773917 	1.431913682 	0.0006469166608 	2.841198339e-09
0.7130035066 	1.430467511 	0.0006079435878 	3.344468522e-09
0.7165689691 	1.428991121 	0.0005686499997 	3.843580424e-09
0.7201742182 	1.427483845 	0.0005290435673 	4.338157046e-09
0.7238196978 	1.425944972 	0.0004891322615 	4.82783549e-09
0.727505857 	1.424373741 	0.0004489244231 	5.312278555e-09
0.7312331497 	1.422769335 	0.000408428465 	5.791178851e-09
0.7350020349 	1.421135242 	0.0003677608701 	6.263025145e-09
0.7387709215 	1.419484705 	0.000327273602 	6.723810526e-09
0.7424982157 	1.417831314 	0.0002873122623 	7.169972454e-09
0.7461843763 	1.416179185 	0.0002479810276 	7.600916614e-09
0.7498298574 	1.414528054 	0.0002092756204 	8.017320484e-09
0.7534351078 	1.412877654 	0.0001711911991 	8.41989914e-09
0.7570005716 	1.411227714 	0.00013372273 	8.809418928e-09
0.7605266877 	1.409577957 	9.686494226e-05 	9.186703026e-09
0.7640138905 	1.407928106 	6.061232454e-05 	9.552634875e-09
0.7674626093 	1.40627788 	2.495917502e-05 	9.908154474e-09
0.770873269 	1.404626996 	-1.010034724e-05 	1.025423755e-08
0.7742462894 	1.40297517 	-4.457217257e-05 	1.059184557e-08
0.777582086 	1.401322114 	-7.846227071e-05 	1.092182113e-08
0.7808810695 	1.399667541 	-0.0001117766242 	1.12446898e-08
0.7841436462 	1.398011159 	-0.0001445212489 	1.156049144e-08
0.787370218 	1.396352677 	-0.0001767020164 	1.18691395e-08
0.7905611821 	1.394691799 	-0.0002083238441 	1.217024482e-08
0.7937169314 	1.39302823 	-0.0002393921113 	1.245537629e-08
0.7968378547 	1.391361669 	-0.0002699246292 	1.271473087e-08
0.7999243362 	1.389691763 	-0.0002999161436 	1.299858522e-08
0.8029767561 	1.388017166 	-0.0003293392235 	1.333121896e-08
0.8059954902 	1.38633499 	-0.0003581833936 	1.370541715e-08
0.8089809102 	1.384642172 	-0.0003864095406 	1.411859561e-08
0.8119333839 	1.382936256 	-0.0004139665145 	1.453537691e-08
0.8148532749 	1.381215008 	-0.0004408296161 	1.495074636e-08
0.8177409426 	1.379476241 	-0.0004669808986 	1.537599443e-08
0.8205967427 	1.377717759 	-0.0004924061885 	1.581410071e-08
0.8234210268 	1.37593737 	-0.0005170951458 	1.626084335e-08
0.8262141429 	1.374132939 	-0.0005410410682 	1.671003483e-08
0.8289764348 	1.372302448 	-0.0005642408942 	1.715661438e-08
0.8317082427 	1.370444071 	-0.0005866952033 	1.759747395e-08
0.8344099031 	1.368556229 	-0.0006084079171 	1.803106392e-08
0.8370817486 	1.366637633 	-0.000629385684 	1.845677105e-08
0.8397241082 	1.364687302 	-0.0006496370777 	1.887455277e-08
0.8423373074 	1.362704555 	-0.0006691717426 	1.928484292e-08
0.844921668 	1.360688975 	-0.0006879995833 	1.968856031e-08
0.8474775082 	1.358640364 	-0.0007061300553 	2.008708698e-08
0.8500051427 	1.35655867 	-0.0007235715927 	2.04821797e-08
0.8525048829 	1.354443927 	-0.0007403311927 	2.087584178e-08
0.8549770366 	1.35229618 	-0.0007564141631 	2.127019695e-08
0.8574219081 	1.350115426 	-0.0007718240236 	2.166739185e-08
0.8598397987 	1.347901569 	-0.0007865625383 	2.206953401e-08
0.862231006 	1.345654382 	-0.0008006298441 	2.247865881e-08
0.8645958245 	1.343373488 	-0.0008140246374 	2.289671539e-08
0.8669345455 	1.341058352 	-0.0008267443829 	2.332556286e-08
0.8692474569 	1.338708285 	-0.0008387855127 	2.376697188e-08
0.8715348435 	1.336322452 	-0.0008501435962 	2.422262903e-08
0.8737969871 	1.333899892 	-0.0008608134668 	2.469414315e-08
0.8760341663 	1.331439524 	-0.0008707893023 	2.518305335e-08
0.8782466565 	1.328940173 	-0.0008800646591 	2.569083874e-08
0.8804347301 	1.326400571 	-0.0008886324661 	2.621892993e-08
0.8825986568 	1.323819372 	-0.0008964849846 	2.676872221e-08
0.8847387028 	1.321195148 	-0.0009036137397 	2.734159019e-08
0.8868551318 	1.318526393 	-0.0009100094308 	2.793890299e-08
0.8889482045 	1.31581151 	-0.0009156618238 	2.856203844e-08
0.8910181784 	1.313048802 	-0.0009205596293 	2.921239418e-08
0.8930653087 	1.310236456 	-0.0009246903694 	2.989139273e-08
0.8950898473 	1.307372527 	-0.0009280402371 	3.060047731e-08
0.8970920436 	1.304454913 	-0.0009305939516 	3.134109511e-08
0.8990721441 	1.301481334 	-0.0009323346176 	3.211466452e-08
0.9010303927 	1.298449304 	-0.0009332435962 	3.292252383e-08
0.9029670306 	1.295356111 	-0.0009333004002 	3.376585915e-08
0.9048822962 	1.292198783 	-0.0009324826272 	3.46456108e-08
0.9067764254 	1.288974066 	-0.0009307659472 	3.556235849e-08
0.9086496514 	1.285678399 	-0.0009281241614 	3.651618744e-08
0.910502205 	1.282307892 	-0.0009245293507 	3.7506539e-08
0.9123343142 	1.278858305 	-0.0009199521282 	3.853205116e-08
0.9141462048 	1.275325042 	-0.0009143620117 	3.959039596e-08
0.9159380997 	1.271703134 	-0.0009077279238 	4.06781221e-08
0.9177102197 	1.26798725 	-0.0009000188259 	4.179051223e-08
0.9194627831 	1.264171702 	-0.0008912044843 	4.292146493e-08
0.9211960055 	1.260250464 	-0.00088125636 	4.406341164e-08
0.9229101006 	1.256217204 	-0.0008701486077 	4.520727836e-08
0.9246052793 	1.252065324 	-0.0008578591596 	4.634250051e-08
0.9262817504 	1.247788006 	-0.000844370865 	4.745709787e-08
0.9279397204 	1.243378272 	-0.0008296726489 	4.853781368e-08
0.9295793934 	1.238829048 	-0.000813760648 	4.957031859e-08
0.9312009714 	1.234133236 	-0.0007966392803 	5.053947684e-08
0.9328046541 	1.229283781 	-0.000778322202 	5.142966739e-08
0.9343906389 	1.224273749 	-0.0007588331088 	5.222514945e-08
0.9359591211 	1.219096389 	-0.0007382063435 	5.291045774e-08
0.937510294 	1.213745197 	-0.0007164872764 	5.347081063e-08
0.9390443485 	1.208213966 	-0.000693732439 	5.389251273e-08
0.9405614735 	1.202496826 	-0.0006700093978 	5.416333338e-08
0.942061856 	1.196588265 	-0.0006453963709 	5.427284419e-08
0.9435456805 	1.190483138 	-0.0006199815989 	5.421270114e-08
0.9450131299 	1.184176654 	-0.0005938624941 	5.39768609e-08
0.946464385 	1.177664343 	-0.0005671446001 	5.356172492e-08
0.9478996243 	1.170942011 	-0.0005399404015 	5.29662094e-08
0.9493190246 	1.16400567 	-0.0005123680265 	5.219174309e-08
0.9507227608 	1.156851452 	-0.0004845498902 	5.12421983e-08
0.9521110058 	1.149475516 	-0.0004566113249 	5.01237628e-08
0.9534839303 	1.141873937 	-0.0004286792442 	4.884476229e-08
0.9548417036 	1.134042616 	-0.0004008808882 	4.741544375e-08
0.9561844929 	1.125977207 	-0.0003733426861 	4.584773091e-08
0.9575124634 	1.117673135 	-0.0003461892728 	4.415496205e-08
0.9588257788 	1.10912578 	-0.0003195427394 	4.235163065e-08
0.9601246008 	1.100331044 	-0.0002935221803 	4.045317483e-08
0.9614090893 	1.091286649 	-0.0002682427136 	3.84757928e-08
0.9626794024 	1.081994939 	-0.0002438118803 	3.643587587e-08
0.9639356968 	1.073283724 	-0.0002222707462 	3.452743238e-08
0.9647540487 	1.066097708 	-0.0002054589347 	3.29614441e-08
0.9655573034 	1.059726926 	-0.000191221696 	3.158224286e-08
0.9663457395 	1.05336812 	-0.0001776079851 	3.02163885e-08
0.9671196303 	1.047020769 	-0.0001646074957 	2.886782241e-08
0.9678792442 	1.040680194 	-0.0001522119902 	2.754062989e-08
0.9686248445 	1.034339895 	-0.0001404113057 	2.62384842e-08
0.9693566897 	1.027992687 	-0.0001291939044 	2.496459442e-08
0.9700750337 	1.021631198 	-0.0001185473221 	2.372174456e-08
0.9707801255 	1.015248083 	-0.0001084582213 	2.251231018e-08
0.9714722095 	1.008836075 	-9.891241807e-05 	2.133827093e-08
0.9721515258 	1.002387984 	-8.989495526e-05 	2.02012288e-08
0.9728183099 	0.9958966691 	-8.139020218e-05 	1.910243034e-08
0.9734727929 	0.9893550051 	-7.338196444e-05 	1.804279113e-08
0.9741152019 	0.9827558558 	-6.585359934e-05 	1.70229215e-08
0.9747457596 	0.9760920532 	-5.878813199e-05 	1.604315304e-08
0.9753646845 	0.9693563835 	-5.216836812e-05 	1.510356532e-08
0.9759721914 	0.9625415809 	-4.597700082e-05 	1.420401239e-08
0.9765684907 	0.9556403254 	-4.019670925e-05 	1.334414871e-08
0.9771537895 	0.9486452459 	-3.481024837e-05 	1.252345423e-08
0.9777282904 	0.941548925 	-2.980052899e-05 	1.17412583e-08
0.9782921928 	0.9343439057 	-2.515068833e-05 	1.099676231e-08
0.9788456922 	0.9270226993 	-2.084415094e-05 	1.028906082e-08
0.9793889805 	0.9195777918 	-1.686468078e-05 	9.617161175e-09
0.979922246 	0.91200165 	-1.319642444e-05 	8.980001395e-09
0.9804456737 	0.9042867258 	-9.823946477e-06 	8.376466497e-09
0.9809594451 	0.8964254584 	-6.732259685e-06 	7.805403648e-09
0.9814637383 	0.8884102739 	-3.90685486e-06 	7.265636511e-09
0.9819587281 	0.8802335815 	-1.333704947e-06 	6.755972619e-09
0.9824445862 	0.8718877654 	1.000749593e-06 	6.275211889e-09
0.9829214811 	0.8633651721 	3.109553603e-06 	5.822167911e-09
0.9833895781 	0.8546581015 	5.005189714e-06 	5.395673306e-09
0.9838490396 	0.8457588068 	6.699628717e-06 	4.994572838e-09
0.9843000247 	0.8366594965 	8.204372108e-06 	4.617733183e-09
0.98474269 	0.8273523319 	9.53044121e-06 	4.264049687e-09
0.9851771888 	0.8178294192 	1.06883852e-05 	3.932445031e-09
0.9856036719 	0.8080828004 	1.168830725e-05 	3.621870678e-09
0.9860222871 	0.798104443 	1.253988672e-05 	3.33130798e-09
0.9864331796 	0.7878862322 	1.325239988e-05 	3.05976871e-09
0.9868364919 	0.7774199647 	1.383474097e-05 	2.806295259e-09
0.9872323637 	0.7666973469 	1.429544336e-05 	2.569960593e-09
0.9876209323 	0.755709998 	1.464270081e-05 	2.349867949e-09
0.9880023326 	0.7444494581 	1.488438911e-05 	2.145150339e-09
0.9883766967 	0.7329072038 	1.502808752e-05 	1.954970282e-09
0.9887441544 	0.7210746664 	1.508109405e-05 	1.778520244e-09
0.9891048331 	0.7089432405 	1.505042294e-05 	1.615020877e-09
0.9894588579 	0.6965042154 	1.494280828e-05 	1.463710532e-09
0.9898063516 	0.68374834 	1.476469569e-05 	1.323889181e-09
0.9901474347 	0.6706647557 	1.452210702e-05 	1.194934847e-09
0.9904822253 	0.6572419574 	1.422037774e-05 	1.076267886e-09
0.9908108397 	0.643470556 	1.386463616e-05 	9.673302795e-10
0.9911333916 	0.6293430733 	1.346024158e-05 	8.675604358e-10
0.9914499931 	0.61485244 	1.301251585e-05 	7.763995877e-10
0.9917607538 	0.5999918889 	1.252667058e-05 	6.933047946e-10
0.9920657815 	0.5847551934 	1.20078203e-05 	6.177512483e-10
0.9923651819 	0.569136989 	1.14608953e-05 	5.492322343e-10
0.992659059 	0.5531331156 	1.089038815e-05 	4.872576749e-10
0.9929475145 	0.5367409656 	1.030101293e-05 	4.313552552e-10
0.9932306485 	0.5199597752 	9.701942783e-06 	3.810918211e-10
0.9935085592 	0.5027903203 	9.104467813e-06 	3.36086092e-10
0.9937813429 	0.4867433207 	8.54300858e-06 	2.990639352e-10
0.9939569055 	0.4734421403 	8.065349027e-06 	2.716185869e-10
0.9941324681 	0.4613936991 	7.644558141e-06 	2.490586745e-10
0.9943080307 	0.4489911467 	7.23215242e-06 	2.279592596e-10
0.9944835934 	0.436229965 	6.825081581e-06 	2.082607123e-10
0.994659156 	0.4231069423 	6.409748356e-06 	1.901380576e-10
0.9948347186 	0.4096197861 	5.911059986e-06 	1.738736041e-10
0.9950102812 	0.3957668021 	5.381038533e-06 	1.5629376e-10
0.9951858439 	0.3815394032 	5.132120109e-06 	1.399081455e-10
0.9953614065 	0.3669101749 	4.994229812e-06 	1.293950263e-10
0.9955369691 	0.351849664 	4.539673458e-06 	1.179989105e-10
0.9957125317 	0.3363555653 	4.014013747e-06 	1.048652384e-10
0.9958880943 	0.320446765 	3.625980711e-06 	9.390333427e-11
0.996063657 	0.3041495232 	3.255987649e-06 	8.387104811e-11
0.9962392196 	0.2874966992 	2.883954014e-06 	7.438155582e-11
0.9964147822 	0.2705263615 	2.519968083e-06 	6.541124441e-11
0.9965903448 	0.2532798374 	2.173451396e-06 	5.697782858e-11
0.9967659075 	0.2357994398 	1.851240352e-06 	4.91054518e-11
0.9969414701 	0.2181261931 	1.55827659e-06 	4.18279599e-11
0.9971170327 	0.2002978776 	1.296712706e-06 	3.517000827e-11
0.9972925953 	0.1823476249 	1.065679135e-06 	2.913198066e-11
0.997468158 	0.164303168 	8.6230203e-07 	2.36924685e-11
0.9976437206 	0.1461867192 	6.832281914e-07 	1.882241395e-11
0.9978192832 	0.1280153516 	5.258230192e-07 	1.449947052e-11
0.9979948458 	0.1098017151 	3.886648646e-07 	1.071542233e-11
0.9981704085 	0.09155491889 	2.714225403e-07 	7.475522358e-12
0.9983459711 	0.07328143704 	1.744358965e-07 	4.793767133e-12
0.9985215337 	0.05498593561 	9.835733482e-08 	2.690425716e-12
0.9986970963 	0.03667195845 	4.406167919e-08 	1.193415698e-12
0.998872659 	0.01834244169 	1.191726445e-08 	3.13214634e-13
0.9990482216 	0.007724531123 	1.136503362e-09 	2.180161603e-14
0.9990482216 	0.007724531123 	1.136503362e-09 	2.180161603e-14
