0.4330902145 	2.050062915e-08 	-2.033033677e-11 	1.567443492e-14 	2.047034737e-08 	-6.903495436e-12 	3.902217152e-11
0.4332736287 	2.442351446e-07 	-9.726181999e-10 	6.050439969e-13 	2.441872488e-07 	-5.969961512e-11 	4.654887646e-10
0.4334570457 	1.380970688e-06 	-1.310024186e-08 	7.259368416e-12 	1.383943047e-06 	-2.915104165e-10 	2.638180094e-09
0.4336404653 	4.631192261e-06 	-8.352576237e-08 	4.254947408e-11 	4.658008128e-06 	-8.870577504e-10 	8.879458118e-09
0.4338238871 	1.148251957e-05 	-3.454890863e-07 	1.640917397e-10 	1.160774273e-05 	-2.054267238e-09 	2.212758385e-08
0.4340073109 	2.354821092e-05 	-1.080250852e-06 	4.817217409e-10 	2.396235581e-05 	-3.996162385e-09 	4.567891016e-08
0.4341907363 	4.248931994e-05 	-2.78214234e-06 	1.168664345e-09 	4.358821158e-05 	-6.889027863e-09 	8.309124599e-08
0.4343741631 	6.995065393e-05 	-6.216684744e-06 	2.462162843e-09 	7.244872716e-05 	-1.085706123e-08 	1.3810741e-07
0.4345575909 	0.0001074920978 	-1.245782592e-05 	4.648858739e-09 	0.000112550615 	-1.594316072e-08 	2.14552754e-07
0.4347410195 	0.0001565094078 	-2.28862814e-05 	8.031316789e-09 	0.0001658630796 	-2.20784052e-08 	3.161811289e-07
0.4349244486 	0.0002181447347 	-3.913020441e-05 	1.287585736e-08 	0.0002342024808 	-2.90558098e-08 	4.464550217e-07
0.4351078778 	0.0002931926489 	-6.293556178e-05 	1.934852786e-08 	0.0003190831223 	-3.651664249e-08 	6.082611157e-07
0.435291307 	0.0003820128265 	-9.596894622e-05 	2.745391756e-08 	0.0004215466901 	-4.395847718e-08 	8.035851543e-07
0.4354747357 	0.0004844645103 	-0.0001395783653 	3.699665392e-08 	0.0005419964154 	-5.077144961e-08 	1.033195808e-06
0.4356581637 	0.0005998784348 	-0.0001945601529 	4.758316675e-08 	0.0006800720495 	-5.630210064e-08 	1.296406343e-06
0.4358415907 	0.0007270776679 	-0.0002609907582 	5.866977398e-08 	0.0008346017652 	-5.993445059e-08 	1.59098293e-06
0.4360250165 	0.0008644499943 	-0.0003381713716 	6.964617473e-08 	0.001003653591 	-6.117020285e-08 	1.913242695e-06
0.4362084406 	0.001010063274 	-0.0004247018543 	7.992967521e-08 	0.001184685327 	-5.968954983e-08 	2.2583395e-06
0.4363918629 	0.001161805725 	-0.0005186614841 	8.904335649e-08 	0.001374766883 	-5.53796143e-08 	2.620687776e-06
0.436575283 	0.001317537522 	-0.0006178501778 	9.666769485e-08 	0.001570814777 	-4.828946182e-08 	2.994409551e-06
0.4367587007 	0.001475125492 	-0.0007204682207 	1.035047353e-07 	0.001769917525 	-3.875859687e-08 	3.373954726e-06
0.4369421156 	0.001634407337 	-0.0008169596125 	9.354329229e-08 	0.001968016221 	-2.523440269e-08 	3.7515859e-06
0.4371255275 	0.001795207428 	-0.0009018527374 	8.125974773e-08 	0.002162727037 	-1.2285116e-08 	4.122758832e-06
0.4373089361 	0.001955336168 	-0.000982205517 	8.300144771e-08 	0.002354731511 	-2.365649493e-09 	4.488772724e-06
0.4374923411 	0.002113326484 	-0.001061466326 	8.419205727e-08 	0.002543967325 	8.306747017e-09 	4.849508781e-06
0.4376757422 	0.002268500421 	-0.001139295855 	8.483824355e-08 	0.002729642164 	1.962020816e-08 	5.203456629e-06
0.4378591391 	0.00242029943 	-0.001215413664 	8.497289622e-08 	0.002911086185 	3.149754597e-08 	5.549339362e-06
0.4380425315 	0.002568281495 	-0.001289597336 	8.462631071e-08 	0.003087760853 	4.3821922e-08 	5.886130384e-06
0.4382259191 	0.002712108521 	-0.001361677357 	8.383136492e-08 	0.003259263672 	5.648930429e-08 	6.213062424e-06
0.4384093017 	0.002851547732 	-0.001431537396 	8.262054731e-08 	0.003425317601 	6.942398271e-08 	6.529607365e-06
0.438592679 	0.003004877218 	-0.001508334223 	8.083451505e-08 	0.003607671323 	8.458801601e-08 	6.877224242e-06
0.4388775938 	0.003188488657 	-0.001600270192 	7.78022298e-08 	0.003825737858 	1.038080552e-07 	7.292919666e-06
0.4391678485 	0.003382630819 	-0.001697446149 	7.370089718e-08 	0.004055933519 	1.257924604e-07 	7.731736577e-06
0.4394635417 	0.003569276095 	-0.001790835527 	6.879335871e-08 	0.004276770936 	1.483628602e-07 	8.152714071e-06
0.4397647738 	0.003747876347 	-0.001880179903 	6.318574796e-08 	0.00448758209 	1.712011871e-07 	8.554578722e-06
0.4400716469 	0.00391802966 	-0.001965316148 	5.697946958e-08 	0.00468790943 	1.940150145e-07 	8.936458311e-06
0.4403842649 	0.004079471396 	-0.002046182538 	5.025454092e-08 	0.004877473738 	2.165366837e-07 	9.297820569e-06
0.4407027333 	0.004232048876 	-0.002122819183 	4.30564268e-08 	0.00505614305 	2.385225613e-07 	9.638413936e-06
0.4410271599 	0.004375695543 	-0.002195366868 	3.538612109e-08 	0.005223911488 	2.597618433e-07 	9.958227207e-06
0.4413576537 	0.004510411462 	-0.002264064565 	2.719376621e-08 	0.00538088942 	2.800951878e-07 	1.025747078e-05
0.4416943261 	0.004636539889 	-0.002327851857 	1.996072964e-08 	0.005527042767 	2.989855473e-07 	1.053607968e-05
0.4420372902 	0.004754447594 	-0.002386133818 	1.332107259e-08 	0.005662544574 	3.163751354e-07 	1.079438378e-05
0.4423866608 	0.004864237621 	-0.00243999757 	6.166211496e-09 	0.005787935132 	3.324996089e-07 	1.103341303e-05
0.4427425551 	0.004966113849 	-0.002489980808 	-7.564000351e-10 	0.005903624446 	3.471415656e-07 	1.125394902e-05
0.4431050918 	0.005060358531 	-0.00253620646 	-7.396172156e-09 	0.006009943515 	3.602162717e-07 	1.145662272e-05
0.4434743918 	0.005147262981 	-0.002578806574 	-1.371005717e-08 	0.006107242589 	3.716684148e-07 	1.164210179e-05
0.443850578 	0.005227128513 	-0.002617921281 	-1.966184413e-08 	0.006195887048 	3.814636017e-07 	1.181108277e-05
0.4442337753 	0.005300264177 	-0.002653696658 	-2.522203326e-08 	0.006276250848 	3.895831e-07 	1.196427851e-05
0.4446241106 	0.005367049859 	-0.002686314868 	-3.037750146e-08 	0.006348781803 	3.960469943e-07 	1.210254267e-05
0.4450233411 	0.005427880672 	-0.002715966992 	-3.511576116e-08 	0.006413947674 	4.008472242e-07 	1.222676693e-05
0.445431201 	0.005483001002 	-0.002742771413 	-3.941068556e-08 	0.006472054233 	4.039752118e-07 	1.233753418e-05
0.4458466793 	0.005532597771 	-0.002766818071 	-4.323651629e-08 	0.006523331468 	4.054368455e-07 	1.243528284e-05
0.4462699177 	0.0055769322 	-0.002788233821 	-4.657980569e-08 	0.006568090989 	4.052470575e-07 	1.252060693e-05
0.4467010604 	0.00561629747 	-0.002807162159 	-4.943766809e-08 	0.006606686638 	4.034514391e-07 	1.259418097e-05
0.4471402543 	0.005650982901 	-0.002823744853 	-5.181336766e-08 	0.00663946497 	4.001084052e-07 	1.265666558e-05
0.4475876489 	0.005681274839 	-0.002838122449 	-5.371702803e-08 	0.006666768319 	3.9529164e-07 	1.270871335e-05
0.4480433967 	0.005707458613 	-0.002850435189 	-5.516651993e-08 	0.006688937092 	3.890914732e-07 	1.275097319e-05
0.4485076529 	0.005729830726 	-0.002860828801 	-5.620004343e-08 	0.006706323154 	3.816450446e-07 	1.278411586e-05
0.4489805754 	0.005748699299 	-0.002869454654 	-5.686270386e-08 	0.00671929003 	3.731041943e-07 	1.280883433e-05
0.4494623252 	0.005764356895 	-0.002876456662 	-5.718006408e-08 	0.006728181951 	3.635709183e-07 	1.28257848e-05
0.4499530662 	0.005777069161 	-0.002881965769 	-5.71717919e-08 	0.006733311531 	3.531308028e-07 	1.283556321e-05
0.4504529654 	0.005787084964 	-0.002886104725 	-5.686203253e-08 	0.006734971903 	3.418791898e-07 	1.283872834e-05
0.4509621928 	0.005794641139 	-0.002888990322 	-5.62748099e-08 	0.00673344232 	3.29910267e-07 	1.283581252e-05
0.4514809216 	0.005799962352 	-0.002890733318 	-5.543386548e-08 	0.006728988122 	3.173166662e-07 	1.282732159e-05
0.4520093281 	0.005803260934 	-0.002891438349 	-5.436254389e-08 	0.006721860723 	3.041891956e-07 	1.281373478e-05
0.452547592 	0.005804736689 	-0.002891203841 	-5.308369249e-08 	0.006712297602 	2.906166406e-07 	1.279550482e-05
0.4530958961 	0.005804576716 	-0.002890121931 	-5.161956041e-08 	0.006700522318 	2.766855396e-07 	1.277305785e-05
0.4536544268 	0.005802955198 	-0.002888278384 	-4.999168329e-08 	0.006686744578 	2.624799352e-07 	1.274679365e-05
0.4542233737 	0.005800033114 	-0.002885752504 	-4.822072968e-08 	0.006671160537 	2.480812606e-07 	1.271708614e-05
0.4548029302 	0.005795957958 	-0.002882617059 	-4.632630048e-08 	0.006653953073 	2.335685323e-07 	1.268428393e-05
0.455393293 	0.005790863141 	-0.002878938141 	-4.432679632e-08 	0.006635292605 	2.190175546e-07 	1.264871189e-05
0.4559946626 	0.005784865241 	-0.002874773297 	-4.223916487e-08 	0.006615327849 	2.044980858e-07 	1.261065352e-05
0.4566082852 	0.005778058916 	-0.002870167817 	-4.007209103e-08 	0.006594167324 	1.900476145e-07 	1.257031567e-05
0.45723626 	0.005770525422 	-0.002865163059 	-3.782882891e-08 	0.006571933479 	1.756856835e-07 	1.252793179e-05
0.4578759321 	0.005762358577 	-0.002859806928 	-3.553961467e-08 	0.00654876762 	1.61548835e-07 	1.248377122e-05
0.4585275182 	0.005753638399 	-0.002854139552 	-3.32160061e-08 	0.006524784772 	1.476927106e-07 	1.243805325e-05
0.4591912389 	0.005744414399 	-0.002848187516 	-3.086705747e-08 	0.006500079391 	1.341643992e-07 	1.239095792e-05
0.459867319 	0.005734727206 	-0.002841972206 	-2.850048822e-08 	0.006474726664 	1.210042291e-07 	1.234262858e-05
0.4605559872 	0.005724604451 	-0.002835509182 	-2.61224585e-08 	0.006448791655 	1.082474242e-07 	1.229318924e-05
0.4612574765 	0.005714061221 	-0.002828808369 	-2.373769178e-08 	0.006422329094 	9.592376268e-08 	1.224274425e-05
0.4619720244 	0.005703100575 	-0.002821874227 	-2.134959956e-08 	0.00639538285 	8.405725342e-08 	1.219137722e-05
0.4626998725 	0.005691713779 	-0.002814705846 	-1.896037618e-08 	0.006367985758 	7.266608135e-08 	1.213915074e-05
0.463441267 	0.005679880496 	-0.002807296995 	-1.65710728e-08 	0.006340159304 	6.176267556e-08 	1.208610579e-05
0.4641964587 	0.005667569037 	-0.002799636146 	-1.418163724e-08 	0.006311912955 	5.13538819e-08 	1.20322604e-05
0.4649657028 	0.005654736781 	-0.002791706477 	-1.179089486e-08 	0.006283242931 	4.144128936e-08 	1.197760736e-05
0.4657492594 	0.005641331118 	-0.002783485924 	-9.396445455e-09 	0.006254129798 	3.202172064e-08 	1.192210964e-05
0.4665473934 	0.005627289772 	-0.00277494714 	-6.994462929e-09 	0.006224537269 	2.308762869e-08 	1.186569806e-05
0.4673603745 	0.00561253337 	-0.002766054975 	-4.579399713e-09 	0.006194412762 	1.462694288e-08 	1.180827237e-05
0.4681892405 	0.005596959333 	-0.002756758394 	-2.140412335e-09 	0.00616363803 	6.610976963e-09 	1.174960718e-05
0.4689198652 	0.005582776738 	-0.002748362341 	8.886805742e-08 	0.0061364252 	-2.577014708e-07 	1.169773196e-05
0.4690375466 	0.005580490898 	-0.002747008838 	-3.194069327e-10 	0.006132038005 	1.021362881e-09 	1.168936875e-05
0.4699010404 	0.005560842068 	-0.002735467632 	-2.65764277e-09 	0.006095381941 	8.189185058e-09 	1.16194921e-05
0.471226299 	0.005535891597 	-0.002720853103 	-6.246086412e-09 	0.006049549642 	1.842535824e-08 	1.1532123e-05
0.4725659371 	0.005508037721 	-0.002704534774 	-9.911728894e-09 	0.005998748989 	2.787551118e-08 	1.143528284e-05
0.4739201122 	0.005479448104 	-0.002687786232 	-1.367240253e-08 	0.005947026157 	3.664645054e-08 	1.133668475e-05
0.475288984 	0.00544996677 	-0.002670541324 	-1.754082517e-08 	0.00589429813 	4.479381462e-08 	1.123617047e-05
0.4766727141 	0.005419482364 	-0.002652752823 	-2.152358178e-08 	0.005840509937 	5.235150504e-08 	1.113363523e-05
0.4780714658 	0.005387908262 	-0.002634386612 	-2.562266638e-08 	0.005785638666 	5.934756025e-08 	1.102903533e-05
0.4794854044 	0.005355144065 	-0.002615395402 	-2.983653621e-08 	0.005729598556 	6.581067857e-08 	1.092220731e-05
0.4809214894 	0.005321081116 	-0.002595734388 	-3.418550346e-08 	0.005672336492 	7.182151049e-08 	1.08130499e-05
0.4823738791 	0.00528571256 	-0.002575410041 	-3.864155454e-08 	0.005613915795 	7.735937293e-08 	1.070168381e-05
0.4838420137 	0.005249051393 	-0.002554436413 	-4.319917485e-08 	0.005554401319 	8.246892323e-08 	1.058823268e-05
0.4853260666 	0.005211052514 	-0.002532804623 	-4.78559789e-08 	0.005493827028 	8.720632812e-08 	1.047276124e-05
0.4868262135 	0.005171678989 	-0.0025105038 	-5.26105971e-08 	0.005432191501 	9.162613361e-08 	1.03552668e-05
0.4883426321 	0.005130894099 	-0.002487522592 	-5.746276828e-08 	0.005369486835 	9.57852942e-08 	1.023573428e-05
0.4898755023 	0.005088651923 	-0.002463843903 	-6.241302386e-08 	0.005305685178 	9.973856464e-08 	1.011411059e-05
0.4914262901 	0.005044865272 	-0.002439425393 	-6.74658389e-08 	0.00524068253 	1.035471518e-07 	9.990197475e-06
0.4930000595 	0.004999451212 	-0.002414233425 	-7.263633452e-08 	0.005174418626 	1.072807552e-07 	9.863880057e-06
0.4945908782 	0.004952426657 	-0.002388283147 	-7.79053854e-08 	0.005106939197 	1.109653071e-07 	9.735245509e-06
0.496198935 	0.004903794457 	-0.00236158313 	-8.327854184e-08 	0.005038274858 	1.146765655e-07 	9.604352196e-06
0.497824421 	0.004853495642 	-0.002334116239 	-8.876191236e-08 	0.004968414828 	1.184867766e-07 	9.471179562e-06
0.4994675299 	0.004801480823 	-0.002305863311 	-9.436212e-08 	0.004897318097 	1.224604997e-07 	9.335649433e-06
0.5011284574 	0.004747690867 	-0.002276800529 	-1.00086344e-07 	0.004824933467 	1.266562718e-07 	9.19766421e-06
0.5028080558 	0.004692012157 	-0.002246872446 	-1.059421833e-07 	0.004751124759 	1.311368444e-07 	9.056964297e-06
0.5045124937 	0.004634320485 	-0.002216027041 	-1.119530397e-07 	0.004675791371 	1.359704558e-07 	8.913357921e-06
0.5062353919 	0.004574609807 	-0.002184270319 	-1.181061618e-07 	0.004598959796 	1.411888859e-07 	8.766895587e-06
0.5079769559 	0.004512858139 	-0.002151601647 	-1.244167655e-07 	0.00452064452 	1.468699359e-07 	8.617604904e-06
0.509737394 	0.004448963828 	-0.002117987294 	-1.309019592e-07 	0.004440805089 	1.530793894e-07 	8.465408758e-06
0.5115169172 	0.004382833854 	-0.002083387148 	-1.375803228e-07 	0.004359353402 	1.598561473e-07 	8.310139204e-06
0.5133157389 	0.004314341522 	-0.002047735751 	-1.444720823e-07 	0.004276121322 	1.672335456e-07 	8.151475726e-06
0.515137967 	0.00424333016 	-0.002010945828 	-1.516119274e-07 	0.004190874789 	1.752523039e-07 	7.988972142e-06
0.5169830942 	0.004169746911 	-0.001972965459 	-1.590194523e-07 	0.004103416635 	1.839385037e-07 	7.822252593e-06
0.5188482099 	0.004093656895 	-0.001933775721 	-1.619990571e-07 	0.004013558884 	1.878967764e-07 	7.650958744e-06
0.5207335384 	0.004015157944 	-0.001893347447 	-1.597776952e-07 	0.003921030761 	1.862563236e-07 	7.474574426e-06
0.522639307 	0.003934440229 	-0.001851656177 	-1.575378889e-07 	0.003825481528 	1.851029276e-07 	7.292431029e-06
0.5245657457 	0.003851824204 	-0.001808697513 	-1.551834933e-07 	0.003726521155 	1.845118636e-07 	7.103785055e-06
0.526516352 	0.0037678085 	-0.001764528744 	-1.523139315e-07 	0.003623877913 	1.840614547e-07 	6.908118507e-06
0.5284915975 	0.003683250471 	-0.001719382112 	-1.484271155e-07 	0.003517728969 	1.830719111e-07 	6.705769117e-06
0.5304882478 	0.003599208698 	-0.001673632646 	-1.434235201e-07 	0.003408756373 	1.813829751e-07 	6.498037062e-06
0.5325065448 	0.003516492452 	-0.001627645046 	-1.373027441e-07 	0.00329796164 	1.781544149e-07 	6.286831506e-06
0.5345467337 	0.003435471073 	-0.001581761383 	-1.298290852e-07 	0.003186746832 	1.70435958e-07 	6.074825172e-06
0.5366090627 	0.003355936783 	-0.001536335295 	-1.208333118e-07 	0.003077055352 	1.553110998e-07 	5.865722723e-06
0.5386990383 	0.003277206633 	-0.001490543924 	-1.33029718e-07 	0.002971340837 	1.301666411e-07 	5.664201477e-06
0.5408128428 	0.003198438908 	-0.001438132945 	-1.554982453e-07 	0.002872186018 	1.046036363e-07 	5.475184833e-06
0.5429495711 	0.003119297688 	-0.001381931078 	-1.583117329e-07 	0.002778169004 	8.952156788e-08 	5.295962274e-06
0.5451094844 	0.003040329584 	-0.001327712532 	-1.549055151e-07 	0.002686311981 	8.034887884e-08 	5.120857258e-06
0.5472928472 	0.002962178935 	-0.001273107649 	-1.53278823e-07 	0.002596086357 	7.224343686e-08 	4.948862142e-06
0.5495029917 	0.002885107641 	-0.001218089744 	-1.495280126e-07 	0.002507380666 	6.460498743e-08 	4.779764439e-06
0.5517401277 	0.002809301565 	-0.001162798635 	-1.443074635e-07 	0.002420387736 	5.70795088e-08 	4.613931737e-06
0.5540015404 	0.002735016397 	-0.00110742013 	-1.3814708e-07 	0.002335295538 	4.980750516e-08 	4.451722357e-06
0.5562875083 	0.002662477932 	-0.001052092167 	-1.313731513e-07 	0.002252243179 	4.284959395e-08 	4.293401477e-06
0.5585983135 	0.00259186844 	-0.0009968963074 	-1.242150233e-07 	0.002171307383 	3.621326784e-08 	4.139115356e-06
0.5609371009 	0.002523352581 	-0.000941873215 	-1.168176364e-07 	0.002092547892 	2.989944175e-08 	3.988977876e-06
0.5633041214 	0.002457149404 	-0.0008870930462 	-1.09321904e-07 	0.002016069744 	2.392307455e-08 	3.84318927e-06
0.5656968536 	0.002393519405 	-0.0008326699192 	-1.018572969e-07 	0.001942012343 	1.83066238e-08 	3.70201528e-06
0.5681155946 	0.002332689618 	-0.0007786753398 	-9.450622184e-08 	0.001870501667 	1.30641098e-08 	3.565696056e-06
0.5705606454 	0.002274847547 	-0.0007251294089 	-8.733118776e-08 	0.001801605612 	8.203957192e-09 	3.434361027e-06
0.5730364139 	0.002220174603 	-0.0006720229536 	-8.036018441e-08 	0.001735392496 	3.732903092e-09 	3.308140426e-06
0.5755402815 	0.002168904327 	-0.0006193990607 	-7.366170824e-08 	0.001671967349 	-3.328141053e-10 	3.187234466e-06
0.5780713847 	0.002121259344 	-0.0005673179497 	-6.727266883e-08 	0.001611431754 	-3.97470156e-09 	3.071836798e-06
0.5806300406 	0.002077403641 	-0.000515787284 	-6.120475178e-08 	0.001553850006 	-7.175378408e-09 	2.962069982e-06
0.5832180167 	0.002037466339 	-0.0004647828397 	-5.545315386e-08 	0.001499228729 	-9.921032637e-09 	2.857946646e-06
0.5858376189 	0.002001570299 	-0.0004142911389 	-5.001965009e-08 	0.001447555396 	-1.220112358e-08 	2.759442913e-06
0.5884857425 	0.001969837881 	-0.0003643496285 	-4.491986913e-08 	0.001398796958 	-1.400924932e-08 	2.666495778e-06
0.5911627215 	0.001942346003 	-0.0003149864725 	-4.014243646e-08 	0.001352863866 	-1.534140161e-08 	2.578934539e-06
0.5938690591 	0.001919136278 	-0.0002661947953 	-3.566939195e-08 	0.001309569354 	-1.620147104e-08 	2.496403164e-06
0.5966092402 	0.001900267602 	-0.0002179687657 	-3.147830431e-08 	0.001268640478 	-1.660243592e-08 	2.418381352e-06
0.5993792916 	0.001885846939 	-0.0001703622452 	-2.758087945e-08 	0.001229743416 	-1.658739172e-08 	2.34423274e-06
0.602179565 	0.001875989896 	-0.0001234277089 	-2.397013661e-08 	0.001192512631 	-1.622799046e-08 	2.273260517e-06
0.6050104173 	0.001870715929 	-7.707596949e-05 	-2.063988214e-08 	0.001156996592 	-1.567347374e-08 	2.205557074e-06
0.6078761888 	0.001869772181 	-3.11369162e-05 	-1.753561031e-08 	0.001123939098 	-1.492985398e-08 	2.142540304e-06
0.6107733423 	0.001872714036 	1.44046413e-05 	-1.462435009e-08 	0.001093973208 	-1.384642253e-08 	2.085416989e-06
0.6137021528 	0.001879115063 	5.945681627e-05 	-1.18899328e-08 	0.001067168741 	-1.23626549e-08 	2.034320225e-06
0.6166633566 	0.001888601046 	0.0001039507492 	-9.325691494e-09 	0.001043402041 	-1.052589673e-08 	1.989014288e-06
0.6196602986 	0.001900835895 	0.000147798495 	-6.928818994e-09 	0.001022527482 	-8.39887013e-09 	1.949221577e-06
0.6226900141 	0.001915492215 	0.000190843766 	-4.709698779e-09 	0.001004423063 	-6.066348453e-09 	1.914709522e-06
0.6257528942 	0.001932239182 	0.0002328910735 	-2.652962907e-09 	0.0009890039389 	-3.58952094e-09 	1.885316387e-06
0.6288506095 	0.001950748852 	0.0002737339012 	-7.315799205e-10 	0.0009762219327 	-1.026213739e-09 	1.860950331e-06
0.6301370712 	0.001958939608 	0.0002898866666 	6.800623268e-07 	0.0009720388229 	-2.708617267e-07 	1.852976161e-06
0.6319842164 	0.00197070026 	0.0003130792819 	-9.755733196e-10 	0.0009660342424 	-1.574966513e-09 	1.841529761e-06
0.6351521115 	0.001991766646 	0.0003505109228 	-2.545367788e-09 	0.0009584019263 	-4.124242641e-09 	1.826980446e-06
0.6383547749 	0.002013604475 	0.0003855191767 	-4.103744891e-09 	0.0009533194951 	-6.532232064e-09 	1.817291919e-06
0.6415950545 	0.002035774301 	0.0004178313927 	-5.593140258e-09 	0.000951026185 	-8.729671078e-09 	1.812920233e-06
0.6448714415 	0.002057603104 	0.00044779087 	-7.116517074e-09 	0.0009525687517 	-9.935903534e-09 	1.815860794e-06
0.6481838289 	0.002075506899 	0.0004723490158 	-8.924421242e-09 	0.0009651457503 	-9.233060342e-09 	1.839836048e-06
0.6515336955 	0.002090246566 	0.0004926150378 	-9.982227613e-09 	0.0009876989869 	-8.54866464e-09 	1.882828786e-06
0.6549219977 	0.002106050811 	0.0005129307489 	-1.00126432e-08 	0.001011993608 	-9.059971537e-09 	1.929141085e-06
0.658347578 	0.002123259255 	0.0005329127259 	-9.95132327e-09 	0.001037066108 	-9.49950332e-09 	1.976936239e-06
0.661811122 	0.002141940304 	0.0005524439719 	-9.70411956e-09 	0.001062715244 	-9.739620522e-09 	2.025830622e-06
0.6653149209 	0.002162075339 	0.0005716574563 	-9.228483193e-09 	0.001088988858 	-9.706463963e-09 	2.075915432e-06
0.6688573239 	0.00218364773 	0.0005906501274 	-8.543981741e-09 	0.001115914971 	-9.392073243e-09 	2.127244087e-06
0.6724387986 	0.002206648101 	0.0006095086971 	-7.682234373e-09 	0.00114352781 	-8.80575308e-09 	2.179881832e-06
0.6760616858 	0.002231069116 	0.0006283264987 	-6.657660271e-09 	0.00117188458 	-7.942229001e-09 	2.233937717e-06
0.6797247083 	0.00225691222 	0.0006471648221 	-5.474391198e-09 	0.001201014857 	-6.78529322e-09 	2.289468122e-06
0.6834281966 	0.002284181788 	0.0006660887219 	-4.156053295e-09 	0.001230964022 	-5.344426385e-09 	2.346559555e-06
0.6871741462 	0.002312885548 	0.0006851722678 	-2.717913511e-09 	0.001261799618 	-3.621858389e-09 	2.405340771e-06
0.6909617583 	0.00234304623 	0.0007044585231 	-1.164237354e-09 	0.001293554843 	-1.60606734e-09 	2.465875056e-06
0.6936431587 	0.002365202891 	0.0007181394616 	2.040204985e-07 	0.001316468661 	3.333597086e-07 	2.509555162e-06
0.694791239 	0.002374689736 	0.0007239972256 	-4.991783586e-10 	0.001326279746 	-6.851445978e-10 	2.528257816e-06
0.6986643717 	0.002407846422 	0.0007438479434 	-2.284736898e-09 	0.001360045423 	-3.242491703e-09 	2.592624582e-06
0.7025805467 	0.002442563934 	0.000764047503 	-4.145798674e-09 	0.001394891597 	-6.079613325e-09 	2.659051075e-06
0.7065401553 	0.002478889795 	0.0007846476635 	-6.058182151e-09 	0.001430887497 	-9.174939213e-09 	2.727669264e-06
0.7105449492 	0.002516874898 	0.0008057145443 	-8.008478708e-09 	0.001468130593 	-1.252143202e-08 	2.798664956e-06
0.7145941618 	0.002556468189 	0.0008272522812 	-9.985076704e-09 	0.001506613783 	-1.611347115e-08 	2.872024612e-06
0.7186434165 	0.002597346853 	0.000849164711 	-1.193794717e-08 	0.001546148704 	-1.987969323e-08 	2.947389159e-06
0.7226486042 	0.002639150032 	0.0008713449838 	-1.383043501e-08 	0.001586526118 	-2.376271003e-08 	3.024359732e-06
0.7266094196 	0.002681742045 	0.0008937843186 	-1.564334108e-08 	0.001627717784 	-2.773235498e-08 	3.102882498e-06
0.7305267523 	0.002725080924 	0.0009165311932 	-1.73508594e-08 	0.001669806591 	-3.174825953e-08 	3.18311546e-06
0.7344012368 	0.002769120452 	0.0009396157542 	-1.894130454e-08 	0.001712848557 	-3.579338455e-08 	3.265165412e-06
0.7382328756 	0.002813804796 	0.0009630657712 	-2.039303552e-08 	0.001756902518 	-3.983217549e-08 	3.349144504e-06
0.7420225095 	0.002859073701 	0.0009869268098 	-2.168085154e-08 	0.001802069095 	-4.382395373e-08 	3.435244555e-06
0.7457706092 	0.002904894361 	0.001011236657 	-2.279131076e-08 	0.001848440056 	-4.774879252e-08 	3.523640494e-06
0.7494773227 	0.002951249388 	0.001036036769 	-2.370369455e-08 	0.00189612145 	-5.157160714e-08 	3.614534484e-06
0.7531433854 	0.00299812801 	0.001061379303 	-2.439746019e-08 	0.001945248276 	-5.525816279e-08 	3.708183869e-06
0.7567692644 	0.003045546267 	0.001087300509 	-2.486488741e-08 	0.001995926879 	-5.879629425e-08 	3.80479137e-06
0.7603551552 	0.003093534492 	0.001113829656 	-2.509480813e-08 	0.002048253063 	-6.216169872e-08 	3.904539621e-06
0.763901668 	0.003142132092 	0.001140994929 	-2.507694715e-08 	0.00210232304 	-6.532792921e-08 	4.007612024e-06
0.7674093446 	0.003191407682 	0.001168802801 	-2.481316045e-08 	0.002158181942 	-6.828613879e-08 	4.114094618e-06
0.7708783745 	0.003241447366 	0.00119724538 	-2.430522215e-08 	0.002215837504 	-7.101645999e-08 	4.224002142e-06
0.7743092448 	0.003292345293 	0.001226309484 	-2.355539866e-08 	0.002275277869 	-7.349141853e-08 	4.337311999e-06
0.7777025987 	0.003344214615 	0.001255964957 	-2.257557659e-08 	0.002336437484 	-7.569589782e-08 	4.453899224e-06
0.7810585948 	0.003397174439 	0.001286168911 	-2.138107846e-08 	0.002399205382 	-7.761292587e-08 	4.573552284e-06
0.7843776614 	0.003451333236 	0.001316877429 	-1.998676658e-08 	0.002463454907 	-7.921902487e-08 	4.696029735e-06
0.7876603902 	0.003506787357 	0.00134804277 	-1.841192831e-08 	0.002529035964 	-8.050087727e-08 	4.821045456e-06
0.7909070506 	0.003563615696 	0.001379610947 	-1.668095101e-08 	0.002595770212 	-8.146118405e-08 	4.94825948e-06
0.7941180041 	0.003621862142 	0.001411531839 	-1.481555207e-08 	0.00266348532 	-8.21009306e-08 	5.077343297e-06
0.7972937061 	0.003681530965 	0.001443761123 	-1.283609056e-08 	0.002732025103 	-8.242947234e-08 	5.207999174e-06
0.8004346052 	0.003742596259 	0.001476253056 	-1.07654245e-08 	0.002801230683 	-8.247713905e-08 	5.339924244e-06
0.8035409751 	0.003804994702 	0.001508964955 	-8.62363196e-09 	0.002870960141 	-8.227725226e-08 	5.472847971e-06
0.8066132058 	0.003868625936 	0.001541860214 	-6.426756009e-09 	0.002941101165 	-8.186325937e-08 	5.606556258e-06
0.80965176 	0.003933365611 	0.001574903648 	-4.189707765e-09 	0.003011555715 	-8.127511649e-08 	5.740862212e-06
0.8126569591 	0.00399907371 	0.001608058617 	-1.927136362e-09 	0.003082230378 	-8.056006102e-08 	5.875587761e-06
0.8156291397 	0.004065594214 	0.001641289992 	3.492493164e-10 	0.00315304766 	-7.975604949e-08 	6.010585185e-06
0.8185686718 	0.004132760125 	0.001674564212 	2.630297096e-09 	0.003223944639 	-7.88941382e-08 	6.145734531e-06
0.8214759931 	0.004200404147 	0.001707844762 	4.906788522e-09 	0.00329485419 	-7.800544215e-08 	6.280907844e-06
0.8243513843 	0.004268358243 	0.001741091743 	7.169886367e-09 	0.003365703932 	-7.7117633e-08 	6.415967143e-06
0.8271951952 	0.004336449651 	0.001774263766 	9.412210755e-09 	0.003436424301 	-7.624691545e-08 	6.550779822e-06
0.8300077779 	0.004404502392 	0.001807317118 	1.16271601e-08 	0.003506944364 	-7.540327926e-08 	6.685210662e-06
0.8327895326 	0.004472344148 	0.00184020357 	1.380724841e-08 	0.003577180369 	-7.45982713e-08 	6.819100009e-06
0.8355407393 	0.004539811764 	0.001872873117 	1.594506179e-08 	0.00364704164 	-7.384165617e-08 	6.95227501e-06
0.8382617368 	0.004606760396 	0.001905280077 	1.803493245e-08 	0.003716445379 	-7.313571352e-08 	7.084577826e-06
0.8409528603 	0.004673072888 	0.001937385646 	2.007190174e-08 	0.003785318886 	-7.248159635e-08 	7.215869872e-06
0.8436144725 	0.004738661576 	0.001969156715 	2.205097859e-08 	0.003853593487 	-7.188443857e-08 	7.346020237e-06
0.8462468653 	0.00480346028 	0.002000564179 	2.396850674e-08 	0.003921202946 	-7.134989899e-08 	7.474902657e-06
0.848850357 	0.004867409967 	0.002031581279 	2.582033022e-08 	0.003988085989 	-7.08822865e-08 	7.602400327e-06
0.8514252675 	0.004930452663 	0.002062182098 	2.760179449e-08 	0.004054184072 	-7.048699511e-08 	7.728401644e-06
0.8539719263 	0.004992532827 	0.00209234106 	2.930858829e-08 	0.004119438194 	-7.017047145e-08 	7.852794137e-06
0.856490637 	0.00505359813 	0.002122032974 	3.09370657e-08 	0.004183788568 	-6.994151132e-08 	7.975463834e-06
0.8589816959 	0.005113597157 	0.002151234281 	3.248409649e-08 	0.004247180925 	-6.980506128e-08 	8.096307286e-06
0.8614454083 	0.00517247911 	0.002179923631 	3.270806004e-08 	0.004309568566 	-6.721491319e-08 	8.215235469e-06
0.8638820763 	0.005230196629 	0.002208081385 	3.26699821e-08 	0.00437090848 	-6.456345135e-08 	8.332166394e-06
0.8662920105 	0.00528670668 	0.002235689586 	3.251440526e-08 	0.00443116067 	-6.21151827e-08 	8.447023815e-06
0.8686754868 	0.005341970612 	0.002262732053 	3.225322231e-08 	0.004490288822 	-5.985151793e-08 	8.559738506e-06
0.8710327965 	0.005395952574 	0.002289195103 	3.189858389e-08 	0.004548264166 	-5.775367505e-08 	8.670255625e-06
0.8733642276 	0.005448620744 	0.0023150673 	3.146218963e-08 	0.004605063475 	-5.580292397e-08 	8.778530894e-06
0.8756700675 	0.005499947808 	0.002340339289 	3.095504774e-08 	0.004660668031 	-5.398144169e-08 	8.884528632e-06
0.8779505993 	0.005549912119 	0.002365003446 	3.038672266e-08 	0.004715061476 	-5.227268119e-08 	8.988217657e-06
0.8802060927 	0.005598496423 	0.002389054139 	2.976649653e-08 	0.00476823212 	-5.066130212e-08 	9.089575683e-06
0.8824368228 	0.005645686704 	0.002412487964 	2.910340462e-08 	0.004820174546 	-4.913253693e-08 	9.188592382e-06
0.8846430618 	0.005691473377 	0.002435303303 	2.840576495e-08 	0.004870886891 	-4.767278544e-08 	9.285264207e-06
0.88682508 	0.005735850581 	0.00245750036 	2.768124106e-08 	0.004920371501 	-4.626944583e-08 	9.379595627e-06
0.8889831442 	0.005778817242 	0.002479080716 	2.693622175e-08 	0.004968632353 	-4.491135711e-08 	9.471594225e-06
0.8911175121 	0.005820375867 	0.002500047461 	2.617672742e-08 	0.005015676815 	-4.358869896e-08 	9.561274044e-06
0.8932284436 	0.005860531378 	0.002520405299 	2.540848369e-08 	0.005061516877 	-4.229245376e-08 	9.648657943e-06
0.895316196 	0.005899292036 	0.002540160135 	2.46365622e-08 	0.00510616662 	-4.101490651e-08 	9.733772763e-06
0.8973810235 	0.005936668625 	0.002559319092 	2.386551457e-08 	0.005149643027 	-3.974913655e-08 	9.816650879e-06
0.8994231797 	0.005972674766 	0.002577890239 	2.309908252e-08 	0.005191964556 	-3.848926976e-08 	9.897327475e-06
0.9014429092 	0.006007326946 	0.002595882395 	2.234034914e-08 	0.005233150478 	-3.723059843e-08 	9.975839289e-06
0.9034404575 	0.006040642975 	0.002613305305 	2.159230849e-08 	0.005273223001 	-3.596921331e-08 	1.005222866e-05
0.9054160679 	0.006072642304 	0.002630169369 	2.085751162e-08 	0.005312205688 	-3.470208648e-08 	1.012654049e-05
0.9073699809 	0.00610334606 	0.00264648547 	2.013808109e-08 	0.005350122773 	-3.3426984e-08 	1.0198821e-05
0.9093024346 	0.006132776267 	0.002662264965 	1.943578503e-08 	0.00538699982 	-3.214220476e-08 	1.02691189e-05
0.9112136641 	0.006160956693 	0.002677519342 	1.875170876e-08 	0.005422861504 	-3.084681869e-08 	1.033748123e-05
0.9131039001 	0.006187911901 	0.002692260259 	1.808678151e-08 	0.005457732854 	-2.954063852e-08 	1.040395572e-05