6.019744331e-37 	0.007314189128 	-2.987973157e-16 	-1.716014609e-23 	1.220638875e-29 	7.010217398e-37 	4.026018585e-44
0.0003137191626 	0.007279177039 	0.0008213859032 	-1.150923931e-08 	0.0135020332 	3.889585105e-08 	2.573862798e-05
0.0006274377305 	0.007264404831 	0.0007720439134 	-3.807368563e-09 	0.01374185442 	1.11058846e-08 	2.619579388e-05
0.0007529268723 	0.007269831562 	0.0007630449111 	-7.139014161e-06 	0.01375250609 	-0.0001195166149 	2.621609891e-05
0.000941155703 	0.007278039374 	0.000749520052 	-4.544906968e-09 	0.01376830217 	2.456114999e-08 	2.624621063e-05
0.001254873079 	0.007269202327 	0.000771632215 	-1.28010346e-08 	0.01379062292 	6.55687716e-08 	2.628876019e-05
0.001568589859 	0.007265519094 	0.000820226436 	-2.24531088e-08 	0.01379451646 	1.065550777e-07 	2.629618235e-05
0.001882306041 	0.007262216208 	0.0008846525254 	-3.388562726e-08 	0.01379490373 	1.475189165e-07 	2.629692061e-05
0.002196021624 	0.007258106215 	0.0009593912969 	-4.731541288e-08 	0.01379479204 	1.884887496e-07 	2.629670769e-05
0.00250973661 	0.007253355446 	0.00104149181 	-6.288427717e-08 	0.01379414474 	2.294837855e-07 	2.629547375e-05
0.002823450996 	0.007248063183 	0.001129250316 	-8.069623699e-08 	0.01379296163 	2.70521964e-07 	2.629321841e-05
0.003137164783 	0.007242222737 	0.001221620874 	-1.008338471e-07 	0.01379135914 	3.116230542e-07 	2.629016362e-05
0.003450877969 	0.007235819712 	0.001317937145 	-1.233666167e-07 	0.01378941692 	3.528072757e-07 	2.628646122e-05
0.003764590556 	0.007228847531 	0.001417764948 	-1.483554685e-07 	0.01378717493 	3.940945785e-07 	2.628218736e-05
0.004078302543 	0.007221301915 	0.001520817276 	-1.758550862e-07 	0.01378465621 	4.355046026e-07 	2.627738599e-05
0.004392013928 	0.007213178791 	0.001626903014 	-2.059151935e-07 	0.01378187627 	4.770567213e-07 	2.627208664e-05
0.004705724713 	0.007204474334 	0.001735894785 	-2.385812995e-07 	0.01377884576 	5.187700786e-07 	2.626630966e-05
0.005019434897 	0.007195185056 	0.001847707964 	-2.73895169e-07 	0.01377557199 	5.606636842e-07 	2.626006893e-05
0.00533314448 	0.007185307769 	0.001962286473 	-3.118951405e-07 	0.0137720599 	6.027565612e-07 	2.625337392e-05
0.005646853463 	0.007174839545 	0.002079592863 	-3.52616291e-07 	0.01376831283 	6.450679604e-07 	2.624623096e-05
0.005960561844 	0.007163777704 	0.00219960119 	-3.960903194e-07 	0.01376433285 	6.876176909e-07 	2.623864401e-05
0.006274269624 	0.007152119805 	0.00232229176 	-4.423448296e-07 	0.0137601211 	7.30426713e-07 	2.623061525e-05
0.006587976804 	0.007139863589 	0.002447647165 	-4.914014209e-07 	0.01375567808 	7.735179839e-07 	2.622214562e-05
0.006901683384 	0.00712700699 	0.002575649278 	-5.432717198e-07 	0.01375100373 	8.169165072e-07 	2.621323501e-05
0.007215389363 	0.007113548948 	0.002706277015 	-5.979506205e-07 	0.01374609597 	8.60647863e-07 	2.620387944e-05
0.007529094743 	0.007099491002 	0.002839504162 	-6.55405909e-07 	0.01374094779 	9.047477071e-07 	2.619406559e-05
0.007842799523 	0.00708483126 	0.002975295296 	-7.155535086e-07 	0.0137355598 	9.493119735e-07 	2.618379458e-05
0.008156503703 	0.007069535897 	0.00311359821 	-7.781454222e-07 	0.013729996 	9.945014054e-07 	2.617318843e-05
0.008470207286 	0.007053548717 	0.003254297671 	-8.423141875e-07 	0.01372435949 	1.039396696e-06 	2.616244367e-05
0.00878391027 	0.007037054393 	0.003396382336 	-9.010307453e-07 	0.01371827127 	1.085654707e-06 	2.615083785e-05
0.009097612657 	0.007020571721 	0.003527503429 	-9.406793314e-07 	0.01371121625 	1.139759393e-06 	2.613738901e-05
0.009411314447 	0.007002293613 	0.003599414197 	-9.308180523e-07 	0.0137024204 	1.216830971e-06 	2.612062167e-05
0.009898733563 	0.006977148516 	0.003583313419 	-9.835149798e-07 	0.01369298163 	1.286213208e-06 	2.610262875e-05
0.01039531224 	0.006947719527 	0.003521595277 	-1.099211771e-06 	0.01368357175 	1.321931205e-06 	2.60846909e-05
0.01090122258 	0.006919675045 	0.003455866728 	-1.186061107e-06 	0.01367303976 	1.382650205e-06 	2.6064614e-05
0.01141663991 	0.006892232131 	0.003393929398 	-1.257121997e-06 	0.0136620257 	1.457210593e-06 	2.604361815e-05
0.01194174287 	0.006864756031 	0.003335719948 	-1.316848632e-06 	0.01365100714 	1.536532498e-06 	2.60226137e-05
0.01247671344 	0.006837256881 	0.003280697485 	-1.372461752e-06 	0.0136400009 	1.616184179e-06 	2.600163276e-05
0.01302173702 	0.006809769506 	0.003228384862 	-1.429829002e-06 	0.01362897867 	1.696016934e-06 	2.598062133e-05
0.0135770025 	0.006782317003 	0.003178246577 	-1.489494644e-06 	0.01361794426 	1.776844626e-06 	2.595958667e-05
0.01414270231 	0.006754910314 	0.00312978875 	-1.551555932e-06 	0.01360692796 	1.858578288e-06 	2.593858654e-05
0.0147190325 	0.00672756468 	0.003082560926 	-1.616007559e-06 	0.01359595626 	1.941144766e-06 	2.591767143e-05
0.01530619282 	0.006700298907 	0.003036151484 	-1.682808788e-06 	0.01358505404 	2.024495509e-06 	2.589688877e-05
0.01590438673 	0.006673134509 	0.002990182769 	-1.751905539e-06 	0.01357424671 	2.10857157e-06 	2.587628701e-05
0.01651382157 	0.00664609557 	0.002944306952 	-1.823241329e-06 	0.01356356077 	2.193292912e-06 	2.585591663e-05
0.01713470852 	0.006619208634 	0.002898202463 	-1.896762166e-06 	0.0135530243 	2.278557117e-06 	2.583583118e-05
0.01776726278 	0.006592503058 	0.002851570266 	-1.972418479e-06 	0.01354266649 	2.36424007e-06 	2.581608633e-05
0.01841170354 	0.006566012141 	0.002804121382 	-2.050167198e-06 	0.01353251578 	2.450202939e-06 	2.579673624e-05
0.01906825416 	0.006539771035 	0.002755453492 	-2.129959327e-06 	0.01352260445 	2.536292419e-06 	2.57778425e-05
0.01973714216 	0.006513790616 	0.002704756345 	-2.211465772e-06 	0.01351295471 	2.62233154e-06 	2.575944741e-05
0.02042153748 	0.006488073794 	0.002651455702 	-2.294594316e-06 	0.01350358635 	2.708602539e-06 	2.57415887e-05
0.02112091823 	0.006462684372 	0.002595462941 	-2.379459921e-06 	0.01349455222 	2.794867771e-06 	2.572436714e-05
0.02183344139 	0.006437724278 	0.002537070358 	-2.466164924e-06 	0.01348590969 	2.880589908e-06 	2.570789209e-05
0.02255935386 	0.006413267793 	0.00247660899 	-2.554810359e-06 	0.01347770168 	2.965547921e-06 	2.569224534e-05
0.02329890722 	0.006389368394 	0.002413965118 	-2.585664399e-06 	0.0134699768 	2.980624431e-06 	2.567751957e-05
0.02405235775 	0.00636608285 	0.002348968415 	-2.506796327e-06 	0.01346278637 	2.8677607e-06 	2.56638126e-05
0.02481996657 	0.006343473147 	0.002281454397 	-2.426029701e-06 	0.01345618112 	2.752363044e-06 	2.565122117e-05
0.02560199967 	0.006321604792 	0.002211269479 	-2.343251203e-06 	0.01345021491 	2.634549213e-06 	2.563984791e-05
0.02639872806 	0.006300546782 	0.002138271117 	-2.258359664e-06 	0.01344494493 	2.514454663e-06 	2.562980187e-05
0.02721042784 	0.006280371836 	0.002062327858 	-2.17126644e-06 	0.01344043152 	2.392234727e-06 	2.562119805e-05
0.02803738028 	0.006261156482 	0.001983319498 	-2.081896067e-06 	0.01343673816 	2.26806624e-06 	2.561415748e-05
0.02887987195 	0.006242981083 	0.001901137339 	-1.990187097e-06 	0.01343393158 	2.142149121e-06 	2.560880736e-05
0.0297381948 	0.006225929849 	0.001815684556 	-1.896093129e-06 	0.01343208187 	2.014708058e-06 	2.560528129e-05
0.03061264626 	0.006210090839 	0.001726876663 	-1.79958398e-06 	0.01343126249 	1.885994251e-06 	2.560371934e-05
0.03150352933 	0.006195555934 	0.001634642059 	-1.700646957e-06 	0.01343155037 	1.756287212e-06 	2.560426812e-05
0.03241115274 	0.006182420796 	0.00153892264 	-1.599288201e-06 	0.01343302589 	1.625896598e-06 	2.560708087e-05
0.03333583098 	0.006170784787 	0.001439674466 	-1.495534025e-06 	0.01343577291 	1.495164078e-06 	2.561231745e-05
0.03427788447 	0.006160750851 	0.001336868436 	-1.389432234e-06 	0.01343987876 	1.364465163e-06 	2.562014434e-05
0.03523763963 	0.006152425361 	0.001230490957 	-1.281053346e-06 	0.01344543423 	1.234210964e-06 	2.563073461e-05
0.03621542904 	0.006145918038 	0.001120544305 	-1.17049167e-06 	0.01345253331 	1.104850038e-06 	2.564426743e-05
0.03721159148 	0.00614134198 	0.001007044226 	-1.057865809e-06 	0.0134612726 	9.768707802e-07 	2.566092694e-05
0.03822647215 	0.006138812891 	0.0008899897836 	-9.433147895e-07 	0.01347175226 	8.508023725e-07 	2.568090409e-05
0.03926042268 	0.006138448429 	0.000769195969 	-8.269583394e-07 	0.01348408349 	7.272121915e-07 	2.570441083e-05
0.04031569926 	0.00614037967 	0.0006440578323 	-7.086937924e-07 	0.01349839713 	6.065073497e-07 	2.573169662e-05
0.04139611951 	0.006144754059 	0.000514353308 	-5.884607556e-07 	0.01351481918 	4.890582529e-07 	2.57630016e-05
0.0424968417 	0.006151707519 	0.0003809263864 	-4.672725081e-07 	0.0135334393 	3.761598913e-07 	2.579849673e-05
0.04361824725 	0.006161360881 	0.0002445182989 	-3.454724499e-07 	0.01355435314 	2.685853805e-07 	2.583836433e-05
0.04476072477 	0.006173839595 	0.0001053148601 	-2.233809699e-07 	0.01357767544 	1.671381804e-07 	2.588282312e-05
0.04592467013 	0.006189268846 	-3.652949517e-05 	-1.013275546e-07 	0.01360352153 	7.267266364e-08 	2.593209295e-05
0.04691067477 	0.006204663211 	-0.0001565298724 	-1.048696418e-06 	0.01362719126 	-2.300296841e-06 	2.597721403e-05
0.04711048667 	0.006207924908 	-0.000180802083 	-2.252549716e-08 	0.01363171583 	2.660659005e-08 	2.598583911e-05
0.04831858527 	0.006230547063 	-0.0003270844013 	-1.585219534e-07 	0.01366118129 	1.817790848e-07 	2.604200846e-05
0.04954938458 	0.006256509195 	-0.0004754090616 	-2.969167881e-07 	0.01369345112 	3.298486844e-07 	2.610352373e-05
0.05080331105 	0.006285925999 	-0.0006255841792 	-4.374843787e-07 	0.01372863779 	4.697000592e-07 	2.61705993e-05
0.0520807992 	0.006318908504 	-0.0007774146381 	-5.799759139e-07 	0.01376685145 	6.001248075e-07 	2.624344515e-05
0.05338229166 	0.006355563307 	-0.000930705035 	-7.241113627e-07 	0.01380819947 	7.198122338e-07 	2.632226599e-05
0.05470823941 	0.006395991274 	-0.001085262838 	-8.695678539e-07 	0.01385278714 	8.273385465e-07 	2.640726248e-05
0.05605910188 	0.006440288078 	-0.001240903282 	-1.015963728e-06 	0.01390071454 	9.211541293e-07 	2.649862541e-05
0.05743534714 	0.006488555349 	-0.001397469598 	-1.162834439e-06 	0.01395205263 	9.99570627e-07 	2.659649008e-05
0.05883745205 	0.006540927613 	-0.001554958264 	-1.309560047e-06 	0.01400683004 	1.0607556e-06 	2.670091106e-05
0.06026729956 	0.006597545447 	-0.001714148583 	-1.455267308e-06 	0.01406528587 	1.102705293e-06 	2.68123441e-05
0.06173156424 	0.006658360178 	-0.001879512982 	-1.598008406e-06 	0.01412797359 	1.123373875e-06 	2.693184432e-05
0.06322334345 	0.006732188258 	-0.002094044227 	-1.725939809e-06 	0.01420297776 	1.108706564e-06 	2.707482311e-05
0.06551344073 	0.00682991322 	-0.002391292064 	-1.898123756e-06 	0.01429844564 	1.063976558e-06 	2.725681143e-05
0.06782907795 	0.006943738696 	-0.002720080143 	-2.039491127e-06 	0.01440600888 	9.451917962e-07 	2.746185686e-05
0.07017053993 	0.007064588301 	-0.003034526237 	-2.154319446e-06 	0.01451672934 	7.561223957e-07 	2.767292083e-05
0.07253811468 	0.007191984257 	-0.003332975931 	-2.236121435e-06 	0.01463015358 	4.872117373e-07 	2.788913897e-05
0.07493209339 	0.007325333827 	-0.003615219508 	-1.932773299e-06 	0.01474600067 	1.150681211e-07 	2.810997571e-05
0.07735277052 	0.007464241576 	-0.003878453456 	-1.647618524e-06 	0.01486346553 	-2.001558284e-07 	2.833389639e-05
0.07980044382 	0.007607982107 	-0.004123025099 	-1.39143564e-06 	0.01498249175 	-4.542558824e-07 	2.856079345e-05
0.08228795177 	0.00775566541 	-0.004355689057 	-1.13433615e-06 	0.0151031852 	-6.419842313e-07 	2.879086871e-05
0.0848045662 	0.007907622735 	-0.004584234514 	-8.403576746e-07 	0.01522327838 	-7.500987891e-07 	2.901979969e-05
0.08734924993 	0.008076757317 	-0.004803451107 	-6.27377973e-07 	0.01533398552 	-7.067014113e-07 	2.923083826e-05
0.08992231604 	0.008265839232 	-0.005010964135 	-4.807454252e-07 	0.01543201626 	-5.611618051e-07 	2.94177121e-05
0.09252408108 	0.008462455568 	-0.005211500812 	-3.263388194e-07 	0.01552168766 	-4.085581311e-07 	2.958865072e-05
0.09515486517 	0.00866128476 	-0.005404001884 	-1.86980582e-07 	0.01560498986 	-2.649137261e-07 	2.974744786e-05
0.09781499197 	0.008859092246 	-0.005588829545 	-7.492605013e-08 	0.01568356204 	-1.312539941e-07 	2.989722827e-05
0.100507166 	0.009053379783 	-0.005767130335 	-2.791027158e-09 	0.01575858832 	-7.176319451e-09 	3.004024921e-05
0.1006723289 	0.009064746731 	-0.005777544058 	-4.368950665e-08 	0.01576298645 	-9.458059148e-07 	3.004863327e-05
0.1032407961 	0.009242431594 	-0.005933406516 	-3.089689335e-07 	0.01582984156 	-4.430213108e-08 	3.017607769e-05
0.1060049194 	0.009423891175 	-0.006095172026 	-5.767477521e-07 	0.0158997676 	-1.031917272e-07 	3.030937615e-05
0.108799876 	0.009602863557 	-0.006250252412 	-7.559277306e-07 	0.01596572203 	-1.421019667e-07 	3.043510363e-05
0.11162601 	0.009785882065 	-0.006393185124 	-8.260537132e-07 	0.01602466793 	-1.411714911e-07 	3.054747089e-05
0.114483669 	0.009967633391 	-0.00652768231 	-7.787486307e-07 	0.01607878223 	-1.014166475e-07 	3.065062781e-05
0.1173732048 	0.01014029801 	-0.006658057747 	-5.984829089e-07 	0.01613157074 	-3.577812065e-08 	3.075125738e-05
0.1202961886 	0.01030249098 	-0.006785004211 	-2.670292727e-07 	0.01618385042 	5.422996254e-08 	3.085091697e-05
0.1232641206 	0.01045865649 	-0.006906206132 	2.592080845e-08 	0.01623333214 	2.187606784e-07 	3.094524288e-05
0.1262651629 	0.01061212042 	-0.007019435336 	1.593772673e-07 	0.01627768233 	4.432685271e-07 	3.102978667e-05
0.1292996849 	0.01075980592 	-0.007127293427 	2.420624422e-07 	0.01631748856 	6.139895158e-07 	3.110566841e-05
0.1323680601 	0.01089943209 	-0.007230289702 	2.581164485e-07 	0.01635332969 	6.390323965e-07 	3.117399156e-05
0.1354706662 	0.01103098969 	-0.007328877586 	1.952532466e-07 	0.01638458475 	4.983902971e-07 	3.123357239e-05
0.138607885 	0.01115565347 	-0.007423576711 	1.235362714e-07 	0.01640960641 	3.53323718e-07 	3.128127063e-05
0.1417873791 	0.01127393565 	-0.007514718404 	6.334842794e-08 	0.01642695729 	2.317463241e-07 	3.131434624e-05
0.1450082501 	0.01138537444 	-0.007602241152 	2.660729954e-08 	0.01643583741 	1.308109067e-07 	3.13312742e-05
0.1482650567 	0.01148933813 	-0.007685556018 	1.249515782e-08 	0.01643556283 	4.650461733e-08 	3.133075078e-05
0.1515582 	0.01158528405 	-0.007763967901 	1.190611856e-08 	0.01642526057 	-1.915355128e-08 	3.131111181e-05
0.1548880853 	0.01167266104 	-0.007836814663 	1.653245453e-08 	0.01640399122 	-6.240470534e-08 	3.127056652e-05
0.1582551226 	0.01175086038 	-0.007903494111 	2.031769964e-08 	0.01637074003 	-7.908054449e-08 	3.120718052e-05
0.1616658524 	0.01181918957 	-0.007963480142 	1.799945028e-08 	0.01632432148 	-6.497140137e-08 	3.111869385e-05
0.1651212069 	0.01187674268 	-0.008015927415 	4.911609349e-09 	0.01626346436 	-1.625635065e-08 	3.100268327e-05
0.1659171165 	0.01188710424 	-0.008025866223 	1.257969118e-06 	0.0162459518 	-4.20363552e-06 	3.096929947e-05
0.1686151167 	0.01192229284 	-0.008059251314 	3.288136799e-09 	0.01618602989 	-3.074318703e-08 	3.085507165e-05
0.1721480121 	0.01195479277 	-0.008092816029 	2.581181252e-08 	0.01609158707 	-1.161925052e-07 	3.067503737e-05
0.175720328 	0.01197310679 	-0.008115771933 	7.18900928e-08 	0.01597905498 	-2.540203279e-07 	3.046051995e-05
0.1793325041 	0.01197595424 	-0.008127135495 	1.43952452e-07 	0.01584693777 	-4.444722862e-07 	3.020866782e-05
0.182994898 	0.01196192437 	-0.008125903688 	2.43746012e-07 	0.01569359003 	-6.873160143e-07 	2.991634441e-05
0.1867003698 	0.01192952104 	-0.008110811027 	3.71828558e-07 	0.01551757593 	-9.805072148e-07 	2.958081261e-05
0.1904471912 	0.01187725317 	-0.008080582201 	5.278866326e-07 	0.01531761763 	-1.321029609e-06 	2.919963651e-05
0.1942358234 	0.01180364352 	-0.008034128894 	7.108661013e-07 	0.01509242262 	-1.704891617e-06 	2.877035224e-05
0.1980667329 	0.01170719982 	-0.00797037719 	9.189875974e-07 	0.01484071499 	-2.126974413e-06 	2.829052753e-05
0.201946184 	0.01158643166 	-0.007888352439 	1.149945263e-06 	0.01456119394 	-2.581294727e-06 	2.775768272e-05
0.205874617 	0.0114400284 	-0.007787094752 	1.35060023e-06 	0.01425292849 	-2.951250092e-06 	2.71700431e-05
0.2098468907 	0.011267007 	-0.007665783669 	1.33160717e-06 	0.01391556591 	-2.840522766e-06 	2.652693625e-05
0.2138634941 	0.01106666284 	-0.007523909177 	1.281727944e-06 	0.01354903913 	-2.674646833e-06 	2.582823435e-05
0.2179249219 	0.01083852833 	-0.007361147632 	1.202454949e-06 	0.01315351107 	-2.458285338e-06 	2.507424793e-05
0.2220370961 	0.01058246765 	-0.007177448491 	1.095860532e-06 	0.01272945917 	-2.197036749e-06 	2.426588715e-05
0.226200533 	0.01029903552 	-0.006973138261 	9.651124658e-07 	0.01227824025 	-1.898673208e-06 	2.340573848e-05
0.2304104359 	0.009989661925 	-0.006749067654 	8.143507408e-07 	0.0118023235 	-1.572678862e-06 	2.249850888e-05
0.2346673231 	0.009656490642 	-0.006506650341 	6.484637137e-07 	0.0113049018 	-1.229530464e-06 	2.155028487e-05
0.238971719 	0.009302281334 	-0.006247737109 	4.732380643e-07 	0.01078973938 	-8.809207994e-07 	2.056824211e-05
0.2433319693 	0.008930610053 	-0.00597476677 	2.950065924e-07 	0.01026140211 	-5.389988262e-07 	1.956108443e-05
0.2477431375 	0.008546348775 	-0.00569103283 	1.213346437e-07 	0.009725952983 	-2.175086599e-07 	1.854036957e-05
0.2510499412 	0.008256515354 	-0.005475699896 	4.400481854e-06 	0.009329059773 	-7.956182437e-06 	1.778378081e-05
0.2522035389 	0.00815545702 	-0.005400569988 	4.189169124e-08 	0.00919063245 	-7.722173494e-08 	1.751989985e-05
0.2567137226 	0.007764469576 	-0.005107899437 	1.912153421e-07 	0.008663141523 	-3.456456815e-07 	1.651435554e-05
0.2612769989 	0.007379594965 	-0.004817598665 	3.162217164e-07 	0.008150426296 	-5.6063759e-07 	1.553697781e-05
0.2658977798 	0.007007382416 	-0.004534535297 	4.117575711e-07 	0.007659757657 	-7.162153748e-07 	1.460162701e-05
0.2705701354 	0.00665422576 	-0.004263572884 	4.750833758e-07 	0.007198145071 	-8.108206375e-07 	1.372166513e-05
0.275294641 	0.006325452485 	-0.004008957461 	5.066738282e-07 	0.00677122872 	-8.484498911e-07 	1.290784391e-05
0.2800721922 	0.006024758746 	-0.003773888779 	5.097895577e-07 	0.006382639464 	-8.374602442e-07 	1.216708478e-05
0.2849113354 	0.005754209647 	-0.003560445439 	4.899444678e-07 	0.006034070678 	-7.893411979e-07 	1.15026158e-05
0.2898044922 	0.00551442429 	-0.003369676185 	4.538826581e-07 	0.005725617799 	-7.168583271e-07 	1.091461888e-05
0.2947522652 	0.005304333105 	-0.003201386622 	4.088682796e-07 	0.005455483618 	-6.327599885e-07 	1.039966805e-05
0.2997552636 	0.005121438161 	-0.003054268511 	3.614445865e-07 	0.005220249455 	-5.477700689e-07 	9.951246355e-06
0.3048217599 	0.004962408877 	-0.002926275506 	3.168871381e-07 	0.005015580473 	-4.698836031e-07 	9.561090389e-06
0.3099449938 	0.004823638544 	-0.002815008703 	2.566407386e-07 	0.004836926075 	-3.719951652e-07 	9.220525452e-06
0.3151254131 	0.004701364036 	-0.002717812105 	1.957307553e-07 	0.004679648789 	-2.772476538e-07 	8.920711233e-06
0.3203643454 	0.004591873066 	-0.002631989747 	1.535724159e-07 	0.004539207266 	-2.127456743e-07 	8.652990656e-06
0.3256681805 	0.004491772978 	-0.002555016108 	1.247465039e-07 	0.004411466787 	-1.693109523e-07 	8.4094818e-06
0.3310312183 	0.004398150706 	-0.002484666137 	1.049171338e-07 	0.004292925478 	-1.398645039e-07 	8.183509118e-06
0.3364541189 	0.00430848505 	-0.002418993188 	9.07218239e-08 	0.004180600639 	-1.190959778e-07 	7.969386756e-06
0.3419400009 	0.004220648391 	-0.002356324178 	7.967391485e-08 	0.004071958744 	-1.031891928e-07 	7.762285108e-06
0.3474910806 	0.004132933586 	-0.002295272314 	7.002976919e-08 	0.003964954699 	-8.954185561e-08 	7.558305658e-06
0.3531041231 	0.004044010706 	-0.002234719581 	6.059450917e-08 	0.003858029471 	-7.646283837e-08 	7.354476456e-06
0.3587798191 	0.003952829083 	-0.00217375176 	5.057732746e-08 	0.003749955557 	-6.292041872e-08 	7.148457538e-06
0.3645235755 	0.003858600883 	-0.002111626577 	3.951231423e-08 	0.003639775103 	-4.838355861e-08 	6.93842297e-06
0.3703324803 	0.003760836404 	-0.002047795755 	2.72285997e-08 	0.003526873823 	-3.275551105e-08 	6.723201751e-06
0.3762062255 	0.003659259964 	-0.001981863705 	1.373356206e-08 	0.003410924696 	-1.619831789e-08 	6.502170489e-06
0.3818349366 	0.003559342452 	-0.001917160745 	2.260072662e-07 	0.003298061349 	-3.921543066e-07 	6.287021579e-06
0.3821475528 	0.003553794043 	-0.001913566655 	7.398429424e-10 	0.003291795681 	-1.017506889e-09 	6.275077476e-06
0.3881582854 	0.003444617526 	-0.001842767668 	1.509916712e-08 	0.00316964152 	-2.001414944e-08 	6.042217693e-06
0.3942361112 	0.003332104635 	-0.001769526179 	2.991230063e-08 	0.003044818699 	-3.820075575e-08 	5.804270704e-06
0.4003822316 	0.003216790803 	-0.001694006935 	4.464352604e-08 	0.00291786064 	-5.491809905e-08 	5.562253357e-06
0.4066010098 	0.003099384049 	-0.00161649303 	5.871470885e-08 	0.002789423984 	-6.947830121e-08 	5.317417395e-06
0.4128892032 	0.002980815309 	-0.001537409132 	7.157792725e-08 	0.002660395244 	-8.12378286e-08 	5.071452753e-06
0.4192475857 	0.002862147518 	-0.001457255292 	8.280909056e-08 	0.002531771098 	-8.96909717e-08 	4.826259382e-06
0.4256805892 	0.00274456884 	-0.001376576865 	9.209091807e-08 	0.002404593117 	-9.441916793e-08 	4.583822803e-06
0.4321857004 	0.002629419767 	-0.001295978894 	9.921451556e-08 	0.00228001714 	-9.510959026e-08 	4.346346367e-06
0.4387634212 	0.002518087754 	-0.001216051011 	1.040960799e-07 	0.002159216154 	-9.160362707e-08 	4.116066112e-06
0.4454175046 	0.00241196224 	-0.001137341196 	1.066452738e-07 	0.002043334112 	-8.368797822e-08 	3.895162733e-06
0.4521463543 	0.002312446602 	-0.00106039167 	1.066941809e-07 	0.001933499709 	-7.151619597e-08 	3.685787834e-06
0.4589503101 	0.002220930907 	-0.000985206523 	1.059386712e-07 	0.001830607477 	-5.540653005e-08 	3.489646643e-06
0.4658328557 	0.002138779797 	-0.0009104972706 	1.070813289e-07 	0.001735445641 	-3.5107917e-08 	3.308241734e-06
0.4727925432 	0.002067133415 	-0.000835244516 	1.0787678e-07 	0.001648830098 	-1.162232916e-08 	3.143128435e-06
0.479829972 	0.002006695013 	-0.0007606988179 	1.053099824e-07 	0.001571237951 	1.425981983e-08 	2.995216237e-06
0.486948429 	0.001957852586 	-0.0006885798144 	1.017844797e-07 	0.001502919715 	4.334613187e-08 	2.864982691e-06
0.4941463394 	0.001920780878 	-0.0006192058722 	9.919681029e-08 	0.001444162184 	7.485950337e-08 	2.752974506e-06
0.5013447716 	0.001895340623 	-0.0005525833911 	9.666527657e-08 	0.00139506025 	1.06909539e-07 	2.659372574e-06
0.508465376 	0.001880790949 	-0.0004887450512 	8.723387274e-08 	0.001355234008 	1.284152655e-07 	2.583452688e-06
0.5155074155 	0.001875911079 	-0.0004272937798 	7.968858788e-08 	0.001324022092 	1.466955224e-07 	2.5239541e-06
0.5224724405 	0.001879384493 	-0.0003677802903 	7.348739702e-08 	0.001300679087 	1.618147733e-07 	2.479455845e-06
0.5293615891 	0.001889965094 	-0.0003099121531 	6.818871174e-08 	0.001284434896 	1.739038349e-07 	2.448489903e-06
0.5361747244 	0.001906527965 	-0.0002534762155 	6.361284647e-08 	0.001274606668 	1.833460336e-07 	2.429754568e-06
0.5429133278 	0.001928108741 	-0.0001982936134 	5.95957573e-08 	0.001270582714 	1.904834593e-07 	2.422083793e-06
0.5495782327 	0.001953904537 	-0.0001442320037 	5.604072816e-08 	0.001271825055 	1.95671946e-07 	2.42445204e-06
0.5561695966 	0.001983243675 	-9.119480706e-05 	5.287943239e-08 	0.001277897196 	1.991872854e-07 	2.436027228e-06
0.5626887148 	0.002015588756 	-3.908625438e-05 	5.006325284e-08 	0.001288418637 	2.012697135e-07 	2.45608402e-06
0.5691364214 	0.002050514176 	1.217042013e-05 	4.757576292e-08 	0.001303056651 	2.021777357e-07 	2.483988142e-06
0.5755129821 	0.002087668645 	6.263664562e-05 	4.540583716e-08 	0.001321549922 	2.02096408e-07 	2.519241457e-06
0.5818194612 	0.002126777642 	0.0001123891095 	4.354133233e-08 	0.001343667733 	2.011755869e-07 	2.561404152e-06
0.5880568427 	0.002167629381 	0.0001614995593 	4.198333445e-08 	0.001369198665 	1.995897337e-07 	2.610073205e-06
0.5942253977 	0.002210047314 	0.0002100308335 	4.072809992e-08 	0.001397972046 	1.974576552e-07 	2.664923266e-06
0.6003259628 	0.002253897568 	0.000258065114 	3.976091149e-08 	0.001429831063 	1.94866629e-07 	2.725655406e-06
0.6063597157 	0.002299087765 	0.0003056894594 	3.906979993e-08 	0.001464619372 	1.919322263e-07 	2.791971594e-06
0.612326888 	0.002345548725 	0.000352982325 	3.86381902e-08 	0.0015021979 	1.887461818e-07 	2.863606711e-06
0.6182282137 	0.002393235617 	0.000400032741 	3.843757903e-08 	0.001542444229 	1.853655113e-07 	2.940327401e-06
0.6240647607 	0.002442134818 	0.0004469410126 	3.843631206e-08 	0.001585233342 	1.818586989e-07 	3.021895342e-06
0.6298369959 	0.002492251395 	0.0004937952563 	3.860781265e-08 	0.001630446941 	1.783087252e-07 	3.10808503e-06
0.6355455349 	0.002543598697 	0.0005406766879 	3.891886314e-08 	0.001677991715 	1.74752125e-07 	3.198718583e-06
0.6411911782 	0.002596207397 	0.0005876767788 	3.933379845e-08 	0.001727777866 	1.71219389e-07 	3.293624824e-06
0.6467747435 	0.00265011984 	0.0006348740404 	3.982720326e-08 	0.001779718636 	1.677658584e-07 	3.392638367e-06
0.6522966938 	0.002705378305 	0.0006823192303 	4.035922468e-08 	0.001833741782 	1.644119789e-07 	3.4956215e-06
0.6577577088 	0.002761983014 	0.0007300646659 	4.093018523e-08 	0.001889702885 	1.610385702e-07 	3.602298915e-06
0.6631586198 	0.002819870713 	0.0007782016558 	4.155864227e-08 	0.001947312479 	1.575874336e-07 	3.712118813e-06
0.6685000027 	0.002878999654 	0.0008268023272 	4.218577167e-08 	0.002006332289 	1.542788806e-07 	3.824626973e-06
0.6737824424 	0.00293939181 	0.0008758807443 	4.277556819e-08 	0.002066712542 	1.512187582e-07 	3.939728519e-06
0.679006589 	0.003001080083 	0.000925450358 	4.333478377e-08 	0.002128461722 	1.483692164e-07 	4.057439618e-06
0.6841732363 	0.003064083822 	0.0009755272144 	4.385085744e-08 	0.002191575641 	1.457296116e-07 	4.177752289e-06
0.6892828813 	0.003128409367 	0.001026107553 	4.431495222e-08 	0.002256050678 	1.433003826e-07 	4.300659629e-06
0.6943361397 	0.003194047309 	0.00107717741 	4.470336212e-08 	0.002321886379 	1.410627573e-07 	4.426160774e-06
0.6993336336 	0.003260976947 	0.001128721213 	4.498068084e-08 	0.002389078214 	1.389981545e-07 	4.554247086e-06
0.7042760903 	0.003329166803 	0.001180711855 	4.510735741e-08 	0.002457613224 	1.371032203e-07 	4.684893864e-06
0.7091640066 	0.003398567955 	0.001233099748 	4.504208176e-08 	0.002527478691 	1.35368915e-07 	4.818076861e-06
0.7139979828 	0.003469111956 	0.001285817902 	4.4745096e-08 	0.002598668675 	1.337571986e-07 	4.953784758e-06
0.7187786138 	0.003540732049 	0.001338788751 	4.41955337e-08 	0.002671144125 	1.322324533e-07 	5.091943109e-06
0.7235065557 	0.003613391735 	0.001391915056 	4.340907639e-08 	0.002744775255 	1.307942021e-07 	5.232304506e-06
0.7281823321 	0.003686897897 	0.001445163088 	4.241306878e-08 	0.002819727241 	1.293180002e-07 	5.375183824e-06
0.7328065091 	0.003760994704 	0.001502361491 	4.054325295e-08 	0.00289621455 	1.277487833e-07 	5.520989894e-06
0.737379656 	0.003832151867 	0.001554725244 	4.135979767e-08 	0.002979466522 	1.242750734e-07 	5.679691292e-06
0.7419023644 	0.003899964735 	0.001597049719 	4.26019296e-08 	0.003071283783 	1.201699535e-07 	5.854720509e-06
0.7463751843 	0.003969291417 	0.001638123613 	4.113760937e-08 	0.003165702929 	1.178746371e-07 	6.034709644e-06
0.7507986441 	0.004042216572 	0.001679137553 	4.004524207e-08 	0.003259222678 	1.1635946e-07 	6.212984278e-06
0.7551732887 	0.00411856154 	0.001719854441 	3.913766521e-08 	0.003350848742 	1.14930066e-07 	6.387649023e-06
0.7594996577 	0.004197303311 	0.001760299737 	3.826943441e-08 	0.003440863432 	1.132002806e-07 	6.559242039e-06
0.7637783137 	0.00427743801 	0.00180052319 	3.739747188e-08 	0.003529747492 	1.112021618e-07 	6.728679762e-06
0.7680097523 	0.004358167264 	0.001840508258 	3.648287654e-08 	0.003617758891 	1.090129054e-07 	6.896453951e-06
0.7721944944 	0.004438817424 	0.001880154551 	3.549038689e-08 	0.003704876773 	1.066608942e-07 	7.062524846e-06
0.7763330552 	0.004518902875 	0.00191935204 	3.446923217e-08 	0.003790976229 	1.042794322e-07 	7.226654339e-06
0.7804259499 	0.004598164605 	0.001958036593 	3.34650766e-08 	0.003875968663 	1.019598725e-07 	7.388673542e-06
0.7844736913 	0.004676451264 	0.001996165277 	3.248056246e-08 	0.003959779234 	9.970182683e-08 	7.548439784e-06
0.7884767633 	0.004753638654 	0.002033698248 	3.151652171e-08 	0.004042330814 	9.749921384e-08 	7.70580604e-06
0.7924356588 	0.004829617796 	0.002070600435 	3.057302147e-08 	0.004123555153 	9.53453695e-08 	7.860642204e-06
0.7963508653 	0.004904292059 	0.002106842097 	2.965062725e-08 	0.00420339659 	9.323693312e-08 	8.012842174e-06
0.8002228677 	0.004977577848 	0.002142398542 	2.875049412e-08 	0.004281810276 	9.117360875e-08 	8.162320454e-06
0.8040521488 	0.005049406133 	0.00217724949 	2.787647662e-08 	0.004358758805 	8.916445946e-08 	8.309005737e-06
0.8078391712 	0.005119720968 	0.002211379006 	2.703117747e-08 	0.004434213403 	8.721504349e-08 	8.452843172e-06
0.8115844012 	0.00518847869 	0.002244775285 	2.621638999e-08 	0.004508153108 	8.532827497e-08 	8.5937928e-06
0.8152883001 	0.0052556474 	0.002277430457 	2.543410131e-08 	0.004580564218 	8.35075761e-08 	8.731828501e-06
0.8189513238 	0.005321205803 	0.002309340559 	2.468642669e-08 	0.004651440897 	8.175663598e-08 	8.866939151e-06
0.8225739295 	0.005385143386 	0.002340505231 	2.397661322e-08 	0.00472078341 	8.008282579e-08 	8.999125253e-06
0.8261565578 	0.005447459471 	0.002370927673 	2.330825852e-08 	0.004788598888 	7.849481974e-08 	9.128400402e-06
0.8296996493 	0.005508161769 	0.002400614755 	2.268351644e-08 	0.004854902825 	7.699649408e-08 	9.254794134e-06
0.8332036402 	0.005567266514 	0.002429576812 	2.210451718e-08 	0.004919717679 	7.559164905e-08 	9.378349262e-06
0.8366689621 	0.005624797713 	0.002457827631 	2.157332558e-08 	0.004983073651 	7.428396532e-08 	9.499123352e-06
0.8400960425 	0.005680786885 	0.002485384275 	2.109195022e-08 	0.005045007916 	7.307704138e-08 	9.617187275e-06
0.8434853052 	0.005735273388 	0.002512266764 	2.06633635e-08 	0.005105563025 	7.197809657e-08 	9.732622143e-06