0.3810449493 	0.01119026062 	0.00144124518 	-7.970810147e-07
0.3810449493 	0.01119026062 	0.00144124518 	-7.970810147e-07
0.3812213909 	0.03264768287 	0.004189219758 	-2.483864715e-06
0.3813978397 	0.06513446479 	0.008345370631 	-5.017915439e-06
0.381574295 	0.09745852615 	0.01248407261 	-7.413333112e-06
0.3817507564 	0.12961751 	0.01660092589 	-9.714000079e-06
0.3819272234 	0.1616058238 	0.02069421688 	-1.192951036e-05
0.3821036954 	0.1934129438 	0.02476269022 	-1.405943473e-05
0.3822801719 	0.2250211444 	0.02880418921 	-1.61026685e-05
0.3824566525 	0.2564030103 	0.03281521372 	-1.805721949e-05
0.3826331365 	0.2875193861 	0.03679073961 	-1.992018679e-05
0.3828096235 	0.3183185031 	0.04072414063 	-2.168789655e-05
0.382986113 	0.3487369474 	0.04460732315 	-2.335624307e-05
0.3831626043 	0.3787028161 	0.0484311307 	-2.492118755e-05
0.3833390971 	0.4081408421 	0.05218595164 	-2.637924974e-05
0.3835155909 	0.436978633 	0.05586240376 	-2.772797908e-05
0.383692085 	0.4651527276 	0.05945259915 	-2.896819497e-05
0.3838685789 	0.4926299489 	0.06295288585 	-3.010751997e-05
0.3840450723 	0.5194290951 	0.06636528013 	-3.115488718e-05
0.3842215645 	0.5455872041 	0.06969396669 	-3.211200535e-05
0.384398055 	0.5711164922 	0.0729410157 	-3.29772366e-05
0.3845745433 	0.5960148312 	0.07610648392 	-3.375149049e-05
0.384751029 	0.6202826242 	0.07919031472 	-3.443723378e-05
0.3849275114 	0.6439228048 	0.08219289639 	-3.503691059e-05
0.3851039901 	0.666940366 	0.08511492215 	-3.555287685e-05
0.3852804646 	0.6893418313 	0.08795727657 	-3.598741897e-05
0.3854569344 	0.7111347028 	0.09072096267 	-3.63427171e-05
0.385633399 	0.7323269145 	0.09340703684 	-3.66208061e-05
0.3858098578 	0.7529263345 	0.09601654347 	-3.682356337e-05
0.3859863103 	0.7729403659 	0.09855043805 	-3.695272007e-05
0.3861627561 	0.7923756558 	0.1010095297 	-3.700989657e-05
0.3863391946 	0.8138101164 	0.1037200718 	-3.710743906e-05
0.3866133237 	0.839553136 	0.1069722901 	-3.684524162e-05
0.3868925839 	0.8668837817 	0.1104219248 	-3.65217889e-05
0.3871770685 	0.8933196091 	0.1137544588 	-3.60320546e-05
0.3874668729 	0.9188165368 	0.116964215 	-3.537810009e-05
0.3877620936 	0.9433357406 	0.1200461503 	-3.456396642e-05
0.3880628288 	0.96684602 	0.1229961484 	-3.359534299e-05
0.3883691783 	0.9893261132 	0.1258113526 	-3.247920207e-05
0.3886812435 	1.010776433 	0.1284917305 	-3.122414045e-05
0.3889991275 	1.031286988 	0.1310486847 	-2.984388781e-05
0.3893229347 	1.051048007 	0.1335062356 	-2.835195738e-05
0.3896527714 	1.07021369 	0.1358838528 	-2.675253123e-05
0.3899887454 	1.088837585 	0.1381883049 	-2.504605313e-05
0.3903309662 	1.106928453 	0.1404206036 	-2.323464395e-05
0.3906795449 	1.124487036 	0.1425807249 	-2.132077276e-05
0.3910345942 	1.141511478 	0.1446683002 	-1.930619169e-05
0.3913962286 	1.157993794 	0.1466821098 	-1.719169161e-05
0.391764564 	1.173914068 	0.1486193432 	-1.497924221e-05
0.3921397182 	1.189242209 	0.1504758358 	-1.267405204e-05
0.3925218105 	1.203946644 	0.1522471753 	-1.028390783e-05
0.3929109619 	1.217999824 	0.1539294458 	-7.817515972e-06
0.3933072949 	1.231378603 	0.1555193093 	-5.283779124e-06
0.3937109339 	1.24406294 	0.1570138269 	-2.691793154e-06
0.3941220045 	1.256034341 	0.1584102158 	-5.103811985e-08
0.394129973 	1.256248349 	0.1584348855 	9.883030079e-07
0.3945400737 	1.267281112 	0.1597072436 	-2.583626517e-06
0.3949668698 	1.27785014 	0.1609088828 	-5.256613364e-06
0.3954119652 	1.287751819 	0.1620148194 	-8.035676666e-06
0.395865298 	1.296877284 	0.1630113323 	-1.082837543e-05
0.3963270188 	1.305150393 	0.1638888649 	-1.36227756e-05
0.3967972809 	1.31257129 	0.1646469636 	-1.641330906e-05
0.3972762401 	1.319182172 	0.1652922656 	-1.920995216e-05
0.3977640554 	1.325089222 	0.1658385605 	-2.202629351e-05
0.3982608883 	1.330409103 	0.1662995698 	-2.486245956e-05
0.3987669034 	1.335201474 	0.1666839218 	-2.770993518e-05
0.399282268 	1.339493695 	0.1669958762 	-3.056127334e-05
0.3998071528 	1.343315359 	0.1672387784 	-3.341649458e-05
0.4003417311 	1.346698185 	0.1674167146 	-3.627851326e-05
0.4008861797 	1.349674607 	0.1675339643 	-3.914903365e-05
0.4014406782 	1.352276336 	0.1675946245 	-4.202871277e-05
0.4020054097 	1.354533828 	0.1676026904 	-4.492024683e-05
0.4025805604 	1.356478605 	0.167562554 	-4.783118821e-05
0.4031663199 	1.35814665 	0.1674791825 	-5.077059087e-05
0.4037628812 	1.359576906 	0.1673577458 	-5.374524356e-05
0.4043704407 	1.360805927 	0.1672031594 	-5.675873285e-05
0.4049891984 	1.361864838 	0.1670197205 	-5.981109721e-05
0.4056193577 	1.362779411 	0.1668109731 	-6.290087586e-05
0.4062611258 	1.363570937 	0.1665798139 	-6.602682717e-05
0.4069147136 	1.364257001 	0.1663286204 	-6.918779539e-05
0.4075803356 	1.36485216 	0.1660593159 	-7.238261755e-05
0.4082582104 	1.365369824 	0.1657727443 	-6.891244202e-05
0.4089563963 	1.365822118 	0.1654682436 	-6.508994317e-05
0.4096771504 	1.366216074 	0.1651463719 	-6.118017126e-05
0.4104111267 	1.366555408 	0.164809905 	-5.724778067e-05
0.411158564 	1.36684504 	0.1644607218 	-5.329244867e-05
0.411919705 	1.36709025 	0.1640995061 	-4.931333164e-05
0.4126947969 	1.367295472 	0.1637268144 	-4.53099166e-05
0.4134840914 	1.367464438 	0.1633431083 	-4.128196278e-05
0.4142878445 	1.367600302 	0.1629487699 	-3.722945613e-05
0.4151063168 	1.367705736 	0.1625441194 	-3.315257341e-05
0.4159397736 	1.367783012 	0.1621294265 	-2.905166154e-05
0.4167884849 	1.367837539 	0.1616520169 	-2.491533097e-05
0.4180905889 	1.367867359 	0.1610506768 	-1.86984383e-05
0.419406252 	1.367852903 	0.1603863604 	-1.25241018e-05
0.4207356172 	1.36779657 	0.1597130171 	-6.404708688e-06
0.4220788289 	1.367702145 	0.1590279879 	-3.407861023e-07
0.4221548793 	1.367695007 	0.1589895262 	-2.589473087e-06
0.4234639132 	1.367571518 	0.1583284214 	-5.760611006e-06
0.4248663094 	1.367408235 	0.1576168664 	-1.180948584e-05
0.4262832195 	1.367215835 	0.1568972515 	-1.778991055e-05
0.4277147966 	1.366996007 	0.1561716893 	-2.371143926e-05
0.4291611958 	1.366745158 	0.1554405405 	-2.956231603e-05
0.4306225742 	1.366453538 	0.1546996261 	-3.530015444e-05
0.4320990907 	1.366113482 	0.1539467195 	-4.094877025e-05
0.4335909064 	1.365724499 	0.1531834376 	-4.653353233e-05
0.4350981844 	1.365287857 	0.1524081616 	-5.203015948e-05
0.4366434922 	1.364804014 	0.151616306 	-5.754658638e-05
0.4382166345 	1.364276494 	0.1508095943 	-5.994156563e-05
0.4398059559 	1.363711672 	0.1499932153 	-5.358419759e-05
0.4414116291 	1.36311462 	0.1491694154 	-4.732337244e-05
0.4430338293 	1.362489212 	0.1483388539 	-4.115806617e-05
0.4446727339 	1.361839015 	0.1475021289 	-3.508707398e-05
0.4463285227 	1.361167251 	0.1466597345 	-2.910907439e-05
0.4480013782 	1.360475007 	0.1458102672 	-2.32222699e-05
0.4497078613 	1.359761015 	0.1449496957 	-1.735313092e-05
0.4514512468 	1.359026871 	0.144077874 	-1.149617682e-05
0.4532124669 	1.358277768 	0.1431997554 	-5.739861624e-06
0.454991715 	1.357517157 	0.1423180535 	-8.410013968e-08
0.4550186889 	1.357505586 	0.1423047619 	-8.645967867e-07
0.4567876948 	1.356745139 	0.1414338091 	-5.414893427e-06
0.4586020882 	1.355963405 	0.1405462706 	-1.081511224e-05
0.4604351201 	1.355172097 	0.139655025 	-1.611757539e-05
0.462291103 	1.354367623 	0.1387561408 	-2.133696007e-05
0.4641986841 	1.353547489 	0.1378459268 	-2.657403124e-05
0.4661257233 	1.352715504 	0.1369290725 	-3.170038918e-05
0.4680724357 	1.351875362 	0.1360095874 	-3.671725367e-05
0.4700390397 	1.351027105 	0.1350874977 	-4.162482832e-05
0.4720257568 	1.350170715 	0.1341627428 	-4.642336547e-05
0.4740328119 	1.349304295 	0.1332335705 	-5.111195779e-05
0.4760774571 	1.348423932 	0.1322958076 	-4.565061139e-05
0.478163013 	1.347529273 	0.1313490134 	-4.012818832e-05
0.4802697826 	1.346624074 	0.1303976366 	-3.472451372e-05
0.4823980057 	1.345710446 	0.1294439999 	-2.944031547e-05
0.4845479263 	1.344788298 	0.1284880414 	-2.427492557e-05
0.4867197918 	1.343855994 	0.1275283383 	-1.922724878e-05
0.488928055 	1.342909569 	0.1265609706 	-1.425416552e-05
0.4911816255 	1.341948089 	0.1255848446 	-9.338440046e-06
0.4934580691 	1.340975244 	0.124604232 	-4.551119911e-06
0.4957035467 	1.340016522 	0.1236447435 	-1.489299303e-06
0.4957576181 	1.339993398 	0.1236216528 	-1.075591416e-07
0.4980792332 	1.339001662 	0.1226375034 	-4.603809049e-06
0.5004245514 	1.337997665 	0.121648581 	-8.976532004e-06
0.5028227957 	1.336977646 	0.1206508193 	-1.329703226e-05
0.5052529341 	1.335943625 	0.1196465973 	-1.750291755e-05
0.5077077682 	1.334899382 	0.1186398542 	-2.15765105e-05
0.5101875913 	1.333845674 	0.1176313204 	-2.551966972e-05
0.5126927018 	1.332780068 	0.1166190368 	-2.933331997e-05
0.5152453314 	1.331698838 	0.1155993298 	-3.30641025e-05
0.5178375627 	1.330602698 	0.1145730468 	-3.668617828e-05
0.5204561288 	1.329495255 	0.1135439129 	-4.017176823e-05
0.5231013502 	1.328377916 	0.1125132451 	-3.717261075e-05
0.5257735529 	1.327247701 	0.1114787372 	-3.297693769e-05
0.5285003312 	1.326101044 	0.1104368149 	-2.885783693e-05
0.5312618722 	1.324939831 	0.109389552 	-2.486371518e-05
0.5340515049 	1.323767564 	0.1083403558 	-2.100820473e-05
0.53686958 	1.322583961 	0.1072891277 	-1.728853741e-05
0.5397256397 	1.321385512 	0.1062329688 	-1.368551376e-05
0.5426344385 	1.320170634 	0.1051703173 	-1.017944678e-05
0.5455728418 	1.318942509 	0.104104417 	-6.812909097e-06
0.5485412272 	1.317703415 	0.1030373564 	-3.582980644e-06
0.5515410631 	1.316450011 	0.1019666995 	-4.845362812e-07
0.5520281168 	1.316247797 	0.1017951885 	-1.093479822e-05
0.5546006518 	1.31517864 	0.1008896093 	-2.509880286e-06
0.5576913108 	1.313892729 	0.09980893865 	-5.364726009e-06
0.5608136116 	1.3125953 	0.09872730182 	-8.08642869e-06
0.5639687067 	1.311283218 	0.09764250486 	-1.067944887e-05
0.567184494 	1.309953479 	0.09655175919 	-1.31766727e-05
0.5704332106 	1.308608799 	0.09545777491 	-1.554014676e-05
0.5737152938 	1.307251298 	0.09436260923 	-1.777456078e-05
0.5770372296 	1.305878029 	0.09326413098 	-1.988998272e-05
0.5804142413 	1.304487197 	0.0921608153 	-2.189897605e-05
0.5838259791 	1.303081294 	0.09105508707 	-2.378020857e-05
0.5872729134 	1.301660681 	0.08994768106 	-2.553864052e-05
0.5907705878 	1.300222543 	0.08883641775 	-2.719029421e-05
0.5943140224 	1.298767089 	0.08772167723 	-2.872677664e-05
0.5978940924 	1.297296172 	0.08660535857 	-2.646035949e-05
0.6015149511 	1.295808164 	0.08548658962 	-2.420959795e-05
0.6051922863 	1.29430108 	0.08436386394 	-2.206133833e-05
0.6089077541 	1.292776852 	0.08323911026 	-2.003193856e-05
0.612661888 	1.291235235 	0.08211269664 	-1.811616584e-05
0.6164727598 	1.289673651 	0.08098274468 	-1.629838194e-05
0.6203260974 	1.288093158 	0.07985044891 	-1.459130313e-05
0.6242196901 	1.286494067 	0.07871665406 	-1.29917647e-05
0.6281668391 	1.284874227 	0.07757996634 	-1.148781466e-05
0.6321607674 	1.283233822 	0.07644089883 	-1.008575399e-05
0.6361966073 	1.281573079 	0.07530027837 	-8.783902016e-06
0.6402856089 	1.279890218 	0.07415710432 	-7.572302225e-06
0.6444231319 	1.278185105 	0.07301170028 	-6.454938663e-06
0.6486042948 	1.276457684 	0.07186473655 	-5.429442822e-06
0.6528401147 	1.274706237 	0.07071534177 	-4.48716852e-06
0.6571245484 	1.272930678 	0.0695639661 	-3.631618625e-06
0.6614544254 	1.27113054 	0.0684110367 	-2.858726734e-06
0.6658416149 	1.269303946 	0.06725565365 	-2.161375149e-06
0.6702766106 	1.26745089 	0.06609848367 	-1.542588992e-06
0.6747608143 	1.265570561 	0.06493968585 	-9.960469681e-07
0.6793018053 	1.263666338 	0.06378161359 	-5.186368111e-07
0.6838407313 	1.261754161 	0.06263458678 	-1.139826134e-07
0.68533741 	1.261119424 	0.06225908615 	-2.226571086e-05
0.6883321244 	1.259849217 	0.06150777063 	-2.232432709e-07
0.6927764795 	1.257955903 	0.06040332917 	-4.970128278e-07
0.6971701987 	1.256073901 	0.05932092399 	-7.142285899e-07
0.7015195371 	1.254202101 	0.05825949774 	-8.824399199e-07
0.7058210368 	1.25234027 	0.05721866378 	-1.003987006e-06
0.7100738481 	1.250487943 	0.05619799548 	-1.085406251e-06
0.7142840845 	1.248643962 	0.05519645151 	-1.131518791e-06
0.7184469364 	1.246808296 	0.05421383523 	-1.144353161e-06
0.7225632872 	1.24498047 	0.05324969753 	-1.129376747e-06
0.7266374089 	1.243159438 	0.05230315111 	-1.089439045e-06
0.730665764 	1.241345106 	0.0513740101 	-1.026557854e-06
0.7346493111 	1.239536963 	0.05046182704 	-9.449716674e-07
0.7385913566 	1.237734076 	0.04956585461 	-8.465586256e-07
0.7424893035 	1.235936292 	0.04868590341 	-7.328982763e-07
0.74634377 	1.23414311 	0.04782157911 	-6.07247571e-07
0.7501578474 	1.232353632 	0.0469722114 	-4.711420096e-07
0.7539294053 	1.230567632 	0.04613759047 	-3.254648356e-07
0.7576589941 	1.228784686 	0.04531741709 	-1.727295641e-07
0.7613487646 	1.227003987 	0.04451111323 	-1.441408223e-08
0.7616645071 	1.22685007 	0.04444252629 	-3.814945824e-06
0.7649978035 	1.225225074 	0.04371838564 	-1.488044922e-07
0.7686063318 	1.223447642 	0.04293902459 	-3.154252534e-07
0.7721756267 	1.221671023 	0.04217256274 	-4.840110656e-07
0.7757060681 	1.21989468 	0.04141865651 	-6.546597678e-07
0.779197407 	1.218118283 	0.0406771286 	-8.262054858e-07
0.7826502185 	1.216341282 	0.03994763102 	-9.973282737e-07
0.7860658461 	1.214563027 	0.03922977419 	-1.167851152e-06
0.7894437099 	1.212783159 	0.03852336633 	-1.337483272e-06
0.7927842666 	1.211001275 	0.03782819345 	-1.505215453e-06
0.7960883722 	1.209216771 	0.03714390157 	-1.670334778e-06
0.7993563864 	1.207429147 	0.0364702265 	-1.833145773e-06
0.8025883531 	1.205638039 	0.03580700514 	-1.993074242e-06
0.8057846993 	1.203842974 	0.03515399181 	-2.149441936e-06
0.8089462876 	1.202043385 	0.03451088888 	-2.302029294e-06
0.812073146 	1.200238845 	0.03387749998 	-2.451084981e-06
0.8151655736 	1.198428982 	0.03325367122 	-2.596128766e-06
0.8182239713 	1.196613304 	0.03263916848 	-2.736713942e-06
0.8212490869 	1.194791279 	0.03203374299 	-2.872867599e-06
0.8242409391 	1.192962492 	0.03143723114 	-3.004775414e-06
0.8271998887 	1.191126552 	0.03084948731 	-3.132115372e-06
0.8301263136 	1.189282971 	0.03027030906 	-3.254603775e-06
0.8330208137 	1.187431229 	0.02969948437 	-3.372301437e-06
0.835883524 	1.185570878 	0.02913686323 	-3.485443268e-06
0.8387147803 	1.183701489 	0.02858231257 	-3.593836032e-06
0.8415149398 	1.181822567 	0.02803566576 	-3.697310731e-06
0.8442844673 	1.179933575 	0.02749673926 	-3.79585768e-06
0.8470236332 	1.178033997 	0.02696538776 	-3.889787701e-06
0.8497327213 	1.176123337 	0.0264414928 	-3.979025432e-06
0.8524120703 	1.174201063 	0.02592491747 	-4.063481473e-06
0.8550620396 	1.172266585 	0.02541550697 	-4.143096229e-06
0.8576830073 	1.170319291 	0.02491311835 	-4.218127899e-06
0.8602752069 	1.168358582 	0.02441764249 	-4.288668265e-06
0.8628389602 	1.166383836 	0.02392896333 	-4.354681853e-06
0.8653745848 	1.164394376 	0.02344695881 	-4.416147022e-06
0.8678824306 	1.162389475 	0.02297149566 	-4.473107399e-06
0.8703627885 	1.160368377 	0.02250245998 	-4.525823172e-06
0.8728159327 	1.158330306 	0.02203975693 	-4.574331627e-06
0.8752421656 	1.156274442 	0.02158327983 	-4.618642115e-06
0.8776417855 	1.154199897 	0.02113292367 	-4.658773855e-06
0.8800151111 	1.152105717 	0.02068857477 	-4.694804193e-06
0.8823624151 	1.14999089 	0.02025013566 	-4.726954424e-06
0.8846839699 	1.14785435 	0.01981752173 	-4.755275167e-06
0.8869800602 	1.145694943 	0.01939063815 	-4.779802247e-06
0.889250967 	1.143511414 	0.01896939513 	-4.800578795e-06
0.8914969771 	1.141302382 	0.01855369477 	-4.817667483e-06
0.8937183629 	1.13906633 	0.018143448 	-4.83125892e-06
0.8959153816 	1.136801589 	0.01773857884 	-4.84143535e-06
0.8980883014 	1.134506302 	0.01733900307 	-4.848247858e-06
0.9002373876 	1.132178378 	0.01694463887 	-4.851751868e-06
0.9023629021 	1.129815451 	0.01655540327 	-4.852005801e-06
0.9044651126 	1.127414836 	0.0161712089 	-4.849123139e-06
0.9065442628 	1.124973491 	0.0157919787 	-4.665229342e-06
0.9086006046 	1.122487982 	0.01541763631 	-4.485570187e-06
0.9106343886 	1.119954432 	0.01504809727 	-4.311382098e-06
0.9126458621 	1.117368495 	0.0146832793 	-4.142547523e-06
0.9146352699 	1.114725337 	0.01432309406 	-3.978947118e-06
0.9166028579 	1.11201964 	0.0139674482 	-3.820413884e-06
0.9185488579 	1.109245634 	0.01361625337 	-3.666788366e-06
0.9204735065 	1.106397147 	0.01326941636 	-3.517957238e-06
0.9223770377 	1.103467669 	0.01292683555 	-3.373805615e-06
0.9242596827 	1.100450452 	0.01258840798 	-3.234219559e-06
0.9261216705 	1.097338617 	0.0122540266 	-3.099085429e-06
0.9279632281 	1.09412528 	0.01192357546 	-2.968273713e-06
0.9297845769 	1.090803678 	0.0115969407 	-2.841631677e-06
0.9315859373 	1.087367288 	0.01127400847 	-2.719050617e-06
0.9333675279 	1.08380992 	0.01095465657 	-2.60042469e-06
0.9351295652 	1.080125771 	0.01063876184 	-2.485650542e-06
0.9368722632 	1.076309442 	0.01032620101 	-2.374627599e-06
0.9385958333 	1.072355912 	0.01001684691 	-2.267256949e-06
0.9403004852 	1.068260458 	0.009710568404 	-2.16342514e-06
0.9419864243 	1.064018549 	0.009407237665 	-2.063018104e-06
0.9436538552 	1.059625712 	0.00910672483 	-1.965944463e-06
0.9453029805 	1.055077394 	0.008808894152 	-1.872112477e-06
0.9469340003 	1.050368857 	0.008513608799 	-1.781430583e-06
0.9485471127 	1.045495166 	0.008220731732 	-1.693806944e-06
0.9501425136 	1.040451377 	0.007930128984 	-1.609149475e-06
0.9517203967 	1.03523313 	0.007641674074 	-1.527362519e-06
0.9532809531 	1.029838076 	0.007355254886 	-1.448342337e-06
0.954824372 	1.024268975 	0.007070779634 	-1.372005154e-06
0.9563508411 	1.019030745 	0.006812052867 	-1.301313531e-06
0.9573452296 	1.014707758 	0.006603863128 	-1.25125323e-06
0.9583213075 	1.010885578 	0.006422593981 	-1.205869572e-06
0.9592794114 	1.00708633 	0.006244574828 	-1.162095536e-06
0.9602198716 	1.003311019 	0.006069716232 	-1.119856894e-06
0.9611430126 	0.9995562466 	0.005897931331 	-1.079080619e-06
0.9620491527 	0.9958167306 	0.005729129306 	-1.039695459e-06
0.9629386046 	0.992086505 	0.005563217987 	-1.001632742e-06
0.9638116751 	0.9883594292 	0.005400111209 	-9.648253858e-07
0.9646686653 	0.9846293578 	0.005239732275 	-9.292116941e-07
0.9655098709 	0.9808901477 	0.005082013443 	-8.947355239e-07
0.9663355822 	0.9771355924 	0.004926895681 	-8.613443917e-07
0.9671460842 	0.9733593324 	0.004774328525 	-8.289892122e-07
0.9679416566 	0.9695547614 	0.004624269426 	-7.976239824e-07
0.968722574 	0.9657149411 	0.004476683152 	-7.672055219e-07
0.969489106 	0.9618325294 	0.004331541267 	-7.376932723e-07
0.9702415172 	0.9578997224 	0.004188821655 	-7.090491481e-07
0.9709800674 	0.9539082128 	0.004048508074 	-6.812374319e-07
0.9717050115 	0.9498491627 	0.003910589744 	-6.542247084e-07
0.9724166 	0.9457131912 	0.003775060939 	-6.279798267e-07
0.9731150785 	0.9414903747 	0.003641920586 	-6.024738825e-07
0.9738006883 	0.9371702587 	0.003511171889 	-5.776802126e-07
0.9744736661 	0.9327418796 	0.00338282191 	-5.535743872e-07
0.9751342444 	0.928193794 	0.003256880831 	-5.301340966e-07
0.9757826513 	0.9235141139 	0.003133361857 	-5.073385582e-07
0.9764191108 	0.9186905457 	0.00301228083 	-4.851697495e-07
0.9770438429 	0.9137104315 	0.00289365527 	-4.636119004e-07
0.9776570633 	0.9085607896 	0.002777504041 	-4.4265119e-07
0.978258984 	0.9032283545 	0.002663846894 	-4.222756261e-07
0.9788498128 	0.8976996149 	0.002552703912 	-4.024748948e-07
0.979429754 	0.8919608488 	0.002444094996 	-3.832401948e-07
0.979999008 	0.8859981565 	0.002338039385 	-3.645640622e-07
0.9805577716 	0.879797492 	0.002234555197 	-3.464401884e-07
0.9811062378 	0.8733446933 	0.002133658993 	-3.288632391e-07
0.9816445962 	0.8666255138 	0.002035365378 	-3.118286784e-07
0.9821730329 	0.8596256575 	0.001939686624 	-2.953326044e-07
0.9826917307 	0.8523308182 	0.001846632323 	-2.793715982e-07
0.9832008687 	0.8447267279 	0.001756209057 	-2.639425867e-07
0.983700623 	0.8367992148 	0.001668420091 	-2.490427178e-07
0.9841911664 	0.8285342743 	0.001583265077 	-2.34669243e-07
0.9846726686 	0.8199181526 	0.001500739785 	-2.208193961e-07
0.9851452959 	0.8109374436 	0.00142083589 	-2.074902644e-07
0.9856092119 	0.8015791918 	0.001343540691 	-1.946787109e-07
0.9860645769 	0.7918309796 	0.001268836336 	-1.823814379e-07
0.9865115485 	0.781680908 	0.001196698901 	-1.705947557e-07
0.9869502811 	0.7711170675 	0.001127102161 	-1.593128567e-07
0.9873809266 	0.7601246009 	0.001060017308 	-1.485343328e-07
0.987803634 	0.7486835904 	0.0009954011731 	-1.382576746e-07
0.9882185493 	0.7367740109 	0.0009332169941 	-1.284670635e-07
0.9886258161 	0.7243808573 	0.0008734459317 	-1.191468496e-07
0.9890255754 	0.7114926898 	0.000816064722 	-1.102882037e-07
0.9894179654 	0.6980992335 	0.0007610437072 	-1.018806593e-07
0.9898031218 	0.6841909067 	0.000708350621 	-9.391345104e-08
0.9901811779 	0.6697588074 	0.0006579504068 	-8.637571669e-08
0.9905522645 	0.6547948218 	0.0006098052286 	-7.925633027e-08
0.9909165101 	0.6392917894 	0.000563874908 	-7.254383842e-08
0.9912740405 	0.6232437173 	0.0005201172891 	-6.622646418e-08
0.9916249796 	0.606646039 	0.0004784895242 	-6.029211295e-08
0.9919694487 	0.5894958899 	0.0004389531383 	-5.472841235e-08
0.9923075672 	0.5717921259 	0.0004014719023 	-4.952293267e-08
0.9926394519 	0.5551128768 	0.0003689162652 	-4.499479077e-08
0.9928530538 	0.5412027839 	0.0003436398413 	-4.164903926e-08
0.9930666574 	0.5285514711 	0.0003220113581 	-3.875597567e-08
0.9932802626 	0.5154801193 	0.0003009436157 	-3.596583797e-08
0.9934938694 	0.5019793559 	0.0002804446411 	-3.3279307e-08
0.9937074779 	0.4880405245 	0.0002605277124 	-3.069697038e-08
0.993921088 	0.4736556291 	0.000241209446 	-2.821923196e-08
0.9941346997 	0.4588174887 	0.0002225095221 	-2.584620677e-08
0.9943483131 	0.4435199166 	0.0002044481094 	-2.357836649e-08
0.9945619281 	0.42775791 	0.000187014856 	-2.14195779e-08
0.9947755447 	0.4115278275 	0.00017012576 	-1.937690877e-08
0.994989163 	0.3948271943 	0.0001540419722 	-1.7408298e-08
0.995202783 	0.3776422843 	0.0001389574034 	-1.553916375e-08
0.9954164045 	0.3599458913 	0.0001243951622 	-1.383453145e-08
0.9956300277 	0.3417268476 	0.0001102959325 	-1.221959488e-08
0.9958436526 	0.3230004882 	9.700921266e-05 	-1.067621814e-08
0.996057279 	0.3037937846 	8.455584427e-05 	-9.248840909e-09
0.9962709071 	0.284138635 	7.289882364e-05 	-7.928439477e-09
0.9964845369 	0.2640696877 	6.20613459e-05 	-6.712008452e-09
0.9966981683 	0.2436219155 	5.207405318e-05 	-5.599990038e-09
0.9969118013 	0.2228283148 	4.295787317e-05 	-4.592787026e-09
0.9971254359 	0.2017180789 	3.472388941e-05 	-3.690069999e-09
0.9973390722 	0.1803154707 	2.737544782e-05 	-2.890891836e-09
0.9975527102 	0.158639446 	2.091014159e-05 	-2.193790756e-09
0.9977663498 	0.1367039285 	1.53218972e-05 	-1.596895834e-09
0.997979991 	0.1145185402 	1.060852613e-05 	-1.098294339e-09
0.9981936338 	0.09208956973 	6.791498889e-06 	-6.96928402e-10
0.9984072783 	0.069420979 	3.887362092e-06 	-3.914845107e-10
0.9986209244 	0.0465153053 	1.650220403e-06 	-1.6993119e-10
0.9988345722 	0.02337436797 	-9.373048155e-07 	1.229393897e-11
0.9990482216 	0.009750764659 	-2.085740399e-06 	8.319670435e-11
0.9990482216 	0.009750764659 	-2.085740399e-06 	8.319670435e-11
