0 	0.3674450178 	-1.501076648e-14 	-8.620791824e-22
0.0003149815133 	0.3674283724 	-6.895593948e-05 	3.165592087e-09
0.0006299624726 	0.3673976443 	-0.0001289964057 	4.971206336e-09
0.0009449428773 	0.3673708203 	-0.0001897211726 	5.874560944e-09
0.001259922727 	0.3673447131 	-0.0002518880467 	5.901901333e-09
0.00157490202 	0.3673178559 	-0.0003143484386 	4.997209658e-09
0.001889880757 	0.3672894496 	-0.0003768574681 	3.150460653e-09
0.002204858937 	0.3672589971 	-0.0004394131546 	3.601240505e-10
0.002239077857 	0.3672554286 	-0.0004462127193 	1.240229171e-09
0.002519836559 	0.3672251092 	-0.0005020146142 	3.520775609e-09
0.002834813624 	0.3671884386 	-0.0005646488678 	8.404392053e-09
0.00314979013 	0.367148898 	-0.0006273088993 	1.427630659e-08
0.003464766077 	0.3671063022 	-0.0006899916069 	2.113751918e-08
0.003779741465 	0.3670604835 	-0.000752695449 	2.89889953e-08
0.004094716294 	0.3670112844 	-0.0008154196967 	3.783169551e-08
0.004409690564 	0.3669585532 	-0.0008781641847 	4.766659634e-08
0.004724664274 	0.3669021405 	-0.0009409291551 	5.849470571e-08
0.005039637424 	0.366841897 	-0.001003715144 	7.031707394e-08
0.005354610015 	0.3667776722 	-0.001066522911 	8.313480238e-08
0.005669582045 	0.3667093128 	-0.001129353387 	9.694905118e-08
0.005984553517 	0.3666366623 	-0.001192207652 	1.117610459e-07
0.006299524428 	0.3665595602 	-0.001255086903 	1.275720839e-07
0.00661449478 	0.3664778416 	-0.001317992449 	1.443835407e-07
0.006929464573 	0.366391337 	-0.001380925695 	1.621968762e-07
0.007244433807 	0.366299872 	-0.001443888146 	1.810136406e-07
0.007559402482 	0.3662032671 	-0.00150688136 	2.008354752e-07
0.007874370599 	0.3661013379 	-0.001569906871 	2.216641079e-07
0.008189338158 	0.365993895 	-0.001632966463 	2.435014127e-07
0.008504305159 	0.3658807445 	-0.001696063502 	2.663496402e-07
0.008819271603 	0.3657616934 	-0.001759202072 	2.902111987e-07
0.009134237491 	0.3656366221 	-0.00182237751 	3.150870171e-07
0.009449202822 	0.3654880296 	-0.001894457576 	3.426085588e-07
0.009938585273 	0.3653015762 	-0.00198459201 	3.83370976e-07
0.01043716429 	0.3650990934 	-0.002084863223 	4.289638851e-07
0.01094511266 	0.3648986339 	-0.0021871249 	4.780462935e-07
0.01146260645 	0.3647000339 	-0.002291408085 	5.30782348e-07
0.011989825 	0.3645030855 	-0.002397754373 	5.873447848e-07
0.01252695103 	0.36430762 	-0.002506205784 	6.479129312e-07
0.01307417071 	0.3641135103 	-0.002616803865 	7.12672264e-07
0.01363167369 	0.3639206695 	-0.002729591089 	7.818148483e-07
0.01419965319 	0.3637290496 	-0.00284461112 	8.555395723e-07
0.01477830605 	0.3635386403 	-0.002961908723 	9.340522444e-07
0.01536783281 	0.363349469 	-0.003081529716 	1.017565675e-06
0.01596843781 	0.3631616004 	-0.003203520961 	1.10629975e-06
0.01658032918 	0.3629751369 	-0.003327930365 	1.20048149e-06
0.01720371899 	0.3627902194 	-0.003454806867 	1.300345076e-06
0.0178388233 	0.3626070278 	-0.003584200442 	1.406131865e-06
0.01848586221 	0.3624257829 	-0.003716162022 	1.518090321e-06
0.01914505996 	0.3622467493 	-0.003850743466 	1.63647594e-06
0.01981664503 	0.3620700759 	-0.003988139271 	1.761622143e-06
0.02050358683 	0.3618959231 	-0.004128647832 	1.894236024e-06
0.02120541641 	0.3617249143 	-0.00427229001 	2.034670964e-06
0.02192043459 	0.3615578864 	-0.004418887453 	2.182963789e-06
0.02264888916 	0.3613954759 	-0.004568399052 	2.339404974e-06
0.02339103257 	0.3612382392 	-0.004720882245 	2.504348959e-06
0.02414712203 	0.3610867896 	-0.004876395409 	2.678163936e-06
0.02491741955 	0.3609418001 	-0.005034997688 	2.86123218e-06
0.0257021921 	0.3608040065 	-0.005196748935 	3.053950459e-06
0.02650171163 	0.3606742103 	-0.005361709663 	3.227731193e-06
0.02731625522 	0.3605532815 	-0.005529940995 	3.222958751e-06
0.02814610515 	0.3604421616 	-0.005701504604 	3.211640163e-06
0.02899154899 	0.3603418671 	-0.00587646264 	3.193402932e-06
0.02985287974 	0.3602534921 	-0.006054877661 	3.167858597e-06
0.03073039586 	0.3601782119 	-0.006236812553 	3.134602205e-06
0.03162440146 	0.360117286 	-0.006422330449 	3.093211784e-06
0.03253520634 	0.3600720611 	-0.006611494639 	3.043247814e-06
0.03346312612 	0.3600439746 	-0.006804368476 	2.9842527e-06
0.03440848235 	0.3600345571 	-0.007001015279 	2.915750228e-06
0.03537160262 	0.3600454357 	-0.007201498233 	2.837245034e-06
0.03635282068 	0.3600783367 	-0.007405880269 	2.748222135e-06
0.03735247653 	0.3601350881 	-0.007614223914 	2.648146602e-06
0.03837091657 	0.3602176232 	-0.007826591192 	2.53646319e-06
0.03940849371 	0.3603280441 	-0.008043136555 	2.412628009e-06
0.04046733527 	0.3604688447 	-0.008264274739 	2.275755933e-06
0.04155102344 	0.3606427563 	-0.008490237694 	2.124522645e-06
0.04265507529 	0.3608521961 	-0.008720741349 	1.959219834e-06
0.0437798734 	0.3610995113 	-0.008955593252 	1.779099665e-06
0.04492580757 	0.3613873099 	-0.009194848925 	1.583469517e-06
0.0460932749 	0.3617183121 	-0.009438562617 	1.371612361e-06
0.04728267995 	0.3620953497 	-0.009686787199 	1.142786556e-06
0.04849443489 	0.3625213648 	-0.009939573928 	8.962256037e-07
0.04972895962 	0.3629994089 	-0.01019697233 	6.311377297e-07
0.05098668193 	0.3635326402 	-0.01045903013 	3.467053739e-07
0.05226803766 	0.3641243213 	-0.01072579315 	4.208465576e-08
0.05244057823 	0.3642106749 	-0.01076165719 	2.225184897e-08
0.05357347081 	0.3647734933 	-0.01099760789 	2.968114471e-07
0.05490343374 	0.3654871981 	-0.01127428199 	6.606573277e-07
0.0562583873 	0.3662696494 	-0.0115558116 	1.048460484e-06
0.057638801 	0.3671244938 	-0.01184223595 	1.461218887e-06
0.05904515316 	0.3680556935 	-0.01213365492 	1.899972139e-06
0.06047923244 	0.3690686737 	-0.01243051865 	2.366289225e-06
0.06194729124 	0.3701689754 	-0.01273316987 	2.863177934e-06
0.06344293631 	0.3715206235 	-0.01308093324 	3.400854809e-06
0.06573896912 	0.3733413559 	-0.01351355489 	4.236764871e-06
0.06806060914 	0.3755276436 	-0.01398836918 	5.140393575e-06
0.07040814194 	0.3779251839 	-0.01446619369 	6.101490412e-06
0.0727818563 	0.3805345131 	-0.0149467855 	7.120766774e-06
0.07518204421 	0.3833561076 	-0.0154298745 	8.198846754e-06
0.07760900091 	0.3863904953 	-0.01591519744 	9.336301636e-06
0.08006302493 	0.3896422328 	-0.01640307331 	1.053409108e-05
0.08255609596 	0.3931174426 	-0.01689390378 	1.042697353e-05
0.08507824308 	0.3968142367 	-0.01738687026 	9.775578353e-06
0.08762852215 	0.4007292029 	-0.01788109621 	9.065200341e-06
0.09020724696 	0.4048627636 	-0.01837625889 	8.29520838e-06
0.09281473479 	0.4092158765 	-0.01887209068 	7.465073794e-06
0.09545130646 	0.4137896031 	-0.01936831938 	6.57432274e-06
0.09811728639 	0.4185861187 	-0.01986476749 	5.622568083e-06
0.1008152168 	0.4236129169 	-0.02036173343 	4.60852392e-06
0.1035538849 	0.4288765336 	-0.02085930414 	3.528273349e-06
0.1063231032 	0.4343729639 	-0.02135652537 	2.386683057e-06
0.1091232125 	0.4400990061 	-0.02185261068 	1.183558459e-06
0.1117768629 	0.445682372 	-0.02231616982 	2.724825057e-07
0.1119545574 	0.4460558518 	-0.02234733892 	8.484714573e-08
0.1148174862 	0.45223766 	-0.0228416212 	1.471850116e-06
0.1177123515 	0.4586549822 	-0.02333371567 	2.922876525e-06
0.1206406417 	0.4653136929 	-0.02382379825 	4.439271793e-06
0.1236130938 	0.4722176314 	-0.02431247587 	6.026018348e-06
0.1266187072 	0.4793603628 	-0.0247987443 	7.675873609e-06
0.1296578519 	0.4867392099 	-0.02528141435 	9.388711899e-06
0.132730902 	0.4943577908 	-0.02576005346 	1.116392387e-05
0.1358382358 	0.5022197153 	-0.02623415478 	1.300078474e-05
0.1389802357 	0.510332912 	-0.02670339309 	1.489865953e-05
0.142164066 	0.518709696 	-0.02716761499 	1.68605619e-05
0.1453889171 	0.5273535189 	-0.02762609439 	1.888350772e-05
0.1486497487 	0.536259961 	-0.02807769662 	1.849347267e-05
0.1519469623 	0.545428813 	-0.0285215364 	1.702657179e-05
0.1552809637 	0.5548631502 	-0.02895688282 	1.549751829e-05
0.1586521634 	0.5645698324 	-0.02938314706 	1.390735336e-05
0.1620666825 	0.5745606396 	-0.02979989114 	1.225405833e-05
0.1655254184 	0.5848388423 	-0.03020625573 	1.054015114e-05
0.1690227476 	0.5953975656 	-0.0306009966 	8.770920427e-06
0.1725591007 	0.6062336134 	-0.03098306721 	6.947994134e-06
0.176134913 	0.617347366 	-0.03135157111 	5.073249442e-06
0.1797506248 	0.6287454516 	-0.03170580863 	3.148752089e-06
0.1834159144 	0.6404367088 	-0.03204511062 	1.171968779e-06
0.1855771689 	0.6474153519 	-0.03223333948 	6.632810614e-06
0.1871241627 	0.6524099066 	-0.03236918004 	8.87289547e-07
0.1908737914 	0.6646515408 	-0.03267720982 	3.04162298e-06
0.1946652623 	0.6771587776 	-0.0329670195 	5.234772524e-06
0.1984990422 	0.6899286891 	-0.03323780525 	7.463612629e-06
0.2023809985 	0.7029615775 	-0.03348887166 	9.727822147e-06
0.2063115745 	0.7162462045 	-0.0337193526 	1.202143053e-05
0.2102860148 	0.7297591691 	-0.03392831291 	1.433697421e-05
0.2143048088 	0.7434791048 	-0.03411503807 	1.667048567e-05
0.2183684513 	0.7573897887 	-0.03427904178 	1.901797938e-05
0.2224824929 	0.7714765899 	-0.03441999699 	2.137792703e-05
0.2266474495 	0.7857122121 	-0.03453760938 	2.374330072e-05
0.2308588887 	0.8000565462 	-0.0346317171 	2.610627239e-05
0.2351173289 	0.8144708118 	-0.03470244107 	2.444835037e-05
0.2394232945 	0.8289225974 	-0.03475017219 	2.229958176e-05
0.2437845959 	0.8433794341 	-0.03477552116 	2.012987012e-05
0.2481966718 	0.8577927592 	-0.03477929049 	1.794895558e-05
0.2526579903 	0.8721105808 	-0.03476256096 	1.57620953e-05
0.2571691007 	0.8862893684 	-0.03472661996 	1.35732169e-05
0.2617331245 	0.9002939514 	-0.03467289574 	1.138498411e-05
0.2663542099 	0.9140890067 	-0.03460293258 	9.202491189e-06
0.2710268726 	0.9276342615 	-0.03451836687 	7.033761211e-06
0.275751688 	0.9409001574 	-0.03442079853 	4.882229281e-06
0.28052953 	0.9538740747 	-0.03431164213 	2.750946103e-06
0.2853683996 	0.9665519069 	-0.03419213862 	6.418886074e-07
0.2868768159 	0.9703657885 	-0.0341524818 	1.02677843e-05
0.2902612788 	0.9789231402 	-0.03406484349 	1.49869569e-06
0.2952087702 	0.9909894651 	-0.03392978979 	3.631327261e-06
0.3002114828 	1.002765998 	-0.03378685537 	5.725628884e-06
0.3052771643 	1.01427164 	-0.03363633787 	7.780370667e-06
0.3103995605 	1.025517172 	-0.03347845652 	9.787997369e-06
0.3155791317 	1.0365159 	-0.03331326505 	1.174715437e-05
0.320817158 	1.047287017 	-0.03314058485 	1.365711713e-05
0.3261196354 	1.057848035 	-0.03296017455 	1.55161399e-05
0.3314812991 	1.068206686 	-0.03277186067 	1.731916368e-05
0.336902809 	1.078370749 	-0.03257540333 	1.906600097e-05
0.3423871157 	1.088349648 	-0.03237046965 	2.075704471e-05
0.3479363295 	1.098147731 	-0.03215679866 	2.238883421e-05
0.3535474839 	1.107762822 	-0.03193422766 	2.395932289e-05
0.3592212696 	1.117193522 	-0.03170253518 	2.546892919e-05
0.3649627704 	1.12643832 	-0.03146149084 	2.37066875e-05
0.370769322 	1.135488875 	-0.03121101903 	2.185685887e-05
0.3766406864 	1.144335341 	-0.03095106388 	2.005850918e-05
0.3825794668 	1.152968919 	-0.03068152485 	1.831075284e-05
0.3885874109 	1.161377982 	-0.0304024072 	1.661680615e-05
0.3946624157 	1.16954732 	-0.03011383721 	1.497752499e-05
0.4008056513 	1.177463134 	-0.02981600276 	1.339103001e-05
0.4070212331 	1.185112311 	-0.02950931472 	1.185995503e-05
0.4133061932 	1.192478014 	-0.02919387909 	1.038758353e-05
0.4196613049 	1.199539424 	-0.02886966211 	8.971498863e-06
0.4260907495 	1.20627091 	-0.02853654163 	7.613471728e-06
0.4325922399 	1.212644675 	-0.02819383247 	6.314935881e-06
0.4391662983 	1.218635227 	-0.02784128343 	5.072405326e-06
0.4458164752 	1.224218303 	-0.02747906721 	3.886303004e-06
0.4525413396 	1.229369559 	-0.02710730571 	2.758879665e-06
0.4593412644 	1.234068368 	-0.02672618681 	1.688273842e-06
0.4662195511 	1.238299544 	-0.02633598921 	6.74328209e-07
0.471104341 	1.240935383 	-0.02605596911 	1.042238624e-05
0.4731749089 	1.242052927 	-0.02593739365 	2.910465986e-07
0.4802079543 	1.245325717 	-0.02553114394 	1.221432542e-06
0.4873218078 	1.248122147 	-0.02511719789 	2.093316664e-06
0.4945150618 	1.250447132 	-0.02469715643 	2.906516481e-06
0.5017088021 	1.252305276 	-0.02427530637 	3.655840266e-06
0.5088246559 	1.253720085 	-0.02385592429 	4.335250349e-06
0.5158619961 	1.254734133 	-0.02344053436 	4.950025232e-06
0.5228223256 	1.255391474 	-0.02302952277 	5.506285095e-06
0.5297067628 	1.255731933 	-0.02262318882 	6.006671882e-06
0.5365152377 	1.255790886 	-0.02222175014 	6.456060887e-06
0.5432491873 	1.255599347 	-0.021825335 	6.859341739e-06
0.5499094439 	1.255184172 	-0.02143401907 	7.218534561e-06
0.55649621 	1.254568435 	-0.0210478212 	7.537785674e-06
0.5630107473 	1.253771761 	-0.02066670823 	7.821048719e-06
0.5694538871 	1.252810722 	-0.02029061978 	8.069833622e-06
0.5758259306 	1.251699247 	-0.01991946244 	8.287433873e-06
0.5821279228 	1.250448865 	-0.01955311437 	8.47712998e-06
0.5883608325 	1.249069038 	-0.01919144006 	8.64006736e-06
0.5945249646 	1.247567508 	-0.01883429121 	8.778659588e-06
0.6006211498 	1.245950432 	-0.01848150349 	8.895637373e-06
0.606650536 	1.244222607 	-0.01813290735 	8.992086198e-06
0.6126133893 	1.242387799 	-0.0177883384 	9.069482909e-06
0.6185104433 	1.240448801 	-0.01744762174 	9.130010235e-06
0.6243427419 	1.238407564 	-0.01711058704 	9.175060401e-06
0.6301107689 	1.236265466 	-0.01677707666 	9.205175567e-06
0.6358151458 	1.234023379 	-0.01644693291 	9.222034536e-06
0.6414566659 	1.231681723 	-0.0161200068 	9.227131003e-06
0.647036138 	1.229240743 	-0.01579616142 	9.220749682e-06
0.65255404 	1.226700895 	-0.01547528518 	9.203840857e-06
0.6580110512 	1.224062885 	-0.01515729097 	9.177627162e-06
0.6634079914 	1.221327505 	-0.01484211483 	9.14291058e-06
0.6687454422 	1.218495646 	-0.01452971443 	9.099778803e-06
0.6740239929 	1.215568307 	-0.01422006452 	9.0491277e-06
0.6792442933 	1.212546559 	-0.01391316145 	8.991824949e-06
0.6844071263 	1.209431579 	-0.01360902686 	8.928198826e-06
0.6895129981 	1.206224744 	-0.01330770621 	8.858362466e-06
0.6945625248 	1.202927601 	-0.01300926396 	8.782974928e-06
0.6995563279 	1.199541847 	-0.01271378963 	8.702609382e-06
0.7044951269 	1.196069379 	-0.01242140254 	8.617333732e-06
0.7093794255 	1.192512375 	-0.01213224974 	8.527174614e-06
0.7142098238 	1.188873282 	-0.01184648367 	8.432708226e-06
0.7189869164 	1.185154851 	-0.01156427928 	8.33444472e-06
0.7237113541 	1.181360049 	-0.01128602864 	8.232082696e-06
0.7283836644 	1.177486489 	-0.01101174008 	8.127307207e-06
0.7330044134 	1.173508772 	-0.01074068355 	8.023052204e-06
0.7375741699 	1.169380689 	-0.01047163292 	7.919343333e-06
0.7420935234 	1.165068185 	-0.01020387455 	7.815168395e-06
0.7465630238 	1.160563549 	-0.009937636649 	7.709564193e-06
0.7509832008 	1.155877033 	-0.009673216128 	7.602355848e-06
0.7553545986 	1.151029106 	-0.009410863988 	7.493901666e-06
0.7596777566 	1.146043454 	-0.009150779951 	7.384617743e-06
0.7639532349 	1.140941577 	-0.008893082466 	7.274525416e-06
0.7681815307 	1.135739963 	-0.00863782437 	7.163598514e-06
0.7723631646 	1.130449704 	-0.008385037114 	7.052025791e-06
0.7764986516 	1.125077578 	-0.008134759016 	6.940037093e-06
0.7805885059 	1.119627541 	-0.007887042526 	6.827860068e-06
0.7846332395 	1.114102079 	-0.007641945589 	6.715496879e-06
0.7886333369 	1.108503121 	-0.007399520687 	6.603061797e-06
0.7925892905 	1.102832511 	-0.007159810898 	6.490721343e-06
0.7965015875 	1.097092146 	-0.006922846495 	6.378618531e-06
0.8003707124 	1.091283945 	-0.006688647735 	6.266874399e-06
0.8041971471 	1.085409756 	-0.00645722549 	6.155450256e-06
0.8079813545 	1.079471272 	-0.006228581788 	6.044397212e-06
0.8117238006 	1.073469957 	-0.006002713557 	5.933823244e-06
0.8154249461 	1.067407 	-0.00577961264 	5.823824908e-06
0.819085247 	1.061283306 	-0.005559266636 	5.714487527e-06
0.8227051594 	1.055099493 	-0.005341659629 	5.605816996e-06
0.8262851241 	1.048855897 	-0.005126770156 	5.497788226e-06
0.8298255813 	1.042552578 	-0.004914572204 	5.3904638e-06
0.8333269671 	1.036189313 	-0.00470503647 	5.283897266e-06
0.8367897125 	1.029765594 	-0.004498129398 	5.178132322e-06
0.8402142449 	1.023280618 	-0.004293815291 	5.0732004e-06
0.8436009875 	1.016733288 	-0.004092055734 	4.969049974e-06
0.8469503549 	1.010122211 	-0.00389280915 	4.865672755e-06
0.8502627596 	1.003445692 	-0.003696033102 	4.763085629e-06
0.8535386095 	0.9967017269 	-0.003501684511 	4.66129745e-06
0.856778308 	0.989888004 	-0.003309719801 	4.560308828e-06
0.8599822544 	0.9830018998 	-0.003120096953 	4.460111091e-06
0.8631508441 	0.9760404838 	-0.002932775622 	4.360638824e-06
0.8662844661 	0.9690005294 	-0.002747717331 	4.261848951e-06
0.8693835062 	0.9618785272 	-0.002564887995 	4.16371566e-06
0.8724483462 	0.9546707022 	-0.00238425903 	4.066205823e-06
0.8754793633 	0.9473730391 	-0.002205808254 	3.969279437e-06
0.878476931 	0.9399813091 	-0.002029521552 	3.87289067e-06
0.8814414187 	0.9324910983 	-0.001855394691 	3.776976081e-06
0.8843731913 	0.924897833 	-0.001683433192 	3.681448612e-06
0.8872726095 	0.9171968006 	-0.001513653447 	3.586251106e-06
0.8901400306 	0.9093831602 	-0.001346084465 	3.491324296e-06
0.8929758075 	0.9014519489 	-0.001180768156 	3.396603676e-06
0.8957802895 	0.893398094 	-0.001017760625 	3.302018082e-06
0.8985538219 	0.8852164433 	-0.0008571344892 	3.207488521e-06
0.9012967465 	0.8769018375 	-0.0006989823253 	3.112919729e-06
0.9040094009 	0.8684492542 	-0.0005434200483 	3.0181983e-06
0.9066921191 	0.8598540566 	-0.0003905926838 	2.923226015e-06
0.9093452315 	0.8511123813 	-0.0002406817801 	2.827906344e-06
0.9119690649 	0.8422216985 	-9.391254037e-05 	2.732150635e-06
0.9145639422 	0.8331815653 	4.943803479e-05 	2.635887254e-06
0.9171301831 	0.823994557 	0.0001890331558 	2.539071774e-06
0.9196681037 	0.8146672991 	0.0003244686697 	2.44169724e-06
0.9221780164 	0.8052114049 	0.0004552684328 	2.343794175e-06
0.9246602303 	0.7956439352 	0.000580885264 	2.245454036e-06
0.9271150512 	0.7859867202 	0.0007007131837 	2.146840108e-06
0.9295427812 	0.7762635376 	0.000814104647 	2.048176226e-06
0.9319437194 	0.7673132786 	0.0009117768942 	1.957898032e-06
0.933507694 	0.7600523559 	0.0009859843716 	1.88515175e-06
0.935042816 	0.7536586679 	0.001047514901 	1.821614199e-06
0.9365496177 	0.7473163158 	0.001104978574 	1.759036665e-06
0.9380286214 	0.7410266421 	0.001158429417 	1.697427838e-06
0.9394803401 	0.73479194 	0.001207933266 	1.63680779e-06
0.9409052772 	0.728614733 	0.001253563092 	1.577189197e-06
0.9423039265 	0.7224973842 	0.001295390315 	1.518587546e-06
0.9436767733 	0.7164419088 	0.001333483374 	1.461021737e-06
0.9450242933 	0.7104499027 	0.00136790868 	1.404511345e-06
0.946346954 	0.7045225307 	0.001398731778 	1.349075094e-06
0.9476452138 	0.6986605402 	0.001426018466 	1.294730016e-06
0.948919523 	0.6928642805 	0.001449835859 	1.241491054e-06
0.9501703234 	0.6871337178 	0.00147025329 	1.189371023e-06
0.9513980487 	0.6814684428 	0.001487343025 	1.138380836e-06
0.9526031246 	0.6758676711 	0.001501180779 	1.088529911e-06
0.9537859689 	0.6703302369 	0.001511846088 	1.039826642e-06
0.9549469918 	0.6648545824 	0.001519422535 	9.922788807e-07
0.9560865958 	0.6594387462 	0.001523997873 	9.458943463e-07
0.9572051761 	0.6540803508 	0.001525664059 	9.006809378e-07
0.9583031205 	0.6487765923 	0.001524517195 	8.566469128e-07
0.9593808097 	0.6435242324 	0.00152065737 	8.138009308e-07
0.9604386175 	0.6383195951 	0.001514188465 	7.721516759e-07
0.9614769105 	0.6331585666 	0.001505217875 	7.317081136e-07
0.9624960488 	0.6280366009 	0.001493856101 	6.92479084e-07
0.9634963857 	0.622948729 	0.00148021631 	6.544727448e-07
0.9644782682 	0.6178895721 	0.001464413838 	6.176961072e-07
0.9654420366 	0.6128533588 	0.001446565629 	5.821545707e-07
0.9663880252 	0.6078339445 	0.001426789638 	5.478514828e-07
0.9673165619 	0.6028248319 	0.001405204223 	5.147877566e-07
0.9682279687 	0.5978191928 	0.001381927544 	4.82961568e-07
0.9691225617 	0.5928098891 	0.001357076973 	4.523681523e-07
0.9700006509 	0.5877894918 	0.001330768559 	4.229997063e-07
0.9708625409 	0.5827502976 	0.001303116534 	3.948453972e-07
0.9717085305 	0.5776843428 	0.001274232894 	3.678914709e-07
0.9725389131 	0.5725834116 	0.001244227053 	3.421214476e-07
0.9733539766 	0.5674390409 	0.001213205566 	3.175163867e-07
0.9741540035 	0.5622425191 	0.001181271941 	2.940552043e-07
0.9749392713 	0.5569848792 	0.001148526517 	2.717150214e-07
0.9757100523 	0.551656886 	0.001115066418 	2.504715257e-07
0.9764666137 	0.5462490173 	0.001080985561 	2.302993286e-07
0.9772092179 	0.5407514387 	0.001046374728 	2.111723039e-07
0.9779381223 	0.5351539717 	0.001011321673 	1.930638963e-07
0.9786535797 	0.5294460566 	0.0009759112767 	1.759473917e-07
0.9793558381 	0.5236167091 	0.000940225713 	1.597961463e-07
0.9800451411 	0.517654471 	0.0009043446569 	1.445837543e-07
0.9807217276 	0.5115473574 	0.0008683454977 	1.302842063e-07
0.9813858323 	0.5052827989 	0.0008323035464 	1.168719776e-07
0.9820376853 	0.4988475826 	0.0007962922624 	1.043220747e-07
0.9826775129 	0.4922277911 	0.0007603834742 	9.261005109e-08
0.9833055367 	0.4854087446 	0.000724647594 	8.171199481e-08
0.9839219745 	0.4783749467 	0.000689153823 	7.160448873e-08
0.9845270401 	0.4711100398 	0.0006539703472 	6.226455e-08
0.9851209434 	0.463596772 	0.0006191645324 	5.366955196e-08
0.9857038901 	0.4558169802 	0.0005848031302 	4.579713055e-08
0.9862760825 	0.4477515811 	0.0005509523441 	3.862507486e-08
0.9868377189 	0.4393805382 	0.000517677302 	3.213121655e-08
0.9873889941 	0.4306826684 	0.0004850418314 	2.6293382e-08
0.9879300992 	0.4216348184 	0.000453114745 	2.108937544e-08
0.9884612219 	0.4122087339 	0.0004219762951 	1.64961854e-08
0.9889825462 	0.4032181277 	0.0003942184603 	1.280239449e-08
0.9893180687 	0.3956025239 	0.0003721913696 	1.014988862e-08
0.9896535912 	0.3885407754 	0.0003530100503 	8.03683927e-09
0.9899891138 	0.3810954152 	0.0003340109683 	6.118089027e-09
0.9903246363 	0.373246281 	0.0003152111088 	4.387468327e-09
0.9906601588 	0.3649756926 	0.0002966291651 	2.839343126e-09
0.9909956813 	0.3562655326 	0.0002782872272 	1.467530635e-09
0.9913312038 	0.3470965549 	0.0002602108081 	2.65155644e-10
0.9916667263 	0.3374484247 	0.0002424326021 	-7.773183558e-10
0.9920022488 	0.3273000413 	0.0002249895175 	-1.666779544e-09
0.9923377713 	0.3166299906 	0.0002078639122 	-2.372682549e-09
0.9926732938 	0.305416791 	0.0001909010669 	-2.824580598e-09
0.9930088164 	0.2936365998 	0.0001745785641 	-3.470815742e-09
0.9933443389 	0.2812369923 	0.0001592284761 	-4.095438457e-09
0.9936798614 	0.26813252 	0.0001440256049 	-3.985541244e-09
0.9940153839 	0.2542643204 	0.0001289477974 	-3.926255298e-09
0.9943509064 	0.2396263049 	0.0001145256842 	-4.111228402e-09
0.9946864289 	0.2242484056 	0.0001006771597 	-4.039899043e-09
0.9950219514 	0.2081950242 	8.734210732e-05 	-3.854908735e-09
0.9953574739 	0.1915640888 	7.458944648e-05 	-3.605751557e-09
0.9956929965 	0.1744787649 	6.255116009e-05 	-3.303411801e-09
0.996028519 	0.1570729064 	5.137770553e-05 	-2.954076745e-09
0.9963640415 	0.1394745105 	4.118508245e-05 	-2.563401846e-09
0.996699564 	0.1217923999 	3.202940093e-05 	-2.140509656e-09
0.9970350865 	0.1041094511 	2.392982643e-05 	-1.70206432e-09
0.997370609 	0.08648249891 	1.690810672e-05 	-1.270521496e-09
0.9977061315 	0.06894677247 	1.100841544e-05 	-8.694639154e-10
0.998041654 	0.05152215601 	6.298252741e-06 	-5.214131659e-10
0.9983771766 	0.03421920204 	2.870586673e-06 	-2.492665441e-10
0.9987126991 	0.01704377905 	7.945354214e-07 	-7.282789805e-11
0.9990482216 	0.007162628752 	8.290602049e-08 	-8.870330343e-12
0.9990482216 	0.007162628752 	8.290602049e-08 	-8.870330343e-12
