0.4709558481 	2.795999975e-08 	-3.716693008e-11 	2.345839981e-16 	2.790680134e-08 	-9.027458457e-14 	5.319811965e-11
0.4709558481 	2.795999975e-08 	-3.716693008e-11 	2.345839981e-16 	2.790680134e-08 	-9.027458457e-14 	5.319811965e-11
0.4711314108 	3.138727665e-07 	-1.630409834e-09 	1.029297129e-14 	3.132755404e-07 	-1.015271372e-12 	5.971902505e-10
0.4713069734 	1.749447779e-06 	-2.127719836e-08 	1.343568541e-13 	1.746118423e-06 	-5.668673508e-12 	3.328587023e-09
0.471482536 	5.825555765e-06 	-1.32861875e-07 	8.38962519e-13 	5.814465098e-06 	-1.890926888e-11 	1.108398652e-08
0.4716580986 	1.440117905e-05 	-5.406619099e-07 	3.411698251e-12 	1.437374375e-05 	-4.682094506e-11 	2.740035056e-08
0.4718336613 	2.951986749e-05 	-1.666685538e-06 	1.049609654e-11 	2.946356946e-05 	-9.608931842e-11 	5.616575237e-08
0.4720092239 	5.33248903e-05 	-4.235875524e-06 	2.656534294e-11 	5.322303271e-05 	-1.736289365e-10 	1.014578929e-07
0.4721847865 	8.798370548e-05 	-9.341936139e-06 	5.816500449e-11 	8.78152828e-05 	-2.861387154e-10 	1.67400336e-07
0.4723603491 	0.0001355961036 	-1.847166898e-05 	1.13709143e-10 	0.000135335819 	-4.39481661e-10 	2.579876856e-07
0.4725359118 	0.0001980758722 	-3.346269532e-05 	2.026223282e-10 	0.0001976943631 	-6.37867983e-10 	3.768604023e-07
0.4727114744 	0.0002770054996 	-5.637397669e-05 	3.337460861e-10 	0.0002764698345 	-8.829088859e-10 	5.270283455e-07
0.472887037 	0.0003734743597 	-8.926477058e-05 	5.131952534e-10 	0.0003727488396 	-1.172713968e-09 	7.105628885e-07
0.4730625996 	0.0004879228341 	-0.000133905299 	7.421887626e-10 	0.0004869700789 	-1.501295431e-09 	9.283003167e-07
0.4732381623 	0.0006200241579 	-0.0001914736037 	1.015612548e-09 	0.0006188064025 	-1.858557268e-09 	1.179616992e-06
0.4734137249 	0.0007686370163 	-0.0002623130613 	1.321992089e-09 	0.0007671174838 	-2.231042712e-09 	1.462339133e-06
0.4735892875 	0.0009318512262 	-0.0003458193672 	1.645089349e-09 	0.0009299957035 	-2.60341234e-09 	1.77283029e-06
0.4737648501 	0.001107127433 	-0.0004404911255 	1.966689872e-09 	0.001104907666 	-2.960350197e-09 	2.106261105e-06
0.4739404128 	0.001291509248 	-0.0005441282264 	2.26973623e-09 	0.001288906924 	-3.287458976e-09 	2.457014831e-06
0.4741159754 	0.001481877112 	-0.0006541936639 	2.563779194e-09 	0.001478860758 	-3.573887627e-09 	2.819119632e-06
0.474291538 	0.001675203051 	-0.0007668721375 	2.276668907e-09 	0.001671735385 	-3.824234311e-09 	3.186792278e-06
0.4744671006 	0.001868997863 	-0.0008681809094 	1.899307241e-09 	0.001865108538 	-4.067592992e-09 	3.555415253e-06
0.4746426632 	0.002061871567 	-0.0009577738856 	2.015255981e-09 	0.002057593459 	-4.313098083e-09 	3.922345012e-06
0.4748182259 	0.002252907212 	-0.001046506288 	2.127405245e-09 	0.002248203703 	-4.550562348e-09 	4.285701113e-06
0.4749937885 	0.002441046284 	-0.001133888907 	2.235715667e-09 	0.002435899287 	-4.780397072e-09 	4.643501064e-06
0.4751693511 	0.002625379968 	-0.001219504208 	2.340632116e-09 	0.002619803265 	-5.002332297e-09 	4.99407316e-06
0.4753449137 	0.00280517659 	-0.001303010688 	2.442744286e-09 	0.002799175186 	-5.217791281e-09 	5.336005896e-06
0.4755204764 	0.002979858051 	-0.001384139126 	2.542713878e-09 	0.002973433905 	-5.428300855e-09 	5.668191446e-06
0.475696039 	0.003148988528 	-0.001462687099 	2.64122614e-09 	0.003142144821 	-5.635325553e-09 	5.989801343e-06
0.4758716016 	0.003312262819 	-0.00153851306 	2.738944535e-09 	0.003305004893 	-5.840263312e-09 	6.300257904e-06
0.4760471642 	0.003469499275 	-0.001611532427 	2.836415242e-09 	0.003461831371 	-6.044229519e-09 	6.59921276e-06
0.4762227269 	0.003641173891 	-0.001691252945 	2.946000807e-09 	0.00363303956 	-6.272903256e-09 	6.925583152e-06
0.4764955107 	0.00384484489 	-0.001785827684 	3.068702181e-09 	0.003836135925 	-6.52725306e-09 	7.312741273e-06
0.4767734216 	0.004057781926 	-0.001884702916 	3.180357899e-09 	0.00404845032 	-6.755261132e-09 	7.717471519e-06
0.4770565557 	0.004260015505 	-0.001978610813 	3.269231879e-09 	0.00425006228 	-6.930831825e-09 	8.10179995e-06
0.4773450114 	0.004451148929 	-0.002067380979 	3.338322813e-09 	0.004440570606 	-7.056939684e-09 	8.464961768e-06
0.4776388886 	0.004630967147 	-0.002150943353 	3.391762981e-09 	0.004619760298 	-7.135774844e-09 	8.806547123e-06
0.4779382892 	0.004799412756 	-0.002229325047 	3.435391156e-09 	0.004787573431 	-7.16838401e-09 	9.126445597e-06
0.4782433171 	0.004956554247 	-0.002302645196 	3.477445989e-09 	0.004944076868 	-7.154575716e-09 	9.424784645e-06
0.4785540779 	0.005102557819 	-0.002371110945 	3.529185223e-09 	0.005089434833 	-7.092992977e-09 	9.701877326e-06
0.4788706795 	0.00523766619 	-0.002435014406 	3.605391594e-09 	0.005223888203 	-6.98146551e-09 	9.95818282e-06
0.4791932316 	0.005362187452 	-0.002494262267 	3.663934348e-09 	0.005347744367 	-6.817913344e-09 	1.019428709e-05
0.4795218461 	0.005476500731 	-0.0025475976 	3.606168e-09 	0.005461383793 	-6.60242326e-09 	1.041091542e-05
0.4798566368 	0.005581061074 	-0.002595336821 	3.457300286e-09 	0.005565258937 	-6.337446503e-09 	1.060893032e-05
0.48019772 	0.005676323744 	-0.002638876249 	3.289899803e-09 	0.005659819486 	-6.023173529e-09 	1.078918901e-05
0.4805452138 	0.005762701715 	-0.002678382557 	3.101916443e-09 	0.005745475243 	-5.656044071e-09 	1.095247269e-05
0.4808992388 	0.005840599381 	-0.002714023778 	2.890659453e-09 	0.005822627925 	-5.231011848e-09 	1.109954714e-05
0.4812599177 	0.005910415229 	-0.002745969195 	2.652964938e-09 	0.005891673513 	-4.741932407e-09 	1.123116722e-05
0.4816273755 	0.005972538675 	-0.002774386959 	2.385173159e-09 	0.005952998993 	-4.181521891e-09 	1.134807063e-05
0.4820017397 	0.00602734622 	-0.002799441642 	2.083060814e-09 	0.006006978504 	-3.541219396e-09 	1.145097058e-05
0.48238314 	0.00607519797 	-0.002821292132 	1.741769577e-09 	0.006053969875 	-2.81103654e-09 	1.15405492e-05
0.4827717088 	0.006116434757 	-0.002840089931 	1.355757031e-09 	0.006094311777 	-1.979451153e-09 	1.161745207e-05
0.4831675807 	0.006151375999 	-0.002855977887 	9.187945085e-10 	0.006128321627 	-1.033401838e-09 	1.16822843e-05
0.4835708931 	0.006180318489 	-0.00286908941 	4.24030515e-10 	0.006156294414 	4.157274465e-11 	1.173560821e-05
0.4839817856 	0.006203536258 	-0.002879548241 	-1.358737045e-10 	0.006178502603 	1.261034244e-09 	1.177794319e-05
0.4844004009 	0.006221281641 	-0.002887468799 	-7.68544243e-10 	0.006195197239 	2.641202925e-09 	1.18097678e-05
0.4848268841 	0.006233787566 	-0.00289295713 	-1.48164941e-09 	0.006206610271 	4.198418757e-09 	1.183152421e-05
0.485261383 	0.006241271001 	-0.00289611242 	-2.282633792e-09 	0.00621295804 	5.948562561e-09 	1.184362483e-05
0.4857040484 	0.006243937472 	-0.002897029031 	-3.178455449e-09 	0.006214445808 	7.906501676e-09 	1.184646093e-05
0.4861550336 	0.006241986482 	-0.002895798983 	-4.17534805e-09 	0.006211273139 	1.008561044e-08 	1.184041294e-05
0.4866144951 	0.006235607368 	-0.002892509048 	-5.280360035e-09 	0.006203629842 	1.250052118e-08 	1.182584269e-05
0.4870825921 	0.006224961396 	-0.002887232026 	-6.502770091e-09 	0.006191678313 	1.516975383e-08 	1.180305975e-05
0.487559487 	0.006210181936 	-0.002880028643 	-7.85176798e-09 	0.006175553732 	1.811176297e-08 	1.177232182e-05
0.4880453452 	0.006191382729 	-0.002870951823 	-9.335065402e-09 	0.00615537224 	2.134247569e-08 	1.173385029e-05
0.4885403351 	0.006168654078 	-0.00286004402 	-1.095992179e-08 	0.006131227268 	2.48770117e-08 	1.168782326e-05
0.4890446283 	0.006142062005 	-0.002847336726 	-1.273341296e-08 	0.006103188784 	2.873012754e-08 	1.163437412e-05
0.4895583997 	0.006111648749 	-0.0028328507 	-1.46622957e-08 	0.006071303811 	3.291593842e-08 	1.157359249e-05
0.4900818274 	0.006077433474 	-0.002816596293 	-1.675284665e-08 	0.006035597153 	3.744758384e-08 	1.150552568e-05
0.4906150929 	0.006039413194 	-0.002798573885 	-1.90106792e-08 	0.005996072327 	4.233684686e-08 	1.143018038e-05
0.4911583811 	0.005997563936 	-0.002778774417 	-2.144054141e-08 	0.005952712705 	4.759373371e-08 	1.134752489e-05
0.4917118805 	0.005951842137 	-0.002757180046 	-2.404609802e-08 	0.005905482888 	5.322601813e-08 	1.125749173e-05
0.4922757829 	0.005902186306 	-0.002733764907 	-2.682969998e-08 	0.005854330308 	5.923875542e-08 	1.115998069e-05
0.4928502838 	0.005848518928 	-0.002708495993 	-2.979214506e-08 	0.005799187083 	6.563377118e-08 	1.105486238e-05
0.4934355824 	0.005790748623 	-0.002681334156 	-3.293243336e-08 	0.005739972113 	7.240912979e-08 	1.094198219e-05
0.4940318817 	0.005728772548 	-0.002652235207 	-3.624752154e-08 	0.005676593398 	7.955858725e-08 	1.082116474e-05
0.4946393885 	0.005662478993 	-0.00262115111 	-3.973208009e-08 	0.005608950583 	8.707103342e-08 	1.069221874e-05
0.4952583133 	0.005591750144 	-0.00258803125 	-4.337825828e-08 	0.005536937652 	9.49299299e-08 	1.055494208e-05
0.4958888709 	0.00551646493 	-0.002552823732 	-4.717546267e-08 	0.005460445732 	1.031127536e-07 	1.040912722e-05
0.4965312797 	0.005436501834 	-0.002515476651 	-5.111015679e-08 	0.005379365882 	1.115904635e-07 	1.025456649e-05
0.4971857627 	0.005351741522 	-0.002475939271 	-5.516569215e-08 	0.005293591735 	1.203270195e-07 	1.009105713e-05
0.4978525466 	0.005262069044 	-0.00243416298 	-5.93221824e-08 	0.005203021745 	1.292789944e-07 	9.918405551e-06
0.4985318627 	0.005167375292 	-0.002390101874 	-6.355643126e-08 	0.00510756075 	1.38395327e-07 	9.736430362e-06
0.4992239466 	0.005067557244 	-0.00234371274 	-6.784191538e-08 	0.005007120404 	1.476172461e-07 	9.544963147e-06
0.4999290382 	0.004962516429 	-0.002294954145 	-7.214879892e-08 	0.004901617902 	1.568783207e-07 	9.343846055e-06
0.5006473819 	0.004852154896 	-0.002243784286 	-7.644390916e-08 	0.004790972303 	1.661044378e-07 	9.132924792e-06
0.501379227 	0.004736368128 	-0.002190157249 	-8.069052098e-08 	0.004675097758 	1.75213295e-07 	8.912035703e-06
0.502124827 	0.004615035134 	-0.00213401765 	-8.48476666e-08 	0.00455389339 	1.841127048e-07 	8.68098649e-06
0.5028844406 	0.004488008559 	-0.002075294653 	-8.886846103e-08 	0.004427231497 	1.926958469e-07 	8.439533718e-06
0.5036583311 	0.004355114491 	-0.002013899506 	-9.269650545e-08 	0.004294952423 	2.008278744e-07 	8.187373039e-06
0.5044467669 	0.004216192711 	-0.001949738809 	-9.625859117e-08 	0.004156885135 	2.083302206e-07 	7.924178414e-06
0.5052500214 	0.00407192054 	-0.001883109872 	-9.904232228e-08 	0.004013625708 	2.141610887e-07 	7.651086129e-06
0.506068373 	0.003905129357 	-0.001806068387 	-1.007319471e-07 	0.003847986458 	2.176981644e-07 	7.335331682e-06
0.507324668 	0.003699758292 	-0.001711188026 	-1.016571356e-07 	0.003644019148 	2.195158281e-07 	6.946513299e-06
0.5085949819 	0.003478797439 	-0.001609065587 	-1.016551255e-07 	0.003424691735 	2.191465315e-07 	6.528414291e-06
0.5098794711 	0.003264305792 	-0.001509836574 	-1.002894664e-07 	0.003211972756 	2.15661285e-07 	6.122912794e-06
0.5111782938 	0.003059395525 	-0.001414896144 	-9.738617674e-08 	0.003008938836 	2.08746524e-07 	5.735873712e-06
0.5124916099 	0.002867203235 	-0.00132568843 	-9.290670183e-08 	0.002818687133 	1.984652045e-07 	5.37320109e-06
0.5138195812 	0.002690467857 	-0.001243506353 	-8.705786096e-08 	0.002643848887 	1.855543348e-07 	5.039910799e-06
0.5151623712 	0.002530684203 	-0.001169102683 	-8.038814093e-08 	0.00248584181 	1.71143593e-07 	4.738705394e-06
0.5165201452 	0.002386535891 	-0.001090113421 	-8.96578384e-08 	0.002343911372 	1.570545716e-07 	4.468146532e-06
0.5178930705 	0.002255465276 	-0.001005435106 	-9.517572841e-08 	0.002215451601 	1.449775887e-07 	4.223266504e-06
0.5192813161 	0.00213638723 	-0.0009270128903 	-8.635302199e-08 	0.002098756083 	1.335930624e-07 	4.000812413e-06
0.520685053 	0.002029185353 	-0.0008539034724 	-8.307135163e-08 	0.001993891944 	1.212281753e-07 	3.800912218e-06
0.522104454 	0.001933876499 	-0.0007846969775 	-7.959942356e-08 	0.001901044681 	1.082777212e-07 	3.62391953e-06
0.523539694 	0.001850331774 	-0.0007194452983 	-7.585532779e-08 	0.001820001231 	9.517803588e-08 	3.469428189e-06
0.5249909497 	0.001778165579 	-0.0006581259095 	-7.193972349e-08 	0.001750338124 	8.222246081e-08 	3.336630946e-06
0.5264583998 	0.001716751434 	-0.0006006225793 	-6.797553057e-08 	0.001691427 	6.975810576e-08 	3.224329969e-06
0.527942225 	0.001665268909 	-0.0005467586305 	-6.405914198e-08 	0.001642444358 	5.808225077e-08 	3.13095544e-06
0.5294426081 	0.001622754041 	-0.0004963426486 	-6.021991706e-08 	0.001602428555 	4.740249841e-08 	3.054674198e-06
0.5309597337 	0.001588171254 	-0.0004492134068 	-5.64523015e-08 	0.001570361674 	3.779652931e-08 	2.99354581e-06
0.5324937889 	0.001560509743 	-0.0004053714206 	-5.224654374e-08 	0.001545255211 	2.924730012e-08 	2.945685914e-06
0.5340449624 	0.001538925782 	-0.000365055075 	-4.78679668e-08 	0.001526264274 	2.145943258e-08 	2.909483909e-06
0.5356134452 	0.001522817326 	-0.0003277170006 	-4.492789757e-08 	0.00151278301 	1.42520033e-08 	2.883784873e-06
0.5371994306 	0.001511544851 	-0.0002921660727 	-4.31098524e-08 	0.001504163501 	8.014824354e-09 	2.867353694e-06
0.5388031139 	0.001504258323 	-0.0002580809446 	-4.120913665e-08 	0.001499517153 	2.967318695e-09 	2.858496462e-06
0.5404246925 	0.001500136291 	-0.0002255389017 	-3.935731267e-08 	0.001497999798 	-1.100689469e-09 	2.855603962e-06
0.5420643661 	0.00149852601 	-0.000194370782 	-3.772931467e-08 	0.001498965738 	-4.41071858e-09 	2.857445312e-06
0.5437223366 	0.00149891936 	-0.0001644030032 	-3.629709264e-08 	0.001501912254 	-7.114060985e-09 	2.863062192e-06
0.5453988083 	0.00150091942 	-0.0001354884579 	-3.502975221e-08 	0.001506442254 	-9.331561496e-09 	2.87169763e-06
0.5470939875 	0.001504212701 	-0.0001075034973 	-3.390184966e-08 	0.00151224217 	-1.115916325e-08 	2.882753881e-06
0.5488080831 	0.001508549791 	-8.034402543e-05 	-3.289212248e-08 	0.001519062704 	-1.267116151e-08 	2.895755716e-06
0.5505413061 	0.001513731004 	-5.392233053e-05 	-3.198254958e-08 	0.00152670401 	-1.392554385e-08 	2.910322168e-06
0.5522938699 	0.001519595397 	-2.816450028e-05 	-3.115782519e-08 	0.001535004731 	-1.496803393e-08 	2.92614565e-06
0.5540659904 	0.001526012392 	-3.008288619e-06 	-3.040497271e-08 	0.001543833721 	-1.583491982e-08 	2.942976158e-06
0.5558578859 	0.00153287536 	2.159865296e-05 	-2.971300826e-08 	0.001553083673 	-1.655518582e-08 	2.960609138e-06
0.5576697768 	0.00154009668 	4.57002493e-05 	-2.907263598e-08 	0.001562666215 	-1.715214583e-08 	2.978876127e-06
0.5595018865 	0.001547603901 	6.933323624e-05 	-2.847597599e-08 	0.001572508097 	-1.764468277e-08 	2.997637489e-06
0.5613544406 	0.001555336741 	9.252820022e-05 	-2.791632857e-08 	0.001582548212 	-1.80481897e-08 	3.01677674e-06
0.563227667 	0.001563244736 	0.0001153104578 	-2.738797494e-08 	0.001592735264 	-1.837529006e-08 	3.036196091e-06
0.5651217966 	0.001571285372 	0.0001377008031 	-2.688601219e-08 	0.001603025909 	-1.863639366e-08 	3.055812921e-06
0.5670370626 	0.001579422608 	0.0001597161456 	-2.640621769e-08 	0.00161338329 	-1.884012948e-08 	3.075556967e-06
0.5689737009 	0.00158762569 	0.0001813700559 	-2.594493805e-08 	0.001623775852 	-1.899368507e-08 	3.09536808e-06
0.5709319499 	0.001595868204 	0.0002026732346 	-2.549899807e-08 	0.001634176403 	-1.910307487e-08 	3.115194421e-06
0.5729120508 	0.001604127305 	0.000223633916 	-2.50656257e-08 	0.001644561341 	-1.917335355e-08 	3.134990999e-06
0.5749142474 	0.001612383097 	0.0002442582166 	-2.464238992e-08 	0.001654910037 	-1.92087867e-08 	3.154718488e-06
0.5769387863 	0.001620618128 	0.0002645504365 	-2.422714915e-08 	0.001665204324 	-1.921298811e-08 	3.174342262e-06
0.5789859169 	0.001628816974 	0.0002845133212 	-2.381800825e-08 	0.001675428089 	-1.91890307e-08 	3.193831599e-06
0.5810558911 	0.001636965904 	0.0003041482887 	-2.341328266e-08 	0.001685566924 	-1.91395366e-08 	3.213159035e-06
0.583148964 	0.001645052597 	0.0003234556279 	-2.301146851e-08 	0.00169560785 	-1.906675069e-08 	3.232299831e-06
0.5852653933 	0.001653065919 	0.0003424346716 	-2.261121783e-08 	0.001705539084 	-1.897260089e-08 	3.251231525e-06
0.5874054395 	0.001660995732 	0.0003610839489 	-2.221131792e-08 	0.00171534985 	-1.885874784e-08 	3.269933571e-06
0.5895693664 	0.00166883274 	0.0003794013185 	-2.181067439e-08 	0.001725030214 	-1.872662608e-08 	3.288387035e-06
0.5917574402 	0.001676568361 	0.0003973840873 	-2.140829734e-08 	0.00173457096 	-1.857747843e-08 	3.306574348e-06
0.5939699306 	0.001684194624 	0.0004150291151 	-2.100329008e-08 	0.001743963476 	-1.841238469e-08 	3.324479095e-06
0.5962071099 	0.00169170408 	0.0004323329085 	-2.059484012e-08 	0.00175319967 	-1.823228598e-08 	3.342085849e-06
0.5984692536 	0.00169908974 	0.0004492917052 	-2.018221209e-08 	0.001762271896 	-1.80380053e-08 	3.359380032e-06
0.6007566404 	0.001706345012 	0.0004659015504 	-1.976474228e-08 	0.001771172892 	-1.783026517e-08 	3.376347804e-06
0.6030695519 	0.001713463662 	0.000482158366 	-1.934183458e-08 	0.001779895738 	-1.76097028e-08 	3.392975974e-06
0.6054082729 	0.001720439779 	0.0004980580144 	-1.891295749e-08 	0.001788433819 	-1.737688315e-08 	3.409251928e-06
0.6077730914 	0.001727267747 	0.000513596358 	-1.847764224e-08 	0.001796780793 	-1.713231044e-08 	3.425163581e-06
0.6101642987 	0.001733942232 	0.000528769314 	-1.803548162e-08 	0.00180493058 	-1.687643814e-08 	3.44069934e-06
0.6125821893 	0.001740458165 	0.0005435729065 	-1.758612946e-08 	0.00181287734 	-1.660967783e-08 	3.455848074e-06
0.6150270608 	0.001746810739 	0.0005580033157 	-1.712930069e-08 	0.001820615475 	-1.633240699e-08 	3.47059911e-06
0.6174992144 	0.00175299541 	0.000572056925 	-1.666477171e-08 	0.001828139624 	-1.604497597e-08 	3.484942229e-06
0.6199989545 	0.001759007893 	0.0005857303664 	-1.619238103e-08 	0.001835444668 	-1.574771411e-08 	3.498867673e-06
0.622526589 	0.001764844177 	0.0005990205635 	-1.571203014e-08 	0.001842525739 	-1.544093519e-08 	3.512366162e-06
0.625082429 	0.001770500532 	0.0006119247749 	-1.522368434e-08 	0.001849378234 	-1.512494221e-08 	3.525428922e-06
0.6276667894 	0.001775973524 	0.0006244406344 	-1.472737357e-08 	0.001855997832 	-1.480003151e-08 	3.538047715e-06
0.6302799884 	0.001781260029 	0.0006365661917 	-1.422319316e-08 	0.001862380511 	-1.446649637e-08 	3.550214876e-06
0.6329223478 	0.001786357254 	0.0006482999517 	-1.371130432e-08 	0.001868522578 	-1.412462996e-08 	3.561923363e-06
0.6355941931 	0.001791262762 	0.000659640912 	-1.319193441e-08 	0.001874420689 	-1.377472772e-08 	3.573166801e-06
0.6382958531 	0.001795974487 	0.0006705886007 	-1.266537686e-08 	0.00188007188 	-1.341708911e-08 	3.583939542e-06
0.6410276607 	0.001800490769 	0.0006811431119 	-1.21319908e-08 	0.001885473601 	-1.305201889e-08 	3.594236724e-06
0.6437899523 	0.001804810376 	0.0006913051406 	-1.159220017e-08 	0.001890623748 	-1.26798276e-08 	3.604054336e-06
0.646583068 	0.001808932534 	0.000701076016 	-1.104649255e-08 	0.001895520699 	-1.230083162e-08 	3.613389286e-06
0.6494073518 	0.00181285696 	0.0007104577333 	-1.049541746e-08 	0.001900163352 	-1.191535243e-08 	3.622239472e-06
0.6522631514 	0.001816583893 	0.0007194529838 	-9.939584305e-09 	0.001904551164 	-1.152371539e-08 	3.630603862e-06
0.6551508186 	0.001820114128 	0.0007280651827 	-9.379659881e-09 	0.001908684196 	-1.112624784e-08 	3.638482569e-06
0.658070709 	0.001823449053 	0.0007362984949 	-8.816365519e-09 	0.001912563151 	-1.07232765e-08 	3.645876936e-06
0.6610231822 	0.001826590685 	0.000744157859 	-8.250473899e-09 	0.001916189424 	-1.031512441e-08 	3.65278962e-06
0.6640086017 	0.001829541712 	0.0007516490073 	-7.682805573e-09 	0.001919565144 	-9.902107194e-09 	3.659224681e-06
0.6670273351 	0.001832305531 	0.0007587784841 	-7.114225276e-09 	0.001922693226 	-9.484528772e-09 	3.665187674e-06
0.6700797543 	0.00183488629 	0.00076555366 	-6.545638073e-09 	0.001925577417 	-9.062676584e-09 	3.670685744e-06
0.6731662352 	0.001837288939 	0.0007719827433 	-5.977985424e-09 	0.001928222352 	-8.63681632e-09 	3.675727724e-06
0.6762871577 	0.00183951927 	0.0007780747873 	-5.412241212e-09 	0.001930633602 	-8.207186243e-09 	3.680324237e-06
0.6794429063 	0.001841583971 	0.0007838396936 	-4.849407826e-09 	0.001932817736 	-7.773991154e-09 	3.684487803e-06
0.6826338695 	0.001843490681 	0.0007892882115 	-4.290512341e-09 	0.001934782375 	-7.337396063e-09 	3.688232952e-06
0.6858604404 	0.00184524804 	0.0007944319323 	-3.736602821e-09 	0.001936536257 	-6.897519663e-09 	3.691576339e-06
0.6891230163 	0.001846865756 	0.0007992832791 	-3.188744813e-09 	0.001938089301 	-6.454427672e-09 	3.694536871e-06
0.6924219988 	0.001848354667 	0.0008038554916 	-2.648017989e-09 	0.001939452673 	-6.008126136e-09 	3.697135837e-06
0.6957577944 	0.00184972681 	0.0008081626049 	-2.115512984e-09 	0.001940638867 	-5.558554784e-09 	3.699397053e-06
0.6991308138 	0.001850995502 	0.000812219423 	-1.592328333e-09 	0.00194166178 	-5.105580538e-09 	3.70134701e-06
0.7025414724 	0.00185217542 	0.0008160414865 	-1.079567471e-09 	0.001942536801 	-4.648991267e-09 	3.703015042e-06
0.7059901901 	0.001853282696 	0.0008196450331 	-5.783357448e-10 	0.001943280903 	-4.188489894e-09 	3.704433508e-06
0.7094773917 	0.001854335017 	0.0008230469525 	-8.973726321e-11 	0.001943912751 	-3.723688943e-09 	3.705637986e-06
0.7130035066 	0.001855351741 	0.0008262647333 	3.851285009e-10 	0.001944452814 	-3.254105551e-09 	3.706667496e-06
0.7165689691 	0.001856354023 	0.0008293164048 	8.451705511e-10 	0.001944923495 	-2.779156979e-09 	3.707564745e-06
0.7201742182 	0.001857364962 	0.0008322204715 	1.289310995e-09 	0.001945349255 	-2.298157959e-09 	3.708376362e-06
0.7238196978 	0.001858409772 	0.0008349958388 	1.716490408e-09 	0.001945756765 	-1.810321366e-09 	3.70915319e-06
0.727505857 	0.001859515912 	0.000837661788 	2.125676288e-09 	0.001946175176 	-1.314751357e-09 	3.709950798e-06
0.7312331497 	0.001860713309 	0.0008402405643 	2.516035661e-09 	0.001946636289 	-8.104246349e-10 	3.710829806e-06
0.7350020349 	0.001862030778 	0.000842765881 	2.887044056e-09 	0.001947172834 	-2.975931168e-10 	3.71185261e-06
0.7387709215 	0.001863487639 	0.0008452850187 	3.238297736e-09 	0.001947813061 	2.203405182e-10 	3.71307306e-06
0.7424982157 	0.001865096373 	0.0008478432413 	3.569963344e-09 	0.001948579 	7.39650158e-10 	3.714533153e-06
0.7461843763 	0.001866872556 	0.0008504674759 	3.882724556e-09 	0.001949491254 	1.259432623e-09 	3.716272163e-06
0.7498298574 	0.001868833778 	0.0008531696599 	4.1770854e-09 	0.001950570244 	1.780070433e-09 	3.718329018e-06
0.7534351078 	0.001870996362 	0.0008559572633 	4.453423814e-09 	0.001951834796 	2.301861091e-09 	3.720739606e-06
0.7570005716 	0.001873375439 	0.0008588360281 	4.712153666e-09 	0.001953302224 	2.82503763e-09 	3.723536931e-06
0.7605266877 	0.001875984969 	0.0008618101477 	4.953723516e-09 	0.001954988515 	3.349778104e-09 	3.72675147e-06
0.7640138905 	0.001878837829 	0.0008648823885 	5.178611964e-09 	0.001956908394 	3.876208301e-09 	3.730411294e-06
0.7674626093 	0.001881945879 	0.0008680542114 	5.387322332e-09 	0.001959075387 	4.404406856e-09 	3.734542185e-06
0.770873269 	0.001885320035 	0.0008713258885 	5.58037733e-09 	0.001961501894 	4.934410994e-09 	3.739167781e-06
0.7742462894 	0.001888970328 	0.0008746966133 	5.758315518e-09 	0.001964199263 	5.466221059e-09 	3.744309717e-06
0.777582086 	0.001892905972 	0.0008781646069 	5.921692192e-09 	0.001967177868 	5.999803092e-09 	3.749987766e-06
0.7808810695 	0.001897135421 	0.000881727219 	6.071088148e-09 	0.001970447177 	6.535089065e-09 	3.756219976e-06
0.7841436462 	0.001901666435 	0.0008853810238 	6.207130186e-09 	0.001974015821 	7.071975163e-09 	3.763022805e-06
0.787370218 	0.001906506144 	0.0008891219114 	6.330526407e-09 	0.001977891675 	7.610319977e-09 	3.770411258e-06
0.7905611821 	0.001911661113 	0.0008929451764 	6.442116471e-09 	0.001982081915 	8.149946423e-09 	3.778399022e-06
0.7937169314 	0.001917137412 	0.0008968456055 	6.542930242e-09 	0.001986593101 	8.690654071e-09 	3.786998596e-06
0.7968378547 	0.001922940691 	0.0009008175654 	6.634236433e-09 	0.001991431235 	9.232259848e-09 	3.796221423e-06
0.7999243362 	0.001929076254 	0.0009048550926 	6.717550706e-09 	0.001996601841 	9.774702458e-09 	3.806078036e-06
0.8029767561 	0.001935549119 	0.0009089519916 	6.79456792e-09 	0.002002110075 	1.031817336e-08 	3.816578261e-06
0.8059954902 	0.001942364133 	0.0009131019599 	6.866927819e-09 	0.002007960736 	1.086299568e-08 	3.827731246e-06
0.8089809102 	0.001949526282 	0.0009172986952 	6.93548302e-09 	0.002014157883 	1.14096617e-08 	3.839544731e-06
0.8119333839 	0.001957040582 	0.0009215356617 	6.999001261e-09 	0.002020705279 	1.196306617e-08 	3.852025887e-06
0.8148532749 	0.001964908745 	0.0009258064369 	7.057181467e-09 	0.002027613206 	1.253928383e-08 	3.865194316e-06
0.8177409426 	0.001973135525 	0.0009301149094 	7.164683111e-09 	0.002034886137 	1.310204849e-08 	3.879058544e-06
0.8205967427 	0.001981740696 	0.0009348225709 	7.660135072e-09 	0.002042503244 	1.359650515e-08 	3.893578867e-06
0.8234210268 	0.001990819143 	0.0009395120165 	7.443199205e-09 	0.002050400129 	1.40268484e-08 	3.908632525e-06
0.8262141429 	0.002000472824 	0.0009437964759 	6.955896192e-09 	0.002058538095 	1.448823025e-08 	3.924145751e-06
0.8289764348 	0.002010707574 	0.0009481740826 	7.250171432e-09 	0.00206695623 	1.504473777e-08 	3.940193055e-06
0.8317082427 	0.002021487547 	0.0009527618489 	7.550645712e-09 	0.002075730176 	1.566238109e-08 	3.956918634e-06
0.8344099031 	0.002032781384 	0.0009575663978 	7.855451637e-09 	0.002084932099 	1.631001368e-08 	3.974460057e-06
0.8370817486 	0.002044570711 	0.0009625926807 	8.163466791e-09 	0.002094605086 	1.697318093e-08 	3.992899458e-06
0.8397241082 	0.002056841078 	0.0009678434596 	8.473965084e-09 	0.002104775927 	1.765362141e-08 	4.012287909e-06
0.8423373074 	0.002069578005 	0.0009733191246 	8.786726368e-09 	0.002115460778 	1.834682057e-08 	4.032656205e-06
0.844921668 	0.002082766958 	0.0009790178369 	9.101753347e-09 	0.002126665709 	1.904574196e-08 	4.054015917e-06
0.8474775082 	0.002096394031 	0.0009849358709 	9.419148425e-09 	0.002138387593 	1.974582113e-08 	4.076361087e-06
0.8500051427 	0.002110446602 	0.0009910681067 	9.739125077e-09 	0.002150615808 	2.044606099e-08 	4.099671462e-06
0.8525048829 	0.002124913746 	0.0009974086131 	1.006202391e-08 	0.002163334523 	2.114793157e-08 	4.123916869e-06
0.8549770366 	0.002139786375 	0.001003951245 	1.038828367e-08 	0.002176525275 	2.185385994e-08 	4.149062107e-06
0.8574219081 	0.002155057209 	0.001010690181 	1.071838375e-08 	0.002190169389 	2.256619921e-08 	4.175071581e-06
0.8598397987 	0.002170720669 	0.001017620337 	1.105279315e-08 	0.002204249906 	2.328683108e-08 	4.201912961e-06
0.862231006 	0.002186772745 	0.001024737632 	1.139194823e-08 	0.002218752829 	2.401718056e-08 	4.229559563e-06
0.8645958245 	0.002203210847 	0.001032039098 	1.173626174e-08 	0.002233667687 	2.475838058e-08 	4.257991428e-06
0.8669345455 	0.002220033638 	0.00103952285 	1.208615301e-08 	0.002248987539 	2.551143746e-08 	4.287195323e-06
0.8692474569 	0.002237240854 	0.001047187975 	1.244208602e-08 	0.002264708589 	2.62773585e-08 	4.317164013e-06
0.8715348435 	0.002254833143 	0.00105503436 	1.280460524e-08 	0.002280829593 	2.705725168e-08 	4.347895129e-06
0.8737969871 	0.002272811927 	0.001063062523 	1.317436317e-08 	0.00229735122 	2.785240946e-08 	4.379389941e-06
0.8760341663 	0.002291179312 	0.001071273456 	1.355213754e-08 	0.002314275474 	2.866437518e-08 	4.411652273e-06
0.8782466565 	0.002309938058 	0.001079668525 	1.393883837e-08 	0.002331605271 	2.949498396e-08 	4.444687683e-06
0.8804347301 	0.002329091597 	0.001088249407 	1.433550642e-08 	0.002349344186 	3.034637335e-08 	4.478502986e-06
0.8825986568 	0.002348644105 	0.001097018091 	1.474330571e-08 	0.002367496374 	3.122096731e-08 	4.5131061e-06
0.8847387028 	0.00236860062 	0.001105976918 	1.516351291e-08 	0.002386066629 	3.2121444e-08 	4.548506168e-06
0.8868551318 	0.002388967192 	0.001115128646 	1.559750617e-08 	0.002405060553 	3.305069937e-08 	4.584713865e-06
0.8889482045 	0.002409751066 	0.00112447655 	1.604675562e-08 	0.002424484773 	3.401181617e-08 	4.621741829e-06
0.8910181784 	0.002430960875 	0.00113402452 	1.651281662e-08 	0.002444347195 	3.500804347e-08 	4.659605125e-06
0.8930653087 	0.002452606854 	0.001143777169 	1.699732621e-08 	0.002464657244 	3.604278719e-08 	4.698321723e-06
0.8950898473 	0.00247470105 	0.001153739936 	1.750200236e-08 	0.002485426099 	3.711960961e-08 	4.737912934e-06
0.8970920436 	0.002497257552 	0.001163919189 	1.802864531e-08 	0.002506666909 	3.824223447e-08 	4.778403821e-06
0.8990721441 	0.002520292718 	0.001174322326 	1.857914015e-08 	0.002528394994 	3.941455464e-08 	4.819823589e-06
0.9010303927 	0.002543825413 	0.00118495788 	1.915545991e-08 	0.002550628042 	4.064064035e-08 	4.862205959e-06
0.9029670306 	0.002567877269 	0.001195835617 	1.975966847e-08 	0.002573386316 	4.192474671e-08 	4.905589553e-06
0.9048822962 	0.00259247296 	0.001206966662 	2.039392293e-08 	0.002596692864 	4.327132054e-08 	4.950018312e-06
0.9067764254 	0.002617640497 	0.001218363613 	2.106047515e-08 	0.002620573771 	4.468500667e-08 	4.995541958e-06
0.9086496514 	0.002643411557 	0.001230040689 	2.176167181e-08 	0.002645058424 	4.61706541e-08 	5.042216512e-06
0.910502205 	0.002669821832 	0.001242013875 	2.249995262e-08 	0.002670179828 	4.773332169e-08 	5.090104891e-06
0.9123343142 	0.002696911402 	0.001254301098 	2.32778455e-08 	0.002695974952 	4.937828225e-08 	5.139277567e-06
0.9141462048 	0.00272472513 	0.001266922399 	2.409795757e-08 	0.002722485123 	5.111102247e-08 	5.189813319e-06
0.9159380997 	0.002753313064 	0.001279900135 	2.496295969e-08 	0.002749756452 	5.293723451e-08 	5.241800053e-06
0.9177102197 	0.002782730834 	0.001293259176 	2.587556242e-08 	0.002777840309 	5.486279301e-08 	5.295335689e-06
0.9194627831 	0.002813040033 	0.001307027105 	2.683848014e-08 	0.002806793804 	5.689370944e-08 	5.350529099e-06
0.9211960055 	0.002844308557 	0.001321234422 	2.785437985e-08 	0.002836680301 	5.903605346e-08 	5.407501068e-06
0.9229101006 	0.002876610882 	0.001335914716 	2.892581064e-08 	0.002867569901 	6.129582949e-08 	5.466385231e-06