0.4709558481 	2.716853025e-08 	-2.686440615e-11 	-1.737467152e-17 	2.711683478e-08 	1.718275333e-14 	5.169222382e-11
0.4709558481 	2.716853025e-08 	-2.686440615e-11 	-1.737467152e-17 	2.711683478e-08 	1.718275333e-14 	5.169222382e-11
0.4711314108 	3.049831493e-07 	-1.178555623e-09 	-7.538154976e-16 	3.044022969e-07 	1.929383049e-13 	5.802753821e-10
0.4713069734 	1.699917736e-06 	-1.53822608e-08 	-9.736880177e-15 	1.696665338e-06 	1.07565622e-12 	3.234315698e-09
0.471482536 	5.661057088e-06 	-9.607478624e-08 	-6.021359277e-14 	5.650075615e-06 	3.582941401e-12 	1.077061448e-08
0.4716580986 	1.399749363e-05 	-3.91144377e-07 	-2.427878416e-13 	1.396946314e-05 	8.860755388e-12 	2.662967936e-08
0.4718336613 	2.870522426e-05 	-1.206789412e-06 	-7.421089239e-13 	2.864414336e-05 	1.817250982e-11 	5.460369848e-08
0.4720092239 	5.189527147e-05 	-3.071362896e-06 	-1.87194857e-12 	5.177328752e-05 	3.284949937e-11 	9.869427566e-08
0.4721847865 	8.573747446e-05 	-6.788365081e-06 	-4.102533403e-12 	8.550480417e-05 	5.424684028e-11 	1.629959216e-07
0.4723603491 	0.000132394503 	-1.346445697e-05 	-8.071982878e-12 	0.0001319617913 	8.368723063e-11 	2.51555851e-07
0.4725359118 	0.0001939325527 	-2.449517477e-05 	-1.457135643e-11 	0.0001931429871 	1.223834834e-10 	3.681842148e-07
0.4727114744 	0.0002722005257 	-4.14913327e-05 	-2.449253348e-11 	0.000270790278 	1.713367862e-10 	5.162015321e-07
0.472887037 	0.0003686766884 	-6.613623953e-05 	-3.873273962e-11 	0.0003662258535 	2.312164712e-10 	6.981282641e-07
0.4730625996 	0.0004842933283 	-9.997985946e-05 	-5.806111835e-11 	0.0004801758678 	3.022392028e-10 	9.153486619e-07
0.4732381623 	0.0006192647613 	-0.0001441989749 	-8.297014462e-11 	0.0006126132314 	3.840773479e-10 	1.167811086e-06
0.4734137249 	0.0007729571016 	-0.0001993742464 	-1.135509493e-10 	0.0007626616104 	4.758306904e-10 	1.453845e-06
0.4735892875 	0.0009438414654 	-0.0002653435072 	-1.494356637e-10 	0.0009285974557 	5.760855518e-10 	1.770164841e-06
0.4737648501 	0.001129559122 	-0.0003411763435 	-1.898336033e-10 	0.001107965054 	6.830601254e-10 	2.112089336e-06
0.4739404128 	0.001327098938 	-0.0004252801306 	-2.336558163e-10 	0.001297788719 	7.948079141e-10 	2.473946e-06
0.4741159754 	0.001533062529 	-0.0005156058554 	-2.796960727e-10 	0.001494826745 	9.094698329e-10 	2.849555241e-06
0.474291538 	0.00174406475 	-0.0006102507703 	-3.258163665e-10 	0.001695873366 	1.025271439e-09 	3.232805979e-06
0.4744671006 	0.001954789567 	-0.0007003492298 	-3.966173924e-10 	0.001897332696 	1.143233178e-09 	3.616843454e-06
0.4746426632 	0.002161269288 	-0.000779056785 	-4.649410147e-10 	0.002096731135 	1.258191029e-09 	3.996952299e-06
0.4748182259 	0.002364306731 	-0.0008522536942 	-5.048650243e-10 	0.002293722469 	1.366763571e-09 	4.372472534e-06
0.4749937885 	0.002564459904 	-0.000924406755 	-5.436988549e-10 	0.002487891278 	1.472465225e-09 	4.74261225e-06
0.4751693511 	0.002760760397 	-0.000995172031 	-5.813600921e-10 	0.002678321137 	1.575071047e-09 	5.105624488e-06
0.4753449137 	0.00295240711 	-0.001064262837 	-6.177977306e-10 	0.002864242993 	1.674472854e-09 	5.46004322e-06
0.4755204764 	0.003138765999 	-0.001131448989 	-6.52972283e-10 	0.003045035481 	1.770558513e-09 	5.804683951e-06
0.475696039 	0.003319352433 	-0.001196555476 	-6.868682005e-10 	0.0032202272 	1.86328358e-09 	6.138648059e-06
0.4758716016 	0.0034938192 	-0.001259457475 	-7.194878062e-10 	0.003389482708 	1.952653194e-09 	6.4612961e-06
0.4760471642 	0.003661950441 	-0.00132007662 	-7.508463725e-10 	0.003552591749 	2.038692479e-09 	6.772227266e-06
0.4762227269 	0.003845658001 	-0.001386310768 	-7.850701222e-10 	0.003730807273 	2.13268068e-09 	7.111955587e-06
0.4764955107 	0.004063942334 	-0.0014650105 	-8.258040087e-10 	0.003942563372 	2.244645295e-09 	7.515621566e-06
0.4767734216 	0.004292683535 	-0.00154748279 	-8.688157439e-10 	0.004164466041 	2.363057836e-09 	7.938629728e-06
0.4770565557 	0.004510509321 	-0.00162602418 	-9.104629238e-10 	0.004375779589 	2.477986984e-09 	8.341452082e-06
0.4773450114 	0.004716982843 	-0.001700480696 	-9.509637146e-10 	0.004576076934 	2.590134539e-09 	8.723274492e-06
0.4776388886 	0.004911864888 	-0.001770775059 	-9.905004737e-10 	0.00476512668 	2.700220595e-09 	9.08365585e-06
0.4779382892 	0.005095090199 	-0.0018369004 	-1.02918274e-09 	0.004942865989 	2.808963872e-09 	9.422476374e-06
0.4782433171 	0.005266734298 	-0.001898912022 	-1.067009946e-09 	0.005109367995 	2.917068148e-09 	9.739875474e-06
0.4785540779 	0.005426983161 	-0.001956920455 	-1.10383779e-09 	0.00526481293 	3.025212397e-09 	1.003619672e-05
0.4788706795 	0.005576108523 	-0.002011085711 	-1.139353271e-09 	0.005409464299 	3.134038842e-09 	1.031194244e-05
0.4791932316 	0.005714450733 	-0.002061408877 	-1.171331073e-09 	0.005543652229 	3.244132428e-09 	1.056774193e-05
0.4795218461 	0.005842410484 	-0.002107568121 	-1.20811765e-09 	0.005667765374 	3.355945834e-09 	1.080433608e-05
0.4798566368 	0.00596043452 	-0.002149824029 	-1.252465112e-09 	0.005782236918 	3.469574261e-09 	1.102255066e-05
0.48019772 	0.006068978649 	-0.002188738605 	-1.296854874e-09 	0.005887508819 	3.58505891e-09 	1.122322816e-05
0.4805452138 	0.006168491981 	-0.002224455366 	-1.341485735e-09 	0.005984016642 	3.702671254e-09 	1.140719889e-05
0.4808992388 	0.006259425309 	-0.002257122999 	-1.386542465e-09 	0.006072197565 	3.822690986e-09 	1.157529624e-05
0.4812599177 	0.006342228686 	-0.002286893185 	-1.432183896e-09 	0.006152488019 	3.945361263e-09 	1.172835216e-05
0.4816273755 	0.006417347575 	-0.00231391839 	-1.47854336e-09 	0.006225319982 	4.070884416e-09 	1.186719012e-05
0.4820017397 	0.006485219493 	-0.002338350064 	-1.525731697e-09 	0.006291117718 	4.199426331e-09 	1.19926189e-05
0.48238314 	0.006546271417 	-0.002360337272 	-1.573840748e-09 	0.006350295254 	4.331122877e-09 	1.210542773e-05
0.4827717088 	0.006600917855 	-0.002380025668 	-1.622946845e-09 	0.00640325451 	4.466086761e-09 	1.220638279e-05
0.4831675807 	0.006649559468 	-0.002397556743 	-1.673114135e-09 	0.006450383958 	4.604414248e-09 	1.229622461e-05
0.4835708931 	0.006692582114 	-0.002413067294 	-1.724397566e-09 	0.006492057697 	4.746191217e-09 	1.237566634e-05
0.4839817856 	0.006730356237 	-0.002426689044 	-1.776845321e-09 	0.006528634856 	4.891497915e-09 	1.244539258e-05
0.4844004009 	0.006763236518 	-0.002438548411 	-1.830500411e-09 	0.006560459261 	5.040411579e-09 	1.250605874e-05
0.4848268841 	0.006791561785 	-0.002448766378 	-1.885401073e-09 	0.00658785934 	5.193005985e-09 	1.25582909e-05
0.485261383 	0.006815655142 	-0.002457458474 	-1.941579651e-09 	0.006611148255 	5.349347016e-09 	1.260268605e-05
0.4857040484 	0.006835824335 	-0.002464734852 	-1.99905961e-09 	0.006630624258 	5.509483274e-09 	1.263981272e-05
0.4861550336 	0.006852363558 	-0.002470700893 	-2.057854009e-09 	0.006646572438 	5.673440447e-09 	1.267021439e-05
0.4866144951 	0.006865554322 	-0.002475457487 	-2.117945535e-09 	0.006659265553 	5.841166078e-09 	1.269441099e-05
0.4870825921 	0.006875662133 	-0.002479099825 	-2.179295285e-09 	0.006668960825 	6.012552921e-09 	1.271289287e-05
0.487559487 	0.006882934317 	-0.002481716615 	-2.241888216e-09 	0.006675897843 	6.187561307e-09 	1.272611676e-05
0.4880453452 	0.006887601566 	-0.002483390627 	-2.305733438e-09 	0.006680300052 	6.36621897e-09 	1.273450859e-05
0.4885403351 	0.006889879111 	-0.002484199112 	-2.370848309e-09 	0.006682375883 	6.548577299e-09 	1.27384657e-05
0.4890446283 	0.006889966882 	-0.002484213855 	-2.437258656e-09 	0.00668231892 	6.734711269e-09 	1.273835712e-05
0.4895583997 	0.006888049677 	-0.00248350124 	-2.504999348e-09 	0.006680308066 	6.924720423e-09 	1.273452387e-05
0.4900818274 	0.006884297336 	-0.002482122317 	-2.574115282e-09 	0.006676507713 	7.118731038e-09 	1.272727934e-05
0.4906150929 	0.006878864943 	-0.002480132876 	-2.644662775e-09 	0.006671067934 	7.316899448e-09 	1.271690961e-05
0.4911583811 	0.006871893042 	-0.002477583527 	-2.716711416e-09 	0.006664124701 	7.51941664e-09 	1.270367388e-05
0.4917118805 	0.006863507884 	-0.002474519793 	-2.790346419e-09 	0.006655800124 	7.726514284e-09 	1.268780492e-05
0.4922757829 	0.006853821694 	-0.002470982203 	-2.865671563e-09 	0.006646202708 	7.938472382e-09 	1.266950958e-05
0.4928502838 	0.006842932962 	-0.002467006396 	-2.942812792e-09 	0.006635427639 	8.155628734e-09 	1.26489693e-05
0.4934355824 	0.006830926735 	-0.00246262322 	-3.021922581e-09 	0.006623557063 	8.378390496e-09 	1.262634069e-05
0.4940318817 	0.006817874901 	-0.002457858826 	-3.10318523e-09 	0.00661066037 	8.607248171e-09 	1.2601756e-05
0.4946393885 	0.006803836446 	-0.00245273475 	-3.186823257e-09 	0.00659679444 	8.842792427e-09 	1.257532369e-05
0.4952583133 	0.006788857657 	-0.002447267974 	-3.273105139e-09 	0.006582003837 	9.085734271e-09 	1.254712869e-05
0.4958888709 	0.006772972231 	-0.002441470949 	-3.362354737e-09 	0.006566320929 	9.336929261e-09 	1.251723271e-05
0.4965312797 	0.006756201259 	-0.002435351575 	-3.454962772e-09 	0.006549765869 	9.597406582e-09 	1.248567416e-05
0.4971857627 	0.00673855305 	-0.00242891312 	-3.551400881e-09 	0.00653234643 	9.868404108e-09 	1.245246787e-05
0.4978525466 	0.006720022724 	-0.002422154064 	-3.652238848e-09 	0.006514057626 	1.01514108e-08 	1.241760432e-05
0.4985318627 	0.006700591555 	-0.002415067845 	-3.758165711e-09 	0.00649488108 	1.044821823e-08 	1.23810485e-05
0.4992239466 	0.006680225997 	-0.0024076425 	-3.870015469e-09 	0.006474784085 	1.076098315e-08 	1.234273804e-05
0.4999290382 	0.006658876366 	-0.00239986019 	-3.988798026e-09 	0.006453718342 	1.109230337e-08 	1.230258088e-05
0.5006473819 	0.006636475201 	-0.002391696603 	-4.115735467e-09 	0.006431618348 	1.144530826e-08 	1.226045215e-05
0.501379227 	0.006612935364 	-0.002383120281 	-4.25230246e-09 	0.00640839953 	1.182376367e-08 	1.221619063e-05
0.502124827 	0.006588148179 	-0.002374091958 	-4.400266215e-09 	0.00638395633 	1.223218529e-08 	1.216959509e-05
0.5028844406 	0.006561982165 	-0.002364564121 	-4.56171325e-09 	0.006358160828 	1.267593749e-08 	1.21204217e-05
0.5036583311 	0.006534283656 	-0.002354481276 	-4.739032568e-09 	0.006330863105 	1.316125289e-08 	1.206838465e-05
0.5044467669 	0.006504882088 	-0.002343781721 	-4.934789639e-09 	0.006301895269 	1.369503995e-08 	1.20131639e-05
0.5052500214 	0.00647360507 	-0.00233240254 	-5.151345265e-09 	0.006271083582 	1.428422703e-08 	1.195442826e-05
0.506068373 	0.006436010282 	-0.002318727366 	-5.422017597e-09 	0.006234043094 	1.502128253e-08 	1.18838188e-05
0.507324668 	0.006387366488 	-0.002301035322 	-5.790872045e-09 	0.006186108393 	1.602777069e-08 	1.179244194e-05
0.5085949819 	0.006331862605 	-0.002280850508 	-6.235319936e-09 	0.006131411841 	1.724171478e-08 	1.168817511e-05
0.5098794711 	0.006273936194 	-0.002259787813 	-6.720552391e-09 	0.006074334906 	1.856680438e-08 	1.15793706e-05
0.5111782938 	0.006213613695 	-0.002237857846 	-7.244171455e-09 	0.006014911685 	1.999525686e-08 	1.146609343e-05
0.5124916099 	0.006150922728 	-0.002215071252 	-7.804550572e-09 	0.005953174429 	2.152182734e-08 	1.134840506e-05
0.5138195812 	0.006085882153 	-0.002191435294 	-8.400721171e-09 	0.005889145097 	2.314334674e-08 	1.122634736e-05
0.5151623712 	0.006018498116 	-0.002166952601 	-9.032252595e-09 	0.005822832579 	2.485834202e-08 	1.109993727e-05
0.5165201452 	0.005948763161 	-0.002141620929 	-9.699157639e-09 	0.00575423241 	2.666671797e-08 	1.096916628e-05
0.5178930705 	0.005876656812 	-0.00211543338 	-1.04018119e-08 	0.005683327553 	2.856945856e-08 	1.083400191e-05
0.5192813161 	0.005802146744 	-0.002088378824 	-1.114088379e-08 	0.00561008965 	3.056836522e-08 	1.069439012e-05
0.520685053 	0.005725190119 	-0.002060442385 	-1.191727236e-08 	0.00553448038 	3.266583902e-08 	1.055025783e-05
0.522104454 	0.005645734894 	-0.002031605913 	-1.273205156e-08 	0.005456452756 	3.486470466e-08 	1.04015155e-05
0.523539694 	0.005563720985 	-0.0020018484 	-1.358642198e-08 	0.005375952266 	3.716807572e-08 	1.024805919e-05
0.5249909497 	0.005479081225 	-0.001971146343 	-1.448167341e-08 	0.005292917817 	3.957926311e-08 	1.008977245e-05
0.5264583998 	0.005391742097 	-0.001939474006 	-1.541916114e-08 	0.00520728244 	4.210172988e-08 	9.92652762e-06
0.527942225 	0.005301624176 	-0.00190680359 	-1.640029831e-08 	0.005118973723 	4.473909473e-08 	9.758186661e-06
0.5294426081 	0.005208642279 	-0.00187310529 	-1.742656482e-08 	0.005027913951 	4.749518115e-08 	9.584601426e-06
0.5309597337 	0.005112705284 	-0.00183834722 	-1.849953066e-08 	0.004934019941 	5.037409264e-08 	9.405613347e-06
0.5324937889 	0.005013715665 	-0.001802495229 	-1.962088531e-08 	0.004837202617 	5.338025493e-08 	9.221052618e-06
0.5340449624 	0.004911568898 	-0.001765512644 	-2.079244518e-08 	0.004737366494 	5.651829476e-08 	9.03073722e-06
0.5356134452 	0.004806153166 	-0.001727360076 	-2.201606997e-08 	0.004634409502 	5.979252763e-08 	8.834472579e-06
0.5371994306 	0.004697350352 	-0.001687995571 	-2.329332343e-08 	0.00452822401 	6.32056243e-08 	8.632053518e-06
0.5388031139 	0.004585040227 	-0.00164737579 	-2.462443605e-08 	0.004418701077 	6.675516946e-08 	8.423272367e-06
0.5404246925 	0.004469111263 	-0.001605459608 	-2.600594566e-08 	0.004305742397 	7.04266718e-08 	8.207941729e-06
0.5420643661 	0.004349557194 	-0.001562243002 	-2.736962582e-08 	0.004189355201 	7.403178602e-08 	7.986075384e-06
0.5437223366 	0.004226794698 	-0.001517874616 	-2.858119551e-08 	0.004069956908 	7.721098658e-08 	7.758469053e-06
0.5453988083 	0.00410170856 	-0.001472674157 	-2.957405829e-08 	0.003948415407 	7.979651172e-08 	7.526777171e-06
0.5470939875 	0.003975224975 	-0.001426979321 	-3.03529504e-08 	0.003825636399 	8.181997797e-08 	7.292726258e-06
0.5488080831 	0.00384817771 	-0.001381095423 	-3.0912941e-08 	0.003702433387 	8.328897911e-08 	7.057867075e-06
0.5505413061 	0.003721429051 	-0.001335337159 	-3.12399832e-08 	0.003579644784 	8.417782626e-08 	6.82379787e-06
0.5522938699 	0.003595885999 	-0.001290035086 	-3.132310093e-08 	0.003458152638 	8.444228377e-08 	6.592200072e-06
0.5540659904 	0.003472502476 	-0.001245538381 	-3.115833489e-08 	0.003338885469 	8.401367196e-08 	6.364843699e-06
0.5558578859 	0.003352261992 	-0.001202211153 	-3.074701695e-08 	0.003222797277 	8.280732958e-08 	6.143547339e-06
0.5576697768 	0.003236122115 	-0.001160416066 	-3.008538671e-08 	0.003110810324 	8.07762746e-08 	5.930069082e-06
0.5595018865 	0.003124908552 	-0.001120475642 	-2.917238677e-08 	0.003003691528 	7.810309865e-08 	5.725870885e-06
0.5613544406 	0.003019184427 	-0.001082595408 	-2.800364562e-08 	0.002901782408 	7.53449264e-08 	5.531603778e-06
0.563227667 	0.002918687996 	-0.001046094064 	-3.177758172e-08 	0.002804837486 	7.384526854e-08 	5.346799812e-06
0.5651217966 	0.002819639115 	-0.001002251616 	-3.528480522e-08 	0.002711175655 	7.317414944e-08 	5.168254331e-06
0.5670370626 	0.002722172168 	-0.0009548818696 	-3.405408282e-08 	0.002620018536 	7.216470408e-08 	4.994483526e-06
0.5689737009 	0.002628459238 	-0.000911649615 	-3.397972961e-08 	0.002531714343 	7.091191761e-08 	4.826151191e-06
0.5709319499 	0.002537249189 	-0.0008683846743 	-3.437841173e-08 	0.002446092892 	6.943287635e-08 	4.662932908e-06
0.5729120508 	0.002448702178 	-0.0008250898474 	-3.461306552e-08 	0.002363314971 	6.784333473e-08 	4.505135184e-06
0.5749142474 	0.002363060693 	-0.0007818667158 	-3.469299118e-08 	0.002283516947 	6.607180976e-08 	4.353017971e-06
0.5769387863 	0.002280556915 	-0.0007388324739 	-3.464621887e-08 	0.002206898343 	6.4084295e-08 	4.206961618e-06
0.5789859169 	0.002201433461 	-0.0006961046298 	-3.448876077e-08 	0.002133663162 	6.187356434e-08 	4.067355008e-06
0.5810558911 	0.002125936924 	-0.0006538013439 	-3.422630998e-08 	0.002064012092 	5.943631472e-08 	3.934580711e-06
0.583148964 	0.002054306338 	-0.0006120393569 	-3.386025047e-08 	0.001998137969 	5.677589415e-08 	3.809006324e-06
0.5852653933 	0.001986762437 	-0.0005709308585 	-3.339121361e-08 	0.001936216899 	5.390537531e-08 	3.690967553e-06
0.5874054395 	0.001923497068 	-0.0005305803709 	-3.282114242e-08 	0.001878398838 	5.084758926e-08 	3.580750258e-06
0.5895693664 	0.001864663123 	-0.0004910818959 	-3.215446451e-08 	0.001824799205 	4.76341725e-08 	3.478574461e-06
0.5917574402 	0.00181036591 	-0.0004525165363 	-3.139845723e-08 	0.001775491977 	4.430413364e-08 	3.38458118e-06
0.5939699306 	0.001760656745 	-0.0004149508441 	-3.056291737e-08 	0.001730504738 	4.090186172e-08 	3.298823e-06
0.5962071099 	0.00171552946 	-0.0003784360975 	-2.965933289e-08 	0.001689816278 	3.747450961e-08 	3.221259485e-06
0.5984692536 	0.001674920677 	-0.0003430086004 	-2.86997891e-08 	0.00165335743 	3.406861232e-08 	3.151758789e-06
0.6007566404 	0.001638714855 	-0.0003086908239 	-2.769614435e-08 	0.00162101618 	3.072569587e-08 	3.090107377e-06
0.6030695519 	0.001606754932 	-0.0002754933157 	-2.665835931e-08 	0.00159264814 	2.747707795e-08 	3.036030009e-06
0.6054082729 	0.001578858933 	-0.0002434157637 	-2.559823507e-08 	0.001568093073 	2.433823783e-08 	2.989221225e-06
0.6077730914 	0.001554840805 	-0.0002124618121 	-2.449119497e-08 	0.001547191752 	2.131366935e-08 	2.949377499e-06
0.6101642987 	0.001534546085 	-0.0001826475578 	-2.338411725e-08 	0.001529814167 	1.836348906e-08 	2.916250992e-06
0.6125821893 	0.001517888906 	-0.0001538419938 	-2.243430434e-08 	0.001515893456 	1.546741866e-08 	2.889714247e-06
0.6150270608 	0.001504753307 	-0.0001258162311 	-2.160663367e-08 	0.001505320019 	1.27372312e-08 	2.869558338e-06
0.6174992144 	0.00149487469 	-9.850007803e-05 	-2.077724029e-08 	0.001497827827 	1.028733094e-08 	2.855276138e-06
0.6199989545 	0.001487915229 	-7.188850609e-05 	-1.99629621e-08 	0.001493086335 	8.125741755e-09 	2.846237537e-06
0.622526589 	0.00148356229 	-4.592742636e-05 	-1.919115854e-08 	0.001490796442 	6.223278556e-09 	2.841872364e-06
0.625082429 	0.001481542628 	-2.055756479e-05 	-1.846005161e-08 	0.001490696261 	4.554193733e-09 	2.84168139e-06
0.6276667894 	0.001481618458 	4.274713989e-06 	-1.776602888e-08 	0.001492555968 	3.09512922e-09 	2.845226509e-06
0.6302799884 	0.00148358259 	2.861713077e-05 	-1.710543646e-08 	0.001496174022 	1.825047417e-09 	2.852123526e-06
0.6329223478 	0.00148725435 	5.251192258e-05 	-1.647474139e-08 	0.00150137348 	7.252617557e-10 	2.862035139e-06
0.6355941931 	0.001492476067 	7.599630975e-05 	-1.587057169e-08 	0.001507998774 	-2.20832382e-10 	2.874664791e-06
0.6382958531 	0.001499110009 	9.910295143e-05 	-1.528974316e-08 	0.001515913004 	-1.027995184e-09 	2.889751512e-06
0.6410276607 	0.001507035727 	0.0001218603823 	-1.472927631e-08 	0.001524995634 	-1.709331567e-09 	2.907065529e-06
0.6437899523 	0.001516147766 	0.0001442934255 	-1.418640404e-08 	0.001535140521 	-2.276461203e-09 	2.926404503e-06
0.646583068 	0.001526353711 	0.0001664235789 	-1.365857179e-08 	0.001546254222 	-2.739673475e-09 	2.947590307e-06
0.6494073518 	0.001537572509 	0.0001882693744 	-1.314343187e-08 	0.001558254542 	-3.108066435e-09 	2.970466251e-06
0.6522631514 	0.001549733032 	0.0002098467097 	-1.263883375e-08 	0.001571069282 	-3.389670815e-09 	2.994894708e-06
0.6551508186 	0.001562772872 	0.0002311691546 	-1.214281186e-08 	0.001584635172 	-3.591560691e-09 	3.020755064e-06
0.658070709 	0.001576637302 	0.0002522482326 	-1.165357221e-08 	0.00159889694 	-3.719952278e-09 	3.047941958e-06
0.6610231822 	0.001591278411 	0.0002730936802 	-1.116947862e-08 	0.001613806523 	-3.780292197e-09 	3.076363768e-06
0.6640086017 	0.00160665438 	0.000293713686 	-1.068903904e-08 	0.001629322387 	-3.777336425e-09 	3.105941316e-06
0.6670273351 	0.00162272887 	0.0003141151112 	-1.021089246e-08 	0.001645408943 	-3.715220938e-09 	3.136606763e-06
0.6700797543 	0.001639470529 	0.0003343036949 	-9.73379644e-09 	0.001662036058 	-3.597524932e-09 	3.168302666e-06
0.6731662352 	0.001656852587 	0.0003542842439 	-9.256615399e-09 	0.001679178642 	-3.427327357e-09 	3.200981196e-06
0.6762871577 	0.001674852532 	0.0003740608122 	-8.778309649e-09 	0.001696816302 	-3.207257432e-09 	3.234603477e-06
0.6794429063 	0.001693451864 	0.0003936368689 	-8.297925201e-09 	0.001714933063 	-2.939539707e-09 	3.269139059e-06
0.6826338695 	0.001712635915 	0.0004130154581 	-7.814584279e-09 	0.00173351715 	-2.626034181e-09 	3.304565494e-06
0.6858604404 	0.001732393725 	0.0004321993523 	-7.327476506e-09 	0.001752560821 	-2.268271911e-09 	3.340868024e-06
0.6891230163 	0.001752717979 	0.0004511912004 	-6.835850711e-09 	0.001772060253 	-1.867486582e-09 	3.378039361e-06
0.6924219988 	0.001773604993 	0.0004699936716 	-6.339007316e-09 	0.001792015475 	-1.424642358e-09 	3.41607956e-06
0.6957577944 	0.001795054745 	0.0004886095977 	-5.836291261e-09 	0.001812430349 	-9.404583854e-10 	3.454995985e-06
0.6991308138 	0.001817070966 	0.0005070421139 	-5.327085435e-09 	0.001833312602 	-4.1543023e-10 	3.494803362e-06
0.7025414724 	0.001839661257 	0.0005252948005 	-4.810804558e-09 	0.001854673891 	1.501514685e-10 	3.535523917e-06
0.7059901901 	0.001862837274 	0.0005433718263 	-4.286889527e-09 	0.001876529932 	7.561848913e-10 	3.577187604e-06
0.7094773917 	0.001886614944 	0.0005612780948 	-3.754802223e-09 	0.001898900657 	1.402743255e-09 	3.619832425e-06
0.7130035066 	0.001911014737 	0.0005790193957 	-3.214020741e-09 	0.001921810442 	2.090063152e-09 	3.663504842e-06
0.7165689691 	0.001936061984 	0.000596602563 	-2.664035069e-09 	0.001945288368 	2.818534796e-09 	3.708260295e-06
0.7201742182 	0.001961787264 	0.000614035641 	-2.10434314e-09 	0.001969368534 	3.588694301e-09 	3.754163784e-06
0.7238196978 	0.001988226867 	0.0006313280532 	-1.534446969e-09 	0.001994090377 	4.40121799e-09 	3.801290488e-06
0.727505857 	0.002015423259 	0.0006484909103 	-9.538494811e-10 	0.00201949925 	5.256916481e-09 	3.849726861e-06
0.7312331497 	0.002043426721 	0.0006655415999 	-3.621061107e-10 	0.002045647724 	6.156724301e-09 	3.89957312e-06
0.7350020349 	0.002072225446 	0.0006824843174 	2.391800566e-10 	0.002072526216 	7.099087245e-09 	3.950810997e-06
0.7387709215 	0.002101645616 	0.0006992765044 	8.441370989e-10 	0.00209996584 	8.076202635e-09 	4.003118547e-06
0.7424982157 	0.00213149385 	0.0007158822938 	1.44682534e-09 	0.002127778294 	9.079062501e-09 	4.056136814e-06
0.7461843763 	0.002161722531 	0.0007323169095 	2.045418391e-09 	0.002155918458 	1.010382687e-08 	4.109779788e-06
0.7498298574 	0.002192352434 	0.0007486066739 	2.640030058e-09 	0.002184409372 	1.114934863e-08 	4.164091389e-06
0.7534351078 	0.002223403532 	0.0007647718829 	3.230805694e-09 	0.002213273243 	1.221458951e-08 	4.219113949e-06
0.7570005716 	0.002254896004 	0.0007808314254 	3.817884479e-09 	0.002242532206 	1.329860524e-08 	4.274889664e-06
0.7605266877 	0.00228685013 	0.0007968030106 	4.401407959e-09 	0.002272208418 	1.440054043e-08 	4.331460773e-06
0.7640138905 	0.002319286281 	0.0008127032504 	4.981524867e-09 	0.002302323969 	1.551963334e-08 	4.388869383e-06
0.7674626093 	0.002352224879 	0.0008285477438 	5.558392756e-09 	0.002332900886 	1.665523167e-08 	4.447157485e-06
0.770873269 	0.002385686329 	0.0008443511919 	6.132173972e-09 	0.002363961269 	1.78067692e-08 	4.506367207e-06
0.7742462894 	0.002419691286 	0.0008601275072 	6.702986439e-09 	0.00239552687 	1.897360206e-08 	4.566540017e-06
0.777582086 	0.002454261647 	0.000875889445 	7.270791493e-09 	0.002427617154 	2.015524944e-08 	4.627713017e-06
0.7808810695 	0.002489418074 	0.0008916481458 	7.836105844e-09 	0.002460253382 	2.135398125e-08 	4.689926738e-06
0.7841436462 	0.002525169652 	0.0009074240641 	8.402704014e-09 	0.002493483868 	2.256732148e-08 	4.753273281e-06
0.787370218 	0.002561618458 	0.0009234392152 	9.160835702e-09 	0.002527328508 	2.381210993e-08 	4.81779057e-06
0.7905611821 	0.002599463563 	0.0009415495186 	9.687981641e-09 	0.002561960108 	2.504441499e-08 	4.883808025e-06
0.7937169314 	0.002637864002 	0.0009581962149 	9.99410648e-09 	0.002597030674 	2.630086993e-08 	4.950662271e-06
0.7968378547 	0.002676673871 	0.0009717828726 	1.051382549e-08 	0.002632701124 	2.766506568e-08 	5.018660064e-06
0.7999243362 	0.00271724517 	0.0009859515538 	1.106217773e-08 	0.002669807096 	2.912032624e-08 	5.08939436e-06
0.8029767561 	0.002759602516 	0.001000751003 	1.163322249e-08 	0.002708577727 	3.065173104e-08 	5.163301958e-06
0.8059954902 	0.002803651857 	0.001016178863 	1.221607325e-08 	0.002749072275 	3.22251448e-08 	5.240495822e-06
0.8089809102 	0.002849261035 	0.001032191688 	1.280195092e-08 	0.002791189994 	3.381247695e-08 	5.320783899e-06
0.8119333839 	0.00289628348 	0.00104873575 	1.338683489e-08 	0.002834787719 	3.539888217e-08 	5.403893281e-06
0.8148532749 	0.002944588923 	0.001065761329 	1.396974472e-08 	0.002879726639 	3.697884428e-08 	5.489559353e-06
0.8177409426 	0.002994074548 	0.001083227752 	1.455034158e-08 	0.002925889746 	3.855001464e-08 	5.577559064e-06
0.8205967427 	0.003044663878 	0.001101104017 	1.512809421e-08 	0.002973186111 	4.011075513e-08 	5.667719082e-06
0.8234210268 	0.00309630218 	0.001119367649 	1.570225418e-08 	0.00302154895 	4.165964113e-08 	5.759912094e-06
0.8262141429 	0.003148951157 	0.001138002897 	1.627193358e-08 	0.003070931041 	4.319521757e-08 	5.854048086e-06
0.8289764348 	0.003202583693 	0.001156998786 	1.68361376e-08 	0.00312129941 	4.47157265e-08 	5.950064195e-06
0.8317082427 	0.003257179131 	0.001176347289 	1.739375821e-08 	0.003172630218 	4.621888623e-08 	6.047914982e-06
0.8344099031 	0.003312719328 	0.00119604176 	1.794354964e-08 	0.003224904331 	4.770177744e-08 	6.14756397e-06
0.8370817486 	0.003369185563 	0.001216075683 	1.848409951e-08 	0.003278103733 	4.916082211e-08 	6.248976817e-06
0.8397241082 	0.003426556248 	0.001236441736 	1.901380333e-08 	0.003332208799 	5.059180983e-08 	6.352116109e-06
0.8423373074 	0.003484805308 	0.001257131122 	1.953084659e-08 	0.003387196328 	5.198993152e-08 	6.456937623e-06
0.844921668 	0.0035439011 	0.001278133115 	2.003319632e-08 	0.003443038205 	5.334980201e-08 	6.563387761e-06
0.8474775082 	0.003603805737 	0.001299434778 	2.051860249e-08 	0.003499700532 	5.466547327e-08 	6.671401906e-06
0.8500051427 	0.003664474706 	0.001321020788 	2.098460991e-08 	0.003557143113 	5.593045256e-08 	6.780903431e-06
0.8525048829 	0.003725856724 	0.001342873357 	2.142858359e-08 	0.003615319187 	5.713774811e-08 	6.891803197e-06
0.8549770366 	0.003787893797 	0.001364972233 	2.184775573e-08 	0.003674175395 	5.827997535e-08 	7.003999488e-06
0.8574219081 	0.003850521541 	0.001387294795 	2.223930951e-08 	0.003733652007 	5.934956907e-08 	7.11737844e-06
0.8598397987 	0.00391366983 	0.001409816279 	2.260051454e-08 	0.003793683505 	6.033914422e-08 	7.231815161e-06
0.862231006 	0.003977263872 	0.001432510179 	2.292890904e-08 	0.00385419962 	6.124199156e-08 	7.347175695e-06
0.8645958245 	0.004041225643 	0.001455348779 	2.322247909e-08 	0.00391512675 	6.205257364e-08 	7.463319738e-06
0.8669345455 	0.004105475391 	0.001478303717 	2.347975015e-08 	0.003976389479 	6.276678984e-08 	7.580103526e-06
0.8692474569 	0.004169932764 	0.001501346407 	2.369973556e-08 	0.004037911726 	6.338185502e-08 	7.697382029e-06
0.8715348435 	0.004234517242 	0.001524448204 	2.388177889e-08 	0.004099617206 	6.38958855e-08 	7.815009824e-06
0.8737969871 	0.004299147954 	0.001547580326 	2.402538935e-08 	0.004161429243 	6.430745693e-08 	7.932840746e-06
0.8760341663 	0.004363743265 	0.001570713694 	2.413018567e-08 	0.004223270335 	6.461544679e-08 	8.050727057e-06
0.8782466565 	0.00442822056 	0.001593818833 	2.419592644e-08 	0.004285061896 	6.481910774e-08 	8.168518945e-06
0.8804347301 	0.004492496344 	0.001616865894 	2.422253797e-08 	0.004346724287 	6.491813688e-08 	8.286064601e-06
0.8825986568 	0.004556486576 	0.001639824766 	2.421016561e-08 	0.004408177103 	6.491281203e-08 	8.403210749e-06
0.8847387028 	0.004620107201 	0.001662665257 	2.41592167e-08 	0.004469339644 	6.480410779e-08 	8.51980355e-06
0.8868551318 	0.004683274769 	0.001685357318 	2.407036434e-08 	0.004530131493 	6.459370687e-08 	8.635689711e-06
0.8889482045 	0.004745907064 	0.001707871263 	2.39445441e-08 	0.00459047311 	6.428399246e-08 	8.750717604e-06
0.8910181784 	0.004807923716 	0.001730177993 	2.378294445e-08 	0.004650286419 	6.387802401e-08 	8.864738395e-06
0.8930653087 	0.004869246793 	0.001752249209 	2.358699181e-08 	0.004709495377 	6.337949842e-08 	8.977607125e-06
0.8950898473 	0.004929801353 	0.001774057616 	2.335833094e-08 	0.004768026513 	6.279269873e-08 	9.089183737e-06
0.8970920436 	0.004989515946 	0.001795577106 	2.309880152e-08 	0.004825809419 	6.212243272e-08 	9.199334017e-06
0.8990721441 	0.005048323061 	0.001816782924 	2.281041185e-08 	0.0048827772 	6.137396355e-08 	9.307930442e-06
0.9010303927 	0.005106159513 	0.00183765181 	2.249531048e-08 	0.004938866858 	6.055293482e-08 	9.414852919e-06
0.9029670306 	0.005162966764 	0.001858162123 	2.215575661e-08 	0.004994019617 	5.96652924e-08 	9.519989407e-06
0.9048822962 	0.005218691167 	0.001878293932 	2.179409004e-08 	0.005048181183 	5.871720496e-08 	9.623236404e-06
0.9067764254 	0.00527328415 	0.001898029091 	2.141270143e-08 	0.005101301936 	5.771498517e-08 	9.724499324e-06
0.9086496514 	0.005326702321 	0.00191735128 	2.101400341e-08 	0.005153337059 	5.666501339e-08 	9.823692731e-06
0.910502205 	0.005378907513 	0.001936246024 	2.060040323e-08 	0.005204246595 	5.557366509e-08 	9.920740456e-06
0.9123343142 	0.005429866754 	0.001954700694 	2.017427729e-08 	0.005253995446 	5.444724332e-08 	1.001557559e-05
0.9141462048 	0.005479552178 	0.00197270448 	1.973794794e-08 	0.005302553311 	5.329191719e-08 	1.010814038e-05
0.9159380997 	0.005527940889 	0.00199024834 	1.929366283e-08 	0.005349894569 	5.211366691e-08 	1.019838598e-05
0.9177102197 	0.005575014755 	0.002007324942 	1.884357692e-08 	0.005395998112 	5.091823592e-08 	1.028627214e-05
0.9194627831 	0.005620760173 	0.002023928576 	1.838973731e-08 	0.005440847135 	4.971109032e-08 	1.037176684e-05
0.9211960055 	0.005665167788 	0.002040055065 	1.793407076e-08 	0.005484428886 	4.849738554e-08 	1.045484577e-05
0.9229101006 	0.005708232175 	0.002055701654 	1.747837401e-08 	0.00552673439 	4.728194013e-08 	1.053549182e-05
0.9246052793 	0.00574995151 	0.002070866892 	1.702430668e-08 	0.005567758143 	4.606921649e-08 	1.06136945e-05