0.2166759971 	0.01819071539 	0.006240455156 	-7.685357896e-06
0.2166759971 	0.01819071539 	0.006240455156 	-7.685357896e-06
0.2169324293 	0.06064596153 	0.020743122 	-2.824725307e-05
0.2171888698 	0.1205690744 	0.04118737773 	-5.774880202e-05
0.2174453166 	0.1797294503 	0.06138108838 	-8.850180164e-05
0.2177017676 	0.2380793097 	0.08129090694 	-0.0001203677211
0.2179582206 	0.2955379097 	0.1008846471 	-0.000153185467
0.2182146735 	0.3519874364 	0.1201217472 	-0.0001867529446
0.2184711242 	0.4072711181 	0.1389483491 	-0.0002208182006
0.2187275707 	0.4611984572 	0.1572985756 	-0.0002550868908
0.2189840108 	0.5135603853 	0.1751005488 	-0.0002892489884
0.2192404424 	0.5641684994 	0.1922900617 	-0.000323056864
0.2194968635 	0.6129000105 	0.2088240874 	-0.0003563118684
0.2197532719 	0.6596751195 	0.2246737151 	-0.0003887572867
0.2200096656 	0.7044064556 	0.2398087994 	-0.0004201147731
0.2202660425 	0.7470052264 	0.2541986596 	-0.000450051964
0.2205224004 	0.7873998926 	0.2678179754 	-0.0004570312932
0.2207787375 	0.8255367477 	0.2806476995 	-0.0004608849982
0.2210350515 	0.8613802453 	0.2926751129 	-0.000461793382
0.2212913404 	0.8949131268 	0.3038938369 	-0.0004599646977
0.2215476021 	0.9261363794 	0.3143038339 	-0.0004556306351
0.2218038346 	0.9550689447 	0.3239113263 	-0.0004490405485
0.2220600359 	0.9817470382 	0.3327285744 	-0.0004404549482
0.2223162038 	1.006222998 	0.3407734871 	-0.0004301390168
0.2225723364 	1.028563704 	0.3480690822 	-0.0004183568173
0.2228284315 	1.048848716 	0.3546428478 	-0.0004053664624
0.2230844872 	1.0671683 	0.3605260659 	-0.0003914160753
0.2233405014 	1.083621489 	0.3657531409 	-0.0003767402241
0.223596472 	1.098314206 	0.3703609547 	-0.0003615567696
0.2238523971 	1.111357434 	0.3743882414 	-0.0003460638005
0.2241082746 	1.122865235 	0.3778749054 	-0.000330434156
0.2243641025 	1.134256824 	0.3812500287 	-0.0003142231274
0.2247614969 	1.146159303 	0.3846263761 	-0.0002909085426
0.2251662243 	1.156785955 	0.3874687144 	-0.0002676635945
0.2255784092 	1.165294841 	0.3895505844 	-0.0002455956436
0.2259981774 	1.172138333 	0.3910299913 	-0.0002246780128
0.2264256561 	1.177717657 	0.3920447639 	-0.0002045227407
0.2268609739 	1.182307909 	0.3926930487 	-0.0001848358824
0.2273042604 	1.18610062 	0.3930438257 	-0.0001654853229
0.2277556468 	1.189250433 	0.393151041 	-0.0001463948765
0.2282152651 	1.191884381 	0.3930592541 	-0.0001274931097
0.2286832487 	1.194105072 	0.3928047564 	-0.00010871495
0.2291597319 	1.195994362 	0.3924165346 	-9.000696043e-05
0.2296448501 	1.197616966 	0.3919175089 	-7.132791285e-05
0.2301387393 	1.199023768 	0.3913257125 	-5.264758388e-05
0.2306415368 	1.200254677 	0.3906553045 	-3.394500873e-05
0.2311533802 	1.201340995 	0.3899174137 	-1.520666498e-05
0.2315746914 	1.20212201 	0.3892729442 	-1.038221308e-05
0.2316736368 	1.202303929 	0.3891224513 	-3.445945091e-06
0.2321998972 	1.203152037 	0.3882824954 	-2.159706899e-05
0.232735561 	1.203915472 	0.3873952969 	-3.979350513e-05
0.2332807678 	1.204605871 	0.3864663437 	-5.803580259e-05
0.2338356578 	1.205231642 	0.3854994614 	-7.632422669e-05
0.234400371 	1.205798035 	0.3844948611 	-9.463468656e-05
0.2349750476 	1.206307048 	0.3834528831 	-0.0001129334336
0.2355598274 	1.206759636 	0.3823732716 	-0.0001311994259
0.2361548499 	1.207157277 	0.3812559875 	-0.0001494287798
0.2367621268 	1.207504279 	0.380093293 	-0.0001676625702
0.2373985929 	1.207805904 	0.3788753292 	-0.0001864061138
0.2380464066 	1.208060032 	0.3776139801 	-0.0002050938228
0.2387057606 	1.208269221 	0.3763186991 	-0.0002237366252
0.2393768505 	1.208438037 	0.3749911223 	-0.0002423344249
0.2400598753 	1.208571194 	0.373632966 	-0.0002608875277
0.2407550367 	1.208673422 	0.3722459693 	-0.0002793973581
0.2414625396 	1.208749319 	0.3708318424 	-0.0002978649036
0.2421825923 	1.20880323 	0.369392217 	-0.0003162896582
0.2429154061 	1.208839143 	0.3679286054 	-0.0003332416838
0.2436611955 	1.208860621 	0.3664423697 	-0.0003093079567
0.2444201783 	1.20887076 	0.3649347058 	-0.0002854420136
0.2451925759 	1.208872178 	0.3634066367 	-0.0002616435808
0.2459786127 	1.208867036 	0.3618590175 	-0.0002379134371
0.2467785167 	1.208857063 	0.3602925465 	-0.0002142539425
0.2475925196 	1.208843614 	0.3587077832 	-0.0001906693107
0.2484208561 	1.208827713 	0.3571051678 	-0.0001671656671
0.249263765 	1.208810117 	0.3554850421 	-0.0001437509521
0.2501214883 	1.208791364 	0.3538476698 	-0.0001204347253
0.250994272 	1.20877182 	0.3521932557 	-9.722792381e-05
0.2518823657 	1.208751724 	0.3505219612 	-7.414261218e-05
0.2527860226 	1.208731223 	0.3488339168 	-5.119175252e-05
0.2537055001 	1.208710396 	0.3471292362 	-2.838901942e-05
0.2546410591 	1.208689276 	0.3454080367 	-5.748639029e-06
0.2548826011 	1.208683817 	0.3449650424 	-2.789252162e-05
0.2555884152 	1.208650999 	0.3436677549 	-1.63078118e-05
0.2565643833 	1.208606614 	0.3418914337 	-3.836363415e-05
0.2575742631 	1.208562038 	0.3400764598 	-6.059896964e-05
0.2586016703 	1.208516495 	0.3382377458 	-8.260891946e-05
0.2596468899 	1.208470637 	0.3363825554 	-0.0001043792899
0.2607102115 	1.208424414 	0.3345109931 	-0.0001258940789
0.2617919288 	1.208377765 	0.3326232008 	-0.0001471371108
0.2628923399 	1.208330627 	0.3307193045 	-0.0001680919729
0.2640117474 	1.208282967 	0.3287993691 	-0.0001887418934
0.2651504585 	1.208234756 	0.326863782 	-0.0002090706954
0.2663087847 	1.208185759 	0.3249135398 	-0.00022906398
0.2674870424 	1.208110822 	0.3227096257 	-0.000231934064
0.2692922725 	1.20806195 	0.3199714572 	-0.0001939011326
0.2711132944 	1.207989926 	0.3170098018 	-0.0001569005678
0.272950246 	1.207918945 	0.3140665487 	-0.0001212751411
0.2748032671 	1.20784635 	0.3111218835 	-8.700389993e-05
0.2767228117 	1.207775563 	0.3081515317 	-5.324005281e-05
0.2786640575 	1.207702372 	0.3051774563 	-2.083222456e-05
0.2799709177 	1.207653295 	0.3032020912 	-6.333882638e-05
0.2806184122 	1.207617291 	0.3022198354 	-1.001690688e-05
0.2825825063 	1.207510025 	0.2992780732 	-3.926858451e-05
0.2845635642 	1.207401927 	0.2963541936 	-6.718590483e-05
0.2865617386 	1.207292729 	0.2934483106 	-9.378103438e-05
0.288577185 	1.207182182 	0.2905605109 	-0.000119066921
0.2906100617 	1.207070036 	0.2876909289 	-0.0001430574757
0.2926605296 	1.206954456 	0.284827302 	-0.0001657518197
0.2947666598 	1.206836867 	0.2819487673 	-0.0001488739532
0.2969108531 	1.20671588 	0.2790635968 	-0.0001196408946
0.2990732172 	1.206591386 	0.276192769 	-9.179130517e-05
0.3012539222 	1.206463882 	0.2733427598 	-6.531355056e-05
0.3034531416 	1.206333047 	0.2705134645 	-4.018802999e-05
0.3056710521 	1.206198558 	0.2677048496 	-1.639456254e-05
0.3072890931 	1.20609911 	0.265686566 	-5.077135926e-05
0.3079050505 	1.206053355 	0.2649139112 	-6.114023717e-06
0.3101508644 	1.205885674 	0.2621271598 	-2.744127317e-05
0.3124433238 	1.205713236 	0.2593335492 	-4.780524791e-05
0.314787554 	1.20553599 	0.256532449 	-6.721171281e-05
0.3171515198 	1.205353156 	0.2537437346 	-8.536707105e-05
0.3195354192 	1.205165713 	0.2509767774 	-0.0001023005904
0.3219394548 	1.204973333 	0.2482313547 	-0.0001168246315
0.3243638334 	1.204775676 	0.2455073551 	-9.510852931e-05
0.3268087664 	1.204572121 	0.2428029938 	-7.46163388e-05
0.3292812814 	1.204360275 	0.2401023659 	-5.526490459e-05
0.331828573 	1.204141744 	0.2373919898 	-3.672227515e-05
0.3343970604 	1.203914176 	0.234690637 	-1.93974026e-05
0.3369869718 	1.203679454 	0.2320125336 	-3.266548685e-06
0.3375406268 	1.203628812 	0.2314485671 	-3.799435907e-05
0.3395913201 	1.203423725 	0.2293453538 	-1.200777754e-05
0.3422157185 	1.203157502 	0.2266969924 	-2.626960114e-05
0.3448623645 	1.202882921 	0.2240640557 	-3.946771225e-05
0.3475593892 	1.202598932 	0.2214314517 	-5.176279239e-05
0.3503118469 	1.202305254 	0.2187985706 	-6.316369485e-05
0.3530872581 	1.202001826 	0.2161814673 	-7.352715235e-05
0.3558858906 	1.201689757 	0.2135876547 	-6.707465788e-05
0.3587080186 	1.201368727 	0.2110167242 	-5.286846081e-05
0.3615539235 	1.201037294 	0.2084636676 	-3.969054053e-05
0.3644469882 	1.200693828 	0.2059150991 	-2.741278961e-05
0.3674013141 	1.200338162 	0.2033681505 	-1.598371652e-05
0.370380176 	1.199970239 	0.2008371729 	-5.537790804e-06
0.372097595 	1.19975476 	0.1994024554 	-7.271637914e-05
0.3733804333 	1.199586864 	0.1983231046 	-4.173417521e-06
0.3764013563 	1.199186945 	0.1958231182 	-1.327021486e-05
0.3794479012 	1.198774237 	0.1933370607 	-2.150544357e-05
0.3825670015 	1.198348167 	0.1908522873 	-2.903215851e-05
0.3857243248 	1.197908031 	0.1883769517 	-3.57553343e-05
0.388908125 	1.197455646 	0.1859231132 	-4.167883714e-05
0.3921187603 	1.196991349 	0.1834925964 	-4.441000169e-05
0.3953565983 	1.196513028 	0.1810789807 	-3.546054143e-05
0.3986571242 	1.196019271 	0.1786712537 	-2.722290128e-05
0.4020072152 	1.195509653 	0.1762724049 	-1.97228983e-05
0.405385442 	1.194985622 	0.1738933309 	-1.29839641e-05
0.4087922113 	1.194448061 	0.1715374493 	-6.969712922e-06
0.4122279406 	1.193894406 	0.169197462 	-1.642732492e-06
0.4133956475 	1.193705326 	0.1684200598 	-5.322059255e-05
0.4157317818 	1.193320201 	0.1668543273 	-3.406361179e-06
0.4192741829 	1.192727571 	0.164518877 	-7.984497222e-06
0.4228467454 	1.192120343 	0.1622050378 	-1.195092011e-05
0.426449931 	1.191498083 	0.1599120008 	-1.534051436e-05
0.4300987495 	1.190858249 	0.1576313817 	-1.819923235e-05
0.4338161841 	1.190200102 	0.1553592719 	-2.056787694e-05
0.437565381 	1.189524681 	0.1531044668 	-2.243716202e-05
0.4413468516 	1.18883366 	0.1508721392 	-1.83408938e-05
0.4451628312 	1.188124115 	0.1486551408 	-1.426391222e-05
0.4490590092 	1.187394677 	0.1464459873 	-1.064878901e-05
0.452988707 	1.186646107 	0.1442524834 	-7.518672386e-06
0.4569524913 	1.185880686 	0.1420810442 	-4.842322677e-06
0.4609521059 	1.185095593 	0.139925358 	-2.586217689e-06
0.4650310796 	1.184289211 	0.137778669 	-7.026776387e-07
0.4668357211 	1.183927431 	0.1368437912 	-6.345671341e-05
0.4691427018 	1.183462079 	0.1356422575 	-1.009454576e-06
0.4732883754 	1.182616314 	0.1335223299 	-2.524164901e-06
0.4774803843 	1.181749784 	0.1314174116 	-3.713020993e-06
0.4817421683 	1.18086121 	0.129323948 	-4.604467733e-06
0.4860417401 	1.179951859 	0.1272477384 	-5.210798209e-06
0.4903797886 	1.179021864 	0.1251899722 	-5.558467723e-06
0.4947803999 	1.178068975 	0.1231452371 	-5.673806958e-06
0.4992354499 	1.177092996 	0.1211144856 	-5.57478798e-06
0.5037306601 	1.176095151 	0.1191018592 	-5.007764361e-06
0.5082724463 	1.175073864 	0.1171048104 	-3.68152032e-06
0.5128848545 	1.174027481 	0.1151199289 	-2.583483997e-06
0.5175392283 	1.172957128 	0.1131514557 	-1.700755908e-06
0.5222363808 	1.171862394 	0.1111996834 	-1.011886202e-06
0.5270041097 	1.170741025 	0.1092603126 	-4.95081338e-07
0.5318200389 	1.169593496 	0.1073359002 	-1.3559337e-07
0.536680741 	1.168419859 	0.1054278644 	8.445986241e-08
0.5416066469 	1.167218062 	0.1035329409 	1.820588396e-07
0.5465869844 	1.165987926 	0.1016521552 	1.723794707e-07
0.5516142321 	1.164729377 	0.09978690729 	7.056564797e-08
0.5538787761 	1.164156558 	0.09896320868 	-5.392026142e-05
0.5567044034 	1.163441238 	0.09793259945 	2.30860947e-08
0.5618504434 	1.162122977 	0.09609056212 	1.240726546e-07
0.5670458373 	1.160773733 	0.09426365039 	2.907978443e-07
0.5723074182 	1.159391634 	0.09244979299 	5.123821397e-07
0.5776256405 	1.157976247 	0.09064977907 	7.770149544e-07
0.5829956533 	1.15652681 	0.08886411583 	1.074501604e-06
0.5884355186 	1.155041204 	0.08709077293 	1.396815957e-06
0.5939304637 	1.153519074 	0.08533089848 	1.733623954e-06
0.5994826701 	1.151959334 	0.08358446911 	2.077983732e-06
0.6051035232 	1.150364259 	0.08185447015 	2.422989047e-06
0.6107177553 	1.148747151 	0.08015606989 	2.757555687e-06
0.6162709517 	1.147121162 	0.07850185043 	3.07477632e-06
0.6217637219 	1.145490443 	0.07689385319 	3.369877316e-06
0.6271906782 	1.143855271 	0.0753306119 	3.640551815e-06
0.6325614689 	1.142215158 	0.07380944968 	3.886281131e-06
0.6378707857 	1.140570549 	0.07232904608 	4.104497999e-06
0.6431174905 	1.138921603 	0.07088794649 	4.295723344e-06
0.6483109099 	1.137267655 	0.069483716 	4.460489652e-06
0.6534436975 	1.135609272 	0.0681154919 	4.59788026e-06
0.6585173111 	1.133946496 	0.06678192747 	4.709716403e-06
0.6635382093 	1.132278692 	0.06548102716 	4.796724478e-06
0.6685009905 	1.130606285 	0.06421204038 	4.859197005e-06
0.6734071819 	1.128929198 	0.06297374814 	4.899319157e-06
0.6782617452 	1.127246853 	0.06176451821 	4.917925269e-06
0.6830606945 	1.125559571 	0.06058368455 	4.915681622e-06
0.6878050043 	1.123867262 	0.05943023432 	4.894437941e-06
0.6924993045 	1.122169356 	0.05830269981 	4.857160508e-06
0.6971402893 	1.120466051 	0.05720044237 	4.805624973e-06
0.7017288018 	1.118756985 	0.05612250735 	4.744096214e-06
0.7062680543 	1.117041003 	0.05506729246 	4.68307212e-06
0.7107566673 	1.115317676 	0.05403399822 	4.623341113e-06
0.715194862 	1.11358679 	0.05302192444 	4.55445277e-06
0.7195845239 	1.111848156 	0.05203012755 	4.471905429e-06
0.723926108 	1.110102308 	0.05105835519 	4.370919068e-06
0.7282191882 	1.108349931 	0.05010645093 	4.245396337e-06
0.732464596 	1.106591233 	0.04917392393 	4.101433449e-06
0.7366642635 	1.104826078 	0.04826026648 	3.947105312e-06
0.7408172213 	1.103054377 	0.04736506651 	3.785733927e-06
0.7449241094 	1.101275831 	0.046487806 	3.620617161e-06
0.7489861562 	1.099489903 	0.04562778433 	3.453554343e-06
0.7530037844 	1.097696208 	0.04478446425 	3.284421144e-06
0.7569769893 	1.095894488 	0.04395743636 	3.113639705e-06
0.7609063522 	1.094084337 	0.04314617559 	2.941867568e-06
0.7647930889 	1.092265263 	0.04235012293 	2.76953448e-06
0.7686371274 	1.090436935 	0.04156887892 	2.596766968e-06
0.7724388481 	1.088599035 	0.04080208273 	2.424427757e-06
0.7761987843 	1.086751091 	0.04004926565 	2.253336831e-06
0.7799179674 	1.084892607 	0.03930996763 	2.083826024e-06
0.7835963191 	1.08302323 	0.03858385445 	1.916040296e-06
0.7872343077 	1.081142598 	0.03787060244 	1.750564707e-06
0.7908324259 	1.079250232 	0.03716981558 	1.587906515e-06
0.7943914833 	1.077345646 	0.03648110775 	1.428217952e-06
0.7979115777 	1.075428452 	0.0358041848 	1.27147952e-06
0.8013931357 	1.073498255 	0.03513876514 	1.118071787e-06
0.8048366157 	1.071554586 	0.03448452296 	9.683512783e-07
0.8082426297 	1.069596964 	0.03384112553 	8.225323789e-07
0.8116114793 	1.067624964 	0.0332082994 	6.805444374e-07
0.8149435088 	1.065638185 	0.0325857986 	5.426749488e-07
0.8182391471 	1.0636362 	0.03197335167 	4.091809287e-07
0.8214988533 	1.061618559 	0.03137067713 	2.802187902e-07
0.8247230973 	1.059584826 	0.03077752531 	1.555922198e-07
0.827912141 	1.05753458 	0.03019369549 	3.529017604e-08
0.8288611916 	1.056912555 	0.03002074657 	-9.026956508e-06
0.8310661903 	1.055467874 	0.02961872304 	9.092074912e-08
0.8341857644 	1.053383941 	0.02905250182 	2.164514462e-07
0.8372713925 	1.051282255 	0.02849481679 	3.365120647e-07
0.8403234159 	1.049162873 	0.02794535069 	4.508849525e-07
0.8433421648 	1.047026281 	0.02740387372 	5.592729538e-07
0.8463280141 	1.044872616 	0.02687011783 	6.615468133e-07
0.849281333 	1.042701418 	0.02634382857 	7.575308875e-07
0.8522025182 	1.040512048 	0.0258249006 	8.47927295e-07
0.8550918897 	1.038303452 	0.0253132508 	9.337825188e-07
0.8579497779 	1.036074639 	0.024808812 	1.015449972e-06
0.860776533 	1.033824936 	0.02431153151 	1.093441431e-06
0.8635725003 	1.031553619 	0.02382128693 	1.167450326e-06
0.8663380328 	1.029259919 	0.02333791544 	1.236617038e-06
0.8690734556 	1.026943001 	0.02286127037 	1.300945069e-06
0.8717790778 	1.02460197 	0.02239122553 	1.360702374e-06
0.8744552277 	1.022235842 	0.02192765004 	1.415991904e-06
0.8771022294 	1.019843528 	0.02147041861 	1.466844237e-06
0.879720403 	1.017423832 	0.02101940622 	1.513299123e-06
0.8823100742 	1.014975453 	0.02057448599 	1.555464667e-06
0.8848715319 	1.012496979 	0.02013554794 	1.593476471e-06
0.8874050831 	1.009986865 	0.01970248616 	1.627396768e-06
0.889911033 	1.007443379 	0.01927518914 	1.657290539e-06
0.8923896828 	1.004864544 	0.01885355402 	1.683227057e-06
0.8948413303 	1.002248034 	0.01843747695 	1.705276488e-06
0.8972662729 	0.9995910469 	0.01802685524 	1.723548142e-06
0.8996647878 	0.9968901463 	0.01762159882 	1.738140964e-06
0.902037163 	0.9941410695 	0.01722161579 	1.749101988e-06
0.9043836826 	0.9913385258 	0.01682680647 	1.756465885e-06
0.9067046279 	0.9884760178 	0.01643706965 	1.760255314e-06
0.9090002764 	0.9855457042 	0.01605229611 	1.760481035e-06
0.9112709039 	0.9825383287 	0.0156723604 	1.75715482e-06
0.9135167756 	0.9794432365 	0.01529713229 	1.750304074e-06
0.9157381588 	0.9762484846 	0.01492647217 	1.739919699e-06
0.9179353193 	0.9729410412 	0.01456022122 	1.725993325e-06
0.9201085197 	0.9695070651 	0.01419821185 	1.708525624e-06
0.9222580196 	0.965932242 	0.01384027084 	1.687529541e-06
0.9243840758 	0.962202133 	0.01348621767 	1.663029277e-06
0.9264869418 	0.9583024868 	0.01313586769 	1.635069741e-06
0.9285668654 	0.9542194702 	0.01278904373 	1.603704453e-06
0.930624095 	0.9499397718 	0.01244557069 	1.56897052e-06
0.9326588765 	0.9454505595 	0.01210527108 	1.530898919e-06
0.9346714528 	0.9407393119 	0.01176796969 	1.459855496e-06
0.9366620643 	0.9357935893 	0.01143349147 	1.360677396e-06
0.9386309488 	0.9306008827 	0.011101661 	1.26450822e-06
0.9405783414 	0.9251488212 	0.01077230565 	1.171274675e-06
0.9425044729 	0.9194262976 	0.01044527905 	1.080886138e-06
0.9444095732 	0.913426691 	0.0101204859 	9.932393422e-07
0.94629387 	0.9076958315 	0.009825080523 	9.137305392e-07
0.947521422 	0.9029043308 	0.009587593827 	8.537905724e-07
0.9487264187 	0.8986174499 	0.009381010789 	8.009920622e-07
0.9499092729 	0.8943070486 	0.009178331883 	7.499088622e-07
0.9510703901 	0.8899723306 	0.008979294075 	7.00632612e-07
0.9522101683 	0.8856089014 	0.008783614659 	6.532478838e-07
0.9533289981 	0.8812120442 	0.008591027095 	6.077917202e-07
0.9544272634 	0.8767780822 	0.008401294048 	5.642531104e-07
0.9555053405 	0.8723047138 	0.00821421695 	5.225842963e-07
0.9565635991 	0.8677908585 	0.008029635716 	4.827174676e-07
0.9576024024 	0.863236315 	0.007847420927 	4.445775413e-07
0.9586221067 	0.8586413944 	0.007667466493 	4.080903364e-07
0.9596230621 	0.8540066023 	0.007489683589 	3.731877477e-07
0.9606056123 	0.8493323936 	0.007313995366 	3.39809626e-07
0.9615700946 	0.8446189999 	0.007140333251 	3.079035252e-07
0.9625168402 	0.8398663164 	0.006968634585 	2.774233567e-07
0.9634461743 	0.8350738317 	0.006798841255 	2.483277186e-07
0.9643584161 	0.8302405878 	0.006630898991 	2.205783643e-07
0.9652538791 	0.8253651594 	0.006464757094 	1.941390307e-07
0.966132871 	0.820445643 	0.006300368397 	1.689746677e-07
0.9669956939 	0.8154796532 	0.006137689353 	1.450510199e-07
0.9678426443 	0.8104643228 	0.005976680197 	1.223344708e-07
0.9686740136 	0.8053963035 	0.005817305094 	1.007920515e-07
0.9694900875 	0.8002717685 	0.005659531874 	8.039148446e-08
0.9702911465 	0.7950864157 	0.005503332624 	6.110127026e-08
0.9710774664 	0.7898354706 	0.005348683897 	4.289105158e-08
0.9718493174 	0.7845136894 	0.005195566169 	2.573154513e-08
0.9726069652 	0.7791153614 	0.005043964137 	9.594573474e-09
0.9733506705 	0.7736343103 	0.00489386683 	-5.546895608e-09
0.9740806893 	0.7680638944 	0.004745267564 	-1.971874606e-08
0.9747972728 	0.7623970046 	0.004598163932 	-3.294571285e-08
0.9755006677 	0.7566260603 	0.004452557788 	-4.525141102e-08
0.9761911162 	0.7507430028 	0.004308455224 	-5.665844284e-08
0.9768688561 	0.744739286 	0.00416586649 	-6.718844831e-08
0.9775341206 	0.7386058672 	0.00402480594 	-7.686210868e-08
0.9781871391 	0.7323331972 	0.003885291989 	-8.569928636e-08
0.9788281363 	0.7259112085 	0.003747347065 	-9.37191588e-08
0.9794573332 	0.7193293016 	0.003610997537 	-1.009402943e-07
0.9800749465 	0.7125763285 	0.00347627366 	-1.073807881e-07
0.980681189 	0.7056405761 	0.003343209508 	-1.130584287e-07
0.9812762697 	0.6985097495 	0.003211842903 	-1.179908642e-07
0.9818603936 	0.6911709573 	0.003082215327 	-1.221957649e-07
0.9824337622 	0.6836107012 	0.002954371828 	-1.256909859e-07
0.9829965731 	0.6758148697 	0.002828360922 	-1.284947345e-07
0.9835490203 	0.6677687406 	0.002704234487 	-1.306257396e-07
0.9840912943 	0.659456993 	0.002582047571 	-1.32103462e-07
0.9846235821 	0.650863731 	0.002461858203 	-1.329484558e-07
0.9851460674 	0.6419725159 	0.002343727007 	-1.331830923e-07
0.9856589302 	0.6327663831 	0.002227716428 	-1.328314142e-07
0.9861623475 	0.6232277292 	0.002113892703 	-1.319154333e-07
0.986656493 	0.6133375437 	0.002002325521 	-1.304746842e-07
0.9871415372 	0.6030749597 	0.001893078528 	-1.285510901e-07
0.9876176474 	0.5924188345 	0.001786218957 	-1.261554037e-07
0.9880849879 	0.5813492281 	0.001681823381 	-1.233044318e-07
0.98854372 	0.5698469295 	0.001579966479 	-1.200320297e-07
0.9889940021 	0.5578928425 	0.001480722674 	-1.163703226e-07
0.9894359896 	0.5454680662 	0.001384167684 	-1.123534786e-07
0.989869835 	0.5325541707 	0.001290378089 	-1.080177425e-07
0.9902956881 	0.5191334979 	0.001199435852 	-1.034014562e-07
0.9907136959 	0.505189068 	0.001111426476 	-9.854380087e-08
0.9911240028 	0.4919597767 	0.001033511404 	-9.38388499e-08
0.9913880804 	0.4808518766 	0.0009720276778 	-9.00417143e-08
0.9916521624 	0.4706835394 	0.0009186896637 	-8.65110744e-08
0.9919162487 	0.4601099755 	0.0008660386364 	-8.287090732e-08
0.9921803393 	0.4491168485 	0.0008141300293 	-7.91307996e-08
0.9924444343 	0.437690314 	0.0007630279453 	-7.530210026e-08
0.9927085336 	0.4258168247 	0.0007128016273 	-7.139713767e-08
0.9929726373 	0.4134832996 	0.0006635242027 	-6.742888221e-08
0.9932367454 	0.4006773594 	0.0006152757245 	-6.341076032e-08
0.9935008577 	0.3873875946 	0.0005681391892 	-5.935798134e-08
0.9937649745 	0.37360386 	0.0005221559051 	-5.529243891e-08
0.9940290955 	0.3593175506 	0.0004772746761 	-5.123991316e-08
0.9942932209 	0.344521219 	0.0004339827248 	-4.713726594e-08
0.9945573507 	0.329190619 	0.0003924961677 	-4.306715478e-08
0.9948214848 	0.3132867305 	0.000352119023 	-3.916633852e-08
0.9950856233 	0.2967985087 	0.0003130539339 	-3.528431094e-08
0.9953497661 	0.2797467728 	0.0002758500137 	-3.141543775e-08
0.9956139132 	0.2621627099 	0.0002405001148 	-2.767926293e-08
0.9958780647 	0.2440843254 	0.0002070932873 	-2.40780513e-08
0.9961422205 	0.2255532127 	0.0001757729842 	-2.063233291e-08
0.9964063807 	0.206610946 	0.0001466784612 	-1.73713432e-08
0.9966705452 	0.1872957732 	0.0001199318962 	-1.43232764e-08
0.9969347141 	0.1676401911 	9.563916398e-05 	-1.151303513e-08
0.9971988873 	0.1476697077 	7.389279408e-05 	-8.962787149e-09
0.9974630649 	0.1274027704 	5.477631597e-05 	-6.692995257e-09
0.9977272468 	0.1068515965 	3.83750734e-05 	-4.722431515e-09
0.9979914331 	0.08602353161 	2.480157503e-05 	-3.066285254e-09
0.9982556237 	0.0649225759 	1.416897761e-05 	-1.741543884e-09
0.9985198186 	0.04355079762 	6.29914146e-06 	-8.023666705e-10
0.9987840179 	0.0219094585 	4.136237289e-08 	-3.840984444e-10
0.9990482216 	0.009149811441 	-2.420965597e-06 	-2.709665436e-10
