0.4709558481 	0.008034852594 	3.809490434e-10 	-6.202393634e-14
0.4709558481 	0.008034852594 	3.809490434e-10 	-6.202393634e-14
0.4711314108 	0.02209391427 	4.831436939e-09 	-7.619696704e-13
0.4713069734 	0.0441636309 	1.813507782e-08 	-2.818489529e-12
0.471482536 	0.06620706554 	4.135040293e-08 	-6.295349514e-12
0.4716580986 	0.08822054324 	7.561911689e-08 	-1.1185855e-11
0.4718336613 	0.1101991854 	1.223542237e-07 	-1.746153688e-11
0.4720092239 	0.1321359075 	1.829204614e-07 	-2.510979443e-11
0.4721847865 	0.1540201011 	2.575701089e-07 	-3.411903539e-11
0.4723603491 	0.1758360989 	3.442401949e-07 	-4.447293243e-11
0.4725359118 	0.1975615971 	4.378629852e-07 	-5.615068424e-11
0.4727114744 	0.2191663056 	5.310931042e-07 	-6.912870538e-11
0.472887037 	0.2406111679 	6.168943897e-07 	-8.338202988e-11
0.4730625996 	0.2618485085 	6.920591808e-07 	-9.888333938e-11
0.4732381623 	0.2828233723 	7.595007575e-07 	-1.155993447e-10
0.4734137249 	0.3034761055 	8.282096449e-07 	-1.334929597e-10
0.4735892875 	0.3237459253 	9.129083963e-07 	-1.525397825e-10
0.4737648501 	0.3435749437 	1.029261018e-06 	-1.7268941e-10
0.4739404128 	0.3629119601 	1.152724131e-06 	-1.935872882e-10
0.4741159754 	0.3817154078 	1.127020263e-06 	-2.143302764e-10
0.474291538 	0.3999551525 	1.195325662e-06 	-2.38619638e-10
0.4744671006 	0.4176302465 	1.699278014e-06 	-2.648618955e-10
0.4746426632 	0.4347781287 	2.111691591e-06 	-2.871244369e-10
0.4748182259 	0.4514372061 	2.147375308e-06 	-3.110450575e-10
0.4749937885 	0.4676212487 	2.21000989e-06 	-3.384056857e-10
0.4751693511 	0.4833338683 	2.401419664e-06 	-3.656397844e-10
0.4753449137 	0.4985796143 	2.612738012e-06 	-3.933433416e-10
0.4755204764 	0.5133643457 	2.82471857e-06 	-4.217844289e-10
0.475696039 	0.527694997 	3.043159958e-06 	-4.509349531e-10
0.4758716016 	0.5415793994 	3.2672001e-06 	-4.807416283e-10
0.4760471642 	0.5550267404 	3.486072582e-06 	-5.11163741e-10
0.4762227269 	0.5698275777 	3.741120355e-06 	-5.464869829e-10
0.4764955107 	0.5876228339 	4.108725322e-06 	-5.916783954e-10
0.4767734216 	0.6065921042 	4.549030244e-06 	-6.432782919e-10
0.4770565557 	0.6250650544 	5.000209046e-06 	-6.97194332e-10
0.4773450114 	0.6430478802 	5.474568425e-06 	-7.534780551e-10
0.4776388886 	0.6605476941 	5.979771889e-06 	-8.121888082e-10
0.4779382892 	0.6775729854 	6.517071416e-06 	-8.733838088e-10
0.4782433171 	0.6941332578 	7.087400217e-06 	-9.371213782e-10
0.4785540779 	0.7102386161 	7.692205598e-06 	-1.003462091e-09
0.4788706795 	0.725899544 	8.333031529e-06 	-1.072467121e-09
0.4791932316 	0.7411274838 	9.01126478e-06 	-1.144196294e-09
0.4795218461 	0.7559361516 	9.728212454e-06 	-1.218713429e-09
0.4798566368 	0.7703404859 	1.048547354e-05 	-1.296093053e-09
0.48019772 	0.7843539008 	1.128494517e-05 	-1.37641622e-09
0.4805452138 	0.7979882516 	1.212844933e-05 	-1.459765817e-09
0.4808992388 	0.8112549817 	1.301774183e-05 	-1.546228345e-09
0.4812599177 	0.8241653364 	1.39546908e-05 	-1.635895215e-09
0.4816273755 	0.8367303781 	1.494125305e-05 	-1.728862796e-09
0.4820017397 	0.8489609657 	1.597945517e-05 	-1.825232667e-09
0.48238314 	0.8608677363 	1.707139812e-05 	-1.925112081e-09
0.4827717088 	0.8724610943 	1.821926614e-05 	-2.028614476e-09
0.4831675807 	0.8837512095 	1.942533508e-05 	-2.135860003e-09
0.4835708931 	0.8947480213 	2.069198054e-05 	-2.246976073e-09
0.4839817856 	0.905461249 	2.202168648e-05 	-2.362097926e-09
0.4844004009 	0.9159004053 	2.341705432e-05 	-2.481369247e-09
0.4848268841 	0.9260748129 	2.488081389e-05 	-2.604942807e-09
0.485261383 	0.935993621 	2.641583754e-05 	-2.732981184e-09
0.4857040484 	0.9456658221 	2.802514066e-05 	-2.865657597e-09
0.4861550336 	0.9551002648 	2.971187851e-05 	-3.003156085e-09
0.4866144951 	0.964305665 	3.147938546e-05 	-3.145672166e-09
0.4870825921 	0.9732906202 	3.333120846e-05 	-3.293414916e-09
0.487559487 	0.9820636287 	3.527108507e-05 	-3.446607343e-09
0.4880453452 	0.99063311 	3.730294069e-05 	-3.605485953e-09
0.4885403351 	0.9990074216 	3.943092194e-05 	-3.770302046e-09
0.4890446283 	1.007194872 	4.165941797e-05 	-3.941323064e-09
0.4895583997 	1.015203728 	4.399307342e-05 	-4.118833422e-09
0.4900818274 	1.023042227 	4.643680695e-05 	-4.303135535e-09
0.4906150929 	1.030718576 	4.899583285e-05 	-4.494550976e-09
0.4911583811 	1.038240954 	5.167568474e-05 	-4.693421709e-09
0.4917118805 	1.045617516 	5.448224175e-05 	-4.900111371e-09
0.4922757829 	1.052856389 	5.742175743e-05 	-5.115006607e-09
0.4928502838 	1.059965673 	6.050089201e-05 	-5.338518427e-09
0.4934355824 	1.066953436 	6.37267482e-05 	-5.571083532e-09
0.4940318817 	1.073827719 	6.710691103e-05 	-5.813165557e-09
0.4946393885 	1.080596536 	7.064949226e-05 	-6.065256189e-09
0.4952583133 	1.087267883 	7.436317988e-05 	-6.32787619e-09
0.4958888709 	1.093849747 	7.825729332e-05 	-6.601576315e-09
0.4965312797 	1.100350127 	8.234184519e-05 	-6.886938343e-09
0.4971857627 	1.106777058 	8.662761051e-05 	-7.18457662e-09
0.4978525466 	1.113138644 	9.112620459e-05 	-7.495140863e-09
0.4985318627 	1.1194431 	9.585017119e-05 	-7.819321283e-09
0.4992239466 	1.125698797 	0.000100813083 	-8.157857618e-09
0.4999290382 	1.131914314 	0.0001060296561 	-8.511554034e-09
0.5006473819 	1.138098477 	0.0001115158807 	-8.881301879e-09
0.501379227 	1.144260375 	0.0001172891698 	-9.268111519e-09
0.502124827 	1.150409315 	0.0001233685342 	-9.673151761e-09
0.5028844406 	1.156554634 	0.0001297747642 	-1.009778941e-08
0.5036583311 	1.162705268 	0.0001365304271 	-1.054361793e-08
0.5044467669 	1.168868818 	0.0001436594621 	-1.101247603e-08
0.5052500214 	1.175049707 	0.0001511879864 	-1.150647221e-08
0.506068373 	1.182036282 	0.0001601890326 	-1.209608099e-08
0.507324668 	1.190541443 	0.0001719334745 	-1.286411457e-08
0.5085949819 	1.199669105 	0.0001855654444 	-1.375314039e-08
0.5098794711 	1.208622853 	0.0002000590157 	-1.469421534e-08
0.5111782938 	1.217406947 	0.0002154314616 	-1.568686282e-08
0.5124916099 	1.226029538 	0.0002316985872 	-1.673052338e-08
0.5138195812 	1.234500334 	0.000248876657 	-1.782488955e-08
0.5151623712 	1.242829365 	0.0002669831157 	-1.896998236e-08
0.5165201452 	1.25102635 	0.0002860363041 	-2.016599587e-08
0.5178930705 	1.259100384 	0.0003060550198 	-2.141309842e-08
0.5192813161 	1.267059794 	0.0003270580717 	-2.271126024e-08
0.520685053 	1.274912089 	0.0003490638278 	-2.406013641e-08
0.522104454 	1.282663959 	0.0003720897735 	-2.545901774e-08
0.523539694 	1.290321304 	0.0003961520954 	-2.690684128e-08
0.5249909497 	1.297889268 	0.0004212652913 	-2.84022284e-08
0.5264583998 	1.305372293 	0.0004474418048 	-2.994349928e-08
0.527942225 	1.312774169 	0.0004746916705 	-3.152860468e-08
0.5294426081 	1.32009808 	0.0005030221496 	-3.315492231e-08
0.5309597337 	1.327346636 	0.0005324372769 	-3.481887611e-08
0.5324937889 	1.334521855 	0.0005629371345 	-3.651539254e-08
0.5340449624 	1.341625052 	0.0005945166925 	-3.823752574e-08
0.5356134452 	1.348656526 	0.0006271642214 	-3.997661861e-08
0.5371994306 	1.355614878 	0.0006608557601 	-4.171832663e-08
0.5388031139 	1.362495639 	0.0006955391387 	-4.343675112e-08
0.5404246925 	1.369289154 	0.0007311147022 	-4.509505728e-08
0.5420643661 	1.375978745 	0.0007674215074 	-4.664169267e-08
0.5437223366 	1.382540481 	0.0008042278289 	-4.800803169e-08
0.5453988083 	1.388944483 	0.0008412360637 	-4.912214859e-08
0.5470939875 	1.395156826 	0.0008781023949 	-4.992368157e-08
0.5488080831 	1.401141605 	0.0009144571485 	-5.037955019e-08
0.5505413061 	1.406863274 	0.0009499246007 	-5.050744065e-08
0.5522938699 	1.412289628 	0.0009841441722 	-5.038926963e-08
0.5540659904 	1.417396053 	0.001016775676 	-5.013460474e-08
0.5558578859 	1.422171761 	0.001047493541 	-4.982698045e-08
0.5576697768 	1.426628728 	0.00107632271 	-4.987347417e-08
0.5595018865 	1.43081465 	0.001103796799 	-5.007199995e-08
0.5613544406 	1.434802778 	0.001130215418 	-4.997502287e-08
0.563227667 	1.438645469 	0.001155936894 	-5.010555968e-08
0.5651217966 	1.442353991 	0.001181339249 	-5.033108431e-08
0.5670370626 	1.445922717 	0.001206193697 	-5.032030008e-08
0.5689737009 	1.44934542 	0.001230259214 	-5.02548309e-08
0.5709319499 	1.452615827 	0.001253434785 	-5.009593737e-08
0.5729120508 	1.455727834 	0.001275588359 	-4.980664341e-08
0.5749142474 	1.45867572 	0.001296573354 	-4.937088686e-08
0.5769387863 	1.461454391 	0.001316246686 	-4.877986017e-08
0.5789859169 	1.464059606 	0.001334472617 	-4.80305386e-08
0.5810558911 	1.466488192 	0.001351125684 	-4.712671801e-08
0.583148964 	1.468738211 	0.001366094383 	-4.607856241e-08
0.5852653933 	1.47080908 	0.001379284388 	-4.490137197e-08
0.5874054395 	1.472701624 	0.001390620853 	-4.361408679e-08
0.5895693664 	1.474418051 	0.001400049659 	-4.22376686e-08
0.5917574402 	1.475961861 	0.001407537541 	-4.079353766e-08
0.5939699306 	1.477337693 	0.001413071218 	-3.930235883e-08
0.5962071099 	1.478551136 	0.001416655952 	-3.778335269e-08
0.5984692536 	1.479608551 	0.001418312938 	-3.625168038e-08
0.6007566404 	1.480516952 	0.001418075046 	-3.472062819e-08
0.6030695519 	1.481284075 	0.001415994905 	-3.321737887e-08
0.6054082729 	1.481918913 	0.001412157082 	-3.177401045e-08
0.6077730914 	1.482432019 	0.001406669345 	-3.041100481e-08
0.6101642987 	1.482834514 	0.001399652248 	-2.91417142e-08
0.6125821893 	1.483136722 	0.001391229475 	-2.796490071e-08
0.6150270608 	1.48334769 	0.001381512488 	-2.686869044e-08
0.6174992144 	1.483475266 	0.001370597954 	-2.584397841e-08
0.6199989545 	1.483526258 	0.001358571986 	-2.488379712e-08
0.622526589 	1.483506569 	0.00134551152 	-2.398148952e-08
0.625082429 	1.483421321 	0.001331485077 	-2.313085742e-08
0.6276667894 	1.483274956 	0.001316553683 	-2.232626963e-08
0.6302799884 	1.483071327 	0.001300771739 	-2.156261675e-08
0.6329223478 	1.48281377 	0.001284187783 	-2.083526619e-08
0.6355941931 	1.482505176 	0.001266845165 	-2.014003033e-08
0.6382958531 	1.482148042 	0.001248782652 	-1.947313451e-08
0.6410276607 	1.481744523 	0.001230034959 	-1.883118344e-08
0.6437899523 	1.481296469 	0.001210633229 	-1.821112743e-08
0.646583068 	1.480805468 	0.001190605453 	-1.761022976e-08
0.6494073518 	1.480272871 	0.001169976847 	-1.702603566e-08
0.6522631514 	1.479699818 	0.001148770189 	-1.645634349e-08
0.6551508186 	1.479087267 	0.001127006116 	-1.589917826e-08
0.658070709 	1.478436007 	0.001104703398 	-1.535276746e-08
0.6610231822 	1.477746678 	0.001081879175 	-1.481551908e-08
0.6640086017 	1.477019787 	0.001058549182 	-1.428600159e-08
0.6670273351 	1.476255717 	0.001034727942 	-1.376292573e-08
0.6700797543 	1.47545474 	0.00101042895 	-1.324512776e-08
0.6731662352 	1.474617026 	0.0009856648399 	-1.273155424e-08
0.6762871577 	1.473742649 	0.0009604475388 	-1.222124788e-08
0.6794429063 	1.472831596 	0.0009347884076 	-1.171333447e-08
0.6826338695 	1.471883771 	0.0009086983767 	-1.120701077e-08
0.6858604404 	1.470898998 	0.0008821880717 	-1.07015331e-08
0.6891230163 	1.469877025 	0.0008552679343 	-1.019620667e-08
0.6924219988 	1.468817529 	0.000827948338 	-9.690375446e-09
0.6957577944 	1.467720112 	0.0008002397009 	-9.183412489e-09
0.6991308138 	1.466584307 	0.0007721525958 	-8.674710682e-09
0.7025414724 	1.465409573 	0.0007436978605 	-8.1636738e-09
0.7059901901 	1.464195298 	0.0007148867077 	-7.649707828e-09
0.7094773917 	1.462940793 	0.0006857308371 	-7.132212484e-09
0.7130035066 	1.461645292 	0.0006562425505 	-6.610572863e-09
0.7165689691 	1.460307946 	0.0006264348659 	-6.084151231e-09
0.7201742182 	1.45892782 	0.0005963216323 	-5.552279172e-09
0.7238196978 	1.457503885 	0.0005659177253 	-5.014249642e-09
0.727505857 	1.456035012 	0.0005352393687 	-4.469304243e-09
0.7312331497 	1.454519961 	0.0005043039452 	-3.916620107e-09
0.7350020349 	1.452961546 	0.0004732121398 	-3.356837139e-09
0.7387709215 	1.451372078 	0.0004422461706 	-2.79388562e-09
0.7424982157 	1.449764588 	0.0004116852919 	-2.231737875e-09
0.7461843763 	1.448143196 	0.0003816239892 	-1.671193581e-09
0.7498298574 	1.446507779 	0.0003520727631 	-1.111655347e-09
0.7534351078 	1.444858171 	0.000323041338 	-5.525653214e-10
0.7570005716 	1.443194168 	0.0002945391275 	6.596026058e-12
0.7605266877 	1.441515528 	0.0002665751034 	5.663121403e-10
0.7640138905 	1.439821973 	0.0002391577885 	1.127039121e-09
0.7674626093 	1.43811319 	0.0002122953393 	1.689216259e-09
0.770873269 	1.436388833 	0.0001859955431 	2.253262836e-09
0.7742462894 	1.434648525 	0.0001602655419 	2.819544058e-09
0.777582086 	1.432891857 	0.0001351123149 	3.388487827e-09
0.7808810695 	1.431118387 	0.000110547139 	3.961212876e-09
0.7841436462 	1.429327648 	8.658378909e-05 	4.538695313e-09
0.787370218 	1.427519142 	6.317771405e-05 	5.112746889e-09
0.7905611821 	1.425692216 	4.036167708e-05 	5.695535134e-09
0.7937169314 	1.423840781 	1.824635935e-05 	6.29675716e-09
0.7968378547 	1.4219491 	-3.216260308e-06 	6.895145462e-09
0.7999243362 	1.420000247 	-2.40121253e-05 	7.504334001e-09
0.8029767561 	1.417984309 	-4.400435094e-05 	8.140285006e-09
0.8059954902 	1.415897795 	-6.312908988e-05 	8.793999219e-09
0.8089809102 	1.413741269 	-8.135356558e-05 	9.463795955e-09
0.8119333839 	1.411517454 	-9.864856471e-05 	1.014714583e-08
0.8148532749 	1.40922984 	-0.0001149937984 	1.08406338e-08
0.8177409426 	1.406881767 	-0.0001303778083 	1.15411458e-08
0.8205967427 	1.404475929 	-0.0001447951791 	1.224629565e-08
0.8234210268 	1.402014172 	-0.0001582443292 	1.295442563e-08
0.8262141429 	1.399497513 	-0.0001707260467 	1.36644503e-08
0.8289764348 	1.396926255 	-0.0001822425271 	1.437564973e-08
0.8317082427 	1.394300153 	-0.0001927967895 	1.50874721e-08
0.8344099031 	1.391618584 	-0.0002023923771 	1.579937061e-08
0.8370817486 	1.388880683 	-0.0002110332588 	1.651067783e-08
0.8397241082 	1.386085462 	-0.0002187238684 	1.722051237e-08
0.8423373074 	1.383231887 	-0.0002254692391 	1.792771243e-08
0.844921668 	1.380318933 	-0.0002312752029 	1.863079152e-08
0.8474775082 	1.377345613 	-0.0002361486305 	1.932791379e-08
0.8500051427 	1.374310999 	-0.0002400976927 	2.001688766e-08
0.8525048829 	1.371214224 	-0.000243132122 	2.06951777e-08
0.8549770366 	1.368054487 	-0.0002452634575 	2.135993508e-08
0.8574219081 	1.364831046 	-0.0002465052561 	2.200804628e-08
0.8598397987 	1.361543219 	-0.0002468732557 	2.263619794e-08
0.862231006 	1.358190377 	-0.0002463854841 	2.324095313e-08
0.8645958245 	1.354771946 	-0.0002450623136 	2.381883152e-08
0.8669345455 	1.351287405 	-0.0002429264704 	2.436638438e-08
0.8692474569 	1.347736289 	-0.0002400030143 	2.488025635e-08
0.8715348435 	1.344118199 	-0.0002363193062 	2.535723003e-08
0.8737969871 	1.340432809 	-0.0002319049745 	2.579425495e-08
0.8760341663 	1.336679878 	-0.0002267918845 	2.618846761e-08
0.8782466565 	1.332859263 	-0.0002210141035 	2.653721128e-08
0.8804347301 	1.328970928 	-0.0002146078481 	2.683806035e-08
0.8825986568 	1.325014951 	-0.0002076114007 	2.708885036e-08
0.8847387028 	1.320991532 	-0.0002000649874 	2.72877121e-08
0.8868551318 	1.316900988 	-0.0001920106123 	2.743310521e-08
0.8889482045 	1.312743755 	-0.0001834918535 	2.752384735e-08
0.8910181784 	1.308520379 	-0.0001745536249 	2.755913743e-08
0.8930653087 	1.304231512 	-0.0001652419101 	2.753857081e-08
0.8950898473 	1.299877894 	-0.0001556034759 	2.746214723e-08
0.8970920436 	1.295460349 	-0.0001456855721 	2.733027143e-08
0.8990721441 	1.290979763 	-0.0001355356243 	2.714374679e-08
0.9010303927 	1.286437071 	-0.0001252009247 	2.690376237e-08
0.9029670306 	1.28183324 	-0.0001147283272 	2.661187375e-08
0.9048822962 	1.277169249 	-0.0001041639525 	2.62699786e-08
0.9067764254 	1.27244607 	-9.355290565e-05 	2.588028776e-08
0.9086496514 	1.267664651 	-8.293901234e-05 	2.544529267e-08
0.910502205 	1.262825892 	-7.236457538e-05 	2.496773016e-08
0.9123343142 	1.25793063 	-6.18701547e-05 	2.445054543e-08
0.9141462048 	1.252979614 	-5.149437257e-05 	2.389685402e-08
0.9159380997 	1.247973492 	-4.127374544e-05 	2.330990372e-08
0.9177102197 	1.242912788 	-3.124254304e-05 	2.269303694e-08
0.9194627831 	1.237797884 	-2.14326751e-05 	2.204965426e-08
0.9211960055 	1.232629007 	-1.187360542e-05 	2.13831797e-08
0.9229101006 	1.227406209 	-2.592292654e-06 	2.069702812e-08
0.9246052793 	1.222129353 	6.386842946e-06 	1.999457519e-08
0.9262817504 	1.216798097 	1.504192825e-05 	1.927913003e-08
0.9279397204 	1.211411883 	2.335362265e-05 	1.855391096e-08
0.9295793934 	1.20596992 	3.130508189e-05 	1.782202426e-08
0.9312009714 	1.200471177 	3.888190192e-05 	1.708644612e-08
0.9328046541 	1.194914362 	4.60720447e-05 	1.635000781e-08
0.9343906389 	1.189297919 	5.28657477e-05 	1.561538386e-08
0.9359591211 	1.183620011 	5.925541906e-05 	1.488508333e-08
0.937510294 	1.177878508 	6.52355202e-05 	1.416144395e-08
0.9390443485 	1.172070976 	7.080243752e-05 	1.344662893e-08
0.9405614735 	1.166194663 	7.595434497e-05 	1.274262633e-08
0.942061856 	1.160246487 	8.06910588e-05 	1.205125061e-08
0.9435456805 	1.154223024 	8.501388569e-05 	1.137414626e-08
0.9450131299 	1.148120496 	8.892546511e-05 	1.071279316e-08
0.946464385 	1.141934759 	9.242960661e-05 	1.006851339e-08
0.9478996243 	1.135661303 	9.553112214e-05 	9.442479272e-09
0.9493190246 	1.129295245 	9.82356534e-05 	8.835722704e-09
0.9507227608 	1.122831337 	0.000100549494 	8.249145497e-09
0.9521110058 	1.116263989 	0.0001024794065 	7.683530973e-09
0.9534839303 	1.109587298 	0.0001040324347 	7.13955683e-09
0.9548417036 	1.102795111 	0.0001052157142 	6.617809258e-09
0.9561844929 	1.095881104 	0.0001060362862 	6.118797774e-09
0.9575124634 	1.08883891 	0.0001065009325 	5.642970044e-09
0.9588257788 	1.081662284 	0.0001066160681 	5.190725541e-09
0.9601246008 	1.074345327 	0.0001063877058 	4.762422076e-09
0.9614090893 	1.06688277 	0.000105821427 	4.358356078e-09
0.9626794024 	1.05927033 	0.0001049227967 	3.97872638e-09
0.9639356968 	1.052168303 	0.0001038172497 	3.652658076e-09
0.9647540487 	1.046318919 	0.0001027266657 	3.403785362e-09
0.9655573034 	1.041120606 	0.0001016359453 	3.19649639e-09
0.9663457395 	1.035910171 	0.0001004401932 	3.001153876e-09
0.9671196303 	1.030682851 	9.915093915e-05 	2.817093937e-09
0.9678792442 	1.025432911 	9.777901426e-05 	2.643671059e-09
0.9686248445 	1.020154137 	9.633440582e-05 	2.480253742e-09
0.9693566897 	1.014840089 	9.482619869e-05 	2.326246374e-09
0.9700750337 	1.009484242 	9.326258811e-05 	2.181092534e-09
0.9707801255 	1.004080039 	9.165093692e-05 	2.044272269e-09
0.9714722095 	0.998620917 	8.999784908e-05 	1.915299442e-09
0.9721515258 	0.9931003031 	8.830924567e-05 	1.793719371e-09
0.9728183099 	0.9875116073 	8.659043771e-05 	1.679106545e-09
0.9734727929 	0.981848207 	8.484619352e-05 	1.571062479e-09
0.9741152019 	0.9761034355 	8.308080013e-05 	1.469213706e-09
0.9747457596 	0.9702705709 	8.129811845e-05 	1.373209934e-09
0.9753646845 	0.9643428295 	7.950163272e-05 	1.282722373e-09
0.9759721914 	0.9583133627 	7.769449461e-05 	1.197442235e-09
0.9765684907 	0.9521752569 	7.587956245e-05 	1.117079373e-09
0.9771537895 	0.9459215367 	7.405943591e-05 	1.041361025e-09
0.9777282904 	0.9395451701 	7.223648668e-05 	9.70030696e-10
0.9782921928 	0.933039075 	7.04128854e-05 	9.028471414e-10
0.9788456922 	0.9263961269 	6.859062522e-05 	8.395834314e-10
0.9793889805 	0.919609165 	6.677154233e-05 	7.800260637e-10
0.979922246 	0.9126709993 	6.495733371e-05 	7.239741537e-10
0.9804456737 	0.9055744143 	6.314957256e-05 	6.712386677e-10
0.9809594451 	0.8983121717 	6.134972167e-05 	6.216417003e-10
0.9814637383 	0.8908770111 	5.955914473e-05 	5.75015833e-10
0.9819587281 	0.883261647 	5.777911472e-05 	5.3120363e-10
0.9824445862 	0.8754587645 	5.601082103e-05 	4.900564689e-10
0.9829214811 	0.8674610106 	5.425538576e-05 	4.514338185e-10
0.9833895781 	0.8592609838 	5.251387234e-05 	4.152041731e-10
0.9838490396 	0.85085122 	5.078726955e-05 	3.812440746e-10
0.9843000247 	0.8422241813 	4.907649863e-05 	3.494361711e-10
0.98474269 	0.8333722448 	4.738244051e-05 	3.196696555e-10
0.9851771888 	0.8242876907 	4.570593522e-05 	2.918402263e-10
0.9856036719 	0.8149626884 	4.404777771e-05 	2.658491744e-10
0.9860222871 	0.8053892835 	4.240872564e-05 	2.416029673e-10
0.9864331796 	0.7955593847 	4.078950514e-05 	2.190128809e-10
0.9868364919 	0.7854647536 	3.919081568e-05 	1.979946156e-10
0.9872323637 	0.7750969968 	3.761333496e-05 	1.784679311e-10
0.9876209323 	0.7644475628 	3.605772412e-05 	1.603562841e-10
0.9880023326 	0.7535077433 	3.452463332e-05 	1.435864839e-10
0.9883766967 	0.7422686814 	3.301470787e-05 	1.28088358e-10
0.9887441544 	0.730721387 	3.152859389e-05 	1.13794622e-10
0.9891048331 	0.7188567577 	3.006693603e-05 	1.006412489e-10
0.9894588579 	0.7066655943 	2.863036574e-05 	8.856693345e-11
0.9898063516 	0.6941385573 	2.72195422e-05 	7.750638726e-11
0.9901474347 	0.6812658263 	2.583518698e-05 	6.740083307e-11
0.9904822253 	0.668036639 	2.447795951e-05 	5.820536107e-11
0.9908108397 	0.6544401139 	2.314835763e-05 	4.987122572e-11
0.9911333916 	0.6404666714 	2.184699525e-05 	4.234724695e-11
0.9914499931 	0.6261078376 	2.057469749e-05 	3.558626088e-11
0.9917607538 	0.6113555783 	1.933232875e-05 	2.954161016e-11
0.9920657815 	0.5962023709 	1.812080334e-05 	2.416766732e-11
0.9923651819 	0.5806414761 	1.694099893e-05 	1.941984974e-11
0.992659059 	0.5646672689 	1.579346809e-05 	1.525315163e-11
0.9929475145 	0.5482755924 	1.467913494e-05 	1.162376378e-11
0.9932306485 	0.5314640565 	1.360404662e-05 	8.509399113e-12
0.9935085592 	0.5142317115 	1.257725849e-05 	5.916887209e-12
0.9937813429 	0.4980972668 	1.165922403e-05 	3.900652822e-12
0.9939569055 	0.4847032379 	1.091400238e-05 	2.425364429e-12
0.9941324681 	0.4725560156 	1.027163094e-05 	1.268125221e-12
0.9943080307 	0.4600373948 	9.65001651e-06 	2.297151702e-13
0.9944835934 	0.4471417291 	9.045446951e-06 	-7.045007221e-13
0.994659156 	0.4338646965 	8.455823334e-06 	-9.039236488e-13
0.9948347186 	0.4202029232 	7.827578611e-06 	8.429743129e-13
0.9950102812 	0.406153935 	7.063662585e-06 	-3.249481169e-12
0.9951858439 	0.3917133048 	6.57236797e-06 	-8.438751238e-12
0.9953614065 	0.3768556342 	6.415639946e-06 	-2.500378875e-12
0.9955369691 	0.3615409889 	5.885867431e-06 	3.683495705e-13
0.9957125317 	0.3457580688 	5.175941309e-06 	-2.714397908e-12
0.9958880943 	0.3295244419 	4.665989919e-06 	-2.960991295e-12
0.996063657 	0.3128661395 	4.190680835e-06 	-2.646978616e-12
0.9962392196 	0.2958170261 	3.71580454e-06 	-2.476913109e-12
0.9964147822 	0.2784174547 	3.251818315e-06 	-2.430121063e-12
0.9965903448 	0.2607121978 	2.809659597e-06 	-2.436078458e-12
0.9967659075 	0.2427478914 	2.397281439e-06 	-2.450577795e-12
0.9969414701 	0.2245703653 	2.020852754e-06 	-2.424126896e-12
0.9971170327 	0.2062222545 	1.683520268e-06 	-2.314619899e-12
0.9972925953 	0.1877412095 	1.384735085e-06 	-2.108799844e-12
0.997468158 	0.1691588675 	1.121260722e-06 	-1.825382906e-12
0.9976437206 	0.1505005813 	8.890339426e-07 	-1.501443978e-12
0.9978192832 	0.1317857752 	6.847520866e-07 	-1.174858778e-12
0.9979948458 	0.1130287279 	5.065987859e-07 	-8.73223761e-13
0.9981704085 	0.09423957727 	3.541526484e-07 	-6.112648391e-13
0.9983459711 	0.07542536952 	2.278768373e-07 	-3.941970536e-13
0.9985215337 	0.05659102633 	1.286658926e-07 	-2.236211029e-13
0.9986970963 	0.03774014967 	5.773326393e-08 	-1.014000084e-13
0.998872659 	0.01887562711 	1.564893598e-08 	-2.764749061e-14
0.9990482216 	0.007948622912 	1.504760425e-09 	-2.206557598e-15
0.9990482216 	0.007948622912 	1.504760425e-09 	-2.206557598e-15
