/*--------------------------------*- C++ -*----------------------------------*\
| =========                 |                                                 |
| \\      /  F ield         | OpenFOAM: The Open Source CFD Toolbox           |
|  \\    /   O peration     | Version:  2.4.0                                 |
|   \\  /    A nd           | Web:      www.OpenFOAM.org                      |
|    \\/     M anipulation  |                                                 |
\*---------------------------------------------------------------------------*/
FoamFile
{
    version     2.0;
    format      ascii;
    class       volScalarField;
    location    "2000";
    object      p;
}
// * * * * * * * * * * * * * * * * * * * * * * * * * * * * * * * * * * * * * //

dimensions      [0 2 -2 0 0 0 0];

internalField   nonuniform List<scalar> 
15296
(
0.64083617
0.63787459
0.63637697
0.63546185
0.6344693
0.633873
0.6326166
0.63175697
0.6309118
0.63041425
0.62959103
0.62845117
0.62762615
0.62722901
0.62631467
0.62380557
0.62206758
0.62318773
0.61887855
0.6175252
0.6204491
0.61948779
0.6139537
0.61308057
0.61764914
0.61165211
0.61148638
0.61766548
0.61240112
0.61440071
0.62426905
0.62398985
0.64060139
0.65379613
0.68672375
0.75105861
0.74099641
0.47430989
0.64086314
0.63788674
0.63683759
0.63592064
0.63492539
0.63388525
0.63307065
0.63221225
0.63138072
0.6304899
0.6296907
0.62899711
0.62822913
0.62734942
0.62654423
0.62608461
0.62543926
0.62409375
0.62412098
0.62349641
0.62183777
0.62111684
0.62168862
0.62124706
0.61952886
0.62066221
0.62078529
0.61973913
0.62231511
0.62443147
0.62628238
0.63400955
0.64207276
0.66202186
0.68696471
0.74855435
0.7406349
0.58267589
0.64088439
0.63792113
0.63681741
0.63590072
0.63490559
0.63391961
0.63305224
0.6321939
0.63136291
0.63052998
0.62974142
0.62898852
0.6282171
0.62742234
0.62666902
0.62602671
0.62533791
0.62445707
0.62398213
0.62331134
0.62235157
0.62171917
0.62148715
0.620989
0.62021654
0.62042767
0.62048407
0.62050822
0.62205025
0.62408634
0.62710116
0.63366491
0.64286417
0.66161131
0.68716972
0.74826805
0.74270014
0.67203105
0.64088915
0.63794271
0.63679987
0.63588362
0.63488898
0.63394086
0.63303631
0.63217827
0.63134813
0.63055352
0.62976617
0.62897775
0.62820502
0.62745732
0.62672075
0.62596653
0.625247
0.62461868
0.62383664
0.62314627
0.62260624
0.62198948
0.62126823
0.62075954
0.6205414
0.62016607
0.62021405
0.62086295
0.62174031
0.62376106
0.62743088
0.63326119
0.6430637
0.66101984
0.68690551
0.74775179
0.74401611
0.72230532
0.64086812
0.63793793
0.63679683
0.63588144
0.63488737
0.63393601
0.63303509
0.63217742
0.63134758
0.63054894
0.62976169
0.62897814
0.62820576
0.62744992
0.62670335
0.62595186
0.62522507
0.62455106
0.62379455
0.62310271
0.62250435
0.62186915
0.62119993
0.62069584
0.62039872
0.6200794
0.62013329
0.62068935
0.62162305
0.62364184
0.62719093
0.6330611
0.64269219
0.6606142
0.68609884
0.74716636
0.7450306
0.75756028
0.64084641
0.63793742
0.63679982
0.6358857
0.63489222
0.6339347
0.63304056
0.63218336
0.63135406
0.6305497
0.62976341
0.62898803
0.62821706
0.62745162
0.6267002
0.62596569
0.62524356
0.62452714
0.62382331
0.62313538
0.62246456
0.62182469
0.62124183
0.62073841
0.62034059
0.62012188
0.62017082
0.62060525
0.62164145
0.62363626
0.62702407
0.63295112
0.64233764
0.66017512
0.68515262
0.74625602
0.74603093
0.79007913
0.64082316
0.63794024
0.63679908
0.63588671
0.634894
0.63393613
0.63304322
0.63218656
0.63135788
0.63055368
0.62976895
0.62899615
0.62822683
0.62745974
0.62670527
0.62596883
0.62524403
0.62452369
0.62382312
0.62313273
0.62245453
0.62181569
0.62123867
0.62072974
0.62032171
0.62010926
0.62014606
0.62056088
0.62159158
0.62355104
0.62688139
0.63273783
0.64196221
0.65956218
0.68402262
0.74505326
0.7469804
0.81795025
0.64079941
0.63794528
0.63679791
0.63588772
0.63489591
0.63393914
0.63304612
0.63219005
0.63136216
0.63055975
0.62977668
0.62900544
0.62823867
0.62747318
0.62671644
0.62597554
0.62524861
0.62453221
0.62382738
0.62313648
0.62246575
0.62182815
0.62124165
0.62072981
0.62032973
0.62010252
0.62012983
0.62054462
0.62154367
0.62346845
0.62675747
0.63251018
0.64157751
0.65888645
0.6827929
0.74363776
0.74773633
0.83815259
0.64077277
0.6379507
0.6367959
0.63588853
0.63489779
0.63394169
0.63304906
0.63219367
0.6313666
0.63056552
0.62978411
0.62901504
0.62825141
0.62748829
0.62672966
0.62598448
0.62525464
0.62453775
0.62383168
0.62314087
0.62247184
0.62183387
0.62124414
0.62073048
0.62032949
0.62009396
0.62011263
0.62051613
0.62148916
0.62337783
0.626609
0.63225765
0.64114139
0.65813687
0.68141977
0.74196453
0.7482838
0.85238267
0.64074434
0.63795696
0.63679295
0.63588917
0.63489971
0.63394406
0.63305215
0.63219751
0.63137131
0.63057135
0.62979162
0.62902508
0.62826497
0.62750538
0.62674684
0.62599797
0.62526412
0.62454447
0.62383807
0.62314737
0.62247776
0.62183942
0.62124961
0.620734
0.62032831
0.62008784
0.62009675
0.62048321
0.62143218
0.62328022
0.62644213
0.63197942
0.64065492
0.65730144
0.67989031
0.73995728
0.74860939
0.86194021
0.64071392
0.63796431
0.63678853
0.63588924
0.63490133
0.63394619
0.63305508
0.63220129
0.631376
0.63057716
0.62979911
0.62903504
0.62827853
0.62752347
0.62676755
0.62601641
0.62527762
0.62455371
0.62384522
0.62315365
0.62248348
0.6218448
0.62125428
0.62073625
0.62032607
0.62007943
0.62007707
0.62044533
0.62136669
0.62316886
0.6262545
0.63166643
0.64011191
0.65636403
0.67818451
0.73752707
0.74868167
0.86728602
0.6406802
0.63797287
0.63678232
0.63588854
0.63490251
0.63394796
0.6330577
0.63220487
0.63138053
0.63058288
0.62980644
0.6290447
0.62829168
0.6275416
0.6267905
0.62604015
0.62529743
0.62456819
0.62385544
0.6231614
0.62249015
0.62185079
0.62125896
0.62073834
0.62032385
0.62006972
0.62005498
0.62040381
0.62129378
0.62304523
0.6260475
0.63131994
0.63951425
0.65532478
0.67630708
0.73458641
0.74846634
0.86916133
0.6406437
0.63798273
0.63677381
0.63588674
0.63490301
0.63394906
0.63305978
0.63220802
0.63138472
0.63058824
0.62981336
0.62905378
0.628304
0.62755875
0.62681354
0.6260673
0.62532395
0.62459005
0.62387154
0.62317276
0.62249851
0.62185726
0.6212635
0.62073997
0.62032071
0.62005835
0.62003011
0.62035749
0.62121281
0.62290853
0.62581933
0.63093824
0.63885981
0.6541781
0.67425691
0.73097579
0.7479403
0.86817305
0.64060316
0.63799433
0.63676248
0.63588338
0.63490257
0.63394922
0.63306106
0.63221055
0.63138838
0.63059312
0.62981974
0.62906216
0.62831527
0.6275744
0.62683521
0.62609518
0.62535531
0.62462024
0.62389683
0.62319182
0.62251197
0.62186642
0.62126913
0.62074165
0.62031665
0.62004512
0.62000198
0.62030549
0.62112256
0.62275653
0.62556633
0.63051497
0.63813947
0.65290248
0.67201359
0.7263907
0.74710763
0.86380694
0.64055424
0.63800834
0.63674787
0.63587781
0.63490083
0.63394807
0.63306117
0.6322121
0.6313912
0.63059723
0.62982535
0.62906962
0.62832523
0.62758809
0.6268543
0.62612099
0.62538743
0.62465588
0.62393166
0.62322206
0.62253558
0.621883
0.62127912
0.62074524
0.62031273
0.62003044
0.61997049
0.62024737
0.62102205
0.62258761
0.62528627
0.63004612
0.63734922
0.65148466
0.66958305
0.72051637
0.74617183
0.8546093
0.64048761
0.63802626
0.63672624
0.6358674
0.63489634
0.6339443
0.63305903
0.63221195
0.63139274
0.63060042
0.62983036
0.62907672
0.62833492
0.62760134
0.62687274
0.62614648
0.62542115
0.62469725
0.62397779
0.62326846
0.62257779
0.62191755
0.62130375
0.62075854
0.62031315
0.62001463
0.61993165
0.62017349
0.6208931
0.62237017
0.62492584
0.62944204
0.63633795
0.6496527
0.66654241
0.71224111
0.74506994
0.84017401
0.64041718
0.63803876
0.63669795
0.63585081
0.63488737
0.63393626
0.63305301
0.63220842
0.63139134
0.63060103
0.62983307
0.62908169
0.62834241
0.62761188
0.62688737
0.62616675
0.62544876
0.62473334
0.62402223
0.62331945
0.62263197
0.62197042
0.62135041
0.62079407
0.62033243
0.62001169
0.61989808
0.62009602
0.62074945
0.62212303
0.62451176
0.62874877
0.63517256
0.64755495
0.66315733
0.70303
0.74327485
0.82260026
0.64034518
0.63804321
0.63666597
0.63582865
0.63487385
0.63392387
0.6330427
0.63220082
0.63138606
0.63059791
0.62983218
0.62908308
0.62834614
0.62761814
0.6268966
0.62617975
0.62546671
0.62475756
0.6240538
0.62335872
0.62267803
0.62202086
0.62140137
0.62084049
0.62036801
0.62002854
0.61988562
0.62003911
0.62062463
0.62189319
0.62411386
0.62807344
0.63403245
0.64548888
0.6599636
0.69485036
0.74012913
0.80302246
0.64026599
0.63804011
0.63662965
0.63580009
0.63485506
0.63390645
0.63302737
0.63218841
0.63137618
0.63059038
0.62982704
0.62908034
0.62834579
0.62762018
0.62690113
0.62618706
0.62547734
0.6247723
0.62407355
0.62338428
0.62270973
0.62205821
0.62144249
0.62088181
0.62040418
0.62005206
0.61988578
0.62000029
0.6205228
0.62169093
0.62374946
0.62743767
0.63295724
0.64349208
0.65701405
0.68748629
0.73498392
0.78338194
0.64017758
0.63802911
0.63658829
0.63576442
0.63483026
0.63388337
0.63300636
0.63217055
0.63136108
0.63057782
0.62981707
0.62907296
0.62834094
0.6276178
0.62690118
0.62618955
0.62548238
0.62478016
0.62408459
0.62339887
0.6227281
0.62208026
0.62146735
0.62090737
0.6204267
0.62006526
0.61987987
0.61996058
0.62042646
0.62150179
0.62341001
0.62683875
0.63196085
0.64158542
0.65430904
0.68058774
0.72777746
0.76627088
0.6400782
0.63800923
0.63654122
0.63572099
0.63479872
0.63385402
0.63297907
0.6321466
0.63134015
0.63055966
0.62980172
0.62906043
0.62833115
0.62761065
0.62689656
0.62618735
0.62548251
0.62478256
0.62408921
0.62340559
0.62273671
0.62209029
0.62147778
0.62091629
0.6204308
0.62005901
0.61985431
0.61990187
0.62031279
0.62129785
0.62306256
0.62623922
0.63100153
0.63973658
0.65175406
0.67411044
0.71891569
0.75096412
0.6399668
0.63797942
0.6364878
0.63566917
0.63475964
0.63381773
0.63294483
0.63211591
0.63131274
0.63053526
0.6297804
0.62904217
0.62831585
0.62759818
0.62688678
0.6261801
0.62547762
0.6247798
0.6240883
0.62340611
0.62273806
0.62209151
0.6214774
0.620912
0.62041893
0.62003376
0.61980657
0.61981748
0.62016991
0.62106057
0.62267951
0.62560011
0.63001761
0.63788489
0.6492076
0.66800706
0.70905817
0.73633526
0.63984387
0.63793865
0.63642727
0.63560828
0.63471213
0.63377376
0.63290293
0.63207776
0.63127817
0.63050396
0.62975243
0.62901753
0.62829441
0.62757978
0.62687125
0.62616725
0.62546721
0.62477155
0.6240818
0.6234008
0.62273308
0.62208562
0.62146875
0.62089779
0.62039494
0.61999356
0.61974041
0.61971021
0.61999877
0.62078769
0.62225333
0.62490578
0.62897244
0.63598674
0.64655153
0.66222216
0.69878713
0.72271343
0.63970869
0.63788617
0.63635907
0.63553781
0.63465541
0.63372142
0.63285274
0.6320315
0.63123579
0.63046515
0.62971724
0.62898595
0.62826626
0.62755489
0.62684942
0.62614825
0.62545077
0.62475732
0.62406932
0.62338939
0.62272177
0.62207299
0.6214527
0.6208752
0.62036114
0.61994159
0.61965979
0.6195848
0.61980476
0.62048507
0.62178973
0.62416185
0.62786296
0.63403943
0.64374531
0.6567428
0.68847103
0.70982561
0.63955696
0.63782048
0.63628248
0.63545728
0.63458874
0.63366003
0.63279364
0.63197649
0.63118501
0.63041824
0.62967426
0.62894687
0.62823087
0.62752297
0.62682075
0.62612256
0.62542773
0.62473656
0.62405029
0.62337135
0.62270367
0.62205328
0.6214291
0.62084436
0.62031812
0.61987897
0.61956661
0.6194441
0.61959196
0.62015846
0.62129624
0.62338021
0.62670117
0.63206697
0.64081971
0.65160616
0.67838798
0.69742224
0.63938993
0.6377422
0.63619742
0.63536647
0.63451154
0.63358898
0.63272507
0.63191218
0.63112523
0.63036268
0.62962297
0.6288998
0.62818777
0.62748356
0.62678474
0.62608964
0.62539754
0.62470865
0.62402408
0.62334605
0.62267813
0.62202583
0.62139734
0.62080475
0.62026548
0.61980555
0.61946106
0.61928891
0.61936205
0.61981111
0.62077782
0.62257095
0.62549947
0.63009644
0.63782063
0.64687188
0.6687194
0.685439
0.63920625
0.63765052
0.63610336
0.63526519
0.63442333
0.63350774
0.63264655
0.63183803
0.63105592
0.63029794
0.62956287
0.62884425
0.62813649
0.62743619
0.62674093
0.626049
0.62535966
0.62467303
0.62399008
0.6233128
0.62264439
0.62198985
0.62135658
0.62075552
0.62020238
0.6197206
0.61934258
0.61911896
0.6191152
0.61944431
0.62023677
0.62174055
0.62426644
0.62814545
0.63478119
0.64245362
0.65959572
0.67398488
0.63900949
0.637547
0.63600068
0.63515367
0.63432392
0.63341593
0.63255775
0.63175369
0.63097667
0.63022363
0.62949358
0.62877988
0.62807665
0.62738048
0.62668891
0.62600024
0.62531366
0.62462923
0.62394775
0.62327097
0.62260176
0.62194456
0.62130597
0.62069575
0.62012786
0.61962308
0.61921011
0.61893326
0.6188505
0.61905767
0.61967283
0.62089082
0.62300584
0.62621559
0.63174147
0.63818617
0.651311
0.66325487
0.63880019
0.63743238
0.63588956
0.63503223
0.63421335
0.63331337
0.63245851
0.63165898
0.63088725
0.63013951
0.62941489
0.62870645
0.62800801
0.62731612
0.62662834
0.62594292
0.62525904
0.62457666
0.62389645
0.62321988
0.62254948
0.62188913
0.6212446
0.62062444
0.62004085
0.61951189
0.61906255
0.61873081
0.61856705
0.61865084
0.61908605
0.6200233
0.62172292
0.62430585
0.62873783
0.63403363
0.64385109
0.65340711
0.6385808
0.6373089
0.63577095
0.63490161
0.6340919
0.63320001
0.63234883
0.63155385
0.63078752
0.63004545
0.62932672
0.62862389
0.62793047
0.62724297
0.62655897
0.62587671
0.62519535
0.62451475
0.62383545
0.62315869
0.62248658
0.62182246
0.62117126
0.62054029
0.61993998
0.61938565
0.61889854
0.61851042
0.6182639
0.61822348
0.61847701
0.61913957
0.62042444
0.62241678
0.62579751
0.63000006
0.63693072
0.64460481
0.63835954
0.63718007
0.6356461
0.63476281
0.6339601
0.63307606
0.632229
0.63143859
0.63067764
0.62994162
0.6292293
0.62853244
0.62784419
0.6271611
0.62648076
0.62580143
0.62512225
0.62444302
0.62376412
0.62308654
0.62241202
0.62174333
0.62108457
0.62044179
0.61982362
0.61924269
0.61871643
0.61827056
0.61793979
0.61777485
0.61784605
0.61824043
0.61911673
0.62054915
0.62294286
0.62610333
0.63055974
0.6366269
0.63814977
0.63704968
0.63551595
0.63461679
0.63381829
0.6329415
0.63209931
0.63131354
0.63055783
0.62982831
0.629123
0.62843243
0.62774943
0.62707063
0.62639367
0.62571684
0.62503928
0.62436077
0.62368152
0.62300228
0.62232443
0.62165018
0.62098279
0.62032707
0.61968987
0.6190811
0.61851444
0.61800976
0.61759376
0.61730471
0.61719453
0.61732796
0.61780758
0.6187079
0.6201925
0.62236056
0.62473055
0.62921638
0.63797405
0.63692658
0.63538566
0.63447023
0.63367282
0.63280223
0.63196582
0.63118449
0.63043339
0.62971051
0.62901259
0.6283283
0.62765021
0.6269752
0.62630096
0.62562584
0.62494904
0.62427029
0.62358968
0.62290776
0.62222558
0.62154482
0.62086796
0.62019865
0.619542
0.61890541
0.6182989
0.61773699
0.61723867
0.61683132
0.6165491
0.61643915
0.61655268
0.6169673
0.61765621
0.61892842
0.61961642
0.62269464
0.63784671
0.63682316
0.63526303
0.63433195
0.63353341
0.63266817
0.63183864
0.63106117
0.63031345
0.62959689
0.62890616
0.62822749
0.62755344
0.62688125
0.62620868
0.62553416
0.62485701
0.62417693
0.62349394
0.62280843
0.62212121
0.62143351
0.62074714
0.6200647
0.61938979
0.61872757
0.61808483
0.61747146
0.61689958
0.61638763
0.61595419
0.61563292
0.6154328
0.61543419
0.61547269
0.61599703
0.61540619
0.61734097
0.63776181
0.63674589
0.6351532
0.63420705
0.63340567
0.63254499
0.63172287
0.63094783
0.63020167
0.6294907
0.62880651
0.62813241
0.62746123
0.62679072
0.62611867
0.62544365
0.62476511
0.62408277
0.62339662
0.622707
0.62201451
0.62132004
0.62062482
0.61993057
0.61923956
0.61855504
0.617881
0.61722345
0.61658864
0.61598779
0.6154264
0.61492794
0.614468
0.61412906
0.61364962
0.61357098
0.61202523
0.61306271
0.63772358
0.63669261
0.63505226
0.63409234
0.63328687
0.63243093
0.63161702
0.63084259
0.630096
0.62938993
0.6287116
0.62804097
0.62737154
0.62670163
0.6260291
0.62535268
0.62467198
0.62398678
0.62329711
0.62260329
0.62190581
0.62120525
0.62050233
0.61979799
0.61909334
0.61838999
0.61768948
0.61699457
0.61630646
0.61563057
0.61496147
0.61431485
0.6136398
0.61302081
0.61212645
0.61156193
0.6092946
0.60962086
0.6377615
0.63666568
0.63496147
0.63398844
0.63317556
0.6323244
0.6315193
0.63074308
0.62999389
0.62929211
0.62861893
0.62795069
0.62728202
0.62661188
0.62593814
0.62525978
0.62457657
0.6238884
0.62319538
0.62249787
0.62179622
0.62109076
0.62038171
0.61966933
0.61895368
0.61823493
0.61751251
0.61678644
0.61605363
0.61531485
0.61455551
0.6137855
0.61293259
0.61208374
0.61085556
0.60990027
0.60708215
0.60684113
0.6378926
0.63664478
0.63486656
0.63388695
0.63306563
0.63222174
0.63142699
0.63064652
0.62989269
0.62919477
0.62852608
0.62785928
0.62719063
0.62651977
0.62584458
0.62516425
0.62447874
0.62378808
0.62309248
0.62239232
0.62168782
0.62097901
0.62026567
0.61954738
0.6188233
0.61809232
0.61735206
0.61660028
0.61583026
0.6150391
0.61420452
0.61333227
0.61233257
0.61129577
0.6097982
0.6085295
0.60528761
0.60459145
0.63814339
0.63663412
0.63476805
0.63378582
0.6329546
0.63212153
0.63133869
0.63055098
0.62979028
0.6290958
0.62843096
0.62776487
0.627096
0.62642451
0.62574822
0.62506652
0.62437955
0.62368745
0.62299056
0.6222892
0.62158344
0.62087296
0.62015711
0.61943488
0.61870459
0.61796409
0.61720944
0.61643657
0.61563575
0.6148012
0.61390421
0.61294769
0.61182712
0.61063741
0.60892199
0.60740301
0.60383275
0.60277007
0.63840853
0.63659835
0.63465439
0.63367818
0.63283868
0.63202223
0.631253
0.63045453
0.62968457
0.62899319
0.62833179
0.62766628
0.62699767
0.62632645
0.62565014
0.62496831
0.62428122
0.62358916
0.62289252
0.62219155
0.62148605
0.62077541
0.62005853
0.6193339
0.61859915
0.61785124
0.61708498
0.61629487
0.61546866
0.6145984
0.61364989
0.61262434
0.61140454
0.61009117
0.60819933
0.60648169
0.60265521
0.60129694
0.63868463
0.63654628
0.63453264
0.6335649
0.63271743
0.63192347
0.63116873
0.63035518
0.62957343
0.62888516
0.62822745
0.62756339
0.6268966
0.62622735
0.62555274
0.6248724
0.6241868
0.62349634
0.62280145
0.62210222
0.6213982
0.62068845
0.61997155
0.61924555
0.61850752
0.61775377
0.61697811
0.61617394
0.61532691
0.61442746
0.61343665
0.61235495
0.61105399
0.60964132
0.60760645
0.60573247
0.60170447
0.60010845
0.63897378
0.63646929
0.63440103
0.63344336
0.63258892
0.63182384
0.63108386
0.63025046
0.62945476
0.62877055
0.6281181
0.62745772
0.62679529
0.62613031
0.6254593
0.6247821
0.62409943
0.62341189
0.62271988
0.6220233
0.62132145
0.62061314
0.61989669
0.61916985
0.6184293
0.61767087
0.61688757
0.61607198
0.615208
0.61428489
0.61325962
0.61213263
0.61076554
0.60927385
0.60712299
0.60512751
0.60093958
0.59915412
0.63929468
0.63636366
0.63426209
0.63331294
0.63245202
0.63172186
0.63099618
0.63013814
0.62932739
0.62864984
0.62800588
0.62735266
0.62669766
0.62603914
0.62537329
0.62470043
0.6240217
0.62333791
0.62264938
0.62195581
0.62125628
0.62054946
0.61983351
0.61910603
0.61836344
0.61760121
0.61681176
0.61598702
0.6151094
0.61416733
0.61311422
0.61195107
0.61053046
0.60897662
0.6067318
0.60464362
0.60032746
0.59839417
0.63965525
0.63622113
0.63411643
0.63317135
0.63230486
0.63161547
0.63090347
0.63001692
0.62919199
0.6285259
0.62789517
0.62725306
0.62660806
0.62595738
0.62529744
0.62462946
0.62395511
0.62327534
0.62259033
0.6218996
0.62120211
0.6204965
0.6197809
0.61905284
0.61830856
0.61754332
0.61674904
0.61591713
0.61502876
0.61407177
0.61299645
0.61180485
0.61034128
0.60873936
0.60641869
0.60426176
0.59984172
0.59779762
0.64005951
0.63603542
0.63396545
0.63301588
0.63214566
0.63150286
0.63080456
0.62988765
0.62905215
0.62840428
0.62779199
0.62716406
0.62653021
0.62588744
0.62523327
0.62457008
0.62390003
0.62322407
0.62254221
0.62185383
0.6211579
0.62045312
0.61973768
0.61900913
0.6182636
0.61749615
0.61669829
0.61586102
0.61496441
0.61399595
0.61290324
0.6116897
0.61019211
0.60855385
0.60617246
0.60396675
0.59946179
0.59734079
0.64050464
0.63579944
0.63380901
0.6328422
0.6319723
0.63138256
0.6306998
0.62975372
0.628914
0.62829191
0.62770211
0.62708942
0.626466
0.62583002
0.62518084
0.62452199
0.62385584
0.62318318
0.62250388
0.62181727
0.62112243
0.62041823
0.61970296
0.61897418
0.61822793
0.61745913
0.61665887
0.61581783
0.61491518
0.6139382
0.61283221
0.61160221
0.61007823
0.60841345
0.60598412
0.60374631
0.59917148
0.59700505
0.64098791
0.63550591
0.63364559
0.63264609
0.6317852
0.63125628
0.63059305
0.62962189
0.6287858
0.62819587
0.62762991
0.62703095
0.62641567
0.62578475
0.62513964
0.62448458
0.62382184
0.62315196
0.62247468
0.62178941
0.62109544
0.62039182
0.61967695
0.61894838
0.61820206
0.61743272
0.61663113
0.61578771
0.61488085
0.61389784
0.61278206
0.61154023
0.60999638
0.60831329
0.60584703
0.60359104
0.59895852
0.59677671
0.64150861
0.63514467
0.63347217
0.63242486
0.63158775
0.63112826
0.6304904
0.62950014
0.62867496
0.62812055
0.62757656
0.62698797
0.62637805
0.6257507
0.625109
0.62445735
0.62379764
0.62313011
0.62245451
0.62177043
0.62107738
0.62037457
0.61966046
0.61893258
0.61818674
0.61741754
0.61661543
0.61577069
0.6148611
0.61387406
0.61275138
0.61150158
0.60994337
0.60824896
0.6057549
0.60349309
0.59881095
0.59664582
0.64206821
0.63470203
0.63328659
0.63218322
0.63139104
0.63100808
0.63040108
0.62939704
0.6285873
0.62806796
0.62754151
0.6269594
0.62635272
0.62572818
0.62508972
0.62444134
0.62378441
0.62311901
0.62244497
0.62176211
0.62107015
0.62036842
0.61965539
0.61892853
0.61818351
0.61741482
0.61661272
0.61576738
0.61485613
0.61386667
0.61273939
0.61148494
0.60991676
0.60821741
0.60570223
0.60344747
0.59871656
0.59660968
0.64257547
0.63424816
0.63312158
0.6319689
0.63123107
0.63091611
0.63034078
0.62932864
0.62853285
0.62804062
0.62752505
0.62694631
0.62634189
0.6257199
0.62508437
0.62443873
0.62378398
0.6231202
0.62244737
0.62176556
0.6210746
0.62037389
0.61966184
0.61893587
0.61819157
0.61742337
0.6166214
0.61577588
0.6148638
0.61387326
0.61274345
0.61148735
0.60991327
0.60821467
0.60568454
0.60344756
0.59866881
0.59665215
0.64296367
0.63384781
0.63298734
0.63180715
0.63111853
0.630854
0.63030642
0.62929056
0.62850464
0.62803061
0.62752125
0.62694433
0.62634163
0.62572177
0.62508846
0.62444472
0.62379133
0.62312847
0.62245634
0.62177517
0.62108487
0.6203848
0.61967335
0.61894788
0.61820396
0.61743601
0.6166341
0.61578847
0.61487596
0.61388493
0.61275397
0.61149736
0.60992074
0.60822365
0.60568676
0.60346261
0.59865754
0.59670611
0.64330123
0.633447
0.63286691
0.63167401
0.63102936
0.63080573
0.63028657
0.62927038
0.62849255
0.62803258
0.6275272
0.62695131
0.62635
0.6257319
0.62510029
0.62445778
0.62380511
0.62314262
0.62247075
0.62178986
0.62109988
0.62040012
0.61968892
0.61896364
0.61821983
0.61745191
0.61664994
0.61580417
0.61489138
0.6139001
0.61276864
0.61151207
0.60993463
0.60823931
0.60570013
0.60348591
0.59866624
0.59676741
0.64358421
0.63305496
0.63276749
0.63157354
0.63096307
0.63077076
0.63028081
0.62926761
0.62849596
0.62804599
0.62754242
0.62696665
0.62636614
0.62574914
0.62511847
0.62447643
0.62382376
0.62316107
0.62248902
0.62180804
0.62111801
0.6204182
0.61970692
0.61898153
0.6182376
0.61746955
0.61666741
0.61582148
0.61490849
0.61391715
0.61278564
0.61152949
0.60995234
0.60825908
0.60572029
0.6035145
0.5986869
0.59683367
0.6438143
0.6326817
0.63269322
0.63150694
0.63091948
0.63074977
0.6302896
0.62928211
0.62851388
0.62806942
0.62756533
0.62698866
0.62638818
0.62577148
0.62514089
0.6244985
0.62384519
0.62318182
0.62250921
0.62182779
0.6211374
0.62043724
0.61972561
0.61899991
0.6182557
0.6174874
0.61668504
0.61583892
0.61492583
0.61393454
0.61280328
0.61154783
0.60997167
0.60828067
0.60574394
0.60354548
0.59871419
0.59690121
0.64398309
0.63233349
0.63264672
0.63147598
0.63089972
0.63074365
0.63031294
0.62931304
0.62854447
0.62810057
0.62759368
0.62701514
0.62641393
0.62579672
0.62516542
0.62452202
0.6238676
0.62320321
0.62252978
0.62184769
0.62115671
0.620456
0.61974388
0.61901775
0.61827317
0.61750457
0.61670196
0.61585567
0.61494253
0.6139514
0.61282058
0.611566
0.60999126
0.60830257
0.60576895
0.60357672
0.59874493
0.59696656
0.64409129
0.6320162
0.63263367
0.63148314
0.63090298
0.6307512
0.63034923
0.62935767
0.62858371
0.62813538
0.62762386
0.62704287
0.6264404
0.62582209
0.62518955
0.62454479
0.62388903
0.6232235
0.62254916
0.62186631
0.62117464
0.62047331
0.61976066
0.61903407
0.61828913
0.61752022
0.61671738
0.61587096
0.61495786
0.61396697
0.61283674
0.6115831
0.61001005
0.60832358
0.60579369
0.60360656
0.59877682
0.59702667
0.64412972
0.63173762
0.63266677
0.63152713
0.63092321
0.63076761
0.63039434
0.62941142
0.62862652
0.62816958
0.62765263
0.62706918
0.62646528
0.62584561
0.62521164
0.62456544
0.62390836
0.62324174
0.6225665
0.62188289
0.62119054
0.62048861
0.61977544
0.61904843
0.61830315
0.61753397
0.61673093
0.61588442
0.61497139
0.61398079
0.61285121
0.61159854
0.61002723
0.60834283
0.60581692
0.60363375
0.59880807
0.59707915
0.64407825
0.63152754
0.63276307
0.63159616
0.63094813
0.63078733
0.6304452
0.62946883
0.62866616
0.62819807
0.62767646
0.62709131
0.62648624
0.62586534
0.62523009
0.62458264
0.62392448
0.62325696
0.62258099
0.62189673
0.62120382
0.62050139
0.61978781
0.61906048
0.61831493
0.61754555
0.61674239
0.61589585
0.61498298
0.61399272
0.61286382
0.6116121
0.61004253
0.60836002
0.60583803
0.60365789
0.59883784
0.59712183
0.64387308
0.63143325
0.63291372
0.63166422
0.63096341
0.63080283
0.63049551
0.62952291
0.62869722
0.62821832
0.62769423
0.62710848
0.62650263
0.62588072
0.62524441
0.62459597
0.62393693
0.62326869
0.6225921
0.62190729
0.62121387
0.620511
0.61979705
0.61906942
0.61832362
0.61755403
0.61675075
0.61590419
0.61499145
0.61400149
0.61287321
0.61162234
0.61005431
0.60837346
0.60585501
0.60367711
0.59886362
0.59715147
0.64357453
0.63148591
0.63306671
0.631711
0.63096849
0.63081898
0.630547
0.62957214
0.62872172
0.62823548
0.62771183
0.62712656
0.62652041
0.62589791
0.62526099
0.62461197
0.62395245
0.62328381
0.62260687
0.62192174
0.62122802
0.6205249
0.61981074
0.61908292
0.61833699
0.6175673
0.61676398
0.61591746
0.61500488
0.61401521
0.61288745
0.61163727
0.61007045
0.6083909
0.60587514
0.60369878
0.5988915
0.59717311
0.6434121
0.63156367
0.63316741
0.63172861
0.63096467
0.63082763
0.63058591
0.62960919
0.62873867
0.62824964
0.62772816
0.62714357
0.62653712
0.62591414
0.62527673
0.62462727
0.62396738
0.62329841
0.62262116
0.62193573
0.62124173
0.62053835
0.61982395
0.61909593
0.6183498
0.61757996
0.61677652
0.61592994
0.61501737
0.61402779
0.61290029
0.61165045
0.61008436
0.60840545
0.60589153
0.60371551
0.59891382
0.59718068
0.64362382
0.63162032
0.63328183
0.63177101
0.63099904
0.63087409
0.63065801
0.62968065
0.62879057
0.62830169
0.6277834
0.62719955
0.62659294
0.62596971
0.62533206
0.6246824
0.62402236
0.62335328
0.62267592
0.62199038
0.62129627
0.62059279
0.61987831
0.6191502
0.618404
0.6176341
0.61683063
0.61598406
0.61507157
0.61408211
0.61295484
0.61170529
0.61013981
0.60846138
0.60594897
0.60377302
0.59897635
0.59722008
0.64414153
0.63170097
0.63343931
0.63184214
0.63107368
0.63096286
0.63076464
0.62977476
0.62886669
0.62837974
0.62786422
0.62728122
0.62667503
0.62605218
0.62541491
0.62476566
0.62410603
0.62343736
0.6227604
0.62207525
0.62138153
0.62067843
0.61996431
0.61923656
0.61849072
0.61772118
0.6169181
0.61607193
0.61515988
0.6141709
0.6130442
0.61179526
0.61023062
0.608553
0.60604208
0.60386687
0.59907388
0.59729632
0.64462062
0.6317899
0.63351362
0.63187186
0.63111759
0.63101881
0.63082613
0.62981626
0.62890226
0.62841909
0.62790502
0.62732239
0.62671651
0.62609399
0.62545706
0.62480813
0.62414883
0.62348048
0.62280383
0.62211898
0.62142555
0.62072273
0.6200089
0.61928143
0.61853588
0.61776663
0.61696384
0.61611798
0.61520625
0.61421761
0.61309131
0.6118428
0.61027869
0.60860166
0.60609154
0.60391714
0.59912537
0.59734029
2.3023847
0.98661249
0.75615482
0.60421643
0.55863635
0.51323123
0.48193762
0.45447126
0.42971688
0.40630868
0.3837638
0.36184171
0.34045753
0.31961246
0.29935903
0.27977345
0.26094945
0.24299494
0.2260206
0.21014348
0.1954726
0.18214919
0.1702762
0.16016256
0.15192127
0.14726505
2.2819551
0.98696473
0.757362
0.60455153
0.55876914
0.51338375
0.48205853
0.45457035
0.42979425
0.40637102
0.38381445
0.36188197
0.34048752
0.31963178
0.29936685
0.2797694
0.26093344
0.24296709
0.22598126
0.21009323
0.19541219
0.18207962
0.1701986
0.16007842
0.15183208
0.14717289
2.2165461
0.97593027
0.75678056
0.60450161
0.5588017
0.51346942
0.482124
0.45461368
0.4298089
0.40636276
0.38378856
0.36184181
0.34043476
0.31956712
0.29929015
0.27968063
0.26083286
0.24285519
0.22585872
0.20996091
0.19527113
0.18193109
0.17004395
0.15991946
0.15167039
0.14700808
2.1095455
0.95030896
0.75248956
0.60322095
0.55848641
0.51350707
0.48225089
0.45475576
0.42993107
0.40645812
0.38385826
0.36188902
0.34046248
0.31957779
0.29928553
0.27966194
0.2608013
0.24281201
0.22580523
0.20989854
0.19520137
0.18185559
0.1699644
0.15983797
0.15158855
0.14692339
1.9906496
0.9171587
0.74516911
0.60039706
0.55740606
0.51318521
0.48224879
0.45489142
0.43010943
0.40664019
0.38402889
0.36204346
0.34060015
0.31969965
0.29939289
0.2797559
0.26088303
0.24288275
0.22586629
0.20995132
0.19524738
0.18189644
0.17000174
0.15987395
0.15162466
0.14695602
1.8475614
0.87415834
0.7343588
0.59570152
0.55522651
0.51219748
0.48186149
0.45482998
0.43020519
0.40680529
0.3842188
0.36223653
0.34078634
0.31987474
0.29955526
0.279905
0.26101913
0.24300664
0.22597908
0.21005444
0.19534241
0.18198528
0.17008631
0.15995693
0.15170792
0.14703396
1.6850331
0.8222866
0.72030339
0.58918035
0.55190796
0.51046047
0.48097974
0.45446628
0.43013809
0.4069007
0.38439727
0.36245319
0.34101618
0.32010433
0.29977757
0.2801163
0.26121778
0.24319241
0.22615265
0.21021713
0.19549596
0.1821319
0.17022835
0.16009771
0.15184963
0.14716793
1.5258933
0.76880472
0.70491352
0.58177439
0.54792687
0.50819519
0.47966265
0.45375836
0.42981746
0.40682334
0.38446675
0.36260768
0.34121637
0.32032611
0.30000641
0.28034342
0.26143818
0.2434036
0.22635389
0.21040886
0.19567946
0.18230916
0.17040165
0.16027047
0.15202397
0.1473323
1.3730999
0.71478477
0.68841426
0.57363656
0.54340507
0.50551531
0.47799471
0.4527504
0.42924754
0.40655035
0.38439178
0.36266179
0.3413515
0.3205096
0.30021659
0.28056598
0.26166396
0.24362713
0.2265723
0.21062123
0.19588613
0.18251164
0.17060192
0.16047184
0.15222833
0.14752477
1.2292446
0.6613015
0.67105307
0.56491495
0.53843422
0.50250326
0.47604573
0.45149867
0.42846547
0.40609845
0.38417302
0.36260664
0.34140905