/*--------------------------------*- C++ -*----------------------------------*\
| =========                 |                                                 |
| \\      /  F ield         | OpenFOAM: The Open Source CFD Toolbox           |
|  \\    /   O peration     | Version:  2.4.0                                 |
|   \\  /    A nd           | Web:      www.OpenFOAM.org                      |
|    \\/     M anipulation  |                                                 |
\*---------------------------------------------------------------------------*/
FoamFile
{
    version     2.0;
    format      ascii;
    class       volVectorField;
    location    "2000";
    object      U;
}
// * * * * * * * * * * * * * * * * * * * * * * * * * * * * * * * * * * * * * //

dimensions      [0 1 -1 0 0 0 0];

internalField   nonuniform List<vector> 
15296
(
(1.2139371 -0.00018361354 -1.053832e-13)
(1.2135797 -0.00020018821 -1.1216086e-13)
(1.213092 0.00024603334 1.3195953e-13)
(1.2125413 0.00024421452 1.2911611e-13)
(1.2120201 0.00024166276 1.2786199e-13)
(1.2114884 -0.00019146614 -1.0758486e-13)
(1.2109278 0.00023627936 1.2523025e-13)
(1.2103409 0.00023622495 1.2473958e-13)
(1.2097341 0.00024204382 1.293628e-13)
(1.2091141 -0.00018677806 -1.0863431e-13)
(1.2084852 -0.00019476838 -1.2020262e-13)
(1.2078729 0.00037144941 2.2606206e-13)
(1.2072966 0.00058585931 3.5301512e-13)
(1.2068069 -0.00074633731 -4.5501587e-13)
(1.2063579 -0.0011898091 -7.0856814e-13)
(1.2059141 0.0021535752 1.2846216e-12)
(1.2054118 0.0023690618 1.3583915e-12)
(1.2048948 -0.0016591729 -9.0510815e-13)
(1.2043486 0.0024535049 1.3840807e-12)
(1.2037516 0.0024571375 1.3590523e-12)
(1.2031408 -0.0016562044 -8.8665649e-13)
(1.2024542 -0.0016435874 -8.6566266e-13)
(1.2017327 0.0024198723 1.3416819e-12)
(1.2009019 0.002409265 1.3143973e-12)
(1.1999698 -0.0016103992 -8.5085202e-13)
(1.198873 0.0023797949 1.3142203e-12)
(1.197515 0.0023667968 1.2869357e-12)
(1.195812 -0.0015770109 -8.3673524e-13)
(1.1935478 0.0023326872 1.2897163e-12)
(1.1904405 0.0023120083 1.2610319e-12)
(1.185903 -0.0015243184 -8.3197193e-13)
(1.1793944 0.0022346914 1.243622e-12)
(1.1682427 -0.0014376828 -8.3635901e-13)
(1.1527072 0.0020074301 1.1188697e-12)
(1.1156479 -0.0015504927 -8.3664841e-13)
(1.0808341 0.00040291315 -4.2082818e-14)
(0.91395537 0.0004180016 -4.4844966e-14)
(0.88479581 0.0012290033 -7.6046642e-14)
(1.2139256 3.7361033e-05 4.6733458e-15)
(1.2135773 1.9642356e-05 5.1473946e-15)
(1.2130871 -3.3890024e-05 -3.1045846e-14)
(1.2125377 -3.31513e-05 -3.0818575e-14)
(1.2120178 -3.3119334e-05 -3.0594382e-14)
(1.2114863 2.0938605e-05 4.4864534e-15)
(1.2109245 -3.09313e-05 -2.9839646e-14)
(1.2103388 -3.1005991e-05 -3.0012214e-14)
(1.209733 -3.3541091e-05 -3.0709247e-14)
(1.2091117 2.0341948e-05 7.2192337e-15)
(1.2084858 2.6042214e-05 1.4450998e-14)
(1.2078688 -6.4671278e-05 -4.6175338e-14)
(1.2072922 -0.00011182858 -7.1170249e-14)
(1.2067919 7.3433765e-05 6.5584192e-14)
(1.2063507 0.00012680329 1.1353579e-13)
(1.2058942 -0.0004411241 -2.5481871e-13)
(1.205409 -0.00050318123 -2.7519996e-13)
(1.2048889 0.00013695662 1.3649161e-13)
(1.2043396 -0.00049535571 -2.6787048e-13)
(1.203757 -0.00051855613 -2.718727e-13)
(1.2031318 0.00010954883 1.229875e-13)
(1.2024679 0.00013455275 1.3001284e-13)
(1.2017305 -0.00047868723 -2.5638114e-13)
(1.2009131 -0.00050456972 -2.6224959e-13)
(1.1999775 0.00012175489 1.2130674e-13)
(1.1988776 -0.00046124819 -2.5015535e-13)
(1.1975351 -0.00048745916 -2.5770429e-13)
(1.1958335 0.00013378265 1.1834553e-13)
(1.1935726 -0.00042885783 -2.4649872e-13)
(1.1904917 -0.00044514307 -2.5599731e-13)
(1.1859751 0.00018840708 1.1792552e-13)
(1.179512 -0.0003416625 -2.5220946e-13)
(1.1684331 0.00030936659 1.1938395e-13)
(1.1530853 -5.3054366e-05 -2.4889608e-13)
(1.116204 0.00055631656 2.3893182e-14)
(1.0824423 0.0012909226 -9.0935955e-14)
(0.91550409 0.0012592875 -1.2804392e-13)
(0.88558403 0.0014091786 -1.5974281e-13)
(1.2139111 7.0044385e-05 5.6022396e-15)
(1.2135686 4.3956531e-05 6.7491258e-15)
(1.21308 -1.6395313e-05 -1.6051099e-14)
(1.212531 -1.6128993e-05 -1.6237966e-14)
(1.2120113 -1.6177226e-05 -1.6008793e-14)
(1.2114805 4.4952515e-05 5.8442078e-15)
(1.2109192 -1.4320195e-05 -1.5980468e-14)
(1.2103337 -1.3930487e-05 -1.5823674e-14)
(1.2097279 -1.3831914e-05 -1.5777241e-14)
(1.2091072 4.8300395e-05 8.2647885e-15)
(1.2084796 5.0669609e-05 1.2281463e-14)
(1.2078618 -2.6579494e-05 -1.904071e-14)
(1.2072815 -5.0244492e-05 -2.7162354e-14)
(1.2067784 0.00013633413 5.3974815e-14)
(1.206333 0.0002181258 8.8738972e-14)
(1.2058837 -0.00023503689 -9.4051396e-14)
(1.2054004 -0.00026254214 -9.9116433e-14)
(1.2048848 0.00033188867 1.274061e-13)
(1.2043372 -0.00027230748 -1.01806e-13)
(1.2037545 -0.00027175867 -9.9539879e-14)
(1.2031354 0.00034169967 1.2761439e-13)
(1.2024645 0.00034041635 1.2376459e-13)
(1.2017333 -0.00026399015 -9.9317965e-14)
(1.2009159 -0.00026018631 -9.6639454e-14)
(1.1999833 0.00034058998 1.2194432e-13)
(1.1988864 -0.00025044055 -9.7800177e-14)
(1.1975461 -0.00024182771 -9.516728e-14)
(1.195851 0.00035374936 1.1791551e-13)
(1.193599 -0.00021538295 -9.7738127e-14)
(1.1905305 -0.00018896179 -9.5705981e-14)
(1.1860354 0.00041114095 1.103486e-13)
(1.1796141 -7.9991929e-05 -9.9757352e-14)
(1.1685921 0.00054078207 9.5658556e-14)
(1.1534134 0.0002916992 -1.083804e-13)
(1.1166601 0.00096623344 2.1920112e-14)
(1.0837369 0.0019683127 -1.3038042e-13)
(0.9167766 0.001942877 -1.8643894e-13)
(0.88617722 0.0013725859 -2.0782233e-13)
(1.2138866 4.9710163e-05 -6.6385381e-15)
(1.2135553 1.3146222e-05 -6.5214112e-15)
(1.2130685 1.6386612e-05 -5.6336632e-15)
(1.2125203 1.6832795e-05 -5.9924469e-15)
(1.2120014 1.6552756e-05 -5.8864872e-15)
(1.2114706 1.707829e-05 -6.5995845e-15)
(1.2109101 1.7792402e-05 -6.2506624e-15)
(1.2103251 1.8489454e-05 -6.1157791e-15)
(1.2097197 1.9111587e-05 -5.7920355e-15)
(1.2090982 1.852147e-05 -6.2988278e-15)
(1.2084698 1.7030584e-05 -5.1379674e-15)
(1.2078497 1.7276446e-05 -3.7753246e-15)
(1.207265 1.5352018e-05 -3.4622291e-15)
(1.2067532 3.8743151e-06 -8.2179853e-15)
(1.2063086 -1.0271572e-05 -1.3084224e-14)
(1.2058647 3.4024239e-06 -1.968573e-15)
(1.2053893 7.0324659e-06 1.682985e-16)
(1.2048761 -1.7508365e-05 -1.5031675e-14)
(1.2043297 -1.5733119e-06 -2.490316e-15)
(1.2037518 7.1263156e-06 -8.4190517e-16)
(1.2031322 -7.6556209e-06 -1.3789297e-14)
(1.2024633 -1.4780509e-05 -1.6034658e-14)
(1.2017323 1.5778348e-06 -4.3371024e-15)
(1.2009193 1.4814827e-05 -1.8121891e-15)
(1.1999873 -4.4201971e-07 -1.4614928e-14)
(1.1988922 1.3460257e-05 -4.8921391e-15)
(1.1975585 3.3938635e-05 -2.6175579e-15)
(1.1958678 2.7864422e-05 -1.5982888e-14)
(1.1936238 5.460347e-05 -7.4379221e-15)
(1.1905726 9.9784317e-05 -5.6809124e-15)
(1.1860985 0.00012715391 -2.0213837e-14)
(1.1797218 0.00023430532 -1.3311534e-14)
(1.1687618 0.00034072884 -2.9872331e-14)
(1.1537633 0.00071864105 -3.4657944e-14)
(1.1171498 0.00094351743 -7.8034475e-14)
(1.0851389 0.0027384409 -1.6120606e-13)
(0.91819283 0.0027332913 -2.4055151e-13)
(0.88699358 0.0016870283 -2.5200467e-13)
(1.2138553 5.9624281e-05 -6.2706704e-15)
(1.2135374 1.4390368e-05 -6.5320159e-15)
(1.213053 2.8838393e-05 -3.9462744e-15)
(1.2125057 2.9484683e-05 -4.2769323e-15)
(1.2119873 2.8917347e-05 -4.0562454e-15)
(1.2114572 1.9789345e-05 -6.7273086e-15)
(1.2108974 3.0461485e-05 -4.6515458e-15)
(1.2103128 3.1329291e-05 -4.5137457e-15)
(1.2097075 3.208242e-05 -4.2253893e-15)
(1.2090857 2.2588697e-05 -6.4989129e-15)
(1.2084564 2.186251e-05 -5.2263391e-15)
(1.2078338 3.3421585e-05 -1.7616492e-15)
(1.2072423 3.5127827e-05 -9.0540605e-16)
(1.2067218 5.1602421e-06 -8.4706857e-15)
(1.2062765 -8.4493531e-06 -1.2455543e-14)
(1.2058406 7.1557089e-05 9.7220155e-15)
(1.2053707 8.200188e-05 1.1958967e-14)
(1.2048629 -2.175934e-05 -1.5322584e-14)
(1.204321 8.5921826e-05 1.2192898e-14)
(1.2037436 8.9082208e-05 1.1918624e-14)
(1.2031262 -1.7176393e-05 -1.6125644e-14)
(1.2024598 -1.7250919e-05 -1.6373257e-14)
(1.201731 9.2109177e-05 1.0393419e-14)
(1.2009181 9.7552038e-05 1.0312564e-14)
(1.1999891 -3.5299314e-06 -1.5939485e-14)
(1.1988978 0.00010699462 9.7926348e-15)
(1.1975665 0.00011963674 8.9483481e-15)
(1.1958825 3.2116086e-05 -1.7632875e-14)
(1.1936483 0.00015730613 6.4911352e-15)
(1.1906101 0.00019902589 4.7013951e-15)
(1.186159 0.00015808509 -2.2455199e-14)
(1.1798259 0.00036937597 -3.7622324e-15)
(1.1689267 0.00042784065 -3.3419428e-14)
(1.1541041 0.00096429224 -3.2485581e-14)
(1.1176258 0.0011739828 -8.298467e-14)
(1.0864893 0.0034868884 -1.85005e-13)
(0.91959765 0.0035058934 -2.8818739e-13)
(0.8878234 0.0020066309 -2.9012119e-13)
(1.2138064 7.6581613e-05 -5.2371381e-15)
(1.2135084 2.2319271e-05 -5.4134834e-15)
(1.2130276 3.0488581e-05 -4.7748889e-15)
(1.2124816 3.1382466e-05 -5.3606493e-15)
(1.2119643 3.0668647e-05 -4.9999833e-15)
(1.2114353 2.9248866e-05 -5.7130797e-15)
(1.2108763 3.2972038e-05 -5.8175395e-15)
(1.2102923 3.4025812e-05 -5.647436e-15)
(1.2096873 3.47202e-05 -5.4425785e-15)
(1.2090653 3.2701135e-05 -5.7894635e-15)
(1.2084345 3.261764e-05 -4.1821744e-15)
(1.2078078 3.37282e-05 -4.0055694e-15)
(1.2072076 3.0736734e-05 -4.1320002e-15)
(1.2066729 2.0944107e-05 -5.551413e-15)
(1.2062234 1.6505423e-05 -6.1985615e-15)
(1.2057977 2.8337425e-05 -3.8775778e-15)
(1.2053393 2.9472114e-05 -3.4277945e-15)
(1.2048399 1.2797619e-05 -6.282712e-15)
(1.2043035 3.6298365e-05 -2.9321813e-15)
(1.2037293 3.543016e-05 -3.7370273e-15)
(1.2031148 1.4495371e-05 -8.3122793e-15)
(1.2024519 2.0376555e-05 -7.815844e-15)
(1.2017252 4.6975978e-05 -4.2708014e-15)
(1.2009144 4.8072771e-05 -5.0236549e-15)
(1.1999888 3.3710199e-05 -8.2075825e-15)
(1.1989016 6.7986088e-05 -4.3421267e-15)
(1.1975752 7.7732308e-05 -6.1701402e-15)
(1.1958994 7.846306e-05 -1.0423122e-14)
(1.1936771 0.00013467942 -7.8060839e-15)
(1.1906574 0.00018148053 -1.0463757e-14)
(1.1862356 0.00023824558 -1.6185923e-14)
(1.1799593 0.00040683639 -1.8954012e-14)
(1.169139 0.00057955911 -2.9305031e-14)
(1.1545448 0.001178692 -4.9052111e-14)
(1.1182411 0.0015118165 -8.3143179e-14)
(1.088229 0.004458354 -2.1062045e-13)
(0.92147339 0.0045290444 -3.4412252e-13)
(0.88896422 0.0024048744 -3.3459866e-13)
(1.2137287 9.517317e-05 -4.3065868e-15)
(1.2134592 3.1405519e-05 -4.3965685e-15)
(1.2129849 3.7306494e-05 -4.8341802e-15)
(1.2124411 3.8473183e-05 -5.4756829e-15)
(1.2119255 3.7625039e-05 -5.0816704e-15)
(1.2113981 4.0387884e-05 -5.1827186e-15)
(1.2108403 4.0640039e-05 -5.8626073e-15)
(1.2102574 4.1982067e-05 -5.7683097e-15)
(1.2096529 4.3013341e-05 -5.6992315e-15)
(1.2090306 4.519285e-05 -5.4806067e-15)
(1.2083978 4.5193233e-05 -3.9281412e-15)
(1.2077663 4.1937702e-05 -4.5576896e-15)
(1.2071551 3.8002491e-05 -4.9193368e-15)
(1.2065995 3.6930517e-05 -3.9743478e-15)
(1.2061339 3.6707904e-05 -3.8209643e-15)
(1.2057189 2.6077409e-05 -5.7755562e-15)
(1.2052803 2.6274924e-05 -5.5008905e-15)
(1.2047958 4.7930217e-05 -2.3233907e-15)
(1.2042689 3.151039e-05 -5.6297725e-15)
(1.2037017 3.2356284e-05 -6.4310752e-15)
(1.2030924 5.4163763e-05 -3.9097533e-15)
(1.2024332 5.8976727e-05 -3.9374861e-15)
(1.2017104 4.4528821e-05 -7.4548436e-15)
(1.2009036 4.8745449e-05 -7.5782164e-15)
(1.1999824 7.6328797e-05 -4.340298e-15)
(1.1989003 7.1067653e-05 -7.5920257e-15)
(1.1975814 8.6830837e-05 -8.8425086e-15)
(1.1959159 0.00013254362 -6.9335471e-15)
(1.1937084 0.00015590002 -1.1364712e-14)
(1.1907134 0.00021915262 -1.3670289e-14)
(1.1863286 0.00033299766 -1.383009e-14)
(1.1801243 0.00050418585 -2.3492174e-14)
(1.1694042 0.00075902314 -2.9183556e-14)
(1.1550997 0.0014864105 -5.6916503e-14)
(1.1190158 0.0019191727 -8.5924401e-14)
(1.0903924 0.005668487 -2.3558388e-13)
(0.92395835 0.0058433672 -4.0626271e-13)
(0.89047515 0.002901261 -3.8381844e-13)
(1.2136229 0.00011014587 -3.9873837e-15)
(1.2133882 3.7527997e-05 -4.2015357e-15)
(1.2129235 4.6518239e-05 -4.7209829e-15)
(1.2123829 4.8169907e-05 -5.3163566e-15)
(1.2118697 4.7188885e-05 -4.7970427e-15)
(1.2113442 4.9454691e-05 -5.1933621e-15)
(1.2107882 5.0914285e-05 -5.7922448e-15)
(1.2102066 5.2633792e-05 -5.6914175e-15)
(1.2096031 5.4006268e-05 -5.5332862e-15)
(1.2089805 5.5509924e-05 -5.7594045e-15)
(1.2083458 5.5410749e-05 -4.5761578e-15)
(1.2077092 5.3070633e-05 -4.765507e-15)
(1.2070865 4.8935994e-05 -5.178573e-15)
(1.206507 4.3838197e-05 -4.6882891e-15)
(1.2060119 3.8537521e-05 -5.0125844e-15)
(1.2055971 3.3493794e-05 -5.368588e-15)
(1.2051835 3.5295856e-05 -4.3402403e-15)
(1.2047223 4.4808904e-05 -4.1286242e-15)
(1.2042113 4.0212822e-05 -5.1337476e-15)
(1.2036554 4.3599174e-05 -5.9492409e-15)
(1.2030539 5.49841e-05 -5.8440582e-15)
(1.2024007 5.860245e-05 -6.1408216e-15)
(1.2016833 5.59208e-05 -7.4642545e-15)
(1.2008822 6.4068794e-05 -7.0818827e-15)
(1.1999665 8.196833e-05 -6.3497498e-15)
(1.1988909 8.8565307e-05 -7.5754703e-15)
(1.1975809 0.00011135159 -8.6713885e-15)
(1.1959272 0.00015202535 -9.1266988e-15)
(1.193737 0.00019329852 -1.1948207e-14)
(1.1907701 0.0002750811 -1.4073557e-14)
(1.1864269 0.00039993195 -1.6722815e-14)
(1.1803038 0.00062523991 -2.5152981e-14)
(1.1696958 0.00092249034 -3.3374452e-14)
(1.1557157 0.001839591 -6.1914807e-14)
(1.1198802 0.0023269621 -9.121847e-14)
(1.0927647 0.0070078678 -2.552917e-13)
(0.92690846 0.0073451903 -4.6583724e-13)
(0.8922253 0.0034715966 -4.3139075e-13)
(1.2134825 0.00012482625 -3.5205199e-15)
(1.2132888 4.4461817e-05 -3.9011242e-15)
(1.2128373 5.7187758e-05 -4.3951354e-15)
(1.2123012 5.9557839e-05 -5.1928948e-15)
(1.2117911 5.8422664e-05 -4.6151072e-15)
(1.2112683 6.0199684e-05 -5.218343e-15)
(1.2107145 6.2987276e-05 -5.6231441e-15)
(1.2101349 6.5147373e-05 -5.5900595e-15)
(1.2095326 6.6895753e-05 -5.378557e-15)
(1.2089103 6.7870988e-05 -5.7662504e-15)
(1.2082738 6.7933375e-05 -4.8805023e-15)
(1.2076323 6.6623638e-05 -5.0233591e-15)
(1.2069985 6.2545138e-05 -5.2788039e-15)
(1.2063948 5.5004202e-05 -5.1365795e-15)
(1.20586 4.7350844e-05 -5.1181723e-15)
(1.2054224 4.5669419e-05 -4.4893948e-15)
(1.2050295 4.8746013e-05 -3.7536363e-15)
(1.204602 5.0529117e-05 -4.65787e-15)
(1.2041174 5.6944669e-05 -4.1943942e-15)
(1.2035795 6.1343231e-05 -5.508753e-15)
(1.2029908 6.3107365e-05 -6.4586207e-15)
(1.2023473 6.7638768e-05 -6.8187056e-15)
(1.201638 7.669591e-05 -7.1471979e-15)
(1.2008442 8.6389716e-05 -6.8241489e-15)
(1.199936 9.6296837e-05 -7.2928768e-15)
(1.1988688 0.00011632492 -7.4020822e-15)
(1.1975692 0.00014359097 -8.5692272e-15)
(1.1959298 0.00018130319 -1.0373281e-14)
(1.1937595 0.00024293702 -1.2088208e-14)
(1.1908242 0.0003414531 -1.4423718e-14)
(1.1865281 0.00048078502 -1.844019e-14)
(1.1804962 0.00076402519 -2.6537699e-14)
(1.1700135 0.0011064981 -3.6240212e-14)
(1.1563943 0.0022322966 -6.5994578e-14)
(1.1208432 0.0027647979 -9.4905226e-14)
(1.0953387 0.008481391 -2.6956303e-13)
(0.93043113 0.0090586963 -5.2151864e-13)
(0.89421927 0.0041115254 -4.7715465e-13)
(1.2133006 0.00013873902 -2.9536144e-15)
(1.2131521 5.1913512e-05 -3.2789676e-15)
(1.2127184 6.8222052e-05 -4.2905153e-15)
(1.2121884 7.1610893e-05 -5.118525e-15)
(1.2116825 7.0369185e-05 -4.6499327e-15)
(1.2111632 7.2592633e-05 -5.1126462e-15)
(1.2106124 7.5967486e-05 -5.5343772e-15)
(1.2100353 7.8629168e-05 -5.482614e-15)
(1.2094348 8.0808149e-05 -5.4025189e-15)
(1.2088133 8.2153227e-05 -5.8006462e-15)
(1.2081758 8.2518092e-05 -5.3466021e-15)
(1.2075299 8.1331243e-05 -5.1544517e-15)
(1.2068859 7.719219e-05 -5.5665707e-15)
(1.2062599 6.9166451e-05 -5.5639642e-15)
(1.2056827 5.9786784e-05 -5.4300335e-15)
(1.2051959 5.4311205e-05 -5.0520934e-15)
(1.204798 5.4807201e-05 -3.9771408e-15)
(1.2044079 5.8173089e-05 -4.5040219e-15)
(1.2039638 6.5452341e-05 -4.2683402e-15)
(1.2034559 7.0847027e-05 -6.1060401e-15)
(1.2028884 7.4304674e-05 -6.6767083e-15)
(1.2022607 8.0711226e-05 -7.1343879e-15)
(1.2015638 9.0970592e-05 -7.7182564e-15)
(1.2007808 0.00010188859 -7.2118892e-15)
(1.199883 0.00011497485 -7.6132358e-15)
(1.198827 0.00013876505 -7.9598631e-15)
(1.1975404 0.00017047737 -9.1668163e-15)
(1.1959179 0.00021667805 -1.097651e-14)
(1.1937711 0.00029014097 -1.2843441e-14)
(1.190872 0.00040676449 -1.5419501e-14)
(1.1866296 0.00057311368 -1.9688007e-14)
(1.1807005 0.00091084797 -2.8280153e-14)
(1.1703589 0.0013105775 -3.8212799e-14)
(1.1571421 0.0026638738 -6.9525678e-14)
(1.1219267 0.0032356767 -9.7047315e-14)
(1.0981224 0.010110161 -2.7793064e-13)
(0.93471047 0.011040546 -5.715721e-13)
(0.89647282 0.004851998 -5.2120382e-13)
(1.2130684 0.00015162881 -2.3669613e-15)
(1.2129676 5.9696533e-05 -2.9844583e-15)
(1.2125566 8.0226181e-05 -4.1003823e-15)
(1.2120349 8.5065472e-05 -4.9900258e-15)
(1.2115346 8.3802797e-05 -4.62425e-15)
(1.2110199 8.6709022e-05 -4.9846129e-15)
(1.2104729 9.062102e-05 -5.3636795e-15)
(1.209899 9.3869107e-05 -5.2463769e-15)
(1.2093011 9.6587747e-05 -5.2883055e-15)
(1.2086812 9.8579526e-05 -5.8320446e-15)
(1.2080434 9.9353871e-05 -5.6040535e-15)
(1.2073943 9.8321202e-05 -5.4079165e-15)
(1.2067417 9.444375e-05 -5.7072022e-15)
(1.2060968 8.6730971e-05 -6.1930573e-15)
(1.2054811 7.6391315e-05 -5.9540163e-15)
(1.2049323 6.737049e-05 -5.3688752e-15)
(1.2044849 6.40079e-05 -4.1143118e-15)
(1.2041079 6.766233e-05 -4.4748098e-15)
(1.203714 7.4482219e-05 -4.4244773e-15)
(1.2032539 8.1735791e-05 -6.0888751e-15)
(1.2027222 8.9213838e-05 -6.5798675e-15)
(1.2021207 9.7477552e-05 -7.1518574e-15)
(1.201444 0.0001073441 -7.9657591e-15)
(1.2006776 0.0001203055 -7.6194608e-15)
(1.199795 0.00013851192 -8.0186186e-15)
(1.1987543 0.00016429247 -8.4317513e-15)
(1.1974845 0.00020167889 -9.7295594e-15)
(1.1958831 0.000258858 -1.1369922e-14)
(1.1937642 0.00034309975 -1.3575189e-14)
(1.1909073 0.00048057721 -1.6307131e-14)
(1.1867265 0.00067782153 -2.0507502e-14)
(1.1809141 0.0010743236 -2.9487645e-14)
(1.170733 0.0015349291 -3.9466943e-14)
(1.1579649 0.0031425942 -7.1998933e-14)
(1.1231606 0.0037376818 -9.7612991e-14)
(1.1011136 0.011891406 -2.7981654e-13)
(0.94000495 0.013341964 -6.1241716e-13)
(0.89904627 0.005680505 -5.6257266e-13)
(1.2127737 0.00016297224 -2.0199949e-15)
(1.2127224 6.7395904e-05 -2.6191809e-15)
(1.2123392 9.3121729e-05 -3.684976e-15)
(1.2118285 0.0001000222 -4.4949077e-15)
(1.2113355 9.8884528e-05 -4.4826717e-15)
(1.2108267 0.0001024544 -4.953192e-15)
(1.2102846 0.00010714481 -4.9153343e-15)
(1.2097148 0.00011108601 -5.2969757e-15)
(1.2091206 0.00011444581 -5.4867154e-15)
(1.2085033 0.00011705152 -5.9855408e-15)
(1.2078665 0.00011834198 -5.9116726e-15)
(1.2072156 0.0001177568 -5.5909734e-15)
(1.2065566 0.00011440043 -5.9093287e-15)
(1.205897 0.00010715646 -6.1010337e-15)
(1.2052504 9.6386358e-05 -5.9318047e-15)
(1.2046443 8.5074783e-05 -5.5661117e-15)
(1.2041183 7.7534097e-05 -4.0408819e-15)
(1.203694 7.6997831e-05 -4.4371512e-15)
(1.2033252 8.2778523e-05 -4.2790425e-15)
(1.2029265 9.20408e-05 -6.2652212e-15)
(1.202452 0.00010234731 -6.3433054e-15)
(1.2018946 0.00011296811 -7.1133685e-15)
(1.2012515 0.00012497179 -8.409021e-15)
(1.2005118 0.00014078101 -7.7818012e-15)
(1.1996523 0.00016254958 -8.2128519e-15)
(1.1986334 0.0001925007 -8.7675885e-15)
(1.1973864 0.0002365661 -1.0028057e-14)
(1.1958116 0.00030369977 -1.1636718e-14)
(1.1937265 0.00040155122 -1.3989812e-14)
(1.190919 0.00056230825 -1.6842104e-14)
(1.186809 0.00079082023 -2.1211453e-14)
(1.181128 0.0012536438 -3.0408865e-14)
(1.171129 0.0017743377 -4.0200697e-14)
(1.158853 0.0036657503 -7.2964947e-14)
(1.1245667 0.0042612937 -9.6512456e-14)
(1.1042535 0.013793127 -2.7429424e-13)
(0.94658436 0.015985474 -6.3904341e-13)
(0.90198707 0.0065921673 -5.9954493e-13)
(1.2124041 0.00017285816 -1.7370406e-15)
(1.2124003 7.5039519e-05 -2.247048e-15)
(1.2120503 0.00010681665 -3.4832368e-15)
(1.2115537 0.00011657855 -4.4286277e-15)
(1.21107 0.00011578235 -4.4279579e-15)
(1.2105689 0.00012011461 -4.6272948e-15)
(1.210033 0.00012577096 -5.0599093e-15)
(1.2094687 0.00013052822 -5.2004429e-15)
(1.2088791 0.00013463916 -5.3127762e-15)
(1.2082657 0.00013793196 -5.950961e-15)
(1.2076315 0.00013987202 -6.1677414e-15)
(1.2069808 0.00013994944 -5.73151e-15)
(1.2063183 0.00013734947 -6.1671017e-15)
(1.2056486 0.00013094954 -6.3485596e-15)
(1.2049795 0.00012060068 -6.2710898e-15)
(1.2043289 0.00010832886 -6.0489509e-15)
(1.2037271 9.7638101e-05 -4.394859e-15)
(1.2032095 9.1872972e-05 -4.5680798e-15)
(1.2027894 9.3375364e-05 -4.3228831e-15)
(1.2024187 0.00010184835 -5.9222643e-15)
(1.202015 0.00011420414 -5.8063696e-15)
(1.2015274 0.00012812211 -6.9954158e-15)
(1.2009405 0.00014384254 -8.1106934e-15)
(1.2002455 0.00016321161 -8.1236635e-15)
(1.1994231 0.00018866877 -8.5008663e-15)
(1.1984371 0.00022423061 -9.0076851e-15)
(1.1972221 0.00027559603 -1.0107297e-14)
(1.1956821 0.00035301097 -1.2197459e-14)
(1.1936389 0.00046645849 -1.4255764e-14)
(1.1908898 0.00065239482 -1.7317139e-14)
(1.1868619 0.00091361667 -2.1326442e-14)
(1.1813287 0.0014492068 -3.0787351e-14)
(1.1715373 0.0020285982 -4.0116551e-14)
(1.1597923 0.0042310563 -7.2625357e-14)
(1.1261808 0.0048033687 -9.3638011e-14)
(1.1074634 0.015766545 -2.6147357e-13)
(0.9548556 0.019017991 -6.4583939e-13)
(0.9053595 0.0076319398 -6.3040116e-13)
(1.2119437 0.00018105659 -1.1363151e-15)
(1.2119815 8.2821691e-05 -1.945482e-15)
(1.2116695 0.00012108903 -3.013638e-15)
(1.2111902 0.00013472283 -3.9063701e-15)
(1.2107185 0.00013464001 -4.1185989e-15)
(1.2102271 0.00013995931 -4.5848132e-15)
(1.2096991 0.00014675952 -5.0172288e-15)
(1.2091416 0.00015249237 -5.2905868e-15)
(1.2085582 0.00015749178 -5.3407589e-15)
(1.2079501 0.0001616205 -6.1462509e-15)
(1.2073201 0.00016435724 -6.0841163e-15)
(1.2066719 0.00016524258 -5.7063071e-15)
(1.2060091 0.00016359795 -6.4721101e-15)
(1.2053341 0.0001584154 -6.3701934e-15)
(1.2046508 0.00014922344 -6.4580739e-15)
(1.2039697 0.0001371165 -6.1663188e-15)
(1.2033105 0.00012468953 -4.8018214e-15)
(1.2027014 0.00011497272 -4.8581382e-15)
(1.2021727 0.00011077463 -4.3469917e-15)
(1.2017346 0.00011407819 -5.3823391e-15)
(1.2013479 0.00012489885 -5.2996229e-15)
(1.200935 0.00014131586 -6.804553e-15)
(1.2004328 0.00016146605 -7.955731e-15)
(1.1998107 0.00018548197 -7.9330734e-15)
(1.1990489 0.00021586956 -8.4481458e-15)
(1.1981155 0.0002577618 -8.9347139e-15)
(1.196949 0.00031742114 -1.0121399e-14)
(1.195458 0.00040674076 -1.2256693e-14)
(1.1934698 0.00053712694 -1.4278613e-14)
(1.1907926 0.00075042671 -1.754599e-14)
(1.1868624 0.0010467921 -2.1019752e-14)
(1.1814977 0.0016612349 -3.0357094e-14)
(1.1719489 0.0022980383 -3.9131466e-14)
(1.1607717 0.0048376395 -7.0623214e-14)
(1.1280805 0.0053684465 -8.9068636e-14)
(1.1106709 0.017731959 -2.418246e-13)
(0.96558686 0.022450474 -6.2353028e-13)
(0.90931303 0.0088203018 -6.5313372e-13)
(1.2113663 0.00018673727 -9.9183726e-16)
(1.2114429 9.1333778e-05 -1.5558082e-15)
(1.2111718 0.00013572102 -2.5824012e-15)
(1.2107131 0.00015438572 -3.4405235e-15)
(1.2102561 0.0001555585 -3.9981768e-15)
(1.2097768 0.00016213485 -4.5189795e-15)
(1.2092587 0.00017030457 -4.7705559e-15)
(1.2087098 0.00017720762 -5.3256756e-15)
(1.2081341 0.00018325774 -5.1290879e-15)
(1.2075329 0.00018838043 -5.7909338e-15)
(1.206909 0.00019205898 -6.0916578e-15)
(1.2062657 0.00019389434 -5.9911011e-15)
(1.2056057 0.00019338571 -6.4864469e-15)
(1.2049304 0.00018971244 -6.5555033e-15)
(1.2042408 0.000182251 -6.798226e-15)
(1.2035417 0.000171408 -6.1758367e-15)
(1.202845 0.00015889243 -5.2485155e-15)
(1.2021688 0.0001471943 -5.1514132e-15)
(1.2015368 0.00013891898 -4.9492097e-15)
(1.2009733 0.00013631828 -5.2549174e-15)
(1.2004907 0.00014120775 -5.3289913e-15)
(1.2000644 0.0001546088 -6.4215708e-15)
(1.1996275 0.00017617263 -7.4031935e-15)
(1.1991049 0.00020517315 -7.9147252e-15)
(1.1984404 0.00024242841 -8.2596839e-15)
(1.1975908 0.00029224919 -8.584159e-15)
(1.1964975 0.00036159447 -9.8569344e-15)
(1.1950768 0.00046431324 -1.150787e-14)
(1.1931636 0.00061303872 -1.377794e-14)
(1.1905783 0.00085607276 -1.705864e-14)
(1.1867685 0.0011899654 -2.0526568e-14)
(1.1815984 0.001888895 -2.9353595e-14)
(1.1723398 0.002581638 -3.7269842e-14)
(1.1617539 0.0054743682 -6.6823452e-14)
(1.1303513 0.0059639153 -8.2312215e-14)
(1.1137278 0.019453863 -2.1636773e-13)
(0.98070954 0.026716951 -5.5500221e-13)
(0.91410538 0.010207233 -6.6350904e-13)
(1.2105128 0.00018542737 -5.4559963e-16)
(1.2106234 0.00010446118 -1.2336076e-15)
(1.2104036 0.00015335227 -2.2592174e-15)
(1.2099731 0.00017908995 -2.9760137e-15)
(1.2095374 0.0001829746 -3.583492e-15)
(1.2090759 0.0001914559 -4.6057922e-15)
(1.2085726 0.00020156802 -5.0146896e-15)
(1.2080363 0.00021015866 -5.0000608e-15)
(1.2074721 0.00021769453 -5.0965605e-15)
(1.2068815 0.00022418755 -6.0011642e-15)
(1.2062672 0.00022914788 -6.2249963e-15)
(1.2056326 0.00023225407 -5.978233e-15)
(1.2049799 0.00023320968 -6.6585729e-15)
(1.20431 0.00023146317 -6.7797629e-15)
(1.203622 0.00022639205 -7.2825317e-15)
(1.2029163 0.00021791564 -6.3269207e-15)
(1.2021976 0.00020692304 -5.6978958e-15)
(1.2014759 0.00019512621 -5.6040024e-15)
(1.2007643 0.00018477308 -5.3611004e-15)
(1.2000804 0.00017805512 -5.5147282e-15)
(1.1994426 0.00017691228 -5.7765234e-15)
(1.1988644 0.00018347655 -6.1580112e-15)
(1.1983397 0.00019978515 -6.7653171e-15)
(1.1978296 0.00022762939 -7.353866e-15)
(1.1972614 0.00026922273 -8.0321432e-15)
(1.1965477 0.00032873862 -8.1284035e-15)
(1.1955952 0.00041236014 -9.4046345e-15)
(1.1943083 0.00053429776 -1.0384546e-14)
(1.1925269 0.00070787507 -1.2777582e-14)
(1.1900875 0.00098901707 -1.6227462e-14)
(1.1864595 0.0013700162 -1.9185384e-14)
(1.1815575 0.002172969 -2.7211621e-14)
(1.1727222 0.0029335441 -3.4077541e-14)
(1.1628272 0.006232719 -6.0291575e-14)
(1.1336022 0.0067522736 -7.2567116e-14)
(1.1166573 0.020757171 -1.8366395e-13)
(1.0092369 0.032761925 -3.9653088e-13)
(0.92168253 0.012824676 -6.5266491e-13)
(1.2093169 0.00017682012 -2.8085915e-16)
(1.2094448 0.00012148619 -6.2569849e-16)
(1.2092769 0.00017289327 -1.2738039e-15)
(1.20888 0.00020688243 -2.2975314e-15)
(1.2084717 0.00021540487 -3.3259491e-15)
(1.2080344 0.00022673237 -4.3430915e-15)
(1.2075513 0.00023948047 -4.5377163e-15)
(1.2070327 0.00025036952 -4.3395407e-15)
(1.2064846 0.00025988841 -4.6808129e-15)
(1.205909 0.00026815388 -5.8118225e-15)
(1.2053088 0.00027473149 -5.5585511e-15)
(1.2046875 0.00027939131 -5.737439e-15)
(1.2040477 0.00028204077 -6.5680827e-15)
(1.2033903 0.00028244379 -6.8610279e-15)
(1.2027145 0.0002801808 -7.0210451e-15)
(1.2020187 0.00027496191 -6.5134541e-15)
(1.2013028 0.00026704377 -5.9479575e-15)
(1.2005702 0.00025738219 -5.7304433e-15)
(1.1998266 0.00024753627 -5.5295395e-15)
(1.1990804 0.00023937258 -6.1772671e-15)
(1.1983401 0.00023492918 -6.6254055e-15)
(1.1976133 0.00023650793 -6.572288e-15)
(1.1969058 0.00024695297 -6.7335312e-15)
(1.1962149 0.00027001641 -7.4189103e-15)
(1.1955194 0.00031016245 -7.9968647e-15)
(1.1947707 0.00037341658 -8.4817964e-15)
(1.193883 0.00046733853 -9.0510216e-15)
(1.1927401 0.00060803375 -9.7450545e-15)
(1.1911556 0.00080992638 -1.1926815e-14)
(1.1889506 0.0011356111 -1.3841808e-14)
(1.1856086 0.0015721625 -1.6801776e-14)
(1.1810689 0.0024889129 -2.3310468e-14)
(1.1728514 0.0033329893 -2.8890551e-14)
(1.1635957 0.0069898833 -5.043212e-14)
(1.137849 0.0078130173 -6.0301571e-14)
(1.1181402 0.021124389 -1.5138009e-13)
(1.0455 0.038703917 -2.1987144e-13)
(0.93437169 0.017745029 -5.9358341e-13)
(1.2078615 0.00017113583 -2.0379319e-16)
(1.2079973 0.00013916223 -6.4974003e-16)
(1.2078743 0.00019226886 -1.1562073e-15)
(1.20751 0.00023461184 -2.0550232e-15)
(1.2071304 0.00024866481 -2.7799948e-15)
(1.20672 0.0002634526 -3.8323926e-15)
(1.2062604 0.00027934148 -3.9304518e-15)
(1.2057625 0.00029294752 -4.1404908e-15)
(1.2052334 0.00030476884 -4.6150121e-15)
(1.2046754 0.00031504411 -5.3626303e-15)
(1.204092 0.00032339888 -5.7820979e-15)
(1.2034868 0.00032968733 -5.7194681e-15)
(1.2028628 0.00033398519 -6.241386e-15)
(1.2022215 0.00033633117 -6.7835272e-15)
(1.2015626 0.00033659133 -6.9018853e-15)
(1.2008843 0.00033455444 -6.5251595e-15)
(1.2001848 0.00033018344 -6.3059709e-15)
(1.199463 0.00032391098 -6.2842696e-15)
(1.1987201 0.00031671781 -6.2644567e-15)
(1.1979587 0.00031008534 -6.4817584e-15)
(1.1971815 0.00030600083 -6.9716856e-15)
(1.1963905 0.00030694673 -7.1469482e-15)
(1.1955861 0.00031587401 -7.27661e-15)
(1.1947629 0.0003366769 -7.6330677e-15)
(1.1939074 0.00037462671 -7.5233034e-15)
(1.1929938 0.00043766382 -8.2285881e-15)
(1.1919703 0.00053592762 -8.6586846e-15)
(1.1907566 0.00068855779 -8.6109731e-15)
(1.1891957 0.00091228713 -1.075192e-14)
(1.1871204 0.0012762906 -1.2493315e-14)
(1.1840423 0.0017644523 -1.4481327e-14)
(1.1798689 0.0027821597 -1.974854e-14)
(1.1724216 0.0037229695 -2.4367084e-14)
(1.1636351 0.007589006 -4.1285558e-14)
(1.1420514 0.0090195376 -4.8078869e-14)
(1.1185998 0.020946487 -1.213928e-13)
(1.0695261 0.043271009 -1.3559134e-13)
(0.95047881 0.023862755 -4.956127e-13)
(1.2060964 0.00016842304 -1.621534e-16)
(1.2062381 0.00015739604 -5.9011014e-16)
(1.2061555 0.00021211034 -8.9572992e-16)
(1.2058226 0.00026250014 -1.5075448e-15)
(1.2054723 0.00028273395 -2.3292086e-15)
(1.2050911 0.00030156264 -3.1231039e-15)
(1.2046577 0.00032110336 -3.2609819e-15)
(1.2041836 0.00033787832 -3.5245402e-15)
(1.2036765 0.00035236411 -4.0823717e-15)
(1.2031393 0.00036492909 -4.7184555e-15)
(1.2025755 0.00037525861 -5.3013807e-15)
(1.2019893 0.00038328138 -5.3151012e-15)
(1.201384 0.00038921134 -6.139854e-15)
(1.2007616 0.00039330274 -6.341641e-15)
(1.2001226 0.00039569984 -6.3266398e-15)
(1.1994662 0.00039640732 -6.5736283e-15)
(1.1987899 0.00039540867 -6.2543784e-15)
(1.1980914 0.00039289969 -6.3899972e-15)
(1.1973687 0.00038947381 -6.4891642e-15)
(1.1966205 0.00038623048 -7.0192973e-15)
(1.1958453 0.00038484849 -6.9371483e-15)
(1.1950411 0.00038763798 -7.2008145e-15)
(1.1942036 0.00039781829 -7.1351641e-15)
(1.1933248 0.00041984129 -7.3721757e-15)
(1.1923892 0.00045947553 -7.3049811e-15)
(1.1913718 0.00052525247 -7.9493942e-15)
(1.1902258 0.00062844401 -8.588791e-15)
(1.1888851 0.00079061995 -8.8858853e-15)
(1.1872206 0.0010312876 -9.8840223e-15)
(1.1850955 0.0014261452 -1.1377106e-14)
(1.1820922 0.0019601601 -1.3012683e-14)
(1.178096 0.0030562558 -1.6531676e-14)
(1.1713583 0.0041177664 -2.0967662e-14)
(1.1628586 0.0080140668 -3.3159887e-14)
(1.1453881 0.010345848 -3.8629264e-14)