0.4709558481 	9.802343756e-07 	-3.506103477e-09 	-3.45161049e-15 	9.783708764e-07 	-1.353940956e-13 	1.865046814e-09
0.4711314108 	1.100559122e-05 	-1.537541714e-07 	-1.423370328e-13 	1.09849246e-05 	-1.516405995e-12 	2.094031939e-08
0.4713069734 	6.133746058e-05 	-2.001779019e-06 	-1.72520726e-12 	6.122929872e-05 	-8.443248712e-12 	1.167200612e-07
0.471482536 	0.0002040342429 	-1.240159662e-05 	-9.740679767e-12 	0.0002037456417 	-2.839640837e-11 	3.883958213e-07
0.4716580986 	0.0005025590561 	-4.952861503e-05 	-3.419961511e-11 	0.000502264255 	-7.268355514e-11 	9.574552672e-07
0.4718336613 	0.001020948988 	-0.0001471818057 	-8.458561198e-11 	0.001022034032 	-1.604012188e-10 	1.948280925e-06
0.4720092239 	0.001810867538 	-0.0003515022044 	-1.547594102e-10 	0.001817906062 	-3.257735852e-10 	3.465434215e-06
0.4721847865 	0.00289394285 	-0.0007057347668 	-2.075299995e-10 	0.002917187813 	-6.225147443e-10 	5.560970761e-06
0.4723603491 	0.00424677241 	-0.001227664085 	-1.788437171e-10 	0.004302987565 	-1.113644653e-09 	8.202690253e-06
0.4725359118 	0.005801284239 	-0.001895483057 	-7.823184785e-12 	0.00591022038 	-1.848405886e-09 	1.12665227e-05
0.4727114744 	0.007465125024 	-0.002660268359 	3.080766152e-10 	0.007644169611 	-2.828037964e-09 	1.457191187e-05
0.472887037 	0.00914208857 	-0.003379261236 	1.191025501e-09 	0.009384923671 	-4.154538183e-09 	1.789027292e-05
0.4730625996 	0.01077902643 	-0.003997868635 	2.128978187e-09 	0.01106888119 	-5.573683886e-09 	2.110036398e-05
0.4732381623 	0.01236059286 	-0.004584474731 	2.623882727e-09 	0.01269313405 	-6.872339485e-09 	2.419664137e-05
0.4734137249 	0.01386913853 	-0.005143969109 	3.130498514e-09 	0.01424200664 	-8.195867762e-09 	2.714922301e-05
0.4735892875 	0.01529250815 	-0.005671889163 	3.642716783e-09 	0.01570363353 	-9.527424983e-09 	2.993549011e-05
0.4737648501 	0.01662467751 	-0.006165988975 	4.15481116e-09 	0.0170716674 	-1.085503853e-08 	3.25433429e-05
0.4739404128 	0.0178642162 	-0.006625735246 	4.661300539e-09 	0.01834457342 	-1.216210861e-08 	3.496985554e-05
0.4741159754 	0.01901285386 	-0.007051777825 	5.15795926e-09 	0.01952413139 	-1.343652027e-08 	3.721842089e-05
0.474291538 	0.02007434539 	-0.007445533233 	5.641634813e-09 	0.02061420165 	-1.466926501e-08 	3.929639776e-05
0.4744671006 	0.02105363231 	-0.007808890073 	6.109979974e-09 	0.02161985798 	-1.585301469e-08 	4.121345823e-05
0.4746426632 	0.02195624914 	-0.008144013036 	6.561464002e-09 	0.0225467827 	-1.698137289e-08 	4.298043437e-05
0.4748182259 	0.02278792278 	-0.008453221422 	6.995699517e-09 	0.02340085605 	-1.804897206e-08 	4.460853556e-05
0.4749937885 	0.02355432596 	-0.008738189373 	7.399630045e-09 	0.02418790278 	-1.905193573e-08 	4.610886538e-05
0.4751693511 	0.02426094316 	-0.009000169077 	7.776234072e-09 	0.02491355414 	-1.998816551e-08 	4.749215855e-05
0.4753449137 	0.02491295577 	-0.009241468709 	8.134761203e-09 	0.02558313008 	-2.085633367e-08 	4.87685564e-05
0.4755204764 	0.02551513709 	-0.009464445091 	8.46831945e-09 	0.0262015314 	-2.165591844e-08 	4.994740118e-05
0.475696039 	0.02607184223 	-0.009670663356 	8.777147828e-09 	0.0267732325 	-2.238765599e-08 	5.103722239e-05
0.4758716016 	0.0265870456 	-0.009861565095 	9.061958295e-09 	0.0273023294 	-2.305456599e-08 	5.204582813e-05
0.4760471642 	0.0270643606 	-0.01003846663 	9.324431521e-09 	0.02779251686 	-2.36674354e-08 	5.298026166e-05
0.4762227269 	0.02756606657 	-0.01022443695 	9.5986803e-09 	0.02830769816 	-2.431327541e-08 	5.396234041e-05
0.4764955107 	0.02813611135 	-0.01043576992 	9.904825451e-09 	0.02889304491 	-2.50258431e-08 	5.507817401e-05
0.4767734216 	0.02870466113 	-0.01064657896 	1.020083982e-08 	0.02947690765 	-2.569185072e-08 	5.619117866e-05
0.4770565557 	0.0292211276 	-0.0108380936 	1.045952833e-08 	0.03000728453 	-2.625463767e-08 	5.720222441e-05
0.4773450114 	0.02969035713 	-0.01101209963 	1.068319568e-08 	0.03048911713 	-2.672356616e-08 	5.812073126e-05
0.4776388886 	0.03011669087 	-0.0111702029 	1.087221944e-08 	0.03092688303 	-2.709463102e-08 	5.895523473e-05
0.4779382892 	0.03050399547 	-0.01131383405 	1.102524127e-08 	0.03132455527 	-2.735424476e-08 	5.971330855e-05
0.4782433171 	0.03085576522 	-0.01144428643 	1.113882405e-08 	0.0316857179 	-2.747366421e-08 	6.040178492e-05
0.4785540779 	0.03117516171 	-0.01156273098 	1.121054776e-08 	0.03201361565 	-2.744280161e-08 	6.102684915e-05
0.4788706795 	0.03146496202 	-0.01167019677 	1.123804534e-08 	0.03231110066 	-2.726383e-08 	6.159393826e-05
0.4791932316 	0.0317276006 	-0.01176758614 	1.121640903e-08 	0.03258067269 	-2.691867011e-08 	6.210781748e-05
0.4795218461 	0.03196524498 	-0.01185570276 	1.113965385e-08 	0.03282455778 	-2.637345363e-08 	6.257273025e-05
0.4798566368 	0.03217982627 	-0.01193526284 	1.100924078e-08 	0.03304473892 	-2.565860718e-08 	6.29924567e-05
0.48019772 	0.03237306655 	-0.01200690548 	1.082995217e-08 	0.03324298873 	-2.482824893e-08 	6.337037594e-05
0.4805452138 	0.03254650239 	-0.01207120121 	1.060414494e-08 	0.03342089175 	-2.389094408e-08 	6.370950854e-05
0.4808992388 	0.03270150588 	-0.01212865868 	1.034289675e-08 	0.03357985388 	-2.290735978e-08 	6.401253453e-05
0.4812599177 	0.0328393046 	-0.01217973258 	1.005723431e-08 	0.03372113068 	-2.191104321e-08 	6.428184738e-05
0.4816273755 	0.03296099806 	-0.01222483048 	9.753976814e-09 	0.0338458514 	-2.089558054e-08 	6.451959974e-05
0.4820017397 	0.03306757152 	-0.01226431737 	9.440317329e-09 	0.03395502558 	-1.987942673e-08 	6.472771606e-05
0.48238314 	0.03315990857 	-0.01229852033 	9.120831603e-09 	0.03404955623 	-1.887226147e-08 	6.490791777e-05
0.4827717088 	0.03323880249 	-0.01232773286 	8.798427555e-09 	0.03413025337 	-1.78769912e-08 	6.506174893e-05
0.4831675807 	0.03330496653 	-0.01235221868 	8.46184894e-09 	0.03419784539 	-1.677458842e-08 	6.519059811e-05
0.4835708931 	0.03335904219 	-0.0123722145 	8.107994257e-09 	0.03425298299 	-1.558302926e-08 	6.52957057e-05
0.4839817856 	0.03340160495 	-0.01238793282 	7.736659269e-09 	0.03429625001 	-1.441280018e-08 	6.537818466e-05
0.4844004009 	0.03343317058 	-0.01239956525 	7.320403735e-09 	0.03432817974 	-1.309655265e-08 	6.543905161e-05
0.4848268841 	0.03345420189 	-0.01240728392 	6.850476862e-09 	0.03434925048 	-1.161490882e-08 	6.54792183e-05
0.485261383 	0.03346511523 	-0.01241124347 	6.334110751e-09 	0.03435989012 	-1.006610468e-08 	6.549950041e-05
0.4857040484 	0.0334662857 	-0.01241158329 	5.770191209e-09 	0.03436048575 	-8.421509928e-09 	6.550063583e-05
0.4861550336 	0.03345805089 	-0.01240842858 	5.161633952e-09 	0.0343513841 	-6.679772013e-09 	6.548328557e-05
0.4866144951 	0.03344071405 	-0.0124018917 	4.511319109e-09 	0.03433289585 	-4.839213681e-09 	6.544804182e-05
0.4870825921 	0.03341454679 	-0.01239207322 	3.821000465e-09 	0.03430529889 	-2.893408555e-09 	6.539543435e-05
0.487559487 	0.03337979138 	-0.01237906291 	3.091333937e-09 	0.03426884133 	-8.324632936e-10 	6.532593611e-05
0.4880453452 	0.03333666278 	-0.0123629405 	2.322277703e-09 	0.03422374409 	1.354804169e-09 	6.523996823e-05
0.4885403351 	0.03328535044 	-0.01234377652 	1.514273169e-09 	0.03417020312 	3.672304664e-09 	6.513790427e-05
0.4890446283 	0.03322602007 	-0.01232163282 	6.697383621e-10 	0.03410839099 	6.10579112e-09 	6.502007317e-05
0.4895583997 	0.03315881594 	-0.01229656331 	-2.085299902e-10 	0.03403845805 	8.644833396e-09 	6.488676154e-05
0.4900818274 	0.03308386368 	-0.01226861451 	-1.118173195e-09 	0.033960533 	1.12918645e-08 	6.473821474e-05
0.4906150929 	0.03300127144 	-0.012237826 	-2.056886119e-09 	0.03387472361 	1.404084064e-08 	6.457463819e-05
0.4911583811 	0.03291112984 	-0.01220423077 	-3.024926039e-09 	0.03378111901 	1.68899217e-08 	6.439620181e-05
0.4917118805 	0.0328135124 	-0.01216785557 	-4.024875659e-09 	0.03367979147 	1.984483275e-08 	6.420304335e-05
0.4922757829 	0.03270847615 	-0.01212872114 	-5.059660737e-09 	0.03357079712 	2.29074722e-08 	6.399526983e-05
0.4928502838 	0.03259606229 	-0.01208684253 	-6.132181409e-09 	0.03345417672 	2.607980979e-08 	6.377295894e-05
0.4934355824 	0.03247629702 	-0.01204222928 	-7.245042857e-09 	0.03332995621 	2.936493179e-08 	6.353616011e-05
0.4940318817 	0.03234919217 	-0.01199488571 	-8.400512795e-09 	0.03319814712 	3.276723154e-08 	6.328489535e-05
0.4946393885 	0.0322147458 	-0.01194481101 	-9.600613786e-09 	0.03305874709 	3.629222052e-08 	6.301916016e-05
0.4952583133 	0.0320729427 	-0.01189199952 	-1.084723812e-08 	0.0329117403 	3.99460405e-08 	6.273892436e-05
0.4958888709 	0.03192375487 	-0.01183644084 	-1.214221686e-08 	0.03275709795 	4.373467351e-08 	6.244413306e-05
0.4965312797 	0.03176714194 	-0.01177812004 	-1.348732133e-08 	0.03259477878 	4.766285745e-08 	6.21347076e-05
0.4971857627 	0.03160305161 	-0.01171701778 	-1.488422363e-08 	0.03242472957 	5.173293321e-08 	6.181054654e-05
0.4978525466 	0.03143142019 	-0.01165311057 	-1.633446155e-08 	0.03224688569 	5.594421772e-08 	6.147152668e-05
0.4985318627 	0.03125217316 	-0.01158637093 	-1.783946738e-08 	0.03206117162 	6.029369783e-08 	6.111750406e-05
0.4992239466 	0.03106522578 	-0.01151676763 	-1.940066413e-08 	0.03186750152 	6.477843916e-08 	6.074831501e-05
0.4999290382 	0.0308704837 	-0.01144426586 	-2.101951479e-08 	0.03166577972 	6.939874394e-08 	6.036377719e-05
0.5006473819 	0.03066784343 	-0.01136882747 	-2.269754415e-08 	0.03145590124 	7.415989736e-08 	5.996369049e-05
0.501379227 	0.03045719251 	-0.01129041096 	-2.443641577e-08 	0.03123775205 	7.907120302e-08 	5.954783749e-05
0.502124827 	0.0302384092 	-0.01120897144 	-2.623799769e-08 	0.0310112088 	8.414333591e-08 	5.911598309e-05
0.5028844406 	0.03001136122 	-0.01112446021 	-2.810449913e-08 	0.03077613768 	8.938752603e-08 	5.866787221e-05
0.5036583311 	0.02977590311 	-0.01103682384 	-3.003890792e-08 	0.03053239296 	9.481999743e-08 	5.820322702e-05
0.5044467669 	0.02953187172 	-0.01094600294 	-3.204231263e-08 	0.03027981687 	1.004351003e-07 	5.772174679e-05
0.5052500214 	0.02927907738 	-0.0108519281 	-3.410393174e-08 	0.03001822028 	1.061000715e-07 	5.722307099e-05
0.506068373 	0.02898334084 	-0.01074188171 	-3.649253891e-08 	0.02971223854 	1.124601233e-07 	5.663978475e-05
0.507324668 	0.02860745303 	-0.01060202172 	-3.953893145e-08 	0.02932339986 	1.206190355e-07 	5.589855015e-05
0.5085949819 	0.02818347839 	-0.01044428323 	-4.301003475e-08 	0.02888490816 	1.301599424e-07 	5.50626631e-05
0.5098794711 	0.02774562827 	-0.01028139745 	-4.661299375e-08 	0.02843216052 	1.401757706e-07 	5.419960027e-05
0.5111782938 	0.02729400561 	-0.01011340466 	-5.033092407e-08 	0.0279652734 	1.504877193e-07 	5.330958365e-05
0.5124916099 	0.02682864932 	-0.009940321968 	-5.416465931e-08 	0.02748430635 	1.610961079e-07 	5.239272677e-05
0.5138195812 	0.02634953971 	-0.00976214433 	-5.81173046e-08 	0.02698925381 	1.720141726e-07 	5.144901904e-05
0.5151623712 	0.02585659716 	-0.009578844306 	-6.219377287e-08 	0.02648004725 	1.832550372e-07 	5.04783298e-05
0.5165201452 	0.02534967009 	-0.009390367723 	-6.640269946e-08 	0.02595654424 	1.948416625e-07 	4.948038758e-05
0.5178930705 	0.024828511 	-0.009196624833 	-7.075804222e-08 	0.02541850411 	2.0681187e-07 	4.845473354e-05
0.5192813161 	0.02429274049 	-0.008997477072 	-7.528053918e-08 	0.02486555159 	2.192216333e-07 	4.740065236e-05
0.520685053 	0.02374180164 	-0.008792720332 	-7.999870087e-08 	0.02429713126 	2.321472287e-07 	4.631708522e-05
0.522104454 	0.02317491194 	-0.008582067424 	-8.494832764e-08 	0.02371245959 	2.456841587e-07 	4.520253852e-05
0.523539694 	0.0225910288 	-0.008365135683 	-9.016842814e-08 	0.02311049107 	2.599367607e-07 	4.405501921e-05
0.5249909497 	0.02198886379 	-0.008141453232 	-9.568519645e-08 	0.02248993922 	2.749735513e-07 	4.287207491e-05
0.5264583998 	0.02136723579 	-0.007910591546 	-1.013957898e-07 	0.02184965118 	2.905085568e-07 	4.165150794e-05
0.527942225 	0.02072652214 	-0.007672704028 	-1.068779121e-07 	0.02119009536 	3.053826446e-07 	4.039421123e-05
0.5294426081 	0.0200700826 	-0.007429052554 	-1.116015667e-07 	0.02051480638 	3.181461501e-07 	3.910692275e-05
0.5309597337 	0.01940328038 	-0.007181642812 	-1.153337939e-07 	0.01982937517 	3.281649052e-07 	3.780030036e-05
0.5324937889 	0.01873172597 	-0.00693257088 	-1.180178914e-07 	0.01913964097 	3.352835775e-07 	3.648547529e-05
0.5340449624 	0.01806109857 	-0.006683953688 	-1.195481022e-07 	0.01845148576 	3.392085151e-07 	3.517366019e-05
0.5356134452 	0.01739753387 	-0.006438070914 	-1.197932655e-07 	0.01777121826 	3.395849241e-07 	3.387688126e-05
0.5371994306 	0.01674777716 	-0.0061974222 	-1.186223521e-07 	0.01710573458 	3.360909518e-07 	3.26082844e-05
0.5388031139 	0.01611918869 	-0.005964731186 	-1.159387747e-07 	0.01646253267 	3.285494082e-07 	3.13821628e-05
0.5404246925 	0.01551932054 	-0.005742791771 	-1.117644454e-07 	0.01584930111 	3.171234461e-07 	3.021317301e-05
0.5420643661 	0.01495485366 	-0.005534089911 	-1.063250914e-07 	0.01527305685 	3.022883394e-07 	2.911469128e-05
0.5437223366 	0.01442997748 	-0.005340131275 	-1.002819617e-07 	0.01473771256 	2.864193181e-07 	2.809417628e-05
0.5453988083 	0.01394487586 	-0.005160831428 	-9.451196814e-08 	0.01424211232 	2.713948703e-07 	2.714942446e-05
0.5470939875 	0.01349144558 	-0.004966729957 	-1.233348463e-07 	0.01377297006 	2.686410703e-07 	2.625510894e-05
0.5488080831 	0.01305901945 	-0.004739153222 	-1.37040296e-07 	0.01331734113 	2.663092064e-07 	2.538655356e-05
0.5505413061 	0.01264525534 	-0.004515985979 	-1.193677738e-07 	0.01287954447 	2.572257113e-07 	2.455199145e-05
0.5522938699 	0.01224990159 	-0.004308957337 	-1.200168853e-07 	0.01246222997 	2.518321713e-07 	2.375647402e-05
0.5540659904 	0.011871545 	-0.004102032992 	-1.210356639e-07 	0.01206243257 	2.457759829e-07 	2.299434905e-05
0.5558578859 	0.01151045631 	-0.003895192634 	-1.220413091e-07 	0.01168017391 	2.396270799e-07 	2.226565781e-05
0.5576697768 	0.0111669903 	-0.003688825466 	-1.228832885e-07 	0.01131572237 	2.325530099e-07 	2.157091188e-05
0.5595018865 	0.01084153561 	-0.003483383135 	-1.235059164e-07 	0.01096985829 	2.246772254e-07 	2.091159881e-05
0.5613544406 	0.01053445047 	-0.003279319432 	-1.238314974e-07 	0.01064318526 	2.159876633e-07 	2.028886922e-05
0.563227667 	0.01024605269 	-0.003077103314 	-1.237953066e-07 	0.01033625021 	2.064820863e-07 	1.970376571e-05
0.5651217966 	0.009976602162 	-0.002877207831 	-1.233473991e-07 	0.0100495297 	1.961886427e-07 	1.915719673e-05
0.5670370626 	0.009726286654 	-0.002680100905 	-1.224535807e-07 	0.009783403792 	1.851631063e-07 	1.864988678e-05
0.5689737009 	0.0094952137 	-0.002486237172 	-1.210949468e-07 	0.009538139108 	1.734829662e-07 	1.818234413e-05
0.5709319499 	0.009283409644 	-0.002296050345 	-1.19265649e-07 	0.009313881316 	1.612410883e-07 	1.775484645e-05
0.5729120508 	0.009090826601 	-0.002109949707 	-1.169677241e-07 	0.009110659841 	1.485340367e-07 	1.736744983e-05
0.5749142474 	0.008917361962 	-0.001928319549 	-1.141946416e-07 	0.008928407019 	1.354528562e-07 	1.70200253e-05
0.5769387863 	0.008762895358 	-0.00175161125 	-1.108596396e-07 	0.008766989533 	1.220575188e-07 	1.671231871e-05
0.5789859169 	0.00862743395 	-0.001580145521 	-1.072330257e-07 	0.00862633732 	1.082966288e-07 	1.64441965e-05
0.5810558911 	0.008511121543 	-0.001413578794 	-1.037363783e-07 	0.008506450306 	9.426308123e-08 	1.621565853e-05
0.583148964 	0.008413712727 	-0.001251445318 	-1.001461594e-07 	0.008406919626 	8.043056169e-08 	1.602592539e-05
0.5852653933 	0.008334245443 	-0.001093824148 	-9.624601851e-08 	0.008326637412 	6.723301318e-08 	1.587288518e-05
0.5874054395 	0.008271416783 	-0.0009408225723 	-9.221004824e-08 	0.008264166288 	5.481162409e-08 	1.575379785e-05
0.5895693664 	0.00822392421 	-0.0007923217281 	-8.815850981e-08 	0.008218071401 	4.321167369e-08 	1.566592818e-05
0.5917574402 	0.008190519774 	-0.0006481529762 	-8.413038658e-08 	0.008186973694 	3.242430601e-08 	1.560664731e-05
0.5939699306 	0.008170015175 	-0.000508134317 	-8.014006211e-08 	0.008169563307 	2.241150702e-08 	1.557345828e-05
0.5962071099 	0.008161284885 	-0.0003720770352 	-7.622274811e-08 	0.008164608507 	1.321735923e-08 	1.556401305e-05
0.5984692536 	0.008163267271 	-0.000239789114 	-7.244595344e-08 	0.008170957665 	4.857281612e-09 	1.557611631e-05
0.6007566404 	0.008174965017 	-0.0001110769246 	-6.881134913e-08 	0.008187536067 	-2.765339384e-09 	1.560771935e-05
0.6030695519 	0.008195448504 	1.424859651e-05 	-6.52771491e-08 	0.008213350681 	-9.726271773e-09 	1.565692918e-05
0.6054082729 	0.008223854122 	0.0001363869377 	-6.184526762e-08 	0.008247489687 	-1.603666605e-08 	1.572200761e-05
0.6077730914 	0.00825938312 	0.000255546411 	-5.851295883e-08 	0.008289111578 	-2.172711754e-08 	1.580135051e-05
0.6101642987 	0.008301301817 	0.0003719076533 	-5.527118666e-08 	0.008337448974 	-2.684965546e-08 	1.589349502e-05
0.6125821893 	0.008348937263 	0.0004856355555 	-5.212459052e-08 	0.008391803206 	-3.144354273e-08 	1.599710929e-05
0.6150270608 	0.008401674718 	0.0005968968053 	-4.907162766e-08 	0.008451536702 	-3.554686974e-08 	1.611097794e-05
0.6174992144 	0.008458954801 	0.0007058501985 	-4.610918255e-08 	0.008516072317 	-3.919710141e-08 	1.623400076e-05
0.6199989545 	0.008520269927 	0.0008126457157 	-4.32333004e-08 	0.008584887328 	-4.242971424e-08 	1.636518129e-05
0.622526589 	0.008585160794 	0.0009174243381 	-4.043952256e-08 	0.008657509325 	-4.527812311e-08 	1.6503619e-05
0.625082429 	0.008653212839 	0.001020318033 	-3.772309069e-08 	0.008733512093 	-4.777361914e-08 	1.66485014e-05
0.6276667894 	0.008724052736 	0.001121449855 	-3.507908828e-08 	0.008812511663 	-4.994531877e-08 	1.679909654e-05
0.6302799884 	0.008797345016 	0.001220934131 	-3.250254955e-08 	0.008894162604 	-5.18201547e-08 	1.695474593e-05
0.6329223478 	0.008872788835 	0.001318876721 	-2.998854908e-08 	0.008978154566 	-5.342290619e-08 	1.711485795e-05
0.6355941931 	0.00895011493 	0.00141537532 	-2.753227356e-08 	0.009064209072 	-5.477625988e-08 	1.727890176e-05
0.6382958531 	0.009029082763 	0.001510519803 	-2.51290751e-08 	0.009152076557 	-5.59008914e-08 	1.744640161e-05
0.6410276607 	0.00910947788 	0.001604392585 	-2.277451146e-08 	0.009241533654 	-5.681556002e-08 	1.76169317e-05
0.6437899523 	0.009191109473 	0.001697069002 	-2.046437855e-08 	0.009332380704 	-5.753721296e-08 	1.779011142e-05
0.646583068 	0.009273808143 	0.001788617691 	-1.819473347e-08 	0.009424439495 	-5.80810962e-08 	1.796560106e-05
0.6494073518 	0.009357423865 	0.001879100976 	-1.596190656e-08 	0.009517551195 	-5.846086588e-08 	1.814309784e-05
0.6522631514 	0.009441824136 	0.001968575244 	-1.376250851e-08 	0.00961157449 	-5.868869703e-08 	1.832233238e-05
0.6551508186 	0.0095268923 	0.002057091318 	-1.159343657e-08 	0.009706383897 	-5.877539001e-08 	1.850306546e-05
0.658070709 	0.009612526045 	0.002144694816 	-9.45187667e-09 	0.009801868242 	-5.873047365e-08 	1.868508516e-05
0.6610231822 	0.009698636049 	0.002231426504 	-7.335301078e-09 	0.009897929298 	-5.85623013e-08 	1.886820423e-05
0.6640086017 	0.009785144774 	0.002317322631 	-5.241468825e-09 	0.009994480568 	-5.827813878e-08 	1.905225778e-05
0.6670273351 	0.009871985392 	0.002402415256 	-3.168433465e-09 	0.0100914462 	-5.788424471e-08 	1.923710122e-05
0.6700797543 	0.00995910084 	0.002486732558 	-1.114562011e-09 	0.01018876001 	-5.73859409e-08 	1.94226084e-05
0.6731662352 	0.01004644298 	0.002570299139 	9.21414297e-10 	0.01028636468 	-5.678767206e-08 	1.960867003e-05
0.6762871577 	0.01013397187 	0.002653136307 	2.940276662e-09 	0.01038421098 	-5.609305858e-08 	1.979519227e-05
0.6794429063 	0.01022165514 	0.002735262345 	4.942059993e-09 	0.01048225715 	-5.530495109e-08 	1.998209552e-05
0.6826338695 	0.01030946743 	0.002816692758 	6.925543247e-09 	0.01058046837 	-5.44255971e-08 	2.01693134e-05
0.6858604404 	0.0103973899 	0.002897440493 	8.887270474e-09 	0.01067881632 	-5.345743262e-08 	2.035679192e-05
0.6891230163 	0.01048540986 	0.002977516101 	1.082015397e-08 	0.01077727885 	-5.240327635e-08 	2.054448888e-05
0.6924219988 	0.01057352032 	0.003056927998 	1.271759526e-08 	0.01087583984 	-5.126424837e-08 	2.073237352e-05
0.6957577944 	0.01066172 	0.003135682993 	1.458691915e-08 	0.01097448877 	-5.004163376e-08 	2.09204258e-05
0.6991308138 	0.01075001354 	0.003213786379 	1.644266253e-08 	0.01107322025 	-4.87364889e-08 	2.110863543e-05
0.7025414724 	0.01083841127 	0.003291241579 	1.828387751e-08 	0.01117203406 	-4.734673768e-08 	2.129700203e-05
0.7059901901 	0.01092692871 	0.003368050242 	2.009916101e-08 	0.01127093539 	-4.587250434e-08 	2.148553545e-05
0.7094773917 	0.01101558666 	0.003444212466 	2.187892762e-08 	0.01136993493 	-4.43161473e-08 	2.167425608e-05
0.7130035066 	0.01110441133 	0.003519726727 	2.361444048e-08 	0.01146904897 	-4.267862593e-08 	2.1863195e-05
0.7165689691 	0.0111934344 	0.003594589723 	2.529655654e-08 	0.01156829959 	-4.096051405e-08 	2.205239427e-05
0.7201742182 	0.01128269324 	0.003668796095 	2.691499029e-08 	0.01166771481 	-3.916247877e-08 	2.22419073e-05
0.7238196978 	0.01137223109 	0.003742338019 	2.845803212e-08 	0.01176732882 	-3.728545955e-08 	2.243179929e-05
0.727505857 	0.0114620973 	0.003815204678 	2.991290207e-08 	0.01186718245 	-3.533097286e-08 	2.262214807e-05
0.7312331497 	0.01155234785 	0.003887382601 	3.126691759e-08 	0.01196732372 	-3.330414675e-08 	2.281304515e-05
0.7350020349 	0.01164280582 	0.003958669024 	3.250695357e-08 	0.01206754223 	-3.122037111e-08 	2.300408949e-05
0.7387709215 	0.01173278048 	0.00402846505 	3.361802191e-08 	0.0121670588 	-2.910536415e-08 	2.319379573e-05
0.7424982157 	0.01182160294 	0.004096209545 	3.457018268e-08 	0.01226512005 	-2.697665727e-08 	2.338072772e-05
0.7461843763 	0.01190914134 	0.004161770056 	3.531462341e-08 	0.01236156953 	-2.48403933e-08 	2.356458725e-05
0.7498298574 	0.01199550156 	0.004225195475 	3.581495512e-08 	0.01245651606 	-2.270777423e-08 	2.374558173e-05
0.7534351078 	0.01208078853 	0.004286526756 	3.605618481e-08 	0.01255006768 	-2.059024702e-08 	2.392391711e-05
0.7570005716 	0.01216510619 	0.004345795753 	3.602429322e-08 	0.01264233086 	-1.849411696e-08 	2.409979638e-05
0.7605266877 	0.01224855723 	0.004403025227 	3.570009236e-08 	0.0127334105 	-1.642681545e-08 	2.427341948e-05
0.7640138905 	0.01233124283 	0.004458228569 	3.506346946e-08 	0.01282340993 	-1.439750826e-08 	2.444498341e-05
0.7674626093 	0.01241326304 	0.004511409679 	3.409459777e-08 	0.01291243083 	-1.241470301e-08 	2.461468199e-05
0.770873269 	0.01249471684 	0.004562563188 	3.277055652e-08 	0.01300057335 	-1.048523004e-08 	2.478270612e-05
0.7742462894 	0.0125757019 	0.004611674236 	3.106485726e-08 	0.01308793669 	-8.613654497e-09 	2.494924494e-05
0.777582086 	0.01265631465 	0.004658717947 	2.894630066e-08 	0.0131746195 	-6.805484759e-09 	2.511448647e-05
0.7808810695 	0.01273665018 	0.004703658918 	2.636685502e-08 	0.01326071711 	-5.082141953e-09 	2.527861244e-05
0.7841436462 	0.01281680093 	0.004746447381 	2.324254287e-08 	0.0133463092 	-3.383830215e-09 	2.544177475e-05
0.787370218 	0.01289686346 	0.004787033169 	1.957433172e-08 	0.01343157007 	-1.371480196e-09 	2.560430566e-05
0.7905611821 	0.0129769454 	0.004825464177 	1.733314704e-08 	0.01351662129 	5.826045929e-10 	2.576643694e-05
0.7937169314 	0.0130574654 	0.004863520412 	1.472276921e-08 	0.01360177786 	8.26835824e-10 	2.592876903e-05
0.7968378547 	0.01313895242 	0.004898593074 	6.319006095e-09 	0.01368594193 	-1.544168866e-09 	2.608920912e-05
0.7999243362 	0.01322210606 	0.004929641432 	9.913831259e-10 	0.01376873877 	-2.649730857e-09 	2.624704292e-05
0.8029767561 	0.01330732957 	0.004960582971 	2.549755177e-09 	0.0138516556 	-2.42610569e-10 	2.640510544e-05
0.8059954902 	0.0133944668 	0.004992103386 	4.200279733e-09 	0.0139355703 	3.452553724e-09 	2.656507019e-05
0.8089809102 	0.01348352557 	0.005024277267 	5.888889258e-09 	0.01402107053 	7.480338647e-09 	2.672805739e-05
0.8119333839 	0.01357460678 	0.005057166277 	7.597409555e-09 	0.01410840798 	1.168907347e-08 	2.689454684e-05
0.8148532749 	0.0136678522 	0.005090833959 	9.336507157e-09 	0.01419780178 	1.615523833e-08 	2.706495627e-05
0.8177409426 	0.01376341421 	0.005125344404 	1.110944584e-08 	0.01428946307 	2.081873548e-08 	2.723968817e-05
0.8205967427 	0.01386144778 	0.005160761108 	1.291676395e-08 	0.01438359364 	2.562000756e-08 	2.741912718e-05
0.8234210268 	0.01396210986 	0.005197146847 	1.475780247e-08 	0.014480387 	3.05308188e-08 	2.760364224e-05
0.8262141429 	0.01406555932 	0.005234563559 	1.663185776e-08 	0.01458002846 	3.554470368e-08 	2.779358656e-05
0.8289764348 	0.01417195636 	0.005273072307 	1.85386666e-08 	0.01468269561 	4.066267036e-08 	2.798929868e-05
0.8317082427 	0.01428146197 	0.005312733418 	2.04783233e-08 	0.01478855978 	4.588599561e-08 	2.81911052e-05
0.8344099031 	0.01439423801 	0.00535360678 	2.245102841e-08 	0.01489778791 	5.121499022e-08 	2.839932438e-05
0.8370817486 	0.01451044753 	0.00539575225 	2.445690671e-08 	0.01501054468 	5.664966734e-08 	2.861427012e-05
0.8397241082 	0.01463025535 	0.005439230106 	2.649591056e-08 	0.01512699471 	6.21899909e-08 	2.883625625e-05
0.8423373074 	0.01475382862 	0.005484101486 	2.856776018e-08 	0.01524730462 	6.783550819e-08 	2.906560038e-05
0.844921668 	0.01488133741 	0.005530428746 	3.067189722e-08 	0.0153716447 	7.358490765e-08 	2.930262713e-05
0.8474775082 	0.01501295507 	0.005578275705 	3.28074533e-08 	0.01550018999 	7.94358345e-08 	2.954767018e-05
0.8500051427 	0.01514885847 	0.005627707751 	3.497323657e-08 	0.01563312076 	8.538496296e-08 	2.980107318e-05
0.8525048829 	0.0152892278 	0.00567879178 	3.716772746e-08 	0.0157706224 	9.142819624e-08 	3.006318951e-05
0.8549770366 	0.01543424613 	0.005731595996 	3.93890652e-08 	0.01591288478 	9.756087975e-08 	3.033438114e-05
0.8574219081 	0.01558409845 	0.005786189552 	4.16350072e-08 	0.01606010132 	1.03777919e-07 	3.061501679e-05
0.8598397987 	0.01573897026 	0.005842642065 	4.390285129e-08 	0.01621246773 	1.100736296e-07 	3.090546951e-05
0.862231006 	0.01589904571 	0.005901022982 	4.618932317e-08 	0.01637018045 	1.164410748e-07 	3.12061138e-05
0.8645958245 	0.0160645053 	0.005961400817 	4.849044181e-08 	0.01653343484 	1.228707137e-07 	3.151732203e-05
0.8669345455 	0.01623552329 	0.006023842236 	5.080138373e-08 	0.01670242276 	1.293486052e-07 	3.183945997e-05
0.8692474569 	0.01641226492 	0.006088411019 	5.311634724e-08 	0.01687732969 	1.358549322e-07 	3.217288119e-05
0.8715348435 	0.01659488347 	0.006155166876 	5.542830143e-08 	0.01705833103 	1.423631362e-07 	3.251792007e-05
0.8737969871 	0.01678351723 	0.006224164131 	5.772804893e-08 	0.01724558761 	1.488350241e-07 	3.287488315e-05
0.8760341663 	0.01697828631 	0.006295450411 	6.000790681e-08 	0.01743924219 	1.552666055e-07 	3.32440426e-05
0.8782466565 	0.01717928838 	0.006369064996 	6.225837338e-08 	0.01763941447 	1.616518888e-07 	3.362562659e-05
0.8804347301 	0.01738659271 	0.006445036874 	6.446392231e-08 	0.01784619564 	1.679248946e-07 	3.401980898e-05
0.8825986568 	0.0176002344 	0.006523382932 	6.661151914e-08 	0.01805964557 	1.740414237e-07 	3.442670387e-05
0.8847387028 	0.01782020977 	0.006604105934 	6.868832889e-08 	0.01827978606 	1.799583838e-07 	3.484635283e-05
0.8868551318 	0.01804647165 	0.006687192511 	7.067829634e-08 	0.01850659361 	1.85596287e-07 	3.527871107e-05
0.8889482045 	0.01827892471 	0.006772611462 	7.256544794e-08 	0.01873999531 	1.908913504e-07 	3.572363957e-05
0.8910181784 	0.01851742132 	0.006860312208 	7.433226472e-08 	0.01897986438 	1.958133146e-07 	3.618089668e-05
0.8930653087 	0.01876175932 	0.006950223634 	7.596027856e-08 	0.0192260162 	2.003510168e-07 	3.665013048e-05
0.8950898473 	0.01901168106 	0.00704225343 	7.743232078e-08 	0.01947820562 	2.044857903e-07 	3.71308736e-05
0.8970920436 	0.01926687315 	0.007136287944 	7.873288158e-08 	0.01973612604 	2.081874758e-07 	3.76225416e-05
0.8990721441 	0.01952696751 	0.007232192651 	7.98472826e-08 	0.01999941126 	2.114229897e-07 	3.812443642e-05
0.9010303927 	0.01979154366 	0.007329813093 	8.076201019e-08 	0.02026763821 	2.141637008e-07 	3.863575153e-05
0.9029670306 	0.02006013275 	0.007428976382 	8.14671412e-08 	0.02054033085 	2.163793784e-07 	3.915557948e-05
0.9048822962 	0.02033222328 	0.007529493451 	8.195623856e-08 	0.02081696724 	2.180249089e-07 	3.968292534e-05
0.9067764254 	0.02060726827 	0.007631161696 	8.222518091e-08 	0.02109698673 	2.190581456e-07 	4.02167203e-05
0.9086496514 	0.02088469356 	0.007733767901 	8.227265114e-08 	0.02137979724 	2.194605793e-07 	4.075583575e-05
0.910502205 	0.02116390644 	0.007837091397 	8.210029997e-08 	0.02166478428 	2.192337893e-07 	4.129910025e-05
0.9123343142 	0.0214443041 	0.007940907258 	8.171275959e-08 	0.02195131994 	2.183922836e-07 	4.184531685e-05
0.9141462048 	0.02172528188 	0.008044989456 	8.111741254e-08 	0.02223877193 	2.169586482e-07 	4.239328025e-05
0.9159380997 	0.02200624114 	0.008149113861 	8.032400178e-08 	0.02252651227 	2.14961169e-07 	4.294179331e-05
0.9177102197 	0.02228659645 	0.008253061005 	7.934421592e-08 	0.02281392509 	2.124330536e-07 	4.348968202e-05
0.9194627831 	0.02256578198 	0.008356618504 	7.819127583e-08 	0.02310041359 	2.094118803e-07 	4.403580872e-05
0.9211960055 	0.0228432569 	0.008459583106 	7.687953238e-08 	0.02338540589 	2.05938453e-07 	4.457908326e-05
0.9229101006 	0.02311850954 	0.008561762321 	7.542410188e-08 	0.02366835976 	2.020548774e-07 	4.511847199e-05
0.9246052793 	0.02339106065 	0.008662975654 	7.384063137e-08 	0.02394876613 	1.978032684e-07 	4.565300447e-05
0.9262817504 	0.0236604657 	0.008763055463 	7.214501518e-08 	0.02422615146 	1.932256005e-07 	4.6181778e-05
0.9279397204 	0.02392631626 	0.008861847469 	7.035284183e-08 	0.02450007916 	1.883649465e-07 	4.670396033e-05
0.9295793934 	0.02418824049 	0.008959210923 	6.84791577e-08 	0.02477015003 	1.832665391e-07 	4.721879047e-05
0.9312009714 	0.02444590264 	0.009055018501 	6.653847238e-08 	0.02503600215 	1.779749252e-07 	4.772557849e-05
0.9328046541 	0.02469900201 	0.009149155972 	6.454457337e-08 	0.02529731022 	1.725307536e-07 	4.822370429e-05
0.9343906389 	0.02494727146 	0.009241521696 	6.251037777e-08 	0.02555378426 	1.669706309e-07 	4.871261511e-05