0.3179529243 	2.027878717e-06 	-1.218511618e-08 	1.494024727e-12 	2.014260778e-06 	-1.576904776e-10 	3.839740877e-09
0.3179529243 	2.027878717e-06 	-1.218511618e-08 	1.494024727e-12 	2.014260778e-06 	-1.576904776e-10 	3.839740877e-09
0.318152706 	2.804839932e-05 	-6.843742831e-07 	1.365031034e-10 	2.744945964e-05 	-3.639303075e-09 	5.232629926e-08
0.3183524966 	0.0001656655884 	-9.424825549e-06 	2.22179343e-09 	0.0001578876004 	-2.450909753e-08 	3.00977649e-07
0.318552295 	0.0005740175891 	-5.896840012e-05 	1.520243134e-08 	0.0005267693759 	-8.915381966e-08 	1.004168838e-06
0.3187521003 	0.001451343961 	-0.0002284434347 	6.112264579e-08 	0.001272823659 	-2.243726969e-07 	2.426355657e-06
0.3189519114 	0.002964675896 	-0.0006306161023 	1.665021845e-07 	0.002484751191 	-4.384384235e-07 	4.73662637e-06
0.3191517275 	0.005143711588 	-0.001341952878 	3.345773658e-07 	0.004149596826 	-7.040470706e-07 	7.910284871e-06
0.3193515475 	0.007805960754 	-0.002304958637 	4.379836846e-07 	0.00613588698 	-9.715879834e-07 	1.169670596e-05
0.3195513705 	0.01059365443 	-0.003252521749 	4.882558281e-07 	0.008256213105 	-1.21724056e-06 	1.573863687e-05
0.3197511955 	0.01329816038 	-0.004083502381 	5.753769263e-07 	0.01036452666 	-1.430197037e-06 	1.975766849e-05
0.3199510214 	0.01587638801 	-0.004876495643 	6.447673391e-07 	0.01237321608 	-1.592902723e-06 	2.358678881e-05
0.3201508474 	0.01825765863 	-0.005612570035 	6.986177507e-07 	0.01422514234 	-1.6968237e-06 	2.711707496e-05
0.3203506724 	0.02040246864 	-0.006286368546 	7.446508291e-07 	0.01588465053 	-1.733373894e-06 	3.028055883e-05
0.3205504955 	0.02229355968 	-0.006902981061 	7.916875903e-07 	0.01732956886 	-1.69354164e-06 	3.303497475e-05
0.3207503157 	0.02392683784 	-0.007472228781 	8.42634737e-07 	0.01854770881 	-1.569473667e-06 	3.535708806e-05
0.3209501321 	0.02530512359 	-0.008002825739 	8.919652904e-07 	0.01953496344 	-1.357910323e-06 	3.723906978e-05
0.3211499436 	0.02643631999 	-0.00850056403 	9.29686904e-07 	0.02029480467 	-1.061535254e-06 	3.868753834e-05
0.3213497493 	0.02733047797 	-0.008961684833 	8.43369341e-07 	0.02084078918 	-7.28532052e-07 	3.972833657e-05
0.3215495483 	0.02793328443 	-0.00921477097 	6.269536529e-07 	0.02125663235 	-3.904655425e-07 	4.052104924e-05
0.3217493395 	0.02827131205 	-0.009258916866 	4.202606156e-07 	0.02157036608 	-6.675387843e-09 	4.111911291e-05
0.3219491221 	0.02844134813 	-0.009260977146 	2.255713503e-07 	0.02174572333 	4.346638849e-07 	4.145339258e-05
0.322148895 	0.0284632358 	-0.009225055487 	1.535285256e-08 	0.02179972315 	9.175442203e-07 	4.155633124e-05
0.3223486573 	0.02835358876 	-0.009154667251 	-2.088171349e-07 	0.02174662084 	1.435457808e-06 	4.145510348e-05
0.322548408 	0.02812758534 	-0.009053346546 	-4.454513141e-07 	0.02159916036 	1.98131448e-06 	4.117400282e-05
0.3227481462 	0.02779923127 	-0.008924482902 	-6.932421832e-07 	0.0213690116 	2.548071702e-06 	4.073527532e-05
0.322947871 	0.02738143445 	-0.008771230869 	-9.51000744e-07 	0.02106690698 	3.128932765e-06 	4.015937995e-05
0.3231475813 	0.02688606671 	-0.008596490717 	-1.21759998e-06 	0.02070271533 	3.717476975e-06 	3.946512945e-05
0.3233472762 	0.02632402997 	-0.008402926926 	-1.491931229e-06 	0.02028550739 	4.307798528e-06 	3.866981514e-05
0.3235469548 	0.02570532461 	-0.008193004599 	-1.77280084e-06 	0.01982362985 	4.894558017e-06 	3.778934819e-05
0.3237466161 	0.02503909768 	-0.0079689846 	-2.058567082e-06 	0.01932459517 	5.472595562e-06 	3.683804939e-05
0.3239462591 	0.02423410273 	-0.007699483139 	-2.362707334e-06 	0.01872056606 	6.081057083e-06 	3.568660202e-05
0.32425642 	0.02318473101 	-0.007351672368 	-2.687105714e-06 	0.01793107088 	6.780466088e-06 	3.418160479e-05
0.3245723591 	0.02199164171 	-0.006961537075 	-2.957568554e-06 	0.01703065907 	7.387658881e-06 	3.246516962e-05
0.3248941791 	0.02077860916 	-0.006568393541 	-3.182155366e-06 	0.01611445222 	7.851254073e-06 	3.071862471e-05
0.3252219844 	0.01957028526 	-0.006178262007 	-3.347462655e-06 	0.01520334164 	8.139926829e-06 	2.898179472e-05
0.3255558808 	0.01839326303 	-0.005799337197 	-3.412281305e-06 	0.01431891786 	8.200469244e-06 	2.729583719e-05
0.3258959756 	0.01727527758 	-0.005441584931 	-3.340480756e-06 	0.01348308046 	7.985444159e-06 	2.570249879e-05
0.3262423775 	0.01624284841 	-0.005115403753 	-2.95667439e-06 	0.01271687111 	7.097316657e-06 	2.42418908e-05
0.3265951969 	0.01531736607 	-0.004828988755 	-2.457472042e-06 	0.01203604236 	5.991254393e-06 	2.294404198e-05
0.3269545455 	0.01450412265 	-0.004574433513 	-2.440298318e-06 	0.01144818164 	4.843000964e-06 	2.182341607e-05
0.3273205366 	0.0137631728 	-0.00427948145 	-2.981910033e-06 	0.01095189605 	3.80420674e-06 	2.08773578e-05
0.3276932849 	0.01308320781 	-0.003944979178 	-2.966746516e-06 	0.01053344329 	2.914198679e-06 	2.007967052e-05
0.3280729065 	0.01248964242 	-0.003638085211 	-2.561718367e-06 	0.01018337771 	2.057968051e-06 	1.941234824e-05
0.328459519 	0.01197749744 	-0.003358011602 	-2.30551036e-06 	0.009903484594 	1.230709919e-06 	1.887879417e-05
0.3288532414 	0.01153845512 	-0.003099051674 	-2.046653573e-06 	0.009691918067 	4.836876033e-07 	1.847548956e-05
0.3292541942 	0.01116593691 	-0.002861650316 	-1.775191683e-06 	0.009543381408 	-1.696426787e-07 	1.819233741e-05
0.329662499 	0.01085357877 	-0.00264822815 	-1.462526991e-06 	0.009452894879 	-7.369637824e-07 	1.801984494e-05
0.330078279 	0.01059564928 	-0.002461643265 	-1.161184988e-06 	0.009416063958 	-1.220076518e-06 	1.794963496e-05
0.3305016584 	0.01038476887 	-0.00229803024 	-9.672900664e-07 	0.009428147556 	-1.601807999e-06 	1.797266966e-05
0.330932763 	0.01021182377 	-0.002148398872 	-8.430997803e-07 	0.009482078945 	-1.857707746e-06 	1.807547788e-05
0.3313717196 	0.01006930759 	-0.002008793427 	-7.225216503e-07 	0.009568879484 	-1.998846358e-06 	1.824094383e-05
0.3318186562 	0.009951531143 	-0.001879404926 	-6.090419193e-07 	0.009680754337 	-2.055215492e-06 	1.845420839e-05
0.332273702 	0.009853432674 	-0.001759624242 	-5.098767087e-07 	0.009812177392 	-2.047009038e-06 	1.870473726e-05
0.3327369872 	0.009770825737 	-0.001648366879 	-4.238278186e-07 	0.009959105741 	-1.985863595e-06 	1.898482353e-05
0.333208643 	0.009700341814 	-0.001544474023 	-3.492802686e-07 	0.01011813083 	-1.88095851e-06 	1.928796955e-05
0.333690202 	0.009639045731 	-0.001446586973 	-2.844954075e-07 	0.01028809066 	-1.739560373e-06 	1.961196022e-05
0.3341943182 	0.009584617859 	-0.001353194506 	-2.269583233e-07 	0.01046817856 	-1.560451955e-06 	1.995525782e-05
0.3347076387 	0.009535860773 	-0.00126411743 	-1.767384143e-07 	0.01065524735 	-1.353650595e-06 	2.031186292e-05
0.3352303273 	0.009491839323 	-0.001179613815 	-1.328319596e-07 	0.01084667073 	-1.122504371e-06 	2.06767691e-05
0.3357625509 	0.009451393044 	-0.001099040092 	-9.413924714e-08 	0.01104119935 	-8.700711056e-07 	2.10475947e-05
0.3363044791 	0.009413593401 	-0.001021857131 	-5.972203337e-08 	0.01123786989 	-5.988437204e-07 	2.142250341e-05
0.3368562843 	0.00937768762 	-0.0009475935243 	-2.878768004e-08 	0.01143587507 	-3.108656725e-07 	2.179995632e-05
0.337418142 	0.009343061931 	-0.0008758436162 	-6.775954211e-10 	0.01163456046 	-7.827344229e-09 	2.217870589e-05
0.3374324648 	0.009342213881 	-0.0008741027828 	7.830728206e-08 	0.01163953919 	2.036410953e-07 	2.218819674e-05
0.337988836 	0.009309175724 	-0.0008062870907 	-2.653752711e-08 	0.01183355584 	-2.995593875e-07 	2.255804639e-05
0.3385698873 	0.009275632068 	-0.0007385937948 	-5.17647991e-08 	0.01203225348 	-6.195710996e-07 	2.293681933e-05
0.3391615162 	0.00924208305 	-0.0006725085215 	-7.534505614e-08 	0.01223029502 	-9.513782263e-07 	2.331434154e-05
0.3397639102 	0.009208234107 	-0.0006078147684 	-9.756385242e-08 	0.01242739314 	-1.294069624e-06 	2.369006535e-05
0.3403772602 	0.009173833916 	-0.0005443290119 	-1.186213654e-07 	0.01262331607 	-1.646871512e-06 	2.406354891e-05
0.3410017602 	0.00913866591 	-0.000481896313 	-1.386404387e-07 	0.01281787843 	-2.009125511e-06 	2.443443883e-05
0.3416376076 	0.009102541662 	-0.0004203863944 	-1.576743125e-07 	0.01301093367 	-2.380270664e-06 	2.480245577e-05
0.342285003 	0.009065295738 	-0.000359690153 	-1.757138637e-07 	0.01320236786 	-2.759829355e-06 	2.516738256e-05
0.3429441507 	0.009026781707 	-0.0002997166418 	-1.926933535e-07 	0.01339209493 	-3.147400816e-06 	2.552905507e-05
0.3436152583 	0.008986869055 	-0.0002403902952 	-2.084977867e-07 	0.01358005237 	-3.542649775e-06 	2.588735419e-05
0.3442985368 	0.008945441 	-0.0001816465354 	-2.230039585e-07 	0.01376619014 	-3.945159765e-06 	2.624218452e-05
0.3449942011 	0.008902393348 	-0.0001234266468 	-2.361198055e-07 	0.01395045402 	-4.354264715e-06 	2.659344268e-05
0.3457024694 	0.00885763199 	-6.569057391e-05 	-2.474023683e-07 	0.01413283908 	-4.770551105e-06 	2.69411193e-05
0.3464235639 	0.008811048302 	-8.536791392e-06 	-2.531277586e-07 	0.01431390968 	-5.208727623e-06 	2.72862902e-05
0.3471577105 	0.008762541544 	4.81391642e-05 	-2.600395756e-07 	0.0144936462 	-5.64647796e-06 	2.762891797e-05
0.3479051389 	0.008711484312 	0.0001064267745 	-3.308152774e-07 	0.01467057917 	-6.048553339e-06 	2.796620137e-05
0.3486660827 	0.008663518883 	0.0001707297101 	-5.342795809e-07 	0.01483104617 	-5.928671897e-06 	2.827209607e-05
0.34945109 	0.008630432399 	0.0002447877382 	-8.243384104e-07 	0.01495185682 	-4.991621178e-06 	2.850239474e-05
0.3502630611 	0.008615197046 	0.0003282196971 	-9.487145717e-07 	0.01502761574 	-3.740185172e-06 	2.864681232e-05
0.3510896352 	0.008609616987 	0.0004161682526 	-9.206018728e-07 	0.01507563258 	-3.191648957e-06 	2.873834575e-05
0.3519310666 	0.008606058973 	0.0005031569703 	-7.904216273e-07 	0.01511373805 	-2.866684535e-06 	2.881098538e-05
0.3527876142 	0.008602871908 	0.0005860312882 	-6.406740556e-07 	0.01514778948 	-2.561904338e-06 	2.887589686e-05
0.3536595409 	0.008600233151 	0.0006638112361 	-5.034634396e-07 	0.01517824054 	-2.260152068e-06 	2.893394505e-05
0.3545471142 	0.008597921516 	0.00073643609 	-3.795294367e-07 	0.01520505503 	-1.965281314e-06 	2.898506092e-05
0.3554506062 	0.008595762199 	0.0008038439472 	-2.698994631e-07 	0.01522830022 	-1.681166762e-06 	2.902937271e-05
0.3563702933 	0.008593596995 	0.0008660502057 	-1.768517861e-07 	0.01524808872 	-1.407844758e-06 	2.906709508e-05
0.357306457 	0.008591378929 	0.0009229884578 	-1.016703349e-07 	0.01526477038 	-1.14542973e-06 	2.909889496e-05
0.358259383 	0.008588876685 	0.0009800142663 	-4.081297543e-08 	0.01528038224 	-8.911936628e-07 	2.912865551e-05
0.3597206513 	0.00858538824 	0.00104144578 	4.373470312e-09 	0.01529491954 	-5.371392985e-07 	2.915636764e-05
0.3611962551 	0.008580841929 	0.00109920326 	1.386310475e-08 	0.01530567909 	-2.083986687e-07 	2.917687834e-05
0.3622065599 	0.00857724474 	0.001131881524 	6.051461773e-07 	0.01530986561 	-6.992363978e-07 	2.918485902e-05
0.3626853298 	0.008575540064 	0.001147438809 	7.976892419e-09 	0.01531187233 	-9.578180081e-08 	2.918868438e-05
0.3641869071 	0.008569610412 	0.001187316261 	5.260644772e-08 	0.01531474281 	-3.791065974e-07 	2.919415631e-05
0.3657415917 	0.008563199186 	0.001220706966 	1.242785277e-07 	0.0153151947 	-6.499503687e-07 	2.919501773e-05
0.3673153958 	0.00855631467 	0.001248938632 	2.164055787e-07 	0.01531353226 	-9.035067684e-07 	2.919184867e-05
0.3689044967 	0.008549246729 	0.001272560581 	3.22837071e-07 	0.0153106075 	-1.141820012e-06 	2.918627325e-05
0.3705090474 	0.008542139758 	0.001292662325 	4.386794332e-07 	0.01530692338 	-1.367542051e-06 	2.91792503e-05
0.372129203 	0.008535142505 	0.001310109632 	5.601595718e-07 	0.01530293264 	-1.582921994e-06 	2.917164284e-05
0.3737651208 	0.008528384337 	0.001325610446 	6.845933113e-07 	0.01529899458 	-1.789895575e-06 	2.91641358e-05
0.3754169603 	0.008522009679 	0.001339671109 	8.101491537e-07 	0.0152954753 	-1.989990554e-06 	2.915742708e-05
0.3770848833 	0.008516041715 	0.00135286972 	7.580425984e-07 	0.01529243174 	-1.769527667e-06 	2.915162521e-05
0.3787690537 	0.008510583932 	0.00136537151 	6.719298181e-07 	0.01529018185 	-1.503628589e-06 	2.914733629e-05
0.3804988631 	0.008505748048 	0.001377490611 	5.764769224e-07 	0.01528901661 	-1.244353228e-06 	2.914511501e-05
0.3822608994 	0.008501522285 	0.001389683308 	4.746703679e-07 	0.01528883083 	-9.929962686e-07 	2.914476088e-05
0.384039893 	0.008497999575 	0.001401835954 	3.688593423e-07 	0.01528979477 	-7.507120372e-07 	2.914659841e-05
0.3858360178 	0.008495237463 	0.001413980658 	2.600246086e-07 	0.01529201736 	-5.163652357e-07 	2.915083529e-05
0.3876494502 	0.008493253827 	0.001426238188 	1.488421366e-07 	0.01529552391 	-2.890342289e-07 	2.915751974e-05
0.3894803696 	0.008492081127 	0.001438636105 	3.573426224e-08 	0.01530038374 	-6.796833392e-08 	2.916678393e-05
0.3900584941 	0.008491950676 	0.001442592675 	4.372505742e-08 	0.01530229266 	-8.401732689e-07 	2.917042287e-05
0.3913268074 	0.008491655445 	0.001451260095 	7.760959614e-08 	0.01530643693 	-1.465433466e-07 	2.917832299e-05
0.3931901374 	0.00849199282 	0.001464105751 	1.917948304e-07 	0.0153137637 	-3.554270028e-07 	2.919228984e-05
0.3950927878 	0.00849320847 	0.001477167197 	3.087616282e-07 	0.01532265962 	-5.620175943e-07 	2.920924794e-05
0.3970388981 	0.0084952733 	0.001490738507 	4.286625614e-07 	0.01533298007 	-7.668003945e-07 	2.922892159e-05
0.3990036413 	0.008498142859 	0.001504717321 	5.49725046e-07 	0.01534460569 	-9.670140059e-07 	2.925108325e-05
0.400987215 	0.008501841626 	0.001518916654 	6.718688869e-07 	0.01535760484 	-1.162924422e-06 	2.927586326e-05
0.4029898197 	0.008506368728 	0.001533400137 	7.950852926e-07 	0.01537195327 	-1.354826601e-06 	2.930321535e-05
0.4050116593 	0.008511732497 	0.001548149101 	9.193239526e-07 	0.0153876696 	-1.542904311e-06 	2.933317503e-05
0.4070529411 	0.008517833554 	0.001563330242 	8.574422362e-07 	0.01540451651 	-1.417939375e-06 	2.936528994e-05
0.4091191997 	0.008524806993 	0.001578687919 	7.410709686e-07 	0.01542289853 	-1.20801847e-06 	2.940033117e-05
0.4112474576 	0.008532739021 	0.001594507285 	6.209346373e-07 	0.01544290012 	-9.977596527e-07 	2.943845977e-05
0.4133959597 	0.008541459478 	0.001610951646 	4.999291944e-07 	0.01546408046 	-7.921641259e-07 	2.947883537e-05
0.4155649276 	0.008550980063 	0.001627594393 	3.77975113e-07 	0.01548656291 	-5.908207831e-07 	2.952169318e-05
0.4177545874 	0.008561320435 	0.001644499648 	2.551245475e-07 	0.01551035115 	-3.935394475e-07 	2.956704017e-05
0.4199651688 	0.008572427791 	0.001661763438 	1.314084239e-07 	0.01553530631 	-2.001047797e-07 	2.961461165e-05
0.4221969057 	0.008584308462 	0.001679334701 	6.849525077e-09 	0.01556149192 	-1.030045091e-08 	2.966452869e-05
0.4223203246 	0.00858500222 	0.001680302787 	1.398232295e-08 	0.01556299779 	-1.225631789e-07 	2.96673993e-05
0.424469228 	0.008597085929 	0.001697124887 	1.173003574e-07 	0.01558917417 	-1.769411757e-07 	2.971729875e-05
0.4267889352 	0.008610767541 	0.001715481651 	2.434470276e-07 	0.01561824795 	-3.629449324e-07 	2.977272146e-05
0.4291306938 	0.008625231813 	0.001734274525 	3.700651e-07 	0.01564848915 	-5.454828241e-07 	2.98303696e-05
0.4314947558 	0.008640485874 	0.001753267216 	4.970946117e-07 	0.01567997567 	-7.247009573e-07 	2.989039165e-05
0.4338813777 	0.008656501071 	0.001772577337 	6.245009686e-07 	0.01571259506 	-9.007973003e-07 	2.995257328e-05
0.4362908213 	0.00867326944 	0.001792200652 	7.522452092e-07 	0.01574636379 	-1.073973573e-06 	3.001694586e-05
0.43874163 	0.008690961553 	0.001812087496 	8.813225484e-07 	0.01578166179 	-1.2457228e-06 	3.008423365e-05
0.4412451404 	0.008709592538 	0.001832522406 	9.612831633e-07 	0.01581836735 	-1.345457309e-06 	3.015420467e-05
0.4437723886 	0.008729002663 	0.001853418542 	8.377183118e-07 	0.01585617664 	-1.161505838e-06 	3.022627968e-05
0.446323657 	0.008749193031 	0.001874467908 	7.13956279e-07 	0.01589520381 	-9.809470702e-07 	3.03006763e-05
0.4488992335 	0.008770089191 	0.001895892764 	5.900970558e-07 	0.01593519646 	-8.037434544e-07 	3.037691341e-05
0.4514994119 	0.008791797348 	0.001917499932 	4.661338167e-07 	0.01597650582 	-6.296509598e-07 	3.045566052e-05
0.4541616688 	0.008814518378 	0.001939485013 	3.401003309e-07 	0.01601940536 	-4.556680454e-07 	3.053743898e-05
0.4568588278 	0.008838092596 	0.001962094655 	2.137933577e-07 	0.01606342921 	-2.842263219e-07 	3.062136067e-05
0.4595815725 	0.008862430782 	0.001984909197 	8.780566766e-08 	0.01610860081 	-1.158703436e-07 	3.070747029e-05
0.4615041402 	0.008879949141 	0.002001073679 	1.090049251e-07 	0.01614088682 	-6.052704705e-07 	3.07690164e-05
0.4623294293 	0.008887472195 	0.002007995663 	3.678246916e-08 	0.01615473651 	-4.918992544e-08 	3.079541777e-05
0.4651017109 	0.0089132726 	0.002031228067 	1.585108255e-07 	0.01620203346 	-2.10657515e-07 	3.08855789e-05
0.4679286799 	0.008940056563 	0.002054787634 	2.810811596e-07 	0.01625084402 	-3.71305584e-07 	3.097862538e-05
0.4708000474 	0.008967745348 	0.002078932313 	4.036833167e-07 	0.01630083708 	-5.302538604e-07 	3.107392606e-05
0.4736987461 	0.008996210179 	0.002103353376 	5.253243546e-07 	0.01635192531 	-6.864068078e-07 	3.117131442e-05
0.476625129 	0.009025365213 	0.002128080782 	6.459642407e-07 	0.01640391344 	-8.39944941e-07 	3.127041825e-05
0.4795795562 	0.009055331314 	0.002152983132 	7.655126765e-07 	0.01645715014 	-9.909951612e-07 	3.13719022e-05
0.4825972259 	0.009086328616 	0.002178282072 	8.855214257e-07 	0.01651187646 	-1.141552401e-06 	3.147622576e-05
0.4856526605 	0.00911820664 	0.002204185276 	9.679131496e-07 	0.01656763963 	-1.243155577e-06 	3.158252588e-05
0.4887372686 	0.009150810436 	0.002230359201 	8.517222312e-07 	0.01662435694 	-1.0903287e-06 	3.169064483e-05
0.4918514422 	0.009184146703 	0.00225680431 	7.367320587e-07 	0.01668203408 	-9.404548485e-07 	3.180059349e-05
0.4950073042 	0.009218400327 	0.002283521846 	6.22420294e-07 	0.01674102187 	-7.926224091e-07 	3.191304061e-05
0.4982235491 	0.009253661506 	0.002310796477 	5.082572702e-07 	0.01680123993 	-6.45924413e-07 	3.202783296e-05
0.5014705527 	0.009289736273 	0.002338552344 	3.957589799e-07 	0.01686235134 	-5.022075742e-07 	3.21443283e-05
0.5047487424 	0.009326487151 	0.002366637978 	2.84995186e-07 	0.01692420555 	-3.612877579e-07 	3.226223962e-05
0.5080599365 	0.00936409628 	0.00239494833 	1.759378817e-07 	0.0169872309 	-2.229297891e-07 	3.238238345e-05
0.5114411945 	0.009402782784 	0.002423794982 	6.730410389e-08 	0.01705152451 	-8.52708705e-08 	3.250494494e-05
0.5135991682 	0.009427773439 	0.002442431387 	1.732559814e-07 	0.01709263712 	-7.290709678e-07 	3.258331701e-05
0.5148541725 	0.009442308377 	0.002453243123 	3.77940693e-08 	0.01711654005 	-4.909594164e-08 	3.262888263e-05
0.5182988631 	0.009482478288 	0.002482983781 	1.38404519e-07 	0.01718215925 	-1.800137796e-07 	3.275397107e-05
0.5217779526 	0.009523509945 	0.002512988831 	2.366980328e-07 	0.01724882364 	-3.084123813e-07 	3.288105193e-05
0.52532682 	0.009565626459 	0.002543562928 	3.337115631e-07 	0.01731660724 	-4.357898761e-07 	3.301026631e-05
0.528910028 	0.009608583236 	0.00257484079 	4.278677287e-07 	0.01738491475 	-5.604055457e-07 	3.314047939e-05
0.5325280828 	0.009652238574 	0.002606458173 	5.191475846e-07 	0.01745380909 	-6.823537916e-07 	3.327181116e-05
0.5361891746 	0.009696815178 	0.00263845308 	6.077285931e-07 	0.01752360164 	-8.020853368e-07 	3.340485516e-05
0.539912511 	0.00974242922 	0.002671097138 	6.938872968e-07 	0.01759418218 	-9.201230261e-07 	3.353940128e-05
0.5436721471 	0.009788833945 	0.002704421172 	7.765758354e-07 	0.01766505546 	-1.03542045e-06 	3.367450546e-05
0.5474686338 	0.009836006444 	0.002738084442 	8.557939103e-07 	0.01773648917 	-1.148027041e-06 	3.381067795e-05
0.5513216279 	0.009884194078 	0.002772281055 	8.702117251e-07 	0.01780863029 	-1.175281159e-06 	3.394819898e-05
0.5552246668 	0.009933315183 	0.002807234768 	7.843972449e-07 	0.0178810598 	-1.067400003e-06 	3.408626977e-05
0.5591661162 	0.00998318337 	0.00284272397 	7.015753621e-07 	0.01795365625 	-9.6263545e-07 	3.422465878e-05
0.5631511971 	0.01003394194 	0.00287864979 	6.216055833e-07 	0.01802670003 	-8.606427339e-07 	3.436390052e-05
0.5671996694 	0.01008573722 	0.002915277203 	5.441745848e-07 	0.01810006682 	-7.608386296e-07 	3.450375801e-05
0.5712881919 	0.01013833008 	0.002952647287 	4.700897271e-07 	0.01817325737 	-6.643163902e-07 	3.464327955e-05
0.5754174009 	0.01019172072 	0.002990422399 	3.9937151e-07 	0.01824660444 	-5.708868063e-07 	3.478309944e-05
0.5796100922 	0.01024615371 	0.00302884514 	3.315787413e-07 	0.01832011598 	-4.798306047e-07 	3.492323286e-05
0.5838480727 	0.01030143379 	0.003068083419 	2.673739832e-07 	0.0183932114 	-3.920836412e-07 	3.506257306e-05
0.5881285045 	0.01035748578 	0.00310777035 	2.068397064e-07 	0.01846615512 	-3.076225001e-07 	3.520162405e-05
0.592468147 	0.01041453605 	0.003148073042 	1.496616389e-07 	0.01853897528 	-2.259486582e-07 	3.534043952e-05
0.5968582973 	0.01047245241 	0.003189186537 	9.625130632e-08 	0.01861114303 	-1.476647086e-07 	3.547801131e-05
0.6012927572 	0.0105311419 	0.003230792259 	4.671022438e-08 	0.01868285032 	-7.288894628e-08 	3.561470534e-05
0.6057856853 	0.01059079642 	0.003273006593 	7.822768716e-10 	0.01875410497 	-1.242834132e-09 	3.575053651e-05
0.6058686619 	0.01059190106 	0.003273791947 	1.393302978e-08 	0.01875538853 	-5.487272214e-08 	3.575298332e-05
0.6103303191 	0.01065128906 	0.0033159763 	3.984395491e-08 	0.0188243992 	-6.594948422e-08 	3.588453684e-05
0.6149212656 	0.01071255529 	0.00335944775 	7.666561257e-08 	0.01889392404 	-1.294246754e-07 	3.601707051e-05
0.6195723842 	0.01077477075 	0.003403547518 	1.099190261e-07 	0.01896261912 	-1.894776114e-07 	3.614802244e-05
0.6242759264 	0.0108378086 	0.00344840138 	1.393425496e-07 	0.01903000952 	-2.455906993e-07 	3.627648726e-05
0.6290278534 	0.0109016081 	0.003493719605 	1.650588357e-07 	0.01909632307 	-2.977887164e-07 	3.640289932e-05
0.6338430612 	0.0109663193 	0.003539675904 	1.873066296e-07 	0.01916137025 	-3.463010735e-07 	3.652689733e-05
0.6387094544 	0.01103180065 	0.003586281857 	2.05887268e-07 	0.01922480381 	-3.906212913e-07 	3.664781932e-05
0.6436287687 	0.0110980494 	0.00363333038 	2.209916521e-07 	0.01928680184 	-4.308694593e-07 	3.67660048e-05
0.6486104566 	0.01116494173 	0.003680874027 	2.327711597e-07 	0.01934686508 	-4.669701702e-07 	3.688050203e-05
0.6535885607 	0.01123174247 	0.00372834728 	2.412302608e-07 	0.01940443916 	-4.984252994e-07 	3.699025423e-05
0.65851419 	0.01129795053 	0.003775286825 	2.4670008e-07 	0.01945917061 	-5.25381628e-07 	3.709458758e-05
0.6633878192 	0.01136337387 	0.003821705279 	2.493834809e-07 	0.01951067503 	-5.478385892e-07 	3.719276932e-05
0.6682048624 	0.01142793094 	0.003867418365 	2.495967061e-07 	0.01955920443 	-5.660567755e-07 	3.728527984e-05
0.6729731885 	0.01149173028 	0.003912509292 	2.476661956e-07 	0.01960477001 	-5.804011608e-07 	3.737214051e-05
0.6776883892 	0.01155467022 	0.003957015498 	2.437646735e-07 	0.01964720908 	-5.908791327e-07 	3.745304118e-05
0.6823494001 	0.01161671216 	0.004000760065 	2.382653245e-07 	0.01968684445 	-5.978966426e-07 	3.75285972e-05
0.6869638811 	0.01167795705 	0.004043866527 	2.314166993e-07 	0.01972360585 	-6.017261304e-07 	3.759867464e-05
0.69152573 	0.01173828743 	0.004086308113 	2.233859943e-07 	0.01975743921 	-6.024431062e-07 	3.766317042e-05
0.6960360527 	0.01179770399 	0.004127965661 	2.144667809e-07 	0.0197886263 	-6.004421161e-07 	3.772262169e-05
0.7005001735 	0.01185628076 	0.004168962621 	2.048100437e-07 	0.01981705708 	-5.958880185e-07 	3.777681867e-05
0.7049135952 	0.01191390898 	0.004209243911 	1.945636923e-07 	0.01984275919 	-5.889058877e-07 	3.782581403e-05
0.7092775063 	0.01197061254 	0.004248735338 	1.839422395e-07 	0.01986596787 	-5.798409116e-07 	3.787005622e-05
0.7135960089 	0.0120264527 	0.004287546474 	1.730466324e-07 	0.01988657508 	-5.688173968e-07 	3.79093393e-05
0.7178657865 	0.01208133161 	0.004325629939 	1.619906976e-07 	0.01990461588 	-5.559625908e-07 	3.794373007e-05
0.7220875898 	0.01213526796 	0.004362918641 	1.509313994e-07 	0.01992031864 	-5.415757942e-07 	3.797366389e-05
0.7262652504 	0.01218833398 	0.004399510821 	1.39940807e-07 	0.01993360175 	-5.257829908e-07 	3.799898519e-05
0.7303960315 	0.01224044444 	0.004435389259 	1.290868512e-07 	0.01994445251 	-5.086703961e-07 	3.801966977e-05
0.7344805912 	0.01229159066 	0.004470471322 	1.184832195e-07 	0.01995311564 	-4.904921876e-07 	3.80361841e-05
0.7385215828 	0.01234186155 	0.004504840959 	1.081827552e-07 	0.01995955112 	-4.713953673e-07 	3.80484519e-05
0.7425178833 	0.01239119489 	0.00453851843 	9.821370593e-08 	0.01996368477 	-4.51411296e-07 	3.805633178e-05
0.7464696505 	0.01243954799 	0.004571409968 	8.865291607e-08 	0.01996576069 	-4.307460904e-07 	3.806028908e-05
0.7503784336 	0.0124870134 	0.004603574549 	7.953929789e-08 	0.0199657966 	-4.095649959e-07 	3.806035753e-05
0.7542446399 	0.01253356737 	0.004635060964 	7.087622077e-08 	0.01996368809 	-3.878677481e-07 	3.805633812e-05
0.7580679078 	0.01257914329 	0.004665794718 	6.270470367e-08 	0.01995960836 	-3.657973644e-07 	3.804856103e-05
0.7618489142 	0.0126238007 	0.004695786861 	5.505116638e-08 	0.01995365993 	-3.435122529e-07 	3.803722166e-05
0.7655892833 	0.0126675727 	0.004725099292 	4.791195881e-08 	0.01994576615 	-3.210412787e-07 	3.802217391e-05
0.7692882266 	0.01271039942 	0.004753713125 	4.129236147e-08 	0.01993595635 	-2.984360389e-07 	3.800347372e-05
0.7729462699 	0.01275227142 	0.00478158271 	3.520707175e-08 	0.01992440977 	-2.758242861e-07 	3.798146272e-05
0.7765644362 	0.01279326099 	0.004808759979 	2.965284728e-08 	0.0199111207 	-2.532964247e-07 	3.795613007e-05
0.7801431096 	0.01283335349 	0.004835276359 	2.461347233e-08 	0.0198960267 	-2.308341596e-07 	3.79273567e-05
0.7836822925 	0.01287249606 	0.004861087556 	2.008834954e-08 	0.01987924801 	-2.085182532e-07 	3.789537185e-05
0.7871824709 	0.0129107221 	0.004886191464 	1.607123015e-08 	0.01986089333 	-1.8643881e-07 	3.786038275e-05
0.7906446711 	0.01294808007 	0.00491063726 	1.254579549e-08 	0.01984092204 	-1.646309272e-07 	3.782231191e-05
0.7940688637 	0.01298454073 	0.004934432524 	9.493916102e-09 	0.01981932008 	-1.430827109e-07 	3.778113257e-05
0.7974553732 	0.01302007004 	0.004957541138 	6.904332579e-09 	0.01979621544 	-1.218619281e-07 	3.773708871e-05
0.8008046515 	0.01305471099 	0.004979977117 	4.760526169e-09 	0.01977167609 	-1.010298377e-07 	3.769030989e-05
0.8041175789 	0.01308849858 	0.005001781257 	3.041228074e-09 	0.01974566029 	-8.059307543e-08 	3.764071654e-05
0.8073941181 	0.01312140523 	0.005022952662 	1.725989124e-09 	0.01971818278 	-6.054342695e-08 	3.758833676e-05
0.8106346707 	0.01315341148 	0.005043469072 	7.960363239e-10 	0.01968935033 	-4.092754827e-08 	3.75333741e-05
0.8138396595 	0.01318455632 	0.005063345424 	2.30085518e-10 	0.01965922017 	-2.178571363e-08 	3.747593763e-05
0.8170097807 	0.01321487616 	0.005082617793 	5.730623052e-12 	0.0196277608 	-3.119494098e-09 	3.741596734e-05
0.8175402391 	0.01321986279 	0.005085776245 	-6.17361958e-09 	0.01962221578 	-8.016234174e-07 	3.740539699e-05
0.8201450131 	0.01324435924 	0.005101292984 	-2.949506856e-10 	0.0195949827 	-1.502804065e-08 	3.735348317e-05
0.8232458362 	0.01327298834 	0.005119354768 	-9.278425974e-10 	0.01956097481 	-3.26569112e-08 	3.728865469e-05
0.8263126747 	0.01330079352 	0.005136812269 	-1.841490498e-09 	0.01952580226 	-4.975170562e-08 	3.722160603e-05
0.8293460587 	0.01332781861 	0.005153698094 	-3.012492421e-09 	0.01948945153 	-6.630412877e-08 	3.715231143e-05
0.832346269 	0.01335406458 	0.005170025448 	-4.419361756e-09 	0.01945192111 	-8.234043888e-08 	3.708076802e-05
0.8353136109 	0.01337951842 	0.005185784852 	-6.038543402e-09 	0.01941328507 	-9.784464724e-08 	3.700711699e-05
0.8382484591 	0.01340420374 	0.005200982863 	-7.846222742e-09 	0.01937361073 	-1.128000349e-07 	3.693148667e-05
0.8411512145 	0.01342816494 	0.005215644776 	-9.819242434e-09 	0.01933291357 	-1.271925488e-07 	3.685390657e-05
0.8440222961 	0.01345142703 	0.005229794201 	-1.193754405e-08 	0.01929118175 	-1.410426068e-07 	3.677435413e-05
0.8468619449 	0.01347398719 	0.005243430237 	-1.417972734e-08 	0.01924847139 	-1.543517139e-07 	3.66929363e-05
0.8496705157 	0.0134958633 	0.005256559723 	-1.652356407e-08 	0.01920483919 	-1.671078204e-07 	3.660976121e-05
0.852448358 	0.01351708896 	0.005269197025 	-1.89476669e-08 	0.01916033454 	-1.792986857e-07 	3.652492297e-05
0.8551958614 	0.01353771309 	0.005281369014 	-2.143220523e-08 	0.0191149683 	-1.909188328e-07 	3.64384423e-05
0.857913338 	0.01355775865 	0.005293093999 	-2.396051448e-08 	0.01906874743 	-2.019853723e-07 	3.635033249e-05
0.8606010833 	0.01357723637 	0.005304374378 	-2.65129491e-08 	0.01902174106 	-2.124910359e-07 	3.626072527e-05
0.8632594293 	0.0135961801 	0.005315224804 	-2.907017673e-08 	0.01897399766 	-2.224259936e-07 	3.616971309e-05
0.8658887031 	0.01361463021 	0.005325662697 	-3.161362511e-08 	0.01892556408 	-2.317795398e-07 	3.607738522e-05
0.8684892567 	0.0136326392 	0.005335713634 	-3.412620305e-08 	0.01887646217 	-2.405481314e-07 	3.598378334e-05
0.8710613826 	0.01365023837 	0.005345396067 	-3.659351661e-08 	0.01882671336 	-2.487429672e-07 	3.588894828e-05
0.8736053763 	0.01366745216 	0.005354717901 	-3.899841452e-08 	0.01877638953 	-2.563573632e-07 	3.579301708e-05
0.8761215493 	0.01368432381 	0.005363697156 	-4.1324575e-08 	0.01872554131 	-2.633834752e-07 	3.569608623e-05
0.8786102089 	0.01370089951 	0.005372352726 	-4.355673198e-08 	0.01867422185 	-2.698122663e-07 	3.559825707e-05
0.8810716699 	0.01371723867 	0.005380709671 	-4.568091573e-08 	0.01862247125 	-2.756380142e-07 	3.549960605e-05
0.883506227 	0.01373338799 	0.005388790642 	-4.768642313e-08 	0.0185703183 	-2.808679137e-07 	3.540018803e-05
0.8859141583 	0.01374938498 	0.00539660936 	-4.95608548e-08 	0.0185178338 	-2.85498528e-07 	3.530013799e-05
0.888295757 	0.01376528194 	0.005404185494 	-5.129235427e-08 	0.0184650827 	-2.895248386e-07 	3.519957973e-05
0.8906513125 	0.01378113402 	0.005411541358 	-5.287040944e-08 	0.01841211934 	-2.929413582e-07 	3.509861684e-05