0.3526971907 	1.910264649e-06 	-1.062686623e-08 	1.400893638e-12 	1.899830122e-06 	-1.724013121e-10 	3.621604243e-09
0.3528833318 	2.428351789e-05 	-5.333678446e-07 	9.712440923e-11 	2.389769914e-05 	-3.027029702e-09 	4.555565658e-08
0.3530694809 	0.0001391105483 	-7.075239229e-06 	1.34899433e-09 	0.0001343713423 	-1.760515528e-08 	2.56149125e-07
0.3532556373 	0.000472864349 	-4.367604888e-05 	8.159886985e-09 	0.0004446583885 	-5.684393621e-08 	8.476424748e-07
0.3534418003 	0.001183035068 	-0.0001698774088 	2.976827317e-08 	0.001076364727 	-1.293061252e-07 	2.051850329e-06
0.3536279691 	0.002414577715 	-0.0004784984631 	7.541965048e-08 	0.002122577385 	-2.32044749e-07 	4.046222436e-06
0.3538141431 	0.004230797447 	-0.001052774181 	1.430195483e-07 	0.003607443019 	-3.473186814e-07 	6.876789032e-06
0.3540003216 	0.006552413659 	-0.001904457165 	2.15558206e-07 	0.005457163946 	-4.476984226e-07 	1.040287122e-05
0.3541865037 	0.009140581185 	-0.002877174218 	2.325022785e-07 	0.007516228807 	-5.122842284e-07 	1.432802113e-05
0.3543726888 	0.01174304791 	-0.003771247181 	2.218901281e-07 	0.009625870318 	-5.436533314e-07 	1.83495842e-05
0.3545588762 	0.01425637024 	-0.004578912655 	2.248121072e-07 	0.01168660478 	-5.483236911e-07 	2.227791683e-05
0.3547450652 	0.01664081278 	-0.005345744006 	2.17783144e-07 	0.01364080705 	-5.27650111e-07 	2.600316951e-05
0.354931255 	0.0188489346 	-0.006058356869 	2.035263623e-07 	0.01544886528 	-4.866299876e-07 	2.944983101e-05
0.3551174449 	0.02085484093 	-0.006712747334 	1.84988402e-07 	0.01708706987 	-4.301385473e-07 	3.257270427e-05
0.3553036343 	0.02264822954 	-0.007312729505 	1.644466001e-07 	0.01854215841 	-3.630021335e-07 	3.534650746e-05
0.3554898223 	0.02422867577 	-0.007867032181 	1.428060097e-07 	0.01980804661 	-2.899773389e-07 	3.77596422e-05
0.3556760083 	0.02560141433 	-0.008385809342 	1.198340378e-07 	0.02088359332 	-2.15991291e-07 	3.980993316e-05
0.3558621916 	0.02677539214 	-0.008878646439 	9.492538866e-08 	0.02177180959 	-1.46019693e-07 	4.150312024e-05
0.3560483715 	0.02775429382 	-0.009327723195 	5.796560632e-08 	0.02248805045 	-8.788073428e-08 	4.286847438e-05
0.3562345472 	0.02851314464 	-0.00961382776 	2.491617291e-08 	0.02308394744 	-4.066527187e-08 	4.400441966e-05
0.356420718 	0.02907735631 	-0.009750757967 	2.442607419e-09 	0.02357661683 	-3.768935129e-09 	4.494358446e-05
0.3564442227 	0.02913109037 	-0.009763344951 	-5.239272161e-07 	0.02362388434 	1.999629425e-06 	4.503368947e-05
0.3566065628 	0.0295030605 	-0.009850492092 	1.506108063e-08 	0.02395107165 	-2.290773721e-08 	4.565739943e-05
0.3567923551 	0.02980363446 	-0.009915592646 	2.675887733e-08 	0.02421940546 	-3.60970808e-08 	4.616891825e-05
0.3569781408 	0.02999030283 	-0.009948641873 	3.224955582e-08 	0.02439148363 	-3.436279345e-08 	4.649694706e-05
0.357163919 	0.03007329276 	-0.009952279334 	3.133691059e-08 	0.02447610107 	-1.694444777e-08 	4.665825141e-05
0.3573496891 	0.03006209379 	-0.009929088862 	2.391509759e-08 	0.02448134214 	1.661297138e-08 	4.666824236e-05
0.3575354505 	0.02996554238 	-0.009881515905 	9.949809926e-09 	0.02441471221 	6.647842074e-08 	4.654122719e-05
0.3577212023 	0.02979187447 	-0.009811839736 	-1.053196484e-08 	0.02428321981 	1.325610136e-07 	4.629056614e-05
0.357906944 	0.02954876975 	-0.009722182054 	-3.744657084e-08 	0.02409345418 	2.145368267e-07 	4.59288201e-05
0.3580926748 	0.02924335826 	-0.009614477606 	-7.066062993e-08 	0.02385144876 	3.118838648e-07 	4.54674905e-05
0.358278394 	0.02882838099 	-0.009471738455 	-1.143382567e-07 	0.0235197496 	4.34320619e-07 	4.483517971e-05
0.3585669344 	0.02822178372 	-0.009267394086 	-1.8310644e-07 	0.02303188267 	6.254152946e-07 	4.390516975e-05
0.3588608649 	0.02745006431 	-0.009011457412 	-2.70747109e-07 	0.02240861767 	8.601976319e-07 	4.271705343e-05
0.3591602827 	0.02657887162 	-0.008724712541 	-3.726837739e-07 	0.02170361871 	1.125368611e-06 	4.137312947e-05
0.3594652866 	0.0256230326 	-0.008411110122 	-4.879947857e-07 	0.02092952868 	1.416355522e-06 	3.989749872e-05
0.3597759769 	0.02459737138 	-0.008074702456 	-6.152708916e-07 	0.02009912553 	1.727209093e-06 	3.831451952e-05
0.3600924555 	0.02351750539 	-0.007720042975 	-7.478568912e-07 	0.01922570203 	2.044391628e-06 	3.664953158e-05
0.3604148257 	0.02240310791 	-0.007353811086 	-8.736568557e-07 	0.01832541546 	2.345982946e-06 	3.493333515e-05
0.3607431925 	0.02127603005 	-0.006983694349 	-9.88397247e-07 	0.01741608374 	2.619163775e-06 	3.319989617e-05
0.3610776623 	0.02015404056 	-0.006615297306 	-1.093305369e-06 	0.01651273158 	2.858736245e-06 	3.147785586e-05
0.3614183433 	0.01905294642 	-0.006253477515 	-1.18175491e-06 	0.01562891976 	3.049776936e-06 	2.979306489e-05
0.3617653449 	0.01799021546 	-0.005904322546 	-1.241662457e-06 	0.01477933196 	3.170331229e-06 	2.817351442e-05
0.3621187783 	0.01698406287 	-0.00557480054 	-1.260561352e-06 	0.01397936347 	3.197590887e-06 	2.664855213e-05
0.3624787563 	0.01605188528 	-0.005271926801 	-1.230895921e-06 	0.01324378685 	3.120876587e-06 	2.524633867e-05
0.362845393 	0.01520726299 	-0.005000819693 	-1.157450972e-06 	0.01258234631 	2.954885811e-06 	2.398544916e-05
0.3632188042 	0.01444849634 	-0.004745125387 	-1.349628157e-06 	0.01199816111 	2.732855048e-06 	2.287182979e-05
0.3635991072 	0.01374364261 	-0.004442465022 	-1.750572777e-06 	0.01148277808 	2.523288698e-06 	2.18893665e-05
0.3639864209 	0.0130931995 	-0.004117274956 	-1.838162781e-06 	0.01102556382 	2.302581032e-06 	2.101778904e-05
0.3643808655 	0.01251628184 	-0.003824463043 	-1.792441642e-06 	0.01062646304 	1.999384273e-06 	2.025699202e-05
0.3647825629 	0.01200549583 	-0.00354976719 	-1.802532675e-06 	0.0102884501 	1.629019742e-06 	1.961264542e-05
0.3651916363 	0.01155767659 	-0.003291737376 	-1.798575149e-06 	0.01001065927 	1.21523021e-06 	1.908309889e-05
0.3656082104 	0.011169025 	-0.003050314127 	-1.779241841e-06 	0.00978947884 	7.707126126e-07 	1.866146751e-05
0.3660324115 	0.01083488218 	-0.002825730438 	-1.739969556e-06 	0.00962150519 	2.971015637e-07 	1.834126305e-05
0.3664643669 	0.01055014376 	-0.002618731474 	-1.668035853e-06 	0.009503414558 	-2.043708114e-07 	1.811614948e-05
0.3669042055 	0.01031011341 	-0.00243176337 	-1.533951831e-06 	0.009431912672 	-7.353510146e-07 	1.797984702e-05
0.3673532781 	0.01010951724 	-0.002265300485 	-1.39041454e-06 	0.00940425376 	-1.294565969e-06 	1.792712144e-05
0.3678226155 	0.009942457351 	-0.002112645573 	-1.332231234e-06 	0.009417345586 	-1.852410864e-06 	1.79520781e-05
0.3683005872 	0.009804503057 	-0.001968337889 	-1.291329398e-06 	0.00946508769 	-2.335523534e-06 	1.804308782e-05
0.3687873492 	0.009691557004 	-0.001832785587 	-1.151439772e-06 	0.00954003871 	-2.584202942e-06 	1.81859653e-05
0.3692830603 	0.009598925403 	-0.001706173465 	-1.021706142e-06 	0.009636446726 	-2.752257959e-06 	1.836974577e-05
0.369787882 	0.009522479406 	-0.001587645273 	-9.06097017e-07 	0.009750157707 	-2.856834951e-06 	1.858651051e-05
0.3703019789 	0.009458898685 	-0.001476267311 	-8.03533828e-07 	0.009877865177 	-2.908157998e-06 	1.882995644e-05
0.3708255181 	0.009405538494 	-0.001371175753 	-7.125430773e-07 	0.01001686927 	-2.915110279e-06 	1.909493688e-05
0.3713586698 	0.009360287297 	-0.001271593527 	-6.316691454e-07 	0.0101649943 	-2.884785597e-06 	1.937730435e-05
0.3719016073 	0.009321452606 	-0.001176832297 	-5.595961339e-07 	0.01032048079 	-2.822704419e-06 	1.967370482e-05
0.3724545069 	0.009287671195 	-0.001086279885 	-4.951478129e-07 	0.01048189263 	-2.733225474e-06 	1.998140064e-05
0.3730175478 	0.009257840774 	-0.0009993925601 	-4.372710694e-07 	0.01064804821 	-2.619842067e-06 	2.029813937e-05
0.3735909124 	0.009231066318 	-0.0009156903343 	-3.85033807e-07 	0.0108179704 	-2.485385326e-06 	2.062205828e-05
0.3741747866 	0.009206617691 	-0.0008347496316 	-3.376140084e-07 	0.01099084681 	-2.332175984e-06 	2.095160876e-05
0.3747693591 	0.009183896487 	-0.0007561971216 	-2.942889724e-07 	0.01116599897 	-2.162137237e-06 	2.128549746e-05
0.3753748222 	0.009162409838 	-0.0006797040984 	-2.544251197e-07 	0.01134285775 	-1.976880165e-06 	2.162263946e-05
0.3759913715 	0.009141749648 	-0.000604981462 	-2.174689093e-07 	0.01152094411 	-1.777768061e-06 	2.196212155e-05
0.3766192059 	0.009121576068 	-0.0005317752588 	-1.829389382e-07 	0.0116998537 	-1.565965e-06 	2.230317295e-05
0.3772585279 	0.009101604306 	-0.0004598627414 	-1.50419142e-07 	0.01187924477 	-1.342472732e-06 	2.26451422e-05
0.3779095436 	0.009081594094 	-0.0003890487418 	-1.195529713e-07 	0.01205882745 	-1.10815883e-06 	2.298747671e-05
0.3785724626 	0.009061341259 	-0.0003191624256 	-9.003828773e-08 	0.01223835482 	-8.63778796e-07 	2.332970576e-05
0.379247498 	0.009040671218 	-0.0002500537046 	-6.162297704e-08 	0.0124176088 	-6.099922333e-07 	2.367141367e-05
0.3799348671 	0.009019430202 	-0.000181607487 	-3.410052605e-08 	0.01259651867 	-3.473767732e-07 	2.401246561e-05
0.3806347904 	0.008997476198 	-0.0001136287587 	-7.308093778e-09 	0.01277476879 	-7.64405171e-08 	2.435225987e-05
0.3808310927 	0.008991178161 	-9.498115531e-05 	8.24042387e-07 	0.01282378359 	1.928863292e-06 	2.44456957e-05
0.3813466422 	0.008974610693 	-4.591422501e-05 	-1.93149159e-08 	0.012952795 	-1.981260725e-07 	2.469162731e-05
0.3820801772 	0.008950587743 	2.191439131e-05 	-4.596937676e-08 	0.01313200078 	-4.828115006e-07 	2.503324335e-05
0.3828382826 	0.008925241807 	9.023723279e-05 	-7.262510948e-08 	0.01331204665 	-7.80013523e-07 	2.53764608e-05
0.3836101777 	0.008898642322 	0.0001586562737 	-9.882581181e-08 	0.01349153338 	-1.084425589e-06 	2.57186124e-05
0.3843961079 	0.008870830087 	0.0002268043817 	-1.245704165e-07 	0.01366990098 	-1.395721419e-06 	2.605863062e-05
0.3851963225 	0.00884172885 	0.0002947951733 	-1.498215732e-07 	0.01384699032 	-1.713627922e-06 	2.639621213e-05
0.3860110754 	0.008811275912 	0.0003626684691 	-1.745299644e-07 	0.01402279796 	-2.037780854e-06 	2.673135034e-05
0.3868406247 	0.008779420269 	0.0004304716902 	-1.986250517e-07 	0.01419723124 	-2.367725915e-06 	2.706386867e-05
0.3876852333 	0.008746112779 	0.0004982176609 	-2.21593283e-07 	0.01437034071 	-2.705136052e-06 	2.739386342e-05
0.3885451683 	0.008711236229 	0.0005657053291 	-2.409501174e-07 	0.01454348153 	-3.063170986e-06 	2.772391795e-05
0.3894207017 	0.008674792339 	0.0006332207838 	-2.676772467e-07 	0.01471557526 	-3.399068264e-06 	2.805197643e-05
0.3903121102 	0.008630779164 	0.0007160858197 	-3.952367974e-07 	0.01490481445 	-3.70472217e-06 	2.841271893e-05
0.3916794299 	0.008594305539 	0.0008272769436 	-5.71246027e-07 	0.01508579215 	-3.368771732e-06 	2.875771273e-05
0.3930606337 	0.008590877234 	0.0009527130956 	-7.101408322e-07 	0.01519653249 	-2.562281241e-06 	2.896881459e-05
0.3944558643 	0.00860797367 	0.001079618407 	-7.969863672e-07 	0.01525301122 	-2.394753224e-06 	2.907647873e-05
0.3958652666 	0.008626763351 	0.001202026219 	-6.222005787e-07 	0.01529624916 	-2.064636054e-06 	2.915890226e-05
0.3973226541 	0.008646016164 	0.001313997553 	-4.226395782e-07 	0.0153339875 	-1.778865669e-06 	2.923084205e-05
0.3987982205 	0.008665322623 	0.001414292859 	-2.616292766e-07 	0.01536726789 	-1.497723223e-06 	2.929428371e-05
0.4002886278 	0.008683967989 	0.00150253569 	-1.36669844e-07 	0.01539629365 	-1.227090764e-06 	2.934961487e-05
0.401794029 	0.008701504427 	0.001579613253 	-4.619559242e-08 	0.01542149308 	-9.709522628e-07 	2.9397652e-05
0.4033145791 	0.008717740183 	0.001646443135 	1.061992662e-08 	0.01544357457 	-7.277992155e-07 	2.943974545e-05
0.404850435 	0.008732563756 	0.001704114331 	3.672229888e-08 	0.01546307766 	-4.967430906e-07 	2.947692376e-05
0.4064017559 	0.008745996992 	0.001753670343 	3.593288573e-08 	0.0154805775 	-2.771772182e-07 	2.951028332e-05
0.4079687029 	0.008758010752 	0.001796426467 	1.241330945e-08 	0.01549619373 	-6.849748895e-08 	2.95400522e-05
0.4085056593 	0.008761642151 	0.001808867475 	4.2752441e-07 	0.01550104763 	-6.099793651e-07 	2.954930507e-05
0.4095500387 	0.008768739188 	0.001833145329 	2.610776295e-08 	0.01551050244 	-1.304282679e-07 	2.956732856e-05
0.4111722932 	0.008778508032 	0.001864980892 	7.955629669e-08 	0.01552408531 	-3.237233977e-07 	2.959322129e-05
0.4128244561 	0.008787409948 	0.001893195549 	1.463058946e-07 	0.0155367949 	-5.096257427e-07 	2.961744931e-05
0.4144931395 	0.008795574832 	0.001918126169 	2.225095118e-07 	0.01554893221 	-6.868785675e-07 	2.96405864e-05
0.4161785171 	0.008803185134 	0.00194034496 	3.052542907e-07 	0.01556075463 	-8.563257001e-07 	2.966312321e-05
0.4178807647 	0.008810427854 	0.001960518896 	3.922557372e-07 	0.01557243066 	-1.018864282e-06 	2.968538098e-05
0.4196000609 	0.00881749916 	0.001979109939 	4.817791627e-07 	0.01558421179 	-1.175339599e-06 	2.970783907e-05
0.4213365867 	0.008824502642 	0.001996647013 	5.726339093e-07 	0.01559609109 	-1.326661653e-06 	2.973048432e-05
0.4230905257 	0.008831557615 	0.002013380935 	6.639658173e-07 	0.01560826447 	-1.473570223e-06 	2.975369017e-05
0.4248808085 	0.008838914329 	0.002029459385 	6.683454348e-07 	0.01562122764 	-1.430419907e-06 	2.977840158e-05
0.4267111345 	0.008846661787 	0.00204545991 	5.968867231e-07 	0.01563481565 	-1.238409223e-06 	2.98043041e-05
0.4285596439 	0.008854790679 	0.002061424798 	5.215247492e-07 	0.01564897293 	-1.053675664e-06 	2.983129181e-05
0.430426532 	0.00886336239 	0.002077213156 	4.432670068e-07 	0.01566391358 	-8.752910361e-07 	2.985977285e-05
0.432311997 	0.008872443841 	0.002092999283 	3.629589705e-07 	0.01567966466 	-7.025448273e-07 	2.988979877e-05
0.4342162403 	0.008882105976 	0.002108812678 	2.811852934e-07 	0.01569635141 	-5.347548064e-07 	2.992160836e-05
0.4361394662 	0.008892275898 	0.002124937155 	1.98406332e-07 	0.01571366796 	-3.714402074e-07 	2.995461852e-05
0.438086583 	0.008903117273 	0.002141021063 	1.146214907e-07 	0.01573223695 	-2.115627861e-07 	2.999001617e-05
0.4400903286 	0.008914791871 	0.002157419344 	2.843297585e-08 	0.01575211603 	-5.178788318e-08 	3.002791123e-05
0.4407568964 	0.008918856349 	0.002163020382 	7.340138786e-08 	0.0157589143 	-6.929952052e-07 	3.004087063e-05
0.4421124636 	0.008927134832 	0.002174402484 	5.722114933e-08 	0.01577271728 	-1.041025803e-07 	3.006718293e-05
0.4441539424 	0.008940129753 	0.002191456952 	1.426235548e-07 	0.01579437335 	-2.565110528e-07 	3.010846542e-05
0.4462156827 	0.008953822518 	0.00220869001 	2.280561974e-07 	0.01581709975 	-4.058228125e-07 	3.015178826e-05
0.4482979098 	0.008968182569 	0.002226218743 	3.134502301e-07 	0.01584075216 	-5.52283125e-07 	3.019687633e-05
0.4504008528 	0.008983206395 	0.002243984158 	3.987441799e-07 	0.01586540951 	-6.961038936e-07 	3.024388009e-05
0.4525441768 	0.008999067711 	0.002261910138 	4.848020594e-07 	0.01589148716 	-8.389066358e-07 	3.029359135e-05
0.454731616 	0.009015784887 	0.00228034885 	5.717025413e-07 	0.01591871996 	-9.809405445e-07 	3.034550462e-05
0.4569406477 	0.009033218475 	0.002299189521 	6.582782581e-07 	0.01594689618 	-1.120516122e-06 	3.039921634e-05
0.4591715173 	0.009051352189 	0.002318146502 	7.444546705e-07 	0.01597618664 	-1.257647719e-06 	3.045505208e-05
0.4614244743 	0.00907017052 	0.002337358357 	6.683420852e-07 	0.01600644259 	-1.12101122e-06 	3.051272833e-05
0.4636997726 	0.009089655544 	0.002356819523 	5.836543798e-07 	0.01603767288 	-9.723857488e-07 	3.057226194e-05
0.4660138631 	0.009109977525 	0.002376419706 	4.98465749e-07 	0.01607032144 	-8.251001e-07 	3.063449918e-05
0.4683768474 	0.009131191501 	0.00239648724 	4.125305153e-07 	0.01610418522 	-6.785860621e-07 	3.069905296e-05
0.4707631028 	0.009153130852 	0.002416976874 	3.271188215e-07 	0.01613895602 	-5.349416905e-07 	3.076533576e-05
0.4731729021 	0.009175767807 	0.002437525879 	2.42230606e-07 	0.01617486808 	-3.93920911e-07 	3.083379413e-05
0.4756065229 	0.009199035896 	0.002458401338 	1.579104514e-07 	0.01621156495 	-2.554643957e-07 	3.090374857e-05
0.4780642477 	0.009223016752 	0.002479352339 	7.416601843e-08 	0.01624948574 	-1.194046653e-07 	3.097603612e-05
0.4802716443 	0.00924488258 	0.002497960488 	3.303400269e-08 	0.01628405485 	-2.284417393e-07 	3.104193446e-05
0.4805791243 	0.009247930776 	0.002500549408 	1.015493668e-08 	0.01628886708 	-1.648777058e-08 	3.105110792e-05
0.4831257177 	0.009273643218 	0.002522281881 	9.277588694e-08 	0.01632910759 	-1.500116536e-07 	3.11278175e-05
0.4856974442 	0.009300041913 	0.002544136687 	1.745214189e-07 	0.0163704123 	-2.811038025e-07 	3.120655577e-05
0.4882946084 	0.009327071516 	0.002566223725 	2.553750657e-07 	0.01641256409 	-4.098919274e-07 	3.128690878e-05
0.4909175204 	0.009354783968 	0.002588426655 	3.353044681e-07 	0.01645581936 	-5.36479465e-07 	3.136936536e-05
0.4935914432 	0.009383386048 	0.002610831573 	4.152184383e-07 	0.01650047661 	-6.623440021e-07 	3.14544945e-05
0.4963073025 	0.009412837125 	0.002633740726 	4.945916313e-07 	0.01654612442 	-7.868488747e-07 	3.154151191e-05
0.4990499663 	0.009442989157 	0.002656848662 	5.72790796e-07 	0.01659276529 	-9.091114346e-07 	3.163042236e-05
0.5018197696 	0.009473742568 	0.002680196048 	6.498120721e-07 	0.01664016869 	-1.029279757e-06 	3.172078642e-05
0.5046170535 	0.009505192007 	0.002703614745 	7.164162941e-07 	0.01668873295 	-1.132893068e-06 	3.181336339e-05
0.5074731508 	0.009537572302 	0.002727296931 	6.376772176e-07 	0.01673866173 	-1.00685108e-06 	3.190854153e-05
0.5103654706 	0.009570772894 	0.002751497429 	5.598772925e-07 	0.01678943835 	-8.830550946e-07 	3.200533588e-05
0.5132863965 	0.009604612184 	0.002775882562 	4.833427685e-07 	0.01684107484 	-7.617667205e-07 	3.210376938e-05
0.5162362976 	0.009639075051 	0.002800457305 	4.080863251e-07 	0.01689354456 	-6.42910875e-07 	3.220379126e-05
0.5192259846 	0.009674333053 	0.002825175824 	3.337519219e-07 	0.01694722942 	-5.257683086e-07 	3.230612951e-05
0.522272157 	0.009710506007 	0.002850318221 	2.599795271e-07 	0.01700198769 	-4.096382608e-07 	3.2410514e-05
0.5253484873 	0.009747416187 	0.002875844842 	1.877298431e-07 	0.01705750046 	-2.95996833e-07 	3.251633676e-05
0.5284553749 	0.009784898982 	0.002901614484 	1.170220643e-07 	0.01711363307 	-1.847052889e-07 	3.262334112e-05
0.5315944582 	0.009823102506 	0.002927484235 	4.781556738e-08 	0.01717085018 	-7.558172862e-08 	3.273241283e-05
0.5338265938 	0.009850381622 	0.002945768432 	9.250844639e-08 	0.0172114961 	-5.619065735e-07 	3.280989526e-05
0.5347983671 	0.009862260948 	0.002953718721 	2.031060953e-08 	0.01722918598 	-3.268357793e-08 	3.284361708e-05
0.5380331266 	0.009902182854 	0.002980442344 	8.568107564e-08 	0.01728807524 	-1.382076527e-07 	3.295587637e-05
0.5413001689 	0.009942662218 	0.003007414553 	1.492566001e-07 	0.01734748414 	-2.414303399e-07 	3.306912625e-05
0.5446007731 	0.009983856186 	0.003034519545 	2.110544442e-07 	0.01740784769 	-3.42495959e-07 	3.318419596e-05
0.5479665339 	0.01002600518 	0.003062018413 	2.717644663e-07 	0.01746920046 	-4.425670911e-07 	3.330115139e-05
0.5513659018 	0.01006890757 	0.003090082075 	3.303979937e-07 	0.01753091998 	-5.40283017e-07 	3.341880595e-05
0.5547993447 	0.01011238332 	0.003118367258 	3.869900062e-07 	0.01759313577 	-6.35716842e-07 	3.353740653e-05
0.5582741879 	0.01015662467 	0.003146877042 	4.416840783e-07 	0.0176561515 	-7.292144399e-07 	3.365753204e-05
0.5618076284 	0.01020177109 	0.00317584659 	4.94682349e-07 	0.01771983612 	-8.211690082e-07 	3.377893263e-05
0.5653765506 	0.01024760228 	0.003205342984 	5.453444986e-07 	0.01778368133 	-9.107771252e-07 	3.390063933e-05
0.5689814607 	0.01029405055 	0.003235036929 	5.937296245e-07 	0.01784801497 	-9.980911027e-07 	3.402327712e-05
0.5726399359 	0.01034134801 	0.003265077066 	6.319906783e-07 	0.01791295726 	-1.069877872e-06 	3.414707519e-05
0.5763462671 	0.0103894498 	0.003295673461 	5.771301003e-07 	0.01797808155 	-9.844729419e-07 	3.427122019e-05
0.5800900842 	0.01043816074 	0.00332664702 	5.243155039e-07 	0.01804328845 	-9.017331767e-07 	3.439552266e-05
0.5838760648 	0.01048758422 	0.003357880288 	4.734359418e-07 	0.01810887826 	-8.213706813e-07 	3.452055506e-05
0.5877219169 	0.01053787664 	0.00338959317 	4.242503343e-07 	0.0181747127 	-7.428854277e-07 	3.46460538e-05
0.5916068205 	0.01058882853 	0.003421855655 	3.772262538e-07 	0.0182402866 	-6.671667999e-07 	3.477105589e-05
0.5955313545 	0.01064039728 	0.003454349731 	3.323708516e-07 	0.01830598469 	-5.940656451e-07 	3.48962947e-05
0.5995159326 	0.01069281374 	0.003487268647 	2.893647275e-07 	0.01837179155 	-5.229697219e-07 	3.502174087e-05
0.6035443405 	0.01074592249 	0.003520781971 	2.485791021e-07 	0.01843712668 	-4.546203762e-07 	3.514628778e-05
0.6076140506 	0.01079961726 	0.003554564138 	2.10061987e-07 	0.0185022991 	-3.890000583e-07 	3.527052452e-05
0.6117400776 	0.01085409983 	0.003588741544 	1.735800926e-07 	0.01856732292 	-3.256795162e-07 	3.539447801e-05
0.6159146912 	0.01090927113 	0.003623494803 	1.393543169e-07 	0.01863167687 	-2.651186096e-07 	3.551715451e-05
0.6201323578 	0.01096501774 	0.003658550494 	1.074414658e-07 	0.01869558568 	-2.074029478e-07 	3.563898248e-05
0.624405768 	0.01102150438 	0.003693992406 	7.765165745e-08 	0.018759053 	-1.521999657e-07 	3.575996883e-05
0.6287296122 	0.01107864775 	0.003729984854 	5.014946108e-08 	0.0188215893 	-9.98877068e-08 	3.58791804e-05
0.6330983433 	0.01113634484 	0.003766275934 	2.494644007e-08 	0.01888341066 	-5.053092553e-08 	3.59970291e-05
0.6375243826 	0.01119474353 	0.003802957891 	1.873925038e-09 	0.01894445874 	-3.863064853e-09 	3.611340369e-05
0.6379202885 	0.01119996164 	0.003806247914 	3.865827938e-08 	0.0189497496 	-2.787839927e-07 	3.612348955e-05
0.6420004271 	0.0112537358 	0.003840138682 	1.853535953e-08 	0.01900426833 	-3.948767095e-08 	3.62274174e-05
0.6465232803 	0.01131325167 	0.003877588855 	3.67479369e-08 	0.01906309295 	-7.978523136e-08 	3.633955347e-05
0.6511063536 	0.01137342176 	0.003915448444 	5.2941555e-08 	0.0191207445 	-1.172391924e-07 	3.644945336e-05
0.6557388531 	0.01143411823 	0.003953730022 	6.700036912e-08 	0.01917690922 	-1.514798918e-07 	3.655651891e-05
0.660422338 	0.01149531704 	0.00399225777 	7.90714937e-08 	0.01923177992 	-1.826697213e-07 	3.666111773e-05
0.665165319 	0.01155691164 	0.004031089962 	8.921742161e-08 	0.01928486913 	-2.107700138e-07 	3.67623205e-05
0.6699055951 	0.01161823438 	0.004069776557 	9.735802456e-08 	0.01933570031 	-2.353649927e-07 	3.685921886e-05
0.6745962236 	0.01167881524 	0.004107939588 	1.036477172e-07 	0.01938397557 	-2.565435406e-07 	3.695124494e-05
0.6792376453 	0.01173848996 	0.004145598965 	1.081944457e-07 	0.01942933094 	-2.743103496e-07 	3.703770488e-05
0.683825733 	0.01179718777 	0.004182608977 	1.11206268e-07 	0.0194720183 	-2.889162604e-07 	3.711907884e-05
0.6883675362 	0.01185501171 	0.004219046215 	1.128879733e-07 	0.0195120327 	-3.00659597e-07 	3.719535741e-05
0.6928591181 	0.01191188744 	0.004254954194 	1.133148365e-07 	0.01954921545 	-3.095310277e-07 	3.726623807e-05
0.6972995107 	0.01196778002 	0.004290191902 	1.12692953e-07 	0.01958387677 	-3.158387933e-07 	3.733231218e-05
0.7016955919 	0.01202278817 	0.004324868617 	1.111562909e-07 	0.01961593329 	-3.197715782e-07 	3.739342081e-05
0.7060419018 	0.01207682052 	0.004358971615 	1.087817705e-07 	0.01964533311 	-3.213644969e-07 	3.744946504e-05
0.7103394253 	0.01212987778 	0.004392406278 	1.057430659e-07 	0.0196723405 	-3.209172443e-07 	3.750094864e-05
0.7145929543 	0.01218203505 	0.00442528031 	1.021222187e-07 	0.0196968375 	-3.185366016e-07 	3.754764672e-05
0.7187984672 	0.01223320523 	0.004457554125 	9.799701982e-08 	0.01971885004 	-3.143026148e-07 	3.758960874e-05
0.7229570291 	0.01228341094 	0.004489169498 	9.349952641e-08 	0.01973859423 	-3.08475314e-07 	3.762724665e-05
0.7270723394 	0.01233271544 	0.00452022128 	8.86843861e-08 	0.01975595704 	-3.011298896e-07 	3.766034499e-05
0.7311414373 	0.01238103975 	0.004550674335 	8.361352077e-08 	0.01977096973 	-2.923465224e-07 	3.768896335e-05
0.7351650003 	0.01242840205 	0.00458047494 	7.838760912e-08 	0.01978384186 	-2.823491133e-07 	3.771350123e-05
0.7391464853 	0.01247487384 	0.004609707268 	7.304945834e-08 	0.01979448712 	-2.712174356e-07 	3.773379404e-05
0.7430834556 	0.012520387 	0.004638359859 	6.763670712e-08 	0.01980289063 	-2.589994806e-07 	3.774981347e-05
0.7469765096 	0.01256493546 	0.004666364899 	6.222679513e-08 	0.01980927872 	-2.458873766e-07 	3.776199094e-05
0.7508280447 	0.01260860442 	0.004693794414 	5.685612753e-08 	0.01981360457 	-2.319810716e-07 	3.777023721e-05
0.7546370775 	0.01265134641 	0.004720667263 	5.153975846e-08 	0.0198157948 	-2.172869359e-07 	3.77744124e-05
0.7584037601 	0.01269312577 	0.004746905657 	4.633377946e-08 	0.01981607586 	-2.019617218e-07 	3.777494819e-05
0.7621294977 	0.01273403 	0.004772560757 	4.127074785e-08 	0.01981445566 	-1.861250543e-07 	3.777185963e-05
0.7658146819 	0.01277404559 	0.004797674423 	3.635289241e-08 	0.01981083285 	-1.697630087e-07 	3.776495354e-05
0.7694590036 	0.01281311645 	0.004822184428 	3.161382675e-08 	0.01980536735 	-1.529835205e-07 	3.775453478e-05
0.773063084 	0.01285129934 	0.004846100875 	2.708094036e-08 	0.0197981492 	-1.359072415e-07 	3.774077499e-05
0.7766284048 	0.01288863029 	0.004869476132 	2.275698407e-08 	0.01978910364 	-1.185507079e-07 	3.772353164e-05
0.7801542793 	0.01292506064 	0.004892294512 	1.865052232e-08 	0.01977825534 	-1.009483941e-07 	3.770285176e-05
0.7836411951 	0.01296058477 	0.004914517127 	1.478130439e-08 	0.01976576995 	-8.320219697e-08 	3.767905113e-05
0.7870900882 	0.01299527232 	0.004936188247 	1.115792966e-08 	0.01975163848 	-6.538437472e-08 	3.765211263e-05
0.7905013293 	0.01302911604 	0.004957334266 	7.773547646e-09 	0.01973580127 	-4.747653085e-08 	3.76219225e-05
0.7938749387 	0.013062072 	0.004977917122 	4.63618721e-09 	0.01971836946 	-2.95445981e-08 	3.758869264e-05
0.7972113697 	0.01309417381 	0.004997934958 	1.75207674e-09 	0.01969944262 	-1.166379254e-08 	3.75526128e-05
0.7993670608 	0.01311461617 	0.005010668173 	-1.710872437e-08 	0.01968607716 	-1.544330268e-06 	3.752713454e-05
0.8005115188 	0.01312547122 	0.005017430008 	8.535314726e-10 	0.0196789805 	-6.125331549e-09 	3.751360632e-05
0.8037753446 	0.01315594407 	0.005036409098 	3.158558938e-09 	0.0196569677 	-2.381762986e-08 	3.747164381e-05
0.8070032442 	0.01318556491 	0.005054840578 	5.212117479e-09 	0.01963352556 	-4.136634689e-08 	3.742695658e-05
0.8101956416 	0.01321437725 	0.005072736698 	7.016342986e-09 	0.01960871651 	-5.87158619e-08 	3.737966363e-05
0.8133533493 	0.01324241873 	0.00509013253 	8.578976284e-09 	0.01958250179 	-7.585423702e-08 	3.732969109e-05
0.8164763566 	0.0132696699 	0.005107027176 	9.91019417e-09 	0.01955489539 	-9.278455914e-08 	3.727706561e-05
0.8195650428 	0.0132961175 	0.005123401284 	1.101639455e-08 	0.01952599745 	-1.094620438e-07 	3.722197812e-05
0.8226198062 	0.01332180158 	0.005139267658 	1.190434563e-08 	0.01949586272 	-1.258450957e-07 	3.716453294e-05
0.8256412934 	0.01334676074 	0.005154657325 	1.258338519e-08 	0.01946446377 	-1.419231023e-07 	3.710467781e-05
0.8286296259 	0.0133709856 	0.005169572724 	1.306571431e-08 	0.01943181677 	-1.577034817e-07 	3.704244356e-05
0.8315851548 	0.01339446789 	0.00518400196 	1.336147368e-08 	0.01939800354 	-1.73152948e-07 	3.697798614e-05
0.8345082558 	0.01341724065 	0.005197953604 	1.348044949e-08 	0.01936308687 	-1.882400844e-07 	3.691142526e-05
0.8373994246 	0.01343934961 	0.005211456251 	1.3432132e-08 	0.01932705713 	-2.029457935e-07 	3.684274256e-05
0.840258936 	0.01346080163 	0.00522452154 	1.322941149e-08 	0.0192899159 	-2.1728391e-07 	3.677194106e-05
0.843087083 	0.01348159031 	0.005237141465 	1.288482297e-08 	0.01925173508 	-2.312320653e-07 	3.66991578e-05
0.8458842206 	0.01350174269 	0.005249322233 	1.24100541e-08 	0.01921258052 	-2.447663178e-07 	3.662451833e-05
0.8486507275 	0.01352130537 	0.00526108647 	1.18152017e-08 	0.01917247073 	-2.578621849e-07 	3.654805793e-05
0.8513870014 	0.01354030734 	0.005272455296 	1.111183861e-08 	0.01913139835 	-2.705265707e-07 	3.646976256e-05
0.8540932784 	0.01355875175 	0.005283428192 	1.031332994e-08 	0.01908942007 	-2.827530612e-07 	3.638974028e-05
0.8567698952 	0.01357666016 	0.005294011588 	9.43190319e-09 	0.01904659247 	-2.945221251e-07 	3.630809897e-05
0.859417184 	0.0135940687 	0.005304218368 	8.478974463e-09 	0.01900296716 	-3.058144357e-07 	3.622493701e-05
0.8620355136 	0.01361102762 	0.005314072639 	7.46430664e-09 	0.01895855911 	-3.166147086e-07 	3.614028292e-05
0.8646251844 	0.01362756343 	0.005323590784 	6.398908105e-09 	0.01891337991 	-3.269304888e-07 	3.605415881e-05
0.8671864803 	0.01364369103 	0.005332775245 	5.29547526e-09 	0.01886749904 	-3.367507067e-07 	3.596669713e-05
0.869719717 	0.01365944642 	0.005341639461 	4.164698139e-09 	0.01882096604 	-3.460599081e-07 	3.58779923e-05
0.8722252062 	0.01367487178 	0.005350199252 	3.016584852e-09 	0.01877383014 	-3.548428857e-07 	3.578813816e-05
0.8747032823 	0.01369002043 	0.005358477876 	1.859484252e-09 	0.01872611603 	-3.630892296e-07 	3.56971818e-05
0.8771542268 	0.01370492614 	0.005366492076 	7.025465097e-10 	0.01867784816 	-3.708048697e-07 	3.560516983e-05
0.8795783229 	0.0137196159 	0.005374249274 	-4.433564244e-10 	0.01862909775 	-3.779834398e-07 	3.551223801e-05
0.8819758673 	0.01373413355 	0.005381765844 	-1.569642405e-09 	0.01857991551 	-3.846157245e-07 	3.541848299e-05
0.8843471534 	0.0137485255 	0.005389058751 	-2.668532233e-09 	0.01853035541 	-3.906934363e-07 	3.532400765e-05
0.8866924807 	0.01376284991 	0.005396150485 	-3.734197888e-09 	0.01848045812 	-3.962103789e-07 	3.522888956e-05
0.8890121322 	0.01377715282 	0.005403061109 	-4.761296156e-09 	0.01843025369 	-4.011744246e-07 	3.513318595e-05
0.8913063745 	0.01379147126 	0.005409802641 	-5.742952615e-09 	0.0183798109 	-4.055885045e-07 	3.503702797e-05
0.8935754874 	0.01380585521 	0.005416392324 	-6.674136465e-09 	0.0183291921 	-4.094537197e-07 	3.494053448e-05
0.8958197471 	0.01382035684 	0.00542284952 	-7.55119699e-09 	0.01827844985 	-4.127714423e-07 	3.484380564e-05
0.8980394268 	0.01383503485 	0.005429194717 	-8.371449347e-09 	0.01822764425 	-4.155466907e-07 	3.474695606e-05