5.285597238e-21 	0.3794218801 	-1.550027033e-14 	-8.924979585e-22
9.777528212e-19 	0.4461764103 	0.1331113113 	8.67361738e-19
0.001074327146 	0.4637950509 	0.2103856222 	-0.008031331099
0.002146986776 	0.5043674219 	0.3621246515 	-0.0119765972
0.003217959715 	0.5310257588 	0.4473481091 	-0.01262099727
0.004287226928 	0.544927526 	0.4841834737 	-0.01147662927
0.005354769522 	0.5520529952 	0.4981633258 	-0.009835471121
0.006420568743 	0.5568229369 	0.5043073737 	-0.008253038969
0.007484605976 	0.5609996778 	0.5086113049 	-0.006861165412
0.008546862746 	0.5652541975 	0.5134725654 	-0.005682212398
0.009607320712 	0.5697956798 	0.5195598765 	-0.004698982751
0.01066596167 	0.5746516195 	0.5268765667 	-0.003876932791
0.01172276756 	0.5798299788 	0.535246617 	-0.003183711033
0.01277772044 	0.5853378832 	0.54443888 	-0.00259405593
0.01383080251 	0.5911543715 	0.5542656479 	-0.00208971039
0.01488199612 	0.5972545153 	0.564570891 	-0.001657111805
0.01593128371 	0.6036111767 	0.5752270747 	-0.001285814532
0.0169786479 	0.6101975136 	0.5861317371 	-0.000967484551
0.01802407142 	0.6169884523 	0.5972032876 	-0.0006952887563
0.01906753711 	0.6239611472 	0.6083769883 	-0.0004635152021
0.02010902796 	0.6310950427 	0.6196013792 	-0.0002673221382
0.02114852709 	0.6383718071 	0.6308353148 	-0.0001025625053
0.02190656462 	0.6437550465 	0.6390867712 	-0.0001899933634
0.02213602389 	0.6488004488 	0.6399107957 	-6.430889765e-05
0.02298658729 	0.6672859605 	0.6434569228 	-0.0002821711925
0.02383601527 	0.6854894339 	0.6473786476 	-0.0004701523719
0.02468429274 	0.7034219426 	0.6516163678 	-0.0006315421807
0.0255314047 	0.7210938906 	0.6561184553 	-0.0007692401944
0.02637733621 	0.7385152727 	0.6608398574 	-0.0008858112171
0.02722207243 	0.7556946126 	0.6657416108 	-0.0009835320702
0.02806559858 	0.77263829 	0.6707901978 	-0.001064435487
0.02890789998 	0.7893638123 	0.6759507175 	-0.001130266084
0.02974896199 	0.807320547 	0.6799507333 	-0.001168310452
0.03105328552 	0.8312715274 	0.6894008437 	-0.001201160458
0.03237895466 	0.8565014589 	0.6979454224 	-0.000989467957
0.03372619192 	0.8816848604 	0.7066788498 	-0.0008041595986
0.03509521438 	0.9068382257 	0.7155388068 	-0.000642742094
0.03648623309 	0.9319585911 	0.7244764078 	-0.0005030920276
0.03789945241 	0.9570469627 	0.7334449924 	-0.0003831877558
0.03933506942 	0.9821016191 	0.7424019639 	-0.0002811806517
0.04079327314 	1.007120632 	0.7513077862 	-0.0001953463662
0.04227424383 	1.032100916 	0.760125976 	-0.0001240846903
0.04377815219 	1.057038661 	0.7688227587 	-6.590443044e-05
0.04530515853 	1.081929211 	0.7773669101 	-1.941612972e-05
0.04608381709 	1.094424758 	0.7816442932 	-0.000370162686
0.04669962032 	1.106505881 	0.7808788078 	-0.0001143452544
0.04795657 	1.130635114 	0.7794764282 	-0.0003340459815
0.04923369681 	1.154532791 	0.7781502221 	-0.0005396948506
0.05053116635 	1.178190721 	0.7768864529 	-0.0007318674438
0.0518491351 	1.20160121 	0.7756723532 	-0.0009111115238
0.0531877496 	1.224757052 	0.7744960571 	-0.001077949567
0.05454714558 	1.247651535 	0.7733465594 	-0.001232881637
0.05592744703 	1.27027846 	0.7722136412 	-0.001376387641
0.05732876521 	1.292632101 	0.7710877858 	-0.001508928662
0.05875119761 	1.314707169 	0.7699601599 	-0.00136388003
0.06019482689 	1.33649885 	0.7688226116 	-0.001178127171
0.06165971967 	1.358002938 	0.7676676011 	-0.00100246337
0.06314592535 	1.379225243 	0.7664805327 	-0.000836534274
0.06465775049 	1.400284281 	0.7651985574 	-0.0006795352155
0.06623409489 	1.421444299 	0.7639822694 	-0.0005277958571
0.06783446702 	1.442388927 	0.7626495993 	-0.0003850155224
0.06945913953 	1.463030239 	0.7612663675 	-0.0002509549925
0.07110838511 	1.483368798 	0.7598270293 	-0.0001253069564
0.0727824764 	1.503404656 	0.7583274086 	-7.780994939e-06
0.07289842475 	1.504762178 	0.7582298988 	-4.920974351e-05
0.07426181252 	1.522902458 	0.7549399301 	-8.368469164e-05
0.0757472134 	1.542159816 	0.7514549253 	-0.0001647139379
0.07725503592 	1.561195858 	0.7480040246 	-0.0002369782142
0.07878553239 	1.580009654 	0.7445807253 	-0.0003008595576
0.08033895541 	1.598600462 	0.7411786861 	-0.0003567366894
0.08191555778 	1.616967721 	0.7377917366 	-0.0004049843596
0.08351559245 	1.635111061 	0.734413889 	-0.0003871645829
0.08513931241 	1.653030312 	0.7310393504 	-0.000306919618
0.08678697065 	1.670725509 	0.7276625371 	-0.000234294772
0.08845882009 	1.688196905 	0.7242780872 	-0.0001689576632
0.09015511346 	1.705444976 	0.7208808739 	-0.0001105800589
0.0918761033 	1.722470427 	0.717466017 	-5.883852351e-05
0.09362204182 	1.739274196 	0.7140288887 	-1.341499576e-05
0.09419342311 	1.744649717 	0.7129346551 	-0.0002245424836
0.09531469617 	1.755464052 	0.7094231394 	-5.031613244e-05
0.09699468175 	1.771266362 	0.7043009529 	-0.0001185577267
0.0986997996 	1.786873217 	0.6992183206 	-0.0001796398465
0.1004303306 	1.802284232 	0.6941720344 	-0.0002338194785
0.1021865562 	1.817499233 	0.6891589467 	-0.0002813513615
0.1039687584 	1.832552895 	0.6841433398 	-0.0003224706429
0.105801143 	1.847575203 	0.6791152159 	-0.0003231786257
0.1076898344 	1.862573468 	0.6740804648 	-0.000253418155
0.1096057252 	1.877394499 	0.6690312207 	-0.0001904421358
0.1115490892 	1.891996463 	0.664003557 	-0.0001340093406
0.1135202004 	1.906378651 	0.6589936602 	-8.384292747e-05
0.1155193324 	1.920540093 	0.6539977584 	-3.966634534e-05
0.1175467585 	1.934479111 	0.6490124213 	-1.203742299e-06
0.1176158625 	1.93494328 	0.6488478396 	-2.263993977e-05
0.1195071859 	1.948635969 	0.6433388149 	-3.979335647e-05
0.1214927075 	1.962575307 	0.6376793523 	-7.547322308e-05
0.1235069599 	1.976291638 	0.632044482 	-0.000105802763
0.1255502441 	1.990956944 	0.6252275242 	-0.0001299931531
0.1286698652 	2.009568538 	0.6180957529 	-0.0001586668309
0.1318034845 	2.028505054 	0.6099430968 	-0.0001207639575
0.1349511188 	2.04662646 	0.601989303 	-7.292232153e-05
0.1381127882 	2.06406346 	0.5941277186 	-3.587267085e-05
0.1413694387 	2.081047576 	0.5863984591 	-8.011524779e-06
0.1425900493 	2.087183782 	0.58358245 	-0.000335927568
0.1445658929 	2.097377733 	0.5781522524 	-2.240679946e-05
0.1477280931 	2.113022656 	0.5697690039 	-4.983244163e-05
0.1509048918 	2.128025824 	0.5616102172 	-6.801628819e-05
0.1540963343 	2.142415801 	0.5536626133 	-7.793453114e-05
0.15730247 	2.156220195 	0.5459135117 	-5.659242125e-05
0.1605233532 	2.169465542 	0.5383510334 	-3.153559256e-05
0.1637590427 	2.18217761 	0.5309636998 	-1.393676998e-05
0.1670096021 	2.194418728 	0.5236949946 	-3.03934649e-06
0.1685683127 	2.20003387 	0.5203569456 	-0.0003560752189
0.1702759792 	2.20637589 	0.5162385418 	-7.124523269e-06
0.1735378181 	2.218005463 	0.5086556029 	-1.548291318e-05
0.176816035 	2.229185975 	0.5012518787 	-1.767356879e-05
0.1801107166 	2.239919455 	0.4940385141 	-1.439704629e-05
0.1834219551 	2.250225612 	0.4870037636 	-5.895837862e-06
0.1867498487 	2.260123085 	0.480136858 	3.617890881e-06
0.1900945014 	2.269629766 	0.4734275215 	7.997129756e-06
0.1934560237 	2.278781809 	0.4668402471 	7.795848185e-06
0.1968739022 	2.287658383 	0.4603420233 	3.440363472e-06
0.1985304137 	2.291780187 	0.4573071108 	-0.0003050906314
0.2002921667 	2.296288813 	0.4537673546 	3.799967321e-06
0.203671274 	2.30461733 	0.4471761439 	1.399464375e-05
0.2070684227 	2.312620573 	0.4407446609 	2.76481611e-05
0.2104837616 	2.320311171 	0.4344632556 	4.431288594e-05
0.213917447 	2.327701097 	0.4283231822 	6.358147539e-05
0.2173696432 	2.334805456 	0.4223107458 	5.682090371e-05
0.2208498461 	2.341668664 	0.4163784925 	4.554101361e-05
0.2244220358 	2.34834588 	0.4105228725 	3.136514311e-05
0.2280123558 	2.35477558 	0.4047470179 	1.491631724e-05
0.2309642662 	2.359828583 	0.4001233828 	-9.81926698e-05
0.231601588 	2.360949906 	0.3990538025 	3.558744996e-06
0.2351229535 	2.366912035 	0.3933383326 	2.422760957e-05
0.2386642333 	2.37263281 	0.3877448985 	4.6608051e-05
0.2422256574 	2.378131192 	0.3822491348 	7.042599491e-05
0.245844 	2.383447641 	0.3768241353 	9.567917736e-05
0.2495251984 	2.38858637 	0.3714673045 	9.412212039e-05
0.2532263804 	2.393514898 	0.3661957582 	7.298868004e-05
0.2569478097 	2.398228633 	0.3610240093 	5.068425077e-05
0.2606897621 	2.402734538 	0.3559465866 	2.742761731e-05
0.2644525256 	2.407045686 	0.3509464498 	3.413859218e-06
0.2649834881 	2.407627753 	0.3502624218 	-6.405053769e-05
0.2682013626 	2.411256201 	0.3459073394 	2.102804345e-05
0.2720083861 	2.415319691 	0.3409142211 	4.635937014e-05
0.2758373145 	2.419199838 	0.3359971666 	7.215006398e-05
0.2796884853 	2.422892598 	0.3311705706 	9.823970733e-05
0.28356225 	2.4264036 	0.3264295194 	0.0001131416211
0.2874589747 	2.429747241 	0.3217489384 	8.925710603e-05
0.2914374958 	2.432948471 	0.317115733 	6.468067909e-05
0.2954539871 	2.435992685 	0.3125328454 	3.984504744e-05
0.2994935987 	2.438869718 	0.3080204667 	1.497729964e-05
0.3019494975 	2.440516371 	0.305344142 	-0.0001569628189
0.3035411544 	2.441612907 	0.3035490193 	9.13894478e-06
0.3075897287 	2.444246268 	0.2990916764 	3.222985735e-05
0.3117070592 	2.446739853 	0.2946825855 	5.554876408e-05
0.3158763763 	2.449089327 	0.2903223877 	7.886390139e-05
0.3200711507 	2.451285411 	0.2860260779 	0.0001019205543
0.3242918762 	2.453329275 	0.2817984875 	0.0001088987794
0.3285390659 	2.455228735 	0.2776215081 	8.670850943e-05
0.3328661155 	2.456996745 	0.2734837615 	6.443707705e-05
0.3372333222 	2.45862635 	0.2693889566 	4.240264137e-05
0.3416275151 	2.460113899 	0.2653519698 	2.074560159e-05
0.3459484157 	2.461432437 	0.2614605296 	-7.798257351e-06
0.3460484185 	2.461464151 	0.2613681648 	4.678835944e-07
0.3504786873 	2.462740908 	0.2573844274 	2.076774728e-05
0.3549828372 	2.46388859 	0.2534404751 	4.085633635e-05
0.35951625 	2.464901456 	0.2495453111 	6.044746672e-05
0.3640795876 	2.465780624 	0.2457073491 	7.950495578e-05
0.3686755843 	2.466530222 	0.2419109143 	9.800410735e-05
0.373358679 	2.467156393 	0.2381485538 	9.63106437e-05
0.3780726351 	2.467655219 	0.2344270287 	7.743688999e-05
0.3828182057 	2.468028541 	0.230757253 	5.910541254e-05
0.3875975535 	2.468279113 	0.2271258732 	4.132859075e-05
0.3924622408 	2.468410758 	0.223526048 	2.394878677e-05
0.3973596973 	2.468422226 	0.2199640516 	7.219473726e-06
0.3995609819 	2.46837761 	0.2183983529 	-0.000128822483
0.4022763705 	2.468339738 	0.2164356985 	8.682284707e-06
0.4072278368 	2.468158632 	0.2129351341 	2.387860926e-05
0.4122531061 	2.467860842 	0.2094682746 	3.856731256e-05
0.4173143592 	2.467446902 	0.2060414011 	5.259050859e-05
0.422412537 	2.466918511 	0.2026553119 	6.595002446e-05
0.427575927 	2.46627595 	0.199302239 	7.872332738e-05
0.4327946249 	2.465519654 	0.1959829865 	9.019314998e-05
0.4380519682 	2.464651483 	0.1927026222 	7.651168511e-05
0.4433556139 	2.463671159 	0.1894563544 	6.34264868e-05
0.4487334003 	2.46257773 	0.1862401951 	5.089005328e-05
0.4541517666 	2.461372866 	0.1830588897 	3.900537762e-05
0.4596118531 	2.460056786 	0.1799119582 	2.775877618e-05
0.4651459664 	2.458627033 	0.1767938686 	1.707974187e-05
0.4707278335 	2.457084535 	0.173707372 	7.049576728e-06
0.4749329857 	2.455848493 	0.1714266661 	-5.830496559e-05
0.4763506212 	2.455435545 	0.1706513931 	2.288795433e-06
0.4820326335 	2.453687536 	0.1676178575 	1.091348503e-05
0.4877703369 	2.451821441 	0.1646145633 	1.894116842e-05
0.493555219 	2.449836683 	0.1616419301 	2.637626802e-05
0.4994072706 	2.447729362 	0.1586953682 	3.327814575e-05
0.5053176938 	2.445495175 	0.1557736899 	3.964186716e-05
0.511278026 	2.443128234 	0.1528731613 	4.555839564e-05
0.5173077372 	2.440620021 	0.1499864542 	5.117409438e-05
0.5233956724 	2.43796729 	0.1471125372 	5.643819041e-05
0.5295365024 	2.435169361 	0.1442510469 	6.12829745e-05
0.5357509981 	2.432224597 	0.1414015202 	6.562086719e-05
0.5420221314 	2.429136756 	0.1385677759 	6.288014129e-05
0.5483526887 	2.425907329 	0.1357520234 	5.735121283e-05
0.5547556326 	2.422543511 	0.1329620513 	5.221101195e-05
0.5611453472 	2.419077097 	0.1302220957 	4.753893151e-05
0.5674604494 	2.415539776 	0.1275526651 	4.334549959e-05
0.5737018556 	2.411944095 	0.1249577421 	3.961144383e-05
0.5798639363 	2.408294615 	0.1224345701 	3.62939276e-05
0.5859581069 	2.404593416 	0.1199790703 	3.334583466e-05
0.5919785117 	2.400844834 	0.1175891189 	3.075095074e-05
0.5979243277 	2.397052049 	0.1152620838 	2.846843326e-05
0.603806435 	2.393216032 	0.1129943447 	2.646684402e-05
0.6096166771 	2.389340845 	0.1107844286 	2.473180284e-05
0.6153571087 	2.385428797 	0.1086300114 	2.322856868e-05
0.6210352419 	2.381480521 	0.1065281363 	2.193743882e-05
0.6266451332 	2.377499252 	0.1044775032 	2.084422426e-05
0.6321888401 	2.373486637 	0.1024760563 	1.992151056e-05
0.637672122 	2.36944309 	0.1005213875 	1.915562051e-05
0.6430906123 	2.365371196 	0.09861235398 	1.85351002e-05
0.6484456802 	2.36127219 	0.09674720377 	1.803851577e-05
0.653742691 	2.357146127 	0.09492385334 	1.765449453e-05
0.6589779999 	2.352995034 	0.09314128121 	1.73758579e-05
0.6641527762 	2.348819994 	0.09139809289 	1.718580363e-05
0.6692707843 	2.344620966 	0.08969251179 	1.707358213e-05
0.6743305076 	2.340399204 	0.08802350572 	1.703599156e-05
0.6793323654 	2.336155679 	0.08638996949 	1.706028907e-05
0.6842786275 	2.331890416 	0.08479043099 	1.713594982e-05
0.6891698224 	2.327603943 	0.08322382232 	1.726190883e-05
0.6940055861 	2.32329717 	0.08168927341 	1.742969832e-05
0.6987869863 	2.318970224 	0.08018559674 	1.762995203e-05
0.7035162408 	2.314622996 	0.07871167714 	1.786015001e-05
0.7081923019 	2.31025622 	0.07726677335 	1.811717217e-05
0.7128159963 	2.305870238 	0.07585001479 	1.839369528e-05
0.7173887898 	2.30146482 	0.07446036687 	1.868419445e-05
0.7219111564 	2.297040122 	0.07309704872 	1.898924347e-05
0.7263831588 	2.292596525 	0.07175938879 	1.930424198e-05
0.7308055292 	2.288133964 	0.07044655547 	1.9624031e-05
0.7351796769 	2.283652157 	0.06915772553 	1.994623096e-05
0.73950552 	2.279151268 	0.06789228448 	2.027126456e-05
0.7437835465 	2.274631439 	0.06664962893 	2.059527378e-05
0.7480144128 	2.27009241 	0.06542903024 	2.091465918e-05
0.7521992977 	2.265533864 	0.0642298137 	2.122868386e-05
0.7563381148 	2.260955854 	0.06305145826 	2.153755238e-05
0.7604314361 	2.256358348 	0.06189342967 	2.183850398e-05
0.7644798564 	2.251741012 	0.0607551126 	2.212906e-05
0.7684842987 	2.247103489 	0.0596359367 	2.240882749e-05
0.772444869 	2.242445681 	0.05853544102 	2.267844293e-05
0.7763620792 	2.237767431 	0.05745315986 	2.293604582e-05
0.7802364736 	2.233068378 	0.056388579 	2.317997056e-05
0.784068756 	2.228348122 	0.0553412058 	2.340953451e-05
0.7878592533 	2.223606406 	0.05431062342 	2.362594737e-05
0.7916083725 	2.21884297 	0.05329643155 	2.382815454e-05
0.7953166163 	2.214057432 	0.05229820068 	2.401507048e-05
0.7989845177 	2.209249329 	0.05131550452 	2.418582549e-05
0.8026125957 	2.204418234 	0.05034795729 	2.424101716e-05
0.8062011484 	2.19956378 	0.04939521395 	2.318498535e-05
0.8097506432 	2.194685528 	0.04845691362 	2.215811624e-05
0.8132615384 	2.189782935 	0.04753269422 	2.116064811e-05
0.8167343376 	2.184855426 	0.04662220129 	2.019238058e-05
0.8201694132 	2.179902466 	0.04572512073 	1.925183664e-05
0.8235671427 	2.174923491 	0.0448411523 	1.833891473e-05
0.8269279557 	2.169917858 	0.04396998228 	1.745364377e-05
0.8302522738 	2.164884847 	0.04311130757 	1.659598062e-05
0.8335405447 	2.159823699 	0.04226482965 	1.576549853e-05
0.8367931182 	2.154733657 	0.04143028096 	1.496093681e-05
0.8400103692 	2.149613907 	0.04060740206 	1.41820773e-05
0.8431926954 	2.144463547 	0.03979592444 	1.342875617e-05
0.8463404884 	2.139281596 	0.03899559225 	1.270076513e-05
0.8494541464 	2.134067009 	0.03820615056 	1.199774817e-05
0.8525340258 	2.128818699 	0.03742736571 	1.131860212e-05
0.8555804738 	2.123535508 	0.03665901558 	1.066289187e-05
0.8585938611 	2.118216173 	0.03590087084 	1.003033943e-05
0.8615745533 	2.112859333 	0.03515271154 	9.420639655e-06
0.8645229106 	2.107463529 	0.03441432141 	8.833462358e-06
0.8674392955 	2.102027211 	0.03368548986 	8.26814146e-06
0.8703240268 	2.096548747 	0.03296602256 	7.723879344e-06
0.8731774496 	2.091026379 	0.03225572537 	7.200339917e-06
0.8759999066 	2.085458214 	0.03155440184 	6.697174223e-06
0.8787917362 	2.079842234 	0.03086186464 	6.214019367e-06
0.8815532721 	2.074176284 	0.03017792679 	5.750498256e-06
0.8842848443 	2.068458081 	0.02950240622 	5.305956976e-06
0.8869867601 	2.062685201 	0.02883513084 	4.879765006e-06
0.8896593419 	2.056855056 	0.02817592551 	4.471548781e-06
0.8923029083 	2.050964888 	0.02752461188 	4.08091551e-06
0.8949177738 	2.045011776 	0.02688101314 	3.707439842e-06
0.8975042491 	2.038992632 	0.026244947 	3.350621368e-06
0.9000626414 	2.032904214 	0.02561622093 	3.009863449e-06
0.9025932443 	2.026743147 	0.02499463664 	2.684657792e-06
0.9050963565 	2.020505909 	0.02437997432 	2.375092985e-06
0.907572275 	2.014188835 	0.02377202614 	2.081254474e-06
0.9100212935 	2.007787858 	0.02317062317 	1.803109835e-06
0.9124437021 	2.0012981 	0.02257566496 	1.540479825e-06
0.9148397876 	1.994713624 	0.0219871116 	1.292868135e-06
0.9172098321 	1.988027527 	0.02140495259 	1.059508954e-06
0.9195541108 	1.981232337 	0.02082921746 	8.39518725e-07
0.9218729013 	1.974319769 	0.02025990083 	6.322940396e-07
0.9241664782 	1.967280097 	0.01969692396 	4.374819532e-07
0.9264351131 	1.960101813 	0.01914017865 	2.547940087e-07
0.9286790742 	1.952771323 	0.01858955882 	8.39455128e-08
0.9298318717 	1.948876547 	0.01830665938 	-1.225394748e-05
0.9308985279 	1.945273576 	0.01804491886 	7.673412696e-08
0.9330937405 	1.937590352 	0.01750612895 	2.27592974e-07
0.9352650794 	1.929700278 	0.01697309074 	3.67438402e-07
0.9374128007 	1.921581202 	0.01644568706 	4.965063882e-07
0.9395371583 	1.913926273 	0.01596750098 	6.166650898e-07
0.9409211491 	1.907561464 	0.01558361075 	6.868162879e-07
0.9422797468 	1.901844668 	0.01524926857 	7.534356452e-07
0.9436134151 	1.896057069 	0.01492068727 	8.150172063e-07
0.9449226089 	1.89019379 	0.01459769149 	8.717759852e-07
0.9462077753 	1.884250966 	0.01428014205 	9.2389964e-07
0.947469353 	1.878225314 	0.01396792397 	9.715697107e-07
0.9487077728 	1.872113763 	0.01366093212 	1.014960257e-06
0.9499234575 	1.865913195 	0.01335906427 	1.054249747e-06
0.9511168222 	1.85962029 	0.01306221711 	1.089605096e-06
0.9522882748 	1.85323146 	0.01277028321 	1.121179575e-06
0.9534382157 	1.846742857 	0.01248315095 	1.14912083e-06
0.9545670384 	1.840150409 	0.01220070552 	1.173570813e-06
0.9556751288 	1.833449882 	0.01192282987 	1.194665778e-06
0.9567628662 	1.826636948 	0.0116494058 	1.212536495e-06
0.9578306228 	1.819707241 	0.01138031487 	1.227308698e-06
0.958878764 	1.812656407 	0.01111543899 	1.23910374e-06
0.9599076489 	1.805480141 	0.01085466091 	1.248039381e-06
0.9609176296 	1.798174213 	0.01059786455 	1.254230566e-06
0.9619090521 	1.790734482 	0.01034493536 	1.257789986e-06
0.9628822562 	1.783156891 	0.01009576062 	1.258828291e-06
0.9638375753 	1.775437462 	0.009850229817 	1.257453941e-06
0.9647753368 	1.767572268 	0.009608234992 	1.253772889e-06
0.9656958622 	1.759557406 	0.009369670641 	1.247888536e-06
0.9665994671 	1.75138895 	0.009134434268 	1.239904481e-06
0.9674864613 	1.743062915 	0.008902426526 	1.22991887e-06
0.968357149 	1.7345752 	0.00867355077 	1.218026417e-06
0.9692118292 	1.725921538 	0.00844771332 	1.204319865e-06
0.9700507949 	1.717097448 	0.008224823485 	1.188890286e-06
0.9708743343 	1.708098175 	0.008004793566 	1.171827174e-06
0.97168273 	1.698918637 	0.007787538922 	1.153218359e-06
0.9724762596 	1.689553369 	0.007572978075 	1.133149917e-06
0.9732551957 	1.679996462 	0.007361032808 	1.111706197e-06
0.9740198057 	1.670241501 	0.007151628265 	1.08896997e-06
0.9747703525 	1.660281497 	0.006944693048 	1.065022648e-06
0.9755070937 	1.650108815 	0.006740159304 	1.039944464e-06
0.9762302828 	1.639715103 	0.006537962833 	1.013814599e-06
0.9769401682 	1.629091203 	0.006338043198 	9.867113004e-07
0.9776369939 	1.618227063 	0.006140343855 	9.587120482e-07
0.9783209997 	1.607111643 	0.005944812312 	9.298938074e-07
0.9789924206 	1.595732799 	0.005751400298 	9.003333355e-07
0.9796514876 	1.584077165 	0.005560063979 	8.701074748e-07
0.9802984274 	1.57213002 	0.005370764185 	8.392933303e-07
0.9809334626 	1.559875133 	0.005183466684 	8.079682601e-07
0.9815568118 	1.547294596 	0.00499814248 	7.762096709e-07
0.9821686893 	1.534368634 	0.004814768033 	7.440946883e-07
0.9827693059 	1.521075396 	0.004633325539 	7.1170016e-07
0.9833588682 	1.507390714 	0.004453803333 	6.791027812e-07
0.9839375792 	1.493287841 	0.004276196081 	6.463798282e-07
0.9845056383 	1.478737156 	0.004100505098 	6.136110996e-07
0.9850632409 	1.463705822 	0.003926738918 	5.808808041e-07
0.9856105793 	1.448157406 	0.003754913895 	5.482783892e-07
0.9861478418 	1.432051446 	0.003585054945 	5.158968587e-07
0.9866752136 	1.415342953 	0.003417196299 	4.838275598e-07
0.9871928764 	1.397981856 	0.0032513821 	4.521520237e-07
0.9877010086 	1.379912388 	0.003087666613 	4.209338376e-07
0.9881997853 	1.361072418 	0.002926113532 	3.902161283e-07
0.9886893783 	1.341392765 	0.002766795078 	3.600283101e-07
0.9891699566 	1.320796582 	0.002609801683 	3.304029517e-07
0.9896416856 	1.299199092 	0.00245526273 	3.013858201e-07
0.9901047282 	1.278491539 	0.002316111184 	2.755546522e-07
0.9904027491 	1.26093349 	0.002204624675 	2.546841135e-07
0.9907007766 	1.244720078 	0.002106670706 	2.366582472e-07
0.9909988108 	1.227695679 	0.002008757033 	2.188784461e-07
0.9912968515 	1.209789941 	0.001910923891 	2.014047791e-07
0.9915948988 	1.190925291 	0.001813234819 	1.84279137e-07
0.9918929527 	1.171015625 	0.00171576761 	1.675238098e-07
0.9921910132 	1.149965101 	0.001618609408 	1.511439591e-07
0.9924890802 	1.127666937 	0.001521857264 	1.351395186e-07
0.9927871539 	1.104002064 	0.001425618269 	1.195252016e-07
0.9930852341 	1.078837314 	0.001330012109 	1.043727483e-07
0.993383321 	1.052021495 	0.00123517261 	8.976214019e-08
0.9936814144 	1.023383648 	0.001141246946 	7.58244156e-08
0.9939795144 	0.9927364941 	0.00104841852 	6.243919571e-08
0.994277621 	0.959876329 	0.0009568880446 	4.992588852e-08
0.9945757342 	0.9245798314 	0.0008668705775 	3.887482638e-08
0.9948738539 	0.8866049948 	0.0007785976938 	2.885518088e-08
0.9951719802 	0.8456944999 	0.0006924109249 	2.018871082e-08
0.9954701132 	0.8015816062 	0.0006086933459 	1.304378715e-08
0.9957682527 	0.7540018373 	0.0005268699573 	5.313566883e-09
0.9960663988 	0.7027086223 	0.0004464655544 	2.854730877e-09
0.9963645514 	0.6474462034 	0.0003760049486 	1.949140687e-09
0.9966627107 	0.5878398339 	0.0003140889831 	-8.222995565e-09
0.9969608765 	0.5236267341 	0.0002460608343 	-1.353764584e-08
0.9972590489 	0.4551817505 	0.000179324542 	-1.064652165e-08
0.9975572279 	0.3834293634 	0.0001247646056 	-8.649703227e-09
0.9978554135 	0.309348142 	8.094921991e-05 	-6.771353177e-09
0.9981536057 	0.233674751 	4.699194593e-05 	-5.148722909e-09
0.9984518044 	0.1568102041 	2.196253751e-05 	-3.063992917e-09
0.9987500097 	0.0789065483 	2.603241604e-06 	-3.172267999e-09
0.9990482216 	0.03295979456 	-5.380145291e-06 	-3.733579177e-09
0.9990482216 	0.03295979456 	-5.380145291e-06 	-3.733579177e-09
