2.89032272e-36 	0.008346596901 	-3.409779853e-16 	-1.963334506e-23 	1.39297474e-29 	8.020680192e-37 	4.618268293e-44
0.0002557009779 	0.008343230554 	0.0002535046303 	6.961010803e-09 	0.004245384983 	8.098526406e-08 	8.092883721e-06
0.0005113919582 	0.008349273323 	2.607050073e-05 	-5.599462201e-10 	0.004127173303 	1.38412582e-07 	7.867539405e-06
0.0007670729285 	0.008358641448 	1.56265771e-06 	-3.931495205e-09 	0.004132382374 	2.005345933e-07 	7.877469341e-06
0.001022743877 	0.008358555471 	-9.077866813e-06 	-7.573115919e-09 	0.004129234171 	2.541099833e-07 	7.871467991e-06
0.001278404793 	0.008359115842 	-1.615021206e-05 	-1.202688098e-08 	0.004128630169 	3.090884691e-07 	7.870316595e-06
0.001534055664 	0.008359769303 	-2.194023353e-05 	-1.738029024e-08 	0.004128602951 	3.638293578e-07 	7.87026471e-06
0.001789696482 	0.008360337208 	-2.716935675e-05 	-2.367168025e-08 	0.00412864562 	4.178150832e-07 	7.870346049e-06
0.002045327237 	0.008360917813 	-3.212214234e-05 	-3.092592794e-08 	0.00412881391 	4.712817858e-07 	7.870666857e-06
0.002300947919 	0.00836152597 	-3.692887193e-05 	-3.916080478e-08 	0.004129078541 	5.242674466e-07 	7.871171317e-06
0.00255655852 	0.008362160222 	-4.165588894e-05 	-4.839327683e-08 	0.004129410351 	5.767674779e-07 	7.871803839e-06
0.002812159033 	0.008362822691 	-4.633950718e-05 	-5.864161292e-08 	0.004129797833 	6.287954092e-07 	7.872542487e-06
0.003067749449 	0.008363514675 	-5.100072552e-05 	-6.992628698e-08 	0.00413023414 	6.803652665e-07 	7.87337421e-06
0.003323329763 	0.008364236598 	-5.565227265e-05 	-8.22709416e-08 	0.004130714433 	7.314894023e-07 	7.874289783e-06
0.003578899969 	0.008364988652 	-6.030220084e-05 	-9.57032543e-08 	0.004131235528 	7.821804576e-07 	7.875283135e-06
0.00383446006 	0.008365770899 	-6.495583369e-05 	-1.102557148e-07 	0.004131795289 	8.324514987e-07 	7.876350195e-06
0.004090010031 	0.008366583302 	-6.961687975e-05 	-1.259663661e-07 	0.004132392241 	8.823162413e-07 	7.87748815e-06
0.004345549879 	0.008367425758 	-7.428811608e-05 	-1.428804351e-07 	0.004133025357 	9.317890703e-07 	7.878695045e-06
0.004601079599 	0.008368298108 	-7.897181793e-05 	-1.610519901e-07 	0.004133693903 	9.808841312e-07 	7.87996948e-06
0.004856599189 	0.00836920015 	-8.366998532e-05 	-1.805430541e-07 	0.004134397333 	1.029614612e-06 	7.881310414e-06
0.005112108645 	0.008370131651 	-8.83844443e-05 	-2.014208622e-07 	0.004135135215 	1.077992356e-06 	7.882717022e-06
0.005367607965 	0.00837109234 	-9.311688331e-05 	-2.237544646e-07 	0.004135907192 	1.126027754e-06 	7.884188624e-06
0.005623097148 	0.00837208193 	-9.786884396e-05 	-2.476106836e-07 	0.004136712976 	1.17373011e-06 	7.885724671e-06
0.005878576193 	0.00837310009 	-0.0001026416959 	-2.730503203e-07 	0.004137552293 	1.221109008e-06 	7.887324643e-06
0.006134045099 	0.008374146359 	-0.0001074366077 	-3.001253154e-07 	0.00413842472 	1.268174798e-06 	7.888987732e-06
0.006389503867 	0.008375220572 	-0.0001122545318 	-3.288759653e-07 	0.004139330389 	1.314922523e-06 	7.890714189e-06
0.006644952497 	0.00837632361 	-0.0001170962861 	-3.593269822e-07 	0.004140271176 	1.361350931e-06 	7.892507591e-06
0.006900390991 	0.008377450639 	-0.0001219623983 	-3.91497672e-07 	0.00414123947 	1.407690926e-06 	7.894353428e-06
0.00715581935 	0.008378588141 	-0.0001268522302 	-4.254228142e-07 	0.00414221385 	1.453769089e-06 	7.896210866e-06
0.007411237578 	0.008379781691 	-0.0001317543581 	-4.610554638e-07 	0.004143269759 	1.496312272e-06 	7.898223723e-06
0.007666645676 	0.008381201638 	-0.0001372699796 	-5.037106464e-07 	0.004144608589 	1.53058129e-06 	7.900775906e-06
0.008063470924 	0.008382942919 	-0.0001442576663 	-5.60446081e-07 	0.004146192478 	1.587436214e-06 	7.903795238e-06
0.008467729379 	0.008384868536 	-0.0001521753858 	-6.276402386e-07 	0.004147872883 	1.650969174e-06 	7.906998557e-06
0.008879559814 	0.008386913734 	-0.0001602942577 	-6.700359629e-07 	0.004149709302 	1.644220687e-06 	7.910499282e-06
0.009299103586 	0.008389082822 	-0.0001686246378 	-6.770427196e-07 	0.004151709341 	1.55328214e-06 	7.914311912e-06
0.009726504672 	0.008391346685 	-0.0001771676954 	-6.799986895e-07 	0.004153825293 	1.461665476e-06 	7.918345505e-06
0.01016190973 	0.008393703624 	-0.0001859253317 	-6.784806795e-07 	0.004156055139 	1.369633309e-06 	7.92259621e-06
0.01060546813 	0.008396158008 	-0.0001948982877 	-6.720841697e-07 	0.00415840641 	1.27719431e-06 	7.927078387e-06
0.01105733204 	0.00839871206 	-0.0002040864957 	-6.604524815e-07 	0.004160882827 	1.184361463e-06 	7.931799126e-06
0.01151765644 	0.008401368079 	-0.0002134894198 	-6.432805526e-07 	0.004163488039 	1.091165058e-06 	7.936765384e-06
0.01198659919 	0.008404128744 	-0.000223106103 	-6.203151768e-07 	0.004166226122 	9.976356864e-07 	7.941984931e-06
0.01246432108 	0.008406996905 	-0.0002329352488 	-5.913548579e-07 	0.00416910125 	9.038051914e-07 	7.947465725e-06
0.01295098591 	0.008409975573 	-0.0002429753188 	-5.562479107e-07 	0.004172117706 	8.097077723e-07 	7.953215927e-06
0.0134467605 	0.008413067923 	-0.0002532246145 	-5.148891559e-07 	0.004175279903 	7.15379788e-07 	7.959243954e-06
0.0139518148 	0.008416277283 	-0.000263681344 	-4.672157435e-07 	0.004178592394 	6.208595077e-07 	7.965558482e-06
0.01446632189 	0.008419607123 	-0.0002743436717 	-4.132024992e-07 	0.004182059868 	5.261868097e-07 	7.972168451e-06
0.0149904581 	0.008423061045 	-0.0002852097473 	-3.528571496e-07 	0.004185687149 	4.314027525e-07 	7.979083057e-06
0.01552440303 	0.008426642803 	-0.0002962777161 	-2.862157462e-07 	0.004189479238 	3.365490525e-07 	7.986311833e-06
0.01606833962 	0.008430356324 	-0.0003075457203 	-2.133385769e-07 	0.004193441349 	2.416677214e-07 	7.993864718e-06
0.01662245423 	0.008434205351 	-0.0003190118219 	-1.34306727e-07 	0.004197578295 	1.468004012e-07 	8.001750888e-06
0.01718693669 	0.008438193696 	-0.0003306737573 	-4.921937665e-08 	0.004201894837 	5.198692577e-08 	8.009979416e-06
0.01750134298 	0.008440471582 	-0.0003371434782 	2.547298399e-08 	0.00420436502 	-2.648005932e-06 	8.014688271e-06
0.01776198037 	0.008443441872 	-0.0003413507497 	9.670707411e-09 	0.004206991676 	6.837299006e-08 	8.019695407e-06
0.01834778225 	0.008450211976 	-0.0003507320795 	2.936444711e-08 	0.004213029042 	2.211295603e-07 	8.031204304e-06
0.01894454299 	0.008457091754 	-0.0003602312447 	4.613750516e-08 	0.004219190454 	3.757192041e-07 	8.042949669e-06
0.01955246699 	0.008464203438 	-0.000370052157 	5.949395268e-08 	0.00422576811 	5.327169904e-07 	8.05548851e-06
0.02017340567 	0.008471634516 	-0.0003799061477 	6.898939717e-08 	0.00423271322 	6.938945501e-07 	8.068727819e-06
0.02082217767 	0.008479230229 	-0.0003899600588 	7.314053211e-08 	0.004239770724 	8.62112853e-07 	8.082181384e-06
0.02148308776 	0.008487073814 	-0.0004005474171 	7.272765637e-08 	0.004247289648 	1.032065727e-06 	8.096514542e-06
0.02215636213 	0.008495234163 	-0.000411231663 	6.603232698e-08 	0.004255248005 	1.204234704e-06 	8.111685383e-06
0.02284223114 	0.008503558985 	-0.0004221256854 	5.244637926e-08 	0.00426345398 	1.379772838e-06 	8.127328253e-06
0.0235409294 	0.00851208397 	-0.0004332603611 	3.112200586e-08 	0.004271983101 	1.558868988e-06 	8.143587127e-06
0.02425269589 	0.008520815661 	-0.0004446608141 	9.71686761e-10 	0.004280858342 	1.74171288e-06 	8.160505803e-06
0.02497777398 	0.008529748247 	-0.000456358997 	-3.94316805e-08 	0.004290084655 	1.928575246e-06 	8.178093719e-06
0.02571641155 	0.008538877035 	-0.0004683967783 	-9.187588451e-08 	0.004299668875 	2.119505275e-06 	8.196363907e-06
0.02646886107 	0.008548199881 	-0.0004808070224 	-1.575620913e-07 	0.004309609021 	2.314037184e-06 	8.215312589e-06
0.02723537965 	0.008557726761 	-0.0004935694786 	-2.038483735e-07 	0.004319895749 	2.179071641e-06 	8.23492195e-06
0.02801622918 	0.008567468166 	-0.0005066224205 	-2.339836984e-07 	0.004330523642 	1.980589615e-06 	8.255181669e-06
0.02881167637 	0.008577429024 	-0.0005199115796 	-2.503452186e-07 	0.004341501174 	1.777799918e-06 	8.276107896e-06
0.02962199284 	0.008587612345 	-0.0005334079719 	-2.533604878e-07 	0.00435284216 	1.571229966e-06 	8.297726967e-06
0.03044745527 	0.008598014289 	-0.0005471106663 	-2.445718313e-07 	0.004364556457 	1.361191876e-06 	8.320057672e-06
0.03128834539 	0.008608627949 	-0.0005610376708 	-2.25696267e-07 	0.004376653705 	1.147904868e-06 	8.34311839e-06
0.03214495017 	0.008619445245 	-0.0005752163795 	-1.98090245e-07 	0.004389143479 	9.314945769e-07 	8.366927371e-06
0.03301756185 	0.00863045754 	-0.0005896766139 	-1.625633754e-07 	0.004402034239 	7.119877407e-07 	8.391500741e-06
0.03390647809 	0.008641655918 	-0.0006044463725 	-1.194028658e-07 	0.004415332903 	4.893358758e-07 	8.416851692e-06
0.03481200199 	0.008653031334 	-0.0006195496075 	-6.849271964e-08 	0.004429044961 	2.634453007e-07 	8.442990686e-06
0.03573444229 	0.008664575008 	-0.0006350061183 	-9.454502431e-09 	0.004443175917 	3.420366185e-08 	8.469928215e-06
0.03587252477 	0.008666310478 	-0.000637320572 	1.557263472e-08 	0.0044453138 	-6.90608679e-07 	8.474003614e-06
0.03667411338 	0.008674447261 	-0.0006551445709 	-2.464800866e-07 	0.004456798164 	1.580966141e-07 	8.495896004e-06
0.03763133546 	0.00868402234 	-0.0006762177338 	-5.358058555e-07 	0.004470559315 	3.425383188e-07 	8.522128582e-06
0.03860643463 	0.008693672363 	-0.0006974690735 	-8.250267424e-07 	0.004484775588 	5.256092001e-07 	8.549228749e-06
0.03959974299 	0.008703440198 	-0.0007188073057 	-1.114449544e-06 	0.004499468524 	7.047956236e-07 	8.577237569e-06
0.04062400445 	0.008713151327 	-0.0007404920162 	-1.406925701e-06 	0.004514401671 	8.831981778e-07 	8.605704298e-06
0.04168283404 	0.008722867249 	-0.0007628016586 	-1.703562523e-06 	0.004529794753 	1.067587317e-06 	8.63504779e-06
0.04276144599 	0.008732774732 	-0.0007854042496 	-2.004206057e-06 	0.004545797312 	1.257115915e-06 	8.665553116e-06
0.04386020817 	0.008742725251 	-0.0008081121914 	-2.308271266e-06 	0.004562160091 	1.451348348e-06 	8.696745121e-06
0.04497949521 	0.008752632777 	-0.0008310129025 	-2.616130369e-06 	0.004578893966 	1.650330894e-06 	8.728644536e-06
0.04611968868 	0.008762531623 	-0.0008541403064 	-2.515702936e-06 	0.004596118526 	1.593807677e-06 	8.761479336e-06
0.04728117716 	0.008772409011 	-0.0008775062053 	-2.182151779e-06 	0.004613844246 	1.389824889e-06 	8.795269485e-06
0.04846435643 	0.008782286357 	-0.0009011051948 	-1.84604533e-06 	0.004632011977 	1.184863775e-06 	8.829902229e-06
0.04966962954 	0.008792312372 	-0.0009249995567 	-1.506472621e-06 	0.004651001927 	9.757363731e-07 	8.866102351e-06
0.05089740698 	0.00880148041 	-0.0009482893308 	-1.154329225e-06 	0.004669914263 	7.250367179e-07 	8.902154521e-06
0.05214810683 	0.008808051305 	-0.0009743463197 	-8.111153573e-07 	0.004688160551 	4.326265248e-07 	8.936937017e-06
0.05406782255 	0.008819143831 	-0.001004999977 	-2.749010226e-07 	0.004714047024 	1.495717913e-07 	8.986283829e-06
0.05513332125 	0.008826877146 	-0.00102521849 	2.079810711e-07 	0.004730856274 	-2.755355648e-06 	9.018326932e-06
0.05600859301 	0.008838749325 	-0.001040474312 	-1.667450083e-07 	0.004748331988 	2.829520375e-07 	9.051640501e-06
0.05797064766 	0.008865339184 	-0.001074485956 	-5.300960366e-07 	0.004786612828 	8.662877131e-07 	9.124614421e-06
0.05995421845 	0.008890376553 	-0.001107931498 	-8.788490861e-07 	0.004823601985 	1.402412827e-06 	9.195126035e-06
0.06200681858 	0.008914740658 	-0.001141164107 	-1.224716702e-06 	0.004860471284 	1.897927926e-06 	9.265409166e-06
0.06408691716 	0.008938489635 	-0.001174206105 	-1.550197008e-06 	0.004897313116 	2.345091448e-06 	9.335639938e-06
0.06618987704 	0.008961531656 	-0.001206447223 	-1.50970672e-06 	0.004933597044 	2.23264072e-06 	9.404807188e-06
0.0683159485 	0.008983695272 	-0.001237919519 	-1.128841601e-06 	0.00496917211 	1.633986224e-06 	9.472623151e-06
0.07046538455 	0.009005082717 	-0.001268738794 	-7.658605261e-07 	0.005004300942 	1.085484269e-06 	9.539588469e-06
0.07263844095 	0.009025742243 	-0.001298980385 	-4.187189529e-07 	0.005039070567 	5.810565473e-07 	9.605869038e-06
0.07483537623 	0.009045704196 	-0.001328714587 	-8.500238649e-08 	0.005073539052 	1.154671604e-07 	9.67157555e-06
0.07541285244 	0.009050833371 	-0.001336356505 	1.996687582e-07 	0.005082559811 	-1.431854378e-06 	9.688771625e-06
0.07705645173 	0.009048029157 	-0.001370414703 	-7.792958484e-07 	0.005119274772 	8.105787476e-07 	9.758760544e-06
0.07930193161 	0.009042631829 	-0.001416397176 	-1.840267754e-06 	0.005169922141 	1.925970398e-06 	9.855308506e-06
0.08160880498 	0.009034946366 	-0.001462858744 	-2.916994698e-06 	0.005221768218 	3.07722438e-06 	9.954141539e-06
0.08396062899 	0.009025522571 	-0.001509620945 	-4.001559768e-06 	0.005275357197 	4.265726308e-06 	1.005629703e-05
0.08633835627 	0.009014649926 	-0.001556170541 	-4.767368363e-06 	0.005330287482 	5.140331954e-06 	1.016100942e-05
0.08874227161 	0.009002359924 	-0.001602322223 	-3.656696637e-06 	0.005386033642 	3.988170871e-06 	1.026727709e-05
0.09117266288 	0.008988799689 	-0.00164806937 	-2.545859733e-06 	0.0054425793 	2.808315754e-06 	1.037506883e-05
0.09362982109 	0.008974130304 	-0.001693390196 	-1.438542962e-06 	0.005499956884 	1.605150583e-06 	1.048444646e-05
0.0961140404 	0.008958502232 	-0.001738246793 	-3.376685515e-07 	0.005558095565 	3.809364986e-07 	1.059527494e-05
0.09688760698 	0.008953538693 	-0.001751952313 	3.528133417e-07 	0.005576051373 	-1.553159703e-06 	1.06295037e-05
0.09862561817 	0.008962147591 	-0.001777407419 	-5.255810105e-07 	0.005619923361 	1.009878931e-06 	1.07131359e-05
0.10119209 	0.008975131638 	-0.001813444245 	-1.264468447e-06 	0.005683829905 	2.490237115e-06 	1.083495954e-05
0.1038191759 	0.008988598019 	-0.001848944988 	-1.979120835e-06 	0.005749457856 	3.990589202e-06 	1.096006465e-05
0.1064752671 	0.009002167554 	-0.001883799075 	-2.658934856e-06 	0.005816393313 	5.488272353e-06 	1.108766224e-05
0.1091606836 	0.009016072698 	-0.001917706887 	-2.767630656e-06 	0.005883730994 	5.845288403e-06 	1.121602657e-05
0.111875749 	0.009030382702 	-0.001950690311 	-2.001742642e-06 	0.00595130804 	4.324572045e-06 	1.134484721e-05
0.1146207903 	0.009045172802 	-0.001982837251 	-1.269117719e-06 	0.006019339823 	2.803885811e-06 	1.147453469e-05
0.1173961382 	0.009060658846 	-0.002014126774 	-5.690403384e-07 	0.006087666517 	1.286503228e-06 	1.160478436e-05
0.1197759294 	0.009074552471 	-0.002039945547 	2.196721906e-07 	0.006145640711 	-7.410495765e-07 	1.171529929e-05
0.1207961827 	0.009080224769 	-0.002046745359 	2.402355687e-07 	0.006160373797 	-8.949697712e-07 	1.174338464e-05
0.1275401903 	0.009118106146 	-0.002091027912 	1.77285166e-06 	0.006256894588 	-6.607465698e-06 	1.19273801e-05
0.1342390155 	0.009156338511 	-0.002134382729 	2.182918391e-06 	0.006352087814 	-8.14025604e-06 	1.210884485e-05
0.1408933723 	0.009195043213 	-0.002176738675 	8.501011703e-07 	0.006445401842 	-3.174570226e-06 	1.228672732e-05
0.1453219 	0.009221315396 	-0.002204592027 	4.343039527e-07 	0.006507016522 	-1.399006017e-06 	1.240418202e-05
0.1473336285 	0.009212056991 	-0.002227330556 	-1.006249292e-07 	0.006549993414 	-6.381194858e-07 	1.248610792e-05
0.1534016459 	0.009185406628 	-0.002294951793 	-4.112962539e-07 	0.006680046983 	-2.410502828e-06 	1.273402617e-05
0.1594490221 	0.009160279057 	-0.002360943238 	-6.935542268e-07 	0.006810008573 	-3.750587778e-06 	1.298176908e-05
0.1655334216 	0.009136276505 	-0.002426015225 	-4.176968546e-07 	0.006941166125 	-2.083682512e-06 	1.323179183e-05
0.1716618299 	0.009113642166 	-0.002490222588 	-1.283680819e-07 	0.007073879662 	-5.902243432e-07 	1.348478072e-05
0.1743275034 	0.009104513833 	-0.002517727783 	6.178165384e-07 	0.007131919065 	-1.662608452e-06 	1.359541995e-05
0.177417951 	0.009111690172 	-0.002537027957 	3.057636597e-07 	0.00720329282 	-2.501908717e-07 	1.373147817e-05
0.18289823 	0.009126193503 	-0.00257068555 	8.353381446e-07 	0.007330186182 	-6.062461607e-07 	1.397337218e-05
0.1883761782 	0.00914256051 	-0.002603601719 	1.350936223e-06 	0.00745732502 	-8.534349787e-07 	1.421573414e-05
0.1938521216 	0.009160802204 	-0.002635778007 	1.215450867e-06 	0.007584706777 	-6.500248726e-07 	1.445855918e-05
0.1993672192 	0.009181081399 	-0.002667461229 	7.313271256e-07 	0.00771352079 	-3.184469185e-07 	1.470411449e-05
0.2049439151 	0.009203316986 	-0.002698778414 	2.525719633e-07 	0.007844448866 	-8.472295145e-08 	1.495369979e-05
0.2079444388 	0.009216157268 	-0.002715343233 	6.30867563e-07 	0.007915300749 	-1.552542265e-06 	1.508876317e-05
0.2102620035 	0.009219159082 	-0.00272868143 	1.010460038e-07 	0.007970351087 	1.217605688e-07 	1.519370442e-05
0.2152872245 	0.009227151052 	-0.002757262253 	3.119213851e-07 	0.008090427943 	4.324963484e-07 	1.542260428e-05
0.2203176127 	0.009236701621 	-0.002785393968 	5.135172891e-07 	0.008211384649 	8.075805226e-07 	1.565318138e-05
0.2253537002 	0.009247871094 	-0.002813077798 	4.746698224e-07 	0.008333319465 	8.370274444e-07 	1.588562303e-05
0.2304675697 	0.009260373204 	-0.002840626467 	2.776526481e-07 	0.008458005871 	5.427150978e-07 	1.612330997e-05
0.2356043485 	0.009274309612 	-0.00286774136 	8.701615338e-08 	0.008584467711 	1.870032981e-07 	1.636438139e-05
0.2380122946 	0.009281399624 	-0.002880230848 	6.464574978e-07 	0.008644290146 	-1.407638332e-06 	1.647841958e-05
0.2406777469 	0.00929469901 	-0.002890846694 	2.118270796e-07 	0.008708496935 	1.727058091e-07 	1.660081556e-05
0.2457008445 	0.009320356274 	-0.002910592088 	5.976040389e-07 	0.008830770116 	5.356772392e-07 	1.683390223e-05
0.250735156 	0.009346665537 	-0.002930033014 	9.690745181e-07 	0.008954687378 	9.506411968e-07 	1.707012297e-05
0.2558325572 	0.009373546159 	-0.002949266042 	1.182712058e-06 	0.009081590405 	1.264465116e-06 	1.731203541e-05
0.2609721718 	0.009400830507 	-0.002968172508 	8.147395491e-07 	0.009211268338 	9.454216063e-07 	1.755923759e-05
0.2661223867 	0.009428359947 	-0.002986601099 	4.596454509e-07 	0.009343038403 	5.756947464e-07 	1.781042796e-05
0.271283911 	0.009455988326 	-0.003004497593 	1.164994716e-07 	0.009476916955 	1.563943899e-07 	1.806563769e-05
0.273085448 	0.009465708574 	-0.003010567376 	4.888467138e-07 	0.009524261586 	-8.380851494e-07 	1.815588971e-05
0.2763941239 	0.009479034086 	-0.003019757732 	2.762932451e-07 	0.009613476197 	4.256481205e-07 	1.832595756e-05
0.2815469872 	0.009499644264 	-0.003033247617 	7.038146196e-07 	0.00975420058 	1.121609453e-06 	1.859421735e-05
0.2867304373 	0.00952030869 	-0.003045827132 	1.133529554e-06 	0.009898160927 	1.862758053e-06 	1.886864578e-05
0.2919293987 	0.009540857149 	-0.003057313652 	1.566464544e-06 	0.01004491172 	2.646141936e-06 	1.914839357e-05
0.2971446783 	0.009561188371 	-0.00306756789 	1.272749435e-06 	0.0101946672 	2.203160512e-06 	1.943386915e-05
0.3023972021 	0.009581260295 	-0.003076476658 	8.791703193e-07 	0.01034808904 	1.555076696e-06 	1.972633381e-05
0.3077176101 	0.009600877294 	-0.003083876173 	4.779252325e-07 	0.01050603472 	8.617008076e-07 	2.002742219e-05
0.313054455 	0.009619968465 	-0.003089540208 	7.125197994e-08 	0.01066753613 	1.306333964e-07 	2.033528876e-05
0.3139886584 	0.009623198952 	-0.003090242385 	3.004172011e-07 	0.01069627435 	-2.661702194e-07 	2.039007179e-05
0.3183414675 	0.009639297505 	-0.003090294208 	4.441361207e-07 	0.01083085688 	6.635658702e-07 	2.06466235e-05
0.3236377024 	0.009658173145 	-0.003088379475 	9.890389525e-07 	0.0109975508 	1.487185776e-06 	2.096438844e-05
0.3290180949 	0.009676126254 	-0.003084121563 	1.550261138e-06 	0.01116941627 	2.341737854e-06 	2.129201179e-05
0.3344194035 	0.009693073053 	-0.003077266529 	2.122957241e-06 	0.01134541706 	3.214360121e-06 	2.162751821e-05
0.3398426614 	0.009708727598 	-0.003067514037 	2.139173169e-06 	0.01152532123 	3.240165683e-06 	2.197046556e-05
0.3452904742 	0.009723069185 	-0.003054514565 	1.649467505e-06 	0.01170970116 	2.494895619e-06 	2.232194495e-05
0.3508197691 	0.009735798258 	-0.003037776015 	1.143519945e-06 	0.01189997503 	1.723944161e-06 	2.268465984e-05
0.3563719332 	0.009746855392 	-0.003016988919 	6.261434219e-07 	0.01209513718 	9.391411149e-07 	2.305669313e-05
0.3619481526 	0.009756054496 	-0.002991842537 	9.610858456e-08 	0.01229482449 	1.432257134e-07 	2.343735264e-05
0.3629570058 	0.009757411372 	-0.002986534 	4.99493221e-07 	0.01233163364 	-3.272803568e-08 	2.350752112e-05
0.3675345772 	0.009764229937 	-0.002960310193 	5.079574353e-07 	0.01249705065 	5.813801566e-07 	2.382285192e-05
0.3731844475 	0.00977078573 	-0.002923311146 	1.135512498e-06 	0.01270448995 	1.286779758e-06 	2.421828888e-05
0.3788622067 	0.009775629473 	-0.002880958099 	1.766634533e-06 	0.01291678076 	1.978712099e-06 	2.462297417e-05
0.3845691096 	0.009778765855 	-0.002832808899 	2.401108242e-06 	0.01313375622 	2.653560338e-06 	2.503658969e-05
0.3903361571 	0.009780118149 	-0.002778055461 	3.041879748e-06 	0.01335649522 	3.312352681e-06 	2.546119213e-05
0.3961520378 	0.009779563327 	-0.002715978306 	3.299466517e-06 	0.01358484923 	3.53448015e-06 	2.589649835e-05
0.4019987059 	0.009777233257 	-0.002646069637 	2.75584066e-06 	0.01381821954 	2.892262266e-06 	2.634136702e-05
0.4078847518 	0.009773560643 	-0.002567653702 	2.208273877e-06 	0.01405703798 	2.268870529e-06 	2.679662133e-05
0.4138401192 	0.009767581158 	-0.002479177877 	1.639655581e-06 	0.01430201841 	1.655216301e-06 	2.726362214e-05
0.4198282563 	0.009756472056 	-0.002374858509 	9.350477432e-07 	0.01455063454 	1.205242919e-06 	2.773755357e-05
0.4258507121 	0.009743756251 	-0.002235243196 	2.901820159e-07 	0.01478139457 	7.968454411e-07 	2.817744633e-05
0.4319424031 	0.009742188027 	-0.002044642299 	6.440539946e-09 	0.01496262848 	5.252753306e-08 	2.852292854e-05
0.4322943136 	0.009743277712 	-0.002031446473 	6.424269653e-07 	0.01496966049 	-2.777862299e-07 	2.853633349e-05
0.4380348569 	0.009762225232 	-0.001812606497 	1.672929965e-07 	0.01508281089 	8.295116389e-07 	2.875202961e-05
0.4441641957 	0.009798087495 	-0.001573036369 	2.207614272e-07 	0.01517658082 	1.889140056e-06 	2.893078115e-05
0.4503583492 	0.00984693066 	-0.001337731853 	3.11864183e-07 	0.0152604662 	2.841921096e-06 	2.909069e-05
0.4566034394 	0.009906064958 	-0.001108801899 	3.987863743e-07 	0.01533971807 	3.689201756e-06 	2.924176609e-05
0.4628906231 	0.009972771105 	-0.0008862484853 	4.717352981e-07 	0.01541668089 	4.397229717e-06 	2.938847863e-05
0.4692413887 	0.01004533363 	-0.0006696799218 	5.331355383e-07 	0.01549405309 	5.000900641e-06 	2.953597155e-05
0.4756460929 	0.01012285734 	-0.0004588207255 	5.900592565e-07 	0.01557203858 	5.507754016e-06 	2.968463356e-05
0.4820960035 	0.01020486087 	-0.0002535011446 	6.387373877e-07 	0.01565042088 	5.930968132e-06 	2.9834052e-05
0.4886119779 	0.01029108515 	-5.35220056e-05 	5.590672442e-07 	0.01573008981 	5.15207548e-06 	2.998592313e-05
0.4951819604 	0.01038122499 	0.0001413087543 	4.800997394e-07 	0.01581057993 	4.382261156e-06 	3.013935968e-05
0.5018006331 	0.01047502655 	0.0003312448657 	4.087533493e-07 	0.01589155179 	3.691515107e-06 	3.029371455e-05
0.5084900918 	0.01057233764 	0.0005165057719 	3.448411509e-07 	0.01597373148 	3.072545938e-06 	3.045037188e-05
0.5152322177 	0.01067287097 	0.0006973117897 	2.873967371e-07 	0.01605639513 	2.522418313e-06 	3.060795176e-05
0.5220303514 	0.01077641893 	0.0008738528248 	2.355334953e-07 	0.01613952411 	2.034269453e-06 	3.076641871e-05
0.5288981248 	0.01088253358 	0.001045875784 	1.891133474e-07 	0.01622344644 	1.60337715e-06 	3.092639798e-05
0.5357442139 	0.01099001026 	0.001212217651 	1.478755207e-07 	0.0163066796 	1.22960175e-06 	3.108506353e-05
0.5425033843 	0.01109777357 	0.001371823163 	1.115985121e-07 	0.01638874152 	9.091587694e-07 	3.124149635e-05
0.5491769355 	0.01120538246 	0.001524749437 	7.982088855e-08 	0.01646945901 	6.370967668e-07 	3.139536631e-05
0.5557596557 	0.01131259684 	0.001671424489 	5.19688826e-08 	0.01654847864 	4.072273686e-07 	3.154599971e-05
0.5622641271 	0.01141923124 	0.001812179923 	2.774712695e-08 	0.0166262002 	2.13518435e-07 	3.169415859e-05
0.5686844885 	0.01152504259 	0.001947394212 	6.926239024e-09 	0.01670222863 	5.237357146e-08 	3.183908992e-05
0.5711042508 	0.01156505102 	0.001997038405 	1.79877344e-06 	0.01673061489 	-1.916133181e-06 	3.189320202e-05
0.5750136979 	0.01162967875 	0.002077408748 	1.20030041e-08 	0.01677643632 	8.959630391e-08 	3.19805504e-05
0.5812674994 	0.0117331705 	0.002202517447 	2.874978932e-08 	0.01684914325 	2.109596142e-07 	3.211915001e-05
0.5874418623 	0.01183546431 	0.002323024756 	4.282517939e-08 	0.01691994806 	3.088311956e-07 	3.225412365e-05
0.5935393208 	0.01193647087 	0.002439174582 	5.459239826e-08 	0.01698890021 	3.869082162e-07 	3.238556562e-05
0.5995679114 	0.01203615166 	0.002551213974 	6.434557475e-08 	0.01705617881 	4.476697827e-07 	3.251381733e-05
0.6055216298 	0.01213438826 	0.002659388723 	7.217628423e-08 	0.01712146277 	4.930147176e-07 	3.263826671e-05
0.6114029402 	0.01223113356 	0.002763879837 	7.836741019e-08 	0.01718486451 	5.255707119e-07 	3.275912804e-05
0.617217998 	0.01232636814 	0.002864891759 	8.314400344e-08 	0.01724647983 	5.46956638e-07 	3.287658397e-05
0.6229624141 	0.01242000854 	0.002962620898 	8.652598162e-08 	0.01730607429 	5.584684141e-07 	3.299018758e-05
0.6286378764 	0.01251202862 	0.003057214028 	8.872351986e-08 	0.01736374134 	5.619674039e-07 	3.3100117e-05
0.6342501096 	0.01260242814 	0.003148834351 	8.994590362e-08 	0.01741957659 	5.586277428e-07 	3.32065545e-05
0.6397954305 	0.01269114915 	0.003237641956 	9.017626913e-08 	0.0174734028 	5.492134118e-07 	3.330916221e-05
0.6452752703 	0.01277817174 	0.003323763094 	8.953767287e-08 	0.01752526064 	5.350315034e-07 	3.340801767e-05
0.6506936869 	0.01286350822 	0.003407315689 	8.825414201e-08 	0.01757528229 	5.170361948e-07 	3.350337284e-05
0.6560491642 	0.01294712479 	0.003488439916 	8.629062833e-08 	0.01762333224 	4.955992039e-07 	3.359496939e-05
0.6613423103 	0.0130290026 	0.003567250161 	8.366889095e-08 	0.01766939807 	4.715773935e-07 	3.368278368e-05
0.666575629 	0.01310915846 	0.003643827036 	8.06101008e-08 	0.01771364221 	4.458285027e-07 	3.376712531e-05
0.6717497053 	0.0131875804 	0.003718287693 	7.710784192e-08 	0.01775596665 	4.186173288e-07 	3.384780745e-05
0.6768642844 	0.01326425262 	0.003790725945 	7.314693565e-08 	0.01779632686 	3.904322247e-07 	3.392474522e-05
0.6819206085 	0.0133391895 	0.00386120037 	6.88923285e-08 	0.01783485552 	3.618446096e-07 	3.399819157e-05
0.6869210347 	0.01341239683 	0.003929797581 	6.441140465e-08 	0.01787153423 	3.330547717e-07 	3.406811138e-05
0.6918645349 	0.01348386126 	0.003996595249 	5.968887721e-08 	0.01790631087 	3.042201691e-07 	3.413440531e-05
0.6967520775 	0.01355358477 	0.004061650321 	5.478927465e-08 	0.01793923142 	2.757191616e-07 	3.419716104e-05
0.701585273 	0.01362158428 	0.004125010284 	4.985725837e-08 	0.01797037825 	2.478534543e-07 	3.425653556e-05
0.7063646295 	0.01368785842 	0.004186741442 	4.489956519e-08 	0.01799969365 	2.206053797e-07 	3.431241885e-05
0.7110902894 	0.01375240496 	0.004246897773 	3.99317542e-08 	0.01802716623 	1.941624804e-07 	3.436478922e-05
0.7157630961 	0.01381523825 	0.00430551404 	3.504592938e-08 	0.01805287714 	1.687637476e-07 	3.441380137e-05
0.7203845629 	0.01387637203 	0.00436263506 	3.031214509e-08 	0.01807683936 	1.445122266e-07 	3.445948002e-05
0.7249546213 	0.01393580816 	0.004418311752 	2.572181444e-08 	0.01809901478 	1.213807417e-07 	3.450175254e-05
0.7294738451 	0.01399355258 	0.00447258591 	2.129245623e-08 	0.01811941766 	9.949973603e-08 	3.45406461e-05
0.733942979 	0.01404962241 	0.004525488993 	1.707516891e-08 	0.01813811675 	7.899436543e-08 	3.457629175e-05
0.738363276 	0.01410402957 	0.004577062831 	1.308210746e-08 	0.01815511004 	5.986931208e-08 	3.460868569e-05
0.7427346638 	0.01415677724 	0.004627349866 	9.294750331e-09 	0.01817037774 	4.208623103e-08 	3.463779017e-05
0.7470577888 	0.0142078713 	0.004676381909 	5.725894002e-09 	0.01818395244 	2.570134884e-08 	3.466366731e-05
0.7513333169 	0.01425732015 	0.004724182884 	2.410032297e-09 	0.01819587586 	1.076501061e-08 	3.468639667e-05
0.7546583093 	0.01429490794 	0.004760816664 	1.86256128e-07 	0.01820396001 	-8.519804452e-07 	3.470180731e-05
0.7555616001 	0.0143051125 	0.004770772276 	6.084817761e-10 	0.0182061623 	2.186760007e-09 	3.470600549e-05
0.7597410789 	0.0143512133 	0.004816158163 	3.303406002e-09 	0.01821481795 	1.170741902e-08 	3.472250556e-05
0.763874694 	0.01439567198 	0.004860363249 	5.661525168e-09 	0.01822186647 	1.991855407e-08 	3.473594201e-05
0.7679630582 	0.01443849961 	0.004903390902 	7.629616508e-09 	0.01822733098 	2.682405829e-08 	3.474635887e-05
0.7720069318 	0.01447970823 	0.004945246928 	9.183913576e-09 	0.01823122425 	3.246419183e-08 	3.475378054e-05
0.7760066507 	0.01451930747 	0.004985945369 	1.034037218e-08 	0.01823352346 	3.687191126e-08 	3.475816347e-05
0.7799626731 	0.0145573112 	0.005025501526 	1.108711018e-08 	0.01823423301 	4.003780063e-08 	3.475951605e-05
0.7838755567 	0.0145937331 	0.005063925224 	1.136966313e-08 	0.01823338512 	4.200787215e-08 	3.475789974e-05
0.7877458863 	0.01462858465 	0.005101220763 	1.115773987e-08 	0.01823099146 	4.280829957e-08 	3.475333677e-05
0.7915741986 	0.01466187766 	0.005137391755 	1.045530595e-08 	0.01822704436 	4.247546316e-08 	3.47458125e-05
0.7953608184 	0.01469362345 	0.005172444034 	9.235589374e-09 	0.01822153364 	4.104974225e-08 	3.473530753e-05
0.7991062579 	0.01472383655 	0.005206380586 	7.489474748e-09 	0.01821448563 	3.855752807e-08 	3.472187207e-05
0.8028110174 	0.01475253182 	0.005239206162 	5.213801542e-09 	0.0182059086 	3.503092958e-08 	3.470552186e-05
0.8064756368 	0.01477972508 	0.005270926178 	2.437129759e-09 	0.01819581841 	3.051501249e-08 	3.468628715e-05
0.8101004972 	0.01480543088 	0.005301548302 	-8.237738223e-10 	0.01818420528 	2.504925385e-08 	3.46641493e-05
0.8136860075 	0.01482966568 	0.005331079163 	-4.569229654e-09 	0.01817107536 	1.866402618e-08 	3.463912003e-05
0.8172326323 	0.01485244876 	0.005359524038 	-8.76253177e-09 	0.01815645521 	1.140677832e-08 	3.461124995e-05