0.4709558481 	0.03121868629 	1.283529935e-08 	-2.655538525e-12
0.4709558481 	0.03121868629 	1.283529935e-08 	-2.655538525e-12
0.4711314108 	0.08584265754 	2.140027662e-07 	-2.880127021e-11
0.4713069734 	0.1715875204 	9.505234101e-07 	-1.093289295e-10
0.471482536 	0.257202914 	2.532013547e-06 	-2.504045325e-10
0.4716580986 	0.3425711693 	5.096242486e-06 	-4.48886798e-10
0.4718336613 	0.4274031423 	8.071513795e-06 	-6.919870288e-10
0.4720092239 	0.5111518941 	1.014618087e-05 	-9.638207124e-10
0.4721847865 	0.5929991034 	1.066166351e-05 	-1.268764172e-09
0.4723603491 	0.6719758258 	9.4771874e-06 	-1.500516514e-09
0.4725359118 	0.7471919111 	7.711284013e-06 	-2.017535059e-09
0.4727114744 	0.8181222164 	1.407698187e-05 	-2.735197479e-09
0.472887037 	0.8848427492 	2.55654903e-05 	-3.060949336e-09
0.4730625996 	0.9477748811 	2.918977078e-05 	-3.461298539e-09
0.4732381623 	1.007211251 	3.060930841e-05 	-4.088771371e-09
0.4734137249 	1.063319105 	3.524927304e-05 	-4.664622756e-09
0.4735892875 	1.116282937 	4.008960555e-05 	-5.261831931e-09
0.4737648501 	1.166300754 	4.502442566e-05 	-5.884800498e-09
0.4739404128 	1.213574281 	5.013449363e-05 	-6.531315749e-09
0.4741159754 	1.258301548 	5.544337615e-05 	-7.199541657e-09
0.474291538 	1.300672009 	6.094610757e-05 	-7.888600829e-09
0.4744671006 	1.340863506 	6.663945003e-05 	-8.597749937e-09
0.4746426632 	1.379040737 	7.252135829e-05 	-9.326306148e-09
0.4748182259 	1.415355787 	7.858934611e-05 	-1.007362878e-08
0.4749937885 	1.449952148 	8.484037117e-05 	-1.083918818e-08
0.4751693511 	1.482964715 	9.127248916e-05 	-1.162262475e-08
0.4753449137 	1.514514399 	9.78849911e-05 	-1.24236273e-08
0.4755204764 	1.54470851 	0.0001046772673 	-1.324189504e-08
0.475696039 	1.573644393 	0.0001116498573 	-1.407719059e-08
0.4758716016 	1.60141091 	0.0001187951991 	-1.492924259e-08
0.4760471642 	1.628089621 	0.0001260734811 	-1.579746998e-08
0.4762227269 	1.657242212 	0.0001345710739 	-1.680558261e-08
0.4764955107 	1.691975194 	0.0001456418733 	-1.809641331e-08
0.4767734216 	1.728617357 	0.0001583851554 	-1.957094263e-08
0.4770565557 	1.76396983 	0.0001717369955 	-2.111313645e-08
0.4773450114 	1.798131671 	0.0001858000658 	-2.272584934e-08
0.4776388886 	1.831194377 	0.0002006193251 	-2.441153504e-08
0.4779382892 	1.863241904 	0.0002162235807 	-2.617242414e-08
0.4782433171 	1.894350918 	0.0002326464881 	-2.801093661e-08
0.4785540779 	1.924591236 	0.0002499264504 	-2.992973767e-08
0.4788706795 	1.954026531 	0.0002681029487 	-3.193147162e-08
0.4791932316 	1.982715071 	0.0002872161715 	-3.401873991e-08
0.4795218461 	2.010710335 	0.0003073082389 	-3.619418648e-08
0.4798566368 	2.038061514 	0.0003284231494 	-3.846047225e-08
0.48019772 	2.064813948 	0.000350606534 	-4.082024248e-08
0.4805452138 	2.091009503 	0.000373905624 	-4.327610873e-08
0.4808992388 	2.116686903 	0.0003983692141 	-4.583062975e-08
0.4812599177 	2.141882025 	0.0004240476062 	-4.848629024e-08
0.4816273755 	2.166628154 	0.0004509925409 	-5.124547819e-08
0.4820017397 	2.190956206 	0.000479257116 	-5.411046078e-08
0.48238314 	2.214894934 	0.0005088956902 	-5.708335856e-08
0.4827717088 	2.23847109 	0.0005399637711 	-6.016611808e-08
0.4831675807 	2.261709583 	0.0005725178851 	-6.336048259e-08
0.4835708931 	2.2846336 	0.0006066154283 	-6.666796066e-08
0.4839817856 	2.307264727 	0.0006423144959 	-7.00897925e-08
0.4844004009 	2.329623033 	0.0006796736897 	-7.362691359e-08
0.4848268841 	2.351727157 	0.0007187518998 	-7.727991533e-08
0.485261383 	2.373594371 	0.0007596080614 	-8.104900229e-08
0.4857040484 	2.395240636 	0.0008023008819 	-8.493394622e-08
0.4861550336 	2.416680644 	0.0008468885387 	-8.893403691e-08
0.4866144951 	2.437927849 	0.0008934283441 	-9.304803074e-08
0.4870825921 	2.458994494 	0.000941976376 	-9.727409778e-08
0.487559487 	2.479891628 	0.0009925870717 	-1.016097679e-07
0.4880453452 	2.500629109 	0.001045312784 	-1.060518748e-07
0.4885403351 	2.521215616 	0.001100203296 	-1.105964937e-07
0.4890446283 	2.541658641 	0.001157305301 	-1.152388662e-07
0.4895583997 	2.561964491 	0.00121666184 	-1.199733024e-07
0.4900818274 	2.582138284 	0.001278311724 	-1.247930602e-07
0.4906150929 	2.602183953 	0.001342288942 	-1.296902171e-07
0.4911583811 	2.62210426 	0.001408622099 	-1.346555877e-07
0.4917118805 	2.641900829 	0.00147733391 	-1.396787846e-07
0.4922757829 	2.661574195 	0.00154844081 	-1.447485464e-07
0.4928502838 	2.681123903 	0.001621952693 	-1.498534209e-07
0.4934355824 	2.700548637 	0.001697872822 	-1.549827277e-07
0.4940318817 	2.719846408 	0.001776197851 	-1.601274069e-07
0.4946393885 	2.739014764 	0.001856917842 	-1.652798357e-07
0.4952583133 	2.758050977 	0.001940015887 	-1.70431299e-07
0.4958888709 	2.776952046 	0.002025467063 	-1.755673129e-07
0.4965312797 	2.795714206 	0.002113240512 	-1.806712107e-07
0.4971857627 	2.814331279 	0.002203290144 	-1.856866288e-07
0.4978525466 	2.832790709 	0.002295512635 	-1.904927854e-07
0.4985318627 	2.851067168 	0.002389716013 	-1.949702473e-07
0.4992239466 	2.869117366 	0.002485607438 	-1.989658266e-07
0.4999290382 	2.886879737 	0.002582764401 	-2.022588945e-07
0.5006473819 	2.904277436 	0.002680640153 	-2.046683317e-07
0.501379227 	2.92122151 	0.002778599971 	-2.060840651e-07
0.502124827 	2.937613811 	0.002875930343 	-2.064681688e-07
0.5028844406 	2.953350724 	0.002971832985 	-2.058964573e-07
0.5036583311 	2.96832951 	0.003065439358 	-2.04547778e-07
0.5044467669 	2.982459426 	0.003155873704 	-2.024773363e-07
0.5052500214 	2.995679563 	0.003242064164 	-1.986530376e-07
0.506068373 	3.00949592 	0.00333210957 	-1.949494577e-07
0.507324668 	3.024887898 	0.003436798331 	-1.912766983e-07
0.5085949819 	3.040042745 	0.003545095384 	-1.843630294e-07
0.5098794711 	3.05391218 	0.003643962506 	-1.823217597e-07
0.5111782938 	3.066667149 	0.00373783499 	-1.823306664e-07
0.5124916099 	3.078309394 	0.003827515628 	-1.776702123e-07
0.5138195812 	3.088847857 	0.003909672168 	-1.727194152e-07
0.5151623712 	3.098304361 	0.003984742489 	-1.672903419e-07
0.5165201452 	3.106713486 	0.004052488659 	-1.614289661e-07
0.5178930705 	3.114120598 	0.0041127789 	-1.552749739e-07
0.5192813161 	3.120578913 	0.004165586651 	-1.488271605e-07
0.520685053 	3.126146307 	0.004210926063 	-1.421842792e-07
0.522104454 	3.130887551 	0.004249049764 	-1.357405608e-07
0.523539694 	3.134883806 	0.00428046238 	-1.296591913e-07
0.5249909497 	3.138231973 	0.004305784692 	-1.240783761e-07
0.5264583998 	3.141028149 	0.004325786506 	-1.192027768e-07
0.527942225 	3.14335504 	0.004341215138 	-1.149339525e-07
0.5294426081 	3.145280845 	0.004352651417 	-1.111375833e-07
0.5309597337 	3.14686179 	0.004360577906 	-1.077639316e-07
0.5324937889 	3.148144394 	0.004365410882 	-1.047554136e-07
0.5340449624 	3.149167293 	0.0043675035 	-1.020602829e-07
0.5356134452 	3.149962712 	0.004367155832 	-9.963518591e-08
0.5371994306 	3.150557653 	0.004364623933 	-9.744381172e-08
0.5388031139 	3.150974838 	0.004360127037 	-9.545534393e-08
0.5404246925 	3.151233477 	0.004353852703 	-9.364094364e-08
0.5420643661 	3.151349888 	0.004345964757 	-9.199246968e-08
0.5437223366 	3.151338045 	0.004336602411 	-9.046721139e-08
0.5453988083 	3.15120986 	0.004325886319 	-8.905541196e-08
0.5470939875 	3.150975519 	0.004313923617 	-8.775959056e-08
0.5488080831 	3.150643874 	0.004300805639 	-8.654847765e-08
0.5505413061 	3.150222603 	0.004286612459 	-8.54225156e-08
0.5522938699 	3.149718381 	0.00427141436 	-8.436983833e-08
0.5540659904 	3.149137029 	0.004255273061 	-8.338084887e-08
0.5558578859 	3.148483642 	0.004238242131 	-8.244897662e-08
0.5576697768 	3.147762685 	0.004220368759 	-8.156751674e-08
0.5595018865 	3.146978085 	0.004201694187 	-8.073075104e-08
0.5613544406 	3.146133296 	0.00418225443 	-7.993365562e-08
0.563227667 	3.145231364 	0.004162080876 	-7.917174805e-08
0.5651217966 	3.144274976 	0.00414120078 	-7.84410011e-08
0.5670370626 	3.143266502 	0.004119637686 	-7.77377728e-08
0.5689737009 	3.142208035 	0.004097411807 	-7.705874729e-08
0.5709319499 	3.14110142 	0.004074540336 	-7.640088643e-08
0.5729120508 	3.13994828 	0.00405103773 	-7.576139012e-08
0.5749142474 	3.138750044 	0.004026915951 	-7.513766338e-08
0.5769387863 	3.137507963 	0.004002184688 	-7.4527289e-08
0.5789859169 	3.136223129 	0.003976851536 	-7.392800455e-08
0.5810558911 	3.134896492 	0.003950922176 	-7.333768314e-08
0.583148964 	3.133528873 	0.003924400516 	-7.275431704e-08
0.5852653933 	3.132120972 	0.003897288835 	-7.217600393e-08
0.5874054395 	3.130673385 	0.003869587895 	-7.160093519e-08
0.5895693664 	3.129186611 	0.003841297062 	-7.102738599e-08
0.5917574402 	3.127661058 	0.003812414399 	-7.045370684e-08
0.5939699306 	3.126097052 	0.003782936764 	-6.987831653e-08
0.5962071099 	3.124494847 	0.003752859892 	-6.929969599e-08
0.5984692536 	3.122854627 	0.003722178476 	-6.871638323e-08
0.6007566404 	3.121176511 	0.003690886245 	-6.812696893e-08
0.6030695519 	3.119460562 	0.003658976025 	-6.753009279e-08
0.6054082729 	3.117706788 	0.003626439817 	-6.69244404e-08
0.6077730914 	3.11591515 	0.00359326885 	-6.630874055e-08
0.6101642987 	3.114085559 	0.003559453647 	-6.568176307e-08
0.6125821893 	3.112217886 	0.00352498408 	-6.504231683e-08
0.6150270608 	3.110311962 	0.003489849429 	-6.438924823e-08
0.6174992144 	3.108367581 	0.003454038433 	-6.372143986e-08
0.6199989545 	3.106384502 	0.003417539347 	-6.303780937e-08
0.622526589 	3.104362453 	0.003380339992 	-6.233730866e-08
0.625082429 	3.10230113 	0.003342427805 	-6.161892315e-08
0.6276667894 	3.100200204 	0.003303789896 	-6.088167138e-08
0.6302799884 	3.098059314 	0.003264413092 	-6.012460466e-08
0.6329223478 	3.095878079 	0.003224283992 	-5.934680703e-08
0.6355941931 	3.093656089 	0.003183389018 	-5.854739536e-08
0.6382958531 	3.091392913 	0.003141714462 	-5.772551969e-08
0.6410276607 	3.089088097 	0.003099246543 	-5.688036375e-08
0.6437899523 	3.086741165 	0.003055971458 	-5.601114579e-08
0.646583068 	3.084351618 	0.003011875431 	-5.511711962e-08
0.6494073518 	3.081918936 	0.002966944774 	-5.419757592e-08
0.6522631514 	3.079442578 	0.002921165933 	-5.325184394e-08
0.6551508186 	3.076921982 	0.002874525554 	-5.227929344e-08
0.658070709 	3.074356562 	0.002827010531 	-5.127933706e-08
0.6610231822 	3.071745711 	0.002778608069 	-5.025143306e-08
0.6640086017 	3.069088796 	0.002729305739 	-4.919508855e-08
0.6670273351 	3.066385164 	0.002679091542 	-4.810986311e-08
0.6700797543 	3.063634131 	0.002627953965 	-4.699537303e-08
0.6731662352 	3.06083499 	0.002575882045 	-4.585129603e-08
0.6762871577 	3.057987002 	0.002522865427 	-4.467737662e-08
0.6794429063 	3.0550894 	0.002468894425 	-4.34734321e-08
0.6826338695 	3.052141382 	0.002413960081 	-4.223935928e-08
0.6858604404 	3.04914211 	0.002358054226 	-4.097514188e-08
0.6891230163 	3.046090709 	0.002301169532 	-3.968085874e-08
0.6924219988 	3.04298626 	0.002243299569 	-3.835669289e-08
0.6957577944 	3.039827801 	0.00218443885 	-3.70029413e-08
0.6991308138 	3.036614319 	0.00212458288 	-3.562002566e-08
0.7025414724 	3.033344749 	0.002063728192 	-3.420850392e-08
0.7059901901 	3.030017966 	0.002001872376 	-3.276908264e-08
0.7094773917 	3.026632783 	0.001939014102 	-3.130263023e-08
0.7130035066 	3.023187944 	0.001875153132 	-2.981019078e-08
0.7165689691 	3.019682119 	0.001810290312 	-2.829299865e-08
0.7201742182 	3.016113895 	0.001744427557 	-2.675249339e-08
0.7238196978 	3.012481775 	0.00167756781 	-2.519033457e-08
0.727505857 	3.008784163 	0.001609714975 	-2.360841553e-08
0.7312331497 	3.005019362 	0.001540873905 	-2.200888234e-08
0.7350020349 	3.001195789 	0.001471236077 	-2.039843433e-08
0.7387709215 	2.997344728 	0.001401405812 	-1.879336183e-08
0.7424982157 	2.9934983 	0.00133199261 	-1.720984432e-08
0.7461843763 	2.989666524 	0.001263198013 	-1.565445263e-08
0.7498298574 	2.98584921 	0.001195036234 	-1.412934518e-08
0.7534351078 	2.982046144 	0.001127519353 	-1.263652005e-08
0.7570005716 	2.978257095 	0.00106065748 	-1.117780301e-08
0.7605266877 	2.974481815 	0.0009944588255 	-9.754829414e-09
0.7640138905 	2.970720039 	0.0009289297933 	-8.369029332e-09
0.7674626093 	2.966971489 	0.0008640750794 	-7.021615382e-09
0.770873269 	2.963235873 	0.0007998977828 	-5.713573096e-09
0.7742462894 	2.959512888 	0.0007363995205 	-4.445653813e-09
0.777582086 	2.955802217 	0.0006735805497 	-3.218370163e-09
0.7808810695 	2.952103531 	0.000611439894 	-2.031994065e-09
0.7841436462 	2.948416492 	0.0005499754736 	-8.865571909e-10
0.787370218 	2.944740746 	0.0004891842378 	2.181462484e-10
0.7905611821 	2.941075928 	0.0004290622998 	1.282554529e-09
0.7937169314 	2.937421659 	0.0003696050709 	2.307331412e-09
0.7968378547 	2.933777543 	0.0003108073942 	3.29335732e-09
0.7999243362 	2.930143171 	0.000252663677 	4.241718879e-09
0.8029767561 	2.926518116 	0.000195168019 	5.153697056e-09
0.8059954902 	2.92290193 	0.000138314338 	6.030754194e-09
0.8089809102 	2.919294148 	8.209649079e-05 	6.874519609e-09
0.8119333839 	2.91569428 	2.650838885e-05 	7.686775178e-09
0.8148532749 	2.912101814 	-2.845589384e-05 	8.469440377e-09
0.8177409426 	2.908516212 	-8.280201845e-05 	9.224555733e-09
0.8205967427 	2.904936908 	-0.0001365352834 	9.954267154e-09
0.8234210268 	2.901363307 	-0.0001896605361 	1.066081102e-08
0.8262141429 	2.897794783 	-0.0002421820937 	1.134649818e-08
0.8289764348 	2.894230673 	-0.0002941036682 	1.201369837e-08
0.8317082427 	2.890670284 	-0.0003454283005 	1.266482577e-08
0.8344099031 	2.88711288 	-0.0003961583018 	1.330232478e-08
0.8370817486 	2.883557689 	-0.0004462952021 	1.392865637e-08
0.8397241082 	2.880003896 	-0.0004958397064 	1.454628527e-08
0.8423373074 	2.876450641 	-0.0005447916571 	1.515766783e-08
0.844921668 	2.872897021 	-0.0005931500032 	1.576524063e-08
0.8474775082 	2.869342082 	-0.0006409127757 	1.637140998e-08
0.8500051427 	2.865784821 	-0.0006880770684 	1.697854204e-08
0.8525048829 	2.862224182 	-0.0007346390246 	1.758895379e-08
0.8549770366 	2.858659056 	-0.0007805938282 	1.820490471e-08
0.8574219081 	2.855088275 	-0.0008259357 	1.882858909e-08
0.8598397987 	2.851510614 	-0.0008706578975 	1.946212902e-08
0.862231006 	2.847924785 	-0.0009147527187 	2.010756794e-08
0.8645958245 	2.844329436 	-0.0009582115097 	2.076686468e-08
0.8669345455 	2.840723149 	-0.001001024675 	2.144188794e-08
0.8692474569 	2.837104437 	-0.001043181691 	2.213441115e-08
0.8715348435 	2.83347174 	-0.00108467112 	2.284610753e-08
0.8737969871 	2.829823424 	-0.001125480632 	2.357854535e-08
0.8760341663 	2.826157777 	-0.001165597022 	2.433318321e-08
0.8782466565 	2.822473004 	-0.001205006232 	2.511136526e-08
0.8804347301 	2.818767229 	-0.001243693382 	2.591431615e-08
0.8825986568 	2.815038485 	-0.001281642787 	2.674313564e-08
0.8847387028 	2.811284714 	-0.001318837995 	2.759879264e-08
0.8868551318 	2.807503763 	-0.001355261817 	2.848211855e-08
0.8889482045 	2.80369338 	-0.001390896359 	2.939379982e-08
0.8910181784 	2.799851209 	-0.001425723063 	3.033436953e-08
0.8930653087 	2.795974783 	-0.001459722752 	3.130419816e-08
0.8950898473 	2.792061528 	-0.001492875671 	3.230348347e-08
0.8970920436 	2.788108747 	-0.001525161545 	3.333223997e-08
0.8990721441 	2.784113626 	-0.001556559635 	3.439028833e-08
0.9010303927 	2.780073221 	-0.001587048807 	3.54772454e-08
0.9029670306 	2.775984457 	-0.001616607599 	3.659251556e-08
0.9048822962 	2.771844124 	-0.001645214313 	3.773528406e-08
0.9067764254 	2.767648869 	-0.001672847102 	3.890451268e-08
0.9086496514 	2.763395194 	-0.001699484076 	4.009893689e-08
0.910502205 	2.759079448 	-0.001725103421 	4.131706246e-08
0.9123343142 	2.754697826 	-0.001749683518 	4.255715657e-08
0.9141462048 	2.750246361 	-0.001773203096 	4.381722528e-08
0.9159380997 	2.745720923 	-0.001795641372 	4.509496435e-08
0.9177102197 	2.741117211 	-0.001816978225 	4.638766565e-08
0.9194627831 	2.736430752 	-0.001837194371 	4.769205577e-08
0.9211960055 	2.731656891 	-0.001856271553 	4.900404492e-08
0.9229101006 	2.726790796 	-0.00187419275 	5.031838239e-08
0.9246052793 	2.721827444 	-0.001890942379 	5.162817949e-08
0.9262817504 	2.71676162 	-0.001906506554 	5.292392283e-08
0.9279397204 	2.711587914 	-0.001920873733 	5.419253239e-08
0.9295793934 	2.706300711 	-0.001934035084 	5.542249282e-08
0.9312009714 	2.700894188 	-0.001945979369 	5.662678055e-08
0.9328046541 	2.695362312 	-0.001956678144 	5.766576715e-08
0.9343906389 	2.689698824 	-0.001966239615 	5.849618151e-08
0.9359591211 	2.683896689 	-0.001974600114 	5.963560847e-08
0.937510294 	2.677941461 	-0.00198147774 	6.122986374e-08
0.9390443485 	2.671805909 	-0.001986757512 	6.346723649e-08
0.9405614735 	2.66545734 	-0.001990054983 	6.641246149e-08
0.942061856 	2.658863334 	-0.001990885808 	6.956384765e-08
0.9435456805 	2.651990261 	-0.00198899079 	7.286231142e-08
0.9450131299 	2.644802247 	-0.001984094233 	7.640142183e-08
0.946464385 	2.637260758 	-0.001975919585 	8.020271867e-08
0.9478996243 	2.629324602 	-0.001964197418 	8.423195852e-08
0.9493190246 	2.620950149 	-0.001948663198 	8.843601042e-08
0.9507227608 	2.612091798 	-0.001929069402 	9.275433123e-08
0.9521110058 	2.602702668 	-0.001905196451 	9.712449352e-08
0.9534839303 	2.592735467 	-0.001876863926 	1.014772193e-07
0.9548417036 	2.582143449 	-0.001843941174 	1.057317933e-07
0.9561844929 	2.570881386 	-0.001806356953 	1.097966227e-07
0.9575124634 	2.558906446 	-0.001764107466 	1.135738341e-07
0.9588257788 	2.546178926 	-0.001717261816 	1.169649345e-07
0.9601246008 	2.532662758 	-0.001665964256 	1.198756984e-07
0.9614090893 	2.518325775 	-0.001610437626 	1.222207891e-07
0.9626794024 	2.503139762 	-0.001550978517 	1.239290238e-07
0.9639356968 	2.488475883 	-0.001493405255 	1.24879751e-07
0.9647540487 	2.476043689 	-0.001444730419 	1.251845353e-07
0.9655573034 	2.46473894 	-0.001400782228 	1.251055348e-07
0.9663457395 	2.453178698 	-0.001356276163 	1.247055865e-07
0.9671196303 	2.441369859 	-0.001311369983 	1.239936133e-07
0.9678792442 	2.42931959 	-0.001266224206 	1.229828677e-07
0.9686248445 	2.417035134 	-0.001220993458 	1.216892098e-07
0.9693566897 	2.404523653 	-0.001175823569 	1.201299276e-07
0.9700750337 	2.391792091 	-0.00113085119 	1.183233536e-07
0.9707801255 	2.378847072 	-0.001086203468 	1.162885982e-07
0.9714722095 	2.365694814 	-0.001041997833 	1.140453032e-07
0.9721515258 	2.352341062 	-0.000998341949 	1.116134066e-07
0.9728183099 	2.338791036 	-0.0009553338022 	1.090129165e-07
0.9734727929 	2.325049394 	-0.0009130618656 	1.062637013e-07
0.9741152019 	2.311120196 	-0.0008716053376 	1.033853041e-07
0.9747457596 	2.297006883 	-0.0008310344292 	1.003967861e-07
0.9753646845 	2.282712253 	-0.0007914106925 	9.731659592e-08
0.9759721914 	2.268238446 	-0.0007527873801 	9.416246385e-08
0.9765684907 	2.253586927 	-0.0007152098292 	9.095131735e-08
0.9771537895 	2.238758476 	-0.000678715864 	8.769921433e-08
0.9777282904 	2.223753174 	-0.0006433362112 	8.442129277e-08
0.9782921928 	2.20857039 	-0.0006090949235 	8.113173507e-08
0.9788456922 	2.193208777 	-0.0005760098073 	7.784374563e-08
0.9793889805 	2.177666254 	-0.0005440928513 	7.456954039e-08
0.979922246 	2.161939999 	-0.000513350651 	7.132034696e-08
0.9804456737 	2.146026441 	-0.000483784828 	6.8106414e-08
0.9809594451 	2.129921243 	-0.0004553924401 	6.493702839e-08
0.9814637383 	2.11361929 	-0.0004281663816 	6.182053894e-08
0.9819587281 	2.097114677 	-0.0004020957697 	5.876438559e-08
0.9824445862 	2.080400691 	-0.0003771663181 	5.57751329e-08
0.9829214811 	2.06346979 	-0.0003533606946 	5.285850712e-08
0.9833895781 	2.046313582 	-0.0003306588631 	5.001943579e-08
0.9838490396 	2.028922797 	-0.0003090384084 	4.726208936e-08
0.9843000247 	2.011287261 	-0.0002884748445 	4.458992413e-08
0.98474269 	1.993395855 	-0.000268941905 	4.200572598e-08
0.9851771888 	1.97523648 	-0.0002504118163 	3.951165442e-08
0.9856036719 	1.956796006 	-0.0002328555536 	3.710928659e-08
0.9860222871 	1.93806022 	-0.0002162430792 	3.479966084e-08
0.9864331796 	1.919013764 	-0.0002005435649 	3.258331961e-08
0.9868364919 	1.899640064 	-0.0001857255967 	3.046035144e-08
0.9872323637 	1.87992125 	-0.0001717573644 	2.843043184e-08
0.9876209323 	1.859838066 	-0.0001586068353 	2.649286287e-08
0.9880023326 	1.839369761 	-0.0001462419128 	2.464661136e-08
0.9883766967 	1.818493978 	-0.0001346305808 	2.289034562e-08
0.9887441544 	1.797186618 	-0.000123741034 	2.12224706e-08
0.9891048331 	1.775421691 	-0.0001135417961 	1.964116146e-08
0.9894588579 	1.75317115 	-0.0001040018246 	1.814439533e-08
0.9898063516 	1.730404702 	-9.50906012e-05 	1.672998093e-08
0.9901474347 	1.707089597 	-8.67782037e-05 	1.539558712e-08
0.9904822253 	1.683190389 	-7.903541914e-05 	1.413878489e-08
0.9908108397 	1.658668667 	-7.183411089e-05 	1.295706136e-08
0.9911333916 	1.633482727 	-6.514656817e-05 	1.184778313e-08
0.9914499931 	1.60758716 	-5.894496632e-05 	1.08082749e-08
0.9917607538 	1.580932414 	-5.320357235e-05 	9.835950127e-09
0.9920657815 	1.553464494 	-4.789865622e-05 	8.928239533e-09
0.9923651819 	1.525124795 	-4.300617602e-05 	8.082515017e-09
0.992659059 	1.495849822 	-3.85035578e-05 	7.296164638e-09
0.9929475145 	1.4655708 	-3.437169335e-05 	6.566623866e-09
0.9932306485 	1.434213306 	-3.057703173e-05 	5.891236974e-09
0.9935085592 	1.401697103 	-2.703222744e-05 	5.267115944e-09
0.9937813429 	1.370870208 	-2.406604999e-05 	4.739316243e-09
0.9939569055 	1.344997301 	-2.19327816e-05 	4.340247227e-09
0.9941324681 	1.321326276 	-2.015949471e-05 	4.005803846e-09
0.9943080307 	1.296702603 	-1.843960375e-05 	3.686269606e-09
0.9944835934 	1.271060139 	-1.680861926e-05 	3.381777889e-09
0.994659156 	1.244325425 	-1.527090335e-05 	3.092231291e-09
0.9948347186 	1.216417201 	-1.382327757e-05 	2.817536107e-09
0.9950102812 	1.187249562 	-1.246421363e-05 	2.557633568e-09
0.9951858439 	1.156732516 	-1.119221075e-05 	2.31242567e-09
0.9953614065 	1.12476969 	-1.000513556e-05 	2.08176308e-09
0.9955369691 	1.091257495 	-8.900379293e-06 	1.865468753e-09
0.9957125317 	1.056085508 	-7.875049621e-06 	1.663330002e-09
0.9958880943 	1.019137485 	-6.927020404e-06 	1.4751043e-09
0.996063657 	0.9802929812 	-6.052125884e-06 	1.300720329e-09
0.9962392196 	0.9394298051 	-5.215887511e-06 	1.140203575e-09
0.9964147822 	0.8964275759 	-4.363252546e-06 	9.91959264e-10
0.9965903448 	0.851172551 	-3.883939516e-06 	8.365752784e-10
0.9967659075 	0.8035623302 	-5.724034559e-06 	7.358529748e-10
0.9969414701 	0.7534903268 	-4.017726514e-06 	6.639869226e-10
0.9971170327 	0.7007213299 	2.562796079e-06 	5.169338717e-10
0.9972925953 	0.6449673226 	2.598086932e-06 	4.086018415e-10
0.997468158 	0.5862624204 	-7.138845943e-07 	3.525110636e-10
0.9976437206 	0.5249989096 	-1.647415754e-06 	2.770477013e-10
0.9978192832 	0.4617278144 	-2.480926757e-06 	2.106175463e-10
0.9979948458 	0.3970517338 	-2.508298842e-06 	1.542853297e-10
0.9981704085 	0.3315072835 	-1.825404495e-06 	1.074527925e-10
0.9983459711 	0.2654899554 	-9.939086543e-07 	6.919700738e-11
0.9985215337 	0.1992417943 	-4.111148245e-07 	3.918936007e-11
0.9986970963 	0.1328842561 	-1.237911919e-07 	1.754216098e-11
0.998872659 	0.06646539369 	-2.083817804e-08 	4.738331238e-12
0.9990482216 	0.02799069499 	2.997957142e-10 	5.330985048e-13
0.9990482216 	0.02799069499 	2.997957142e-10 	5.330985048e-13
