0.3985144112 	0.00935595969 	-0.001594902409 	1.068581636e-06
0.3985144112 	0.00935595969 	-0.001594902409 	1.068581636e-06
0.3987124635 	0.02806192605 	-0.004808509833 	2.86157494e-06
0.3989105207 	0.05822886484 	-0.009966147329 	5.41672381e-06
0.3991085821 	0.09049529376 	-0.01542869186 	7.684165778e-06
0.3993066473 	0.1248196045 	-0.02120528807 	9.670285999e-06
0.3995047155 	0.1611153236 	-0.027281658 	1.13802324e-05
0.3997027863 	0.1992103195 	-0.03362891082 	1.281360384e-05
0.399900859 	0.2388040599 	-0.04019672832 	1.396443178e-05
0.4000989332 	0.2794426589 	-0.04690916315 	1.482510766e-05
0.4002970082 	0.3205404756 	-0.05366771048 	1.539485169e-05
0.4004950834 	0.3614590519 	-0.06036460229 	1.568899975e-05
0.4006931583 	0.4016175076 	-0.06690212935 	1.574245649e-05
0.4008912323 	0.4405815764 	-0.07320959526 	1.560830735e-05
0.4010893049 	0.478096468 	-0.07924589909 	1.53263811e-05
0.4012873754 	0.5141261567 	-0.08500399031 	1.497569501e-05
0.4014854434 	0.5488590292 	-0.09052001246 	1.464237912e-05
0.4016835082 	0.582526643 	-0.095837782 	1.42966268e-05
0.4018815693 	0.615237793 	-0.1009740013 	1.389407771e-05
0.4020796261 	0.6470246844 	-0.1059345368 	1.344072155e-05
0.4022776781 	0.67791464 	-0.110726598 	1.294480152e-05
0.4024757247 	0.7079382179 	-0.1153567326 	1.241475362e-05
0.4026737653 	0.7371279593 	-0.1198316541 	1.185879749e-05
0.4028717994 	0.7655165605 	-0.1241580408 	1.128407199e-05
0.4030698264 	0.7931362616 	-0.1283424321 	1.06968828e-05
0.4032678458 	0.8200209472 	-0.13239156 	1.010270289e-05
0.4034658569 	0.8462059432 	-0.1363123031 	9.505991477e-06
0.4036638593 	0.8717238222 	-0.1401110199 	8.910520089e-06
0.4038618524 	0.8966035604 	-0.1437934012 	8.319642928e-06
0.4040598357 	0.9208720649 	-0.1473647354 	7.736293079e-06
0.4042578085 	0.9445545092 	-0.1508300308 	7.1630345e-06
0.4044557703 	0.9708245716 	-0.1546514479 	6.578909756e-06
0.4047633343 	1.002698777 	-0.1592525704 	5.758340094e-06
0.4050766481 	1.036954445 	-0.1641566383 	4.94103358e-06
0.4053958166 	1.070626228 	-0.1689344117 	4.155709298e-06
0.4057209459 	1.103733913 	-0.1735899881 	3.408521915e-06
0.4060521443 	1.136297262 	-0.1781274996 	2.705060685e-06
0.4063895215 	1.168334983 	-0.1825509077 	2.050425336e-06
0.4067331892 	1.199863042 	-0.1868636674 	1.449314247e-06
0.4070832607 	1.230894269 	-0.1910686674 	9.060306977e-07
0.4074398513 	1.261439244 	-0.1951683887 	4.244562803e-07
0.4078030778 	1.291507026 	-0.1991650266 	8.049138888e-09
0.4078108127 	1.292125828 	-0.1992464779 	-3.383261554e-06
0.4081725207 	1.321083134 	-0.2030545811 	9.15247555e-08
0.4085488195 	1.350196171 	-0.2068445738 	1.122347295e-07
0.4089321083 	1.378852595 	-0.2105367296 	5.768469551e-08
0.4093225113 	1.40705758 	-0.2141324892 	-7.35305645e-08
0.4097201548 	1.434815604 	-0.2176331553 	-2.825154166e-07
0.4101251668 	1.462130556 	-0.2210399129 	-5.700763699e-07
0.4105376773 	1.489005816 	-0.2243538651 	-9.367235796e-07
0.4109578179 	1.515474669 	-0.2275796729 	-1.383079919e-06
0.4113876857 	1.541589259 	-0.2307239764 	-1.91129409e-06
0.4118269536 	1.56733922 	-0.2337858747 	-2.522101835e-06
0.4122743862 	1.592675253 	-0.2367599267 	-3.214009471e-06
0.412730134 	1.617580069 	-0.2396445682 	-3.98621368e-06
0.4131943501 	1.642057046 	-0.2424407505 	-4.838004325e-06
0.4136671905 	1.666109755 	-0.2451494303 	-5.768449313e-06
0.4141488139 	1.68974202 	-0.2477715793 	-6.776402479e-06
0.4146393819 	1.712957956 	-0.2503081917 	-7.860513798e-06
0.4151390593 	1.735762014 	-0.2527602906 	-9.019240491e-06
0.4156480135 	1.75815901 	-0.2551289318 	-1.025085903e-05
0.4161664152 	1.780154148 	-0.2574152074 	-1.155347791e-05
0.4166944381 	1.801753039 	-0.2596202479 	-1.292505104e-05
0.4172322591 	1.822961707 	-0.2617452232 	-1.436339155e-05
0.4177800583 	1.843786596 	-0.2637913428 	-1.586618607e-05
0.418338019 	1.864234566 	-0.2657598557 	-1.743100922e-05
0.418906328 	1.884312889 	-0.2676520484 	-1.905533837e-05
0.4194851754 	1.904029235 	-0.2694692435 	-2.073656843e-05
0.4200747546 	1.923391655 	-0.2712127966 	-2.247202661e-05
0.4206752628 	1.942408561 	-0.2728840931 	-2.425898681e-05
0.4212869005 	1.961088698 	-0.2744845437 	-2.609468304e-05
0.421909872 	1.979441116 	-0.2760155806 	-2.797632127e-05
0.4225443853 	1.997475141 	-0.27747866 	-2.990109857e-05
0.4231906521 	2.01520876 	-0.2788759072 	-3.186663744e-05
0.4238501406 	2.032682203 	-0.2802110058 	-3.387466338e-05
0.4245253395 	2.049916839 	-0.2814859984 	-3.592838864e-05
0.4252130261 	2.06688887 	-0.282699682 	-3.801508282e-05
0.4259134289 	2.08358674 	-0.2838518422 	-4.013082105e-05
0.4266267807 	2.100021184 	-0.2849440271 	-4.227288436e-05
0.4273533182 	2.116202963 	-0.2859777509 	-4.443862019e-05
0.4280932826 	2.132142834 	-0.2869545052 	-4.662544841e-05
0.4288469195 	2.147851511 	-0.2878757568 	-4.883087083e-05
0.4296144787 	2.163339627 	-0.2887429427 	-5.105247508e-05
0.430396215 	2.178617685 	-0.2895574642 	-5.328793517e-05
0.4311923873 	2.193696013 	-0.29032068 	-5.553500666e-05
0.4320032595 	2.208584703 	-0.2910338991 	-5.779151339e-05
0.4328291002 	2.223293559 	-0.291698372 	-6.005532246e-05
0.4336701831 	2.237832062 	-0.2923152864 	-6.232430791e-05
0.4345267865 	2.252209394 	-0.2928857755 	-6.459632447e-05
0.435399194 	2.26643826 	-0.2934110776 	-6.686936992e-05
0.4362886099 	2.280550656 	-0.2938930165 	-6.914446118e-05
0.4371993628 	2.294571329 	-0.2943331237 	-7.142994493e-05
0.4381268879 	2.310229569 	-0.2947822783 	-7.3763718e-05
0.4395501106 	2.329152634 	-0.2952558249 	-7.712359127e-05
0.4409884004 	2.349262852 	-0.2956855642 	-8.021539145e-05
0.44244192 	2.368858606 	-0.2960272663 	-7.721866637e-05
0.443910834 	2.38798105 	-0.2962871161 	-7.413820993e-05
0.4453953093 	2.406667027 	-0.2964704694 	-7.099089488e-05
0.4468955146 	2.42494919 	-0.2965821287 	-6.779147922e-05
0.448411621 	2.442879747 	-0.2966262876 	-6.455294981e-05
0.449951937 	2.46050933 	-0.2966064333 	-6.126328622e-05
0.4515094159 	2.477835032 	-0.2965256881 	-5.795649854e-05
0.4530833577 	2.494851098 	-0.2963868457 	-5.464387945e-05
0.4546739418 	2.511573117 	-0.2961926871 	-5.133318657e-05
0.4562813499 	2.528017138 	-0.2959456746 	-4.803120648e-05
0.4579057659 	2.544197635 	-0.2956480489 	-4.474384495e-05
0.4595473762 	2.560131544 	-0.2953018103 	-4.147623225e-05
0.4612079065 	2.57585195 	-0.2949083105 	-3.822861379e-05
0.4628933738 	2.591383667 	-0.2944689215 	-3.499196604e-05
0.4645966365 	2.606715211 	-0.2939859804 	-3.179107972e-05
0.4663178905 	2.621842489 	-0.2934616885 	-2.862918667e-05
0.4680573339 	2.636778471 	-0.2928980071 	-2.550920772e-05
0.4698151678 	2.651536216 	-0.2922967971 	-2.243394072e-05
0.4715915958 	2.666129807 	-0.2916597283 	-1.940614524e-05
0.4733876059 	2.680586924 	-0.2909873582 	-1.642668606e-05
0.4752105253 	2.694927966 	-0.2902797986 	-1.348448205e-05
0.477052684 	2.709131475 	-0.2895377843 	-1.060229531e-05
0.4789142958 	2.723167707 	-0.2887603774 	-7.781755959e-06
0.480795578 	2.737004749 	-0.2879443601 	-5.022743342e-06
0.4826967503 	2.750591959 	-0.2870846976 	-2.322955641e-06
0.4843826563 	2.762244504 	-0.2862859595 	1.061542969e-05
0.48461787 	2.763869745 	-0.2861732574 	-3.697918475e-07
0.4865627896 	2.776769581 	-0.285194917 	-3.35960911e-06
0.488532044 	2.789223346 	-0.2841522054 	-6.299553252e-06
0.4905221263 	2.801154311 	-0.2830416141 	-9.18337502e-06
0.4925332712 	2.812514872 	-0.2818615018 	-1.201121411e-05
0.494565717 	2.823286697 	-0.2806123084 	-1.478043864e-05
0.4966197052 	2.833478709 	-0.2792959528 	-1.748625171e-05
0.4986993654 	2.843122168 	-0.2779151464 	-2.01298289e-05
0.500805203 	2.852249759 	-0.2764747367 	-2.270167682e-05
0.5029333272 	2.860891827 	-0.2749811699 	-2.518801383e-05
0.5050839924 	2.869085681 	-0.2734399971 	-2.758553615e-05
0.507257457 	2.876869639 	-0.2718555374 	-2.989249934e-05
0.5094539826 	2.884281237 	-0.2702300991 	-3.210833662e-05
0.5116800765 	2.891351994 	-0.2685648919 	-3.424232295e-05
0.5139311403 	2.898095258 	-0.2668629264 	-3.628406068e-05
0.5162060616 	2.904518287 	-0.2651269652 	-3.823337732e-05
0.5185051168 	2.910628968 	-0.263358383 	-4.009254005e-05
0.5208285862 	2.916434864 	-0.2615572587 	-4.186341629e-05
0.523180392 	2.92194303 	-0.2597227683 	-4.355255784e-05
0.5255607218 	2.927154011 	-0.2578554937 	-4.51571983e-05
0.5279663095 	2.932064323 	-0.2559572232 	-4.667652136e-05
0.530397451 	2.936673463 	-0.254029158 	-4.811398099e-05
0.5328544466 	2.94098478 	-0.2520711477 	-4.947034535e-05
0.5353409917 	2.945003154 	-0.2500821695 	-5.07563861e-05
0.5378573206 	2.948728956 	-0.2480630751 	-5.196917357e-05
0.5404003993 	2.952160236 	-0.2460160842 	-5.309868079e-05
0.5429705454 	2.955297809 	-0.2439428357 	-5.414288742e-05
0.5455680808 	2.958145643 	-0.241844048 	-5.509911743e-05
0.5481981886 	2.960710699 	-0.2397201968 	-5.59687621e-05
0.5508576999 	2.963000321 	-0.2375738005 	-5.674605491e-05
0.5535455538 	2.965024502 	-0.2354079169 	-5.74324042e-05
0.556262091 	2.96679641 	-0.2332243523 	-5.655440173e-05
0.5590093701 	2.968330888 	-0.2310239668 	-5.430803471e-05
0.5617900605 	2.969642491 	-0.2288081493 	-5.212821863e-05
0.5646004358 	2.970744 	-0.2265792129 	-5.001888754e-05
0.5674408566 	2.971647594 	-0.2243388294 	-4.799195828e-05
0.5703118841 	2.972364963 	-0.2220872925 	-4.604381423e-05
0.5732187732 	2.972906816 	-0.2198246342 	-4.416603415e-05
0.5761567623 	2.973281921 	-0.2175527621 	-4.23685632e-05
0.5791262329 	2.973498672 	-0.2152733542 	-4.065023966e-05
0.5821275725 	2.973564809 	-0.2129863108 	-3.900848847e-05
0.5851658635 	2.973487366 	-0.2106913769 	-3.743990679e-05
0.5882368608 	2.973272461 	-0.2083901651 	-3.594970609e-05
0.591340855 	2.97292607 	-0.2060839828 	-3.453514545e-05
0.5944786826 	2.972453449 	-0.203772653 	-3.319269278e-05
0.5976542396 	2.97185937 	-0.2014560259 	-3.192022609e-05
0.6008639663 	2.971148348 	-0.1991354408 	-3.07200963e-05
0.6041082905 	2.970324649 	-0.1968117051 	-2.958891145e-05
0.6073891503 	2.969391777 	-0.1944845994 	-2.852246625e-05
0.6107078431 	2.968353019 	-0.1921543713 	-2.752115705e-05
0.6140623721 	2.967211709 	-0.1898220618 	-2.658434898e-05
0.6174531904 	2.965970636 	-0.1874879244 	-2.570844376e-05
0.620883615 	2.964632034 	-0.1851517006 	-2.489014562e-05
0.6243517981 	2.963198298 	-0.1828141157 	-2.413099584e-05
0.6278575798 	2.961671667 	-0.1804757493 	-2.342785022e-05
0.6314026713 	2.960053641 	-0.1781365044 	-2.277683706e-05
0.6349881336 	2.958345614 	-0.1757965196 	-2.217822628e-05
0.6386125585 	2.95654913 	-0.1734564323 	-2.163034766e-05
0.642276724 	2.954665096 	-0.1711163223 	-2.112939267e-05
0.6459832748 	2.952693975 	-0.1687760263 	-2.06740186e-05
0.64973021 	2.950636605 	-0.1664361404 	-2.026384923e-05
0.6535180509 	2.948493307 	-0.1640968189 	-1.989517893e-05
0.6573495086 	2.946263779 	-0.1617578483 	-1.956578994e-05
0.6612230164 	2.94394809 	-0.1594196577 	-1.927583067e-05
0.665138934 	2.941545905 	-0.1570823873 	-1.902170137e-05
0.6690995676 	2.939056249 	-0.1547458773 	-1.880107077e-05
0.6731039138 	2.936478423 	-0.1524104075 	-1.861400327e-05
0.6771522377 	2.933811344 	-0.1500760563 	-1.845699129e-05
0.681246681 	2.931053329 	-0.1477426842 	-1.832795969e-05
0.6853863423 	2.928202922 	-0.1454104922 	-1.822667602e-05
0.6895716523 	2.925258215 	-0.1430794954 	-1.814960678e-05
0.6938046212 	2.92221671 	-0.1407495411 	-1.809533907e-05
0.6980842929 	2.919084637 	-0.1384268232 	-1.806390662e-05
0.7023638346 	2.915887052 	-0.1361306665 	-1.805096977e-05
0.7065967077 	2.912650731 	-0.1338793763 	-1.805438954e-05
0.7107825189 	2.90938529 	-0.131677316 	-1.80723396e-05
0.71492229 	2.906091387 	-0.1295228316 	-1.810126887e-05
0.7190167156 	2.902769409 	-0.1274142917 	-1.814050641e-05
0.7230657653 	2.899419692 	-0.1253501715 	-1.818761577e-05
0.7270703972 	2.896042182 	-0.1233289918 	-1.824008677e-05
0.7310311116 	2.892636642 	-0.1213493112 	-1.829772177e-05
0.7349480478 	2.88920275 	-0.1194097611 	-1.835858712e-05
0.7388220362 	2.885739827 	-0.1175090202 	-1.842082276e-05
0.7426535726 	2.882247022 	-0.1156457958 	-1.848449957e-05
0.7464428493 	2.878723401 	-0.1138188603 	-1.854821955e-05
0.7501905479 	2.875167705 	-0.1120270325 	-1.861051314e-05
0.7538972527 	2.871578466 	-0.1102691429 	-1.867156724e-05
0.7575631456 	2.867954169 	-0.108544092 	-1.815267615e-05
0.7611887622 	2.864293002 	-0.1068508182 	-1.735437996e-05
0.7647748095 	2.860592902 	-0.1051882612 	-1.657914058e-05
0.7683214281 	2.856851787 	-0.1035554362 	-1.582645362e-05
0.7718290835 	2.853067348 	-0.1019513841 	-1.509636112e-05
0.7752984274 	2.849237007 	-0.1003751614 	-1.438842111e-05
0.7787297262 	2.84535813 	-0.09882587159 	-1.370169122e-05
0.7821233653 	2.841427956 	-0.09730264544 	-1.30360793e-05
0.7854798396 	2.837443493 	-0.09580464995 	-1.239141894e-05
0.788799627 	2.833401613 	-0.09433106404 	-1.176677051e-05
0.7920830061 	2.829299141 	-0.09288110484 	-1.116172962e-05
0.795330395 	2.825132749 	-0.09145401979 	-1.057612552e-05
0.7985422953 	2.820898928 	-0.09004907406 	-1.000954048e-05
0.8017190362 	2.816594109 	-0.08866555645 	-9.461118518e-06
0.8048609729 	2.812214649 	-0.08730277865 	-8.930613898e-06
0.8079685004 	2.807756748 	-0.08596007883 	-8.417800216e-06
0.811042089 	2.803216464 	-0.08463680653 	-7.922121404e-06
0.8140820236 	2.798589804 	-0.08333233398 	-7.442921005e-06
0.8170886756 	2.793872679 	-0.08204605187 	-6.979964849e-06
0.820062419 	2.789060832 	-0.08077736937 	-6.533006774e-06
0.8230036812 	2.784149866 	-0.07952570667 	-6.101502292e-06
0.8259127482 	2.779135316 	-0.0782905013 	-5.684904973e-06
0.8287899789 	2.774012606 	-0.07707120806 	-5.282975462e-06
0.8316357286 	2.768777006 	-0.07586729713 	-4.895466425e-06
0.8344503826 	2.763423667 	-0.07467825389 	-4.52194566e-06
0.8372342416 	2.757947683 	-0.07350357699 	-4.161884443e-06
0.8399876419 	2.752344093 	-0.07234278234 	-3.815045589e-06
0.8427109212 	2.74660789 	-0.07119540562 	-3.481191789e-06
0.8454044284 	2.740734056 	-0.07006100353 	-3.160025224e-06
0.8480684794 	2.734717642 	-0.06893914812 	-2.8510369e-06
0.850703385 	2.728553834 	-0.06782943009 	-2.553971716e-06
0.8533094671 	2.722237996 	-0.06673146921 	-2.26861012e-06
0.8558870443 	2.715765716 	-0.06564490753 	-1.994733052e-06
0.8584364432 	2.709132886 	-0.06456941259 	-1.731969844e-06
0.8609579507 	2.702335794 	-0.0635046733 	-1.479984524e-06
0.8634518736 	2.695371161 	-0.06245040801 	-1.238579116e-06
0.865918515 	2.688236177 	-0.06140636071 	-1.007557064e-06
0.8683581774 	2.680928534 	-0.06037230442 	-7.867153919e-07
0.8707711573 	2.673446449 	-0.05934803506 	-5.757115817e-07
0.8731577363 	2.665788683 	-0.05833336767 	-3.743080282e-07
0.8755182041 	2.657954518 	-0.05732814489 	-1.823267788e-07
0.8778475053 	2.649962046 	-0.05633450472 	1.148608571e-07
0.8778528463 	2.64994372 	-0.05633222501 	-3.62420882e-10
0.8801617703 	2.641756944 	-0.05534502101 	-1.540140697e-07
0.8824454411 	2.63339432 	-0.05436691611 	-2.997571165e-07
0.8847041277 	2.624856757 	-0.0533978109 	-4.377790845e-07
0.8869381035 	2.616145419 	-0.05243762028 	-5.682260421e-07
0.8891476383 	2.60726164 	-0.05148626442 	-6.912443837e-07
0.8913329993 	2.598206851 	-0.0505436683 	-8.06980802e-07
0.8934944521 	2.588982507 	-0.04960976133 	-9.156245301e-07
0.8956322522 	2.579590032 	-0.04868446879 	-1.017376504e-06
0.8977466575 	2.570030751 	-0.0477677154 	-1.11237677e-06
0.8998379232 	2.560305835 	-0.04685942608 	-1.200764544e-06
0.9019063017 	2.550416251 	-0.04595951891 	-1.28267804e-06
0.9039520431 	2.540362718 	-0.04506791106 	-1.358256724e-06
0.9059753932 	2.530145678 	-0.04418451328 	-1.427683701e-06
0.9079765939 	2.519765268 	-0.04330922752 	-1.491107895e-06
0.9099558866 	2.509221299 	-0.04244195347 	-1.548655935e-06
0.9119135102 	2.498513233 	-0.04158258498 	-1.600452109e-06
0.9138497008 	2.487640167 	-0.04073100862 	-1.646617852e-06
0.9157646922 	2.476600814 	-0.0398871082 	-1.687272964e-06
0.9176587147 	2.465393497 	-0.03905076141 	-1.722563375e-06
0.9195319953 	2.454016132 	-0.03822183787 	-1.752612824e-06
0.9213847601 	2.442466215 	-0.03740020463 	-1.777526897e-06
0.9232172326 	2.430740803 	-0.03658572417 	-1.797407853e-06
0.9250296339 	2.418836499 	-0.03577825336 	-1.812354326e-06
0.9268221827 	2.406749422 	-0.03497764467 	-1.822461292e-06
0.9285950953 	2.394475182 	-0.03418374815 	-1.827827972e-06
0.9303485844 	2.382008849 	-0.03339640701 	-1.828560657e-06
0.9320828617 	2.369344912 	-0.03261545925 	-1.824741909e-06
0.9337981364 	2.356477231 	-0.0318407405 	-1.816450052e-06
0.9354946155 	2.343398981 	-0.03107208072 	-1.803760138e-06
0.9371725039 	2.330102587 	-0.03030930451 	-1.786743951e-06
0.9388320042 	2.316579645 	-0.02955223146 	-1.765469797e-06
0.9404733165 	2.302820834 	-0.02880067704 	-1.740006825e-06
0.9420966385 	2.288815812 	-0.02805444883 	-1.710425428e-06
0.9437021662 	2.274553097 	-0.02731334723 	-1.676781197e-06
0.9452900935 	2.260019935 	-0.02657716706 	-1.639127744e-06
0.9468606123 	2.245202154 	-0.02584569473 	-1.597518451e-06
0.9484139124 	2.230084006 	-0.02511870877 	-1.55200709e-06
0.9499501814 	2.214648023 	-0.02439597975 	-1.502646989e-06
0.9514696049 	2.198874882 	-0.02367727279 	-1.449487771e-06
0.9529723665 	2.182743313 	-0.0229623477 	-1.392573613e-06
0.9544586475 	2.166230068 	-0.02225096064 	-1.331936003e-06
0.9559286278 	2.149310025 	-0.02154287318 	-1.26760803e-06
0.957382485 	2.131956494 	-0.02083784667 	-1.199647328e-06
0.9588203951 	2.115667928 	-0.02019488009 	-1.136108999e-06
0.9597571038 	2.102171499 	-0.01967570442 	-1.079401894e-06
0.9606765719 	2.090106146 	-0.01922166269 	-1.029666819e-06
0.9615791158 	2.07794522 	-0.01877364913 	-9.790818532e-07
0.9624650466 	2.06568161 	-0.01833151697 	-9.277253837e-07
0.9633346692 	2.053308639 	-0.01789512718 	-8.756754627e-07
0.9641882832 	2.040819965 	-0.01746435369 	-8.230231307e-07
0.9650261827 	2.028209533 	-0.0170390798 	-7.698698349e-07
0.9658486563 	2.015471532 	-0.01661919769 	-7.163195913e-07
0.9666559876 	2.00260036 	-0.01620460777 	-6.624714476e-07
0.9674484547 	1.989590606 	-0.01579521845 	-6.08418168e-07
0.9682263307 	1.976437021 	-0.01539094612 	-5.542489125e-07
0.9689898839 	1.96313451 	-0.01499171509 	-5.000515559e-07
0.9697393775 	1.949678116 	-0.01459745754 	-4.459139639e-07
0.9704750697 	1.936063012 	-0.01420811341 	-3.919244564e-07
0.9711972145 	1.922284489 	-0.01382363032 	-3.381725075e-07
0.9719060607 	1.908337946 	-0.0134439634 	-2.847505957e-07
0.9726018528 	1.894218887 	-0.01306907524 	-2.317561416e-07
0.9732848309 	1.879922904 	-0.01269893571 	-1.79291559e-07
0.9739552305 	1.865445677 	-0.01233352177 	-1.274627955e-07
0.9746132828 	1.850782964 	-0.01197281721 	-7.637769665e-08
0.9752592151 	1.83593059 	-0.01161681263 	-2.614461331e-08
0.97589325 	1.820884442 	-0.011265505 	2.312864801e-08
0.9765156064 	1.805640461 	-0.01091889737 	7.133518313e-08
0.9771264991 	1.790194628 	-0.01057699874 	1.183685558e-07
0.9777261389 	1.774542956 	-0.0102398237 	1.641230254e-07
0.9783147328 	1.758681477 	-0.009907392102 	2.084946652e-07
0.978892484 	1.742606225 	-0.009579728809 	2.513823777e-07
0.9794595919 	1.726313225 	-0.00925686332 	2.926885674e-07
0.9800162523 	1.709798472 	-0.008938829384 	3.323202056e-07
0.9805626574 	1.693057904 	-0.008625664565 	3.70188951e-07
0.981098996 	1.67608738 	-0.008317409849 	4.062109272e-07
0.9816254531 	1.658882646 	-0.008014109271 	4.403072834e-07
0.9821422107 	1.641439302 	-0.007715809504 	4.724044366e-07
0.9826494471 	1.623752761 	-0.007422559433 	5.024343359e-07
0.9831473377 	1.605818205 	-0.007134409725 	5.269430213e-07
0.9836360544 	1.587630529 	-0.006851412405 	5.473080996e-07
0.984115766 	1.56918429 	-0.006573620439 	5.651629818e-07
0.9845866383 	1.550473632 	-0.006301087323 	5.805398938e-07
0.9850488339 	1.531492216 	-0.006033866688 	5.934758157e-07
0.9855025126 	1.512233133 	-0.005772011907 	6.040128759e-07
0.985947831 	1.492688813 	-0.005515575694 	6.121983001e-07
0.9863849432 	1.472850912 	-0.005264609736 	6.180843597e-07
0.9868140001 	1.4527102 	-0.005019164312 	6.21728798e-07
0.9872351501 	1.432256426 	-0.004779287975 	6.231955309e-07
0.9876485387 	1.41147817 	-0.004545027155 	6.225551496e-07
0.9880543088 	1.390362677 	-0.004316425837 	6.198844078e-07
0.9884526006 	1.368895677 	-0.004093525363 	6.152641555e-07
0.9888435519 	1.347061177 	-0.003876364174 	6.087769342e-07
0.9892272978 	1.324841244 	-0.003664977601 	6.005050742e-07
0.9896039709 	1.302215749 	-0.003459397704 	5.90529111e-07
0.9899737016 	1.279162107 	-0.003259653162 	5.789265279e-07
0.9903366176 	1.255654968 	-0.003065769333 	5.657719931e-07
0.9906928445 	1.231665898 	-0.002877768098 	5.511388732e-07
0.9910425054 	1.20716299 	-0.002695667253 	5.351038381e-07
0.9913857212 	1.182110441 	-0.002519481082 	5.177542758e-07
0.9917226107 	1.156468173 	-0.002349222367 	4.991873893e-07
0.9920532903 	1.13019159 	-0.002184902861 	4.795070472e-07
0.9923778745 	1.103231404 	-0.002026517812 	4.588252102e-07
0.9926964754 	1.075533578 	-0.001874013295 	4.372550938e-07
0.9930092033 	1.049504524 	-0.001739720184 	4.167485229e-07
0.9932104764 	1.027823682 	-0.001634369394 	3.999000286e-07
0.9934117513 	1.008112001 	-0.00154336829 	3.845491796e-07
0.9936130281 	0.9877275626 	-0.001453850231 	3.68800511e-07
0.9938143068 	0.9666238761 	-0.001365919823 	3.526838464e-07
0.9940155875 	0.9447503265 	-0.00127965784 	3.362289596e-07
0.99421687 	0.9220515639 	-0.001195141919 	3.194707813e-07
0.9944181544 	0.898466726 	-0.001112454277 	3.024473773e-07
0.9946194408 	0.8739292767 	-0.001031681722 	2.852007314e-07
0.994820729 	0.8483675891 	-0.0009529170994 	2.677747428e-07
0.9950220192 	0.8217047429 	-0.0008762588375 	2.502154947e-07
0.9952233112 	0.7938581681 	-0.0008018116324 	2.32577712e-07
0.9954246052 	0.7647402081 	-0.0007296788354 	2.149252158e-07
0.995625901 	0.734259346 	-0.0006599403426 	1.973302162e-07
0.9958271988 	0.7023221513 	-0.0005927230274 	1.798441151e-07
0.9960284984 	0.6688355002 	-0.0005291785738 	1.622491162e-07
0.9962298 	0.6337039879 	-0.0004688747555 	1.457310106e-07
0.9964311034 	0.5967731212 	-0.0004081040301 	1.297213596e-07
0.9966324088 	0.5577637903 	-0.000349195557 	1.126699757e-07
0.9968337161 	0.5164169603 	-0.0002969391747 	9.716195064e-08
0.9970350252 	0.472726425 	-0.0002488055754 	8.32048434e-08
0.9972363363 	0.4269568217 	-0.0002037791666 	6.925209402e-08
0.9974376493 	0.3795712834 	-0.0001632675593 	5.599973112e-08
0.9976389642 	0.3311658197 	-0.0001266237797 	4.375356493e-08
0.9978402809 	0.2823524487 	-9.370730862e-05 	3.283497537e-08
0.9980415996 	0.233646515 	-6.510237917e-05 	2.336788501e-08
0.9982429202 	0.1854088503 	-4.147686373e-05 	1.536679197e-08
0.9984442427 	0.1378506379 	-2.311366585e-05 	8.897669165e-09
0.9986455671 	0.09107432349 	-9.982112816e-06 	4.114952921e-09
0.9988468934 	0.04511991203 	-5.839192275e-06 	5.23251224e-10
0.9990482216 	0.01871218303 	-5.836843812e-06 	-9.373133055e-10
0.9990482216 	0.01871218303 	-5.836843812e-06 	-9.373133055e-10
