0.4330902145 	0.0216476358 	-0.002290565219 	-9.184532726e-07
0.4330902145 	0.0216476358 	-0.002290565219 	-9.184532726e-07
0.4332736287 	0.06164965601 	-0.006535151267 	-2.887388768e-06
0.4334570457 	0.1241013413 	-0.01314994878 	-5.964707968e-06
0.4336404653 	0.1873363818 	-0.01982149751 	-9.186539686e-06
0.4338238871 	0.2512787832 	-0.02655001903 	-1.256091814e-05
0.4340073109 	0.3157488171 	-0.03331725879 	-1.607458063e-05
0.4341907363 	0.3803964242 	-0.04008744452 	-1.970356273e-05
0.4343741631 	0.4446600265 	-0.04680268048 	-2.340909479e-05
0.4345575909 	0.507798657 	-0.05338537885 	-2.713562991e-05
0.4347410195 	0.5690169334 	-0.05975142796 	-3.080923396e-05
0.4349244486 	0.6276350991 	-0.06583209083 	-3.437369768e-05
0.4351078778 	0.6832341063 	-0.07157723392 	-3.774264899e-05
0.435291307 	0.735855161 	-0.07699072803 	-4.085263176e-05
0.4354747357 	0.7858672058 	-0.08212567119 	-4.376802084e-05
0.4356581637 	0.8335197524 	-0.0870054017 	-4.653220305e-05
0.4358415907 	0.8789139786 	-0.09163524637 	-4.913753264e-05
0.4360250165 	0.9221565501 	-0.09603023698 	-5.159151077e-05
0.4362084406 	0.963364621 	-0.1002035351 	-5.389993969e-05
0.4363918629 	1.002659782 	-0.1041685086 	-5.606941142e-05
0.436575283 	1.040163032 	-0.1079384617 	-5.810713134e-05
0.4367587007 	1.075991252 	-0.1115262424 	-6.002052104e-05
0.4369421156 	1.110254858 	-0.1149439678 	-6.18168725e-05
0.4371255275 	1.14305676 	-0.1182029252 	-6.350316534e-05
0.4373089361 	1.174494391 	-0.1213137912 	-6.508614855e-05
0.4374923411 	1.204661644 	-0.1242868275 	-6.657235392e-05
0.4376757422 	1.233645728 	-0.1271315594 	-6.796781584e-05
0.4378591391 	1.261524386 	-0.1298564919 	-6.927797487e-05
0.4380425315 	1.288367443 	-0.132469267 	-7.050777507e-05
0.4382259191 	1.314238712 	-0.1349768887 	-7.166172386e-05
0.4384093017 	1.339196873 	-0.1373858818 	-7.274397264e-05
0.438592679 	1.366572868 	-0.1400170568 	-7.396408778e-05
0.4388775938 	1.399327376 	-0.1431459379 	-7.521836039e-05
0.4391678485 	1.434025248 	-0.146439808 	-7.654648959e-05
0.4394635417 	1.467628744 	-0.1496078208 	-7.775638054e-05
0.4397647738 	1.500201219 	-0.1526567955 	-7.885061034e-05
0.4400716469 	1.53180121 	-0.1555931419 	-7.983148354e-05
0.4403842649 	1.562482493 	-0.1584227905 	-8.070104125e-05
0.4407027333 	1.592293972 	-0.1611511335 	-8.146100664e-05
0.4410271599 	1.621279786 	-0.1637830372 	-8.211284116e-05
0.4413576537 	1.64947989 	-0.1663229095 	-8.265787663e-05
0.4416943261 	1.676930729 	-0.1687747722 	-8.309739736e-05
0.4420372902 	1.703665747 	-0.1711423129 	-8.343268167e-05
0.4423866608 	1.72971577 	-0.1734289265 	-8.366502984e-05
0.4427425551 	1.755109313 	-0.175637749 	-8.379577933e-05
0.4431050918 	1.779872853 	-0.1777716867 	-8.382631528e-05
0.4434743918 	1.804031066 	-0.1798334413 	-8.375807911e-05
0.443850578 	1.827607035 	-0.1818255351 	-8.359257958e-05
0.4442337753 	1.850622429 	-0.1837503306 	-8.333141653e-05
0.4446241106 	1.873120645 	-0.1856119234 	-8.297763186e-05
0.4450233411 	1.895157137 	-0.1874152399 	-8.25253564e-05
0.445431201 	1.916739017 	-0.1891612405 	-8.197433981e-05
0.4458466793 	1.937844295 	-0.1908485308 	-8.132926498e-05
0.4462699177 	1.958474867 	-0.1924776579 	-8.059039894e-05
0.4467010604 	1.978647495 	-0.194050389 	-7.975895585e-05
0.4471402543 	1.998378369 	-0.195568416 	-7.883616785e-05
0.4475876489 	2.017683166 	-0.1970333637 	-7.782328872e-05
0.4480433967 	2.036577108 	-0.1984467966 	-7.672159852e-05
0.4485076529 	2.055075007 	-0.1998102233 	-7.553240662e-05
0.4489805754 	2.073191299 	-0.2011251012 	-7.42570528e-05
0.4494623252 	2.090940075 	-0.202392839 	-7.289690644e-05
0.4499530662 	2.108335106 	-0.2036148 	-7.145336413e-05
0.4504529654 	2.125389858 	-0.2047923046 	-6.992784635e-05
0.4509621928 	2.14211751 	-0.2059266314 	-6.832179385e-05
0.4514809216 	2.158530964 	-0.2070190196 	-6.66366639e-05
0.4520093281 	2.17464285 	-0.2080706696 	-6.487392688e-05
0.452547592 	2.190465538 	-0.2090827441 	-6.303506286e-05
0.4530958961 	2.206011132 	-0.2100563686 	-6.112155845e-05
0.4536544268 	2.221291474 	-0.2109926318 	-5.913490365e-05
0.4542233737 	2.236318147 	-0.2118925863 	-5.707658866e-05
0.4548029302 	2.251102467 	-0.2127572492 	-5.494810109e-05
0.455393293 	2.265655487 	-0.2135876015 	-5.275092578e-05
0.4559946626 	2.279994109 	-0.2143849229 	-5.048664733e-05
0.4566082852 	2.294150911 	-0.2151512718 	-4.815074436e-05
0.45723626 	2.308144376 	-0.2158878147 	-4.573383769e-05
0.4578759321 	2.321960324 	-0.2165940705 	-4.325466205e-05
0.4585275182 	2.335592471 	-0.2172699414 	-4.071449054e-05
0.4591912389 	2.349050459 	-0.2179162347 	-3.811485874e-05
0.459867319 	2.362343637 	-0.2185337077 	-3.545728259e-05
0.4605559872 	2.375481064 	-0.2191230821 	-3.274326144e-05
0.4612574765 	2.388471503 	-0.2196850447 	-2.997427865e-05
0.4619720244 	2.401323419 	-0.2202202469 	-2.715180192e-05
0.4626998725 	2.414044979 	-0.2207293052 	-2.42772839e-05
0.463441267 	2.426644051 	-0.2212128014 	-2.135216319e-05
0.4641964587 	2.439128209 	-0.2216712832 	-1.837786566e-05
0.4649657028 	2.451504759 	-0.2221052665 	-1.535580626e-05
0.4657492594 	2.463780773 	-0.2225152401 	-1.228739123e-05
0.4665473934 	2.475963178 	-0.2229016732 	-9.174021067e-06
0.4673603745 	2.488061694 	-0.2232651046 	-6.017094132e-06
0.4681892405 	2.500100856 	-0.2236064916 	-2.813579177e-06
0.4689198652 	2.510433719 	-0.2238821386 	6.151839092e-08
0.4690375466 	2.512098358 	-0.2239265788 	-4.513011648e-07
0.4699010404 	2.525552391 	-0.2242662339 	-3.74137121e-06
0.471226299 	2.541841288 	-0.2246341043 	-8.745995252e-06
0.4725659371 	2.559241101 	-0.2249900105 	-1.374704557e-05
0.4739201122 	2.57626226 	-0.2252958214 	-1.873950343e-05
0.475288984 	2.592930131 	-0.2255540332 	-2.371900777e-05
0.4766727141 	2.609267723 	-0.2257669101 	-2.868154019e-05
0.4780714658 	2.625295558 	-0.225936493 	-3.362340034e-05
0.4794854044 	2.641050357 	-0.2260647503 	-3.854110137e-05
0.4809214894 	2.656567442 	-0.2261531833 	-4.34654783e-05
0.4823738791 	2.671841775 	-0.2262030706 	-4.835776141e-05
0.4838420137 	2.686865601 	-0.2262154317 	-5.321102687e-05
0.4853260666 	2.701648625 	-0.2261915067 	-5.802249363e-05
0.4868262135 	2.716201718 	-0.2261324368 	-6.278953411e-05
0.4883426321 	2.73053553 	-0.2260393347 	-6.750967201e-05
0.4898755023 	2.744664022 	-0.2259133121 	-7.21805339e-05
0.4914262901 	2.758615666 	-0.2257553774 	-7.680578697e-05
0.4930000595 	2.77241395 	-0.2255665638 	-8.140265862e-05
0.4945908782 	2.786056413 	-0.2253485681 	-8.5937031e-05
0.496198935 	2.799547185 	-0.2251030398 	-9.040700515e-05
0.497824421 	2.812904255 	-0.2248316083 	-9.481072092e-05
0.4994675299 	2.826142979 	-0.2245355537 	-9.914665466e-05
0.5011284574 	2.839271805 	-0.2242153528 	-0.0001034138829
0.5028080558 	2.852295377 	-0.223869736 	-0.0001076147323
0.5045124937 	2.865190049 	-0.2234953092 	-0.0001117716634
0.5062353919 	2.877874929 	-0.2230872236 	-0.0001158544877
0.5079769559 	2.890242456 	-0.2226383191 	-0.000119864941
0.509737394 	2.902177115 	-0.2221401345 	-0.0001238036538
0.5115169172 	2.91356012 	-0.2215845133 	-0.0001276694095
0.5133157389 	2.924296657 	-0.2209650776 	-0.0001314575721
0.515137967 	2.934332954 	-0.2202785117 	-0.0001351734956
0.5169830942 	2.943652308 	-0.2195262149 	-0.0001387968971
0.5188482099 	2.952281887 	-0.218713983 	-0.0001382767363
0.5207335384 	2.96029949 	-0.2178503292 	-0.0001332207951
0.522639307 	2.967827196 	-0.2169439818 	-0.0001281942464
0.5245657457 	2.975000483 	-0.2160015265 	-0.0001232073572
0.526516352 	2.981904106 	-0.2150261845 	-0.0001182617017
0.5284915975 	2.988552438 	-0.2140198665 	-0.0001133771598
0.5304882478 	2.994933315 	-0.2129843039 	-0.0001085784429
0.5325065448 	3.001038346 	-0.2119200311 	-0.000103867564
0.5345467337 	3.006862652 	-0.2108273634 	-9.924440437e-05
0.5366090627 	3.012405216 	-0.2097059571 	-9.470928957e-05
0.5386990383 	3.017665701 	-0.2085551739 	-9.024759853e-05
0.5408128428 	3.022636806 	-0.2073759564 	-8.587983806e-05
0.5429495711 	3.027311505 	-0.2061694518 	-8.161109697e-05
0.5451094844 	3.031686974 	-0.2049362309 	-7.74417489e-05
0.5472928472 	3.035763105 	-0.2036762765 	-7.337159793e-05
0.5495029917 	3.039541474 	-0.2023891218 	-6.939217904e-05
0.5517401277 	3.043021287 	-0.2010752485 	-6.551049001e-05
0.5540015404 	3.046200808 	-0.1997360688 	-6.173676289e-05
0.5562875083 	3.049081498 	-0.1983726123 	-5.807078843e-05
0.5585983135 	3.051668185 	-0.1969851659 	-5.45117124e-05
0.5609371009 	3.053967836 	-0.195573665 	-5.1052097e-05
0.5633041214 	3.055987558 	-0.1941390398 	-4.769834787e-05
0.5656968536 	3.057735435 	-0.192683109 	-4.445842694e-05
0.5681155946 	3.059221954 	-0.1912072899 	-4.133135647e-05
0.5705606454 	3.060459169 	-0.1897120531 	-3.83155947e-05
0.5730364139 	3.06145919 	-0.1881976077 	-3.540301495e-05
0.5755402815 	3.062233084 	-0.1866654921 	-3.260534476e-05
0.5780713847 	3.062792338 	-0.1851174917 	-2.992390302e-05
0.5806300406 	3.063149135 	-0.1835546344 	-2.73566122e-05
0.5832180167 	3.063315793 	-0.1819772472 	-2.489861285e-05
0.5858376189 	3.063304485 	-0.1803860584 	-2.255038982e-05
0.5884857425 	3.063127587 	-0.1787829566 	-2.031869754e-05
0.5911627215 	3.062798093 	-0.1771695621 	-1.820081828e-05
0.5938690591 	3.062329117 	-0.1755464924 	-1.619329603e-05
0.5966092402 	3.061734159 	-0.1739143985 	-1.429055201e-05
0.5993792916 	3.061027745 	-0.1722751299 	-1.250172868e-05
0.602179565 	3.060224785 	-0.1706313409 	-1.082327445e-05
0.6050104173 	3.059333688 	-0.1689838514 	-9.248312051e-06
0.6078761888 	3.058350993 	-0.1673299303 	-7.770973255e-06
0.6107733423 	3.05727034 	-0.1656684608 	-6.401575507e-06
0.6137021528 	3.056091195 	-0.1640003275 	-5.1368306e-06
0.6166633566 	3.054815663 	-0.1623253516 	-3.971429173e-06
0.6196602986 	3.053446072 	-0.1606430672 	-2.903156194e-06
0.6226900141 	3.051985313 	-0.1589542566 	-1.935869952e-06
0.6257528942 	3.050436057 	-0.1572594086 	-1.064938354e-06
0.6288506095 	3.048800142 	-0.1555583258 	-2.849275429e-07
0.6301370712 	3.048093802 	-0.1548574181 	4.421105244e-05
0.6319842164 	3.047079126 	-0.1538509344 	-4.086628403e-07
0.6351521115 	3.045275515 	-0.1521379603 	-1.013774854e-06
0.6383547749 	3.043391231 	-0.1504196746 	-1.531267413e-06
0.6415950545 	3.041427348 	-0.1486958693 	-1.965325162e-06
0.6448714415 	3.039385464 	-0.1469669884 	-2.312972005e-06
0.6481838289 	3.037267031 	-0.1452334181 	-2.578816373e-06
0.6515336955 	3.035072685 	-0.1434950917 	-2.768320568e-06
0.6549219977 	3.032803091 	-0.1417520731 	-2.880251623e-06
0.658347578 	3.030459236 	-0.1400047925 	-2.917040168e-06
0.661811122 	3.028041401 	-0.1382533201 	-2.884365429e-06
0.6653149209 	3.02554945 	-0.1364975333 	-2.783587619e-06
0.6688573239 	3.022983816 	-0.1347378347 	-2.61508826e-06
0.6724387986 	3.020344375 	-0.1329743534 	-2.384603591e-06
0.6760616858 	3.01763037 	-0.1312069474 	-2.095109836e-06
0.6797247083 	3.01484158 	-0.1294359092 	-1.746116422e-06
0.6834281966 	3.011977365 	-0.127661363 	-1.343375823e-06
0.6871741462 	3.009036454 	-0.1258832123 	-8.902641355e-07
0.6909617583 	3.006017963 	-0.1241016527 	-3.86452696e-07
0.6936431587 	3.003849217 	-0.1228519328 	3.235279244e-05
0.694791239 	3.002920492 	-0.1223166904 	-1.592301004e-07
0.6986643717 	2.999741967 	-0.1205281136 	-7.384743878e-07
0.7025805467 	2.996481191 	-0.1187362536 	-1.358246493e-06
0.7065401553 	2.993136197 	-0.1169411538 	-2.012718788e-06
0.7105449492 	2.989704449 	-0.1151427266 	-2.699852624e-06
0.7145941618 	2.986193139 	-0.1133457744 	-3.418310018e-06
0.7186434165 	2.982630388 	-0.1115653603 	-4.153903882e-06
0.7226486042 	2.979045606 	-0.1098158726 	-4.896790591e-06
0.7266094196 	2.975448588 	-0.1081009591 	-5.643326475e-06
0.7305267523 	2.971839283 	-0.1064196002 	-6.388355925e-06
0.7344012368 	2.968217419 	-0.1047707536 	-7.131628925e-06
0.7382328756 	2.96458272 	-0.1031534571 	-7.869687649e-06
0.7420225095 	2.960934554 	-0.1015667721 	-8.598969079e-06
0.7457706092 	2.957272141 	-0.1000097581 	-9.319856438e-06
0.7494773227 	2.953594642 	-0.09848153244 	-1.002961937e-05
0.7531433854 	2.949900878 	-0.09698123796 	-1.072567169e-05
0.7567692644 	2.946189514 	-0.09550801273 	-1.140873617e-05
0.7603551552 	2.942459142 	-0.09406104654 	-1.207689851e-05
0.763901668 	2.938708035 	-0.0926395575 	-1.272813166e-05
0.7674093446 	2.934934266 	-0.09124275018 	-1.336327308e-05
0.7708783745 	2.931135856 	-0.08986988221 	-1.398126403e-05
0.7743092448 	2.927310544 	-0.08852023832 	-1.45804776e-05
0.7777025987 	2.923455825 	-0.08719308726 	-1.516146604e-05
0.7810585948 	2.919569179 	-0.08588774962 	-1.572414006e-05
0.7843776614 	2.915647884 	-0.08460356997 	-1.626730682e-05
0.7876603902 	2.91168897 	-0.08333989415 	-1.679077389e-05
0.7909070506 	2.907689439 	-0.08209609345 	-1.729544779e-05
0.7941180041 	2.903646201 	-0.08087156602 	-1.778054778e-05
0.7972937061 	2.899555981 	-0.0796657343 	-1.824547146e-05
0.8004346052 	2.895415413 	-0.07847801876 	-1.86912085e-05
0.8035409751 	2.891221136 	-0.07730787004 	-1.911773211e-05
0.8066132058 	2.886969691 	-0.07615476476 	-1.952456005e-05
0.80965176 	2.882657493 	-0.07501818608 	-1.991173952e-05
0.8126569591 	2.878280948 	-0.07389762867 	-2.028024303e-05
0.8156291397 	2.873836439 	-0.07279260759 	-2.062984584e-05
0.8185686718 	2.869320234 	-0.07170265765 	-2.096030857e-05
0.8214759931 	2.864728497 	-0.07062731481 	-2.127208313e-05
0.8243513843 	2.860057364 	-0.06956612852 	-2.156586506e-05
0.8271951952 	2.855302895 	-0.06851866428 	-2.18415232e-05
0.8300077779 	2.85046099 	-0.06748449967 	-2.209897606e-05
0.8327895326 	2.845527411 	-0.06646321426 	-2.233876623e-05
0.8355407393 	2.84049784 	-0.06545439814 	-2.256147222e-05
0.8382617368 	2.835367835 	-0.06445765591 	-2.276707536e-05
0.8409528603 	2.830132788 	-0.06347260252 	-2.295559441e-05
0.8436144725 	2.824787949 	-0.06249886014 	-2.312744329e-05
0.8462468653 	2.819328497 	-0.06153605908 	-2.328325173e-05
0.848850357 	2.813749544 	-0.06058384462 	-2.342308307e-05
0.8514252675 	2.808046145 	-0.05964187767 	-2.354701978e-05
0.8539719263 	2.802213344 	-0.05870983313 	-2.365528954e-05
0.856490637 	2.796246256 	-0.05778739627 	-2.374856128e-05
0.8589816959 	2.790140135 	-0.05687426887 	-2.382701288e-05
0.8614454083 	2.783890424 	-0.05597017685 	-2.301828966e-05
0.8638820763 	2.777492806 	-0.0550748632 	-2.213937105e-05
0.8662920105 	2.770943275 	-0.05418808989 	-2.128629122e-05
0.8686754868 	2.764238229 	-0.05330963635 	-2.045826166e-05
0.8710327965 	2.757374512 	-0.05243930684 	-1.965476926e-05
0.8733642276 	2.750349437 	-0.05157692648 	-1.887530589e-05
0.8756700675 	2.743160814 	-0.05072234273 	-1.811935452e-05
0.8779505993 	2.735806977 	-0.04987542016 	-1.738612418e-05
0.8802060927 	2.728286791 	-0.04903603923 	-1.667503205e-05
0.8824368228 	2.720599633 	-0.04820410272 	-1.598561831e-05
0.8846430618 	2.712745346 	-0.04737952649 	-1.531742664e-05
0.88682508 	2.704724199 	-0.04656224227 	-1.46699973e-05
0.8889831442 	2.696536832 	-0.04575219096 	-1.404266926e-05
0.8911175121 	2.688184209 	-0.04494931949 	-1.343492392e-05
0.8932284436 	2.679667541 	-0.04415358588 	-1.284634151e-05
0.895316196 	2.670988216 	-0.04336495158 	-1.22765054e-05
0.8973810235 	2.662147721 	-0.04258338106 	-1.172500274e-05
0.8994231797 	2.653147581 	-0.04180884102 	-1.119132936e-05
0.9014429092 	2.643989297 	-0.04104129408 	-1.067495575e-05
0.9034404575 	2.634674296 	-0.04028070207 	-1.01754933e-05
0.9054160679 	2.625203869 	-0.03952702604 	-9.692559159e-06
0.9073699809 	2.615579127 	-0.03878022086 	-9.225773908e-06
0.9093024346 	2.605800959 	-0.03804023955 	-8.774758623e-06
0.9112136641 	2.595870001 	-0.03730702894 	-8.339034692e-06
0.9131039001 	2.585786614 	-0.03658052826 	-7.918200708e-06
0.9149733728 	2.575550862 	-0.03586067433 	-7.511907877e-06
0.9168223097 	2.565162485 	-0.03514739836 	-7.119812922e-06
0.9186509357 	2.554620891 	-0.03444062513 	-6.741577849e-06
0.9204594736 	2.543925133 	-0.03374027632 	-6.37686881e-06
0.9222481432 	2.533073898 	-0.03304626781 	-6.025288822e-06
0.9240171611 	2.522065501 	-0.0323585086 	-5.686489678e-06
0.9257667427 	2.510897868 	-0.0316769051 	-5.360165085e-06
0.927497101 	2.499568516 	-0.03100135937 	-5.046015203e-06
0.9292084463 	2.488074542 	-0.03033176835 	-4.743746463e-06
0.9309009872 	2.476412589 	-0.02966802499 	-4.453071777e-06
0.9325749295 	2.464578829 	-0.02901001948 	-4.173692218e-06
0.9342304764 	2.452568929 	-0.02835763607 	-3.905287242e-06
0.9358678294 	2.440378013 	-0.02771075446 	-3.64759107e-06
0.9374871876 	2.42800062 	-0.02706925186 	-3.400347907e-06
0.9390887484 	2.415430651 	-0.02643300025 	-3.16330947e-06
0.9406727065 	2.402661299 	-0.02580186666 	-2.936233557e-06
0.9422392549 	2.389684986 	-0.02517571326 	-2.718883242e-06
0.9437885843 	2.376493271 	-0.02455439809 	-2.511014676e-06
0.9453208829 	2.36307676 	-0.0239377723 	-2.312372272e-06
0.9468363373 	2.349424986 	-0.02332568093 	-2.122736777e-06
0.9483351322 	2.335526296 	-0.02271796435 	-1.941899426e-06
0.9498174499 	2.321367704 	-0.02211445548 	-1.76965896e-06
0.9512834711 	2.306934752 	-0.02151497983 	-1.605821704e-06
0.9527333744 	2.292211353 	-0.02091935476 	-1.450200559e-06
0.9541673362 	2.277179652 	-0.02032739041 	-1.302613816e-06
0.9555855313 	2.261819903 	-0.01973888863 	-1.162871563e-06
0.9569881324 	2.246110423 	-0.0191536432 	-1.030799108e-06
0.9583753102 	2.230027658 	-0.01857144867 	-9.062369845e-07
0.959747234 	2.213546465 	-0.01799209917 	-7.890314948e-07
0.9611040708 	2.198088941 	-0.0174640166 	-6.812110628e-07
0.9619879448 	2.185288223 	-0.01703772164 	-6.10588635e-07
0.9628555347 	2.173850901 	-0.01666504554 	-5.458702388e-07
0.9637071403 	2.162327425 	-0.01629743148 	-4.847517139e-07
0.9645430555 	2.150710534 	-0.01593474092 	-4.270991041e-07
0.9653635691 	2.138993485 	-0.01557684525 	-3.727827944e-07
0.9661689646 	2.127169882 	-0.01522362547 	-3.216756769e-07
0.9669595201 	2.11523355 	-0.01487496847 	-2.736570713e-07
0.9677355087 	2.103178458 	-0.01453076681 	-2.286118879e-07
0.9684971986 	2.090998661 	-0.01419091841 	-1.86429045e-07
0.9692448529 	2.078688262 	-0.01385532637 	-1.470012142e-07
0.96997873 	2.06624139 	-0.01352389893 	-1.102245825e-07
0.9706990834 	2.053652179 	-0.01319654942 	-7.599862546e-08
0.9714061621 	2.040914759 	-0.01287319633 	-4.422589042e-08
0.9721002105 	2.028023244 	-0.01255376326 	-1.481179062e-08
0.9724665521 	2.021004885 	-0.01238406416 	6.554792828e-06
0.972781464 	2.014971621 	-0.01223816581 	-1.176217401e-08
0.9734501579 	2.001753928 	-0.01192633697 	-3.554255837e-08
0.9741065286 	1.98836429 	-0.01161823145 	-5.729231573e-08
0.9747508029 	1.974796669 	-0.01131379359 	-7.709486731e-08
0.9753832036 	1.96104497 	-0.01101297295 	-9.503175462e-08
0.9760039492 	1.947103035 	-0.01071572428 	-1.111827753e-07
0.9766132544 	1.932964636 	-0.01042200765 	-1.256261339e-07
0.9772113298 	1.918623469 	-0.01013178827 	-1.38439073e-07
0.9777983822 	1.90407315 	-0.009845036497 	-1.496970088e-07
0.9783746146 	1.889307206 	-0.009561727885 	-1.594737747e-07
0.9789402261 	1.874319068 	-0.009281843119 	-1.678419587e-07
0.9794954124 	1.859102061 	-0.009005367927 	-1.748729638e-07
0.9800403655 	1.8436494 	-0.008732293027 	-1.806370562e-07
0.9805752738 	1.827954169 	-0.008462614039 	-1.852034013e-07
0.9811003223 	1.812009313 	-0.008196331388 	-1.886400874e-07
0.9816156926 	1.79580762 	-0.007933450181 	-1.910141379e-07
0.982121563 	1.779341698 	-0.007673980075 	-1.923915124e-07
0.9826181084 	1.762603949 	-0.007417935127 	-1.928370971e-07
0.9831055006 	1.745586546 	-0.007165333626 	-1.924146867e-07
0.9835839082 	1.728281392 	-0.006916197914 	-1.911869566e-07
0.9840534967 	1.710680083 	-0.006670554193 	-1.892154273e-07
0.9845144285 	1.692773865 	-0.006428432317 	-1.865604223e-07
0.9849668632 	1.674553573 	-0.006189865574 	-1.832810195e-07
0.9854109572 	1.656009578 	-0.005954890461 	-1.794349969e-07
0.9858468641 	1.637131714 	-0.00572354645 	-1.750787741e-07
0.9862747349 	1.6179092 	-0.005495875749 	-1.702673491e-07
0.9866947176 	1.598330548 	-0.00527192306 	-1.650542316e-07
0.9871069575 	1.578383467 	-0.005051735326 	-1.594913724e-07
0.9875115972 	1.558054744 	-0.00483536149 	-1.536290887e-07
0.9879087768 	1.537330123 	-0.00462285228 	-1.475159926e-07
0.9882986337 	1.516194155 	-0.004414259928 	-1.411989345e-07
0.9886813029 	1.494630044 	-0.004209637934 	-1.347228303e-07
0.9890569168 	1.472619468 	-0.004009040877 	-1.28130593e-07
0.9894256054 	1.450142385 	-0.003812524172 	-1.214630382e-07
0.9897874963 	1.42717681 	-0.003620143838 	-1.147587924e-07
0.9901427147 	1.403698581 	-0.003431956282 	-1.080542357e-07
0.9904913837 	1.379681083 	-0.003248018256 	-1.013834583e-07
0.9908336238 	1.355094949 	-0.003068386601 	-9.477870251e-08
0.9911695537 	1.329907684 	-0.002893117324 	-8.827086736e-08
0.9914992895 	1.304083236 	-0.002722266099 	-8.188901994e-08
0.9918229455 	1.277581618 	-0.002555890067 	-7.56604008e-08
0.9921406336 	1.250358714 	-0.002394048045 	-6.961042645e-08
0.9924524639 	1.222366123 	-0.002236800682 	-6.37617388e-08
0.9927585443 	1.193550955 	-0.002084195636 	-5.813435588e-08
0.9930589807 	1.163855675 	-0.001936231794 	-5.274641329e-08
0.9933538773 	1.135872251 	-0.001805064903 	-4.80972733e-08
0.9935436731 	1.112510491 	-0.001701559099 	-4.437466674e-08
0.9937334699 	1.091233594 	-0.001611706008 	-4.124098707e-08
0.9939232679 	1.069196989 	-0.001522891821 	-3.819053424e-08
0.9941130669 	1.046350797 	-0.001435227503 	-3.522867727e-08
0.994302867 	1.022640819 	-0.001348800386 	-3.236104401e-08
0.9944926682 	0.9980073799 	-0.001263695045 	-2.959363836e-08
0.9946824704 	0.9723851198 	-0.001180002611 	-2.693239443e-08
0.9948722738 	0.945704386 	-0.001097823855 	-2.43821801e-08
0.9950620782 	0.9178912581 	-0.00101726732 	-2.194793477e-08
0.9952518838 	0.8888665345 	-0.0009384478503 	-1.963497028e-08
0.9954416904 	0.8585457843 	-0.0008614899923 	-1.744804918e-08
0.995631498 	0.826840199 	-0.0007865258754 	-1.53887044e-08
0.9958213068 	0.7936580746 	-0.0007136719614 	-1.345569104e-08
0.9960111167 	0.7589070599 	-0.0006430447892 	-1.167012233e-08
0.9962009276 	0.7224971514 	-0.0005752692304 	-1.029563126e-08
0.9963907396 	0.6843421242 	-0.0005118667323 	-8.4553596e-09
0.9965805527 	0.6443347019 	-0.0004482965362 	-6.515955713e-09
0.9967703669 	0.6022396128 	-0.0003838271924 	-5.950355881e-09
0.9969601822 	0.5577643068 	-0.000327099749 	-5.050011454e-09
0.9971499985 	0.5108701551 	-0.0002758997943 	-3.626286472e-09
0.9973398159 	0.4618267311 	-0.0002268614977 	-2.75480801e-09
0.9975296344 	0.4110909776 	-0.0001824004022 	-1.997147532e-09
0.997719454 	0.3592409948 	-0.0001419816107 	-1.357110138e-09
0.9979092747 	0.3068655187 	-0.0001055610031 	-8.499081782e-10
0.9980990965 	0.2544596775 	-7.376687529e-05 	-4.83581072e-10
0.9982889193 	0.2023717649 	-4.73180316e-05 	-2.406853391e-10
0.9984787433 	0.1508076044 	-2.658728676e-05 	-8.958123669e-11
0.9986685683 	0.09986851257 	-1.166504586e-05 	3.418805615e-12
0.9988583944 	0.04959491754 	-5.565149498e-06 	-3.391353002e-10
0.9990482216 	0.02061807323 	-4.583541263e-06 	-6.056890455e-10
0.9990482216 	0.02061807323 	-4.583541263e-06 	-6.056890455e-10
