0.4642857292 	0.02834041998 	-0.000829217215 	-8.424897997e-07
0.4642857292 	0.02834041998 	-0.000829217215 	-8.424897997e-07
0.4644580585 	0.07881829066 	-0.002303486041 	-2.369814246e-06
0.4646303886 	0.1575745558 	-0.004599833108 	-4.744309402e-06
0.4648027194 	0.2362451436 	-0.006888429696 	-7.101960706e-06
0.464975051 	0.3147423717 	-0.009166925307 	-9.445826682e-06
0.4651473832 	0.3928523548 	-0.01142972998 	-1.176793934e-05
0.4653197161 	0.4701647466 	-0.01366609648 	-1.405439825e-05
0.4654920495 	0.5460439802 	-0.01585856953 	-1.628457337e-05
0.4656643834 	0.6196924364 	-0.01798373108 	-1.843289614e-05
0.4658367177 	0.6903087685 	-0.02002049409 	-2.047300555e-05
0.4660090525 	0.7572714013 	-0.02194486123 	-2.238557023e-05
0.4661813876 	0.8204142718 	-0.02374760702 	-2.416346235e-05
0.466353723 	0.8800323857 	-0.02544987271 	-2.581351062e-05
0.4665260587 	0.9364454048 	-0.0270625034 	-2.734884132e-05
0.4666983945 	0.9898235428 	-0.02858369231 	-2.877620934e-05
0.4668707305 	1.040309198 	-0.03001864987 	-3.009967145e-05
0.4670430666 	1.088059565 	-0.0313731369 	-3.132528392e-05
0.4672154027 	1.133240661 	-0.03265211703 	-3.245909393e-05
0.4673877388 	1.176020138 	-0.03386055789 	-3.350719864e-05
0.4675600748 	1.216562043 	-0.0350033415 	-3.447558769e-05
0.4677324107 	1.255023326 	-0.03608513138 	-3.537000944e-05
0.4679047464 	1.291551635 	-0.0371103022 	-3.619587794e-05
0.4680770819 	1.326284251 	-0.03808291251 	-3.695822931e-05
0.4682494171 	1.359348795 	-0.03900672966 	-3.766176449e-05
0.468421752 	1.390866295 	-0.03988532043 	-3.831096824e-05
0.4685940865 	1.420950613 	-0.04072203476 	-3.891005855e-05
0.4687664205 	1.449704102 	-0.0415198824 	-3.946280585e-05
0.4689387541 	1.477218139 	-0.0422815479 	-3.997255427e-05
0.4691110871 	1.503576075 	-0.043009491 	-4.044234165e-05
0.4692834196 	1.528854506 	-0.04370602445 	-4.08749444e-05
0.4694557514 	1.556416923 	-0.04446365695 	-4.135443977e-05
0.4697235139 	1.589159975 	-0.04536046465 	-4.183191579e-05
0.469996307 	1.623577571 	-0.04629976892 	-4.232479433e-05
0.4702742251 	1.656645574 	-0.0471987803 	-4.275919683e-05
0.4705573642 	1.688454284 	-0.04806004546 	-4.313819516e-05
0.470845822 	1.719086844 	-0.04888598651 	-4.346458742e-05
0.4711396981 	1.748619569 	-0.04967885047 	-4.374092734e-05
0.471439094 	1.77712241 	-0.0504406945 	-4.396954394e-05
0.4717441131 	1.8046594 	-0.05117339863 	-4.415256244e-05
0.4720548606 	1.83128917 	-0.05187868161 	-4.429193055e-05
0.4723714436 	1.857065549 	-0.05255811924 	-4.438944795e-05
0.4726939714 	1.882038114 	-0.05321315987 	-4.444679002e-05
0.473022555 	1.906252658 	-0.05384513704 	-4.446552629e-05
0.4733573078 	1.92975157 	-0.05445528084 	-4.444713557e-05
0.473698345 	1.952574179 	-0.05504472789 	-4.439301806e-05
0.4740457841 	1.974757052 	-0.05561453031 	-4.430450529e-05
0.4743997447 	1.996334258 	-0.05616566434 	-4.418286942e-05
0.4747603486 	2.017337609 	-0.05669902952 	-4.402933879e-05
0.4751277197 	2.037810808 	-0.05721581417 	-4.384539332e-05
0.4755030077 	2.05780331 	-0.05771734457 	-4.362907903e-05
0.4758860811 	2.077333962 	-0.05820416327 	-4.338086299e-05
0.4762763472 	2.096403222 	-0.05867633623 	-4.310315097e-05
0.4766739408 	2.115025259 	-0.05913427288 	-4.279647009e-05
0.4770789995 	2.133222365 	-0.05957858425 	-4.246152781e-05
0.4774916633 	2.151015607 	-0.06000984233 	-4.209899128e-05
0.4779120749 	2.168424922 	-0.06042858403 	-4.170948909e-05
0.4783403796 	2.185469199 	-0.0608353138 	-4.129361315e-05
0.4787767255 	2.202166361 	-0.06123050606 	-4.085192047e-05
0.4792212634 	2.218533428 	-0.06161460737 	-4.038493502e-05
0.4796741471 	2.234586587 	-0.06198803841 	-3.989314962e-05
0.480135533 	2.250341243 	-0.06235119573 	-3.937702778e-05
0.4806055808 	2.265812073 	-0.06270445344 	-3.883700539e-05
0.4810844527 	2.281013076 	-0.06304816463 	-3.827349242e-05
0.4815723144 	2.295957609 	-0.06338266272 	-3.768687437e-05
0.4820693345 	2.310658434 	-0.06370826272 	-3.707751373e-05
0.4825756847 	2.32512775 	-0.06402526231 	-3.644575126e-05
0.4830915401 	2.339377226 	-0.06433394289 	-3.579190726e-05
0.483617079 	2.353418036 	-0.06463457051 	-3.511628272e-05
0.4841524829 	2.367260889 	-0.06492739688 	-3.441916039e-05
0.4846979369 	2.380916052 	-0.06521266065 	-3.370080606e-05
0.4852536295 	2.394393382 	-0.06549058429 	-3.296147104e-05
0.4858197528 	2.407706159 	-0.0657614498 	-3.22014252e-05
0.4863971602 	2.420877266 	-0.06602573986 	-3.141881698e-05
0.4869872469 	2.433920683 	-0.06628374202 	-3.061013475e-05
0.4875884075 	2.446829934 	-0.06653532343 	-2.978157252e-05
0.4882008498 	2.459603086 	-0.06678044445 	-2.893324501e-05
0.4888247852 	2.472248049 	-0.06701927233 	-2.8065358e-05
0.4894604292 	2.484772446 	-0.06725195974 	-2.717810566e-05
0.4901080013 	2.497183622 	-0.06747865039 	-2.627167349e-05
0.4907677251 	2.509488657 	-0.06769947907 	-2.534623921e-05
0.4914398285 	2.521694372 	-0.06791457184 	-2.440197334e-05
0.4921245435 	2.533807343 	-0.06812404625 	-2.343903993e-05
0.4928221066 	2.545833914 	-0.06832801173 	-2.245759713e-05
0.4935327586 	2.557780219 	-0.06852657005 	-2.145779784e-05
0.494256745 	2.56965221 	-0.06871981622 	-2.04397903e-05
0.4949943156 	2.581455703 	-0.06890784008 	-1.94037189e-05
0.4957457251 	2.593196449 	-0.06909072567 	-1.83497253e-05
0.496511233 	2.604882061 	-0.06926857193 	-1.727795445e-05
0.4972915864 	2.616529834 	-0.06944164451 	-1.61870271e-05
0.4980891876 	2.628153252 	-0.06961017843 	-1.507065323e-05
0.4989017502 	2.641223592 	-0.06979538593 	-1.393903098e-05
0.5001491012 	2.657074119 	-0.07001094806 	-1.220633426e-05
0.5014103017 	2.674055186 	-0.07023350805 	-1.046771228e-05
0.502685506 	2.690706868 	-0.07044230084 	-8.722695095e-06
0.5039748697 	2.707047994 	-0.07063777671 	-6.97220808e-06
0.5052785505 	2.723095947 	-0.07082037544 	-5.217133102e-06
0.5065967078 	2.738866443 	-0.07099048207 	-3.458318731e-06
0.5079295026 	2.754385881 	-0.07114859279 	-1.696543636e-06
0.5092206927 	2.768992616 	-0.07128855116 	3.993205499e-09
0.5092813988 	2.769679437 	-0.07129518697 	-7.7336405e-08
0.5106484713 	2.78474412 	-0.0714315006 	-1.799496974e-06
0.5120307241 	2.799578849 	-0.07155646668 	-3.520534946e-06
0.5134283261 	2.814192405 	-0.07167033193 	-5.23971252e-06
0.5148414483 	2.828594948 	-0.0717733387 	-6.956322476e-06
0.5162702635 	2.842797366 	-0.07186573911 	-8.669689963e-06
0.5177149467 	2.856813903 	-0.07194781525 	-1.037917723e-05
0.5191764905 	2.870669846 	-0.07201996319 	-1.208642104e-05
0.5206581837 	2.884388364 	-0.07208257644 	-1.379805081e-05
0.5221563259 	2.897976103 	-0.07213598394 	-1.55019889e-05
0.5236711006 	2.911442607 	-0.07218055505 	-1.719775874e-05
0.525202693 	2.924801914 	-0.07221664552 	-1.888495574e-05
0.5267512907 	2.938056029 	-0.07224434512 	-2.05631816e-05
0.5283170833 	2.951186704 	-0.07226327843 	-2.223193578e-05
0.5299006786 	2.964154953 	-0.07227246346 	-2.389149942e-05
0.5315060786 	2.976884539 	-0.072270099 	-2.554895108e-05
0.5331292981 	2.98924501 	-0.07225349005 	-2.719049879e-05
0.5347705361 	3.001075619 	-0.07221915868 	-2.881344669e-05
0.5364299936 	3.012207821 	-0.07216319706 	-3.041448162e-05
0.5381078739 	3.022489385 	-0.07208201258 	-3.199015326e-05
0.5398043827 	3.0318354 	-0.07197429812 	-3.353774398e-05
0.541522211 	3.040278674 	-0.07184029707 	-3.506227341e-05
0.543261121 	3.048006653 	-0.07168467037 	-3.656157002e-05
0.5450193315 	3.055272895 	-0.07151591648 	-3.803152716e-05
0.546797058 	3.062223339 	-0.07133701226 	-3.94728818e-05
0.5485945187 	3.068887787 	-0.07114800735 	-4.088584541e-05
0.550411934 	3.075268723 	-0.0709498627 	-4.227001338e-05
0.5522516129 	3.08136908 	-0.07074246216 	-4.362888765e-05
0.554113947 	3.08718743 	-0.07052568828 	-4.495998685e-05
0.555996951 	3.092718814 	-0.07029969636 	-4.625770462e-05
0.557900856 	3.097960323 	-0.07006460209 	-4.752164407e-05
0.5598258958 	3.102910754 	-0.06982045377 	-4.875137649e-05
0.561772307 	3.107570898 	-0.06956720838 	-4.994637691e-05
0.5637436946 	3.111941669 	-0.06930479062 	-5.111158713e-05
0.565737713 	3.116020204 	-0.06903334558 	-5.223939184e-05
0.5677538642 	3.119803963 	-0.06875308108 	-5.332807969e-05
0.5697923962 	3.123293061 	-0.0684641334 	-5.43774249e-05
0.5718535597 	3.126489484 	-0.06816655914 	-5.538713898e-05
0.5739395723 	3.129396518 	-0.06786036 	-5.635991797e-05
0.5760506688 	3.132016857 	-0.06754568226 	-5.729286047e-05
0.578185199 	3.134353628 	-0.06722283925 	-5.818224104e-05
0.5803434258 	3.136412789 	-0.06689212527 	-5.902819719e-05
0.5825256149 	3.13820351 	-0.06655374999 	-5.983081451e-05
0.5847338703 	3.139737201 	-0.06620785391 	-6.059260922e-05
0.5869684579 	3.141025576 	-0.06585470203 	-6.131099346e-05
0.5892278534 	3.142080249 	-0.06549470837 	-6.198322165e-05
0.5915123353 	3.14291322 	-0.06512821236 	-6.260990961e-05
0.5938221857 	3.143536624 	-0.0647553722 	-6.319149138e-05
0.5961603287 	3.143962082 	-0.06437628054 	-6.373094026e-05
0.5985251933 	3.144200476 	-0.06399122871 	-6.422368937e-05
0.6009163178 	3.144262431 	-0.06360053124 	-6.466947653e-05
0.6033339976 	3.144158231 	-0.0632043735 	-6.506912026e-05
0.6057794613 	3.143897564 	-0.06280281425 	-6.542430343e-05
0.6082543018 	3.143489548 	-0.06239593924 	-6.573450455e-05
0.6107566274 	3.142942998 	-0.06198401249 	-6.599707142e-05
0.6132867477 	3.142266287 	-0.06156724623 	-6.621317009e-05
0.6158450817 	3.141466933 	-0.06114565751 	-6.638382589e-05
0.6184346228 	3.140551804 	-0.0607192336 	-6.639181712e-05
0.6210529287 	3.139527737 	-0.06028818931 	-6.513454112e-05
0.6237003239 	3.138401156 	-0.05985271742 	-6.391301767e-05
0.6263771365 	3.137177462 	-0.05941281643 	-6.272628231e-05
0.6290862714 	3.135861485 	-0.05896844604 	-6.157262267e-05
0.6318255697 	3.134458259 	-0.05851978008 	-6.045608024e-05
0.6345953098 	3.132972447 	-0.05806698102 	-5.937592031e-05
0.6373960678 	3.131407735 	-0.0576100466 	-5.83308185e-05
0.6402301167 	3.129767461 	-0.05714896477 	-5.732036532e-05
0.6430956648 	3.128055337 	-0.05668391503 	-5.634740422e-05
0.6459930683 	3.126274702 	-0.05621505233 	-5.54110201e-05
0.6489235108 	3.12442819 	-0.05574242397 	-5.450978372e-05
0.6518878645 	3.12251858 	-0.05526615039 	-5.364555627e-05
0.6548851782 	3.120549111 	-0.05478651067 	-5.281964815e-05
0.6579158249 	3.118522763 	-0.05430376572 	-5.203155469e-05
0.6609817596 	3.116442497 	-0.05381817809 	-5.128116819e-05
0.6640821389 	3.114312341 	-0.05333023026 	-5.057218376e-05
0.6672170054 	3.112137064 	-0.05284062542 	-4.99075116e-05
0.6703874269 	3.109921322 	-0.05235012813 	-4.928394785e-05
0.673594155 	3.107666354 	-0.0518589176 	-4.868944386e-05
0.6768365625 	3.105365302 	-0.0513661567 	-4.810917458e-05
0.6801152063 	3.103006776 	-0.0508703511 	-4.753993769e-05
0.6834316982 	3.100583342 	-0.05037038802 	-4.699235446e-05
0.6867851015 	3.098092528 	-0.049865988 	-4.647338347e-05
0.6901758354 	3.095533016 	-0.04935705503 	-4.598127379e-05
0.6936055424 	3.092903585 	-0.04884347113 	-4.551525733e-05
0.6970735343 	3.090203597 	-0.04832523652 	-4.507625348e-05
0.700580145 	3.087432203 	-0.04780234349 	-4.466205133e-05
0.7041267955 	3.084588147 	-0.04727473055 	-4.427138889e-05
0.7077131112 	3.081670444 	-0.04674239292 	-4.390486783e-05
0.7113393773 	3.078677833 	-0.04620531726 	-4.356008808e-05
0.7150069301 	3.075608636 	-0.04566344509 	-4.323579783e-05
0.7187154514 	3.072461359 	-0.04511676308 	-4.293221426e-05
0.7224653199 	3.069234174 	-0.04456524557 	-4.264672727e-05
0.7262578107 	3.065924828 	-0.04400882935 	-4.237850502e-05
0.7300925709 	3.062540298 	-0.04344897619 	-4.212879374e-05
0.7339274599 	3.059107889 	-0.04289040166 	-4.189566674e-05
0.7377205243 	3.05565618 	-0.04233773956 	-4.167901311e-05
0.7414716977 	3.05219465 	-0.04179234724 	-4.147825862e-05
0.7451816807 	3.048723394 	-0.04125409948 	-4.084991952e-05
0.7488510254 	3.045242325 	-0.04072284943 	-3.972105221e-05
0.7524798606 	3.041751316 	-0.04019847043 	-3.860568991e-05
0.7560688559 	3.038249956 	-0.03968083149 	-3.750554735e-05
0.7596184549 	3.034737703 	-0.03916978869 	-3.642021234e-05
0.7631288782 	3.031213917 	-0.03866521347 	-3.535099872e-05
0.7666007261 	3.027677674 	-0.03816697345 	-3.429915225e-05
0.7700344366 	3.024127882 	-0.03767492348 	-3.326410954e-05
0.7734302599 	3.020563318 	-0.0371889316 	-3.224677868e-05
0.7767887125 	3.016982455 	-0.03670886424 	-3.124813863e-05
0.7801102773 	3.013383541 	-0.03623457374 	-3.026757833e-05
0.7833951996 	3.009764691 	-0.03576592504 	-2.930555864e-05
0.7866439137 	3.006123725 	-0.0353027846 	-2.836286152e-05
0.7898569628 	3.002458213 	-0.03484500578 	-2.743904185e-05
0.7930345721 	2.998765634 	-0.03439245271 	-2.653403446e-05
0.7961771359 	2.995043253 	-0.03394499497 	-2.564839158e-05
0.7992851568 	2.991288126 	-0.03350249553 	-2.478209823e-05
0.8023589322 	2.987497259 	-0.03306482002 	-2.393452989e-05
0.805398811 	2.983667583 	-0.032631843 	-2.310601237e-05
0.8084052021 	2.979795915 	-0.03220344137 	-2.229677493e-05
0.8113785157 	2.97587904 	-0.03177948694 	-2.150613857e-05
0.8143190433 	2.971913786 	-0.03135985982 	-2.073400588e-05
0.8172271484 	2.967896956 	-0.03094444657 	-1.998054027e-05
0.8201032429 	2.963825326 	-0.030533131 	-1.924560067e-05
0.8229476498 	2.959695712 	-0.03012579704 	-1.852851784e-05
0.8257606958 	2.955504953 	-0.02972233444 	-1.782930386e-05
0.8285427279 	2.951249831 	-0.0293226358 	-1.714798193e-05
0.8312941389 	2.946927069 	-0.02892658949 	-1.648417488e-05
0.8340152199 	2.942533364 	-0.02853408506 	-1.583736716e-05
0.836706302 	2.938065321 	-0.02814501565 	-1.520751513e-05
0.8393677168 	2.933519381 	-0.02775927454 	-1.459454724e-05
0.841999829 	2.928891822 	-0.02737675128 	-1.399802959e-05
0.8446029242 	2.924178774 	-0.02699733613 	-1.341750916e-05
0.8471773226 	2.919376178 	-0.0266209223 	-1.285287679e-05
0.8497233412 	2.914479741 	-0.0262474036 	-1.23040022e-05
0.8522413154 	2.909484959 	-0.02587667275 	-1.177052719e-05
0.8547315346 	2.904387156 	-0.02550862332 	-1.125196896e-05
0.8571943021 	2.899181491 	-0.02514315312 	-1.0748173e-05
0.8596299208 	2.893862966 	-0.02478016395 	-1.025897613e-05
0.8620386999 	2.88842648 	-0.02441956058 	-9.784133968e-06
0.8644209325 	2.882866891 	-0.02406125097 	-9.323146679e-06
0.8667769039 	2.877179083 	-0.02370514991 	-8.875801082e-06
0.8691069039 	2.871358015 	-0.02335118114 	-8.441918766e-06
0.8714112196 	2.865398786 	-0.02299927552 	-8.021313408e-06
0.8736901437 	2.859296708 	-0.02264937187 	-7.613613553e-06
0.8759439454 	2.853047399 	-0.02230141812 	-7.218480067e-06
0.8781729018 	2.846646835 	-0.02195537412 	-6.835728689e-06
0.880377287 	2.840091404 	-0.02161121059 	-6.465170431e-06
0.8825573737 	2.833377951 	-0.02126890936 	-6.106602507e-06
0.8847134322 	2.826503827 	-0.02092846213 	-5.759651994e-06
0.8868457226 	2.819466923 	-0.02058987099 	-5.42406338e-06
0.8889545069 	2.812265671 	-0.02025314979 	-5.099647307e-06
0.8910400442 	2.804899034 	-0.01991832114 	-4.78621107e-06
0.8931025917 	2.797366489 	-0.01958541644 	-4.483553757e-06
0.8951424045 	2.789667993 	-0.01925447331 	-4.191349386e-06
0.8971597301 	2.781803951 	-0.01892553466 	-3.909352907e-06
0.8991548164 	2.773775146 	-0.01859864916 	-3.637373632e-06
0.9011279084 	2.765582682 	-0.01827386808 	-3.375219263e-06
0.9030792486 	2.757227909 	-0.01795124433 	-3.122696403e-06
0.9050090786 	2.748712357 	-0.0176308312 	-2.879553571e-06
0.9069176333 	2.740037671 	-0.0173126801 	-2.645521869e-06
0.9088051471 	2.731205542 	-0.01699684105 	-2.420414299e-06
0.9106718518 	2.722217639 	-0.01668336174 	-2.204044803e-06
0.9125179768 	2.713075553 	-0.01637228558 	-1.996227789e-06
0.914343749 	2.703780744 	-0.01606365243 	-1.796775632e-06
0.9161493933 	2.694334496 	-0.01575749692 	-1.605439112e-06
0.9179351304 	2.684737881 	-0.01545384823 	-1.422014103e-06
0.9197011796 	2.674991724 	-0.01515273133 	-1.246326211e-06
0.921447758 	2.665096574 	-0.01485416584 	-1.07820289e-06
0.9231750801 	2.65505268 	-0.01455816598 	-9.174736078e-07
0.9248833582 	2.644859973 	-0.01426474137 	-7.639686493e-07
0.9265728023 	2.634518044 	-0.01397389638 	-6.17478876e-07
0.9282436194 	2.624026137 	-0.01368563012 	-4.778235905e-07
0.9298960149 	2.613383128 	-0.0133999378 	-3.448459288e-07
0.9315301917 	2.602587512 	-0.01311681028 	-2.183916755e-07
0.9331463504 	2.591637382 	-0.01283623402 	-9.830933297e-08
0.9345222492 	2.582076169 	-0.01259689333 	1.835777783e-06
0.934744687 	2.580530357 	-0.01255819985 	-1.590994696e-08
0.9363253843 	2.569263373 	-0.0122827273 	-1.261957427e-07
0.9378886538 	2.557833548 	-0.01200973943 	-2.304435048e-07
0.9394346874 	2.54623715 	-0.01173920777 	-3.287955499e-07
0.940963675 	2.534469906 	-0.01147110093 	-4.213894858e-07
0.9424758045 	2.522526962 	-0.01120538397 	-5.083597575e-07
0.9439712616 	2.510402827 	-0.01094201862 	-5.898375988e-07
0.9454502299 	2.498091313 	-0.01068096343 	-6.659509893e-07
0.9469128912 	2.485585461 	-0.01042217387 	-7.368320392e-07
0.9483594251 	2.472877461 	-0.01016560175 	-8.026191902e-07
0.9497900093 	2.459958554 	-0.009911195393 	-8.634293015e-07
0.9512048194 	2.446818927 	-0.009658900028 	-9.193748972e-07
0.9526040292 	2.433447597 	-0.009408657066 	-9.70564861e-07
0.9539878108 	2.419832282 	-0.009160404142 	-1.017104364e-06
0.9553563339 	2.40595927 	-0.008914074919 	-1.059094755e-06
0.9567097669 	2.391813297 	-0.008669599245 	-1.096633772e-06
0.9580482759 	2.377377444 	-0.008426902617 	-1.129824215e-06
0.9593720254 	2.362633091 	-0.008185905941 	-1.158759384e-06
0.960681178 	2.347559968 	-0.007946529914 	-1.183524126e-06
0.9619758945 	2.332136389 	-0.007708696368 	-1.204199772e-06
0.963256334 	2.317692234 	-0.007492236607 	-1.224190422e-06
0.9640904201 	2.305745632 	-0.007317698274 	-1.229664802e-06
0.9649091234 	2.295083723 	-0.007165289475 	-1.236696771e-06
0.9657127275 	2.284352963 	-0.007015109831 	-1.242043829e-06
0.9665015107 	2.273546786 	-0.006867093169 	-1.245774996e-06
0.9672757463 	2.262659033 	-0.00672117977 	-1.247956798e-06
0.9680357026 	2.251683789 	-0.006577313503 	-1.248655323e-06
0.9687816429 	2.240615261 	-0.006435439768 	-1.247933024e-06
0.9695138255 	2.229447698 	-0.006295505588 	-1.245849118e-06
0.9702325042 	2.218175334 	-0.006157459585 	-1.24246055e-06
0.9709379278 	2.20679235 	-0.006021251924 	-1.237822093e-06
0.971630341 	2.195292843 	-0.005886834294 	-1.231986457e-06
0.9723099835 	2.183670808 	-0.005754159895 	-1.225004395e-06
0.9729770908 	2.171920121 	-0.00562318343 	-1.216924811e-06
0.9736318941 	2.160034519 	-0.005493861105 	-1.207794858e-06
0.9742746202 	2.148007589 	-0.005366150626 	-1.197660039e-06
0.9749054919 	2.135832752 	-0.005240011206 	-1.186564307e-06
0.9755247278 	2.123503248 	-0.00511540357 	-1.17455016e-06
0.9761325423 	2.111012121 	-0.004992289964 	-1.161658736e-06
0.9767291462 	2.098352201 	-0.004870634167 	-1.147929906e-06
0.9773147462 	2.085516094 	-0.004750401503 	-1.133402365e-06
0.9778895451 	2.072496165 	-0.004631558888 	-1.118113754e-06
0.9784537421 	2.059284518 	-0.004514074827 	-1.102101148e-06
0.9790075328 	2.045872989 	-0.004397919438 	-1.085400398e-06
0.979551109 	2.032253124 	-0.004283064517 	-1.068046332e-06
0.9800846592 	2.018416165 	-0.00416948357 	-1.050073043e-06
0.9806083682 	2.004353034 	-0.004057151839 	-1.031513965e-06
0.9811224175 	1.990054314 	-0.003946046361 	-1.012401946e-06
0.9816269852 	1.975510229 	-0.003836146006 	-9.927693259e-07
0.9821222462 	1.960710621 	-0.003727431529 	-9.726480022e-07
0.9826083721 	1.945644933 	-0.003619885619 	-9.520694948e-07
0.9830855314 	1.930302172 	-0.003513492943 	-9.310650057e-07
0.9835538894 	1.914670887 	-0.003408240195 	-9.096654744e-07
0.9840136086 	1.898739133 	-0.003304116143 	-8.879016273e-07
0.984464848 	1.882494431 	-0.003201111668 	-8.658040232e-07
0.9849077643 	1.865923723 	-0.003099219811 	-8.43403092e-07
0.9853425108 	1.849013328 	-0.002998435804 	-8.207291691e-07
0.9857692383 	1.831748881 	-0.00289875711 	-7.978125229e-07
0.9861880946 	1.81411527 	-0.002800183453 	-7.746833779e-07
0.9865992248 	1.796096564 	-0.002702716843 	-7.513719314e-07
0.9870027716 	1.777675933 	-0.002606361606 	-7.279083654e-07
0.9873988747 	1.758835554 	-0.002511124401 	-7.043228532e-07
0.9877876714 	1.739556509 	-0.002417014235 	-6.806455612e-07
0.9881692965 	1.71981867 	-0.002324042481 	-6.569066462e-07
0.9885438823 	1.699600563 	-0.002232222897 	-6.331362593e-07
0.9889115585 	1.678879231 	-0.00214157162 	-6.093645696e-07
0.9892724526 	1.657630065 	-0.00205210718 	-5.856216657e-07
0.9896266897 	1.635826624 	-0.00196385051 	-5.619375806e-07
0.9899743926 	1.613440439 	-0.00187682495 	-5.383422909e-07
0.9903156818 	1.590440784 	-0.001791056245 	-5.148656994e-07
0.9906506755 	1.566794428 	-0.001706572718 	-4.915375871e-07
0.99097949 	1.542465347 	-0.001623405195 	-4.683877525e-07
0.9913022391 	1.517414379 	-0.001541586355 	-4.454459639e-07
0.9916190347 	1.491598807 	-0.001461151223 	-4.227415571e-07
0.9919299867 	1.464971993 	-0.001382138219 	-4.003038602e-07
0.9922352028 	1.437483133 	-0.001304588268 	-3.781624636e-07
0.9925347888 	1.409077047 	-0.001228545025 	-3.563466433e-07
0.9928288486 	1.379693901 	-0.001154056929 	-3.348854833e-07
0.993117484 	1.349268908 	-0.001081161051 	-3.138081905e-07
0.9934007952 	1.317732161 	-0.001009844603 	-2.931440409e-07
0.9936788803 	1.287851354 	-0.0009461099113 	-2.74735863e-07
0.9938578551 	1.262788952 	-0.0008954970711 	-2.598634304e-07
0.9940368302 	1.239875769 	-0.0008512914231 	-2.469565574e-07
0.9942158055 	1.216059598 	-0.000807319447 	-2.341165375e-07
0.994394781 	1.191281041 	-0.0007636548699 	-2.213571518e-07
0.9945737568 	1.165474759 	-0.000720345096 	-2.086932873e-07
0.9947527327 	1.138568533 	-0.0006774327921 	-1.961407206e-07
0.9949317089 	1.110485017 	-0.00063496706 	-1.83716335e-07
0.9951106853 	1.081143163 	-0.000593003327 	-1.71438916e-07
0.9952896619 	1.050456854 	-0.0005516012476 	-1.593286819e-07
0.9954686388 	1.01833373 	-0.000510825483 	-1.474071629e-07
0.9956476158 	0.9846755034 	-0.0004707474933 	-1.356977858e-07
0.9958265931 	0.9493789473 	-0.0004314468543 	-1.24225916e-07
0.9960055706 	0.912337514 	-0.0003929985576 	-1.130154645e-07
0.9961845483 	0.8734437521 	-0.000355449936 	-1.020904318e-07
0.9963635262 	0.8325927742 	-0.0003189251428 	-9.150731006e-08
0.9965425044 	0.7896865288 	-0.0002849296935 	-8.164062466e-08
0.9967214828 	0.7446340606 	-0.0002521786813 	-7.138108823e-08
0.9969004614 	0.6972823677 	-0.0002163712361 	-6.124524451e-08
0.9970794402 	0.6473610161 	-0.0001819460568 	-5.321362142e-08
0.9972584192 	0.5946871117 	-0.0001540791996 	-4.513219833e-08
0.9974373985 	0.5394042307 	-0.0001288534896 	-3.672956271e-08
0.9976163779 	0.4819352448 	-0.0001046343265 	-2.941670284e-08
0.9977953576 	0.4228434932 	-8.245260072e-05 	-2.274924491e-08
0.9979743375 	0.3627245704 	-6.197339707e-05 	-1.683962517e-08
0.9981533176 	0.3020955984 	-4.360953403e-05 	-1.177884867e-08
0.998332298 	0.2413305484 	-2.807373665e-05 	-7.598090041e-09
0.9985112786 	0.180655516 	-1.583105507e-05 	-4.299892632e-09
0.9986902593 	0.120183614 	-7.031509415e-06 	-1.898321258e-09
0.9988692404 	0.05996021536 	-2.552774681e-06 	-8.979654478e-10
0.9990482216 	0.02504402465 	-1.346533056e-06 	-7.314390785e-10
