0.4709558481 	0.02904786855 	-1.532964514e-08 	1.787163832e-11
0.4711314108 	0.07986797392 	-8.306281747e-08 	-8.506188343e-11
0.4713069734 	0.1596347575 	-1.781655876e-07 	-4.622432806e-10
0.471482536 	0.239275835 	-7.00599498e-08 	-1.146388453e-09
0.4716580986 	0.3186977633 	4.190423893e-07 	-2.104510134e-09
0.4718336613 	0.3976683977 	9.521078817e-07 	-3.293600196e-09
0.4720092239 	0.4757409325 	5.379101747e-07 	-4.677926413e-09
0.4721847865 	0.5522279022 	-1.536507251e-06 	-6.224134581e-09
0.4723603491 	0.6262801095 	-4.49417266e-06 	-7.901622979e-09
0.4725359118 	0.6970670457 	-1.067007715e-05 	-9.707915995e-09
0.4727114744 	0.7639727079 	-1.221948511e-05 	-1.156119955e-08
0.472887037 	0.8268948492 	-4.957939876e-06 	-1.346200144e-08
0.4730625996 	0.8862011345 	-3.884299387e-06 	-1.549390962e-08
0.4732381623 	0.9422215055 	-7.821965415e-06 	-1.755180391e-08
0.4734137249 	0.9951242615 	-9.052611329e-06 	-1.960660544e-08
0.4735892875 	1.045069065 	-9.800215601e-06 	-2.170568034e-08
0.4737648501 	1.092229577 	-1.06694949e-05 	-2.382793769e-08
0.4739404128 	1.13678599 	-1.159286134e-05 	-2.597028299e-08
0.4741159754 	1.178917828 	-1.252176564e-05 	-2.813320914e-08
0.474291538 	1.218798956 	-1.344849297e-05 	-3.031751464e-08
0.4744671006 	1.2565944 	-1.43695385e-05 	-3.252326929e-08
0.4746426632 	1.29245851 	-1.528074093e-05 	-3.475000689e-08
0.4748182259 	1.326534278 	-1.617857829e-05 	-3.699639508e-08
0.4749937885 	1.358954389 	-1.706053582e-05 	-3.926048275e-08
0.4751693511 	1.389842695 	-1.792482392e-05 	-4.153988854e-08
0.4753449137 	1.419313188 	-1.876966817e-05 	-4.383183527e-08
0.4755204764 	1.447468662 	-1.959291504e-05 	-4.613310908e-08
0.475696039 	1.474401985 	-2.039179937e-05 	-4.844034114e-08
0.4758716016 	1.500197895 	-2.117170876e-05 	-5.075075231e-08
0.4760471642 	1.524934121 	-2.196728656e-05 	-5.305900397e-08
0.4762227269 	1.551904502 	-2.284378264e-05 	-5.566022199e-08
0.4764955107 	1.583947338 	-2.377837486e-05 	-5.884284937e-08
0.4767734216 	1.617636946 	-2.475292284e-05 	-6.231809741e-08
0.4770565557 	1.650018475 	-2.575531221e-05 	-6.580389082e-08
0.4773450114 	1.6811842 	-2.671507763e-05 	-6.929119874e-08
0.4776388886 	1.7112188 	-2.761545046e-05 	-7.278076897e-08
0.4779382892 	1.740199656 	-2.845497841e-05 	-7.627402772e-08
0.4782433171 	1.76819737 	-2.922901591e-05 	-7.979346472e-08
0.4785540779 	1.795276328 	-2.992926909e-05 	-8.338869207e-08
0.4788706795 	1.821495291 	-3.055005191e-05 	-8.707914569e-08
0.4791932316 	1.846907986 	-3.108686608e-05 	-9.087934312e-08
0.4795218461 	1.871563643 	-3.153508523e-05 	-9.481572559e-08
0.4798566368 	1.895507484 	-3.189060834e-05 	-9.894417933e-08
0.48019772 	1.918781175 	-3.214742339e-05 	-1.032247745e-07
0.4805452138 	1.941423166 	-3.230777393e-05 	-1.07631272e-07
0.4808992388 	1.963468949 	-3.237598597e-05 	-1.121484266e-07
0.4812599177 	1.984951331 	-3.234770481e-05 	-1.166962576e-07
0.4816273755 	2.005900745 	-3.222011015e-05 	-1.212562696e-07
0.4820017397 	2.026345507 	-3.199177675e-05 	-1.258035842e-07
0.48238314 	2.046312025 	-3.165884912e-05 	-1.303215356e-07
0.4827717088 	2.065824975 	-3.121589118e-05 	-1.34790589e-07
0.4831675807 	2.084907451 	-3.06556113e-05 	-1.391972299e-07
0.4835708931 	2.103581111 	-2.997159161e-05 	-1.436817139e-07
0.4839817856 	2.12186631 	-2.915062729e-05 	-1.481656202e-07
0.4844004009 	2.139782227 	-2.81801063e-05 	-1.525875273e-07
0.4848268841 	2.157346961 	-2.705291509e-05 	-1.570582561e-07
0.485261383 	2.174577627 	-2.575959342e-05 	-1.615159671e-07
0.4857040484 	2.191490449 	-2.429241901e-05 	-1.659381917e-07
0.4861550336 	2.208100839 	-2.264408936e-05 	-1.703112081e-07
0.4866144951 	2.22442347 	-2.080721642e-05 	-1.746271605e-07
0.4870825921 	2.240472336 	-1.877413243e-05 	-1.788849821e-07
0.487559487 	2.256260802 	-1.653687815e-05 	-1.830906583e-07
0.4880453452 	2.271801653 	-1.408735588e-05 	-1.872565239e-07
0.4885403351 	2.28710714 	-1.141768058e-05 	-1.914007807e-07
0.4890446283 	2.302189013 	-8.520492482e-06 	-1.955400504e-07
0.4895583997 	2.317058553 	-5.388947758e-06 	-1.996801418e-07
0.4900818274 	2.331726596 	-2.016515443e-06 	-2.038348068e-07
0.4906150929 	2.346203558 	1.604182328e-06 	-2.080217442e-07
0.4911583811 	2.360499476 	5.48214177e-06 	-2.122515415e-07
0.4917118805 	2.37462403 	9.627653031e-06 	-2.16536817e-07
0.4922757829 	2.388586562 	1.405212301e-05 	-2.208870773e-07
0.4928502838 	2.4023961 	1.876783753e-05 	-2.253081869e-07
0.4934355824 	2.416061368 	2.378778891e-05 	-2.298033372e-07
0.4940318817 	2.429590802 	2.9125588e-05 	-2.343743434e-07
0.4946393885 	2.442992568 	3.479543998e-05 	-2.390227655e-07
0.4952583133 	2.456274568 	4.081215303e-05 	-2.437506368e-07
0.4958888709 	2.469444454 	4.719115387e-05 	-2.485607066e-07
0.4965312797 	2.482509634 	5.3948493e-05 	-2.534561508e-07
0.4971857627 	2.495477281 	6.110083331e-05 	-2.584397227e-07
0.4978525466 	2.508354338 	6.866543093e-05 	-2.635124714e-07
0.4985318627 	2.521147519 	7.666012734e-05 	-2.68672465e-07
0.4992239466 	2.533863319 	8.510336626e-05 	-2.739142878e-07
0.4999290382 	2.546508019 	9.401423652e-05 	-2.792300551e-07
0.5006473819 	2.559087695 	0.0001034125339 	-2.846117693e-07
0.501379227 	2.571608247 	0.0001133188283 	-2.90053645e-07
0.502124827 	2.584075427 	0.0001237545176 	-2.955530833e-07
0.5028844406 	2.596494909 	0.0001347419123 	-3.011101919e-07
0.5036583311 	2.608872378 	0.0001463044078 	-3.06728197e-07
0.5044467669 	2.621213681 	0.0001584655375 	-3.124181104e-07
0.5052500214 	2.633525029 	0.0001712443565 	-3.181712838e-07
0.506068373 	2.647378493 	0.000186419946 	-3.245644491e-07
0.507324668 	2.664208746 	0.0002060713171 	-3.320564428e-07
0.5085949819 	2.682272883 	0.0002286945824 	-3.400374332e-07
0.5098794711 	2.700019354 	0.0002525529094 	-3.480664676e-07
0.5111782938 	2.717464725 	0.0002776805912 	-3.561450788e-07
0.5124916099 	2.734624318 	0.0003041036799 	-3.642616729e-07
0.5138195812 	2.751512131 	0.0003318457542 	-3.724149933e-07
0.5151623712 	2.768141027 	0.0003609304275 	-3.806046638e-07
0.5165201452 	2.784523126 	0.0003913820376 	-3.888298885e-07
0.5178930705 	2.800670331 	0.0004232269125 	-3.970903427e-07
0.5192813161 	2.816594904 	0.0004564950371 	-4.053864587e-07
0.520685053 	2.832310012 	0.0004912217048 	-4.137189652e-07
0.522104454 	2.847830048 	0.0005274484816 	-4.220877349e-07
0.523539694 	2.863170429 	0.0005652229714 	-4.304907422e-07
0.5249909497 	2.878346357 	0.0006045961164 	-4.389218788e-07
0.5264583998 	2.893369778 	0.0006456055438 	-4.473629775e-07
0.527942225 	2.908243628 	0.0006882377499 	-4.557785348e-07
0.5294426081 	2.922953825 	0.0007323889682 	-4.641186473e-07
0.5309597337 	2.937462055 	0.0007778304652 	-4.723132293e-07
0.5324937889 	2.951702894 	0.0008241734061 	-4.802650976e-07
0.5340449624 	2.965585892 	0.0008708617283 	-4.878571632e-07
0.5356134452 	2.979001188 	0.0009172034184 	-4.94966303e-07
0.5371994306 	2.991827704 	0.0009624201202 	-5.014937588e-07
0.5388031139 	3.003944052 	0.001005711926 	-5.074222558e-07
0.5404246925 	3.015243082 	0.00104634511 	-5.128717252e-07
0.5420643661 	3.025650715 	0.001083733463 	-5.180653737e-07
0.5437223366 	3.035148108 	0.001117152659 	-5.228361528e-07
0.5453988083 	3.043794068 	0.001147133629 	-5.28793866e-07
0.5470939875 	3.051746104 	0.001175485831 	-5.350130349e-07
0.5488080831 	3.059218833 	0.001202091433 	-5.396263875e-07
0.5505413061 	3.066362472 	0.001227469449 	-5.454941779e-07
0.5522938699 	3.073216915 	0.001253308783 	-5.518565837e-07
0.5540659904 	3.079777644 	0.001279089363 	-5.57327101e-07
0.5558578859 	3.086039035 	0.001304189914 	-5.629509538e-07
0.5576697768 	3.091995573 	0.001328698762 	-5.684599726e-07
0.5595018865 	3.097642035 	0.001352475039 	-5.738029144e-07
0.5613544406 	3.102973672 	0.001375358501 	-5.789550491e-07
0.563227667 	3.107986415 	0.001397191044 	-5.838927336e-07
0.5651217966 	3.112677068 	0.00141781476 	-5.885955188e-07
0.5670370626 	3.117043472 	0.001437073501 	-5.930489181e-07
0.5689737009 	3.121084669 	0.001454816355 	-5.972441412e-07
0.5709319499 	3.124801038 	0.001470900837 	-6.011777364e-07
0.5729120508 	3.128194443 	0.001485196646 	-6.048513648e-07
0.5749142474 	3.131268399 	0.001497586411 	-6.082677618e-07
0.5769387863 	3.134028328 	0.001507968554 	-6.114382549e-07
0.5789859169 	3.136482209 	0.001516276435 	-6.143896099e-07
0.5810558911 	3.138641655 	0.001522485748 	-6.171476954e-07
0.583148964 	3.140521956 	0.001526606082 	-6.19740762e-07
0.5852653933 	3.142140239 	0.001528682724 	-6.222002073e-07
0.5874054395 	3.143513542 	0.001528782766 	-6.245430599e-07
0.5895693664 	3.144658111 	0.001526975463 	-6.267788071e-07
0.5917574402 	3.145589319 	0.001523332787 	-6.289352364e-07
0.5939699306 	3.146321656 	0.001517931891 	-6.309986134e-07
0.5962071099 	3.146868721 	0.001510852029 	-6.329581211e-07
0.5984692536 	3.147243224 	0.001502172705 	-6.348667593e-07
0.6007566404 	3.147457 	0.001491972135 	-6.36753087e-07
0.6030695519 	3.147521024 	0.001480330272 	-6.385957729e-07
0.6054082729 	3.147445448 	0.001467322133 	-6.403815355e-07
0.6077730914 	3.147239592 	0.001453019967 	-6.421175471e-07
0.6101642987 	3.146911997 	0.001437495861 	-6.437989525e-07
0.6125821893 	3.146470499 	0.001420816187 	-6.454204864e-07
0.6150270608 	3.145922253 	0.001403045333 	-6.469776573e-07
0.6174992144 	3.145273776 	0.001384244051 	-6.48465834e-07
0.6199989545 	3.144530984 	0.00136446961 	-6.498804043e-07
0.622526589 	3.143699235 	0.001343775827 	-6.512168337e-07
0.625082429 	3.142783369 	0.001322213113 	-6.524706656e-07
0.6276667894 	3.141787743 	0.001299828551 	-6.536375093e-07
0.6302799884 	3.140716264 	0.00127666601 	-6.547130294e-07
0.6329223478 	3.139572426 	0.001252766269 	-6.55692937e-07
0.6355941931 	3.138359336 	0.001228167158 	-6.565729829e-07
0.6382958531 	3.137079741 	0.001202903699 	-6.573489536e-07
0.6410276607 	3.135736058 	0.001177008263 	-6.580166686e-07
0.6437899523 	3.134330393 	0.001150510712 	-6.585719808e-07
0.646583068 	3.132864565 	0.001123438558 	-6.590107784e-07
0.6494073518 	3.131340125 	0.001095817099 	-6.593289866e-07
0.6522631514 	3.129758373 	0.00106766957 	-6.595225711e-07
0.6551508186 	3.128120376 	0.001039017275 	-6.595875432e-07
0.658070709 	3.126426982 	0.001009879723 	-6.595199654e-07
0.6610231822 	3.124678834 	0.0009802747511 	-6.593159585e-07
0.6640086017 	3.12287638 	0.0009502186483 	-6.589717099e-07
0.6670273351 	3.121019888 	0.0009197262703 	-6.584834866e-07
0.6700797543 	3.11910945 	0.0008888111503 	-6.57847653e-07
0.6731662352 	3.117145 	0.0008574856028 	-6.570606974e-07
0.6762871577 	3.11512631 	0.0008257608229 	-6.561192744e-07
0.6794429063 	3.113053008 	0.000793646978 	-6.550202706e-07
0.6826338695 	3.110924578 	0.0007611532911 	-6.537609062e-07
0.6858604404 	3.108740367 	0.0007282881137 	-6.523388224e-07
0.6891230163 	3.106499589 	0.0006950589868 	-6.507518399e-07
0.6924219988 	3.104201334 	0.0006614726435 	-6.489982121e-07
0.6957577944 	3.101844562 	0.0006275349704 	-6.470771816e-07
0.6991308138 	3.099428115 	0.0005932512043 	-6.449854624e-07
0.7025414724 	3.096950714 	0.0005586261135 	-6.427193385e-07
0.7059901901 	3.094410962 	0.0005236639874 	-6.402773543e-07
0.7094773917 	3.091807349 	0.0004883686231 	-6.376577555e-07
0.7130035066 	3.089138247 	0.0004527432635 	-6.348590639e-07
0.7165689691 	3.086401914 	0.0004167905292 	-6.318803151e-07
0.7201742182 	3.083596497 	0.0003805123212 	-6.287211764e-07
0.7238196978 	3.080720027 	0.0003439096924 	-6.253820286e-07
0.727505857 	3.077770423 	0.0003069826603 	-6.218640624e-07
0.7312331497 	3.074745491 	0.0002697298964 	-6.181691123e-07
0.7350020349 	3.071651226 	0.0002322481865 	-6.143077228e-07
0.7387709215 	3.068512534 	0.0001948509154 	-6.103124059e-07
0.7424982157 	3.065355711 	0.0001578465868 	-6.062197248e-07
0.7461843763 	3.062189406 	0.000121320979 	-6.020530105e-07
0.7498298574 	3.059013904 	8.52586514e-05 	-5.978299694e-07
0.7534351078 	3.055829414 	4.964215906e-05 	-5.935656348e-07
0.7570005716 	3.052636075 	1.445207867e-05 	-5.892749249e-07
0.7605266877 	3.04943397 	-2.033296818e-05 	-5.849735653e-07
0.7640138905 	3.046223135 	-5.473639936e-05 	-5.806773134e-07
0.7674626093 	3.043003569 	-8.878378223e-05 	-5.764014866e-07
0.770873269 	3.039775244 	-0.0001225028533 	-5.721616307e-07
0.7742462894 	3.036538117 	-0.000155923638 	-5.679744126e-07
0.777582086 	3.033292135 	-0.0001890788476 	-5.638586338e-07
0.7808810695 	3.030037253 	-0.000222004193 	-5.598341751e-07
0.7841436462 	3.026773439 	-0.0002547369198 	-5.559157082e-07
0.787370218 	3.023500694 	-0.0002873086423 	-5.52179396e-07
0.7905611821 	3.020219058 	-0.0003198126135 	-5.488600873e-07
0.7937169314 	3.016928487 	-0.0003522803778 	-5.453852167e-07
0.7968378547 	3.01362658 	-0.0003845690285 	-5.413235426e-07
0.7999243362 	3.01030704 	-0.0004165116883 	-5.366050376e-07
0.8029767561 	3.006962995 	-0.0004478182558 	-5.311962643e-07
0.8059954902 	3.003589408 	-0.0004782407887 	-5.255888545e-07
0.8089809102 	3.000182406 	-0.0005077354513 	-5.198844407e-07
0.8119333839 	2.996738681 	-0.0005362772127 	-5.140576547e-07
0.8148532749 	2.993255194 	-0.0005638461428 	-5.081580611e-07
0.8177409426 	2.989729035 	-0.0005904285086 	-5.022235029e-07
0.8205967427 	2.986157377 	-0.0006160150456 	-4.962682936e-07
0.8234210268 	2.982537481 	-0.0006405994697 	-4.902941032e-07
0.8262141429 	2.978866704 	-0.0006641769975 	-4.842999953e-07
0.8289764348 	2.9751425 	-0.0006867429912 	-4.782862646e-07
0.8317082427 	2.971362402 	-0.0007082919642 	-4.722544419e-07
0.8344099031 	2.967523986 	-0.0007288169624 	-4.662064398e-07
0.8370817486 	2.963624822 	-0.0007483092365 	-4.601441365e-07
0.8397241082 	2.959662414 	-0.0007667581394 	-4.540693633e-07
0.8423373074 	2.955634143 	-0.0007841511988 	-4.479839542e-07
0.844921668 	2.95153721 	-0.0008004743064 	-4.418897086e-07
0.8474775082 	2.947368592 	-0.0008157119566 	-4.357883091e-07
0.8500051427 	2.943125004 	-0.0008298474716 	-4.296812728e-07
0.8525048829 	2.938802876 	-0.0008428631761 	-4.235699819e-07
0.8549770366 	2.934398339 	-0.0008547405159 	-4.174558077e-07
0.8574219081 	2.929907215 	-0.0008654601481 	-4.113403383e-07
0.8598397987 	2.925325021 	-0.0008750020523 	-4.052256965e-07
0.862231006 	2.920646975 	-0.0008833457258 	-3.991148691e-07
0.8645958245 	2.915868006 	-0.0008904705163 	-3.930118556e-07
0.8669345455 	2.910982773 	-0.0008963561083 	-3.869213728e-07
0.8692474569 	2.905985688 	-0.0009009831268 	-3.808480036e-07
0.8715348435 	2.900870947 	-0.0009043337655 	-3.747949991e-07
0.8737969871 	2.895632563 	-0.0009063922898 	-3.687627863e-07
0.8760341663 	2.890264404 	-0.0009071451286 	-3.627436658e-07
0.8782466565 	2.884760237 	-0.000906581928 	-3.56756654e-07
0.8804347301 	2.879113794 	-0.0009046953105 	-3.508142763e-07
0.8825986568 	2.873318842 	-0.0009014817223 	-3.449096179e-07
0.8847387028 	2.867369279 	-0.0008969436022 	-3.390498082e-07
0.8868551318 	2.861259224 	-0.0008910895655 	-3.332272862e-07
0.8889482045 	2.8549831 	-0.0008839351417 	-3.274196137e-07
0.8910181784 	2.84853573 	-0.000875503666 	-3.216036223e-07
0.8930653087 	2.84191241 	-0.0008658268761 	-3.15772698e-07
0.8950898473 	2.835108989 	-0.0008549449759 	-3.099382279e-07
0.8970920436 	2.828121922 	-0.0008429062794 	-3.041207062e-07
0.8990721441 	2.820948309 	-0.0008297665964 	-2.983457766e-07
0.9010303927 	2.813585923 	-0.000815589106 	-2.92642367e-07
0.9029670306 	2.806033221 	-0.0008004433927 	-2.870444587e-07
0.9048822962 	2.798289327 	-0.0007844046433 	-2.815804668e-07
0.9067764254 	2.790353993 	-0.0007675534047 	-2.762602544e-07
0.9086496514 	2.782227534 	-0.0007499742594 	-2.710820321e-07
0.910502205 	2.773910765 	-0.0007317544913 	-2.660398905e-07
0.9123343142 	2.765404923 	-0.0007129827554 	-2.611274208e-07
0.9141462048 	2.756711582 	-0.0006937477989 	-2.563386646e-07
0.9159380997 	2.747832565 	-0.0006741373292 	-2.516677895e-07
0.9177102197 	2.738769858 	-0.0006542370306 	-2.471087222e-07
0.9194627831 	2.729525517 	-0.0006341297184 	-2.426551689e-07
0.9211960055 	2.720101592 	-0.000613894646 	-2.383008606e-07
0.9229101006 	2.710500048 	-0.0005936069811 	-2.340395593e-07
0.9246052793 	2.700722702 	-0.0005733374568 	-2.298643249e-07
0.9262817504 	2.690771158 	-0.0005531520753 	-2.257669636e-07
0.9279397204 	2.680646758 	-0.0005331119213 	-2.217379852e-07
0.9295793934 	2.670350533 	-0.0005132729868 	-2.17768515e-07
0.9312009714 	2.659883167 	-0.0004936860389 	-2.138522369e-07
0.9328046541 	2.649244961 	-0.0004743967382 	-2.09984631e-07
0.9343906389 	2.638435805 	-0.0004554458598 	-2.061618437e-07
0.9359591211 	2.627455146 	-0.0004368695448 	-2.023801296e-07
0.937510294 	2.616301961 	-0.0004186995474 	-1.986357825e-07
0.9390443485 	2.604974725 	-0.0004009634686 	-1.949252792e-07
0.9405614735 	2.593471384 	-0.0003836849859 	-1.912454027e-07
0.942061856 	2.581789316 	-0.0003668840859 	-1.875932744e-07
0.9435456805 	2.56992529 	-0.0003505772977 	-1.83966328e-07
0.9450131299 	2.557875421 	-0.0003347779222 	-1.803622692e-07
0.946464385 	2.545635114 	-0.0003194962523 	-1.76779047e-07
0.9478996243 	2.533198998 	-0.0003047397792 	-1.732148355e-07
0.9493190246 	2.520560851 	-0.0002905133869 	-1.696680206e-07
0.9507227608 	2.507713517 	-0.0002768195308 	-1.66137186e-07
0.9521110058 	2.494648806 	-0.0002636584049 	-1.626210974e-07
0.9534839303 	2.481357391 	-0.0002510280958 	-1.591186871e-07
0.9548417036 	2.467828687 	-0.0002389247253 	-1.556290412e-07
0.9561844929 	2.454050738 	-0.0002273425823 	-1.52151387e-07
0.9575124634 	2.440010106 	-0.0002162742459 	-1.4868504e-07
0.9588257788 	2.425691787 	-0.0002057107362 	-1.452292647e-07
0.9601246008 	2.411079175 	-0.0001956416799 	-1.417836599e-07
0.9614090893 	2.396154132 	-0.0001860547778 	-1.383503804e-07
0.9626794024 	2.380897218 	-0.0001769345415 	-1.349282266e-07
0.9639356968 	2.366623525 	-0.0001689848232 	-1.317508577e-07
0.9647540487 	2.354829721 	-0.0001628243714 	-1.290994815e-07
0.9655573034 	2.344313179 	-0.0001576185752 	-1.267390142e-07
0.9663457395 	2.333737929 	-0.0001526441699 	-1.244035061e-07
0.9671196303 	2.32309798 	-0.0001478914823 	-1.22095031e-07
0.9678792442 	2.312387675 	-0.0001433500424 	-1.198109468e-07
0.9686248445 	2.301601537 	-0.0001390093568 	-1.175503481e-07
0.9693566897 	2.290734163 	-0.000134859253 	-1.153126967e-07
0.9700750337 	2.279780151 	-0.0001308898696 	-1.130974479e-07
0.9707801255 	2.268734052 	-0.0001270916512 	-1.109040794e-07
0.9714722095 	2.257590333 	-0.000123455358 	-1.08732101e-07
0.9721515258 	2.246343352 	-0.0001199720729 	-1.065810443e-07
0.9728183099 	2.23498734 	-0.0001166332062 	-1.044504559e-07
0.9734727929 	2.22351638 	-0.0001134304963 	-1.023398945e-07
0.9741152019 	2.211924398 	-0.0001103560106 	-1.002489296e-07
0.9747457596 	2.20020514 	-0.0001074021426 	-9.817714274e-08
0.9753646845 	2.188352163 	-0.0001045616087 	-9.612412728e-08
0.9759721914 	2.176358815 	-0.0001018274429 	-9.40894888e-08
0.9765684907 	2.164218218 	-9.919299001e-05 	-9.207284493e-08
0.9771537895 	2.151923256 	-9.665189871e-05 	-9.007382486e-08
0.9777282904 	2.139466551 	-9.419811264e-05 	-8.809206866e-08
0.9782921928 	2.126840449 	-9.182586146e-05 	-8.612722656e-08
0.9788456922 	2.114037 	-8.952965123e-05 	-8.417895813e-08
0.9793889805 	2.101047939 	-8.730425437e-05 	-8.224693169e-08
0.979922246 	2.087864665 	-8.514469962e-05 	-8.033082369e-08
0.9804456737 	2.074478219 	-8.304626176e-05 	-7.84303183e-08
0.9809594451 	2.060879263 	-8.10044516e-05 	-7.65451072e-08
0.9814637383 	2.047058053 	-7.901500608e-05 	-7.467488946e-08
0.9819587281 	2.033004415 	-7.70738787e-05 	-7.281937178e-08
0.9824445862 	2.018707713 	-7.517723024e-05 	-7.097826881e-08
0.9829214811 	2.004156821 	-7.332141998e-05 	-6.915130388e-08
0.9833895781 	1.989340082 	-7.150299742e-05 	-6.733820986e-08
0.9838490396 	1.974245274 	-6.97186945e-05 	-6.553873039e-08
0.9843000247 	1.958859567 	-6.796541836e-05 	-6.375262134e-08
0.98474269 	1.943169468 	-6.62402447e-05 	-6.197965259e-08
0.9851771888 	1.927160776 	-6.454041183e-05 	-6.02196101e-08
0.9856036719 	1.910818514 	-6.286331533e-05 	-5.847229836e-08
0.9860222871 	1.894126867 	-6.120650325e-05 	-5.673754314e-08
0.9864331796 	1.877069105 	-5.956767217e-05 	-5.501519466e-08
0.9868364919 	1.859627497 	-5.794466375e-05 	-5.330513115e-08
0.9872323637 	1.841783221 	-5.633546212e-05 	-5.160726276e-08
0.9876209323 	1.823516258 	-5.473819189e-05 	-4.992153564e-08
0.9880023326 	1.804805274 	-5.315111691e-05 	-4.82479362e-08
0.9883766967 	1.785627492 	-5.157263978e-05 	-4.658649523e-08
0.9887441544 	1.765958547 	-5.000130208e-05 	-4.49372917e-08
0.9891048331 	1.745772327 	-4.843578543e-05 	-4.330045615e-08
0.9894588579 	1.725040792 	-4.68749135e-05 	-4.167617365e-08
0.9898063516 	1.70373378 	-4.53176532e-05 	-4.006468674e-08
0.9901474347 	1.681818788 	-4.376311109e-05 	-3.846629871e-08
0.9904822253 	1.659260733 	-4.221054286e-05 	-3.688137827e-08
0.9908108397 	1.636021678 	-4.065954444e-05 	-3.531036857e-08
0.9911333916 	1.612060532 	-3.910975307e-05 	-3.375379302e-08
0.9914499931 	1.587332679 	-3.756039482e-05 	-3.221225881e-08
0.9917607538 	1.561789577 	-3.601129908e-05 	-3.068647655e-08
0.9920657815 	1.535378398 	-3.446307239e-05 	-2.91772693e-08
0.9923651819 	1.50804175 	-3.291592896e-05 	-2.768555103e-08
0.992659059 	1.479717358 	-3.137085457e-05 	-2.62123083e-08
0.9929475145 	1.450337709 	-2.983127291e-05 	-2.475867447e-08
0.9932306485 	1.419829721 	-2.828634606e-05 	-2.332620534e-08
0.9935085592 	1.388114583 	-2.667284236e-05 	-2.191605553e-08
0.9937813429 	1.357979318 	-2.521025012e-05 	-2.064009383e-08
0.9939569055 	1.332640078 	-2.411907145e-05 	-1.960831189e-08
0.9941324681 	1.309424096 	-2.315105377e-05 	-1.869761687e-08
0.9943080307 	1.285243189 	-2.213564346e-05 	-1.778769514e-08
0.9944835934 	1.26003189 	-2.110875326e-05 	-1.687965813e-08
0.994659156 	1.233717872 	-2.00767807e-05 	-1.597401773e-08
0.9948347186 	1.206221323 	-1.903881843e-05 	-1.507157181e-08
0.9950102812 	1.177457388 	-1.79956258e-05 	-1.417328758e-08
0.9951858439 	1.147336846 	-1.694835866e-05 	-1.328025487e-08
0.9953614065 	1.115764267 	-1.589802532e-05 	-1.239368014e-08
0.9955369691 	1.082637187 	-1.48456031e-05 	-1.151491711e-08
0.9957125317 	1.047846443 	-1.379234117e-05 	-1.064549906e-08
0.9958880943 	1.011277131 	-1.274077401e-05 	-9.787155369e-09
0.996063657 	0.9728101962 	-1.168987072e-05 	-8.941665619e-09
0.9962392196 	0.9323248569 	-1.060778297e-05 	-8.110972224e-09
0.9964147822 	0.8897021342 	-9.459751954e-06 	-7.298744048e-09
0.9965903448 	0.8448295812 	-8.837810783e-06 	-6.523986523e-09
0.9967659075 	0.7976051701 	-1.003117353e-05 	-5.734639774e-09
0.9969414701 	0.7479114589 	-7.487231701e-06 	-4.958505954e-09
0.9971170327 	0.695504952 	-9.916850867e-07 	-4.292020197e-09
0.9972925953 	0.6401163716 	-6.926521197e-07 	-3.633044305e-09
0.997468158 	0.5817983221 	-3.256377914e-06 	-2.971221905e-09
0.9976437206 	0.5209463012 	-3.742542895e-06 	-2.375884073e-09
0.9978192832 	0.4581123277 	-4.131603727e-06 	-1.82948684e-09
0.9979948458 	0.3938977371 	-3.745101118e-06 	-1.34233776e-09
0.9981704085 	0.3288364905 	-2.702580258e-06 	-9.229884152e-10
0.9983459711 	0.2633212879 	-1.571676852e-06 	-5.765703413e-10
0.9985215337 	0.1975921083 	-7.474993665e-07 	-3.072572292e-10
0.9986970963 	0.1317692635 	-2.792695584e-07 	-1.210573841e-10
0.998872659 	0.06590034097 	-6.46174979e-08 	-2.165917654e-11
0.9990482216 	0.02774963484 	-5.327854115e-09 	5.330945989e-12
0.9990482216 	0.02774963484 	-5.327854115e-09 	5.330945989e-12
