0 	0.07574063901 	-3.083711412e-15 	4.569807275e-19 	8.851329407e-16 	3.864573879e-17 	1.687309395e-18
0.0003137191626 	0.0759344171 	0.001366421615 	7.812351972e-09 	0.1159400382 	4.724958304e-07 	0.0002210139367
0.0006274377305 	0.07603483881 	0.000389069539 	9.496465962e-10 	0.1188030279 	1.403346088e-07 	0.0002264715908
0.0007529268723 	0.07601026128 	0.0002843809029 	-7.966937695e-06 	0.1189209674 	-0.001032080097 	0.0002266964162
0.000941155703 	0.0759734921 	0.0001273728915 	5.132345172e-10 	0.1190974449 	2.291419274e-07 	0.0002270328314
0.001254873079 	0.07600012352 	3.15715409e-05 	1.964757059e-10 	0.1193676739 	6.138275224e-07 	0.0002275479629
0.001568589859 	0.07599079477 	-2.419194125e-05 	-9.464955104e-10 	0.1194037904 	9.977592603e-07 	0.0002276168112
0.001882306041 	0.0759829221 	-6.660337189e-05 	-2.738723184e-09 	0.1194373879 	1.381770758e-06 	0.0002276808573
0.002196021624 	0.07597449012 	-0.0001030460797 	-5.125983562e-09 	0.1194671169 	1.765733024e-06 	0.0002277375289
0.00250973661 	0.07596486597 	-0.0001362729979 	-8.081613974e-09 	0.1194941171 	2.149562892e-06 	0.0002277889988
0.002823450996 	0.07595389429 	-0.0001675767863 	-1.159049944e-08 	0.1195200114 	2.53319871e-06 	0.0002278383605
0.003137164783 	0.075941597 	-0.0001976609597 	-1.564451063e-08 	0.1195462519 	2.916610884e-06 	0.0002278883822
0.003450877969 	0.07592795228 	-0.0002269480499 	-2.024035532e-08 	0.1195735532 	3.299758144e-06 	0.0002279404262
0.003764590556 	0.07591292158 	-0.0002557110562 	-2.537858652e-08 	0.11960232 	3.682590305e-06 	0.0002279952636
0.004078302543 	0.07589645755 	-0.0002841369134 	-3.106318548e-08 	0.1196328155 	4.065051528e-06 	0.0002280533966
0.004392013928 	0.07587850388 	-0.0003123599514 	-3.730142561e-08 	0.1196652238 	4.44708288e-06 	0.0002281151757
0.004705724713 	0.07585899541 	-0.0003404807337 	-4.410384739e-08 	0.1196996789 	4.828625094e-06 	0.0002281808569
0.005019434897 	0.07583785969 	-0.0003685772173 	-5.148423629e-08 	0.1197362844 	5.209621813e-06 	0.0002282506371
0.00533314448 	0.0758150196 	-0.0003967116444 	-5.945953244e-08 	0.1197751229 	5.590022944e-06 	0.0002283246741
0.005646853463 	0.07579039693 	-0.0004249349536 	-6.80496349e-08 	0.1198162621 	5.969787672e-06 	0.0002284030967
0.005960561844 	0.07576391695 	-0.0004532896986 	-7.727708172e-08 	0.1198597567 	6.348887007e-06 	0.0002284860095
0.006274269624 	0.07573551356 	-0.0004818120507 	-8.716661328e-08 	0.1199056492 	6.727305496e-06 	0.0002285734935
0.006587976804 	0.07570513509 	-0.000510533228 	-9.774465429e-08 	0.1199539689 	7.105042216e-06 	0.0002286656042
0.006901683384 	0.07567275044 	-0.0005394805702 	-1.090387708e-07 	0.1200047301 	7.482111022e-06 	0.0002287623691
0.007215389363 	0.07563835552 	-0.0005686784014 	-1.210771479e-07 	0.1200579302 	7.858540371e-06 	0.0002288637833
0.007529094743 	0.07560198021 	-0.0005981488575 	-1.338881809e-07 	0.1201135464 	8.23437293e-06 	0.0002289698033
0.007842799523 	0.07556369605 	-0.0006279134479 	-1.475004594e-07 	0.1201715323 	8.609664984e-06 	0.0002290803406
0.008156503703 	0.07552362502 	-0.0006580012485 	-1.619451576e-07 	0.1202318148 	8.984483705e-06 	0.0002291952558
0.008470207286 	0.07548195271 	-0.0006885117018 	-1.772766223e-07 	0.1202943136 	9.358903331e-06 	0.0002293143958
0.00878391027 	0.07543892073 	-0.0007201218855 	-1.937332874e-07 	0.1203588577 	9.733012881e-06 	0.0002294374348
0.009097612657 	0.07539484286 	-0.0007582133861 	-2.129742939e-07 	0.1204252891 	1.010703357e-05 	0.0002295640715
0.009411314447 	0.07534402547 	-0.0008341943652 	-2.447969439e-07 	0.1205019474 	1.048096231e-05 	0.0002297102035
0.009898733563 	0.07528195322 	-0.000973627975 	-3.032749894e-07 	0.1205996084 	1.106199187e-05 	0.0002298963726
0.01039531224 	0.07521609812 	-0.0011488447 	-3.788548544e-07 	0.1207099643 	1.165364243e-05 	0.0002301067416
0.01090122258 	0.07515277044 	-0.001329822573 	-4.629779132e-07 	0.1208221617 	1.225599711e-05 	0.000230320621
0.01141663991 	0.07509230463 	-0.001512898594 	-5.546803346e-07 	0.1209361107 	1.286948258e-05 	0.0002305378395
0.01194174287 	0.07503490846 	-0.001697900201 	-6.541190517e-07 	0.1210516948 	1.349442318e-05 	0.0002307581749
0.01247671344 	0.0749807251 	-0.001885049191 	-7.616230861e-07 	0.1211689806 	1.413117303e-05 	0.0002309817543
0.01302173702 	0.07492983343 	-0.00207458714 	-8.775588524e-07 	0.1212880371 	1.478008806e-05 	0.000231208709
0.0135770025 	0.07488228136 	-0.002266733703 	-1.002308144e-06 	0.1214089463 	1.544152326e-05 	0.0002314391956
0.01414270231 	0.07483810908 	-0.002461685104 	-1.136265495e-06 	0.1215317957 	1.611583327e-05 	0.0002316733807
0.0147190325 	0.07479736481 	-0.002659617008 	-1.27983816e-06 	0.1216566701 	1.680337568e-05 	0.000231911426
0.01530619282 	0.07476011457 	-0.002860687442 	-1.43344644e-06 	0.1217836466 	1.750451482e-05 	0.0002321534784
0.01590438673 	0.07472644773 	-0.003065039307 	-1.597524053e-06 	0.1219127914 	1.821962578e-05 	0.0002323996643
0.01651382157 	0.0746964793 	-0.003272802565 	-1.772518551e-06 	0.122044159 	1.894909827e-05 	0.0002326500875
0.01713470852 	0.07467035019 	-0.003484096592 	-1.958892016e-06 	0.1221777907 	1.96933399e-05 	0.0002329048266
0.01776726278 	0.07464822687 	-0.00369903663 	-2.157124096e-06 	0.1223137187 	2.04527812e-05 	0.0002331639433
0.01841170354 	0.07463030213 	-0.003917774923 	-2.367733014e-06 	0.1224519815 	2.122788643e-05 	0.0002334275105
0.01906825416 	0.07461679001 	-0.004140818042 	-2.591433432e-06 	0.1225926175 	2.201916571e-05 	0.0002336956019
0.01973714216 	0.07460790776 	-0.004368987597 	-2.828668675e-06 	0.1227357692 	2.282715156e-05 	0.0002339684888
0.02042153748 	0.074603894 	-0.004600794711 	-3.08041315e-06 	0.1228815798 	2.365707338e-05 	0.0002342464443
0.02112091823 	0.07460505462 	-0.004836571179 	-3.347941637e-06 	0.1230300959 	2.450963969e-05 	0.0002345295573
0.02183344139 	0.07461168379 	-0.005077616761 	-3.631416726e-06 	0.1231811149 	2.538275454e-05 	0.0002348174413
0.02255935386 	0.07462404927 	-0.005322947136 	-3.930989811e-06 	0.123334424 	2.627745542e-05 	0.0002351096912
0.02329890722 	0.07464243979 	-0.005572528263 	-4.151556227e-06 	0.1234900242 	2.658079251e-05 	0.0002354063084
0.02405235775 	0.07466714287 	-0.005826406693 	-4.194917757e-06 	0.1236478874 	2.576141347e-05 	0.0002357072396
0.02481996657 	0.07469845132 	-0.006084636191 	-4.226612329e-06 	0.1238079966 	2.492906221e-05 	0.0002360124521
0.02560199967 	0.07473665994 	-0.0063472697 	-4.245987314e-06 	0.1239703345 	2.408310183e-05 	0.0002363219133
0.02639872806 	0.07478206454 	-0.006614357751 	-4.252338643e-06 	0.1241348849 	2.322282272e-05 	0.000236635592
0.02721042784 	0.07483496077 	-0.006885945599 	-4.245008789e-06 	0.1243016328 	2.234745013e-05 	0.00023695346
0.02803738028 	0.07489564277 	-0.00716207327 	-4.223367309e-06 	0.124470566 	2.145614463e-05 	0.0002372754936
0.02887987195 	0.07496440173 	-0.007442777 	-4.186757021e-06 	0.1246416754 	2.054799645e-05 	0.0002376016757
0.0297381948 	0.07504152424 	-0.007728089519 	-4.134485382e-06 	0.1248149566 	1.962202128e-05 	0.0002379319978
0.03061264626 	0.07512729042 	-0.008018040156 	-4.065821104e-06 	0.124990411 	1.867715731e-05 	0.0002382664627
0.03150352933 	0.0752219718 	-0.008312654935 	-3.979991083e-06 	0.1251680472 	1.771226334e-05 	0.0002386050866
0.03241115274 	0.07532582902 	-0.008611956649 	-3.876177117e-06 	0.1253478825 	1.672611728e-05 	0.0002389479028
0.03333583098 	0.07543910944 	-0.00891596494 	-3.753512325e-06 	0.1255299448 	1.571741488e-05 	0.0002392949641
0.03427788447 	0.07556204464 	-0.009224696368 	-3.611077323e-06 	0.1257142742 	1.468476852e-05 	0.0002396463471
0.03523763963 	0.07569484808 	-0.009538164476 	-3.447896216e-06 	0.125900925 	1.362670615e-05 	0.0002400021555
0.03621542904 	0.07583771281 	-0.009856379839 	-3.262932747e-06 	0.126089969 	1.254167155e-05 	0.0002403625257
0.03721159148 	0.0759908082 	-0.01017934929 	-3.055088472e-06 	0.1262814905 	1.142802411e-05 	0.0002407276189
0.03822647215 	0.07615427748 	-0.01050706979 	-2.823216834e-06 	0.1264755872 	1.028403597e-05 	0.0002410976212
0.03926042268 	0.07632831933 	-0.010839518 	-2.566070349e-06 	0.126672461 	9.107931788e-06 	0.0002414729174
0.04031569926 	0.07651335265 	-0.01117747814 	-2.281646761e-06 	0.1268726646 	7.895598262e-06 	0.0002418545612
0.04139611951 	0.07670961654 	-0.01152183826 	-1.967450981e-06 	0.1270766444 	6.640980678e-06 	0.0002422434033
0.0424968417 	0.0769168245 	-0.01187157197 	-1.623649447e-06 	0.1272841886 	5.34823848e-06 	0.0002426390402
0.04361824725 	0.07713473834 	-0.01222578045 	-1.248410311e-06 	0.1274952272 	4.01511398e-06 	0.0002430413386
0.04476072477 	0.0773633272 	-0.01258468802 	-8.400941502e-07 	0.1277100619 	2.639382106e-06 	0.0002434508732
0.04592467013 	0.07760252124 	-0.01294831363 	-3.969159819e-07 	0.1279289807 	1.218731054e-06 	0.0002438681933
0.04691067477 	0.07781016732 	-0.0132546341 	-3.243523859e-07 	0.1281147273 	-2.184202139e-05 	0.0002442222778
0.04711048667 	0.0778523415 	-0.01331652561 	-8.845589711e-08 	0.1281517372 	2.74543522e-07 	0.0002442928291
0.04831858527 	0.07811316028 	-0.01368883131 	-6.39027235e-07 	0.1283763162 	1.946557934e-06 	0.0002447209391
0.04954938458 	0.07838422513 	-0.01406585563 	-1.229081821e-06 	0.1286059366 	3.676460819e-06 	0.0002451586594
0.05080331105 	0.07866534145 	-0.01444759945 	-1.860262514e-06 	0.1288410217 	5.467098956e-06 	0.0002456067968
0.0520807992 	0.07895627993 	-0.01483406414 	-2.534278851e-06 	0.1290820302 	7.321428039e-06 	0.000246066226
0.05338229166 	0.07925677879 	-0.01522525484 	-3.252922881e-06 	0.1293294493 	9.242496686e-06 	0.0002465378756
0.05470823941 	0.0795665584 	-0.01562119032 	-4.018102205e-06 	0.129583795 	1.123340519e-05 	0.0002470227292
0.05605910188 	0.07988531854 	-0.01602189821 	-4.83185717e-06 	0.1298456021 	1.329720246e-05 	0.0002475218064
0.05743534714 	0.08021274284 	-0.01642736191 	-5.695941181e-06 	0.1301153408 	1.543591749e-05 	0.0002480360032
0.05883745205 	0.08054864511 	-0.01683742721 	-6.611062662e-06 	0.1303933447 	1.764975416e-05 	0.000248565956
0.06026729956 	0.08089333298 	-0.01725269222 	-7.578097931e-06 	0.1306803991 	1.993819975e-05 	0.0002491131614
0.06173156424 	0.08124687103 	-0.01767302768 	-8.600725821e-06 	0.1309774419 	2.230501663e-05 	0.0002496794076
0.06322334345 	0.08165510218 	-0.01815534114 	-9.680032389e-06 	0.1313252544 	2.476401717e-05 	0.0002503424349
0.06551344073 	0.08215850676 	-0.01876090013 	-1.138212312e-05 	0.1317680203 	2.850825205e-05 	0.0002511864698
0.06782907795 	0.08270889176 	-0.01942534247 	-1.329448365e-05 	0.1322646435 	3.241434741e-05 	0.0002521331716
0.07017053993 	0.08326948969 	-0.02008577174 	-1.530462347e-05 	0.132771774 	3.638538417e-05 	0.0002530999032
0.07253811468 	0.08383902631 	-0.02074394367 	-1.740927254e-05 	0.1332899666 	4.041763263e-05 	0.0002540877224
0.07493209339 	0.08440278233 	-0.02140836823 	-1.661640262e-05 	0.1338203483 	3.762556114e-05 	0.0002550987773
0.07735277052 	0.08496576178 	-0.02207977792 	-1.560845738e-05 	0.1343631098 	3.440447633e-05 	0.0002561334316
0.07980044382 	0.08554776058 	-0.02275166666 	-1.442081222e-05 	0.1349164201 	3.104301274e-05 	0.0002571881949
0.08228795177 	0.08613896308 	-0.02343512976 	-1.308321505e-05 	0.1354857738 	2.755140383e-05 	0.0002582735413
0.0848045662 	0.0867424904 	-0.0241285511 	-1.154543162e-05 	0.1360672067 	2.395707893e-05 	0.0002593819138
0.08734924993 	0.0873689285 	-0.024823145 	-9.84259599e-06 	0.1366569521 	2.024178327e-05 	0.0002605061325
0.08992231604 	0.08799763127 	-0.02553588407 	-7.962184949e-06 	0.1372674926 	1.63499376e-05 	0.0002616699923
0.09252408108 	0.08865966997 	-0.02624993654 	-6.110980355e-06 	0.1378865487 	1.241571207e-05 	0.0002628500853
0.09515486517 	0.08937022001 	-0.02695667922 	-4.259747536e-06 	0.1385072718 	8.434508709e-06 	0.0002640333561
0.09781499197 	0.09009611896 	-0.02767280396 	-2.263363171e-06 	0.1391368231 	4.357770486e-06 	0.000265233456
0.100507166 	0.09083274532 	-0.0283965283 	-1.338293479e-07 	0.1397713372 	2.491928824e-07 	0.0002664430161
0.1006723289 	0.09087800313 	-0.02844084534 	-3.158376447e-08 	0.1398096298 	-8.106794458e-06 	0.0002665160125
0.1032407961 	0.0915787175 	-0.02913379327 	-1.916641596e-06 	0.1404002689 	4.087385431e-06 	0.0002676419348
0.1060049194 	0.09233672955 	-0.02988009082 	-4.078270327e-06 	0.1410216124 	8.381398976e-06 	0.0002688263881
0.108799876 	0.0931060343 	-0.03063507235 	-6.388394868e-06 	0.1416330508 	1.257375078e-05 	0.0002699919597
0.11162601 	0.09388620038 	-0.03139918263 	-8.868004202e-06 	0.142233459 	1.668645087e-05 	0.0002711365046
0.114483669 	0.09467604214 	-0.03217241839 	-1.152280296e-05 	0.1428214416 	2.078043266e-05 	0.0002722573628
0.1173732048 	0.09547431209 	-0.0329547246 	-1.434911989e-05 	0.1433960723 	2.489771858e-05 	0.0002733527687
0.1202961886 	0.0962807133 	-0.03374711894 	-1.734574925e-05 	0.1439569179 	2.905952347e-05 	0.0002744218963
0.1232641206 	0.09709471774 	-0.03455058248 	-2.052248022e-05 	0.1445031741 	3.327712632e-05 	0.0002754632125
0.1262651629 	0.0979130466 	-0.03536350492 	-2.386803162e-05 	0.1450327652 	3.751309404e-05 	0.0002764727603
0.1292996849 	0.09873259865 	-0.03618441752 	-2.738037367e-05 	0.1455435857 	4.174249007e-05 	0.0002774465261
0.1323680601 	0.09955151313 	-0.03701308039 	-2.943468242e-05 	0.1460336789 	4.35423216e-05 	0.00027838078
0.1354706662 	0.1003676322 	-0.03784905293 	-2.731688042e-05 	0.1465007163 	3.921220679e-05 	0.0002792710831
0.138607885 	0.1011789954 	-0.03869219437 	-2.501874936e-05 	0.146942497 	3.484267751e-05 	0.0002801132399
0.1417873791 	0.1019842952 	-0.03954313577 	-2.253579589e-05 	0.1473565818 	3.043655046e-05 	0.0002809026006
0.1450082501 	0.1027804943 	-0.04040103518 	-1.987445498e-05 	0.1477397412 	2.601802377e-05 	0.0002816330089
0.1482650567 	0.1035631921 	-0.0412637249 	-1.704611418e-05 	0.1480885129 	2.161915417e-05 	0.0002822978648
0.1515582 	0.1043289721 	-0.04212991638 	-1.405975689e-05 	0.1483995029 	1.726566589e-05 	0.0002828906981
0.1548880853 	0.1050745959 	-0.04299861051 	-1.092751251e-05 	0.1486692652 	1.298502294e-05 	0.00028340494
0.1582551226 	0.1057969124 	-0.04386903624 	-7.664290185e-06 	0.1488945021 	8.80605525e-06 	0.000283834304
0.1616658524 	0.1064933925 	-0.04474112569 	-4.281709232e-06 	0.1490716676 	4.7522485e-06 	0.0002841720308
0.1651212069 	0.1071601761 	-0.04561359356 	-8.02286909e-07 	0.1491967682 	8.591669823e-07 	0.0002844105073
0.1659171165 	0.1073039403 	-0.04581195026 	1.328982004e-07 	0.1492120848 	-2.986677984e-05 	0.000284439705
0.1686151167 	0.1077907958 	-0.04648784404 	-2.566902519e-06 	0.1492659104 	2.829494715e-06 	0.0002845423115
0.1721480121 	0.1083822648 	-0.04735850374 	-5.947607021e-06 	0.1492746993 	6.294218515e-06 	0.0002845590655
0.175720328 	0.1089311938 	-0.04822254235 	-9.367824701e-06 	0.1492188288 	9.500497858e-06 	0.0002844525609
0.1793325041 	0.1094340747 	-0.04907860204 	-1.279797573e-05 	0.149093823 	1.240907022e-05 	0.0002842142651
0.182994898 	0.1098874739 	-0.04992541128 	-1.621387227e-05 	0.1488944711 	1.498597009e-05 	0.000283834245
0.1867003698 	0.1102864397 	-0.05075975849 	-1.956996774e-05 	0.1486154741 	1.717983868e-05 	0.0002833023992
0.1904471912 	0.110625791 	-0.05157783143 	-2.282691682e-05 	0.1482515724 	1.89492714e-05 	0.0002826087014
0.1942358234 	0.1109009779 	-0.0523763432 	-2.594689813e-05 	0.1477968005 	2.025536371e-05 	0.0002817417798
0.1980667329 	0.1111071244 	-0.05315191748 	-2.889178642e-05 	0.1472446038 	2.106002375e-05 	0.0002806891393
0.201946184 	0.1112390399 	-0.05390105241 	-3.162702462e-05 	0.1465873118 	2.13285913e-05 	0.000279436158
0.205874617 	0.1112902471 	-0.05461878281 	-3.290094238e-05 	0.1458169038 	2.028019543e-05 	0.0002779675463
0.2098468907 	0.1112533142 	-0.05529886341 	-2.902638184e-05 	0.1449256978 	1.609016761e-05 	0.0002762686601
0.2138634941 	0.1111206732 	-0.05593508296 	-2.521488565e-05 	0.143905093 	1.228681067e-05 	0.0002743231037
0.2179249219 	0.1108839291 	-0.05652108935 	-2.150468507e-05 	0.1427452854 	8.906092778e-06 	0.0002721121879
0.2220370961 	0.1105336935 	-0.05705006248 	-1.792985176e-05 	0.1414348394 	5.97863776e-06 	0.0002696141138
0.226200533 	0.1100592229 	-0.05751380001 	-1.453024239e-05 	0.1399620523 	3.536146331e-06 	0.0002668065721
0.2304104359 	0.1094488657 	-0.05790307511 	-1.134420837e-05 	0.1383156962 	1.606444824e-06 	0.0002636681599
0.2346673231 	0.1086903296 	-0.05820854354 	-8.402764757e-06 	0.1364831169 	2.111909172e-07 	0.0002601747544
0.238971719 	0.1077699026 	-0.05842044966 	-5.733442056e-06 	0.1344492318 	-6.315250886e-07 	0.0002562976041
0.2433319693 	0.1066724517 	-0.05852797923 	-3.358218932e-06 	0.1321965191 	-9.056927705e-07 	0.0002520033076
0.2477431375 	0.1053826173 	-0.05851903601 	-1.303863665e-06 	0.1297080172 	-6.00537665e-07 	0.0002472595313
0.2510499412 	0.1042715587 	-0.05841593559 	1.27765206e-05 	0.1276742934 	-5.654075689e-05 	0.0002433826885
0.2522035389 	0.1038848666 	-0.05838154928 	-3.858684642e-07 	0.1269667569 	-2.940631654e-07 	0.0002420339273
0.2567137226 	0.1021635242 	-0.05810371158 	-1.642533267e-06 	0.1239549261 	-1.806672377e-06 	0.0002362925407
0.2612769989 	0.1002030331 	-0.05766995599 	-2.527136348e-06 	0.1206523051 	-3.898854381e-06 	0.0002299968271
0.2658977798 	0.09798747424 	-0.05706521708 	-3.03922619e-06 	0.1170407251 	-6.516628556e-06 	0.0002231121517
0.2705701354 	0.09550390674 	-0.05627479791 	-3.189847128e-06 	0.1131081604 	-9.567501773e-06 	0.0002156155905
0.275294641 	0.09274350748 	-0.0552872894 	-3.024386087e-06 	0.1088488285 	-1.291216612e-05 	0.00020749612
0.2800721922 	0.08970258911 	-0.05409676543 	-2.619681852e-06 	0.1042648201 	-1.63680101e-05 	0.000198757726
0.2849113354 	0.08638186302 	-0.05269824886 	-2.020507799e-06 	0.09936724494 	-1.975766471e-05 	0.0001894215866
0.2898044922 	0.08278803426 	-0.05108543065 	-1.266393881e-06 	0.09418029316 	-2.289314494e-05 	0.0001795338148
0.2947522652 	0.07893442853 	-0.04925478032 	-4.447082999e-07 	0.08873904866 	-2.558455667e-05 	0.0001691612905
0.2997552636 	0.074841832 	-0.04720779861 	3.543415898e-07 	0.0830864025 	-2.767269091e-05 	0.0001583857758
0.3048217599 	0.07054021686 	-0.04495131533 	1.045533089e-06 	0.07727407064 	-2.903860545e-05 	0.0001473058559
0.3099449938 	0.06607326627 	-0.04250154851 	1.427206942e-06 	0.07136887182 	-2.724257382e-05 	0.0001360489056
0.3151254131 	0.0614944742 	-0.03988401382 	1.417687635e-06 	0.06544650533 	-2.301289078e-05 	0.0001247592291
0.3203643454 	0.05686502446 	-0.03713268928 	1.189616786e-06 	0.05958661503 	-1.890687103e-05 	0.0001135886495
0.3256681805 	0.05225465229 	-0.03429112937 	8.350895102e-07 	0.05387323766 	-1.509003296e-05 	0.0001026973643
0.3310312183 	0.0477425182 	-0.03141415362 	4.413198915e-07 	0.04839490093 	-1.168951504e-05 	9.225413185e-05
0.3364541189 	0.04340871967 	-0.02856275234 	8.059417293e-08 	0.04323361381 	-8.783369205e-06 	8.241528409e-05
0.3419400009 	0.03932684651 	-0.02579822985 	-1.965539581e-07 	0.03845757476 	-6.399669814e-06 	7.331082623e-05
0.3474910806 	0.03555951574 	-0.02317781907 	-3.64264938e-07 	0.03411868754 	-4.521346557e-06 	6.503970125e-05
0.3531041231 	0.03215138571 	-0.02074828227 	-4.212260588e-07 	0.03024793394 	-3.096269229e-06 	5.766096907e-05
0.3587798191 	0.02912104081 	-0.01853776644 	-3.870100489e-07 	0.02684854452 	-2.048737155e-06 	5.118078803e-05
0.3645235755 	0.02646156411 	-0.01655311551 	-2.951832157e-07 	0.02389671486 	-1.290498296e-06 	4.555378027e-05
0.3703324803 	0.02414781745 	-0.01478385156 	-1.830593716e-07 	0.02134910653 	-7.348813017e-07 	4.069733072e-05
0.3762062255 	0.02214183697 	-0.01320777407 	-7.905017486e-08 	0.01915135038 	-3.131208949e-07 	3.650779667e-05
0.3818349366 	0.0204915358 	-0.01187280865 	3.654189744e-06 	0.01734864671 	-5.004825901e-06 	3.307134244e-05
0.3821475528 	0.02039985731 	-0.01179872833 	-1.642224974e-09 	0.0172485206 	-1.717627814e-08 	3.288047425e-05
0.3881582854 	0.01888069852 	-0.01053406206 	-2.693292598e-08 	0.01559335536 	-2.998219379e-07 	2.972526927e-05
0.3942361112 	0.0175498147 	-0.009394868867 	-4.595824437e-08 	0.01414672221 	-5.091764941e-07 	2.69675844e-05
0.4003822316 	0.01637992208 	-0.008368002183 	-6.744603141e-08 	0.01287895264 	-6.477175202e-07 	2.455086325e-05
0.4066010098 	0.01534921979 	-0.0074441365 	-9.821743495e-08 	0.011768278 	-7.184147212e-07 	2.243360869e-05
0.4128892032 	0.0144414186 	-0.006616144034 	-1.393086681e-07 	0.01079832926 	-7.313050426e-07 	2.058461682e-05
0.4192475857 	0.01364418661 	-0.005876279883 	-1.8828223e-07 	0.009954103019 	-7.004477556e-07 	1.897528695e-05
0.4256805892 	0.01294764202 	-0.005215454803 	-2.42885604e-07 	0.009220844086 	-6.358061514e-07 	1.757749163e-05
0.4321857004 	0.01234432076 	-0.004624206106 	-3.027202238e-07 	0.008585220305 	-5.445516132e-07 	1.636581604e-05
0.4387634212 	0.01182785105 	-0.004093452823 	-3.694790682e-07 	0.008036165135 	-4.346008915e-07 	1.531916428e-05
0.4454175046 	0.01139162891 	-0.003615349287 	-4.428108942e-07 	0.00756482139 	-3.14644097e-07 	1.44206521e-05
0.4521463543 	0.01102943651 	-0.003183524228 	-5.211551579e-07 	0.007164144617 	-1.918626708e-07 	1.365685081e-05
0.4589503101 	0.01073557292 	-0.002792827208 	-6.117848587e-07 	0.006829047559 	-6.12423584e-08 	1.301806268e-05
0.4658328557 	0.0105000368 	-0.002432544289 	-5.493298254e-07 	0.00656279216 	2.793628828e-07 	1.251050589e-05
0.4727925432 	0.01030547847 	-0.002083867294 	-3.691401658e-07 	0.006382025617 	7.772660388e-07 	1.216591462e-05
0.479829972 	0.01015064848 	-0.00175539298 	-4.113443143e-07 	0.006267634852 	9.590322708e-07 	1.194785403e-05
0.486948429 	0.01004595975 	-0.001464752171 	-5.738956959e-07 	0.006182017165 	8.943159477e-07 	1.178464292e-05
0.4941463394 	0.009991373098 	-0.001207531452 	-7.003710478e-07 	0.006116411516 	8.02357367e-07 	1.165958032e-05
0.5013447716 	0.009982423461 	-0.0009777758501 	-7.992145292e-07 	0.006069878358 	7.061091253e-07 	1.157087519e-05
0.508465376 	0.01001261943 	-0.0007702360346 	-8.118556725e-07 	0.00604276345 	5.696018957e-07 	1.151918663e-05
0.5155074155 	0.01007506997 	-0.0005802090268 	-8.064521363e-07 	0.00603484141 	4.542115307e-07 	1.150408502e-05
0.5224724405 	0.01016359809 	-0.0004038836281 	-7.857544684e-07 	0.006045293814 	3.559589383e-07 	1.152401021e-05
0.5293615891 	0.01027292847 	-0.0002384190305 	-7.529191076e-07 	0.006072854311 	2.725124678e-07 	1.157654818e-05
0.5361747244 	0.01039872806 	-8.17201417e-05 	-7.114698758e-07 	0.00611606912 	2.020226189e-07 	1.165892762e-05
0.5429133278 	0.01053747234 	6.798337147e-05 	-6.644208486e-07 	0.006173340169 	1.432429451e-07 	1.176810215e-05
0.5495782327 	0.0106862441 	0.00021210819 	-6.13999753e-07 	0.006243031814 	9.497116915e-08 	1.19009538e-05
0.5561695966 	0.01084265583 	0.0003517927694 	-5.618020565e-07 	0.006323640993 	5.585391857e-08 	1.20546173e-05
0.5626887148 	0.01100473407 	0.0004880368242 	-5.091924927e-07 	0.006413817821 	2.473497402e-08 	1.222651939e-05
0.5691364214 	0.01117079711 	0.0006215338332 	-4.571990973e-07 	0.006512317112 	6.724141139e-10 	1.241428642e-05
0.5755129821 	0.0113395067 	0.0007527682841 	-4.063509277e-07 	0.006618095376 	-1.714290513e-08 	1.261592919e-05
0.5818194612 	0.0115097887 	0.0008822365314 	-3.570134318e-07 	0.006730299303 	-2.9462598e-08 	1.282982106e-05
0.5880568427 	0.01168075495 	0.00101031962 	-3.095698919e-07 	0.006848198444 	-3.693002008e-08 	1.305456959e-05
0.5942253977 	0.01185176452 	0.00113728851 	-2.643055458e-07 	0.006971261133 	-4.014177983e-08 	1.328916128e-05
0.6003259628 	0.01202233892 	0.001263453182 	-2.214499423e-07 	0.007099128429 	-3.971117032e-08 	1.353291189e-05
0.6063597157 	0.01219209022 	0.001389053321 	-1.812294378e-07 	0.007231516971 	-3.620531941e-08 	1.378528124e-05
0.612326888 	0.01236075422 	0.001514208856 	-1.438025966e-07 	0.007368224262 	-3.015110612e-08 	1.404588334e-05
0.6182282137 	0.01252816996 	0.001639033429 	-1.092648424e-07 	0.007509151173 	-2.205685539e-08 	1.43145292e-05
0.6240647607 	0.0126942016 	0.001763620397 	-7.768134051e-08 	0.00765422371 	-1.239544723e-08 	1.459107777e-05
0.6298369959 	0.01285876133 	0.00188794758 	-4.90732758e-08 	0.007803342765 	-1.583025962e-09 	1.487534014e-05
0.6355455349 	0.01302185391 	0.002011956965 	-2.337665173e-08 	0.007956455206 	1.001420194e-08 	1.5167215e-05
0.6411911782 	0.01318349358 	0.002135634785 	-4.263392578e-10 	0.008113535385 	2.209917659e-08 	1.546665349e-05
0.6467747435 	0.01334371457 	0.002258913437 	2.012172291e-08 	0.008274515781 	3.456254049e-08 	1.577352686e-05
0.6522966938 	0.01350261388 	0.0023816926 	3.870231216e-08 	0.008439332429 	4.741048714e-08 	1.60877132e-05
0.6577577088 	0.01366032313 	0.002503923473 	5.556771929e-08 	0.008607970676 	6.059509336e-08 	1.640918457e-05
0.6631586198 	0.01381697042 	0.002625584758 	7.074609021e-08 	0.0087804215 	7.396725698e-08 	1.673792377e-05
0.6685000027 	0.01397270759 	0.002746626089 	8.426395263e-08 	0.008956648414 	8.736828646e-08 	1.707386125e-05
0.6737824424 	0.01412773134 	0.00286701045 	9.619405637e-08 	0.009136648735 	1.006676216e-07 	1.741699189e-05
0.679006589 	0.0142822328 	0.002986762037 	1.065878274e-07 	0.009320474765 	1.137253844e-07 	1.776741539e-05
0.6841732363 	0.01443639606 	0.003105913577 	1.155261605e-07 	0.009508180067 	1.264390605e-07 	1.812523387e-05
0.6892828813 	0.0145904347 	0.003224478871 	1.231984405e-07 	0.009699808903 	1.388288317e-07 	1.849053169e-05
0.6943361397 	0.01474459441 	0.003342490316 	1.298547489e-07 	0.00989544339 	1.510090523e-07 	1.88634654e-05
0.6993336336 	0.01489911384 	0.003460018074 	1.356933662e-07 	0.01009520774 	1.630824871e-07 	1.924427177e-05
0.7042760903 	0.01505423044 	0.003577129975 	1.408017648e-07 	0.01029922152 	1.750658383e-07 	1.963317874e-05
0.7091640066 	0.01521020838 	0.003693877679 	1.451873753e-07 	0.01050759632 	1.868854158e-07 	2.003039903e-05
0.7139979828 	0.01536733056 	0.00381032439 	1.488468514e-07 	0.01072047042 	1.984355838e-07 	2.043619622e-05
0.7187786138 	0.01552587887 	0.003926552769 	1.518239209e-07 	0.01093801019 	2.09663195e-07 	2.085088749e-05
0.7235065557 	0.01568613821 	0.004042641019 	1.541990361e-07 	0.01116037299 	2.205752204e-07 	2.127477277e-05
0.7281823321 	0.01584842091 	0.004158650919 	1.560526424e-07 	0.01138769679 	2.311950485e-07 	2.170811512e-05
0.7328065091 	0.01601305968 	0.004274647963 	1.574283283e-07 	0.01162012919 	2.415001652e-07 	2.215119588e-05
0.737379656 	0.01618039014 	0.004390712756 	1.583629327e-07 	0.01185783875 	2.514601442e-07 	2.260433637e-05
0.7419023644 	0.01635074742 	0.004506928472 	1.588993478e-07 	0.01210099002 	2.610568933e-07 	2.306785027e-05
0.7463751843 	0.01652448447 	0.00462336778 	1.591012801e-07 	0.01234972365 	2.703116042e-07 	2.354200571e-05
0.7507986441 	0.01670197491 	0.004740103755 	1.590126216e-07 	0.01260417912 	2.792189726e-07 	2.402706855e-05
0.7551732887 	0.0168835902 	0.004857220938 	1.586706113e-07 	0.01286450638 	2.87767217e-07 	2.452332467e-05
0.7594996577 	0.01706969948 	0.004974809601 	1.581108699e-07 	0.01313085555 	2.959470173e-07 	2.503106021e-05
0.7637783137 	0.01726067174 	0.005092957351 	1.573813702e-07 	0.01340335747 	3.0377687e-07 	2.555052462e-05
0.7680097523 	0.01745688549 	0.00521174748 	1.565276497e-07 	0.01368212425 	3.112779919e-07 	2.608193158e-05
0.7721944944 	0.01765871286 	0.00533126691 	1.555791704e-07 	0.01396726211 	3.184465208e-07 	2.662548359e-05
0.7763330552 	0.01786651193 	0.005451606239 	1.54561695e-07 	0.01425887134 	3.252771848e-07 	2.718137182e-05
0.7804259499 	0.01808062018 	0.005572855542 	1.534974841e-07 	0.01455703586 	3.31762637e-07 	2.774975627e-05
0.7844736913 	0.01830135646 	0.005695095941 	1.524203832e-07 	0.0148618021 	3.379261023e-07 	2.833072543e-05
0.7884767633 	0.01852902055 	0.005818401815 	1.513521852e-07 	0.01517318887 	3.437719581e-07 	2.892431515e-05
0.7924356588 	0.01876387193 	0.005942842305 	1.503054041e-07 	0.01549118736 	3.492904531e-07 	2.953050866e-05
0.7963508653 	0.01900612464 	0.006068479192 	1.49290669e-07 	0.01581575883 	3.544757607e-07 	3.01492321e-05
0.8002228677 	0.01925593628 	0.006195365393 	1.483158722e-07 	0.01614683224 	3.593245077e-07 	3.078035003e-05
0.8040521488 	0.01951340439 	0.006323538907 	1.473968468e-07 	0.01648428877 	3.638623458e-07 	3.142363597e-05
0.8078391712 	0.01977856366 	0.006453024041 	1.46536694e-07 	0.0168279731 	3.680932554e-07 	3.207879383e-05
0.8115844012 	0.02005137157 	0.006583830205 	1.457260654e-07 	0.01717769266 	3.71995442e-07 	3.274545651e-05
0.8152883001 	0.02033170736 	0.006715946836 	1.449500202e-07 	0.01753320627 	3.755353545e-07 	3.342316426e-05
0.8189513238 	0.02061937241 	0.006849340785 	1.441902921e-07 	0.01789422037 	3.786720863e-07 	3.411135747e-05
0.8225739295 	0.02091408978 	0.00698395067 	1.434345303e-07 	0.01826036972 	3.813827101e-07 	3.480933989e-05
0.8261565578 	0.02121550827 	0.007119685663 	1.426751972e-07 	0.01863121463 	3.836626804e-07 	3.551627336e-05
0.8296996493 	0.02152319849 	0.007256429137 	1.41899353e-07 	0.01900625502 	3.854995203e-07 	3.623120458e-05
0.8332036402 	0.02183664977 	0.007394039974 	1.410965965e-07 	0.01938493314 	3.868929348e-07 	3.695307032e-05
0.8366689621 	0.02215527822 	0.007532357411 	1.402588654e-07 	0.01976665229 	3.878527668e-07 	3.768073313e-05
0.8400960425 	0.02247843454 	0.007671205739 	1.393802924e-07 	0.02015079256 	3.883959738e-07 	3.841301123e-05
0.8434853052 	0.02280542059 	0.007810397175 	1.384647227e-07 	0.02053671677 	3.885660143e-07 	3.914869005e-05
0.846837165 	0.02313550935 	0.007949738603 	1.375142194e-07 	0.02092379366 	3.883998387e-07 	3.988656619e-05
0.8501520345 	0.02346796077 	0.008089036642 	1.365306087e-07 	0.02131141126 	3.879315388e-07 	4.062547306e-05
0.853430322 	0.02380204129 	0.008228101014 	1.355186994e-07 	0.02169898159 	3.872013636e-07 	4.136428984e-05
0.8566724313 	0.02413704239 	0.008366749786 	1.344854963e-07 	0.02208595597 	3.862520694e-07 	4.210197055e-05
0.8598787618 	0.02447229346 	0.008504812393 	1.334396254e-07 	0.02247182996 	3.851259479e-07 	4.283755362e-05