0.2743793766 	0.0521132927 	0.01288635685 	-8.846434458e-06
0.2746002666 	0.1646647878 	0.04059718039 	-3.076817649e-05
0.2748211659 	0.3278430159 	0.08073480163 	-6.282185808e-05
0.2750420732 	0.4892361702 	0.1204471016 	-9.61066247e-05
0.2752629871 	0.6480258675 	0.1594851305 	-0.0001303311802
0.2754839061 	0.8025806447 	0.1974311353 	-0.0001650573536
0.2757048289 	0.950703649 	0.2337731457 	-0.0001998705476
0.2759257541 	1.090943526 	0.2681812262 	-0.0002346243185
0.2761466802 	1.223194819 	0.3005923846 	-0.0002693056477
0.276367606 	1.347628349 	0.3310490685 	-0.0003037501035
0.2765885301 	1.46427383 	0.359579683 	-0.0003376740436
0.276809451 	1.573225202 	0.3862038474 	-0.0003708133507
0.2770303673 	1.674568123 	0.4109435889 	-0.0004029058191
0.2772512778 	1.768359609 	0.4338142764 	-0.0004336938729
0.277472181 	1.854672727 	0.4548349164 	-0.0004630018191
0.2776930756 	1.933658764 	0.474043575 	-0.0004907782353
0.2779139602 	2.005586825 	0.4915072862 	-0.000512619135
0.2781348334 	2.070910387 	0.5073383948 	-0.0005158855585
0.2783556938 	2.130597697 	0.5217740778 	-0.0005165745971
0.2785765402 	2.18592403 	0.5351253123 	-0.0005150484447
0.2787973711 	2.237672958 	0.5475833907 	-0.0005118241225
0.2790181852 	2.286136447 	0.5592200741 	-0.0005072076581
0.2792389811 	2.33148691 	0.5700777136 	-0.0005012664072
0.2794597575 	2.373832664 	0.5801825899 	-0.0004939437372
0.279680513 	2.413225524 	0.5895468664 	-0.0004851897502
0.2799012463 	2.449693283 	0.5981766945 	-0.0004750681755
0.280121956 	2.483274085 	0.606080735 	-0.0004637153801
0.2803426408 	2.514024562 	0.6132722316 	-0.0004512676221
0.2805632993 	2.542013285 	0.6197674234 	-0.0004378556369
0.2807839302 	2.567314834 	0.6255843016 	-0.0004236132728
0.2810045322 	2.59297619 	0.6314180176 	-0.0004081704909
0.2813472362 	2.620469638 	0.6375335896 	-0.000384630485
0.281696301 	2.645680475 	0.6429797934 	-0.0003602719126
0.2820518376 	2.666427694 	0.647282678 	-0.0003368377804
0.2824139586 	2.683649603 	0.6506711479 	-0.0003145642057
0.2827827779 	2.698151795 	0.6533405674 	-0.0002929289914
0.283158411 	2.71037161 	0.6554091433 	-0.000271517377
0.2835409748 	2.7205834 	0.6569470924 	-0.0002503231403
0.2839305874 	2.729055646 	0.6580196665 	-0.0002294898801
0.2843273686 	2.736065997 	0.6586986305 	-0.0002090528726
0.2847314394 	2.741890637 	0.6590541709 	-0.0001889472668
0.285142922 	2.746772264 	0.6591481066 	-0.0001690551319
0.2855619401 	2.750903865 	0.6590300956 	-0.0001492655283
0.2859886185 	2.754434088 	0.6587383084 	-0.0001294972977
0.2864230833 	2.757477601 	0.6583020524 	-0.0001096941541
0.2868654618 	2.760123364 	0.6577440524 	-8.981686195e-05
0.2873158822 	2.762440889 	0.6570820428 	-6.983862728e-05
0.287774474 	2.764484907 	0.6563299593 	-4.974176965e-05
0.2882413675 	2.766298854 	0.6554988337 	-2.951531428e-05
0.2887166941 	2.767917476 	0.6545974642 	-9.153276725e-06
0.2889322335 	2.768563321 	0.6541674911 	-3.094937336e-05
0.2891994944 	2.769363999 	0.6536377718 	-1.102694211e-05
0.2896900884 	2.770662233 	0.6526245803 	-3.108303153e-05
0.2901894873 	2.771834644 	0.6515586102 	-5.127106632e-05
0.2906978253 	2.772896528 	0.6504436692 	-7.158728054e-05
0.2912152375 	2.77386129 	0.6492819671 	-9.202592103e-05
0.2917434627 	2.774746002 	0.648066393 	-0.0001126416167
0.2922969899 	2.775563578 	0.6467884724 	-0.0001340219945
0.2928605311 	2.776311769 	0.6454607906 	-0.000155545619
0.2934342614 	2.776992088 	0.6440932836 	-0.000177212084
0.294018359 	2.77761069 	0.6426873506 	-0.0001990172356
0.2946130049 	2.778172882 	0.6412441754 	-0.0002209566443
0.2952183831 	2.778683271 	0.6397647688 	-0.0002430255462
0.2958346806 	2.779145909 	0.6382499526 	-0.0002652178389
0.2964620875 	2.77956443 	0.6367000092 	-0.0002875181963
0.2971007972 	2.779941558 	0.6351158389 	-0.0003099379869
0.2977510059 	2.78027725 	0.6334984161 	-0.0003324723899
0.2984129134 	2.780567245 	0.6318454782 	-0.0003550160828
0.2990867225 	2.780805138 	0.6301537431 	-0.0003775230284
0.2997726395 	2.780986053 	0.6284220033 	-0.0004000521819
0.3004708739 	2.78110809 	0.6266499611 	-0.0004091812159
0.3011816387 	2.781171724 	0.6248377137 	-0.0003816820765
0.3019051506 	2.781178592 	0.6229854776 	-0.0003540821641
0.3026416294 	2.781130695 	0.6210934328 	-0.0003264040889
0.3033912988 	2.781030284 	0.6191620443 	-0.0002986604355
0.3041543861 	2.780879887 	0.6171918711 	-0.0002708623627
0.3049311222 	2.780682241 	0.6151835298 	-0.0002430205487
0.3057217419 	2.780440235 	0.6131377001 	-0.0002151444998
0.3065264837 	2.780156843 	0.611055104 	-0.0001872426437
0.30734559 	2.779835079 	0.6089364529 	-0.0001593225712
0.3081793073 	2.779476259 	0.6067752827 	-0.0001313881634
0.3090396834 	2.779080447 	0.6045546108 	-0.0001030526683
0.3099300024 	2.778649533 	0.6022728448 	-7.424810418e-05
0.3108360934 	2.778187947 	0.5999484947 	-4.54755846e-05
0.3117582235 	2.777700374 	0.5975911 	-1.674591823e-05
0.3123043765 	2.777402741 	0.5961996065 	-6.427112183e-05
0.3126953167 	2.777183446 	0.595204944 	-1.166127262e-05
0.3136470823 	2.776636978 	0.5927919004 	-3.963446077e-05
0.3146156796 	2.776070579 	0.5903472726 	-6.754705056e-05
0.3156013933 	2.775485626 	0.5878714287 	-9.538893025e-05
0.3166045131 	2.774883278 	0.5853647137 	-0.0001231490994
0.317625333 	2.7742644 	0.5828277406 	-0.0001508159529
0.3186641519 	2.773533129 	0.5799466384 	-0.0001782104536
0.3202565896 	2.772649466 	0.5763549911 	-0.000219482706
0.3218639873 	2.771652599 	0.5724456883 	-0.0002596015013
0.3234864874 	2.770640736 	0.5685358248 	-0.0002987306908
0.3251242338 	2.76960679 	0.5646012619 	-0.0003156809947
0.3268210344 	2.768547056 	0.5606108535 	-0.0002691105621
0.3285380987 	2.767464801 	0.5565923807 	-0.0002234898053
0.3302710469 	2.766368583 	0.552574087 	-0.0001789718194
0.3320200309 	2.765259376 	0.5485588105 	-0.0001355603951
0.3337852045 	2.764137223 	0.544546819 	-9.325704916e-05
0.3355667239 	2.763002102 	0.5405383923 	-5.206298574e-05
0.3373647476 	2.761853936 	0.5365337792 	-1.197899491e-05
0.3379166306 	2.761501048 	0.5353156042 	-7.950913823e-05
0.3391758841 	2.760679199 	0.5325378585 	-2.654387283e-05
0.3410023172 	2.759479194 	0.5285304056 	-6.380080503e-05
0.3428788787 	2.758253262 	0.5244805866 	-0.000100675712
0.3447903039 	2.757002573 	0.5203990704 	-0.0001367683714
0.3467192621 	2.755734674 	0.516314378 	-0.0001717035041
0.3486659273 	2.75445262 	0.5122357428 	-0.0002054877857
0.3506304766 	2.753156165 	0.5081633364 	-0.0002381252161
0.3526130898 	2.751845033 	0.5040973455 	-0.0002385632126
0.35461395 	2.750518972 	0.5000378693 	-0.000200202764
0.3566332432 	2.749173115 	0.4959737681 	-0.0001629834223
0.3586952308 	2.747799386 	0.4918787635 	-0.0001264695372
0.3608045228 	2.746396957 	0.4877514931 	-9.064920389e-05
0.3629329609 	2.744972725 	0.4836200755 	-5.605567579e-05
0.3650807436 	2.743531743 	0.4794981483 	-2.268670335e-05
0.3666015274 	2.742509068 	0.4766111153 	-8.058825502e-05
0.3672465724 	2.742068592 	0.4753860384 	-9.37245203e-06
0.3694286528 	2.74057626 	0.4712835552 	-4.003565929e-05
0.3716307393 	2.739065372 	0.4671872792 	-6.95520822e-05
0.3738590475 	2.737525717 	0.463073977 	-9.800671568e-05
0.3761552495 	2.735952311 	0.4589231552 	-0.0001259368989
0.3784722171 	2.734351089 	0.4547628369 	-0.000152650424
0.3808101762 	2.732730797 	0.450614139 	-0.0001781706037
0.3831693575 	2.731091104 	0.4464770805 	-0.0001835267352
0.385549996 	2.729431672 	0.442351644 	-0.0001528662405
0.3879523317 	2.727747319 	0.4382280484 	-0.000123386821
0.3904013496 	2.726029088 	0.4340833723 	-9.477785429e-05
0.3929016437 	2.724275979 	0.429916499 	-6.703697106e-05
0.3954244461 	2.722495751 	0.425752007 	-4.052121276e-05
0.3979700162 	2.720693701 	0.4216017615 	-1.521546392e-05
0.399577005 	2.719553074 	0.4190126233 	-0.0001024221044
0.4005368821 	2.718864466 	0.417464081 	-8.890291757e-06
0.4031241969 	2.717000605 	0.4133298575 	-3.183553905e-05
0.4057556628 	2.715101138 	0.4091805871 	-5.385426584e-05
0.4084439197 	2.713164006 	0.4050116299 	-7.502477684e-05
0.4111564165 	2.71119708 	0.4008460233 	-9.504309365e-05
0.4138934475 	2.709206502 	0.3966962491 	-0.0001139374051
0.4166553136 	2.707192009 	0.392562098 	-0.000131732963
0.4194423223 	2.70514495 	0.3884293528 	-0.0001316109397
0.4222964217 	2.703057144 	0.384277567 	-0.0001089398559
0.4251870746 	2.700932324 	0.3801202652 	-8.732725137e-05
0.4281038175 	2.698779894 	0.3759769904 	-6.684838144e-05
0.4310469859 	2.696601779 	0.3718512786 	-4.747619097e-05
0.4340169233 	2.69439138 	0.3677330142 	-2.917966871e-05
0.4370454133 	2.692139967 	0.3636041018 	-1.173862834e-05
0.4392173458 	2.690522571 	0.3606833295 	-8.04627592e-05
0.4401196787 	2.689846054 	0.3594677136 	-4.799273567e-06
0.4432190204 	2.687514929 	0.3553389847 	-2.0418234e-05
0.4463466103 	2.685157077 	0.3512289951 	-3.503688021e-05
0.4495028329 	2.682764377 	0.3471260453 	-4.868373751e-05
0.4527269537 	2.680328522 	0.3430132337 	-6.156589954e-05
0.4559904338 	2.677853505 	0.3389016883 	-7.352929051e-05
0.4592836583 	2.675348379 	0.3348073359 	-8.45604169e-05
0.4626070486 	2.67281227 	0.3307293179 	-9.469347119e-05
0.4659741087 	2.670235989 	0.3266537239 	-8.233401946e-05
0.4694056061 	2.667615805 	0.322573958 	-6.813116017e-05
0.4728684549 	2.664959265 	0.3185057167 	-5.485719231e-05
0.476363118 	2.662272456 	0.3144581218 	-4.248008457e-05
0.4798916088 	2.659546185 	0.3104193285 	-3.095495677e-05
0.4834951505 	2.656773132 	0.3063762908 	-2.012470404e-05
0.4871317792 	2.653960059 	0.3023434943 	-1.012973528e-05
0.4908020032 	2.651114814 	0.2983321802 	-9.337024957e-07
0.4911993413 	2.650805627 	0.2979029246 	-2.835225857e-05
0.4945047648 	2.648224813 	0.2943252626 	-7.722654426e-06
0.4982817689 	2.645286469 	0.2903165455 	-1.577706357e-05
0.5020938467 	2.642306713 	0.2863196876 	-2.310615306e-05
0.5059415539 	2.639291226 	0.2823429555 	-2.974830701e-05
0.5098339861 	2.636231879 	0.278376629 	-3.575584508e-05
0.5137924172 	2.633124 	0.274414629 	-4.118417492e-05
0.5177879724 	2.629973756 	0.270467815 	-4.599681071e-05
0.5218212604 	2.62678195 	0.2665385031 	-5.023149281e-05
0.5259140893 	2.623540948 	0.2626174071 	-5.395038835e-05
0.5300592025 	2.620251032 	0.2587067081 	-4.821903094e-05
0.5342436715 	2.616916937 	0.2548140937 	-4.142723915e-05
0.5384732893 	2.613533968 	0.2509353681 	-3.51883098e-05
0.5427699166 	2.610096642 	0.2470646135 	-2.945033124e-05
0.5471076191 	2.606609804 	0.2432100513 	-2.423397529e-05
0.5514871072 	2.603072524 	0.2393723863 	-1.950448895e-05
0.5559336223 	2.599477614 	0.2355440976 	-1.520565179e-05
0.5604269332 	2.595827639 	0.2317304129 	-1.134705167e-05
0.5649639002 	2.592123231 	0.2279340465 	-7.90090647e-06
0.569563076 	2.588358222 	0.2241494123 	-4.823092952e-06
0.5742147526 	2.584532791 	0.2203788159 	-2.108248321e-06
0.5783626515 	2.581101931 	0.2170639481 	-2.787682221e-05
0.5789119037 	2.580647231 	0.2166244776 	-2.846029534e-07
0.5836691853 	2.576696216 	0.2128794336 	-2.505324675e-06
0.5884811719 	2.57267936 	0.2091488209 	-4.423622414e-06
0.5933409967 	2.568596185 	0.2054347279 	-6.060957527e-06
0.5982639677 	2.564441504 	0.2017337204 	-7.448243779e-06
0.603241457 	2.560214759 	0.1980476493 	-8.59414563e-06
0.6082690093 	2.555914307 	0.1943776243 	-9.520841864e-06
0.6133630769 	2.551534418 	0.1907201985 	-1.02531118e-05
0.6185102439 	2.547074814 	0.1870778808 	-1.079963704e-05
0.6237124478 	2.542532887 	0.1834508613 	-1.118325518e-05
0.6289800964 	2.537915704 	0.1798459511 	-1.142085905e-05
0.6342429514 	2.533262167 	0.1762950854 	-1.152347747e-05
0.6394496929 	2.528609867 	0.1728255644 	-1.151377981e-05
0.6446008478 	2.523970125 	0.169442738 	-1.140831347e-05
0.6496914023 	2.519343134 	0.1661442928 	-1.122548924e-05
0.6547300818 	2.514726719 	0.1629256684 	-1.098173801e-05
0.6597120185 	2.510121302 	0.1597847692 	-1.068630885e-05
0.6646360827 	2.505526581 	0.156719134 	-1.035238961e-05
0.6695107443 	2.500940117 	0.1537245043 	-9.989181101e-06
0.6743292695 	2.496362925 	0.1507995477 	-9.60281932e-06
0.6790929143 	2.491794645 	0.1479419464 	-9.202097933e-06
0.6838075543 	2.487233196 	0.1451481591 	-8.791780287e-06
0.6884682294 	2.482679408 	0.1424169575 	-8.375978949e-06
0.6930762757 	2.478132827 	0.1397462167 	-7.9601856e-06
0.697636213 	2.473591724 	0.1371330112 	-7.546816361e-06
0.7021443802 	2.469056759 	0.1345761945 	-7.138220825e-06
0.7066016221 	2.464527509 	0.1320739349 	-6.737719806e-06
0.7110121582 	2.460002349 	0.1296236784 	-6.346555218e-06
0.71537296 	2.455481718 	0.1272243193 	-5.965626554e-06
0.7196847632 	2.450965416 	0.1248744065 	-5.596865389e-06
0.7239504894 	2.446452087 	0.1225717882 	-5.240993091e-06
0.7281688828 	2.441941671 	0.1203152295 	-4.897846778e-06
0.7323401204 	2.437434119 	0.1181035822 	-4.56841868e-06
0.7364659089 	2.432928452 	0.1159351101 	-4.253177426e-06
0.7405466757 	2.428424128 	0.1138084624 	-3.951423052e-06
0.7445820178 	2.423921205 	0.1117227039 	-3.663416089e-06
0.7485726794 	2.419419059 	0.1096764873 	-3.389384075e-06
0.7525204338 	2.414916767 	0.1076683954 	-3.128699896e-06
0.7564243968 	2.410414293 	0.1056975535 	-2.880921681e-06
0.7602851428 	2.405911415 	0.1037630091 	-2.646028565e-06
0.7641037903 	2.401407309 	0.1018635062 	-2.423752414e-06
0.7678807403 	2.396901463 	0.09999804283 	-2.213214249e-06
0.7716159852 	2.392393735 	0.09816585084 	-2.014131614e-06
0.775310052 	2.387883626 	0.0963659798 	-1.826253068e-06
0.7789640569 	2.38337036 	0.09459738932 	-1.64904604e-06
0.7825779467 	2.378853571 	0.09285930038 	-1.481756025e-06
0.7861520682 	2.374333025 	0.09115102028 	-1.324077733e-06
0.7896869084 	2.36980814 	0.08947169043 	-1.175681518e-06
0.7931834198 	2.365278214 	0.0878204447 	-1.035986538e-06
0.796641542 	2.360742903 	0.08619662793 	-9.043742638e-07
0.8000617053 	2.356201917 	0.08459961909 	-7.80526759e-07
0.8034443628 	2.351654686 	0.0830286861 	-6.641134395e-07
0.8067902644 	2.347100551 	0.08148309894 	-5.546385356e-07
0.8100995122 	2.342539078 	0.07996227375 	-4.515510917e-07
0.8133725006 	2.337969874 	0.07846565826 	-3.545483898e-07
0.8166096537 	2.333392367 	0.07699264039 	-2.633286867e-07
0.8198115392 	2.328805884 	0.07554259411 	-1.77526723e-07
0.8229784471 	2.324209846 	0.07411497963 	-9.664085162e-08
0.826110699 	2.319603749 	0.07270930894 	-2.039143463e-08
0.8269714745 	2.318320953 	0.07232467996 	-2.012144278e-05
0.8292085347 	2.314987626 	0.07132463426 	-3.310728758e-08
0.8322724858 	2.310360426 	0.06996071024 	-7.625529825e-08
0.8353030574 	2.305721214 	0.06861720403 	-1.166029361e-07
0.8383004984 	2.301069379 	0.0672936829 	-1.544261845e-07
0.8412651854 	2.296404286 	0.06598970764 	-1.899438674e-07
0.8441974886 	2.291725203 	0.06470483498 	-2.233633292e-07
0.847097822 	2.287031313 	0.06343861342 	-2.548981331e-07
0.8499665109 	2.282321791 	0.06219063104 	-2.848145133e-07
0.8528038661 	2.277595823 	0.06096051258 	-3.13291385e-07
0.8556102384 	2.272852546 	0.05974786869 	-3.404848786e-07
0.858385974 	2.268091011 	0.05855231957 	-3.665401899e-07
0.8611314453 	2.263310193 	0.05737347928 	-3.916095777e-07
0.8638469571 	2.258509042 	0.05621099384 	-4.158799497e-07
0.8665328206 	2.253686496 	0.05506453464 	-4.394709463e-07
0.8691893645 	2.248841432 	0.05393376225 	-4.624875873e-07
0.8718169132 	2.243972647 	0.052818352 	-4.850267145e-07
0.8744157988 	2.239078849 	0.05171797359 	-5.071833651e-07
0.8769863299 	2.234158671 	0.05063231503 	-5.290873273e-07
0.8795287986 	2.229210696 	0.04956108901 	-5.50822127e-07
0.8820435138 	2.224233432 	0.0485040011 	-5.724526509e-07
0.8845307806 	2.219225286 	0.04746076608 	-5.940372108e-07
0.8869909002 	2.214184557 	0.0464311036 	-6.156276572e-07
0.8894241803 	2.209109426 	0.04541473325 	-6.372906896e-07
0.8918308955 	2.203997979 	0.04441139589 	-6.590973634e-07
0.8942113348 	2.198848203 	0.04342084022 	-6.810839504e-07
0.8965657859 	2.193657958 	0.04244281088 	-7.032818124e-07
0.8988945327 	2.188424965 	0.04147706443 	-7.257180084e-07
0.9011978561 	2.183146791 	0.04052335861 	-7.484152393e-07
0.9034760374 	2.177820829 	0.03958145339 	-7.714120324e-07
0.9057293392 	2.17244431 	0.03865112521 	-7.947429772e-07
0.907958033 	2.167014286 	0.03773215379 	-8.18420269e-07
0.9101623871 	2.161527589 	0.03682431777 	-8.42453476e-07
0.9123426665 	2.155980808 	0.03592740377 	-8.668501588e-07
0.9144991334 	2.150370246 	0.03504120335 	-8.916159372e-07
0.916632048 	2.144691869 	0.03416550549 	-9.167629902e-07
0.9187416618 	2.138941257 	0.03330010932 	-9.423166764e-07
0.9208282271 	2.133113548 	0.03244482046 	-9.682834818e-07
0.9228919946 	2.127203352 	0.0315994395 	-9.946692125e-07
0.9249332121 	2.121204653 	0.03076376961 	-1.021480911e-06
0.9269521248 	2.115110716 	0.02993761573 	-1.048726154e-06
0.9289489749 	2.108913976 	0.02912077929 	-1.076412655e-06
0.9309240022 	2.102605928 	0.02831305589 	-1.087141597e-06
0.932877441 	2.09617704 	0.02751424291 	-1.071323118e-06
0.9348095256 	2.089616657 	0.02672413234 	-1.055869821e-06
0.9367204882 	2.08291293 	0.02594250606 	-1.040741795e-06
0.9386105581 	2.076052754 	0.02516914083 	-1.025897672e-06
0.9404799623 	2.069021753 	0.0244038077 	-1.011294289e-06
0.942328925 	2.061804301 	0.02364627316 	-9.96886907e-07
0.9441576682 	2.054383608 	0.02289629668 	-9.826283703e-07
0.9459664103 	2.046741899 	0.02215364086 	-9.684700056e-07
0.9477553682 	2.03886074 	0.02141806253 	-9.543866121e-07
0.9495247567 	2.03142027 	0.02075055027 	-9.39494146e-07
0.9506774317 	2.0252244 	0.02021419141 	-9.30998719e-07
0.9518089131 	2.019659681 	0.01974683396 	-9.217748197e-07
0.9529195895 	2.014026381 	0.01928735284 	-9.126108756e-07
0.9540098421 	2.008320788 	0.018835562 	-9.034844632e-07
0.9550800455 	2.002539719 	0.01839127441 	-8.94384542e-07
0.9561305671 	1.996680371 	0.01795431368 	-8.8530581e-07
0.957161768 	1.990740209 	0.01752451132 	-8.762451232e-07
0.9581740022 	1.984716866 	0.01710170548 	-8.671986433e-07
0.9591676175 	1.978608083 	0.01668574066 	-8.581631313e-07
0.9601429554 	1.972411644 	0.01627646554 	-8.491357114e-07
0.9611003511 	1.966125342 	0.01587373246 	-8.401124115e-07
0.962040134 	1.959746944 	0.01547739743 	-8.310880436e-07
0.962962627 	1.953274167 	0.0150873197 	-8.220562909e-07
0.9638681475 	1.946704665 	0.01470336167 	-8.130099423e-07
0.9647570069 	1.940036008 	0.0143253889 	-8.039411894e-07
0.9656295111 	1.93326567 	0.01395327025 	-7.948419269e-07
0.9664859601 	1.926391011 	0.01358687803 	-7.857040153e-07
0.9673266487 	1.919409254 	0.01322608818 	-7.76519479e-07
0.9681518663 	1.912317461 	0.01287078042 	-7.672806328e-07
0.9689618968 	1.905112505 	0.01252083846 	-7.579801387e-07
0.9697570191 	1.897791031 	0.01217615011 	-7.486110061e-07
0.9705375069 	1.890349419 	0.0118366075 	-7.391665441e-07
0.971303629 	1.882783741 	0.0115021067 	-7.296402219e-07
0.9720556491 	1.875089711 	0.01117254832 	-7.200249043e-07
0.9727938264 	1.867262634 	0.01084783779 	-7.10314109e-07
0.9735184149 	1.859297352 	0.01052788469 	-7.005015537e-07
0.9742296644 	1.851188186 	0.01021260327 	-6.905808468e-07
0.9749278198 	1.842928872 	0.009901912495 	-6.805454121e-07
0.9756131219 	1.834512493 	0.009595736165 	-6.703884259e-07
0.9762858066 	1.825931413 	0.009294003019 	-6.601027647e-07
0.976946106 	1.817177197 	0.008996646892 	-6.496809633e-07
0.9775942475 	1.808240533 	0.008703606887 	-6.391151832e-07
0.9782304546 	1.799111144 	0.008414827554 	-6.283971924e-07
0.9788549467 	1.789777696 	0.008130259101 	-6.175183594e-07
0.9794679391 	1.780227697 	0.007849857601 	-6.064696626e-07
0.9800696431 	1.77044739 	0.00757358522 	-5.952417184e-07
0.9806602663 	1.760421638 	0.007301410445 	-5.838248319e-07
0.9812400124 	1.7501338 	0.007033308314 	-5.722090725e-07
0.9818090813 	1.739565601 	0.006769260633 	-5.60384377e-07
0.9823676694 	1.728696984 	0.006509256193 	-5.483406824e-07
0.9829159694 	1.717505964 	0.006253290953 	-5.36068089e-07
0.9834541705 	1.705968465 	0.006001368208 	-5.235570519e-07
0.9839824583 	1.694058142 	0.005753498713 	-5.107986018e-07
0.9845010152 	1.681746202 	0.005509700807 	-4.977845944e-07
0.9850100202 	1.669001196 	0.005270000354 	-4.845080033e-07
0.985509649 	1.655788816 	0.005034430718 	-4.709631669e-07
0.9860000739 	1.642071653 	0.004803032875 	-4.571463284e-07
0.9864814644 	1.627808957 	0.004575855098 	-4.430564113e-07
0.9869539866 	1.612956359 	0.004352952634 	-4.286957667e-07
0.9874178036 	1.597465582 	0.004134387499 	-4.140713409e-07
0.9878730756 	1.581284116 	0.003920228002 	-3.9919605e-07
0.9883199598 	1.564354861 	0.003710548188 	-3.840893752e-07
0.9887586106 	1.546615741 	0.003505427347 	-3.687742537e-07
0.9891891794 	1.527999263 	0.003304949625 	-3.532708897e-07
0.989611815 	1.508432028 	0.003109203474 	-3.375938819e-07
0.9900266634 	1.487834208 	0.002918281082 	-3.217552441e-07
0.9904338678 	1.466119013 	0.002732277854 	-3.057698263e-07
0.990833569 	1.443192192 	0.002551300705 	-2.896607245e-07
0.991225905 	1.418951803 	0.002375489201 	-2.734597798e-07
0.9916110115 	1.39554 	0.002219246165 	-2.583633379e-07
0.9918588689 	1.375571184 	0.002095541435 	-2.465569047e-07
0.9921067298 	1.35705064 	0.00198795534 	-2.358505408e-07
0.9923545941 	1.337531782 	0.001881486834 	-2.250510881e-07
0.9926024619 	1.316935954 	0.001776209619 	-2.141761733e-07
0.992850333 	1.295177698 	0.001672214681 	-2.032453465e-07
0.9930982076 	1.272163741 	0.00156960093 	-1.922800254e-07
0.9933460855 	1.247791276 	0.001468475247 	-1.812819465e-07
0.9935939669 	1.221942316 	0.001368948672 	-1.702632502e-07
0.9938418517 	1.194482591 	0.001271133546 	-1.592496002e-07
0.9940897399 	1.165270351 	0.001175168538 	-1.482719306e-07
0.9943376316 	1.134157671 	0.001081211102 	-1.373712594e-07
0.9945855266 	1.100984832 	0.0009894209824 	-1.265760436e-07
0.9948334251 	1.065578737 	0.0008999703609 	-1.159156744e-07
0.995081327 	1.027753385 	0.0008130449868 	-1.054232347e-07
0.9953292323 	0.9873117531 	0.0007288465175 	-9.513483567e-08
0.995577141 	0.9440492426 	0.0006476198073 	-8.508774601e-08
0.9958250531 	0.8977592178 	0.0005696727681 	-7.53237929e-08
0.9960729686 	0.8482412828 	0.0004951933835 	-6.59026218e-08
0.9963208876 	0.7953125423 	0.0004221120924 	-5.701512343e-08
0.99656881 	0.7388171127 	0.0003554370944 	-4.810117657e-08
0.9968167358 	0.6785230975 	0.000299475298 	-3.972088426e-08
0.997064665 	0.6141426424 	0.000243037878 	-3.285859134e-08
0.9973125976 	0.5457202705 	0.0001850593307 	-2.599267008e-08
0.9975605336 	0.4737810541 	0.0001346746454 	-1.91266362e-08
0.9978084731 	0.3990536173 	9.330116952e-05 	-1.338317451e-08
0.9980564159 	0.3222047843 	6.022229865e-05 	-8.673015354e-09
0.9983043622 	0.2436982274 	3.463943591e-05 	-4.975525283e-09
0.9985523119 	0.1637781999 	1.619464726e-05 	-2.263168738e-09
0.998800265 	0.08253756142 	-1.277867523e-06 	-6.667491714e-10
0.9990482216 	0.03452888239 	-9.413993234e-06 	-1.467818404e-10
0.9990482216 	0.03452888239 	-9.413993234e-06 	-1.467818404e-10
