0 	0.08603584214 	-3.514765175e-15 	-2.023784539e-22 	1.435863697e-28 	8.267632701e-36 	4.760462336e-43
0.0003149815133 	0.08609236244 	0.0007674265979 	-6.708120357e-08 	0.109682513 	-1.636263832e-06 	0.0002090853545
0.0006299624726 	0.08612095941 	0.0002218555859 	-2.54905356e-08 	0.1111602533 	-1.471979015e-06 	0.0002119023381
0.0009449428773 	0.08610217488 	7.11952878e-05 	-1.592224719e-08 	0.111311656 	-1.192363267e-06 	0.0002121909538
0.001259922727 	0.08610820994 	1.942777298e-08 	-1.221091122e-08 	0.1114330824 	-9.081146572e-07 	0.0002124224263
0.00157490202 	0.08610251014 	-5.066184507e-05 	-9.020106855e-09 	0.1114591494 	-6.164673795e-07 	0.0002124721172
0.001889880757 	0.08609697008 	-9.337617248e-05 	-5.249182073e-09 	0.1114862205 	-3.243229473e-07 	0.0002125237223
0.002204858937 	0.0860907649 	-0.0001320185108 	-5.697456743e-10 	0.1115132077 	-3.180342442e-08 	0.0002125751674
0.002239077857 	0.08608999092 	-0.0001359545897 	-8.297469123e-08 	0.1115161863 	-7.546450553e-05 	0.0002125808454
0.002519836559 	0.08608342149 	-0.0001682361763 	-5.245466395e-09 	0.1115406697 	-2.629062676e-07 	0.0002126275177
0.002834813624 	0.08607510665 	-0.0002028758709 	-1.219765044e-08 	0.1115695223 	-5.579384176e-07 	0.0002126825187
0.00314979013 	0.08606585852 	-0.0002364242799 	-2.030937767e-08 	0.1116004247 	-8.529663989e-07 	0.0002127414272
0.003464766077 	0.08605567518 	-0.0002691841145 	-2.959615416e-08 	0.1116336907 	-1.147926775e-06 	0.0002128048414
0.003779741465 	0.08604455338 	-0.0003013550348 	-4.006306144e-08 	0.1116694924 	-1.442766456e-06 	0.0002128730894
0.004094716294 	0.086032491 	-0.0003330749129 	-5.170832377e-08 	0.1117079338 	-1.737438473e-06 	0.0002129463695
0.004409690564 	0.08601948678 	-0.0003644426171 	-6.45252759e-08 	0.1117490777 	-2.031899744e-06 	0.0002130248012
0.004724664274 	0.08600554036 	-0.0003955313697 	-7.850351694e-08 	0.11179296 	-2.326109777e-06 	0.0002131084529
0.005039637424 	0.08599065243 	-0.0004263969656 	-9.362962108e-08 	0.1118395988 	-2.620029954e-06 	0.0002131973595
0.005354610015 	0.08597482511 	-0.00045708304 	-1.098875927e-07 	0.1118890003 	-2.913623155e-06 	0.0002132915324
0.005669582045 	0.08595806226 	-0.0004876245651 	-1.272591676e-07 	0.1119411616 	-3.206853498e-06 	0.0002133909665
0.005984553517 	0.08594036997 	-0.0005180502417 	-1.457240151e-07 	0.1119960732 	-3.499686178e-06 	0.0002134956432
0.006299524428 	0.08592175708 	-0.0005483841848 	-1.652598785e-07 	0.1120537194 	-3.792087364e-06 	0.0002136055329
0.00661449478 	0.0859022359 	-0.0005786471415 	-1.858426716e-07 	0.1121140798 	-4.084024107e-06 	0.0002137205965
0.006929464573 	0.08588182301 	-0.0006088573969 	-2.074465429e-07 	0.1121771291 	-4.375464258e-06 	0.0002138407861
0.007244433807 	0.08586054029 	-0.0006390314701 	-2.300439171e-07 	0.1122428374 	-4.66637645e-06 	0.0002139660444
0.007559402482 	0.08583841627 	-0.0006691846989 	-2.536055017e-07 	0.1123111699 	-4.956729991e-06 	0.0002140963052
0.007874370599 	0.0858154877 	-0.0006993320892 	-2.781001093e-07 	0.1123820864 	-5.246494843e-06 	0.0002142314917
0.008189338158 	0.08579180166 	-0.0007294929748 	-3.034928333e-07 	0.1124555389 	-5.535642644e-06 	0.0002143715125
0.008504305159 	0.08576741888 	-0.0007597371399 	-3.297282757e-07 	0.112531471 	-5.824150717e-06 	0.0002145162602
0.008819271603 	0.08574242026 	-0.0007906748146 	-3.565849941e-07 	0.1126098166 	-6.111976849e-06 	0.0002146656088
0.009134237491 	0.08571694989 	-0.0008286912547 	-3.825172136e-07 	0.1126906177 	-6.399065542e-06 	0.000214819638
0.009449202822 	0.08568778564 	-0.0009123326204 	-4.01331354e-07 	0.1127848486 	-6.684318448e-06 	0.0002149992684
0.009938585273 	0.08565274419 	-0.001072482285 	-4.172431611e-07 	0.1129044349 	-7.128311662e-06 	0.0002152272331
0.01043716429 	0.08561647819 	-0.001275003221 	-4.245877304e-07 	0.1130384602 	-7.578651414e-06 	0.0002154827225
0.01094511266 	0.08558248145 	-0.001483696977 	-4.287631615e-07 	0.1131749872 	-8.035993407e-06 	0.0002157429809
0.01146260645 	0.08555089735 	-0.001694456701 	-4.308735983e-07 	0.1133139644 	-8.50043245e-06 	0.0002160079102
0.011989825 	0.08552187255 	-0.001907267365 	-4.309698299e-07 	0.1134554512 	-8.972010874e-06 	0.0002162776233
0.01252695103 	0.08549554707 	-0.002122455175 	-4.289541559e-07 	0.1135995533 	-9.450793073e-06 	0.000216552322
0.01307417071 	0.08547205246 	-0.00234034267 	-4.247059971e-07 	0.1137463589 	-9.936839627e-06 	0.0002168321743
0.01363167369 	0.08545151933 	-0.002561222084 	-4.180983397e-07 	0.1138959533 	-1.043021003e-05 	0.0002171173427
0.01419965319 	0.08543408102 	-0.002785357483 	-4.0900006e-07 	0.1140484203 	-1.093096299e-05 	0.0002174079873
0.01477830605 	0.08541987577 	-0.003012988821 	-3.97276465e-07 	0.1142038414 	-1.143915649e-05 	0.000217704263
0.01536783281 	0.08540904821 	-0.003244335532 	-3.827895841e-07 	0.1143622949 	-1.195484755e-05 	0.0002180063195
0.01596843781 	0.0854017503 	-0.003479599551 	-3.653983984e-07 	0.1145238565 	-1.24780919e-05 	0.0002183143007
0.01658032918 	0.08539814194 	-0.003718967875 	-3.449590115e-07 	0.1146885987 	-1.300894361e-05 	0.0002186283451
0.01720371899 	0.08539839128 	-0.003962614948 	-3.213246075e-07 	0.1148565909 	-1.35474543e-05 	0.000218948585
0.0178388233 	0.08540267524 	-0.0042107072 	-2.943436569e-07 	0.1150279014 	-1.409367333e-05 	0.0002192751504
0.01848586221 	0.08541118085 	-0.004463433414 	-2.638441602e-07 	0.115202603 	-1.464765239e-05 	0.0002196081802
0.01914505996 	0.0854241096 	-0.004721308062 	-2.29521912e-07 	0.1153807711 	-1.52094409e-05 	0.0002199478182
0.01981664503 	0.08544168482 	-0.004984775547 	-1.909807999e-07 	0.1155626447 	-1.577905565e-05 	0.0002202945198
0.02050358683 	0.08546415277 	-0.005253378429 	-1.486620743e-07 	0.1157485771 	-1.63587047e-05 	0.0002206489587
0.02120541641 	0.08549176963 	-0.00552784255 	-1.022709268e-07 	0.1159385908 	-1.69488873e-05 	0.0002210111775
0.02192043459 	0.08552474861 	-0.005808452138 	-5.111912438e-08 	0.1161324534 	-1.754854741e-05 	0.0002213807336
0.02264888916 	0.08556329201 	-0.006094365119 	4.584685083e-09 	0.116330083 	-1.815793164e-05 	0.0002217574704
0.02339103257 	0.0856076377 	-0.006385737841 	6.498358973e-08 	0.116531532 	-1.87772864e-05 	0.0002221414883
0.02414712203 	0.08565803075 	-0.006682689541 	1.30261095e-07 	0.1167368674 	-1.940687338e-05 	0.0002225329145
0.02491741955 	0.08571472239 	-0.006985332911 	2.006082801e-07 	0.1169461595 	-2.004696813e-05 	0.0002229318835
0.0257021921 	0.0857779693 	-0.00729377733 	2.76221195e-07 	0.1171594793 	-2.069785673e-05 	0.0002233385303
0.02650171163 	0.08584803354 	-0.007608129443 	3.541192119e-07 	0.1173768996 	-2.116963949e-05 	0.0002237529939
0.02731625522 	0.08592518229 	-0.00792849339 	4.124393002e-07 	0.1175984962 	-2.046459932e-05 	0.0002241754186
0.02814610515 	0.08600968752 	-0.008254970969 	4.665827827e-07 	0.1178243475 	-1.975070577e-05 	0.0002246059539
0.02899154899 	0.08610182556 	-0.008587661747 	5.163538462e-07 	0.1180545353 	-1.902773461e-05 	0.0002250447559
0.02985287974 	0.08620187668 	-0.008926663138 	5.615494933e-07 	0.118289145 	-1.829544852e-05 	0.0002254919872
0.03073039586 	0.08631012464 	-0.009272070446 	6.019596239e-07 	0.1185282659 	-1.755359675e-05 	0.0002259478181
0.03162440146 	0.08642685616 	-0.009623976866 	6.373670976e-07 	0.1187719915 	-1.680191485e-05 	0.0002264124268
0.03253520634 	0.0865523604 	-0.009982473461 	6.675477826e-07 	0.1190204201 	-1.604012438e-05 	0.0002268860006
0.03346312612 	0.08668692837 	-0.0103476491 	6.922705967e-07 	0.1192736546 	-1.52679326e-05 	0.0002273687362
0.03440848235 	0.08683085228 	-0.0107195904 	7.112975459e-07 	0.1195318037 	-1.448503208e-05 	0.0002278608399
0.03537160262 	0.08698442492 	-0.0110983816 	7.243837836e-07 	0.1197949809 	-1.36911004e-05 	0.0002283625288
0.03635282068 	0.08714793917 	-0.01148410498 	7.312777844e-07 	0.1200633073 	-1.288580028e-05 	0.0002288740336
0.03735247653 	0.08732168745 	-0.01187684577 	7.3172172e-07 	0.1203369118 	-1.206877828e-05 	0.0002293955998
0.03837091657 	0.08750596157 	-0.01227674525 	7.25447691e-07 	0.1206159247 	-1.123966124e-05 	0.0002299274758
0.03940849371 	0.08770112794 	-0.01268391438 	7.121639519e-07 	0.1209005937 	-1.039806238e-05 	0.0002304701342
0.04046733527 	0.08790780197 	-0.01309886922 	6.915850696e-07 	0.1211915308 	-9.541885293e-06 	0.0002310247411
0.04155102344 	0.0881264907 	-0.01352286396 	6.632922895e-07 	0.1214891904 	-8.667852145e-06 	0.000231592163
0.04265507529 	0.08835715785 	-0.01395516471 	6.271455326e-07 	0.1217932778 	-7.780369928e-06 	0.0002321718382
0.0437798734 	0.08859979919 	-0.01439457717 	5.82722197e-07 	0.1221035606 	-6.878952e-06 	0.0002327633235
0.04492580757 	0.08885468371 	-0.01484143573 	5.297633109e-07 	0.1224202153 	-5.963126282e-06 	0.0002333669554
0.0460932749 	0.08912206592 	-0.01529581782 	4.679711023e-07 	0.1227434385 	-5.032397406e-06 	0.0002339831086
0.04728267995 	0.08940218875 	-0.01575777145 	3.97037316e-07 	0.1230734286 	-4.086246781e-06 	0.0002346121613
0.04849443489 	0.08969528288 	-0.0162273368 	3.166478331e-07 	0.1234103842 	-3.124131162e-06 	0.0002352544923
0.04972895962 	0.09000156696 	-0.0167045482 	2.264833464e-07 	0.1237545115 	-2.145482396e-06 	0.0002359104946
0.05098668193 	0.09032124666 	-0.01718943387 	1.262194613e-07 	0.1241060228 	-1.149705922e-06 	0.000236580573
0.05226803766 	0.09065451398 	-0.01768201559 	1.552673854e-08 	0.1244651354 	-1.361795538e-07 	0.0002372651414
0.05244057823 	0.09070036915 	-0.01774812779 	-3.224706182e-07 	0.1245136285 	-1.5958276e-05 	0.0002373575827
0.05357347081 	0.09100109367 	-0.01818223229 	1.026114526e-07 	0.1248319621 	-8.910537247e-07 	0.0002379644151
0.05490343374 	0.09136152239 	-0.01869015001 	2.310798861e-07 	0.1252068156 	-1.936541253e-06 	0.00023867899
0.0562583873 	0.09173601758 	-0.01920578248 	3.706974182e-07 	0.1255899427 	-3.00169704e-06 	0.0002394093367
0.057638801 	0.0921247115 	-0.01972915565 	5.217951935e-07 	0.1259815707 	-4.087252335e-06 	0.0002401558886
0.05904515316 	0.09252779622 	-0.02026030456 	6.846932533e-07 	0.1263819471 	-5.193962955e-06 	0.0002409191173
0.06047923244 	0.09294593554 	-0.0207995569 	8.599208231e-07 	0.1267917532 	-6.323711887e-06 	0.0002417003215
0.06194729124 	0.09337967399 	-0.02134751567 	1.048362711e-06 	0.1272118821 	-7.48179689e-06 	0.0002425012041
0.06344293631 	0.09388677319 	-0.02197795439 	1.254672528e-06 	0.1276977944 	-8.666311707e-06 	0.0002434274879
0.06573896912 	0.09452754907 	-0.02276525423 	1.578071212e-06 	0.1283079348 	-1.048163697e-05 	0.0002445905851
0.06806060914 	0.09524162303 	-0.02362782471 	1.932516876e-06 	0.1289835091 	-1.232759028e-05 	0.0002458784175
0.07040814194 	0.09597078758 	-0.02449004121 	2.312493981e-06 	0.1296682649 	-1.420261114e-05 	0.0002471837522
0.0727818563 	0.09671456704 	-0.02535237272 	2.718574103e-06 	0.130361965 	-1.610859911e-05 	0.0002485061375
0.07518204421 	0.09747235341 	-0.02621470229 	3.151170967e-06 	0.1310639881 	-1.804717975e-05 	0.0002498443887
0.07760900091 	0.09824347331 	-0.02707685606 	3.610675536e-06 	0.1317736842 	-2.001990298e-05 	0.0002511972668
0.08006302493 	0.09902806501 	-0.02793907985 	4.097816459e-06 	0.1324910889 	-2.202841758e-05 	0.0002525648395
0.08255609596 	0.09982641949 	-0.02880308034 	4.079240046e-06 	0.1332164362 	-2.128472328e-05 	0.000253947553
0.08507824308 	0.1006367336 	-0.02966775153 	3.845724293e-06 	0.1339479559 	-1.949856591e-05 	0.0002553420329
0.08762852215 	0.101456883 	-0.03053070858 	3.585687718e-06 	0.1346834746 	-1.768507526e-05 	0.0002567441359
0.09020724696 	0.1022856123 	-0.03139176194 	3.298881847e-06 	0.1354216601 	-1.584252732e-05 	0.0002581513226
0.09281473479 	0.1031216504 	-0.03225055309 	2.984894105e-06 	0.1361611754 	-1.396932964e-05 	0.0002595610444
0.09545130646 	0.1039636129 	-0.03310665483 	2.643212646e-06 	0.1369005321 	-1.206400908e-05 	0.0002609704637
0.09811728639 	0.1048101658 	-0.03395959259 	2.273217399e-06 	0.1376382289 	-1.012522022e-05 	0.0002623767189
0.1008152168 	0.1056607046 	-0.03480978776 	1.873975665e-06 	0.1383733797 	-8.149971953e-06 	0.0002637781206
0.1035538849 	0.1065142271 	-0.03565803328 	1.443327864e-06 	0.139104771 	-6.131435122e-06 	0.0002651723557
0.1063231032 	0.1073678302 	-0.03650245904 	9.825410845e-07 	0.1398296285 	-4.079177482e-06 	0.0002665541356
0.1091232125 	0.108218692 	-0.03734099281 	4.901674283e-07 	0.1405449765 	-1.9903654e-06 	0.0002679177876
0.1117768629 	0.1090106372 	-0.03811761638 	4.073113285e-07 	0.1412026826 	-7.998379737e-06 	0.0002691715582
0.1119545574 	0.1090636063 	-0.03816960316 	3.204892007e-08 	0.1412467095 	-1.326310196e-07 	0.0002692554858
0.1148174862 	0.1098829721 	-0.03898722493 	5.835367207e-07 	0.1419211897 	-2.218081332e-06 	0.0002705412325
0.1177123515 	0.1106425645 	-0.03981367584 	1.223379348e-06 	0.142542739 	-4.240427001e-06 	0.0002717260783
0.1206406417 	0.1113491739 	-0.04064666383 	1.87091607e-06 	0.1431111057 	-6.298554956e-06 	0.0002728095432
0.1236130938 	0.112035829 	-0.04147136339 	2.572304432e-06 	0.1436447989 	-8.418610638e-06 	0.0002738269106
0.1266187072 	0.1127090124 	-0.04229018156 	3.348998167e-06 	0.1441469505 	-1.057118713e-05 	0.0002747841513
0.1296578519 	0.1133652841 	-0.04310346134 	4.179022518e-06 	0.1446152179 	-1.274839219e-05 	0.0002756767991
0.132730902 	0.114001566 	-0.04391017778 	5.06217855e-06 	0.1450463227 	-1.494216869e-05 	0.0002764986046
0.1358382358 	0.1146146861 	-0.04470901351 	5.998414059e-06 	0.1454366738 	-1.71509751e-05 	0.0002772427223
0.1389802357 	0.1152016981 	-0.04549868305 	6.987130313e-06 	0.145782937 	-1.937071534e-05 	0.0002779027962
0.142164066 	0.1157596233 	-0.04627909426 	8.030002298e-06 	0.146081581 	-2.160068075e-05 	0.0002784720946
0.1453889171 	0.116284674 	-0.04704889517 	9.12558269e-06 	0.1463284459 	-2.383234596e-05 	0.0002789426878
0.1486497487 	0.1167726246 	-0.04780507979 	9.060998442e-06 	0.1465191208 	-2.298613595e-05 	0.0002793061672
0.1519469623 	0.1172194261 	-0.048545828 	8.451563967e-06 	0.1466492333 	-2.083468821e-05 	0.0002795541977
0.1552809637 	0.1176211416 	-0.04926959231 	7.787829249e-06 	0.1467144138 	-1.86617829e-05 	0.0002796784499
0.1586521634 	0.1179739087 	-0.04997459987 	7.070394658e-06 	0.1467102251 	-1.647218923e-05 	0.000279670465
0.1620666825 	0.1182737446 	-0.05066006496 	6.298700816e-06 	0.146631829 	-1.426733643e-05 	0.0002795210203
0.1655254184 	0.1185161963 	-0.05132421528 	5.474175114e-06 	0.1464741701 	-1.205501931e-05 	0.0002792204786
0.1690227476 	0.1186966221 	-0.05196372366 	4.599633068e-06 	0.1462323853 	-9.846860001e-06 	0.0002787595695
0.1725591007 	0.1188104838 	-0.05257618358 	3.676580367e-06 	0.1459015249 	-7.650295818e-06 	0.0002781288577
0.176134913 	0.1188532921 	-0.05315936004 	2.706861242e-06 	0.1454765695 	-5.473445843e-06 	0.0002773187747
0.1797506248 	0.1188204776 	-0.053710971 	1.692729216e-06 	0.1449521839 	-3.325088792e-06 	0.00027631915
0.1834159144 	0.1187071373 	-0.05422939407 	6.343099973e-07 	0.1443224501 	-1.209861379e-06 	0.0002751187022
0.1855771689 	0.118591276 	-0.05451021627 	1.142226954e-05 	0.1438911848 	-6.616320236e-05 	0.0002742965906
0.1871241627 	0.1185079824 	-0.05471147417 	4.64899322e-07 	0.1435822036 	-8.532822663e-07 	0.0002737075866
0.1908737914 	0.1182182499 	-0.05515340767 	1.602762883e-06 	0.1427267877 	-2.852237694e-06 	0.0002720769262
0.1946652623 	0.1178338144 	-0.05555223767 	2.771286995e-06 	0.1417511775 	-4.77868726e-06 	0.0002702171421
0.1984990422 	0.1173497793 	-0.05590466157 	3.96512197e-06 	0.1406500957 	-6.620347593e-06 	0.000268118174
0.2023809985 	0.116760826 	-0.05620788714 	5.179809083e-06 	0.1394175302 	-8.366591671e-06 	0.0002657685617
0.2063115745 	0.1160619024 	-0.05645831401 	6.407020406e-06 	0.1380483252 	-1.000144307e-05 	0.0002631584764
0.2102860148 	0.1152486074 	-0.05665141263 	7.63651822e-06 	0.1365386834 	-1.150825344e-05 	0.0002602806795
0.2143048088 	0.114316476 	-0.05678326517 	8.859167201e-06 	0.1348845459 	-1.287330183e-05 	0.0002571274337
0.2183684513 	0.1132606095 	-0.05684970611 	1.006478597e-05 	0.133081368 	-1.40826709e-05 	0.0002536900755
0.2224824929 	0.1120755956 	-0.05684683878 	1.124368731e-05 	0.1311238932 	-1.512384634e-05 	0.0002499585844
0.2266474495 	0.1107567555 	-0.05677022472 	1.238219452e-05 	0.1290083654 	-1.598079433e-05 	0.0002459258005
0.2308588887 	0.1093005694 	-0.05661477364 	1.346517612e-05 	0.1267330461 	-1.663838804e-05 	0.0002415884096
0.2351173289 	0.1077034579 	-0.05637590116 	1.243656112e-05 	0.1242960481 	-1.467496584e-05 	0.000236942814
0.2394232945 	0.1059615944 	-0.05604896561 	1.115227073e-05 	0.1216951734 	-1.252767538e-05 	0.000231984824
0.2437845959 	0.1040713097 	-0.05562940676 	9.863229323e-06 	0.1189283651 	-1.050669107e-05 	0.0002267105182
0.2481966718 	0.1020302879 	-0.05511255212 	8.583423724e-06 	0.1159962453 	-8.628560629e-06 	0.000221121083
0.2526579903 	0.09983669796 	-0.05449385233 	7.325040384e-06 	0.1129005005 	-6.906966958e-06 	0.000215219733
0.2571691007 	0.09748846285 	-0.05376901917 	6.100414863e-06 	0.1096424294 	-5.353962318e-06 	0.0002090089439
0.2617331245 	0.09498322069 	-0.0529338388 	4.92187787e-06 	0.1062230462 	-3.979774172e-06 	0.0002024906492
0.2663542099 	0.09232002289 	-0.05198448695 	3.803270937e-06 	0.1026454043 	-2.794533658e-06 	0.0001956706693
0.2710268726 	0.08950115108 	-0.05091798087 	2.759748473e-06 	0.09891696022 	-1.807658841e-06 	0.0001885632187
0.275751688 	0.08652979192 	-0.049732063 	1.804207477e-06 	0.09504611413 	-1.024266151e-06 	0.0001811843102
0.28052953 	0.08340866662 	-0.04842466738 	9.487966196e-07 	0.09104053608 	-4.465657313e-07 	0.0001735485652
0.2853683996 	0.08014181048 	-0.04699456879 	2.044418393e-07 	0.08690939829 	-7.376792424e-08 	0.0001656734684
0.2868768159 	0.07909288089 	-0.04651645511 	3.192608028e-05 	0.08560235765 	-7.719821047e-05 	0.0001631818856
0.2902612788 	0.07673833024 	-0.04544285175 	4.214299035e-07 	0.08266812825 	-9.542437539e-08 	0.0001575884289
0.2952087702 	0.07320963793 	-0.04377170834 	9.178231837e-07 	0.07833421678 	-7.187760312e-08 	0.000149326789
0.3002114828 	0.06956732334 	-0.04198414723 	1.278250458e-06 	0.07392472823 	1.292800504e-07 	0.0001409210783
0.3052771643 	0.06582527607 	-0.04008491293 	1.501809934e-06 	0.06945885787 	4.89201647e-07 	0.0001324078882
0.3103995605 	0.06200386116 	-0.03808234117 	1.590625585e-06 	0.06496264651 	9.828827368e-07 	0.0001238368597
0.3155791317 	0.05812651884 	-0.03598696104 	1.552965106e-06 	0.06046454474 	1.579842328e-06 	0.0001152622275
0.320817158 	0.05421801694 	-0.03381103265 	1.402110937e-06 	0.05599310797 	2.24493891e-06 	0.0001067384263
0.3261196354 	0.05030667231 	-0.03156971565 	1.156593599e-06 	0.05157957637 	2.938594173e-06 	9.832500837e-05
0.3314812991 	0.04642710381 	-0.02928268284 	8.405981629e-07 	0.04726071007 	3.6169189e-06 	9.009204884e-05
0.336902809 	0.04261608342 	-0.02697214103 	4.836625242e-07 	0.04307385218 	4.235924047e-06 	8.211073402e-05
0.3423871157 	0.03891099426 	-0.02466237879 	1.189021257e-07 	0.03905510804 	4.753891005e-06 	7.444989073e-05
0.3479363295 	0.03535116697 	-0.02238060416 	-2.187353654e-07 	0.0352409819 	5.133534335e-06 	6.717910623e-05
0.3535474839 	0.03197666122 	-0.02015632232 	-4.953003805e-07 	0.03166711207 	5.347382933e-06 	6.036631703e-05
0.3592212696 	0.02882344876 	-0.0180184878 	-6.819724758e-07 	0.02836328532 	5.382419046e-06 	5.406830498e-05
0.3649627704 	0.02592147688 	-0.01599415116 	-6.684166539e-07 	0.02535193762 	4.616933747e-06 	4.832783931e-05
0.370769322 	0.02329440549 	-0.01410777206 	-5.550535262e-07 	0.02264851358 	3.821003737e-06 	4.317436171e-05
0.3766406864 	0.02095572768 	-0.0123779808 	-3.847371608e-07 	0.02025814778 	3.071648339e-06 	3.861766013e-05
0.3825794668 	0.01890715123 	-0.01081574371 	-1.940912321e-07 	0.01817459615 	2.404785308e-06 	3.464583162e-05
0.3885874109 	0.01713999415 	-0.009424345434 	-1.334344248e-08 	0.01638243794 	1.842370558e-06 	3.122947998e-05
0.3946624157 	0.01563676569 	-0.008199718332 	1.364348117e-07 	0.01485909359 	1.391052444e-06 	2.832556225e-05
0.4008056513 	0.01437279286 	-0.007131144339 	2.439692093e-07 	0.01357651622 	1.044664978e-06 	2.58806133e-05
0.4070212331 	0.01331969436 	-0.006203609661 	3.064798859e-07 	0.01250469285 	7.887343622e-07 	2.383742008e-05
0.4133061932 	0.01244872767 	-0.005400575059 	3.274004861e-07 	0.01161475152 	6.043843838e-07 	2.214094455e-05
0.4196613049 	0.01173226105 	-0.004705691987 	3.13813243e-07 	0.01088040757 	4.746337442e-07 	2.074108088e-05
0.4260907495 	0.01114523511 	-0.004104230327 	2.767583306e-07 	0.01027867984 	3.776621013e-07 	1.959402059e-05
0.4325922399 	0.01066573836 	-0.003578962726 	2.439877111e-07 	0.00978794319 	2.994616073e-07 	1.865854014e-05
0.4391662983 	0.01027188866 	-0.003127479955 	1.749302751e-07 	0.009367446147 	1.88470376e-07 	1.78569559e-05
0.4458164752 	0.009948241283 	-0.002749333961 	1.180112529e-07 	0.008983878691 	1.062976788e-07 	1.712576972e-05
0.4525413396 	0.009689600667 	-0.002416207973 	9.171063443e-08 	0.008649339447 	7.69849577e-08 	1.648804495e-05
0.4593412644 	0.009490831667 	-0.002109510162 	5.785808279e-08 	0.008377455255 	5.09585664e-08 	1.596975811e-05
0.4662195511 	0.009344472361 	-0.001828815569 	2.35645751e-08 	0.008162224775 	2.233121997e-08 	1.555946899e-05
0.471104341 	0.009274077282 	-0.001647246415 	3.670258334e-06 	0.008045737752 	-3.674153656e-06 	1.533741235e-05
0.4731749089 	0.009244247149 	-0.001570283989 	1.003788926e-08 	0.007996337807 	1.048938351e-08 	1.524324233e-05
0.4802079543 	0.009185284885 	-0.001330310078 	4.267642817e-08 	0.007873956245 	4.763468679e-08 	1.500994906e-05
0.4873218078 	0.009163013025 	-0.001106196518 	7.434536654e-08 	0.007789924622 	8.778872211e-08 	1.484976143e-05
0.4945150618 	0.009173090135 	-0.0008960896027 	1.053556807e-07 	0.00773925666 	1.302317296e-07 	1.475317421e-05
0.5017088021 	0.009211141319 	-0.0006992805724 	1.35639496e-07 	0.00771745634 	1.74120075e-07 	1.471161674e-05
0.5088246559 	0.009272566546 	-0.0005150743247 	1.648013163e-07 	0.007720130998 	2.185900203e-07 	1.471671538e-05
0.5158619961 	0.009353292619 	-0.0003417294722 	1.929614395e-07 	0.007743251753 	2.628987525e-07 	1.476078997e-05
0.5228223256 	0.009450014787 	-0.0001770846572 	2.204832716e-07 	0.007783259423 	3.068984099e-07 	1.483705571e-05
0.5297067628 	0.009560061255 	-1.925120138e-05 	2.473534096e-07 	0.007837484018 	3.504049205e-07 	1.494042285e-05
0.5365152377 	0.009681178031 	0.0001331625394 	2.734018986e-07 	0.007903867341 	3.930508559e-07 	1.506696792e-05
0.5432491873 	0.009811420017 	0.0002812620861 	2.985216424e-07 	0.007980599574 	4.34803233e-07 	1.521324088e-05
0.5499094439 	0.009949131622 	0.0004259171882 	3.225309624e-07 	0.008066273708 	4.754198673e-07 	1.537655959e-05
0.55649621 	0.01009290417 	0.0005678173989 	3.453907102e-07 	0.008159783932 	5.147965765e-07 	1.555481607e-05
0.5630107473 	0.01024154798 	0.0007075618236 	3.670737075e-07 	0.008260169527 	5.528776938e-07 	1.574617891e-05
0.5694538871 	0.01039407698 	0.0008456256311 	3.874746589e-07 	0.008366648635 	5.894840541e-07 	1.594915769e-05
0.5758259306 	0.01054969666 	0.0009823759652 	4.06611327e-07 	0.008478636784 	6.245771625e-07 	1.616263823e-05
0.5821279228 	0.01070777934 	0.001118149678 	4.245191701e-07 	0.008595620254 	6.581772173e-07 	1.638564123e-05
0.5883608325 	0.01086784131 	0.001253214745 	4.411637093e-07 	0.008717190049 	6.901896459e-07 	1.661738705e-05
0.5945249646 	0.01102952034 	0.001387767716 	4.566136812e-07 	0.008843068551 	7.206274289e-07 	1.685734646e-05
0.6006211498 	0.0111925562 	0.001522005712 	4.709666972e-07 	0.008973019399 	7.49570959e-07 	1.71050689e-05
0.606650536 	0.01135677091 	0.001656098905 	4.842571008e-07 	0.009106858504 	7.770056607e-07 	1.736020343e-05
0.6126133893 	0.01152204571 	0.001790164898 	4.965696797e-07 	0.009244469915 	8.029603109e-07 	1.762252903e-05
0.6185104433 	0.01168832024 	0.001924322883 	5.080343725e-07 	0.009385785285 	8.275432579e-07 	1.78919154e-05
0.6243427419 	0.01185557889 	0.002058702615 	5.187355656e-07 	0.009530744124 	8.508310148e-07 	1.816824723e-05
0.6301107689 	0.01202383379 	0.002193394201 	5.287243818e-07 	0.009679313704 	8.728406656e-07 	1.845146215e-05
0.6358151458 	0.01219312937 	0.0023284705 	5.381196215e-07 	0.009831518355 	8.936927052e-07 	1.874160651e-05
0.6414566659 	0.01236353512 	0.002464035375 	5.470032905e-07 	0.009987369703 	9.135190277e-07 	1.90387025e-05
0.647036138 	0.0125351368 	0.002600169772 	5.553814533e-07 	0.0101468956 	9.323512248e-07 	1.93428032e-05
0.65255404 	0.01270803052 	0.002736921717 	5.632950612e-07 	0.01031015066 	9.50282766e-07 	1.965401271e-05
0.6580110512 	0.0128823267 	0.002874349145 	5.707726116e-07 	0.01047720608 	9.674356266e-07 	1.997246678e-05
0.6634079914 	0.01305814426 	0.003012517103 	5.777843887e-07 	0.01064812761 	9.838987499e-07 	2.029829073e-05
0.6687454422 	0.01323560011 	0.003151452568 	5.842412935e-07 	0.01082298391 	9.996827825e-07 	2.063161543e-05
0.6740239929 	0.01341481156 	0.003291153425 	5.900856497e-07 	0.01100186773 	1.014866053e-06 	2.097261769e-05
0.6792442933 	0.01359589687 	0.003431625992 	5.952165224e-07 	0.01118486782 	1.029516996e-06 	2.132146675e-05
0.6844071263 	0.01377896892 	0.003572857417 	5.994678128e-07 	0.01137206518 	1.043638115e-06 	2.167831693e-05
0.6895129981 	0.01396412703 	0.003714784961 	6.026411462e-07 	0.0115635358 	1.0571894e-06 	2.204331315e-05
0.6945625248 	0.01415146085 	0.003857313501 	6.045482643e-07 	0.0117593634 	1.070170681e-06 	2.241661498e-05
0.6995563279 	0.01434105041 	0.004000338201 	6.049540529e-07 	0.01195961979 	1.082559448e-06 	2.279835933e-05
0.7044951269 	0.0145329596 	0.004143715996 	6.035572076e-07 	0.01216435692 	1.094262042e-06 	2.31886452e-05
0.7093794255 	0.01472723045 	0.004287240185 	6.000262865e-07 	0.0123736124 	1.105155141e-06 	2.35875443e-05
0.7142098238 	0.01492388622 	0.004430657956 	5.940170802e-07 	0.01258741192 	1.115141185e-06 	2.399510561e-05
0.7189869164 	0.015122932 	0.004573680221 	5.851279996e-07 	0.01280576208 	1.124095599e-06 	2.441134171e-05
0.7237113541 	0.01532435009 	0.004715962685 	5.72885894e-07 	0.01302863648 	1.131843511e-06 	2.483620225e-05
0.7283836644 	0.01552809648 	0.004857078106 	5.567720763e-07 	0.01325598298 	1.138157543e-06 	2.526958786e-05
0.7330044134 	0.01573409729 	0.004996520112 	5.362368536e-07 	0.01348764915 	1.142637788e-06 	2.571120798e-05
0.7375741699 	0.01594225572 	0.00513370244 	5.106922118e-07 	0.0137234366 	1.145282321e-06 	2.616068439e-05
0.7420935234 	0.01615251645 	0.005268182466 	4.80091032e-07 	0.01396358906 	1.146972404e-06 	2.661848172e-05
0.7465630238 	0.01636588427 	0.005408294592 	4.649308227e-07 	0.01421028119 	1.151220571e-06 	2.70887455e-05
0.7509832008 	0.01657704742 	0.005546771301 	4.097317543e-07 	0.01446847124 	1.153557201e-06 	2.758092749e-05
0.7553545986 	0.01677922024 	0.005661454868 	3.463421509e-07 	0.0147419638 	1.145490629e-06 	2.810228033e-05
0.7596777566 	0.01698043787 	0.005762557543 	3.327632273e-07 	0.01502911119 	1.12824793e-06 	2.864966306e-05
0.7639532349 	0.01719194165 	0.005866015862 	3.207902615e-07 	0.01532430743 	1.111860979e-06 	2.921238914e-05
0.7681815307 	0.01741689243 	0.005970859619 	3.126927012e-07 	0.01562281012 	1.104391982e-06 	2.978141823e-05
0.7723631646 	0.01765499559 	0.006076867701 	3.079173088e-07 	0.01592312328 	1.104278215e-06 	3.035389857e-05
0.7764986516 	0.01790453528 	0.006184246088 	3.052512681e-07 	0.01622597169 	1.107732756e-06 	3.093121183e-05
0.7805885059 	0.01816367601 	0.006293320676 	3.036856268e-07 	0.01653286187 	1.111774754e-06 	3.15162298e-05
0.7846332395 	0.01843108026 	0.006404370586 	3.026697969e-07 	0.01684514853 	1.115172542e-06 	3.211153497e-05
0.7886333369 	0.01870603059 	0.00651758396 	3.020101314e-07 	0.01716372456 	1.117941413e-06 	3.271882942e-05
0.7925892905 	0.01898826901 	0.006633057873 	3.016930205e-07 	0.01748899834 	1.120576634e-06 	3.333889165e-05
0.7965015875 	0.01927776527 	0.006750820473 	3.017490469e-07 	0.01782102846 	1.123523414e-06 	3.397183334e-05
0.8003707124 	0.01957452426 	0.006870851582 	3.021890884e-07 	0.01815966406 	1.126986633e-06 	3.461736692e-05
0.8041971471 	0.01987847728 	0.006993096843 	3.02984221e-07 	0.01850464525 	1.130934146e-06 	3.527499696e-05
0.8079813545 	0.02018944348 	0.007117476562 	3.040858642e-07 	0.01885566311 	1.135239559e-06 	3.594413455e-05
0.8117238006 	0.02050712915 	0.007243887553 	3.054390094e-07 	0.01921236969 	1.139767746e-06 	3.662411643e-05
0.8154249461 	0.02083114686 	0.007372204425 	3.069894812e-07 	0.01957437774 	1.144409809e-06 	3.731420439e-05
0.819085247 	0.02116103526 	0.007502280731 	3.086891656e-07 	0.0199412572 	1.149092805e-06 	3.801357862e-05
0.8227051594 	0.02149627457 	0.007633949752 	3.104950359e-07 	0.02031252843 	1.153762361e-06 	3.872132477e-05
0.8262851241 	0.0218363002 	0.007767027954 	3.123715467e-07 	0.02068767111 	1.158380893e-06 	3.943645098e-05
0.8298255813 	0.02218051301 	0.007901319243 	3.142967973e-07 	0.02106613701 	1.162944042e-06 	4.015791217e-05
0.8333269671 	0.02252828985 	0.008036618663 	3.162577134e-07 	0.02144735761 	1.16746133e-06 	4.088462459e-05
0.8367897125 	0.02287899736 	0.008172717987 	3.182491892e-07 	0.02183076227 	1.171953886e-06 	4.161550044e-05
0.8402142449 	0.02323200432 	0.008309409907 	3.202734819e-07 	0.02221578758 	1.176454096e-06 	4.234946568e-05
0.8436009875 	0.023586695 	0.008446492009 	3.223350684e-07 	0.02260188569 	1.180989715e-06 	4.3085476e-05
0.8469503549 	0.02394248124 	0.008583771352 	3.244466939e-07 	0.02298853902 	1.185607848e-06 	4.382254471e-05
0.8502627596 	0.02429881101 	0.008721067327 	3.266272758e-07 	0.02337526604 	1.190369038e-06 	4.45597539e-05
0.8535386095 	0.02465517614 	0.008858213899 	3.28898703e-07 	0.02376162521 	1.195338246e-06 	4.529626185e-05
0.856778308 	0.02501111821 	0.008995061812 	3.31284122e-07 	0.02414722208 	1.200580399e-06 	4.603131665e-05
0.8599822544 	0.02536623103 	0.009131479224 	3.338067015e-07 	0.02453170913 	1.206158109e-06 	4.676425584e-05