0.4690770581 	9.663202023e-07 	-3.473784706e-09 	7.093996922e-14 	9.646424214e-07 	-5.951423279e-12 	1.838876564e-09
0.4690770581 	9.663202023e-07 	-3.473784706e-09 	7.093996922e-14 	9.646424214e-07 	-5.951423279e-12 	1.838876564e-09
0.4692488673 	1.074495366e-05 	-1.493027671e-07 	2.983523374e-12 	1.073160328e-05 	-6.918614576e-11 	2.045741854e-08
0.4694206768 	5.933439958e-05 	-1.917429644e-06 	3.713612516e-11 	5.931721167e-05 	-3.977693422e-10 	1.130750918e-07
0.4695924867 	0.0001962650616 	-1.179082733e-05 	2.173042747e-10 	0.0001965230785 	-1.321397795e-09 	3.746276083e-07
0.4697642971 	0.0004816335331 	-4.688900371e-05 	8.074511073e-10 	0.0004834702375 	-3.160666428e-09 	9.216286463e-07
0.4699361078 	0.0009760006455 	-0.0001390667739 	2.190752495e-09 	0.0009832837666 	-6.045919636e-09 	1.874412149e-06
0.4701079188 	0.00172866353 	-0.0003321719683 	4.670424886e-09 	0.001750201525 	-9.716221296e-09 	3.33637055e-06
0.4702797302 	0.002761706737 	-0.0006683499115 	8.161508036e-09 	0.00281355322 	-1.3385823e-08 	5.363414424e-06
0.470451542 	0.004055994513 	-0.001167074714 	1.203615942e-08 	0.00416140364 	-1.587673019e-08 	7.93279194e-06
0.4706233541 	0.005550331383 	-0.001810843296 	1.536061449e-08 	0.005735086897 	-1.608078372e-08 	1.093266961e-05
0.4707951664 	0.007158701316 	-0.002554576042 	1.746044373e-08 	0.00744474728 	-1.347818805e-08 	1.419175748e-05
0.4709669791 	0.008790773412 	-0.003266037417 	1.726968646e-08 	0.009172493401 	-8.787608553e-09 	1.748532179e-05
0.471138792 	0.01039223114 	-0.003882585234 	1.665504524e-08 	0.01084932625 	-3.535316058e-09 	2.068183125e-05
0.4713106052 	0.01194381204 	-0.00446224715 	1.700480606e-08 	0.01246913407 	2.151420412e-09 	2.376963514e-05
0.4714824187 	0.01342806864 	-0.005016726523 	1.693175719e-08 	0.01401820601 	8.759433687e-09 	2.672259681e-05
0.4716542324 	0.01483204946 	-0.005541222609 	1.651569385e-08 	0.01548360316 	1.601757595e-08 	2.951605106e-05
0.4718260463 	0.01614884185 	-0.006033150546 	1.58432327e-08 	0.01685804713 	2.366667868e-08 	3.213612328e-05
0.4719978604 	0.01737615514 	-0.006491653425 	1.500075389e-08 	0.01813907253 	3.145507807e-08 	3.457811373e-05
0.4721696746 	0.01851496041 	-0.00691710499 	1.406488743e-08 	0.01932770473 	3.917189991e-08 	3.684397707e-05
0.4723414891 	0.01956837855 	-0.007310699474 	1.309664521e-08 	0.02042721613 	4.664992402e-08 	3.89399514e-05
0.4725133037 	0.02054084159 	-0.007674155772 	1.213701879e-08 	0.02144224229 	5.377100782e-08 	4.087487337e-05
0.4726851185 	0.02143748644 	-0.008009515773 	1.12050228e-08 	0.02237815417 	6.045526941e-08 	4.265898153e-05
0.4728569334 	0.02226373517 	-0.008319014282 	1.029688714e-08 	0.02324062286 	6.665537743e-08 	4.430308656e-05
0.4730287484 	0.02302503036 	-0.008604773755 	9.39755759e-09 	0.02403533471 	7.235360159e-08 	4.581802824e-05
0.4732005635 	0.02372672613 	-0.008867228631 	8.770745903e-09 	0.02476780821 	7.753781594e-08 	4.721432631e-05
0.4733723787 	0.02437393146 	-0.009108191229 	8.450016326e-09 	0.02544337159 	8.224142104e-08 	4.850213788e-05
0.473544194 	0.02497135705 	-0.009330805822 	8.193874282e-09 	0.02606700298 	8.652333618e-08 	4.969095263e-05
0.4737160093 	0.02552331939 	-0.009536610097 	8.002614935e-09 	0.02664320605 	9.041596745e-08 	5.078935583e-05
0.4738878247 	0.02603376786 	-0.009727029713 	7.873722671e-09 	0.02717611967 	9.395586e-08 	5.18052373e-05
0.4740596401 	0.0265063036 	-0.009903373559 	7.802485912e-09 	0.02766947916 	9.718097859e-08 	5.274571761e-05
0.4742314555 	0.02700253145 	-0.01008861547 	7.777379691e-09 	0.02818753576 	1.003769604e-07 	5.373327749e-05
0.4744984171 	0.02756570537 	-0.01029890916 	7.84872758e-09 	0.02877550992 	1.041779881e-07 	5.485411964e-05
0.4747703961 	0.02812663031 	-0.01050842349 	8.01909614e-09 	0.02936125234 	1.077099278e-07 	5.59707075e-05
0.4750474869 	0.02863541127 	-0.01069850453 	8.284061224e-09 	0.02989260213 	1.107817306e-07 	5.698360789e-05
0.4753297854 	0.02909697232 	-0.01087097389 	8.636342046e-09 	0.03037465205 	1.134323038e-07 	5.7902529e-05
0.4756173894 	0.02951574028 	-0.01102747757 	9.072514452e-09 	0.03081204821 	1.156861774e-07 	5.873632765e-05
0.4759103986 	0.02989566225 	-0.01116948438 	9.592303919e-09 	0.03120891461 	1.175527006e-07 	5.949286531e-05
0.4762089144 	0.03024030158 	-0.01129832151 	1.019268705e-08 	0.03156896819 	1.190544346e-07 	6.017922751e-05
0.4765130403 	0.03055290839 	-0.01141520049 	1.086509817e-08 	0.0318955999 	1.202351021e-07 	6.080187834e-05
0.4768228817 	0.03083636981 	-0.0115211979 	1.160399353e-08 	0.03219181934 	1.211115335e-07 	6.136655492e-05
0.4771385457 	0.03109321097 	-0.01161725561 	1.240759827e-08 	0.03246025834 	1.216908256e-07 	6.187827425e-05
0.4774601418 	0.03132566931 	-0.01170420839 	1.327279866e-08 	0.03270325025 	1.22001924e-07 	6.234148437e-05
0.4777877812 	0.03153573972 	-0.01178280049 	1.419615238e-08 	0.03292287345 	1.220667672e-07 	6.276014723e-05
0.4781215775 	0.03172520105 	-0.01185369542 	1.517348065e-08 	0.03312097951 	1.219022319e-07 	6.313779245e-05
0.4784616462 	0.0318956399 	-0.01191748498 	1.619868919e-08 	0.03329921953 	1.215331895e-07 	6.347756746e-05
0.4788081049 	0.03204847163 	-0.01197469699 	1.72641973e-08 	0.03345906579 	1.209875756e-07 	6.378227886e-05
0.4791610737 	0.03218495896 	-0.01202580209 	1.836092096e-08 	0.03360182813 	1.202976458e-07 	6.405442356e-05
0.4795206747 	0.03230622928 	-0.01207122081 	1.947904269e-08 	0.03372868179 	1.194935044e-07 	6.429624189e-05
0.4798870323 	0.03241333864 	-0.01211134704 	2.060445396e-08 	0.03384072602 	1.186144361e-07 	6.450982933e-05
0.4802610131 	0.03250723796 	-0.01214653479 	2.172729009e-08 	0.03393894084 	1.177094655e-07 	6.469705408e-05
0.4806425564 	0.0325886679 	-0.01217705998 	2.283960322e-08 	0.03402409614 	1.168042857e-07 	6.485938374e-05
0.4810312696 	0.0326582538 	-0.01220315551 	2.393302784e-08 	0.03409684186 	1.159103962e-07 	6.499805731e-05
0.4814272873 	0.032716613 	-0.0122250512 	2.499803395e-08 	0.03415781618 	1.150561226e-07 	6.511429132e-05
0.4818307469 	0.03276432448 	-0.0122429627 	2.602304571e-08 	0.03420761985 	1.142760727e-07 	6.520923095e-05
0.4822417881 	0.03280190529 	-0.01225708252 	2.699707322e-08 	0.03424678836 	1.136014412e-07 	6.528389701e-05
0.4826605535 	0.03282981721 	-0.01226758259 	2.79096802e-08 	0.03427580004 	1.130613226e-07 	6.533920135e-05
0.483087188 	0.03284847248 	-0.01227461638 	2.875103019e-08 	0.03429508186 	1.126827698e-07 	6.537595785e-05
0.4835218397 	0.03285823901 	-0.0122783208 	2.951192413e-08 	0.03430501474 	1.124907305e-07 	6.539489268e-05
0.4839646591 	0.03285944489 	-0.01227881797 	3.018381209e-08 	0.03430593838 	1.125080596e-07 	6.53966534e-05
0.4844157997 	0.03285238244 	-0.01227621666 	3.075878522e-08 	0.03429815541 	1.127555833e-07 	6.538181689e-05
0.4848754178 	0.0328373118 	-0.01227061366 	3.122955639e-08 	0.03428193508 	1.132521798e-07 	6.535089643e-05
0.4853436727 	0.03281446401 	-0.01226209491 	3.158943762e-08 	0.03425751655 	1.140148568e-07 	6.530434792e-05
0.4858207267 	0.0327840438 	-0.01225073654 	3.183232301e-08 	0.0342251117 	1.15058803e-07 	6.524257527e-05
0.486306745 	0.03274623199 	-0.01223660579 	3.195268609e-08 	0.03418490764 	1.163973879e-07 	6.516593517e-05
0.4868018963 	0.03270118758 	-0.01221976176 	3.194560017e-08 	0.03413706889 	1.180420858e-07 	6.507474122e-05
0.4873063519 	0.03264904964 	-0.0122002561 	3.180678868e-08 	0.03408173923 	1.200023085e-07 	6.496926751e-05
0.4878202868 	0.03258993879 	-0.0121781336 	3.15327099e-08 	0.03401904333 	1.222851419e-07 	6.48497517e-05
0.4883438791 	0.03252395864 	-0.01215343267 	3.112067636e-08 	0.03394908821 	1.248949916e-07 	6.471639778e-05
0.4888773101 	0.0324511969 	-0.01212618583 	3.056898612e-08 	0.03387196455 	1.278333287e-07 	6.456937866e-05
0.4894207647 	0.03237172618 	-0.01209641978 	2.987695032e-08 	0.03378774524 	1.310995072e-07 	6.440883325e-05
0.4899744314 	0.03228560492 	-0.01206415607 	2.904504441e-08 	0.03369648988 	1.346900343e-07 	6.423487517e-05
0.4905385018 	0.03219285852 	-0.01202940456 	2.807722959e-08 	0.03359823425 	1.385879701e-07 	6.404757263e-05
0.4911136478 	0.03209343395 	-0.01199214419 	2.69883391e-08 	0.03349290626 	1.427565511e-07 	6.38467882e-05
0.4917009343 	0.03198729575 	-0.01195236145 	2.57931259e-08 	0.03338046962 	1.471721803e-07 	6.363245271e-05
0.4922992556 	0.03187451848 	-0.01191008462 	2.447215765e-08 	0.0332610123 	1.5186033e-07 	6.340473386e-05
0.4929088189 	0.03175515495 	-0.01186533276 	2.301203144e-08 	0.03313458047 	1.568569096e-07 	6.316371965e-05
0.4935298355 	0.03162919012 	-0.01181810038 	2.138645825e-08 	0.03300116328 	1.622358928e-07 	6.290938941e-05
0.4941625205 	0.03149660039 	-0.01176837838 	1.957272204e-08 	0.03286073447 	1.680534255e-07 	6.264169307e-05
0.4948070931 	0.03135735656 	-0.01171615569 	1.757850649e-08 	0.03271326372 	1.742812934e-07 	6.236057283e-05
0.4954637767 	0.03121142138 	-0.01166141826 	1.541646993e-08 	0.03255871237 	1.808786671e-07 	6.206595501e-05
0.4961327987 	0.03105874807 	-0.01160414849 	1.308635617e-08 	0.03239703204 	1.878425229e-07 	6.175774736e-05
0.4968143909 	0.03089928084 	-0.01154432545 	1.058206079e-08 	0.03222816498 	1.951877765e-07 	6.143583981e-05
0.4975087895 	0.03073295524 	-0.01148192495 	7.894092243e-09 	0.03205204444 	2.029392339e-07 	6.110010511e-05
0.498216235 	0.03055969857 	-0.01141691972 	5.011286983e-09 	0.03186859515 	2.111257063e-07 	6.075039978e-05
0.4989369726 	0.03037942991 	-0.01134927947 	1.921868369e-09 	0.03167773386 	2.197770261e-07 	6.038656512e-05
0.4996712519 	0.0301920597 	-0.01127897062 	-1.385979656e-09 	0.0314793672 	2.289232372e-07 	6.000842313e-05
0.5004193273 	0.02999748833 	-0.01120595566 	-4.923569792e-09 	0.03127338827 	2.385917427e-07 	5.961577003e-05
0.501181458 	0.02979558219 	-0.01113018612 	-8.698573783e-09 	0.03105968059 	2.487987518e-07 	5.92083838e-05
0.5019582576 	0.02958605901 	-0.01105155706 	-1.270495417e-08 	0.03083795811 	2.595747805e-07 	5.878571913e-05
0.5027515405 	0.02936864505 	-0.01096996478 	-1.694263871e-08 	0.03060791467 	2.710751194e-07 	5.834719239e-05
0.5035597266 	0.02911404382 	-0.01087441076 	-2.202858222e-08 	0.03033850206 	2.844365246e-07 	5.783361708e-05
0.5048004038 	0.02879032895 	-0.01075291642 	-2.874722014e-08 	0.029996008 	3.028837838e-07 	5.71807282e-05
0.5060549104 	0.02842501699 	-0.01061581543 	-3.6500963e-08 	0.02960965674 	3.229755078e-07 	5.644423533e-05
0.5073234007 	0.02804759073 	-0.01047416977 	-4.473177304e-08 	0.02921058755 	3.438318464e-07 	5.568349853e-05
0.5086060307 	0.02765814782 	-0.01032801588 	-5.346542139e-08 	0.02879888184 	3.657183698e-07 	5.489867302e-05
0.509902958 	0.02725673276 	-0.01017737383 	-6.271283274e-08 	0.02837461797 	3.887028821e-07 	5.408990817e-05
0.5112143421 	0.02684334625 	-0.01002224833 	-7.248219195e-08 	0.02793784289 	4.128119493e-07 	5.325729347e-05
0.5125403441 	0.02641769618 	-0.009862530971 	-8.274388012e-08 	0.02748824486 	4.379409717e-07 	5.240023466e-05
0.5138842543 	0.0259794071 	-0.009698083096 	-9.344945067e-08 	0.02702544227 	4.640047634e-07 	5.15180043e-05
0.5152434821 	0.02552857863 	-0.009528945782 	-1.046625812e-07 	0.02654957953 	4.911960734e-07 	5.061087765e-05
0.5166178584 	0.02506532836 	-0.009355164665 	-1.16439249e-07 	0.02606078664 	5.195791877e-07 	4.967910256e-05
0.5180075522 	0.02458945773 	-0.009176668058 	-1.288186087e-07 	0.02555888412 	5.492880179e-07 	4.872233686e-05
0.5194127343 	0.02410063553 	-0.008993333401 	-1.418845778e-07 	0.02504353702 	5.807705779e-07 	4.773994205e-05
0.5208335775 	0.02359838223 	-0.008804983857 	-1.557172752e-07 	0.0245142703 	6.141906065e-07 	4.673101258e-05
0.5222702564 	0.02308196295 	-0.008611349417 	-1.703981134e-07 	0.02397036877 	6.496877076e-07 	4.569418509e-05
0.5237235394 	0.02255011533 	-0.00841196196 	-1.859924245e-07 	0.02341053856 	6.875161728e-07 	4.462699311e-05
0.525195862 	0.02200136239 	-0.008206277623 	-2.025598176e-07 	0.02283330126 	7.27901459e-07 	4.352661838e-05
0.5266845913 	0.02143453677 	-0.007993873561 	-2.201269054e-07 	0.02223753417 	7.709054216e-07 	4.239092074e-05
0.5281899102 	0.02084893232 	-0.007774501681 	-2.381430364e-07 	0.02162257936 	8.149582919e-07 	4.121864595e-05
0.5297120038 	0.02024563415 	-0.007548586204 	-2.553637159e-07 	0.02098964782 	8.565320964e-07 	4.001210251e-05
0.5312510593 	0.01962814486 	-0.007317451261 	-2.707591591e-07 	0.02034240938 	8.925972768e-07 	3.877828616e-05
0.5328072659 	0.0190009092 	-0.00708276757 	-2.821651987e-07 	0.01968547337 	9.160875159e-07 	3.752598354e-05
0.5343811168 	0.01836827897 	-0.006846155604 	-2.840005892e-07 	0.01902322123 	9.091702193e-07 	3.626354689e-05
0.5359755695 	0.01773531852 	-0.006609483262 	-2.824315278e-07 	0.01836064947 	8.919007711e-07 	3.500050097e-05
0.5375877878 	0.01710881488 	-0.006375237301 	-2.775330918e-07 	0.01770437646 	8.640187479e-07 	3.374946222e-05
0.5392179698 	0.01649690854 	-0.006146380273 	-2.694999385e-07 	0.01706219718 	8.255971522e-07 	3.252529001e-05
0.5408663162 	0.01590871462 	-0.005926222327 	-2.587410216e-07 	0.01644282724 	7.77508568e-07 	3.134459877e-05
0.5425330294 	0.01535341539 	-0.005718143582 	-2.459786657e-07 	0.01585563455 	7.217406593e-07 	3.02252463e-05
0.5442183146 	0.01483747245 	-0.005524504796 	-2.322520724e-07 	0.01530686291 	6.622761664e-07 	2.917913503e-05
0.5459241813 	0.0143617725 	-0.005345746826 	-2.187469162e-07 	0.0147984155 	6.042982558e-07 	2.820989295e-05
0.5476505163 	0.01391450609 	-0.005125749094 	-2.174496197e-07 	0.01431198354 	5.574818234e-07 	2.728261844e-05
0.5493960848 	0.01348524359 	-0.00486561697 	-2.028989544e-07 	0.01383923526 	5.171807637e-07 	2.638142882e-05
0.5511611015 	0.01307372424 	-0.004627678347 	-1.742519296e-07 	0.01338945509 	4.781661643e-07 	2.552402281e-05
0.5529457835 	0.01267868566 	-0.004404724163 	-1.558862407e-07 	0.01295928465 	4.425408262e-07 	2.47039984e-05
0.5547503504 	0.01229929269 	-0.004183882409 	-1.377504122e-07 	0.0125458652 	4.070749878e-07 	2.391590601e-05
0.5565765385 	0.01193559259 	-0.003964847745 	-1.200246933e-07 	0.01214849826 	3.722100717e-07 	2.315841418e-05
0.5584246957 	0.01158789345 	-0.003747725128 	-1.030550236e-07 	0.01176754601 	3.378764956e-07 	2.243221332e-05
0.5602934424 	0.01125665192 	-0.003532723859 	-8.71592804e-08 	0.01140372866 	3.04359437e-07 	2.173867632e-05
0.5621830086 	0.01094220457 	-0.003320006127 	-7.246740342e-08 	0.01105751946 	2.71711088e-07 	2.107870537e-05
0.5640936267 	0.01064479243 	-0.003109706113 	-5.896799071e-08 	0.01072931015 	2.399102319e-07 	2.04530472e-05
0.5660255319 	0.01036454261 	-0.002901914283 	-4.654750745e-08 	0.01041933995 	2.08845233e-07 	1.986215785e-05
0.5679814071 	0.01010155431 	-0.002696724124 	-3.503327401e-08 	0.01012782105 	1.784024623e-07 	1.930644181e-05
0.5699596162 	0.00985607034 	-0.002494377325 	-2.431396747e-08 	0.009855115558 	1.486330252e-07 	1.878658934e-05
0.5719598632 	0.009628297727 	-0.002295149234 	-1.428297687e-08 	0.009601497523 	1.195485567e-07 	1.830312288e-05
0.5739823943 	0.009418317964 	-0.002099255964 	-4.806387695e-09 	0.009367094991 	9.114055045e-08 	1.78562865e-05
0.5760274583 	0.009226130269 	-0.001906872572 	4.254742805e-09 	0.009151887693 	6.335009727e-08 	1.744604158e-05
0.5780967341 	0.009051697675 	-0.001718146204 	1.30407287e-08 	0.008955773436 	3.609769084e-08 	1.70721933e-05
0.5801904633 	0.008895059481 	-0.001533322199 	2.170506446e-08 	0.008778708767 	9.34493057e-09 	1.673465883e-05
0.5823075169 	0.008756372858 	-0.001352700312 	3.018479721e-08 	0.00862075061 	-1.703569567e-08 	1.643354668e-05
0.5844481555 	0.008635923957 	-0.001176217734 	3.816150415e-08 	0.008482140068 	-4.304996338e-08 	1.616931646e-05
0.5866126428 	0.008533799958 	-0.001003563654 	4.569560757e-08 	0.008362962496 	-6.813708275e-08 	1.594213088e-05
0.5888025789 	0.008449466478 	-0.0008347047248 	5.308168443e-08 	0.008262644236 	-9.157972173e-08 	1.57508964e-05
0.5910182321 	0.008381970889 	-0.0006697760061 	6.028913561e-08 	0.008180134817 	-1.131030051e-07 	1.559361051e-05
0.5932585681 	0.008330276453 	-0.0005088154881 	6.71954331e-08 	0.00811425953 	-1.327305526e-07 	1.546803391e-05
0.5955238631 	0.0082933338 	-0.0003517623195 	7.377030908e-08 	0.008063847044 	-1.505251251e-07 	1.53719337e-05
0.5978143961 	0.008270096658 	-0.0001984822969 	8.001191514e-08 	0.008027720184 	-1.665879147e-07 	1.530306586e-05
0.6001323685 	0.008259554921 	-4.882027136e-05 	8.592017959e-08 	0.008004769519 	-1.809963588e-07 	1.525931551e-05
0.6024767174 	0.008260737471 	9.731033113e-05 	9.149853849e-08 	0.007993955975 	-1.938679706e-07 	1.523870189e-05
0.6048471841 	0.00827269517 	0.0002400151193 	9.676931305e-08 	0.007994247578 	-2.053279725e-07 	1.523925777e-05
0.6072440607 	0.008294522388 	0.0003794900348 	1.017536805e-07 	0.008004689364 	-2.154477885e-07 	1.525916272e-05
0.6096683188 	0.008325366608 	0.0005159219265 	1.064424636e-07 	0.008024399277 	-2.243414046e-07 	1.529673529e-05
0.6121211985 	0.008364420791 	0.0006494450202 	1.10843915e-07 	0.008052541256 	-2.321180498e-07 	1.535038172e-05
0.6146014058 	0.008410913473 	0.0007801635084 	1.149712437e-07 	0.008088321844 	-2.388833113e-07 	1.541858947e-05
0.6171092466 	0.008464124959 	0.0009081997069 	1.188278281e-07 	0.008131023522 	-2.447388499e-07 	1.549999073e-05
0.6196451072 	0.008523403813 	0.00103371671 	1.224335179e-07 	0.008179980803 	-2.497771405e-07 	1.559331692e-05
0.6222112488 	0.008588155931 	0.001156873623 	1.258092898e-07 	0.008234602537 	-2.540764105e-07 	1.569744113e-05
0.6248059814 	0.008657809926 	0.001277769802 	1.289765099e-07 	0.008294322703 	-2.577401369e-07 	1.581128436e-05
0.6274296252 	0.008731838761 	0.001396499241 	1.319396983e-07 	0.008358615862 	-2.608471343e-07 	1.593384499e-05
0.6300825038 	0.008809787198 	0.001513192719 	1.347173688e-07 	0.008427028792 	-2.634600172e-07 	1.606425905e-05
0.6327668179 	0.008891247288 	0.001627976737 	1.373269656e-07 	0.00849916167 	-2.656341968e-07 	1.620176436e-05
0.6354810871 	0.008975820727 	0.001740925585 	1.397906472e-07 	0.00857462729 	-2.674529423e-07 	1.634562281e-05
0.6382256018 	0.00906314405 	0.001852105874 	1.42109221e-07 	0.008653062488 	-2.689749739e-07 	1.64951421e-05
0.6410008697 	0.009152915662 	0.001961612969 	1.442940965e-07 	0.008734175549 	-2.702362692e-07 	1.664976613e-05
0.6438086365 	0.009244864506 	0.002069532754 	1.463576978e-07 	0.008817705969 	-2.712825457e-07 	1.680899833e-05
0.6466476918 	0.009338719813 	0.002175908964 	1.483117054e-07 	0.008903396021 	-2.721764205e-07 	1.697234739e-05
0.6495183863 	0.009434240813 	0.002280782979 	1.501467891e-07 	0.008991005692 	-2.729580405e-07 	1.713935577e-05
0.6524216739 	0.009531233034 	0.002384215186 	1.518586932e-07 	0.009080360587 	-2.736441162e-07 	1.730969104e-05
0.6553582862 	0.009629511265 	0.002486244435 	1.534454731e-07 	0.009171290413 	-2.742849338e-07 	1.748302856e-05
0.6583276269 	0.009728889666 	0.002586879597 	1.548842225e-07 	0.009263622734 	-2.749238771e-07 	1.765903962e-05
0.6613300628 	0.009829211807 	0.002686133615 	1.561335224e-07 	0.009357215169 	-2.755838506e-07 	1.783745282e-05
0.6643671144 	0.009930346091 	0.002784021004 	1.571420994e-07 	0.00945196623 	-2.762837724e-07 	1.801807467e-05
0.667438269 	0.01003214819 	0.002880517711 	1.5784287e-07 	0.009547760641 	-2.770788903e-07 	1.820068544e-05
0.6705436562 	0.01013447744 	0.002975576631 	1.581107168e-07 	0.009644477466 	-2.780042768e-07 	1.838505459e-05
0.6736841531 	0.010237214 	0.003069147451 	1.577804024e-07 	0.009742050369 	-2.790740844e-07 	1.857105567e-05
0.6768604108 	0.01034022666 	0.003161139072 	1.566298852e-07 	0.009840403398 	-2.803487868e-07 	1.875854387e-05
0.6800720757 	0.01044335992 	0.003251401639 	1.543238924e-07 	0.009939441202 	-2.81886987e-07 	1.894733746e-05
0.6833196559 	0.01054645338 	0.003339741034 	1.503887628e-07 	0.01003909936 	-2.837298343e-07 	1.91373136e-05
0.6866044312 	0.01064932098 	0.003425887951 	1.441728503e-07 	0.01013932346 	-2.859534577e-07 	1.932836859e-05
0.689925827 	0.01075171061 	0.00350944151 	1.347481932e-07 	0.01024002392 	-2.886891626e-07 	1.952033166e-05
0.6932842545 	0.0108533089 	0.003589850387 	1.207609162e-07 	0.01034110601 	-2.921669467e-07 	1.971302222e-05
0.6966810183 	0.01095371317 	0.00366635479 	1.005112267e-07 	0.01044249732 	-2.958166455e-07 	1.990630224e-05
0.7001157291 	0.01105238874 	0.003737933126 	7.22717463e-08 	0.01054420078 	-3.001150278e-07 	2.01001773e-05
0.7035887392 	0.01114884152 	0.003803947561 	4.876168758e-08 	0.01064606498 	-3.071034842e-07 	2.029435877e-05
0.7071011956 	0.01124333653 	0.003864091275 	-3.310695382e-09 	0.01074737804 	-3.243191622e-07 	2.048748961e-05
0.7106529404 	0.01133667576 	0.003913529098 	-7.566834747e-08 	0.01084639566 	-3.481167282e-07 	2.067624473e-05
0.7142442945 	0.01143055106 	0.003952951881 	-1.025427096e-07 	0.01094263034 	-3.641635941e-07 	2.085969477e-05
0.7178763468 	0.01152623124 	0.003990178617 	-1.008199101e-07 	0.01103763815 	-3.702745947e-07 	2.104080607e-05
0.7215489841 	0.01162337393 	0.004027797112 	-9.931412801e-08 	0.01113284024 	-3.715257332e-07 	2.122228771e-05
0.7252625989 	0.01172164124 	0.004065812205 	-9.80229718e-08 	0.01122897203 	-3.721893152e-07 	2.140554163e-05
0.7290182397 	0.01182097277 	0.004104228258 	-9.685860078e-08 	0.01132620168 	-3.731314308e-07 	2.159088835e-05
0.7328157714 	0.01192113431 	0.004142959334 	-9.56961579e-08 	0.01142433067 	-3.740283879e-07 	2.177794949e-05
0.7366134126 	0.01202135077 	0.004181717608 	-9.451592549e-08 	0.01152265634 	-3.74943319e-07 	2.196538554e-05
0.7403695195 	0.01212086954 	0.004220224417 	-9.331256282e-08 	0.01162049322 	-3.759019758e-07 	2.215188983e-05
0.7440841637 	0.01221952809 	0.00425842317 	-9.207558812e-08 	0.01171769747 	-3.768799294e-07 	2.233718815e-05
0.7477579729 	0.01231744264 	0.004296365562 	-9.078143689e-08 	0.01181440962 	-3.777977683e-07 	2.252154838e-05
0.7513914685 	0.01241473355 	0.004334102552 	-8.941913152e-08 	0.01191076289 	-3.786286396e-07 	2.270522448e-05
0.7549848602 	0.01251152199 	0.004371683005 	-8.797416174e-08 	0.01200687966 	-3.793288888e-07 	2.288844976e-05
0.7585387501 	0.0126079377 	0.004409161757 	-8.642784642e-08 	0.01210291311 	-3.798342488e-07 	2.307151622e-05
0.7620535769 	0.0127041123 	0.004446592195 	-8.477069832e-08 	0.01219900442 	-3.801196578e-07 	2.325469296e-05
0.7655296137 	0.01280017855 	0.004484027138 	-8.298862304e-08 	0.01229528948 	-3.801365723e-07 	2.343823904e-05
0.768967409 	0.01289627582 	0.004521525339 	-8.106420906e-08 	0.01239193292 	-3.79820845e-07 	2.36224683e-05
0.7723673936 	0.01299254472 	0.004559144936 	-7.898801217e-08 	0.01248909067 	-3.791449992e-07 	2.380767798e-05
0.775729859 	0.01308912706 	0.004596944258 	-7.674696449e-08 	0.01258691726 	-3.780613582e-07 	2.399416265e-05
0.7790552892 	0.01318617088 	0.004634986943 	-7.432483715e-08 	0.01268559321 	-3.765061737e-07 	2.418226644e-05
0.7823441444 	0.01328382703 	0.004673336396 	-7.171243293e-08 	0.01278529352 	-3.744489285e-07 	2.437232293e-05
0.7855967093 	0.01338224841 	0.004712055515 	-6.889913771e-08 	0.01288619049 	-3.718478622e-07 	2.45646606e-05
0.7888134047 	0.01348159469 	0.004751210696 	-6.587190491e-08 	0.01298847526 	-3.686463371e-07 	2.47596438e-05
0.7919947311 	0.01358203069 	0.004790868028 	-6.26234203e-08 	0.01309233556 	-3.648141323e-07 	2.49576304e-05
0.7951409556 	0.01368372404 	0.004831091733 	-5.914787097e-08 	0.01319795204 	-3.603240324e-07 	2.515896477e-05
0.7982524668 	0.01378684868 	0.004871946775 	-5.54384702e-08 	0.01330551135 	-3.551388476e-07 	2.536400271e-05
0.8013297317 	0.01389158464 	0.004913498175 	-5.14911347e-08 	0.01341520118 	-3.492326225e-07 	2.557310202e-05
0.8043730674 	0.01399811456 	0.004955808131 	-4.73061571e-08 	0.01352719652 	-3.425994111e-07 	2.578659626e-05
0.8073828264 	0.01410662446 	0.004998937481 	-4.288346468e-08 	0.01364166759 	-3.35224468e-07 	2.600480994e-05
0.8103594037 	0.01421730429 	0.005042947606 	-3.822294859e-08 	0.01375878935 	-3.270915683e-07 	2.622807655e-05
0.8133031956 	0.0143303446 	0.005087897418 	-3.332895774e-08 	0.01387872319 	-3.182090615e-07 	2.645670378e-05
0.8162145099 	0.01444593482 	0.005133844082 	-2.820606744e-08 	0.0140016235 	-3.085814374e-07 	2.669098594e-05
0.8190937056 	0.01456426363 	0.005180844752 	-2.285819528e-08 	0.0141276457 	-2.982071583e-07 	2.693121928e-05
0.8219411765 	0.01468551761 	0.00522895619 	-1.729015002e-08 	0.01425694244 	-2.87091478e-07 	2.71776948e-05
0.8247572507 	0.01480987893 	0.005278233691 	-1.150821088e-08 	0.01438965879 	-2.752516962e-07 	2.743068906e-05
0.8275422578 	0.01493752515 	0.0053287321 	-5.517985235e-09 	0.0145259384 	-2.626965789e-07 	2.769047586e-05
0.8302965409 	0.01506863008 	0.005380507147 	6.760795073e-10 	0.01466592981 	-2.494290933e-07 	2.79573384e-05
0.8330204758 	0.015203363 	0.005433614362 	7.068812093e-09 	0.01480977942 	-2.354601845e-07 	2.823155574e-05
0.8357143636 	0.01534188793 	0.005488108784 	1.3654807e-08 	0.01495763183 	-2.208038651e-07 	2.851340353e-05
0.838378533 	0.01548436482 	0.005544045825 	2.042881289e-08 	0.0151096346 	-2.054674489e-07 	2.880316305e-05
0.8410133121 	0.01563095082 	0.005601481766 	2.738581537e-08 	0.01526594017 	-1.894561199e-07 	2.910112492e-05
0.8436190526 	0.01578180003 	0.005660472744 	3.451977429e-08 	0.01542670029 	-1.727833297e-07 	2.940757838e-05
0.8461960476 	0.0159370631 	0.005721074241 	4.182351533e-08 	0.01559206518 	-1.554668686e-07 	2.972280982e-05
0.8487446143 	0.01609688805 	0.005783341501 	4.928850007e-08 	0.0157621866 	-1.37523467e-07 	3.004710854e-05
0.8512650663 	0.01626142036 	0.005847329218 	5.690473862e-08 	0.01593721607 	-1.189738766e-07 	3.038076335e-05
0.8537577304 	0.0164308018 	0.005913090488 	6.466020484e-08 	0.01611730052 	-9.9848885e-08 	3.072405436e-05
0.8562228989 	0.01660516844 	0.005980675684 	7.254045185e-08 	0.01630257861 	-8.018975477e-08 	3.107724591e-05
0.8586608727 	0.01678464923 	0.006050132111 	8.052782908e-08 	0.01649318145 	-6.004342711e-08 	3.144058788e-05
0.8610719522 	0.01696936374 	0.006121503092 	8.860185165e-08 	0.01668922932 	-3.946573317e-08 	3.181430961e-05
0.8634564411 	0.0171594189 	0.006194826559 	9.673879789e-08 	0.0168908269 	-1.85250434e-08 	3.219861062e-05
0.8658146308 	0.01735490504 	0.006270133433 	1.049120931e-07 	0.017098058 	2.696011955e-09 	3.259365071e-05
0.8681468062 	0.01755589188 	0.006347446412 	1.130907989e-07 	0.01731098332 	2.410406688e-08 	3.299954554e-05
0.8704532543 	0.01776242445 	0.006426778808 	1.212406493e-07 	0.01752963796 	4.559614735e-08 	3.341636206e-05
0.8727342594 	0.01797451861 	0.006508132803 	1.293238323e-07 	0.01775402503 	6.705656111e-08 	3.384410619e-05
0.8749901093 	0.01819215655 	0.006591497984 	1.373002527e-07 	0.01798411226 	8.83590353e-08 	3.42827164e-05
0.8772210738 	0.01841528207 	0.006676849673 	1.451269137e-07 	0.01821982686 	1.093673997e-07 	3.473205394e-05
0.8794274275 	0.01864379717 	0.006764148121 	1.52758239e-07 	0.01846105503 	1.299404444e-07 	3.519190187e-05
0.8816094419 	0.01887755898 	0.006853337396 	1.601472852e-07 	0.01870763789 	1.499325974e-07 	3.566195734e-05
0.8837673868 	0.01911637746 	0.006944344702 	1.672467213e-07 	0.01895937004 	1.691971722e-07 	3.614182878e-05
0.8859015299 	0.01936001407 	0.007037079872 	1.740106617e-07 	0.0192159977 	1.875891308e-07 	3.663103242e-05
0.8880121301 	0.01960818161 	0.00713143541 	1.803941073e-07 	0.01947721927 	2.049682827e-07 	3.712899334e-05
0.8900994471 	0.01986054569 	0.007227287263 	1.863545257e-07 	0.01974268856 	2.212047212e-07 	3.763505159e-05
0.8921637379 	0.02011672728 	0.007324495581 	1.918529814e-07 	0.02001201564 	2.361796824e-07 	3.814846387e-05
0.894205257 	0.02037630664 	0.007422906255 	1.93779696e-07 	0.02028477198 	2.458875861e-07 	3.866841325e-05
0.8962242572 	0.02063882819 	0.007522352529 	1.946281903e-07 	0.02056049413 	2.532264712e-07 	3.91940163e-05
0.8982209844 	0.02090380634 	0.007622657123 	1.948947194e-07 	0.02083868996 	2.58821696e-07 	3.972433487e-05
0.9001956845 	0.02117073234 	0.007723634788 	1.945955797e-07 	0.02111884643 	2.62720645e-07 	4.025839097e-05
0.9021486004 	0.02143908135 	0.007825094695 	1.937526504e-07 	0.02140043515 	2.649875927e-07 	4.079517734e-05
0.9040799724 	0.02170831983 	0.007926843106 	1.923930115e-07 	0.0216829202 	2.657031665e-07 	4.133367236e-05
0.9059900395 	0.02197791269 	0.008028685886 	1.90547583e-07 	0.0219657648 	2.649604599e-07 	4.187285278e-05
0.9078790355 	0.02224733002 	0.008130430822 	1.882505901e-07 	0.02224843734 	2.628624042e-07 	4.241170519e-05
0.9097471924 	0.02251605347 	0.008231889999 	1.855398979e-07 	0.02253041858 	2.595223751e-07 	4.294923982e-05
0.9115947402 	0.02278358178 	0.008332881739 	1.824552621e-07 	0.02281120664 	2.550593242e-07 	4.348449991e-05
0.9134219063 	0.02304943553 	0.008433232209 	1.790374169e-07 	0.02309032102 	2.495947335e-07 	4.401656948e-05
0.9152289156 	0.02331316091 	0.008532776872 	1.753273949e-07 	0.02336730706 	2.432512805e-07 	4.454458186e-05
0.9170159908 	0.02357433264 	0.008631361395 	1.713650085e-07 	0.0236417378 	2.361482098e-07 	4.506772312e-05
0.9187833512 	0.02383255595 	0.008728842414 	1.671894485e-07 	0.02391321636 	2.284021707e-07 	4.558523673e-05
0.9205312141 	0.02408746781 	0.008825088035 	1.628387119e-07 	0.02418137769 	2.201261418e-07 	4.609642675e-05
0.9222597947 	0.02433873742 	0.00891997793 	1.583487758e-07 	0.02444588819 	2.114265158e-07 	4.660065726e-05
0.9239693056 	0.02458606604 	0.00901340332 	1.537534051e-07 	0.02470644593 	2.024030328e-07 	4.709735274e-05
0.9256599573 	0.02482918637 	0.009105266769 	1.490839774e-07 	0.02496278025 	1.931484389e-07 	4.758599719e-05
0.9273319579 	0.02506786138 	0.009195481724 	1.443688506e-07 	0.02521465006 	1.837466679e-07 	4.806613106e-05
0.9289855128 	0.02530188287 	0.009283972037 	1.3963412e-07 	0.02546184282 	1.742744953e-07 	4.853734917e-05
0.9306208255 	0.02553106981 	0.009370671416 	1.349036502e-07 	0.02570417334 	1.648020395e-07 	4.89992985e-05
0.9322380971 	0.02575526645 	0.009455522718 	1.301988301e-07 	0.02594148141 	1.553917958e-07 	4.945167363e-05