0.3675691744 	1.852636487e-06 	-9.993692099e-09 	2.388598182e-12 	1.843349499e-06 	-3.067311242e-10 	3.513936477e-09
0.3675691744 	1.852636487e-06 	-9.993692099e-09 	2.388598182e-12 	1.843349499e-06 	-3.067311242e-10 	3.513936477e-09
0.3677500057 	2.277934141e-05 	-4.796557111e-07 	1.613018481e-10 	2.24608504e-05 	-5.298339614e-09 	4.281662354e-08
0.3679308446 	0.0001289383693 	-6.266994026e-06 	2.271412141e-09 	0.0001251229765 	-3.143362351e-08 	2.385191693e-07
0.3681116904 	0.0004350011689 	-3.845369051e-05 	1.413045812e-08 	0.0004125224124 	-1.046024197e-07 	7.863823727e-07
0.3682925426 	0.001083502464 	-0.0001496166063 	5.365244758e-08 	0.0009986383293 	-2.473127167e-07 	1.903682213e-06
0.3684734006 	0.00220894244 	-0.0004240845235 	1.43220512e-07 	0.001975501434 	-4.651944593e-07 	3.765854795e-06
0.3686542637 	0.003880809876 	-0.0009439511155 	2.895847395e-07 	0.003377564865 	-7.363927996e-07 	6.438577378e-06
0.3688351313 	0.00604705284 	-0.001732730156 	4.694219224e-07 	0.005151977098 	-1.012817136e-06 	9.821100267e-06
0.3690160028 	0.008522945884 	-0.002697549666 	5.54677193e-07 	0.007163372205 	-1.242275733e-06 	1.365537838e-05
0.3691968776 	0.01105242515 	-0.003610096044 	5.828023737e-07 	0.009249396746 	-1.420484251e-06 	1.763192093e-05
0.3693777551 	0.01350614452 	-0.004412002032 	6.408992812e-07 	0.01130362579 	-1.555055427e-06 	2.154785244e-05
0.3695586347 	0.01585755526 	-0.00518067921 	6.787152114e-07 	0.01327157244 	-1.637817259e-06 	2.529930571e-05
0.3697395158 	0.01805728906 	-0.005900867821 	6.992273809e-07 	0.01511174974 	-1.672682256e-06 	2.880719509e-05
0.3699203977 	0.02007637942 	-0.006565540378 	7.076748721e-07 	0.01679906122 	-1.66422354e-06 	3.202367974e-05
0.3701012798 	0.02190143169 	-0.007174956085 	7.105267125e-07 	0.01831932107 	-1.616939661e-06 	3.492171754e-05
0.3702821617 	0.02352967929 	-0.007735137639 	7.132633287e-07 	0.01966615829 	-1.534529625e-06 	3.748916362e-05
0.3704630425 	0.02496477697 	-0.008255208707 	7.187523086e-07 	0.0208380446 	-1.420751265e-06 	3.972310465e-05
0.3706439218 	0.02621418587 	-0.008745044537 	7.274473258e-07 	0.0218369443 	-1.2802679e-06 	4.16272851e-05
0.370824799 	0.02728819984 	-0.009214257831 	7.389608901e-07 	0.0226678766 	-1.118878492e-06 	4.3211273e-05
0.3710056733 	0.02817334239 	-0.009581526313 	6.321841444e-07 	0.02336453218 	-9.810813337e-07 	4.453929217e-05
0.3711865443 	0.02887233312 	-0.009799696522 	4.891578178e-07 	0.02395705604 	-8.557150234e-07 	4.566880734e-05
0.3713674113 	0.02942628132 	-0.009945264167 	4.223599291e-07 	0.02444284129 	-7.127839077e-07 	4.659484903e-05
0.3715482738 	0.02985999167 	-0.01005703938 	3.567602521e-07 	0.02482478294 	-5.712963433e-07 	4.732293597e-05
0.371729131 	0.03018398259 	-0.01013728775 	2.930997352e-07 	0.02511240256 	-4.328200112e-07 	4.787121891e-05
0.3719099825 	0.03040746474 	-0.01018830297 	2.321525084e-07 	0.02531381888 	-2.992168215e-07 	4.82551744e-05
0.3720908276 	0.03053888236 	-0.01021238405 	1.745694448e-07 	0.02543636238 	-1.722838163e-07 	4.848877636e-05
0.3722716657 	0.03058607181 	-0.01021175485 	1.208615107e-07 	0.02548678792 	-5.363233792e-08 	4.858490146e-05
0.3724524963 	0.03055633742 	-0.01018851621 	7.14248986e-08 	0.02547138849 	5.535036872e-08 	4.855554587e-05
0.3726333187 	0.03045650151 	-0.01014463589 	2.656871852e-08 	0.02539608723 	1.535128147e-07 	4.841200073e-05
0.3728141323 	0.03029291244 	-0.01008191336 	-1.347185128e-08 	0.02526631712 	2.399516707e-07 	4.816462284e-05
0.3729949365 	0.03003682288 	-0.009989365642 	-5.352817998e-08 	0.02505900037 	3.26238465e-07 	4.77694195e-05
0.3732758447 	0.02962314013 	-0.009845726891 	-9.316029956e-08 	0.02472015631 	4.037424356e-07 	4.712348854e-05
0.3735620054 	0.02905701734 	-0.009654339498 	-1.252371908e-07 	0.02425315027 	4.615470688e-07 	4.623324524e-05
0.3738535141 	0.02838327973 	-0.009429778267 	-1.444197138e-07 	0.02369524689 	4.860486062e-07 	4.516972632e-05
0.3741504675 	0.02761411849 	-0.009175444914 	-1.50199e-07 	0.02305694346 	4.761601463e-07 	4.395294259e-05
0.374452964 	0.0267616159 	-0.008894749864 	-1.42208212e-07 	0.02234878448 	4.315562851e-07 	4.260299475e-05
0.3747611033 	0.02583687394 	-0.008590608858 	-1.203635055e-07 	0.02158055516 	3.528934751e-07 	4.113853614e-05
0.3750749871 	0.02485009957 	-0.008265493704 	-8.498890777e-08 	0.0207613882 	2.420030626e-07 	3.957697624e-05
0.3753947182 	0.02381267297 	-0.007922556347 	-3.642981879e-08 	0.01990128074 	1.013763812e-07 	3.793737236e-05
0.3755993181 	0.02313948332 	-0.007699550622 	5.890962872e-06 	0.01934389924 	-1.473140864e-05 	3.687484832e-05
0.3757202004 	0.02274107594 	-0.007567568956 	-2.222248184e-08 	0.01901401795 	6.140538387e-08 	3.624600289e-05
0.3760513922 	0.02165533729 	-0.007207947201 	-8.719757177e-08 	0.0181161341 	2.37857397e-07 	3.453438671e-05
0.376388741 	0.0205712491 	-0.006848924572 	-1.570052902e-07 	0.01722110957 	4.231443022e-07 	3.282822121e-05
0.3767323563 	0.01950141292 	-0.006494289688 	-2.289229345e-07 	0.01634004902 	6.092482824e-07 	3.114867491e-05
0.3770823489 	0.01845995018 	-0.00614878031 	-2.984857578e-07 	0.01548517545 	7.853315124e-07 	2.951904828e-05
0.3774388313 	0.01746216678 	-0.00581802116 	-3.598904275e-07 	0.01466966827 	9.38574323e-07 	2.796446494e-05
0.3778019175 	0.01652369367 	-0.005508193289 	-4.064507361e-07 	0.01390731263 	1.054598832e-06 	2.651120321e-05
0.3781717233 	0.01565866346 	-0.00522489217 	-4.334911412e-07 	0.01320977014 	1.125807723e-06 	2.518149335e-05
0.3785483659 	0.01487660782 	-0.004971388526 	-4.410228548e-07 	0.01258310623 	1.153160165e-06 	2.398689777e-05
0.3789319641 	0.01415990393 	-0.004700886737 	-6.430989101e-07 	0.01202508263 	1.156230118e-06 	2.292314968e-05
0.3793226385 	0.01349010304 	-0.004387235127 	-8.421670085e-07 	0.01152404151 	1.151941064e-06 	2.196802606e-05
0.3797205109 	0.01287951168 	-0.004080619323 	-8.326196831e-07 	0.01107481922 	1.115286106e-06 	2.111168353e-05
0.3801257049 	0.01233392832 	-0.003799558155 	-8.783676922e-07 	0.01068155069 	1.024612056e-06 	2.036200439e-05
0.3805383456 	0.011848295 	-0.0035335168 	-9.177946641e-07 	0.01034562652 	8.890683954e-07 	1.972163956e-05
0.3809585596 	0.01142051352 	-0.003282586678 	-9.487421584e-07 	0.01006562521 	7.194507986e-07 	1.918787925e-05
0.381386475 	0.01104717025 	-0.003046640507 	-9.699319871e-07 	0.009838387343 	5.164703608e-07 	1.875470071e-05
0.3818233582 	0.0107223611 	-0.002824674267 	-9.793735503e-07 	0.009660157297 	2.819499483e-07 	1.841494471e-05
0.3822794906 	0.01044104921 	-0.002616084619 	-9.753219582e-07 	0.009528523484 	1.497038249e-08 	1.816401408e-05
0.3827440409 	0.01020199677 	-0.002424924827 	-9.330158367e-07 	0.009442665735 	-2.843458421e-07 	1.800034534e-05
0.3832171622 	0.01000328782 	-0.002255094543 	-8.68514743e-07 	0.009400926206 	-6.138189238e-07 	1.79207782e-05
0.3836990102 	0.009839871459 	-0.002101491561 	-8.485606575e-07 	0.009399612662 	-9.563417472e-07 	1.791827422e-05
0.3841897433 	0.009705824778 	-0.001956933468 	-8.556790903e-07 	0.009432432584 	-1.28640365e-06 	1.798083811e-05
0.384689523 	0.009596177247 	-0.001820265385 	-8.477959105e-07 	0.009492342691 	-1.598835892e-06 	1.809504343e-05
0.3851985134 	0.009506566757 	-0.001692015648 	-8.346778094e-07 	0.009573850937 	-1.900808301e-06 	1.82504208e-05
0.3857168816 	0.009433055401 	-0.001571437069 	-8.215898168e-07 	0.009672968783 	-2.19639799e-06 	1.843936696e-05
0.3862447977 	0.009372447016 	-0.001457672818 	-8.092688369e-07 	0.009786520825 	-2.486407184e-06 	1.865582872e-05
0.3867824347 	0.009322177125 	-0.001349926483 	-7.980220556e-07 	0.009911881074 	-2.772093741e-06 	1.889480019e-05
0.3873299689 	0.009280185347 	-0.001247480743 	-7.880520318e-07 	0.01004691938 	-3.054726995e-06 	1.915222073e-05
0.3878875794 	0.009244809754 	-0.001149692512 	-7.795149553e-07 	0.01018989951 	-3.335318147e-06 	1.94247806e-05
0.3884554486 	0.009214704485 	-0.001055986983 	-7.313201616e-07 	0.0103393955 	-3.421904765e-06 	1.970976151e-05
0.3890337624 	0.009188775462 	-0.0009658517883 	-6.64355528e-07 	0.01049422885 	-3.371830982e-06 	2.000491692e-05
0.3896227096 	0.009166129905 	-0.0008788311241 	-6.036413841e-07 	0.01065342 	-3.299095958e-06 	2.030837948e-05
0.3902224824 	0.009146036505 	-0.0007945200388 	-5.48371257e-07 	0.01081615008 	-3.206249366e-06 	2.061858826e-05
0.3908332767 	0.009127893882 	-0.0007125590839 	-4.97821787e-07 	0.01098173098 	-3.095396289e-06 	2.093423147e-05
0.3914552915 	0.00911120551 	-0.0006326294295 	-4.513468316e-07 	0.01114958169 	-2.968291919e-06 	2.125420156e-05
0.3920887296 	0.009095559688 	-0.0005544483332 	-4.083713275e-07 	0.01131920879 	-2.826414069e-06 	2.157755797e-05
0.3927337972 	0.009080613514 	-0.0004777650068 	-3.683851543e-07 	0.01149019031 	-2.671019979e-06 	2.190349627e-05
0.3933907042 	0.009066080082 	-0.0004023562961 	-3.309375662e-07 	0.0116621571 	-2.503186453e-06 	2.223131276e-05
0.3940596643 	0.009051716796 	-0.0003280392615 	-2.956286046e-07 	0.01183491025 	-2.323850092e-06 	2.256062828e-05
0.3947408949 	0.009037305922 	-0.0002545565314 	-2.621175433e-07 	0.01200801232 	-2.133819642e-06 	2.289060893e-05
0.3954346172 	0.009022653706 	-0.000181640572 	-2.301099543e-07 	0.01218168195 	-1.933922985e-06 	2.322167153e-05
0.3961494788 	0.009007529076 	-0.0001088629247 	-1.989644292e-07 	0.01235723997 	-1.721565268e-06 	2.35563339e-05
0.3968878893 	0.008991728499 	-3.57854556e-05 	-1.683848203e-07 	0.01253431017 	-1.496287509e-06 	2.389387892e-05
0.3976397877 	0.008975229503 	3.722568198e-05 	-1.386491206e-07 	0.01271147966 	-1.262478417e-06 	2.42316132e-05
0.3984054155 	0.008958013894 	0.0001098242662 	-1.095958497e-07 	0.01288816629 	-1.020529265e-06 	2.456842703e-05
0.3991850187 	0.008939980881 	0.0001821617044 	-8.109335143e-08 	0.01306415078 	-7.708729497e-07 	2.490390238e-05
0.3999788474 	0.008921048815 	0.0002543078422 	-5.303499876e-08 	0.01323938922 	-5.139110476e-07 	2.523795556e-05
0.4007871563 	0.008901147149 	0.00032632901 	-2.534064976e-08 	0.01341379 	-2.499990454e-07 	2.557041191e-05
0.4015479658 	0.008881792252 	0.0003928395746 	2.3699671e-07 	0.01357415849 	5.014352118e-07 	2.587611882e-05
0.4016101199 	0.008880209416 	0.0003982817135 	-2.079326882e-09 	0.01358728389 	-2.018101864e-08 	2.590113948e-05
0.4024470408 	0.00885813819 	0.0004702146867 	-2.959551175e-08 	0.01375978874 	-2.922016047e-07 	2.622998167e-05
0.4032992213 	0.008834940988 	0.0005420739414 	-5.68112619e-08 	0.01393128245 	-5.70325862e-07 	2.655689634e-05
0.4041669344 	0.008807209153 	0.0006227785252 	-8.358927838e-08 	0.01412394055 	-8.546560746e-07 	2.692415624e-05
0.4054980656 	0.00877135744 	0.0007212913465 	-1.228761799e-07 	0.01435631366 	-1.293474641e-06 	2.736712396e-05
0.4068429052 	0.008730160691 	0.000827681004 	-1.583408869e-07 	0.01460529295 	-1.744402222e-06 	2.784174769e-05
0.4082015963 	0.008686671182 	0.0009345181417 	-2.133499413e-07 	0.01484584358 	-2.172870835e-06 	2.830030405e-05
0.4095742835 	0.008642916419 	0.001049565346 	-3.484085747e-07 	0.01507149981 	-2.464616174e-06 	2.873046754e-05
0.4109925526 	0.008622730344 	0.001172840806 	-4.501179546e-07 	0.01523648946 	-2.085409109e-06 	2.904498367e-05
0.4124285917 	0.008638522812 	0.001297755263 	-5.343466334e-07 	0.01531733857 	-1.623064579e-06 	2.919910455e-05
0.4138792945 	0.00866800682 	0.001421707354 	-6.218856239e-07 	0.01536013546 	-1.744302434e-06 	2.928068732e-05
0.4153448143 	0.008697033332 	0.00153904761 	-5.654469556e-07 	0.01539564343 	-1.894978311e-06 	2.934837537e-05
0.4168253059 	0.008725905797 	0.0016441992 	-4.058068999e-07 	0.01542744428 	-1.8205889e-06 	2.940899664e-05
0.4183209264 	0.008754253377 	0.001737381963 	-2.465891366e-07 	0.0154566332 	-1.598363537e-06 	2.946463883e-05
0.4198318349 	0.008781445898 	0.001819560303 	-1.192921633e-07 	0.01548324209 	-1.383114491e-06 	2.951536277e-05
0.4213581924 	0.00880708017 	0.001891748546 	-2.371060973e-08 	0.01550744409 	-1.175821557e-06 	2.956149851e-05
0.4229001622 	0.008831104903 	0.001954675668 	4.123279785e-08 	0.01553009425 	-9.747287824e-07 	2.960467602e-05
0.4244819438 	0.008853657979 	0.002009545579 	7.82372484e-08 	0.01555183993 	-7.761185059e-07 	2.964612933e-05
0.4260925758 	0.008874607055 	0.002057701778 	9.023429502e-08 	0.01557238444 	-5.82336528e-07 	2.968529286e-05
0.4277195391 	0.008893896856 	0.002099519064 	8.07350549e-08 	0.01559200036 	-3.954472322e-07 	2.972268626e-05
0.4293630066 	0.008911636381 	0.002135806103 	5.354613749e-08 	0.01561090161 	-2.155765941e-07 	2.975871729e-05
0.4310231538 	0.008928019033 	0.002167562058 	1.230585641e-08 	0.01562920402 	-4.274941775e-08 	2.979360677e-05
0.431448537 	0.008931873336 	0.002174644812 	2.035222135e-07 	0.01563374065 	-4.325913918e-07 	2.980225486e-05
0.4326988195 	0.008943243534 	0.002195513007 	3.748342275e-08 	0.01564707582 	-1.236938438e-07 	2.98276754e-05
0.4343910777 	0.008957510104 	0.002220577603 	9.532595465e-08 	0.01566449056 	-2.837757735e-07 	2.986087273e-05
0.436100568 	0.008971026027 	0.002243315717 	1.597154368e-07 	0.01568167169 	-4.376231495e-07 	2.989362474e-05
0.4378450104 	0.008984144669 	0.00226411595 	2.294913415e-07 	0.0156991842 	-5.874585303e-07 	2.992700844e-05
0.4396278893 	0.008997047742 	0.002283826738 	3.03360452e-07 	0.01571678978 	-7.338735958e-07 	2.996056957e-05
0.4414287725 	0.009009767105 	0.002302670656 	3.791850902e-07 	0.01573442053 	-8.75164157e-07 	2.999417869e-05
0.4432478542 	0.009022413378 	0.002320635607 	4.560147045e-07 	0.0157523526 	-1.011903461e-06 	3.00283622e-05
0.445085332 	0.009035129393 	0.002338048159 	5.332409732e-07 	0.01577063428 	-1.144726196e-06 	3.006321215e-05
0.4469414059 	0.009048055657 	0.002355045869 	6.104222969e-07 	0.01578945176 	-1.274117412e-06 	3.009908351e-05
0.4488162792 	0.009061171953 	0.002372035842 	6.533954106e-07 	0.01580847332 	-1.331532138e-06 	3.013534388e-05
0.4507145584 	0.00907468145 	0.002388678979 	5.870068989e-07 	0.01582846657 	-1.171821473e-06 	3.017345659e-05
0.4526669111 	0.009088815864 	0.002405407264 	5.171291391e-07 	0.01584948688 	-1.013685744e-06 	3.021352713e-05
0.4546388831 	0.009103458661 	0.002422613806 	4.460574816e-07 	0.01587093668 	-8.606169397e-07 	3.025441642e-05
0.4566306909 	0.009118582571 	0.002439758098 	3.741309058e-07 	0.01589324362 	-7.118514336e-07 	3.029693964e-05
0.4586425543 	0.009134257935 	0.002456971908 	3.016905331e-07 	0.01591641221 	-5.669841281e-07 	3.034110542e-05
0.4606746966 	0.009150481943 	0.002474399571 	2.289788392e-07 	0.01594031029 	-4.256322416e-07 	3.038666179e-05
0.4627273447 	0.009167257889 	0.002491991876 	1.56165911e-07 	0.01596504215 	-2.874446852e-07 	3.043380759e-05
0.4648189542 	0.009184775264 	0.002509655711 	8.25592257e-08 	0.01599108053 	-1.505939307e-07 	3.048344397e-05
0.466953052 	0.009203085838 	0.002527781882 	8.218017697e-09 	0.0160181168 	-1.486542796e-08 	3.053498262e-05
0.4671922495 	0.009205188498 	0.002529834583 	2.486581558e-08 	0.01602120481 	-2.085530242e-07 	3.054086923e-05
0.469107006 	0.009222042318 	0.00254625536 	6.506410814e-08 	0.01604589964 	-1.180235979e-07 	3.058794443e-05
0.4712824151 	0.009241627582 	0.002564796872 	1.37858262e-07 	0.01607470393 	-2.483121715e-07 	3.064285343e-05
0.4734797172 	0.009261838816 	0.002583559543 	2.102044867e-07 	0.01610437336 	-3.761907337e-07 	3.069941161e-05
0.4756991628 	0.009282655738 	0.002602539025 	2.820610613e-07 	0.01613491891 	-5.018282801e-07 	3.075763991e-05
0.4779561872 	0.009304247326 	0.002621598902 	3.539952319e-07 	0.0161668269 	-6.263431757e-07 	3.08184654e-05
0.4802602884 	0.009326693237 	0.002641087707 	4.262783741e-07 	0.01619985042 	-7.50312628e-07 	3.088141742e-05
0.4825874655 	0.00934982816 	0.002660983724 	4.978584873e-07 	0.01623367445 	-8.72160445e-07 	3.094589542e-05
0.4849379871 	0.009373609622 	0.00268090443 	5.686935795e-07 	0.01626859955 	-9.918545282e-07 	3.101247236e-05
0.4873121266 	0.009397978075 	0.002701134363 	6.387892276e-07 	0.01630421706 	-1.109642043e-06 	3.108036924e-05
0.4897101617 	0.00942299972 	0.002721398146 	6.290292443e-07 	0.01634101643 	-1.0887011e-06 	3.115051907e-05
0.492163323 	0.009448907655 	0.002741861188 	5.569086493e-07 	0.01637922887 	-9.604489412e-07 	3.12233626e-05
0.4946490888 	0.009475602172 	0.002762877736 	4.852889997e-07 	0.0164182351 	-8.343041468e-07 	3.129771932e-05
0.4971597453 	0.009502939727 	0.002783991706 	4.145046848e-07 	0.0164582609 	-7.105683186e-07 	3.137401961e-05
0.4996955911 	0.009530863996 	0.002805318093 	3.445709531e-07 	0.01649906504 	-5.891828054e-07 	3.145180363e-05
0.5022569303 	0.009559416093 	0.002826728958 	2.754839059e-07 	0.01654092364 	-4.700077636e-07 	3.153159778e-05
0.5048675072 	0.009588804978 	0.0028482948 	2.064552176e-07 	0.0165841362 	-3.51506634e-07 	3.161397292e-05
0.507518827 	0.009619011128 	0.002870335784 	1.379455924e-07 	0.01662824655 	-2.344546642e-07 	3.16980595e-05
0.5101966917 	0.009649878958 	0.002892553015 	7.050163546e-08 	0.0166732978 	-1.196535048e-07 	3.17839397e-05
0.5129014286 	0.009681303736 	0.002914990758 	4.129702933e-09 	0.0167190445 	-7.001021691e-09 	3.187114564e-05
0.5130736398 	0.00968332406 	0.002916407701 	1.500153085e-08 	0.01672199905 	-1.090918896e-07 	3.187677783e-05
0.5156320481 	0.009713356007 	0.002937438602 	6.03023331e-08 	0.01676587261 	-1.034433149e-07 	3.196041303e-05
0.518419256 	0.009746284776 	0.002960099578 	1.244570617e-07 	0.01681400904 	-2.133808412e-07 	3.205217444e-05
0.5212419599 	0.009780001831 	0.00298324963 	1.875669723e-07 	0.01686290325 	-3.215484493e-07 	3.214538041e-05
0.5240930218 	0.00981431452 	0.003006560074 	2.493896718e-07 	0.01691261145 	-4.276133501e-07 	3.224013803e-05
0.5269728009 	0.009849198235 	0.003030037157 	3.099276478e-07 	0.0169630932 	-5.316949608e-07 	3.233637028e-05
0.5298914659 	0.00988481529 	0.003053615328 	3.694388775e-07 	0.01701474869 	-6.342999591e-07 	3.243484e-05
0.532864735 	0.009921299888 	0.003077570485 	4.28225518e-07 	0.01706740739 	-7.360031714e-07 	3.253522212e-05
0.5358678962 	0.009958484692 	0.003101880369 	4.855012396e-07 	0.01712075372 	-8.356873932e-07 	3.263691505e-05
0.538901337 	0.009996194385 	0.003126409911 	5.412944852e-07 	0.01717466102 	-9.334353123e-07 	3.273967735e-05
0.5419666093 	0.01003455878 	0.003151001709 	5.956107457e-07 	0.01722961345 	-1.029356994e-06 	3.284443195e-05
0.5450948104 	0.01007382556 	0.0031759155 	5.774400325e-07 	0.01728563428 	-1.000328745e-06 	3.295122323e-05
0.5482545274 	0.01011383131 	0.003201307267 	5.192789313e-07 	0.01734215654 	-9.022084653e-07 	3.305897036e-05
0.5514461789 	0.01015434621 	0.003226920282 	4.626114205e-07 	0.01739914389 	-8.063970767e-07 	3.316760409e-05
0.5546709803 	0.01019550803 	0.003252627056 	4.073838445e-07 	0.01745704215 	-7.127444295e-07 	3.327797428e-05
0.5579586754 	0.01023756358 	0.003278668876 	3.529739037e-07 	0.01751587106 	-6.199723438e-07 	3.339011852e-05
0.5612796104 	0.0102803332 	0.003305229256 	3.001759029e-07 	0.01757499261 	-5.296205058e-07 	3.350282063e-05
0.564634237 	0.01032362204 	0.003331978898 	2.490276142e-07 	0.01763456356 	-4.415294713e-07 	3.361637943e-05
0.5680294603 	0.01036760719 	0.003358907105 	1.993611622e-07 	0.0176948867 	-3.55346598e-07 	3.373137208e-05
0.5714814891 	0.0104124373 	0.003386232304 	1.509509968e-07 	0.01775582378 	-2.70587105e-07 	3.384753511e-05
0.5749685919 	0.01045790695 	0.003414035096 	1.043287164e-07 	0.01781685824 	-1.881869815e-07 	3.396388374e-05
0.5784912566 	0.01050393012 	0.003441996577 	5.949033493e-08 	0.01787834129 	-1.080259108e-07 	3.408108754e-05
0.5820660421 	0.01055073065 	0.003470246273 	1.613502516e-08 	0.01794038448 	-2.950671746e-08 	3.419935909e-05
0.583462122 	0.01056905975 	0.003481326833 	1.042085559e-07 	0.01796435453 	-8.025908893e-07 	3.424505267e-05
0.5856870712 	0.01059827495 	0.003498973446 	2.508356923e-08 	0.01800254532 	-4.686655975e-08 	3.431785493e-05
0.5893448323 	0.01064636958 	0.003528024478 	6.415075789e-08 	0.01806473579 	-1.208374597e-07 	3.443640725e-05
0.593044075 	0.01069510346 	0.003557285231 	1.014193602e-07 	0.01812727335 	-1.926851682e-07 	3.455562123e-05
0.5968014921 	0.01074463599 	0.003586955455 	1.37049363e-07 	0.01819001673 	-2.627379096e-07 	3.467522755e-05
0.6005975097 	0.01079477355 	0.003617114764 	1.70655009e-07 	0.0182524576 	-3.303410821e-07 	3.479425719e-05
0.6044326823 	0.01084545645 	0.003647458985 	2.023010847e-07 	0.01831499744 	-3.955917193e-07 	3.491347551e-05
0.6083262453 	0.01089690811 	0.003678159868 	2.322137242e-07 	0.01837761418 	-4.589217234e-07 	3.503284042e-05
0.6122629626 	0.01094899164 	0.003709383773 	2.600440607e-07 	0.01843973004 	-5.197505649e-07 	3.515125051e-05
0.6162404639 	0.01100158997 	0.003740827431 	2.858477565e-07 	0.01850166519 	-5.780993768e-07 	3.526931612e-05
0.6202729019 	0.0110548933 	0.003772600046 	3.097872461e-07 	0.01856343023 	-6.342677366e-07 	3.538705746e-05
0.6243530268 	0.01110881728 	0.003804872534 	3.316274995e-07 	0.01862451103 	-6.878533335e-07 	3.550349444e-05
0.6284756376 	0.01116324239 	0.003837394073 	3.514097856e-07 	0.01868513816 	-7.388246075e-07 	3.56190666e-05
0.6326526999 	0.01121832116 	0.003870235003 	3.692700041e-07 	0.01874531491 	-7.874017481e-07 	3.57337802e-05
0.6368792419 	0.01127398232 	0.003903549071 	3.850188732e-07 	0.0188045611 	-8.332326608e-07 	3.58467199e-05
0.6411500483 	0.01133011797 	0.003937106111 	3.987299362e-07 	0.01886309651 	-8.763148261e-07 	3.595830467e-05
0.6454768345 	0.01138686467 	0.003970985197 	4.10518806e-07 	0.01892086387 	-9.168045659e-07 	3.606842531e-05
0.6498531354 	0.01144413209 	0.004005298401 	4.202181715e-07 	0.01897741559 	-9.543523581e-07 	3.617622862e-05
0.65427556 	0.01150183703 	0.00403982396 	4.279536202e-07 	0.01903300176 	-9.890246725e-07 	3.62821913e-05
0.6587567266 	0.01156009832 	0.004074682864 	4.266415082e-07 	0.01908743851 	-1.004041149e-06 	3.638596287e-05
0.6632864859 	0.01161879786 	0.004109890545 	4.047070886e-07 	0.01914042147 	-9.706322592e-07 	3.648696312e-05
0.6678663167 	0.01167790857 	0.004145289827 	3.842268889e-07 	0.01919213963 	-9.397754238e-07 	3.658555232e-05
0.6725042632 	0.01173732751 	0.004180932732 	3.651266347e-07 	0.01924211841 	-9.113533009e-07 	3.668082576e-05
0.6771398434 	0.01179641163 	0.004216408901 	3.475997623e-07 	0.01928991406 	-8.858783827e-07 	3.677193755e-05
0.6817269438 	0.01185470374 	0.0042513713 	3.316300325e-07 	0.01933525309 	-8.633127799e-07 	3.685836635e-05
0.6862659936 	0.01191205163 	0.004285838589 	3.171253345e-07 	0.0193777863 	-8.435662114e-07 	3.693944647e-05
0.6907531043 	0.01196838917 	0.004319681862 	3.039864039e-07 	0.01941775953 	-8.264876926e-07 	3.701564655e-05
0.6951949272 	0.01202381512 	0.004352971644 	2.920281205e-07 	0.01945516469 	-8.117609852e-07 	3.708695119e-05
0.6995877647 	0.01207826607 	0.004385750426 	2.811793159e-07 	0.01948984906 	-7.993957656e-07 	3.715306923e-05
0.7039307073 	0.01213170829 	0.004417892901 	2.713407931e-07 	0.01952211223 	-7.891838475e-07 	3.72145718e-05
0.7082302496 	0.01218423742 	0.00444949879 	2.623698159e-07 	0.01955187073 	-7.808954703e-07 	3.727129977e-05
0.7124812566 	0.01223577287 	0.004480559374 	2.542138082e-07 	0.01957907545 	-7.745318229e-07 	3.732315952e-05
0.7166846618 	0.01228631489 	0.004510990985 	2.467798982e-07 	0.01960397939 	-7.698761313e-07 	3.737063336e-05
0.7208449964 	0.01233593726 	0.004540891678 	2.399645392e-07 	0.01962646677 	-7.667804699e-07 	3.741350055e-05
0.7249584804 	0.01238456197 	0.004570227619 	2.337238236e-07 	0.01964656343 	-7.652093019e-07 	3.745181038e-05
0.729026125 	0.01243221006 	0.004598947439 	2.279796302e-07 	0.01966447526 	-7.649738095e-07 	3.748595531e-05
0.7330514326 	0.01247894374 	0.004627137097 	2.226524342e-07 	0.01968009259 	-7.659599537e-07 	3.751572627e-05
0.7370316237 	0.01252469209 	0.004654766225 	2.17707743e-07 	0.01969344603 	-7.68125283e-07 	3.754118165e-05
0.7409673456 	0.01256947234 	0.004681787398 	2.130891351e-07 	0.01970473491 	-7.713158684e-07 	3.756270139e-05
0.744861872 	0.01261335401 	0.004708276936 	2.087296875e-07 	0.01971387529 	-7.75420285e-07 	3.758012549e-05
0.7487129188 	0.01265627668 	0.004734225594 	2.046034282e-07 	0.0197208532 	-7.804113465e-07 	3.759342732e-05
0.7525210598 	0.01269823516 	0.004759573216 	2.006785457e-07 	0.01972588398 	-7.861674641e-07 	3.76030174e-05
0.7562885687 	0.01273931122 	0.004784385142 	1.968953982e-07 	0.01972892165 	-7.925743015e-07 	3.760880804e-05
0.7600145333 	0.01277946372 	0.004808678965 	1.932334212e-07 	0.01972989652 	-7.996163e-07 	3.761066641e-05
0.7636991078 	0.01281866007 	0.0048323853 	1.896812611e-07 	0.01972902447 	-8.072051418e-07 	3.760900404e-05
0.7673436288 	0.01285698367 	0.004855550734 	1.861890932e-07 	0.01972631197 	-8.152265142e-07 	3.760383327e-05
0.7709484819 	0.01289442504 	0.004878213367 	1.827375861e-07 	0.01972166288 	-8.236646661e-07 	3.759497081e-05
0.7745133872 	0.01293093328 	0.004900317773 	1.793260816e-07 	0.0197152296 	-8.324618886e-07 	3.758270719e-05
0.7780389421 	0.01296656277 	0.004921873646 	1.759262342e-07 	0.01970709725 	-8.415261034e-07 	3.756720466e-05
0.7815265585 	0.01300134984 	0.004942928479 	1.725135662e-07 	0.01969719515 	-8.508098809e-07 	3.754832851e-05
0.784975603 	0.01303525137 	0.004963468631 	1.690869232e-07 	0.01968554705 	-8.602905705e-07 	3.752612399e-05
0.7883865467 	0.01306826338 	0.004983459535 	1.595127683e-07 	0.01967231081 	-8.376967029e-07 	3.750089204e-05
0.7917602851 	0.01310045298 	0.005002941517 	1.502208447e-07 	0.01965747831 	-8.14801835e-07 	3.747261718e-05
0.7950971832 	0.0131318162 	0.005021938732 	1.412281894e-07 	0.01964099371 	-7.917260263e-07 	3.744119294e-05
0.7983972724 	0.01316231385 	0.005040417331 	1.325604046e-07 	0.01962296316 	-7.685515678e-07 	3.740682171e-05
0.8016609923 	0.0131919791 	0.005058376188 	1.242289053e-07 	0.01960348185 	-7.453643923e-07 	3.736968492e-05
0.8048892448 	0.01322086062 	0.005075853592 	1.162209486e-07 	0.01958251397 	-7.221760586e-07 	3.732971431e-05
0.8080820428 	0.01324894173 	0.005092855827 	1.085297308e-07 	0.01956004699 	-6.989703413e-07 	3.728688599e-05
0.8112396897 	0.01327619967 	0.005109355413 	1.011724563e-07 	0.01953619466 	-6.758235874e-07 	3.724141682e-05
0.8143625974 	0.01330267725 	0.005125364027 	9.414873897e-08 	0.01951101742 	-6.52795281e-07 	3.719342201e-05
0.8174515457 	0.01332841252 	0.005140913899 	8.744390415e-08 	0.01948448015 	-6.298788079e-07 	3.71428346e-05
0.8205065383 	0.01335339012 	0.005156004822 	8.105295876e-08 	0.01945659741 	-6.07070251e-07 	3.708968234e-05
0.8235279445 	0.01337760003 	0.005170619981 	7.498327628e-08 	0.01942746547 	-5.844279309e-07 	3.703414877e-05
0.8265161521 	0.01340108224 	0.005184771647 	6.923018243e-08 	0.01939713804 	-5.619958164e-07 	3.697633626e-05
0.8294717838 	0.01342387583 	0.00519848855 	6.377936679e-08 	0.01936559112 	-5.397691469e-07 	3.691619907e-05
0.8323949679 	0.01344597499 	0.005211773568 	5.862299528e-08 	0.01933284186 	-5.177387578e-07 	3.685376987e-05
0.8352860472 	0.01346737467 	0.005224616673 	5.376203939e-08 	0.0192989695 	-4.959476124e-07 	3.678919974e-05
0.8381453877 	0.01348810846 	0.005237026389 	4.919050502e-08 	0.01926403583 	-4.744309371e-07 	3.672260646e-05
0.8409734693 	0.01350822222 	0.005249029394 	4.489531335e-08 	0.01922803417 	-4.531958978e-07 	3.665397728e-05
0.8437705646 	0.01352772555 	0.005260637004 	4.086481536e-08 	0.01919096819 	-4.322222481e-07 	3.658331921e-05
0.8465369613 	0.0135466154 	0.0052718428 	3.709603743e-08 	0.01915290805 	-4.115398252e-07 	3.651076602e-05
0.8492730063 	0.01356491997 	0.005282653283 	3.358203166e-08 	0.0191139185 	-3.911772354e-07 	3.64364411e-05
0.851979068 	0.01358268597 	0.005293089848 	3.031159932e-08 	0.0190740198 	-3.711524546e-07 	3.636038309e-05
0.8546555343 	0.01359994375 	0.005303172499 	2.727148681e-08 	0.01903320745 	-3.514484469e-07 	3.628258341e-05
0.8573026396 	0.01361669934 	0.005312901637 	2.445458053e-08 	0.01899153752 	-3.320752958e-07 	3.620314894e-05
0.859920713 	0.01363297581 	0.005322283985 	2.18530619e-08 	0.01894906592 	-3.130554395e-07 	3.612218626e-05
0.862510079 	0.01364880993 	0.005331332099 	1.945752002e-08 	0.01890584433 	-2.944081272e-07 	3.603979389e-05
0.8650710966 	0.01366425166 	0.005340068739 	1.725616877e-08 	0.01886188961 	-2.761413825e-07 	3.595600399e-05
0.8676040616 	0.01367932878 	0.005348509586 	1.523744725e-08 	0.0188172153 	-2.582408897e-07 	3.587084235e-05
0.8701092526 	0.01369405801 	0.0053566577 	1.339379195e-08 	0.01877188953 	-2.407227353e-07 	3.578443881e-05
0.8725869784 	0.01370847563 	0.005364526103 	1.1715889e-08 	0.01872596148 	-2.236029359e-07 	3.56968872e-05
0.8750375438 	0.01372262371 	0.005372129963 	1.0194125e-08 	0.01867948038 	-2.068957913e-07 	3.56082813e-05
0.8774612751 	0.0137365547 	0.005379491204 	8.817829873e-09 	0.01863247191 	-1.906068183e-07 	3.551867008e-05
0.8798584493 	0.01375030267 	0.005386625762 	7.576853938e-09 	0.01858496126 	-1.747262999e-07 	3.542810159e-05
0.8822293439 	0.01376389519 	0.005393541136 	6.463334047e-09 	0.01853701761 	-1.592669708e-07 	3.533670766e-05
0.8845742495 	0.01377737533 	0.005400252895 	5.468492428e-09 	0.01848869058 	-1.442404607e-07 	3.524458292e-05
0.886893453 	0.01379078848 	0.005406777088 	4.583740148e-09 	0.01844003301 	-1.296571846e-07 	3.515182806e-05
0.8891872474 	0.01380419078 	0.005413134739 	3.800262116e-09 	0.01839108489 	-1.155237299e-07 	3.505851934e-05
0.8914559102 	0.01381762687 	0.005419344552 	3.109478122e-09 	0.01834187586 	-1.018315416e-07 	3.496471325e-05
0.8936997032 	0.01383113274 	0.005425417905 	2.504308576e-09 	0.01829247187 	-8.85860453e-08 	3.48705355e-05
0.8959189001 	0.01384475617 	0.005431370858 	1.977698893e-09 	0.01824293248 	-7.579433127e-08 	3.477609967e-05
0.8981137716 	0.0138585468 	0.005437221305 	1.522888208e-09 	0.01819330788 	-6.346155696e-08 	3.468150138e-05
0.9002845849 	0.01387256018 	0.005442988123 	1.13359013e-09 	0.01814365498 	-5.159164633e-08 	3.458684916e-05
0.9024316135 	0.01388685401 	0.005448692473 	8.038631761e-10 	0.01809401521 	-4.018036492e-08 	3.449222197e-05