0.4709558481 	0.02903369592 	-3.12214382e-09 	-3.621394748e-12
0.4709558481 	0.02903369592 	-3.12214382e-09 	-3.621394748e-12
0.4711314108 	0.07983445795 	2.89800579e-08 	-3.226034426e-11
0.4713069734 	0.1595786196 	2.248909664e-07 	-1.156714533e-10
0.471482536 	0.2392077652 	8.14661834e-07 	-2.541211885e-10
0.4716580986 	0.3186279877 	1.959715754e-06 	-4.430325892e-10
0.4718336613 	0.3976062036 	3.30968756e-06 	-6.768860841e-10
0.4720092239 	0.4756939764 	3.857390749e-06 	-9.484143739e-10
0.4721847865 	0.5522015198 	2.875021124e-06 	-1.253951885e-09
0.4723603491 	0.6262770422 	1.130309073e-06 	-1.596307008e-09
0.4725359118 	0.697087869 	-3.73474769e-06 	-1.952050459e-09
0.4727114744 	0.7640167804 	-3.864006309e-06 	-2.374926241e-09
0.472887037 	0.8269618904 	4.908637093e-06 	-2.845288097e-09
0.4730625996 	0.8862919502 	7.523493825e-06 	-3.258504123e-09
0.4732381623 	0.9423370604 	5.186233901e-06 	-3.698058087e-09
0.4734137249 	0.995265268 	5.625754465e-06 	-4.188735632e-09
0.4735892875 	1.045236209 	6.58883637e-06 	-4.678258162e-09
0.4737648501 	1.092423532 	7.468380712e-06 	-5.178290609e-09
0.4739404128 	1.137007413 	8.326462788e-06 	-5.688251016e-09
0.4741159754 	1.17916735 	9.206270038e-06 	-6.206477213e-09
0.474291538 	1.219077156 	1.011077433e-05 	-6.731537024e-09
0.4744671006 	1.256901797 	1.103933637e-05 	-7.262304482e-09
0.4746426632 	1.29279555 	1.199242957e-05 	-7.797795556e-09
0.4748182259 	1.32690134 	1.297031349e-05 	-8.337136028e-09
0.4749937885 	1.359351826 	1.397262211e-05 	-8.879552781e-09
0.4751693511 	1.390270852 	1.499868136e-05 	-9.424390019e-09
0.4753449137 	1.419772351 	1.604815378e-05 	-9.971085733e-09
0.4755204764 	1.447959045 	1.712131998e-05 	-1.051912719e-08
0.475696039 	1.47492376 	1.821933294e-05 	-1.106806088e-08
0.4758716016 	1.500751198 	1.933544314e-05 	-1.161748554e-08
0.4760471642 	1.525519058 	2.043388507e-05 	-1.216705474e-08
0.4762227269 	1.552525559 	2.171061463e-05 	-1.279279031e-08
0.4764955107 	1.584613621 	2.346108248e-05 	-1.357458551e-08
0.4767734216 	1.618353563 	2.546412808e-05 	-1.444317161e-08
0.4770565557 	1.650786276 	2.748126674e-05 	-1.532547115e-08
0.4773450114 	1.68200397 	2.958138241e-05 	-1.622112246e-08
0.4776388886 	1.712091286 	3.177901906e-05 	-1.712980065e-08
0.4779382892 	1.741125591 	3.407398504e-05 	-1.80512179e-08
0.4782433171 	1.769177484 	3.646794351e-05 	-1.898515662e-08
0.4785540779 	1.796311342 	3.896416174e-05 	-1.993146218e-08
0.4788706795 	1.822585906 	4.156635933e-05 	-2.089002558e-08
0.4791932316 	1.84805489 	4.427789572e-05 	-2.186078831e-08
0.4795218461 	1.872767523 	4.710220597e-05 	-2.284374164e-08
0.4798566368 	1.896769016 	5.004304647e-05 	-2.383892041e-08
0.48019772 	1.920100974 	5.310434895e-05 	-2.484640087e-08
0.4805452138 	1.942801761 	5.629022259e-05 	-2.586629832e-08
0.4808992388 	1.964906827 	5.960496712e-05 	-2.689876484e-08
0.4812599177 	1.986448999 	6.305308217e-05 	-2.794398722e-08
0.4816273755 	2.007458746 	6.663927613e-05 	-2.900218512e-08
0.4820017397 	2.027964405 	7.036847575e-05 	-3.007360935e-08
0.48238314 	2.047992393 	7.424583635e-05 	-3.115854034e-08
0.4827717088 	2.067567393 	7.827675264e-05 	-3.225728669e-08
0.4831675807 	2.086712517 	8.246686996e-05 	-3.337018397e-08
0.4835708931 	2.105449458 	8.682209607e-05 	-3.449759347e-08
0.4839817856 	2.123798616 	9.134861338e-05 	-3.563990121e-08
0.4844004009 	2.141779223 	9.605289172e-05 	-3.679751693e-08
0.4848268841 	2.159409442 	0.0001009417015 	-3.797087323e-08
0.485261383 	2.176706466 	0.0001060221276 	-3.916042477e-08
0.4857040484 	2.193686599 	0.0001113015831 	-4.036664753e-08
0.4861550336 	2.210365331 	0.0001167878246 	-4.159003815e-08
0.4866144951 	2.226757408 	0.0001224889665 	-4.283111336e-08
0.4870825921 	2.242876888 	0.0001284134975 	-4.409040936e-08
0.487559487 	2.258737198 	0.0001345702961 	-4.536848146e-08
0.4880453452 	2.274351183 	0.0001409686476 	-4.666590355e-08
0.4885403351 	2.289731144 	0.000147618261 	-4.798326784e-08
0.4890446283 	2.304888882 	0.0001545292867 	-4.932118452e-08
0.4895583997 	2.31983573 	0.0001617123346 	-5.068028159e-08
0.4900818274 	2.334582585 	0.000169178493 	-5.206120468e-08
0.4906150929 	2.349139936 	0.0001769393474 	-5.346461703e-08
0.4911583811 	2.363517892 	0.0001850070002 	-5.489119945e-08
0.4917118805 	2.3777262 	0.0001933940909 	-5.634165042e-08
0.4922757829 	2.39177427 	0.0002021138163 	-5.781668623e-08
0.4928502838 	2.405671192 	0.0002111799514 	-5.931704112e-08
0.4934355824 	2.419425753 	0.0002206068705 	-6.084346747e-08
0.4940318817 	2.433046453 	0.000230409568 	-6.239673603e-08
0.4946393885 	2.446541515 	0.0002406036802 	-6.397763593e-08
0.4952583133 	2.459918901 	0.0002512055057 	-6.558697476e-08
0.4958888709 	2.473186319 	0.0002622320262 	-6.72255784e-08
0.4965312797 	2.486351229 	0.0002737009266 	-6.889429068e-08
0.4971857627 	2.499420854 	0.0002856306133 	-7.059397289e-08
0.4978525466 	2.512402182 	0.0002980402315 	-7.2325503e-08
0.4985318627 	2.52530197 	0.0003109496796 	-7.408977463e-08
0.4992239466 	2.538126748 	0.0003243796213 	-7.588769569e-08
0.4999290382 	2.550882826 	0.0003383514923 	-7.772018665e-08
0.5006473819 	2.563576304 	0.0003528875029 	-7.958817812e-08
0.501379227 	2.576213093 	0.0003680106302 	-8.149260793e-08
0.502124827 	2.588798949 	0.000383744602 	-8.343441804e-08
0.5028844406 	2.601339534 	0.0004001139312 	-8.541455002e-08
0.5036583311 	2.613840509 	0.0004171440253 	-8.74339201e-08
0.5044467669 	2.62630768 	0.000434860235 	-8.949337381e-08
0.5052500214 	2.638747214 	0.0004532842515 	-9.159400801e-08
0.506068373 	2.6527479 	0.000474937956 	-9.401431372e-08
0.507324668 	2.669761072 	0.0005026425453 	-9.703792963e-08
0.5085949819 	2.688026226 	0.0005341282788 	-1.003826674e-07
0.5098794711 	2.705974639 	0.0005669135993 	-1.037688011e-07
0.5111782938 	2.723622541 	0.0006010320229 	-1.071959257e-07
0.5124916099 	2.740984976 	0.0006365092941 	-1.10663746e-07
0.5138195812 	2.758075776 	0.000673368702 	-1.141720928e-07
0.5151623712 	2.774907818 	0.0007116338974 	-1.177212801e-07
0.5165201452 	2.791493483 	0.0007513299429 	-1.213123663e-07
0.5178930705 	2.807845221 	0.0007924848198 	-1.249471289e-07
0.5192813161 	2.823976118 	0.0008351311324 	-1.286275586e-07
0.520685053 	2.839900293 	0.0008793073034 	-1.323547912e-07
0.522104454 	2.855632852 	0.0009250574976 	-1.361281055e-07
0.523539694 	2.871188914 	0.0009724298572 	-1.39943817e-07
0.5249909497 	2.886580981 	0.001021463809 	-1.437880268e-07
0.5264583998 	2.901813665 	0.001072153543 	-1.476283287e-07
0.527942225 	2.916875696 	0.001124403598 	-1.514160831e-07
0.5294426081 	2.931731859 	0.001177991755 	-1.550827251e-07
0.5309597337 	2.946318948 	0.001232531198 	-1.585298941e-07
0.5324937889 	2.960547213 	0.001287455532 	-1.616356917e-07
0.5340449624 	2.974305994 	0.001342047895 	-1.642722782e-07
0.5356134452 	2.987472243 	0.00139549373 	-1.663389644e-07
0.5371994306 	2.999921865 	0.001446947597 	-1.678240326e-07
0.5388031139 	3.011544627 	0.001495622334 	-1.688674803e-07
0.5404246925 	3.022263293 	0.001540874115 	-1.69728559e-07
0.5420643661 	3.032056072 	0.00158192833 	-1.702425078e-07
0.5437223366 	3.040979446 	0.001619225265 	-1.722208174e-07
0.5453988083 	3.049189753 	0.001654659649 	-1.746458034e-07
0.5470939875 	3.056903691 	0.001688259605 	-1.753814742e-07
0.5488080831 	3.064275672 	0.001720515996 	-1.774945526e-07
0.5505413061 	3.071347113 	0.001753166031 	-1.801630921e-07
0.5522938699 	3.07811271 	0.001785699828 	-1.818955675e-07
0.5540659904 	3.084566036 	0.001817439638 	-1.838366283e-07
0.5558578859 	3.090700842 	0.001848466325 	-1.856968474e-07
0.5576697768 	3.096511266 	0.001878621374 	-1.874242233e-07
0.5595018865 	3.101992047 	0.001907726839 	-1.889958645e-07
0.5613544406 	3.107138756 	0.001935608399 	-1.903911525e-07
0.563227667 	3.111948009 	0.001962093713 	-1.915940762e-07
0.5651217966 	3.116417651 	0.00198701425 	-1.925953772e-07
0.5670370626 	3.120546924 	0.002010209087 	-1.933921474e-07
0.5689737009 	3.124336608 	0.002031528413 	-1.939876418e-07
0.5709319499 	3.127789157 	0.002050837598 	-1.943906623e-07
0.5729120508 	3.130908862 	0.002068016996 	-1.946105211e-07
0.5749142474 	3.133702121 	0.00208296625 	-1.94667858e-07
0.5769387863 	3.136178208 	0.002095626574 	-1.946001198e-07
0.5789859169 	3.138350466 	0.002105985726 	-1.944400294e-07
0.5810558911 	3.140236097 	0.002114069106 	-1.942210049e-07
0.583148964 	3.141853945 	0.002119940325 	-1.939744751e-07
0.5852653933 	3.143222476 	0.002123681406 	-1.937119256e-07
0.5874054395 	3.144359139 	0.002125373699 	-1.934403065e-07
0.5895693664 	3.145280325 	0.002125100291 	-1.93169839e-07
0.5917574402 	3.146001376 	0.002122947478 	-1.929100245e-07
0.5939699306 	3.146536601 	0.002119002322 	-1.926669976e-07
0.5962071099 	3.14689928 	0.002113351042 	-1.924428743e-07
0.5984692536 	3.147101703 	0.002106077342 	-1.922396159e-07
0.6007566404 	3.147155202 	0.002097265744 	-1.920586915e-07
0.6030695519 	3.147070205 	0.002086994595 	-1.919005654e-07
0.6054082729 	3.146856224 	0.002075338377 	-1.917643439e-07
0.6077730914 	3.146521941 	0.002062370542 	-1.916484692e-07
0.6101642987 	3.14607529 	0.00204815806 	-1.915514076e-07
0.6125821893 	3.145523487 	0.002032765284 	-1.914712451e-07
0.6150270608 	3.144873079 	0.002016252299 	-1.914056713e-07
0.6174992144 	3.144129993 	0.001998675174 	-1.913521185e-07
0.6199989545 	3.143299578 	0.001980086082 	-1.913078379e-07
0.622526589 	3.142386657 	0.001960533415 	-1.912699579e-07
0.625082429 	3.14139556 	0.001940061925 	-1.912355344e-07
0.6276667894 	3.140330164 	0.00191871289 	-1.91201592e-07
0.6302799884 	3.139193931 	0.001896524286 	-1.91165157e-07
0.6329223478 	3.137989936 	0.001873530966 	-1.911232831e-07
0.6355941931 	3.136720896 	0.001849764839 	-1.910730711e-07
0.6382958531 	3.1353892 	0.00182525505 	-1.910116838e-07
0.6410276607 	3.133996932 	0.001800028154 	-1.909363572e-07
0.6437899523 	3.132545892 	0.001774108286 	-1.908444089e-07
0.646583068 	3.131037616 	0.001747517327 	-1.907332439e-07
0.6494073518 	3.129473396 	0.001720275061 	-1.906003594e-07
0.6522631514 	3.127854294 	0.001692399328 	-1.904433474e-07
0.6551508186 	3.12618116 	0.001663906166 	-1.902598978e-07
0.658070709 	3.124454643 	0.001634809951 	-1.900477994e-07
0.6610231822 	3.122675205 	0.001605123526 	-1.898049416e-07
0.6640086017 	3.12084313 	0.001574858326 	-1.895293155e-07
0.6670273351 	3.118958535 	0.001544024494 	-1.892190143e-07
0.6700797543 	3.117021379 	0.001512630995 	-1.88872234e-07
0.6731662352 	3.11503147 	0.001480685721 	-1.884872734e-07
0.6762871577 	3.112988472 	0.001448195587 	-1.880625342e-07
0.6794429063 	3.110891913 	0.001415166625 	-1.875965198e-07
0.6826338695 	3.108741187 	0.001381604074 	-1.870878344e-07
0.6858604404 	3.10653556 	0.001347512457 	-1.86535181e-07
0.6891230163 	3.104274178 	0.001312895656 	-1.859373581e-07
0.6924219988 	3.101956061 	0.001277756982 	-1.85293256e-07
0.6957577944 	3.099580116 	0.001242099229 	-1.846018514e-07
0.6991308138 	3.097145132 	0.001205924737 	-1.838622004e-07
0.7025414724 	3.094649783 	0.001169235426 	-1.830734308e-07
0.7059901901 	3.09209263 	0.001132032841 	-1.822347315e-07
0.7094773917 	3.089472122 	0.001094318172 	-1.813453426e-07
0.7130035066 	3.086786593 	0.001056092276 	-1.8040454e-07
0.7165689691 	3.084034265 	0.001017355677 	-1.79411623e-07
0.7201742182 	3.081213242 	0.0009781085583 	-1.783659002e-07
0.7238196978 	3.078321514 	0.0009383507517 	-1.772667632e-07
0.727505857 	3.07535695 	0.0008980817289 	-1.761141786e-07
0.7312331497 	3.072317298 	0.0008573005024 	-1.749083282e-07
0.7350020349 	3.06920852 	0.0008161153247 	-1.736520009e-07
0.7387709215 	3.066055559 	0.0007748765529 	-1.723550958e-07
0.7424982157 	3.062884727 	0.0007339349026 	-1.710288782e-07
0.7461843763 	3.059704598 	0.0006933987929 	-1.696789151e-07
0.7498298574 	3.056515345 	0.0006532661944 	-1.683086345e-07
0.7534351078 	3.053317057 	0.0006135342008 	-1.669220305e-07
0.7570005716 	3.050109746 	0.0005741990142 	-1.655230963e-07
0.7605266877 	3.046893359 	0.0005352559143 	-1.641161447e-07
0.7640138905 	3.043667779 	0.0004966992171 	-1.62706045e-07
0.7674626093 	3.040432839 	0.0004585221906 	-1.612983874e-07
0.770873269 	3.037188324 	0.0004207169328 	-1.598996617e-07
0.7742462894 	3.033933978 	0.0003832742077 	-1.585174851e-07
0.777582086 	3.030669517 	0.0003461832391 	-1.57160903e-07
0.7808810695 	3.027394628 	0.0003094314564 	-1.558407653e-07
0.7841436462 	3.024108986 	0.0002730041913 	-1.545701712e-07
0.787370218 	3.020812257 	0.0002368842841 	-1.533651601e-07
0.7905611821 	3.017504112 	0.0002010514522 	-1.522451644e-07
0.7937169314 	3.014184238 	0.0001654820656 	-1.512289829e-07
0.7968378547 	3.010852346 	0.0001301519515 	-1.503149859e-07
0.7999243362 	3.007508192 	9.503419359e-05 	-1.496326545e-07
0.8029767561 	3.004151571 	6.003139478e-05 	-1.491269621e-07
0.8059954902 	3.00078181 	2.518240384e-05 	-1.484788094e-07
0.8089809102 	2.997395015 	-9.344023975e-06 	-1.47607432e-07
0.8119333839 	2.993983312 	-4.341729176e-05 	-1.461431384e-07
0.8148532749 	2.990539122 	-7.679641714e-05 	-1.441672127e-07
0.8177409426 	2.987057162 	-0.0001093047076 	-1.421878039e-07
0.8205967427 	2.983533337 	-0.0001409036147 	-1.402040609e-07
0.8234210268 	2.979964253 	-0.0001715630763 	-1.381858301e-07
0.8262141429 	2.976346991 	-0.0002012681107 	-1.361133424e-07
0.8289764348 	2.972678979 	-0.0002300091943 	-1.33988632e-07
0.8317082427 	2.968957876 	-0.0002577765211 	-1.31825483e-07
0.8344099031 	2.965181464 	-0.0002845585376 	-1.296365579e-07
0.8370817486 	2.96134755 	-0.0003103421133 	-1.274282594e-07
0.8397241082 	2.957453877 	-0.0003351128465 	-1.252022399e-07
0.8423373074 	2.953498051 	-0.0003588552092 	-1.229585405e-07
0.844921668 	2.94947748 	-0.0003815526169 	-1.206974286e-07
0.8474775082 	2.945389334 	-0.0004031875111 	-1.184197106e-07
0.8500051427 	2.941230511 	-0.0004237414575 	-1.161263965e-07
0.8525048829 	2.936997619 	-0.0004431952256 	-1.138184216e-07
0.8549770366 	2.932686964 	-0.000461528834 	-1.114966128e-07
0.8574219081 	2.928294547 	-0.0004787215741 	-1.091617904e-07
0.8598397987 	2.923816061 	-0.0004947520354 	-1.068148724e-07
0.862231006 	2.919246893 	-0.0005095981598 	-1.044569324e-07
0.8645958245 	2.914582127 	-0.0005232373395 	-1.020892253e-07
0.8669345455 	2.909816548 	-0.0005356465766 	-9.97132033e-08
0.8692474569 	2.904944651 	-0.0005468027142 	-9.733052782e-08
0.8715348435 	2.899960655 	-0.0005566827574 	-9.494309151e-08
0.8737969871 	2.894858519 	-0.0005652642999 	-9.255310162e-08
0.8760341663 	2.889631971 	-0.0005725260811 	-9.01633141e-08
0.8782466565 	2.884274551 	-0.0005784487023 	-8.777751833e-08
0.8804347301 	2.878779663 	-0.0005830155517 	-8.540122346e-08
0.8825986568 	2.873140642 	-0.0005862140272 	-8.304187108e-08
0.8847387028 	2.867350836 	-0.0005880368652 	-8.07020662e-08
0.8868551318 	2.861403692 	-0.0005884810151 	-7.840366684e-08
0.8889482045 	2.855292833 	-0.0005875533086 	-7.613909674e-08
0.8910181784 	2.849012132 	-0.0005852643338 	-7.390911377e-08
0.8930653087 	2.842555824 	-0.0005816305089 	-7.173565238e-08
0.8950898473 	2.835918626 	-0.0005766808914 	-6.961528426e-08
0.8970920436 	2.829095812 	-0.0005704511932 	-6.755879322e-08
0.8990721441 	2.822083286 	-0.0005629863125 	-6.557414827e-08
0.9010303927 	2.81487763 	-0.0005543398922 	-6.366781604e-08
0.9029670306 	2.807476142 	-0.0005445738878 	-6.18451072e-08
0.9048822962 	2.799876846 	-0.0005337578958 	-6.011034999e-08
0.9067764254 	2.792078483 	-0.0005219682644 	-5.846687793e-08
0.9086496514 	2.78408048 	-0.0005092870355 	-5.691690344e-08
0.910502205 	2.775882898 	-0.0004958007678 	-5.546139982e-08
0.9123343142 	2.767486368 	-0.0004815992782 	-5.410007315e-08
0.9141462048 	2.758892008 	-0.0004667743505 	-5.283142397e-08
0.9159380997 	2.750101335 	-0.0004514184608 	-5.165286146e-08
0.9177102197 	2.741116169 	-0.000435623568 	-5.056083979e-08
0.9194627831 	2.731938539 	-0.0004194800087 	-4.955100385e-08
0.9211960055 	2.722570583 	-0.0004030755242 	-4.861834173e-08
0.9229101006 	2.713014465 	-0.0003864944358 	-4.775734062e-08
0.9246052793 	2.703272283 	-0.0003698169783 	-4.696214041e-08
0.9262817504 	2.693346 	-0.0003531187869 	-4.622667701e-08
0.9279397204 	2.683237371 	-0.0003364705335 	-4.554480966e-08
0.9295793934 	2.672947885 	-0.0003199376957 	-4.491042874e-08
0.9312009714 	2.662478713 	-0.0003035804444 	-4.431754488e-08
0.9328046541 	2.651830662 	-0.00028745363 	-4.376036243e-08
0.9343906389 	2.641004134 	-0.0002716068502 	-4.323334107e-08
0.9359591211 	2.629999093 	-0.0002560845818 	-4.273124304e-08
0.937510294 	2.618815025 	-0.0002409263619 	-4.22491598e-08
0.9390443485 	2.607450909 	-0.0002261670037 	-4.178252162e-08
0.9405614735 	2.59590518 	-0.000211836833 	-4.132710167e-08
0.942061856 	2.584175695 	-0.0001979619364 	-4.087902025e-08
0.9435456805 	2.572259684 	-0.0001845644109 	-4.043474416e-08
0.9450131299 	2.560153709 	-0.0001716626141 	-3.999107529e-08
0.946464385 	2.547853607 	-0.0001592714068 	-3.95451305e-08
0.9478996243 	2.535354424 	-0.000147402386 	-3.909432148e-08
0.9493190246 	2.522650342 	-0.0001360641059 	-3.863634111e-08
0.9507227608 	2.509734594 	-0.0001252622853 	-3.816915462e-08
0.9521110058 	2.496599369 	-0.0001150000043 	-3.769098713e-08
0.9534839303 	2.483235705 	-0.0001052778902 	-3.720030221e-08
0.9548417036 	2.469633374 	-9.60942937e-05 	-3.669577611e-08
0.9561844929 	2.455780765 	-8.744545351e-05 	-3.617627595e-08
0.9575124634 	2.441664775 	-7.932565218e-05 	-3.564084447e-08
0.9588257788 	2.427270725 	-7.172740583e-05 	-3.508868267e-08
0.9601246008 	2.412582325 	-6.464169073e-05 	-3.451912247e-08
0.9614090893 	2.397581738 	-5.805734044e-05 	-3.393165243e-08
0.9626794024 	2.382249819 	-5.195944241e-05 	-3.332602751e-08
0.9639356968 	2.367908172 	-4.679406991e-05 	-3.275542327e-08
0.9647540487 	2.356059964 	-4.290198719e-05 	-3.22814214e-08
0.9655573034 	2.345496325 	-3.969366894e-05 	-3.185754997e-08
0.9663457395 	2.334875149 	-3.670353019e-05 	-3.143058373e-08
0.9671196303 	2.324190504 	-3.392245669e-05 	-3.100055418e-08
0.9678792442 	2.313436782 	-3.134011676e-05 	-3.056763624e-08
0.9686248445 	2.302608549 	-2.89461373e-05 	-3.013201958e-08
0.9693566897 	2.291700436 	-2.673049298e-05 	-2.969388369e-08
0.9700750337 	2.280707072 	-2.468347629e-05 	-2.925340159e-08
0.9707801255 	2.269623029 	-2.279568835e-05 	-2.881073949e-08
0.9714722095 	2.258442792 	-2.105804888e-05 	-2.836605527e-08
0.9721515258 	2.24716073 	-1.946180345e-05 	-2.791949737e-08
0.9728183099 	2.235771082 	-1.799852697e-05 	-2.747120434e-08
0.9734727929 	2.224267935 	-1.666012455e-05 	-2.702130478e-08
0.9741152019 	2.212645215 	-1.543883027e-05 	-2.656991762e-08
0.9747457596 	2.200896664 	-1.4327204e-05 	-2.611715283e-08
0.9753646845 	2.189015835 	-1.331812637e-05 	-2.566311234e-08
0.9759721914 	2.176996065 	-1.24047924e-05 	-2.520789127e-08
0.9765684907 	2.16483047 	-1.158070379e-05 	-2.475157931e-08
0.9771537895 	2.152511921 	-1.083966031e-05 	-2.42942623e-08
0.9777282904 	2.140033029 	-1.01757505e-05 	-2.383602385e-08
0.9782921928 	2.127386128 	-9.583341923e-06 	-2.337694691e-08
0.9788456922 	2.114563254 	-9.057071138e-06 	-2.291711527e-08
0.9793889805 	2.101556128 	-8.591833708e-06 	-2.245661466e-08
0.979922246 	2.088356137 	-8.182774253e-06 	-2.19955332e-08
0.9804456737 	2.074954309 	-7.825276667e-06 	-2.153396094e-08
0.9809594451 	2.061341293 	-7.514954579e-06 	-2.10719881e-08
0.9814637383 	2.047507332 	-7.247641959e-06 	-2.060970216e-08
0.9819587281 	2.03344224 	-7.019383623e-06 	-2.014718755e-08
0.9824445862 	2.019135369 	-6.826424279e-06 	-1.968454158e-08
0.9829214811 	2.004575582 	-6.665198364e-06 	-1.922188352e-08
0.9833895781 	1.989751211 	-6.532321724e-06 	-1.875935119e-08
0.9838490396 	1.974650025 	-6.424625797e-06 	-1.829666306e-08
0.9843000247 	1.959259182 	-6.338931236e-06 	-1.783543335e-08
0.98474269 	1.943565181 	-6.272185413e-06 	-1.737761303e-08
0.9851771888 	1.927553813 	-6.221703853e-06 	-1.692320107e-08
0.9856036719 	1.911210095 	-6.184766876e-06 	-1.647197422e-08
0.9860222871 	1.894518201 	-6.15875143e-06 	-1.602450041e-08
0.9864331796 	1.87746139 	-6.141360339e-06 	-1.558139936e-08
0.9868364919 	1.860021916 	-6.130467711e-06 	-1.514167936e-08
0.9872323637 	1.842180943 	-6.124121087e-06 	-1.470424552e-08
0.9876209323 	1.823918433 	-6.120531441e-06 	-1.426872621e-08
0.9880023326 	1.805213035 	-6.118040314e-06 	-1.383512378e-08
0.9883766967 	1.786041956 	-6.115104384e-06 	-1.340368432e-08
0.9887441544 	1.766380812 	-6.110290105e-06 	-1.29746961e-08
0.9891048331 	1.746203471 	-6.102270083e-06 	-1.254822701e-08
0.9894588579 	1.725481875 	-6.089815548e-06 	-1.212394263e-08
0.9898063516 	1.704185839 	-6.071791989e-06 	-1.170165844e-08
0.9901474347 	1.682282835 	-6.047130553e-06 	-1.12813316e-08
0.9904822253 	1.659737747 	-6.014751923e-06 	-1.085996071e-08
0.9908108397 	1.636512605 	-5.97382825e-06 	-1.04368506e-08
0.9911333916 	1.612566269 	-5.923490917e-06 	-1.001330061e-08
0.9914499931 	1.587854072 	-5.862789854e-06 	-9.583695698e-09
0.9917607538 	1.562327405 	-5.790452268e-06 	-9.153040487e-09
0.9920657815 	1.535933374 	-5.706007647e-06 	-8.725634255e-09
0.9923651819 	1.508614505 	-5.609211135e-06 	-8.298243717e-09
0.992659059 	1.480308429 	-5.499920427e-06 	-7.873800591e-09
0.9929475145 	1.450947514 	-5.380530019e-06 	-7.453089847e-09
0.9932306485 	1.420458534 	-5.239111893e-06 	-7.036371607e-09
0.9935085592 	1.388762505 	-5.011189158e-06 	-6.624058744e-09
0.9937813429 	1.358644642 	-4.798985955e-06 	-6.251154909e-09
0.9939569055 	1.33331937 	-4.711006635e-06 	-5.951350497e-09
0.9941324681 	1.310115557 	-4.625494445e-06 	-5.687152523e-09
0.9943080307 	1.285946598 	-4.493317082e-06 	-5.422292437e-09
0.9944835934 	1.260746897 	-4.34969954e-06 	-5.15695868e-09
0.994659156 	1.234443998 	-4.200255927e-06 	-4.891368535e-09
0.9948347186 	1.206957959 	-4.043220529e-06 	-4.625763808e-09
0.9950102812 	1.178203743 	-3.878357705e-06 	-4.360428924e-09
0.9951858439 	1.148091897 	-3.705681692e-06 	-4.095693299e-09
0.9953614065 	1.116526728 	-3.524921528e-06 	-3.831929863e-09
0.9955369691 	1.083405486 	-3.335610606e-06 	-3.569564334e-09
0.9957125317 	1.048618697 	-3.137360058e-06 	-3.309084423e-09
0.9958880943 	1.012051119 	-2.930858276e-06 	-3.05104497e-09
0.996063657 	0.9735833333 	-2.713149888e-06 	-2.796038211e-09
0.9962392196 	0.933094163 	-2.450287814e-06 	-2.544721654e-09
0.9964147822 	0.890464209 	-2.103875878e-06 	-2.298158325e-09
0.9965903448 	0.8455805877 	-2.248870507e-06 	-2.060736069e-09
0.9967659075 	0.7983408796 	-4.219710278e-06 	-1.821362688e-09
0.9969414701 	0.748628045 	-2.438823408e-06 	-1.586850124e-09
0.9971170327 	0.696198773 	3.392674416e-06 	-1.378348025e-09
0.9972925953 	0.6407819428 	3.036619363e-06 	-1.172981637e-09
0.997468158 	0.5824283539 	-1.816178491e-07 	-9.695018083e-10
0.9976437206 	0.5215330174 	-1.260209147e-06 	-7.840158502e-10
0.9978192832 	0.4586479353 	-2.194818086e-06 	-6.128968345e-10
0.9979948458 	0.394374866 	-2.297356722e-06 	-4.590818429e-10
0.9981704085 	0.3292484216 	-1.679500761e-06 	-3.250435164e-10
0.9983459711 	0.2636619182 	-9.045023193e-07 	-2.123210821e-10
0.9985215337 	0.1978557544 	-3.645575004e-07 	-1.220449621e-10
0.9986970963 	0.1319504471 	-1.049810746e-07 	-5.5622861e-11
0.998872659 	0.06599364284 	-1.63555206e-08 	-1.542174921e-11
0.9990482216 	0.02779005656 	6.261375838e-10 	-1.903751026e-12
