0.4690770581 	0.02888000129 	-0.0003319271298 	-1.120205114e-07
0.4690770581 	0.02888000129 	-0.0003319271298 	-1.120205114e-07
0.4692488673 	0.08008151715 	-0.0009179234355 	-3.186048945e-07
0.4694206768 	0.1600201519 	-0.001831478973 	-6.498160298e-07
0.4695924867 	0.2397918604 	-0.002741912482 	-9.914854633e-07
0.4697642971 	0.319308326 	-0.003647518768 	-1.342946372e-06
0.4699361078 	0.3983529374 	-0.004546206684 	-1.702522139e-06
0.4701079188 	0.476509936 	-0.005434207207 	-2.067698106e-06
0.4702797302 	0.5531367219 	-0.006304991689 	-2.434981761e-06
0.470451542 	0.6274300552 	-0.00714892021 	-2.80013971e-06
0.4706233541 	0.6985878845 	-0.007959018503 	-3.158739336e-06
0.4707951664 	0.7659940501 	-0.008721607254 	-3.507198349e-06
0.4709669791 	0.8295015801 	-0.009430546157 	-3.843741651e-06
0.471138792 	0.8894252444 	-0.01010266423 	-4.168745847e-06
0.4713106052 	0.946085163 	-0.01074224049 	-4.483327712e-06
0.4714824187 	0.9996495868 	-0.01134408999 	-4.787728431e-06
0.4716542324 	1.050266105 	-0.01191129168 	-5.082011924e-06
0.4718260463 	1.098097341 	-0.01244666426 	-5.366592373e-06
0.4719978604 	1.143314414 	-0.01295220174 	-5.641939341e-06
0.4721696746 	1.18608972 	-0.01342989246 	-5.908591242e-06
0.4723414891 	1.226591722 	-0.0138817087 	-6.167098386e-06
0.4725133037 	1.264981517 	-0.0143095333 	-6.418016332e-06
0.4726851185 	1.301410704 	-0.01471512864 	-6.661896412e-06
0.4728569334 	1.336020326 	-0.01510012722 	-6.899254107e-06
0.4730287484 	1.368941264 	-0.01546603808 	-7.130575831e-06
0.4732005635 	1.400296911 	-0.01581427927 	-7.356332454e-06
0.4733723787 	1.430203034 	-0.0161461768 	-7.576974029e-06
0.473544194 	1.458764119 	-0.01646292343 	-7.792900887e-06
0.4737160093 	1.486073825 	-0.01676558415 	-8.004462415e-06
0.4738878247 	1.512217655 	-0.01705513903 	-8.211974005e-06
0.4740596401 	1.537274196 	-0.01733252853 	-8.415731527e-06
0.4742314555 	1.564577011 	-0.01763462094 	-8.632950528e-06
0.4744984171 	1.596988488 	-0.01799272227 	-8.921756827e-06
0.4747703961 	1.63103231 	-0.01836853209 	-9.225073792e-06
0.4750474869 	1.66371845 	-0.01872908693 	-9.527229278e-06
0.4753297854 	1.695140997 	-0.01907535728 	-9.828585534e-06
0.4756173894 	1.725386545 	-0.01940829759 	-1.012947752e-05
0.4759103986 	1.754534486 	-0.01972880025 	-1.043020779e-05
0.4762089144 	1.782657517 	-0.02003767816 	-1.073104017e-05
0.4765130403 	1.809822147 	-0.02033567451 	-1.103223084e-05
0.4768228817 	1.836089236 	-0.02062346799 	-1.133401711e-05
0.4771385457 	1.861514577 	-0.02090167555 	-1.163658087e-05
0.4774601418 	1.886149443 	-0.02117086387 	-1.194009777e-05
0.4777877812 	1.910041051 	-0.02143155431 	-1.224474182e-05
0.4781215775 	1.933232973 	-0.02168422469 	-1.255066182e-05
0.4784616462 	1.95576549 	-0.02192931435 	-1.285799126e-05
0.4788081049 	1.977675915 	-0.02216722797 	-1.316684905e-05
0.4791610737 	1.998998871 	-0.02239833899 	-1.34773395e-05
0.4795206747 	2.019766552 	-0.02262298726 	-1.378955532e-05
0.4798870323 	2.040018948 	-0.02284159848 	-1.410365792e-05
0.4802610131 	2.059799501 	-0.02305464051 	-1.442112076e-05
0.4806425564 	2.079129077 	-0.02326232939 	-1.474211659e-05
0.4810312696 	2.09801477 	-0.02346472718 	-1.506585075e-05
0.4814272873 	2.116473021 	-0.02366199902 	-1.539240332e-05
0.4818307469 	2.134525648 	-0.02385436814 	-1.572190742e-05
0.4822417881 	2.152193175 	-0.02404204246 	-1.605449191e-05
0.4826605535 	2.169494941 	-0.02422521632 	-1.639028139e-05
0.483087188 	2.186449189 	-0.02440407156 	-1.672939655e-05
0.4835218397 	2.203073162 	-0.02457877863 	-1.707195433e-05
0.4839646591 	2.219383177 	-0.02474949746 	-1.741806822e-05
0.4844157997 	2.235394704 	-0.02491637834 	-1.77678484e-05
0.4848754178 	2.251122422 	-0.02507956267 	-1.812140201e-05
0.4853436727 	2.266580288 	-0.02523918365 	-1.847883327e-05
0.4858207267 	2.281781586 	-0.02539536683 	-1.884024368e-05
0.486306745 	2.296738979 	-0.02554823074 	-1.92057321e-05
0.4868018963 	2.311464549 	-0.02569788726 	-1.95753949e-05
0.4873063519 	2.325969846 	-0.02584444215 	-1.994932596e-05
0.4878202868 	2.340265917 	-0.02598799532 	-2.032761676e-05
0.4883438791 	2.354363345 	-0.02612864125 	-2.071035631e-05
0.4888773101 	2.368272281 	-0.02626646928 	-2.109763116e-05
0.4894207647 	2.382002469 	-0.02640156413 	-2.14895255e-05
0.4899744314 	2.395563279 	-0.02653400353 	-2.188612234e-05
0.4905385018 	2.408966513 	-0.02666388503 	-2.228753255e-05
0.4911136478 	2.422230943 	-0.02679138325 	-2.269474468e-05
0.4917009343 	2.435368787 	-0.026916603 	-2.310926314e-05
0.4922992556 	2.448377234 	-0.02703949464 	-2.352878274e-05
0.4929088189 	2.461256724 	-0.02716004484 	-2.395329565e-05
0.4935298355 	2.474014859 	-0.02727831126 	-2.438286971e-05
0.4941625205 	2.486658986 	-0.02739434621 	-2.481756829e-05
0.4948070931 	2.499196204 	-0.02750819853 	-2.525745079e-05
0.4954637767 	2.511633369 	-0.02761991341 	-2.570257331e-05
0.4961327987 	2.523977099 	-0.02772953249 	-2.615298907e-05
0.4968143909 	2.536233786 	-0.02783709389 	-2.6608749e-05
0.4975087895 	2.548409611 	-0.02794263225 	-2.706990223e-05
0.498216235 	2.56051056 	-0.0280461789 	-2.753649597e-05
0.4989369726 	2.57254246 	-0.02814776212 	-2.800857531e-05
0.4996712519 	2.584511017 	-0.02824740784 	-2.848618348e-05
0.5004193273 	2.596421889 	-0.02834513854 	-2.896936288e-05
0.501181458 	2.608282127 	-0.02844097981 	-2.945816753e-05
0.5019582576 	2.620105996 	-0.02853503248 	-2.995330846e-05
0.5027515405 	2.631905064 	-0.0286273946 	-3.045738847e-05
0.5035597266 	2.645176936 	-0.02872959566 	-3.097620196e-05
0.5048004038 	2.661280561 	-0.02885039308 	-3.174294592e-05
0.5060549104 	2.678544066 	-0.02897657245 	-3.251846538e-05
0.5073234007 	2.69548329 	-0.02909674562 	-3.32932169e-05
0.5086060307 	2.712116344 	-0.02921104322 	-3.406698322e-05
0.509902958 	2.728459955 	-0.02931960636 	-3.483961149e-05
0.5112143421 	2.744529265 	-0.02942255445 	-3.561093996e-05
0.5125403441 	2.760347023 	-0.02952007221 	-3.638087502e-05
0.5138842543 	2.775934911 	-0.02961231734 	-3.715409023e-05
0.5152434821 	2.791294901 	-0.02969929539 	-3.792536639e-05
0.5166178584 	2.806427473 	-0.02978101893 	-3.869389352e-05
0.5180075522 	2.821342118 	-0.02985756627 	-3.945928306e-05
0.5194127343 	2.836049705 	-0.02992900958 	-4.022136886e-05
0.5208335775 	2.850562121 	-0.02999541879 	-4.098019265e-05
0.5222702564 	2.864894222 	-0.03005687977 	-4.173552205e-05
0.5237235394 	2.879069383 	-0.03011353421 	-4.248821617e-05
0.525195862 	2.893109128 	-0.03016550133 	-4.324117899e-05
0.5266845913 	2.907021177 	-0.03021283378 	-4.398964117e-05
0.5281899102 	2.920811796 	-0.03025560308 	-4.473352084e-05
0.5297120038 	2.934484175 	-0.0302938664 	-4.547272698e-05
0.5312510593 	2.948023934 	-0.03032757813 	-4.620693694e-05
0.5328072659 	2.961393182 	-0.0303565457 	-4.665324423e-05
0.5343811168 	2.974532419 	-0.03038044709 	-4.599802855e-05
0.5359755695 	2.987351354 	-0.03039874172 	-4.533353268e-05
0.5375877878 	2.999719843 	-0.03041062074 	-4.46627299e-05
0.5392179698 	3.011488895 	-0.03041506538 	-4.398337598e-05
0.5408663162 	3.02251035 	-0.03041089376 	-4.329331815e-05
0.5425330294 	3.032658247 	-0.03039699035 	-4.259106258e-05
0.5442183146 	3.041870843 	-0.03037339726 	-4.187623659e-05
0.5459241813 	3.050193131 	-0.03033947768 	-4.114890545e-05
0.5476505163 	3.057809891 	-0.03029650395 	-4.041354731e-05
0.5493960848 	3.064967243 	-0.03024927131 	-3.967539324e-05
0.5511611015 	3.071811454 	-0.03019850802 	-3.89386856e-05
0.5529457835 	3.078374137 	-0.03014324871 	-3.820454476e-05
0.5547503504 	3.084656213 	-0.0300844308 	-3.747264398e-05
0.5565765385 	3.090658636 	-0.03002216141 	-3.674189688e-05
0.5584246957 	3.096379247 	-0.02995628049 	-3.601334351e-05
0.5602934424 	3.101813373 	-0.02988682672 	-3.528952018e-05
0.5621830086 	3.106957882 	-0.0298138451 	-3.457073046e-05
0.5640936267 	3.111810979 	-0.02973736149 	-3.385720151e-05
0.5660255319 	3.116372451 	-0.02965739572 	-3.314907627e-05
0.5679814071 	3.120642367 	-0.02957396556 	-3.244413879e-05
0.5699596162 	3.124618344 	-0.02948713679 	-3.174563116e-05
0.5719598632 	3.128298537 	-0.02939700421 	-3.105440998e-05
0.5739823943 	3.131683357 	-0.02930365036 	-3.037064637e-05
0.5760274583 	3.134774952 	-0.02920714589 	-2.969445919e-05
0.5780967341 	3.137576873 	-0.02910755347 	-2.902464107e-05
0.5801904633 	3.140092839 	-0.02900496668 	-2.836246384e-05
0.5823075169 	3.142327704 	-0.02889952373 	-2.770976372e-05
0.5844481555 	3.144289499 	-0.02879135975 	-2.706673943e-05
0.5866126428 	3.145989598 	-0.02868058277 	-2.643353521e-05
0.5888025789 	3.147441163 	-0.02856727156 	-2.580919862e-05
0.5910182321 	3.148657161 	-0.02845151989 	-2.51950572e-05
0.5932585681 	3.149650084 	-0.02833344888 	-2.459271651e-05
0.5955238631 	3.150432415 	-0.02821315243 	-2.400229661e-05
0.5978143961 	3.151016475 	-0.02809067744 	-2.342381473e-05
0.6001323685 	3.151413966 	-0.02796604455 	-2.285611183e-05
0.6024767174 	3.151635836 	-0.02783931366 	-2.230148046e-05
0.6048471841 	3.151692647 	-0.02771055621 	-2.176041792e-05
0.6072440607 	3.151594455 	-0.02757979068 	-2.123284688e-05
0.6096683188 	3.151350595 	-0.02744701391 	-2.071818738e-05
0.6121211985 	3.15096979 	-0.02731223029 	-2.021677782e-05
0.6146014058 	3.150460347 	-0.02717546804 	-1.973014685e-05
0.6171092466 	3.149830055 	-0.02703675257 	-1.925812514e-05
0.6196451072 	3.14908592 	-0.02689606144 	-1.880039327e-05
0.6222112488 	3.14823431 	-0.02675336055 	-1.835627885e-05
0.6248059814 	3.147281402 	-0.02660866765 	-1.792772808e-05
0.6274296252 	3.146232918 	-0.02646199793 	-1.751445672e-05
0.6300825038 	3.145093729 	-0.02631332121 	-1.711608519e-05
0.6327668179 	3.143868166 	-0.02616259379 	-1.673193415e-05
0.6354810871 	3.142560557 	-0.02600982159 	-1.636369103e-05
0.6382256018 	3.14117484 	-0.02585501108 	-1.601097832e-05
0.6410008697 	3.139714143 	-0.02569812802 	-1.567322399e-05
0.6438086365 	3.138181217 	-0.02553913034 	-1.535025425e-05
0.6466476918 	3.136578918 	-0.02537802043 	-1.504318686e-05
0.6495183863 	3.134909685 	-0.02521479547 	-1.475149309e-05
0.6524216739 	3.133175288 	-0.02504941933 	-1.447442841e-05
0.6553582862 	3.131377374 	-0.02488186384 	-1.421261215e-05
0.6583276269 	3.129517648 	-0.02471213293 	-1.396627003e-05
0.6613300628 	3.127597305 	-0.02454021486 	-1.373475392e-05
0.6643671144 	3.125617102 	-0.02436607687 	-1.351753402e-05
0.667438269 	3.12357799 	-0.02418971872 	-1.331556081e-05
0.6705436562 	3.12148074 	-0.02401115233 	-1.312828162e-05
0.6736841531 	3.119325646 	-0.02383037158 	-1.295493431e-05
0.6768604108 	3.11711299 	-0.02364738099 	-1.279613174e-05
0.6800720757 	3.11484322 	-0.02346222433 	-1.265180901e-05
0.6833196559 	3.11251646 	-0.02327494811 	-1.252123859e-05
0.6866044312 	3.110132715 	-0.02308560932 	-1.240461342e-05
0.689925827 	3.107692446 	-0.02289433239 	-1.230247001e-05
0.6932842545 	3.105196081 	-0.02270128509 	-1.221431176e-05
0.6966810183 	3.102644123 	-0.02250668211 	-1.214029614e-05
0.7001157291 	3.100037919 	-0.02231086811 	-1.208219486e-05
0.7035887392 	3.097379368 	-0.02211440705 	-1.203981686e-05
0.7071011956 	3.094670051 	-0.02191775929 	-1.20096052e-05
0.7106529404 	3.091907797 	-0.0217207963 	-1.198768248e-05
0.7142442945 	3.08908446 	-0.02152274487 	-1.196974187e-05
0.7178763468 	3.086191125 	-0.02132248143 	-1.195606667e-05
0.7215489841 	3.083222468 	-0.02111927133 	-1.1950713e-05
0.7252625989 	3.080175228 	-0.020912938 	-1.195366192e-05
0.7290182397 	3.077046737 	-0.02070340876 	-1.196452373e-05
0.7328157714 	3.073843353 	-0.02049118936 	-1.198369292e-05
0.7366134126 	3.070590906 	-0.02027805589 	-1.200925195e-05
0.7403695195 	3.067316611 	-0.02006580753 	-1.204009599e-05
0.7440841637 	3.064029602 	-0.01985502461 	-1.207570412e-05
0.7477579729 	3.060730147 	-0.01964571883 	-1.211476111e-05
0.7513914685 	3.057418342 	-0.01943789016 	-1.21570897e-05
0.7549848602 	3.054094214 	-0.01923154391 	-1.220175267e-05
0.7585387501 	3.050757551 	-0.01902668047 	-1.224776971e-05
0.7620535769 	3.047408015 	-0.0188232922 	-1.229509555e-05
0.7655296137 	3.044045163 	-0.01862137506 	-1.234294152e-05
0.768967409 	3.040668306 	-0.01842091983 	-1.239054385e-05
0.7723673936 	3.037276591 	-0.01822190909 	-1.243793641e-05
0.775729859 	3.033869011 	-0.01802432806 	-1.248451829e-05
0.7790552892 	3.030444274 	-0.01782815769 	-1.252965645e-05
0.7823441444 	3.027000855 	-0.01763337046 	-1.257341776e-05
0.7855967093 	3.023537051 	-0.01743994128 	-1.261541074e-05
0.7888134047 	3.020050864 	-0.01724784281 	-1.265510349e-05
0.7919947311 	3.016540041 	-0.01705704025 	-1.269250271e-05
0.7951409556 	3.013002187 	-0.01686750079 	-1.272746356e-05
0.7982524668 	3.009434686 	-0.01667919235 	-1.275957056e-05
0.8013297317 	3.005834723 	-0.01649207842 	-1.278865782e-05
0.8043730674 	3.002199407 	-0.01630612206 	-1.281484044e-05
0.8073828264 	2.998525772 	-0.01612128933 	-1.283781733e-05
0.8103594037 	2.994810756 	-0.01593754569 	-1.285733428e-05
0.8133031956 	2.991051281 	-0.01575485366 	-1.287354217e-05
0.8162145099 	2.987244313 	-0.01557317832 	-1.288634192e-05
0.8190937056 	2.983386817 	-0.01539248648 	-1.289552457e-05
0.8219411765 	2.979475763 	-0.01521274254 	-1.290101793e-05
0.8247572507 	2.975508174 	-0.01503391003 	-1.290299054e-05
0.8275422578 	2.971481104 	-0.01485595406 	-1.290131147e-05
0.8302965409 	2.967391578 	-0.01467883952 	-1.289584981e-05
0.8330204758 	2.963236581 	-0.01450252827 	-1.288665414e-05
0.8357143636 	2.959013065 	-0.01432698143 	-1.287384004e-05
0.838378533 	2.954717889 	-0.01415216044 	-1.285731533e-05
0.8410133121 	2.950347755 	-0.01397802527 	-1.283700331e-05
0.8436190526 	2.945899196 	-0.01380453301 	-1.281299045e-05
0.8461960476 	2.941368572 	-0.01363163983 	-1.278537605e-05
0.8487446143 	2.93675203 	-0.01345930199 	-1.27541087e-05
0.8512650663 	2.932045461 	-0.01328747479 	-1.271914915e-05
0.8537577304 	2.927244516 	-0.01311611201 	-1.268056255e-05
0.8562228989 	2.922344624 	-0.01294516718 	-1.263847333e-05
0.8586608727 	2.917340998 	-0.01277459513 	-1.259286195e-05
0.8610719522 	2.912228643 	-0.01260435203 	-1.254371696e-05
0.8634564411 	2.907002397 	-0.01243439517 	-1.249106673e-05
0.8658146308 	2.901656987 	-0.01226468366 	-1.243505813e-05
0.8681468062 	2.896187082 	-0.01209518042 	-1.237571323e-05
0.8704532543 	2.890587345 	-0.01192585321 	-1.231304458e-05
0.8727342594 	2.884852494 	-0.01175667436 	-1.224707244e-05
0.8749901093 	2.878977377 	-0.01158762167 	-1.217790529e-05
0.8772210738 	2.872957061 	-0.01141867951 	-1.210564146e-05
0.8794274275 	2.866786892 	-0.01124984031 	-1.203031499e-05
0.8816094419 	2.860462561 	-0.01108110453 	-1.195196668e-05
0.8837673868 	2.853980169 	-0.01091248103 	-1.187064796e-05
0.8859015299 	2.847336288 	-0.01074398688 	-1.178649053e-05
0.8880121301 	2.840528008 	-0.01057564796 	-1.169957576e-05
0.8900994471 	2.833552967 	-0.01040749919 	-1.160995898e-05
0.8921637379 	2.826409361 	-0.0102395834 	-1.151769874e-05
0.894205257 	2.819095944 	-0.0100719509 	-1.124438565e-05
0.8962242572 	2.81161202 	-0.00990465822 	-1.094833522e-05
0.8982209844 	2.803957414 	-0.009737767357 	-1.065863646e-05
0.9001956845 	2.796132426 	-0.009571345178 	-1.037518928e-05
0.9021486004 	2.788137771 	-0.009405461626 	-1.00978916e-05
0.9040799724 	2.779974517 	-0.009240188639 	-9.826639614e-06
0.9059900395 	2.771644016 	-0.009075598902 	-9.561300075e-06
0.9078790355 	2.763147835 	-0.008911764477 	-9.301729524e-06
0.9097471924 	2.75448768 	-0.008748756286 	-9.047823296e-06
0.9115947402 	2.745665323 	-0.008586643107 	-8.79947632e-06
0.9134219063 	2.736682534 	-0.008425490448 	-8.556582393e-06
0.9152289156 	2.727541017 	-0.00826536027 	-8.319033723e-06
0.9170159908 	2.718242359 	-0.008106310093 	-8.086691485e-06
0.9187833512 	2.708787978 	-0.007948392735 	-7.859437839e-06
0.9205312141 	2.699179082 	-0.00779165649 	-7.63716931e-06
0.9222597947 	2.689416626 	-0.007636144629 	-7.419782836e-06
0.9239693056 	2.679501287 	-0.007481895359 	-7.207175857e-06
0.9256599573 	2.669433437 	-0.007328942081 	-6.999246222e-06
0.9273319579 	2.659213116 	-0.007177313206 	-6.795872203e-06
0.9289855128 	2.648840018 	-0.007027032328 	-6.596945504e-06
0.9306208255 	2.638313472 	-0.006878118744 	-6.402369649e-06
0.9322380971 	2.627632422 	-0.006730587426 	-6.212049339e-06
0.9338375268 	2.616795411 	-0.006584449175 	-6.025890378e-06
0.9354193112 	2.605800561 	-0.00643971094 	-5.843799841e-06
0.936983645 	2.59464555 	-0.006296376059 	-5.665680663e-06
0.9385307208 	2.583327589 	-0.006154444206 	-5.491428458e-06
0.9400607287 	2.571843388 	-0.006013911762 	-5.320954364e-06
0.941573857 	2.560189126 	-0.005874772115 	-5.154171715e-06
0.9430702919 	2.548360401 	-0.005737015559 	-4.990994851e-06
0.9445502175 	2.536352185 	-0.005600629482 	-4.831339167e-06
0.9460138159 	2.524158762 	-0.005465598507 	-4.675121112e-06
0.9474612672 	2.511773662 	-0.005331904599 	-4.522254673e-06
0.9488927496 	2.499189576 	-0.005199526936 	-4.372649867e-06
0.950308439 	2.486398275 	-0.005068442087 	-4.226226201e-06
0.9517085097 	2.473390498 	-0.004938624139 	-4.08290453e-06
0.953093134 	2.460155847 	-0.004810044531 	-3.94260631e-06
0.9544624823 	2.446682662 	-0.004682672104 	-3.805253567e-06
0.955816723 	2.432957902 	-0.004556473074 	-3.670768755e-06
0.9571560227 	2.418967024 	-0.004431411093 	-3.539074656e-06
0.9584805463 	2.404693897 	-0.004307447045 	-3.410089824e-06
0.9597904568 	2.390120754 	-0.004184538975 	-3.283735368e-06
0.9610859153 	2.375228259 	-0.004062644366 	-3.159936691e-06
0.9623670812 	2.359995731 	-0.003941720703 	-3.038622374e-06
0.9636341121 	2.345736537 	-0.003831823365 	-2.927456829e-06
0.96445946 	2.333947339 	-0.003743318834 	-2.842840642e-06
0.965269583 	2.323429661 	-0.003666116333 	-2.767769389e-06
0.9660647622 	2.312847728 	-0.003590116347 	-2.69447602e-06
0.9668452732 	2.302195233 	-0.003515281047 	-2.6229002e-06
0.9676113864 	2.291466242 	-0.003441576217 	-2.552986236e-06
0.9683633675 	2.280655033 	-0.00336896952 	-2.484680738e-06
0.9691014771 	2.26975599 	-0.003297429444 	-2.417933039e-06
0.969825971 	2.258763518 	-0.003226925368 	-2.352694824e-06
0.9705371005 	2.247671996 	-0.003157427574 	-2.288919327e-06
0.971235112 	2.236475737 	-0.00308890721 	-2.226560915e-06
0.9719202475 	2.22516896 	-0.00302133625 	-2.165574782e-06
0.9725927445 	2.21374577 	-0.002954687452 	-2.105916931e-06
0.9732528361 	2.202200134 	-0.00288893432 	-2.047544569e-06
0.9739007511 	2.190525871 	-0.00282405109 	-1.990416686e-06
0.9745367142 	2.17871663 	-0.002760012743 	-1.934494526e-06
0.9751609457 	2.166765882 	-0.002696794995 	-1.879741882e-06
0.9757736621 	2.1546669 	-0.00263437429 	-1.82612475e-06
0.9763750758 	2.142412747 	-0.002572727789 	-1.773610455e-06
0.9769653953 	2.129996256 	-0.002511833384 	-1.722166988e-06
0.9775448252 	2.117410014 	-0.002451669721 	-1.671762785e-06
0.9781135664 	2.104646339 	-0.002392216248 	-1.622366803e-06
0.978671816 	2.091697268 	-0.002333453226 	-1.573948572e-06
0.9792197676 	2.078554529 	-0.002275361751 	-1.526478852e-06
0.979757611 	2.065209532 	-0.002217923767 	-1.479929821e-06
0.9802855329 	2.051653342 	-0.002161122075 	-1.434275083e-06
0.9808037161 	2.037876662 	-0.00210494033 	-1.389489696e-06
0.9813123404 	2.023869809 	-0.002049363056 	-1.345550143e-06
0.981811582 	2.009622695 	-0.001994375658 	-1.302434273e-06
0.982301614 	1.995124796 	-0.001939964438 	-1.260121234e-06
0.9827826063 	1.980365126 	-0.001886116621 	-1.218591415e-06
0.9832547256 	1.965332206 	-0.001832820378 	-1.177826398e-06
0.9837181357 	1.950014029 	-0.001780064855 	-1.137808919e-06
0.9841729971 	1.934398022 	-0.001727840206 	-1.098522833e-06
0.9846194676 	1.918471002 	-0.001676137621 	-1.059953093e-06
0.985057702 	1.902219125 	-0.001624949361 	-1.022085723e-06
0.9854878521 	1.885627836 	-0.001574268794 	-9.849077971e-07
0.9859100671 	1.868681805 	-0.00152409043 	-9.484074224e-07
0.9863244933 	1.851364858 	-0.001474409951 	-9.125737186e-07
0.9867312745 	1.8336599 	-0.001425224254 	-8.77396804e-07
0.9871305517 	1.815548827 	-0.001376531482 	-8.428677823e-07
0.9875224632 	1.797012432 	-0.00132833106 	-8.089787334e-07
0.987907145 	1.778030293 	-0.001280623737 	-7.757227066e-07
0.9882847305 	1.758580652 	-0.001233411616 	-7.430937172e-07
0.9886553504 	1.738640279 	-0.001186698197 	-7.110867468e-07
0.9890191334 	1.718184321 	-0.001140488413 	-6.7969772e-07
0.9893762055 	1.697186134 	-0.001094788667 	-6.489235498e-07
0.9897266905 	1.675617094 	-0.001049606877 	-6.187621258e-07
0.9900707099 	1.653446391 	-0.001004952506 	-5.892122998e-07
0.9904083831 	1.6306408 	-0.0009608366106 	-5.602738745e-07
0.990739827 	1.607164419 	-0.0009172720717 	-5.319475828e-07
0.9910651566 	1.582978379 	-0.0008742733975 	-5.042351253e-07
0.9913844847 	1.558040481 	-0.0008318561929 	-4.771390801e-07
0.9916979219 	1.532304796 	-0.0007900380684 	-4.506627365e-07
0.992005577 	1.505721302 	-0.0007488391979 	-4.24810344e-07
0.9923075566 	1.478235639 	-0.0007082812188 	-3.995871688e-07
0.9926039654 	1.449788845 	-0.0006683880893 	-3.749991951e-07
0.9928949062 	1.420317038 	-0.0006291879938 	-3.510532233e-07
0.9931804798 	1.389751108 	-0.0005906969022 	-3.277569988e-07
0.9934607853 	1.358016558 	-0.0005528801596 	-3.051190967e-07
0.9937359198 	1.327901124 	-0.0005189776991 	-2.849359281e-07
0.9939129954 	1.302607183 	-0.0004920204334 	-2.690649393e-07
0.9940900712 	1.279455475 	-0.0004684183424 	-2.552030224e-07
0.994267147 	1.255364646 	-0.0004448679548 	-2.414779929e-07
0.9944442229 	1.230272125 	-0.0004214247362 	-2.27901404e-07
0.9946212988 	1.204108871 	-0.0003981163692 	-2.144857827e-07
0.9947983749 	1.176798592 	-0.0003749647045 	-2.012444997e-07
0.994975451 	1.14825997 	-0.0003519961821 	-1.881924619e-07
0.9951525272 	1.11840777 	-0.0003292409336 	-1.75346322e-07
0.9953296034 	1.087151164 	-0.0003067314547 	-1.62723816e-07
0.9955066797 	1.054392682 	-0.0002845032961 	-1.503439144e-07
0.9956837561 	1.020028535 	-0.0002625960799 	-1.382272534e-07
0.9958608326 	0.9839495898 	-0.0002410547377 	-1.263961734e-07
0.9960379092 	0.9460429825 	-0.0002199213656 	-1.148720831e-07
0.9962149858 	0.9061945395 	-0.0001992099066 	-1.036767861e-07
0.9963920625 	0.8642922819 	-0.0001789672316 	-9.285726989e-08
0.9965691392 	0.8202309597 	-0.0001601956597 	-8.27045903e-08
0.9967462161 	0.7739143941 	-0.0001430898627 	-7.237607942e-08
0.996923293 	0.7252110183 	-0.0001226505966 	-6.227565907e-08
0.99710037 	0.6738668009 	-0.0001006855177 	-5.390454768e-08
0.997277447 	0.6196504536 	-8.522277623e-05 	-4.564661407e-08
0.9974545241 	0.5626548442 	-7.269960423e-05 	-3.730354111e-08
0.9976316013 	0.5032888126 	-5.962466631e-05 	-2.992669209e-08
0.9978086786 	0.4421108265 	-4.760205612e-05 	-2.320002126e-08
0.997985756 	0.3797210908 	-3.613516425e-05 	-1.722538718e-08
0.9981628334 	0.316647268 	-2.550453294e-05 	-1.208786349e-08
0.9983399109 	0.2532745886 	-1.63720192e-05 	-7.824575592e-09
0.9985169884 	0.1898374442 	-9.190141575e-06 	-4.449808711e-09
0.9986940661 	0.1264533589 	-4.078828375e-06 	-1.989001041e-09
0.9988711438 	0.06316923509 	-1.301666878e-06 	-7.594297607e-10
0.9990482216 	0.02641840428 	-4.715186879e-07 	-4.410540492e-10
