0.4709558481 	0.03082645395 	6.035810441e-09 	-8.478538131e-13
0.4711314108 	0.08476466021 	1.392004892e-07 	-9.639474037e-12
0.4713069734 	0.1694339754 	6.648697889e-07 	-3.734195592e-11
0.471482536 	0.2539775146 	1.874127601e-06 	-8.715350245e-11
0.4716580986 	0.3382817463 	3.913044959e-06 	-1.579008311e-10
0.4718336613 	0.4220671137 	6.249907924e-06 	-2.420244284e-10
0.4720092239 	0.5048031846 	7.623493805e-06 	-3.298258881e-10
0.4721847865 	0.5856925196 	7.360691757e-06 	-4.24328718e-10
0.4723603491 	0.6637841142 	5.665197462e-06 	-4.600474937e-10
0.4725359118 	0.738194922 	2.479185472e-06 	-6.662508568e-10
0.4727114744 	0.8083730552 	6.788347712e-06 	-9.905913466e-10
0.472887037 	0.8743601337 	1.751613136e-05 	-1.059195084e-09
0.4730625996 	0.9365817622 	2.015102262e-05 	-1.167487278e-09
0.4732381623 	0.9953409078 	1.985301042e-05 	-1.412793642e-09
0.4734137249 	1.050801082 	2.295459439e-05 	-1.62014561e-09
0.4735892875 	1.103142469 	2.619611326e-05 	-1.836167983e-09
0.4737648501 	1.152559162 	2.945589818e-05 	-2.064257507e-09
0.4739404128 	1.199249488 	3.282067846e-05 	-2.303560799e-09
0.4741159754 	1.243408605 	3.631890269e-05 	-2.553395758e-09
0.474291538 	1.285223609 	3.994747879e-05 	-2.813631547e-09
0.4744671006 	1.324870496 	4.370469789e-05 	-3.084179798e-09
0.4746426632 	1.362512574 	4.758990714e-05 	-3.364960675e-09
0.4748182259 	1.398300598 	5.160193653e-05 	-3.655894094e-09
0.4749937885 	1.432376328 	5.573879964e-05 	-3.956928358e-09
0.4751693511 	1.464872894 	5.999912379e-05 	-4.268085845e-09
0.4753449137 	1.495910006 	6.438258899e-05 	-4.589423915e-09
0.4755204764 	1.525594238 	6.888894371e-05 	-4.921002768e-09
0.475696039 	1.554022359 	7.351892277e-05 	-5.262903523e-09
0.4758716016 	1.58128274 	7.82652937e-05 	-5.615178031e-09
0.4760471642 	1.607456482 	8.30896495e-05 	-5.977669637e-09
0.4762227269 	1.636034985 	8.872610415e-05 	-6.403013029e-09
0.4764955107 	1.670050819 	9.611384147e-05 	-6.955006024e-09
0.4767734216 	1.705894768 	0.0001046246225 	-7.595087809e-09
0.4770565557 	1.740433164 	0.000113521732 	-8.275103713e-09
0.4773450114 	1.773763857 	0.0001228961259 	-8.99766037e-09
0.4776388886 	1.80597703 	0.0001327822042 	-9.765191226e-09
0.4779382892 	1.83715532 	0.0001431988536 	-1.058004054e-08
0.4782433171 	1.867374182 	0.0001541690767 	-1.144472768e-08
0.4785540779 	1.896702406 	0.0001657196908 	-1.236198273e-08
0.4788706795 	1.925202803 	0.0001778785304 	-1.333458305e-08
0.4791932316 	1.952932909 	0.0001906741529 	-1.436534757e-08
0.4795218461 	1.979945582 	0.0002041367825 	-1.545719028e-08
0.4798566368 	2.006289498 	0.0002182983405 	-1.661310462e-08
0.48019772 	2.03200959 	0.0002331923054 	-1.783614681e-08
0.4805452138 	2.057147425 	0.0002488537398 	-1.912942705e-08
0.4808992388 	2.081741544 	0.0002653193174 	-2.049609941e-08
0.4812599177 	2.10582776 	0.0002826273394 	-2.193935006e-08
0.4816273755 	2.129439421 	0.000300817744 	-2.346238395e-08
0.4820017397 	2.152607644 	0.0003199321106 	-2.50684098e-08
0.48238314 	2.175361518 	0.0003400136557 	-2.676062344e-08
0.4827717088 	2.19772829 	0.0003611072203 	-2.854218919e-08
0.4831675807 	2.219733517 	0.0003832592476 	-3.04162193e-08
0.4835708931 	2.24140121 	0.0004065177492 	-3.238575128e-08
0.4839817856 	2.262753953 	0.000430932259 	-3.445372307e-08
0.4844004009 	2.283813005 	0.0004565537726 	-3.662294605e-08
0.4848268841 	2.304598395 	0.0004834346713 	-3.889607568e-08
0.485261383 	2.325128994 	0.0005116286295 	-4.127557983e-08
0.4857040484 	2.345422585 	0.0005411905018 	-4.376370473e-08
0.4861550336 	2.36549591 	0.0005721761909 	-4.636243835e-08
0.4866144951 	2.385364723 	0.0006046424915 	-4.907347112e-08
0.4870825921 	2.405043815 	0.000638646911 	-5.189815383e-08
0.487559487 	2.42454705 	0.0006742474624 	-5.483745252e-08
0.4880453452 	2.443887377 	0.0007115024298 	-5.789190029e-08
0.4885403351 	2.463076842 	0.0007504701036 	-6.10615466e-08
0.4890446283 	2.482126599 	0.0007912084835 	-6.434590459e-08
0.4895583997 	2.501046904 	0.0008337749491 	-6.774389831e-08
0.4900818274 	2.519847113 	0.0008782258963 	-7.125381116e-08
0.4906150929 	2.538535673 	0.0009246163402 	-7.487323688e-08
0.4911583811 	2.55712011 	0.0009729994855 	-7.85990321e-08
0.4917118805 	2.575607017 	0.001023426268 	-8.242726615e-08
0.4922757829 	2.594002044 	0.001075944873 	-8.635316126e-08
0.4928502838 	2.612309889 	0.001130600251 	-9.037101796e-08
0.4934355824 	2.630534302 	0.00118743364 	-9.447413372e-08
0.4940318817 	2.648678098 	0.001246482135 	-9.865475236e-08
0.4946393885 	2.666743192 	0.001307778354 	-1.029041261e-07
0.4952583133 	2.684730657 	0.001371350217 	-1.072128092e-07
0.4958888709 	2.702640827 	0.001437220907 	-1.115712838e-07
0.4965312797 	2.720473427 	0.001505408985 	-1.159708827e-07
0.4971857627 	2.738227753 	0.001575928625 	-1.204046557e-07
0.4978525466 	2.755902867 	0.001648789776 	-1.248673057e-07
0.4985318627 	2.77349774 	0.001723997808 	-1.293528805e-07
0.4992239466 	2.791011203 	0.001801552196 	-1.338501084e-07
0.4999290382 	2.808441374 	0.001881447306 	-1.383437411e-07
0.5006473819 	2.825783974 	0.001963661981 	-1.427861037e-07
0.501379227 	2.843028454 	0.002048120088 	-1.470757402e-07
0.502124827 	2.860151819 	0.002134656308 	-1.511099963e-07
0.5028844406 	2.877113266 	0.002222992702 	-1.547703994e-07
0.5036583311 	2.893852829 	0.002312702827 	-1.578897852e-07
0.5044467669 	2.910292857 	0.002403216105 	-1.60307464e-07
0.5052500214 	2.926339369 	0.002493896358 	-1.618638629e-07
0.506068373 	2.943827672 	0.002595472586 	-1.623576833e-07
0.507324668 	2.964002429 	0.002716384148 	-1.608997089e-07
0.5085949819 	2.984144735 	0.002841327826 	-1.57131547e-07
0.5098794711 	3.00222685 	0.002956034558 	-1.509147203e-07
0.5111782938 	3.018329181 	0.00306202353 	-1.483158357e-07
0.5124916099 	3.032785728 	0.003162100546 	-1.476625457e-07
0.5138195812 	3.046046648 	0.003254014558 	-1.427754611e-07
0.5151623712 	3.058366455 	0.003340735763 	-1.413183453e-07
0.5165201452 	3.069786377 	0.003425032584 	-1.410798584e-07
0.5178930705 	3.080297238 	0.003504378319 	-1.378979619e-07
0.5192813161 	3.089897087 	0.003578073033 	-1.347281287e-07
0.520685053 	3.098594013 	0.00364595178 	-1.309133235e-07
0.522104454 	3.106406415 	0.003707697949 	-1.265100604e-07
0.523539694 	3.113362179 	0.003763116061 	-1.216789096e-07
0.5249909497 	3.119496902 	0.003812141353 	-1.165454962e-07
0.5264583998 	3.124851705 	0.003854752676 	-1.111516881e-07
0.527942225 	3.129472035 	0.003891018688 	-1.056939466e-07
0.5294426081 	3.133412489 	0.003921247823 	-1.004540682e-07
0.5309597337 	3.136743111 	0.003945886078 	-9.558395564e-08
0.5324937889 	3.139542565 	0.003965479302 	-9.124352545e-08
0.5340449624 	3.141884289 	0.003980664912 	-8.74612271e-08
0.5356134452 	3.143830759 	0.003991993712 	-8.411547196e-08
0.5371994306 	3.145434323 	0.003999904353 	-8.113571845e-08
0.5388031139 	3.146738907 	0.004004779098 	-7.84808376e-08
0.5404246925 	3.147781471 	0.004006948156 	-7.610840929e-08
0.5420643661 	3.148593214 	0.004006695073 	-7.398174543e-08
0.5437223366 	3.149200557 	0.004004263922 	-7.206960232e-08
0.5453988083 	3.14962596 	0.003999865323 	-7.034487195e-08
0.5470939875 	3.14988858 	0.003993680667 	-6.878147226e-08
0.5488080831 	3.150004827 	0.00398586936 	-6.737228176e-08
0.5505413061 	3.149988858 	0.003976567409 	-6.607815711e-08
0.5522938699 	3.149852823 	0.003965893122 	-6.489117853e-08
0.5540659904 	3.14960718 	0.003953952518 	-6.38116329e-08
0.5558578859 	3.149261065 	0.003940835268 	-6.281113611e-08
0.5576697768 	3.14882244 	0.003926621126 	-6.188907171e-08
0.5595018865 	3.148298257 	0.003911380358 	-6.103315814e-08
0.5613544406 	3.147694603 	0.003895173829 	-6.023671851e-08
0.563227667 	3.147016824 	0.003878055457 	-5.949273124e-08
0.5651217966 	3.14626962 	0.003860072489 	-5.879525789e-08
0.5670370626 	3.145457133 	0.003841266392 	-5.813905398e-08
0.5689737009 	3.144583014 	0.003821673528 	-5.751944e-08
0.5709319499 	3.143650488 	0.003801325726 	-5.693221913e-08
0.5729120508 	3.142662403 	0.003780250773 	-5.63736071e-08
0.5749142474 	3.141621273 	0.003758472835 	-5.584017282e-08
0.5769387863 	3.14052932 	0.003736012828 	-5.532878943e-08
0.5789859169 	3.139388501 	0.003712888733 	-5.483659357e-08
0.5810558911 	3.138200538 	0.003689115881 	-5.436095116e-08
0.583148964 	3.136966946 	0.00366470719 	-5.389942833e-08
0.5852653933 	3.135689049 	0.003639673384 	-5.344976672e-08
0.5874054395 	3.134367999 	0.003614023183 	-5.300986232e-08
0.5895693664 	3.133004798 	0.003587763468 	-5.257774729e-08
0.5917574402 	3.131600303 	0.003560899435 	-5.215157439e-08
0.5939699306 	3.130155247 	0.003533434726 	-5.172960355e-08
0.5962071099 	3.128670246 	0.003505371556 	-5.131019041e-08
0.5984692536 	3.127145809 	0.003476710818 	-5.089177642e-08
0.6007566404 	3.125582348 	0.003447452188 	-5.047288041e-08
0.6030695519 	3.123980185 	0.003417594213 	-5.005209136e-08
0.6054082729 	3.122339561 	0.003387134403 	-4.962806222e-08
0.6077730914 	3.120660638 	0.003356069305 	-4.919950466e-08
0.6101642987 	3.11894351 	0.003324394581 	-4.876518458e-08
0.6125821893 	3.117188204 	0.003292105078 	-4.832391826e-08
0.6150270608 	3.115394689 	0.003259194892 	-4.787456914e-08
0.6174992144 	3.113562874 	0.003225657436 	-4.741604503e-08
0.6199989545 	3.111692619 	0.003191485495 	-4.694729573e-08
0.622526589 	3.10978373 	0.003156671289 	-4.646731113e-08
0.625082429 	3.107835972 	0.003121206525 	-4.597511946e-08
0.6276667894 	3.105849064 	0.003085082456 	-4.546978595e-08
0.6302799884 	3.103822683 	0.003048289926 	-4.495041176e-08
0.6329223478 	3.101756469 	0.003010819431 	-4.441613309e-08
0.6355941931 	3.099650024 	0.002972661159 	-4.386612063e-08
0.6382958531 	3.097502915 	0.002933805043 	-4.329957928e-08
0.6410276607 	3.095314674 	0.002894240807 	-4.271574818e-08
0.6437899523 	3.093084804 	0.002853958012 	-4.211390105e-08
0.646583068 	3.090812771 	0.002812946099 	-4.149334699e-08
0.6494073518 	3.088498013 	0.002771194435 	-4.08534317e-08
0.6522631514 	3.086139937 	0.002728692351 	-4.019353923e-08
0.6551508186 	3.083737919 	0.002685429186 	-3.951309436e-08
0.658070709 	3.081291306 	0.002641394324 	-3.881156564e-08
0.6610231822 	3.078799414 	0.002596577232 	-3.808846919e-08
0.6640086017 	3.076261528 	0.002550967498 	-3.734337339e-08
0.6670273351 	3.073676901 	0.002504554864 	-3.657590443e-08
0.6700797543 	3.071044757 	0.00245732926 	-3.578575282e-08
0.6731662352 	3.068364284 	0.002409280834 	-3.497268096e-08
0.6762871577 	3.065634638 	0.002360399983 	-3.413653163e-08
0.6794429063 	3.062854936 	0.002310677375 	-3.327723747e-08
0.6826338695 	3.060024264 	0.002260103979 	-3.239483127e-08
0.6858604404 	3.057141662 	0.002208671084 	-3.148945709e-08
0.6891230163 	3.054206135 	0.002156370316 	-3.056138172e-08
0.6924219988 	3.051216642 	0.002103193655 	-2.961100651e-08
0.6957577944 	3.048172095 	0.002049133442 	-2.863887897e-08
0.6991308138 	3.045071362 	0.001994182389 	-2.764570381e-08
0.7025414724 	3.041913255 	0.001938333575 	-2.663235291e-08
0.7059901901 	3.038696535 	0.001881580445 	-2.559987351e-08
0.7094773917 	3.035419904 	0.001823916795 	-2.454949414e-08
0.7130035066 	3.032082002 	0.001765336754 	-2.348262736e-08
0.7165689691 	3.028681403 	0.001705834757 	-2.24008687e-08
0.7201742182 	3.025216614 	0.001645405508 	-2.130599099e-08
0.7238196978 	3.021686067 	0.001584043937 	-2.019993352e-08
0.727505857 	3.018088112 	0.001521745136 	-1.908478477e-08
0.7312331497 	3.01442102 	0.001458504366 	-1.796275863e-08
0.7350020349 	3.01069294 	0.001394487822 	-1.683914957e-08
0.7387709215 	3.006934413 	0.001330241705 	-1.572569707e-08
0.7424982157 	3.003176927 	0.001266318811 	-1.463367092e-08
0.7461843763 	2.999430474 	0.001202898237 	-1.356735356e-08
0.7498298574 	2.995695086 	0.001139987527 	-1.252778891e-08
0.7534351078 	2.991970766 	0.00107759299 	-1.15157668e-08
0.7570005716 	2.988257494 	0.001015719857 	-1.053183423e-08
0.7605266877 	2.984555225 	0.0009543723666 	-9.576306516e-09
0.7640138905 	2.980863888 	0.0008935538647 	-8.64927957e-09
0.7674626093 	2.977183389 	0.0008332669087 	-7.750642372e-09
0.770873269 	2.973513607 	0.0007735133736 	-6.880089241e-09
0.7742462894 	2.969854395 	0.0007142945583 	-6.037131816e-09
0.777582086 	2.966205578 	0.0006556112925 	-5.221110688e-09
0.7808810695 	2.962566954 	0.0005974640416 	-4.431206684e-09
0.7841436462 	2.958938291 	0.0005398530097 	-3.666451851e-09
0.787370218 	2.955319327 	0.0004827782393 	-2.925740201e-09
0.7905611821 	2.951709768 	0.0004262397078 	-2.207838291e-09
0.7937169314 	2.948109288 	0.0003702374186 	-1.511395713e-09
0.7968378547 	2.944517525 	0.0003147714887 	-8.34955557e-10
0.7999243362 	2.940934082 	0.0002598422302 	-1.769649112e-10
0.8029767561 	2.937358524 	0.0002054502261 	4.64214571e-10
0.8059954902 	2.933790377 	0.0001515964001 	1.090296038e-09
0.8089809102 	2.930229129 	9.828208087e-05 	1.703056537e-09
0.8119333839 	2.926674222 	4.550906039e-05 	2.304326289e-09
0.8148532749 	2.923125059 	-6.720355112e-06 	2.895977887e-09
0.8177409426 	2.919580995 	-5.840330297e-05 	3.479914999e-09
0.8205967427 	2.916041342 	-0.0001095363231 	4.058061485e-09
0.8234210268 	2.912505362 	-0.0001601153235 	4.632350869e-09
0.8262141429 	2.908972269 	-0.0002101355569 	5.204715423e-09
0.8289764348 	2.905441228 	-0.0002595916001 	5.777075524e-09
0.8317082427 	2.901911349 	-0.0003084773374 	6.351329498e-09
0.8344099031 	2.898381693 	-0.000356785951 	6.929343628e-09
0.8370817486 	2.894851266 	-0.0004045099162 	7.51294253e-09
0.8397241082 	2.891319015 	-0.000451641001 	8.10389994e-09
0.8423373074 	2.887783836 	-0.0004981702696 	8.703929896e-09
0.844921668 	2.884244561 	-0.0005440880902 	9.314678347e-09
0.8474775082 	2.880699967 	-0.0005893841466 	9.93771519e-09
0.8500051427 	2.877148766 	-0.0006340474527 	1.05745267e-08
0.8525048829 	2.873589611 	-0.0006780663702 	1.122650832e-08
0.8549770366 	2.87002109 	-0.0007214286292 	1.189495782e-08
0.8574219081 	2.866441723 	-0.0007641213514 	1.258106863e-08
0.8598397987 	2.862849966 	-0.0008061310758 	1.328592349e-08
0.862231006 	2.859244204 	-0.0008474437864 	1.401048814e-08
0.8645958245 	2.855622751 	-0.0008880449433 	1.475560511e-08
0.8669345455 	2.851983849 	-0.0009279195149 	1.552198751e-08
0.8692474569 	2.848325666 	-0.0009670520134 	1.631021279e-08
0.8715348435 	2.844646292 	-0.001005426533 	1.712071634e-08
0.8737969871 	2.840943738 	-0.001043026791 	1.795378505e-08
0.8760341663 	2.837215936 	-0.00107983617 	1.880955066e-08
0.8782466565 	2.833460732 	-0.001115837772 	1.968798296e-08
0.8804347301 	2.829675889 	-0.001151014461 	2.058888262e-08
0.8825986568 	2.825859081 	-0.001185348931 	2.15118735e-08
0.8847387028 	2.822007894 	-0.001218823759 	2.245639394e-08
0.8868551318 	2.818119821 	-0.001251421481 	2.342168633e-08
0.8889482045 	2.814192263 	-0.001283124665 	2.440678385e-08
0.8910181784 	2.810222524 	-0.001313915999 	2.541049284e-08
0.8930653087 	2.806207814 	-0.001343778378 	2.643136893e-08
0.8950898473 	2.802145243 	-0.001372695019 	2.746768503e-08
0.8970920436 	2.798031825 	-0.001400649567 	2.851738939e-08
0.8990721441 	2.793864473 	-0.00142762623 	2.957805359e-08
0.9010303927 	2.789640004 	-0.001453609924 	3.06468127e-08
0.9029670306 	2.785355137 	-0.00147858643 	3.172030439e-08
0.9048822962 	2.781006493 	-0.001502542574 	3.279462077e-08
0.9067764254 	2.776590601 	-0.00152546642 	3.386529464e-08
0.9086496514 	2.772103895 	-0.00154734749 	3.492735768e-08
0.910502205 	2.767542724 	-0.001568176986 	3.597553426e-08
0.9123343142 	2.76290335 	-0.001587948026 	3.700459132e-08
0.9141462048 	2.758181951 	-0.001606655968 	3.800946691e-08
0.9159380997 	2.75337463 	-0.001624298925 	3.898606465e-08
0.9177102197 	2.748477415 	-0.001640877063 	3.993790336e-08
0.9194627831 	2.743486264 	-0.001656385294 	4.090265822e-08
0.9211960055 	2.738397068 	-0.001670837096 	4.172297168e-08
0.9229101006 	2.73320562 	-0.001684299952 	4.259351317e-08
0.9246052793 	2.7279061 	-0.001696677655 	4.370961897e-08
0.9262817504 	2.722486766 	-0.001707790562 	4.479363937e-08
0.9279397204 	2.716929032 	-0.001717497704 	4.626198157e-08
0.9295793934 	2.71121246 	-0.001725521449 	4.829477529e-08
0.9312009714 	2.705317022 	-0.001731615792 	5.055967061e-08
0.9328046541 	2.699221834 	-0.001735610356 	5.301569809e-08
0.9343906389 	2.692904362 	-0.001737311243 	5.562171573e-08
0.9359591211 	2.686339984 	-0.001736525429 	5.837514075e-08
0.937510294 	2.679501809 	-0.001733057147 	6.127750338e-08
0.9390443485 	2.672360688 	-0.001726708586 	6.432172943e-08
0.9405614735 	2.664885405 	-0.001717286126 	6.748958167e-08
0.942061856 	2.657043025 	-0.001704602765 	7.07509863e-08
0.9435456805 	2.648799379 	-0.001688486715 	7.406885983e-08
0.9450131299 	2.640119674 	-0.001668788822 	7.73949553e-08
0.946464385 	2.630969202 	-0.001645391281 	8.06731278e-08
0.9478996243 	2.621314097 	-0.001618216024 	8.384100333e-08
0.9493190246 	2.611122107 	-0.001587232119 	8.68317468e-08
0.9507227608 	2.600363301 	-0.00155246151 	8.957642917e-08
0.9521110058 	2.589010665 	-0.001513982641 	9.2006967e-08
0.9534839303 	2.577040528 	-0.001471931636 	9.405929641e-08
0.9548417036 	2.564432789 	-0.001426500947 	9.56763858e-08
0.9561844929 	2.551170918 	-0.001377935642 	9.68107914e-08
0.9575124634 	2.537241748 	-0.001326527653 	9.74265981e-08
0.9588257788 	2.522635078 	-0.001272608473 	9.750059986e-08
0.9601246008 	2.507343129 	-0.001216541015 	9.702261668e-08
0.9614090893 	2.4913599 	-0.001158712529 	9.599551096e-08
0.9626794024 	2.474680519 	-0.001099520129 	9.443460873e-08
0.9639356968 	2.458800174 	-0.001044495695 	9.255761125e-08
0.9647540487 	2.445498189 	-0.0009995419028 	9.073268844e-08
0.9655573034 	2.433520671 	-0.0009600251244 	8.892966066e-08
0.9663457395 	2.421381437 	-0.0009209496934 	8.697145198e-08
0.9671196303 	2.409086575 	-0.0008824104994 	8.487512971e-08
0.9678792442 	2.396641597 	-0.0008444955938 	8.265869157e-08
0.9686248445 	2.384051434 	-0.0008072833256 	8.033983684e-08
0.9693566897 	2.371320423 	-0.000770842414 	7.793552403e-08
0.9700750337 	2.358452305 	-0.000735232546 	7.546188967e-08
0.9707801255 	2.345450216 	-0.000700504862 	7.293418413e-08
0.9714722095 	2.332316683 	-0.0006667024435 	7.036672389e-08
0.9721515258 	2.319053618 	-0.0006338608235 	6.777286766e-08
0.9728183099 	2.30566232 	-0.000602008505 	6.516500977e-08
0.9734727929 	2.292143464 	-0.0005711674765 	6.255458571e-08
0.9741152019 	2.27849711 	-0.0005413537174 	5.995208643e-08
0.9747457596 	2.264722697 	-0.0005125776885 	5.736707961e-08
0.9753646845 	2.250819045 	-0.0004848448057 	5.480823633e-08
0.9759721914 	2.236784357 	-0.0004581558925 	5.228336211e-08
0.9765684907 	2.222616219 	-0.0004325076122 	4.979943127e-08
0.9771537895 	2.208311602 	-0.000407892878 	4.736262394e-08
0.9777282904 	2.193866862 	-0.0003843012408 	4.49783648e-08
0.9782921928 	2.17927774 	-0.0003617192553 	4.265136315e-08
0.9788456922 	2.164539363 	-0.0003401308251 	4.038565372e-08
0.9793889805 	2.149646237 	-0.0003195175253 	3.818463768e-08
0.979922246 	2.134592251 	-0.0002998589059 	3.605112367e-08
0.9804456737 	2.119370665 	-0.0002811327741 	3.398736838e-08
0.9809594451 	2.103974108 	-0.000263315458 	3.199511644e-08
0.9814637383 	2.088394565 	-0.0002463820508 	3.007563948e-08
0.9819587281 	2.072623369 	-0.0002303066373 	2.82297741e-08
0.9824445862 	2.056651183 	-0.0002150625034 	2.645795857e-08
0.9829214811 	2.040467984 	-0.0002006223282 	2.476026828e-08
0.9833895781 	2.024063038 	-0.0001869583604 	2.313644969e-08
0.9838490396 	2.007424879 	-0.0001740425797 	2.158595286e-08
0.9843000247 	1.990541272 	-0.0001618468433 	2.010796238e-08
0.98474269 	1.973399181 	-0.0001503430189 	1.870142678e-08
0.9851771888 	1.955984724 	-0.0001395031036 	1.736508636e-08
0.9856036719 	1.938283123 	-0.000129299332 	1.609749942e-08
0.9860222871 	1.920278652 	-0.0001197042705 	1.489706697e-08
0.9864331796 	1.901954565 	-0.0001106909023 	1.376205577e-08
0.9868364919 	1.883293029 	-0.0001022327005 	1.269061997e-08
0.9872323637 	1.864275035 	-9.430369245e-05 	1.168082113e-08
0.9876209323 	1.844880301 	-8.6878514e-05 	1.073064683e-08
0.9880023326 	1.82508717 	-7.993245609e-05 	9.838027839e-09
0.9883766967 	1.804872482 	-7.34415028e-05 	9.000853819e-09
0.9887441544 	1.784211439 	-6.738236238e-05 	8.216987792e-09
0.9891048331 	1.763077453 	-6.173249164e-05 	7.484279244e-09
0.9894588579 	1.741441969 	-5.647011467e-05 	6.800576045e-09
0.9898063516 	1.719274277 	-5.157423359e-05 	6.163735005e-09
0.9901474347 	1.696541294 	-4.702462685e-05 	5.571630866e-09
0.9904822253 	1.673207325 	-4.28018637e-05 	5.02216574e-09
0.9908108397 	1.649233787 	-3.888758776e-05 	4.513295112e-09
0.9911333916 	1.624578895 	-3.526400028e-05 	4.04299572e-09
0.9914499931 	1.599197268 	-3.191323423e-05 	3.609238775e-09
0.9917607538 	1.573039492 	-2.881903975e-05 	3.210121383e-09
0.9920657815 	1.546051784 	-2.596684954e-05 	2.843856976e-09
0.9923651819 	1.518175754 	-2.334188762e-05 	2.508647435e-09
0.992659059 	1.489348091 	-2.093067248e-05 	2.202748171e-09
0.9929475145 	1.459500174 	-1.872286514e-05 	1.92450754e-09
0.9932306485 	1.428557698 	-1.66938364e-05 	1.672267855e-09
0.9935085592 	1.396440495 	-1.476572667e-05 	1.44429761e-09
0.9937813429 	1.365964579 	-1.315394364e-05 	1.255915854e-09
0.9939569055 	1.340366942 	-1.203557144e-05 	1.116643443e-09
0.9941324681 	1.316933555 	-1.110643246e-05 	1.002137886e-09
0.9943080307 	1.292543514 	-1.018705123e-05 	8.948181432e-10
0.9944835934 	1.267130607 	-9.31273155e-06 	7.946883598e-10
0.994659156 	1.240621588 	-8.488328832e-06 	7.016328303e-10
0.9948347186 	1.21293557 	-7.71115979e-06 	6.155323949e-10
0.9950102812 	1.183986591 	-6.980105376e-06 	5.362792285e-10
0.9951858439 	1.153684263 	-6.294193413e-06 	4.637449645e-10
0.9953614065 	1.121931838 	-5.651970171e-06 	3.977754015e-10
0.9955369691 	1.088625379 	-5.051599679e-06 	3.381981607e-10
0.9957125317 	1.053654116 	-4.491082678e-06 	2.848173102e-10
0.9958880943 	1.016901428 	-3.969293426e-06 	2.374149953e-10
0.996063657 	0.9782464434 	-3.482578038e-06 	1.958576045e-10
0.9962392196 	0.9375664865 	-2.996706219e-06 	1.600534245e-10
0.9964147822 	0.8947406293 	-2.461756015e-06 	1.29023789e-10
0.9965903448 	0.8496545037 	-2.325887371e-06 	9.222994289e-11
0.9967659075 	0.8022047788 	-4.350763888e-06 	8.288558853e-11
0.9969414701 	0.752280606 	-2.748260571e-06 	8.669424808e-11
0.9971170327 	0.6996428056 	3.497845095e-06 	4.735693587e-11
0.9972925953 	0.6440068006 	3.308895195e-06 	2.671455607e-11
0.997468158 	0.5854109153 	-7.766759594e-08 	3.182491681e-11
0.9976437206 	0.5242487757 	-1.151683368e-06 	2.356986324e-11
0.9978192832 	0.4610734249 	-2.107203638e-06 	1.703200395e-11
0.9979948458 	0.3964897589 	-2.235708329e-06 	1.226293613e-11
0.9981704085 	0.3310364518 	-1.635437407e-06 	8.666897636e-12
0.9983459711 	0.2651104851 	-8.711536477e-07 	5.730464178e-12
0.9985215337 	0.1989547842 	-3.413003378e-07 	3.332415441e-12
0.9986970963 	0.1326912269 	-9.241870373e-08 	1.527186908e-12
0.998872659 	0.06636802205 	-1.233162575e-08 	4.22795252e-13
0.9990482216 	0.02794934057 	1.2663981e-09 	5.087178476e-14
0.9990482216 	0.02794934057 	1.2663981e-09 	5.087178476e-14
