0.4709558481 	0.03106793825 	9.726141862e-09 	-1.9707133e-12
0.4711314108 	0.08542835573 	1.800588788e-07 	-2.145102839e-11
0.4713069734 	0.1707598788 	8.213664108e-07 	-8.158112908e-11
0.471482536 	0.2559633847 	2.235592113e-06 	-1.872090422e-10
0.4716580986 	0.3409228239 	4.56413478e-06 	-3.35929903e-10
0.4718336613 	0.425352793 	7.251079273e-06 	-5.173157409e-10
0.4720092239 	0.5087127811 	9.004519163e-06 	-7.182869765e-10
0.4721847865 	0.5901925834 	9.160329726e-06 	-9.423733282e-10
0.4723603491 	0.6688302153 	7.712033498e-06 	-1.100399827e-09
0.4725359118 	0.7437382774 	5.324064556e-06 	-1.494422439e-09
0.4727114744 	0.8143812803 	1.081579603e-05 	-2.054082253e-09
0.472887037 	0.8808219206 	2.192736614e-05 	-2.282130202e-09
0.4730625996 	0.9434831981 	2.508160079e-05 	-2.570608518e-09
0.4732381623 	1.002661743 	2.574498701e-05 	-3.047734244e-09
0.4734137249 	1.058523347 	2.969487615e-05 	-3.479789607e-09
0.4735892875 	1.111250822 	3.3818741e-05 	-3.928295798e-09
0.4737648501 	1.161040645 	3.800497742e-05 	-4.397165074e-09
0.4739404128 	1.208093207 	4.233700962e-05 	-4.884734168e-09
0.4741159754 	1.252605407 	4.684060956e-05 	-5.389641276e-09
0.474291538 	1.294765768 	5.151181953e-05 	-5.911316682e-09
0.4744671006 	1.334751402 	5.634825076e-05 	-6.449294174e-09
0.4746426632 	1.372726452 	6.134863595e-05 	-7.003154746e-09
0.4748182259 	1.408842469 	6.651122003e-05 	-7.572508602e-09
0.4749937885 	1.443242255 	7.183356361e-05 	-8.157043348e-09
0.4751693511 	1.476060019 	7.731411592e-05 	-8.756580361e-09
0.4753449137 	1.507416206 	8.295249265e-05 	-9.370990205e-09
0.4755204764 	1.537417836 	8.874839309e-05 	-1.000015368e-08
0.475696039 	1.566162031 	9.470258923e-05 	-1.064399777e-08
0.4758716016 	1.593737461 	0.0001008077968 	-1.130241623e-08
0.4760471642 	1.620225514 	0.0001070248872 	-1.197502596e-08
0.4762227269 	1.649161343 	0.0001142886682 	-1.275816137e-08
0.4764955107 	1.683623551 	0.0001237769387 	-1.376453134e-08
0.4767734216 	1.719964365 	0.0001347089883 	-1.491885344e-08
0.4770565557 	1.75500957 	0.0001461626211 	-1.613145146e-08
0.4773450114 	1.788857807 	0.0001582365265 	-1.7405273e-08
0.4776388886 	1.82160012 	0.0001709721742 	-1.874294847e-08
0.4779382892 	1.853320013 	0.000184395158 	-2.01469286e-08
0.4782433171 	1.884093748 	0.0001985356689 	-2.161983712e-08
0.4785540779 	1.913990809 	0.0002134283192 	-2.316452437e-08
0.4788706795 	1.943074611 	0.0002291088121 	-2.478384135e-08
0.4791932316 	1.971403215 	0.0002456136049 	-2.648061671e-08
0.4795218461 	1.99902994 	0.0002629810248 	-2.825772951e-08
0.4798566368 	2.026003866 	0.0002812512479 	-3.011808825e-08
0.48019772 	2.052370263 	0.0003004660967 	-3.206460251e-08
0.4805452138 	2.078170977 	0.0003206690312 	-3.410016711e-08
0.4808992388 	2.103444759 	0.0003419051374 	-3.622764505e-08
0.4812599177 	2.12822756 	0.0003642210997 	-3.844984837e-08
0.4816273755 	2.152552793 	0.0003876651617 	-4.076951735e-08
0.4820017397 	2.176451558 	0.0004122870777 	-4.318929805e-08
0.48238314 	2.199952847 	0.0004381380504 	-4.571171816e-08
0.4827717088 	2.223083712 	0.0004652706558 	-4.833916113e-08
0.4831675807 	2.245869424 	0.0004937387526 	-5.107383838e-08
0.4835708931 	2.268333601 	0.0005235973745 	-5.391775981e-08
0.4839817856 	2.290498324 	0.0005549026051 	-5.687270244e-08
0.4844004009 	2.312384238 	0.0005877114314 	-5.994017732e-08
0.4848268841 	2.334010626 	0.0006220815779 	-6.312139464e-08
0.485261383 	2.355395491 	0.0006580713151 	-6.641722706e-08
0.4857040484 	2.376555601 	0.0006957392449 	-6.982817111e-08
0.4861550336 	2.397506545 	0.0007351440577 	-7.335430633e-08
0.4866144951 	2.418262766 	0.0007763442616 	-7.699525153e-08
0.4870825921 	2.438837587 	0.0008193978806 	-8.075011772e-08
0.487559487 	2.459243233 	0.0008643621208 	-8.461745717e-08
0.4880453452 	2.47949084 	0.0009112930025 	-8.859520927e-08
0.4885403351 	2.499590463 	0.0009602449578 	-9.268064575e-08
0.4890446283 	2.519551074 	0.001011270393 	-9.687032046e-08
0.4895583997 	2.539380558 	0.001064419217 	-1.011600312e-07
0.4900818274 	2.55908571 	0.00111973833 	-1.055448013e-07
0.4906150929 	2.578672226 	0.001177271091 	-1.1001888e-07
0.4911583811 	2.598144699 	0.001237056751 	-1.145757467e-07
0.4917118805 	2.617506632 	0.001299129881 	-1.192080745e-07
0.4922757829 	2.636760454 	0.001363519821 	-1.239075899e-07
0.4928502838 	2.655907568 	0.001430250189 	-1.286647705e-07
0.4934355824 	2.67494842 	0.001499338539 	-1.334684107e-07
0.4940318817 	2.693882617 	0.001570796264 	-1.383052748e-07
0.4946393885 	2.712709076 	0.001644628826 	-1.431603357e-07
0.4952583133 	2.731426212 	0.001720836343 	-1.480182519e-07
0.4958888709 	2.750032119 	0.001799414261 	-1.528662725e-07
0.4965312797 	2.768524677 	0.001880353324 	-1.576973354e-07
0.4971857627 	2.786901387 	0.001963638138 	-1.625110642e-07
0.4978525466 	2.80515857 	0.002049249415 	-1.673147243e-07
0.4985318627 	2.823289191 	0.002137142452 	-1.72058572e-07
0.4992239466 	2.841277974 	0.002227199123 	-1.765918856e-07
0.4999290382 	2.859094535 	0.002319215287 	-1.807497906e-07
0.5006473819 	2.876689389 	0.002412881192 	-1.843656488e-07
0.501379227 	2.893995232 	0.002507743011 	-1.87279047e-07
0.502124827 	2.910930572 	0.002603219571 	-1.894212405e-07
0.5028844406 	2.927403599 	0.002698623263 	-1.907848986e-07
0.5036583311 	2.943316328 	0.002793155831 	-1.91342978e-07
0.5044467669 	2.958569541 	0.002885941325 	-1.909744689e-07
0.5052500214 	2.973069583 	0.002976154258 	-1.893526845e-07
0.506068373 	2.988425981 	0.003073839936 	-1.853346543e-07
0.507324668 	3.005597933 	0.00318378258 	-1.760334218e-07
0.5085949819 	3.02227986 	0.003295634139 	-1.693637591e-07
0.5098794711 	3.037211761 	0.003401880742 	-1.677142107e-07
0.5111782938 	3.050890759 	0.003498185676 	-1.655174027e-07
0.5124916099 	3.063525681 	0.00358947576 	-1.660439032e-07
0.5138195812 	3.075124335 	0.003677748013 	-1.653253219e-07
0.5151623712 	3.085687482 	0.003759221675 	-1.612396627e-07
0.5165201452 	3.09522747 	0.003834131331 	-1.56673826e-07
0.5178930705 	3.10376886 	0.003902224971 	-1.51416945e-07
0.5192813161 	3.111347191 	0.003963298442 	-1.457083309e-07
0.520685053 	3.118006722 	0.004017297255 	-1.397224428e-07
0.522104454 	3.123797635 	0.004064209892 	-1.334848332e-07
0.523539694 	3.128774435 	0.00410412426 	-1.272082841e-07
0.5249909497 	3.133001731 	0.004137410878 	-1.212080788e-07
0.5264583998 	3.136561636 	0.004164588855 	-1.156443364e-07
0.527942225 	3.139545391 	0.004186286066 	-1.107051841e-07
0.5294426081 	3.142037121 	0.004203235689 	-1.064179031e-07
0.5309597337 	3.144107539 	0.004216062564 	-1.026294013e-07
0.5324937889 	3.145815257 	0.004225257495 	-9.925565293e-08
0.5340449624 	3.147208953 	0.004231245517 	-9.624887037e-08
0.5356134452 	3.148329196 	0.004234390958 	-9.355977812e-08
0.5371994306 	3.149209916 	0.004235004331 	-9.114592621e-08
0.5388031139 	3.14987961 	0.004233351103 	-8.897122288e-08
0.5404246925 	3.150362309 	0.004229659016 	-8.700462575e-08
0.5420643661 	3.150678364 	0.004224123912 	-8.521886973e-08
0.5437223366 	3.150845084 	0.00421691318 	-8.359145869e-08
0.5453988083 	3.150877284 	0.004208177378 	-8.210210323e-08
0.5470939875 	3.150787659 	0.004198041434 	-8.073245216e-08
0.5488080831 	3.150587079 	0.004186613196 	-7.946917811e-08
0.5505413061 	3.150284946 	0.004173991741 	-7.829892294e-08
0.5522938699 	3.149889442 	0.004160258657 	-7.721128343e-08
0.5540659904 	3.149407688 	0.004145488073 	-7.619738418e-08
0.5558578859 	3.148845897 	0.004129744631 	-7.524815701e-08
0.5576697768 	3.148209508 	0.004113084474 	-7.435730222e-08
0.5595018865 	3.147503293 	0.004095557159 	-7.351842539e-08
0.5613544406 	3.146731447 	0.004077206024 	-7.27258719e-08
0.563227667 	3.145897666 	0.004058068988 	-7.197457173e-08
0.5651217966 	3.145005207 	0.004038179175 	-7.125995494e-08
0.5670370626 	3.144056947 	0.004017565432 	-7.057789145e-08
0.5689737009 	3.143055423 	0.003996252788 	-6.992463657e-08
0.5709319499 	3.142002877 	0.003974262833 	-6.929678108e-08
0.5729120508 	3.140901287 	0.003951614063 	-6.869120708e-08
0.5749142474 	3.139752397 	0.003928322169 	-6.810504934e-08
0.5769387863 	3.138557738 	0.003904400296 	-6.753566183e-08
0.5789859169 	3.137318657 	0.003879859266 	-6.698058885e-08
0.5810558911 	3.136036329 	0.003854707779 	-6.643754037e-08
0.583148964 	3.134711777 	0.003828952586 	-6.590437099e-08
0.5852653933 	3.133345887 	0.003802598647 	-6.537906198e-08
0.5874054395 	3.131939417 	0.00377564927 	-6.485970612e-08
0.5895693664 	3.130493013 	0.003748106241 	-6.434449467e-08
0.5917574402 	3.129007217 	0.003719969933 	-6.383170635e-08
0.5939699306 	3.127482475 	0.003691239413 	-6.331969786e-08
0.5962071099 	3.125919146 	0.003661912538 	-6.280689581e-08
0.5984692536 	3.12431751 	0.003631986041 	-6.229178979e-08
0.6007566404 	3.122677771 	0.003601455612 	-6.177292638e-08
0.6030695519 	3.121000068 	0.003570315978 	-6.124890404e-08
0.6054082729 	3.119284476 	0.003538560968 	-6.07183687e-08
0.6077730914 	3.117531014 	0.003506183588 	-6.018000994e-08
0.6101642987 	3.115739645 	0.003473176078 	-5.963255783e-08
0.6125821893 	3.113910285 	0.003439529976 	-5.907478014e-08
0.6150270608 	3.112042801 	0.003405236178 	-5.850548014e-08
0.6174992144 	3.110137021 	0.003370284992 	-5.792349474e-08
0.6199989545 	3.108192728 	0.003334666195 	-5.732769307e-08
0.622526589 	3.106209672 	0.003298369083 	-5.67169755e-08
0.625082429 	3.104187565 	0.003261382528 	-5.609027297e-08
0.6276667894 	3.102126087 	0.003223695027 	-5.544654684e-08
0.6302799884 	3.100024886 	0.003185294752 	-5.478478901e-08
0.6329223478 	3.09788358 	0.0031461696 	-5.410402255e-08
0.6355941931 	3.095701759 	0.003106307247 	-5.340330273e-08
0.6382958531 	3.093478986 	0.003065695193 	-5.268171842e-08
0.6410276607 	3.091214797 	0.003024320814 	-5.193839396e-08
0.6437899523 	3.088908701 	0.002982171412 	-5.117249147e-08
0.646583068 	3.086560185 	0.002939234266 	-5.038321353e-08
0.6494073518 	3.084168707 	0.002895496682 	-4.956980631e-08
0.6522631514 	3.081733705 	0.002850946046 	-4.873156312e-08
0.6551508186 	3.079254589 	0.002805569872 	-4.786782831e-08
0.658070709 	3.076730744 	0.00275935586 	-4.697800153e-08
0.6610231822 	3.07416153 	0.002712291944 	-4.606154238e-08
0.6640086017 	3.071546283 	0.00266436635 	-4.511797528e-08
0.6670273351 	3.068884308 	0.002615567645 	-4.414689475e-08
0.6700797543 	3.066174886 	0.002565884794 	-4.314797086e-08
0.6731662352 	3.063417265 	0.002515307214 	-4.212095495e-08
0.6762871577 	3.060610663 	0.002463824828 	-4.106568563e-08
0.6794429063 	3.057754268 	0.002411428112 	-3.998209495e-08
0.6826338695 	3.054847228 	0.002358108154 	-3.887021487e-08
0.6858604404 	3.051888659 	0.002303856698 	-3.773018393e-08
0.6891230163 	3.048877635 	0.002248666191 	-3.656225425e-08
0.6924219988 	3.045813186 	0.002192529825 	-3.53667988e-08
0.6957577944 	3.042694298 	0.002135441577 	-3.414431905e-08
0.6991308138 	3.039519909 	0.002077396236 	-3.289545302e-08
0.7025414724 	3.036288901 	0.002018389436 	-3.162098367e-08
0.7059901901 	3.0330001 	0.00195841766 	-3.032184775e-08
0.7094773917 	3.029652273 	0.001897478257 	-2.899914505e-08
0.7130035066 	3.026244116 	0.001835569429 	-2.765414783e-08
0.7165689691 	3.022774257 	0.001772690212 	-2.628831042e-08
0.7201742182 	3.019241245 	0.00170884044 	-2.490327869e-08
0.7238196978 	3.015643548 	0.001644020689 	-2.350089851e-08
0.727505857 	3.011979544 	0.001578232189 	-2.208322199e-08
0.7312331497 	3.008247514 	0.001511476801 	-2.065251685e-08
0.7350020349 	3.004455777 	0.001443937083 	-1.921509091e-08
0.7387709215 	3.000635368 	0.001376196002 	-1.778571577e-08
0.7424982157 	2.996818202 	0.001308841932 	-1.637890141e-08
0.7461843763 	2.993014299 	0.001242067872 	-1.50004765e-08
0.7498298574 	2.98922355 	0.00117588526 	-1.36522805e-08
0.7534351078 	2.985445828 	0.001110303635 	-1.233596258e-08
0.7570005716 	2.981680983 	0.001045330814 	-1.105297633e-08
0.7605266877 	2.977928847 	0.0009809729843 	-9.804567618e-09
0.7640138905 	2.974189236 	0.0009172348094 	-8.591764939e-09
0.7674626093 	2.970461948 	0.0008541195495 	-7.415371996e-09
0.770873269 	2.966746765 	0.0007916291803 	-6.275962326e-09
0.7742462894 	2.963043451 	0.0007297645176 	-5.173876209e-09
0.777582086 	2.959351756 	0.0006685253431 	-4.10921993e-09
0.7808810695 	2.95567141 	0.0006079105325 	-3.081867402e-09
0.7841436462 	2.95200213 	0.0005479181834 	-2.091464056e-09
0.787370218 	2.948343609 	0.0004885457426 	-1.13743289e-09
0.7905611821 	2.944695527 	0.000429790132 	-2.189824949e-10
0.7937169314 	2.941057538 	0.0003716478717 	6.648831461e-10
0.7968378547 	2.937429279 	0.0003141152008 	1.515353299e-09
0.7999243362 	2.933810359 	0.0002571881925 	2.333797798e-09
0.8029767561 	2.930200368 	0.0002008628664 	3.121753288e-09
0.8059954902 	2.926598865 	0.0001451352939 	3.880908682e-09
0.8089809102 	2.923005384 	9.000169885e-05 	4.613089666e-09
0.8119333839 	2.91941943 	3.545855254e-05 	5.320243331e-09
0.8148532749 	2.915840476 	-1.849733984e-05 	6.004422586e-09
0.8177409426 	2.91226796 	-7.186875982e-05 	6.667769657e-09
0.8205967427 	2.90870129 	-0.0001246579996 	7.312500458e-09
0.8234210268 	2.905139833 	-0.0001768667947 	7.94088978e-09
0.8262141429 	2.90158292 	-0.0002284962662 	8.555255927e-09
0.8289764348 	2.898029841 	-0.0002795468674 	9.15794596e-09
0.8317082427 	2.894479844 	-0.0003300183372 	9.751322025e-09
0.8344099031 	2.890932135 	-0.000379909661 	1.033774806e-08
0.8370817486 	2.887385872 	-0.0004292190371 	1.091957728e-08
0.8397241082 	2.883840166 	-0.0004779438503 	1.14991404e-08
0.8423373074 	2.88029408 	-0.0005260806503 	1.207873464e-08
0.844921668 	2.876746626 	-0.0005736251362 	1.266061351e-08
0.8474775082 	2.873196762 	-0.0006205721454 	1.324697738e-08
0.8500051427 	2.869643391 	-0.0006669156479 	1.383996473e-08
0.8525048829 	2.86608536 	-0.0007126487446 	1.44416442e-08
0.8549770366 	2.862521457 	-0.0007577636696 	1.505400722e-08
0.8574219081 	2.858950409 	-0.0008022517959 	1.567896136e-08
0.8598397987 	2.855370881 	-0.0008461036455 	1.63183241e-08
0.862231006 	2.851781473 	-0.000889308901 	1.697381718e-08
0.8645958245 	2.848180716 	-0.000931856421 	1.764706128e-08
0.8669345455 	2.844567072 	-0.0009737342582 	1.833957109e-08
0.8692474569 	2.840938932 	-0.001014929679 	1.905275048e-08
0.8715348435 	2.837294611 	-0.001055429186 	1.978788788e-08
0.8737969871 	2.833632348 	-0.001095218544 	2.054615169e-08
0.8760341663 	2.8299503 	-0.001134282805 	2.132858559e-08
0.8782466565 	2.826246541 	-0.001172606338 	2.213610377e-08
0.8804347301 	2.822519061 	-0.001210172862 	2.29694859e-08
0.8825986568 	2.818765757 	-0.00124696548 	2.382937185e-08
0.8847387028 	2.814984435 	-0.001282966717 	2.471625602e-08
0.8868551318 	2.811172806 	-0.00131815856 	2.563048113e-08
0.8889482045 	2.807328479 	-0.001352522504 	2.657223131e-08
0.8910181784 	2.803448959 	-0.001386039604 	2.754152415e-08
0.8930653087 	2.799531647 	-0.001418690528 	2.85382011e-08
0.8950898473 	2.795573831 	-0.001450455618 	2.956191552e-08
0.8970920436 	2.791572684 	-0.001481314961 	3.061211736e-08
0.8990721441 	2.787525262 	-0.001511248465 	3.168803275e-08
0.9010303927 	2.783428498 	-0.001540235944 	3.27886372e-08
0.9029670306 	2.779279201 	-0.001568257216 	3.391262043e-08
0.9048822962 	2.775074051 	-0.001595292209 	3.505834166e-08
0.9067764254 	2.770809595 	-0.001621321086 	3.622377512e-08
0.9086496514 	2.766482249 	-0.001646324381 	3.740644807e-08
0.910502205 	2.762088289 	-0.001670283147 	3.860337712e-08
0.9123343142 	2.757623852 	-0.001693179134 	3.981101474e-08
0.9141462048 	2.753084936 	-0.001714994974 	4.102522476e-08
0.9159380997 	2.748467393 	-0.001735714392 	4.224131425e-08
0.9177102197 	2.743766934 	-0.001755322434 	4.34541638e-08
0.9194627831 	2.738979122 	-0.001773805707 	4.46585257e-08
0.9211960055 	2.734099376 	-0.001791152617 	4.584949005e-08
0.9229101006 	2.729122964 	-0.001807353739 	4.702257707e-08
0.9246052793 	2.724045009 	-0.001822402426 	4.817460201e-08
0.9262817504 	2.718860479 	-0.001836293625 	4.931217821e-08
0.9279397204 	2.713564193 	-0.001849013126 	5.04864617e-08
0.9295793934 	2.708150815 	-0.001860576566 	5.148454088e-08
0.9312009714 	2.702614798 	-0.001871059349 	5.256728897e-08
0.9328046541 	2.696948096 	-0.001880321447 	5.397878535e-08
0.9343906389 	2.691134282 	-0.001888132876 	5.531273433e-08
0.9359591211 	2.685147641 	-0.001894302672 	5.711518785e-08
0.937510294 	2.678959795 	-0.001898462323 	5.964933568e-08
0.9390443485 	2.672542641 	-0.001900291968 	6.249572545e-08
0.9405614735 	2.665866852 	-0.001899569493 	6.563149514e-08
0.942061856 	2.658900973 	-0.001896036352 	6.895384969e-08
0.9435456805 	2.651610979 	-0.001889437167 	7.243423854e-08
0.9450131299 	2.64396023 	-0.001879529217 	7.609877214e-08
0.946464385 	2.635909746 	-0.001866073261 	7.991350079e-08
0.9478996243 	2.627418677 	-0.001848847001 	8.384857252e-08
0.9493190246 	2.618444946 	-0.001827649119 	8.78459381e-08
0.9507227608 	2.608946018 	-0.001802310234 	9.183542241e-08
0.9521110058 	2.598879773 	-0.001772703922 	9.574118388e-08
0.9534839303 	2.588205404 	-0.001738756609 	9.948288961e-08
0.9548417036 	2.576884288 	-0.001700455516 	1.02976136e-07
0.9561844929 	2.564880723 	-0.001657854163 	1.061346545e-07
0.9575124634 	2.552162475 	-0.001611075121 	1.088742843e-07
0.9588257788 	2.538701093 	-0.001560309703 	1.111174183e-07
0.9601246008 	2.52447196 	-0.001505814744 	1.127966717e-07
0.9614090893 	2.509454112 	-0.001447910266 	1.138579919e-07
0.9626794024 	2.493629887 	-0.001386968534 	1.142636462e-07
0.9639356968 	2.478427165 	-0.001328877475 	1.140367865e-07
0.9647540487 	2.465595116 	-0.001280407891 	1.134180423e-07
0.9655573034 	2.453969733 	-0.001237095176 	1.125652356e-07
0.9663457395 	2.44212216 	-0.001193634661 	1.114412104e-07
0.9671196303 	2.430059789 	-0.001150167315 	1.100607014e-07
0.9678792442 	2.417789846 	-0.001106832288 	1.084414194e-07
0.9686248445 	2.405319293 	-0.001063760177 	1.066024446e-07
0.9693566897 	2.392654741 	-0.001021071358 	1.045633362e-07
0.9700750337 	2.379802371 	-0.0009788760875 	1.023438109e-07
0.9707801255 	2.366767881 	-0.0009372745695 	9.996350501e-08
0.9714722095 	2.353556434 	-0.0008963571034 	9.744178214e-08
0.9721515258 	2.34017262 	-0.0008562043391 	9.479757812e-08
0.9728183099 	2.326620427 	-0.000816887614 	9.204927234e-08
0.9734727929 	2.312903218 	-0.0007784693397 	8.921457824e-08
0.9741152019 	2.299023716 	-0.0007410034223 	8.631045172e-08
0.9747457596 	2.284983987 	-0.0007045357028 	8.335301783e-08
0.9753646845 	2.270785435 	-0.0006691044108 	8.035751504e-08
0.9759721914 	2.25642879 	-0.0006347406227 	7.733825575e-08
0.9765684907 	2.241914103 	-0.0006014687222 	7.430860121e-08
0.9771537895 	2.227240742 	-0.0005693068571 	7.128094896e-08
0.9777282904 	2.212407387 	-0.0005382673903 	6.8266731e-08
0.9782921928 	2.197412023 	-0.0005083573425 	6.527642111e-08
0.9788456922 	2.182251939 	-0.0004795788234 	6.231954997e-08
0.9793889805 	2.16692372 	-0.0004519294513 	5.940472693e-08
0.979922246 	2.151423241 	-0.0004254027575 	5.653966725e-08
0.9804456737 	2.135745664 	-0.0003999885761 	5.373122389e-08
0.9809594451 	2.119885425 	-0.0003756734171 	5.098542289e-08
0.9814637383 	2.103836226 	-0.0003524408222 	4.830750147e-08
0.9819587281 	2.087591021 	-0.0003302717037 	4.570194813e-08
0.9824445862 	2.071142004 	-0.0003091446649 	4.31725442e-08
0.9829214811 	2.054480591 	-0.0002890363025 	4.072240615e-08
0.9833895781 	2.037597393 	-0.0002699214908 	3.835402814e-08
0.9838490396 	2.0204822 	-0.0002517736489 	3.606932469e-08
0.9843000247 	2.003123944 	-0.0002345649885 	3.386967272e-08
0.98474269 	1.985510666 	-0.0002182667464 	3.175595312e-08
0.9851771888 	1.967629478 	-0.0002028493981 	2.972859121e-08
0.9856036719 	1.949466512 	-0.0001882828563 	2.77875962e-08
0.9860222871 	1.931006869 	-0.0001745366526 	2.593259937e-08
0.9864331796 	1.912234555 	-0.0001615801047 	2.416289082e-08
0.9868364919 	1.893132408 	-0.0001493824675 	2.247745477e-08
0.9872323637 	1.87368202 	-0.0001379130712 	2.087500336e-08
0.9876209323 	1.853863643 	-0.0001271414456 	1.935400875e-08
0.9880023326 	1.833656082 	-0.0001170374308 	1.791273364e-08
0.9883766967 	1.813036578 	-0.0001075712764 	1.654926017e-08
0.9887441544 	1.791980676 	-9.871372925e-05 	1.52615171e-08
0.9891048331 	1.770462069 	-9.043610999e-05 	1.404730541e-08
0.9894588579 	1.748452434 	-8.271038017e-05 	1.290432212e-08
0.9898063516 	1.725921241 	-7.550919689e-05 	1.183018223e-08
0.9901474347 	1.702835539 	-6.880595052e-05 	1.08224393e-08
0.9904822253 	1.67915972 	-6.257482912e-05 	9.87861489e-09
0.9908108397 	1.654855243 	-5.679116577e-05 	8.996212528e-09
0.9911333916 	1.629880318 	-5.143083425e-05 	8.172687267e-09
0.9914499931 	1.604189498 	-4.646962491e-05 	7.40549048e-09
0.9917607538 	1.577733237 	-4.188528421e-05 	6.692180051e-09
0.9920657815 	1.550457581 	-3.765750611e-05 	6.030374323e-09
0.9923651819 	1.52230396 	-3.376572259e-05 	5.417676053e-09
0.992659059 	1.493208911 	-3.019079186e-05 	4.851730485e-09
0.9929475145 	1.463103675 	-2.691695427e-05 	4.33025456e-09
0.9932306485 	1.431913834 	-2.391409866e-05 	3.850921585e-09
0.9935085592 	1.399559135 	-2.109858362e-05 	3.411250528e-09
0.9937813429 	1.368874566 	-1.874707734e-05 	3.04224044e-09
0.9939569055 	1.343113456 	-1.707708531e-05 	2.765237467e-09
0.9941324681 	1.319539057 	-1.569102274e-05 	2.534489958e-09
0.9943080307 	1.295010479 	-1.434012867e-05 	2.315340175e-09
0.9944835934 	1.269461541 	-1.305978121e-05 	2.107850117e-09
0.994659156 	1.24281887 	-1.185449611e-05 	1.911896851e-09
0.9948347186 	1.215001357 	-1.072124579e-05 	1.727357819e-09
0.9950102812 	1.185923064 	-9.658612825e-06 	1.554133949e-09
0.9951858439 	1.155493818 	-8.665255938e-06 	1.392094737e-09
0.9953614065 	1.123617079 	-7.739263709e-06 	1.24106998e-09
0.9955369691 	1.090189103 	-6.878284837e-06 	1.100865581e-09
0.9957125317 	1.055099314 	-6.079730261e-06 	9.712566474e-10
0.9958880943 	1.018231297 	-5.341816541e-06 	8.519910379e-10
0.996063657 	0.9794644198 	-4.660515749e-06 	7.429447862e-10
0.9962392196 	0.9386762807 	-4.001372871e-06 	6.440642377e-10
0.9964147822 	0.8957462601 	-3.311339484e-06 	5.540271545e-10
0.9965903448 	0.8505603456 	-3.003881337e-06 	4.576194182e-10
0.9967659075 	0.8030157427 	-4.949828411e-06 	4.028348837e-10
0.9969414701 	0.7530041124 	-3.314833595e-06 	3.695586141e-10
0.9971170327 	0.7002886071 	3.102041145e-06 	2.767512914e-10
0.9972925953 	0.6445825876 	3.02008165e-06 	2.129424612e-10
0.997468158 	0.5859218686 	-3.464587619e-07 	1.884036175e-10
0.9976437206 	0.5246992817 	-1.359383971e-06 	1.471160581e-10
0.9978192832 	0.4614666871 	-2.262568583e-06 	1.110726548e-10
0.9979948458 	0.3968276435 	-2.348627314e-06 	8.102949545e-11
0.9981704085 	0.3313196321 	-1.714228571e-06 	5.642367099e-11
0.9983459711 	0.2653387733 	-9.222575078e-07 	3.642390154e-11
0.9985215337 	0.1991274845 	-3.704886833e-07 	2.069679343e-11
0.9986970963 	0.132807399 	-1.05586583e-07 	9.292991773e-12
0.998872659 	0.06642663489 	-1.591630026e-08 	2.517418877e-12
0.9990482216 	0.02797423849 	8.547203646e-10 	2.852514701e-13
