0.3179529243 	0.04722384466 	0.009142940463 	-2.011723054e-06
0.3179529243 	0.04722384466 	0.009142940463 	-2.011723054e-06
0.318152706 	0.1439979793 	0.02779448731 	-6.940988794e-06
0.3183524966 	0.2869628767 	0.05532897194 	-1.465167148e-05
0.318552295 	0.4287052061 	0.08264673794 	-2.311834859e-05
0.3187521003 	0.5686746753 	0.109609328 	-3.226693647e-05
0.3189519114 	0.7056939437 	0.1359829276 	-4.195975575e-05
0.3191517275 	0.8379881041 	0.1614208505 	-5.20232987e-05
0.3193515475 	0.9637586344 	0.1856034737 	-6.232935907e-05
0.3195513705 	1.082229137 	0.2083892021 	-7.28164404e-05
0.3197511955 	1.193682 	0.2297995056 	-8.344597352e-05
0.3199510214 	1.298447969 	0.2499042275 	-9.416240868e-05
0.3201508474 	1.396706416 	0.2687528756 	-0.0001049105963
0.3203506724 	1.488697362 	0.2863866831 	-0.0001156440656
0.3205504955 	1.57465798 	0.302851684 	-0.0001263054443
0.3207503157 	1.654783532 	0.3181860923 	-0.0001368293213
0.3209501321 	1.729223894 	0.3324191545 	-0.0001471517566
0.3211499436 	1.79811581 	0.3455773783 	-0.0001572278982
0.3213497493 	1.86169251 	0.3577061257 	-0.0001670853079
0.3215495483 	1.920648022 	0.3689392448 	-0.0001768283014
0.3217493395 	1.976006246 	0.3794735322 	-0.0001865315302
0.3219491221 	2.028423279 	0.38943538 	-0.0001961936696
0.322148895 	2.078162461 	0.3988757336 	-0.0002057927075
0.3223486573 	2.125403184 	0.4078291952 	-0.0002153140341
0.322548408 	2.170296243 	0.4163248921 	-0.000224743869
0.3227481462 	2.212974815 	0.4243885403 	-0.0002340684327
0.322947871 	2.2535578 	0.4320430783 	-0.0002432741035
0.3231475813 	2.292151855 	0.4393090645 	-0.0002523476737
0.3233472762 	2.328853064 	0.44620501 	-0.0002612764679
0.3235469548 	2.363748343 	0.4527476035 	-0.0002700480384
0.3237466161 	2.396916357 	0.4589517811 	-0.0002786479941
0.3239462591 	2.432682122 	0.4656265954 	-0.0002873202931
0.32425642 	2.474439891 	0.4733865135 	-0.0002996296436
0.3245723591 	2.517255005 	0.4813066433 	-0.00031168523
0.3248941791 	2.557013044 	0.4886146929 	-0.0003230903386
0.3252219844 	2.59363328 	0.4952933511 	-0.0003337409199
0.3255558808 	2.627041532 	0.5013261991 	-0.0003435338658
0.3258959756 	2.657168662 	0.5066975876 	-0.0003523708185
0.3262423775 	2.683963433 	0.511394782 	-0.0003419397996
0.3265951969 	2.707435053 	0.5154162054 	-0.0003271706115
0.3269545455 	2.727745171 	0.5187977073 	-0.0003123874722
0.3273205366 	2.745325555 	0.5216259888 	-0.0002981028662
0.3276932849 	2.760720946 	0.5240003995 	-0.0002842504422
0.3280729065 	2.774276449 	0.5259908389 	-0.0002705294421
0.328459519 	2.786156159 	0.5276339657 	-0.0002567627682
0.3288532414 	2.796495622 	0.5289542557 	-0.0002429851325
0.3292541942 	2.805432753 	0.5299781279 	-0.0002292541448
0.329662499 	2.813100881 	0.5307317836 	-0.0002155833037
0.330078279 	2.819628035 	0.5312406659 	-0.0002020103278
0.3305016584 	2.825148788 	0.5315321715 	-0.0001885869567
0.330932763 	2.829812572 	0.5316363115 	-0.0001753320191
0.3313717196 	2.833769637 	0.531582925 	-0.0001622180086
0.3318186562 	2.837150572 	0.5313983352 	-0.0001491936859
0.332273702 	2.840060195 	0.5311038416 	-0.0001362108007
0.3327369872 	2.842581425 	0.5307161746 	-0.000123234122
0.333208643 	2.84478159 	0.530248119 	-0.0001102382657
0.333690202 	2.846726746 	0.5297059377 	-9.716259098e-05
0.3341943182 	2.848464083 	0.5290920799 	-8.362865579e-05
0.3347076387 	2.850008366 	0.5284174287 	-7.000602674e-05
0.3352303273 	2.851377387 	0.5276916087 	-5.628812071e-05
0.3357625509 	2.852595608 	0.5269194712 	-4.246827403e-05
0.3363044791 	2.853683012 	0.5261049281 	-2.854186296e-05
0.3368562843 	2.854656021 	0.5252511708 	-1.450583703e-05
0.337418142 	2.855528216 	0.5243608113 	-3.583791502e-07
0.3374324648 	2.855547781 	0.5243376384 	-1.625173258e-06
0.337988836 	2.856307378 	0.5234405627 	-1.360755924e-05
0.3385698873 	2.85700644 	0.5224877555 	-2.767697229e-05
0.3391615162 	2.857633413 	0.5215037261 	-4.185720453e-05
0.3397639102 	2.858194992 	0.5204896791 	-5.614744895e-05
0.3403772602 	2.858696874 	0.5194466145 	-7.054642714e-05
0.3410017602 	2.859143926 	0.5183753628 	-8.505246281e-05
0.3416376076 	2.859540332 	0.5172766149 	-9.966353889e-05
0.342285003 	2.859889704 	0.5161509456 	-0.0001143773422
0.3429441507 	2.860195178 	0.5149988325 	-0.0001291912981
0.3436152583 	2.860459487 	0.5138206722 	-0.0001441025939
0.3442985368 	2.86068503 	0.5126167934 	-0.0001591082011
0.3449942011 	2.860873917 	0.5113874709 	-0.0001742049763
0.3457024694 	2.861028014 	0.5101329425 	-0.0001893897628
0.3464235639 	2.861148986 	0.5088533891 	-0.0002046585625
0.3471577105 	2.861238389 	0.5075486723 	-0.000219999031
0.3479051389 	2.861297491 	0.5062189179 	-0.000235420374
0.3486660827 	2.861325507 	0.5048603166 	-0.0002509262257
0.34945109 	2.861317337 	0.503460932 	-0.0002658000497
0.3502630611 	2.861263753 	0.5020159975 	-0.0002470066453
0.3510896352 	2.861156696 	0.5005338825 	-0.0002281316622
0.3519310666 	2.860993274 	0.4990198206 	-0.0002092083602
0.3527876142 	2.860773255 	0.4974739711 	-0.0001902271596
0.3536595409 	2.860497408 	0.4958961205 	-0.0001712000214
0.3545471142 	2.860166757 	0.4942862342 	-0.0001521395916
0.3554506062 	2.859782599 	0.4926444863 	-0.0001330532643
0.3563702933 	2.859346519 	0.4909711264 	-0.0001139481675
0.357306457 	2.858860307 	0.4892665922 	-9.483129599e-05
0.358259383 	2.858246778 	0.4873172758 	-7.565081026e-05
0.3597206513 	2.857440523 	0.4848723895 	-4.703169488e-05
0.3611962551 	2.856475857 	0.4821902726 	-1.88448943e-05
0.3622065599 	2.855775514 	0.4803578998 	-5.679011963e-05
0.3626853298 	2.855440733 	0.4794911081 	-8.702007931e-06
0.3641869071 	2.854334623 	0.476763307 	-3.545130284e-05
0.3657415917 	2.853164865 	0.4739834736 	-6.246060122e-05
0.3673153958 	2.851942927 	0.4711708271 	-8.903331492e-05
0.3689044967 	2.850683497 	0.4683457064 	-0.0001150970374
0.3705090474 	2.849392625 	0.4655112875 	-0.0001406544649
0.372129203 	2.848074394 	0.4626687056 	-0.0001657066515
0.3737651208 	2.84673192 	0.459818894 	-0.0001902536435
0.3754169603 	2.845367513 	0.4569625871 	-0.0002142946699
0.3770848833 	2.843982898 	0.4541002228 	-0.0001926411579
0.3787690537 	2.842572725 	0.4512205987 	-0.000165177584
0.3804988631 	2.841129445 	0.4483043622 	-0.0001377303351
0.3822608994 	2.839655684 	0.4453586002 	-0.0001105747067
0.384039893 	2.838160773 	0.4424029044 	-8.398789051e-05
0.3858360178 	2.836648349 	0.439443798 	-5.797341547e-05
0.3876494502 	2.835118465 	0.4364814638 	-3.253152538e-05
0.3894803696 	2.833571062 	0.43351606 	-7.662442174e-06
0.3900584941 	2.833081785 	0.4325869554 	-6.09870969e-05
0.3913268074 	2.832001297 	0.4305505743 	-1.640139514e-05
0.3931901374 	2.830406837 	0.427575255 	-3.980209003e-05
0.3950927878 	2.828780222 	0.4245703685 	-6.293443056e-05
0.3970388981 	2.827120457 	0.421534692 	-8.581004892e-05
0.3990036413 	2.825436398 	0.418487657 	-0.000108072949
0.400987215 	2.823733493 	0.4154389466 	-0.0001297272276
0.4029898197 	2.822011499 	0.4123886734 	-0.0001507747686
0.4050116593 	2.820270147 	0.4093368946 	-0.0001712177746
0.4070529411 	2.818508002 	0.4062816941 	-0.0001568142121
0.4091191997 	2.816714175 	0.4032065283 	-0.000133082122
0.4112474576 	2.814881788 	0.4000966963 	-0.0001094576417
0.4133959597 	2.813019127 	0.3969717937 	-8.648393454e-05
0.4155649276 	2.811135529 	0.3938470212 	-6.416572893e-05
0.4177545874 	2.809230739 	0.3907224629 	-4.249858296e-05
0.4199651688 	2.807304509 	0.3875980734 	-2.147779685e-05
0.4221969057 	2.805351516 	0.3844667542 	-1.0983023e-06
0.4223203246 	2.805243619 	0.3842954286 	-1.128864103e-05
0.424469228 	2.803355644 	0.3813134444 	-1.868268605e-05
0.4267889352 	2.801321358 	0.3781353094 	-3.805133896e-05
0.4291306938 	2.799258509 	0.3749499428 	-5.675527735e-05
0.4314947558 	2.797172798 	0.3717661032 	-7.480243566e-05
0.4338813777 	2.795064012 	0.3685837491 	-9.220029947e-05
0.4362908213 	2.79292769 	0.3653973052 	-0.0001089536955
0.43874163 	2.790753301 	0.3621914136 	-0.0001252106551
0.4412451404 	2.788538421 	0.3589624609 	-0.0001339279932
0.4437723886 	2.786292532 	0.3557272787 	-0.0001144386139
0.446323657 	2.784022201 	0.3524952102 	-9.563017208e-05
0.4488992335 	2.78172728 	0.349266122 	-7.749253052e-05
0.4514994119 	2.779398901 	0.3460294658 	-6.001187591e-05
0.4541616688 	2.777027379 	0.3427699108 	-4.291627168e-05
0.4568588278 	2.774617725 	0.3394973558 	-2.643730772e-05
0.4595815725 	2.77218022 	0.3362264802 	-1.063980471e-05
0.4615041402 	2.770457563 	0.3339410595 	-6.432691099e-05
0.4623294293 	2.769715533 	0.3329598994 	-4.469577697e-06
0.4651017109 	2.767215144 	0.3296896971 	-1.88881272e-05
0.4679286799 	2.764672589 	0.3264023533 	-3.283910673e-05
0.4708000474 	2.762089713 	0.3231017285 	-4.623344028e-05
0.4736987461 	2.759476316 	0.3198017633 	-5.897604036e-05
0.476625129 	2.756836334 	0.3165072347 	-7.10833435e-05
0.4795795562 	2.754161485 	0.3132092888 	-8.256674521e-05
0.4825972259 	2.751442352 	0.3098949282 	-9.359783737e-05
0.4856526605 	2.748683889 	0.3065725459 	-0.0001002475704
0.4887372686 	2.745895795 	0.3032544347 	-8.643689347e-05
0.4918514422 	2.743077274 	0.2999400413 	-7.325889483e-05
0.4950073042 	2.740218678 	0.2966186536 	-6.064051972e-05
0.4982235491 	2.737315848 	0.293285043 	-4.851083702e-05
0.5014705527 	2.73437739 	0.2899513906 	-3.700534337e-05
0.5047487424 	2.731409673 	0.2866249035 	-2.61070037e-05
0.5080599365 	2.728403324 	0.2832964546 	-1.578975945e-05
0.5114411945 	2.725350171 	0.2799557115 	-5.917179335e-06
0.5135991682 	2.723395836 	0.2778427302 	-7.974499137e-05
0.5148541725 	2.722256998 	0.2766133646 	-3.377789622e-06
0.5182988631 	2.71913133 	0.2732778117 	-1.2130213e-05
0.5217779526 	2.715966217 	0.2699420235 	-2.034496382e-05
0.52532682 	2.712753528 	0.2665964762 	-2.813056396e-05
0.528910028 	2.709500627 	0.2632513402 	-3.537779669e-05
0.5325280828 	2.70621344 	0.25991331 	-4.21099871e-05
0.5361891746 	2.70288366 	0.2565747533 	-4.836575463e-05
0.539912511 	2.699506365 	0.2532307487 	-5.418955327e-05
0.5436721471 	2.696088381 	0.2498900122 	-5.952748919e-05
0.5474686338 	2.692630653 	0.2465545553 	-6.440334124e-05
0.5513216279 	2.689125287 	0.2432169469 	-6.430865336e-05
0.5552246668 	2.685572817 	0.2398789224 	-5.694229751e-05
0.5591661162 	2.681978356 	0.2365467965 	-5.00467779e-05
0.5631511971 	2.678337236 	0.2332173041 	-4.358880182e-05
0.5671996694 	2.674643862 	0.2298856116 	-3.752574697e-05
0.5712881919 	2.67090357 	0.2265584752 	-3.18950229e-05
0.5754174009 	2.667115576 	0.2232366342 	-2.667314782e-05
0.5796100922 	2.66327256 	0.219913952 	-2.18100289e-05
0.5838480727 	2.659377436 	0.2165947422 	-1.733191302e-05
0.5881285045 	2.655431005 	0.2132813742 	-1.322145466e-05
0.592468147 	2.651427107 	0.209969308 	-9.439730581e-06
0.5968582973 	2.647366213 	0.2066604874 	-5.995362715e-06
0.6012927572 	2.6432489 	0.2033572954 	-2.875500283e-06
0.6057856853 	2.639070034 	0.2000564938 	-4.763225331e-08
0.6058686619 	2.638992632 	0.1999962905 	-3.777309259e-06
0.6103303191 	2.63482861 	0.1967579947 	-2.533058776e-06
0.6149212656 	2.630525089 	0.1934650455 	-4.832600199e-06
0.6195723842 	2.626154472 	0.1901748965 	-6.87795275e-06
0.6242759264 	2.621716471 	0.1868891543 	-8.667168288e-06
0.6290278534 	2.617209712 	0.1836089008 	-1.021716521e-05
0.6338430612 	2.612628732 	0.1803313201 	-1.155069349e-05
0.6387094544 	2.607973548 	0.1770586147 	-1.266696335e-05
0.6436287687 	2.603241811 	0.173791094 	-1.358700683e-05
0.6486104566 	2.598441376 	0.1705351344 	-1.432395828e-05
0.6535885607 	2.593612821 	0.1673197295 	-1.487847984e-05
0.65851419 	2.588795105 	0.1641701257 	-1.52709578e-05
0.6633878192 	2.583999741 	0.1610917639 	-1.551621453e-05
0.6682048624 	2.579226638 	0.1580830865 	-1.563459486e-05
0.6729731885 	2.574473415 	0.1551405587 	-1.564621455e-05
0.6776883892 	2.569740231 	0.1522627079 	-1.555952198e-05
0.6823494001 	2.565026527 	0.1494477684 	-1.539161297e-05
0.6869638811 	2.560329664 	0.1466923506 	-1.515465439e-05
0.69152573 	2.555650366 	0.1439955788 	-1.485510244e-05
0.6960360527 	2.550988017 	0.1413557349 	-1.450613052e-05
0.7005001735 	2.546340343 	0.1387699679 	-1.411459129e-05
0.7049135952 	2.541707892 	0.1362374407 	-1.368589683e-05
0.7092775063 	2.537089986 	0.1337565384 	-1.322958787e-05
0.7135960089 	2.532484717 	0.1313248874 	-1.274980972e-05
0.7178657865 	2.527892491 	0.128941676 	-1.225035409e-05
0.7220875898 	2.523312683 	0.1266054953 	-1.173808573e-05
0.7262652504 	2.518743517 	0.1243142528 	-1.121600137e-05
0.7303960315 	2.514185207 	0.1220671292 	-1.06860166e-05
0.7344805912 	2.509637367 	0.119863012 	-1.015309911e-05
0.7385215828 	2.505098509 	0.1177001309 	-9.619886929e-06
0.7425178833 	2.500568389 	0.1155775139 	-9.086683246e-06
0.7464696505 	2.496046786 	0.1134942835 	-8.556938653e-06
0.7503784336 	2.4915326 	0.1114490137 	-8.033173849e-06
0.7542446399 	2.487025142 	0.1094405997 	-7.51485237e-06
0.7580679078 	2.482524309 	0.1074683214 	-7.003949842e-06
0.7618489142 	2.47802935 	0.1055310813 	-6.502620727e-06
0.7655892833 	2.473539232 	0.103627694 	-6.010765548e-06
0.7692882266 	2.469053764 	0.1017574613 	-5.528606189e-06
0.7729462699 	2.464572591 	0.09991962205 	-5.057691185e-06
0.7765644362 	2.460094793 	0.09811312327 	-4.598939452e-06
0.7801431096 	2.455619745 	0.09633712783 	-4.151384127e-06
0.7836822925 	2.451147185 	0.09459101762 	-3.715757883e-06
0.7871824709 	2.446676528 	0.09287400781 	-3.292949108e-06
0.7906446711 	2.442206927 	0.09118521661 	-2.882968615e-06
0.7940688637 	2.437737923 	0.08952399416 	-2.485009776e-06
0.7974553732 	2.433269188 	0.08788977555 	-2.099636882e-06
0.8008046515 	2.428800063 	0.08628183964 	-1.727327516e-06
0.8041175789 	2.42432977 	0.08469944584 	-1.367686273e-06
0.8073941181 	2.419857865 	0.08314204297 	-1.020074871e-06
0.8106346707 	2.415383957 	0.0816091147 	-6.847973632e-07
0.8138396595 	2.410907392 	0.08010003851 	-3.620760442e-07
0.8170097807 	2.406427438 	0.07861418434 	-5.151071337e-08
0.8175402391 	2.405668811 	0.07836664665 	-1.308780126e-05
0.8201450131 	2.401943745 	0.07715076298 	-2.354203181e-07
0.8232458362 	2.39745571 	0.07570955006 	-5.086845745e-07
0.8263126747 	2.392962666 	0.07429008367 	-7.707580434e-07
0.8293460587 	2.388463885 	0.07289182171 	-1.021868586e-06
0.832346269 	2.383958725 	0.07151429732 	-1.262767248e-06
0.8353136109 	2.379446613 	0.07015709449 	-1.493524816e-06
0.8382484591 	2.374926915 	0.06881977306 	-1.714184988e-06
0.8411512145 	2.370398881 	0.06750186959 	-1.924839442e-06
0.8440222961 	2.365861734 	0.06620294381 	-2.126106063e-06
0.8468619449 	2.361314781 	0.0649226206 	-2.31829823e-06
0.8496705157 	2.356757312 	0.0636605184 	-2.501507362e-06
0.852448358 	2.352188525 	0.0624162505 	-2.675842195e-06
0.8551958614 	2.347607542 	0.06118941913 	-2.841518391e-06
0.857913338 	2.343013476 	0.05997966119 	-2.999102145e-06
0.8606010833 	2.338405456 	0.05878664886 	-3.148768283e-06
0.8632594293 	2.333782564 	0.05761004063 	-3.290641575e-06
0.8658887031 	2.329143805 	0.05644950286 	-3.424855943e-06
0.8684892567 	2.324488103 	0.05530469364 	-3.55164032e-06
0.8710613826 	2.31981435 	0.05417529906 	-3.6714534e-06
0.8736053763 	2.315121422 	0.05306102927 	-3.78445496e-06
0.8761215493 	2.310408137 	0.05196158312 	-3.890778069e-06
0.8786102089 	2.305673232 	0.05087667223 	-3.990560506e-06
0.8810716699 	2.300915356 	0.04980600118 	-4.083971341e-06
0.883506227 	2.296133082 	0.04874929005 	-4.17138665e-06
0.8859141583 	2.291324937 	0.04770628241 	-4.252989327e-06
0.888295757 	2.286489376 	0.04667671469 	-4.328908359e-06
0.8906513125 	2.281624755 	0.04566033116 	-4.399274178e-06
0.8929811107 	2.276729324 	0.04465687999 	-4.464217606e-06
0.8952854442 	2.271801214 	0.04366610779 	-4.523959836e-06
0.8975645752 	2.266838461 	0.04268778048 	-4.578758919e-06
0.8998187786 	2.261839 	0.0417216713 	-4.628735318e-06
0.9020483272 	2.256800638 	0.04076754883 	-4.674006576e-06
0.9042534911 	2.251721045 	0.03982519222 	-4.714690392e-06
0.9064345369 	2.246597729 	0.03889438106 	-4.750903061e-06
0.9085917323 	2.241428021 	0.03797489593 	-4.782838183e-06
0.9107253281 	2.236209079 	0.03706653246 	-4.810681946e-06
0.912835582 	2.230937867 	0.03616908915 	-4.834540087e-06
0.9149227491 	2.225611117 	0.03528236258 	-4.854516556e-06
0.9169870814 	2.220225296 	0.03440615602 	-4.870714918e-06
0.9190288278 	2.214776565 	0.03354027661 	-4.883237835e-06
0.9210482361 	2.209260726 	0.03268452773 	-4.892211902e-06
0.923045546 	2.20367318 	0.03183872115 	-4.897808474e-06
0.9250209973 	2.198008876 	0.03100267413 	-4.819250194e-06
0.9269748283 	2.192262238 	0.03017619811 	-4.630166205e-06
0.9289072748 	2.186427087 	0.02935910606 	-4.44723173e-06
0.9308185697 	2.180496566 	0.02855121209 	-4.270268986e-06
0.9327089434 	2.17446305 	0.02775232677 	-4.099103447e-06
0.9345786239 	2.16831807 	0.02696225508 	-3.93353656e-06
0.9364278344 	2.162052237 	0.02618080433 	-3.773366584e-06
0.9382567978 	2.155655183 	0.02540777804 	-3.618429447e-06
0.9400657346 	2.1491155 	0.02464297148 	-3.468562359e-06
0.9418548629 	2.142420694 	0.02388617682 	-3.323604412e-06
0.9436243985 	2.135557176 	0.0231371827 	-3.183396607e-06
0.9453745545 	2.128510283 	0.02239577542 	-3.047782274e-06
0.9471055421 	2.121264356 	0.02166173624 	-2.916600542e-06
0.948817569 	2.1138029 	0.02093484928 	-2.789676352e-06
0.9505108414 	2.106108882 	0.02021488727 	-2.666869701e-06
0.9521855636 	2.098847363 	0.01956159839 	-2.552531624e-06
0.9532765531 	2.09280176 	0.01903664592 	-2.472044634e-06
0.9543474718 	2.08737432 	0.01857928256 	-2.398478733e-06
0.9553986881 	2.081882271 	0.01812966653 	-2.327260831e-06
0.9564305636 	2.076322324 	0.0176876288 	-2.258293825e-06
0.957443453 	2.070691631 	0.01725299423 	-2.191488784e-06
0.958437705 	2.064987651 	0.01682559593 	-2.1267623e-06
0.9594136616 	2.05920806 	0.01640527389 	-2.064035031e-06
0.9603716585 	2.053350672 	0.01599187419 	-2.003227022e-06
0.9613120254 	2.047413378 	0.01558524909 	-1.944263381e-06
0.962235086 	2.041394103 	0.01518525536 	-1.887074705e-06
0.963141158 	2.035290755 	0.01479175397 	-1.831593869e-06
0.9640305534 	2.02910119 	0.01440461029 	-1.777755818e-06
0.9649035784 	2.02282318 	0.01402369367 	-1.725497388e-06
0.9657605337 	2.016454381 	0.01364887737 	-1.674757219e-06
0.9666017145 	2.0099923 	0.01328003847 	-1.625475717e-06
0.9674274106 	2.00343427 	0.01291705793 	-1.577595064e-06
0.9682379063 	1.996777411 	0.01255982057 	-1.53105923e-06
0.9690334809 	1.990018606 	0.01220821521 	-1.485813995e-06
0.9698144087 	1.983154455 	0.01186213475 	-1.441806923e-06
0.9705809586 	1.976181242 	0.01152147626 	-1.398987294e-06
0.9713333949 	1.969094891 	0.01118614117 	-1.357305964e-06
0.972071977 	1.961890918 	0.01085603545 	-1.316715159e-06
0.9727969594 	1.954564377 	0.01053106929 	-1.277168068e-06
0.9735085922 	1.947109811 	0.01021115778 	-1.238617446e-06
0.9742071205 	1.939521185 	0.0098962212 	-1.201018215e-06
0.9748927854 	1.93179183 	0.009586184537 	-1.164327039e-06
0.9755658233 	1.923914367 	0.009280977952 	-1.128502707e-06
0.9762264663 	1.915880636 	0.008980536944 	-1.093507282e-06
0.9768749423 	1.907681624 	0.008684802387 	-1.059307092e-06
0.9775114751 	1.899307375 	0.008393720586 	-1.025872494e-06
0.9781362841 	1.890746915 	0.008107243343 	-9.931748792e-07
0.9787495851 	1.881988155 	0.007825328118 	-9.611821508e-07
0.9793515896 	1.873017797 	0.007547938401 	-9.298556716e-07
0.9799425054 	1.863821232 	0.007275044222 	-8.991490228e-07
0.9805225364 	1.854382422 	0.007006622553 	-8.690093843e-07
0.9810918828 	1.844683778 	0.006742657656 	-8.393844497e-07
0.9816507412 	1.834706042 	0.006483141465 	-8.102321139e-07
0.9821993045 	1.824428172 	0.006228073833 	-7.815252154e-07
0.9827377621 	1.813827223 	0.005977462273 	-7.532495727e-07
0.9832662998 	1.802878245 	0.005731321186 	-7.253960807e-07
0.9837851002 	1.791554157 	0.005489671135 	-6.979529513e-07
0.9842943424 	1.779825596 	0.00525253849 	-6.709039712e-07
0.9847942024 	1.767660781 	0.005019955354 	-6.442315066e-07
0.9852848526 	1.755025366 	0.004791959485 	-6.179200351e-07
0.9857664627 	1.741882288 	0.004568593834 	-5.919573964e-07
0.986239199 	1.728191611 	0.004349906048 	-5.663351124e-07
0.9867032246 	1.713910347 	0.004135948084 	-5.410487038e-07
0.9871587001 	1.698992271 	0.003926775366 	-5.160978619e-07
0.9876057827 	1.683387714 	0.003722445956 	-4.914861427e-07
0.9880446269 	1.667043329 	0.00352301986 	-4.672207935e-07
0.9884753843 	1.649901835 	0.003328558117 	-4.433124874e-07
0.9888982039 	1.631901725 	0.003139121997 	-4.197750637e-07
0.9893132316 	1.612976936 	0.002954772252 	-3.966254508e-07
0.989720611 	1.59305647 	0.002775568155 	-3.738833885e-07
0.9901204828 	1.572064002 	0.002601566699 	-3.515710358e-07
0.9905129853 	1.549917466 	0.002432821588 	-3.297128809e-07
0.9908982542 	1.526528645 	0.002269381635 	-3.083355818e-07
0.9912764225 	1.50180279 	0.002111299622 	-2.874667784e-07
0.9916476211 	1.475638462 	0.001958659411 	-2.671314295e-07
0.9920119783 	1.45035901 	0.001823785674 	-2.487651136e-07
0.9922464807 	1.428796665 	0.001717522593 	-2.347082261e-07
0.9924809859 	1.408804362 	0.00162549004 	-2.222397214e-07
0.9927154937 	1.387745969 	0.001534781613 	-2.098988554e-07
0.9929500042 	1.365543206 	0.001445447534 	-1.977038817e-07
0.9931845174 	1.342111302 	0.001357552986 	-1.856730883e-07
0.9934190332 	1.31735707 	0.001271171457 	-1.738231572e-07
0.9936535518 	1.291172082 	0.001186378162 	-1.621775845e-07
0.9938880731 	1.263430408 	0.001103245279 	-1.507623492e-07
0.994122597 	1.233999849 	0.001021867219 	-1.395855349e-07
0.9943571236 	1.202746614 	0.0009423574885 	-1.286568519e-07
0.994591653 	1.169528916 	0.0008648271662 	-1.179973317e-07
0.994826185 	1.13419327 	0.0007893929511 	-1.076271982e-07
0.9950607197 	1.096574099 	0.0007161794048 	-9.756791604e-08
0.9952952571 	1.056494813 	0.0006453197915 	-8.784191752e-08
0.9955297972 	1.013770144 	0.0005769586281 	-7.84724285e-08
0.99576434 	0.9682099779 	0.0005112814071 	-6.948201558e-08
0.9959988855 	0.9196251531 	0.0004485292003 	-6.089518092e-08
0.9962334336 	0.8678357855 	0.0003887940112 	-5.274998478e-08
0.9964679845 	0.8126822071 	0.0003296923985 	-4.520115541e-08
0.996702538 	0.7540335086 	0.000277124074 	-3.776219459e-08
0.9969370943 	0.6916706698 	0.000234542628 	-3.084282785e-08
0.9971716532 	0.6253290979 	0.0001891395776 	-2.52584052e-08
0.9974062148 	0.5551099419 	0.0001422292512 	-1.980396818e-08
0.9976407792 	0.4815609609 	0.0001029599297 	-1.445605623e-08
0.9978753462 	0.4053750389 	7.095481309e-05 	-1.005392521e-08
0.9981099159 	0.3271692834 	4.56440482e-05 	-6.472767598e-09
0.9983444883 	0.2473671534 	2.622202189e-05 	-3.688623062e-09
0.9985790633 	0.1661914481 	1.232609636e-05 	-1.680247375e-09
0.9988136411 	0.08372804613 	-2.185757224e-06 	-2.74880686e-10
0.9990482216 	0.03501637927 	-9.254511803e-06 	2.631945203e-10
0.9990482216 	0.03501637927 	-9.254511803e-06 	2.631945203e-10
