/*--------------------------------*- C++ -*----------------------------------*\
  =========                 |
  \\      /  F ield         | OpenFOAM: The Open Source CFD Toolbox
   \\    /   O peration     | Website:  https://openfoam.org
    \\  /    A nd           | Version:  7
     \\/     M anipulation  |
\*---------------------------------------------------------------------------*/
FoamFile
{
    version     2.0;
    format      ascii;
    class       volScalarField;
    location    "2000";
    object      p;
}
// * * * * * * * * * * * * * * * * * * * * * * * * * * * * * * * * * * * * * //

dimensions      [0 2 -2 0 0 0 0];

internalField   nonuniform List<scalar> 
15296
(
0.59027908
0.58639861
0.58283561
0.58168912
0.58054171
0.57950554
0.57858568
0.57773739
0.57694184
0.5761899
0.57547137
0.5747764
0.57409995
0.573437
0.57278289
0.57213042
0.57148543
0.57084342
0.57027452
0.57181286
0.57115463
0.57056084
0.5699975
0.56948774
0.56906211
0.56876632
0.56866909
0.56887589
0.5695505
0.57091203
0.57335277
0.57747588
0.58433345
0.59609062
0.61781654
0.65749544
0.73150973
0.86669046
0.58940387
0.5855147
0.5837361
0.58260687
0.58146393
0.58042828
0.57950891
0.57866119
0.57786635
0.57711525
0.57639773
0.57570401
0.57502901
0.57436772
0.57371556
0.57306597
0.5724235
0.57178424
0.57120826
0.57093166
0.57026258
0.56966293
0.56909687
0.56858436
0.56815578
0.56785681
0.56775611
0.56795878
0.56862698
0.56997972
0.57240603
0.5765053
0.58332095
0.59499506
0.61657222
0.65601386
0.729532
0.86629169
0.58907994
0.58518528
0.58406472
0.582944
0.58180346
0.58076893
0.57985069
0.57900402
0.57821018
0.57746008
0.57674354
0.57605223
0.57537968
0.57472089
0.57407142
0.57342801
0.57278874
0.5721529
0.57155866
0.57060342
0.56995081
0.56934978
0.56878334
0.56827068
0.56784238
0.56754434
0.5674456
0.56765135
0.56831999
0.56966319
0.57208611
0.57619025
0.58302054
0.59472326
0.61623482
0.65546894
0.72850824
0.86565407
0.58915798
0.58526169
0.58402472
0.58290893
0.58177065
0.58073818
0.57982191
0.57897693
0.57818459
0.57743577
0.57672033
0.57603023
0.57535878
0.57470102
0.57405263
0.57341145
0.57277329
0.57213859
0.5715253
0.57067824
0.57004432
0.56944465
0.5688796
0.56836861
0.56794256
0.56764763
0.56755335
0.56776501
0.56844188
0.56980541
0.57226342
0.5764262
0.58335236
0.59518429
0.61649658
0.65524701
0.72751411
0.86311947
0.58929266
0.58540535
0.58391167
0.58279633
0.58165884
0.58062764
0.57971259
0.57886863
0.57807712
0.57732897
0.57661404
0.57592405
0.5752526
0.57459477
0.57394631
0.57330455
0.57266616
0.57203106
0.57141012
0.57082602
0.57020179
0.56960458
0.5690411
0.56853168
0.56810729
0.56781415
0.56772182
0.56793518
0.56861639
0.56999971
0.57247933
0.57666885
0.58362921
0.59541942
0.61645401
0.65469857
0.72611973
0.8598413
0.58929261
0.58543266
0.58389448
0.58277942
0.58164219
0.58061125
0.57969648
0.57885281
0.57806155
0.57731363
0.57659893
0.57590896
0.57523751
0.57457967
0.57393122
0.57328896
0.57265047
0.57201514
0.57139468
0.57085702
0.5702334
0.56963701
0.56907373
0.56856414
0.56813906
0.5678444
0.56774927
0.56795755
0.56863128
0.57000959
0.5724777
0.57664378
0.58355554
0.59523811
0.61594741
0.65366492
0.72415716
0.85545311
0.5892251
0.58539982
0.58393426
0.58282242
0.58168614
0.58065543
0.57974094
0.5788976
0.57810667
0.57735908
0.57664474
0.57595508
0.57528394
0.57462642
0.57397831
0.57333624
0.57269808
0.57206318
0.5714427
0.57082649
0.57020133
0.5696045
0.56904073
0.56853018
0.56810343
0.56780599
0.56770635
0.56790727
0.56856851
0.56992707
0.57236638
0.57648596
0.58331486
0.59488811
0.61525724
0.65234074
0.72169609
0.84964068
0.58917741
0.58539144
0.58394846
0.5828402
0.581705
0.58067452
0.57976034
0.57891738
0.57812682
0.57737963
0.57666571
0.57597649
0.5753058
0.57464873
0.57400108
0.57335951
0.57272182
0.57208746
0.57146324
0.57081515
0.57019244
0.56959536
0.56903111
0.56851953
0.56809091
0.56779031
0.56768549
0.56787794
0.5685248
0.56985988
0.57226412
0.57632721
0.58306001
0.59447239
0.61448197
0.65086841
0.71898819
0.84298374
0.58915085
0.5854073
0.58394135
0.58283591
0.58170157
0.58067135
0.57975756
0.57891506
0.57812494
0.57737819
0.57666472
0.57597597
0.57530574
0.57464913
0.57400193
0.57336083
0.57272358
0.57208958
0.5714622
0.57082818
0.57020931
0.56961252
0.56904797
0.56853548
0.56810503
0.5678012
0.56769096
0.56787443
0.56850645
0.56981809
0.57218525
0.57618742
0.58281695
0.59402147
0.61364068
0.64924581
0.71601099
0.83554464
0.58912197
0.58542378
0.58393453
0.58283245
0.58169906
0.58066906
0.57975572
0.57891374
0.57812409
0.57737782
0.57666487
0.57597663
0.5753069
0.57465078
0.57400409
0.57336346
0.57272669
0.57209302
0.5714651
0.57084417
0.57022729
0.56963075
0.56906587
0.56855236
0.56811989
0.56781245
0.56769614
0.5678696
0.56848536
0.56977141
0.57209746
0.57603182
0.58254551
0.59350538
0.61270175
0.64743321
0.7127165
0.82732311
0.58908515
0.58543594
0.58393285
0.58283594
0.58170396
0.58067422
0.57976141
0.57892006
0.57813098
0.57738528
0.57667292
0.57598529
0.57531616
0.57466063
0.57401452
0.57337447
0.57273826
0.57210509
0.57147762
0.57085645
0.57023996
0.5696434
0.56907803
0.56856332
0.5681285
0.56781694
0.56769374
0.56785593
0.56845347
0.56971047
0.57199003
0.57584793
0.58223152
0.59292037
0.61165471
0.64540498
0.70906051
0.81831808
0.58904392
0.58544923
0.58393095
0.58284086
0.58171078
0.5806813
0.57976913
0.57892852
0.5781401
0.57739506
0.57668339
0.57599647
0.57532804
0.5746732
0.57402778
0.57338841
0.57275285
0.57212032
0.57149286
0.57086847
0.57025234
0.56965567
0.56908973
0.56857361
0.56813612
0.5678199
0.56768895
0.56783851
0.56841565
0.56963998
0.57186739
0.57563958
0.58187937
0.5922718
0.61049994
0.64316071
0.70504643
0.80863028
0.58900181
0.58546688
0.58392625
0.58284422
0.58171645
0.58068719
0.57977577
0.57893605
0.57814839
0.57740409
0.57669321
0.57600709
0.57533946
0.57468541
0.57404076
0.57340216
0.57276733
0.57213548
0.57150787
0.57088323
0.57026791
0.56967121
0.56910462
0.56858695
0.56814647
0.56782505
0.56768547
0.56782098
0.56837552
0.56956366
0.57173321
0.57541029
0.58149251
0.59156012
0.60923555
0.64069431
0.70066362
0.7982966
0.58895634
0.58548887
0.58391915
0.58284648
0.58172171
0.58069263
0.57978208
0.5789434
0.57815662
0.57741318
0.5767032
0.57601799
0.57535128
0.57469813
0.57405437
0.57341663
0.57278264
0.57215151
0.57152411
0.57090078
0.5702863
0.56968958
0.56912227
0.56860283
0.56815898
0.56783171
0.56768243
0.56780221
0.56833148
0.56947922
0.57158414
0.57515499
0.58106279
0.59077303
0.60784145
0.63796828
0.69583869
0.78721918
0.58890184
0.58551537
0.58391021
0.58284824
0.58172763
0.58069868
0.57978912
0.57895168
0.57816593
0.57742348
0.57671452
0.57603037
0.57536471
0.57471262
0.5740699
0.57343315
0.57280011
0.57216981
0.57154297
0.5709206
0.57030672
0.5697099
0.56914173
0.56862026
0.56817259
0.56783871
0.56767851
0.56778062
0.56828158
0.56938411
0.57141674
0.57486891
0.58058336
0.58990341
0.60630561
0.63496309
0.69052
0.77540169
0.58882916
0.58555021
0.58389748
0.58284903
0.58173511
0.58070637
0.57979814
0.57896246
0.57817815
0.57743703
0.57672947
0.57604676
0.57538256
0.57473191
0.5740906
0.57345522
0.57282345
0.5721943
0.57156831
0.57094662
0.57033325
0.56973621
0.56916683
0.56864263
0.56818984
0.56784716
0.56767249
0.56775127
0.56821498
0.56925808
0.57119586
0.57449261
0.57995627
0.58878073
0.60432769
0.63109057
0.68362653
0.7607153
0.58875632
0.58558179
0.58388194
0.58284799
0.58174289
0.58071471
0.57980827
0.5789749
0.57819246
0.57745305
0.57674726
0.57606635
0.57540397
0.57475512
0.57411558
0.5734819
0.57285172
0.57222399
0.5715991
0.57097824
0.57036541
0.56976808
0.5691972
0.56866962
0.56821059
0.56785725
0.56766509
0.56771574
0.56813474
0.56910663
0.57093131
0.57404291
0.57921373
0.58747134
0.60204148
0.62657612
0.67559628
0.74412514
0.58868559
0.5856056
0.58386522
0.58284415
0.58174931
0.58072216
0.57981774
0.57898704
0.57820675
0.57746928
0.57676543
0.57608648
0.57542605
0.57477915
0.57414152
0.57350968
0.57288121
0.57225503
0.57163135
0.57101147
0.5703992
0.56980154
0.56922904
0.56869788
0.56823224
0.56786764
0.56765708
0.56767828
0.56805059
0.5689483
0.57065575
0.57357567
0.57844808
0.58614282
0.59974707
0.62203214
0.66745462
0.72805527
0.58860946
0.58562281
0.58384667
0.58283665
0.58175378
0.58072829
0.57982614
0.5789985
0.57822069
0.57748539
0.57678369
0.57610688
0.57544856
0.57480376
0.57416819
0.57353832
0.57291171
0.57228717
0.57166483
0.571046
0.57043428
0.56983623
0.569262
0.56872701
0.56825437
0.56787792
0.56764809
0.56763851
0.56796225
0.56878302
0.57036943
0.57309186
0.57765963
0.58479814
0.59743863
0.61750812
0.65924186
0.71263261
0.58852477
0.58563328
0.58382558
0.58282478
0.58175566
0.58073262
0.57983301
0.57900885
0.57823391
0.57750107
0.57680176
0.57612728
0.57547125
0.57482872
0.57419537
0.57356763
0.57294301
0.57232023
0.57169934
0.57108159
0.57047039
0.5698719
0.56929577
0.56875672
0.56827669
0.56788779
0.5676378
0.56759617
0.56786952
0.56861072
0.5700725
0.57259237
0.57684773
0.58343814
0.59507857
0.61304217
0.65099812
0.69788965
0.58842905
0.58563585
0.58380114
0.58280783
0.58175414
0.58073457
0.5798378
0.57901762
0.57824599
0.57751594
0.57681928
0.57614737
0.57549384
0.57485376
0.57422282
0.5735974
0.57297492
0.57235404
0.5717347
0.57111809
0.57050738
0.56990837
0.5693302
0.5687868
0.56829894
0.56789695
0.56762585
0.5675508
0.56777183
0.56843075
0.56976415
0.57207664
0.57600976
0.5820582
0.5926601
0.60866343
0.64274606
0.68379607
0.58832047
0.58562897
0.58377247
0.58278501
0.58174828
0.58073337
0.57983983
0.57902413
0.57825633
0.57752945
0.57683575
0.57616667
0.57551587
0.57487847
0.57425014
0.57362722
0.57300705
0.57238822
0.57177054
0.57115511
0.57054489
0.56994527
0.56936488
0.56881684
0.5683207
0.56790496
0.56761182
0.56750203
0.5676689
0.56824302
0.5694446
0.57154593
0.57514838
0.58066108
0.5902459
0.60442236
0.63455824
0.67037513
0.58819899
0.58561097
0.58373835
0.58275532
0.58173689
0.58072803
0.5798382
0.57902755
0.57826415
0.57754088
0.57685049
0.57618453
0.57553671
0.57490221
0.57427672
0.57365651
0.57303884
0.5724222
0.57180629
0.57119209
0.57058233
0.56998201
0.56939921
0.56884622
0.56834136
0.56791121
0.56759511
0.56744933
0.56756035
0.56804748
0.56911424
0.57100186
0.57426692
0.57924897
0.58787522
0.6002917
0.62650268
0.65764135
0.58806292
0.58558032
0.58369761
0.58271771
0.58171869
0.58071746
0.57983193
0.57902692
0.57826858
0.57754942
0.57686273
0.57620022
0.57555565
0.57492432
0.57430191
0.57368463
0.57306965
0.57245536
0.57184134
0.57122843
0.5706191
0.57001796
0.56943254
0.56887427
0.5683602
0.56791497
0.56757499
0.56739198
0.5674455
0.56784363
0.56877281
0.57044487
0.57336791
0.57781861
0.58552322
0.59622129
0.61865226
0.64556894
0.58790589
0.58553434
0.58364861
0.58267094
0.58169224
0.58070035
0.57981987
0.57902117
0.5782686
0.57755413
0.57687158
0.57621288
0.57557188
0.57494398
0.57432491
0.57371081
0.57309874
0.57248697
0.57187495
0.57126338
0.57065444
0.57005236
0.56946408
0.56890018
0.56837638
0.56791536
0.56755053
0.56732905
0.56732342
0.56763066
0.56841967
0.56987489
0.57245274
0.57637583
0.58316697
0.59231591
0.61109469
0.63413525
0.5877269
0.585472
0.58358998
0.58261374
0.581656
0.58067526
0.57980071
0.57900904
0.57826305
0.57755394
0.57687602
0.57622151
0.57558441
0.57496025
0.5743448
0.57373413
0.57312519
0.57251611
0.57190623
0.57129604
0.57068746
0.5700843
0.56949291
0.56892297
0.56838889
0.56791134
0.56752069
0.56725951
0.56719317
0.56740785
0.56805448
0.56929237
0.57152334
0.57492751
0.58080874
0.58864606
0.60389394
0.62333377
0.58752239
0.58539056
0.58351959
0.58254456
0.58160825
0.5806405
0.57977296
0.57898913
0.5782506
0.57754758
0.57687486
0.57622497
0.57559211
0.574972
0.57436048
0.5737535
0.5731479
0.57254169
0.57193405
0.57132528
0.57071702
0.57011263
0.56951786
0.56894149
0.56839658
0.56790176
0.56748435
0.56718231
0.56705382
0.56717459
0.56767718
0.56869834
0.57058249
0.57348146
0.57845578
0.58513777
0.59717452
0.61322452
0.58729388
0.58528942
0.5834359
0.58246199
0.58154732
0.58059434
0.57973506
0.57895999
0.5782299
0.57753382
0.5768669
0.57622207
0.57559382
0.57497811
0.57437082
0.57376781
0.57316578
0.57256261
0.57195732
0.57134999
0.57074196
0.57013617
0.56953773
0.5689545
0.56839816
0.56788532
0.56744018
0.56709615
0.56690414
0.56692978
0.56728696
0.56809242
0.56963135
0.57203978
0.57612776
0.581733
0.59106716
0.60389728
0.58703957
0.5851671
0.58333706
0.58236456
0.58147155
0.58053505
0.57968543
0.57892016
0.57819958
0.57751138
0.57685093
0.57621163
0.57558837
0.57497739
0.57437465
0.57377589
0.57317766
0.57257769
0.57197482
0.57136892
0.57076102
0.57015361
0.56955116
0.56896061
0.56839222
0.56786058
0.56738675
0.56699965
0.56674288
0.56667242
0.56688338
0.56747479
0.56867241
0.57060467
0.57384037
0.5784137
0.58545022
0.59552288
0.58675874
0.58502311
0.58322177
0.58225104
0.5813794
0.58046083
0.57962244
0.57886817
0.57815828
0.57747903
0.57682576
0.57619244
0.57557451
0.57496861
0.57437075
0.57377653
0.57318231
0.57258566
0.57198526
0.57138075
0.57077283
0.57016354
0.5695567
0.56895832
0.56837725
0.56782603
0.56732261
0.56689145
0.5665689
0.5664017
0.56646637
0.56684608
0.56770902
0.56918024
0.57160775
0.57519929
0.58017385
0.58807045
0.5864574
0.58485803
0.58308881
0.5821204
0.58126953
0.58037014
0.57954469
0.57880277
0.5781049
0.57743576
0.57679043
0.57616347
0.57555117
0.57495067
0.57435801
0.57376859
0.57317857
0.57258534
0.57198742
0.5713842
0.57077605
0.57016458
0.56955294
0.56894618
0.56835177
0.56778022
0.56724634
0.56677027
0.56638115
0.56611688
0.56603595
0.56620695
0.56674436
0.56777001
0.56944145
0.57210231
0.57527403
0.58128591
0.58614826
0.5846736
0.58293719
0.58197193
0.58114066
0.58026128
0.57945074
0.57872277
0.57803845
0.57738078
0.57674412
0.5761238
0.57551731
0.57492247
0.5743353
0.57375095
0.57316528
0.57257554
0.57198003
0.57137795
0.57076933
0.57015532
0.56953842
0.56892275
0.56831437
0.56772179
0.56715676
0.56663514
0.56617906
0.56581797
0.56559317
0.56555951
0.56578318
0.56638065
0.56735296
0.56914066
0.57075182
0.57508245
0.58585731
0.58448009
0.58277232
0.58181161
0.58099775
0.58013807
0.57934388
0.57863105
0.57796146
0.57731631
0.57668863
0.57607473
0.57547383
0.5748846
0.57430297
0.57372368
0.57314231
0.57255589
0.57196259
0.57136138
0.57075202
0.57013521
0.56951283
0.5688881
0.56826577
0.56765242
0.56705693
0.56649116
0.56597073
0.56551724
0.5651566
0.56493098
0.56486594
0.56507033
0.56542575
0.56643496
0.56675832
0.56966731
0.58560584
0.58429739
0.58260672
0.58165048
0.58085127
0.58000987
0.57923245
0.57853498
0.57788056
0.57724824
0.57662908
0.5760207
0.57542463
0.57484048
0.57426397
0.57368935
0.57311185
0.57252831
0.57193679
0.57133612
0.57072582
0.57010622
0.56947864
0.56884547
0.56821028
0.56757802
0.56695499
0.5663496
0.56577181
0.5652365
0.56475668
0.56436371
0.56405124
0.56392016
0.56376696
0.564132
0.56345623
0.56524812
0.58538828
0.5841362
0.58244943
0.58149658
0.5807093
0.57988421
0.57912276
0.57843987
0.57780045
0.57718072
0.57656906
0.57596488
0.57537258
0.57479279
0.57422087
0.57365042
0.57307628
0.57249516
0.57190504
0.57130469
0.57069346
0.57007136
0.56943917
0.56879859
0.56815219
0.56750347
0.5668566
0.56621706
0.5655901
0.564985
0.5644043
0.56387045
0.56335272
0.56294455
0.56238349
0.56223087
0.56079927
0.56172642
0.58521004
0.58399498
0.5822975
0.58134804
0.58057108
0.57976147
0.57901534
0.57834622
0.57772186
0.57711453
0.57650921
0.57590785
0.57531832
0.57474227
0.57417452
0.57360792
0.57303686
0.57245788
0.57186898
0.57126894
0.57065699
0.57003283
0.56939679
0.56874991
0.5680939
0.56743108
0.56676379
0.56609505
0.56542619
0.56476185
0.56409604
0.56344393
0.56275591
0.56211904
0.56122949
0.56065984
0.55865173
0.55889945
0.58510693
0.58387737
0.58215406
0.58120788
0.58043791
0.57964259
0.57891051
0.57825399
0.57764485
0.57704975
0.57644953
0.5758496
0.57526195
0.57468922
0.57412546
0.57356264
0.57299458
0.57241768
0.57183004
0.57123051
0.57061824
0.56999264
0.56935359
0.56870157
0.56803752
0.56736277
0.56667815
0.56598467
0.56528035
0.56456602
0.56382871
0.56307774
0.56224865
0.56142344
0.56026859
0.55936284
0.55691184
0.55662058
0.58511154
0.58376827
0.58200805
0.58107043
0.58030655
0.57952617
0.57880728
0.57816235
0.57756894
0.57698603
0.5763897
0.57578996
0.57520351
0.57463391
0.57407427
0.57351541
0.5729505
0.57237583
0.57178969
0.57119106
0.57057901
0.56995268
0.5693115
0.56865544
0.5679848
0.56730009
0.56660091
0.56588661
0.56515247
0.56439623
0.56359916
0.56276596
0.56182028
0.56084055
0.55947108
0.55829482
0.55550149
0.55477981
0.58525765
0.58368157
0.58186584
0.58093683
0.58017698
0.57941242
0.5787053
0.57807077
0.57749377
0.57692307
0.57632949
0.57572887
0.5751432
0.57457686
0.57402174
0.57346729
0.57290591
0.57233382
0.57174956
0.57115232
0.5705411
0.56991474
0.56927224
0.56861311
0.56793714
0.56724419
0.56653286
0.56580114
0.56504209
0.56425096
0.5634042
0.56250303
0.56146132
0.5603554
0.55881221
0.5574189
0.55435954
0.55329278
0.58541867
0.58358452
0.58171927
0.5808019
0.58004676
0.57930053
0.57860378
0.57797853
0.57741887
0.57686056
0.5762688
0.57566651
0.57508152
0.57451892
0.57396902
0.57341966
0.57286235
0.57229328
0.57171136
0.571116
0.57050616
0.56988036
0.56923722
0.56857583
0.56789557
0.5671958
0.56647433
0.56572814
0.5649484
0.5641284
0.56324061
0.5622836
0.56116313
0.55995477
0.55827101
0.5567044
0.55343718
0.55209351
0.58557075
0.58348341
0.5815741
0.58066594
0.57991573
0.57919048
0.57850219
0.57788507
0.57734388
0.57679838
0.57620779
0.57560341
0.57501939
0.5744613
0.57391761
0.57337417
0.57282154
0.57225596
0.57167677
0.57108369
0.57047562
0.56985081
0.56920748
0.56854441
0.56786063
0.56715518
0.56642526
0.56566706
0.56487024
0.56402653
0.56310506
0.56210255
0.56091779
0.55962686
0.55782947
0.55612554
0.55269491
0.55112966
0.58571207
0.58337005
0.581427
0.58052569
0.579782
0.57908119
0.57839948
0.57778961
0.57726845
0.5767366
0.57614703
0.57554056
0.57495813
0.57440563
0.57386926
0.57333264
0.57278528
0.57222352
0.57164728
0.57105665
0.57045053
0.56982689
0.56918361
0.56851919
0.56783244
0.56712218
0.56638518
0.56561704
0.56480621
0.56394319
0.56299432
0.56195506
0.56071814
0.55936127
0.55747217
0.5556606
0.55210059
0.55035962
0.58586339
0.58324255
0.58127917
0.58038029
0.57964466
0.57897181
0.57829479
0.57769173
0.57719266
0.57667588
0.57608763
0.57547942
0.57489946
0.57435377
0.57382589
0.5732969
0.57275517
0.57219733
0.57162398
0.57103571
0.57043144
0.5698089
0.56916569
0.56850007
0.5678107
0.56709629
0.56635334
0.56557701
0.56475478
0.56387622
0.56290529
0.56183668
0.56055779
0.55914885
0.557186
0.55529137
0.55162805
0.54975034
0.58603596
0.58309544
0.58113068
0.58022804
0.57950249
0.5788614
0.57818765
0.57759159
0.57711729
0.57661756
0.57603135
0.57542193
0.57484538
0.5743077
0.57378933
0.57326848
0.57273245
0.57217825
0.57160741
0.57102111
0.57041836
0.5697967
0.56915342
0.56848659
0.56779482
0.56707679
0.56632884
0.56554586
0.56471451
0.56382366
0.56283522
0.56174354
0.56043127
0.55898186
0.55696001
0.55500278
0.55125622
0.54927577
0.58623486
0.58292494
0.58098268
0.58006763
0.57935501
0.57874969
0.57807838
0.57749037
0.57704423
0.57656391
0.57598041
0.57537015
0.57479782
0.57426917
0.57376105
0.5732485
0.57271776
0.57216655
0.57159752
0.57101259
0.57041092
0.56978979
0.56914623
0.56847816
0.56778417
0.567063
0.56631095
0.56552271
0.56468426
0.56378397
0.56278196
0.56167256
0.56033415
0.55885399
0.55678543
0.55478268
0.55096852
0.54891591
0.58645685
0.58272651
0.5808359
0.57989697
0.5792013
0.57863638
0.57796812
0.57739031
0.57697616
0.57651755
0.57593712
0.57532603
0.57475847
0.57423959
0.573742
0.57323738
0.57271109
0.57216188
0.57159381
0.57100962
0.57040857
0.56978767
0.56914366
0.56847433
0.56777835
0.56705458
0.56629933
0.56550717
0.56466349
0.56375625
0.56274408
0.56162149
0.56026311
0.55876032
0.55665542
0.55462141
0.55075212
0.54865529
0.58669848
0.5824942
0.58068992
0.5797146
0.57904275
0.57852328
0.57785978
0.5772954
0.57691714
0.57648156
0.57590333
0.57529083
0.57472845
0.57421988
0.5737327
0.5732351
0.57271202
0.57216369
0.5715958
0.57101186
0.57041113
0.56979028
0.56914573
0.56847526
0.56777763
0.5670519
0.56629441
0.5654996
0.56465238
0.56374039
0.56272098
0.56158903
0.56021594
0.55869736
0.55656501
0.55451178
0.55059742
0.54848325
0.58696102
0.58222134
0.58054585
0.57952028
0.57888078
0.57841244
0.57775773
0.57721076
0.57687081
0.57645769
0.5758801
0.57526585
0.5747092
0.57421106
0.57373344
0.57324142
0.57272019
0.57217184
0.57160367
0.57101975
0.57041921
0.56979831
0.56915329
0.56848191
0.56778312
0.56705617
0.56629738
0.5655011
0.56465178
0.56373682
0.56271257
0.56157448
0.56019107
0.55866257
0.55651011
0.5544485
0.55049563
0.54839304
0.58725022
0.58189924
0.58040455
0.57931759
0.57872182
0.5783098
0.57766835
0.57714205
0.57684055
0.5764471
0.57586808
0.5752524
0.57470242
0.57421442
0.57374483
0.57325663
0.57273606
0.57218722
0.57161866
0.57103475
0.57043433
0.56981336
0.56916795
0.568496
0.56779661
0.56706913
0.56630986
0.56551301
0.56466265
0.56374613
0.56271891
0.56157736
0.56018714
0.55865405
0.55648694
0.55442814
0.55043745
0.54838381
0.5875133
0.58158605
0.58030001
0.57914094
0.57858281
0.57822648
0.57760736
0.57709908
0.57682578
0.57644689
0.57586859
0.57525468
0.57471104
0.57422972
0.57376431
0.57327766
0.57275717
0.57220799
0.57163916
0.57105505
0.5704544
0.56983316
0.56918752
0.56851543
0.56781603
0.56708865
0.56632946
0.56553259
0.56468187
0.56376478
0.5627361
0.5615934
0.56019951
0.55866653
0.55648969
0.55444304
0.55041569
0.54843853
0.58770344
0.58132219
0.58023234
0.57900799
0.57847408
0.57816465
0.57757313
0.57707833
0.57682155
0.57645267
0.57587803
0.57526855
0.57472995
0.57425167
0.57378726
0.57330065
0.57277998
0.57223056
0.57166134
0.57107667
0.57047542
0.56985371
0.56920783
0.56853576
0.56783656
0.56710943
0.56635043
0.56555366
0.56470282
0.56378553
0.56275626
0.56161331
0.56021806
0.55868613
0.55650536
0.55446818
0.55042036
0.54850078
0.58785768
0.58106504
0.5801812
0.57889676
0.57838089
0.57811418
0.5775548
0.57707225
0.5768267
0.57646592
0.57589667
0.57529286
0.57475841
0.57428124
0.57381625
0.57332889
0.5728077
0.57225774
0.5716877
0.57110202
0.57049977
0.56987731
0.56923103
0.56855885
0.56785972
0.56713273
0.56637381
0.56557705
0.56472613
0.56380876
0.56277934
0.56163655
0.56024119
0.55871067
0.55652929
0.55449974
0.55044075
0.54856876
0.58797761
0.58081734
0.58014655
0.57880948
0.57830589
0.57807684
0.57755219
0.57708089
0.57684254
0.57648809
0.57592456
0.57532621
0.57479459
0.57431704
0.5738504
0.5733616
0.57283931
0.57228822
0.57171684
0.5711297
0.57052612
0.56990264
0.5692557
0.56858317
0.56788388
0.56715679
0.56639779
0.56560095
0.56474996
0.56383262
0.56280333
0.56166099
0.56026629
0.55873747
0.55655749
0.55453451
0.55046984
0.54863924
0.58806832
0.58058298
0.58012805
0.57874805
0.57825275
0.57805578
0.57756667
0.57710518
0.57687026
0.57651968
0.57596065
0.57536639
0.57483617
0.57435713
0.57388803
0.57339704
0.57287292
0.57232007
0.57174688
0.57115798
0.57055285
0.56992814
0.5692803
0.56860714
0.56790743
0.56718005
0.56642083
0.56562385
0.56477282
0.56385558
0.56282662
0.56168494
0.56029137
0.55876443
0.556587
0.55456982
0.5505029
0.54870865
0.58812466
0.58036343
0.58012503
0.57871644
0.57822809
0.57805544
0.57759947
0.57714507
0.57690928
0.57655909
0.57600216
0.57541017
0.57488009
0.57439878
0.57392659
0.57343271
0.57290611
0.57235105
0.57177582
0.57118507
0.57057832
0.56995225
0.56930333
0.56862936
0.56792904
0.56720124
0.56644176
0.56564465
0.56479364
0.56387659
0.5628481
0.56170719
0.56031503
0.55879002
0.55661581
0.55460361
0.55053693
0.54877377
0.58814694
0.58015749
0.58013825
0.57872515
0.57824161
0.57807879
0.57764898
0.57719752
0.57695623
0.57660242
0.57604477
0.57545325
0.57492247
0.57443858
0.57396298
0.57346583
0.57293643
0.57237905
0.57180186
0.57120938
0.5706011
0.56997369
0.56932363
0.56864875
0.56794776
0.56721952
0.5664598
0.5656626
0.56481169
0.56389491
0.56286698
0.5617269
0.56033627
0.55881312
0.55664246
0.55463434
0.55056986
0.5488317
0.58813749
0.57996779
0.58017694
0.57878578
0.57829762
0.57812291
0.57770856
0.57725566
0.57700512
0.57664435
0.57608358
0.57549125
0.57495951
0.57447327
0.57399447
0.57349415
0.57296209
0.57240263
0.57182379
0.5712299
0.57062031
0.56999167
0.56934053
0.56866477
0.56796316
0.56723452
0.56647462
0.56567743
0.56482669
0.56391024
0.56288293
0.5617437
0.56035461
0.5588332
0.55666613
0.55466122
0.55060044
0.54888093
0.5880675
0.57981431
0.58025189
0.57890147
0.57839164
0.5781784
0.57776843
0.57731072
0.57704894
0.57667961
0.5761144
0.57552068
0.57498832
0.57450053
0.57401928
0.57351637
0.57298214
0.57242109
0.57184106
0.57124613
0.57063553
0.57000588
0.5693538
0.56867729
0.56797514
0.56724622
0.56648623
0.56568911
0.5648386
0.56392252
0.56289583
0.56175743
0.5603698
0.55884998
0.55668629
0.55468378
0.55062792
0.54891921
0.58789462
0.57974289
0.58035663
0.57905098
0.57850631
0.57823224
0.57781865
0.57735495
0.57708243
0.57670501
0.5761354
0.5755405
0.57500835
0.5745201
0.57403739
0.57353266
0.5729969
0.57243479
0.571854
0.57125839
0.57064705
0.57001662
0.56936381
0.5686867
0.56798416
0.56725505
0.56649506
0.56569808
0.56484783
0.56393213
0.56290603
0.5617684
0.56038209
0.5588637
0.55670302
0.55470233
0.55065217
0.54894625
0.58753607
0.57978623
0.58041889
0.57917915
0.57862751
0.57827274
0.57785012
0.57738201
0.57710127
0.57671819
0.57614561
0.57555023
0.57501905
0.57453127
0.57404802
0.5735423
0.5730057
0.57244304
0.57186188
0.57126591
0.57065413
0.57002322
0.56936994
0.56869245
0.56798968
0.56726049
0.56650053
0.56570368
0.56485365
0.56393825
0.56291261
0.56177557
0.56039022
0.5588729
0.5567144
0.55471488
0.55067014
0.54895684
0.58714309
0.57986809
0.5804155
0.57927264
0.57873316
0.57829877
0.57786533
0.57739515
0.57710963
0.57672346
0.5761493
0.57555409
0.5750242
0.57453718
0.57405378
0.57354755
0.57301052
0.57244761
0.57186629
0.57127013
0.57065811
0.57002691
0.56937335
0.56869566
0.56799277
0.56726354
0.56650364
0.56570689
0.56485702
0.56394184
0.5629165
0.56177986
0.56039518
0.55887853
0.55672157
0.55472248
0.55068268
0.54895493
0.58737562
0.5799205
0.58033052
0.57934218
0.57885445
0.57832311
0.57787378
0.57740111
0.57711239
0.57672501
0.57614976
0.57555464
0.57502603
0.57453978
0.57405636
0.57354983
0.57301255
0.57244951
0.57186812
0.57127186
0.57065969
0.57002832
0.56937459
0.56869677
0.56799381
0.56726458
0.56650471
0.56570804
0.56485829
0.56394326
0.56291816
0.5617818
0.5603976
0.5588814
0.55672559
0.55472666
0.55069117
0.54893967
0.58799078
0.57983585
0.58022157
0.57940834
0.57894958
0.57833824
0.57787481
0.57740166
0.57711232
0.57672467
0.57614881
0.57555389
0.57502614
0.57454035
0.57405693
0.57355024
0.57301284
0.57244974
0.5718683
0.57127199
0.57065974
0.57002826
0.56937444
0.56869654
0.56799354
0.56726429
0.56650445
0.56570782
0.56485813
0.56394319
0.56291821
0.56178201
0.56039809
0.55888215
0.55672698
0.55472821
0.55069497
0.54892389
0.58854816
0.57973093
0.58015557
0.57942681
0.57896864
0.57833701
0.57787016
0.57739944
0.57711202
0.57672425
0.57614816
0.57555368
0.57502639
0.57454076
0.57405732
0.57355056
0.57301312
0.57244999
0.57186854
0.57127219
0.57065989
0.57002836
0.56937449
0.56869656
0.56799353
0.56726428
0.56650444
0.56570783
0.56485817
0.56394327
0.56291835
0.56178222
0.56039842
0.55888263
0.55672768
0.55472917
0.55069613
0.54892062
1.250727
0.65273967
0.56577831
0.53064031
0.4893781
0.46230537
0.43667481
0.41216232
0.38876311
0.36644396
0.34487182
0.32385825
0.30335869
0.28337002
0.26393479
0.24512677
0.22704185
0.20978742
0.19347536
0.17822112
0.1641384
0.15135874
0.14000485
0.13034316
0.12258152
0.11827959
1.2492152
0.65806184
0.56691551
0.53109887
0.48976995
0.46259807
0.43693019
0.41239014
0.38896756
0.36662867
0.34504004
0.32401173
0.30349832
0.28349636
0.26404826
0.24522768
0.22713052
0.20986426
0.19354089
0.17827603
0.16418352
0.15139508
0.14003351
0.1303655
0.12259885
0.11829401
1.2478694
0.66375705
0.56865861
0.53178526
0.49030312
0.46298069
0.43723985
0.41265225
0.38919509
0.36682987
0.34522075
0.32417538
0.30364701
0.28363143
0.26417058
0.24533801
0.22722952
0.20995261
0.19361935
0.17834543
0.1642448
0.15144931
0.14008184
0.13040936
0.12263941
0.11833074
1.2450855
0.66504588
0.56988405
0.53246359
0.49090752
0.46343298
0.43760291
0.41295429
0.38945364
0.36705641
0.34542311
0.32435829
0.30381345
0.28378331
0.26430908
0.24546413
0.2273442
0.21005678
0.19371396
0.17843152
0.16432346
0.15152178
0.1401494
0.13047368
0.12270173
0.1183884
1.2409828
0.66105727
0.56979914
0.53269285
0.49136978
0.46385243
0.43796598
0.41326422
0.38972117
0.36729157
0.34563352
0.32454875
0.3039871
0.28394218
0.26445448
0.24559712
0.22746581
0.21016803
0.19381592
0.17852532
0.16441033
0.15160309
0.14022657
0.13054858
0.12277573
0.1184579
1.2345078
0.65331504
0.56864878
0.53236603
0.4916438
0.46424266
0.43836591
0.41363225
0.39005041
0.36758621
0.34589974
0.32479119
0.30420914
0.28414624
0.26464212
0.24576963
0.22762444
0.21031407
0.19395076
0.17865048
0.16452745
0.15171398
0.14033314
0.13065332
0.12288049
0.11855706
1.2247326
0.64561703
0.5675971
0.53161488
0.49162532
0.46450085
0.43874172
0.41403205
0.39043628
0.36794657
0.34623338
0.32509949
0.30449411
0.28440991
0.26488606
0.24599525
0.22783314
0.21050743
0.19413051
0.17881858
0.16468601
0.1518654
0.1404799
0.13079869
0.12302675
0.11869557
1.2111862
0.64289387
0.56805261
0.53098467
0.49138542
0.46453613
0.43897089
0.4143535
0.39078991
0.3683026
0.34657857
0.32542787
0.30480344
0.2846999
0.26515714
0.24624817
0.22806899
0.21072763
0.19433681
0.17901302
0.1648709
0.1520434
0.14065377
0.13097201
0.12320191
0.11886122
1.1937214
0.64861973
0.57056458
0.53089066
0.49115349
0.46442067
0.4390422
0.41455622
0.39106826
0.36861804
0.34690763
0.32575632
0.30512311
0.28500651
0.26544867
0.24652391
0.22832911
0.210973
0.19456888
0.17923376
0.16508265
0.15224896
0.14085607
0.13117486
0.12340767
0.11905542
1.1734439
0.66382005
0.57494582
0.53150221
0.4911514
0.46430301
0.43902204
0.41465244
0.39125799
0.3688716
0.34719967
0.32606763
0.30544047
0.28532133
0.26575572
0.2468202
0.2286132
0.21124466
0.19482885
0.17948355
0.16532438
0.15248537
0.14109013
0.13141038
0.12364676