/*--------------------------------*- C++ -*----------------------------------*\
  =========                 |
  \\      /  F ield         | OpenFOAM: The Open Source CFD Toolbox
   \\    /   O peration     | Website:  https://openfoam.org
    \\  /    A nd           | Version:  7
     \\/     M anipulation  |
\*---------------------------------------------------------------------------*/
FoamFile
{
    version     2.0;
    format      ascii;
    class       surfaceScalarField;
    location    "2000";
    object      phi;
}
// * * * * * * * * * * * * * * * * * * * * * * * * * * * * * * * * * * * * * //

dimensions      [0 3 -1 0 0 0 0];

internalField   nonuniform List<scalar> 
30289
(
2.0780403e-07
2.9183493e-09
2.0513203e-07
2.6720001e-09
2.0243763e-07
2.6943971e-09
1.9974286e-07
2.6947722e-09
1.9705769e-07
2.685173e-09
1.943812e-07
2.6764829e-09
1.9171509e-07
2.6661159e-09
1.8906191e-07
2.653174e-09
1.8642355e-07
2.638363e-09
1.8380162e-07
2.621931e-09
1.8119766e-07
2.6039568e-09
1.7861291e-07
2.5847519e-09
1.760482e-07
2.5647091e-09
1.7350406e-07
2.5441424e-09
1.7098215e-07
2.5219047e-09
1.6848129e-07
2.5008652e-09
1.6599975e-07
2.4815427e-09
1.6353748e-07
2.4622615e-09
1.6083887e-07
2.6986165e-09
1.5816904e-07
2.6698318e-09
1.5573009e-07
2.4389508e-09
1.5331678e-07
2.4133056e-09
1.5092071e-07
2.396067e-09
1.4853734e-07
2.3833755e-09
1.4616274e-07
2.3745968e-09
1.4379122e-07
2.3715211e-09
1.4141422e-07
2.3769985e-09
1.3900902e-07
2.405204e-09
1.3652228e-07
2.4867332e-09
1.3393983e-07
2.5824549e-09
1.3125394e-07
2.6858931e-09
1.2838046e-07
2.8734761e-09
1.2518135e-07
3.1991046e-09
1.2138165e-07
3.7997076e-09
1.1628974e-07
5.0919117e-09
1.0852955e-07
7.7601855e-09
9.6257611e-08
1.2271939e-08
1.2399419e-08
8.3858192e-08
6.2339705e-07
1.1648271e-08
6.1532236e-07
1.0746687e-08
6.0720715e-07
1.0809606e-08
5.990877e-07
1.0814223e-08
5.9100219e-07
1.0770681e-08
5.8294428e-07
1.0734396e-08
5.7491769e-07
1.0692705e-08
5.669301e-07
1.0640767e-08
5.5898705e-07
1.0581411e-08
5.5109336e-07
1.051562e-08
5.4325375e-07
1.0443569e-08
5.3547198e-07
1.0366525e-08
5.2775053e-07
1.0286155e-08
5.2009102e-07
1.0203656e-08
5.1249501e-07
1.0117915e-08
5.0496175e-07
1.0034125e-08
4.9748981e-07
9.9534826e-09
4.9007718e-07
9.8748885e-09
4.8253831e-07
1.0237485e-08
4.7505075e-07
1.0157389e-08
4.6778881e-07
9.700891e-09
4.6058177e-07
9.6203526e-09
4.5342171e-07
9.5561187e-09
4.4629952e-07
9.5055724e-09
4.392037e-07
9.4704136e-09
4.3211738e-07
9.4578413e-09
4.2501521e-07
9.4791666e-09
4.178507e-07
9.5697131e-09
4.1053025e-07
9.8071818e-09
4.0297471e-07
1.0138e-08
3.9508266e-07
1.0577947e-08
3.8661256e-07
1.134357e-08
3.7718002e-07
1.2631649e-08
3.6600622e-07
1.4973509e-08
3.5104753e-07
2.0050603e-08
3.28341e-07
3.0466709e-08
2.9065012e-07
4.9962816e-08
-4.5122628e-09
3.0756181e-07
1.038993e-06
2.6123211e-08
1.0255175e-06
2.4222178e-08
1.0119536e-06
2.4373426e-08
9.9840131e-07
2.4366556e-08
9.8490975e-07
2.426224e-08
9.7146492e-07
2.4179225e-08
9.5807265e-07
2.4084978e-08
9.4474571e-07
2.3967709e-08
9.314933e-07
2.3833818e-08
9.183234e-07
2.3685519e-08
9.0524359e-07
2.3523387e-08
8.9226008e-07
2.3350028e-08
8.7937733e-07
2.3168909e-08
8.6659803e-07
2.2982951e-08
8.5392348e-07
2.2792467e-08
8.4135358e-07
2.2604028e-08
8.288873e-07
2.2419757e-08
8.1652098e-07
2.2241209e-08
8.042372e-07
2.2521266e-08
7.9204034e-07
2.2354248e-08
7.7996068e-07
2.1780554e-08
7.6796578e-07
2.1615259e-08
7.5604697e-07
2.1474922e-08
7.4419116e-07
2.1361385e-08
7.3237934e-07
2.1282234e-08
7.2058348e-07
2.1253701e-08
7.0876154e-07
2.1301109e-08
6.9684957e-07
2.148168e-08
6.8474733e-07
2.1909425e-08
6.7230511e-07
2.2580219e-08
6.592856e-07
2.3597449e-08
6.4528001e-07
2.534916e-08
6.2965323e-07
2.8258437e-08
6.1118276e-07
3.3443973e-08
5.8653649e-07
4.4696878e-08
5.4931831e-07
6.7684889e-08
4.8483408e-07
1.1444704e-07
-1.959864e-08
4.9992046e-07
1.4545816e-06
4.6281184e-08
1.43572e-06
4.3083773e-08
1.4167049e-06
4.3388595e-08
1.397724e-06
4.3347468e-08
1.3788306e-06
4.3155571e-08
1.3600031e-06
4.3006792e-08
1.3412492e-06
4.2838789e-08
1.322587e-06
4.2629957e-08
1.3040291e-06
4.2391698e-08
1.2855867e-06
4.2127952e-08
1.2672702e-06
4.1839835e-08
1.2490885e-06
4.1531719e-08
1.2310479e-06
4.1209515e-08
1.2131523e-06
4.0878582e-08
1.1954033e-06
4.0541434e-08
1.1778011e-06
4.0206226e-08
1.1603444e-06
3.9876475e-08
1.1430285e-06
3.9557101e-08
1.1259335e-06
3.9616312e-08
1.1089753e-06
3.9312458e-08
1.0920719e-06
3.8683965e-08
1.0752855e-06
3.8401582e-08
1.0586054e-06
3.8155022e-08
1.0420137e-06
3.7953126e-08
1.0254839e-06
3.7812021e-08
1.0089771e-06
3.7760477e-08
9.9243499e-07
3.7843256e-08
9.7577071e-07
3.8145952e-08
9.588518e-07
3.8828335e-08
9.4146666e-07
3.9965367e-08
9.2327719e-07
4.1786919e-08
9.0371675e-07
4.4909593e-08
8.8189246e-07
5.008273e-08
8.5617701e-07
5.9159422e-08
8.2199414e-07
7.8879745e-08
7.7046286e-07
1.1921617e-07
6.7953155e-07
2.0537835e-07
-1.995745e-08
6.7989036e-07
1.8701427e-06
7.2080174e-08
1.8459071e-06
6.7319404e-08
1.8214659e-06
6.7829714e-08
1.7970683e-06
6.774506e-08
1.7727822e-06
6.7441761e-08
1.7485805e-06
6.7208441e-08
1.7244736e-06
6.6945728e-08
1.7004841e-06
6.6619411e-08
1.6766285e-06
6.6247326e-08
1.6529208e-06
6.5835632e-08
1.6293746e-06
6.5386034e-08
1.6060012e-06
6.4905079e-08
1.582809e-06
6.4401758e-08
1.5598031e-06
6.3884517e-08
1.5369858e-06
6.3358712e-08
1.5143574e-06
6.2834618e-08
1.4919162e-06
6.2317634e-08
1.4696596e-06
6.1813743e-08
1.4476278e-06
6.164808e-08
1.4257747e-06
6.1165559e-08
1.4040395e-06
6.0419216e-08
1.3824575e-06
5.9983514e-08
1.3610125e-06
5.9600046e-08
1.3396815e-06
5.9284164e-08
1.3184307e-06
5.906284e-08
1.2972103e-06
5.8980797e-08
1.2759461e-06
5.9107512e-08
1.2545272e-06
5.9564848e-08
1.2327842e-06
6.0571351e-08
1.2104487e-06
6.2300875e-08
1.1870911e-06
6.5144443e-08
1.1619892e-06
7.0011555e-08
1.1340029e-06
7.8069e-08
1.1010653e-06
9.2097014e-08
1.0574158e-06
1.2252922e-07
9.9204526e-07
1.8458676e-07
8.7511837e-07
3.2230524e-07
-4.3810783e-09
8.59542e-07
3.6912823e-06
1.2268863e-07
3.6434597e-06
1.1514206e-07
3.5952544e-06
1.1603496e-07
3.5471166e-06
1.1588287e-07
3.4991947e-06
1.1536366e-07
3.4514398e-06
1.149634e-07
3.4038717e-06
1.1451383e-07
3.3565348e-06
1.139563e-07
3.3094609e-06
1.1332116e-07
3.2626776e-06
1.1261896e-07
3.2162113e-06
1.1185232e-07
3.1700847e-06
1.1103169e-07
3.1243147e-06
1.1017179e-07
3.0789121e-06
1.0928708e-07
3.0338823e-06
1.0838851e-07
2.9892261e-06
1.0749087e-07
2.9449404e-06
1.0660332e-07
2.9010225e-06
1.0573161e-07
2.8573911e-06
1.0527952e-07
2.8141059e-06
1.0445072e-07
2.7711983e-06
1.0332678e-07
2.7285999e-06
1.0258199e-07
2.6862731e-06
1.0192679e-07
2.6441725e-06
1.0138482e-07
2.6022317e-06
1.0100358e-07
2.5603538e-06
1.0085876e-07
2.5183934e-06
1.0106789e-07
2.4761333e-06
1.0182497e-07
2.4332382e-06
1.0346646e-07
2.3891901e-06
1.0634897e-07
2.3431613e-06
1.1117323e-07
2.2937449e-06
1.1942792e-07
2.2387766e-06
1.3303734e-07
2.1742852e-06
1.5658837e-07
2.0891309e-06
2.0768355e-07
1.9626651e-06
3.1105258e-07
1.7327319e-06
5.5223846e-07
7.0859807e-08
1.657491e-06
5.3552867e-06
1.9562259e-07
5.2859403e-06
1.8448847e-07
5.2160385e-06
1.8593679e-07
5.1462095e-06
1.8571189e-07
5.0766938e-06
1.8487937e-07
5.0074207e-06
1.842365e-07
4.9384188e-06
1.8351573e-07
4.8697517e-06
1.8262339e-07
4.801465e-06
1.8160791e-07
4.7335976e-06
1.8048632e-07
4.6661877e-06
1.7926224e-07
4.5992683e-06
1.7795103e-07
4.5328649e-06
1.7657519e-07
4.4669945e-06
1.7515755e-07
4.4016657e-06
1.7371722e-07
4.3368805e-06
1.7227611e-07
4.2726349e-06
1.7084891e-07
4.2089167e-06
1.6944988e-07
4.1456271e-06
1.6856912e-07
4.0828325e-06
1.6724529e-07
4.0205969e-06
1.6556235e-07
3.958806e-06
1.6437291e-07
3.8974107e-06
1.6332211e-07
3.8363449e-06
1.6245062e-07
3.7755135e-06
1.6183496e-07
3.7147773e-06
1.6159495e-07
3.6539285e-06
1.6191671e-07
3.5926555e-06
1.63098e-07
3.5304773e-06
1.6564463e-07
3.4666568e-06
1.7016942e-07
3.4000199e-06
1.7781021e-07
3.3285673e-06
1.9088044e-07
3.2492509e-06
2.1235374e-07
3.1565629e-06
2.4927641e-07
3.0347872e-06
3.2945929e-07
2.8559647e-06
4.8987502e-07
2.5246559e-06
8.8354723e-07
2.2432971e-07
2.371186e-06
7.5627069e-06
2.978998e-07
7.4648401e-06
2.8235526e-07
7.3661506e-06
2.8462631e-07
7.2675471e-06
2.8431537e-07
7.1693847e-06
2.8304181e-07
7.0715658e-06
2.8205536e-07
6.9741302e-06
2.8095134e-07
6.8771666e-06
2.7958696e-07
6.7807383e-06
2.780362e-07
6.6848992e-06
2.7632548e-07
6.589702e-06
2.7445939e-07
6.4951939e-06
2.7245914e-07
6.4014121e-06
2.7035705e-07
6.3083822e-06
2.6818738e-07
6.2161186e-06
2.6598083e-07
6.124625e-06
2.6376974e-07
6.0338963e-06
2.6157759e-07
5.9439103e-06
2.5943589e-07
5.8546794e-06
2.578e-07
5.7661558e-06
2.5576889e-07
5.6782997e-06
2.5341849e-07
5.591064e-06
2.5160856e-07
5.504388e-06
2.4999817e-07
5.4181796e-06
2.4865899e-07
5.3323061e-06
2.4770849e-07
5.2465734e-06
2.4732765e-07
5.1606923e-06
2.4779772e-07
5.0742312e-06
2.4955911e-07
4.9865272e-06
2.5334867e-07
4.8965569e-06
2.6013972e-07
4.8026945e-06
2.7167258e-07
4.702188e-06
2.9138697e-07
4.590775e-06
3.2376669e-07
4.4611273e-06
3.789242e-07
4.2917908e-06
4.987957e-07
4.0463994e-06
7.3526643e-07
3.5842755e-06
1.3456712e-06
4.8947722e-07
3.319128e-06
1.0474432e-05
4.3848392e-07
1.0339014e-05
4.1777322e-07
1.0202389e-05
4.2125085e-07
1.0065856e-05
4.2084879e-07
9.9299233e-06
4.1897444e-07
9.794467e-06
4.1751174e-07
9.6595412e-06
4.158771e-07
9.5252677e-06
4.1386045e-07
9.3917328e-06
4.1157113e-07
9.259009e-06
4.090492e-07
9.1271682e-06
4.0630019e-07
8.9962755e-06
4.0335185e-07
8.8663841e-06
4.0024844e-07
8.7375325e-06
3.9703906e-07
8.6097428e-06
3.9377049e-07
8.4830226e-06
3.9048994e-07
8.3573657e-06
3.872345e-07
8.232751e-06
3.8405058e-07
8.1092335e-06
3.8131751e-07
7.9867057e-06
3.7829666e-07
7.8650503e-06
3.7507387e-07
7.7442596e-06
3.7239931e-07
7.6242469e-06
3.7001085e-07
7.5048862e-06
3.6801973e-07
7.3859953e-06
3.6659931e-07
7.2673095e-06
3.6601346e-07
7.1484349e-06
3.666723e-07
7.0287857e-06
3.6920834e-07
6.9074654e-06
3.74669e-07
6.7830855e-06
3.8451962e-07
6.653446e-06
4.0131203e-07
6.5148317e-06
4.3000134e-07
6.3614419e-06
4.7715643e-07
6.183734e-06
5.5663209e-07
5.9530394e-06
7.2949036e-07
5.6240188e-06
1.064287e-06
4.9961087e-06
1.9735813e-06
9.1177713e-07
4.5738088e-06
1.4303853e-05
6.2224151e-07
1.4125911e-05
5.9571532e-07
1.3946144e-05
6.010181e-07
1.3766336e-05
6.0065728e-07
1.3587232e-05
5.9807797e-07
1.3408681e-05
5.9606265e-07
1.3230756e-05
5.9380173e-07
1.3053623e-05
5.9099437e-07
1.2877395e-05
5.8779828e-07
1.2702171e-05
5.842732e-07
1.2528046e-05
5.8042549e-07
1.2355108e-05
5.7628967e-07
1.2183433e-05
5.7192364e-07
1.2013077e-05
5.6739491e-07
1.1844076e-05
5.6277178e-07
1.1676443e-05
5.581226e-07
1.1510174e-05
5.5350388e-07
1.134525e-05
5.4897491e-07
1.1181654e-05
5.4491348e-07
1.1019318e-05
5.4063225e-07
1.0858143e-05
5.3624858e-07
1.0698069e-05
5.3247344e-07
1.0538967e-05
5.2911354e-07
1.0380661e-05
5.2632568e-07
1.0222901e-05
5.2435848e-07
1.0065327e-05
5.2358815e-07
9.9073991e-06
5.2459987e-07
9.74832e-06
5.2828745e-07
9.5868671e-06
5.3612197e-07
9.4211532e-06
5.5023347e-07
9.2481955e-06
5.7426969e-07
9.0629567e-06
6.1524014e-07
8.8575869e-06
6.825263e-07
8.6195854e-06
7.9463357e-07
8.3103177e-06
1.038758e-06
7.8742204e-06
1.5003844e-06
7.0276615e-06
2.8201401e-06
1.5652931e-06
6.3741456e-06
1.9309455e-05
8.6407745e-07
1.9074104e-05
8.3106678e-07
1.8836137e-05
8.3898454e-07
1.8597919e-05
8.3887597e-07
1.8360556e-05
8.3544094e-07
1.8123872e-05
8.3274622e-07
1.7887969e-05
8.2970535e-07
1.7653065e-05
8.2589773e-07
1.7419317e-05
8.2154651e-07
1.718685e-05
8.1674007e-07
1.6955789e-05
8.1148622e-07
1.6726253e-05
8.0582602e-07
1.6498345e-05
7.9983192e-07
1.6272147e-05
7.9359318e-07
1.6047713e-05
7.872058e-07
1.5825068e-05
7.8076737e-07
1.560421e-05
7.7436148e-07
1.5385113e-05
7.6807237e-07
1.5167696e-05
7.6233004e-07
1.4951926e-05
7.5640249e-07
1.473773e-05
7.5044414e-07
1.4524971e-05
7.4523263e-07
1.4313471e-05
7.4061392e-07
1.4102992e-05
7.3680412e-07
1.38932e-05
7.3415088e-07
1.3683609e-05
7.331792e-07
1.3473502e-05
7.3470623e-07
1.3261817e-05
7.3997289e-07
1.3046926e-05
7.5101304e-07
1.282633e-05
7.7082984e-07
1.2596087e-05
8.0451216e-07
1.2349569e-05
8.617583e-07
1.2076411e-05
9.5568416e-07
1.1760755e-05
1.1102892e-06
1.1351861e-05
1.4476527e-06
1.0785366e-05
2.0668787e-06
9.6752875e-06
3.9302191e-06
2.5184483e-06
8.7221322e-06
2.5830567e-05
1.1832506e-06
2.551812e-05
1.1435142e-06
2.5202061e-05
1.155043e-06
2.4885432e-05
1.1555052e-06
2.456986e-05
1.1510127e-06
2.4255164e-05
1.1474428e-06
2.3941481e-05
1.1433883e-06
2.3629105e-05
1.1382734e-06
2.3318242e-05
1.1324091e-06
2.3009057e-05
1.1259257e-06
2.2701709e-05
1.1188346e-06
2.2396352e-05
1.1111829e-06
2.2093126e-05
1.1030574e-06
2.1792148e-05
1.0945712e-06
2.1493499e-05
1.0858548e-06
2.1197222e-05
1.0770448e-06
2.090332e-05
1.0682633e-06
2.0611754e-05
1.0596383e-06
2.032246e-05
1.0516238e-06
2.0035362e-05
1.0435007e-06
1.9750348e-05
1.0354576e-06
1.946724e-05
1.0283407e-06
1.9185807e-05
1.0220474e-06
1.8905734e-05
1.0168774e-06
1.8626576e-05
1.0133081e-06
1.8347698e-05
1.0120579e-06
1.8068158e-05
1.0142459e-06
1.7786567e-05
1.021564e-06
1.7500804e-05
1.0367757e-06
1.7207621e-05
1.0640134e-06
1.6901909e-05
1.1102243e-06
1.6575146e-05
1.1885205e-06
1.6213816e-05
1.3170147e-06
1.5798379e-05
1.5257258e-06
1.5263517e-05
1.982515e-06
1.4538656e-05
2.7917402e-06
1.3115487e-05
5.3533873e-06
3.8489357e-06
1.1785e-05
3.4304915e-05
1.6021778e-06
3.3892672e-05
1.5557568e-06
3.3475574e-05
1.5721415e-06
3.3057389e-05
1.5736903e-06
3.2640466e-05
1.5679357e-06
3.2224659e-05
1.5632498e-06
3.1810161e-05
1.557886e-06
3.1397363e-05
1.5510714e-06
3.0986538e-05
1.5432339e-06
3.0577898e-05
1.5345657e-06
3.0171646e-05
1.5250863e-06
2.976798e-05
1.5148492e-06
2.9367084e-05
1.5039532e-06
2.896912e-05
1.4925355e-06
2.8574208e-05
1.4807669e-06
2.8182418e-05
1.4688351e-06
2.7793765e-05
1.4569158e-06
2.7408209e-05
1.4451942e-06
2.7025712e-05
1.4341207e-06
2.6646131e-05
1.4230819e-06
2.6269281e-05
1.4123073e-06
2.5894955e-05
1.4026671e-06
2.5522851e-05
1.3941514e-06
2.5152556e-05
1.3871727e-06
2.4783488e-05
1.382376e-06
2.4414816e-05
1.3807295e-06
2.4045322e-05
1.3837399e-06
2.3673208e-05
1.3936779e-06
2.3295743e-05
1.4142411e-06
2.290875e-05
1.4510059e-06
2.2505685e-05
1.5132901e-06
2.2075745e-05
1.6184597e-06
2.1601438e-05
1.7913224e-06
2.1059189e-05
2.0679743e-06
2.0365829e-05
2.6758754e-06
1.9448077e-05
3.7094922e-06
1.7653228e-05
7.1482356e-06
5.6578055e-06
1.5844358e-05
4.5309416e-05
2.1305142e-06
4.478751e-05
2.0776635e-06
4.4259033e-05
2.1006178e-06
4.3728413e-05
2.1043105e-06
4.3198967e-05
2.0973823e-06
4.267066e-05
2.0915566e-06
4.2143766e-05
2.0847796e-06
4.1618804e-05
2.076034e-06
4.1096136e-05
2.0659017e-06
4.0576036e-05
2.054665e-06
4.0058761e-05
2.0423617e-06
3.9544558e-05
2.0290525e-06
3.9033667e-05
2.0148438e-06
3.8526309e-05
1.9998933e-06
3.8022661e-05
1.9844157e-06
3.7522834e-05
1.9686622e-06
3.7026868e-05
1.9528814e-06
3.6534733e-05
1.9373293e-06
3.6046373e-05
1.9224802e-06
3.5561609e-05
1.9078459e-06
3.5080196e-05
1.8937206e-06
3.4601863e-05
1.8810002e-06
3.4126209e-05
1.8698059e-06
3.3652685e-05
1.8606964e-06
3.3180525e-05
1.8545357e-06
3.2708639e-05
1.8526155e-06
3.2235434e-05
1.856945e-06
3.1758569e-05
1.8705434e-06
3.1274495e-05
1.898315e-06
3.0777805e-05
1.9476955e-06
3.0260037e-05
2.0310579e-06
2.9707426e-05
2.1710709e-06
2.909709e-05
2.4016582e-06
2.8400573e-05
2.7644919e-06
2.7511031e-05
3.5654173e-06
2.635542e-05
4.8651031e-06
2.4102981e-05
9.4006744e-06
8.1059561e-06
2.1654831e-05
5.9538388e-05
2.8021983e-06
5.8870211e-05
2.7458399e-06
5.8193949e-05
2.7768802e-06
5.751415e-05
2.7841097e-06
5.6835304e-05
2.7762275e-06
5.6157665e-05
2.7691965e-06
5.5481629e-05
2.7608152e-06
5.480788e-05
2.7497831e-06
5.4136904e-05
2.7368778e-06
5.3469057e-05
2.7225119e-06
5.2804658e-05
2.7067604e-06
5.2144014e-05
2.6896966e-06
5.1487429e-05
2.6714287e-06
5.0835197e-05
2.6521256e-06
5.0187567e-05
2.6320453e-06
4.9544715e-05
2.6115142e-06
4.8906721e-05
2.5908752e-06
4.827357e-05
2.5704807e-06
4.7645176e-05
2.550874e-06
4.7021337e-05
2.5316846e-06
4.6401756e-05
2.5133025e-06
4.5786065e-05
2.4966906e-06
4.5173738e-05
2.482133e-06
4.4564058e-05
2.4703765e-06
4.3956029e-05
2.462565e-06
4.3348241e-05
2.4604035e-06
4.2738646e-05
2.46654e-06
4.2124245e-05
2.4849444e-06
4.1500509e-05
2.5220506e-06
4.0860568e-05
2.5876363e-06
4.0193681e-05
2.6979448e-06
3.9482716e-05
2.8820363e-06
3.8698305e-05
3.1860689e-06
3.780708e-05
3.6557172e-06
3.6675109e-05
4.6973884e-06
3.5234346e-05
6.3058654e-06
3.2476562e-05
1.2158459e-05
1.1342853e-05
2.9239666e-05
0.00010675819
3.9585836e-06
0.00010558916
3.914869e-06
0.00010441101
3.9550364e-06
0.00010322552
3.9695943e-06
0.00010204
3.9617494e-06
0.00010085604
3.9531563e-06
9.9674516e-05
3.9423401e-06
9.8496605e-05
3.9276936e-06
9.7323213e-05
3.9102707e-06
9.6154989e-05
3.8907357e-06
9.4992476e-05
3.8692735e-06
9.3836173e-05
3.845999e-06
9.2686589e-05
3.8210134e-06
9.154424e-05
3.7944746e-06
9.0409604e-05
3.7666809e-06
8.928305e-05
3.7380678e-06
8.8164788e-05
3.7091378e-06
8.7054843e-05
3.6804256e-06
8.595311e-05
3.6526071e-06
8.4859261e-05
3.6255337e-06
8.3772788e-05
3.5997756e-06
8.2693044e-05
3.5764339e-06
8.1619096e-05
3.5560815e-06
8.0549675e-05
3.5397969e-06
7.9483031e-05
3.5292092e-06
7.8416699e-05
3.5267355e-06
7.7347125e-05
3.5361144e-06
7.6269125e-05
3.5629441e-06
7.5174934e-05
3.6162421e-06
7.4052806e-05
3.7097641e-06
7.2884455e-05
3.8662951e-06
7.1641447e-05
4.125045e-06
7.027355e-05
4.5539654e-06
6.8728617e-05
5.200651e-06
6.6788692e-05
6.6373134e-06
6.4359103e-05
8.7354535e-06
5.9951575e-05
1.6565987e-05
1.7350914e-05
5.3943514e-05
0.00013673463
5.3563429e-06
0.00013531721
5.3322913e-06
0.00013388835
5.3838911e-06
0.00013244878
5.4091641e-06
0.00013100706
5.4034736e-06
0.00012956597
5.3942457e-06
0.00012812683
5.3814776e-06
0.0001266912
5.3633231e-06
0.00012526029
5.3411794e-06
0.00012383496
5.3160688e-06
0.00012241587
5.288362e-06
0.00012100361
5.2582551e-06
0.00011959879
5.2258402e-06
0.00011820203
5.1912296e-06
0.00011681399
5.1547278e-06
0.00011543518
5.1168714e-06
0.00011406597
5.078348e-06
0.00011270647
5.0399224e-06
0.00011135663
5.0024524e-06
0.00011001606
4.9661072e-06
0.00010868414
4.9316886e-06
0.00010736008
4.9004941e-06
0.00010604271
4.8734585e-06
0.00010473042
4.8520838e-06
0.00010342102
4.8386034e-06
0.00010211145
4.8363116e-06
0.00010079728
4.8502812e-06
9.9472135e-05
4.8880908e-06
9.812648e-05
4.9618976e-06
9.6746043e-05
5.0902015e-06
9.5308481e-05
5.3038569e-06
9.3780481e-05
5.6530448e-06
9.2099541e-05
6.2349053e-06
9.0207957e-05
7.0922351e-06
8.7853807e-05
8.9914633e-06
8.4954654e-05
1.1634606e-05
7.993268e-05
2.1587961e-05
2.4480886e-05
7.2802708e-05
0.00017207908
7.0164101e-06
0.00017039362
7.0177599e-06
0.00016869361
7.0838926e-06
0.00016697908
7.1236955e-06
0.00016525965
7.1229106e-06
0.00016353937
7.1145259e-06
0.00016182011
7.10073e-06
0.00016010392
7.07952e-06
0.00015839238
7.052715e-06
0.00015668662
7.0218263e-06
0.00015498747
6.9875116e-06
0.00015329562
6.9501106e-06
0.00015161174
6.9097169e-06
0.00014993661
6.8663618e-06
0.00014827103
6.8203082e-06
0.00014661573
6.7721692e-06
0.00014497125
6.7228322e-06
0.00014333783
6.6733357e-06
0.00014171549
6.6247935e-06
0.00014010383
6.5777743e-06
0.00013850213
6.5333879e-06
0.00013690942
6.4932049e-06
0.00013532427
6.4586062e-06
0.00013374473
6.4316216e-06
0.00013216811
6.415223e-06
0.00013059066
6.4137637e-06
0.00012900702
6.4339149e-06
0.00012740951
6.4856078e-06
0.00012578666
6.584742e-06
0.00012412157
6.7552963e-06
0.00012238745
7.0379776e-06
0.00012054637
7.4941222e-06
0.00011852201
8.2592692e-06
0.00011625124
9.3630031e-06
0.00011345619
1.1786516e-05
0.00011005991
1.5030883e-05
0.0001044676
2.7180266e-05
3.2623652e-05
9.6324838e-05
0.00021361214
8.9645588e-06
0.00021163092
8.998985e-06
0.00020963183
9.0829767e-06
0.00020761423
9.1412956e-06
0.00020558837
9.1487742e-06
0.00020355968
9.1432193e-06
0.00020153068
9.1297266e-06
0.00019950395
9.1062466e-06
0.00019748159
9.0750815e-06
0.00019546503
9.0383806e-06
0.00019345533
8.9972162e-06
0.00019145328
8.9521594e-06
0.00018945966
8.9033355e-06
0.00018747536
8.8506656e-06
0.00018550135
8.7943145e-06
0.00018353859
8.7349319e-06
0.00018158782
8.6736035e-06
0.00017964947
8.6116807e-06
0.00017772365
8.5506168e-06
0.00017580997
8.4914553e-06
0.00017390765
8.435708e-06
0.00017201553
8.3853176e-06
0.00017013193
8.3422071e-06
0.0001682545
8.3090518e-06
0.00016638002
8.2897092e-06
0.00016450399
8.2897869e-06
0.00016262007
8.3178363e-06
0.00016071916
8.3865241e-06
0.00015878777
8.5161314e-06
0.00015680628
8.7367821e-06
0.00015474321
9.1010498e-06
0.00015255643
9.6809037e-06
0.00015015486
1.0660835e-05
0.00014746882
1.2049048e-05
0.00014420724
1.5048091e-05
0.00014028789
1.895024e-05
0.00013418128
3.3286875e-05
4.167741e-05
0.00012512752
0.00026230582
1.1195648e-05
0.00026003252
1.1272286e-05
0.00025773726
1.1378238e-05
0.000255419
1.1459557e-05
0.00025308818
1.1479589e-05
0.00025075165
1.1479749e-05
0.00024841267
1.1468705e-05
0.00024607441
1.1444507e-05
0.00024373953
1.1409962e-05
0.0002414099
1.1368012e-05
0.00023908682
1.1320298e-05
0.00023677124
1.1267739e-05
0.00023446403
1.1210545e-05
0.00023216619
1.1148506e-05
0.00022987887
1.108163e-05
0.00022760326
1.1010543e-05
0.00022534036
1.0936512e-05
0.00022309081
1.0861229e-05
0.00022085486
1.0786566e-05
0.00021863218
1.0714129e-05
0.00021642195
1.0645938e-05
0.00021422285
1.0584425e-05
0.00021203288
1.0532171e-05
0.0002098493
1.0492631e-05
0.0002076683
1.0470715e-05
0.00020548458
1.04735e-05
0.00020329069
1.0511727e-05
0.00020107602
1.06012e-05
0.00019882487
1.0767282e-05
0.0001965148
1.1046854e-05
0.00019410922
1.1506628e-05
0.00019156194
1.2228182e-05
0.00018876734
1.3455431e-05
0.00018564544
1.5170948e-05
0.00018189855
1.8794986e-05
0.0001774398
2.3408987e-05
0.00017087404
3.9852632e-05
5.1551525e-05
0.00016099993
0.00031925247
1.3675749e-05
0.00031671857
1.3806188e-05
0.000314157
1.3939805e-05
0.00031156711
1.4049442e-05
0.00030895923
1.4087472e-05
0.00030634159
1.4097391e-05
0.00030371826
1.4092034e-05
0.00030109303
1.4069735e-05
0.00029846921
1.4033784e-05
0.00029584917
1.3988057e-05
0.00029323452
1.3934941e-05
0.00029062642
1.3875846e-05
0.00028802582
1.3811144e-05
0.00028543383
1.3740495e-05
0.00028285178
1.3663681e-05
0.00028028108
1.3581239e-05
0.00027772302
1.3494572e-05
0.00027517852
1.340573e-05
0.00027264801
1.3317073e-05
0.00027013128
1.323086e-05
0.00026762748
1.3149743e-05
0.00026513512
1.307678e-05
0.00026265195
1.3015343e-05
0.00026017476
1.2969822e-05
0.00025769911
1.2946367e-05
0.00025521884
1.2953766e-05
0.00025272528
1.3005282e-05
0.0002502062
1.3120286e-05
0.0002476435
1.3329984e-05
0.00024501177
1.3678585e-05
0.00024226905
1.4249339e-05
0.00023936469
1.5132542e-05
0.00023618144
1.6638684e-05
0.00023262592
1.8726466e-05
0.00022838484
2.3036064e-05
0.00022338512
2.8408712e-05
0.00021643084
4.6806916e-05
6.2120363e-05
0.000205862
0.00038561394
1.6410674e-05
0.00038281056
1.6609573e-05
0.00037997214
1.6778217e-05
0.00037709965
1.6921939e-05
0.00037420311
1.6984006e-05
0.00037129214
1.7008363e-05
0.00036837168
1.7012494e-05
0.00036544615
1.6995268e-05
0.00036251955
1.6960384e-05
0.00035959484
1.6912764e-05
0.00035667404
1.6855746e-05
0.00035375849
1.6791395e-05
0.00035084928
1.6720355e-05
0.00034794761
1.6642164e-05
0.00034505497
1.6556323e-05
0.00034217301
1.6463197e-05
0.00033930331
1.6364273e-05
0.00033644709
1.6261947e-05
0.00033360504
1.6159126e-05
0.00033077708
1.6058815e-05
0.00032796241
1.596442e-05
0.0003251594
1.5879783e-05
0.00032236553
1.5809212e-05
0.00031957715
1.5758204e-05
0.00031678917
1.5734348e-05
0.00031399455
1.5748389e-05
0.00031118336
1.5816467e-05
0.00030834172
1.596193e-05
0.0003054491
1.6222602e-05
0.00030247718
1.6650503e-05
0.00029937888
1.7347647e-05
0.00029609871
1.8412707e-05
0.000292511
2.0226393e-05
0.00028850761
2.272986e-05
0.00028375887
2.77848e-05
0.00027822222
3.3945368e-05
0.00027095473
5.40744e-05
7.3177121e-05
0.00025989797
0.00046278934
1.9365588e-05
0.0004597505
1.9648411e-05
0.00045666789
1.9860826e-05
0.00045354451
2.0045322e-05
0.00045039
2.0138521e-05
0.00044721524
2.0183115e-05
0.00044402619
2.0201548e-05
0.0004408279
2.0193562e-05
0.00043762512
2.0163165e-05
0.00043442147
2.011641e-05
0.00043121942
2.0057796e-05
0.00042802057
1.9990248e-05
0.00042482611
1.9914806e-05
0.00042163736
1.9830913e-05
0.00041845595
1.973774e-05
0.00041528375
1.9635391e-05
0.00041212266
1.9525368e-05
0.00040897422
1.9410386e-05
0.0004058394
1.9293941e-05
0.00040271836
1.9179861e-05
0.00039961034
1.9072443e-05
0.00039651365
1.8976469e-05
0.00039342551
1.8897351e-05
0.00039034184
1.8841879e-05
0.00038725688
1.8819305e-05
0.00038416268
1.8842589e-05
0.00038104803
1.8931111e-05
0.00037789735
1.9112617e-05
0.00037468763
1.9432323e-05
0.00037138759
1.995054e-05
0.00036794535
2.0789888e-05
0.00036429998
2.2058071e-05
0.00036032082
2.4205558e-05
0.00035588073
2.7169948e-05
0.0003506269
3.3038629e-05
0.00034455357
4.0018705e-05
0.00033705972
6.1568251e-05
8.450955e-05
0.00032572729
0.00055231502
2.249701e-05
0.00054908667
2.2876766e-05
0.00054580591
2.3141582e-05
0.00054247713
2.3374106e-05
0.00053910915
2.3506498e-05
0.00053571396
2.3578302e-05
0.00053229858
2.3616932e-05
0.00052886874
2.3623398e-05
0.00052543
2.360191e-05
0.00052198671
2.3559701e-05
0.00051854183
2.3502668e-05
0.00051509725
2.3434833e-05
0.00051165428
2.3357772e-05
0.00050821432
2.3270874e-05
0.00050477914
2.3172924e-05
0.00050135084
2.3063686e-05
0.00049793162
2.294459e-05
0.00049452337
2.2818633e-05
0.0004911274
2.2689916e-05
0.0004877441
2.256316e-05
0.00048437287
2.2443675e-05
0.00048101198
2.2337352e-05
0.00047765845
2.2250885e-05
0.00047430776
2.2192565e-05
0.00047095353
2.2173538e-05
0.00046758687
2.2209254e-05
0.00046419528
2.23227e-05
0.00046076147
2.2546427e-05
0.00045726002
2.2933774e-05
0.00045365669
2.3553864e-05
0.00044989534
2.4551237e-05
0.00044590949
2.6043925e-05
0.00044156522
2.8549825e-05
0.00043672818
3.2006995e-05
0.00043103062
3.8736185e-05
0.0004244041
4.664523e-05
0.00041674588
6.9226462e-05
9.5878901e-05
0.00040537653
0.00065593543
2.5693276e-05
0.00065262418
2.6188018e-05
0.00064924815
2.6517611e-05
0.00064581468
2.6807579e-05
0.00064233228
2.6988895e-05
0.000638814
2.7096579e-05
0.00063526809
2.7162843e-05
0.00063170107
2.7190424e-05
0.00062811932
2.7183661e-05
0.00062452803
2.7150985e-05
0.00062093073
2.709997e-05
0.00061732954
2.703602e-05
0.00061372591
2.6961406e-05
0.00061012129
2.687549e-05
0.0006065176
2.6776623e-05
0.00060291715
2.6664131e-05
0.00059932245
2.6539292e-05
0.00059573575
2.6405331e-05
0.00059215871
2.6266956e-05
0.00058859205
2.6129824e-05
0.00058503535
2.6000372e-05
0.00058148694
2.5885766e-05
0.00057794364
2.5794183e-05
0.00057440058
2.5735626e-05
0.00057085073
2.5723384e-05
0.00056728431
2.5775675e-05
0.00056368754
2.5919466e-05
0.00056004145
2.6192524e-05
0.00055631825
2.6656969e-05
0.00055248078
2.7391332e-05
0.00054846926
2.8562757e-05
0.00054421161
3.0301575e-05
0.00053957248
3.3188955e-05
0.00053440963
3.7169854e-05
0.00052838941
4.47564e-05
0.00052126849
5.3766148e-05
0.0005135113
7.6983657e-05
0.00010703045
0.00050235975
0.00077550157
2.8896058e-05
0.00077216891
2.9520679e-05
0.00076875929
2.9927224e-05
0.00076528225
3.0284619e-05
0.00076174575
3.0525396e-05
0.00075816358
3.0678754e-05
0.00075454528
3.0781142e-05
0.00075089826
3.0837443e-05
0.00074722985
3.0852073e-05
0.00074354616
3.0834668e-05
0.00073985132
3.0794818e-05
0.00073614767
3.0739668e-05
0.00073243671
3.0672364e-05
0.00072871996
3.0592242e-05
0.00072499944
3.0497139e-05
0.00072127772
3.0385853e-05
0.00071755759
3.025942e-05
0.00071384168
3.012124e-05
0.00071013203
2.9976613e-05
0.00070642969
2.9832161e-05
0.00070273452
2.9695539e-05
0.00069904495
2.9575337e-05
0.00069535774
2.9481395e-05
0.00069166771
2.9425653e-05
0.0006879673
2.9423792e-05
0.0006842459
2.9497076e-05
0.00068048857
2.9676798e-05
0.00067667477
3.0006321e-05
0.0006727747
3.0557043e-05
0.00066874849
3.1417543e-05
0.00066453384
3.2777405e-05
0.00066005353
3.4781886e-05
0.00065517498
3.8067506e-05
0.00064974343
4.2601404e-05
0.0006434923
5.1007528e-05
0.00063596477
6.1293679e-05
0.00062811588
8.4832549e-05
0.00011770538
0.00061744095
0.00091311265
3.2009366e-05
0.00090985281
3.278052e-05
0.00090650082
3.3279207e-05
0.00090306918
3.3716259e-05
0.00089956599
3.4028586e-05
0.00089600581
3.4238937e-05
0.00089239967
3.4387283e-05
0.00088875605
3.4481058e-05
0.00088508337
3.4524752e-05
0.00088138882
3.4529222e-05
0.00087767712
3.4506517e-05
0.00087395078
3.4466007e-05
0.00087021125
3.44119e-05
0.00086646003
3.4343465e-05
0.00086269927
3.425789e-05
0.0008589318
3.4153324e-05
0.00085516074
3.4030481e-05
0.0008513891
3.3892884e-05
0.00084761931
3.37464e-05
0.00084385284
3.3598634e-05
0.00084008985
3.3458526e-05
0.00083632897
3.3336213e-05
0.000832567
3.3243366e-05
0.00082879859
3.3194066e-05
0.00082501576
3.3206625e-05
0.00082120722
3.3305617e-05
0.00081735706
3.3526954e-05
0.00081344344
3.3919939e-05
0.00080943496
3.4565528e-05
0.00080528945
3.556305e-05
0.00080094348
3.7123375e-05
0.000796315
3.9410361e-05
0.00079128064
4.3101871e-05
0.00078566523
4.8216818e-05
0.00077931363
5.7359125e-05
0.00077158807
6.901924e-05
0.00076368299
9.2737623e-05
0.00012772114
0.00075366723
0.0010711771
3.4845683e-05
0.0010681849
3.577269e-05
0.0010650873
3.6376795e-05
0.0010618973
3.6906346e-05
0.0010586222
3.7303679e-05
0.0010552768
3.7584259e-05
0.0010518737
3.7790378e-05
0.0010484226
3.7932225e-05
0.001044933
3.8014333e-05
0.0010414134
3.8048781e-05
0.0010378693
3.8050703e-05
0.0010343029
3.8032347e-05
0.0010307156
3.7999201e-05
0.0010271088
3.795032e-05
0.0010234846
3.7882011e-05
0.0010198464
3.7791597e-05
0.0010161975
3.7679379e-05
0.0010125414
3.7548961e-05
0.001008881
3.7406762e-05
0.0010052183
3.726136e-05
0.0010015538
3.7123028e-05
0.00099788646
3.7003555e-05
0.00099421324
3.6916589e-05
0.00099052876
3.6878542e-05
0.00098682481
3.6910578e-05
0.00098308961
3.7040812e-05
0.00097930655
3.7310014e-05
0.00097545276
3.7773727e-05
0.00097149579
3.8522501e-05
0.00096739168
3.9667158e-05