/*--------------------------------*- C++ -*----------------------------------*\
  =========                 |
  \\      /  F ield         | OpenFOAM: The Open Source CFD Toolbox
   \\    /   O peration     | Website:  https://openfoam.org
    \\  /    A nd           | Version:  7
     \\/     M anipulation  |
\*---------------------------------------------------------------------------*/
FoamFile
{
    version     2.0;
    format      ascii;
    class       volScalarField;
    location    "2000";
    object      nut;
}
// * * * * * * * * * * * * * * * * * * * * * * * * * * * * * * * * * * * * * //

dimensions      [0 2 -1 0 0 0 0];

internalField   nonuniform List<scalar> 
15296
(
0.00015462134
0.00015762127
0.00016419483
0.00015269646
0.00014906046
0.00014772971
0.00014643131
0.00014513103
0.00014382892
0.00014253549
0.00014125852
0.00014000323
0.00013877294
0.00013757118
0.000136382
0.00013255648
0.00013117092
0.00012983335
0.00012950708
0.00013858562
0.00012877045
0.00012571262
0.00012449894
0.00012332692
0.00012220112
0.00012110994
0.00012005305
0.0001190366
0.0001095538
8.0338136e-05
6.583031e-05
5.8793011e-05
5.6143427e-05
5.5648505e-05
5.4899107e-05
5.3931046e-05
5.3149354e-05
9.5106356e-05
0.00065145815
0.00066471843
0.00069703579
0.00065236972
0.00063835141
0.00063353612
0.00062886337
0.00062413972
0.00061938122
0.00061463434
0.0006099295
0.00060528928
0.00060072969
0.00059626747
0.0005918505
0.00057678841
0.00057151042
0.00056644529
0.00056377716
0.00059601292
0.00055612684
0.00054427916
0.00053968889
0.00053529677
0.00053100738
0.00052674394
0.00052245341
0.00051810275
0.00048050381
0.00034944488
0.00028492694
0.00025404148
0.00024151659
0.00023689861
0.00022557276
0.00020259
0.00017144861
0.00018945837
0.0019735249
0.001969509
0.0019697692
0.0019703222
0.0019714397
0.0019733203
0.0019757952
0.0019787474
0.0019821216
0.0019858864
0.0019900195
0.0019945027
0.0019993217
0.0020044598
0.0020099377
0.0020154478
0.0020213133
0.0020275384
0.0020340221
0.0020417665
0.0020486426
0.0020556609
0.0020629763
0.0020581771
0.0020522327
0.0020443485
0.0020333956
0.0020178183
0.0019344227
0.0014212976
0.0011514928
0.0010144882
0.00094393438
0.00091614135
0.00072903031
0.00051744224
0.00034752365
0.00022470883
0.0019754268
0.0019721882
0.0019722876
0.001972984
0.0019742109
0.0019761216
0.0019786071
0.0019815672
0.0019849483
0.0019887193
0.0019928578
0.0019973458
0.0020021689
0.0020073105
0.0020127886
0.0020183647
0.0020242544
0.0020304884
0.0020369754
0.0020445012
0.0020515146
0.0020586155
0.0020661105
0.0020739503
0.0020820957
0.0020905509
0.0020993451
0.0021085974
0.0021181579
0.0021246602
0.0021301302
0.0021380816
0.0021476903
0.0019752604
0.0012135637
0.0006984154
0.00041185325
0.00019665212
0.0019766693
0.0019741533
0.0019742109
0.0019750111
0.0019763322
0.0019782795
0.0019807818
0.001983754
0.0019871453
0.001990925
0.0019950711
0.0019995661
0.0020043956
0.0020095431
0.002015024
0.0020206477
0.0020265618
0.0020328061
0.0020393007
0.0020466655
0.0020537634
0.002060929
0.0020684374
0.0020762781
0.0020844223
0.0020928747
0.0021016646
0.0021109031
0.0021205736
0.0021280196
0.00213465
0.0021438006
0.00215501
0.002193427
0.0013404981
0.00073454912
0.00040423617
0.00020008473
0.0019777328
0.0019760611
0.0019761637
0.0019770762
0.001978509
0.0019805118
0.001983044
0.001986038
0.0019894474
0.0019932426
0.0019974024
0.0020019099
0.0020067512
0.00201191
0.0020173981
0.0020230718
0.0020290174
0.0020352776
0.002041783
0.0020490083
0.0020561724
0.0020634067
0.0020709345
0.0020787779
0.0020869208
0.0020953694
0.0021041533
0.002113374
0.0021231273
0.0021314601
0.0021392472
0.0021495955
0.0021623377
0.0021491424
0.0012849742
0.00071785665
0.00039242193
0.0002050383
0.0019785718
0.0019777955
0.0019780769
0.0019791263
0.0019806918
0.0019827775
0.0019853614
0.0019883939
0.0019918349
0.0019956569
0.0019998403
0.0020043691
0.00200923
0.0020144076
0.0020199096
0.0020256325
0.0020316167
0.0020379001
0.0020444266
0.002051542
0.0020587489
0.0020660488
0.0020736025
0.0020814519
0.0020895944
0.0020980388
0.0021068152
0.0021160144
0.0021258086
0.0021348738
0.0021437044
0.0021551459
0.0021691965
0.0021054722
0.0012782464
0.00072636187
0.00038900481
0.00020620019
0.001979194
0.0019792239
0.0019797948
0.0019810148
0.0019827297
0.0019849227
0.0019875813
0.001990671
0.0019941588
0.0019980206
0.0020022384
0.0020067979
0.0020116869
0.002016891
0.0020224145
0.002028184
0.0020342108
0.0020405239
0.0020470782
0.0020541193
0.0020613474
0.0020687026
0.0020762859
0.0020841454
0.0020922895
0.0021007303
0.0021094988
0.002118676
0.0021284726
0.0021380622
0.0021477216
0.0021600474
0.0021750918
0.0021419555
0.0013030014
0.00074858293
0.000391095
0.00020583291
0.0019797155
0.001980442
0.0019813822
0.0019828206
0.0019847119
0.0019870416
0.0019898029
0.0019929736
0.0019965283
0.0020004468
0.0020047137
0.0020093164
0.0020142444
0.0020194849
0.0020250391
0.0020308567
0.0020369316
0.0020432824
0.0020498736
0.0020568695
0.0020641084
0.0020715101
0.0020791264
0.002087001
0.00209515
0.002103589
0.0021123499
0.0021215056
0.0021312784
0.0021412239
0.0021515225
0.0021645474
0.0021803426
0.0021995469
0.0013351558
0.00077420461
0.00039473793
0.00020440815
0.0019802362
0.001981551
0.0019829038
0.0019846151
0.0019867203
0.0019892223
0.0019921211
0.0019954034
0.0019990517
0.0020030502
0.0020073862
0.0020120494
0.0020170315
0.002022322
0.0020279199
0.0020337916
0.0020399229
0.0020463221
0.0020529611
0.0020599429
0.0020671928
0.0020746362
0.0020822896
0.0020901862
0.0020983459
0.0021067871
0.002115543
0.0021246799
0.0021344144
0.0021445841
0.0021553579
0.0021689156
0.002185279
0.0022312115
0.001361097
0.00080133522
0.00040095587
0.00020407151
0.0019808424
0.0019826564
0.0019844368
0.0019864717
0.001988836
0.0019915527
0.0019946298
0.0019980619
0.0020018379
0.0020059464
0.002010378
0.0020151248
0.002020181
0.0020255389
0.0020311968
0.0020371333
0.0020433319
0.0020497923
0.0020564923
0.002063491
0.0020707604
0.002078245
0.0020859404
0.0020938671
0.0021020448
0.0021104939
0.0021192487
0.0021283706
0.0021380595
0.0021483479
0.0021594443
0.0021733661
0.0021901452
0.0022349646
0.0013912638
0.00083342955
0.00041060493
0.00020679209
0.0019816245
0.0019838751
0.0019860848
0.001988485
0.0019911571
0.0019941365
0.0019974393
0.0020010662
0.0020050113
0.0020092674
0.0020138279
0.0020186878
0.0020238434
0.0020292905
0.0020350282
0.0020410438
0.0020473225
0.0020538587
0.0020606338
0.0020676767
0.0020749808
0.0020825107
0.0020902533
0.0020982181
0.0021064217
0.002114885
0.0021236425
0.0021327527
0.0021423938
0.0021527186
0.002163998
0.0021781108
0.0021951752
0.0022380881
0.0014269512
0.00087065865
0.00042368529
0.00021362311
0.001982668
0.0019853425
0.0019879806
0.0019907807
0.0019938101
0.0019971053
0.0020006874
0.0020045615
0.0020087255
0.0020131755
0.0020179074
0.0020229179
0.002028206
0.0020337704
0.0020396124
0.0020457263
0.0020521015
0.0020587299
0.0020655962
0.0020727091
0.0020800683
0.0020876538
0.0020954515
0.0021034633
0.0021117017
0.0021201862
0.002128951
0.0021380524
0.0021476466
0.0021579487
0.002169292
0.0021834279
0.0022006621
0.0022410125
0.001469816
0.00091341296
0.00044089025
0.00022405357
0.0019840797
0.0019872082
0.0019902898
0.0019935261
0.0019969647
0.0020006339
0.0020045563
0.0020087393
0.0020131827
0.0020178842
0.0020228414
0.0020280524
0.0020335174
0.0020392378
0.0020452175
0.0020514571
0.0020579517
0.0020646936
0.0020716722
0.0020788829
0.0020863241
0.0020939844
0.0021018519
0.0021099243
0.0021182101
0.0021267267
0.0021355066
0.0021446041
0.0021541554
0.0021643964
0.0021757104
0.0021897141
0.0022070072
0.0022443001
0.001521537
0.00096229687
0.00046334391
0.00023695934
0.001986013
0.0019896304
0.0019932108
0.0019969341
0.0020008393
0.002004947
0.0020092782
0.0020138408
0.0020186343
0.0020236567
0.0020289059
0.0020343804
0.0020400804
0.0020460086
0.002052171
0.0020585736
0.0020652186
0.0020721023
0.0020792181
0.0020865566
0.0020941119
0.0021018744
0.0021098342
0.0021179869
0.0021263376
0.0021349012
0.0021437074
0.0021528079
0.0021623222
0.0021724791
0.0021836928
0.0021974241
0.0022146508
0.0022485894
0.0015860888
0.0010183161
0.00049391648
0.00025095091
0.0019890978
0.0019934101
0.0019976827
0.002002073
0.0020066187
0.0020113354
0.0020162437
0.002021351
0.0020266553
0.0020321531
0.0020378417
0.0020437188
0.0020497831
0.0020560366
0.0020624862
0.0020691423
0.0020760152
0.0020831106
0.0020904247
0.0020979533
0.0021056849
0.0021136078
0.0021217112
0.0021299888
0.0021384425
0.0021470836
0.0021559377
0.0021650516
0.002174528
0.0021845704
0.002195604
0.0022088733
0.0022258535
0.0022557075
0.0016802914
0.0010926578
0.00054099001
0.00027191181
0.001993853
0.0019991141
0.0020043137
0.0020095884
0.0020149784
0.0020204979
0.0020261704
0.0020320051
0.0020379996
0.0020441492
0.0020504499
0.0020568979
0.0020634899
0.0020702251
0.0020771086
0.0020841519
0.0020913708
0.0020987798
0.0021063839
0.0021141818
0.0021221679
0.0021303251
0.0021386395
0.0021471022
0.0021557111
0.0021644734
0.0021734087
0.0021825567
0.0021920013
0.0022019213
0.0022127016
0.0022253369
0.0022417822
0.0022674216
0.0018124218
0.0011893727
0.00060739016
0.0003064316
0.002000112
0.0020064311
0.0020126924
0.002018993
0.0020253652
0.0020318178
0.0020383772
0.0020450571
0.0020518569
0.0020587719
0.0020657976
0.0020729296
0.0020801629
0.0020874939
0.0020949236
0.0021024619
0.0021101259
0.0021179358
0.002125907
0.0021340423
0.0021423426
0.0021507913
0.0021593736
0.0021680763
0.0021768921
0.0021858219
0.0021948784
0.0022040917
0.0022135277
0.0022233424
0.0022338544
0.0022458236
0.0022615304
0.0022834667
0.0019774912
0.0013064542
0.00069007259
0.00035291803
0.0020081298
0.0020156266
0.0020230817
0.002030551
0.002038054
0.0020455875
0.0020531764
0.0020608378
0.0020685732
0.0020763792
0.0020842518
0.0020921872
0.0021001801
0.0021082247
0.0021163185
0.0021244669
0.0021326855
0.0021409964
0.0021494218
0.0021579761
0.0021666587
0.0021754634
0.0021843793
0.0021933865
0.0022024708
0.0022116249
0.0022208525
0.0022301729
0.0022396347
0.0022493586
0.002259609
0.0022709268
0.0022857328
0.0023045237
0.0021855584
0.0014495279
0.00079116487
0.00040996658
0.0020180994
0.0020269341
0.0020357196
0.0020444952
0.0020532749
0.0020620415
0.0020708127
0.0020796051
0.0020884208
0.0020972564
0.0021061091
0.0021149762
0.0021238538
0.0021327357
0.0021416167
0.0021504979
0.0021593906
0.0021683159
0.0021772994
0.0021863638
0.0021955162
0.0022047591
0.00221408
0.0022234644
0.0022328875
0.0022423315
0.0022517904
0.0022612719
0.0022708084
0.00228048
0.002290495
0.0023012159
0.0023149863
0.0023313267
0.0023719144
0.0016249776
0.00091515219
0.00047993766
0.0020302016
0.0020405194
0.0020507753
0.0020609966
0.0020711969
0.0020813467
0.0020914541
0.0021015323
0.0021115808
0.0021215949
0.0021315716
0.0021415095
0.0021514064
0.0021612574
0.0021710568
0.0021808021
0.0021905
0.0022001681
0.0022098321
0.0022195194
0.0022292488
0.0022390297
0.0022488482
0.0022586903
0.0022685283
0.002278333
0.0022880951
0.0022978101
0.0023074938
0.002317179
0.0023270424
0.002337284
0.0023499362
0.0023645096
0.0023969479
0.0018435589
0.0010711909
0.00056826281
0.0020445157
0.0020564425
0.0020683107
0.0020801197
0.0020918804
0.0021035549
0.0021151431
0.002126654
0.0021380835
0.0021494234
0.0021606688
0.0021718187
0.0021828724
0.0021938272
0.0022046783
0.0022154217
0.0022260602
0.002236607
0.0022470857
0.002257525
0.0022679504
0.0022783813
0.0022888001
0.0022991906
0.0023095386
0.0023198184
0.0023300172
0.0023401011
0.0023500629
0.0023598843
0.0023697379
0.0023795694
0.0023911127
0.0024042071
0.0024290477
0.0021344046
0.0012735443
0.00068392785
0.0020609397
0.0020746234
0.0020882527
0.0021017856
0.0021152322
0.0021285545
0.0021417487
0.0021548214
0.0021677644
0.0021805644
0.0021932132
0.0022057086
0.0022180507
0.0022302391
0.0022422705
0.0022541416
0.002265853
0.002277414
0.0022888447
0.0023001726
0.0023114269
0.0023226307
0.002333778
0.0023448667
0.0023558836
0.0023668065
0.0023775982
0.0023882096
0.0023986085
0.0024087336
0.0024187129
0.0024282323
0.0024387908
0.0024503744
0.0024693194
0.0025056908
0.0015389164
0.0008372629
0.0020792794
0.0020948653
0.0021103634
0.0021257177
0.002140945
0.0021560116
0.0021709127
0.0021856532
0.0022002206
0.0022145956
0.0022287655
0.0022427254
0.0022564755
0.0022700167
0.0022833484
0.0022964686
0.0023093778
0.0023220832
0.0023346012
0.002346957
0.0023591805
0.0023712947
0.0023833343
0.0023953008
0.0024071586
0.0024188754
0.0024304
0.0024416816
0.0024526696
0.0024632496
0.0024734885
0.0024830277
0.0024928491
0.0025027629
0.002518048
0.0025454701
0.0018704159
0.0010328925
0.0020991367
0.00211665
0.0021340805
0.0021513309
0.0021684122
0.0021852954
0.0022019778
0.002218465
0.002234741
0.0022507805
0.0022665653
0.0022820873
0.0022973457
0.0023123425
0.0023270791
0.0023415564
0.0023557762
0.0023697451
0.0023834776
0.002396996
0.002410329
0.0024235019
0.0024365539
0.0024494909
0.0024623001
0.0024749474
0.002487379
0.0024995161
0.0025112825
0.0025225135
0.0025332046
0.002543026
0.002552392
0.0025608278
0.0025732804
0.0025898318
0.0023164061
0.0012975987
0.0021195999
0.0021391161
0.0021585277
0.0021777131
0.0021966822
0.0022154154
0.0022339157
0.0022521915
0.0022702243
0.0022879826
0.0023054424
0.0023225922
0.0023394296
0.0023559572
0.0023721788
0.0023880981
0.0024037199
0.0024190519
0.0024341082
0.0024489093
0.0024634816
0.0024778515
0.0024920432
0.0025060661
0.0025199304
0.0025336073
0.0025470417
0.0025601438
0.0025728146
0.0025848674
0.0025962135
0.002606441
0.0026157901
0.0026233218
0.002633089
0.0026432697
0.0026942037
0.0016626236
0.002139487
0.0021610097
0.0021824112
0.0022035369
0.0022243899
0.0022449626
0.0022652702
0.002285328
0.0023051171
0.002324601
0.0023437499
0.002362549
0.0023809948
0.0023990901
0.0024168409
0.0024342544
0.0024513389
0.0024681049
0.0024845676
0.002500747
0.0025166678
0.0025323555
0.002547832
0.002563108
0.0025781798
0.0025930206
0.0026075788
0.0026217622
0.00263546
0.0026484625
0.0026606377
0.0026714804
0.0026812007
0.0026884491
0.0026957674
0.0027031339
0.0027296023
0.0021631106
0.0021575762
0.0021809503
0.0022042096
0.0022271609
0.002249792
0.002272106
0.002294133
0.0023158972
0.0023373798
0.002358538
0.0023793365
0.0023997567
0.0024197937
0.002439451
0.0024587365
0.002477661
0.0024962369
0.0025144787
0.002532404
0.0025500334
0.0025673906
0.0025844995
0.0026013801
0.0026180422
0.00263448
0.0026506643
0.0026665395
0.0026820068
0.0026969424
0.0027111172
0.0027243547
0.0027361134
0.0027464008
0.0027539915
0.0027597073
0.0027649837
0.0027752091
0.0028115894
0.0021719613
0.002196955
0.0022218336
0.0022463843
0.0022705827
0.0022944438
0.0023180162
0.0023413338
0.0023643759
0.0023870918
0.0024094388
0.0024313945
0.0024529523
0.0024741162
0.0024948963
0.002515307
0.0025353655
0.0025550908
0.0025745038
0.0025936264
0.002612482
0.0026310924
0.0026494747
0.0026676359
0.0026855675
0.002703237
0.0027205852
0.0027375069
0.002753867
0.0027694235
0.0027839571
0.0027969264
0.0028081114
0.0028165507
0.002821875
0.002825167
0.0028285128
0.0028439901
0.002179774
0.0022061165
0.0022323384
0.0022582184
0.0022837199
0.0023088729
0.0023337518
0.0023584045
0.0023828079
0.0024069021
0.0024306364
0.0024539843
0.0024769385
0.0024995036
0.0025216919
0.0025435218
0.0025650157
0.0025861977
0.0026070921
0.0026277228
0.0026481122
0.0026682794
0.0026882374
0.0027079884
0.0027275185
0.0027467904
0.0027657392
0.0027842546
0.0028021916
0.0028193023
0.0028353349
0.0028497595
0.0028622178
0.00287179
0.0028778655
0.0028803411
0.0028801767
0.0028822778
0.0021776391
0.0022049504
0.0022321599
0.0022590347
0.0022855128
0.002311638
0.002337519
0.0023632233
0.0023887259
0.0024139568
0.0024388577
0.0024633989
0.0024875733
0.002511387
0.0025348552
0.0025580003
0.0025808499
0.0026034332
0.0026257782
0.0026479093
0.0026698468
0.0026916054
0.0027131916
0.0027346
0.0027558087
0.0027767728
0.0027974202
0.0028176349
0.0028372636
0.0028560585
0.0028737464
0.0028898224
0.0029038467
0.0029149496
0.0029223886
0.0029258186
0.0029241641
0.0029210844
0.0021617745
0.0021895703
0.0022173062
0.0022447354
0.0022717561
0.002298428
0.0023249081
0.0023512909
0.0023775501
0.0024036039
0.0024293859
0.0024548645
0.0024800338
0.0025049021
0.0025294874
0.0025538156
0.0025779187
0.0026018299
0.0026255785
0.0026491874
0.0026726714
0.002696037
0.0027192802
0.0027423843
0.002765316
0.0027880197
0.0028104141
0.0028323771
0.002853749
0.0028742872
0.0028937094
0.0029115502
0.0029273284
0.0029402955
0.002949491
0.0029549882
0.0029541413
0.0029519068
0.0021286809
0.0021565113
0.0021842809
0.0022117388
0.0022387522
0.0022654202
0.0022919771
0.0023185595
0.0023451398
0.0023716219
0.0023979292
0.0024240282
0.0024499144
0.0024755979
0.0025010974
0.0025264399
0.0025516584
0.0025767856
0.002601848
0.0026268611
0.0026518291
0.002676744
0.0027015862
0.0027263227
0.0027509053
0.0027752655
0.0027993117
0.002822916
0.0028459159
0.0028680786
0.0028891273
0.0029086462
0.0029261615
0.0029410522
0.0029523388
0.0029602266
0.0029615245
0.0029647892
0.0020787246
0.0021062788
0.0021336478
0.00216062
0.0021870763
0.0022131998
0.0022393386
0.0022656851
0.002292207
0.002318784
0.0023453227
0.0023717831
0.0023981593
0.0024244597
0.0024506997
0.0024769018
0.0025030938
0.0025293013
0.0025555408
0.0025818138
0.0026081062
0.0026343897
0.0026606242
0.0026867577
0.0027127263
0.0027384497
0.0027638281
0.0027887317
0.002813
0.002836416
0.0028587217
0.0028795572
0.0028984917
0.0029150354
0.0029282619
0.0029386814
0.0029420693
0.002952618
0.0020154138
0.0020422846
0.0020687498
0.0020947281
0.0021201597
0.0021453419
0.0021707515
0.0021966311
0.0022229248
0.0022494684
0.0022761366
0.0023028736
0.0023296659
0.0023565144
0.0023834247
0.0024104079
0.002437479
0.0024646503
0.0024919213
0.0025192728
0.0025466671
0.0025740514
0.0026013633
0.0026285337
0.0026554867
0.002682136
0.0027083803
0.002734094
0.0027591264
0.0027832822
0.0028063324
0.0028279759
0.0028478432
0.0028655707
0.0028803188
0.0028929108
0.0028983186
0.0029155115
0.0019401216
0.0019656337
0.001990752
0.0020154925
0.0020397847
0.0020640011
0.0020887266
0.0021142302
0.0021404064
0.0021670259
0.0021939195
0.0022210108
0.0022482763
0.0022757063
0.0023032909
0.0023310232
0.0023589006
0.0023869165
0.0024150495
0.0024432558
0.002471471
0.0024996175
0.0025276136
0.0025553789
0.0025828343
0.0026098965
0.0026364724
0.0026624494
0.0026876943
0.0027120397
0.0027352925
0.0027572112
0.0027774964
0.0027958987
0.0028116793
0.0028259362
0.0028330301
0.0028558911
0.0018547966
0.0018784746
0.0019020109
0.0019254878
0.0019487348
0.0019721519
0.0019964073
0.0020217715
0.0020480602
0.0020749564
0.0021022363
0.0021298011
0.0021576174
0.0021856617
0.0022139035
0.0022423125
0.0022708645
0.0022995328
0.0023282741
0.0023570199
0.0023856802
0.0024141567
0.0024423562
0.0024701974
0.0024976099
0.0025245257
0.0025508699
0.0025765515
0.0026014614
0.0026254639
0.002648406
0.0026701029
0.0026903258
0.002708925
0.0027252618
0.0027406567
0.0027490214
0.0027763466
0.0017613656
0.0017830276
0.0018052484
0.0018278435
0.0018503822
0.0018732742
0.0018972984
0.0019227381
0.0019493223
0.0019766335
0.0020043886
0.0020324681
0.0020608293
0.0020894304
0.002118213
0.0021471186
0.0021761004
0.002205114
0.0022340972
0.0022629602
0.0022915932
0.0023198854
0.0023477436
0.0023750996
0.0024019054
0.0024281197
0.0024536957
0.0024785693
0.0025026597
0.0025258631
0.0025480656
0.0025691337
0.0025889037
0.0026073083
0.0026238015
0.0026398669
0.0026491261
0.0026796765
0.0016633872
0.0016834371
0.0017045204
0.0017262781
0.001748099
0.0017704734
0.0017943249
0.0018199367
0.0018469105
0.0018746941
0.0019029306
0.0019314778
0.0019602813
0.0019892748
0.0020183658
0.002047467
0.0020765148
0.0021054548
0.0021342143
0.00216269
0.0021907606
0.0022183148
0.0022452739
0.0022715977
0.0022972737
0.0023222973
0.0023466548
0.0023703114
0.0023932131
0.0024152849
0.0024364465
0.0024566068
0.0024756585
0.0024935975
0.0025099614
0.0025263351
0.0025362062
0.0025688458
0.0015600826
0.0015801702
0.0016009886
0.0016223088
0.0016435841
0.0016655539
0.0016893613
0.0017152807
0.0017427404
0.0017710198
0.0017996811
0.0018285651
0.0018576082
0.0018867171
0.0019157659
0.0019446471
0.0019732951
0.0020016604
0.0020296714
0.0020572205
0.0020841859
0.0021104691
0.0021360209
0.0021608432
0.0021849689
0.0022084351
0.0022312617
0.0022534392
0.0022749347
0.0022956937
0.0023156614
0.0023347781
0.0023529822
0.0023703146
0.0023863859
0.0024028252
0.00241313
0.0024469004
0.0014557153
0.0014755101
0.0014960548
0.0015170329
0.0015378936
0.0015596399
0.0015836253
0.0016100521
0.0016381037
0.0016668598
0.0016958119
0.0017248037
0.0017537731
0.0017826055
0.0018111538
0.0018393114
0.0018670337
0.0018942941
0.001921033
0.0019471469
0.0019725236
0.0019970903
0.0020208409
0.0020438294
0.0020661393
0.0020878477
0.002109001
0.0021296061
0.00214964
0.0021690581
0.002187821
0.0022058896
0.0022232365
0.0022399316
0.0022556492
0.0022720129
0.002282651
0.0023168
0.0013467433
0.0013673308
0.0013884931
0.0014098407
0.0014308864
0.0014529608
0.0014776123
0.0015048889
0.0015336647
0.0015628263
0.0015918438
0.0016206086
0.0016490847
0.0016771551
0.0017046776
0.0017315787
0.001757861
0.0017835345
0.0018085567
0.0018328318
0.0018562649
0.00187882
0.0019005442
0.0019215485
0.0019419638
0.0019618974
0.0019814093
0.0020005072
0.0020191653
0.0020373371
0.0020549893
0.0020720937
0.0020886486
0.0021047385
0.0021200945
0.0021362956
0.0021471897
0.0021811606
0.0012376537
0.0012585862
0.0012802865
0.001302145
0.0013236738
0.0013464721
0.0013721503
0.0014004469
0.0014298626
0.0014591388
0.0014878086
0.0015158658
0.0015433258
0.0015700926
0.0015960628
0.0016212286
0.0016456566
0.0016693942
0.0016924085
0.0017146091
0.0017359233
0.0017563613
0.001776029
0.0017950912
0.0018137141
0.0018320176
0.0018500554
0.0018678196
0.0018852683
0.0019023446
0.0019190146
0.0019352555
0.0019510849
0.0019665929
0.0019815615
0.0019975003
0.0020085271
0.0020419134
0.0011285875
0.0011498651
0.0011721592
0.0011946815
0.0012169862
0.0012408634
0.0012677827
0.0012970081
0.0013266773
0.0013555211
0.0013832557
0.001410028
0.0014359198
0.0014608784
0.0014848721
0.0015079795
0.0015303274
0.0015519787
0.001572891
0.001592973
0.0016121809
0.0016305789
0.0016483317
0.0016656459
0.0016827016
0.0016996065
0.0017163869
0.0017330044
0.001749393
0.0017654828
0.0017812386
0.0017966425
0.0018117294
0.0018265901
0.0018410548
0.0018565514
0.0018674828
0.0018999619
0.0010201657
0.001041596
0.001064446
0.0010877859
0.0011112089
0.0011364884
0.0011646551
0.0011943861
0.0012236125
0.0012512869
0.0012774346
0.0013023708
0.0013262364
0.0013490385
0.0013708401
0.001391802
0.0014120755
0.0014316958
0.0014505853
0.0014686524
0.001485896
0.0015024435
0.001518511
0.0015343243
0.0015500475
0.0015657497
0.0015814122
0.0015969599
0.001612305
0.0016273706
0.0016421271
0.0016565656
0.0016707402
0.0016847411
0.0016984462
0.0017131989
0.001723677
0.0017549444
0.00091168724
0.00093350755
0.00095717559
0.0009817276
0.0010067538
0.0010336626
0.0010627296
0.0010921267
0.0011199482
0.0011456593
0.0011696552
0.0011923622
0.0012139446
0.0012344815
0.0012541336
0.0012731009
0.0012914865
0.0013092417
0.0013262427
0.0013424212
0.0013578473
0.0013727192
0.0013872857
0.0014017562
0.0014162449
0.0014307608
0.0014452363
0.0014595684
0.0014736628
0.0014874506
0.0015009193
0.0015140758
0.0015269955
0.0015397684
0.0015523208
0.0015659128
0.0015754748
0.0016052065
0.00080429606
0.00082658467
0.00085132171
0.00087752084
0.00090453368
0.00093287437
0.00096188133
0.00098964895
0.0010149899
0.0010380934
0.0010596152
0.0010799414
0.00109922
0.0011176199
0.0011353691
0.0011526064
0.001169285
0.0011852382
0.0012003357
0.0012145988
0.0012282085
0.0012414255
0.0012544888
0.0012675446
0.001280628
0.0012936858
0.0013066195
0.0013193242
0.0013317239
0.001343776
0.0013554947
0.0013669065
0.001378109
0.0013891894
0.0014001236
0.0014120865
0.0014202412
0.0014481177
0.00069862777
0.00072183134
0.00074808361
0.00077636148
0.00080538455
0.0008342149
0.00086149814
0.0008861149
0.00090814959
0.00092841601
0.00094746766
0.00096546312
0.0009825652
0.00099906548
0.0010151565
0.0010307504
0.0010455705
0.0010593948
0.0010722211
0.001084261
0.001095819
0.0011071614
0.0011184437
0.0011297041
0.0011408972
0.001151937
0.001162734
0.0011732164
0.0011833482
0.0011931231
0.0012025837
0.0012117731
0.0012208067
0.0012297633
0.0012386691
0.0012485994
0.0012549547
0.0012807336
0.00059682527
0.0006211232
0.00064897471
0.0006792824
0.0007094827
0.00073681526
0.00076021424
0.00078050952
0.00079916848
0.00081691943
0.00083364463
0.00084928032
0.0008642298
0.00087889976
0.00089319584
0.00090661581
0.0009187332
0.00092952866
0.00093934628
0.00094863678
0.00095773334
0.00096677582
0.00097575632
0.00098460201
0.00099323485
0.0010015945
0.0010096425
0.0010173601
0.0010247545
0.0010318497
0.0010387078
0.0010453784
0.0010519859
0.0010585913
0.0010652705
0.0010729625
0.0010774038
0.0011007937
0.0005109538
0.00053595019
0.00056493597
0.00059667643
0.00062641975
0.00065003113
0.00066849703
0.00068517263
0.00070178452
0.00071772058
0.00073207346
0.00074517234
0.0007579525
0.00077063068
0.0007824741
0.00079265546
0.00080102655
0.00080812569
0.00081468676
0.00082120215
0.00082780373
0.0008343922
0.00084082021
0.00084699537
0.00085288928
0.00085850515
0.0008638545
0.00086895115
0.00087382297
0.00087850531
0.00088306392
0.00088754401
0.00089206607
0.00089667137
0.00090147117
0.00090724651
0.00091024563
0.00093062175
0.00044537605
0.0004718124
0.00050148907
0.00053386034
0.00056228891
0.00058191882
0.00059615567
0.00061018528
0.00062509888
0.00063890996
0.00065052365
0.00066096002
0.00067146072
0.00068182833
0.00069084463
0.00069770236
0.00070268908
0.00070676007
0.00071077563
0.0007150935
0.00071963123
0.00072414667
0.00072846083
0.00073251822
0.00073633929
0.00073995904
0.00074340264
0.00074668851
0.00074984537
0.00075290692
0.00075593221
0.00075895787
0.00076209224
0.00076536311
0.000768892
0.00077333448
0.00077538955
0.00079324414
0.00038632672
0.00041398753
0.00044351079
0.00047579988
0.00050231649
0.00051764457
0.00052774494
0.00053908343
0.00055162455
0.0005623048
0.00057040783
0.00057770219
0.0005854327
0.00059289075
0.00059861621
0.00060207562
0.00060398238
0.00060549045
0.00060737138
0.00060976933
0.00061243765
0.00061508553
0.00061756562
0.00061986958
0.00062204319
0.00062412332
0.00062612708
0.00062806512
0.00062995976
0.000631838
0.00063374825
0.00063571712
0.00063783831
0.00064012789
0.00064271063
0.00064611332
0.00064752717
0.00066289998
0.00033295204
0.00036221594
0.00039066308
0.00042217911
0.00044614491
0.00045665093
0.00046225841
0.00047019477
0.00047920376
0.00048575654
0.00048989095
0.00049386047
0.00049859766
0.00050296271
0.00050553289
0.00050613716
0.0005057354
0.00050543262
0.00050577998
0.00050672515
0.00050794692
0.00050917982
0.00051032873
0.00051141359
0.00051247735
0.00051354005
0.00051460334
0.00051566838
0.00051675016
0.00051786796
0.00051905878
0.00052034007
0.00052179044
0.00052341613
0.00052533996
0.00052796025
0.00052898738
0.00054192183
0.00028654456
0.00031642653
0.00034272147
0.00037257073
0.00039276043
0.00039734783
0.00039762299
0.00040114299
0.00040565745
0.00040774278
0.00040813983
0.00040912057
0.00041113548
0.00041282736
0.00041300006
0.00041175883
0.00041007018
0.0004088166
0.00040830671
0.0004083686
0.00040868994
0.00040906621
0.00040944537
0.00040985189
0.0004103104
0.00041082139
0.00041137487
0.00041196633
0.00041260522
0.00041330417
0.0004140901
0.00041497341
0.00041601849
0.00041722374
0.00041870632
0.00042074128
0.00042156216
0.00043213831
0.00024575058
0.00027673547
0.00029987551
0.00032590011
0.00033988811
0.00033721288
0.00033153763
0.00033015173
0.00033015027
0.00032847216
0.0003261424
0.00032501731
0.00032509048
0.0003250257
0.00032391273
0.00032196807
0.00031997937
0.00031854566
0.00031778805
0.00031750281
0.00031743931
0.00031745908
0.00031753582
0.00031768517
0.00031791281
0.00031820713
0.00031855429
0.00031894864
0.00031939635
0.00031990519
0.00032049427
0.00032116935
0.00032198201
0.00032292463
0.00032410634
0.00032568816
0.00032641039
0.00033474556
0.00021152396
0.00024438427
0.00026174821
0.00027927296
0.00028429223
0.00027426255
0.00026324164
0.00025759437
0.00025421782
0.00025037556
0.00024684805
0.00024482865
0.00024400562
0.00024324578
0.00024190451
0.00024017565
0.00023859112
0.00023749665
0.00023690806
0.00023665441
0.00023656624
0.00023656075
0.00023662486
0.0002367637
0.00023697124
0.00023723341
0.00023753881
0.00023788352
0.00023827194
0.00023870878
0.00023920756
0.00023977131
0.0002404402
0.00024120233
0.00024215706
0.00024336401
0.00024404107
0.00025026527
0.000185015
0.00022139669
0.00022566716
0.00022801643
0.00022404337
0.00020939201
0.00019512482
0.00018686207
0.00018198697
0.00017789284
0.00017470282
0.00017292117
0.00017212347
0.00017148601
0.0001705913
0.00016955543
0.00016867531
0.00016812103
0.0001678747
0.00016782704
0.0001678826
0.00016799813
0.0001681641
0.00016837788
0.00016863341
0.00016892138
0.00016923544
0.00016957395
0.00016994022
0.00017033712
0.00017077412
0.00017125259
0.00017180218
0.00017240855
0.00017315858
0.00017402807
0.00017467563
0.00017887048
0.00017073638
0.00020918112
0.00018416586
0.0001686406
0.0001614497
0.0001470395
0.00013209639
0.00012319175
0.00011865596
0.00011573595
0.00011380776
0.00011285822
0.00011251684
0.00011229764
0.00011197708
0.00011161037
0.00011133571
0.00011122514
0.00011126243
0.0001113934
0.00011157425
0.00011178606
0.00011202345
0.00011228308
0.00011256121
0.00011285338
0.0001131572
0.00011347257
0.00011380202
0.00011414733
0.000114515
0.00011490537
0.00011533913
0.00011580187
0.00011636474
0.00011695161
0.00011756523
0.0001199292
0.00018166078
0.00020090715
0.00012895289
0.00010596335
0.00010347844
9.3072948e-05
7.9703481e-05
7.2164986e-05
6.9213645e-05
6.7895001e-05
6.7233632e-05
6.70336e-05
6.7081847e-05
6.7167277e-05
6.7202145e-05
6.7212606e-05
6.7256343e-05
6.7362377e-05
6.7523538e-05
6.7718162e-05
6.7929465e-05
6.8150473e-05
6.8379438e-05
6.8615148e-05
6.8855957e-05
6.9100374e-05
6.9348016e-05
6.9599383e-05