/*--------------------------------*- C++ -*----------------------------------*\
  =========                 |
  \\      /  F ield         | OpenFOAM: The Open Source CFD Toolbox
   \\    /   O peration     | Website:  https://openfoam.org
    \\  /    A nd           | Version:  7
     \\/     M anipulation  |
\*---------------------------------------------------------------------------*/
FoamFile
{
    version     2.0;
    format      ascii;
    class       volSymmTensorField;
    location    "2000";
    object      Rall;
}
// * * * * * * * * * * * * * * * * * * * * * * * * * * * * * * * * * * * * * //

dimensions      [0 2 -2 0 0 0 0];

internalField   nonuniform List<symmTensor> 
15296
(
(0.00014967553 4.8947136e-05 1.3381744e-15 -0.0011008777 -2.5456126e-17 0.0043660582)
(0.00013170093 -9.2653677e-06 1.4082152e-15 -0.0010961247 -6.1715959e-15 0.0043841208)
(0.0021583803 -1.1574919e-05 -2.6724188e-17 0.0033567437 -1.6909332e-14 -0.0020991624)
(0.0021502112 8.7693136e-06 9.3834634e-16 0.0033601312 -4.6930758e-15 -0.0020988573)
(0.002145823 9.4303512e-06 -1.0618435e-17 0.0033579863 -1.0065174e-15 -0.0020966655)
(0.0021430968 9.5196278e-06 1.99885e-15 0.0033541286 -2.3907939e-15 -0.0020940094)
(0.0021407165 9.4417086e-06 9.9286131e-16 0.0033508511 2.1362934e-16 -0.0020915945)
(0.0021386192 9.3502235e-06 -6.1102521e-18 0.0033484081 8.6413409e-16 -0.0020895205)
(0.0021368901 9.2399457e-06 -8.1329907e-18 0.0033468255 1.7304535e-15 -0.0020878631)
(0.0021355686 9.1111681e-06 2.0516348e-15 0.003346108 2.8730627e-15 -0.0020866523)
(0.0021346646 8.9717954e-06 1.0674348e-17 0.0033462569 9.9074796e-16 -0.0020858969)
(0.0021341886 8.8394212e-06 7.7848122e-18 0.0033472625 3.5387856e-16 -0.002085603)
(0.0021341504 8.7367199e-06 -1.0378681e-15 0.0033491097 -9.4974481e-16 -0.0020857746)
(0.0021345598 8.6812243e-06 1.0420308e-15 0.0033517817 -4.4591461e-16 -0.0020864154)
(0.0021354421 8.5082819e-06 2.5416901e-18 0.0033552117 4.302676e-16 -0.0020874985)
(0.0021344867 8.542294e-06 1.0389618e-15 0.0033593902 -1.0757068e-15 -0.0020865686)
(0.0021360458 8.7817285e-06 2.0919731e-15 0.0033645446 1.3067623e-15 -0.0020884609)
(0.0021380765 8.9441412e-06 1.0571032e-15 0.0033703809 -2.086608e-17 -0.0020907557)
(0.0021335935 2.611715e-05 1.0773547e-15 0.0033857256 4.4460337e-16 -0.0020953681)
(0.00014846253 2.8532008e-05 9.8300293e-18 -0.0010895475 -3.1256281e-15 0.004370637)
(0.00016116954 9.7328425e-06 -4.0733359e-18 -0.0011088714 -2.1103686e-15 0.004385231)
(0.00016393361 9.0658823e-06 1.4541261e-15 -0.0011139714 -1.4752185e-15 0.0043962309)
(0.00016604408 8.9620872e-06 1.4632808e-15 -0.0011176262 -1.350501e-15 0.0044071177)
(0.0001684628 9.0215088e-06 -1.4760647e-15 -0.0011217307 -9.5773042e-16 0.0044189201)
(0.00017130847 9.1035319e-06 1.7941972e-18 -0.0011263226 -7.8155387e-16 0.0044315864)
(0.00017478357 9.2352892e-06 -2.9914731e-15 -0.0011315421 -1.6770538e-15 0.0044451143)
(0.00017919868 9.4448736e-06 -3.0287166e-15 -0.0011376117 -3.6838533e-16 0.0044595332)
(0.00018474608 1.0433216e-05 4.1817229e-17 -0.0011444815 4.9487108e-15 0.0044748231)
(0.00019706234 1.3688105e-05 1.5060914e-16 -0.0011486462 -1.5077153e-14 0.0044825419)
(0.0002055713 1.4084857e-05 1.1869865e-14 -0.0011190437 -3.6014526e-14 0.0044654945)
(0.0002176692 1.2894852e-05 2.2698434e-13 -0.001103849 -3.9191133e-12 0.0044634823)
(0.00023558265 1.2843293e-05 4.0799392e-12 -0.001105778 -8.1742298e-11 0.0044811052)
(0.00026349808 1.3511582e-05 1.1060003e-10 -0.0011305652 -1.549148e-09 0.0045310073)
(0.0003178235 1.2991568e-05 4.3157007e-09 -0.0011970162 -4.210533e-08 0.0046497077)
(0.00040653189 1.5259541e-05 1.1643752e-07 -0.0013117251 -1.6527097e-06 0.0048990399)
(0.00057592052 3.0143615e-05 1.7523241e-06 -0.0014733949 -4.5683169e-05 0.0051198635)
(0.00088349232 1.6767465e-05 5.0097266e-06 -0.001729423 -0.00072019438 0.0055821143)
(0.0044250562 0.00015640121 -0.00020784149 -0.00080631028 -0.0041143962 0.0020988313)
(0.0021503523 9.8940874e-05 3.8923344e-17 -0.0021307395 -3.6776121e-16 0.0033891353)
(0.0020781258 6.2715067e-06 -1.7598243e-15 -0.0021146625 -6.5967702e-15 0.0034477255)
(0.00027937333 1.7576805e-05 1.6323768e-15 0.0043663098 -1.7837451e-14 -0.0012388422)
(0.00026344785 3.9551938e-05 -4.772145e-17 0.0043556818 -4.8721145e-15 -0.0012169251)
(0.00025834236 3.9622753e-05 -8.064444e-18 0.004347806 -1.1984511e-15 -0.0012082704)
(0.00025902397 3.9223249e-05 1.5973723e-15 0.0043404973 -2.5318915e-15 -0.001205441)
(0.00025958078 3.8711644e-05 1.6108051e-15 0.0043340516 6.0092728e-16 -0.0012026534)
(0.00025939007 3.8133192e-05 5.7880165e-18 0.004328808 1.1052797e-15 -0.001199546)
(0.00025869377 3.744379e-05 -3.2726314e-15 0.0043247388 1.5721591e-15 -0.0011962986)
(0.00025760199 3.664511e-05 -3.2927357e-15 0.0043218438 2.6475736e-15 -0.0011930068)
(0.00025613512 3.5779621e-05 -1.6640156e-15 0.0043201333 4.7698425e-16 -0.0011896991)
(0.00025434287 3.4931122e-05 1.6694365e-15 0.0043195913 8.0410424e-16 -0.0011864142)
(0.00025228468 3.4206171e-05 1.6872051e-15 0.0043201886 -6.6660264e-16 -0.0011831916)
(0.00025002048 3.3695776e-05 2.9358705e-18 0.0043218948 -2.2889462e-16 -0.0011800714)
(0.0002475764 3.3314e-05 -3.4243686e-15 0.004324655 2.0195733e-16 -0.0011770387)
(0.00024053912 3.3275694e-05 3.395618e-15 0.0043249283 -6.0727609e-16 -0.0011661061)
(0.00023753128 3.3550617e-05 4.9629779e-18 0.0043293813 1.363184e-15 -0.0011626338)
(0.00023458092 3.3834606e-05 3.2300059e-18 0.0043348032 1.869961e-16 -0.0011594315)
(0.00022546245 5.1473602e-05 -1.7292739e-15 0.0043389523 1.7010504e-16 -0.001148092)
(0.0021423023 4.4131637e-05 4.1430585e-15 -0.0021059463 -2.7152858e-15 0.0033870509)
(0.0021708988 2.2942139e-05 -6.6095534e-18 -0.0021014988 -1.5329263e-15 0.0033619816)
(0.0021830786 2.2290629e-05 -2.5663739e-18 -0.0021037745 -1.6736643e-15 0.003360803)
(0.002193649 2.2090197e-05 -8.7255457e-18 -0.0021079974 -1.4014046e-15 0.0033638941)
(0.0022059338 2.1987652e-05 -2.4685162e-18 -0.0021123772 -4.7377731e-16 0.0033662059)
(0.0022204557 2.1846062e-05 -1.9870201e-15 -0.0021176903 -8.3367622e-16 0.0033680165)
(0.0022381187 2.1679113e-05 -1.1006746e-17 -0.0021241675 -1.2541865e-15 0.003368715)
(0.0022603251 2.1480621e-05 1.9891529e-15 -0.0021321731 5.8502789e-16 0.0033673847)
(0.0022891657 2.1748465e-05 2.1280682e-15 -0.0021422695 5.0758332e-15 0.0033627276)
(0.0023318341 2.5622346e-05 1.1648512e-16 -0.0021363577 -1.5166866e-14 0.0033300756)
(0.0023127492 2.6479301e-05 1.9205939e-14 -0.0021130815 -2.6577417e-14 0.0033470077)
(0.0023261592 2.3879359e-05 3.4658082e-13 -0.0021104099 -3.6834473e-12 0.0033566872)
(0.0023860186 2.1521863e-05 5.6380867e-12 -0.0021286714 -7.714594e-11 0.0033498125)
(0.0025128722 1.677003e-05 1.7581394e-10 -0.0021727775 -1.3708565e-09 0.0033221617)
(0.0027807223 2.2402925e-06 8.2693198e-09 -0.0022532761 -3.6654902e-08 0.0032468544)
(0.0032229025 -1.5928321e-05 2.193854e-07 -0.0024268955 -1.585011e-06 0.0032088276)
(0.0039010485 -2.4082545e-05 2.7629313e-06 -0.0026030288 -4.3392267e-05 0.0029406898)
(0.0049217932 -0.00012300905 4.201428e-06 -0.0028929718 -0.00061166555 0.0027230727)
(0.006920465 -0.00079604307 -0.00025939695 -0.0028961312 -0.0015677598 0.0016687532)
(0.0028131252 7.2950407e-05 9.2615056e-18 -0.0018191631 -7.0573667e-16 0.0024092281)
(0.0026252224 1.9197803e-05 3.3885976e-15 -0.0017755314 -4.9825646e-15 0.0025547401)
(-8.6699851e-05 6.183811e-05 -7.1238722e-15 0.0039653053 -9.3544872e-15 -0.00047827098)
(-7.6928887e-05 8.3960021e-05 -3.5388001e-15 0.0039750834 -2.4674365e-15 -0.00050236494)
(-7.1062594e-05 8.3194347e-05 7.0356667e-15 0.0039742045 -6.1910663e-16 -0.00051158024)
(-5.9591363e-05 8.2757394e-05 -3.5561092e-15 0.0039681932 -1.5187841e-15 -0.00052071816)
(-4.8719064e-05 8.2256788e-05 1.3236317e-17 0.0039631179 8.4305904e-16 -0.00052949294)
(-4.0288494e-05 8.1359547e-05 4.4512699e-18 0.0039597596 6.6006368e-16 -0.00053677051)
(-3.3482756e-05 7.9893085e-05 -3.7024918e-15 0.0039579107 1.5353222e-16 -0.00054312651)
(-2.80141e-05 7.7881466e-05 -7.5085674e-15 0.0039574873 8.8812378e-16 -0.00054875052)
(-2.3886307e-05 7.549006e-05 -3.8044166e-15 0.0039584842 -6.3586278e-16 -0.0005536312)
(-2.0979036e-05 7.3017725e-05 -7.6934482e-15 0.0039608455 6.4928292e-16 -0.00055783825)
(-1.9119183e-05 7.0851488e-05 -3.9057334e-15 0.0039644932 -3.0882245e-16 -0.00056147565)
(-1.8130907e-05 6.9353922e-05 -3.9562483e-15 0.0039693458 -4.3466113e-16 -0.00056464837)
(-1.7809112e-05 6.8697233e-05 4.0078463e-15 0.0039753344 2.9165383e-16 -0.00056750652)
(-1.9285634e-05 6.8965539e-05 1.2778483e-17 0.0039860027 1.0162129e-15 -0.00057244437)
(-1.9649245e-05 6.9955487e-05 -4.0975612e-15 0.0039943714 3.1961018e-16 -0.00057543818)
(-1.9955589e-05 7.1708183e-05 -4.1643762e-15 0.0040037134 1.2107012e-15 -0.00057870716)
(-2.7379045e-05 9.6706215e-05 5.7261507e-18 0.0039969742 -5.4703783e-16 -0.00055808493)
(0.0027475511 5.1789722e-05 -8.4367518e-15 -0.0018530656 -2.4796326e-15 0.0025241613)
(0.0027661698 3.1051245e-05 -2.600745e-17 -0.00186475 -1.3540062e-15 0.0025252554)
(0.0027778641 3.1094582e-05 4.2373809e-15 -0.0018763985 -1.2033239e-15 0.0025340049)
(0.0027930267 3.1067452e-05 4.3281843e-15 -0.0018856653 -6.4626977e-16 0.0025376241)
(0.0028125013 3.1141424e-05 -8.7568088e-15 -0.001896111 -4.2269012e-16 0.0025388758)
(0.002838393 3.1090879e-05 -2.2666974e-18 -0.0019081654 -6.3996771e-16 0.0025361175)
(0.0028735197 3.0936429e-05 -4.4882388e-15 -0.0019223888 -6.1935548e-16 0.0025271548)
(0.002922218 3.0663942e-05 -4.5858665e-15 -0.0019395283 2.9414186e-16 0.0025085188)
(0.0029908104 3.0592347e-05 4.7635142e-15 -0.0019605265 5.2558252e-15 0.0024750603)
(0.0030824776 3.2353668e-05 -5.0092344e-15 -0.0019937512 -1.816152e-14 0.0024324966)
(0.003082585 3.0868565e-05 1.4870689e-14 -0.0019622639 -1.7967235e-14 0.0024209507)
(0.0031595332 2.8520761e-05 1.7760557e-13 -0.0019574915 -4.0170739e-12 0.0023641494)
(0.003337413 2.6319548e-05 2.1409146e-12 -0.0019780554 -7.91805e-11 0.0022412795)
(0.0036570349 2.020966e-05 1.9015508e-10 -0.0020139132 -1.1251976e-09 0.0020130887)
(0.0042592284 3.9265583e-07 8.8376437e-09 -0.0020056225 -4.0196974e-08 0.0015168857)
(0.0049810369 -2.6837408e-05 8.9446137e-08 -0.002004388 -1.8877017e-06 0.0010278002)
(0.0057154519 -3.6900437e-05 -1.0399324e-06 -0.001706491 -3.7618297e-05 0.00023151772)
(0.0065341474 -0.00014471255 -3.7071443e-06 -0.0013542136 -0.00026156133 -0.00042629552)
(0.0067748165 -0.00055927076 1.5951327e-05 -0.003495149 0.00015806933 0.0023876347)
(0.0018144738 8.2104092e-05 1.8588448e-18 0.0009247875 -6.7174699e-17 0.00066039781)
(0.0015836573 9.5448233e-05 -2.5725814e-15 0.0010305734 7.5485022e-17 0.00078574795)
(0.0010103059 9.8688061e-05 -3.4156356e-19 0.0010831328 1.8845264e-16 0.0013025388)
(0.0010174335 8.1349254e-05 1.3457902e-17 0.0010914086 2.6721944e-16 0.001282655)
(0.001021504 8.0241717e-05 -6.7970528e-18 0.0010928905 1.2741471e-16 0.0012729477)
(0.0010336239 7.9800529e-05 2.8095665e-15 0.0010872522 1.467377e-16 0.0012628752)
(0.0010453284 7.9504071e-05 2.2802935e-17 0.0010820539 9.7571647e-17 0.0012534807)
(0.0010544199 7.8703853e-05 2.8655993e-15 0.0010784866 -1.1371225e-16 0.0012458394)
(0.0010618702 7.7121915e-05 5.8958711e-18 0.0010761203 -3.4488468e-16 0.0012394423)
(0.0010680303 7.4789766e-05 -1.4922984e-17 0.0010747837 -2.7929914e-16 0.0012341239)
(0.0010729011 7.1922783e-05 2.9765991e-15 0.0010744649 -1.4444626e-17 0.0012298981)
(0.0010766232 6.8898298e-05 -7.0956412e-18 0.0010750833 -9.1032862e-17 0.0012266996)
(0.0010793949 6.6212082e-05 -3.1005904e-15 0.0010765312 -3.8553886e-16 0.0012244293)
(0.0010814135 6.4344077e-05 3.1554025e-15 0.0010787007 -2.8942399e-16 0.0012229867)
(0.0010829108 6.3616345e-05 1.253403e-17 0.0010814869 -4.9113527e-17 0.0012222315)
(0.0010826088 6.40754e-05 -3.2409123e-15 0.0010882977 1.6149762e-16 0.0012200437)
(0.0010837446 6.5411978e-05 1.5959652e-17 0.0010923529 -5.5731025e-17 0.0012199323)
(0.0010849717 6.7672399e-05 -3.1139572e-18 0.0010971689 3.6955963e-16 0.0012197226)
(0.0011140977 5.6406217e-05 3.3967868e-15 0.0010357643 1.4947637e-16 0.0012585501)
(0.001790849 4.8307127e-05 -6.655207e-15 0.00086481684 -2.623787e-16 0.00075994886)
(0.001787682 6.2523668e-05 -3.4072325e-15 0.00090190425 -7.2359176e-16 0.00073410731)
(0.0018024369 6.3697151e-05 -8.6906567e-18 0.00089484047 2.6150688e-16 0.0007352578)
(0.0018191935 6.4096821e-05 -3.4963373e-15 0.00088980083 5.4099339e-16 0.00073310715)
(0.0018421373 6.4192909e-05 7.1421748e-15 0.00088186359 1.0415381e-16 0.00072842423)
(0.0018736958 6.4036171e-05 -3.622723e-15 0.00087034853 -3.4942315e-16 0.00071949988)
(0.0019179854 6.3680274e-05 -3.6911505e-15 0.00085336632 -1.5557859e-16 0.0007041703)
(0.0019814223 6.3131236e-05 -5.6660718e-17 0.00082805309 -4.1645672e-16 0.00067900371)
(0.0020737171 6.2420886e-05 4.0127804e-15 0.00079004571 2.3263899e-16 0.00063888494)
(0.002218641 6.117037e-05 -1.0385338e-15 0.00071699676 -1.5110676e-15 0.000582865)
(0.0024727355 5.8728435e-05 4.5377222e-15 0.00057757648 -2.5247655e-14 0.00048757138)
(0.0028198972 5.6353445e-05 -2.2609003e-13 0.00040910826 -1.867962e-12 0.00033323714)
(0.0033396715 5.2286563e-05 -5.7128873e-13 0.00019170764 -2.4227927e-11 6.50217e-05)
(0.0041337601 3.8833144e-05 7.6212782e-11 -8.8535292e-05 -1.4056945e-10 -0.00039308257)
(0.0050899181 -5.5462355e-06 -4.990114e-09 -0.00025151437 -3.3779417e-08 -0.0010708738)
(0.0053866781 -5.4708845e-05 -1.8595625e-07 -0.00026651586 -8.9347272e-07 -0.0011168177)
(0.0056477541 -6.345381e-05 -1.2555965e-06 -0.00028113261 -4.0848296e-06 -0.0011278319)
(0.0062811635 -0.00026309434 -1.1529814e-06 -0.00036482417 6.3578103e-05 -0.0011668297)
(0.0064935308 -0.00083001985 2.7512665e-05 -0.0034000223 0.00018139424 0.0025425257)
(0.0011198308 0.00017032631 1.7240458e-17 0.0018523654 2.1498427e-16 0.00042538693)
(0.00090735473 0.00013958871 8.390312e-18 0.0019474565 9.2182396e-16 0.00054217119)
(0.0016664796 0.00010289678 2.2388599e-17 0.00017888442 1.5669922e-15 0.0015476305)
(0.0016850847 8.8957471e-05 -8.9644506e-18 0.00016066186 4.9393829e-16 0.0015428233)
(0.001691877 8.757467e-05 -1.1646631e-17 0.0001547012 3.2540274e-16 0.0015378978)
(0.0017035541 8.7150096e-05 3.3745534e-17 0.00014835682 4.6710424e-16 0.0015290459)
(0.0017149208 8.7021321e-05 1.7470915e-17 0.00014237978 -2.7929329e-16 0.0015208421)
(0.0017239195 8.6300953e-05 2.1929409e-15 0.00013774734 8.9881771e-18 0.0015144319)
(0.0017315099 8.4596521e-05 -1.6779945e-18 0.00013401276 -3.6331984e-16 0.0015093342)
(0.0017380434 8.1931803e-05 2.2446828e-15 0.00013100577 -5.8135005e-16 0.0015053824)
(0.0017435274 7.8559446e-05 2.2880174e-15 0.00012871514 1.5207072e-16 0.0015025832)
(0.0017481013 7.4920239e-05 -1.0515979e-17 0.00012706757 -3.0924695e-16 0.0015008665)
(0.0017519554 7.1603539e-05 2.3563676e-15 0.00012596704 1.9664653e-17 0.0015001294)
(0.0017552727 6.9202523e-05 2.429197e-15 0.00012532362 2.1419764e-16 0.0015002678)
(0.0017582554 6.81521e-05 -2.4366258e-15 0.00012506231 -2.7309799e-16 0.0015011407)
(0.0017605081 6.8505244e-05 -4.9700981e-15 0.00012593269 -1.7679688e-16 0.0015023985)
(0.0017635509 7.0005574e-05 -5.0424095e-15 0.00012616931 -3.733885e-16 0.0015042587)
(0.0017672755 7.2037364e-05 -5.1533959e-15 0.00012582523 -2.2047274e-16 0.0015067695)
(0.0017958039 6.2976619e-05 -2.6329526e-15 8.8671966e-05 -1.5218231e-16 0.0015220178)
(0.0011053089 8.4225458e-05 -2.6256151e-15 0.0018259852 1.1002215e-16 0.00048246844)
(0.0010902484 9.8759865e-05 5.3196726e-15 0.0018688236 7.7206728e-17 0.00046281542)
(0.0010999307 0.0001003266 -6.8769341e-19 0.0018716023 4.1246701e-16 0.00045923412)
(0.0011138379 0.00010121503 -2.7538918e-15 0.0018713337 -6.4601747e-17 0.00045520215)
(0.0011334587 0.00010150276 2.8161938e-15 0.0018688572 2.5000116e-16 0.00044841879)
(0.0011615048 0.00010138362 2.8640214e-15 0.0018627333 -1.2041696e-16 0.00043764935)
(0.0012020994 0.00010096686 8.4419535e-18 0.0018509062 -1.5061232e-16 0.0004208898)
(0.0012617155 0.00010029394 2.8869669e-15 0.0018301574 4.7243528e-16 0.00039500643)
(0.0013503707 9.9308041e-05 2.985292e-16 0.0017952134 -9.4259485e-16 0.00035548774)
(0.0014868951 9.7763952e-05 -1.5552219e-15 0.001736062 5.1668563e-15 0.00029397773)
(0.0016743619 9.4271376e-05 7.4150646e-15 0.0017014848 -3.5353992e-14 0.00016028712)
(0.0019871053 8.9772139e-05 -2.0838834e-13 0.0015834953 -1.3024161e-13 -1.0318663e-05)
(0.0025038454 8.312321e-05 1.0658893e-12 0.0013536255 1.5199443e-11 -0.00026321038)
(0.003331464 6.5474724e-05 -9.4001074e-11 0.00097688274 3.5720009e-11 -0.00065846075)
(0.0047589456 1.3570478e-05 -7.7819851e-09 0.00015418619 -1.474373e-08 -0.0011479016)
(0.0051956583 -5.2986588e-05 -9.5444902e-08 -6.3236529e-05 5.3843741e-08 -0.0011310157)
(0.0055828383 -7.0790107e-05 -1.4436791e-07 -0.00033651927 6.4544579e-06 -0.0010100725)
(0.0062999381 -0.00031165685 -3.3586772e-07 -0.00064325735 4.7987703e-05 -0.00091261575)
(0.006536429 -0.00095688392 1.1806816e-06 -0.0032434774 5.5028899e-06 0.0023075723)
(0.0012674709 0.00024294942 3.7561271e-17 0.001244734 6.2812854e-17 0.00088367513)
(0.001068854 0.00014872928 -2.0548334e-15 0.0013278335 1.9911338e-17 0.00099747343)
(0.0015124644 0.00011581504 2.718333e-18 0.00077711516 6.5430268e-17 0.0011005644)
(0.0015388631 0.00012026366 -2.1191579e-15 0.00075223477 -2.6220962e-16 0.0010946833)
(0.0015486417 0.00011856513 -2.1363188e-15 0.0007424976 -1.5279964e-19 0.0010906223)
(0.0015615656 0.00011781328 -2.1227172e-15 0.00073393604 7.8890429e-17 0.0010828274)
(0.0015740188 0.00011750207 2.0209412e-17 0.00072604423 -2.0189725e-16 0.0010755422)
(0.0015839587 0.00011660946 -2.2131791e-15 0.00071977287 -1.2604192e-16 0.0010699185)
(0.0015923994 0.00011461658 -2.2507851e-15 0.00071460876 -3.5618743e-16 0.0010654861)
(0.0015997192 0.00011151738 -2.2879241e-15 0.00071035874 -2.2707339e-16 0.0010620744)
(0.0016059377 0.00010757648 2.2922482e-15 0.00070700503 1.1686449e-16 0.0010596856)
(0.0016112072 0.00010327224 -1.8368884e-17 0.00070446259 -2.591025e-16 0.0010582494)
(0.0016157283 9.9260062e-05 2.3755061e-15 0.00070262361 -3.8934104e-17 0.0010576652)
(0.0016196842 9.6222204e-05 2.7368704e-17 0.00070139471 3.7710498e-16 0.0010578322)
(0.0016232717 9.4671611e-05 9.419747e-18 0.00070068552 -3.00654e-17 0.00105863)
(0.0016268768 9.472236e-05 -6.2450377e-19 0.00069979375 -2.2882462e-16 0.0010603742)
(0.0016305472 9.6147304e-05 2.3294617e-17 0.00069964527 -3.8879465e-16 0.0010620672)
(0.0016352939 9.7966464e-05 -2.5937966e-15 0.00069847234 -5.4013983e-16 0.0010644574)
(0.0016372024 0.00010711019 5.2382e-15 0.00071916682 -2.5701648e-17 0.0010485525)
(0.0012396639 0.00012285817 1.0776657e-17 0.0012731465 -2.1164117e-16 0.00089947028)
(0.0012421607 0.00011868699 -2.4380459e-17 0.0012691313 -3.2976198e-16 0.00090915902)
(0.0012506184 0.0001197996 2.7851052e-15 0.0012717447 4.2204748e-16 0.00090701394)
(0.0012644405 0.00012064519 7.6320498e-18 0.0012707038 -1.9363612e-16 0.00090388654)
(0.0012840717 0.00012087257 6.1526646e-18 0.0012671657 -4.9672706e-17 0.00089819657)
(0.0013123533 0.00012057744 5.8586198e-18 0.0012596375 5.5728731e-16 0.00088863228)
(0.0013534828 0.0001198506 -2.9816731e-15 0.0012460006 -9.570788e-17 0.00087317782)
(0.0014140744 0.00011869056 2.9439009e-15 0.0012228994 3.9688408e-16 0.00084869485)
(0.0015043738 0.00011698446 4.4312293e-16 0.0011849984 -1.0202859e-16 0.00081050549)
(0.0016399364 0.0001154506 7.821129e-16 0.0011275923 1.2703704e-15 0.00074820887)
(0.0018304996 0.00011243342 8.8861167e-15 0.0010640848 -1.9249125e-14 0.00064014384)
(0.0021469408 0.00010548149 -2.6403773e-14 0.00092894936 5.4190572e-13 0.00048272219)
(0.0026746569 9.4307575e-05 2.1419412e-12 0.00068048856 1.2365579e-11 0.00023716789)
(0.0035344821 6.7292232e-05 -1.4462736e-10 0.0002538563 -2.2981715e-10 -0.00014072356)
(0.0050068522 8.9374851e-06 -4.1943252e-09 -0.00056752908 -4.6154705e-10 -0.00067672602)
(0.005336267 -5.9819141e-05 4.9427542e-09 -0.00064488654 2.2219906e-07 -0.00069256601)
(0.0056637209 -8.3992714e-05 3.7703756e-07 -0.00070188054 2.5903536e-06 -0.00072908852)
(0.0063370866 -0.0003302691 1.4719728e-07 -0.0008258105 1.6327239e-06 -0.0007749044)
(0.0065118692 -0.001149975 -1.7377193e-06 -0.0030674878 -1.5863429e-05 0.0021071358)
(0.0014973087 0.00028047265 3.6276802e-17 0.00080679543 8.2544178e-17 0.0010911488)
(0.0013199239 0.00018102723 -1.4247505e-15 0.00087458129 -3.6275252e-16 0.0011978189)
(0.0012618216 0.00016249482 1.4312068e-15 0.0012192055 -2.1493562e-16 0.00090715636)
(0.0012819551 0.0001658633 1.4154328e-15 0.0012104565 -2.9463196e-16 0.00089146648)
(0.0012902957 0.00016339759 1.4573908e-15 0.0012047776 1.9421803e-16 0.00088487209)
(0.0013033956 0.0001619122 -1.4505284e-15 0.0011962799 -2.8721697e-16 0.00087694017)
(0.0013159601 0.00016112792 2.5596062e-17 0.001188473 1.0880149e-16 0.00086956695)
(0.0013259167 0.00015990247 -1.4605077e-17 0.0011824224 -1.0264013e-16 0.00086381271)
(0.0013342882 0.000157591 -9.4815302e-18 0.0011776237 -2.1720048e-16 0.00085918723)
(0.001341476 0.00015413373 -7.1484396e-18 0.0011738676 4.9136488e-18 0.00085551296)
(0.0013475184 0.00014976973 1.5784904e-15 0.0011711215 8.5788304e-17 0.00085278932)
(0.0013525834 0.00014496515 -2.2871006e-17 0.0011692857 -1.4974993e-17 0.00085094647)
(0.0013568828 0.00014038162 1.6462639e-15 0.0011682393 -1.0456966e-16 0.00084988674)
(0.0013605999 0.00013673469 3.412508e-17 0.0011678836 2.7022263e-17 0.0008495155)
(0.0013639327 0.00013457976 1.0200427e-18 0.001168106 -1.8606607e-17 0.00084973279)
(0.001367337 0.00013411075 -3.1305865e-18 0.0011683763 -1.387719e-16 0.00085060788)
(0.0013706569 0.00013514946 -1.7353543e-15 0.001169361 -1.3855776e-16 0.00085160841)
(0.0013745248 0.00013728011 -1.7899681e-15 0.0011707132 -4.3541362e-16 0.00085243847)
(0.0013648413 0.00014766254 -1.5848205e-17 0.0011994771 8.670376e-18 0.00084014643)
(0.0014790857 0.00014511869 -1.8691914e-15 0.00082990957 -2.105413e-16 0.0011029024)
(0.0014987561 0.0001391403 1.8743686e-15 0.00080208778 -1.1742474e-16 0.0011192847)
(0.0015095197 0.00014019131 -2.3735875e-18 0.00079972978 2.5476412e-16 0.0011198585)
(0.0015240774 0.00014075925 3.2871683e-18 0.00079692467 -9.9859864e-17 0.0011178117)
(0.0015444539 0.00014070342 2.1384006e-17 0.0007915833 5.6190111e-17 0.0011132249)
(0.0015733697 0.00014005401 -4.0667372e-15 0.00078236232 -1.2466398e-16 0.0011047558)
(0.0016149258 0.00013885175 -2.054219e-15 0.00076725967 -9.5974442e-17 0.001090368)
(0.0016755722 0.00013703844 -4.3367765e-15 0.00074313604 -1.3373251e-17 0.0010668693)
(0.0017651222 0.00013444104 5.9065246e-16 0.00070534139 6.6413644e-16 0.0010293268)
(0.0018988318 0.00013146163 -3.3381265e-15 0.00064799766 -1.9903207e-15 0.00096880059)
(0.0021042507 0.00012559397 1.8487834e-14 0.00054874149 1.3998622e-14 0.00088140861)
(0.0024246017 0.00011502055 4.739237e-14 0.00039814358 5.4481239e-13 0.00073521932)
(0.0029443769 9.8568892e-05 -1.3480366e-12 0.0001554213 -5.3556363e-12 0.00049145219)
(0.003785289 6.1763586e-05 -9.7875204e-11 -0.00024329081 -1.9089092e-10 0.00010391221)
(0.0050588319 1.6642709e-06 4.9052582e-10 -0.00073962186 6.0687836e-09 -0.00055928651)
(0.0053706882 -7.2544625e-05 2.059603e-08 -0.00074940791 1.0805711e-07 -0.000626018)
(0.0056792298 -0.00010759732 8.6512207e-08 -0.00074350556 -2.5323045e-07 -0.00070728517)
(0.0063282819 -0.00035693274 9.8759738e-08 -0.00081512908 -7.674093e-06 -0.00078697698)
(0.0064193944 -0.0013571663 -3.210435e-07 -0.0028585363 -3.6593327e-06 0.0019156002)
(0.0014888516 0.00031418856 -9.4545057e-16 0.00088157853 -6.6959548e-17 0.0010254645)
(0.0013293909 0.00023691374 1.0055851e-15 0.00093943635 -2.0266042e-16 0.0011230234)
(0.0012543969 0.0002138095 7.4057556e-18 0.0011519474 5.1421763e-17 0.00098115849)
(0.0012697658 0.0002071268 -2.4960816e-17 0.0011490317 -9.5177125e-17 0.00096444366)
(0.0012765664 0.00020346644 2.0733703e-15 0.0011456294 3.3830485e-16 0.00095720867)
(0.0012894979 0.00020112196 1.0928031e-15 0.0011377254 -2.3282591e-16 0.00094896726)
(0.0013019312 0.00019989794 -1.0301985e-15 0.0011303957 7.1744015e-17 0.00094137099)
(0.0013116914 0.00019845097 -2.1369273e-17 0.0011248437 -4.8238845e-17 0.0009354371)
(0.001319812 0.00019600097 -1.1302337e-17 0.001120573 -2.6157886e-16 0.00093065267)
(0.0013267259 0.00019241856 -1.1248699e-15 0.0011173528 -7.893892e-17 0.00092682906)
(0.0013324939 0.00018789388 -2.3016881e-15 0.0011151344 -1.6375349e-16 0.00092396054)
(0.0013373026 0.00018284472 -3.2687476e-17 0.0011138039 2.9497257e-17 0.00092197426)
(0.0013413784 0.00017789342 3.5177391e-15 0.001113229 3.6801048e-16 0.00092077153)
(0.0013449079 0.00017374789 4.3127652e-17 0.0011133051 5.0024398e-17 0.00092026135)
(0.0013480796 0.00017099938 5.8676175e-18 0.0011139267 6.585285e-17 0.00092034639)
(0.0013510985 0.00016993112 -5.3629632e-18 0.0011150703 -3.995784e-17 0.00092083647)
(0.001354197 0.00017044172 -1.2283727e-15 0.0011165323 -2.6379641e-16 0.00092168217)
(0.001357283 0.00017249863 -1.2772872e-15 0.0011191444 -4.3405385e-16 0.00092213081)
(0.0013601785 0.00017398646 -1.3143573e-15 0.0011180917 1.0717557e-16 0.00092716794)
(0.0015074069 0.00016825957 3.1123824e-18 0.00085740141 -1.851825e-16 0.0010481637)
(0.0015214375 0.00017067173 1.3274628e-15 0.00084957145 2.3238215e-16 0.001050263)
(0.0015332257 0.00017207783 2.7164969e-15 0.00084650085 2.6503765e-16 0.0010505847)
(0.001548103 0.00017254519 4.1657754e-18 0.00084339032 -7.606155e-18 0.0010485795)
(0.0015687366 0.00017227323 -1.3994162e-15 0.00083779099 -1.2170391e-16 0.0010440413)
(0.0015978567 0.00017130006 1.4317185e-15 0.00082834566 -9.3955196e-17 0.0010356301)
(0.0016395343 0.0001696343 2.9288038e-17 0.00081305982 6.50951e-17 0.0010213308)
(0.0017001477 0.00016718004 -1.6124e-16 0.00078884275 -1.2763942e-16 0.0009979718)
(0.00178935 0.00016369074 -7.615601e-16 0.00075113796 3.5454312e-16 0.00096068407)
(0.0019234226 0.00015895304 -5.5291658e-15 0.00069156832 -1.3125529e-15 0.00090199294)
(0.0021332315 0.00015087749 3.0991893e-14 0.00058743832 3.2774001e-14 0.0008148914)
(0.0024543172 0.00013747181 -1.4226362e-13 0.00043447927 -8.5912644e-14 0.00067000778)
(0.0029696582 0.00011644205 -2.5977506e-12 0.0001938873 -1.0670633e-11 0.000428068)
(0.0037923878 7.1757277e-05 5.625674e-13 -0.00018170297 9.1510389e-11 3.4759503e-05)
(0.0050491548 1.9161543e-06 1.3086656e-09 -0.00067279429 4.3772866e-09 -0.00061846838)
(0.0053578976 -8.7376244e-05 -3.8915492e-09 -0.00069465718 -1.5424164e-08 -0.0006719851)
(0.0056658537 -0.00013666492 -4.729975e-08 -0.00069362023 -4.9930773e-07 -0.00074802352)
(0.0063061885 -0.0003744899 1.346085e-08 -0.00076301622 -1.4121342e-06 -0.00082819815)
(0.0062574927 -0.0015606657 7.752357e-08 -0.0026172304 1.2178269e-06 0.0017150703)
(0.0013966064 0.0003713696 -1.3960878e-15 0.0010434954 -3.1010874e-16 0.00095775875)
(0.00125747 0.0002980252 -1.4473996e-15 0.0010881456 -4.4745249e-17 0.0010472389)
(0.0013203918 0.00025894582 -1.4654854e-15 0.0010138339 -1.3791024e-16 0.0010540438)
(0.0013399148 0.00024836318 -3.123809e-17 0.0010014197 -2.236766e-16 0.001042705)
(0.0013476893 0.00024328206 -1.8009861e-17 0.00099572669 2.4831371e-16 0.0010368974)
(0.0013606626 0.00023995129 4.2229458e-17 0.00098783731 3.0047034e-17 0.0010287375)
(0.0013730906 0.00023819935 4.4185961e-17 0.00098060403 -2.5136147e-16 0.0010211979)
(0.0013828044 0.0002365157 -3.5685761e-17 0.00097514667 -7.8546726e-17 0.0010153637)
(0.0013908589 0.00023398923 -1.306197e-17 0.00097094882 1.2730578e-17 0.0010107149)
(0.0013977209 0.00023040811 -8.7408595e-18 0.00096775749 -1.2107732e-16 0.0010070496)
(0.0014034739 0.00022589212 -2.5170429e-17 0.00096550837 7.3298332e-17 0.0010043546)
(0.0014083205 0.00022078033 -1.2335368e-17 0.00096407949 1.1617375e-16 0.0010025514)
(0.0014124985 0.00021561517 8.6181446e-16 0.0009633336 7.1494411e-16 0.0010015374)
(0.0014161966 0.00021105498 -8.2475685e-16 0.00096316576 -7.4329048e-17 0.0010012218)
(0.0014195833 0.00020770459 -8.7787248e-16 0.00096349449 -1.2560393e-16 0.0010015047)
(0.0014227729 0.0002059159 8.73529e-16 0.00096438255 -7.661566e-17 0.0010021977)
(0.0014260866 0.00020570168 9.2529147e-16 0.00096552225 -7.5555273e-17 0.0010032671)
(0.0014296196 0.00020679599 9.3171539e-16 0.00096699176 -3.5187212e-16 0.0010045229)
(0.0014400587 0.00020502991 -9.527087e-16 0.00095552634 -1.9062779e-17 0.0010125349)
(0.0014492595 0.00020675559 2.9262027e-19 0.00099069138 -1.4622599e-16 0.00097582448)
(0.0014534581 0.00021187271 -4.9024695e-18 0.0010009761 2.2170922e-16 0.00096972619)
(0.0014640167 0.00021316276 9.7431464e-16 0.0010006666 4.456894e-16 0.00096858785)
(0.00147846 0.00021350178 -1.0130929e-15 0.00099844098 5.8771264e-17 0.00096619559)
(0.001498658 0.00021299241 2.1975968e-17 0.00099365159 -1.5055746e-16 0.00096133728)
(0.0015272564 0.00021166254 -2.0743006e-15 0.00098505947 5.4176062e-17 0.00095263718)
(0.0015682789 0.00020948134 -1.029922e-15 0.0009706928 -7.4546235e-17 0.00093810275)
(0.0016280291 0.0002063086 -2.1253909e-16 0.00094748497 -4.5894022e-17 0.00091461079)
(0.0017161161 0.00020177538 -1.3536617e-16 0.00091074122 -1.6539044e-16 0.00087746977)
(0.0018490343 0.00019529243 -4.6668342e-15 0.00085174127 8.6446682e-16 0.00081932736)
(0.0020525045 0.00018515644 3.263455e-14 0.00075887314 1.106306e-14 0.00072712734)
(0.0023677761 0.00016862586 -3.3302837e-13 0.00061303142 -5.3958836e-13 0.00058061483)
(0.0028762854 0.00014292577 7.3599664e-13 0.00037659616 -3.1198728e-13 0.00034080868)
(0.0036866268 8.8335314e-05 3.5143372e-11 6.3015937e-06 1.7447279e-10 -4.6415923e-05)
(0.0050372685 3.9559231e-06 2.4270498e-10 -0.00061387952 -1.7768765e-10 -0.00066665851)
(0.005344565 -0.00010344701 -1.1498128e-08 -0.00065712235 -3.2678956e-08 -0.00070046097)
(0.0056548437 -0.0001747482 -2.9062551e-08 -0.00066840553 7.2543373e-09 -0.00076584033)
(0.0062860956 -0.00037510003 -6.7963184e-09 -0.00073279962 7.5347603e-07 -0.00085167965)
(0.0060696359 -0.0017251138 1.7864958e-08 -0.0023865056 4.0711325e-07 0.0015386391)
(0.0013595731 0.00043571219 2.8075903e-17 0.0010738963 -1.8192178e-16 0.0009676996)
(0.0012369553 0.00035720103 1.0948317e-17 0.0011088641 -9.9311499e-17 0.0010497474)