0.140254 	0.975975 	-9.2286251e-17 	0.028144382 	0.0067778241 	9.8804692e-11 	0.028874928 	6.5659556e-10 	0.022676412
0.140591 	0.979952 	3.231356e-16 	0.028635998 	0.0068912783 	-9.731923e-11 	0.029243521 	1.0294397e-10 	0.022996535
0.140889 	0.983472 	2.3620705e-18 	0.028968739 	0.0069661853 	-7.5057645e-10 	0.029474128 	-1.5371817e-09 	0.023201045
0.141152 	0.986587 	-2.7065837e-16 	0.028968684 	0.0069639082 	-5.7212814e-10 	0.029364985 	-1.837344e-09 	0.023134983
0.141386 	0.989344 	1.4913074e-17 	0.028308704 	0.0068417738 	-2.3880279e-10 	0.028620053 	-7.6689614e-10 	0.022463643
0.141567 	0.991479 	-2.1591039e-16 	0.026347743 	0.0063136455 	-2.6131966e-09 	0.026579001 	-1.0215999e-08 	0.021003053
0.141709 	0.993161 	5.0423493e-16 	0.023498271 	0.0056680133 	-3.4142328e-09 	0.023594608 	-1.4260612e-08 	0.018544239
