11.12 	0.95887 	-4.2467267e-17 	2.33095 	-0.011966533 	2.5507804e-08
