0.477252 	0.982043 	-3.5790954e-16 	0.028003076 	0.0066493926 	-6.5838976e-11 	0.028705464 	-2.9911314e-10 	0.022781765
0.477547 	0.985177 	4.0913579e-16 	0.028056665 	0.0066854273 	-5.3160335e-11 	0.028610037 	-2.4151279e-10 	0.022673252
0.477808 	0.987951 	-3.1925416e-16 	0.027928905 	0.0067052445 	5.3152685e-11 	0.028330907 	-1.2552161e-10 	0.02233976
0.478039 	0.990407 	3.3470676e-16 	0.027309651 	0.0066548577 	5.4832407e-10 	0.027596591 	1.5519935e-09 	0.021509103
0.478218 	0.992308 	-9.7211324e-18 	0.02525501 	0.0061180587 	6.253725e-10 	0.025438401 	1.7700738e-09 	0.019931021
0.478359 	0.993806 	-1.2019424e-17 	0.022004582 	0.0053543297 	1.2715593e-10 	0.022075691 	3.9813312e-10 	0.01723025
