0.92599 	0.980782 	-2.3533691e-16 	1.9332156 	0.0060418236 	-2.5948019e-09
0.926275 	0.98393 	1.3448075e-16 	1.8754486 	0.0047524688 	-7.0641822e-10
0.926527 	0.986716 	4.3950014e-16 	1.8066326 	0.0036440202 	-2.9175265e-09
0.92675 	0.989183 	-3.542385e-16 	1.721967 	0.0026257416 	-1.4058481e-09
0.926948 	0.991366 	-8.4347541e-18 	1.6138003 	0.0019227742 	-1.4770524e-09
0.927101 	0.993056 	2.3922818e-17 	1.4862604 	0.0011604142 	-1.1485088e-09
0.927222 	0.994388 	-1.5468277e-17 	1.3427662 	0.00081901823 	-4.8397793e-10
