0.589499 	0.982586 	-3.6781097e-16 	1.7567456 	0.0061631801 	-8.7209782e-10
0.589785 	0.98562 	4.2297928e-16 	1.693739 	0.004789574 	-9.8081803e-11
0.590039 	0.988306 	3.0978028e-16 	1.6177779 	0.0035175039 	-1.4414474e-09
0.590264 	0.990683 	-5.26085e-16 	1.5214958 	0.0025629629 	-1.182476e-09
0.590438 	0.992523 	2.7557539e-16 	1.4074065 	0.0016197887 	-2.0704384e-09
0.590575 	0.993973 	2.8271757e-16 	1.2775869 	0.0010990635 	-1.2422132e-09
