0.365016 	0.981436 	2.3266936e-18 	1.6771914 	0.0065996216 	1.9230785e-11
0.365316 	0.984682 	3.1869085e-18 	1.6149273 	0.0051887915 	-4.3810514e-11
0.365582 	0.987555 	-2.9222541e-16 	1.5418366 	0.0038568404 	-2.22612e-10
0.365818 	0.990098 	3.3882419e-16 	1.4514887 	0.002811655 	-2.908261e-10
0.366 	0.992068 	8.1179638e-18 	1.3462426 	0.0017849676 	1.1516836e-10
0.366144 	0.993619 	-2.4343227e-16 	1.2270671 	0.0011277854 	5.1474065e-13
