4.0776948e-36 	0.0099121241 	-6.73181e-16 	-2.4468348e-22 	4.5719026e-29 	1.6617656e-35 	6.0400781e-42
0.010869565 	0.0071863669 	-0.0072500276 	2.2051996e-05 	0.0055833515 	-1.7937787e-05 	0.0022792747
0.02173913 	0.0068581404 	-0.0069340732 	1.7883473e-05 	0.004997055 	-1.3859901e-05 	0.0021459343
0.032608696 	0.0068468133 	-0.0059269517 	7.4654392e-06 	0.0052491568 	-1.4857775e-06 	0.0013151125
0.043478261 	0.0049065434 	0.0015111411 	2.8222476e-05 	0.0064937747 	-4.6861387e-06 	0.00089593522
0.054347826 	0.0032450935 	0.0053207352 	-9.3145081e-06 	0.005725172 	4.7350898e-06 	0.00079626527
0.065217391 	0.00222575 	0.0058602472 	-2.5362007e-06 	0.0047100363 	8.3990321e-06 	0.00030956997
0.076086957 	0.0016820629 	0.0050688727 	5.1228922e-06 	0.0038917301 	5.7590362e-06 	0.00079641221
0.086956522 	0.0014479413 	0.0030518739 	-6.0298005e-06 	0.0028842531 	-3.7564424e-06 	0.0015071446
0.097826087 	0.0012534005 	0.0010384872 	2.1299857e-06 	0.0019421912 	1.096331e-06 	0.00094956049
0.10869565 	0.00097461565 	-7.508214e-05 	8.0018585e-06 	0.0011832629 	4.0138024e-06 	3.7196677e-05
0.11956522 	0.00071983854 	-0.00064902721 	2.9646475e-07 	0.00064458109 	2.8348027e-07 	0.00049960206
0.13043478 	0.00054268226 	-0.0004930686 	5.8747784e-07 	0.00045835756 	5.6174765e-07 	0.00025026285
0.14130435 	0.00048200667 	-0.00040676557 	-1.9470642e-07 	0.00038226339 	9.1077651e-07 	9.1950111e-05
0.15217391 	0.00049588499 	-0.00035558816 	-9.5477289e-10 	0.00038338071 	4.4661328e-09 	0.0003865388
0.16304348 	0.00048948052 	-0.00029774461 	-8.0229135e-07 	0.00037190954 	1.5404194e-06 	1.9742068e-05
0.17391304 	0.00050856153 	-0.00026099682 	-6.0218562e-08 	0.00037456915 	9.7042432e-08 	0.00038659322
0.18478261 	0.00048212006 	-0.00023662331 	-1.1054975e-06 	0.00036017512 	1.7815133e-06 	4.8766124e-05
0.19565217 	0.00048164605 	-0.00022136662 	-7.8268404e-08 	0.00035580758 	1.1211411e-07 	0.00035795893
0.20652174 	0.00044939449 	-0.00022393527 	-1.4036278e-06 	0.00034206964 	2.0106004e-06 	2.404208e-05
0.2173913 	0.00044401544 	-0.00022739062 	1.1105035e-08 	0.00033530227 	-5.0444544e-08 	0.00032688019
0.22826087 	0.00041527133 	-0.00023745192 	-1.5078028e-06 	0.00032481949 	1.932373e-06 	4.4386928e-05
0.23913043 	0.0004069915 	-0.00024741155 	-2.8624188e-07 	0.000317234 	3.6684245e-07 	0.00023673771
0.25 	0.00039016906 	-0.00025703696 	-9.464744e-07 	0.00031139873 	1.1103723e-06 	0.00014178518
0.26086957 	0.00037827608 	-0.00026765153 	-9.9642789e-07 	0.00030694378 	1.168976e-06 	0.00012032065
0.27173913 	0.00037518153 	-0.00027670482 	4.6036855e-10 	0.00030374809 	-1.9213527e-08 	0.00024799543
0.2826087 	0.00036233034 	-0.00028595633 	-1.8614187e-06 	0.00030707285 	2.0922313e-06 	1.07193e-05
0.29347826 	0.00036789297 	-0.0002956321 	-1.6727283e-07 	0.00030812176 	1.8801436e-07 	0.00021426265
0.30434783 	0.0003707109 	-0.00030338825 	-4.1483362e-07 	0.00031543207 	4.7725096e-07 	0.00017707062
0.31521739 	0.00037270086 	-0.00031002214 	-1.3891013e-06 	0.00032690054 	1.5981104e-06 	5.2574637e-05
0.32608696 	0.00038757857 	-0.0003183128 	2.3618029e-08 	0.00033702806 	5.5642054e-08 	0.00023394952
0.33695652 	0.00040058541 	-0.00032078442 	-4.3950011e-07 	0.00035413539 	5.68418e-07 	0.00015903295
0.34782609 	0.00041419535 	-0.00031893695 	-1.0006434e-06 	0.00037364707 	1.2941606e-06 	7.4335714e-05
0.35869565 	0.00043769941 	-0.00031917071 	1.7332728e-07 	0.0003930814 	1.7057053e-07 	0.0002499691
0.36956522 	0.00046109707 	-0.00030843635 	-1.5478679e-07 	0.00041798967 	2.6128343e-07 	0.00020239322
0.38043478 	0.0004819477 	-0.00028309685 	-7.3144502e-07 	0.00044395419 	1.2346949e-06 	4.6953555e-05
0.39130435 	0.00051173229 	-0.00026478382 	2.0527998e-07 	0.00046975987 	1.0921543e-07 	0.00027854701
0.40217391 	0.00054372542 	-0.00023145681 	2.8441102e-07 	0.00050233541 	1.5131564e-07 	0.00027326209
0.41304348 	0.00057279941 	-0.00017528579 	-2.734383e-07 	0.00053467555 	8.4968948e-07 	5.0994024e-05
0.42391304 	0.00060690729 	-0.0001256385 	-7.943092e-08 	0.00056632098 	2.4682577e-07 	0.00024218333
0.43478261 	0.00064428209 	-6.6588632e-05 	2.0351143e-06 	0.00060391906 	8.0365457e-07 	0.00031316116
0.44565217 	0.00068173408 	1.8836543e-06 	7.7916409e-09 	0.00064335755 	1.2708866e-07 	0.00024116699
0.45652174 	0.00071810324 	8.5701527e-05 	2.8354326e-08 	0.00068158807 	4.6248454e-07 	7.281917e-05
0.4673913 	0.0007575475 	0.00015715046 	4.0537207e-07 	0.00071845967 	1.3254656e-07 	0.0003635947
0.47826087 	0.00079324163 	0.00022736081 	1.6907013e-06 	0.00075652597 	5.528172e-07 	0.00035847272
0.48913043 	0.00082581136 	0.00029822131 	6.3590536e-08 	0.00079172043 	5.1267409e-08 	0.00022588104
0.5 	0.00085548509 	0.00036853104 	1.1407294e-07 	0.00082184545 	9.1966898e-08 	0.00013913488
0.51086957 	0.00088629838 	0.00042361835 	3.3575703e-07 	0.0008495831 	9.0308759e-08 	0.00040017606
0.52173913 	0.00091063208 	0.0004537417 	4.9338078e-07 	0.00087340665 	1.3270491e-07 	0.00039552009
0.5326087 	0.00093009877 	0.00046624993 	6.5502394e-08 	0.00089168084 	-6.0089772e-08 	0.00020665806
0.54347826 	0.0009474331 	0.00045943883 	6.392709e-08 	0.00090313685 	-5.8644639e-08 	0.00022995229
0.55434783 	0.00096558316 	0.00045451371 	-3.4349724e-07 	0.00091075308 	-3.309335e-07 	0.00042587222
0.56521739 	0.00098164785 	0.00045019948 	-1.3093988e-07 	0.00091584642 	-1.2615063e-07 	0.00042186535
0.57608696 	0.00099384504 	0.00044590149 	6.7913405e-08 	0.0009143314 	-1.956611e-07 	5.7808298e-05
0.58695652 	0.0010095975 	0.00044299402 	-3.0485901e-08 	0.00090772232 	-6.8289037e-08 	0.00042619406
0.59782609 	0.0010201897 	0.00043895686 	-3.4649181e-07 	0.00089733978 	-7.7614868e-07 	0.00042301986
0.60869565 	0.0010284203 	0.00043422181 	1.8920647e-08 	0.00088557598 	-9.6915414e-08 	0.00025643855
0.61956522 	0.0010339753 	0.00042846325 	1.5293298e-08 	0.00086851894 	-7.8335392e-08 	0.00028134169
0.63043478 	0.0010340046 	0.00042275562 	-4.4888337e-07 	0.00085001371 	-1.1342011e-06 	0.00040932822
0.64130435 	0.0010306104 	0.00041674978 	1.9079181e-09 	0.0008317922 	-3.4836262e-08 	0.00035087988
0.65217391 	0.0010199191 	0.00040940338 	6.3971541e-09 	0.000813105 	-1.1680424e-07 	0.00020860368
0.66304348 	0.0010037823 	0.00040259796 	-4.0261343e-07 	0.00079386559 	-9.6715764e-07 	0.00038761286
0.67391304 	0.00098344331 	0.0003958454 	-5.0834482e-09 	0.00077526476 	-4.5942409e-08 	0.00032472933
0.68478261 	0.00095753516 	0.00038820271 	-1.0207076e-08 	0.00075703434 	-9.2247948e-08 	0.00024582482
0.69565217 	0.00092615614 	0.00038060807 	-3.9619215e-07 	0.00073830672 	-8.9136633e-07 	0.00035991212
0.70652174 	0.00089236348 	0.00037260784 	-3.3885046e-08 	0.0007186649 	-1.7162936e-07 	0.00017840113
0.7173913 	0.00085545485 	0.00036387592 	-6.7411686e-08 	0.00069854475 	-1.4910152e-07 	0.00032808129
0.72826087 	0.0008147515 	0.00035447846 	-1.8329481e-07 	0.00067621237 	-4.0541242e-07 	0.00032721856
0.73913043 	0.00077347093 	0.00034420117 	-6.0949376e-08 	0.0006510945 	-2.8466457e-07 	7.0997047e-05
0.75 	0.00072821986 	0.00033350569 	-4.1911595e-07 	0.0006254967 	-9.5986074e-07 	0.00029138292
0.76086957 	0.00068334111 	0.00032188279 	-3.9593401e-08 	0.0005961452 	-1.983109e-07 	0.00014043799
0.77173913 	0.00063479056 	0.00031001799 	-1.7591604e-07 	0.0005659534 	-4.266471e-07 	0.00025270422
0.7826087 	0.00058614772 	0.00029733365 	-1.3883484e-09 	0.00053258503 	-8.079442e-09 	0.00024672231
0.79347826 	0.00053595995 	0.00028443829 	-2.8619839e-08 	0.0004972075 	-7.3625338e-08 	0.00021276642
0.80434783 	0.00048523865 	0.00027095469 	-7.8982464e-08 	0.00045935728 	-2.031846e-07 	0.00021248827
0.81521739 	0.00043383238 	0.00025756197 	-1.3820221e-09 	0.00042046806 	-1.0121239e-08 	0.00016790677
0.82608696 	0.00038245697 	0.00024381527 	-6.1000971e-08 	0.00037971054 	-1.6492374e-07 	0.00017303994
0.83695652 	0.0003311801 	0.00023033513 	-5.1489194e-08 	0.00033877362 	-1.4536248e-07 	0.00013565179
0.84782609 	0.00028148043 	0.0002168869 	-2.2616751e-09 	0.00029664708 	-3.9638303e-08 	0.0001116483
0.85869565 	0.00023200734 	0.00020425372 	-1.816862e-07 	0.00025579873 	-5.5582928e-07 	0.00010117586
0.86956522 	0.00018720659 	0.00019135587 	-6.0855538e-08 	0.00021452603 	-1.5527937e-07 	8.4470712e-06
0.88043478 	0.00014144102 	0.00017488031 	-2.7477345e-07 	0.00017511673 	-4.808107e-07 	7.0786802e-05
0.89130435 	0.00010287731 	0.00013932506 	-9.8935338e-08 	0.00013497658 	-9.8140849e-08 	4.5376898e-05
0.90217391 	7.1457267e-05 	9.8155037e-05 	-1.0821638e-07 	9.5637048e-05 	-4.8369558e-08 	1.2628867e-05
0.91304348 	4.4506482e-05 	5.7717951e-05 	-2.8356197e-07 	6.0204513e-05 	-2.4631274e-07 	2.482986e-05
0.92391304 	2.4314919e-05 	2.7270673e-05 	-2.448575e-07 	3.2290561e-05 	-2.350104e-07 	1.0409121e-05
0.93478261 	1.0545816e-05 	9.1433103e-06 	-2.5107058e-08 	1.3371928e-05 	-3.0534529e-08 	3.6316176e-06
0.94565217 	2.86283e-06 	1.7611603e-06 	-2.9813463e-08 	3.4116644e-06 	-4.8827247e-08 	1.152402e-06
0.95652174 	4.6682467e-07 	2.1268184e-07 	-2.2831532e-10 	5.27023e-07 	-5.7340823e-10 	7.3409883e-08
0.9673913 	4.2331938e-08 	1.6336794e-08 	-9.6102797e-11 	4.6238192e-08 	-2.5766803e-10 	2.0794716e-08
0.97826087 	2.3069573e-09 	8.0567054e-10 	-1.2066719e-13 	2.4386236e-09 	-2.7075221e-12 	3.4989689e-10
0.98913043 	5.6360367e-11 	1.5987355e-11 	-3.0006509e-14 	5.7643242e-11 	-5.8845589e-14 	3.4482236e-12
