8.2204959e-36 	0.0068443779 	-4.6466428e-16 	-1.6895533e-22 	1.5536696e-18 	2.7810984e-31 	1.5675518e-18
0.010869565 	0.0062359005 	0.0031808239 	-9.0335611e-06 	0.0066453193 	-2.9965671e-05 	0.0019058042
0.02173913 	0.0057921588 	0.0015173695 	-1.9549037e-05 	0.0056731842 	-1.9744244e-05 	0.0020174262
0.032608696 	0.0056928519 	-0.0026354009 	-5.4428394e-06 	0.0044135213 	-4.0799412e-06 	0.0020581247
0.043478261 	0.0055383282 	-0.0066933303 	-1.2967867e-05 	0.0033140092 	-1.2938964e-05 	0.0018563576
0.054347826 	0.0050182066 	-0.0085435808 	3.4272982e-06 	0.0025249386 	-1.5649345e-06 	0.00065304886
0.065217391 	0.0040166175 	-0.0071358296 	-8.2943093e-06 	0.0020872264 	-3.3251672e-06 	0.00039253976
0.076086957 	0.0029843766 	-0.004769568 	-1.2930705e-05 	0.00182501 	-3.1691967e-06 	0.00048605793
0.086956522 	0.0018661471 	-0.0022526268 	3.6124099e-06 	0.001550905 	-7.4944939e-07 	0.0010094642
0.097826087 	0.0010077591 	-0.00092779391 	2.7792706e-07 	0.00097566883 	-1.3337907e-07 	0.00054101486
0.10869565 	0.00048032776 	-0.00036066875 	-3.0473113e-06 	0.0005008945 	8.5186086e-07 	2.2952797e-05
0.11956522 	0.00015190003 	-9.3078397e-05 	-1.3467074e-07 	0.00017114802 	1.7003491e-07 	0.00010723183
0.13043478 	5.0122909e-05 	-3.3301994e-05 	-1.2256811e-07 	5.4725045e-05 	1.5475416e-07 	1.092581e-05
0.14130435 	1.8232932e-05 	-1.4824331e-05 	2.2693633e-08 	2.1096336e-05 	-4.1257555e-08 	2.128377e-06
0.15217391 	1.4258825e-05 	-1.2572635e-05 	6.9645669e-10 	1.6475516e-05 	-3.6043883e-09 	1.3689279e-05
0.16304348 	2.4953005e-05 	-2.2493045e-05 	2.1673321e-07 	2.9955756e-05 	-3.2899115e-07 	4.2390224e-06
0.17391304 	3.3792202e-05 	-2.9666308e-05 	4.7164274e-08 	3.8769986e-05 	-7.2893076e-08 	2.9286586e-05
0.18478261 	4.2136081e-05 	-3.6569321e-05 	2.4341821e-07 	4.8922645e-05 	-3.7620641e-07 	1.0108275e-05
0.19565217 	5.0007104e-05 	-4.2013759e-05 	3.2067066e-08 	5.6013814e-05 	-4.9445114e-08 	4.2703861e-05
0.20652174 	5.8103962e-05 	-4.833754e-05 	2.8823991e-07 	6.5745403e-05 	-4.4444525e-07 	9.3243608e-06
0.2173913 	6.6328246e-05 	-5.3192045e-05 	-1.8542808e-08 	7.2188184e-05 	2.7518155e-08 	5.7849764e-05
0.22826087 	7.6184982e-05 	-6.1025241e-05 	3.8254238e-07 	8.4224406e-05 	-5.7932807e-07 	3.2973305e-06
0.23913043 	8.6372157e-05 	-6.623898e-05 	5.5979339e-09 	9.106601e-05 	-8.4775974e-09 	6.9868153e-05
0.25 	9.8907773e-05 	-7.5569058e-05 	2.6701217e-07 	0.00010497104 	-3.9838325e-07 	3.1903983e-05
0.26086957 	0.00011251015 	-8.3480148e-05 	1.897755e-07 	0.0001161046 	-2.8314583e-07 	5.3304573e-05
0.27173913 	0.00012809166 	-9.2926093e-05 	-1.5556445e-08 	0.00012948864 	2.320375e-08 	8.4816598e-05
0.2826087 	0.000145119 	-0.00010458082 	5.6517513e-07 	0.0001475213 	-8.4219773e-07 	5.2268295e-06
0.29347826 	0.00016557728 	-0.00011368395 	-4.0075161e-08 	0.00015926698 	6.3495783e-08 	0.00010655418
0.30434783 	0.00018763681 	-0.00012700133 	1.5243297e-07 	0.00018002395 	-2.3185649e-07 	8.0975643e-05
0.31521739 	0.0002126179 	-0.00013986289 	4.5298889e-07 	0.0001999163 	-6.8901374e-07 	4.6351816e-05
0.32608696 	0.00024196592 	-0.00015263795 	-1.6972985e-07 	0.00021790941 	2.9186802e-07 	0.00013106242
0.33695652 	0.00027166919 	-0.00016789596 	2.2521873e-07 	0.00024356196 	-3.5826827e-07 	9.1342798e-05
0.34782609 	0.00030786158 	-0.00018280439 	4.3952142e-07 	0.00026687971 	-6.9917177e-07 	7.3123804e-05
0.35869565 	0.00034873048 	-0.00019955539 	-2.7380641e-07 	0.0002896876 	4.3587913e-07 	0.00016279305
0.36956522 	0.00038760096 	-0.0002184958 	8.9275965e-08 	0.0003197349 	-1.4859315e-07 	0.00014256713
0.38043478 	0.00043649771 	-0.00023758643 	6.3508131e-07 	0.0003486452 	-1.0570452e-06 	6.0687751e-05
0.39130435 	0.00049460016 	-0.00026374518 	-4.3592141e-07 	0.00037166126 	3.7086559e-07 	0.00020219126
0.40217391 	0.00054429792 	-0.00029701607 	-2.9967982e-07 	0.00040533293 	2.5495635e-07 	0.00019642942
0.41304348 	0.00060107573 	-0.00033101889 	1.0190366e-06 	0.00044027814 	-1.6361668e-06 	2.7003702e-05
0.42391304 	0.00068715136 	-0.00037523871 	-7.3946508e-08 	0.00045465088 	4.6368417e-08 	0.00024649166
0.43478261 	0.00074387997 	-0.00042158288 	-1.3204246e-06 	0.00049177962 	8.2797687e-07 	0.00024018792
0.44565217 	0.00080045773 	-0.00046732952 	1.1709255e-07 	0.00052943571 	-1.9261088e-07 	0.00021505289
0.45652174 	0.00086512403 	-0.00051191703 	9.2935837e-07 	0.00056604655 	-1.528744e-06 	0.00010142366
0.4673913 	0.00093417535 	-0.0005510008 	4.1524551e-08 	0.00059302896 	5.0943363e-07 	0.00028865787
0.47826087 	0.0009780381 	-0.00056132905 	6.5370401e-08 	0.00063441835 	8.0198051e-07 	0.00028212376
0.48913043 	0.0010146115 	-0.00056259469 	2.8759808e-07 	0.00068049994 	-5.1026358e-07 	0.00021137529
0.5 	0.0010307759 	-0.00053731294 	5.4027943e-07 	0.00073818369 	-9.5857704e-07 	0.00018644184
0.51086957 	0.0010602578 	-0.0005250425 	8.4199034e-07 	0.00077470066 	4.3698124e-07 	0.00033125153
0.52173913 	0.0010876138 	-0.00050914642 	8.4799721e-07 	0.00080723716 	4.4009872e-07 	0.0003248592
0.5326087 	0.0011108231 	-0.00049245976 	3.226746e-07 	0.0008397054 	-5.9521873e-07 	0.00020437613
0.54347826 	0.0011352776 	-0.00048751882 	1.4203751e-07 	0.00086322745 	-2.6200819e-07 	0.00029117846
0.55434783 	0.0011557323 	-0.00048202066 	6.82342e-07 	0.00087509934 	-2.8566693e-07 	0.00034140949
0.56521739 	0.0011744476 	-0.00047511849 	3.0744805e-07 	0.00088643576 	-1.2871513e-07 	0.00033593146
0.57608696 	0.001186019 	-0.00046025535 	7.7730997e-07 	0.00089667862 	-1.3181215e-06 	3.3871819e-05
0.58695652 	0.0012134648 	-0.00045506607 	3.7857202e-07 	0.00088546213 	-3.8468413e-07 	0.00033263576
0.59782609 	0.0012219911 	-0.00044032268 	8.5805692e-07 	0.00087922948 	-8.719104e-07 	0.00032833837
0.60869565 	0.0012285343 	-0.00042201072 	2.4359556e-07 	0.00087354213 	-3.2965625e-07 	0.00025511903
0.61956522 	0.0012682077 	-0.00037930098 	2.8265103e-07 	0.00083585056 	-5.1243538e-08 	0.0003051896
0.63043478 	0.0012584263 	-0.00025349623 	5.9410844e-06 	0.0008284851 	-1.0770956e-06 	0.0003020751
0.64130435 	0.0012486449 	-0.00012769148 	4.6257875e-07 	0.00082111964 	-8.3863738e-08 	0.00029896059
0.65217391 	0.001241985 	3.4697388e-05 	2.1141778e-08 	0.00080923487 	-1.8372704e-07 	0.00024249575
0.66304348 	0.0012047876 	0.00017340083 	5.7612452e-06 	0.00081167809 	-3.4410768e-07 	0.00027032265
0.67391304 	0.0011606263 	0.00031139621 	3.9837931e-07 	0.00081885121 	-2.3794401e-08 	0.00026818713
0.68478261 	0.0010338623 	0.00038916811 	1.9082827e-08 	0.00088165191 	-2.8756021e-08 	0.00026731624
0.69565217 	0.00097621839 	0.00040405116 	3.1897157e-07 	0.00088268256 	-4.8066008e-07 	0.00026570369
0.70652174 	0.00091519356 	0.00041458828 	-5.3156071e-08 	0.00088485454 	-2.6362195e-07 	0.00017133986
0.7173913 	0.00085113858 	0.00040850802 	-2.550256e-07 	0.00088142101 	-5.3600607e-07 	0.00024899193
0.72826087 	0.00080644618 	0.00039758042 	-3.2447929e-07 	0.00085902573 	-6.8198198e-07 	0.00024781526
0.73913043 	0.00075875328 	0.0003840965 	-6.325521e-09 	0.00083578594 	-2.0102115e-07 	0.00010427921
0.75 	0.00071490519 	0.00037054021 	-7.0295669e-07 	0.00080376362 	-1.7135313e-06 	0.00022379333
0.76086957 	0.00067502936 	0.00035596195 	5.3547973e-09 	0.00076654965 	-5.3984504e-08 	0.00014235393
0.77173913 	0.00062976261 	0.00034045717 	-3.8749051e-07 	0.00072791166 	-1.064888e-06 	0.00019706028
0.7826087 	0.00058952744 	0.00032521221 	-1.1167918e-07 	0.00068306371 	-3.0691286e-07 	0.00019648695
0.79347826 	0.00054454458 	0.00030916708 	-1.9919036e-07 	0.00063783393 	-5.8490137e-07 	0.00016937446
0.80434783 	0.0005024564 	0.00029347803 	-2.042902e-07 	0.00058798098 	-5.9987651e-07 	0.00016897754
0.81521739 	0.00045585472 	0.00027724573 	-1.4042091e-07 	0.00053922238 	-4.1774249e-07 	0.00014174104
0.82608696 	0.00041088902 	0.00026128544 	-1.7587534e-07 	0.00048780948 	-5.2321697e-07 	0.000141464
0.83695652 	0.00036147032 	0.00024487635 	-1.9828478e-07 	0.00043794631 	-5.9234704e-07 	0.00011445518
0.84782609 	0.00031363341 	0.00022883118 	-3.8914572e-08 	0.00038604098 	-1.1625164e-07 	0.00011425567
0.85869565 	0.00026279789 	0.00021277368 	-3.4319394e-07 	0.00033327445 	-1.1855916e-06 	8.7532242e-05
0.86956522 	0.00022164698 	0.00019853748 	-2.2661432e-08 	0.00027057784 	2.7750325e-07 	4.8915227e-06
0.88043478 	0.00017097588 	0.00018672864 	-2.0380033e-07 	0.00021419937 	-1.0714867e-06 	6.1189579e-05
0.89130435 	0.00012958728 	0.00017787252 	-1.9350037e-07 	0.00015201994 	-4.2809083e-07 	3.9223811e-05
0.90217391 	9.0876477e-05 	0.00015429239 	5.3390115e-08 	9.7199677e-05 	2.2767953e-07 	1.4176324e-05
0.91304348 	5.3658178e-05 	0.0001093147 	-5.8896634e-07 	5.9346303e-05 	-3.4830248e-07 	2.2256025e-05
0.92391304 	2.9697507e-05 	5.0458138e-05 	-6.96387e-07 	3.0355977e-05 	-3.0584152e-07 	8.5771266e-06
0.93478261 	1.2071162e-05 	1.4459422e-05 	-1.0677495e-07 	1.2339622e-05 	-6.7865553e-08 	2.6910406e-06
0.94565217 	3.1807235e-06 	2.2800504e-06 	-4.6086874e-08 	3.4297864e-06 	-4.7361979e-08 	9.4948959e-07
0.95652174 	1.0433635e-06 	4.3380184e-07 	9.7950712e-10 	1.1470654e-06 	3.031478e-09 	1.3564934e-07
0.9673913 	5.6859532e-07 	1.5875929e-07 	-5.5299157e-10 	5.9315269e-07 	-1.3659854e-09 	1.9827326e-07
0.97826087 	1.2544111e-07 	2.2019187e-08 	-2.3081632e-11 	1.2613554e-07 	-1.5819663e-10 	1.4178387e-08
0.98913043 	4.9386586e-09 	-1.6550483e-09 	3.648653e-12 	4.8072742e-09 	-8.4611688e-12 	2.5551926e-10
