0.4742268 	0.21038233 	4.1547191e-05 	-6.4466028e-09
0.48453608 	0.81864625 	0.00066284325 	-2.8999805e-08
0.49484536 	1.2471584 	0.001640642 	3.6782476e-06
0.50515464 	1.4438486 	0.0022798293 	-1.9859545e-08
0.51546392 	1.4907781 	0.0023678216 	-2.6526436e-07
0.5257732 	1.4970908 	0.0022596457 	-1.7336726e-06
0.53608247 	1.4950766 	0.0021174575 	-7.0268598e-07
0.54639175 	1.4917199 	0.0019762255 	-1.0825609e-07
0.55670103 	1.4879956 	0.0018368723 	-4.5877974e-08
0.56701031 	1.4840597 	0.0017008899 	-4.9863101e-07
0.57731959 	1.4799913 	0.0015674631 	-1.4437101e-06
0.58762887 	1.4758346 	0.0014369023 	-2.1968426e-06
0.59793814 	1.4716177 	0.001308883 	-4.520391e-07
0.60824742 	1.4673119 	0.0011815608 	-1.079318e-07
0.6185567 	1.463068 	0.0010600825 	-7.9552903e-07
0.62886598 	1.458766 	0.00093977915 	-1.7287237e-06
0.63917526 	1.4544117 	0.00081975439 	-4.8426976e-08
0.64948454 	1.4501202 	0.00070472938 	-1.2831671e-06
0.65979381 	1.4457723 	0.00059094559 	-5.5108851e-07
0.67010309 	1.4413783 	0.00047799062 	-1.4500597e-09
0.68041237 	1.4369566 	0.00036801263 	-1.7087907e-06
0.69072165 	1.4324367 	0.00025832875 	9.8943017e-09
0.70103093 	1.4279149 	0.00015303369 	-2.1359863e-06
0.71134021 	1.4232446 	4.6259351e-05 	2.8029884e-08
0.72164948 	1.4185915 	-5.5669071e-05 	-1.8618341e-06
0.73195876 	1.4138436 	-0.00015669208 	2.2536927e-08
0.74226804 	1.4089005 	-0.00025562891 	-1.1571724e-06
0.75257732 	1.4038605 	-0.00035269544 	-5.8642754e-08
0.7628866 	1.3984889 	-0.00044810846 	-6.448091e-07
0.77319588 	1.3930005 	-0.00054058967 	-1.4731038e-07
0.78350515 	1.3873587 	-0.00062710173 	-6.5373241e-07
0.79381443 	1.3817533 	-0.00070964269 	2.9567831e-08
0.80412371 	1.376161 	-0.00078673773 	-1.0411308e-06
0.81443299 	1.3706783 	-0.00086126048 	1.5296888e-07
0.82474227 	1.3651099 	-0.00093672375 	-9.4717249e-07
0.83505155 	1.3595476 	-0.0010128297 	-1.0245756e-07
0.84536082 	1.3538747 	-0.0010901274 	7.514461e-08
0.8556701 	1.3479942 	-0.0011695503 	-9.1164515e-07
0.86597938 	1.3419295 	-0.0012505106 	-4.1835715e-07
0.87628866 	1.3355872 	-0.0013334278 	1.4397916e-07
0.88659794 	1.3287838 	-0.0014192808 	7.9730925e-08
0.89690722 	1.3214386 	-0.0015075101 	-2.5865868e-07
0.90721649 	1.3134015 	-0.0015990005 	-5.6292789e-07
0.91752577 	1.3043408 	-0.0016905445 	-6.0341296e-07
0.92783505 	1.2932508 	-0.0017768553 	-4.0610246e-07
0.93814433 	1.2774769 	-0.0018497109 	-6.7432608e-08
0.94845361 	1.2494671 	-0.0018771115 	2.9287219e-07
0.95876289 	1.1872045 	-0.0017884735 	7.4148341e-07
0.96907216 	1.0494599 	-0.0014245449 	2.8708965e-07
0.97938144 	0.78929096 	-0.00079031018 	7.1583711e-07
0.98969072 	0.40907622 	-0.00020393258 	4.4101999e-07
