2.7909061e-19 	0.0049331538 	-3.3391317e-16 	1.2112437e-20 	3.7083715e-18 	5.3141666e-20 	2.7793053e-18
0.010869565 	0.0036515844 	0.0046819357 	-3.1176776e-05 	0.01088358 	-5.523359e-05 	0.0015264597
0.02173913 	0.002964897 	0.0010525097 	-1.6990685e-05 	0.0090147096 	-3.3007742e-05 	0.0019785887
0.032608696 	0.0021846456 	0.00088467337 	1.181225e-06 	0.0067779416 	-5.761213e-06 	0.0020068361
0.043478261 	0.0012008249 	0.0016177843 	-5.0080202e-06 	0.0037472077 	-3.0562784e-05 	0.001198975
0.054347826 	0.0004026662 	0.00029237511 	1.305129e-06 	0.0010410505 	4.2319476e-06 	4.3424623e-05
0.065217391 	0.00015346841 	-4.1989378e-05 	1.0084192e-07 	0.00041402831 	1.7146064e-07 	0.00010134022
0.076086957 	0.00010628437 	-9.7588542e-05 	-6.5721523e-08 	0.00037730617 	-6.5405933e-08 	3.8554444e-05
0.086956522 	7.7603257e-05 	-0.00011999111 	-9.4903554e-09 	0.00037069885 	1.0733023e-08 	0.00021608798
0.097826087 	6.8663162e-05 	-0.00010576129 	1.1775199e-07 	0.000333296 	-3.5661287e-07 	0.00021379675
0.10869565 	6.5396e-05 	-9.1205104e-05 	-2.7822415e-07 	0.00029176756 	4.5716998e-07 	6.1670699e-05
0.11956522 	6.0169146e-05 	-8.1366972e-05 	-1.8148213e-07 	0.00025941561 	3.4720777e-07 	0.00012208271
0.13043478 	5.5756217e-05 	-7.1787893e-05 	-4.490938e-08 	0.0002293687 	8.5919676e-08 	0.00016667401
0.14130435 	5.872841e-05 	-6.3436274e-05 	-4.5505273e-07 	0.00020629016 	9.2776513e-07 	6.9746131e-07
0.15217391 	5.4667186e-05 	-5.8701874e-05 	-2.8985316e-08 	0.00019174991 	5.8337257e-08 	0.00016727184
0.16304348 	6.0961208e-05 	-5.6334632e-05 	-3.2267458e-07 	0.00018742846 	6.4943055e-07 	4.34613e-05
0.17391304 	6.297538e-05 	-5.6170112e-05 	-6.9362752e-08 	0.00018794227 	1.1908546e-07 	0.00013341627
0.18478261 	7.1954125e-05 	-5.8981877e-05 	-1.8573116e-07 	0.0001987464 	3.1887261e-07 	6.3851181e-05
0.19565217 	7.8785537e-05 	-6.3807474e-05 	-2.1917349e-08 	0.00021323077 	1.218846e-08 	0.00014888148
0.20652174 	9.2783605e-05 	-7.1876822e-05 	-9.2628919e-08 	0.00023867817 	5.1511882e-08 	6.3313591e-05
0.2173913 	0.00010375747 	-8.1525955e-05 	-3.2814364e-08 	0.00026372459 	7.8524119e-08 	0.00019999681
0.22826087 	0.00012332029 	-9.544515e-05 	3.371767e-08 	0.00030331485 	-3.0536965e-07 	2.1122205e-05
0.23913043 	0.00013859472 	-0.00010929024 	-1.4775187e-07 	0.00033453725 	2.8693655e-07 	0.00023811352
0.25 	0.00015995396 	-0.00012944269 	1.5079826e-07 	0.00038143067 	-4.2906064e-07 	8.5825407e-05
0.26086957 	0.00018083834 	-0.00014737201 	2.9965181e-08 	0.00041928124 	-8.525881e-08 	0.00024660239
0.27173913 	0.00020281101 	-0.00017322768 	-6.664873e-08 	0.00046601672 	9.6674123e-08 	0.00026888205
0.2826087 	0.00022865656 	-0.00020007833 	3.7073579e-07 	0.00051542414 	-7.1074914e-07 	7.1931873e-05
0.29347826 	0.00025459099 	-0.00022614537 	-4.5573163e-07 	0.00055520548 	4.5783436e-07 	0.00031297616
0.30434783 	0.00028180092 	-0.00026006603 	1.3680405e-07 	0.00060251162 	-1.8899104e-07 	0.00024232403
0.31521739 	0.00031298707 	-0.0002900648 	2.7041291e-07 	0.00064554324 	-3.7356802e-07 	0.00021885297
0.32608696 	0.00034656715 	-0.00032422643 	-8.6314404e-07 	0.00068369345 	5.1218732e-07 	0.00033481642
0.33695652 	0.00038095495 	-0.00036285133 	2.0771204e-07 	0.00072423261 	-2.0833163e-07 	0.0002470531
0.34782609 	0.00041965624 	-0.00039509432 	1.8378038e-07 	0.0007602336 	-1.8432858e-07 	0.00029200701
0.35869565 	0.00046180961 	-0.00043554355 	-1.1166773e-06 	0.00078930605 	1.4520847e-07 	0.00034783204
0.36956522 	0.00050419356 	-0.00047851226 	-6.9640895e-08 	0.00081846688 	9.0558373e-09 	0.00032830347
0.38043478 	0.00054952393 	-0.00052052644 	3.6125828e-07 	0.00084681456 	-2.476979e-07 	0.00024101063
0.39130435 	0.00059872128 	-0.00057208874 	-1.435658e-06 	0.00085949382 	-5.3183686e-07 	0.00035597506
0.40217391 	0.00064824161 	-0.00062974999 	-7.7308563e-07 	0.00086980693 	-2.8638815e-07 	0.00033593542
0.41304348 	0.00069850572 	-0.00069572246 	1.0802946e-06 	0.00087887307 	-3.8356969e-07 	6.711337e-06
0.42391304 	0.00075657553 	-0.0007645363 	-1.5651052e-06 	0.00086405878 	-1.2718634e-06 	0.00036411729
0.43478261 	0.0008191076 	-0.0008569414 	-3.2387444e-06 	0.00082923808 	-2.6319256e-06 	0.00034393897
0.44565217 	0.00088163967 	-0.0009493465 	-4.8955458e-07 	0.00079441738 	-3.9783048e-07 	0.00032376066
0.45652174 	0.00094967334 	-0.001050113 	1.5036199e-07 	0.00074658629 	3.8406481e-09 	0.00032935874
0.4673913 	0.0010257927 	-0.0010576135 	9.1472147e-07 	0.00070727686 	-2.4265141e-06 	0.0003558135
0.47826087 	0.0011023533 	-0.0010606554 	9.4015757e-07 	0.00066836788 	-2.4939893e-06 	0.00033591165
0.48913043 	0.0011789138 	-0.0010636972 	9.5771986e-08 	0.00062945889 	-2.5405774e-07 	0.0003160098
0.5 	0.0012518401 	-0.0010029323 	9.2939075e-07 	0.00060950256 	-5.5645508e-08 	0.00029515026
0.51086957 	0.00129803 	-0.00089649383 	6.6979571e-06 	0.00061554382 	-4.0102748e-07 	0.00027989195
0.52173913 	0.0013442199 	-0.00079005535 	5.438203e-06 	0.00062158508 	-3.2560209e-07 	0.00026463364
0.5326087 	0.0013904098 	-0.00068361688 	3.1383214e-07 	0.00062762634 	-1.8790104e-08 	0.00024937533
0.54347826 	0.0014001435 	-0.00058698799 	1.4993547e-06 	0.00064597606 	-1.3881297e-07 	0.00020856226
0.55434783 	0.0014049535 	-0.00051002834 	5.5029838e-06 	0.00065006325 	-5.0947619e-07 	0.00019823104
0.56521739 	0.0014097634 	-0.00043306869 	2.7205223e-06 	0.00065415044 	-2.5187087e-07 	0.00018789983
0.57608696 	0.001413137 	-0.00036697757 	-7.7048469e-08 	0.00065230435 	5.5990391e-08 	2.1807136e-05
0.58695652 	0.0014037823 	-0.00033715021 	1.3132701e-06 	0.00063197565 	-1.2012779e-06 	0.00015849219
0.59782609 	0.0013936967 	-0.00030748248 	1.7450966e-06 	0.00061078156 	-1.5962793e-06 	0.00015107825
0.60869565 	0.0013836112 	-0.00027781475 	2.6137173e-07 	0.00058958746 	-2.3908263e-07 	0.00014366431
0.61956522 	0.001362096 	-0.00025766274 	4.6243999e-07 	0.00056870384 	-6.4985114e-07 	0.00012647966
0.63043478 	0.0013350617 	-0.00024030806 	1.2309411e-06 	0.00054807523 	-1.7297995e-06 	0.00012128943
0.64130435 	0.0013080275 	-0.00022295338 	3.2958258e-07 	0.00052744663 	-4.6315115e-07 	0.0001160992
0.65217391 	0.0012743595 	-0.00021030214 	1.821781e-07 	0.00050716012 	-4.4202052e-07 	0.00010067352
0.66304348 	0.0012338318 	-0.00020199945 	6.5028185e-07 	0.0004872441 	-1.5777852e-06 	9.7134158e-05
0.67391304 	0.0011933041 	-0.00019369675 	1.6371053e-07 	0.00046732807 	-3.9721245e-07 	9.3594794e-05
0.68478261 	0.0011481215 	-0.00018816202 	9.3010066e-08 	0.00044628227 	-5.3585237e-07 	7.9923905e-05
0.69565217 	0.0010983069 	-0.00018613857 	2.2861008e-07 	0.00042497426 	-1.3170752e-06 	7.7571955e-05
0.70652174 	0.0010484923 	-0.00018411512 	2.1805875e-08 	0.00040366625 	-1.2562866e-07 	7.5220005e-05
0.7173913 	0.00099341144 	-0.00018427738 	2.9754517e-08 	0.00037933763 	-9.2532024e-07 	6.3079861e-05
0.72826087 	0.00093631964 	-0.00018605776 	2.8312441e-08 	0.00035487342 	-8.8047385e-07 	6.1561388e-05
0.73913043 	0.00087760548 	-0.00018670762 	4.100977e-08 	0.00032894302 	-1.9024634e-07 	4.9843929e-05
0.75 	0.00081151658 	-0.00018247045 	3.2151348e-07 	0.00030157934 	-1.4915169e-06 	4.8896186e-05
0.76086957 	0.00074542768 	-0.00017823329 	2.8230015e-08 	0.00027421565 	-1.3096043e-07 	4.7948442e-05
0.77173913 	0.00066666597 	-0.00014550563 	1.3474773e-06 	0.00025127788 	-8.744822e-07 	3.6370758e-05
0.7826087 	0.00058666646 	-0.00010661719 	6.013199e-07 	0.00022825321 	-3.9024297e-07 	3.5827788e-05
0.79347826 	0.00050040192 	-4.1485519e-05 	1.8862211e-06 	0.00020608792 	-5.7109812e-07 	2.460819e-05
0.80434783 	0.00041199596 	4.1518007e-05 	1.5761405e-06 	0.00018358453 	-4.7721387e-07 	2.4317624e-05
0.81521739 	0.00032553477 	0.0001157623 	1.142449e-06 	0.00015697602 	-5.7994017e-07 	1.4590967e-05
0.82608696 	0.00024144555 	0.00017807746 	1.0383122e-06 	0.00012820879 	-5.2707729e-07 	1.443088e-05
0.83695652 	0.00016703843 	0.00020281238 	-2.29851e-07 	9.7171772e-05 	-6.9095076e-07 	6.7708063e-06
0.84782609 	0.00010077893 	0.00019453868 	-1.058367e-07 	6.5728173e-05 	-3.181537e-07 	6.6767485e-06
0.85869565 	5.6033855e-05 	0.00014586596 	-1.7826904e-06 	3.913442e-05 	-7.2826955e-07 	1.8565064e-06
0.86956522 	2.091183e-05 	8.7598821e-05 	-4.5575435e-08 	1.5613071e-05 	-1.5631631e-09 	7.3409495e-08
0.88043478 	8.551869e-06 	3.8327054e-05 	-1.112925e-06 	6.4628793e-06 	-2.0428538e-07 	1.6805566e-07
0.89130435 	1.564985e-06 	9.1460591e-06 	-1.4479338e-07 	1.2483954e-06 	-1.8734245e-08 	1.7187691e-08
0.90217391 	1.4020606e-07 	5.4502583e-07 	-4.5111593e-09 	1.3623408e-07 	-5.8368112e-10 	1.5045118e-08
0.91304348 	5.3335129e-08 	1.5125863e-07 	-4.9751309e-09 	5.0731955e-08 	-1.1083411e-09 	1.292036e-10
0.92391304 	3.8696916e-08 	3.0387575e-08 	-3.2853198e-10 	3.5315491e-08 	4.0830715e-10 	3.9904704e-10
0.93478261 	7.9286735e-08 	3.0355472e-08 	3.7852177e-10 	7.2247533e-08 	9.6298884e-10 	2.3480498e-09
0.94565217 	2.3694657e-07 	8.7005917e-08 	1.1864027e-09 	2.1467271e-07 	3.0432358e-09 	8.6310028e-09
0.95652174 	6.6282119e-07 	2.152196e-07 	2.4149036e-11 	5.8440349e-07 	3.3926359e-11 	2.7660832e-08
0.9673913 	1.308353e-06 	1.4969398e-07 	-1.7628302e-09 	1.019053e-06 	1.0793757e-09 	1.0075674e-07
0.97826087 	1.0019089e-06 	-3.4282603e-07 	-1.6685731e-11 	6.6163051e-07 	-4.0259016e-11 	8.828883e-08
0.98913043 	1.0335626e-07 	-4.3863945e-08 	5.7037363e-11 	8.8448847e-08 	-1.1103425e-10 	5.5764428e-09
