0.47777778 	4.0788146e-14 	-1.7163256e-14 	-1.2549234e-17 	4.0694468e-14 	2.9583387e-17 	3.860948e-15
0.48888889 	3.2875244e-14 	-2.113579e-14 	-5.0944513e-18 	3.2746033e-14 	-1.2823887e-17 	5.4245155e-15
0.5 	2.9943734e-14 	-2.2483929e-14 	6.0393388e-17 	2.9769849e-14 	-9.2054869e-17 	6.4131445e-15
0.51111111 	3.3863216e-14 	-3.0576138e-14 	-2.803834e-16 	3.357243e-14 	2.7869481e-16 	2.4251853e-15
0.52222222 	1.3919145e-13 	-1.1200272e-13 	-9.2312379e-17 	1.3831866e-13 	2.0333592e-16 	2.8317347e-14
0.53333333 	3.0327114e-13 	-1.4760867e-13 	6.7129702e-16 	3.0394015e-13 	2.1169311e-15 	4.977232e-14
0.54444444 	5.6768634e-13 	-2.6837274e-14 	2.2323818e-15 	5.7403174e-13 	4.4950986e-15 	7.8096855e-14
0.55555556 	1.2551395e-12 	2.2634824e-13 	2.9352083e-15 	1.2756745e-12 	8.735333e-15 	1.5015251e-13
0.56666667 	3.0545349e-12 	8.166399e-13 	6.7868683e-15 	3.1135737e-12 	2.0991793e-14 	3.5566384e-13
0.57777778 	7.1801632e-12 	2.2788234e-12 	2.1557618e-14 	7.3354891e-12 	6.0682824e-14 	9.0366476e-13
0.58888889 	1.5840769e-11 	5.6660683e-12 	7.71676e-14 	1.6215334e-11 	1.9626175e-13 	2.2415682e-12
0.6 	3.2072871e-11 	1.2527203e-11 	1.5812295e-13 	3.2884786e-11 	3.6935886e-13 	5.5854095e-12
0.61111111 	5.6274878e-11 	2.3373903e-11 	8.076112e-14 	5.7770909e-11 	1.7197946e-13 	1.2541623e-11
0.62222222 	7.929641e-11 	3.4477664e-11 	3.8867656e-14 	8.1453711e-11 	9.1437286e-14 	7.0153085e-12
0.63333333 	9.3052466e-11 	4.2095836e-11 	8.5627202e-14 	9.5669478e-11 	1.482096e-13 	1.8527089e-11
0.64444444 	1.7169806e-10 	8.1421064e-11 	1.5847946e-12 	1.7659508e-10 	3.3193515e-12 	1.8880668e-11
0.65555556 	3.7186375e-10 	1.7953541e-10 	1.8599117e-13 	3.8250281e-10 	3.9602909e-13 	3.0798417e-11
0.66666667 	2.9112579e-09 	1.4315424e-09 	2.6846131e-11 	2.992731e-09 	5.5960454e-11 	1.04101e-10
0.67777778 	1.7809372e-08 	8.8705537e-09 	2.6880027e-10 	1.8290824e-08 	5.5133804e-10 	1.4366559e-09
0.68888889 	5.8983099e-08 	2.9474588e-08 	1.6921952e-10 	6.055332e-08 	3.4708729e-10 	1.51722e-09
0.7 	4.418818e-07 	2.3320841e-07 	8.2487191e-09 	4.5267765e-07 	1.5798409e-08 	2.3306797e-08
0.71111111 	1.0736175e-06 	5.7085646e-07 	5.5427749e-10 	1.0994443e-06 	1.0615833e-09 	2.4539714e-08
0.72222222 	6.0262211e-06 	3.4929581e-06 	1.1869263e-07 	6.15008e-06 	2.0361798e-07 	3.7728079e-07
0.73333333 	1.2598928e-05 	7.3971935e-06 	2.4510446e-09 	1.2849972e-05 	4.2047832e-09 	3.9005265e-07
0.74444444 	3.4556499e-05 	2.0278242e-05 	4.6302324e-07 	3.519601e-05 	8.0697491e-07 	3.9973468e-06
0.75555556 	6.0256753e-05 	3.5277405e-05 	1.0954591e-11 	6.1335861e-05 	1.9030155e-11 	4.0435391e-06
0.76666667 	0.00010333296 	5.7007572e-05 	6.5443833e-07 	0.00010517632 	1.3956604e-06 	1.5181038e-05
0.77777778 	0.00014718957 	7.7402042e-05 	1.1369471e-08 	0.00014978348 	2.3418516e-08 	2.8431081e-06
0.78888889 	0.00019041601 	9.1026398e-05 	3.0647917e-07 	0.00019382785 	1.0575849e-06 	2.6896494e-05
0.8 	0.00023052974 	0.00010156494 	3.1965757e-08 	0.00023464242 	2.2940023e-07 	3.5820295e-05
0.81111111 	0.0002640716 	0.00010725801 	4.1191613e-08 	0.00026866011 	2.95609e-07 	3.5885143e-05
0.82222222 	0.00029053677 	0.00011046481 	1.7296193e-08 	0.00029537934 	4.7548067e-07 	4.1972378e-05
0.83333333 	0.00031173158 	0.0001121986 	-4.4060177e-09 	0.00031666511 	2.033634e-08 	4.5437619e-05
0.84444444 	0.00032375483 	0.00011202918 	-1.1043582e-08 	0.00032854702 	5.0972568e-08 	4.5460269e-05
0.85555556 	0.00032728303 	0.00011050057 	-6.8803788e-08 	0.00033177619 	-7.8061513e-08 	4.6546806e-05
0.86666667 	0.0003232532 	0.00010806253 	-6.7635925e-08 	0.00032732097 	-2.2715028e-07 	4.5586963e-05
0.87777778 	0.00031089524 	0.00010494173 	-2.5925445e-08 	0.00031441404 	-1.4044269e-07 	4.2920384e-05
0.88888889 	0.00028969586 	0.00010166792 	4.0447916e-10 	0.0002925796 	1.6246115e-09 	3.2279542e-05
0.9 	0.00025950936 	9.9394993e-05 	2.3772508e-09 	0.00026163391 	6.4559001e-09 	5.3170071e-06
0.91111111 	0.00022095441 	0.00010131086 	2.5990727e-09 	0.00022222985 	4.91133e-09 	4.4226894e-06
0.92222222 	0.00017387597 	9.6209636e-05 	3.2559263e-11 	0.00017427641 	4.4986823e-11 	2.1266038e-05
0.93333333 	0.00011716954 	8.8193586e-05 	-1.0473724e-07 	0.00011693067 	-3.6840494e-07 	1.442724e-05
0.94444444 	5.6693996e-05 	5.9658007e-05 	-6.6789601e-07 	5.6356698e-05 	-8.1062103e-07 	7.3946738e-06
0.95555556 	1.3072342e-05 	1.4682441e-05 	-8.0334784e-08 	1.2972055e-05 	-6.7075655e-08 	2.4095029e-06
0.96666667 	1.2143318e-06 	1.0732386e-06 	-2.6607221e-08 	1.2065294e-06 	-2.7737589e-08 	1.1765191e-07
0.97777778 	2.9238276e-08 	1.9428847e-08 	-1.5115455e-10 	2.9114743e-08 	-2.1721856e-10 	2.2545898e-09
0.98888889 	2.5205731e-10 	1.15143e-10 	-1.0399446e-12 	2.5141175e-10 	-2.1442475e-12 	2.3351058e-11
