/*--------------------------------*- C++ -*----------------------------------*\
| =========                 |                                                 |
| \\      /  F ield         | OpenFOAM: The Open Source CFD Toolbox           |
|  \\    /   O peration     | Version:  2.4.0                                 |
|   \\  /    A nd           | Web:      www.OpenFOAM.org                      |
|    \\/     M anipulation  |                                                 |
\*---------------------------------------------------------------------------*/
FoamFile
{
    version     2.0;
    format      ascii;
    class       volScalarField;
    location    "2000";
    object      k;
}
// * * * * * * * * * * * * * * * * * * * * * * * * * * * * * * * * * * * * * //

dimensions      [0 2 -2 0 0 0 0];

internalField   nonuniform List<scalar> 
15296
(
0.0016938811
0.0016886532
0.0016836569
0.0016788677
0.0016742639
0.0016698308
0.001665557
0.001661434
0.0016574545
0.0016536124
0.0016499021
0.0016463187
0.0016428575
0.0016395143
0.001636285
0.0016331653
0.0016301491
0.0016272306
0.0016244015
0.0016216562
0.0016190072
0.0016165228
0.0016143931
0.001613022
0.0016131202
0.0016157647
0.0016224342
0.0016350138
0.0016565357
0.0016866976
0.0017261114
0.0017899544
0.0019214673
0.0022297132
0.0034239441
0.005529093
0.0076847445
0.0225917
0.0016939424
0.0016887128
0.0016837204
0.0016789332
0.001674331
0.0016698994
0.0016656269
0.0016615049
0.0016575265
0.0016536852
0.0016499756
0.0016463928
0.0016429321
0.0016395894
0.0016363604
0.0016332409
0.0016302249
0.0016273066
0.0016244778
0.0016217326
0.0016190829
0.0016165945
0.0016144526
0.0016130524
0.0016130916
0.0016156314
0.001622132
0.0016344517
0.0016556013
0.0016852208
0.001723632
0.0017853621
0.0019116072
0.0022026913
0.0033550424
0.005420084
0.0074810014
0.022273417
0.0016940714
0.0016888424
0.0016838554
0.001679071
0.001674471
0.0016700411
0.0016657701
0.0016616494
0.001657672
0.0016538316
0.0016501227
0.0016465403
0.0016430799
0.0016397374
0.0016365084
0.0016333889
0.0016303728
0.0016274545
0.0016246258
0.0016218805
0.0016192292
0.0016167335
0.0016145696
0.0016131168
0.001613049
0.0016153975
0.001621588
0.0016334302
0.0016538793
0.0016824234
0.0017184378
0.0017760272
0.0018921799
0.0021524609
0.0032198033
0.00519253
0.0071285216
0.021631142
0.001694261
0.0016890392
0.0016840582
0.0016792771
0.0016746796
0.0016702518
0.0016659824
0.0016618631
0.0016578867
0.001654047
0.0016503386
0.0016467565
0.0016432963
0.0016399536
0.0016367244
0.0016336046
0.001630588
0.0016276694
0.0016248405
0.001622095
0.0016194414
0.0016169358
0.0016147422
0.0016132177
0.0016130032
0.0016150872
0.0016208465
0.0016320212
0.001651483
0.0016784331
0.001711516
0.0017637243
0.0018673149
0.002090505
0.0030457681
0.0048875646
0.0066474632
0.020661212
0.0016945085
0.0016893028
0.0016843281
0.0016795507
0.0016749561
0.0016705306
0.001666263
0.0016621451
0.0016581697
0.0016543307
0.0016506227
0.0016470407
0.0016435803
0.0016402372
0.0016370075
0.001633887
0.0016308697
0.0016279504
0.0016251212
0.0016223753
0.0016197188
0.0016172013
0.0016149711
0.0016133577
0.0016129597
0.0016147104
0.0016199228
0.0016302486
0.0016484532
0.0016734851
0.0017034602
0.00174973
0.0018394572
0.002021462
0.0028385174
0.0045186034
0.0060453281
0.019518669
0.001694902
0.0016897282
0.001684762
0.0016799903
0.0016754001
0.0016709778
0.0016667127
0.0016625966
0.0016586225
0.0016547843
0.0016510766
0.0016474945
0.0016440336
0.0016406897
0.0016374588
0.001634337
0.0016313183
0.0016283979
0.0016255678
0.001622821
0.0016201605
0.0016176259
0.0016153437
0.0016136023
0.0016129377
0.0016142006
0.0016186075
0.0016276805
0.0016440288
0.0016666559
0.0016928107
0.0017316834
0.0018042214
0.0019350127
0.002553295
0.0040020317
0.0051691427
0.017890486
0.0016955531
0.001690435
0.0016854817
0.0016807192
0.0016761357
0.0016717183
0.0016674568
0.0016633432
0.0016593707
0.0016555333
0.0016518256
0.0016482429
0.0016447807
0.0016414351
0.0016382019
0.0016350774
0.0016320561
0.0016291329
0.0016263006
0.0016235515
0.0016208854
0.0016183311
0.0016159894
0.0016141005
0.0016131237
0.0016138067
0.0016172427
0.0016247945
0.001638871
0.0016590906
0.0016818655
0.0017138902
0.0017712394
0.0018612073
0.0022711001
0.003459911
0.0041448138
0.016138507
0.0016965021
0.001691436
0.0016865057
0.0016817572
0.0016771829
0.001672772
0.0016685151
0.0016644046
0.0016604339
0.0016565972
0.0016528891
0.0016493051
0.0016458408
0.0016424922
0.0016392555
0.0016361269
0.0016331011
0.0016301734
0.0016273369
0.0016245838
0.001621911
0.0016193372
0.0016169385
0.0016149068
0.0016136228
0.0016137243
0.0016161698
0.0016221546
0.0016338543
0.001651536
0.0016719976
0.0016984859
0.0017442727
0.0018092757
0.0020519059
0.0029983037
0.0031730285
0.014459495
0.0016978589
0.0016928198
0.0016879297
0.001683202
0.0016786405
0.0016742383
0.0016699875
0.001665881
0.0016619125
0.0016580763
0.0016543673
0.001650781
0.0016473133
0.0016439603
0.0016407183
0.0016375834
0.0016345512
0.0016316165
0.0016287732
0.0016260136
0.0016233324
0.0016207395
0.0016182883
0.0016161245
0.0016145512
0.0016140934
0.0016155669
0.0016199948
0.0016292821
0.00164416
0.0016625715
0.0016849069
0.0017216802
0.0017722922
0.001898451
0.0026318294
0.00234544
0.012378645
0.0016996941
0.0016947216
0.0016898796
0.0016851805
0.0016806376
0.0016762482
0.0016720062
0.0016679054
0.00166394
0.0016601047
0.0016563946
0.0016528055
0.0016493333
0.0016459744
0.0016427252
0.0016395821
0.001636541
0.0016335966
0.0016307437
0.0016279748
0.0016252831
0.0016226714
0.0016201734
0.0016178929
0.0016160586
0.0016150839
0.0016156378
0.0016185696
0.001625483
0.0016373891
0.0016532524
0.0016727619
0.0017022605
0.0017443868
0.0017998276
0.0023560705
0.0017694252
0.0093255395
0.001702153
0.0016973051
0.001692517
0.0016878566
0.0016833403
0.0016789696
0.0016747407
0.0016706488
0.0016666885
0.0016628552
0.0016591444
0.0016555521
0.0016520747
0.0016487086
0.0016454504
0.0016422968
0.0016392444
0.0016362872
0.0016334213
0.0016306396
0.0016279347
0.0016253041
0.0016227657
0.0016203871
0.0016183304
0.0016169041
0.0016166325
0.0016181961
0.0016228861
0.0016318101
0.0016447097
0.0016615547
0.0016855507
0.0017222266
0.0017410669
0.0021535698
0.0015348607
0.0063651507
0.001705538
0.0017007559
0.001696045
0.0016914369
0.0016869574
0.001682613
0.0016784026
0.0016743231
0.0016703703
0.0016665401
0.0016628287
0.0016592326
0.0016557484
0.0016523729
0.001649103
0.0016459356
0.0016428679
0.0016398939
0.0016370101
0.0016342106
0.0016314877
0.0016288359
0.0016262613
0.001623803
0.0016215672
0.0016197699
0.001618801
0.0016191841
0.0016219107
0.0016280399
0.001637821
0.0016515042
0.0016713064
0.0017035368
0.001707899
0.0020018083
0.0015543517
0.0042407058
0.0017100605
0.0017053629
0.0017007343
0.0016961889
0.0016917573
0.0016874484
0.0016832633
0.0016792007
0.0016752581
0.0016714323
0.0016677203
0.0016641191
0.001660626
0.0016572381
0.0016539527
0.001650767
0.0016476782
0.0016446822
0.0016417742
0.0016389498
0.0016362019
0.0016335235
0.0016309133
0.0016283894
0.0016260145
0.0016239282
0.0016224029
0.0016218218
0.0016229089
0.0016265799
0.0016333495
0.0016436876
0.0016594765
0.0016873113
0.0016892596
0.0018869159
0.0016565851
0.0029916977
0.0017160382
0.001711498
0.0017069406
0.0017024647
0.0016980939
0.0016938322
0.0016896817
0.0016856431
0.0016817155
0.001677897
0.0016741858
0.0016705796
0.0016670764
0.0016636738
0.0016603696
0.0016571613
0.0016540465
0.0016510228
0.0016480837
0.0016452268
0.0016424459
0.0016397337
0.0016370848
0.0016345038
0.0016320217
0.0016297194
0.0016277719
0.001626442
0.0016262271
0.0016278531
0.0016319117
0.0016390096
0.0016506642
0.0016741886
0.0016791731
0.0018041026
0.0017312339
0.0023741881
0.0017241469
0.0017195918
0.0017151157
0.0017107234
0.0017064259
0.0017022235
0.0016981183
0.0016941123
0.0016902062
0.0016863997
0.001682692
0.001679082
0.0016755683
0.0016721494
0.0016688235
0.0016655888
0.001662443
0.0016593849
0.001656408
0.0016535107
0.0016506875
0.0016479321
0.0016452377
0.0016426011
0.0016400331
0.0016375733
0.0016353222
0.0016334457
0.0016322623
0.0016323026
0.0016341068
0.0016383386
0.0016460837
0.0016652116
0.0016743935
0.0017509784
0.0017607301
0.0021107156
0.0017367893
0.0017322816
0.001727894
0.0017236015
0.0017193979
0.0017152755
0.0017112335
0.0017072747
0.0017034008
0.0016996129
0.0016959117
0.0016922974
0.0016887698
0.0016853281
0.0016819716
0.0016786988
0.0016755083
0.0016723987
0.0016693676
0.0016664098
0.0016635223
0.0016607003
0.0016579371
0.0016552259
0.0016525638
0.0016499602
0.0016474548
0.0016451278
0.0016431434
0.001641827
0.0016415801
0.001643042
0.0016469597
0.001660119
0.0016730274
0.001716203
0.0017594323
0.0019845842
0.0017556914
0.0017513564
0.0017470846
0.0017428904
0.0017387786
0.001734738
0.0017307641
0.0017268577
0.0017230202
0.0017192532
0.0017155585
0.0017119371
0.00170839
0.0017049175
0.0017015193
0.0016981951
0.001694944
0.0016917647
0.0016886571
0.0016856168
0.0016826381
0.0016797199
0.0016768567
0.0016740408
0.0016712647
0.0016685237
0.001665825
0.0016631955
0.0016607047
0.0016585195
0.0016569025
0.0016563447
0.0016575404
0.0016649914
0.0016783224
0.0017063054
0.0017512168
0.0019163855
0.001780044
0.0017758205
0.0017716428
0.0017675265
0.0017634836
0.0017595031
0.0017555788
0.0017517103
0.0017478981
0.0017441434
0.0017404479
0.0017368132
0.0017332404
0.0017297306
0.001726284
0.0017229007
0.0017195804
0.0017163224
0.0017131255
0.0017099899
0.0017069071
0.0017038776
0.0017008954
0.001697954
0.0016950448
0.0016921587
0.0016892891
0.0016864367
0.001683624
0.0016809169
0.0016785011
0.0016766645
0.0016761777
0.0016795631
0.0016912701
0.0017129685
0.0017526225
0.0018782946
0.0018108675
0.0018066863
0.0018025652
0.0017984973
0.0017944925
0.00179054
0.0017866339
0.0017827742
0.0017789616
0.0017751967
0.0017714809
0.0017678153
0.0017642012
0.0017606394
0.0017571305
0.0017536746
0.0017502715
0.0017469208
0.0017436214
0.0017403721
0.0017371711
0.001734014
0.0017308925
0.0017278025
0.0017247356
0.0017216807
0.0017186254
0.0017155574
0.0017124759
0.0017093903
0.0017064404
0.001703729
0.0017020844
0.001702612
0.0017122137
0.0017300722
0.0017648582
0.0018598897
0.0018491324
0.0018450206
0.0018409415
0.0018368917
0.0018328897
0.0018289281
0.0018250025
0.0018211148
0.0018172665
0.0018134585
0.0018096918
0.0018059674
0.0018022863
0.0017986488
0.0017950553
0.0017915058
0.0017880001
0.0017845374
0.0017811166
0.0017777358
0.0017743954
0.0017710886
0.0017678093
0.0017645482
0.0017612983
0.0017580473
0.001754779
0.0017514729
0.001748115
0.0017446811
0.0017412823
0.0017378792
0.0017352887
0.0017336888
0.0017411355
0.0017556326
0.001786167
0.0018565178
0.0018961084
0.001892029
0.0018879567
0.0018838909
0.0018798584
0.0018758544
0.0018718753
0.0018679246
0.0018640053
0.0018601191
0.0018562676
0.0018524519
0.0018486729
0.0018449308
0.0018412257
0.0018375572
0.0018339247
0.0018303274
0.0018267636
0.0018232312
0.0018197279
0.0018162489
0.001812791
0.0018093417
0.0018058868
0.0018024155
0.0017989073
0.0017953349
0.0017916737
0.001787878
0.0017840133
0.0017799856
0.0017764912
0.0017732775
0.0017778549
0.001789118
0.001815761
0.0018652653
0.0019531421
0.0019489898
0.0019448636
0.0019407428
0.0019366483
0.0019325716
0.0019285076
0.0019244605
0.0019204351
0.0019164344
0.0019124612
0.0019085176
0.0019046046
0.0019007228
0.0018968723
0.0018930525
0.0018892625
0.0018855011
0.0018817664
0.0018780557
0.0018743655
0.0018706906
0.0018670244
0.0018633603
0.0018596795
0.0018559655
0.001852189
0.0018483204
0.0018443237
0.0018401358
0.0018357595
0.0018311121
0.0018266746
0.0018221734
0.0018226576
0.0018310263
0.0018541226
0.0018855692
0.0020214147
0.0020171682
0.0020129703
0.0020087712
0.0020045847
0.0020004011
0.0019962148
0.0019920319
0.0019878595
0.0019837025
0.0019795651
0.0019754505
0.0019713607
0.0019672969
0.0019632593
0.0019592475
0.0019552606
0.001951297
0.0019473546
0.0019434301
0.0019395193
0.0019356162
0.0019317124
0.0019277967
0.0019238571
0.0019198671
0.0019157952
0.0019116009
0.0019072359
0.0019026147
0.0018976984
0.0018923904
0.0018869636
0.001881205
0.0018780723
0.0018832629
0.0019026357
0.0019181404
0.0021022381
0.0020980006
0.0020937377
0.0020894254
0.0020850975
0.0020807537
0.0020763913
0.0020720195
0.0020676475
0.0020632823
0.0020589293
0.0020545932
0.0020502767
0.0020459815
0.0020417084
0.0020374572
0.002033227
0.0020290163
0.0020248225
0.002020642
0.0020164698
0.0020122989
0.0020081198
0.0020039188
0.0019996784
0.0019953717
0.0019909677
0.0019864108
0.0019816384
0.0019765491
0.0019710666
0.001965012
0.0019585894
0.0019514768
0.0019454355
0.0019461976
0.0019617094
0.0019632961
0.0021977582
0.0021932348
0.0021887419
0.0021842102
0.0021796563
0.0021750753
0.0021704633
0.0021658308
0.0021611898
0.002156549
0.0021519154
0.0021472946
0.0021426902
0.0021381045
0.0021335384
0.0021289919
0.0021244643
0.0021199538
0.0021154577
0.0021109719
0.0021064908
0.0021020065
0.0020975078
0.0020929793
0.0020883996
0.0020837384
0.0020789553
0.0020739902
0.0020687675
0.0020631688
0.0020570862
0.0020502284
0.0020428101
0.0020342404
0.0020259637
0.0020201443
0.0020319116
0.0020216142
0.0023088359
0.0023041052
0.002299359
0.0022945366
0.0022896663
0.0022847514
0.0022797919
0.0022748022
0.0022697978
0.0022647898
0.0022597867
0.0022547955
0.0022498205
0.0022448643
0.0022399283
0.0022350125
0.002230116
0.002225237
0.0022203723
0.0022155176
0.0022106664
0.0022058098
0.0022009352
0.0021960249
0.0021910545
0.0021859893
0.0021807822
0.0021753637
0.0021696463
0.0021634849
0.0021567528
0.0021491002
0.0021406108
0.0021305792
0.0021202141
0.0021088783
0.0021155699
0.0020947936
0.0024373994
0.0024322211
0.0024270395
0.0024217719
0.0024164405
0.0024110502
0.0024056033
0.002400118
0.002394614
0.0023891054
0.002383603
0.0023781154
0.0023726479
0.0023672038
0.0023617846
0.0023563906
0.0023510206
0.0023456727
0.0023403433
0.0023350275
0.0023297179
0.0023244044
0.0023190729
0.0023137036
0.0023082688
0.0023027292
0.0022970316
0.0022910969
0.0022848251
0.0022780503
0.0022706129
0.0022621377
0.0022525118
0.0022410872
0.0022285858
0.0022133345
0.0022118495
0.0021822332
0.0025848416
0.0025790393
0.0025732205
0.002567294
0.0025612842
0.0025552014
0.0025490531
0.0025428634
0.0025366567
0.0025304509
0.0025242595
0.0025180926
0.0025119569
0.0025058561
0.002499792
0.0024937647
0.0024877731
0.0024818146
0.0024758852
0.0024699791
0.0024640881
0.0024582007
0.002452301
0.0024463667
0.002440367
0.0024342581
0.0024279802
0.0024214458
0.0024145418
0.0024070852
0.0023988835
0.0023895374
0.0023788054
0.0023659607
0.0023513831
0.0023332028
0.0023231766
0.0022855192
0.0027530413
0.0027462198
0.0027393823
0.0027324273
0.0027253805
0.0027182573
0.0027110717
0.0027038544
0.0026966353
0.0026894355
0.0026822712
0.0026751539
0.0026680906
0.0026610853
0.0026541396
0.0026472531
0.002640424
0.0026336491
0.0026269233
0.0026202397
0.0026135888
0.0026069576
0.0026003281
0.0025936754
0.0025869654
0.0025801498
0.0025731627
0.0025659082
0.0025582615
0.0025500249
0.0025409773
0.002530697
0.0025188661
0.0025046129
0.002488127
0.0024673141
0.002451752
0.0024038463
0.0029431315
0.0029348134
0.0029264681
0.0029179933
0.0029094221
0.0029007789
0.0028920888
0.0028833921
0.0028747252
0.0028661135
0.0028575756
0.002849124
0.0028407659
0.0028325048
0.0028243412
0.0028162738
0.0028082995
0.0028004135
0.0027926094
0.0027848788
0.0027772103
0.0027695889
0.0027619944
0.0027543992
0.0027467656
0.0027390412
0.0027311543
0.0027230021
0.002714449
0.0027052866
0.0026952693
0.0026839646
0.002670982
0.0026554441
0.0026371764
0.0026140158
0.0025949986
0.0025371026
0.0031560595
0.0031455528
0.003135012
0.0031243435
0.0031135902
0.0031027862
0.003091971
0.0030811966
0.003070506
0.0030599284
0.0030494845
0.0030391869
0.0030290421
0.003019052
0.0030092156
0.0029995293
0.0029899882
0.0029805855
0.0029713127
0.0029621594
0.002953112
0.0029441534
0.0029352609
0.0029264041
0.0029175422
0.0029086189
0.0028995579
0.0028902508
0.0028805538
0.0028702521
0.0028590819
0.0028466115
0.0028323946
0.0028155933
0.002795777
0.0027706517
0.0027487193
0.0026871069
0.0033929122
0.0033792159
0.0033654962
0.0033516847
0.003337835
0.003323989
0.0033102024
0.0032965387
0.0032830449
0.003269752
0.0032566803
0.0032438408
0.0032312373
0.0032188687
0.003206731
0.003194818
0.0031831218
0.0031716333
0.0031603416
0.0031492338
0.0031382944
0.0031275038
0.0031168372
0.0031062617
0.003095734
0.0030851949
0.0030745646
0.0030637317
0.0030525476
0.0030407958
0.0030282033
0.003014349
0.0029987594
0.0029806434
0.0029594851
0.0029329639
0.0029083666
0.002847233
0.003645417
0.0036274478
0.0036094527
0.0035914171
0.0035734114
0.0035554856
0.0035377169
0.003520182
0.0035029308
0.0034859953
0.0034693951
0.0034531386
0.0034372263
0.0034216543
0.0034064155
0.0033915009
0.0033769004
0.0033626021
0.0033485933
0.003334859
0.0033213816
0.0033081399
0.0032951068
0.0032822479
0.0032695179
0.003256856
0.003244181
0.0032313807
0.0032183057
0.0032047435
0.0031904221
0.0031749405
0.0031578255
0.0031383538
0.0031159584
0.0030886587
0.0030620402
0.0030042223
0.0038955006
0.0038723341
0.0038490845
0.0038258212
0.0038026418
0.0037796127
0.0037568454
0.0037344372
0.0037124464
0.00369091
0.0036698507
0.0036492769
0.0036291884
0.0036095798
0.0035904425
0.0035717656
0.0035535368
0.0035357422
0.0035183667
0.0035013931
0.0034848015
0.0034685681
0.0034526638
0.0034370519
0.0034216854
0.0034065022
0.0033914206
0.0033763293
0.0033610819
0.0033454732
0.0033292409
0.0033120098
0.0032933295
0.0032725521
0.003249108
0.0032213983
0.0031935656
0.0031407773
0.0041332616
0.0041039539
0.0040743668
0.0040447403
0.0040152378
0.0039859707
0.0039571066
0.0039287752
0.0039010497
0.0038739774
0.0038475858
0.0038218838
0.0037968698
0.0037725355
0.0037488684
0.0037258532
0.0037034727
0.0036817082
0.0036605394
0.003639944
0.003619897
0.0036003701
0.0035813296
0.003562735
0.0035445361
0.0035266685
0.0035090498
0.0034915699
0.0034740864
0.0034564033
0.0034382726
0.0034193464
0.0033992092
0.0033772856
0.0033530337
0.0033252256
0.0032966875
0.0032495474
0.0043577492
0.0043205236
0.0042829041
0.0042453381
0.0042080537
0.0041712186
0.0041350654
0.004099752
0.0040653599
0.0040319377
0.0039995071
0.0039680671
0.0039376043
0.0039080982
0.0038795242
0.0038518549
0.0038250618
0.0037991153
0.0037739849
0.0037496389
0.0037260435
0.0037031625
0.0036809552
0.0036593751
0.003638367
0.0036178633
0.0035977798
0.0035780078
0.0035584092
0.0035387975
0.0035189412
0.0034985186
0.0034771547
0.0034543367
0.0034295706
0.0034019405
0.0033731949
0.0033313733
0.0045688728
0.0045213491
0.0044734534
0.0044260224
0.0043793603
0.0043336698
0.0042892051
0.0042461022
0.0042044095
0.004164143
0.0041252912
0.0040878221
0.0040516945
0.0040168633
0.0039832817
0.0039509029
0.0039196809
0.0038895705
0.0038605271
0.0038325064
0.0038054637
0.0037793526
0.0037541241
0.0037297245
0.0037060931
0.0036831585
0.0036608352
0.0036390154
0.0036175661
0.0035963099
0.0035750326
0.0035534352
0.0035311853
0.0035078156
0.0034828985
0.003455725
0.0034273285
0.0033899491
0.0047663421
0.0047059109
0.0046459936
0.0045875371
0.0045306788
0.0044755278
0.0044222847
0.0043710191
0.004321724
0.0042743701
0.0042289049
0.0041852602
0.0041433635
0.004103142
0.0040645243
0.0040274419
0.0039918294
0.0039576244
0.0039247669
0.0038931988
0.0038628636
0.0038337045
0.0038056639
0.003778681
0.0037526901
0.0037276167
0.0037033744
0.0036798572
0.003656938
0.0036344478
0.0036121896
0.003589882
0.0035672338
0.0035438009
0.0035192398
0.0034929034
0.0034655892
0.0034314674
0.0049527461
0.0048791894
0.0048067264
0.0047366038
0.0046688668
0.0046035952
0.0045409633
0.0044809841
0.0044236002
0.004368738
0.0043163024
0.0042661873
0.0042182864
0.0041724968
0.0041287201
0.004086864
0.0040468416
0.0040085718
0.0039719781
0.0039369883
0.0039035337
0.0038715477
0.003840965
0.0038117193
0.0037837413
0.0037569552
0.0037312758
0.0037066006
0.0036828091
0.0036597406
0.0036372141
0.0036149583
0.0035927189
0.0035700457
0.0035466978
0.0035218993
0.0034968307
0.0034646573
0.0051297681
0.0050438012
0.0049587736
0.0048765739
0.0047973393
0.0047212664
0.004648579
0.0045792707
0.0045132543
0.00445042
0.0043906321
0.0043337457
0.0042796184
0.0042281145
0.0041791064
0.0041324759
0.0040881142
0.0040459213
0.0040058051
0.0039676811
0.0039314711
0.0038971021
0.0038645046
0.0038336107
0.0038043522
0.0037766558
0.0037504412
0.0037256119
0.0037020556
0.0036796185
0.0036581319
0.0036373239
0.0036169666
0.0035965637
0.0035759931
0.0035541031
0.0035332509
0.0035017778
0.0052964391
0.0051971756
0.0050988377
0.0050039541
0.0049126925
0.0048253726
0.0047422623
0.0046633348
0.0045884765
0.0045175414
0.0044503532
0.0043867276
0.0043264866
0.0042694624
0.0042155008
0.0041644614
0.0041162184
0.004070659
0.0040276829
0.0039872007
0.003949133
0.003913408
0.0038799604
0.003848728
0.0038196497
0.0037926606
0.003767689
0.0037446456
0.0037234251
0.0037038741
0.0036858258
0.0036689864
0.0036531312
0.0036376609
0.0036225759
0.0036060442
0.0035925541
0.0035608718
0.0054519964
0.0053368346
0.0052231694
0.0051141463
0.0050098483
0.0049106438
0.0048167594
0.0047280871
0.0046444448
0.0045656206
0.0044913786
0.0044214859
0.0043557262
0.0042939033
0.0042358436
0.0041813956
0.0041304283
0.0040828296
0.0040385033
0.0039973677
0.0039593525
0.0039243972
0.0038924475
0.0038634527
0.0038373622
0.003814119
0.0037936565
0.0037758844
0.0037606906
0.0037479006
0.0037373207
0.0037285932
0.0037214482
0.0037151027
0.0037096514
0.0037022566
0.0037005016
0.0036684801
0.0055944513
0.0054601606
0.00532863
0.0052035639
0.0050848767
0.0049729216
0.004867795
0.004769246
0.0046769814
0.004590693
0.0045100692
0.0044348245
0.0043647101
0.0042995135
0.0042390568
0.0041831926
0.0041317992
0.0040847758
0.0040420385
0.004003517
0.0039691516
0.0039388896
0.0039126818
0.0038904785
0.0038722238
0.0038578484
0.0038472634
0.0038403428
0.0038369244
0.0038367603
0.0038395667
0.0038448476
0.003852205
0.0038605698
0.0038700569
0.0038765717
0.0038914398
0.0038601609
0.0057218183
0.0055651986
0.0054131889
0.0052700257
0.00513544
0.0050097402
0.0048928415
0.0047843269
0.0046837787
0.0045907955
0.0045050079
0.0044261034
0.0043538256
0.0042879654
0.0042283517
0.0041748417
0.0041273135
0.0040856602
0.0040497863
0.0040196044
0.0039950315
0.0039759852
0.0039623785
0.0039541128
0.0039510714
0.0039531081
0.0039600393
0.0039716233
0.0039875601
0.0040074343
0.004030774
0.0040568445
0.004085019
0.0041138525
0.0041433793
0.0041682161
0.0042033807
0.0041750774
0.0058348149
0.0056519286
0.0054761968
0.0053123886
0.0051600887
0.0050195418
0.0048904539
0.0047722613
0.004664469
0.0045666406
0.0044784054
0.0043994585
0.0043295362
0.0042684025
0.0042158358
0.0041716211
0.0041355496
0.0041074189
0.0040870314
0.0040741919
0.0040687018
0.0040703526
0.0040789173
0.0040941406
0.0041157302
0.0041433445
0.0041765858
0.0042149783
0.0042579729
0.0043048858
0.0043549698
0.0044071841
0.0044606234
0.0045134592
0.0045655922
0.0046106448
0.0046663876
0.0046435922
0.0059359232
0.005720621
0.0055165005
0.0053287003
0.0051566317
0.0050004254
0.0048596065
0.0047335827
0.0046219058
0.0045241768
0.0044400007
0.0043689576
0.0043105893
0.0042643983
0.0042298694
0.0042064861
0.004193754
0.0041912006
0.0041983671
0.0042147986
0.0042400315
0.0042735806
0.0043149277
0.0043635133
0.0044187311
0.0044799214
0.0045463706
0.0046172951
0.0046918519
0.0047690761
0.0048479662
0.0049272247
0.0050057539
0.0050814592
0.0051541762
0.0052170908
0.0052890457
0.0052734736
0.0060250337
0.0057687006
0.0055301481
0.0053146155
0.0051213441
0.0049504561
0.0048015734
0.0046743183
0.0045682754
0.0044827544
0.0044167647
0.0043690963
0.0043384388
0.0043234967
0.0043230637
0.004336058
0.0043614996
0.0043984834
0.0044461421
0.0045036221
0.0045700558
0.0046445508
0.0047261868
0.0048140188
0.0049070837
0.005004404
0.0051049936
0.0052078435
0.0053119361
0.0054161701
0.0055194635
0.005620438
0.0057180218
0.0058100291
0.0058964357
0.0059705426
0.0060503194
0.0060422304
0.006097563
0.0057893583
0.0055098614
0.0052639702
0.0050514009
0.0048731408
0.0047293792
0.0046194377
0.0045414483
0.0044924793
0.0044691106
0.0044679991
0.0044862273
0.0045214134
0.0045716507
0.0046353694
0.0047111911
0.0047978176
0.0048939687
0.0049983487
0.0051096587
0.0052266077
0.0053479326
0.0054724172
0.0055989072
0.0057263118
0.0058536051
0.0059797989
0.0061039528
0.006225071
0.0063422361
0.0064541912
0.0065601433
0.0066579284
0.0067479363
0.0068239083
0.0069011064
0.0068997096
0.0061484431
0.0057751811
0.0054480071
0.0051737088
0.0049556204
0.0047964695
0.0046942121
0.0046423379
0.0046317397
0.0046532374
0.0046993954
0.0047650333
0.0048468293
0.0049426167
0.0050507607
0.0051697588
0.005298056
0.0054340064
0.0055759137
0.0057220982
0.0058709633
0.0060210351
0.0061709902
0.0063196669
0.00646606
0.0066092987
0.0067486286
0.0068833615
0.0070128813
0.0071365025
0.0072536603
0.0073633396
0.0074652023
0.0075570973
0.0076400585
0.0077083569
0.0077728883
0.0077774152
0.0061721135
0.005725772
0.005354716
0.005076404
0.004899523
0.0048188638
0.0048140625
0.0048600063
0.0049363566
0.0050310879
0.0051390298
0.0052586717
0.005389591
0.0055311269
0.0056819912
0.0058403583
0.0060041119
0.0061710885
0.0063392548
0.0065068123
0.006672233
0.0068342739
0.006991952
0.0071445071
0.0072913647
0.0074320895
0.0075663526
0.0076938641
0.0078143865
0.0079275583
0.0080331621
0.0081303801
0.0082193088
0.0082976974
0.0083672535
0.0084225823
0.0084699703
0.0084783585
0.0061760553
0.0056617511
0.0052738361
0.0050459115
0.0049736248
0.0050151815
0.0051166387
0.0052399447
0.0053691115
0.0055022655
0.0056424524
0.0057923659
0.0059526739
0.0061221773
0.0062985239
0.0064789004
0.0066605282
0.0068409502
0.0070181532
0.0071905835
0.0073571024
0.0075169174
0.0076695189
0.0078146128
0.0079520633
0.0080818336
0.0082039504
0.0083184292
0.0084253068
0.0085244315
0.0086158225
0.0086987373
0.0087736133
0.0088379448
0.0088941395
0.0089366101
0.0089683372
0.0089788941
0.0061575543
0.0055796471
0.0052382519
0.0051620749
0.0052708752
0.0054491923
0.0056235719
0.0057764015
0.0059179967
0.0060623315
0.0062177064
0.0063862236
0.006565975
0.0067532036
0.0069437449
0.0071338187
0.0073203778
0.0075011756
0.0076746825
0.0078399475
0.0079964535
0.0081440006
0.008282616
0.0084124745
0.008533839
0.0086470031
0.0087522655
0.0088498545
0.0089399903
0.0090226338
0.0090979667
0.0091652101
0.0092251314
0.0092747456
0.009317437
0.0093465926
0.0093634289
0.0093753496
0.0061094918
0.0055143245
0.0053623139
0.0055596088
0.0058542921
0.0060908035
0.0062515611
0.0063763777
0.0065016605
0.0066449014
0.0068091464
0.006990139
0.0071812123
0.0073758454
0.0075687097
0.0077559374
0.0079350156
0.0081045039
0.0082637247
0.0084125101
0.0085510104
0.0086795867
0.0087987209
0.0089089479
0.0090108083
0.0091048026
0.0091913836
0.0092708819
0.0093436045
0.009409531
0.0094689422
0.0095209221
0.0095665843
0.0096022368
0.0096326017
0.0096490538
0.0096531191
0.0096659531
0.0060368796
0.0055714424
0.0058244413
0.0063161748
0.0066546627
0.0068074084
0.0068785085
0.0069506226
0.0070573967
0.0072016196
0.0073735997
0.0075612068
0.0077539934
0.0079443247
0.0081272224
0.0082998488
0.0084609138
0.0086101034
0.0087476563
0.0088740995
0.0089901074
0.0090964295
0.0091938293
0.0092830361
0.0093647184
0.0094394512
0.0095077291
0.0095698881
0.0096262463
0.0096767308
0.0097216846
0.0097599793
0.0097931231
0.0098165032
0.0098366184
0.0098417273
0.0098362712
0.0098495286
0.0059666244
0.0059591266
0.0067581236
0.0073326271
0.0074858455
0.007451303
0.0074156589
0.007447298
0.0075479152
0.0076968829
0.0078720398
0.0080563332
0.0082385482
0.0084121588
0.0085738729
0.0087225398
0.008858269
0.0089817503
0.0090938815
0.0091956005
0.0092878546
0.0093715601
0.0094475702
0.0095166472
0.0095794548
0.0096365367
0.0096883464
0.0097351607
0.0097772647
0.0098144926
0.0098472454
0.0098741314
0.0098971463
0.0099105421
0.0099231517
0.0099188117
0.0099082564
0.0099209639
0.0059917398
0.0069147078
0.0080751919
0.008363687
0.0081692052
0.0079338263
0.0078209547
0.0078364132
0.0079391288
0.0080882166
0.0082549696
0.0084222274
0.0085809611
0.0087271616
0.008859633
0.0089788155
0.0090858521
0.0091819785
0.0092683121
0.0093458877
0.0094156755
0.009478564
0.0095353419
0.0095866856
0.0096331653
0.0096752284
0.0097132443
0.0097474012
0.0097779404
0.0098045933
0.0098278458
0.0098460191
0.0098617307
0.0098678881
0.0098763316
0.0098649796
0.0098550076
0.009865774
0.0063000691
0.0084539689
0.0094680732
0.0091754433
0.0085979167
0.00820671
0.0080547665
0.0080667425
0.0081653787
0.0082998699
0.0084422328
0.0085788661
0.0087041495
0.0088165221
0.0089163042
0.0090048786
0.0090837687
0.0091541726
0.0092170466
0.0092732738
0.0093236746
0.0093689814
0.0094098262
0.0094467358
0.0094801465
0.0095103871
0.0095377353
0.0095622946
0.0095842803
0.0096033406
0.0096200995
0.0096326014
0.0096442451
0.0096464339
0.0096547179
0.0096396136
0.0096372384
0.0096449266
0.007083323
0.010260768
0.01061771
0.0096083748
0.0086874936
0.008192568
0.0080191385
0.0080180466
0.0080929059
0.0081938888
0.0082979402
0.0083955136
0.0084834455
0.0085613721
0.0086300554
0.0086910678
0.0087456648
0.008794531
0.00883826
0.0088774642
0.0089127348
0.0089445957
0.0089734922
0.0089997901
0.009023794
0.0090457279
0.0090658004
0.0090840605
0.0091007393
0.0091154506
0.0091290262
0.0091392997
0.0091505895
0.0091527978
0.0091656736
0.0091514092
0.0091647396
0.00917
0.0082411829
0.011899018
0.011238067
0.0094691385
0.0082635048
0.0076943335
0.0074888887
0.0074502578
0.0074803662
0.0075352519
0.0075959036
0.0076545668
0.0077084937
0.0077570572
0.0078005566
0.0078402871
0.0078766805
0.0079098154
0.0079398901
0.0079672431
0.0079922371
0.008015198
0.0080364052
0.0080560918
0.0080744647
0.0080916806
0.0081079203
0.008123229
0.0081379043
0.0081516047
0.0081654247
0.0081771451
0.008191998
0.0081987882
0.0082211515
0.0082138261
0.0082503938
0.0082573822
0.0091022454
0.012758122
0.01087024
0.0084395239
0.0070315947
0.0063926892
0.0061316765
0.0060386417
0.0060197194
0.0060328572
0.0060589322
0.0060892944
0.0061201015
0.0061497042
0.0061776578
0.0062050393
0.006231308
0.0062559077