/*--------------------------------*- C++ -*----------------------------------*\
| =========                 |                                                 |
| \\      /  F ield         | OpenFOAM: The Open Source CFD Toolbox           |
|  \\    /   O peration     | Version:  2.4.0                                 |
|   \\  /    A nd           | Web:      www.OpenFOAM.org                      |
|    \\/     M anipulation  |                                                 |
\*---------------------------------------------------------------------------*/
FoamFile
{
    version     2.0;
    format      ascii;
    class       volScalarField;
    location    "2000";
    object      p;
}
// * * * * * * * * * * * * * * * * * * * * * * * * * * * * * * * * * * * * * //

dimensions      [0 2 -2 0 0 0 0];

internalField   nonuniform List<scalar> 
15296
(
0.26650995
0.2653358
0.26461148
0.26392936
0.26308613
0.26216341
0.26123477
0.26031657
0.25941885
0.25855161
0.25771918
0.25692159
0.25615725
0.2554241
0.25472008
0.25404365
0.25339422
0.25277258
0.25218126
0.25162501
0.25111115
0.25064972
0.25025342
0.24993769
0.24972191
0.24963241
0.24970923
0.25000833
0.25070197
0.25255961
0.25605629
0.26168256
0.27081365
0.2855855
0.30995744
0.34982668
0.42427909
0.54618506
0.26651077
0.26533711
0.26461236
0.26393051
0.26308767
0.26216532
0.26123701
0.26031911
0.25942168
0.25855467
0.25772245
0.25692505
0.25616087
0.25542786
0.25472398
0.25404766
0.25339831
0.2527767
0.25218537
0.25162916
0.25111579
0.25065644
0.25026636
0.24996576
0.24978157
0.24975061
0.24992614
0.25038996
0.25134915
0.25350029
0.25703005
0.26265765
0.27179524
0.28659328
0.31134868
0.35203352
0.42751096
0.56648061
0.26651317
0.26533914
0.26461365
0.2639321
0.26308967
0.26216767
0.26123966
0.26032205
0.25942486
0.25855807
0.25772603
0.25692878
0.25616475
0.25543187
0.2547281
0.25405186
0.25340256
0.25278094
0.25218952
0.25163316
0.25111979
0.25066131
0.25027476
0.24998394
0.24982209
0.2498359
0.25009321
0.25070337
0.25188323
0.25401533
0.25747555
0.26307997
0.27218074
0.28692633
0.31175333
0.35260298
0.4280063
0.57282305
0.26651639
0.26534197
0.26461532
0.26393405
0.26309201
0.26217034
0.26124262
0.26032528
0.25942833
0.25856173
0.25772986
0.25693276
0.25616886
0.2554361
0.25473243
0.25405627
0.25340701
0.25278537
0.25219382
0.25163721
0.25112357
0.25066523
0.25028043
0.24999557
0.24984866
0.24989418
0.2502118
0.25092897
0.25222426
0.25424138
0.25768417
0.26325425
0.2723
0.28695441
0.31168775
0.35237546
0.42737373
0.57035731
0.26651993
0.26534558
0.26461731
0.26393629
0.26309461
0.26217322
0.26124577
0.26032869
0.25943196
0.25856555
0.25773384
0.2569369
0.25617312
0.25544048
0.2547369
0.25406083
0.25341161
0.25278993
0.25219825
0.25164136
0.25112732
0.25066871
0.25028458
0.25000315
0.24986575
0.24993225
0.25028994
0.25107287
0.25242462
0.25441178
0.2578303
0.26336273
0.27234671
0.28689323
0.31146808
0.3518942
0.42637566
0.56841893
0.26652413
0.26535132
0.26462039
0.26393962
0.26309834
0.26217728
0.26125014
0.26033337
0.25943691
0.25857074
0.25773923
0.25694246
0.25617884
0.25544634
0.25474289
0.25406691
0.25341774
0.25279604
0.25220418
0.25164691
0.25113217
0.25067254
0.25028728
0.25000536
0.24986975
0.24994323
0.25031745
0.25112758
0.25253266
0.25458195
0.25795815
0.26343721
0.27233432
0.28672813
0.3110436
0.3510383
0.42471762
0.5651339
0.26652956
0.26535986
0.26462503
0.26394451
0.26310366
0.26218294
0.26125614
0.26033973
0.2594436
0.2585777
0.25774643
0.25694988
0.25618646
0.25545413
0.25475084
0.25407498
0.25342588
0.25280416
0.25221213
0.2516544
0.25113875
0.25067745
0.25028936
0.25000297
0.24986094
0.24992613
0.25029105
0.25109024
0.2525112
0.25469487
0.2580574
0.26345936
0.27224004
0.28643113
0.31038881
0.34975104
0.42228985
0.55652029
0.26653514
0.26537081
0.26463111
0.26395085
0.2631104
0.26218996
0.26126349
0.26034745
0.25945165
0.25858603
0.25775502
0.25695869
0.25619548
0.25546333
0.2547602
0.25408448
0.25343547
0.25281374
0.25222156
0.25166342
0.25114689
0.25068388
0.25029265
0.25000075
0.24984955
0.24990036
0.25024409
0.25101321
0.25240285
0.2546633
0.25809743
0.26342831
0.27207315
0.28603262
0.30958963
0.34820153
0.4192752
0.5457705
0.26654027
0.26538438
0.26463885
0.26395895
0.26311888
0.26219864
0.26127247
0.26035679
0.25946132
0.25859599
0.25776523
0.25696914
0.25620615
0.2554742
0.25477124
0.25409566
0.25344674
0.25282501
0.2522327
0.25167418
0.25115685
0.25069229
0.25029817
0.25000108
0.24984089
0.24987682
0.25019694
0.25093047
0.25227444
0.25451135
0.25801862
0.26335869
0.27184435
0.28554434
0.30866411
0.34642895
0.41574691
0.53854967
0.26654543
0.26540068
0.26464836
0.2639691
0.26312946
0.26220935
0.26128344
0.26036813
0.259473
0.25860797
0.25777748
0.25698163
0.25621886
0.25548712
0.25478435
0.25410892
0.25346009
0.25283838
0.25224593
0.25168706
0.25116898
0.25070301
0.25030628
0.2500045
0.24983611
0.24985813
0.25015549
0.25085367
0.25214568
0.25431748
0.25780152
0.26320337
0.27155531
0.2849684
0.30760474
0.3444269
0.41193808
0.53074594
0.266551
0.26542002
0.26465977
0.26398166
0.26314258
0.26222256
0.26129691
0.26038197
0.2594872
0.25862247
0.25779227
0.25699668
0.25623415
0.25550263
0.25480006
0.25412478
0.25347606
0.25285435
0.25226177
0.25170253
0.25118373
0.25071642
0.25031731
0.25001132
0.2498356
0.24984514
0.25012187
0.25078736
0.25202835
0.254123
0.25751819
0.26287837
0.27120294
0.28430029
0.3064026
0.34218601
0.40789113
0.52039962
0.2665564
0.26544282
0.26467313
0.26399681
0.26315859
0.26223864
0.26131323
0.2603987
0.25950429
0.25863989
0.25780998
0.25701467
0.2562524
0.25552111
0.25481874
0.25414363
0.253495
0.2528733
0.25228057
0.25172094
0.2512014
0.25073277
0.2503314
0.25002156
0.2498393
0.24983783
0.25009637
0.25073269
0.25192723
0.25394711
0.25723581
0.26244349
0.27074295
0.28353583
0.30506921
0.33972425
0.40358082
0.50933466
0.26656275
0.26546983
0.26468859
0.26401479
0.26317784
0.26225799
0.26133286
0.26041877
0.25952477
0.25866071
0.25783112
0.25703611
0.25627411
0.25554307
0.25484091
0.25416597
0.25351743
0.25289572
0.25230281
0.25174275
0.2512224
0.2507524
0.25034876
0.25003521
0.24984686
0.24983539
0.25007763
0.25068772
0.25184036
0.25379256
0.25697402
0.26200911
0.27011797
0.2826603
0.30360571
0.33704046
0.39894357
0.49801963
0.2665713
0.26550205
0.26470648
0.26403595
0.26320081
0.26228115
0.26135639
0.26044285
0.25954934
0.25868568
0.25785646
0.25706179
0.2563001
0.25556934
0.25486742
0.25419266
0.25354423
0.25292249
0.25232936
0.2517688
0.25124754
0.25077601
0.25036993
0.25005251
0.24985803
0.24983682
0.25006349
0.25064875
0.25176199
0.25365111
0.25673033
0.26159637
0.26940263
0.28165197
0.30198346
0.33409408
0.39386855
0.4862193
0.26658049
0.26554102
0.26472754
0.26406077
0.2632281
0.26230872
0.26138447
0.26047166
0.25957876
0.25871561
0.25788685
0.25709261
0.2563313
0.25560086
0.25489922
0.25422468
0.25357636
0.25295458
0.25236119
0.25180005
0.25127773
0.25080445
0.25039561
0.25007391
0.24987283
0.24984138
0.25005214
0.25061239
0.25168641
0.25351344
0.25649296
0.26119423
0.26870593
0.28052355
0.30019028
0.33086737
0.38829364
0.47380729
0.26659334
0.26559715
0.26475819
0.26409558
0.26326656
0.26234755
0.26142399
0.26051226
0.25962029
0.25875792
0.25792987
0.25713626
0.25637551
0.25564557
0.25494434
0.2542701
0.25362194
0.25300012
0.25240638
0.25184444
0.25132067
0.25084501
0.25043241
0.25010496
0.24989511
0.24985033
0.25004077
0.25056962
0.25159495
0.25334568
0.25620384
0.26070724
0.26788935
0.27910713
0.29788529
0.32673257
0.38107362
0.45845676
0.26662059
0.26566917
0.26480148
0.26414208
0.26331737
0.26239855
0.2614757
0.26056532
0.25967458
0.25881327
0.25798619
0.25719349
0.25643354
0.25570429
0.25500364
0.25432983
0.25368192
0.25306007
0.25246592
0.25190301
0.25137746
0.25089884
0.2504816
0.25014704
0.24992644
0.24986547
0.25003147
0.25052306
0.25149115
0.2531529
0.25587075
0.26014672
0.26696105
0.27750915
0.29521005
0.32192206
0.37264193
0.44121095
0.26665916
0.2657511
0.26485535
0.26419667
0.26337616
0.26245709
0.26153456
0.26062545
0.25973601
0.25887588
0.25804995
0.25725833
0.25649935
0.25577095
0.25507101
0.25439775
0.25375017
0.25312835
0.25253381
0.2519699
0.25144247
0.25096072
0.25053853
0.25019636
0.24996428
0.24988604
0.25002614
0.25047852
0.25138688
0.25295638
0.25552984
0.25957269
0.26601273
0.27589256
0.29248571
0.31707288
0.36409618
0.42457451
0.26670931
0.26584483
0.26492138
0.26426078
0.26344415
0.26252422
0.26160138
0.26069329
0.25980507
0.25894613
0.25812143
0.25733102
0.25657317
0.25584578
0.2551467
0.25447412
0.25382697
0.25320526
0.25261036
0.25204545
0.25151608
0.25103104
0.25060362
0.25025341
0.25000915
0.24991261
0.25002532
0.25043642
0.25128219
0.2527556
0.25517972
0.2589826
0.26503981
0.27423719
0.28970842
0.31221215
0.355496
0.40864431
0.26677231
0.26595135
0.26500064
0.26433545
0.26352231
0.26260086
0.26167697
0.26076952
0.25988234
0.25902452
0.25820106
0.25741195
0.25665534
0.25592908
0.25523098
0.2545592
0.25391259
0.25329106
0.25269585
0.25212994
0.25159859
0.25111014
0.25067726
0.2503186
0.25006156
0.24994581
0.25002978
0.25039767
0.25117818
0.25255181
0.25482174
0.25837853
0.2640451
0.27255875
0.28689864
0.3073622
0.34688154
0.39345078
0.26684897
0.26607142
0.2650939
0.26442134
0.26361116
0.26268763
0.26176196
0.26085474
0.25996842
0.25911163
0.25828941
0.25750166
0.25674639
0.25602137
0.25532438
0.2546535
0.25400752
0.25338625
0.25279078
0.25222388
0.25169048
0.25119849
0.25075991
0.25039243
0.25012199
0.24998614
0.25004003
0.25036284
0.25107541
0.25234562
0.25445648
0.25776155
0.26302873
0.27087109
0.28406105
0.30252814
0.33826606
0.37896476
0.2669392
0.26620492
0.26520142
0.26451868
0.26371073
0.2627846
0.26185637
0.26094899
0.26006338
0.25920755
0.2583866
0.25760028
0.25684645
0.25612279
0.25542702
0.25475715
0.25411189
0.25349095
0.25289526
0.25232735
0.25179185
0.25129618
0.25085166
0.25047498
0.25019057
0.25003375
0.25005634
0.25033232
0.25097454
0.2521381
0.25408553
0.2571346
0.2619947
0.26917862
0.28119148
0.29774003
0.32970529
0.3652039
0.26704435
0.26635223
0.26532356
0.26462769
0.26382083
0.26289146
0.26195982
0.26105182
0.26016676
0.25931186
0.25849221
0.25770743
0.25695518
0.25623302
0.2555386
0.25486987
0.25422543
0.25360488
0.253009
0.25244008
0.25190241
0.25140294
0.25095225
0.25056599
0.25026706
0.25008846
0.25007861
0.2503062
0.25087592
0.25193011
0.2537105
0.25650074
0.26094867
0.26748007
0.2783137
0.29304365
0.32126411
0.35218678
0.26716777
0.2665156
0.26546159
0.2647489
0.26394134
0.26300776
0.26207167
0.26116245
0.26027775
0.25942373
0.25860546
0.25782238
0.2570719
0.25635142
0.25565853
0.25499108
0.25434759
0.25372753
0.25313151
0.25256158
0.25202169
0.25151827
0.25106116
0.25066495
0.25035094
0.25014979
0.25010638
0.25028407
0.25077928
0.25172166
0.25333184
0.25586122
0.25989425
0.26578093
0.27547144
0.28847531
0.31298238
0.33988509
0.26730856
0.26669512
0.26561558
0.26488225
0.26407164
0.26313263
0.26219084
0.26127966
0.26039506
0.25954187
0.25872505
0.25794385
0.25719536
0.25647681
0.25578567
0.2551197
0.25447732
0.25385787
0.25326179
0.25269089
0.25214873
0.25164124
0.25117749
0.25077095
0.25044131
0.25021681
0.25013873
0.25026507
0.25068382
0.25151214
0.25294925
0.25521641
0.25883315
0.26408664
0.27266842
0.28404933
0.30491257
0.32826149
0.26746839
0.26689101
0.26578485
0.26502673
0.26421024
0.26326428
0.26231543
0.26140145
0.26051663
0.25966422
0.25884897
0.25806987
0.25732364
0.25660729
0.25591817
0.25525392
0.25461286
0.25399419
0.25339817
0.25282633
0.2522819
0.25177022
0.25129962
0.25088241
0.2505366
0.25028798
0.25017419
0.25024782
0.25058836
0.2513007
0.25256247
0.25456712
0.2577676
0.26240406
0.2698902
0.27978088
0.2971523
0.31729173
0.26764555
0.26710166
0.26596742
0.26518027
0.26435462
0.2633999
0.26244252
0.26152487
0.26063953
0.25978787
0.25897433
0.25819761
0.25745396
0.25674013
0.25605333
0.2553911
0.25475159
0.25413389
0.25353806
0.25296537
0.25241866
0.25190273
0.25142509
0.25099687
0.25063441
0.250361
0.25021055
0.25023027
0.25049111
0.25108605
0.25217098
0.2539142
0.25670067
0.26073954
0.26715375
0.27568812
0.28980774
0.30696531
0.26784353
0.26732839
0.26616248
0.26534115
0.26450231
0.26353642
0.26256882
0.26164652
0.26076031
0.25990941
0.2590978
0.25832378
0.25758308
0.25687215
0.25618804
0.25552813
0.25489045
0.25427394
0.25367846
0.25310503
0.25255606
0.25203581
0.25155095
0.25111143
0.25073183
0.25043295
0.25024494
0.25020962
0.2503894
0.25086569
0.25177272
0.25325607
0.25563273
0.25909247
0.26447516
0.27173823
0.28292978
0.29728866
0.2680648
0.26757297
0.26636957
0.26550785
0.26465082
0.26367051
0.26269061
0.26176255
0.26087505
0.26002489
0.25921544
0.25844449
0.25770716
0.25699955
0.25631852
0.25566127
0.25502573
0.25441064
0.2538157
0.25324163
0.25269044
0.25216581
0.25167356
0.25122244
0.25082525
0.25050026
0.25027384
0.25018247
0.25028001
0.25063674
0.25136549
0.25259116
0.25456496
0.25746312
0.26186689
0.26791494
0.2765273
0.28834205
0.26831212
0.26783634
0.26658679
0.26567745
0.26479649
0.26379774
0.26280321
0.2618683
0.26097909
0.26012972
0.25932277
0.25855534
0.25782187
0.25711806
0.25644053
0.25578634
0.25515324
0.25453984
0.25394563
0.25337103
0.25281766
0.2522886
0.25178881
0.2513258
0.2509106
0.25055891
0.25029332
0.25014502
0.25015945
0.25039609
0.25094704
0.25191803
0.25349871
0.25585358
0.25933795
0.26424123
0.27058354
0.28016484
0.26859042
0.26811892
0.2668109
0.26584581
0.26493451
0.26391257
0.26290112
0.26195853
0.26106743
0.26021911
0.25941522
0.25865195
0.25792295
0.25722351
0.25654999
0.25589928
0.25526898
0.25465753
0.25406423
0.25348922
0.2529337
0.25240013
0.25189263
0.25141745
0.25098381
0.25060486
0.25029942
0.25009342
0.25002407
0.2501404
0.25051475
0.25123469
0.25243415
0.25426485
0.25689333
0.26072234
0.26508412
0.27267303
0.26891191
0.26842482
0.26704098
0.26601096
0.26506164
0.26401047
0.26297973
0.26202896
0.26113593
0.26028914
0.25948909
0.25873077
0.25800696
0.2573125
0.25664353
0.25599672
0.25536953
0.25476028
0.25416803
0.25359267
0.25303498
0.25249681
0.25198139
0.25149373
0.25104124
0.25063451
0.25028861
0.25002434
0.24987085
0.24986713
0.25006696
0.25054057
0.25137289
0.25270055
0.25453958
0.25736625
0.26002618
0.26581564
0.26928555
0.26875107
0.26726948
0.26616752
0.26517277
0.26408597
0.26303444
0.26207567
0.26118082
0.26033606
0.25954058
0.25878781
0.25806964
0.25738055
0.25671638
0.25607362
0.25544964
0.2548426
0.25425142
0.25367569
0.25311579
0.25257301
0.25204972
0.25154972
0.25107867
0.25064473
0.25025939
0.2499386
0.24970408
0.24958544
0.24961999
0.24986197
0.25035572
0.25122163
0.25236367
0.25429942
0.25555948
0.25981518
0.26970314
0.26908664
0.26748408
0.2663079
0.26526279
0.26413543
0.26306334
0.26209753
0.26120113
0.26035879
0.25956827
0.25882118
0.25810861
0.25742475
0.25676518
0.25612627
0.25550527
0.25490028
0.25431004
0.25373392
0.25317194
0.25262486
0.25209429
0.25158295
0.25109492
0.25063619
0.25021509
0.2498433
0.24953608
0.249315
0.2492036
0.24924262
0.24944473
0.24991584
0.25048103
0.25168033
0.25185441
0.2548907
0.27014875
0.26941875
0.26767298
0.26642511
0.26532748
0.26415691
0.26306614
0.26209488
0.26119752
0.26035824
0.25957312
0.25883181
0.25812482
0.25744608
0.25679098
0.25615576
0.25553766
0.25493467
0.25434543
0.2537691
0.25320541
0.25265465
0.25211778
0.25159654
0.2510937
0.25061333
0.25016107
0.24974496
0.24937483
0.24906554
0.24882944
0.24869632
0.24865441
0.2487982
0.24889698
0.24950491
0.24885006
0.25093745
0.27061402
0.26973261
0.2678218
0.26650926
0.26535862
0.26414464
0.26303929
0.26206544
0.26116885
0.26033425
0.2595557
0.25882096
0.25812013
0.25744696
0.25679667
0.25616546
0.25555056
0.25494991
0.25436206
0.25378601
0.25322123
0.25266761
0.25212555
0.25159597
0.25108044
0.25058144
0.25010228
0.24964791
0.24922355
0.24883853
0.24849592
0.24821686
0.24797012
0.24784221
0.24756053
0.24769287
0.24639382
0.24774193
0.27110466
0.27001771
0.26792492
0.26655986
0.26535554
0.2640997
0.26298541
0.26201248
0.26111919
0.26029153
0.25952121
0.25879421
0.25810044
0.25743356
0.25678866
0.25616196
0.25555072
0.25495288
0.25436691
0.25379169
0.25322648
0.25267086
0.2521247
0.25158823
0.25106203
0.25054716
0.25004495
0.24955773
0.24908684
0.24863701
0.24820357
0.24780097
0.24738195
0.2470286
0.24643418
0.24618447
0.2443756
0.24515184
0.27162538
0.27025899
0.26798019
0.26658475
0.26532832
0.26403496
0.26291833
0.26194959
0.26106184
0.26024296
0.25948196
0.25876336
0.25807708
0.25741675
0.25677741
0.25615537
0.25554793
0.25495305
0.25436917
0.25379509
0.25322989
0.25267286
0.25212346
0.25158133
0.25104615
0.25051782
0.24999595
0.24948067
0.24896998
0.2484649
0.24795415
0.24744722
0.24688315
0.24634305
0.24548982
0.24493433
0.24271441
0.24305576
0.2722635
0.27050957
0.26803141
0.2666192
0.26530407
0.26397448
0.26285911
0.26189519
0.26101344
0.26020363
0.25945171
0.25874109
0.25806183
0.25740754
0.2567733
0.25615548
0.25555149
0.25495932
0.25437739
0.25380443
0.25323938
0.25268129
0.25212927
0.25158244
0.25103974
0.25050006
0.24996153
0.24942245
0.24887797
0.24832607
0.24774983
0.24715522
0.2464691
0.24577491
0.24470636
0.24390793
0.24135031
0.24137101
0.27299023
0.27075678
0.26808613
0.26667419
0.26529279
0.26392928
0.2628178
0.26185825
0.2609823
0.26018118
0.25943754
0.25873403
0.25806095
0.25741191
0.25678203
0.25616783
0.2555668
0.25497697
0.25439676
0.25382485
0.25326006
0.25270126
0.25214724
0.2515967
0.25104793
0.25049897
0.2499467
0.24938787
0.24881518
0.2482242
0.24759307
0.24692551
0.24613721
0.24531686
0.24406859
0.24307954
0.24023942
0.24003582
0.27380427
0.27097308
0.26813025
0.26673777
0.26528446
0.26389323
0.2627895
0.26183495
0.26096565
0.26017349
0.25943789
0.25874114
0.25807384
0.25742965
0.2568038
0.25619296
0.25559474
0.25500724
0.25442888
0.25385832
0.25329429
0.2527355
0.25218051
0.25162763
0.25107464
0.25051883
0.24995603
0.24938167
0.24878637
0.24816378
0.24748766
0.24676053
0.2458876
0.24496535
0.24356705
0.24243132
0.23935088
0.23900432
0.27468654
0.27111976
0.26814711
0.26679478
0.26526612
0.26385651
0.26276505
0.26181719
0.26095645
0.26017436
0.25944734
0.25875775
0.25809655
0.2574575
0.256836
0.25622896
0.2556341
0.25504961
0.25447395
0.25390578
0.25334377
0.25278653
0.25223238
0.25167934
0.25112473
0.25056521
0.2499957
0.24941055
0.24879855
0.24815183
0.24744024
0.24666598
0.24572415
0.24472125
0.24319796
0.24195256
0.23866439
0.23824291
0.27564584
0.27118077
0.26813818
0.26684122
0.26523365
0.26381563
0.26273992
0.26180045
0.26095032
0.26017955
0.25946199
0.25878043
0.25812619
0.25749322
0.25687717
0.25627518
0.25568515
0.25510534
0.25453428
0.25397063
0.25341301
0.25285992
0.25230951
0.25175951
0.25120683
0.2506476
0.25007593
0.24948522
0.24886267
0.24819921
0.24746114
0.24665101
0.24565413
0.24458883
0.24296145
0.24163704
0.23816615
0.23772532
0.27668837
0.27114157
0.26810935
0.26687698
0.26518853
0.26377221
0.26271436
0.26178469
0.26094702
0.26018871
0.25948169
0.25880943
0.25816367
0.25753857
0.2569301
0.25633559
0.25575309
0.25518093
0.25461766
0.25406192
0.25351227
0.25296707
0.25242429
0.25188137
0.25133484
0.25078031
0.25021114
0.24961995
0.24899244
0.24831867
0.24756167
0.24672491
0.24568418
0.24457111
0.24285617
0.24147714
0.23784216
0.23742565
0.27782313
0.27099358
0.26807114
0.26690454
0.26513551
0.26373046
0.26269134
0.2617729
0.26094957
0.26020526
0.2595107
0.25885019
0.25821583
0.25760198
0.2570048
0.25642178
0.25585102
0.25529083
0.25473973
0.25419625
0.25365886
0.25312573
0.25259459
0.2520626
0.25152587
0.25097954
0.25041626
0.24982797
0.24919909
0.24851901
0.24774785
0.24689049
0.24581353
0.24466305
0.24287262
0.24145722
0.23767147
0.23731179
0.27905192
0.27072751
0.2680326
0.26692457
0.26507906
0.26369443
0.26267484
0.26177044
0.26096504
0.26023849
0.25956088
0.25891719
0.25829961
0.25770254
0.25712217
0.25655598
0.25600204
0.25545857
0.25492396
0.25439664
0.25387486
0.2533566
0.25283934
0.25231992
0.2517941
0.2512566
0.25069953
0.25011426
0.24948419
0.24879834
0.24801427
0.24713873
0.24602958
0.24484808
0.2429905
0.24155166
0.23762503
0.23734463
0.28037069
0.27033409
0.26800112
0.26693593
0.26502331
0.26366853
0.26267117
0.26178716
0.26100716
0.26030618
0.25965356
0.25903441
0.25844057
0.25786631
0.25730784
0.25676264
0.25622877
0.25570439
0.25518781
0.25467731
0.25417101
0.25366671
0.25316168
0.25265256
0.25213485
0.25160304
0.25104884
0.25046334
0.24982915
0.2491352
0.24833689
0.24744313
0.24630359
0.24509485
0.24317641
0.24172316
0.23766448
0.23747609
0.28176926
0.26980535
0.26798607
0.26694138
0.26498049
0.26367034
0.2627064
0.26185797
0.26111732
0.26045331
0.25983453
0.25924609
0.25867995
0.25813069
0.25759491
0.25707037
0.25655524
0.2560477
0.25554599
0.25504833
0.2545528
0.25405712
0.25355855
0.2530537
0.252538
0.25200589
0.25144892
0.25085804
0.25021533
0.24950982
0.24869502
0.24778214
0.24661321
0.24537986
0.24340589
0.24194471
0.23776204
0.23767392
0.28324385
0.26913586
0.2679932
0.26694106
0.26496272
0.26371996
0.26280836
0.26201375
0.2613235
0.26070047
0.26011441
0.25955245
0.25900822
0.25847759
0.25795791
0.25744727
0.25694394
0.25644604
0.25595176
0.25545936
0.25496691
0.25447225
0.25397273
0.25346506
0.25294478
0.25240637
0.2518413
0.25124053
0.25058569
0.24986603
0.2490334
0.24810136
0.24690474
0.24564986
0.24362594
0.24216325
0.23786344
0.23788829
0.28457761
0.26845351
0.26803592
0.26696705
0.26502095
0.26386569
0.26301164
0.26226173
0.26160241
0.26099871
0.2604258
0.25987396
0.25933811
0.25881452
0.25830046
0.25779384
0.25729277
0.25679532
0.25629973
0.2558044
0.25530757
0.25480726
0.25430098
0.25378559
0.25325671
0.25270889
0.25213357
0.25152172
0.25085464
0.25012184
0.2492738
0.24832628
0.24710783
0.24583816
0.24377502
0.24231948
0.23791846
0.23805919
0.28565568
0.26788238
0.26811376
0.26706025
0.26518436
0.26410716
0.26328523
0.26254783
0.26189101
0.2612867
0.26071418
0.26016415
0.25963061
0.25910886
0.25859544
0.25808789
0.25758423
0.2570826
0.25658149
0.25607949
0.25557514
0.25506666
0.25455172
0.25402733
0.25348917
0.25293187
0.25234683
0.25172503
0.25104756
0.25030406
0.24944412
0.24848489
0.24725092
0.24597037
0.24388109
0.24242888
0.23796256
0.23817392
0.28666222
0.26734567
0.26826751
0.26727824
0.26548078
0.26443842
0.26360266
0.2628468
0.26217758
0.26156786
0.26099482
0.26044613
0.25991356
0.25939122
0.25887519
0.25836302
0.25785301
0.25734365
0.25683377
0.25632233
0.25580811
0.25528956
0.25476452
0.2542301
0.25368206
0.25311503
0.2525204
0.25188912
0.25120206
0.25044897
0.24957873
0.24860948
0.24736283
0.24607303
0.24396339
0.24251241
0.23799686
0.23825787
0.28758958
0.26688054
0.26855312
0.26763929
0.26585368
0.26476968
0.26388413
0.2631036
0.26242758
0.26181904
0.26124905
0.26070192
0.26016814
0.25964168
0.25911905
0.25859839
0.2580786
0.2575587
0.25703793
0.25651552
0.25599047
0.25546138
0.25492618
0.25438204
0.25382472
0.25324884
0.2526457
0.25200622
0.2513111
0.25055008
0.24967155
0.24869431
0.24743782
0.2461408
0.24401586
0.24256549
0.23801331
0.23831065
0.28845824
0.26656472
0.26902128
0.26808671
0.2661996
0.2650292
0.26410173
0.26331529
0.26264561
0.26204371
0.2614766
0.26092773
0.26038815
0.25985288
0.25931947
0.258787
0.25825505
0.25772308
0.2571906
0.25665703
0.25612144
0.25558248
0.25503809
0.2544854
0.25392015
0.25333688
0.25272682
0.2520808
0.25137938
0.25061229
0.24972753
0.24874438
0.24748076
0.24617855
0.24404278
0.24259303
0.23801495
0.23833811
0.28928993
0.26650035
0.26964739
0.26849578
0.26644115
0.26520873
0.26427548
0.26350214
0.26284338
0.26224504
0.26167464
0.2611174
0.2605662
0.2600176
0.25947031
0.25892418
0.25837928
0.25783524
0.25729167
0.25674795
0.25620314
0.25565583
0.25510389
0.25454437
0.25397293
0.25338403
0.2527688
0.252118
0.25141206
0.25064071
0.24975168
0.24876456
0.24749625
0.24619078
0.24404812
0.24259931
0.23800477
0.23834451
0.29010534
0.26676963
0.27028754
0.26877029
0.2665901
0.26535218
0.26443764
0.26367828
0.26302186
0.26241659
0.26183362
0.26126096
0.26069344
0.26012888
0.25956666
0.25900702
0.25845008
0.25789542
0.25734246
0.25679047
0.25623839
0.25568469
0.25512713
0.25456268
0.25398686
0.25339407
0.25277537
0.25212145
0.25141265
0.2506387
0.24974718
0.24875786
0.24748709
0.24618022
0.24403425
0.24258709
0.23798452
0.23833329
0.29103783
0.26760197
0.27083732
0.26892709
0.26670856
0.26549118
0.26458659
0.26382295
0.26315224
0.26252782
0.26192441
0.26133202
0.2607465
0.26016608
0.25959017
0.25901893
0.25845223
0.25788928
0.25732926
0.25677125
0.25621406
0.25565602
0.25509477
0.25452716
0.25394866
0.25335358
0.25273293
0.25207737
0.25136721
0.25059218
0.24969979
0.24871
0.24743889
0.24613257
0.24398669
0.24254262
0.23793956
0.23829205
0.29258885
0.26881916
0.27129938
0.26906094
0.26683181
0.26560909
0.2646815
0.26388873
0.26318874
0.26253773
0.26191143
0.2612999
0.26069868
0.26010551
0.2595193
0.25893986
0.25836658
0.25779826
0.25723386
0.2566723
0.25611225
0.2555519
0.25498882
0.25441979
0.2538402
0.25324436
0.25262323
0.25196747
0.25125743
0.25048285
0.24959132
0.24860291
0.24733373
0.24603038
0.2438881
0.24244978
0.23785304
0.23820888
0.29446471
0.26967801
0.27144158
0.26902757
0.26675784
0.26548116
0.26449928
0.26366184
0.26292686
0.26224897
0.26160225
0.26097531
0.26036245
0.25976045
0.25916756
0.25858323
0.25800621
0.25743499
0.25686839
0.25630522
0.25574401
0.25518289
0.25461937
0.25405017
0.25347069
0.2528752
0.2522547
0.25159988
0.2508911
0.25011825
0.24922895
0.24824355
0.24697817
0.24568009
0.24354397
0.24211482
0.23752816
0.23789034
0.2955655
0.27005829
0.27123718
0.26869682
0.26630721
0.26492931
0.26387808
0.26299607
0.2622316
0.26153359
0.260873
0.2602364
0.25961677
0.25900999
0.25841376
0.25782741
0.25724904
0.25667697
0.25610991
0.2555466
0.25498552
0.25442476
0.25386178
0.25329332
0.25271475
0.25212038
0.25150122
0.25084802
0.2501412
0.24937077
0.2484844
0.24750283
0.24624189
0.24495034
0.24282049
0.24140337
0.2368245
0.23719765
0.2958622
0.26924336
0.27054653
0.26791263
0.26543367
0.26400788
0.26293233
0.2620368
0.26126344
0.26055912
0.25989391
0.25925384
0.25863153
0.2580226
0.25742464
0.25683682
0.25625717
0.255684
0.25511599
0.25455186
0.25399006
0.25342867
0.25286515
0.25229622
0.25171726
0.25112259
0.25050322
0.24984992
0.24914311
0.24837291
0.24748686
0.24650619
0.24524581
0.24395683
0.24182682
0.24041706
0.23583396
0.23621485
0.29424806
0.26610144
0.26897806
0.26671696
0.26438262
0.26304215
0.26201598
0.26114734
0.26038814
0.25969119
0.25902962
0.25839108
0.25776901
0.25715958
0.25656056
0.25597094
0.25538924
0.25481396
0.25424384
0.25367757
0.25311362
0.25255008
0.25198438
0.25141326
0.25083208
0.25023513
0.2496134
0.24895764
0.24824821
0.24747525
0.24658602
0.24560213
0.24433728
0.24304489
0.24090698
0.2394957
0.2348961
0.23527477
0.2919526
0.26343113
0.26770173
0.26598583
0.2638666
0.26262577
0.26164911
0.26080568
0.26005968
0.25936981
0.25871201
0.25807534
0.25745405
0.25684472
0.25624531
0.25565471
0.25507182
0.25449528
0.25392385
0.25335625
0.25279095
0.25222602
0.25165892
0.25108636
0.25050369
0.2499052
0.24928186
0.2486244
0.24791311
0.24713812
0.24624655
0.24526011
0.24399197
0.24269633
0.240553
0.23913807
0.23452863
0.2349012
0.29117393
0.2625701
0.26728104
0.26582037
0.26380071
0.26259713
0.26163591
0.2607996
0.2600572
0.25936926
0.25871253
0.25807644
0.25745544
0.25684624
0.25624684
0.25565609
0.25507301
0.25449626
0.25392461
0.25335677
0.25279123
0.25222605
0.2516587
0.25108587
0.25050293
0.24990415
0.2492805
0.24862272
0.24791107
0.24713568
0.24624366
0.24525671
0.24398793
0.24269155
0.24054726
0.23913119
0.23452027
0.23489031
0.95207425
0.30768786
0.21845506
0.18447635
0.14352362
0.11909129
0.098513929
0.079233958
0.061130265
0.043528168
0.026119614
0.0088950241
-0.0081038751
-0.024796522
-0.041072637
-0.056810578
-0.071878858
-0.086141062
-0.099468921
-0.11173294
-0.12279235
-0.13249358
-0.14065227
-0.14699011
-0.15123429
-0.15195688
0.95057143
0.31308194
0.22420754
0.18710493
0.14463824
0.1196444
0.098882021
0.079520103
0.061366273
0.043729658
0.02629441
0.0090475037
-0.0079707238
-0.024680552
-0.040972207
-0.056724286
-0.071805253
-0.086078929
-0.099417023
-0.11169001
-0.12275705
-0.13246453
-0.14062806
-0.14696924
-0.15121559
-0.15193762
0.94920781
0.32016753
0.22860425
0.1914024
0.14732355
0.1214734
0.10038282
0.080862012
0.062603391
0.044884801
0.027380701
0.010074784
-0.0069937428
-0.023745983
-0.040072843
-0.055853343
-0.070955657
-0.0852449
-0.098593505
-0.11087258
-0.12194188
-0.13164846
-0.13980865
-0.14614505
-0.15038685
-0.15110228
0.94683932
0.32626718
0.22881151
0.19353468
0.15029021
0.12429015
0.10310339
0.08352373
0.065208909
0.047428126
0.029860698
0.012494297
-0.0046290015
-0.021428907
-0.037795618
-0.053607577
-0.068731898
-0.083035186
-0.096390994
-0.1086715
-0.11973756
-0.12943741
-0.13758867
-0.14391571
-0.14814961
-0.14885628
0.9427224
0.33163342
0.2289926
0.19291065
0.15140224
0.12610522
0.10529032
0.085923871
0.067750514
0.050050948
0.032528911
0.015187257
-0.0019225787
-0.018715476
-0.035078635
-0.050888449
-0.066010664
-0.08031135
-0.093664282
-0.10594199
-0.11700565
-0.12670401
-0.13485499
-0.14118347
-0.14541971
-0.14612919
0.93591212
0.33819385
0.23145939
0.19242095
0.15131968
0.12661032
0.10626957
0.087265402
0.069381035
0.051883855
0.034507335
0.017266951
0.0002297445
-0.016509595
-0.032832271
-0.048611266
-0.063710793
-0.07799491
-0.091337
-0.10360921
-0.1146722
-0.12437415
-0.13253216
-0.13886975
-0.14311409
-0.14383154
0.92644491
0.34565703
0.23606336
0.19315051
0.15107944
0.12614181
0.10591209
0.087217776
0.06965542
0.052433601
0.035267252
0.018174236
0.0012418255
-0.015424807
-0.031696254
-0.047438679
-0.062511568
-0.07677574
-0.09010356
-0.10236618
-0.11342329
-0.12312226
-0.13127896
-0.13761493
-0.14185439
-0.14256541
0.91481016
0.35270441
0.24164919
0.1951159
0.15161056
0.12574165
0.10505395
0.086268619
0.068844865
0.051883033
0.034959689
0.018058999
0.0012664866
-0.015303784
-0.031502414
-0.047192972
-0.062228488
-0.076464963
-0.089771982
-0.10201814
-0.11306143
-0.12274818
-0.13089284
-0.13721516
-0.1414377
-0.14213202
0.90079758
0.35914418
0.2477164
0.19800692
0.15320615
0.1262692
0.10482626
0.085494784
0.067807604
0.050856151
0.034100499
0.017406752
0.00078934522