/*--------------------------------*- C++ -*----------------------------------*\
| =========                 |                                                 |
| \\      /  F ield         | OpenFOAM: The Open Source CFD Toolbox           |
|  \\    /   O peration     | Version:  2.4.0                                 |
|   \\  /    A nd           | Web:      www.OpenFOAM.org                      |
|    \\/     M anipulation  |                                                 |
\*---------------------------------------------------------------------------*/
FoamFile
{
    version     2.0;
    format      ascii;
    class       volSymmTensorField;
    location    "2000";
    object      Rx;
}
// * * * * * * * * * * * * * * * * * * * * * * * * * * * * * * * * * * * * * //

dimensions      [0 0 0 0 0 0 0];

internalField   nonuniform List<symmTensor> 
15296
(
(-0.0084129447 -0.0030277366 -7.3858043e-14 0.0026070218 6.8300776e-12 0.0058059229)
(0.000537257 -0.001214067 5.4623334e-16 -0.00019279414 6.6045424e-12 -0.00034446286)
(0.0021250846 -0.0010007936 8.243127e-13 -0.00071788719 6.6385566e-12 -0.0014071974)
(0.0032431226 -0.00088692121 9.7474541e-16 -0.0010955334 6.5323631e-12 -0.0021475892)
(0.0042451444 -0.00079297085 1.3961867e-15 -0.0014376798 6.5293892e-12 -0.0028074645)
(0.0047608529 -0.00071735908 -8.63325e-13 -0.0016180644 6.3874625e-12 -0.0031427885)
(0.0049280551 -0.00065782802 -6.2296544e-16 -0.0016819263 6.5213746e-12 -0.0032461288)
(0.0049179517 -0.00060984199 -1.1581451e-16 -0.0016864104 6.6580763e-12 -0.0032315412)
(0.0047936051 -0.00057059042 -3.6503417e-16 -0.0016521755 6.6706353e-12 -0.0031414297)
(0.0045968628 -0.00053802669 -9.8625055e-16 -0.0015929962 6.8169972e-12 -0.0030038666)
(0.004367316 -0.00050991916 1.8754345e-12 -0.001522196 6.9929576e-12 -0.00284512)
(0.00413037 -0.00048404239 4.7103653e-16 -0.0014483988 6.9762968e-12 -0.0026819712)
(0.0038977078 -0.00045820888 -1.9386424e-12 -0.0013756049 6.9376689e-12 -0.002522103)
(0.0036723716 -0.00042956702 -9.8732595e-13 -0.0013049202 7.0557336e-12 -0.0023674514)
(0.0034501122 -0.00039246711 1.0008466e-12 -0.0012350306 7.4219583e-12 -0.0022150816)
(0.0032175788 -0.00033358823 4.5108575e-16 -0.0011616231 7.4000777e-12 -0.0020559557)
(0.0029490248 -0.00022310999 1.3839093e-16 -0.0010763639 7.4725268e-12 -0.001872661)
(0.0026017818 -1.794474e-06 -2.2604875e-16 -0.0009656085 7.5416409e-12 -0.0016361733)
(0.0021114265 0.00043491281 -7.9837927e-16 -0.00080949499 7.6850813e-12 -0.0013019315)
(0.0013885081 0.00125103 -1.0912472e-12 -0.00058301274 7.7592352e-12 -0.0008054954)
(0.00031951824 0.0026754868 -1.1109396e-12 -0.00026183014 7.9866889e-12 -5.7688099e-05)
(-0.0012257353 0.0049852926 -3.1183629e-15 0.00016428475 8.3375987e-12 0.0010614505)
(-0.0033868599 0.0084558301 -1.1505808e-12 0.00067344292 8.7783229e-12 0.002713417)
(-0.0063183028 0.013293446 -4.5780033e-15 0.0012012454 9.1605712e-12 0.0051170574)
(-0.010213887 0.019580293 2.3620139e-12 0.0016544391 9.6132518e-12 0.0085594478)
(-0.015319433 0.027243437 -1.4689597e-14 0.001952804 1.1010861e-11 0.013366629)
(-0.021910568 0.036038157 2.4063286e-12 0.0020991866 1.1949316e-11 0.019811381)
(-0.030226147 0.046214632 -5.7863386e-14 0.0020675216 1.4515807e-11 0.028158626)
(-0.041109964 0.05806101 -1.4971411e-13 0.0020508862 1.8962228e-11 0.039059078)
(-0.059804517 0.077654292 -4.4988154e-13 -0.0073748444 3.3841066e-11 0.067179362)
(-0.073634016 0.099411509 -1.04177e-12 -0.019472668 5.2172656e-11 0.093106683)
(-0.073547835 0.099524837 -8.1005163e-13 -0.019475786 4.2798176e-11 0.093023621)
(-0.074598909 0.10008142 -1.0390969e-12 -0.017191116 3.2783685e-11 0.091790025)
(-0.079338359 0.10064865 -3.9857898e-13 -0.0092766709 1.9552895e-11 0.08861503)
(-0.086096168 0.1002121 -1.6708817e-13 0.0011484043 1.2996265e-11 0.084947764)
(-0.087871684 0.097904093 -2.6066443e-13 -0.00069095673 1.5831217e-11 0.08856264)
(-0.075995071 0.1037588 -4.7160627e-13 -0.0082341663 1.6688063e-11 0.084229237)
(-0.097495178 -0.075382861 -1.4935814e-13 -0.00039920778 1.2521613e-11 0.097894386)
(-0.0076548166 -0.0066223206 -9.0971188e-14 0.0034144301 2.8050546e-12 0.0042403866)
(0.00058753227 -0.0029360103 -1.9900465e-15 -0.00030048814 2.7236481e-12 -0.00028704414)
(0.0021334347 -0.0023877839 1.7954946e-15 -0.0010310831 2.7115929e-12 -0.0011023516)
(0.003249914 -0.0021655112 5.5863933e-13 -0.001568396 2.7182685e-12 -0.001681518)
(0.0042538377 -0.0020089527 2.8538568e-13 -0.002052513 2.7244819e-12 -0.0022013247)
(0.0047726413 -0.0018909821 1.4550243e-15 -0.0023034057 2.6455407e-12 -0.0024692355)
(0.0049431626 -0.0018023295 -1.6141758e-16 -0.002386669 2.6862606e-12 -0.0025564936)
(0.0049363629 -0.0017336207 2.9780596e-13 -0.0023844877 2.7745985e-12 -0.0025518752)
(0.0048151537 -0.0016780802 -3.0329681e-13 -0.002327126 2.7272592e-12 -0.0024880276)
(0.0046212593 -0.00163147 3.0664787e-13 -0.0022346632 2.8426621e-12 -0.0023865961)
(0.0043942846 -0.0015904607 6.2595748e-13 -0.0021261858 2.9182878e-12 -0.0022680988)
(0.00415971 -0.0015519651 -3.590119e-16 -0.0020139894 2.8796514e-12 -0.0021457206)
(0.0039293061 -0.001512823 -1.2646636e-15 -0.0019037687 2.8630492e-12 -0.0020255374)
(0.003706264 -0.0014687203 -2.4594307e-15 -0.0017971057 2.9109407e-12 -0.0019091584)
(0.0034866558 -0.0014108974 3.3283875e-13 -0.0016922095 3.0715737e-12 -0.0017944463)
(0.0032577886 -0.00131859 8.147264e-16 -0.001583177 3.0356007e-12 -0.0016746116)
(0.0029951223 -0.0011452569 7.7698211e-16 -0.0014585811 3.0735968e-12 -0.0015365412)
(0.0026579939 -0.00079811617 -7.024261e-13 -0.0012995092 3.0630587e-12 -0.0013584848)
(0.0021851409 -0.00011236397 -3.5912804e-13 -0.0010775898 3.1127896e-12 -0.0011075511)
(0.0014922435 0.0011731867 3.6064677e-13 -0.00075430683 3.2130566e-12 -0.00073793663)
(0.00047496455 0.0034287979 -3.22096e-15 -0.00028376573 3.2597068e-12 -0.00019119882)
(-0.0009791462 0.0071145204 -3.7289293e-15 0.0003787217 3.3720676e-12 0.0006004245)
(-0.0029755261 0.012712313 -4.7476695e-15 0.0012643525 3.5283675e-12 0.0017111736)
(-0.0056083749 0.020631004 -7.8231789e-15 0.0023819564 3.662345e-12 0.0032264184)
(-0.0089775947 0.031130566 -1.0812836e-14 0.0037180332 3.8864848e-12 0.0052595615)
(-0.013197843 0.044283972 -1.9510251e-14 0.005230628 4.159418e-12 0.0079672151)
(-0.01836046 0.059964333 -3.3772328e-14 0.006811953 4.6081222e-12 0.011548507)
(-0.024309422 0.07889613 3.2836859e-13 0.0080575068 4.8798027e-12 0.016251915)
(-0.030930799 0.10120675 -1.6602983e-13 0.0080855344 6.4829691e-12 0.022845264)
(-0.034376779 0.1241439 -2.725661e-13 0.00094693292 9.0418141e-12 0.033429846)
(-0.031088863 0.12478959 -1.9369106e-13 0.0017939255 1.0076379e-11 0.029294937)
(-0.031522498 0.12473479 -1.4874636e-13 0.0021029633 8.2641691e-12 0.029419535)
(-0.03336669 0.12449465 -2.3352494e-13 0.0034874137 6.5146221e-12 0.029879277)
(-0.03847391 0.12371813 -1.4806535e-13 0.0071792566 4.1238918e-12 0.031294654)
(-0.044788719 0.12252461 -1.7507721e-13 0.011609269 3.0005828e-12 0.03317945)
(-0.046354491 0.12211546 -1.4435056e-13 0.012042765 3.4966875e-12 0.034311726)
(-0.039261222 0.12364672 -1.1082546e-13 0.010711624 3.0326888e-12 0.028549597)
(-0.0088574687 -0.11939504 -6.8715871e-13 -0.0063721686 3.3060571e-12 0.015229637)
(-0.0069200559 -0.0099572974 7.1884829e-14 0.0030632229 2.0318312e-12 0.003856833)
(0.00068525467 -0.0049053194 -4.6585654e-15 -0.00038151283 2.0320951e-12 -0.00030374184)
(0.0021496773 -0.0039075834 2.5314126e-15 -0.0010703537 1.9832622e-12 -0.0010793236)
(0.0032559984 -0.0035366867 1.2517935e-15 -0.0016128019 1.9954627e-12 -0.0016431965)
(0.0042564886 -0.003288366 1.7916326e-15 -0.0021056918 1.9970035e-12 -0.0021507968)
(0.0047732944 -0.0031032439 3.4719456e-13 -0.0023602361 1.9695377e-12 -0.0024130583)
(0.0049423491 -0.0029653247 -1.7505422e-13 -0.0024433044 1.9372621e-12 -0.0024990447)
(0.0049343262 -0.0028593312 -3.5721779e-13 -0.0024390166 1.9992226e-12 -0.0024953096)
(0.0048121336 -0.0027742679 3.6232222e-13 -0.0023784167 2.0152073e-12 -0.002433717)
(0.0046174354 -0.0027035047 3.1385775e-16 -0.0022820744 2.0834512e-12 -0.002335361)
(0.0043897789 -0.002642171 7.543598e-16 -0.0021695109 2.137815e-12 -0.002220268)
(0.0041546423 -0.0025860238 -1.7148155e-15 -0.0020533076 2.104106e-12 -0.0021013347)
(0.003923838 -0.0025310028 -2.1377028e-15 -0.0019393118 2.1082877e-12 -0.0019845262)
(0.0037006833 -0.0024720504 -2.3088345e-15 -0.0018292116 2.1453148e-12 -0.0018714717)
(0.0034815911 -0.0023996358 -1.3457474e-15 -0.001721376 2.2459352e-12 -0.0017602151)
(0.0032546295 -0.0022917321 7.7173993e-16 -0.0016102342 2.2287122e-12 -0.0016443952)
(0.0029966789 -0.0020989728 9.1585883e-16 -0.0014849758 2.2557707e-12 -0.0015117031)
(0.0026693514 -0.0017221264 8.0480944e-17 -0.0013276177 2.2448478e-12 -0.0013417337)
(0.0022144759 -0.00098296312 -1.5875646e-15 -0.0011107427 2.2801713e-12 -0.0011037332)
(0.001551068 0.00040482468 2.1476206e-13 -0.00079570326 2.4067495e-12 -0.00075536478)
(0.00057678356 0.0028541719 -4.5466019e-15 -0.0003325315 2.4091569e-12 -0.00024425205)
(-0.00082301404 0.0068915429 2.2147147e-13 0.0003369923 2.5009302e-12 0.00048602175)
(-0.0027627859 0.013093479 -4.6449695e-13 0.0012741822 2.5768026e-12 0.0014886037)
(-0.0053513629 0.021993431 -8.9046387e-15 0.0025379943 2.7157467e-12 0.0028133686)
(-0.0086981468 0.034009043 -2.4886291e-13 0.0041740893 2.904752e-12 0.0045240575)
(-0.012891458 0.049409077 2.2013632e-13 0.0061637736 2.9725938e-12 0.0067276844)
(-0.017869165 0.068299968 -5.1600431e-13 0.0082598102 3.4052849e-12 0.0096093551)
(-0.023032961 0.091679629 -7.3449077e-14 0.0095415467 3.3573747e-12 0.013491415)
(-0.026904855 0.11806487 -6.2726258e-13 0.0072436626 4.1148462e-12 0.019661192)
(-0.028686518 0.12544604 4.8327229e-15 0.0077182293 3.8678837e-12 0.020968289)
(-0.0274901 0.12561392 -1.3608051e-13 0.0078211547 4.1403627e-12 0.019668946)
(-0.02875093 0.12546256 -2.8349116e-14 0.0085786712 3.3780963e-12 0.020172259)
(-0.031098072 0.12515681 -1.6034866e-13 0.0098719641 2.7976032e-12 0.021226108)
(-0.035393757 0.12450746 -1.1201978e-13 0.012080204 2.1359917e-12 0.023313553)
(-0.040146487 0.12366271 -1.0140174e-13 0.014262154 1.8346104e-12 0.025884333)
(-0.043131539 0.12303553 -1.0648783e-13 0.016224898 1.9486232e-12 0.026906641)
(-0.037755797 0.12396025 -6.6547717e-14 0.015608685 1.416847e-12 0.022147111)
(-0.020125446 -0.11463192 -1.1834615e-13 0.032580058 1.0779686e-12 -0.012454611)
(-0.0062900345 -0.012722623 -8.0014903e-14 0.0027071062 1.4804359e-12 0.0035829284)
(0.00082208915 -0.0069202752 -7.314871e-15 -0.00048659074 1.5644942e-12 -0.00033549841)
(0.0021811331 -0.0054524 -1.1519468e-13 -0.0011030278 1.4816687e-12 -0.0010781053)
(0.003269844 -0.0049168304 1.3969651e-15 -0.0016351122 1.4854784e-12 -0.0016347319)
(0.0042660325 -0.0045724851 1.2368468e-13 -0.0021278234 1.5097967e-12 -0.0021382092)
(0.0047808328 -0.004317465 -2.4635084e-13 -0.0023822873 1.4673276e-12 -0.0023985455)
(0.0049486425 -0.0041278534 4.6181763e-16 -0.0024647587 1.4393257e-12 -0.0024838838)
(0.0049398517 -0.0039823942 9.4584438e-16 -0.0024597426 1.4722688e-12 -0.0024801091)
(0.0048172142 -0.0038659212 -5.4692443e-16 -0.0023983256 1.5168836e-12 -0.0024188886)
(0.0046222431 -0.0037694384 1.0305984e-15 -0.002301087 1.5488212e-12 -0.0023211561)
(0.0043944172 -0.0036864897 9.3997998e-16 -0.002187624 1.5907377e-12 -0.0022067932)
(0.0041592147 -0.0036116201 -2.9546246e-15 -0.0020705907 1.56912e-12 -0.002088624)
(0.0039284893 -0.003539841 -2.881297e-15 -0.0019558892 1.5825947e-12 -0.0019726001)
(0.0037056852 -0.0034653541 1.3850284e-13 -0.0018452927 1.6265682e-12 -0.0018603925)
(0.0034875625 -0.003377933 -1.4841472e-15 -0.0017373788 1.6779299e-12 -0.0017501837)
(0.0032629747 -0.0032545689 1.4659058e-13 -0.0016270458 1.6946636e-12 -0.001635929)
(0.0030102959 -0.0030437666 1.1244741e-15 -0.0015043884 1.6977177e-12 -0.0015059074)
(0.0026935911 -0.0026413111 3.0142373e-13 -0.0013529332 1.7171722e-12 -0.0013406578)
(0.002258164 -0.0018583363 -9.2335348e-16 -0.0011474412 1.7273296e-12 -0.0011107227)
(0.0016271469 -0.00038839817 -3.8589905e-15 -0.00085194572 1.8278054e-12 -0.00077520116)
(0.00070173528 0.0022154172 -3.2299521e-13 -0.00041905792 1.8091341e-12 -0.00028267736)
(-0.00063206497 0.0065310137 -4.8082724e-15 0.00020817498 1.9176456e-12 0.00042388999)
(-0.002493391 0.013204084 -5.9316906e-15 0.0010924518 1.9514709e-12 0.0014009392)
(-0.0050009052 0.022849943 -1.7591497e-13 0.0022966108 2.0914932e-12 0.0027042944)
(-0.0082721427 0.035972757 -1.3680659e-14 0.0038671813 2.241509e-12 0.0044049614)
(-0.012379459 0.05292318 -3.6119775e-13 0.0057612943 2.3947227e-12 0.0066181647)
(-0.017144267 0.073864365 -2.0304414e-13 0.0076059696 2.6453983e-12 0.0095382972)
(-0.021694843 0.099514242 -6.872254e-14 0.0081669635 2.6785484e-12 0.013527879)
(-0.024434485 0.12595432 1.895535e-13 0.0054788763 2.7963587e-12 0.018955609)
(-0.027518442 0.12561624 -1.5078226e-14 0.0084845667 2.5785354e-12 0.019033875)
(-0.027097544 0.12567395 -1.0544593e-13 0.0077436247 2.7417641e-12 0.019353919)
(-0.029122268 0.12543146 -9.3572567e-14 0.0088774428 2.3503028e-12 0.020244826)
(-0.031749461 0.12508343 -8.9500254e-14 0.010226222 1.9558977e-12 0.021523239)
(-0.035086731 0.12457705 -1.2048003e-13 0.011915938 1.6620935e-12 0.023170793)
(-0.038389554 0.12401719 -1.0140582e-13 0.013337632 1.5260012e-12 0.025051921)
(-0.043216912 0.12304126 -9.1777576e-14 0.016177987 1.5686677e-12 0.027038925)
(-0.037442553 0.12401755 -3.7178023e-14 0.015451182 1.1290199e-12 0.021991371)
(-0.038971526 -0.10958792 -2.5076061e-14 0.051891813 5.4313641e-13 -0.012920287)
(-0.0057380644 -0.014990164 -7.230563e-14 0.0023737675 1.0986109e-12 0.0033642969)
(0.00097372929 -0.0089051999 8.0730359e-14 -0.00059089496 1.2687375e-12 -0.00038283433)
(0.0022234272 -0.0070025815 9.3451358e-14 -0.0011377657 1.1780277e-12 -0.0010856615)
(0.0032868484 -0.0062951162 1.9975565e-15 -0.0016519346 1.1521507e-12 -0.0016349138)
(0.0042760687 -0.0058541623 2.1394906e-15 -0.002140211 1.1756121e-12 -0.0021358577)
(0.0047877286 -0.0055299336 9.6011291e-14 -0.0023927445 1.145241e-12 -0.0023949842)
(0.0049536395 -0.0052890585 5.0678482e-16 -0.0024738667 1.1275658e-12 -0.0024797728)
(0.004943637 -0.0051043181 1.6045813e-15 -0.0024677854 1.1459156e-12 -0.0024758516)
(0.004820271 -0.0049564992 -1.0123715e-13 -0.0024055368 1.1578837e-12 -0.0024147342)
(0.0046248556 -0.0048343161 1.7294528e-15 -0.0023076191 1.1968866e-12 -0.0023172366)
(0.004396757 -0.0047297847 1.1285585e-15 -0.0021935886 1.2242067e-12 -0.0022031684)
(0.0041614287 -0.0046362903 -4.113836e-15 -0.0020761026 1.212775e-12 -0.0020853261)
(0.0039307524 -0.0045479711 1.0452442e-13 -0.0019610874 1.2480859e-12 -0.001969665)
(0.0037082933 -0.0044583766 -1.1212818e-13 -0.0018503945 1.2604361e-12 -0.0018578988)
(0.0034911633 -0.0043567993 1.0993285e-13 -0.0017428256 1.3205263e-12 -0.0017483377)
(0.0032690304 -0.0042197985 1.0667078e-15 -0.0016338062 1.34018e-12 -0.0016352242)
(0.0030218418 -0.0039950781 1.3871852e-15 -0.0015144619 1.3304344e-12 -0.0015073798)
(0.0027163032 -0.003576224 1.0775864e-16 -0.0013700782 1.3571702e-12 -0.001346225)
(0.0023016299 -0.0027688639 -1.1990326e-13 -0.0011781173 1.3458196e-12 -0.0011235126)
(0.0017061456 -0.0012548624 -3.6846505e-13 -0.00090652264 1.3931533e-12 -0.000799623)
(0.00083725491 0.0014340295 2.3972651e-13 -0.00051353747 1.429069e-12 -0.00032371744)
(-0.00041220844 0.0059096178 -5.0624643e-15 4.9278666e-05 1.5294186e-12 0.00036292977)
(-0.0021535528 0.012863316 -6.3210823e-15 0.00083082008 1.5593583e-12 0.0013227327)
(-0.0044943554 0.022959307 -9.2818284e-15 0.0018712408 1.6525971e-12 0.0026231146)
(-0.0075337039 0.036736313 -1.4518241e-13 0.0031820556 1.8068261e-12 0.0043516483)
(-0.011311805 0.054543007 -1.7835388e-14 0.0046699079 1.9953244e-12 0.0066418974)
(-0.01558079 0.076466974 -2.9963627e-14 0.0058844416 2.0605196e-12 0.0096963489)
(-0.019494956 0.10259581 -6.5356942e-14 0.0056388484 2.1660449e-12 0.013856108)
(-0.022402587 0.12615616 -1.2503925e-13 0.0039150128 2.2719922e-12 0.018487574)
(-0.025924084 0.12581379 -1.1682251e-13 0.0064750528 2.2430284e-12 0.019449031)
(-0.026998774 0.12569433 -1.9674574e-14 0.006287272 2.1449624e-12 0.020711502)
(-0.029756173 0.12536125 -8.4575816e-14 0.0076798557 1.9704029e-12 0.022076318)
(-0.032574255 0.12497824 -8.3556461e-14 0.0090013463 1.6663257e-12 0.023572909)
(-0.034823056 0.12463452 -3.9609743e-14 0.010231833 1.4704148e-12 0.024591223)
(-0.03623166 0.12441126 -8.4476178e-14 0.010970027 1.3961281e-12 0.025261633)
(-0.042521186 0.12320487 -7.4833196e-14 0.014146016 1.4399302e-12 0.02837517)
(-0.038265094 0.12387395 -1.8928895e-14 0.01529574 1.049283e-12 0.022969354)
(-0.045399177 -0.10869674 -2.5606818e-15 0.053518904 3.084783e-13 -0.0081197266)
(-0.0051262734 -0.017265671 1.1704515e-13 0.0019873666 8.031984e-13 0.0031389068)
(0.0011739576 -0.011333104 8.0658136e-14 -0.00072265619 1.0103326e-12 -0.00045130138)
(0.0022916413 -0.0089853332 -9.2568298e-14 -0.0011879534 8.9953218e-13 -0.001103688)
(0.0033150471 -0.0080591721 1.7712041e-15 -0.0016709273 8.8086201e-13 -0.0016441199)
(0.0042923945 -0.0074951258 -9.332005e-14 -0.0021486369 8.6757166e-13 -0.0021437575)
(0.0047990028 -0.0070843507 -8.5388145e-16 -0.0023967419 8.7271529e-13 -0.0024022609)
(0.004961952 -0.0067793804 9.9239799e-14 -0.0024754884 8.8002593e-13 -0.0024864636)
(0.0049499992 -0.0065453506 1.8995214e-15 -0.0024678726 8.7649374e-13 -0.0024821266)
(0.0048254051 -0.0063581275 -1.3201391e-16 -0.0024047145 8.739467e-13 -0.0024206906)
(0.0046292059 -0.0062037033 2.8190246e-15 -0.0023063088 9.0643426e-13 -0.0023228971)
(0.0044005941 -0.006072331 -3.1588195e-13 -0.0021920416 8.7672613e-13 -0.0022085525)
(0.0041649758 -0.005956138 -5.0385249e-15 -0.0020745002 9.1293721e-13 -0.0020904755)
(0.0039342593 -0.0058484461 -4.0804738e-15 -0.0019596098 9.5785279e-13 -0.0019746495)
(0.0037121515 -0.0057424635 1.0841008e-13 -0.0018493021 9.8347083e-13 -0.0018628494)
(0.0034961906 -0.0056279516 -1.1331583e-15 -0.0017426476 1.0125923e-12 -0.001753543)
(0.0032770497 -0.0054836338 1.0730895e-15 -0.0016357225 1.0285712e-12 -0.0016413272)
(0.003036642 -0.0052625317 1.6269425e-15 -0.0015209425 1.0284682e-12 -0.0015156995)
(0.0027449955 -0.0048685045 -1.189266e-13 -0.0013857863 1.0189085e-12 -0.0013592092)
(0.0023562151 -0.0041240931 -1.1035767e-15 -0.0012109362 1.0299778e-12 -0.0011452789)
(0.0018048656 -0.002735204 -1.2798755e-13 -0.00096834535 1.0327187e-12 -0.00083652026)
(0.0010049347 -0.00026287036 1.1782003e-13 -0.0006201031 1.1384853e-12 -0.00038483162)
(-0.00014585924 0.0038764601 -5.3270909e-15 -0.00011943828 1.195856e-12 0.00026529752)
(-0.0017578951 0.010357683 -7.167945e-15 0.00058574966 1.2349279e-12 0.0011721454)
(-0.0039432689 0.01984971 1.2230348e-13 0.0015465987 1.3089134e-12 0.0023966702)
(-0.0068143108 0.032919352 -1.2723412e-14 0.0027989745 1.4307301e-12 0.0040153363)
(-0.010446764 0.049964073 -2.880191e-13 0.0043036509 1.6104566e-12 0.006143113)
(-0.014679765 0.071122506 1.0845626e-13 0.0057317461 1.5932993e-12 0.0089480191)
(-0.019018131 0.096085353 8.2895477e-14 0.0062903639 1.7102205e-12 0.012727767)
(-0.022572033 0.12160056 -9.647979e-14 0.0043122612 2.0365719e-12 0.018259772)
(-0.027408068 0.12565103 -1.0468238e-13 0.0061739556 2.057401e-12 0.021234113)
(-0.030535041 0.12526383 -9.1570652e-14 0.0079051588 1.8903074e-12 0.022629882)
(-0.034273218 0.1247245 -8.5437182e-14 0.0094033298 1.7470896e-12 0.024869889)
(-0.037874535 0.12413474 -4.1631314e-14 0.010967216 1.533123e-12 0.026907318)
(-0.039946147 0.12375523 -8.5053851e-14 0.011965568 1.3976833e-12 0.027980579)
(-0.03883571 0.1239776 -7.6881465e-14 0.011705545 1.3401353e-12 0.027130165)
(-0.046248222 0.12242561 -8.4288128e-14 0.015088146 1.3875457e-12 0.031160076)
(-0.044486345 0.12260395 -8.2089291e-15 0.019306153 1.0351172e-12 0.025180192)
(-0.051663988 -0.10800045 4.5519265e-14 0.053845284 -5.9386669e-14 -0.0021812959)
(-0.0045094992 -0.019630532 -5.0879626e-14 0.0016317693 5.5282159e-13 0.00287773)
(0.0014391451 -0.014188559 -7.5375391e-14 -0.00090233165 7.5453269e-13 -0.00053681342)
(0.0024017918 -0.011454055 -6.6365991e-14 -0.0012724485 6.6342879e-13 -0.0011293433)
(0.0033638529 -0.010277776 1.4371824e-15 -0.0017113491 6.6783965e-13 -0.0016525038)
(0.0043209574 -0.0095644099 2.6340671e-15 -0.00217405 6.4513061e-13 -0.0021469074)
(0.0048187859 -0.0090491786 -6.9100419e-16 -0.0024156241 6.4766475e-13 -0.0024031618)
(0.0049765932 -0.0086668827 2.2635041e-16 -0.0024904893 6.7316927e-13 -0.002486104)
(0.0049612957 -0.0083731307 1.8756843e-15 -0.002480222 6.6410448e-13 -0.0024810737)
(0.0048345599 -0.0081379431 7.0489245e-14 -0.002415233 6.7841371e-13 -0.0024193269)
(0.0046369516 -0.0079441559 2.6836241e-15 -0.0023155219 6.8729212e-13 -0.0023214296)
(0.0044073838 -0.0077800135 -1.4440081e-13 -0.0022002955 6.0348219e-13 -0.0022070883)
(0.0041711614 -0.0076362455 -4.9314175e-15 -0.0020820684 6.7633523e-13 -0.002089093)
(0.0039401879 -0.0075053372 -3.9745292e-15 -0.0019667506 7.2087277e-13 -0.0019734373)
(0.0037182942 -0.0073803033 -2.94839e-15 -0.001856335 7.571584e-13 -0.0018619593)
(0.0035034454 -0.0072519108 -1.5233468e-15 -0.0017501298 7.6483107e-13 -0.0017533156)
(0.0032873602 -0.0071025786 1.45931e-15 -0.0016448193 7.8403671e-13 -0.0016425409)
(0.0030540503 -0.0068943998 1.4005402e-15 -0.0015340707 7.8883417e-13 -0.0015199796)
(0.0027771648 -0.0065494294 -4.8051959e-16 -0.0014075559 7.6328531e-13 -0.0013696089)
(0.0024162316 -0.0059217894 -1.3662207e-15 -0.0012492586 7.9583204e-13 -0.001166973)
(0.0019127964 -0.0047655017 -4.9651784e-15 -0.0010353055 7.8033617e-13 -0.00087749084)
(0.0011880667 -0.0027060772 -6.9676034e-15 -0.00073170462 8.8674137e-13 -0.00045636211)
(0.00014427233 0.00076679703 -5.8922797e-15 -0.0002927141 9.342537e-13 0.00014844177)
(-0.001331159 0.0062637856 -7.5631987e-15 0.00033975127 9.7115779e-13 0.00099140773)
(-0.003363066 0.01442116 8.1528191e-14 0.0012351253 1.064369e-12 0.0021279407)
(-0.0060932677 0.025823255 -1.1691099e-14 0.0024693101 1.1341254e-12 0.0036239576)
(-0.0096639287 0.040951597 -1.8341564e-14 0.004090218 1.2713267e-12 0.0055737107)
(-0.014069981 0.0600997 -2.7014272e-14 0.0059667048 1.3402712e-12 0.0081032762)
(-0.019194113 0.082899904 -3.9733641e-14 0.007708801 1.4792015e-12 0.011485312)
(-0.024382751 0.10737998 -6.7293716e-14 0.0082433057 1.6955807e-12 0.016139445)
(-0.029395404 0.12540441 -9.9344903e-14 0.0059516506 1.9200297e-12 0.023443754)
(-0.036565437 0.12436733 -9.3617018e-14 0.010884961 1.7576783e-12 0.025680476)
(-0.04172824 0.12342354 -9.1803735e-14 0.013210673 1.6071022e-12 0.028517567)
(-0.047149137 0.12226982 -9.3559732e-14 0.015547089 1.4774374e-12 0.031602047)
(-0.050669701 0.12140769 -9.3785495e-14 0.016853756 1.3659573e-12 0.033815944)
(-0.04672443 0.12238926 -7.6595958e-14 0.015422964 1.3221872e-12 0.031301465)
(-0.053992252 0.12054497 -8.4061013e-14 0.018264674 1.3672898e-12 0.035727578)
(-0.057178049 0.11927762 1.1249099e-15 0.026380041 1.0989573e-12 0.030798008)
(-0.087475418 -0.082070347 1.2155086e-13 0.092342335 -7.6541783e-13 -0.0048669173)
(-0.0039583283 -0.021727567 3.0476e-15 0.0013205801 3.8125146e-13 0.0026377482)
(0.001731601 -0.017050293 -1.313256e-14 -0.0010970859 5.6466128e-13 -0.00063451503)
(0.0025468324 -0.01411949 4.0820973e-14 -0.001381101 5.3143772e-13 -0.0011657315)
(0.0034336665 -0.012724016 1.3286329e-15 -0.001767115 5.1747702e-13 -0.0016665515)
(0.0043624387 -0.011860212 -9.0999349e-14 -0.0022087916 4.8918629e-13 -0.0021536471)
(0.0048474583 -0.011237319 -7.1490826e-16 -0.0024407347 4.9483001e-13 -0.0024067236)
(0.0049977494 -0.010774884 4.8753119e-14 -0.0025099061 5.258087e-13 -0.0024878433)
(0.0049776067 -0.010418687 2.4702377e-15 -0.0024958899 5.1660697e-13 -0.0024817167)
(0.0048477306 -0.010132842 1.4597145e-16 -0.002428371 5.2930409e-13 -0.0024193596)
(0.0046480043 -0.0098971033 1.0274404e-13 -0.0023268765 5.4509748e-13 -0.0023211278)
(0.0044169555 -0.0096977486 1.1098691e-15 -0.0022103492 4.6050357e-13 -0.0022066063)
(0.0041797267 -0.0095241089 -3.983094e-15 -0.0020911812 5.1017066e-13 -0.0020885455)
(0.0039481708 -0.0093678144 4.9529018e-14 -0.001975229 5.660859e-13 -0.0019729418)
(0.0037261932 -0.0092216372 -3.2097524e-15 -0.0018645033 5.7728312e-13 -0.0018616899)
(0.0035121049 -0.0090771991 5.3609962e-14 -0.0017584791 6.0514122e-13 -0.0017536258)
(0.0032985266 -0.008920268 1.9748834e-15 -0.0016543163 6.1098095e-13 -0.0016442103)
(0.0030713391 -0.0087214182 -5.5928269e-14 -0.0015467117 5.9955161e-13 -0.0015246273)
(0.0028075135 -0.0084201823 -6.3126322e-16 -0.0014272274 5.9843895e-13 -0.0013802861)
(0.002471731 -0.0079018298 -1.6435901e-15 -0.0012828779 6.2928726e-13 -0.0011888531)
(0.0020125376 -0.0069692433 -5.0842021e-15 -0.0010940849 6.1392546e-13 -0.00091845272)
(0.0013592309 -0.0053158072 5.4785006e-14 -0.00083218025 7.0704913e-13 -0.00052705067)
(0.00042126342 -0.0025127084 5.6050473e-14 -0.00045691884 7.5759254e-13 3.5655424e-05)
(-0.00091027082 0.001970772 -7.3202462e-15 8.5557177e-05 7.8033496e-13 0.00082471364)
(-0.0027624468 0.0087128704 -1.3752599e-13 0.00086387736 8.7505858e-13 0.0018985694)
(-0.0052890934 0.018278108 -1.1789262e-14 0.0019626626 9.301694e-13 0.0033264309)
(-0.0086710781 0.031180387 -1.506907e-13 0.0034710176 1.0208716e-12 0.0052000605)
(-0.013024703 0.047807715 -2.5302262e-14 0.0054026038 1.1541306e-12 0.0076220992)
(-0.01851948 0.067889734 -3.4065311e-14 0.0076947366 1.3039531e-12 0.010824743)
(-0.025349941 0.090775656 8.228899e-14 0.010288437 1.4159255e-12 0.015061504)
(-0.031741966 0.11338651 -7.7411383e-14 0.010280864 1.6944259e-12 0.021461102)
(-0.041641588 0.12344804 -9.6102794e-14 0.012451808 1.7237499e-12 0.02918978)
(-0.049588025 0.12170937 -9.7278222e-14 0.017829118 1.5146398e-12 0.031758907)
(-0.05687332 0.11975412 -1.0081739e-13 0.020463061 1.4494827e-12 0.036410259)
(-0.062989011 0.11781542 -7.8667649e-14 0.022487909 1.3565314e-12 0.040501103)
(-0.05795057 0.11945308 -7.9155405e-14 0.020600909 1.3070107e-12 0.03734966)
(-0.06298246 0.11789052 -1.0127046e-13 0.021618511 1.3423364e-12 0.04136395)
(-0.076703565 0.11207371 -8.8372868e-15 0.037158919 1.219382e-12 0.039544646)
(-0.10045614 0.082765412 4.0103952e-14 0.10887652 -8.9112654e-13 -0.0084203775)
(-0.0034360398 -0.023518222 -3.0876426e-14 0.0010407708 2.7285106e-13 0.002395269)
(0.0020289024 -0.019861067 -1.2535245e-14 -0.0012847981 4.2347818e-13 -0.00074410425)
(0.0027221518 -0.016932807 -6.625505e-15 -0.0015084854 4.217793e-13 -0.0012136663)
(0.0035259355 -0.015385466 -7.580106e-17 -0.0018380811 4.0880183e-13 -0.0016878544)
(0.0044180177 -0.014386688 -6.5154149e-14 -0.0022524151 3.7188809e-13 -0.0021656026)
(0.004885357 -0.013659715 6.8660507e-14 -0.0024708158 3.9227051e-13 -0.0024145412)
(0.0050251841 -0.013118155 8.0289696e-16 -0.0025318885 4.1374535e-13 -0.0024932956)
(0.0049982683 -0.012699353 7.3612098e-14 -0.0025124954 4.2077182e-13 -0.0024857729)
(0.0048639376 -0.012361924 -7.1505066e-14 -0.0024413129 3.9518063e-13 -0.0024226247)
(0.0046611567 -0.012082855 2.0196672e-16 -0.002337231 4.2480626e-13 -0.0023239257)
(0.0044279338 -0.011846662 1.573814e-16 -0.0022188173 3.6329809e-13 -0.0022091165)
(0.0041891713 -0.011641369 -3.1046018e-15 -0.0020982724 4.0101787e-13 -0.0020908989)
(0.0039566161 -0.011457778 -3.5695935e-15 -0.0019813519 4.4441022e-13 -0.0019752642)
(0.0037341921 -0.011288369 -3.405678e-15 -0.0018700385 4.4592562e-13 -0.0018641536)
(0.003520466 -0.01112539 -1.4791975e-15 -0.0017638999 4.7758865e-13 -0.0017565661)
(0.0033087923 -0.010957325 -3.8912102e-14 -0.0016604312 4.7175108e-13 -0.0016483611)
(0.0030866357 -0.010761906 -4.024315e-14 -0.001555112 4.5779946e-13 -0.0015315236)
(0.0028338741 -0.010493862 -1.335445e-16 -0.0014410179 4.7497845e-13 -0.0013928561)
(0.0025198438 -0.010066304 -4.4528305e-14 -0.0013077028 4.8867855e-13 -0.0012121411)
(0.0020996684 -0.0093270193 -4.8527822e-15 -0.0011393784 4.8899687e-13 -0.00096029001)
(0.0015107298 -0.0080337587 -5.1187987e-15 -0.0009124367 5.6514154e-13 -0.00059829309)
(0.00067069483 -0.0058383737 -5.1308931e-14 -0.00059260011 6.0228796e-13 -7.8094718e-05)
(-0.00052298023 -0.0022952301 -7.1724038e-15 -0.00013221574 6.3077092e-13 0.00065519597)
(-0.002194307 0.0031012978 -8.3270086e-15 0.00053167578 7.1127863e-13 0.0016626313)
(-0.0044988424 0.010867972 -1.1942392e-14 0.0014809645 7.6965099e-13 0.003017878)
(-0.0076348531 0.021503201 -1.7827974e-14 0.0028186545 8.3774673e-13 0.0048161986)
(-0.01179712 0.035423289 2.4146628e-14 0.0046418149 9.7439521e-13 0.0071553056)
(-0.017316882 0.052482721 1.6525213e-14 0.0070738999 1.1057699e-12 0.010242983)
(-0.024621292 0.072904149 5.3668537e-14 0.010180293 1.2507671e-12 0.014440998)
(-0.033586688 0.096135045 -6.0709623e-14 0.013821015 1.4990127e-12 0.019765673)
(-0.044866753 0.11518709 -1.3422466e-13 0.015443449 1.6797886e-12 0.029423303)
(-0.056835902 0.11978198 -2.2474111e-14 0.020661438 1.4725334e-12 0.036174464)
(-0.066237413 0.11675137 -1.0594769e-13 0.025247726 1.4418681e-12 0.040989686)
(-0.075013824 0.11330456 -1.0592097e-13 0.02808158 1.38743e-12 0.046932244)
(-0.072334875 0.11443989 -8.2422314e-14 0.027323272 1.287662e-12 0.045011603)
(-0.073770213 0.11400442 -1.1420582e-13 0.025970446 1.2678335e-12 0.047799768)
(-0.099203356 0.099989855 -4.0564668e-14 0.047850031 1.3383992e-12 0.051353325)
(-0.049337009 0.12305424 8.0815311e-16 0.042713793 -1.0552353e-13 0.0066232155)
(-0.0030550528 -0.025101319 -2.182955e-14 0.00087663724 1.7729312e-13 0.0021784156)
(0.0023068125 -0.022578632 -5.8908993e-14 -0.0014472856 2.8898929e-13 -0.00085952685)
(0.0029218052 -0.019834031 -8.2023456e-15 -0.0016503856 3.134374e-13 -0.0012714196)
(0.0036421714 -0.018236172 -1.2921311e-15 -0.0019269597 3.3473188e-13 -0.0017152117)
(0.0044911439 -0.017139606 2.3929828e-15 -0.0023102376 2.8943651e-13 -0.0021809063)
(0.0049358752 -0.016322038 7.214477e-16 -0.0025117917 3.0653864e-13 -0.0024240835)
(0.0050619683 -0.015707641 1.5564704e-15 -0.0025625152 3.328041e-13 -0.002499453)
(0.0050261006 -0.015229515 2.3485205e-15 -0.0025362176 3.3293393e-13 -0.0024898831)