0.2166759971 	7.337594715e-07 	-6.710767041e-09 	5.239470881e-12 	7.219620865e-07 	-3.750295046e-10 	1.376260396e-09
0.2166759971 	7.337594715e-07 	-6.710767041e-09 	5.239470881e-12 	7.219620865e-07 	-3.750295046e-10 	1.376260396e-09
0.2169324293 	1.360604793e-05 	-5.420484134e-07 	6.120949452e-10 	1.274062892e-05 	-9.809294054e-09 	2.428717979e-08
0.2171888698 	8.981086704e-05 	-8.219514432e-06 	1.010447946e-08 	7.689632931e-05 	-6.293349897e-08 	1.465857759e-07
0.2174453166 	0.000332303973 	-5.128575428e-05 	6.250637958e-08 	0.0002521048849 	-2.003634008e-07 	4.805819795e-07
0.2177017676 	0.0008585550739 	-0.0001853137192 	2.080029486e-07 	0.0005693846196 	-4.049190518e-07 	1.085405337e-06
0.2179582206 	0.001718265391 	-0.0004574623846 	4.149697875e-07 	0.001005714927 	-6.141664669e-07 	1.917172175e-06
0.2182146735 	0.002792036911 	-0.00079429321 	4.8456041e-07 	0.001555805312 	-8.813596596e-07 	2.965797338e-06
0.2184711242 	0.003942531738 	-0.001125001843 	4.636477314e-07 	0.00219158253 	-1.120047488e-06 	4.177765421e-06
0.2187275707 	0.0051107855 	-0.001458589866 	4.640644646e-07 	0.002841023213 	-1.190963052e-06 	5.415779865e-06
0.2189840108 	0.00623269904 	-0.001781330565 	3.971401278e-07 	0.003462046496 	-1.119745486e-06 	6.599622848e-06
0.2192404424 	0.007262962101 	-0.002084476204 	2.490014503e-07 	0.004022864314 	-8.973519884e-07 	7.668697479e-06
0.2194968635 	0.008169971187 	-0.002363042232 	-1.476736962e-08 	0.004500271767 	-5.530826254e-07 	8.578768774e-06
0.2197532719 	0.008926690573 	-0.002608038078 	-4.303871564e-07 	0.004881770171 	-1.583052185e-07 	9.306010763e-06
0.2200096656 	0.009510750415 	-0.002805360223 	-9.85960828e-07 	0.005167286765 	1.944214506e-07 	9.850284747e-06
0.2202660425 	0.009912721824 	-0.002942332629 	-1.595501722e-06 	0.005367316172 	4.296609556e-07 	1.023159639e-05
0.2205224004 	0.01014266373 	-0.003015053824 	-2.0245646e-06 	0.005498217605 	4.940532513e-07 	1.048113091e-05
0.2207787375 	0.01022902551 	-0.003031125046 	-2.201879528e-06 	0.005577173068 	4.334521667e-07 	1.063164196e-05
0.2210350515 	0.01021125746 	-0.003007179641 	-2.076883599e-06 	0.005618917649 	2.998395629e-07 	1.071121874e-05
0.2212913404 	0.01013043038 	-0.00296337093 	-1.687958799e-06 	0.005635176827 	1.17000349e-07 	1.074221325e-05
0.2215476021 	0.01002148476 	-0.002917518082 	-1.147529636e-06 	0.005636396673 	-1.417568763e-07 	1.074453861e-05
0.2218038346 	0.009909263681 	-0.002881272306 	-5.859328279e-07 	0.005633940183 	-5.365342191e-07 	1.073985586e-05
0.2220600359 	0.009808641384 	-0.002859717708 	-8.49919978e-08 	0.005640958904 	-1.120526343e-06 	1.07532355e-05
0.2223162038 	0.009726665444 	-0.002854097233 	3.57912626e-07 	0.005672427682 	-1.94885614e-06 	1.081322373e-05
0.2225723364 	0.009661369679 	-0.002859845421 	5.584074997e-07 	0.005745697158 	-3.093938071e-06 	1.095289572e-05
0.2228284315 	0.009588017957 	-0.002842251398 	-5.209376248e-07 	0.00588308299 	-4.736199171e-06 	1.12147913e-05
0.2230844872 	0.009468937093 	-0.002743957404 	-2.309147481e-06 	0.006099858847 	-6.37815058e-06 	1.162802633e-05
0.2233405014 	0.009310402892 	-0.002571432418 	-2.665506621e-06 	0.006376691818 	-7.20291445e-06 	1.215574692e-05
0.223596472 	0.009159375572 	-0.002396571125 	-2.119243727e-06 	0.006673619188 	-7.505244873e-06 	1.272177301e-05
0.2238523971 	0.009036010957 	-0.002250251305 	-1.754143811e-06 	0.006970676169 	-7.704622399e-06 	1.328804618e-05
0.2241082746 	0.008934528399 	-0.002123585394 	-1.450746556e-06 	0.007265154721 	-7.85016545e-06 	1.384940414e-05
0.2243641025 	0.00884588557 	-0.002009760197 	-1.178444132e-06 	0.007593433636 	-8.029067501e-06 	1.4475195e-05
0.2247614969 	0.00875356728 	-0.001888947736 	-8.963248373e-07 	0.008000552707 	-8.065661426e-06 	1.52512771e-05
0.2251662243 	0.008661506434 	-0.00176690473 	-6.482793681e-07 	0.008451074782 	-8.027843814e-06 	1.611009739e-05
0.2255784092 	0.008580501861 	-0.001662949283 	-4.688531355e-07 	0.008899306456 	-7.890511189e-06 	1.696455154e-05
0.2259981774 	0.008505153777 	-0.00157182604 	-3.478740811e-07 	0.009343510734 	-7.665350876e-06 	1.781132835e-05
0.2264256561 	0.008431561233 	-0.001489048688 	-2.734201836e-07 	0.009782160451 	-7.36268293e-06 	1.864751663e-05
0.2268609739 	0.008356498005 	-0.00141129575 	-2.360015896e-07 	0.01021497228 	-6.987598895e-06 	1.947257627e-05
0.2273042604 	0.008277676662 	-0.001335683648 	-2.25349387e-07 	0.01064160625 	-6.544443126e-06 	2.028585919e-05
0.2277556468 	0.008193791269 	-0.001260277022 	-2.136625214e-07 	0.01106156564 	-6.025692922e-06 	2.108641852e-05
0.2282152651 	0.008106096256 	-0.001182677053 	-2.725488804e-07 	0.01146449338 	-5.018787916e-06 	2.185451077e-05
0.2286832487 	0.008019739567 	-0.001097673625 	-3.60134269e-07 	0.01181890494 	-3.640811825e-06 	2.253011772e-05
0.2291597319 	0.007942460238 	-0.001003759645 	-3.737496524e-07 	0.01209370582 	-2.443736999e-06 	2.305396456e-05
0.2296448501 	0.007880850247 	-0.0009018223758 	-2.998023838e-07 	0.01226814373 	-1.699169402e-06 	2.338649169e-05
0.2301387393 	0.007832095017 	-0.000801140069 	-1.945962256e-07 	0.01237829055 	-1.225464304e-06 	2.359646215e-05
0.2306415368 	0.007789351159 	-0.0007109867308 	-1.091199584e-07 	0.01247439682 	-7.719990028e-07 	2.377966742e-05
0.2311533802 	0.007750853403 	-0.0006297224263 	-4.062671625e-08 	0.01255830683 	-3.371082623e-07 	2.393962322e-05
0.2315746914 	0.007722902424 	-0.0005711988147 	6.253054812e-07 	0.012616856 	4.477472733e-07 	2.405123422e-05
0.2316736368 	0.007716269794 	-0.0005573623607 	-1.080424516e-08 	0.0126307194 	-7.801843748e-08 	2.407766171e-05
0.2321998972 	0.007685349782 	-0.0004941094676 	-5.558279115e-08 	0.0126921191 	-4.767810886e-07 	2.41947066e-05
0.232735561 	0.00765782377 	-0.0004394330665 	-7.824123842e-08 	0.01274353247 	-8.551707815e-07 	2.429271478e-05
0.2332807678 	0.00763338142 	-0.000392929754 	-7.715277993e-08 	0.01278577794 	-1.212546663e-06 	2.437324637e-05
0.2338356578 	0.007611701454 	-0.0003540679237 	-5.192670662e-08 	0.01281968896 	-1.549043322e-06 	2.44378902e-05
0.234400371 	0.007592458468 	-0.0003222143958 	-3.325311739e-09 	0.01284610133 	-1.86549729e-06 	2.448823952e-05
0.2349750476 	0.007575329104 	-0.0002966623921 	6.686106652e-08 	0.01286584113 	-2.163345862e-06 	2.452586906e-05
0.2355598274 	0.007559989297 	-0.0002766819639 	1.56026374e-07 	0.01287971448 	-2.444501306e-06 	2.455231554e-05
0.2361548499 	0.007546124385 	-0.0002614645582 	2.610972466e-07 	0.01288850241 	-2.711164643e-06 	2.456906777e-05
0.2367621268 	0.00753339016 	-0.0002502559941 	3.792838255e-07 	0.01289293185 	-2.96612708e-06 	2.45775115e-05
0.2373985929 	0.007521468915 	-0.0002424047028 	5.092986487e-07 	0.01289359073 	-3.220359448e-06 	2.457876753e-05
0.2380464066 	0.007510198608 	-0.0002372940514 	6.461515875e-07 	0.01289103785 	-3.467134641e-06 	2.457390102e-05
0.2387057606 	0.007499462598 	-0.0002343599289 	7.861564081e-07 	0.01288587109 	-3.709611306e-06 	2.456405173e-05
0.2393768505 	0.007489078617 	-0.0002330584406 	9.269025238e-07 	0.01287863817 	-3.949958007e-06 	2.455026378e-05
0.2400598753 	0.007478894613 	-0.0002328997333 	1.066619028e-06 	0.01286981975 	-4.18995485e-06 	2.453345342e-05
0.2407550367 	0.007468788665 	-0.0002334808429 	1.204181612e-06 	0.01285982934 	-4.430957261e-06 	2.451440893e-05
0.2414625396 	0.00745866889 	-0.0002344763425 	1.339054344e-06 	0.01284901698 	-4.673903562e-06 	2.449379757e-05
0.2421825923 	0.007448470941 	-0.0002356313998 	1.471198328e-06 	0.01283767442 	-4.919350475e-06 	2.447217549e-05
0.2429154061 	0.007438154511 	-0.0002367541293 	1.594133314e-06 	0.01282604121 	-5.145489403e-06 	2.444999936e-05
0.2436611955 	0.007427699851 	-0.0002377068203 	1.514971318e-06 	0.01281431127 	-4.747782416e-06 	2.442763884e-05
0.2444201783 	0.007417104293 	-0.0002383971948 	1.426932028e-06 	0.0128026394 	-4.360627371e-06 	2.4405389e-05
0.2451925759 	0.007406378907 	-0.0002387701294 	1.332075989e-06 	0.01279114758 	-3.98191558e-06 	2.438348241e-05
0.2459786127 	0.007395545408 	-0.0002388000719 	1.231888674e-06 	0.0127799309 	-3.609964558e-06 	2.436210029e-05
0.2467785167 	0.007384633403 	-0.0002384843206 	1.127381639e-06 	0.01276906274 	-3.243464156e-06 	2.434138255e-05
0.2475925196 	0.007373677994 	-0.0002378372289 	1.019193672e-06 	0.01275859944 	-2.881416061e-06 	2.43214366e-05
0.2484208561 	0.007362717761 	-0.0002368853222 	9.076835719e-07 	0.01274858419 	-2.523073579e-06 	2.430234475e-05
0.249263765 	0.007351793088 	-0.0002356632702 	7.930095607e-07 	0.01273905027 	-2.167886505e-06 	2.428417046e-05
0.2501214883 	0.007340944815 	-0.0002342106053 	6.751929974e-07 	0.01273002374 	-1.81545383e-06 	2.426696338e-05
0.250994272 	0.007330213181 	-0.0002325690282 	5.541666285e-07 	0.0127215255 	-1.465485405e-06 	2.425076336e-05
0.2518823657 	0.007319636923 	-0.0002307804119 	4.298099151e-07 	0.01271357297 	-1.117772274e-06 	2.423560364e-05
0.2527860226 	0.007309252573 	-0.0002288856183 	3.019711827e-07 	0.0127061814 	-7.72164554e-07 	2.422151324e-05
0.2537055001 	0.007299094989 	-0.0002269216458 	1.704786953e-07 	0.01269936456 	-4.285560348e-07 	2.420851845e-05
0.2546410591 	0.007289197849 	-0.0002249125158 	3.515970095e-08 	0.01269313577 	-8.687356869e-08 	2.419664465e-05
0.2548826011 	0.00728674849 	-0.0002244088901 	-3.889536805e-09 	0.01269169638 	-5.015749048e-07 	2.419390077e-05
0.2555884152 	0.007279485417 	-0.0002230532745 	9.775993191e-08 	0.01268731681 	-2.504089363e-07 	2.418555209e-05
0.2565643833 	0.007269955879 	-0.0002212629739 	2.343969943e-07 	0.0126820049 	-5.897945537e-07 	2.417542611e-05
0.2575742631 	0.007260667149 	-0.0002194655933 	3.776336434e-07 	0.0126772945 	-9.330184477e-07 	2.416644679e-05
0.2586016703 	0.007251724443 	-0.0002177153658 	5.253431661e-07 	0.01267324036 	-1.274157764e-06 	2.415871847e-05
0.2596468899 	0.007243181101 	-0.0002160504969 	6.777028232e-07 	0.01266988245 	-1.613231745e-06 	2.415231736e-05
0.2607102115 	0.007235045933 	-0.0002144682157 	8.348903576e-07 	0.01266723821 	-1.950241308e-06 	2.41472767e-05
0.2617919288 	0.007227331039 	-0.0002129621267 	9.970677418e-07 	0.0126653239 	-2.28517902e-06 	2.41436275e-05
0.2628923399 	0.007220037348 	-0.0002115439889 	1.164411304e-06 	0.01266415744 	-2.618024298e-06 	2.41414039e-05
0.2640117474 	0.007213178364 	-0.0002102137807 	1.337075031e-06 	0.01266375345 	-2.948747016e-06 	2.414063379e-05
0.2651504585 	0.007206832372 	-0.0002088157724 	1.515062029e-06 	0.01266411775 	-3.277375656e-06 	2.414132824e-05
0.2663087847 	0.007200992577 	-0.0002075102061 	1.698762455e-06 	0.01266526439 	-3.603782389e-06 	2.414351406e-05
0.2674870424 	0.007194647835 	-0.0002066801915 	1.765805201e-06 	0.01266743093 	-3.667230032e-06 	2.414764409e-05
0.2692922725 	0.007187780855 	-0.0002050693063 	1.526542571e-06 	0.0126719325 	-3.081962889e-06 	2.415622534e-05
0.2711132944 	0.00718136555 	-0.0002031443816 	1.280339084e-06 	0.0126783495 	-2.51122233e-06 	2.416845792e-05
0.272950246 	0.007176069629 	-0.0002012854215 	1.026158591e-06 	0.01268650056 	-1.95539412e-06 	2.41839961e-05
0.2748032671 	0.007171686672 	-0.0001996570132 	7.638496718e-07 	0.01269644791 	-1.413961828e-06 	2.420295851e-05
0.2767228117 	0.007168236009 	-0.0001979447735 	4.854126271e-07 	0.01270832907 	-8.725422544e-07 	2.42256073e-05
0.2786640575 	0.007165747402 	-0.000196097568 	1.973634464e-07 	0.01272204337 	-3.444983994e-07 	2.425175058e-05
0.2799709177 	0.00716473493 	-0.0001948621775 	-5.163992767e-08 	0.01273233503 	-8.967691535e-07 	2.427136934e-05
0.2806184122 	0.00716419659 	-0.0001943342849 	9.448396552e-08 	0.01273733982 	-1.682979448e-07 	2.428090986e-05
0.2825825063 	0.007163504487 	-0.0001927520045 	3.846147644e-07 	0.01275403375 	-6.660002113e-07 	2.431273313e-05
0.2845635642 	0.007163712127 	-0.0001910753518 	6.83523118e-07 	0.01277237333 	-1.150764874e-06 	2.434769347e-05
0.2865617386 	0.007164788501 	-0.0001892866391 	9.913500213e-07 	0.01279232643 	-1.622915256e-06 	2.438572961e-05
0.288577185 	0.007166703568 	-0.0001873743872 	1.308217617e-06 	0.01281386226 	-2.082740431e-06 	2.442678289e-05
0.2906100617 	0.007169440611 	-0.0001852909892 	1.634311135e-06 	0.01283695034 	-2.530517495e-06 	2.44707952e-05
0.2926605296 	0.007172986951 	-0.0001831132867 	1.969868029e-06 	0.01286166671 	-2.966458775e-06 	2.451791146e-05
0.2947666598 	0.007177336626 	-0.0001807388376 	1.842093868e-06 	0.01288822854 	-2.697182588e-06 	2.45685457e-05
0.2969108531 	0.007182484988 	-0.000178059734 	1.542420678e-06 	0.01291657443 	-2.195526087e-06 	2.462258085e-05
0.2990732172 	0.007188415757 	-0.0001751813746 	1.233548622e-06 	0.01294648724 	-1.707056947e-06 	2.467960298e-05
0.3012539222 	0.007195080135 	-0.0001721240848 	9.152945778e-07 	0.01297788616 	-1.231504993e-06 	2.473945804e-05
0.3034531416 	0.007202452271 	-0.0001688529209 	5.875283337e-07 	0.01301074899 	-7.686351129e-07 	2.480210373e-05
0.3056710521 	0.00721051276 	-0.0001653559307 	2.50137281e-07 	0.01304505197 	-3.182153125e-07 	2.486749474e-05
0.3072890931 	0.00721683644 	-0.0001626534171 	-3.622225431e-08 	0.01307087999 	-5.96029975e-07 	2.491673012e-05
0.3079050505 	0.007219244 	-0.000161703192 	9.201766302e-08 	0.01308064054 	-1.205557639e-07 	2.493533645e-05
0.3101508644 	0.007228662242 	-0.0001581328286 	4.307331345e-07 	0.01311737428 	-5.493946586e-07 	2.500536116e-05
0.3124433238 	0.007238811992 	-0.0001543055637 	7.832204895e-07 	0.0131558583 	-9.724061535e-07 	2.50787224e-05
0.314787554 	0.007249689473 	-0.000150057537 	1.150339171e-06 	0.01319613194 	-1.389956117e-06 	2.515549515e-05
0.3171515198 	0.007261250657 	-0.0001454741357 	1.527143822e-06 	0.01323790405 	-1.795997748e-06 	2.523512441e-05
0.3195354192 	0.007273441036 	-0.0001406242649 	1.913650451e-06 	0.0132810264 	-2.190729495e-06 	2.531732758e-05
0.3219394548 	0.007286226749 	-0.0001354693679 	2.286130947e-06 	0.01332548528 	-2.547928744e-06 	2.540207858e-05
0.3243638334 	0.007299597511 	-0.0001299808941 	1.947855428e-06 	0.01337126155 	-2.113831263e-06 	2.548934087e-05
0.3268087664 	0.007313562222 	-0.0001241209164 	1.600169728e-06 	0.01341836589 	-1.691053776e-06 	2.557913483e-05
0.3292812814 	0.007328185631 	-0.0001179798629 	1.241907691e-06 	0.01346707272 	-1.278168876e-06 	2.567198358e-05
0.331828573 	0.007343494936 	-0.0001113048738 	8.65667263e-07 	0.01351768073 	-8.674524954e-07 	2.576845651e-05
0.3343970604 	0.007359414275 	-0.000104089491 	4.800150762e-07 	0.01356982897 	-4.684120488e-07 	2.586786555e-05
0.3369869718 	0.007375891084 	-9.652748993e-05 	8.490199917e-08 	0.01362324003 	-8.069548088e-08 	2.596968188e-05
0.3375406268 	0.007379494991 	-9.486159439e-05 	-5.382708389e-09 	0.01363482161 	-3.907455703e-07 	2.599175959e-05
0.3395913201 	0.007392919619 	-8.894242968e-05 	3.03605028e-07 	0.01367749448 	-3.013142972e-07 	2.607310594e-05
0.3422157185 	0.007410481688 	-8.099514015e-05 	6.968333342e-07 	0.01373286461 	-6.747482701e-07 	2.61786568e-05
0.3448623645 	0.007428614407 	-7.264604764e-05 	1.099039343e-06 	0.01378958183 	-1.038550615e-06 	2.628677558e-05
0.3475593892 	0.007447377328 	-6.3814984e-05 	1.514558146e-06 	0.01384799168 	-1.396786737e-06 	2.6398121e-05
0.3503118469 	0.007466756769 	-5.429446776e-05 	1.943869379e-06 	0.01390813026 	-1.749766208e-06 	2.651276184e-05
0.3530872581 	0.007486680488 	-4.421504479e-05 	2.381662247e-06 	0.01396962416 	-2.093158478e-06 	2.66299863e-05
0.3558858906 	0.007507077699 	-3.36825127e-05 	2.288120294e-06 	0.01403228981 	-1.964061826e-06 	2.674944444e-05
0.3587080186 	0.007527922811 	-2.260366437e-05 	1.900533356e-06 	0.01409611466 	-1.593923662e-06 	2.687111236e-05
0.3615539235 	0.007549269653 	-1.099714179e-05 	1.504694654e-06 	0.0141612033 	-1.233423194e-06 	2.699518938e-05
0.3644469882 	0.00757119063 	1.200064664e-06 	1.097128401e-06 	0.01422790937 	-8.792248185e-07 	2.712234971e-05
0.3674013141 	0.00759367886 	1.423647327e-05 	6.761734401e-07 	0.01429632643 	-5.298812122e-07 	2.725277164e-05
0.370380176 	0.007616652026 	2.798590193e-05 	2.478484737e-07 	0.01436605351 	-1.900187003e-07 	2.738569083e-05
0.372097595 	0.007630030832 	3.614170145e-05 	7.546089116e-08 	0.01440653906 	-7.067199999e-07 	2.746286753e-05
0.3733804333 	0.00764009095 	4.209335023e-05 	1.786933248e-07 	0.01443664477 	-1.44941462e-07 	2.752025739e-05
0.3764013563 	0.00766400042 	5.662592773e-05 	6.000805639e-07 	0.01450800354 	-4.772251048e-07 	2.765628704e-05
0.3794479012 	0.007688419145 	7.175629334e-05 	1.027955575e-06 	0.0145806771 	-8.019442889e-07 	2.779482304e-05
0.3825670015 	0.007713399493 	8.776563824e-05 	1.468847044e-06 	0.01465505636 	-1.124435323e-06 	2.793661059e-05
0.3857243248 	0.007738864378 	0.0001047831567 	1.916884648e-06 	0.01473088127 	-1.440823737e-06 	2.808115394e-05
0.388908125 	0.007764750403 	0.0001225135317 	2.369849319e-06 	0.01480778076 	-1.750102052e-06 	2.822774573e-05
0.3921187603 	0.007790996592 	0.0001410332133 	2.680642433e-06 	0.01488567123 	-1.946251202e-06 	2.837622663e-05
0.3953565983 	0.007817685527 	0.0001603018538 	2.274740665e-06 	0.0149647389 	-1.624836854e-06 	2.852695158e-05
0.3986571242 	0.007844882123 	0.0001805496029 	1.858732718e-06 	0.01504535034 	-1.306955641e-06 	2.868061939e-05
0.4020072152 	0.007872541872 	0.0002019686189 	1.435527257e-06 	0.01512738388 	-9.943748027e-07 	2.883699811e-05
0.405385442 	0.007900596688 	0.0002242883767 	1.008714808e-06 	0.01521045807 	-6.889054276e-07 	2.899536061e-05
0.4087922113 	0.00792898924 	0.0002475268968 	5.787305431e-07 	0.01529442636 	-3.900160591e-07 	2.91554275e-05
0.4122279406 	0.007957812638 	0.0002716285218 	1.460201629e-07 	0.01537953013 	-9.718857805e-08 	2.931765894e-05
0.4133956475 	0.007967573918 	0.0002800321529 	1.868824203e-07 	0.01540835515 	-5.46105397e-07 	2.937260744e-05
0.4157317818 	0.007987230403 	0.0002966225408 	2.812541927e-07 	0.01546580553 	-2.004795759e-07 	2.948212385e-05
0.4192741829 	0.008017129159 	0.0003227733386 	7.041569e-07 	0.01555314334 	-4.968036247e-07 	2.964861397e-05
0.4228467454 	0.008047408784 	0.0003499340959 	1.127333984e-06 	0.01564135359 	-7.87951118e-07 	2.981676724e-05
0.426449931 	0.008078055045 	0.0003781013305 	1.550240029e-06 	0.01573044062 	-1.074415526e-06 	2.998659188e-05
0.4300987495 	0.008109157285 	0.0004074055117 	1.97409772e-06 	0.01582070868 	-1.35791725e-06 	3.015866787e-05
0.4338161841 	0.008140735729 	0.0004381795052 	2.400453778e-06 	0.01591227777 	-1.640329758e-06 	3.033322402e-05
0.437565381 	0.008172712578 	0.0004702680153 	2.823580972e-06 	0.01600476114 	-1.918870847e-06 	3.050952303e-05
0.4413468516 	0.008205048634 	0.0005035094963 	2.494460537e-06 	0.01609793202 	-1.687583803e-06 	3.068713261e-05
0.4451628312 	0.00823782567 	0.0005379138117 	2.1023221e-06 	0.01619206585 	-1.417427151e-06 	3.086657787e-05
0.4490590092 	0.008271105236 	0.0005739394578 	1.706961099e-06 	0.01628743103 	-1.148085535e-06 	3.104837041e-05
0.452988707 	0.008304800197 	0.0006115623726 	1.31530765e-06 	0.01638362062 	-8.836435586e-07 	3.123173449e-05
0.4569524913 	0.008338882492 	0.0006504739536 	9.279858227e-07 	0.01648035711 	-6.234018159e-07 	3.141614114e-05
0.4609521059 	0.008373414929 	0.0006907104808 	5.453993413e-07 	0.01657788685 	-3.668079218e-07 	3.160205992e-05
0.4650310796 	0.008408467661 	0.0007327553131 	1.640280856e-07 	0.01667643723 	-1.105720153e-07 	3.178992433e-05
0.4668357211 	0.008424039441 	0.0007519854703 	5.507880653e-07 	0.01671994753 	-8.148634376e-07 	3.187286706e-05
0.4691427018 	0.008444057299 	0.0007763812712 	2.000418241e-07 	0.01677542004 	-1.456954219e-07 	3.197861308e-05
0.4732883754 	0.008480158577 	0.0008212659306 	5.48743267e-07 	0.01687469364 	-4.01312401e-07 	3.216785616e-05
0.4774803843 	0.008516748859 	0.0008677773485 	8.899324458e-07 	0.01697460674 	-6.543173192e-07 	3.235831829e-05
0.4817421683 	0.008553882461 	0.0009163217443 	1.224230561e-06 	0.01707521259 	-9.060751246e-07 	3.2550101e-05
0.4860417401 	0.008591511974 	0.0009667977724 	1.547346151e-06 	0.01717615771 	-1.154372075e-06 	3.274253047e-05
0.4903797886 	0.008629655051 	0.00101889055 	1.858589762e-06 	0.01727739492 	-1.399406301e-06 	3.293551672e-05
0.4947803999 	0.008668364576 	0.001072988355 	2.158980569e-06 	0.01737905804 	-1.64282303e-06 	3.312931488e-05
0.4992354499 	0.008707654964 	0.001129331409 	2.446042552e-06 	0.01748095277 	-1.883699263e-06 	3.332355456e-05
0.5037306601 	0.008747513824 	0.001187589386 	2.576224896e-06 	0.01758285253 	-2.010523777e-06 	3.351780382e-05
0.5082724463 	0.008787979214 	0.00124779613 	2.27171074e-06 	0.0176848068 	-1.798989615e-06 	3.371215699e-05
0.5128848545 	0.008829124137 	0.001310395058 	1.976036943e-06 	0.01778679836 	-1.590049666e-06 	3.390658125e-05
0.5175392283 	0.008870923863 	0.00137531135 	1.692396726e-06 	0.01788848202 	-1.385766493e-06 	3.410041857e-05
0.5222363808 	0.008913411882 	0.00144224103 	1.420499586e-06 	0.01798983491 	-1.185538822e-06 	3.429362535e-05
0.5270041097 	0.008956669716 	0.001511646116 	1.159244404e-06 	0.01809085129 	-9.880079031e-07 	3.448619065e-05
0.5318200389 	0.009000696934 	0.001583645129 	9.123176924e-07 	0.01819118777 	-7.954164712e-07 	3.467745988e-05
0.536680741 	0.009045505717 	0.001657806091 	6.804976333e-07 	0.01829078094 	-6.078029735e-07 	3.486731213e-05
0.5416066469 	0.009091169814 	0.001734455128 	4.628868558e-07 	0.01838956585 	-4.242274086e-07 	3.505562363e-05
0.5465869844 	0.009137733546 	0.001813768032 	2.61285156e-07 	0.01848723936 	-2.461530498e-07 	3.524181649e-05
0.5516142321 	0.009185208552 	0.00189533439 	7.630972094e-08 	0.01858371389 	-7.403039514e-08 	3.542572376e-05
0.5538787761 	0.009206760515 	0.001932752893 	1.217381658e-06 	0.01862603969 	-1.408653164e-06 	3.550640848e-05
0.5567044034 	0.009233706802 	0.001979332039 	8.907573413e-08 	0.0186788012 	-9.308847129e-08 	3.560698659e-05
0.5618504434 	0.009283269645 	0.002065970347 	2.350805582e-07 	0.01877220741 	-2.534547769e-07 	3.578504479e-05
0.5670458373 	0.009333875077 	0.002154919575 	3.644058939e-07 	0.01886388815 	-4.061298503e-07 	3.595981376e-05
0.5723074182 	0.009385609413 	0.002246409759 	4.776511328e-07 	0.01895364937 	-5.514408225e-07 	3.61309236e-05
0.5776256405 	0.009438521913 	0.002340518701 	5.739712627e-07 	0.01904115874 	-6.879685968e-07 	3.629774078e-05
0.5829956533 	0.009492621766 	0.002436852646 	6.536649016e-07 	0.01912634285 	-8.153303789e-07 	3.646012537e-05
0.5884355186 	0.009548017899 	0.002535654728 	7.174669087e-07 	0.01920894908 	-9.336404229e-07 	3.66175958e-05
0.5939304637 	0.009604733272 	0.002636814447 	7.650605184e-07 	0.0192886799 	-1.041510875e-06 	3.67695849e-05
0.5994826701 	0.009662783273 	0.002740022866 	7.974142217e-07 	0.0193654284 	-1.138954428e-06 	3.691588887e-05
0.6051035232 	0.009722120342 	0.002845184121 	8.153780678e-07 	0.01943871261 	-1.225587334e-06 	3.705558895e-05
0.6107177553 	0.009782198599 	0.002951023439 	8.194694493e-07 	0.01950783403 	-1.299928527e-06 	3.718735358e-05
0.6162709517 	0.009842506607 	0.003056455162 	8.113221896e-07 	0.01957221212 	-1.361975584e-06 	3.731007611e-05
0.6217637219 	0.00990291503 	0.003161261274 	7.92372945e-07 	0.01963161794 	-1.411792838e-06 	3.742332011e-05
0.6271906782 	0.009963342254 	0.003265072676 	7.643878365e-07 	0.01968625797 	-1.45014378e-06 	3.75274792e-05
0.6325614689 	0.01002380689 	0.00336788695 	7.291992736e-07 	0.01973617309 	-1.478109044e-06 	3.762263129e-05
0.6378707857 	0.01008427163 	0.003469592409 	6.880531352e-07 	0.01978140659 	-1.495976764e-06 	3.770885891e-05
0.6431174905 	0.01014464184 	0.003569845067 	6.423910285e-07 	0.01982221925 	-1.504720118e-06 	3.778665919e-05
0.6483109099 	0.0102049492 	0.003668727639 	5.93408536e-07 	0.01985862295 	-1.505163199e-06 	3.785605477e-05
0.6534436975 	0.01026512359 	0.003766098322 	5.420291656e-07 	0.01989071613 	-1.497729908e-06 	3.791723328e-05
0.6585173111 	0.01032508168 	0.003861732451 	4.892985292e-07 	0.01991872507 	-1.48342645e-06 	3.797062611e-05
0.6635382093 	0.01038485416 	0.003955738479 	4.360109401e-07 	0.01994264802 	-1.462914087e-06 	3.80162299e-05
0.6685009905 	0.01044435442 	0.004047971435 	3.82835693e-07 	0.01996263242 	-1.436728098e-06 	3.805432573e-05
0.6734071819 	0.01050350882 	0.004138284048 	3.304666461e-07 	0.01997887804 	-1.40578725e-06 	3.808529438e-05
0.6782617452 	0.01056234235 	0.004226783283 	2.794305386e-07 	0.01999138377 	-1.370673361e-06 	3.810913379e-05
0.6830606945 	0.010620768 	0.004313357594 	2.301763806e-07 	0.0200003011 	-1.331918122e-06 	3.812613269e-05
0.6878050043 	0.01067871309 	0.00439789423 	1.830930256e-07 	0.0200058228 	-1.290288014e-06 	3.813665859e-05
0.6924993045 	0.01073621332 	0.004480516 	1.383979272e-07 	0.02000793152 	-1.24621667e-06 	3.814067839e-05
0.6971402893 	0.01079320532 	0.004561183567 	9.619806786e-08 	0.02000672835 	-1.199969145e-06 	3.813838482e-05
0.7017288018 	0.01084959449 	0.004639775776 	5.663016364e-08 	0.02000242679 	-1.15209704e-06 	3.813018484e-05
0.7062680543 	0.01090539796 	0.004716381703 	1.99451747e-08 	0.0199950356 	-1.103174693e-06 	3.811609518e-05
0.7107566673 	0.01096056726 	0.004791004955 	-1.359775228e-08 	0.01998462787 	-1.053632148e-06 	3.809625516e-05
0.715194862 	0.01101499784 	0.004863523453 	-4.393091934e-08 	0.01997143173 	-1.003980028e-06 	3.807109965e-05
0.7195845239 	0.01106873257 	0.004934040808 	-7.122704645e-08 	0.01995543118 	-9.544314627e-07 	3.804059815e-05
0.723926108 	0.01112179614 	0.005002666226 	-9.58011141e-08 	0.01993658215 	-9.047408934e-07 	3.800466666e-05
0.7282191882 	0.01117408301 	0.005069311923 	-1.178695044e-07 	0.01991507108 	-8.549777348e-07 	3.796366058e-05
0.732464596 	0.01122553155 	0.005133950384 	-1.37343196e-07 	0.0198910269 	-8.056256952e-07 	3.791782569e-05
0.7366642635 	0.01127610134 	0.005196603448 	-1.539271929e-07 	0.01986451673 	-7.572422127e-07 	3.786728994e-05
0.7408172213 	0.01132568414 	0.005257199704 	-1.674260663e-07 	0.01983572106 	-7.103314894e-07 	3.781239738e-05
0.7449241094 	0.01137421499 	0.005315698759 	-1.779735304e-07 	0.01980479672 	-6.651287071e-07 	3.7753447e-05
0.7489861562 	0.01142178734 	0.005372252313 	-1.859480929e-07 	0.01977164242 	-6.214707117e-07 	3.76902457e-05
0.7530037844 	0.01146848248 	0.005427013782 	-1.917621928e-07 	0.01973613121 	-5.788924349e-07 	3.762255146e-05
0.7569769893 	0.01151426567 	0.005479994566 	-1.957204799e-07 	0.01969832452 	-5.37237785e-07 	3.75504814e-05
0.7609063522 	0.0115590919 	0.005531188621 	-1.97891205e-07 	0.01965831433 	-4.967013144e-07 	3.747421085e-05
0.7647930889 	0.01160292348 	0.005580607348 	-1.981916861e-07 	0.01961616467 	-4.576059228e-07 	3.739386188e-05
0.7686371274 	0.01164565395 	0.005628196006 	-1.965648028e-07 	0.01957203679 	-4.201514367e-07 	3.730974189e-05
0.7724388481 	0.01168715689 	0.00567387043 	-1.931339042e-07 	0.01952614939 	-3.844459452e-07 	3.722226774e-05
0.7761987843 	0.01172741636 	0.00571765448 	-1.881001845e-07 	0.01947856318 	-3.504545479e-07 	3.71315552e-05
0.7799179674 	0.01176648196 	0.005759645372 	-1.816416137e-07 	0.01942921344 	-3.180365249e-07 	3.703748089e-05
0.7835963191 	0.01180435158 	0.005799892896 	-1.738947786e-07 	0.01937810216 	-2.870679212e-07 	3.694004859e-05
0.7872343077 	0.01184098887 	0.005838405406 	-1.649996958e-07 	0.01932530112 	-2.575470403e-07 	3.683939513e-05
0.7908324259 	0.01187640109 	0.00587522463 	-1.550703919e-07 	0.01927082797 	-2.294988031e-07 	3.673555416e-05
0.7943914833 	0.01191061436 	0.005910411899 	-1.441909485e-07 	0.01921465884 	-2.028961337e-07 	3.662848019e-05
0.7979115777 	0.01194359798 	0.00594398143 	-1.324423592e-07 	0.0191568472 	-1.776656344e-07 	3.651827513e-05
0.8013931357 	0.01197529691 	0.005975921783 	-1.19949024e-07 	0.01909749596 	-1.537761926e-07 	3.640513517e-05
0.8048366157 	0.01200570124 	0.0060062552 	-1.068294958e-07 	0.01903665121 	-1.311902017e-07 	3.628914817e-05
0.8082426297 	0.01203484011 	0.006035036667 	-9.318299776e-08 	0.01897429329 	-1.098475785e-07 	3.617027664e-05
0.8116114793 	0.01206270545 	0.006062295804 	-7.907550507e-08 	0.01891044465 	-8.96438211e-08 	3.604856339e-05
0.8149435088 	0.0120892432 	0.006088024274 	-6.460682939e-08 	0.0188452026 	-7.052906336e-08 	3.592419391e-05
0.8182391471 	0.01211441788 	0.006112225563 	-4.986347061e-08 	0.01877864726 	-5.247528195e-08 	3.579732093e-05
0.8214988533 	0.0121382257 	0.006134927575 	-3.491727836e-08 	0.01871081023 	-3.546676267e-08 	3.566800471e-05
0.8247230973 	0.01216066352 	0.006156161543 	-1.980271832e-08 	0.01864171408 	-1.944849712e-08 	3.553628824e-05
0.827912141 	0.01218170968 	0.006175942762 	-4.583414531e-09 	0.01857141707 	-4.363018578e-09 	3.54022826e-05
0.8288611916 	0.01218763026 	0.006181469754 	-7.237679052e-08 	0.0185499061 	-1.873044274e-06 	3.536127671e-05
0.8310661903 	0.01220141775 	0.006194326373 	-1.131744937e-08 	0.01849990469 	-9.062427917e-09 	3.526596012e-05
0.8341857644 	0.01221985161 	0.006211374497 	-2.739189262e-08 	0.01842713434 	-2.139424806e-08 	3.512723961e-05
0.8372713925 	0.01223709835 	0.006227160196 	-4.328450031e-08 	0.01835303219 	-3.303908567e-08 	3.498598031e-05
0.8403234159 	0.01225319333 	0.006241725804 	-5.899066948e-08 	0.01827758378 	-4.401969634e-08 	3.484215468e-05
0.8433421648 	0.01226807479 	0.006255054633 	-7.448815101e-08 	0.01820090599 	-5.430981486e-08 	3.469598549e-05
0.8463280141 	0.01228165844 	0.006267119163 	-8.973340962e-08 	0.01812314774 	-6.39219997e-08 	3.454775667e-05
0.849281333 	0.01229388048 	0.006277906043 	-1.046580485e-07 	0.01804443582 	-7.293347844e-08 	3.439770986e-05
0.8522025182 	0.01230474583 	0.006287439593 	-1.191926267e-07 	0.01796481779 	-8.145718619e-08 	3.424593577e-05
0.8550918897 	0.01231431241 	0.00629577314 	-1.333103859e-07 	0.01788427434 	-8.957436621e-08 	3.409239756e-05
0.8579497779 	0.01232265688 	0.006302964728 	-1.469960084e-07 	0.01780277546 	-9.726468263e-08 	3.393703805e-05
0.860776533 	0.01232987167 	0.006309077897 	-1.602475086e-07 	0.01772027253 	-1.044644893e-07 	3.377976454e-05
0.8635725003 	0.01233601697 	0.006314158377 	-1.730507733e-07 	0.01763675469 	-1.111369151e-07 	3.362055633e-05