0.4535129604 	4.167340126e-07 	-1.377372788e-09 	9.394207701e-14 	4.162701358e-07 	-1.294720553e-11 	7.935265752e-10
0.4535129604 	4.167340126e-07 	-1.377372788e-09 	9.3942077e-14 	4.162701358e-07 	-1.294720553e-11 	7.935265752e-10
0.4536885212 	4.746752887e-06 	-6.167092436e-08 	3.670569208e-12 	4.752422974e-06 	-1.233716732e-10 	9.059439056e-09
0.4538640836 	2.638164827e-05 	-8.070460156e-07 	4.504288505e-11 	2.652328803e-05 	-6.463199577e-10 	5.056075875e-08
0.4540396474 	8.744948187e-05 	-5.033836076e-06 	2.681028735e-10 	8.84768953e-05 	-2.071676557e-09 	1.686615533e-07
0.4542152125 	0.000214536361 	-2.030308106e-05 	1.033955121e-09 	0.0002189326518 	-4.948486065e-09 	4.173464835e-07
0.4543907787 	0.0004342958465 	-6.125943596e-05 	2.966409733e-09 	0.0004479328358 	-9.68848741e-09 	8.538844816e-07
0.4545663459 	0.0007693715096 	-0.0001497717968 	6.829111169e-09 	0.000803181358 	-1.632328951e-08 	1.531086901e-06
0.454741914 	0.001233689134 	-0.0003112117997 	1.320891309e-08 	0.001304450513 	-2.429016034e-08 	2.486645231e-06
0.4549174829 	0.001828333823 	-0.0005671398137 	2.215822219e-08 	0.001957761945 	-3.240938465e-08 	3.732038399e-06
0.4550930523 	0.002540243289 	-0.0009276512727 	3.30513444e-08 	0.002752061616 	-3.911820917e-08 	5.246194336e-06
0.4552686222 	0.003344559868 	-0.001387562966 	4.475832985e-08 	0.003661519364 	-4.310147761e-08 	6.979873574e-06
0.4554441925 	0.004210086895 	-0.00192904198 	5.617764361e-08 	0.004652125063 	-4.349246766e-08 	8.868243362e-06
0.4556197629 	0.005115901543 	-0.002468869634 	5.431749284e-08 	0.005681667647 	-3.968221316e-08 	1.083083767e-05
0.4557953335 	0.006047766074 	-0.002949350032 	4.865541963e-08 	0.006720218627 	-3.478179879e-08 	1.281060449e-05
0.455970904 	0.006985707356 	-0.003406357466 	5.223296663e-08 	0.007759341443 	-3.002192998e-08 	1.479146139e-05
0.4561464743 	0.007913915817 	-0.003858723069 	5.489427079e-08 	0.008788920271 	-2.268311153e-08 	1.675412479e-05
0.4563220442 	0.008822631938 	-0.004301479985 	5.660062956e-08 	0.00979604095 	-1.276997854e-08 	1.867397672e-05
0.4564976137 	0.009704229567 	-0.004730894869 	5.733607319e-08 	0.01077206744 	-7.7682256e-10 	2.053455449e-05
0.4566731827 	0.01055324066 	-0.005144355698 	5.715425006e-08 	0.01171141281 	1.321811034e-08 	2.232520783e-05
0.4568487509 	0.01136627348 	-0.005540229615 	5.611127269e-08 	0.01261035334 	2.902966631e-08 	2.403883834e-05
0.4570243182 	0.01214145955 	-0.00591765652 	5.426810248e-08 	0.01346683343 	4.646025075e-08 	2.567152743e-05
0.4571998846 	0.0128780615 	-0.006276404148 	5.168378793e-08 	0.01428008743 	6.532010606e-08 	2.722181558e-05
0.4573754499 	0.01357615518 	-0.006616772804 	4.840639262e-08 	0.0150502876 	8.543393315e-08 	2.869003118e-05
0.4575510139 	0.01423636812 	-0.00693953527 	4.446240356e-08 	0.0157782587 	1.066396839e-07 	3.007774643e-05
0.4577265766 	0.01485967273 	-0.007245891237 	3.984655149e-08 	0.01646526007 	1.287881592e-07 	3.138736197e-05
0.4579021377 	0.01544723972 	-0.007537420632 	3.451342939e-08 	0.01711283938 	1.517487198e-07 	3.262182812e-05
0.4580776973 	0.01600057098 	-0.007814392814 	2.910970331e-08 	0.0177226041 	1.753119299e-07 	3.378420915e-05
0.458253255 	0.01652221646 	-0.008070383242 	2.363556463e-08 	0.01829572228 	1.992197031e-07 	3.487673169e-05
0.4584288109 	0.01701429715 	-0.008306141338 	1.762791802e-08 	0.01883447114 	2.234460246e-07 	3.590373677e-05
0.4586043647 	0.01747810296 	-0.008528596759 	1.135368013e-08 	0.01934177286 	2.480255977e-07 	3.687079483e-05
0.4587799164 	0.01797396047 	-0.00876665385 	3.913354381e-09 	0.0198837812 	2.756912526e-07 	3.790401337e-05
0.4590526787 	0.01854825643 	-0.009042601637 	-5.677700461e-09 	0.02051062664 	3.119270793e-07 	3.909895501e-05
0.4593305614 	0.01913327036 	-0.009323887499 	-1.673056207e-08 	0.02114772293 	3.516866515e-07 	4.031343762e-05
0.4596136599 	0.01967554888 	-0.009584739615 	-2.820409801e-08 	0.02173695532 	3.919272325e-07 	4.143667832e-05
0.4599020716 	0.02017722161 	-0.009826126012 	-3.994546392e-08 	0.02228087734 	4.322822383e-07 	4.247354485e-05
0.4601958952 	0.02064033575 	-0.01004897461 	-5.178571203e-08 	0.02278169499 	4.723396334e-07 	4.34282425e-05
0.4604952317 	0.02106673773 	-0.01025414221 	-6.354192907e-08 	0.02324147803 	5.116611542e-07 	4.430471675e-05
0.4608001837 	0.02145813374 	-0.01044243123 	-7.503252611e-08 	0.02366216926 	5.498166207e-07 	4.510667116e-05
0.4611108555 	0.02181619369 	-0.01061463023 	-8.609763511e-08 	0.02404565047 	5.864255549e-07 	4.583769294e-05
0.4614273535 	0.02214298932 	-0.01077172044 	-9.671958653e-08 	0.02439423723 	6.21458151e-07 	4.650219618e-05
0.4617497859 	0.02244128553 	-0.01091501531 	-1.069710531e-07 	0.02471102479 	6.55120059e-07 	4.710608132e-05
0.462078263 	0.02271381426 	-0.01104581579 	-1.168035639e-07 	0.02499905586 	6.873192017e-07 	4.76551486e-05
0.4624128968 	0.02296265985 	-0.01116511864 	-1.261357811e-07 	0.02526062481 	7.178673159e-07 	4.815377171e-05
0.4627538017 	0.02318952776 	-0.01127374449 	-1.349457137e-07 	0.02549761122 	7.467169333e-07 	4.860553367e-05
0.4631010937 	0.02339599525 	-0.01137245528 	-1.432256729e-07 	0.02571176741 	7.738499301e-07 	4.901377491e-05
0.4634548912 	0.02358351828 	-0.01146195501 	-1.509800408e-07 	0.02590470889 	7.992706489e-07 	4.938157499e-05
0.4638153145 	0.02375343604 	-0.01154289109 	-1.582225485e-07 	0.02607791521 	8.230057602e-07 	4.971175436e-05
0.4641824861 	0.02390697316 	-0.01161585606 	-1.649745097e-07 	0.02623274152 	8.450938411e-07 	5.000689635e-05
0.4645565307 	0.02404536513 	-0.01168144537 	-1.712724492e-07 	0.02637052878 	8.655936856e-07 	5.026955717e-05
0.4649388915 	0.02416976492 	-0.01174021417 	-1.77177888e-07 	0.02649252329 	8.846955833e-07 	5.050211262e-05
0.4653293684 	0.0242809697 	-0.01179254961 	-1.827180894e-07 	0.02659962177 	9.024560558e-07 	5.070627208e-05
0.465727164 	0.02437961607 	-0.01183875958 	-1.879026003e-07 	0.02669253215 	9.188342309e-07 	5.088338508e-05
0.4661324151 	0.02446640769 	-0.01187918373 	-1.927656051e-07 	0.0267720281 	9.338934627e-07 	5.103492647e-05
0.4665452612 	0.02454203846 	-0.01191415776 	-1.973468792e-07 	0.02683887953 	9.477160163e-07 	5.116236386e-05
0.4669658443 	0.02460713576 	-0.01194398397 	-2.016876876e-07 	0.02689377328 	9.603816389e-07 	5.126700661e-05
0.467394309 	0.02466226203 	-0.01196893341 	-2.058302298e-07 	0.02693732689 	9.719731551e-07 	5.135003189e-05
0.4678308029 	0.02470792007 	-0.01198924826 	-2.09817634e-07 	0.02697009337 	9.825759048e-07 	5.141249392e-05
0.4682754759 	0.02474455751 	-0.01200514408 	-2.136937975e-07 	0.02699256641 	9.922771663e-07 	5.145533377e-05
0.4687284811 	0.02477257084 	-0.01201681178 	-2.175031246e-07 	0.02700518502 	1.001165628e-06 	5.147938836e-05
0.4691899741 	0.02479230914 	-0.01202441944 	-2.212902151e-07 	0.02700833798 	1.009330946e-06 	5.148539876e-05
0.4696601137 	0.02480407744 	-0.01202811402 	-2.250995573e-07 	0.02700236769 	1.016863406e-06 	5.147401773e-05
0.4701390614 	0.02480813994 	-0.01202802285 	-2.289752542e-07 	0.02698757391 	1.023853692e-06 	5.144581668e-05
0.470626982 	0.02480472283 	-0.01202425512 	-2.329607902e-07 	0.02696421704 	1.030392753e-06 	5.1401292e-05
0.4711240431 	0.02479401703 	-0.01201690316 	-2.370988288e-07 	0.02693252122 	1.036571614e-06 	5.134087096e-05
0.4716304156 	0.02477618067 	-0.01200604368 	-2.41431031e-07 	0.0268926772 	1.042481039e-06 	5.126491717e-05
0.4721462736 	0.02475134138 	-0.01199173893 	-2.459978786e-07 	0.02684484496 	1.048210993e-06 	5.117373562e-05
0.4726717942 	0.02471959847 	-0.01197403776 	-2.508384956e-07 	0.0267891562 	1.053850026e-06 	5.106757738e-05
0.473207158 	0.02468102494 	-0.01195297662 	-2.559904754e-07 	0.02672571664 	1.05948468e-06 	5.094664395e-05
0.4737525491 	0.02463566916 	-0.01192858045 	-2.614897016e-07 	0.02665460845 	1.065199428e-06 	5.081109198e-05
0.4743081547 	0.0245835572 	-0.01190086362 	-2.67370175e-07 	0.02657589103 	1.07107859e-06 	5.06610347e-05
0.4748741658 	0.02452469338 	-0.01186983054 	-2.736640389e-07 	0.02648960466 	1.077205597e-06 	5.049654888e-05
0.4754507766 	0.02445903541 	-0.01183546313 	-2.804001285e-07 	0.02639573835 	1.083643109e-06 	5.031761361e-05
0.4760390304 	0.02438644716 	-0.01179769212 	-2.876081053e-07 	0.02629413026 	1.090472433e-06 	5.012392036e-05
0.4766406634 	0.02430678305 	-0.01175645264 	-2.953225831e-07 	0.02618468377 	1.097827347e-06 	4.991528492e-05
0.4772535582 	0.02422005393 	-0.0117117559 	-3.035499409e-07 	0.02606747592 	1.105677266e-06 	4.969185418e-05
0.4778779252 	0.0241262606 	-0.01166360485 	-3.123199668e-07 	0.0259425431 	1.114122458e-06 	4.94536975e-05
0.4785139785 	0.02402529448 	-0.01161195477 	-3.216528388e-07 	0.02580984356 	1.123254812e-06 	4.92007353e-05
0.4791619364 	0.02391704507 	-0.01155675563 	-3.315689696e-07 	0.02566929697 	1.133140758e-06 	4.893281444e-05
0.479822021 	0.02380138584 	-0.01149795097 	-3.420869325e-07 	0.02552081529 	1.14384987e-06 	4.864976708e-05
0.4804944587 	0.02367817817 	-0.01143547868 	-3.532239779e-07 	0.02536429762 	1.155450801e-06 	4.835140091e-05
0.4811794801 	0.02354727235 	-0.01136927141 	-3.64996255e-07 	0.02519963108 	1.168010687e-06 	4.803750072e-05
0.4818773202 	0.02340850889 	-0.0112992572 	-3.77419022e-07 	0.02502669161 	1.181594963e-06 	4.770783001e-05
0.4825882181 	0.02326171985 	-0.01122536002 	-3.905068605e-07 	0.02484534512 	1.196267181e-06 	4.736213321e-05
0.4833124177 	0.02310673046 	-0.0111475006 	-4.042739186e-07 	0.02465544901 	1.212088895e-06 	4.700013845e-05
0.4840501672 	0.02294336069 	-0.01106559723 	-4.187341794e-07 	0.02445685446 	1.229120567e-06 	4.662156204e-05
0.4848017195 	0.02277142701 	-0.01097956664 	-4.33901735e-07 	0.02424940872 	1.24742548e-06 	4.62261128e-05
0.4855673323 	0.02259074437 	-0.01088932485 	-4.497913053e-07 	0.02403295624 	1.267070894e-06 	4.581349422e-05
0.4863472679 	0.02240107848 	-0.01079476752 	-4.664162441e-07 	0.02380731376 	1.288088157e-06 	4.538335694e-05
0.4871424131 	0.02220197218 	-0.01069568044 	-4.837764322e-07 	0.0235720411 	1.310548567e-06 	4.493486184e-05
0.487955776 	0.02199298285 	-0.01059186646 	-5.018851211e-07 	0.02332678804 	1.335029056e-06 	4.446734136e-05
0.488784347 	0.02174550624 	-0.01046918622 	-5.221135253e-07 	0.02303853626 	1.362812394e-06 	4.391785334e-05
0.4900561769 	0.02142727103 	-0.01031170393 	-5.504669355e-07 	0.02267030869 	1.405572053e-06 	4.321590925e-05
0.4913420125 	0.021063985 	-0.01013222316 	-5.629707576e-07 	0.02225250677 	1.4043029e-06 	4.241946266e-05
0.492642009 	0.02068444615 	-0.00994502174 	-5.638378649e-07 	0.02181863434 	1.375673571e-06 	4.159238122e-05
0.4939563229 	0.02028878609 	-0.00975017876 	-5.64060402e-07 	0.02136889605 	1.348258826e-06 	4.073505504e-05
0.4952851132 	0.01987708155 	-0.009547742816 	-5.635440102e-07 	0.02090341094 	1.321659745e-06 	3.984771105e-05
0.4966285401 	0.0194493416 	-0.00933773379 	-5.622185399e-07 	0.02042225678 	1.295531403e-06 	3.893049749e-05
0.4979867659 	0.01900506349 	-0.009119915403 	-5.600010347e-07 	0.01992490511 	1.269544089e-06 	3.798240699e-05
0.4993654849 	0.01854349925 	-0.008893950712 	-5.566884464e-07 	0.01941069572 	1.243167216e-06 	3.700218097e-05
0.5007599792 	0.01806470579 	-0.008659890598 	-5.525112159e-07 	0.0188798269 	1.216794383e-06 	3.599019746e-05
0.5021698222 	0.01756871339 	-0.008417765714 	-5.476246177e-07 	0.01833241919 	1.190663399e-06 	3.49466862e-05
0.5035951842 	0.01705485155 	-0.008167279091 	-5.421568341e-07 	0.01776791822 	1.165038955e-06 	3.387059046e-05
0.5050362374 	0.01652226753 	-0.007908011079 	-5.362115887e-07 	0.01718532454 	1.140213963e-06 	3.276000499e-05
0.506493156 	0.01597036656 	-0.007639608529 	-5.284175539e-07 	0.01658348616 	1.113115192e-06 	3.161273376e-05
0.5079661163 	0.01540156867 	-0.007363113878 	-5.164195789e-07 	0.01596399458 	1.078152155e-06 	3.043181063e-05
0.5094563425 	0.01482189098 	-0.007081249717 	-4.999718612e-07 	0.01533184959 	1.034206509e-06 	2.922676658e-05
0.5109679966 	0.01423754499 	-0.006796777589 	-4.800506469e-07 	0.01469194499 	9.827717743e-07 	2.800693056e-05
0.5124962823 	0.0136546982 	-0.00651238509 	-4.57287302e-07 	0.01404892261 	9.245533848e-07 	2.678115118e-05
0.5140413844 	0.01307985917 	-0.006230913044 	-4.317889483e-07 	0.01340789514 	8.59437102e-07 	2.555917466e-05
0.5156034901 	0.01251974985 	-0.005955317871 	-4.034018755e-07 	0.01277450583 	7.872811355e-07 	2.435175861e-05
0.5171827887 	0.0119820762 	-0.005688946831 	-3.71927857e-07 	0.01215521832 	7.116243641e-07 	2.317122448e-05
0.5187794715 	0.0114757955 	-0.005435162842 	-3.371719654e-07 	0.01155481696 	6.243260944e-07 	2.202669262e-05
0.5203942656 	0.01100311375 	-0.005196856613 	-2.999025034e-07 	0.01098729948 	5.23821597e-07 	2.094484656e-05
0.5220322396 	0.01056354721 	-0.004965726202 	-3.492312447e-07 	0.01046457434 	4.34890848e-07 	1.994838718e-05
0.5236882315 	0.0101623022 	-0.004637034578 	-4.011319758e-07 	0.009975868362 	3.615078027e-07 	1.901677775e-05
0.525362442 	0.009784705597 	-0.004242483197 	-3.590586218e-07 	0.009517344232 	2.935744499e-07 	1.814270331e-05
0.5270550745 	0.009416040184 	-0.003892887497 	-3.037205958e-07 	0.009093494118 	2.390331136e-07 	1.73347272e-05
0.5287663347 	0.009065250688 	-0.003570351059 	-2.573942607e-07 	0.008692856909 	1.950989807e-07 	1.657100132e-05
0.5304964306 	0.008736389908 	-0.00327065952 	-2.179162975e-07 	0.008310980939 	1.538781018e-07 	1.584303959e-05
0.5322487505 	0.008428417214 	-0.002989457264 	-1.846036295e-07 	0.007952647619 	1.16644112e-07 	1.515995669e-05
0.5340229257 	0.008142883386 	-0.002724224656 	-1.558061145e-07 	0.007617814506 	8.377834496e-08 	1.452167171e-05
0.5358166178 	0.00788088975 	-0.002474050407 	-1.306521855e-07 	0.007307093301 	5.533916841e-08 	1.392935073e-05
0.537630045 	0.007643057104 	-0.002238150747 	-1.085683483e-07 	0.007020685907 	3.138750653e-08 	1.338337864e-05
0.5394634285 	0.007429618219 	-0.002015730259 	-8.914641087e-08 	0.006758368129 	1.191596116e-08 	1.288332805e-05
0.5413169919 	0.00724043988 	-0.001805975588 	-7.207230179e-08 	0.006519519169 	-3.122562221e-09 	1.242801554e-05
0.543193629 	0.007075060151 	-0.001608016044 	-5.704400625e-08 	0.00630315047 	-1.381369786e-08 	1.201555667e-05
0.5450937731 	0.006932927858 	-0.00142116345 	-4.384497388e-08 	0.006108103278 	-2.028108387e-08 	1.164374251e-05
0.5470148217 	0.006813406202 	-0.001244992806 	-3.230052166e-08 	0.005932939475 	-2.270885843e-08 	1.130983161e-05
0.5489570095 	0.006715705762 	-0.001079119303 	-2.220811133e-08 	0.005775786109 	-2.135418279e-08 	1.101025362e-05
0.5509205742 	0.006639011191 	-0.0009233043064 	-1.333206054e-08 	0.005634493385 	-1.648495434e-08 	1.074091042e-05
0.552905756 	0.006582663317 	-0.0007770187295 	-5.480356599e-09 	0.005507443002 	-8.354201625e-09 	1.049871708e-05
0.5544172605 	0.006555044238 	-0.0006727612843 	1.528639833e-06 	0.005423047966 	-1.433503956e-06 	1.033783668e-05
0.5549169899 	0.00654591552 	-0.000638290596 	-1.481060886e-09 	0.005395148927 	-3.277960801e-09 	1.028465336e-05
0.5569509921 	0.00652720536 	-0.0005049327818 	-7.319358801e-09 	0.005298917195 	-1.861522034e-08 	1.010120893e-05
0.5590073931 	0.006524269922 	-0.0003760031888 	-1.300244553e-08 	0.005218169174 	-3.720070099e-08 	9.947280761e-06
0.5610864451 	0.006534986021 	-0.0002510646267 	-1.852653212e-08 	0.005151128047 	-5.866551515e-08 	9.81948174e-06
0.5631884037 	0.006557606642 	-0.0001296523974 	-2.388925124e-08 	0.005096017929 	-8.268674147e-08 	9.714426538e-06
0.5653160348 	0.00659062585 	-1.128996119e-05 	-2.910190144e-08 	0.005051324647 	-1.090509634e-07 	9.62922872e-06
0.5674695637 	0.006632721873 	0.0001044141342 	-3.414840728e-08 	0.005015794562 	-1.374907964e-07 	9.561498503e-06
0.5696468135 	0.006682723905 	0.0002177149373 	-3.901515806e-08 	0.004988329001 	-1.677273282e-07 	9.50914151e-06
0.5718480523 	0.006739591585 	0.0003288695244 	-4.370320029e-08 	0.004967991037 	-1.995658302e-07 	9.470371698e-06
0.5740735515 	0.00680244768 	0.0004381311145 	-4.820675462e-08 	0.004953946148 	-2.328417706e-07 	9.443598237e-06
0.5763259274 	0.006870539886 	0.0005457431878 	-5.25201937e-08 	0.004945494329 	-2.674479617e-07 	9.427486721e-06
0.5786054411 	0.006943192677 	0.0006518726965 	-5.662259718e-08 	0.004942016098 	-3.031913153e-07 	9.420856245e-06
0.5809100742 	0.007019781941 	0.0007565826878 	-6.050739774e-08 	0.004942944717 	-3.398635674e-07 	9.422626452e-06
0.5832401115 	0.007099743004 	0.0008599617054 	-6.417395833e-08 	0.004947828003 	-3.773224616e-07 	9.431935352e-06
0.5855958414 	0.007182641326 	0.0009621251569 	-6.762190176e-08 	0.004956232694 	-4.154473332e-07 	9.447957028e-06
0.5879809209 	0.007268091447 	0.001063219461 	-7.084492473e-08 	0.00496782023 	-4.541937083e-07 	9.470046093e-06
0.590393263 	0.007355708448 	0.001163291367 	-7.381418251e-08 	0.004982255969 	-4.933202337e-07 	9.497564624e-06
0.5928322043 	0.007445133149 	0.001262316067 	-7.654397481e-08 	0.004999223853 	-5.326817389e-07 	9.529910126e-06
0.5952980476 	0.007536057289 	0.001360327927 	-7.904206528e-08 	0.005018495726 	-5.721636538e-07 	9.566647672e-06
0.5977922851 	0.007628252361 	0.00145739751 	-8.130927778e-08 	0.005039853746 	-6.116973749e-07 	9.607361995e-06
0.6003168648 	0.007721487818 	0.00155358568 	-8.332675163e-08 	0.005063119518 	-6.511567654e-07 	9.651713022e-06
0.6028692929 	0.007815517549 	0.001648854777 	-8.509352123e-08 	0.005088088498 	-6.903295881e-07 	9.699310838e-06
0.6054498872 	0.007910111974 	0.001743171058 	-8.663192058e-08 	0.005114611749 	-7.291117286e-07 	9.749871527e-06
0.6080591046 	0.008005118185 	0.001836563157 	-8.794829141e-08 	0.005142570717 	-7.674089346e-07 	9.803169091e-06
0.610700678 	0.008100390379 	0.001929095391 	-8.902168705e-08 	0.00517188297 	-8.051634707e-07 	9.859046392e-06
0.6133714062 	0.008195746829 	0.002020731619 	-8.983515153e-08 	0.005202420628 	-8.421190324e-07 	9.917259655e-06
0.6160716229 	0.008291016154 	0.002111400159 	-9.042564726e-08 	0.005234078473 	-8.781824441e-07 	9.977608307e-06
0.6188016662 	0.008386080336 	0.002201110685 	-9.080072514e-08 	0.005266815734 	-9.132532381e-07 	1.004001462e-05
0.6215651523 	0.008480835745 	0.002289912969 	-9.093468315e-08 	0.005300600615 	-9.472730502e-07 	1.0104418e-05
0.6243592387 	0.008575141919 	0.002377765492 	-9.080755344e-08 	0.005335356133 	-9.799951996e-07 	1.017067168e-05
0.6271841974 	0.008668869326 	0.002464581603 	-9.043929244e-08 	0.005371012562 	-1.011355528e-06 	1.023864274e-05
0.630040679 	0.008761920988 	0.002550372612 	-8.974651741e-08 	0.005407575281 	-1.041328619e-06 	1.030834144e-05
0.6329314886 	0.008854220694 	0.002635180169 	-8.85750432e-08 	0.005445020374 	-1.069927875e-06 	1.03797222e-05
0.6358542509 	0.008945658716 	0.002718948907 	-8.702561355e-08 	0.005483282392 	-1.0969734e-06 	1.045266024e-05
0.638809334 	0.009036099157 	0.002801518433 	-8.618485241e-08 	0.005522350787 	-1.121816919e-06 	1.052713546e-05
0.6417981584 	0.009125327148 	0.002882555301 	-8.99919305e-08 	0.005562345283 	-1.144033041e-06 	1.060337608e-05
0.6448217377 	0.009212912128 	0.002961145658 	-1.058533544e-07 	0.005603517388 	-1.160602067e-06 	1.068186156e-05
0.6478787682 	0.009298077705 	0.003036086706 	-1.340955835e-07 	0.005646539778 	-1.165715758e-06 	1.076387419e-05
0.6509696362 	0.009379325585 	0.00310438558 	-2.087339767e-07 	0.005693859757 	-1.130404515e-06 	1.085407922e-05
0.6540967377 	0.009454712639 	0.003160432799 	-3.602988571e-07 	0.005749634773 	-1.034893023e-06 	1.096040191e-05
0.6572588978 	0.009524672693 	0.003204279492 	-4.832971716e-07 	0.00581388383 	-9.470839534e-07 	1.108287847e-05
0.6604560787 	0.009591828677 	0.00324281004 	-5.074093037e-07 	0.005881993217 	-9.170166265e-07 	1.121271389e-05
0.6636895472 	0.009657773862 	0.003280336792 	-4.989287988e-07 	0.005950694949 	-9.143940453e-07 	1.134367848e-05
0.6669601563 	0.009722851053 	0.003317397881 	-4.928104719e-07 	0.006018972057 	-9.160673345e-07 	1.147383363e-05
0.6702670102 	0.009787004453 	0.003353936922 	-4.856843609e-07 	0.006086699628 	-9.156072376e-07 	1.16029412e-05
0.6736107231 	0.009850113842 	0.00339002473 	-4.774145983e-07 	0.006154000958 	-9.126932632e-07 	1.173123624e-05
0.6769932431 	0.009912110487 	0.00342569364 	-4.685554649e-07 	0.006220934002 	-9.083784525e-07 	1.185882923e-05
0.6804132742 	0.00997295706 	0.003460924286 	-4.590682483e-07 	0.00628745897 	-9.025259476e-07 	1.198564431e-05
0.6838712526 	0.01003261083 	0.00349572432 	-4.489353995e-07 	0.006353589712 	-8.950554906e-07 	1.211170788e-05
0.6873691649 	0.01009101837 	0.003530129217 	-4.381615433e-07 	0.006419397226 	-8.859591481e-07 	1.223715529e-05
0.6909060268 	0.01014815428 	0.003564126924 	-4.267649022e-07 	0.006484859703 	-8.752124788e-07 	1.236194497e-05
0.6944821627 	0.01020399048 	0.003597720919 	-4.148054231e-07 	0.006549987748 	-8.628870145e-07 	1.248609712e-05
0.6980992752 	0.01025847991 	0.003630948777 	-4.022951408e-07 	0.006614863332 	-8.489893416e-07 	1.260976802e-05
0.7017567755 	0.01031161442 	0.003663800371 	-3.892495569e-07 	0.006679470758 	-8.334861555e-07 	1.273292773e-05
0.7054549232 	0.01036338099 	0.003696282521 	-3.757258669e-07 	0.006743830862 	-8.164451888e-07 	1.285561597e-05
0.7091953095 	0.01041374937 	0.003728432616 	-3.617397807e-07 	0.0068080307 	-7.978744709e-07 	1.297799871e-05
0.712977415 	0.01046273158 	0.003760245188 	-3.473196384e-07 	0.006872065295 	-7.777661444e-07 	1.310006644e-05
0.7168016154 	0.01051032663 	0.003791740979 	-3.325292748e-07 	0.006935988216 	-7.562125027e-07 	1.32219213e-05
0.7206694186 	0.01055652897 	0.003822959378 	-3.173909134e-07 	0.006999894795 	-7.332287727e-07 	1.3343745e-05
0.7245802603 	0.0106012677 	0.003853815927 	-3.019755415e-07 	0.0070636145 	-7.088693082e-07 	1.346521247e-05
0.728491219 	0.01064423002 	0.003884086405 	-2.865019112e-07 	0.007126683867 	-6.835074803e-07 	1.358544021e-05
0.7323596049 	0.01068516861 	0.003913571149 	-2.711490676e-07 	0.007188672525 	-6.574627495e-07 	1.370360782e-05
0.7361852235 	0.01072413805 	0.003942240934 	-2.559969651e-07 	0.007249490696 	-6.308901318e-07 	1.381954416e-05
0.7399688599 	0.01076127128 	0.003970179378 	-2.410909992e-07 	0.007309295077 	-6.039279935e-07 	1.393354793e-05
0.7437111026 	0.01079672242 	0.003997450997 	-2.264466249e-07 	0.007368196603 	-5.766278053e-07 	1.404583061e-05
0.747412009 	0.0108306521 	0.004024112919 	-2.1210977e-07 	0.007426290382 	-5.491136598e-07 	1.41565735e-05
0.7510723258 	0.01086318559 	0.00405024967 	-1.98108811e-07 	0.007483743215 	-5.214924666e-07 	1.426609457e-05
0.7546925061 	0.01089447739 	0.004075921391 	-1.844530995e-07 	0.007540660379 	-4.938037144e-07 	1.43745945e-05
0.758272727 	0.01092468442 	0.004101185654 	-1.711776119e-07 	0.007597142684 	-4.66154198e-07 	1.448226547e-05
0.7618136489 	0.01095393288 	0.004126122332 	-1.583023702e-07 	0.007653352012 	-4.38631519e-07 	1.458941607e-05
0.7653157208 	0.01098237692 	0.004150789679 	-1.458316396e-07 	0.007709392698 	-4.112652043e-07 	1.46962452e-05
0.7687791594 	0.01101017286 	0.00417524442 	-1.337903751e-07 	0.00776536672 	-3.841423371e-07 	1.480294724e-05
0.7722045214 	0.01103745008 	0.004199562138 	-1.221940795e-07 	0.007821430025 	-3.573392853e-07 	1.490981948e-05
0.775592316 	0.01106436179 	0.004223801785 	-1.110431508e-07 	0.007877691744 	-3.308784035e-07 	1.501706996e-05
0.7789427553 	0.01109106704 	0.004248019065 	-1.003530799e-07 	0.007934253069 	-3.048250492e-07 	1.512489156e-05
0.7822562941 	0.01111770337 	0.004272285006 	-9.013614279e-08 	0.007991260873 	-2.792467787e-07 	1.523356428e-05
0.7855335223 	0.01114442338 	0.004296661683 	-8.039121109e-08 	0.008048835144 	-2.541658777e-07 	1.534331684e-05
0.788774628 	0.01117139094 	0.004321205084 	-7.112350066e-08 	0.008107078002 	-2.296216613e-07 	1.545434392e-05
0.7919800171 	0.01119875782 	0.004345981006 	-6.23418424e-08 	0.0081661218 	-2.056716591e-07 	1.556689781e-05
0.7951502328 	0.01122667525 	0.004371057021 	-5.404699848e-08 	0.008226103709 	-1.823492188e-07 	1.568124e-05
0.798285556 	0.01125531252 	0.004396491579 	-4.623473823e-08 	0.008287130807 	-1.596668382e-07 	1.579757461e-05
0.8013863374 	0.01128483675 	0.004422347489 	-3.891069491e-08 	0.008349323857 	-1.376724657e-07 	1.591613185e-05
0.8044530048 	0.01131540326 	0.004448696716 	-3.207690431e-08 	0.008412832485 	-1.164063392e-07 	1.603719694e-05
0.8074859852 	0.01134718618 	0.004475603372 	-2.572687248e-08 	0.0084777776 	-9.587519959e-08 	1.616100038e-05
0.8104855581 	0.01138036528 	0.004503131964 	-1.986032164e-08 	0.008544280237 	-7.610816518e-08 	1.628777289e-05
0.8134520959 	0.01141511338 	0.004531354573 	-1.447809736e-08 	0.008612485686 	-5.714159233e-08 	1.641779143e-05
0.816386033 	0.01145160735 	0.004560344492 	-9.577559157e-09 	0.008682540676 	-3.899919399e-08 	1.655133572e-05
0.8192876894 	0.01149003833 	0.004590171474 	-5.151231661e-09 	0.008754575812 	-2.168405976e-08 	1.668865471e-05
0.8221573933 	0.01153059956 	0.00462090855 	-1.197809082e-09 	0.008828731218 	-5.224464695e-09 	1.683001552e-05
0.8230922397 	0.01154472401 	0.004631358064 	2.280282376e-07 	0.008853907187 	6.661316563e-07 	1.687800791e-05
0.8249954061 	0.01157347794 	0.00465263323 	-2.365117226e-09 	0.008905168886 	-1.031181072e-08 	1.697572696e-05
0.8278021922 	0.01161887085 	0.004685426274 	-5.491788646e-09 	0.008984044293 	-2.493352003e-08 	1.712608541e-05
0.8305780822 	0.0116669848 	0.004719368082 	-8.147564299e-09 	0.009065508474 	-3.865405912e-08 	1.728137878e-05
0.8333234135 	0.01171802526 	0.004754542635 	-1.033520356e-08 	0.009149727686 	-5.144920497e-08 	1.7441924e-05
0.836038525 	0.01177219474 	0.004791039649 	-1.205727641e-08 	0.009236886562 	-6.329486081e-08 	1.760807305e-05
0.8387237968 	0.01182970264 	0.004828950076 	-1.331845388e-08 	0.00932716942 	-7.417930195e-08 	1.778017727e-05
0.8413795096 	0.01189076353 	0.004868367022 	-1.412262935e-08 	0.009420764931 	-8.409042357e-08 	1.795859632e-05
0.8440059901 	0.01195558902 	0.004909389596 	-1.44702812e-08 	0.009517882739 	-9.300173949e-08 	1.814372986e-05
0.8466035617 	0.01202438809 	0.004952123022 	-1.436078296e-08 	0.009618753199 	-1.008848151e-07 	1.833601699e-05
0.8491725713 	0.0120973726 	0.004996676578 	-1.379365515e-08 	0.009723618011 	-1.077171884e-07 	1.853591847e-05
0.8517133075 	0.0121747595 	0.005043163355 	-1.276783551e-08 	0.009832729302 	-1.134791733e-07 	1.874391491e-05
0.8542260787 	0.01225676571 	0.005091703085 	-1.127952666e-08 	0.00994636277 	-1.181383837e-07 	1.896053189e-05
0.8567111938 	0.01234360957 	0.005142422464 	-9.323977926e-09 	0.01006481782 	-1.216612062e-07 	1.918634014e-05
0.85916897 	0.01243551686 	0.00519545372 	-6.896365352e-09 	0.01018840969 	-1.240171239e-07 	1.942194059e-05
0.8615997037 	0.01253272695 	0.005250933507 	-3.992569134e-09 	0.01031746273 	-1.251857194e-07 	1.966795155e-05
0.8640036837 	0.01263549184 	0.005309004082 	-6.082910184e-10 	0.01045231642 	-1.251409797e-07 	1.992502017e-05
0.8663812051 	0.01274407664 	0.005369813724 	3.259769474e-09 	0.01059332622 	-1.238597775e-07 	2.019382404e-05
0.8687325604 	0.0128587665 	0.005433514657 	7.612589296e-09 	0.01074085172 	-1.213260829e-07 	2.047504864e-05
0.8710580494 	0.01297986914 	0.005500261862 	1.244822651e-08 	0.01089525069 	-1.175375055e-07 	2.0769376e-05
0.8733579429 	0.01310771635 	0.005570211115 	1.776089643e-08 	0.01105687123 	-1.125016438e-07 	2.107746966e-05
0.8756325228 	0.01324265853 	0.005643518395 	2.354004007e-08 	0.01122605263 	-1.06234036e-07 	2.139997643e-05
0.8778820682 	0.01338506315 	0.005720336794 	2.976945093e-08 	0.01140311375 	-9.876422013e-08 	2.173750414e-05
0.8801068572 	0.01353530819 	0.005800813331 	3.642662731e-08 	0.01158834448 	-9.013751073e-08 	2.209060538e-05
0.8823071649 	0.01369377517 	0.005885084389 	4.348301226e-08 	0.011781992 	-8.041986614e-08 	2.24597514e-05
0.8844832541 	0.01386083429 	0.005973271517 	5.090252878e-08 	0.01198425506 	-6.96923926e-08 	2.284532099e-05
0.8866353917 	0.01403682632 	0.006065476785 	5.864167241e-08 	0.01219527797 	-5.805239438e-08 	2.324758931e-05
0.8887638413 	0.01422204684 	0.006161776354 	6.664979426e-08 	0.01241513621 	-4.561506735e-08 	2.366670022e-05
0.8908688648 	0.01441672479 	0.006262214756 	7.487011936e-08 	0.01264383021 	-3.251015851e-08 	2.410265454e-05
0.8929507216 	0.01462100462 	0.006366798123 	8.324130377e-08 	0.01288127188 	-1.888417376e-08 	2.455528437e-05
0.8950096626 	0.01483492496 	0.006475488706 	9.169647449e-08 	0.01312728092 	-4.897138841e-09 	2.502424597e-05
0.8970459398 	0.01505840084 	0.006588200461 	1.001654135e-07 	0.01338158231 	9.28369283e-09 	2.550901511e-05
0.8990598026 	0.01529121485 	0.006704795586 	1.085769137e-07 	0.01364380011 	2.348828057e-08 	2.600887511e-05
0.9010514977 	0.01553301131 	0.006825084214 	1.16860586e-07 	0.01391346262 	3.754599452e-08 	2.65229268e-05
0.9030212711 	0.01578330052 	0.006948826013 	1.249504674e-07 	0.01419000622 	5.129377299e-08 	2.705009577e-05
0.9049693608 	0.01604146799 	0.007075733681 	1.32786477e-07 	0.01447278327 	6.458562666e-08 	2.758914741e-05
0.9068960052 	0.01630678374 	0.007205478251 	1.403123821e-07 	0.01476107727 	7.729194557e-08 	2.813871591e-05
0.9088014402 	0.01657841849 	0.007337694689 	1.474771351e-07 	0.01505411191 	8.929773683e-08 	2.869732138e-05
0.910685899 	0.01685546309 	0.007471988886 	1.542360592e-07 	0.0153510638 	1.005033111e-07 	2.926339421e-05
0.9125496127 	0.01713694996 	0.007607946476 	1.605525929e-07 	0.0156510804 	1.10829601e-07 	2.983530924e-05
0.9143928095 	0.0174218801 	0.007745142223 	1.664001842e-07 	0.01595329409 	1.202194484e-07 	3.041141252e-05
0.9162157138 	0.01770924652 	0.007883149772 	1.71759789e-07 	0.0162568423 	1.286339267e-07 	3.099005978e-05
0.9180185488 	0.01799805509 	0.008021550019 	1.766196483e-07 	0.01656088341 	1.360519766e-07 	3.156964665e-05
0.9198015351 	0.01828734294 	0.008159937339 	1.809751093e-07 	0.01686460489 	1.424694194e-07 	3.21486242e-05
0.9215648909 	0.01857619017 	0.008297924545 	1.84828051e-07 	0.01716723358 	1.478981896e-07 	3.272551859e-05
0.9233088322 	0.0188637291 	0.008435146517 	1.881863134e-07 	0.01746804205 	1.523641816e-07 	3.329894315e-05