0.2743793766 	1.047539149e-06 	-8.258745877e-09 	-4.019810451e-12 	1.036879992e-06 	6.020649403e-10 	1.976581451e-09
0.2746002666 	1.631379083e-05 	-5.393256388e-07 	-1.483081314e-10 	1.571753643e-05 	6.856743782e-09 	2.996199289e-08
0.2748211659 	0.0001007895143 	-7.759874891e-06 	-1.648749789e-09 	9.246418397e-05 	3.787985312e-08 	1.762624337e-07
0.2750420732 	0.0003591192443 	-4.882722936e-05 	-9.821167165e-09 	0.0003072650709 	1.282251343e-07 	5.857326251e-07
0.2752629871 	0.0009201267858 	-0.0001855246326 	-4.168253844e-08 	0.000723847599 	3.259673341e-07 	1.379854707e-06
0.2754839061 	0.001880014076 	-0.0004960360913 	-1.352708122e-07 	0.001356441237 	6.796093597e-07 	2.585754e-06
0.2757048289 	0.003239504497 	-0.0010235261 	-3.439949608e-07 	0.002161919611 	1.211702958e-06 	4.121219653e-06
0.2759257541 	0.00483925541 	-0.001630048191 	-7.988302575e-07 	0.003124871109 	1.824669148e-06 	5.956872848e-06
0.2761466802 	0.006533698806 	-0.002210261694 	-1.327871637e-06 	0.004208381094 	2.527217905e-06 	8.022344023e-06
0.276367606 	0.008272513929 	-0.002798810647 	-1.761446295e-06 	0.005328080514 	3.356987294e-06 	1.015680232e-05
0.2765885301 	0.009994094848 	-0.003385112494 	-2.201543588e-06 	0.006434051282 	4.226833939e-06 	1.226509e-05
0.276809451 	0.01165219754 	-0.003961568833 	-2.614726886e-06 	0.0074866193 	5.118504109e-06 	1.427157718e-05
0.2770303673 	0.01321401018 	-0.004531223211 	-2.978480872e-06 	0.00845014568 	6.025172175e-06 	1.610832626e-05
0.2772512778 	0.01464856318 	-0.005096381369 	-3.305473907e-06 	0.009291500436 	6.945505058e-06 	1.771218227e-05
0.277472181 	0.01591837735 	-0.005647051881 	-3.642031107e-06 	0.009983747449 	7.868998338e-06 	1.903179748e-05
0.2776930756 	0.01698209021 	-0.006159210086 	-4.043974918e-06 	0.01051068193 	8.772726451e-06 	2.003628104e-05
0.2779139602 	0.01780506918 	-0.006603039465 	-4.513379477e-06 	0.01086883576 	9.54137394e-06 	2.07190218e-05
0.2781348334 	0.01836921182 	-0.006953426953 	-4.942016764e-06 	0.01106627161 	9.888260461e-06 	2.109538939e-05
0.2783556938 	0.01867617928 	-0.007196074077 	-5.466246771e-06 	0.01111938635 	1.007395799e-05 	2.119664086e-05
0.2785765402 	0.01874411477 	-0.007328093358 	-6.1011412e-06 	0.01104937576 	1.008031719e-05 	2.106318121e-05
0.2787973711 	0.01858756318 	-0.007331660192 	-6.108031083e-06 	0.01089005288 	1.025135623e-05 	2.075946752e-05
0.2790181852 	0.01819017123 	-0.007134680846 	-5.440207892e-06 	0.01070212986 	1.059777872e-05 	2.040123401e-05
0.2792389811 	0.01760454395 	-0.006786397501 	-5.279610898e-06 	0.01048780642 	1.052959004e-05 	1.999267398e-05
0.2794597575 	0.01693375353 	-0.006417431176 	-5.492974223e-06 	0.01021235356 	1.010467556e-05 	1.946758426e-05
0.279680513 	0.01622366941 	-0.00605916632 	-5.532240404e-06 	0.009887643161 	9.629288348e-06 	1.884859599e-05
0.2799012463 	0.0154952894 	-0.005712459812 	-5.516639766e-06 	0.00953364555 	9.067940302e-06 	1.817377816e-05
0.280121956 	0.014763894 	-0.005375733957 	-5.410659888e-06 	0.009167330278 	8.424920493e-06 	1.747547944e-05
0.2803426408 	0.01404597525 	-0.005052249071 	-5.186344343e-06 	0.008802071632 	7.711380748e-06 	1.677919494e-05
0.2805632993 	0.01335746177 	-0.004747633878 	-4.830199354e-06 	0.008448607135 	6.943364036e-06 	1.610539337e-05
0.2807839302 	0.01271280757 	-0.004468223497 	-4.346919849e-06 	0.008115332537 	6.135645986e-06 	1.547007936e-05
0.2810045322 	0.01204720711 	-0.00418850754 	-3.688661579e-06 	0.007768041357 	5.21008437e-06 	1.480804584e-05
0.2813472362 	0.01133879612 	-0.003904856537 	-2.762882396e-06 	0.007397794694 	3.961156296e-06 	1.41022528e-05
0.281696301 	0.01071140486 	-0.003673024871 	-1.804698413e-06 	0.007083590754 	2.539833852e-06 	1.350329276e-05
0.2820518376 	0.01022832606 	-0.00350620539 	-1.52672334e-06 	0.006884536209 	1.052713316e-06 	1.312383947e-05
0.2824139586 	0.009819815902 	-0.003286511568 	-2.224572844e-06 	0.006822697205 	-3.567426382e-07 	1.300595714e-05
0.2827827779 	0.009442969476 	-0.002968557708 	-2.187953046e-06 	0.006880847765 	-1.261747673e-06 	1.311680827e-05
0.283158411 	0.009134380042 	-0.002674218301 	-1.436908499e-06 	0.007006244428 	-1.784668804e-06 	1.335584916e-05
0.2835409748 	0.008904647716 	-0.002447377427 	-1.087199085e-06 	0.007174085925 	-2.164384477e-06 	1.367580171e-05
0.2839305874 	0.008733209088 	-0.002255403283 	-8.717464104e-07 	0.00737451996 	-2.374799156e-06 	1.405788469e-05
0.2843273686 	0.008604038631 	-0.00208834658 	-6.777881065e-07 	0.007599643609 	-2.471017837e-06 	1.448703293e-05
0.2847314394 	0.008505460997 	-0.001943586026 	-5.22080224e-07 	0.007843561907 	-2.461239779e-06 	1.4952009e-05
0.285142922 	0.008429521801 	-0.001817131259 	-4.020315126e-07 	0.008099943545 	-2.374678828e-06 	1.544074366e-05
0.2855619401 	0.008369993341 	-0.001705280324 	-3.100412027e-07 	0.008364588796 	-2.230531012e-06 	1.594523106e-05
0.2859886185 	0.008322048679 	-0.001604940068 	-2.396576021e-07 	0.008634750783 	-2.039188031e-06 	1.64602349e-05
0.2864230833 	0.008282053476 	-0.001513527047 	-1.852683436e-07 	0.008908429586 	-1.80754721e-06 	1.698194276e-05
0.2868654618 	0.008247276225 	-0.001428907063 	-1.4220935e-07 	0.009184123815 	-1.540593706e-06 	1.750749259e-05
0.2873158822 	0.008215641947 	-0.001349316834 	-1.066465061e-07 	0.009460709941 	-1.241928644e-06 	1.803474262e-05
0.287774474 	0.00818555584 	-0.001273287035 	-7.536001287e-08 	0.009737349366 	-9.141693208e-07 	1.856209425e-05
0.2882413675 	0.008155776794 	-0.001199579385 	-4.556073815e-08 	0.0100134206 	-5.592201083e-07 	1.908836276e-05
0.2887166941 	0.008125325098 	-0.001127136441 	-1.474089324e-08 	0.01028847202 	-1.784415611e-07 	1.961268721e-05
0.2889322335 	0.008111089326 	-0.001095019776 	1.453734492e-06 	0.0104104168 	5.167448195e-06 	1.984514784e-05
0.2891994944 	0.008093336389 	-0.001055011359 	-1.832786908e-08 	0.01056239324 	-2.165457744e-07 	2.013485718e-05
0.2896900884 	0.008059142845 	-0.0009823736149 	-5.501850111e-08 	0.01083495096 	-6.265813662e-07 	2.065442794e-05
0.2901894873 	0.008022254702 	-0.0009085111059 	-9.813040495e-08 	0.01110589004 	-1.059759435e-06 	2.117091315e-05
0.2906978253 	0.007982204102 	-0.0008327649062 	-1.499398539e-07 	0.01137521636 	-1.515825372e-06 	2.168432397e-05
0.2912152375 	0.007938698217 	-0.0007544306137 	-2.123791696e-07 	0.01164294644 	-1.994538964e-06 	2.219469191e-05
0.2917434627 	0.007891795273 	-0.0006738972643 	-2.787263116e-07 	0.01191078381 	-2.494007649e-06 	2.270526437e-05
0.2922969899 	0.007847129515 	-0.0005898727946 	-3.581262259e-07 	0.01214601433 	-2.762010679e-06 	2.315367912e-05
0.2928605311 	0.007812408898 	-0.0005028104873 	-4.489760271e-07 	0.0123088779 	-2.562194795e-06 	2.346414235e-05
0.2934342614 	0.007787879424 	-0.0004175596944 	-5.103342345e-07 	0.01241180919 	-2.290159169e-06 	2.366035801e-05
0.294018359 	0.007769272387 	-0.0003367712584 	-5.376750414e-07 	0.01248583648 	-2.316973598e-06 	2.380147458e-05
0.2946130049 	0.007753143589 	-0.000260819636 	-5.544300958e-07 	0.01255003086 	-2.544744854e-06 	2.392384692e-05
0.2952183831 	0.007738302091 	-0.0001893882295 	-5.67757621e-07 	0.01260939663 	-2.767926135e-06 	2.403701458e-05
0.2958346806 	0.007724576348 	-0.00012236153 	-5.679137331e-07 	0.01266411512 	-2.982908893e-06 	2.414132322e-05
0.2964620875 	0.007711896695 	-5.981248656e-05 	-5.529695094e-07 	0.01271432443 	-3.189225761e-06 	2.423703613e-05
0.2971007972 	0.007700190829 	-1.782309191e-06 	-5.223360282e-07 	0.01276018583 	-3.386696002e-06 	2.432446071e-05
0.2977510059 	0.007689386372 	5.174199083e-05 	-4.759516559e-07 	0.01280188217 	-3.57533797e-06 	2.440394551e-05
0.2984129134 	0.007679410736 	0.0001008255096 	-4.141256113e-07 	0.01283961514 	-3.755390951e-06 	2.447587504e-05
0.2990867225 	0.007670191008 	0.000145581397 	-3.376058752e-07 	0.01287360253 	-3.927282149e-06 	2.454066445e-05
0.2997726395 	0.007661655116 	0.0001861670942 	-2.475461135e-07 	0.01290407501 	-4.091606361e-06 	2.459875346e-05
0.3004708739 	0.007653732874 	0.0002227792332 	-1.408132778e-07 	0.012931273 	-4.11396016e-06 	2.465060039e-05
0.3011816387 	0.007646356813 	0.0002556474369 	-2.832896312e-08 	0.01295544366 	-3.772684865e-06 	2.46966764e-05
0.3019051506 	0.007639462989 	0.0002850275055 	6.637825053e-08 	0.01297683795 	-3.441729044e-06 	2.473745987e-05
0.3026416294 	0.007632991714 	0.0003111942426 	1.429380457e-07 	0.01299570776 	-3.121301744e-06 	2.477343096e-05
0.3033912988 	0.007626888124 	0.0003344340777 	2.014993918e-07 	0.01301230325 	-2.81136586e-06 	2.480506658e-05
0.3041543861 	0.007621102686 	0.0003550378614 	2.426644604e-07 	0.01302687042 	-2.511664603e-06 	2.483283565e-05
0.3049311222 	0.007615592333 	0.0003732954776 	2.674076846e-07 	0.01303964842 	-2.221752704e-06 	2.485719406e-05
0.3057217419 	0.00761031971 	0.0003894895814 	2.769836999e-07 	0.01305086788 	-1.941029931e-06 	2.487858149e-05
0.3065264837 	0.007605246808 	0.0004038784861 	2.72821364e-07 	0.0130607524 	-1.668772699e-06 	2.489742413e-05
0.30734559 	0.007600355268 	0.0004167489865 	2.564726676e-07 	0.01306950494 	-1.404187213e-06 	2.491410889e-05
0.3081793073 	0.007595622036 	0.0004283360254 	2.295057626e-07 	0.01307734669 	-1.146373105e-06 	2.492905744e-05
0.3090396834 	0.007590987084 	0.0004388562863 	1.926879358e-07 	0.01308451698 	-8.910105769e-07 	2.494272601e-05
0.3099300024 	0.007586437616 	0.0004485799308 	1.470409562e-07 	0.01309116266 	-6.367965294e-07 	2.495539453e-05
0.3108360934 	0.00758201596 	0.0004575877275 	9.454932547e-08 	0.01309737966 	-3.873099339e-07 	2.496724586e-05
0.3117582235 	0.007577745618 	0.0004659351136 	3.62902786e-08 	0.01310329942 	-1.417779448e-07 	2.497853058e-05
0.3123043765 	0.007575346525 	0.0004704863172 	9.080820389e-08 	0.01310663731 	-5.120051804e-07 	2.498489351e-05
0.3126953167 	0.007573596119 	0.0004737276256 	2.488254518e-08 	0.01310901115 	-1.000453336e-07 	2.498941872e-05
0.3136470823 	0.007569561751 	0.0004810679213 	8.793109466e-08 	0.01311462479 	-3.382919113e-07 	2.500011987e-05
0.3146156796 	0.007565699732 	0.000488105102 	1.550565576e-07 	0.01312031567 	-5.741008857e-07 	2.501096827e-05
0.3156013933 	0.007562027071 	0.0004949018336 	2.257228953e-07 	0.01312617751 	-8.079928862e-07 	2.502214256e-05
0.3166045131 	0.007558618216 	0.0005016053799 	2.995141386e-07 	0.01313226408 	-1.040402144e-06 	2.503374527e-05
0.317625333 	0.00755546054 	0.0005081556042 	3.76188071e-07 	0.01313866959 	-1.271680388e-06 	2.504595593e-05
0.3186641519 	0.007552021881 	0.0005151224523 	4.563659888e-07 	0.01314639193 	-1.501312281e-06 	2.506067686e-05
0.3202565896 	0.007548293618 	0.0005238178395 	5.799665537e-07 	0.01315666379 	-1.846732934e-06 	2.508025789e-05
0.3218639873 	0.007544927857 	0.0005332482617 	7.080884979e-07 	0.01316868444 	-2.184839102e-06 	2.51031726e-05
0.3234864874 	0.007542303455 	0.0005425684984 	8.401439016e-07 	0.0131817073 	-2.517132927e-06 	2.512799778e-05
0.3251242338 	0.007540319835 	0.0005516810978 	9.148995569e-07 	0.01319593839 	-2.665380384e-06 	2.51551262e-05
0.3268210344 	0.007538986863 	0.0005608382178 	8.036689564e-07 	0.01321154731 	-2.278285245e-06 	2.518488113e-05
0.3285380987 	0.007538370449 	0.0005701859807 	6.877255841e-07 	0.01322845083 	-1.898535315e-06 	2.521710393e-05
0.3302710469 	0.007538482402 	0.0005795208096 	5.673491393e-07 	0.01324658577 	-1.526468869e-06 	2.525167418e-05
0.3320200309 	0.007539296399 	0.0005888915515 	4.426391588e-07 	0.01326595032 	-1.161496859e-06 	2.528858839e-05
0.3337852045 	0.007540803667 	0.0005983402429 	3.136235214e-07 	0.01328654296 	-8.031073679e-07 	2.532784369e-05
0.3355667239 	0.007542993301 	0.0006078957564 	1.803207299e-07 	0.0133083597 	-4.508599618e-07 	2.536943245e-05
0.3373647476 	0.00754584229 	0.0006175586936 	4.272766003e-08 	0.0133314005 	-1.043652903e-07 	2.541335462e-05
0.3379166306 	0.007546907669 	0.0006205502265 	4.370745927e-08 	0.01333876616 	-5.260458822e-07 	2.542739562e-05
0.3391758841 	0.007549275 	0.000627339524 	9.550504911e-08 	0.01335554957 	-2.344471035e-07 	2.545938945e-05
0.3410023172 	0.007553347882 	0.00063721639 	2.363132053e-07 	0.01338097967 	-5.673036336e-07 	2.55078663e-05
0.3428788787 	0.007558091357 	0.000647321401 	3.840063304e-07 	0.01340793663 	-9.016162493e-07 	2.555925376e-05
0.3447903039 	0.007563517571 	0.0006578206232 	5.374178944e-07 	0.0134363406 	-1.234292226e-06 	2.561339963e-05
0.3467192621 	0.007569609087 	0.0006685564729 	6.9514367e-07 	0.01346601201 	-1.562253298e-06 	2.566996157e-05
0.3486659273 	0.007576327855 	0.0006794816366 	8.572070731e-07 	0.01349688254 	-1.885739497e-06 	2.572880938e-05
0.3506304766 	0.007583655918 	0.0006906317351 	1.023653962e-06 	0.01352893283 	-2.204990641e-06 	2.578990614e-05
0.3526130898 	0.007591575727 	0.0007020059458 	1.056912696e-06 	0.01356214942 	-2.229915961e-06 	2.58532262e-05
0.35461395 	0.007600090222 	0.0007136702554 	9.142226424e-07 	0.01359650143 	-1.889818358e-06 	2.591871068e-05
0.3566332432 	0.007609225451 	0.0007255985489 	7.672974284e-07 	0.01363208569 	-1.554389802e-06 	2.598654416e-05
0.3586952308 	0.007619001595 	0.0007378156197 	6.14058426e-07 	0.01366916004 	-1.219200191e-06 	2.605721818e-05
0.3608045228 	0.00762942594 	0.000750518791 	4.541446462e-07 	0.01370771856 	-8.837834676e-07 	2.613072143e-05
0.3629329609 	0.007640461812 	0.0007636072209 	2.898403099e-07 	0.01374750463 	-5.529818994e-07 	2.620656475e-05
0.3650807436 	0.007652058075 	0.0007769493799 	1.210800159e-07 	0.01378839596 	-2.265428821e-07 	2.628451499e-05
0.3666015274 	0.007660565159 	0.0007865026337 	6.524492712e-08 	0.01381784861 	-4.206898635e-07 	2.634065993e-05
0.3672465724 	0.007664154433 	0.0007905358564 	5.031342211e-08 	0.01383033238 	-9.503948617e-08 	2.636445747e-05
0.3694286528 	0.007676696075 	0.00080430951 	2.216747124e-07 	0.01387324057 	-4.111313671e-07 	2.64462524e-05
0.3716307393 	0.007689794741 	0.0008184779856 	3.972928258e-07 	0.01391720145 	-7.236367156e-07 	2.653005405e-05
0.3738590475 	0.007703498752 	0.0008329074517 	5.777011364e-07 	0.01396251993 	-1.033632656e-06 	2.661644367e-05
0.3761552495 	0.007717834108 	0.0008478415568 	7.664454867e-07 	0.01400940266 	-1.347028214e-06 	2.670581519e-05
0.3784722171 	0.007732758398 	0.0008633553545 	9.594969812e-07 	0.01405750503 	-1.65688071e-06 	2.679751167e-05
0.3808101762 	0.007748203171 	0.0008791474313 	1.156776767e-06 	0.01410662144 	-1.963264664e-06 	2.68911412e-05
0.3831693575 	0.00776412117 	0.0008952538606 	1.230946468e-06 	0.01415673631 	-2.053888302e-06 	2.698667407e-05
0.385549996 	0.007780525638 	0.0009117664045 	1.059350151e-06 	0.01420780826 	-1.738267682e-06 	2.708403139e-05
0.3879523317 	0.007797463798 	0.0009286509979 	8.836512609e-07 	0.01425996613 	-1.426331585e-06 	2.718345879e-05
0.3904013496 	0.007814985508 	0.0009459489469 	7.017340355e-07 	0.01431352496 	-1.114404205e-06 	2.728555682e-05
0.3929016437 	0.007833097952 	0.0009638931231 	5.133665771e-07 	0.01436845559 	-8.022217101e-07 	2.739026986e-05
0.3954244461 	0.007851734356 	0.0009823508133 	3.210278043e-07 	0.01442444022 	-4.937982279e-07 	2.749699212e-05
0.3979700162 	0.007870819495 	0.001001144954 	1.247227974e-07 	0.01448134218 	-1.889012879e-07 	2.760546309e-05
0.399577005 	0.007883029753 	0.00101316237 	1.32694624e-07 	0.01451749147 	-4.672502925e-07 	2.767437366e-05
0.4005368821 	0.007890309004 	0.001020304401 	7.255011443e-08 	0.01453907119 	-1.120855011e-07 	2.771551061e-05
0.4031241969 	0.007910234281 	0.001039781168 	2.685747029e-07 	0.01459769485 	-4.090700516e-07 	2.782726361e-05
0.4057556628 	0.007930713978 	0.001059709076 	4.698398436e-07 	0.0146576247 	-7.056762763e-07 	2.794150656e-05
0.4084439197 	0.007951764834 	0.00108034443 	6.771648688e-07 	0.01471887389 	-1.003133816e-06 	2.805826454e-05
0.4111564165 	0.007973314375 	0.001101583608 	8.876907252e-07 	0.01478110254 	-1.297479423e-06 	2.817688964e-05
0.4138934475 	0.007995277807 	0.001123190467 	1.101278507e-06 	0.01484416322 	-1.588799018e-06 	2.829710081e-05
0.4166553136 	0.008017661839 	0.001145343005 	1.317877446e-06 	0.01490798999 	-1.877323266e-06 	2.841877237e-05
0.4194423223 	0.008040541301 	0.001167914449 	1.363029112e-06 	0.01497286057 	-1.917919337e-06 	2.854243374e-05
0.4222964217 	0.008063977433 	0.001191133511 	1.168478043e-06 	0.0150390705 	-1.624389063e-06 	2.866864827e-05
0.4251870746 	0.008087934946 	0.001215188032 	9.703489492e-07 	0.01510633135 	-1.333286946e-06 	2.879686615e-05
0.4281038175 	0.008112320461 	0.001239715004 	7.695911539e-07 	0.01517439529 	-1.045591362e-06 	2.892661493e-05
0.4310469859 	0.00813710204 	0.001264791318 	5.663481766e-07 	0.01524315875 	-7.61151469e-07 	2.90576972e-05
0.4340169233 	0.008162340594 	0.00129035937 	3.607419765e-07 	0.01531282302 	-4.797957566e-07 	2.919049666e-05
0.4370454133 	0.008188106887 	0.001316588059 	1.504512579e-07 	0.0153836825 	-1.980899116e-07 	2.932557452e-05
0.4392173458 	0.008206667739 	0.001335725898 	1.648398432e-07 	0.01543445139 	-3.81272247e-07 	2.942235413e-05
0.4401196787 	0.008214375736 	0.001343638024 	6.046108033e-08 	0.01545553078 	-8.203041201e-08 	2.94625373e-05
0.4432190204 	0.008241033131 	0.001371120249 	2.663941554e-07 	0.01552805584 	-3.582588242e-07 	2.960079023e-05
0.4463466103 	0.008268088211 	0.001399204617 	4.734501547e-07 	0.0156011964 	-6.31404005e-07 	2.974021646e-05
0.4495028329 	0.008295603769 	0.001427798435 	6.814471528e-07 	0.01567522061 	-9.016218464e-07 	2.988132718e-05
0.4527269537 	0.008323655482 	0.0014571692 	8.929683678e-07 	0.0157503837 	-1.172539399e-06 	3.002460893e-05
0.4559904338 	0.008352209404 	0.001487483199 	1.105316304e-06 	0.01582639722 	-1.441140171e-06 	3.016951183e-05
0.4592836583 	0.008381185396 	0.001518415722 	1.317504185e-06 	0.01590303037 	-1.706511809e-06 	3.031559591e-05
0.4626070486 	0.008410575757 	0.001549956958 	1.52933997e-06 	0.01598029445 	-1.968808565e-06 	3.046288272e-05
0.4659741087 	0.008440456005 	0.0015821639 	1.378603867e-06 	0.01605847257 	-1.764766706e-06 	3.061191194e-05
0.4694056061 	0.008470877853 	0.001615343257 	1.183048697e-06 	0.01613759174 	-1.506589542e-06 	3.076273507e-05
0.4728684549 	0.008501763864 	0.001649381532 	9.879157183e-07 	0.01621733601 	-1.252319948e-06 	3.09147498e-05
0.476363118 	0.008533065789 	0.001684114633 	7.934535125e-07 	0.01629754224 	-1.001713978e-06 	3.106764518e-05
0.4798916088 	0.008564838532 	0.001719480708 	5.997300588e-07 	0.01637850846 	-7.544781328e-07 	3.12219893e-05
0.4834951505 	0.00859717225 	0.001755852565 	4.045443983e-07 	0.01646038339 	-5.073747334e-07 	3.137806567e-05
0.4871317792 	0.008630004383 	0.001793279826 	2.112825462e-07 	0.0165427875 	-2.643641557e-07 	3.15351508e-05
0.4908020032 	0.008663271276 	0.001831454929 	2.020716473e-08 	0.01662555518 	-2.523877214e-08 	3.169292902e-05
0.4911993413 	0.00866688837 	0.001835621959 	9.697730198e-08 	0.01663450103 	-1.718125517e-07 	3.170998229e-05
0.4945047648 	0.008696980649 	0.001870153032 	1.610900371e-07 	0.01670889141 	-2.09194986e-07 	3.185179102e-05
0.4982817689 	0.008731261733 	0.001909911827 	3.409408763e-07 	0.0167929737 	-4.424826886e-07 	3.201207525e-05
0.5020938467 	0.008766072979 	0.001950843102 	5.172581743e-07 	0.01687742504 	-6.714042974e-07 	3.217306296e-05
0.5059415539 	0.008801350376 	0.001992556002 	6.89823322e-07 	0.01696218731 	-8.960605264e-07 	3.233464342e-05
0.5098339861 	0.008837138552 	0.002035140469 	8.588264307e-07 	0.01704745242 	-1.117147876e-06 	3.24971824e-05
0.5137924172 	0.008873516571 	0.002078930954 	1.024654554e-06 	0.0171331958 	-1.335626586e-06 	3.266063313e-05
0.5177879724 	0.008910443374 	0.002123912064 	1.185238239e-06 	0.01721910005 	-1.549382589e-06 	3.28243905e-05
0.5218212604 	0.008947874061 	0.002169730405 	1.340369211e-06 	0.01730524786 	-1.758430357e-06 	3.298861217e-05
0.5259140893 	0.008985879721 	0.002216657797 	1.490653374e-06 	0.0173917217 	-1.96401623e-06 	3.315345534e-05
0.5300592025 	0.009024498931 	0.002264944758 	1.379274101e-06 	0.01747828882 	-1.82669238e-06 	3.331847633e-05
0.5342436715 	0.00906367232 	0.002314316072 	1.226458138e-06 	0.01756482944 	-1.634089816e-06 	3.348344681e-05
0.5384732893 	0.009103409035 	0.002364710379 	1.07787133e-06 	0.01765145105 	-1.446023916e-06 	3.364857168e-05
0.5427699166 	0.00914379994 	0.002416472502 	9.330912834e-07 	0.01773808136 	-1.261616234e-06 	3.381371311e-05
0.5471076191 	0.009184814425 	0.002469597154 	7.938408056e-07 	0.0178244161 	-1.082872976e-06 	3.397829112e-05
0.5514871072 	0.009226404825 	0.002523721204 	6.603579986e-07 	0.01791058167 	-9.095871281e-07 	3.414254665e-05
0.5559336223 	0.009268670683 	0.002579174462 	5.319897711e-07 	0.01799653927 	-7.40572936e-07 	3.430640573e-05
0.5604269332 	0.009311629334 	0.002636120905 	4.100448822e-07 	0.01808194995 	-5.775188789e-07 	3.446922222e-05
0.5649639002 	0.009355201924 	0.002694144455 	2.94706348e-07 	0.01816690446 	-4.204091906e-07 	3.463116913e-05
0.569563076 	0.009399457603 	0.002753492287 	1.855670229e-07 	0.0182513293 	-2.684413934e-07 	3.479210634e-05
0.5742147526 	0.009444445462 	0.00281438379 	8.360403832e-08 	0.01833490937 	-1.228007346e-07 	3.495143319e-05
0.5783626515 	0.009484754798 	0.002869182985 	1.867221875e-07 	0.01840802079 	-3.242036775e-07 	3.509080387e-05
0.5789119037 	0.00949009248 	0.002876426685 	1.04012869e-08 	0.0184177019 	-1.606045645e-08 	3.510925877e-05
0.5836691853 	0.009536449848 	0.002939728754 	9.398262844e-08 	0.0184995931 	-1.476202873e-07 	3.526536614e-05
0.5884811719 	0.009583585272 	0.003004588954 	1.701588754e-07 	0.01858027735 	-2.722579201e-07 	3.541917275e-05
0.5933409967 	0.00963142419 	0.003070646915 	2.388046256e-07 	0.01865980752 	-3.897462739e-07 	3.557077936e-05
0.5982639677 	0.009680036548 	0.003138081372 	3.00248267e-07 	0.01873802188 	-5.005638973e-07 	3.571987767e-05
0.603241457 	0.009729459985 	0.003207032375 	3.539777045e-07 	0.0188146025 	-6.03791782e-07 	3.586586161e-05
0.6082690093 	0.009779619207 	0.0032771527 	4.001140896e-07 	0.01888960977 	-6.993870372e-07 	3.600884631e-05
0.6133630769 	0.009830610652 	0.003348674858 	4.389802055e-07 	0.01896280248 	-7.876778256e-07 	3.614837196e-05
0.6185102439 	0.009882426832 	0.003421581036 	4.702514294e-07 	0.01903392456 	-8.677985101e-07 	3.628395042e-05
0.6237124478 	0.009935014544 	0.00349561872 	4.943419171e-07 	0.01910297044 	-9.400154411e-07 	3.641557106e-05
0.6289800964 	0.009988335484 	0.003570826685 	5.114929295e-07 	0.01916945225 	-1.004209922e-06 	3.654230386e-05
0.6342429514 	0.01004185607 	0.003646322899 	5.216899778e-07 	0.01923276872 	-1.059436208e-06 	3.666300265e-05
0.6394496929 	0.01009510093 	0.003721351134 	5.256023294e-07 	0.01929240025 	-1.105893843e-06 	3.677667692e-05
0.6446008478 	0.01014797913 	0.00379583744 	5.23783839e-07 	0.01934806762 	-1.143713138e-06 	3.688279439e-05
0.6496914023 	0.01020039557 	0.00386950347 	5.169939041e-07 	0.01939997661 	-1.173506774e-06 	3.698174736e-05
0.6547300818 	0.01025240157 	0.003942435976 	5.059691078e-07 	0.01944808462 	-1.196019512e-06 	3.70734546e-05
0.6597120185 	0.01030399327 	0.004014647056 	4.911471354e-07 	0.01949234443 	-1.211381664e-06 	3.715782611e-05
0.6646360827 	0.01035507268 	0.004085872616 	4.732550355e-07 	0.01953299562 	-1.220335887e-06 	3.723531857e-05
0.6695107443 	0.01040570933 	0.004156241314 	4.528401081e-07 	0.01956996861 	-1.22342997e-06 	3.730579936e-05
0.6743292695 	0.01045585605 	0.004225676546 	4.303122564e-07 	0.0196033064 	-1.220893326e-06 	3.736935046e-05
0.6790929143 	0.01050543718 	0.004293991106 	4.062524305e-07 	0.01963320903 	-1.213442992e-06 	3.742635318e-05
0.6838075543 	0.0105545235 	0.004361320742 	3.810278707e-07 	0.01965959467 	-1.201450428e-06 	3.747665154e-05
0.6884682294 	0.01060304992 	0.004427561863 	3.549857003e-07 	0.01968256136 	-1.185218662e-06 	3.752043244e-05
0.6930762757 	0.01065096198 	0.004492591199 	3.285480204e-07 	0.01970226961 	-1.165374103e-06 	3.755800183e-05
0.697636213 	0.01069832573 	0.004556533108 	3.01967605e-07 	0.0197186424 	-1.142209975e-06 	3.758921294e-05
0.7021443802 	0.01074507751 	0.004619300655 	2.755009211e-07 	0.01973178264 	-1.116014298e-06 	3.761426189e-05
0.7066016221 	0.01079116101 	0.00468078443 	2.494395617e-07 	0.01974185268 	-1.08731629e-06 	3.763345817e-05
0.7110121582 	0.01083664274 	0.00474109973 	2.239547229e-07 	0.01974878255 	-1.056387826e-06 	3.764666842e-05
0.71537296 	0.0108814783 	0.004800206291 	1.992031653e-07 	0.01975263914 	-1.023433958e-06 	3.765402016e-05
0.7196847632 	0.01092559002 	0.004857977862 	1.753746103e-07 	0.01975361437 	-9.888892401e-07 	3.765587922e-05
0.7239504894 	0.0109690422 	0.004914513738 	1.52577552e-07 	0.01975165093 	-9.530315978e-07 	3.765213635e-05
0.7281688828 	0.01101182189 	0.00496983045 	1.308854046e-07 	0.01974676279 	-9.159617184e-07 	3.76428182e-05
0.7323401204 	0.01105382801 	0.005023788213 	1.104079632e-07 	0.01973916766 	-8.780207563e-07 	3.762833977e-05
0.7364659089 	0.01109510792 	0.005076451942 	9.120965133e-08 	0.01972884413 	-8.394963571e-07 	3.760866026e-05
0.7405466757 	0.01113567874 	0.005127879026 	7.331753364e-08 	0.01971576416 	-8.004327453e-07 	3.758372621e-05
0.7445820178 	0.01117544 	0.005177954855 	5.678907366e-08 	0.01970012069 	-7.610792218e-07 	3.755390539e-05
0.7485726794 	0.01121439199 	0.005226680652 	4.165705577e-08 	0.01968197213 	-7.217058301e-07 	3.75193092e-05
0.7525204338 	0.01125258159 	0.005274136647 	2.791912835e-08 	0.01966126646 	-6.823870871e-07 	3.747983843e-05
0.7564243968 	0.01128996173 	0.005320294316 	1.557118753e-08 	0.01963808632 	-6.432162217e-07 	3.743565065e-05
0.7602851428 	0.0113264723 	0.005365089812 	4.592605981e-09 	0.01961257688 	-6.043736762e-07 	3.738702256e-05
0.7641037903 	0.01136217157 	0.005408597209 	-5.060490892e-09 	0.01958469373 	-5.659822625e-07 	3.733386953e-05
0.7678807403 	0.0113970775 	0.005450865596 	-1.343306663e-08 	0.01955441478 	-5.280023546e-07 	3.727614944e-05
0.7716159852 	0.01143111284 	0.005491830044 	-2.056074288e-08 	0.01952188305 	-4.905452137e-07 	3.721413492e-05
0.775310052 	0.01146425693 	0.005531475649 	-2.647973966e-08 	0.01948717984 	-4.537476482e-07 	3.714798096e-05
0.7789640569 	0.01149654688 	0.005569858116 	-3.122319008e-08 	0.01945027625 	-4.176799074e-07 	3.707763246e-05
0.7825779467 	0.01152794919 	0.005606972614 	-3.481663955e-08 	0.01941122742 	-3.82343541e-07 	3.700319454e-05
0.7861520682 	0.01155837679 	0.005642750982 	-3.730148772e-08 	0.01937019363 	-3.478448419e-07 	3.692497273e-05
0.7896869084 	0.01158782703 	0.005677201216 	-3.873410249e-08 	0.01932722536 	-3.142683535e-07 	3.684306327e-05
0.7931834198 	0.01161634076 	0.005710382102 	-3.917269758e-08 	0.01928228584 	-2.816080303e-07 	3.675739604e-05
0.796641542 	0.01164389655 	0.00574229908 	-3.867358264e-08 	0.01923541941 	-2.498293334e-07 	3.66680556e-05
0.8000617053 	0.01167044921 	0.005772927143 	-3.730407278e-08 	0.01918672644 	-2.1897602e-07 	3.657523327e-05
0.8034443628 	0.01169601985 	0.005802295186 	-3.513076697e-08 	0.0191362224 	-1.890866677e-07 	3.647895853e-05
0.8067902644 	0.01172065801 	0.005830462585 	-3.220817325e-08 	0.01908386346 	-1.601481105e-07 	3.637914783e-05
0.8100995122 	0.01174434523 	0.005857434975 	-2.858216873e-08 	0.01902969335 	-1.321236863e-07 	3.627588456e-05
0.8133725006 	0.01176702847 	0.005883183997 	-2.431082466e-08 	0.01897381985 	-1.050447028e-07 	3.616937414e-05
0.8166096537 	0.01178869573 	0.005907711267 	-1.945220158e-08 	0.01891630418 	-7.893698099e-08 	3.605973328e-05
0.8198115392 	0.01180937201 	0.005931051531 	-1.40580757e-08 	0.01885714451 	-5.380067727e-08 	3.594695851e-05
0.8229784471 	0.01182903862 	0.005953211744 	-8.16642081e-09 	0.01879638655 	-2.958590745e-08 	3.583113695e-05
0.826110699 	0.01184763778 	0.005974165771 	-1.830967448e-09 	0.01873414253 	-6.301514068e-09 	3.571248255e-05
0.8269714745 	0.01185250416 	0.005979652882 	-3.404328033e-08 	0.01871645284 	-1.630929322e-06 	3.567876108e-05
0.8292085347 	0.01186516906 	0.00599392487 	-5.263375181e-09 	0.01867046739 	-1.579344451e-08 	3.559110002e-05
0.8322724858 	0.01188166934 	0.006012528677 	-1.282718386e-08 	0.01860535394 	-3.684667693e-08 	3.54669757e-05
0.8353030574 	0.01189718302 	0.006030024941 	-2.067497857e-08 	0.01853877511 	-5.701082349e-08 	3.534005794e-05
0.8383004984 	0.01191171336 	0.006046429216 	-2.875994513e-08 	0.01847076879 	-7.631264717e-08 	3.521041901e-05
0.8412651854 	0.01192527709 	0.006061762668 	-3.703360521e-08 	0.01840136416 	-9.47519557e-08 	3.507811448e-05
0.8441974886 	0.01193790288 	0.006076052822 	-4.545350702e-08 	0.01833057787 	-1.123215222e-07 	3.494317614e-05
0.847097822 	0.01194962843 	0.006089333088 	-5.398285712e-08 	0.01825841108 	-1.290221453e-07 	3.480560617e-05
0.8499665109 	0.0119604464 	0.0061016126 	-6.259728165e-08 	0.01818491192 	-1.448909105e-07 	3.466549635e-05
0.8528038661 	0.01197029886 	0.006112867133 	-7.125538274e-08 	0.01811020532 	-1.599393538e-07 	3.452308481e-05
0.8556102384 	0.01197915911 	0.006123092098 	-7.990967096e-08 	0.01803438259 	-1.741867039e-07 	3.43785456e-05
0.858385974 	0.01198703255 	0.006132302204 	-8.851361107e-08 	0.01795749928 	-1.876549529e-07 	3.423198465e-05
0.8611314453 	0.0119939691 	0.006140537363 	-9.702785617e-08 	0.01787955747 	-2.003711865e-07 	3.40834059e-05
0.8638469571 	0.01200001817 	0.00614783849 	-1.054306887e-07 	0.01780055522 	-2.123698522e-07 	3.393280566e-05
0.8665328206 	0.01200521098 	0.00615423204 	-1.136947632e-07 	0.01772052673 	-2.236466157e-07 	3.378024911e-05
0.8691893645 	0.01200960227 	0.006159755979 	-1.217924274e-07 	0.01763948086 	-2.341941039e-07 	3.362575316e-05
0.8718169132 	0.01201324325 	0.006164445153 	-1.296953753e-07 	0.01755743357 	-2.440082089e-07 	3.346934823e-05
0.8744157988 	0.01201618469 	0.006168332652 	-1.373729255e-07 	0.01747440457 	-2.530987092e-07 	3.331107188e-05
0.8769863299 	0.01201845188 	0.006171440588 	-1.448042034e-07 	0.01739043865 	-2.614972565e-07 	3.31510095e-05
0.8795287986 	0.01202003581 	0.006173772369 	-1.519632175e-07 	0.01730563314 	-2.692142399e-07 	3.298934661e-05
0.8820435138 	0.01202094774 	0.006175341392 	-1.588237381e-07 	0.01722006937 	-2.762525609e-07 	3.282623828e-05