0.4709558481 	0.02342700399 	1.615215055e-09 	2.023103286e-11
0.4711314108 	0.06441049821 	-1.130947935e-07 	-7.059268883e-11
0.4713069734 	0.1287351645 	-6.908571482e-07 	-4.187880828e-10
0.471482536 	0.192962152 	-2.293613758e-06 	-1.065164058e-09
0.4716580986 	0.2570441835 	-5.369401868e-06 	-1.981517544e-09
0.4718336613 	0.3208656957 	-9.330869244e-06 	-3.121882981e-09
0.4720092239 	0.3842087019 	-1.209056181e-05 	-4.448122772e-09
0.4721847865 	0.446743981 	-1.16688702e-05 	-5.935886779e-09
0.4723603491 	0.5080671286 	-8.437486266e-06 	-7.565769595e-09
0.4725359118 	0.5677729473 	-2.693278659e-06 	-9.170801232e-09
0.4727114744 	0.6255329315 	1.730392477e-05 	-1.11833153e-08
0.472887037 	0.6811479466 	1.492531011e-05 	-1.347098489e-08
0.4730625996 	0.7345986281 	-2.028928715e-05 	-1.531020066e-08
0.4732381623 	0.7859741402 	-2.385593599e-05 	-1.734640304e-08
0.4734137249 	0.8353254212 	-1.180308495e-05 	-1.974465751e-08
0.4735892875 	0.882673849 	-1.398994649e-05 	-2.212394982e-08
0.4737648501 	0.9280637904 	-1.627545016e-05 	-2.459224523e-08
0.4739404128 	0.9715573565 	-1.809670364e-05 	-2.715248754e-08
0.4741159754 	1.013227401 	-1.97580089e-05 	-2.979725945e-08
0.474291538 	1.053153685 	-2.139772534e-05 	-3.251780127e-08
0.4744671006 	1.091419437 	-2.300825677e-05 	-3.530527683e-08
0.4746426632 	1.128108559 	-2.458687124e-05 	-3.814956024e-08
0.4748182259 	1.163303417 	-2.613608331e-05 	-4.103965301e-08
0.4749937885 	1.19708307 	-2.765798005e-05 	-4.396490119e-08
0.4751693511 	1.229521962 	-2.915407292e-05 	-4.691598312e-08
0.4753449137 	1.260689681 	-3.062641962e-05 	-4.988498362e-08
0.4755204764 	1.290654581 	-3.207658879e-05 	-5.286522667e-08
0.475696039 	1.319489963 	-3.350618616e-05 	-5.585163304e-08
0.4758716016 	1.347269719 	-3.487036794e-05 	-5.884130026e-08
0.4760471642 	1.374057791 	-3.591739763e-05 	-6.182944483e-08
0.4762227269 	1.403424989 	-3.705674065e-05 	-6.519989912e-08
0.4764955107 	1.438524001 	-3.926349916e-05 	-6.9332172e-08
0.4767734216 	1.475664447 	-4.172441271e-05 	-7.386843009e-08
0.4770565557 	1.511584601 	-4.361495744e-05 	-7.845813624e-08
0.4773450114 	1.546351148 	-4.53765226e-05 	-8.309502539e-08
0.4776388886 	1.58002737 	-4.708802884e-05 	-8.777089521e-08
0.4779382892 	1.61267365 	-4.87264095e-05 	-9.247872387e-08
0.4782433171 	1.644347618 	-5.028575214e-05 	-9.721062281e-08
0.4785540779 	1.675104196 	-5.176464559e-05 	-1.019584322e-07
0.4788706795 	1.70499529 	-5.313724663e-05 	-1.067161454e-07
0.4791932316 	1.734069118 	-5.437999144e-05 	-1.114816009e-07
0.4795218461 	1.762369806 	-5.550187416e-05 	-1.162545603e-07
0.4798566368 	1.789937707 	-5.650625365e-05 	-1.210663967e-07
0.48019772 	1.816810071 	-5.737568002e-05 	-1.259624678e-07
0.4805452138 	1.843021525 	-5.809705311e-05 	-1.30967908e-07
0.4808992388 	1.868604366 	-5.866363403e-05 	-1.361246708e-07
0.4812599177 	1.893588808 	-5.906633886e-05 	-1.414514829e-07
0.4816273755 	1.91800317 	-5.930404346e-05 	-1.467767744e-07
0.4820017397 	1.94187398 	-5.938094855e-05 	-1.521013873e-07
0.48238314 	1.965226136 	-5.929032966e-05 	-1.574218803e-07
0.4827717088 	1.988083129 	-5.902312416e-05 	-1.625836776e-07
0.4831675807 	2.010467185 	-5.856770751e-05 	-1.675159709e-07
0.4835708931 	2.032399365 	-5.791385197e-05 	-1.725169098e-07
0.4839817856 	2.053899669 	-5.703711784e-05 	-1.774817507e-07
0.4844004009 	2.07498715 	-5.591100723e-05 	-1.822681853e-07
0.4848268841 	2.095679992 	-5.452085132e-05 	-1.871273682e-07
0.485261383 	2.115995582 	-5.284760535e-05 	-1.919455129e-07
0.4857040484 	2.135950618 	-5.087628231e-05 	-1.966840644e-07
0.4861550336 	2.155561191 	-4.85935885e-05 	-2.013256174e-07
0.4866144951 	2.17484286 	-4.598751653e-05 	-2.05880921e-07
0.4870825921 	2.193810707 	-4.304671019e-05 	-2.103535108e-07
0.487559487 	2.212479361 	-3.976049124e-05 	-2.147594394e-07
0.4880453452 	2.230863027 	-3.611756691e-05 	-2.191456716e-07
0.4885403351 	2.248975535 	-3.210363408e-05 	-2.235478244e-07
0.4890446283 	2.266830384 	-2.770151996e-05 	-2.279959502e-07
0.4895583997 	2.284440764 	-2.289196821e-05 	-2.325148562e-07
0.4900818274 	2.301819573 	-1.765423667e-05 	-2.371186347e-07
0.4906150929 	2.318979438 	-1.196658354e-05 	-2.418133739e-07
0.4911583811 	2.335932721 	-5.806518273e-06 	-2.466013653e-07
0.4917118805 	2.352691539 	8.491343531e-07 	-2.514840944e-07
0.4922757829 	2.369267769 	8.02427411e-06 	-2.564628887e-07
0.4928502838 	2.385673056 	1.574358704e-05 	-2.61537163e-07
0.4934355824 	2.40191881 	2.403258832e-05 	-2.667015656e-07
0.4940318817 	2.418016207 	3.291764816e-05 	-2.719450944e-07
0.4946393885 	2.433976183 	4.242601983e-05 	-2.77253924e-07
0.4952583133 	2.449809422 	5.258589414e-05 	-2.82616178e-07
0.4958888709 	2.465526346 	6.342647712e-05 	-2.880255021e-07
0.4965312797 	2.481137101 	7.497804e-05 	-2.934815889e-07
0.4971857627 	2.496651534 	8.727188415e-05 	-2.989882224e-07
0.4978525466 	2.512079173 	0.0001003402146 	-3.045505775e-07
0.4985318627 	2.527429191 	0.0001142159531 	-3.101731481e-07
0.4992239466 	2.542710378 	0.0001289325265 	-3.158588639e-07
0.4999290382 	2.557931098 	0.0001445236593 	-3.216092389e-07
0.5006473819 	2.573099253 	0.0001610231837 	-3.274250048e-07
0.501379227 	2.588222252 	0.0001784648779 	-3.333067029e-07
0.502124827 	2.603306995 	0.0001968822632 	-3.392548901e-07
0.5028844406 	2.618359889 	0.0002163078984 	-3.452701743e-07
0.5036583311 	2.633386928 	0.0002367724167 	-3.513553454e-07
0.5044467669 	2.648393881 	0.0002583122723 	-3.575218226e-07
0.5052500214 	2.663386607 	0.0002809957964 	-3.637556168e-07
0.506068373 	2.680281563 	0.0003079207333 	-3.706426649e-07
0.507324668 	2.700838597 	0.0003425613409 	-3.786216644e-07
0.5085949819 	2.722937037 	0.0003822744228 	-3.870623574e-07
0.5098794711 	2.744675011 	0.0004240183504 	-3.955374785e-07
0.5111782938 	2.766063496 	0.0004676890579 	-4.040416455e-07
0.5124916099 	2.787112256 	0.0005132343345 	-4.125537574e-07
0.5138195812 	2.80783021 	0.0005606127626 	-4.21061831e-07
0.5151623712 	2.828225124 	0.0006097689528 	-4.295212429e-07
0.5165201452 	2.848301705 	0.000660549832 	-4.37915482e-07
0.5178930705 	2.868056529 	0.0007128422459 	-4.463092768e-07
0.5192813161 	2.887467611 	0.0007666911261 	-4.546324338e-07
0.520685053 	2.90648212 	0.0008218014403 	-4.6271219e-07
0.522104454 	2.925012671 	0.0008774869047 	-4.70492373e-07
0.523539694 	2.942944407 	0.0009331130939 	-4.779252415e-07
0.5249909497 	2.96014512 	0.0009880065174 	-4.849326831e-07
0.5264583998 	2.976474634 	0.001041367989 	-4.914417726e-07
0.527942225 	2.991795054 	0.001092317562 	-4.973853064e-07
0.5294426081 	3.005985422 	0.001139806726 	-5.026664056e-07
0.5309597337 	3.018962576 	0.001186426662 	-5.127189331e-07
0.5324937889 	3.030710057 	0.001231047952 	-5.126289064e-07
0.5340449624 	3.041325201 	0.001259874691 	-5.097255609e-07
0.5356134452 	3.051024135 	0.001283717221 	-5.259013313e-07
0.5371994306 	3.06001448 	0.001320611259 	-5.326516275e-07
0.5388031139 	3.068389398 	0.001353618134 	-5.316104195e-07
0.5404246925 	3.07617365 	0.001378005324 	-5.37661258e-07
0.5420643661 	3.083381554 	0.001402114934 	-5.423982966e-07
0.5437223366 	3.090025574 	0.001424194485 	-5.468943866e-07
0.5453988083 	3.096119063 	0.001444034236 	-5.512070711e-07
0.5470939875 	3.101678636 	0.001461539764 	-5.553325473e-07
0.5488080831 	3.106723934 	0.001476654787 	-5.592983683e-07
0.5505413061 	3.111277057 	0.001489370151 	-5.63117288e-07
0.5522938699 	3.115361811 	0.001499694302 	-5.667878577e-07
0.5540659904 	3.119002899 	0.001507631764 	-5.703356049e-07
0.5558578859 	3.122225204 	0.001513283911 	-5.738128795e-07
0.5576697768 	3.125053574 	0.001516723017 	-5.771272975e-07
0.5595018865 	3.127515173 	0.0015178598 	-5.802778841e-07
0.5613544406 	3.129642823 	0.001516866405 	-5.83476709e-07
0.563227667 	3.131472932 	0.001514082914 	-5.867354034e-07
0.5651217966 	3.133039814 	0.001509637769 	-5.899818963e-07
0.5670370626 	3.134373141 	0.001503640788 	-5.932432637e-07
0.5689737009 	3.135498236 	0.001496252851 	-5.964692669e-07
0.5709319499 	3.136436757 	0.001487596868 	-5.997179857e-07
0.5729120508 	3.137207278 	0.001477775647 	-6.030318363e-07
0.5749142474 	3.137825782 	0.001466879408 	-6.063320809e-07
0.5769387863 	3.138306061 	0.00145498639 	-6.096194506e-07
0.5789859169 	3.138660058 	0.001442165126 	-6.128967631e-07
0.5810558911 	3.138898139 	0.001428476152 	-6.161557106e-07
0.583148964 	3.139029334 	0.001413971554 	-6.193881901e-07
0.5852653933 	3.139061527 	0.001398700749 	-6.225874601e-07
0.5874054395 	3.139001624 	0.001382703617 	-6.257467609e-07
0.5895693664 	3.138855668 	0.001366015944 	-6.288600067e-07
0.5917574402 	3.138628966 	0.001348672598 	-6.319223607e-07
0.5939699306 	3.138326207 	0.00133070089 	-6.349293271e-07
0.5962071099 	3.137951529 	0.001312127028 	-6.378770477e-07
0.5984692536 	3.137508589 	0.001292973985 	-6.407618685e-07
0.6007566404 	3.137000628 	0.001273262275 	-6.435802929e-07
0.6030695519 	3.136430514 	0.001253010202 	-6.46328918e-07
0.6054082729 	3.135800791 	0.001232234107 	-6.490043856e-07
0.6077730914 	3.135113716 	0.001210948551 	-6.51603344e-07
0.6101642987 	3.134371284 	0.001189166494 	-6.541224171e-07
0.6125821893 	3.133575262 	0.001166899435 	-6.565581892e-07
0.6150270608 	3.132727209 	0.001144157535 	-6.589072333e-07
0.6174992144 	3.131828496 	0.00112094973 	-6.611661795e-07
0.6199989545 	3.130880321 	0.001097283816 	-6.633317491e-07
0.622526589 	3.129883728 	0.00107316654 	-6.654007307e-07
0.625082429 	3.128839615 	0.001048603663 	-6.67369945e-07
0.6276667894 	3.127748747 	0.00102360003 	-6.692362145e-07
0.6302799884 	3.126611764 	0.0009981596226 	-6.709963404e-07
0.6329223478 	3.125429193 	0.0009722856089 	-6.726470877e-07
0.6355941931 	3.124201449 	0.0009459803931 	-6.741851767e-07
0.6382958531 	3.122928846 	0.0009192456567 	-6.75607277e-07
0.6410276607 	3.121611601 	0.0008920824007 	-6.769100046e-07
0.6437899523 	3.120249837 	0.0008644909846 	-6.780899213e-07
0.646583068 	3.118843591 	0.0008364711663 	-6.79143535e-07
0.6494073518 	3.117392814 	0.0008080221403 	-6.800672993e-07
0.6522631514 	3.115897374 	0.0007791425782 	-6.808576136e-07
0.6551508186 	3.114357065 	0.0007498306689 	-6.815108253e-07
0.658070709 	3.112771602 	0.0007200841616 	-6.820232312e-07
0.6610231822 	3.111140627 	0.0006899004099 	-6.823910794e-07
0.6640086017 	3.10946371 	0.0006592764199 	-6.826105721e-07
0.6670273351 	3.107740354 	0.0006282089004 	-6.826778699e-07
0.6700797543 	3.105969989 	0.0005966943176 	-6.825890965e-07
0.6731662352 	3.104151983 	0.0005647289538 	-6.823403441e-07
0.6762871577 	3.102285633 	0.0005323089704 	-6.819276827e-07
0.6794429063 	3.100370174 	0.0004994304773 	-6.813471703e-07
0.6826338695 	3.098404775 	0.0004660896065 	-6.80594867e-07
0.6858604404 	3.096388538 	0.0004322825934 	-6.796668541e-07
0.6891230163 	3.094320502 	0.0003980058631 	-6.785592591e-07
0.6924219988 	3.092199637 	0.0003632561241 	-6.772682888e-07
0.6957577944 	3.090024847 	0.000328030468 	-6.7579027e-07
0.6991308138 	3.087794965 	0.0002923264731 	-6.741217148e-07
0.7025414724 	3.085508751 	0.0002561423018 	-6.722597059e-07
0.7059901901 	3.083164892 	0.0002194767938 	-6.702017362e-07
0.7094773917 	3.080761991 	0.0001823295131 	-6.679444745e-07
0.7130035066 	3.078298568 	0.0001447007378 	-6.65484866e-07
0.7165689691 	3.075773048 	0.000106591794 	-6.628192427e-07
0.7201742182 	3.073183757 	6.800549094e-05 	-6.59944807e-07
0.7238196978 	3.070528911 	2.894631063e-05 	-6.568593784e-07
0.727505857 	3.067806605 	-1.057937094e-05 	-6.535590871e-07
0.7312331497 	3.065014797 	-5.056389898e-05 	-6.500400493e-07
0.7350020349 	3.062158965 	-9.089091577e-05 	-6.463063631e-07
0.7387709215 	3.059262007 	-0.0001312043024 	-6.423832271e-07
0.7424982157 	3.056348096 	-0.0001711467162 	-6.383009021e-07
0.7461843763 	3.053425122 	-0.0002105983653 	-6.340756632e-07
0.7498298574 	3.050493252 	-0.0002495462093 	-6.297166114e-07
0.7534351078 	3.047552563 	-0.0002879766333 	-6.252324873e-07
0.7570005716 	3.044603041 	-0.0003258764724 	-6.206296922e-07
0.7605266877 	3.041644583 	-0.0003632330196 	-6.159144114e-07
0.7640138905 	3.038676999 	-0.0004000337492 	-6.110951665e-07
0.7674626093 	3.035700015 	-0.000436266088 	-6.061801099e-07
0.770873269 	3.03271327 	-0.000471917338 	-6.01177333e-07
0.7742462894 	3.029716317 	-0.0005069748474 	-5.960938022e-07
0.777582086 	3.026708627 	-0.0005414261204 	-5.909354411e-07
0.7808810695 	3.023689583 	-0.0005752588211 	-5.857077563e-07
0.7841436462 	3.020658489 	-0.0006084607942 	-5.804159362e-07
0.787370218 	3.017614564 	-0.0006410200748 	-5.750649152e-07
0.7905611821 	3.01455695 	-0.0006729249006 	-5.696593993e-07
0.7937169314 	3.01148471 	-0.0007041637245 	-5.642038969e-07
0.7968378547 	3.008396831 	-0.0007347252304 	-5.58702748e-07
0.7999243362 	3.005292223 	-0.0007645983515 	-5.531601474e-07
0.8029767561 	3.002169724 	-0.0007937722926 	-5.475801611e-07
0.8059954902 	2.999028101 	-0.0008222365544 	-5.419667394e-07
0.8089809102 	2.99586605 	-0.0008499809609 	-5.363237294e-07
0.8119333839 	2.9926822 	-0.00087699569 	-5.306548872e-07
0.8148532749 	2.989475115 	-0.0009032713065 	-5.249638896e-07
0.8177409426 	2.986243295 	-0.0009287988002 	-5.192543427e-07
0.8205967427 	2.982985182 	-0.000953569629 	-5.135297905e-07
0.8234210268 	2.979699157 	-0.0009775757685 	-5.077937219e-07
0.8262141429 	2.976383552 	-0.00100080977 	-5.020495787e-07
0.8289764348 	2.973036645 	-0.001023264826 	-4.963007652e-07
0.8317082427 	2.969656674 	-0.001044934855 	-4.905506626e-07
0.8344099031 	2.966241833 	-0.001065814592 	-4.848026504e-07
0.8370817486 	2.962790288 	-0.001085899703 	-4.790601369e-07
0.8397241082 	2.95930018 	-0.001105186925 	-4.733266055e-07
0.8423373074 	2.955769635 	-0.001123674239 	-4.676056808e-07
0.844921668 	2.952196781 	-0.00114136107 	-4.619012222e-07
0.8474775082 	2.948579758 	-0.00115824856 	-4.562174541e-07
0.8500051427 	2.944916739 	-0.001174339892 	-4.505591397e-07
0.8525048829 	2.941205956 	-0.001189640714 	-4.449318014e-07
0.8549770366 	2.937445723 	-0.001204159678 	-4.393420099e-07
0.8574219081 	2.93363448 	-0.001217909151 	-4.33797749e-07
0.8598397987 	2.92977083 	-0.001230906127 	-4.283091673e-07
0.862231006 	2.925853599 	-0.001243173629 	-4.228915045e-07
0.8645958245 	2.921881903 	-0.001254743781 	-4.175646277e-07
0.8669345455 	2.917855218 	-0.00126565878 	-4.123711106e-07
0.8692474569 	2.913773444 	-0.001275988931 	-4.074402043e-07
0.8715348435 	2.909636822 	-0.001285853902 	-4.022627627e-07
0.8737969871 	2.905445795 	-0.001294940284 	-3.97551465e-07
0.8760341663 	2.901200035 	-0.001303668248 	-3.935866737e-07
0.8782466565 	2.896894452 	-0.001312457741 	-3.884647483e-07
0.8804347301 	2.892517506 	-0.001320178695 	-3.827792351e-07
0.8825986568 	2.88805606 	-0.00132670657 	-3.774940816e-07
0.8847387028 	2.883498206 	-0.001332388774 	-3.720094825e-07
0.8868551318 	2.878832073 	-0.001336893702 	-3.663297949e-07
0.8889482045 	2.874045217 	-0.001340117928 	-3.605829498e-07
0.8910181784 	2.8691244 	-0.001341973893 	-3.547900574e-07
0.8930653087 	2.864055391 	-0.001342371579 	-3.489403067e-07
0.8950898473 	2.858822906 	-0.001341219622 	-3.430464914e-07
0.8970920436 	2.853410691 	-0.001338428462 	-3.371320904e-07
0.8990721441 	2.847801755 	-0.001333911717 	-3.311965054e-07
0.9010303927 	2.841978719 	-0.001327591498 	-3.252482732e-07
0.9029670306 	2.835924227 	-0.001319402532 	-3.192878794e-07
0.9048822962 	2.829621391 	-0.001309294471 	-3.132990258e-07
0.9067764254 	2.823054248 	-0.001297235676 	-3.072710059e-07
0.9086496514 	2.816208181 	-0.001283215853 	-3.012138479e-07
0.910502205 	2.809070286 	-0.001267247707 	-2.951528961e-07
0.9123343142 	2.801629659 	-0.001249367525 	-2.891167727e-07
0.9141462048 	2.793877575 	-0.001229634653 	-2.831304844e-07
0.9159380997 	2.785807572 	-0.001208129926 	-2.772178029e-07
0.9177102197 	2.777415426 	-0.001184953901 	-2.714065298e-07
0.9194627831 	2.768699066 	-0.00116022419 	-2.657315677e-07
0.9211960055 	2.759658384 	-0.001134072719 	-2.602219691e-07
0.9229101006 	2.750294986 	-0.001106642968 	-2.548894223e-07
0.9246052793 	2.740611886 	-0.00107808621 	-2.497344916e-07
0.9262817504 	2.730613199 	-0.001048557932 	-2.447521621e-07
0.9279397204 	2.720303827 	-0.001018214611 	-2.399350381e-07
0.9295793934 	2.709689177 	-0.0009872110598 	-2.352745528e-07
0.9312009714 	2.698774907 	-0.0009556983149 	-2.307613064e-07
0.9328046541 	2.687566711 	-0.0009238219823 	-2.26385391e-07
0.9343906389 	2.676070143 	-0.000891720998 	-2.221370179e-07
0.9359591211 	2.664290467 	-0.0008595268095 	-2.180071246e-07
0.937510294 	2.652232545 	-0.000827362941 	-2.139871257e-07
0.9390443485 	2.639900741 	-0.0007953448056 	-2.100675629e-07
0.9405614735 	2.62729884 	-0.0007635795857 	-2.062369798e-07
0.942061856 	2.614429979 	-0.0007321661209 	-2.024829093e-07
0.9435456805 	2.601296582 	-0.0007011947624 	-1.987947308e-07
0.9450131299 	2.587900301 	-0.000670747392 	-1.951643873e-07
0.946464385 	2.574241949 	-0.0006408976542 	-1.915849251e-07
0.9478996243 	2.560321429 	-0.0006117112111 	-1.880497377e-07
0.9493190246 	2.54613765 	-0.0005832460028 	-1.845524084e-07
0.9507227608 	2.531688438 	-0.0005555524988 	-1.810868687e-07
0.9521110058 	2.516970429 	-0.0005286739546 	-1.776475673e-07
0.9534839303 	2.501978946 	-0.0005026466759 	-1.742295399e-07
0.9548417036 	2.486707854 	-0.000477500293 	-1.708283954e-07
0.9561844929 	2.471149387 	-0.0004532580537 	-1.67440246e-07
0.9575124634 	2.455293943 	-0.0004299370928 	-1.640615451e-07
0.9588257788 	2.439129825 	-0.0004075483193 	-1.60688798e-07
0.9601246008 	2.422642936 	-0.0003860961125 	-1.573188595e-07
0.9614090893 	2.405816388 	-0.0003655856238 	-1.539506454e-07
0.9626794024 	2.388629991 	-0.0003460420009 	-1.505786297e-07
0.9639356968 	2.372562274 	-0.0003289530127 	-1.474239798e-07
0.9647540487 	2.359290494 	-0.0003156319386 	-1.447666301e-07
0.9655573034 	2.3474539 	-0.0003043626351 	-1.423850885e-07
0.9663457395 	2.335545855 	-0.0002936053891 	-1.400193897e-07
0.9671196303 	2.32355777 	-0.0002833215306 	-1.376725452e-07
0.9678792442 	2.311482173 	-0.0002734876011 	-1.353414685e-07
0.9686248445 	2.299312131 	-0.0002640835778 	-1.330250021e-07
0.9693566897 	2.287040892 	-0.0002550893769 	-1.307226141e-07
0.9700750337 	2.27466167 	-0.0002464852588 	-1.284338633e-07
0.9707801255 	2.262167533 	-0.0002382521051 	-1.261583571e-07
0.9714722095 	2.249551347 	-0.0002303714478 	-1.238957446e-07
0.9721515258 	2.236805757 	-0.0002228254692 	-1.216456974e-07
0.9728183099 	2.223923186 	-0.0002155970022 	-1.194078958e-07
0.9734727929 	2.210895846 	-0.0002086695259 	-1.17182023e-07
0.9741152019 	2.197715742 	-0.0002020271571 	-1.149677623e-07
0.9747457596 	2.184374686 	-0.0001956546382 	-1.127647965e-07
0.9753646845 	2.170864307 	-0.0001895373235 	-1.105728081e-07
0.9759721914 	2.157176048 	-0.0001836611646 	-1.083914797e-07
0.9765684907 	2.143301174 	-0.0001780126936 	-1.062204956e-07
0.9771537895 	2.12923077 	-0.0001725790074 	-1.040595427e-07
0.9777282904 	2.114955734 	-0.0001673477501 	-1.019083124e-07
0.9782921928 	2.100466778 	-0.0001623070964 	-9.976650206e-08
0.9788456922 	2.085754414 	-0.0001574457342 	-9.763381745e-08
0.9793889805 	2.070808948 	-0.000152752848 	-9.550997461e-08
0.979922246 	2.05562047 	-0.0001482181029 	-9.339470214e-08
0.9804456737 	2.040178839 	-0.0001438316285 	-9.12877436e-08
0.9809594451 	2.024473669 	-0.0001395840046 	-8.91888598e-08
0.9814637383 	2.008494315 	-0.0001354662464 	-8.709783119e-08
0.9819587281 	1.992229849 	-0.000131469792 	-8.501446021e-08
0.9824445862 	1.97566904 	-0.0001275864897 	-8.293857358e-08
0.9829214811 	1.958800334 	-0.0001238085866 	-8.087002467e-08
0.9833895781 	1.941611817 	-0.0001201287183 	-7.880869581e-08
0.9838490396 	1.924091194 	-0.0001165398992 	-7.675450059e-08
0.9843000247 	1.906225744 	-0.0001130355137 	-7.470738627e-08
0.98474269 	1.888002286 	-0.000109609308 	-7.266733622e-08
0.9851771888 	1.869407133 	-0.0001062553834 	-7.063437241e-08
0.9856036719 	1.850426038 	-0.0001029681889 	-6.860855811e-08
0.9860222871 	1.831044143 	-9.974251613e-05 	-6.659000063e-08
0.9864331796 	1.811245908 	-9.657349361e-05 	-6.457885437e-08
0.9868364919 	1.791015051 	-9.345658237e-05 	-6.257532424e-08
0.9872323637 	1.770334458 	-9.038757218e-05 	-6.057966944e-08
0.9876209323 	1.749186107 	-8.736257872e-05 	-5.859220795e-08
0.9880023326 	1.727550964 	-8.437803971e-05 	-5.661332172e-08
0.9883766967 	1.705408884 	-8.143070632e-05 	-5.464346271e-08
0.9887441544 	1.682738495 	-7.851766476e-05 	-5.268315998e-08
0.9891048331 	1.659517076 	-7.563648007e-05 	-5.073302878e-08
0.9894588579 	1.635720414 	-7.278523769e-05 	-4.879377845e-08
0.9898063516 	1.611322655 	-6.995889569e-05 	-4.686618474e-08
0.9901474347 	1.586296096 	-6.714933792e-05 	-4.495111122e-08
0.9904822253 	1.560610851 	-6.436454904e-05 	-4.304967531e-08
0.9908108397 	1.534234331 	-6.162258877e-05 	-4.116315926e-08
0.9911333916 	1.507130905 	-5.891277734e-05 	-3.929270747e-08
0.9914499931 	1.479262223 	-5.621412753e-05 	-3.743949714e-08
0.9917607538 	1.450587901 	-5.352983553e-05 	-3.560497825e-08
0.9920657815 	1.421065907 	-5.086828559e-05 	-3.379072011e-08
0.9923651819 	1.390652612 	-4.823119927e-05 	-3.199832962e-08
0.992659059 	1.359302728 	-4.561462067e-05 	-3.02294923e-08
0.9929475145 	1.326969291 	-4.300578073e-05 	-2.848607711e-08
0.9932306485 	1.293603709 	-4.048643827e-05 	-2.677041901e-08
0.9935085592 	1.259155482 	-3.845795237e-05 	-2.508393138e-08
0.9937813429 	1.226654606 	-3.653284558e-05 	-2.356021373e-08
0.9939569055 	1.199503673 	-3.436692333e-05 	-2.233038224e-08
0.9941324681 	1.174766089 	-3.249181299e-05 	-2.124708819e-08
0.9943080307 	1.149134715 	-3.088551499e-05 	-2.016667358e-08
0.9944835934 	1.122558134 	-2.930324031e-05 	-1.90906578e-08
0.994659156 	1.094990375 	-2.770894122e-05 	-1.802005265e-08
0.9948347186 	1.066384146 	-2.611801218e-05 	-1.695611412e-08
0.9950102812 	1.036688808 	-2.453865879e-05 	-1.590027025e-08
0.9951858439 	1.005850572 	-2.297586548e-05 	-1.485408272e-08
0.9953614065 	0.9738133175 	-2.143593792e-05 	-1.381924849e-08
0.9955369691 	0.9405196542 	-1.992607612e-05 	-1.279760591e-08
0.9957125317 	0.9059121837 	-1.84492816e-05 	-1.179111884e-08
0.9958880943 	0.8699350511 	-1.700468523e-05 	-1.0801951e-08
0.996063657 	0.8325358673 	-1.5710968e-05 	-9.83350637e-09
0.9962392196 	0.7936680078 	-1.482045147e-05 	-8.889347365e-09
0.9964147822 	0.753293024 	-1.38803102e-05 	-7.965993518e-09
0.9965903448 	0.7113853185 	-1.439850971e-06 	-6.976955953e-09
0.9967659075 	0.6679351081 	-1.816719437e-06 	-6.242998653e-09
0.9969414701 	0.6229047561 	-2.708714934e-05 	-5.60855991e-09
0.9971170327 	0.5762224674 	-2.587199472e-05 	-4.54937317e-09
0.9972925953 	0.5278950069 	-8.875502901e-06 	-3.701383553e-09
0.997468158 	0.4780539013 	-4.089382359e-06 	-3.153148902e-09
0.9976437206 	0.42691763 	-1.185460141e-07 	-2.525465118e-09
0.9978192832 	0.3747665361 	2.596213022e-06 	-1.956678354e-09
0.9979948458 	0.3218994001 	3.123691772e-06 	-1.44914816e-09
0.9981704085 	0.2685833056 	2.075177308e-06 	-1.003461606e-09
0.9983459711 	0.215018719 	7.718443239e-07 	-6.281640728e-10
0.9985215337 	0.1613310437 	1.676776976e-08 	-3.349811506e-10
0.9986970963 	0.1075844251 	-1.589415391e-07 	-1.329222117e-10
0.998872659 	0.05380463492 	-7.881171755e-08 	-2.49735949e-11
0.9990482216 	0.02265626664 	-1.674716443e-08 	4.755047227e-12
0.9990482216 	0.02265626664 	-1.674716443e-08 	4.755047227e-12
