5.827988603e-37 	0.05639592855 	-2.273988878e-15 	1.306053151e-18 	-3.542295984e-15 	-1.546599827e-16 	-6.752600677e-18
0.0003175062146 	0.05638461931 	-0.0004902187748 	-7.955385687e-08 	0.06028276687 	-1.581760096e-06 	0.0001149157084
0.0006350119567 	0.05638616642 	-0.0007693162252 	-9.218670178e-08 	0.06046883696 	-1.507621602e-06 	0.0001152704097
0.000952517226 	0.05640082865 	-0.0009515938342 	-1.021283722e-07 	0.06050328828 	-1.420940009e-06 	0.0001153360835
0.001270022022 	0.05641007685 	-0.001151657968 	-1.127524649e-07 	0.0605314313 	-1.333274882e-06 	0.0001153897319
0.001587526343 	0.05642638094 	-0.001362925052 	-1.225729719e-07 	0.06055442604 	-1.244953831e-06 	0.0001154335663
0.00190503019 	0.05644581685 	-0.001581122442 	-1.307275907e-07 	0.0605813886 	-1.156600012e-06 	0.0001154849644
0.002222533562 	0.05646867386 	-0.001803807544 	-1.367625429e-07 	0.06061236859 	-1.068173303e-06 	0.0001155440209
0.002540036458 	0.05649497166 	-0.002029569099 	-1.404174185e-07 	0.06064756255 	-9.796552624e-07 	0.0001156111103
0.002857538879 	0.05652470893 	-0.002257529248 	-1.415290573e-07 	0.06068707038 	-8.910219876e-07 	0.0001156864232
0.003175040824 	0.05655785962 	-0.002487114028 	-1.399873981e-07 	0.0607309634 	-8.022465788e-07 	0.0001157700955
0.003492542292 	0.05659439904 	-0.002717931618 	-1.357130502e-07 	0.0607792714 	-7.132994383e-07 	0.000115862184
0.003810043283 	0.05663430074 	-0.002949704629 	-1.286450762e-07 	0.06083200465 	-6.241499779e-07 	0.0001159627082
0.004127543797 	0.05667753585 	-0.003182230244 	-1.187339288e-07 	0.06088916265 	-5.347672797e-07 	0.0001160716673
0.004445043835 	0.05672407304 	-0.003415355866 	-1.059371729e-07 	0.06095073807 	-4.45120419e-07 	0.0001161890471
0.004762543395 	0.05677387866 	-0.00364896363 	-9.021678924e-08 	0.06101671866 	-3.551786582e-07 	0.0001163148245
0.005080042477 	0.05682691678 	-0.003882960226 	-7.153741818e-08 	0.0610870885 	-2.649115809e-07 	0.000116448969
0.005397541083 	0.0568831493 	-0.004117269993 	-4.986518391e-08 	0.06116182873 	-1.742891895e-07 	0.0001165914446
0.005715039211 	0.05694253596 	-0.004351830123 	-2.5166891e-08 	0.06124091801 	-8.328198256e-08 	0.0001167422108
0.006004330093 	0.05699948205 	-0.004565734057 	2.32978154e-08 	0.06131692182 	-1.220380634e-05 	0.0001168870951
0.006032536862 	0.05700503563 	-0.004586586413 	-2.626271102e-09 	0.06132433619 	-8.284568663e-09 	0.000116901229
0.006350034036 	0.05707061425 	-0.004821484407 	-3.389735909e-08 	0.06141208883 	-1.017917522e-07 	0.0001170685099
0.006667530732 	0.05713921461 	-0.005056490808 	-6.832858256e-08 	0.06150411448 	-1.957788468e-07 	0.0001172439364
0.006985026952 	0.05721078938 	-0.005291567985 	-1.059530875e-07 	0.06160038356 	-2.90273418e-07 	0.000117427452
0.007302522695 	0.05728528932 	-0.005526680604 	-1.468047069e-07 	0.06170086575 	-3.853022094e-07 	0.000117618999
0.007620017961 	0.05736265893 	-0.005761794092 	-1.909179283e-07 	0.06180553886 	-4.808903371e-07 	0.000117818535
0.007937512752 	0.0574428362 	-0.005996878279 	-2.383285123e-07 	0.06191438876 	-5.770607984e-07 	0.0001180260332
0.008255007066 	0.05752583684 	-0.006231927192 	-2.890773173e-07 	0.06202724168 	-6.73853259e-07 	0.0001182411622
0.008572500905 	0.05761190118 	-0.006466917116 	-3.432053375e-07 	0.06214348866 	-7.713697046e-07 	0.0001184627613
0.008889994269 	0.05770045251 	-0.006701841126 	-4.0071837e-07 	0.0622641933 	-8.694973591e-07 	0.0001186928579
0.009207487159 	0.05779039085 	-0.006926401121 	-4.605456445e-07 	0.06239130306 	-9.679274208e-07 	0.0001189351644
0.009524979574 	0.05789605018 	-0.007092603681 	-5.166724104e-07 	0.0625393789 	-1.067626556e-06 	0.0001192174381
0.01001828869 	0.058030601 	-0.007170336314 	-5.88781449e-07 	0.06272207383 	-1.223207813e-06 	0.0001195657054
0.01052086838 	0.05817859836 	-0.007205330315 	-6.55153584e-07 	0.06292448354 	-1.383596956e-06 	0.0001199515546
0.01103289283 	0.05832686608 	-0.007241110984 	-7.208315412e-07 	0.06313104164 	-1.547956535e-06 	0.0001203453117
0.01155453952 	0.05847662028 	-0.007282641014 	-7.867012021e-07 	0.06333982232 	-1.716807631e-06 	0.0001207433057
0.01208598924 	0.05862822412 	-0.007329269542 	-8.52826004e-07 	0.06355060303 	-1.890393724e-06 	0.0001211451124
0.01262742622 	0.05878155217 	-0.007380422468 	-9.192028771e-07 	0.0637640257 	-2.068699541e-06 	0.0001215519553
0.0131790381 	0.05893666417 	-0.00743561189 	-9.858077782e-07 	0.06398030709 	-2.251801548e-06 	0.0001219642477
0.01374101608 	0.0590936509 	-0.007494443508 	-1.052609429e-06 	0.06419956494 	-2.439803017e-06 	0.0001223822141
0.01431355495 	0.05925258823 	-0.007556588123 	-1.119564621e-06 	0.06442191403 	-2.632805138e-06 	0.0001228060733
0.01489685313 	0.05941354113 	-0.007621769851 	-1.186618438e-06 	0.06464746183 	-2.830906847e-06 	0.0001232360301
0.01549111281 	0.05957656782 	-0.007689759014 	-1.253705627e-06 	0.06487630409 	-3.034206105e-06 	0.000123672267
0.01609653995 	0.05974172103 	-0.007760365931 	-1.320751568e-06 	0.06510852561 	-3.242799709e-06 	0.0001241149458
0.01671334439 	0.05990904882 	-0.007833435538 	-1.387673072e-06 	0.06534420171 	-3.456782713e-06 	0.0001245642099
0.01734173992 	0.06007859528 	-0.007908843097 	-1.454379131e-06 	0.06558339945 	-3.676248188e-06 	0.0001250201873
0.01798194434 	0.0602504047 	-0.007986490443 	-1.520771356e-06 	0.06582617149 	-3.901287956e-06 	0.0001254829783
0.01863417954 	0.06042451572 	-0.008066300648 	-1.586744773e-06 	0.06607257074 	-4.131987451e-06 	0.0001259526838
0.01929867158 	0.06060095434 	-0.008148274883 	-1.652156327e-06 	0.06632266469 	-4.368422453e-06 	0.0001264294323
0.01997565077 	0.06077991541 	-0.008232103847 	-1.716763961e-06 	0.06657669583 	-4.610705145e-06 	0.0001269136863
0.02066768552 	0.0609617006 	-0.008317387808 	-1.780717142e-06 	0.06683501478 	-4.85978511e-06 	0.000127406114
0.02137441278 	0.06114626794 	-0.008404471455 	-1.843879433e-06 	0.06709757598 	-5.115903159e-06 	0.0001279066286
0.02209442101 	0.06133337285 	-0.008493684367 	-1.906026111e-06 	0.06736404228 	-5.378666522e-06 	0.0001284145874
0.02282795976 	0.06152295616 	-0.008585034176 	-1.967172817e-06 	0.06763426551 	-5.648209402e-06 	0.000128929708
0.02357528328 	0.06171506257 	-0.008678611158 	-2.027198493e-06 	0.06790826096 	-5.924692878e-06 	0.0001294520195
0.02433665058 	0.06190973317 	-0.008774445403 	-2.085975365e-06 	0.06818604923 	-6.208275566e-06 	0.0001299815612
0.02511232553 	0.0621070135 	-0.008872577551 	-2.143369238e-06 	0.0684676424 	-6.499116538e-06 	0.000130518356
0.02590257696 	0.0623069504 	-0.00897305705 	-2.199240747e-06 	0.06875305104 	-6.797378189e-06 	0.0001310624242
0.02670767878 	0.06250959356 	-0.009075941399 	-2.253445211e-06 	0.06904228218 	-7.103225495e-06 	0.0001316137791
0.02752790999 	0.06271499539 	-0.00918129561 	-2.305832473e-06 	0.0693353404 	-7.416825738e-06 	0.0001321724296
0.02836355489 	0.06292321133 	-0.009289191686 	-2.356246725e-06 	0.06963222803 	-7.738348583e-06 	0.0001327383799
0.02921490307 	0.06313430006 	-0.009399708193 	-2.404526348e-06 	0.06993294543 	-8.067966181e-06 	0.0001333116309
0.0300822496 	0.06334832377 	-0.009512929887 	-2.450503733e-06 	0.07023749121 	-8.405853259e-06 	0.0001338921798
0.03096589507 	0.06356534829 	-0.009628947389 	-2.494005088e-06 	0.07054586249 	-8.752187237e-06 	0.0001344800211
0.03186614572 	0.06378544328 	-0.009747856911 	-2.534850235e-06 	0.0708580551 	-9.107148345e-06 	0.000135075147
0.03278331355 	0.06400868233 	-0.009869760003 	-2.572852392e-06 	0.07117406386 	-9.470919775e-06 	0.0001356775475
0.0337177164 	0.06423514308 	-0.009994763342 	-2.607817949e-06 	0.07149388276 	-9.843687823e-06 	0.0001362872112
0.03466967812 	0.06446490721 	-0.01012297852 	-2.639546235e-06 	0.07181750529 	-1.022564205e-05 	0.0001369041257
0.0356395286 	0.06469806031 	-0.01025452198 	-2.55990872e-06 	0.07214492491 	-1.018749131e-05 	0.0001375282785
0.03662760396 	0.06493469348 	-0.01038951506 	-2.42096525e-06 	0.07247613209 	-9.906924705e-06 	0.0001381596515
0.03763424661 	0.0651749021 	-0.01052808253 	-2.283218058e-06 	0.07281111708 	-9.617429085e-06 	0.000138798226
0.03865980541 	0.06541877603 	-0.01067038146 	-2.146837119e-06 	0.0731498893 	-9.318792406e-06 	0.00013944402
0.03970463577 	0.06566650767 	-0.01081651129 	-2.011942708e-06 	0.07349255954 	-9.010828778e-06 	0.0001400972447
0.04077060729 	0.06591854787 	-0.01096646651 	-1.878446218e-06 	0.07383954883 	-8.692595287e-06 	0.0001407587027
0.04186083131 	0.0661751377 	-0.01112076573 	-1.746233143e-06 	0.07419105554 	-8.362485658e-06 	0.0001414287722
0.04297154247 	0.06643603055 	-0.011279574 	-1.616170044e-06 	0.07454660522 	-8.02251839e-06 	0.0001421065487
0.0441031257 	0.06670111071 	-0.01144274659 	-1.488745885e-06 	0.07490584209 	-7.672409263e-06 	0.000142791354
0.04525597319 	0.06697049777 	-0.01161057467 	-1.364179546e-06 	0.07526876996 	-7.311947108e-06 	0.0001434831954
0.04643048445 	0.06724430964 	-0.01178321081 	-1.242723659e-06 	0.07563539924 	-6.940915187e-06 	0.0001441820927
0.04762706653 	0.06752267273 	-0.01196081398 	-1.124637815e-06 	0.07600572848 	-6.559088665e-06 	0.0001448880432
0.04884613412 	0.06780571046 	-0.0121435466 	-1.01019208e-06 	0.07637976572 	-6.166240498e-06 	0.0001456010621
0.05008810971 	0.06809354772 	-0.01233157425 	-8.9966716e-07 	0.07675751878 	-5.762139347e-06 	0.0001463211644
0.05135342369 	0.06838630943 	-0.01252506576 	-7.93354565e-07 	0.07713899714 	-5.346549034e-06 	0.0001470483682
0.05264251458 	0.06868411997 	-0.012724193 	-6.915567571e-07 	0.07752421202 	-4.919228125e-06 	0.0001477826948
0.0539558291 	0.0689871024 	-0.01292913064 	-5.945873013e-07 	0.07791317678 	-4.479929416e-06 	0.0001485241698
0.0552938224 	0.06929537833 	-0.01314005636 	-5.027710224e-07 	0.07830590589 	-4.0283991e-06 	0.0001492728206
0.05665695814 	0.06960906957 	-0.01335715048 	-4.164448936e-07 	0.07870241048 	-3.564376504e-06 	0.0001500286686
0.05804570871 	0.06992829401 	-0.01358061709 	-3.359571187e-07 	0.07910270561 	-3.087603256e-06 	0.0001507917424
0.05946055538 	0.07025324882 	-0.01381069329 	-2.616532689e-07 	0.07950684661 	-2.597832803e-06 	0.0001515621474
0.06090309821 	0.07058440144 	-0.01404751441 	-1.938272912e-07 	0.07991544035 	-2.094200601e-06 	0.0001523410407
0.06237874525 	0.07092198496 	-0.01429083439 	-1.325043602e-07 	0.08032909976 	-1.574139321e-06 	0.0001531295905
0.06388212204 	0.07130989633 	-0.01456930758 	-7.660802507e-08 	0.08079986022 	-1.041264442e-06 	0.0001540269907
0.06619002591 	0.07179042011 	-0.01491454472 	-1.263317124e-08 	0.08137618414 	-2.135731964e-07 	0.0001551256243
0.06678384734 	0.07192358183 	-0.01501234277 	1.559364124e-06 	0.081534147 	-2.519394261e-05 	0.0001554267454
0.06852367151 	0.07231386399 	-0.01529911825 	-2.657566491e-08 	0.08199732215 	-6.415352431e-07 	0.000156309686
0.07088334596 	0.07283699232 	-0.01569619621 	-3.950117517e-08 	0.08261104358 	-1.5180961e-06 	0.0001574796096
0.07326933955 	0.07336049786 	-0.01610603876 	-2.681809601e-08 	0.0832175444 	-2.412501176e-06 	0.0001586357687
0.07568194585 	0.07388479211 	-0.01652830564 	1.107524667e-08 	0.08381740982 	-3.324684361e-06 	0.000159779279
0.07812146167 	0.07441018024 	-0.01696275714 	7.389339118e-08 	0.0844112068 	-4.254550169e-06 	0.000160911221
0.08058818714 	0.07493747383 	-0.01740921357 	1.614983314e-07 	0.08499990372 	-5.202090172e-06 	0.000162033441
0.08309238433 	0.07546746425 	-0.01786825454 	2.741145477e-07 	0.08558449807 	-6.171570146e-06 	0.0001631478403
0.08562559683 	0.07599976541 	-0.01833944784 	4.116295251e-07 	0.08616467467 	-7.158496699e-06 	0.0001642538182
0.08818706658 	0.07653392354 	-0.01882168999 	5.737968821e-07 	0.08673997549 	-8.162231206e-06 	0.0001653505014
0.0907771088 	0.07706992795 	-0.01931484376 	7.606175606e-07 	0.08731049679 	-9.182676365e-06 	0.0001664380736
0.0933960422 	0.07760775628 	-0.01981870513 	9.721233588e-07 	0.08787634903 	-1.021973938e-05 	0.0001675167452
0.09604418905 	0.07814733867 	-0.02033308053 	1.208386379e-06 	0.08843756567 	-1.127330429e-05 	0.0001685865801
0.09872187523 	0.07868865055 	-0.02085783657 	1.469538144e-06 	0.0889941967 	-1.234324951e-05 	0.0001696476736
0.1014313185 	0.07923206341 	-0.0213931489 	1.756014994e-06 	0.08954667099 	-1.343033272e-05 	0.0001707008431
0.1041800627 	0.0797776835 	-0.02193950818 	1.834804075e-06 	0.09009519714 	-1.28937613e-05 	0.0001717464864
0.106959471 	0.08032461758 	-0.02249615728 	1.838612325e-06 	0.09063892769 	-1.196161432e-05 	0.000172782988
0.1097698855 	0.08087210065 	-0.02306215307 	1.816720222e-06 	0.09117710293 	-1.101272212e-05 	0.0001738088996
0.1126116522 	0.08141972365 	-0.02363738753 	1.769171573e-06 	0.09170937802 	-1.004720452e-05 	0.0001748235638
0.1154851208 	0.08196700543 	-0.02422162124 	1.695940617e-06 	0.09223536377 	-9.065210721e-06 	0.0001758262388
0.1183906449 	0.08251347774 	-0.02481465554 	1.596987738e-06 	0.09275458444 	-8.066912106e-06 	0.0001768160178
0.1213295478 	0.08305904969 	-0.02541660127 	1.47222889e-06 	0.09326690921 	-7.052105195e-06 	0.0001777926511
0.1243110401 	0.08360346365 	-0.0260279718 	1.32080618e-06 	0.09377208963 	-6.017327976e-06 	0.0001787556654
0.1273257958 	0.08414543592 	-0.0266479151 	1.143525479e-06 	0.09426886166 	-4.968124601e-06 	0.000179702651
0.130374186 	0.08468377551 	-0.02727532198 	9.401872073e-07 	0.09475598457 	-3.904884882e-06 	0.0001806312427
0.133456586 	0.0852176233 	-0.02790998443 	7.107470364e-07 	0.09523260601 	-2.828131447e-06 	0.0001815398156
0.1365733751 	0.08574605378 	-0.02855158066 	4.551442677e-07 	0.09569778362 	-1.738466553e-06 	0.0001824265734
0.1397249371 	0.08626832803 	-0.02919990602 	1.733234351e-07 	0.09615063393 	-6.365832319e-07 	0.000183289832
0.1415500185 	0.08656296226 	-0.02957449586 	3.466725437e-07 	0.0964020002 	-3.25995559e-05 	0.0001837690059
0.1429174396 	0.08678384501 	-0.02985534054 	1.380487335e-07 	0.09659054604 	-4.861796866e-07 	0.0001841284267
0.1461502511 	0.08729138041 	-0.03051760794 	4.798818735e-07 	0.09701625338 	-1.629906862e-06 	0.0001849399432
0.1494191327 	0.08778921988 	-0.03118544302 	8.482275106e-07 	0.09742579261 	-2.781908599e-06 	0.0001857206388
0.1527244868 	0.08827589863 	-0.03185814403 	1.243026046e-06 	0.09781760392 	-3.940961709e-06 	0.0001864675401
0.1560667204 	0.08875004386 	-0.03253532278 	1.664218072e-06 	0.09819019714 	-5.10572769e-06 	0.0001871778063
0.159446245 	0.08921038147 	-0.0332166554 	2.111773656e-06 	0.09854206044 	-6.27476341e-06 	0.0001878485555
0.1628683426 	0.08965569791 	-0.0339023128 	2.58647437e-06 	0.09887171079 	-7.448413878e-06 	0.0001884769607
0.1663338415 	0.09008432363 	-0.03459195364 	3.088229154e-06 	0.09917726329 	-8.624065002e-06 	0.0001890594287
0.1698380093 	0.09049421655 	-0.0352843334 	3.616349006e-06 	0.0994564616 	-9.797516016e-06 	0.0001895916583
0.1733812778 	0.09088346021 	-0.03597860906 	4.171226892e-06 	0.09970715098 	-1.0966826e-05 	0.0001900695419
0.176964083 	0.09125021772 	-0.03667426918 	4.753581972e-06 	0.0999271751 	-1.212985995e-05 	0.0001904889691
0.1805868662 	0.09159275648 	-0.03737099862 	5.364385827e-06 	0.1001143245 	-1.328411094e-05 	0.0001908457277
0.1842579471 	0.09190924978 	-0.03806888248 	6.005625158e-06 	0.1002662578 	-1.44288062e-05 	0.000191135355
0.1879717484 	0.09219736878 	-0.03876693029 	6.485709064e-06 	0.1003802578 	-1.511359453e-05 	0.0001913526707
0.1917269919 	0.09245470704 	-0.03946375342 	6.161090996e-06 	0.1004535514 	-1.392408435e-05 	0.0001914923885
0.1955241403 	0.0926788993 	-0.04015868741 	5.80567079e-06 	0.1004834257 	-1.272871901e-05 	0.0001915493372
0.1993636609 	0.09286747173 	-0.0408514018 	5.416012556e-06 	0.1004671526 	-1.152923881e-05 	0.0001915183163
0.2032506276 	0.09301776335 	-0.04154232877 	4.990301889e-06 	0.1004018499 	-1.032771127e-05 	0.0001913938312
0.2071854895 	0.0931267496 	-0.04223193415 	4.53303544e-06 	0.1002845279 	-9.132322434e-06 	0.0001911701827
0.2111642629 	0.0931914841 	-0.0429205575 	4.055197988e-06 	0.100111709 	-7.953591249e-06 	0.000190840742
0.215187438 	0.09321170945 	-0.04360442924 	3.562132392e-06 	0.09987465134 	-6.791938081e-06 	0.0001903888442
0.21925551 	0.09317670633 	-0.04426470992 	3.046975969e-06 	0.09958517182 	-5.686584048e-06 	0.0001898370158
0.2233732865 	0.09307560594 	-0.0448474416 	2.4790212e-06 	0.099253273 	-4.609536314e-06 	0.0001892043244
0.2275412826 	0.09292402062 	-0.04528489997 	1.862777468e-06 	0.09883457727 	-3.492214942e-06 	0.0001884061739
0.2317557942 	0.09271691843 	-0.04557618434 	1.273415723e-06 	0.0983271472 	-2.405127573e-06 	0.0001874388712
0.2360173403 	0.09243009259 	-0.04578095488 	7.33392334e-07 	0.09777151941 	-1.375573581e-06 	0.0001863796902
0.2403264456 	0.09206981359 	-0.04593948995 	2.042609412e-07 	0.09714810863 	-3.737517953e-07 	0.000185191296
0.2420006484 	0.09190582717 	-0.04598624726 	1.213709059e-05 	0.09687433444 	-4.187799395e-05 	0.0001846694063
0.244689849 	0.09164239501 	-0.046061522 	3.3550048e-07 	0.09643444275 	-5.941059227e-07 	0.0001838308505
0.2491037402 	0.09114079247 	-0.04614567886 	8.790554416e-07 	0.0956340758 	-1.517028322e-06 	0.0001823051286
0.2535668929 	0.09056062654 	-0.04618744899 	1.418779582e-06 	0.09474515656 	-2.385648446e-06 	0.0001806106015
0.2580798568 	0.08989809682 	-0.04618345924 	1.95112803e-06 	0.09376404641 	-3.194116081e-06 	0.0001787403328
0.2626453758 	0.08914894908 	-0.04613039682 	2.472054971e-06 	0.09268664197 	-3.937001078e-06 	0.0001766865005
0.2672670702 	0.08830876383 	-0.0460246728 	2.976204998e-06 	0.09150904794 	-4.607704621e-06 	0.000174441679
0.2719403471 	0.08737351075 	-0.04586242517 	3.457031852e-06 	0.09022818123 	-5.198664582e-06 	0.000171999991
0.2766657819 	0.08633896949 	-0.04563971906 	3.908652666e-06 	0.08884087413 	-5.703954239e-06 	0.0001693553981
0.2814442057 	0.08520020195 	-0.04535242732 	4.324874975e-06 	0.08734322577 	-6.117465703e-06 	0.0001665004641
0.2862825281 	0.083951953 	-0.04499621597 	4.699314349e-06 	0.0857311578 	-6.433079178e-06 	0.0001634274145
0.2911748521 	0.08258986432 	-0.04456676727 	5.023860435e-06 	0.08400200972 	-6.643019176e-06 	0.0001601311777
0.2961217801 	0.08110952325 	-0.04405967037 	5.291515101e-06 	0.08215324828 	-6.741591279e-06 	0.0001566069245
0.3011239213 	0.07950566877 	-0.04347024411 	5.494980446e-06 	0.0801815007 	-6.722975155e-06 	0.0001528482256
0.3061879732 	0.07777276686 	-0.04279361508 	5.626778013e-06 	0.078083303 	-6.581481933e-06 	0.0001488484776
0.311308694 	0.07590663949 	-0.04202526606 	5.678273939e-06 	0.07585700972 	-6.311053274e-06 	0.0001446045439
0.3164865689 	0.07390447712 	-0.04116076323 	5.017397065e-06 	0.07350260787 	-5.2550387e-06 	0.0001401163996
0.3217227834 	0.07176449153 	-0.04019559388 	4.318734157e-06 	0.07102129207 	-4.211858589e-06 	0.000135386322
0.3270225453 	0.06948385673 	-0.03912527079 	3.642592991e-06 	0.06841341964 	-3.245286064e-06 	0.0001304149924
0.3323814607 	0.06705915582 	-0.0379458977 	2.995819115e-06 	0.06567908912 	-2.359982744e-06 	0.0001252025984
0.3378001894 	0.06448684763 	-0.03665374673 	2.38490317e-06 	0.06281847484 	-1.561735542e-06 	0.0001197494725
0.3432813453 	0.06176386567 	-0.03524527386 	1.81628852e-06 	0.059832336 	-8.5595136e-07 	0.0001140570619
0.3488268273 	0.05888928242 	-0.03371795552 	1.297011729e-06 	0.05672378036 	-2.481174451e-07 	0.0001081312909
0.3544342057 	0.05586533649 	-0.0320709351 	8.339530542e-07 	0.05349925191 	2.568872152e-07 	0.0001019844435
0.3601041707 	0.05269622209 	-0.03030447219 	4.334363742e-07 	0.05016705963 	6.553324957e-07 	9.563235887e-05
0.36584116 	0.04938884604 	-0.02842049059 	1.013756147e-07 	0.04673803797 	9.446749441e-07 	8.909569055e-05
0.3716430054 	0.04595586019 	-0.02642443502 	-1.569189283e-07 	0.0432284943 	1.124105479e-06 	8.240552487e-05
0.3775096083 	0.04241548425 	-0.02432534499 	-3.375961068e-07 	0.03965969058 	1.194854809e-06 	7.560239309e-05
0.3834432946 	0.03879209913 	-0.02213639591 	-4.386461116e-07 	0.03605804034 	1.160977597e-06 	6.873664671e-05
0.3894456619 	0.03511931263 	-0.01987710042 	-4.609871911e-07 	0.03245779698 	1.030983735e-06 	6.187358222e-05
0.3955150249 	0.03144233586 	-0.01757497426 	-4.095051668e-07 	0.02890277826 	8.182823437e-07 	5.509672848e-05
0.4016524908 	0.02781720929 	-0.01526657667 	-2.941330513e-07 	0.0254468961 	5.419601973e-07 	4.850885657e-05
0.4078616799 	0.02431679741 	-0.01299848217 	-1.323770576e-07 	0.02214457614 	2.303223736e-07 	4.221371689e-05
0.4124308776 	0.02191737823 	-0.01141456521 	2.777119179e-05 	0.01990779252 	-3.988456275e-05 	3.794978562e-05
0.4141401731 	0.02101976642 	-0.01082199365 	-5.141325417e-08 	0.01907106499 	8.477012923e-08 	3.635475039e-05
0.4204887431 	0.01799885504 	-0.008744273388 	-2.318965222e-07 	0.01632114571 	3.608260686e-07 	3.111263995e-05
0.42691107 	0.01534123534 	-0.006737059838 	-3.910349144e-07 	0.01393362939 	5.698519222e-07 	2.656137027e-05
0.433405319 	0.01311386135 	-0.004886069153 	-4.864125916e-07 	0.01192854122 	6.91228999e-07 	2.273911494e-05
0.4399720525 	0.01132619373 	-0.003375666576 	-4.773442086e-07 	0.01034501731 	7.123206289e-07 	1.972047823e-05
0.4466144165 	0.009958926417 	-0.002270429244 	-4.034383807e-07 	0.00915423207 	6.68721441e-07 	1.745051061e-05
0.4533313103 	0.008965591085 	-0.001482911865 	-3.207182333e-07 	0.008280790142 	5.879741042e-07 	1.578548754e-05
0.4601231728 	0.008271664759 	-0.0009044946102 	-2.450502908e-07 	0.00766520812 	4.848133747e-07 	1.461201711e-05
0.4669929419 	0.007803711328 	-0.0004632619403 	-1.785089907e-07 	0.007252362919 	3.819627009e-07 	1.382501941e-05
0.4739396403 	0.007502442045 	-0.0001155963542 	-1.210003298e-07 	0.006989384575 	2.90893965e-07 	1.33237096e-05
0.4809639189 	0.007320913972 	0.0001672430787 	-7.278989495e-08 	0.006833076019 	2.151324761e-07 	1.302574205e-05
0.4880685652 	0.007224628989 	0.0004048120467 	-3.283450073e-08 	0.006752330897 	1.530416086e-07 	1.28718194e-05
0.4952525067 	0.007189539668 	0.000609515251 	7.226348263e-11 	0.006725829701 	1.047144235e-07 	1.282130076e-05
0.5024368632 	0.007197128013 	0.0007889177078 	2.640863002e-08 	0.00673687277 	6.947689368e-08 	1.284235192e-05
0.5095432156 	0.007232944493 	0.000948614011 	4.712274066e-08 	0.006772534592 	4.46473157e-08 	1.291033326e-05
0.5165711572 	0.007286949996 	0.00109344028 	6.336124927e-08 	0.00682393862 	2.757848685e-08 	1.300832363e-05
0.5235220957 	0.007352549097 	0.00122709646 	7.618512653e-08 	0.006885345987 	1.611649576e-08 	1.312538313e-05
0.5303971102 	0.007425405294 	0.001352144401 	8.644169167e-08 	0.006953021866 	8.682510812e-09 	1.325439217e-05
0.5371962645 	0.007502643428 	0.001470363883 	9.480317522e-08 	0.007024520096 	4.146791581e-09 	1.339068767e-05
0.5439209063 	0.007582354571 	0.001583030901 	1.017845336e-07 	0.007098224257 	1.714040422e-09 	1.353118828e-05
0.5505718664 	0.007663261518 	0.001691062668 	1.077566257e-07 	0.007173056727 	8.248654289e-10 	1.367383977e-05
0.557149437 	0.0077445028 	0.00179512852 	1.13009378e-07 	0.007248302486 	1.085117985e-09 	1.38172791e-05
0.5636548124 	0.007825508664 	0.001895750928 	1.177610022e-07 	0.007323487913 	2.222257226e-09 	1.396060342e-05
0.5700888185 	0.007905906905 	0.001993336944 	1.221632561e-07 	0.007398302904 	4.045396521e-09 	1.410322159e-05
0.5764518278 	0.007985460755 	0.002088211129 	1.263476462e-07 	0.007472559281 	6.418993553e-09 	1.424477488e-05
0.5827448459 	0.008064041334 	0.002180662633 	1.304199902e-07 	0.00754615519 	9.253045993e-09 	1.438506914e-05
0.5889688121 	0.008141598988 	0.002270945478 	1.344529914e-07 	0.007619051093 	1.248624675e-08 	1.452402899e-05
0.5951240983 	0.008218139994 	0.002359283756 	1.385189524e-07 	0.007691260225 	1.607634434e-08 	1.466167966e-05
0.6012115237 	0.008293722471 	0.002445901103 	1.426821409e-07 	0.007762837787 	2.00001968e-08 	1.479812639e-05
0.6072321764 	0.008368446752 	0.002531016895 	1.469855254e-07 	0.007833870816 	2.424534381e-08 	1.493353509e-05
0.6131863918 	0.008442442035 	0.002614838153 	1.514710542e-07 	0.007904472575 	2.880597587e-08 	1.506812166e-05
0.6190749025 	0.008515865238 	0.002697577882 	1.561813504e-07 	0.007974783798 	3.368367203e-08 	1.52021544e-05
0.6248987045 	0.008588898967 	0.002779459381 	1.611453401e-07 	0.008044964456 	3.888503122e-08 	1.533593824e-05
0.630658315 	0.008661743361 	0.002860701197 	1.663802772e-07 	0.008115188121 	4.441639615e-08 	1.546980406e-05
0.6363543676 	0.008734611984 	0.002941522911 	1.719112624e-07 	0.008185647697 	5.028549406e-08 	1.560411959e-05
0.6419876414 	0.008807733544 	0.003022158947 	1.777542558e-07 	0.008256548504 	5.650250824e-08 	1.573927624e-05
0.647558927 	0.008881347681 	0.003102844468 	1.839074537e-07 	0.008328104654 	6.307196932e-08 	1.587568215e-05
0.6530687325 	0.008955699825 	0.003183810275 	1.903723153e-07 	0.008400539255 	6.99964166e-08 	1.601376263e-05
0.6585177359 	0.009031040864 	0.003265293857 	1.947438919e-07 	0.008474085522 	7.633429198e-08 	1.615396226e-05
0.6639067345 	0.009107626781 	0.00334753895 	1.985215991e-07 	0.008548981387 	8.253951505e-08 	1.629673459e-05
0.669236321 	0.009185714343 	0.003430781902 	2.025686741e-07 	0.008625465798 	8.893340931e-08 	1.644253514e-05
0.6745070939 	0.009265557236 	0.00351525111 	2.068364937e-07 	0.008703781586 	9.549741698e-08 	1.659182679e-05
0.6797197019 	0.00934740567 	0.003601174897 	2.112582688e-07 	0.008784172644 	1.022061997e-07 	1.674507449e-05
0.6848749064 	0.009431503954 	0.003688771687 	2.157519175e-07 	0.008866879266 	1.090317964e-07 	1.69027363e-05
0.6899732317 	0.009518085008 	0.003778234434 	2.202058354e-07 	0.008952135188 	1.159421353e-07 	1.706525779e-05
0.6950152948 	0.009607366112 	0.003869724109 	2.244422351e-07 	0.009040169708 	1.22895286e-07 	1.723307605e-05
0.7000017166 	0.009699545675 	0.003963358157 	2.281845958e-07 	0.009131205458 	1.298501407e-07 	1.740661549e-05
0.7049331999 	0.009794797234 	0.004059171073 	2.309955726e-07 	0.009225456004 	1.367815678e-07 	1.758628323e-05
0.7098102633 	0.009893258096 	0.004157048157 	2.321540068e-07 	0.009323130077 	1.437073642e-07 	1.777247716e-05
0.7146335059 	0.009995016671 	0.004256632736 	2.304861595e-07 	0.009424443653 	1.506821988e-07 	1.796560899e-05
0.7194035216 	0.01010009728 	0.004357183963 	2.242614311e-07 	0.00952963479 	1.577870359e-07 	1.816613253e-05
0.7241209511 	0.01020841649 	0.00445745717 	2.119476696e-07 	0.00963903768 	1.655834922e-07 	1.837468485e-05
0.7287863289 	0.01031996885 	0.004555719323 	1.927688933e-07 	0.009752747802 	1.702374423e-07 	1.859144795e-05
0.7334002218 	0.0104347447 	0.004650011476 	1.693971464e-07 	0.009870826687 	1.757006678e-07 	1.881653912e-05
0.7379631978 	0.01055239201 	0.004741289104 	1.612264384e-07 	0.009994175143 	1.839484138e-07 	1.905167556e-05
0.7424758414 	0.01067340216 	0.004825988399 	9.758256172e-08 	0.01012281179 	1.852798966e-07 	1.929689276e-05
0.7469387029 	0.0107995997 	0.004895932135 	3.282091694e-08 	0.01025570851 	1.889487241e-07 	1.955023085e-05
0.7513523141 	0.01093211648 	0.004958669822 	3.809172399e-08 	0.01039408346 	2.029975624e-07 	1.981401196e-05
0.7557172184 	0.011071339 	0.005024583175 	4.386217018e-08 	0.01053972754 	2.147063903e-07 	2.009165006e-05
0.7600339544 	0.01121815419 	0.005093959572 	4.998883723e-08 	0.01069265803 	2.234416327e-07 	2.038317807e-05
0.7643030771 	0.01137324694 	0.005167085887 	5.663589721e-08 	0.01085329799 	2.346124941e-07 	2.068940249e-05
0.7685250874 	0.0115370435 	0.005244259905 	6.369520994e-08 	0.01102258277 	2.464647175e-07 	2.101210633e-05
0.7727005051 	0.01171015564 	0.00532575238 	7.116150009e-08 	0.01120105614 	2.592814968e-07 	2.135232617e-05
0.7768298443 	0.01189317043 	0.005411820798 	7.902702784e-08 	0.01138924039 	2.730907388e-07 	2.171105766e-05
0.780913618 	0.01208664288 	0.005502707343 	8.729004539e-08 	0.01158762786 	2.879356462e-07 	2.208923931e-05
0.7849523359 	0.0122910891 	0.005598637424 	9.595478029e-08 	0.01179667805 	3.038632499e-07 	2.248774709e-05
0.7889464839 	0.01250698098 	0.005699819367 	1.050247524e-07 	0.01201682105 	3.20875906e-07 	2.290740082e-05
0.7928965538 	0.01273474538 	0.005806444837 	1.14495804e-07 	0.01224845935 	3.389051476e-07 	2.334896781e-05
0.796803032 	0.01297475724 	0.005918685803 	1.243503546e-07 	0.01249196183 	3.578263289e-07 	2.38131512e-05
0.8006664018 	0.01322732396 	0.006036686896 	1.345527693e-07 	0.01274764621 	3.774916254e-07 	2.43005567e-05
0.8044871437 	0.01349266644 	0.006160555971 	1.450450619e-07 	0.01301575732 	3.977545739e-07 	2.4811651e-05
0.8082657211 	0.01377090201 	0.006290355854 	1.557535578e-07 	0.01329644923 	4.184877284e-07 	2.53467278e-05
0.8120025992 	0.0140620499 	0.006426105923 	1.666187286e-07 	0.01358978639 	4.396305463e-07 	2.590590995e-05
0.8156982382 	0.01436606208 	0.006567795369 	1.776157563e-07 	0.01389577012 	4.612034928e-07 	2.648919999e-05
0.8193530933 	0.01468285614 	0.006715397428 	1.887506678e-07 	0.01421436763 	4.832690026e-07 	2.709653538e-05
0.8229676192 	0.01501233206 	0.006868875673 	2.000465026e-07 	0.01454552228 	5.058815717e-07 	2.772780818e-05
0.8265422566 	0.01535437036 	0.007028181879 	2.115312045e-07 	0.01488914685 	5.290513814e-07 	2.838285212e-05
0.8300774454 	0.01570882154 	0.007193250064 	2.232317048e-07 	0.01524510912 	5.527428166e-07 	2.906141514e-05
0.8335736208 	0.01607549342 	0.007363990181 	2.35179539e-07 	0.01561321707 	5.769424128e-07 	2.976313121e-05
0.8370312134 	0.01645413606 	0.007540283171 	2.47412107e-07 	0.01599321241 	6.017235234e-07 	3.048750793e-05
0.8404506497 	0.01684442974 	0.00772197793 	2.599685169e-07 	0.01638476842 	6.271991552e-07 	3.123392252e-05
0.843832352 	0.01724598207 	0.007908890209 	2.72891407e-07 	0.01678748792 	6.534629506e-07 	3.200161781e-05
0.8471767348 	0.01765833086 	0.008100803809 	2.862266329e-07 	0.01720090628 	6.806273039e-07 	3.278970811e-05
0.8504842098 	0.01808094929 	0.008297474232 	3.000248916e-07 	0.01762450113 	7.088446656e-07 	3.359719763e-05
0.8537551845 	0.0185132561 	0.008498633991 	3.143411121e-07 	0.01805770458 	7.382631522e-07 	3.442300381e-05
0.8569900615 	0.01895463043 	0.008703999017 	3.292344636e-07 	0.01849991646 	7.6900865e-07 	3.526598256e-05