0.3675691744 	1.253302032e-06 	-8.144134004e-09 	2.197338258e-12 	1.246215365e-06 	-2.32604043e-10 	2.375632853e-09
0.3675691744 	1.253302032e-06 	-8.144134004e-09 	2.197338258e-12 	1.246215365e-06 	-2.32604043e-10 	2.375632853e-09
0.3677500057 	1.542211361e-05 	-3.904904225e-07 	1.430263788e-10 	1.516759868e-05 	-3.871975465e-09 	2.89136587e-08
0.3679308446 	8.736935105e-05 	-5.088544901e-06 	1.989680093e-09 	8.426757049e-05 	-2.268369435e-08 	1.606374103e-07
0.3681116904 	0.0002947975297 	-3.105694342e-05 	1.223012819e-08 	0.0002763213357 	-7.440391316e-08 	5.267452654e-07
0.3682925426 	0.0007332855684 	-0.0001199199778 	4.58451897e-08 	0.0006627045491 	-1.723569774e-07 	1.26329906e-06
0.3684734006 	0.001491385479 	-0.0003376197684 	1.214069909e-07 	0.001293661959 	-3.156523215e-07 	2.466079249e-06
0.3686542637 	0.002617475765 	-0.0007510970829 	2.471179675e-07 	0.00217852397 	-4.863121307e-07 	4.152872177e-06
0.3688351313 	0.00409233502 	-0.001392876846 	4.102005505e-07 	0.003280305353 	-6.563074573e-07 	6.253173716e-06
0.3690160028 	0.005825806479 	-0.002218532347 	4.997132814e-07 	0.004536418062 	-8.268874139e-07 	8.647673659e-06
0.3691968776 	0.007673169068 	-0.003033081201 	5.435868831e-07 	0.005910823832 	-9.873147093e-07 	1.126767305e-05
0.3693777551 	0.009548230952 	-0.003773331305 	6.163576568e-07 	0.00735262713 	-1.114686328e-06 	1.401615087e-05
0.3695586347 	0.01142009345 	-0.004512992338 	6.720904941e-07 	0.008794088978 	-1.209120856e-06 	1.676397778e-05
0.3697395158 	0.01324136665 	-0.005233584944 	7.113789594e-07 	0.01019740261 	-1.269414395e-06 	1.943908359e-05
0.3699203977 	0.01497836955 	-0.005923024872 	7.379080038e-07 	0.01153344041 	-1.297288307e-06 	2.198594298e-05
0.3701012798 	0.01660786204 	-0.006576623183 	7.571595065e-07 	0.01278282458 	-1.293384759e-06 	2.436761646e-05
0.3702821617 	0.01811553153 	-0.00719555093 	7.741861641e-07 	0.01393071849 	-1.258063587e-06 	2.655582129e-05
0.3704630425 	0.01949252669 	-0.007784399777 	7.910915666e-07 	0.0149656534 	-1.191943159e-06 	2.852869487e-05
0.3706439218 	0.02073294263 	-0.008348098704 	8.064948218e-07 	0.01587892245 	-1.096882091e-06 	3.02696395e-05
0.370824799 	0.02183281924 	-0.008890048557 	8.17407477e-07 	0.01666467735 	-9.765392664e-07 	3.176750674e-05
0.3710056733 	0.02279065041 	-0.009412420441 	8.218824217e-07 	0.0173202033 	-8.361121566e-07 	3.301712139e-05
0.3711865443 	0.02360128517 	-0.009893083677 	6.913284021e-07 	0.01785304557 	-7.195849497e-07 	3.403286685e-05
0.3713674113 	0.02422963009 	-0.01019194213 	5.254356191e-07 	0.01830875622 	-6.160402608e-07 	3.490157802e-05
0.3715482738 	0.02469470004 	-0.01032302189 	4.479103386e-07 	0.01869834947 	-4.95422414e-07 	3.564425103e-05
0.371729131 	0.02505099668 	-0.01041861895 	3.724866065e-07 	0.01900011927 	-3.760744398e-07 	3.621950814e-05
0.3719099825 	0.0253083053 	-0.01048100276 	3.000109558e-07 	0.01922234243 	-2.596725522e-07 	3.664312724e-05
0.3720908276 	0.02547470912 	-0.01051244776 	2.31300379e-07 	0.01937170056 	-1.481765136e-07 	3.692784535e-05
0.3722716657 	0.0255576023 	-0.01051529228 	1.669860564e-07 	0.01945427243 	-4.333060565e-08 	3.70852503e-05
0.3724524963 	0.02556393493 	-0.01049181606 	1.075540116e-07 	0.01947567044 	5.335316301e-08 	3.712604084e-05
0.3726333187 	0.02550027912 	-0.01044417215 	5.338793651e-08 	0.01944110086 	1.406133104e-07 	3.706014161e-05
0.3728141323 	0.02537274552 	-0.01037441078 	4.79634136e-09 	0.01935562184 	2.174565189e-07 	3.689719484e-05
0.3729949365 	0.02515721399 	-0.01026994764 	-4.391190245e-08 	0.01920307577 	2.940448723e-07 	3.660639965e-05
0.3732758447 	0.02479382947 	-0.0101063731 	-9.29477501e-08 	0.01893784713 	3.622465329e-07 	3.610080012e-05
0.3735620054 	0.02428354529 	-0.009887088931 	-1.331347078e-07 	0.01855820765 	4.122481464e-07 	3.537710178e-05
0.3738535141 	0.02366651212 	-0.009628437805 	-1.580692772e-07 	0.01809503911 	4.319614819e-07 	3.44941738e-05
0.3741504675 	0.02295525496 	-0.009334376796 	-1.671023021e-07 	0.01755885227 	4.206884492e-07 	3.347205266e-05
0.374452964 	0.02216251212 	-0.009008854138 	-1.599008584e-07 	0.01695997218 	3.787420699e-07 	3.233042077e-05
0.3747611033 	0.02130104353 	-0.008655872851 	-1.364287729e-07 	0.01630884065 	3.074610484e-07 	3.108918309e-05
0.3750749871 	0.02038370228 	-0.008279514131 	-9.639598229e-08 	0.01561594122 	2.086925728e-07 	2.976832418e-05
0.3753947182 	0.0194259596 	-0.007885747672 	-4.102001018e-08 	0.01489341258 	8.626130707e-08 	2.839098378e-05
0.3755993181 	0.01881035365 	-0.007632418005 	6.676112931e-06 	0.01442966677 	-1.223435685e-05 	2.750695537e-05
0.3757202004 	0.01844601657 	-0.007482486441 	-2.485909216e-08 	0.01415519273 	5.173676789e-08 	2.698373158e-05
0.3760513922 	0.01745958302 	-0.007075808623 	-9.741323362e-08 	0.01341369134 	1.982384199e-07 	2.557022384e-05
0.376388741 	0.01647974753 	-0.00667002474 	-1.759025021e-07 	0.01267959045 	3.491893964e-07 	2.41708235e-05
0.3767323563 	0.01552007081 	-0.00627021505 	-2.564216531e-07 	0.01196378328 	4.964141581e-07 	2.280629609e-05
0.3770823489 	0.01459503024 	-0.005882681138 	-3.333457353e-07 	0.0112776497 	6.302808614e-07 	2.14983348e-05
0.3774388313 	0.01371955841 	-0.005514709248 	-3.994393942e-07 	0.01063280968 	7.399699223e-07 	2.026909049e-05
0.3778019175 	0.01290874406 	-0.005173994457 	-4.470108994e-07 	0.01004029059 	8.160899591e-07 	1.913958442e-05
0.3781717233 	0.01217659702 	-0.004867779696 	-4.680328606e-07 	0.009510223354 	8.43113082e-07 	1.812912894e-05
0.3785483659 	0.01153083242 	-0.004602464457 	-4.579196015e-07 	0.00905644089 	8.061557885e-07 	1.726409344e-05
0.3789319641 	0.01096606602 	-0.00435249666 	-6.013807098e-07 	0.0086877196 	7.045586063e-07 	1.656120818e-05
0.3793226385 	0.01045361439 	-0.004019487516 	-9.134606636e-07 	0.008401773839 	5.724946428e-07 	1.601611609e-05
0.3797205109 	0.00999021295 	-0.003639292926 	-1.034018532e-06 	0.008181245795 	4.410855223e-07 	1.559572834e-05
0.3801257049 	0.009590433804 	-0.003308524443 	-1.002610564e-06 	0.008012634236 	2.948046654e-07 	1.527430785e-05
0.3805383456 	0.009251270563 	-0.003015666169 	-9.814818525e-07 	0.007889134654 	1.378119036e-07 	1.503888332e-05
0.3809585596 	0.00896876224 	-0.002755179681 	-9.536332837e-07 	0.00780421308 	-3.951021733e-08 	1.48769992e-05
0.381386475 	0.008734832165 	-0.002523936142 	-9.155564512e-07 	0.00775803917 	-2.470350705e-07 	1.478897889e-05
0.3818233582 	0.008542273921 	-0.002320327725 	-8.479541841e-07 	0.007748740969 	-4.827223035e-07 	1.477125394e-05
0.3822794906 	0.008385953743 	-0.002143209115 	-7.688745951e-07 	0.007776141382 	-7.52025121e-07 	1.482348674e-05
0.3827440409 	0.008262231343 	-0.001986082014 	-7.349797602e-07 	0.007837972187 	-1.034906008e-06 	1.494135344e-05
0.3832171622 	0.008165702753 	-0.001841710543 	-7.250691573e-07 	0.007927898216 	-1.307002136e-06 	1.511277744e-05
0.3836990102 	0.008090691924 	-0.001708447621 	-7.018631029e-07 	0.008039312049 	-1.567158085e-06 	1.532516318e-05
0.3841897433 	0.008032564246 	-0.001586053613 	-6.768249294e-07 	0.008167246715 	-1.81929232e-06 	1.556904221e-05
0.384689523 	0.007987498546 	-0.001472988138 	-6.547749091e-07 	0.008308011033 	-2.066619956e-06 	1.583737812e-05
0.3851985134 	0.007952432534 	-0.001367761963 	-6.363121318e-07 	0.008458914551 	-2.312493222e-06 	1.612504217e-05
0.3857168816 	0.007924950301 	-0.001269059592 	-6.21923359e-07 	0.008617928237 	-2.558150438e-06 	1.642816645e-05
0.3862447977 	0.007903179364 	-0.001175725896 	-6.118551463e-07 	0.008783432159 	-2.80459664e-06 	1.674366292e-05
0.3867824347 	0.0078856554 	-0.001086760257 	-6.063075989e-07 	0.008954137171 	-3.052749264e-06 	1.706907412e-05
0.3873299689 	0.00787122497 	-0.001001293951 	-6.054882576e-07 	0.009129012026 	-3.303348731e-06 	1.74024342e-05
0.3878875794 	0.007858974044 	-0.0009185694833 	-6.096268283e-07 	0.00930722411 	-3.556982886e-06 	1.774215596e-05
0.3884554486 	0.007848173542 	-0.0008379226312 	-5.859738746e-07 	0.009488095231 	-3.610706445e-06 	1.808694659e-05
0.3890337624 	0.007838237664 	-0.0007587670305 	-5.489408968e-07 	0.0096710687 	-3.529152751e-06 	1.843574488e-05
0.3896227096 	0.007828691967 	-0.0006805810865 	-5.176223893e-07 	0.009855684589 	-3.432031741e-06 	1.878767407e-05
0.3902224824 	0.007819148842 	-0.0006028969136 	-4.909697342e-07 	0.010041561 	-3.320533839e-06 	1.914200617e-05
0.3908332767 	0.00780928858 	-0.0005252909606 	-4.680318157e-07 	0.01022837978 	-3.195642581e-06 	1.94981347e-05
0.3914552915 	0.007798844446 	-0.0004473760854 	-4.479327263e-07 	0.01041587613 	-3.058180092e-06 	1.985555484e-05
0.3920887296 	0.007787591028 	-0.0003687948786 	-4.29852673e-07 	0.0106038305 	-2.908839774e-06 	2.021384812e-05
0.3927337972 	0.007775338535 	-0.0002892124171 	-4.130133558e-07 	0.01079205541 	-2.74820287e-06 	2.05726571e-05
0.3933907042 	0.007761921948 	-0.0002083094734 	-3.966620713e-07 	0.01098039717 	-2.576766187e-06 	2.093168884e-05
0.3940596643 	0.007747149061 	-0.0001258001869 	-3.80052605e-07 	0.0111688277 	-2.39495692e-06 	2.129088981e-05
0.3947408949 	0.007730943267 	-4.129331074e-05 	-3.624515809e-07 	0.01135711943 	-2.203093135e-06 	2.164982619e-05
0.3954346172 	0.007713174793 	4.566916978e-05 	-3.431870249e-07 	0.01154571193 	-2.001565376e-06 	2.200933591e-05
0.3961494788 	0.007693451783 	0.000135806583 	-3.209857798e-07 	0.01173607817 	-1.787367014e-06 	2.237222687e-05
0.3968878893 	0.007671640017 	0.0002298529169 	-2.946718121e-07 	0.01192807422 	-1.559456625e-06 	2.273822469e-05
0.3976397877 	0.007647764076 	0.0003275802134 	-2.639319081e-07 	0.01212036186 	-1.321118596e-06 	2.310477838e-05
0.3984054155 	0.007621796566 	0.0004288439846 	-2.272819872e-07 	0.01231231124 	-1.072940396e-06 	2.347068725e-05
0.3991850187 	0.007593656354 	0.0005340104731 	-1.804412084e-07 	0.01250390695 	-8.156013435e-07 	2.383592194e-05
0.3999788474 	0.007563640948 	0.0006421800366 	-1.102283873e-07 	0.0126940054 	-4.821309713e-07 	2.419830242e-05
0.4007871563 	0.007540250474 	0.0007454713527 	-3.692259055e-08 	0.01285126763 	-1.548875e-07 	2.449808794e-05
0.4015479658 	0.007536480402 	0.0008258452606 	2.845349031e-07 	0.0129250766 	1.888476372e-07 	2.463878833e-05
0.4016101199 	0.00753616777 	0.0008324264957 	-2.817167062e-09 	0.01293113328 	-1.178559285e-08 	2.465033405e-05
0.4024470408 	0.00754411277 	0.0009073448224 	-2.792765413e-08 	0.01296700135 	-1.266720358e-07 	2.471870856e-05
0.4032992213 	0.007553028547 	0.0009789077575 	-4.798523627e-08 	0.01300214653 	-2.468895835e-07 	2.478570505e-05
0.4041669344 	0.007564081728 	0.00105591798 	-6.327327753e-08 	0.01304095562 	-3.689093898e-07 	2.485968595e-05
0.4054980656 	0.00757870669 	0.001145443795 	-7.92297313e-08 	0.01308683274 	-5.543536964e-07 	2.494714049e-05
0.4068429052 	0.007595569604 	0.001236757877 	-8.130266963e-08 	0.01313477688 	-7.397372488e-07 	2.503853536e-05
0.4082015963 	0.007613365531 	0.001321058889 	-6.993539688e-08 	0.01318057036 	-9.243807923e-07 	2.512583045e-05
0.4095742835 	0.007631852093 	0.001398358787 	-4.512579477e-08 	0.01322498628 	-1.107663654e-06 	2.521049954e-05
0.4109925526 	0.00765084656 	0.001469499001 	-6.899176758e-09 	0.01326842846 	-1.294076895e-06 	2.529331241e-05
0.4124285917 	0.007670208689 	0.00153498373 	4.444044693e-08 	0.01331058054 	-1.478484543e-06 	2.537366599e-05
0.4138792945 	0.007689621593 	0.001594214665 	1.072586315e-07 	0.01335159887 	-1.659785711e-06 	2.545185834e-05
0.4153448143 	0.007708974895 	0.001647788803 	1.800858267e-07 	0.01339157926 	-1.837665522e-06 	2.552807207e-05
0.4168253059 	0.007728173081 	0.001696240859 	2.299812828e-07 	0.01343067393 	-1.771182774e-06 	2.560259737e-05
0.4183209264 	0.007747167477 	0.001740130273 	2.511946243e-07 	0.01346900431 	-1.570824173e-06 	2.567566573e-05
0.4198318349 	0.007765886599 	0.001779916052 	2.580385347e-07 	0.01350673298 	-1.372592276e-06 	2.574758706e-05
0.4213581924 	0.007784411251 	0.001816356041 	2.518886617e-07 	0.01354382593 	-1.176997046e-06 	2.581829654e-05
0.4229001622 	0.007802791741 	0.001849717437 	2.34152086e-07 	0.01358069776 	-9.84247003e-07 	2.588858448e-05
0.4244819438 	0.007821061297 	0.001880526737 	2.054851768e-07 	0.0136177013 	-7.90990829e-07 	2.595912353e-05
0.4260925758 	0.007839291379 	0.001909580701 	1.676507131e-07 	0.01365457827 	-5.994162385e-07 	2.602942128e-05
0.4277195391 	0.007857414392 	0.001936834275 	1.224054182e-07 	0.01369131568 	-4.114032616e-07 	2.609945299e-05
0.4293630066 	0.007875429172 	0.00196248684 	7.108300004e-08 	0.01372797366 	-2.268292086e-07 	2.61693333e-05
0.4310231538 	0.007893381495 	0.001986899439 	1.490139833e-08 	0.01376460226 	-4.551834606e-08 	2.623915759e-05
0.431448537 	0.007897917651 	0.001992824806 	1.5817626e-07 	0.01377390627 	-1.413266245e-07 	2.625689362e-05
0.4326988195 	0.007911278392 	0.002010266604 	4.423696656e-08 	0.01380126423 	-1.326539239e-07 	2.630904549e-05
0.4343910777 	0.007929223279 	0.002032972319 	1.062590574e-07 	0.01383797014 	-3.080023309e-07 	2.637901715e-05
0.436100568 	0.007947329563 	0.002055155422 	1.707450732e-07 	0.01387494904 	-4.808222077e-07 	2.644950922e-05
0.4378450104 	0.007965639257 	0.002076845597 	2.378820583e-07 	0.01391261918 	-6.534875087e-07 	2.652131897e-05
0.4396278893 	0.007984239174 	0.00209855905 	3.073642706e-07 	0.01395082556 	-8.264681286e-07 	2.659415095e-05
0.4414287725 	0.008003107217 	0.002120288239 	3.778518523e-07 	0.01398939558 	-9.974384947e-07 	2.666767613e-05
0.4432478542 	0.008022186826 	0.002141828753 	4.490119448e-07 	0.01402839837 	-1.166578466e-06 	2.674202628e-05
0.445085332 	0.008041498658 	0.002163325868 	5.206498591e-07 	0.01406782901 	-1.33412532e-06 	2.681719204e-05
0.4469414059 	0.008061032099 	0.002184791539 	5.925933832e-07 	0.01410775145 	-1.500237287e-06 	2.689329531e-05
0.4488162792 	0.008080934975 	0.002206545221 	6.319720192e-07 	0.01414803651 	-1.582917242e-06 	2.697008983e-05
0.4507145584 	0.008101207466 	0.002228214577 	5.665426527e-07 	0.01418924898 	-1.405692283e-06 	2.704865226e-05
0.4526669111 	0.008121913857 	0.002250152473 	4.986046173e-07 	0.01423144244 	-1.226484578e-06 	2.712908471e-05
0.4546388831 	0.008143092394 	0.002272684936 	4.300373908e-07 	0.01427414147 	-1.049619716e-06 	2.721048094e-05
0.4566306909 	0.00816459192 	0.002295258498 	3.609064685e-07 	0.01431746983 	-8.7468498e-07 	2.729307683e-05
0.4586425543 	0.008186399948 	0.002317964596 	2.913488005e-07 	0.01436139156 	-7.015546572e-07 	2.737680385e-05
0.4606746966 	0.008208557306 	0.002340936083 	2.214599487e-07 	0.0144058289 	-5.301065399e-07 	2.746151377e-05
0.4627273447 	0.008231132928 	0.002364141563 	1.513086294e-07 	0.01445093797 	-3.602090393e-07 	2.75475042e-05
0.4648189542 	0.008254148632 	0.002387493866 	8.01516406e-08 	0.01449708894 	-1.898370516e-07 	2.763548078e-05
0.466953052 	0.008277669658 	0.002411362327 	7.995565239e-09 	0.01454406931 	-1.884616219e-08 	2.772503842e-05
0.4671922495 	0.008280326927 	0.0024140568 	5.57124595e-08 	0.01454934833 	-7.594103688e-08 	2.77351017e-05
0.469107006 	0.008301627959 	0.002435629493 	6.361893978e-08 	0.01459160759 	-1.500694952e-07 	2.78156596e-05
0.4712824151 	0.008325909238 	0.002460009664 	1.351034764e-07 	0.01463978778 	-3.173992953e-07 	2.790750443e-05
0.4734797172 	0.008350539699 	0.002484653563 	2.064885197e-07 	0.01468851085 	-4.832757331e-07 	2.800038415e-05
0.4756991628 	0.008375585384 	0.002509580104 	2.777428782e-07 	0.01473786846 	-6.477757055e-07 	2.809447347e-05
0.4779561872 	0.008401069713 	0.002534670178 	3.494281993e-07 	0.01478824865 	-8.123053637e-07 	2.81905121e-05
0.4802602884 	0.008427061518 	0.002560264241 	4.218151401e-07 	0.01483948525 	-9.775524511e-07 	2.828818331e-05
0.4825874655 	0.008453504899 	0.002586336867 	4.938639931e-07 	0.0148912828 	-1.14129935e-06 	2.838692384e-05
0.4849379871 	0.008480246573 	0.002612502362 	5.655187803e-07 	0.01494373458 	-1.303466665e-06 	2.84869115e-05
0.4873121266 	0.008507375146 	0.002639055601 	6.367870776e-07 	0.01499661492 	-1.464199848e-06 	2.858771613e-05
0.4897101617 	0.008534898562 	0.002665743102 	6.285975366e-07 	0.01505033829 	-1.442241296e-06 	2.869012781e-05
0.492163323 	0.008562886158 	0.002692735712 	5.578831788e-07 	0.01510508883 	-1.277326434e-06 	2.879449755e-05
0.4946490888 	0.008591388994 	0.002720383366 	4.873181789e-07 	0.01516041459 	-1.113727453e-06 	2.889996383e-05
0.4971597453 	0.008620225238 	0.002748222969 	4.172346102e-07 	0.01521635818 	-9.519919452e-07 	2.900660786e-05
0.4996955911 	0.008649414973 	0.002776375773 	3.476631858e-07 	0.01527275706 	-7.920976835e-07 	2.91141198e-05
0.5022569303 	0.008678980439 	0.002804725885 	2.786097978e-07 	0.01532987103 	-6.339773072e-07 	2.92229949e-05
0.5048675072 	0.008708982672 	0.002833352038 	2.09283069e-07 	0.01538793817 	-4.756807123e-07 	2.933368701e-05
0.507518827 	0.008739486349 	0.00286257665 	1.401572586e-07 	0.0154466278 	-3.182698615e-07 	2.944556575e-05
0.5101966917 	0.008770341992 	0.002892086668 	7.179445446e-08 	0.01550588151 	-1.629128262e-07 	2.95585198e-05
0.5129014286 	0.008801552865 	0.002921933555 	4.214859333e-09 	0.01556553547 	-9.55893478e-09 	2.967223683e-05
0.5130736398 	0.008803541973 	0.002923824838 	3.552467773e-08 	0.01556934371 	-5.235055774e-08 	2.967949638e-05
0.5156320481 	0.008833120918 	0.002951915062 	6.18404038e-08 	0.01562592114 	-1.41257274e-07 	2.97873487e-05
0.518419256 	0.00886513294 	0.002982238645 	1.279095071e-07 	0.01568720637 	-2.921353342e-07 	2.990417538e-05
0.5212419599 	0.008897628734 	0.00301318093 	1.931867176e-07 	0.01574898194 	-4.412879356e-07 	3.002193679e-05
0.5240930218 	0.00893045993 	0.003044398144 	2.574081815e-07 	0.01581123604 	-5.881810896e-07 	3.01406104e-05
0.5269728009 	0.008963638195 	0.00307590278 	3.205653525e-07 	0.01587396468 	-7.328719382e-07 	3.026018862e-05
0.5298914659 	0.008997190832 	0.003107628777 	3.829125049e-07 	0.0159374879 	-8.760134066e-07 	3.038128154e-05
0.532864735 	0.009031216048 	0.003139864908 	4.447559837e-07 	0.01600167868 	-1.018360195e-06 	3.0503647e-05
0.5358678962 	0.009065644347 	0.003172575508 	5.052691735e-07 	0.01606627257 	-1.158233367e-06 	3.062678091e-05
0.538901337 	0.009100414055 	0.003205623275 	5.644685786e-07 	0.0161311898 	-1.295660441e-06 	3.075053118e-05
0.5419666093 	0.009135518898 	0.00323884788 	6.223451989e-07 	0.01619681008 	-1.430729448e-06 	3.087562168e-05
0.5450948104 	0.009171075712 	0.003272522241 	6.045462712e-07 	0.01626313629 	-1.39213782e-06 	3.100205788e-05
0.5482545274 	0.009207078505 	0.003306798947 	5.44719273e-07 	0.01632974325 	-1.256941527e-06 	3.112902925e-05
0.5514461789 	0.009243411742 	0.003341409204 	4.862154396e-07 	0.01639661688 	-1.124488846e-06 	3.125650899e-05
0.5546709803 	0.009280067262 	0.003376222831 	4.289886822e-07 	0.01646409213 	-9.946363576e-07 	3.138513556e-05
0.5579586754 	0.009317160648 	0.003411493275 	3.723967034e-07 	0.01653216409 	-8.657424311e-07 	3.151489964e-05
0.5612796104 	0.009354711095 	0.003447409719 	3.172907948e-07 	0.01660037848 	-7.399316174e-07 	3.164493522e-05
0.564634237 	0.009392573009 	0.003483621254 	2.637166925e-07 	0.01666885967 	-6.170648854e-07 	3.177547941e-05
0.5680294603 	0.00943076991 	0.003520119076 	2.115089052e-07 	0.01673781151 	-4.967065065e-07 	3.190692076e-05
0.5714814891 	0.009469399787 	0.003557133025 	1.604406963e-07 	0.01680712162 	-3.782586359e-07 	3.20390451e-05
0.5749685919 	0.009508458329 	0.003594750118 	1.110883399e-07 	0.01687644117 	-2.630505282e-07 	3.217118743e-05
0.5784912566 	0.009547808378 	0.003632626213 	6.34577954e-08 	0.01694602535 	-1.509672481e-07 	3.230383422e-05
0.5820660421 	0.009587525735 	0.003670900217 	1.724134748e-08 	0.01701591361 	-4.122196367e-08 	3.243706067e-05
0.583462122 	0.00960300388 	0.003685891996 	2.528545153e-07 	0.01704285776 	-5.641844416e-07 	3.248842372e-05
0.5856870712 	0.009627683004 	0.003709776153 	2.691467563e-08 	0.01708579886 	-6.526545525e-08 	3.257028139e-05
0.5893448323 	0.009668185544 	0.00374908799 	6.895056343e-08 	0.01715563802 	-1.681840959e-07 	3.270341423e-05
0.593044075 	0.009708989177 	0.003788710081 	1.091887262e-07 	0.01722562999 	-2.680028315e-07 	3.283683837e-05
0.5968014921 	0.009750197412 	0.003828857654 	1.477888765e-07 	0.01729564306 	-3.651669202e-07 	3.297030274e-05
0.6005975097 	0.009791812478 	0.003869619106 	1.843240593e-07 	0.01736533837 	-4.587384951e-07 	3.310316138e-05
0.6044326823 	0.009833687497 	0.003910660545 	2.188468033e-07 	0.01743499641 	-5.488309039e-07 	3.323594896e-05
0.6083262453 	0.009875922617 	0.00395216771 	2.5158788e-07 	0.01750453749 	-6.36047727e-07 	3.33685136e-05
0.6122629626 	0.009918572652 	0.003994325351 	2.821597073e-07 	0.01757357097 	-7.195791285e-07 	3.350011059e-05
0.6162404639 	0.009961474089 	0.00403679846 	3.106027634e-07 	0.01764232481 	-7.994398316e-07 	3.363117452e-05
0.6202729019 	0.010004693 	0.004079703297 	3.370782009e-07 	0.01771072949 	-8.760524154e-07 	3.376157285e-05
0.6243530268 	0.01004830193 	0.004123232647 	3.613203726e-07 	0.0177784306 	-9.48889854e-07 	3.389062998e-05
0.6284756376 	0.01009215268 	0.004167106832 	3.833533849e-07 	0.01784558814 	-1.01789424e-06 	3.401865092e-05
0.6326526999 	0.01013628887 	0.00421139864 	4.033087901e-07 	0.01791212094 	-1.083386553e-06 	3.414548093e-05
0.6368792419 	0.01018078088 	0.004256284336 	4.209692294e-07 	0.01797768728 	-1.144932349e-06 	3.42704686e-05
0.6411500483 	0.01022548326 	0.004301503512 	4.363933255e-07 	0.01804243036 	-1.20251533e-06 	3.439388689e-05
0.6454768345 	0.01027044631 	0.004347139702 	4.496906505e-07 	0.0181062178 	-1.256381344e-06 	3.45154835e-05
0.6498531354 	0.01031571735 	0.004393324092 	4.606679704e-07 	0.01816872155 	-1.306111355e-06 	3.463463301e-05
0.65427556 	0.01036114961 	0.00443980174 	4.694465988e-07 	0.01823008912 	-1.351792583e-06 	3.475161666e-05
0.6587567266 	0.01040682618 	0.004486711662 	4.682436155e-07 	0.0182900928 	-1.370581267e-06 	3.486600035e-05
0.6632864859 	0.0104527334 	0.00453407573 	4.443181601e-07 	0.01834849217 	-1.323362434e-06 	3.497732578e-05
0.6678663167 	0.01049875778 	0.004581702973 	4.218691819e-07 	0.01840535733 	-1.279744083e-06 	3.508572658e-05
0.6725042632 	0.01054486972 	0.004629630515 	4.008215653e-07 	0.01846023022 	-1.239611344e-06 	3.519032956e-05
0.6771398434 	0.01059057876 	0.004677319507 	3.814070898e-07 	0.01851263472 	-1.203647269e-06 	3.529022709e-05
0.6817269438 	0.01063546946 	0.004724302103 	3.636255932e-07 	0.0185621609 	-1.171778666e-06 	3.538463777e-05
0.6862659936 	0.01067950657 	0.004770586904 	3.473826973e-07 	0.01860850946 	-1.143918172e-06 	3.5472991e-05
0.6907531043 	0.01072259546 	0.004816018656 	3.325674107e-07 	0.01865187433 	-1.119809067e-06 	3.55556565e-05
0.6951949272 	0.01076480572 	0.004860674728 	3.189769981e-07 	0.01869219845 	-1.099004472e-06 	3.563252547e-05
0.6995877647 	0.01080616569 	0.004904607769 	3.065363237e-07 	0.01872940311 	-1.081530497e-06 	3.570344789e-05
0.7039307073 	0.01084657996 	0.004947661667 	2.951369363e-07 	0.01876371172 	-1.0670595e-06 	3.576884964e-05
0.7082302496 	0.01088614396 	0.004989950149 	2.846222102e-07 	0.01879502402 	-1.055283173e-06 	3.582853959e-05
0.7124812566 	0.01092484233 	0.005031463011 	2.749349131e-07 	0.01882334512 	-1.046208311e-06 	3.588252748e-05
0.7166846618 	0.01096260969 	0.005072090766 	2.659726314e-07 	0.01884885164 	-1.039503812e-06 	3.593114999e-05
0.7208449964 	0.01099954126 	0.005111947361 	2.576199767e-07 	0.01887143482 	-1.034981094e-06 	3.597419982e-05
0.7249584804 	0.01103559853 	0.005150990855 	2.498277823e-07 	0.01889115797 	-1.032594631e-06 	3.601179761e-05
0.729026125 	0.01107074125 	0.005189149501 	2.425094866e-07 	0.01890815691 	-1.032056643e-06 	3.604420233e-05
0.7330514326 	0.01110505678 	0.005226523993 	2.355751535e-07 	0.01892233389 	-1.033227398e-06 	3.607122758e-05
0.7370316237 	0.01113850755 	0.005263076504 	2.289854804e-07 	0.01893375728 	-1.036054945e-06 	3.609300375e-05
0.7409673456 	0.01117105228 	0.005298739796 	2.226781471e-07 	0.01894256409 	-1.040301339e-06 	3.610979196e-05
0.744861872 	0.01120277503 	0.005333603127 	2.16576899e-07 	0.01894866994 	-1.045826804e-06 	3.612143141e-05
0.7487129188 	0.0112336575 	0.005367655908 	2.106513881e-07 	0.01895211074 	-1.052607413e-06 	3.612799053e-05
0.7525210598 	0.01126363824 	0.005400815436 	2.04867522e-07 	0.01895305074 	-1.06045132e-06 	3.612978243e-05
0.7562885687 	0.01129279698 	0.005433156936 	1.991577657e-07 	0.01895142297 	-1.069204533e-06 	3.612667946e-05
0.7600145333 	0.0113211449 	0.005464704808 	1.934971426e-07 	0.01894721733 	-1.07886902e-06 	3.611866234e-05
0.7636991078 	0.01134860109 	0.00549536572 	1.878756484e-07 	0.01894061849 	-1.089302755e-06 	3.610608312e-05
0.7673436288 	0.01137522992 	0.005525191151 	1.822381388e-07 	0.01893159308 	-1.100340392e-06 	3.608887818e-05
0.7709484819 	0.0114010712 	0.005554231441 	1.765605402e-07 	0.01892009529 	-1.111986877e-06 	3.606696019e-05
0.7745133872 	0.01142605088 	0.00558241313 	1.708450423e-07 	0.01890628 	-1.124154213e-06 	3.604062441e-05
0.7780389421 	0.0114501881 	0.005609741189 	1.650619368e-07 	0.01889018708 	-1.136697013e-06 	3.600994683e-05
0.7815265585 	0.01147354462 	0.005636275567 	1.591818171e-07 	0.01887175965 	-1.149566303e-06 	3.597481903e-05
0.784975603 	0.01149609361 	0.005661999574 	1.532038824e-07 	0.01885105934 	-1.162740548e-06 	3.593535848e-05
0.7883865467 	0.01151778717 	0.005686861781 	1.416843574e-07 	0.01882821821 	-1.132567402e-06 	3.589181694e-05
0.7917602851 	0.01153868677 	0.005710909496 	1.305572341e-07 	0.0188032029 	-1.101970945e-06 	3.584413081e-05
0.7950971832 	0.01155881908 	0.005734174894 	1.198402426e-07 	0.01877599552 	-1.071131425e-06 	3.579226597e-05
0.7983972724 	0.01157812509 	0.005756609617 	1.095664652e-07 	0.01874671996 	-1.04015531e-06 	3.573645862e-05
0.8016609923 	0.0115966025 	0.005778203884 	9.975038492e-08 	0.01871544284 	-1.009143457e-06 	3.567683574e-05
0.8048892448 	0.01161430929 	0.005799004859 	9.037892043e-08 	0.01868212527 	-9.781190235e-07 	3.561332319e-05
0.8080820428 	0.01163124402 	0.005819020061 	8.144937713e-08 	0.01864679247 	-9.470734942e-07 	3.554596905e-05
0.8112396897 	0.01164735295 	0.00583820676 	7.298315184e-08 	0.01860956696 	-9.161042759e-07 	3.547500689e-05
0.8143625974 	0.0116626542 	0.005856573589 	6.497817336e-08 	0.01857048433 	-8.852819989e-07 	3.540050453e-05
0.8174515457 	0.01167719944 	0.0058741625 	5.741637356e-08 	0.01852951238 	-8.54603936e-07 	3.53224006e-05
0.8205065383 	0.01169097762 	0.005890972203 	5.029273853e-08 	0.01848669608 	-8.24069536e-07 	3.524078083e-05
0.8235279445 	0.01170394971 	0.005906974112 	4.361335001e-08 	0.0184421385 	-7.937496817e-07 	3.515584172e-05
0.8265161521 	0.0117161349 	0.005922178737 	3.736855393e-08 	0.01839587353 	-7.636944231e-07 	3.506764782e-05
0.8294717838 	0.01172758139 	0.005936622978 	3.153950731e-08 	0.01834787876 	-7.339004409e-07 	3.497615645e-05
0.8323949679 	0.01173828056 	0.005950307128 	2.611871738e-08 	0.01829820074 	-7.043607486e-07 	3.488145634e-05
0.8352860472 	0.01174819748 	0.005963209068 	2.110721414e-08 	0.01824693568 	-6.751330889e-07 	3.478373088e-05
0.8381453877 	0.01175733959 	0.00597533225 	1.649707664e-08 	0.01819413535 	-6.462631088e-07 	3.468307877e-05
0.8409734693 	0.01176575459 	0.005986709941 	1.227225949e-08 	0.01813978855 	-6.177656982e-07 	3.457947867e-05
0.8437705646 	0.01177345443 	0.005997356122 	8.42153724e-09 	0.01808392025 	-5.896210315e-07 	3.447297816e-05
0.8465369613 	0.01178041441 	0.00600725781 	4.940210362e-09 	0.01802661518 	-5.618697926e-07 	3.436373878e-05
0.8492730063 	0.01178664504 	0.006016421314 	1.816311133e-09 	0.0179679248 	-5.345450915e-07 	3.425185859e-05
0.851979068 	0.01179219794 	0.006024878588 	-9.691936145e-10 	0.01790784609 	-5.076658715e-07 	3.413733187e-05
0.8546555343 	0.01179711893 	0.006032661626 	-3.434735032e-09 	0.01784637124 	-4.812061845e-07 	3.402014373e-05
0.8573026396 	0.0118014022 	0.006039769549 	-5.591523354e-09 	0.01778356493 	-4.551746594e-07 	3.390041745e-05
0.859920713 	0.01180505172 	0.00604620584 	-7.451959539e-09 	0.01771948668 	-4.295967339e-07 	3.377826648e-05
0.862510079 	0.01180808623 	0.006051981531 	-9.029595168e-09 	0.01765418294 	-4.044952823e-07 	3.365377941e-05
0.8650710966 	0.01181054732 	0.006057121411 	-1.033912526e-08 	0.01758766893 	-3.798820417e-07 	3.352698522e-05
0.8676040616 	0.01181245075 	0.006061638995 	-1.13913738e-08 	0.01751998329 	-3.557419382e-07 	3.339795758e-05
0.8701092526 	0.01181377675 	0.006065525915 	-1.219499857e-08 	0.01745122045 	-3.320979403e-07 	3.326687649e-05
0.8725869784 	0.01181453573 	0.006068790265 	-1.276328261e-08 	0.01738144271 	-3.08969369e-07 	3.313386072e-05
0.8750375438 	0.01181475681 	0.00607144954 	-1.311264887e-08 	0.01731069483 	-2.863681481e-07 	3.29989956e-05
0.8774612751 	0.0118144956 	0.006073535145 	-1.326196098e-08 	0.01723898942 	-2.642907735e-07 	3.286230516e-05
0.8798584493 	0.01181379072 	0.006075071564 	-1.322772006e-08 	0.01716635445 	-2.427125791e-07 	3.272384272e-05
0.8822293439 	0.01181265456 	0.006076067546 	-1.302448458e-08 	0.01709286119 	-2.216404683e-07 	3.258374415e-05
0.8845742495 	0.01181112255 	0.006076543417 	-1.266573682e-08 	0.01701855649 	-2.010862443e-07 	3.244209874e-05
0.886893453 	0.01180923832 	0.00607652291 	-1.216168475e-08 	0.01694348203 	-1.810684909e-07 	3.229898594e-05
0.8891872474 	0.01180706707 	0.006076039242 	-1.151985787e-08 	0.01686765703 	-1.61608848e-07 	3.215444242e-05
0.8914559102 	0.0118046728 	0.006075126205 	-1.074467285e-08 	0.0167910975 	-1.427130717e-07 	3.200849869e-05
0.8936997032 	0.01180210506 	0.006073808405 	-9.842316683e-09 	0.01671384641 	-1.244029947e-07 	3.186123663e-05
0.8959189001 	0.0117994372 	0.006072119795 	-8.824093139e-09 	0.01663592467 	-1.066932536e-07 	3.171269614e-05
0.8981137716 	0.0117967538 	0.006070098623 	-7.706659852e-09 	0.01655734063 	-8.958275439e-08 	3.156289312e-05
0.9002845849 	0.01179412994 	0.006067777039 	-6.510362756e-09 	0.0164781188 	-7.305691037e-08 	3.141187429e-05
0.9024316135 	0.01179161268 	0.006065175801 	-5.25506121e-09 	0.01639831283 	-5.708636733e-08 	3.125974192e-05