0.4709558481 	4.827988514e-07 	-1.796717661e-09 	-5.419694167e-15 	4.818802656e-07 	4.85122451e-13 	9.185977179e-10
0.4711314108 	5.420383497e-06 	-7.87862179e-08 	-2.315337513e-13 	5.410072496e-06 	5.44738747e-12 	1.031310183e-08
0.4713069734 	3.020479424e-05 	-1.025824545e-06 	-2.925640167e-12 	3.014738811e-05 	3.032442499e-11 	5.746930078e-08
0.471482536 	0.0001004442872 	-6.359502262e-06 	-1.744581794e-11 	0.0001002538622 	1.002922933e-10 	1.911117255e-07
0.4716580986 	0.0002473333114 	-2.54556642e-05 	-6.620570575e-11 	0.0002468663178 	2.432674342e-10 	4.705958146e-07
0.4718336613 	0.0005026123135 	-7.608087003e-05 	-1.84038337e-10 	0.0005016654639 	4.791092625e-10 	9.563138049e-07
0.4720092239 	0.0008934278635 	-0.0001838822513 	-4.045649347e-10 	0.0008917368964 	8.064256298e-10 	1.69989837e-06
0.4721847865 	0.001436080374 	-0.0003770593065 	-7.369172758e-10 	0.00143333331 	1.192042805e-09 	2.732331664e-06
0.4723603491 	0.002130596278 	-0.0006773029263 	-1.1491389e-09 	0.002126460367 	1.571572271e-09 	4.053624479e-06
0.4725359118 	0.002959307634 	-0.001091527042 	-1.574086809e-09 	0.00295318233 	1.875502946e-09 	5.629586316e-06
0.4727114744 	0.00389026278 	-0.001609244398 	-1.943126166e-09 	0.003882558333 	2.045511199e-09 	7.401235284e-06
0.472887037 	0.004885476483 	-0.002199080028 	-1.477712212e-09 	0.004878025848 	2.048899252e-09 	9.298873044e-06
0.4730625996 	0.005913909991 	-0.002747685617 	-8.041960626e-10 	0.005904667638 	1.943668954e-09 	1.125593764e-05
0.4732381623 	0.0069552113 	-0.003231054713 	-6.838591472e-10 	0.006941527399 	1.76259643e-09 	1.323248052e-05
0.4734137249 	0.007992220147 	-0.003712814186 	-5.028618382e-10 	0.007976581028 	1.451884616e-09 	1.520558042e-05
0.4735892875 	0.00901094319 	-0.004186249895 	-2.650125432e-10 	0.008994481932 	1.015951306e-09 	1.714598245e-05
0.4737648501 	0.01000125084 	-0.004646322884 	2.356885952e-11 	0.009982974484 	4.850382331e-10 	1.903032399e-05
0.4739404128 	0.01095517793 	-0.005089490911 	3.556817711e-10 	0.01093512481 	-1.314104018e-10 	2.084538714e-05
0.4741159754 	0.01186776068 	-0.005513461455 	7.235656995e-10 	0.01184605233 	-8.181169183e-10 	2.258186818e-05
0.474291538 	0.01273620407 	-0.005916940207 	1.119501842e-09 	0.01271293973 	-1.559364724e-09 	2.42343965e-05
0.4744671006 	0.01355933808 	-0.006299407731 	1.536298414e-09 	0.01353460224 	-2.340381361e-09 	2.580071362e-05
0.4746426632 	0.01433718148 	-0.006660940823 	1.967770749e-09 	0.01431105925 	-3.147853594e-09 	2.728085649e-05
0.4748182259 	0.01507059303 	-0.007002082286 	2.409272366e-09 	0.01504316827 	-3.969730525e-09 	2.867645976e-05
0.4749937885 	0.01576099143 	-0.007323751577 	2.858241977e-09 	0.01573234491 	-4.794920487e-09 	2.999022198e-05
0.4751693511 	0.0164101419 	-0.007627182749 	3.314666412e-09 	0.01638035095 	-5.613257499e-09 	3.122550159e-05
0.4753449137 	0.01702000803 	-0.007913877997 	3.781398665e-09 	0.01698914624 	-6.415776947e-09 	3.238603462e-05
0.4755204764 	0.01759268705 	-0.008183775404 	4.223880594e-09 	0.0175608233 	-7.195900831e-09 	3.347580999e-05
0.475696039 	0.01813044498 	-0.008434218005 	4.62741024e-09 	0.01809762822 	-7.950627473e-09 	3.449910936e-05
0.4758716016 	0.01863568278 	-0.008666966458 	5.015273866e-09 	0.01860187246 	-8.677902819e-09 	3.546033903e-05
0.4760471642 	0.01911058645 	-0.008885993501 	5.388301549e-09 	0.01907582649 	-9.379411319e-09 	3.636382715e-05
0.4762227269 	0.01961694401 	-0.009119811803 	5.794306739e-09 	0.01958147906 	-1.015035863e-08 	3.732774148e-05
0.4764955107 	0.02020174935 	-0.009390133952 	6.272067956e-09 	0.02016550245 	-1.105091025e-08 	3.844105237e-05
0.4767734216 	0.02079586524 	-0.009664975528 	6.763924409e-09 	0.02075847231 	-1.19561467e-08 	3.957141775e-05
0.4770565557 	0.02134545315 	-0.009919408181 	7.219740283e-09 	0.02130691804 	-1.277555405e-08 	4.061690773e-05
0.4773450114 	0.02185333574 	-0.01015469847 	7.635568167e-09 	0.02181385923 	-1.350816395e-08 	4.158327854e-05
0.4776388886 	0.02232224448 	-0.01037204241 	8.007660518e-09 	0.02228190271 	-1.414701515e-08 	4.24754995e-05
0.4779382892 	0.02275464728 	-0.01057254336 	8.332579302e-09 	0.02271348643 	-1.46858087e-08 	4.329821803e-05
0.4782433171 	0.0231527647 	-0.01075720512 	8.607300975e-09 	0.02311083199 	-1.511953658e-08 	4.40556691e-05
0.4785540779 	0.02351861908 	-0.01092694461 	8.82934887e-09 	0.02347594936 	-1.544351998e-08 	4.475168427e-05
0.4788706795 	0.02385432478 	-0.01108272514 	9.000066862e-09 	0.02381093841 	-1.565955349e-08 	4.539026651e-05
0.4791932316 	0.02416233951 	-0.01122567437 	9.123360758e-09 	0.02411826238 	-1.577332671e-08 	4.597611142e-05
0.4795218461 	0.02444503598 	-0.01135688366 	9.19818806e-09 	0.0244002981 	-1.577001809e-08 	4.651374989e-05
0.4798566368 	0.02470428022 	-0.01147721057 	9.219128969e-09 	0.02465889609 	-1.562014865e-08 	4.700670953e-05
0.48019772 	0.02494160641 	-0.01158736197 	9.180613437e-09 	0.02489557947 	-1.530887546e-08 	4.745789384e-05
0.4805452138 	0.02515840247 	-0.01168797992 	9.078384053e-09 	0.02511173758 	-1.48266322e-08 	4.786995127e-05
0.4808992388 	0.02535592495 	-0.01177964618 	8.911631057e-09 	0.02530862707 	-1.417775076e-08 	4.824527736e-05
0.4812599177 	0.02553530795 	-0.01186288659 	8.685579303e-09 	0.02548738411 	-1.345220597e-08 	4.858603796e-05
0.4816273755 	0.02569757211 	-0.01193817532 	8.413546018e-09 	0.02564903562 	-1.270311255e-08 	4.889419067e-05
0.4820017397 	0.0258436398 	-0.01200593919 	8.115448634e-09 	0.02579449942 	-1.192765373e-08 	4.917148511e-05
0.48238314 	0.02597434365 	-0.01206656205 	7.81159754e-09 	0.02592459669 	-1.121860459e-08 	4.941948666e-05
0.4827717088 	0.02609043173 	-0.01212038881 	7.516080105e-09 	0.02604006652 	-1.062573106e-08 	4.963960426e-05
0.4831675807 	0.02619257558 	-0.01216772894 	7.231842148e-09 	0.02614157248 	-9.982206667e-09 	4.983310282e-05
0.4835708931 	0.02628138 	-0.01220885976 	6.946675781e-09 	0.02622970407 	-9.254019075e-09 	5.000110613e-05
0.4839817856 	0.02635738706 	-0.01224402953 	6.634243196e-09 	0.02630498694 	-8.545215376e-09 	5.01446162e-05
0.4844004009 	0.02642107466 	-0.01227346034 	6.264390173e-09 	0.02636790144 	-7.670419876e-09 	5.026454873e-05
0.4848268841 	0.02647286807 	-0.01229735071 	5.815564664e-09 	0.02641887755 	-6.584412043e-09 	5.036172336e-05
0.485261383 	0.0265131479 	-0.01231587787 	5.279131801e-09 	0.02645829673 	-5.389298593e-09 	5.043686727e-05
0.4857040484 	0.02654225233 	-0.01232919979 	4.656225873e-09 	0.02648650135 	-4.048770754e-09 	5.049063311e-05
0.4861550336 	0.0265604823 	-0.01233745681 	3.953138751e-09 	0.02650379469 	-2.549553067e-09 	5.052359904e-05
0.4866144951 	0.02656810373 	-0.01234077293 	3.178696774e-09 	0.02651044463 	-8.941906697e-10 	5.053627567e-05
0.4870825921 	0.02656534969 	-0.01233925692 	2.34385107e-09 	0.02650668618 	9.007999528e-10 	5.052911101e-05
0.487559487 	0.02655242378 	-0.01233300334 	1.460277796e-09 	0.02649272291 	2.833100376e-09 	5.050249313e-05
0.4880453452 	0.02652950344 	-0.01232209354 	5.362312889e-10 	0.02646872755 	4.898781015e-09 	5.045675131e-05
0.4885403351 	0.02649674063 	-0.01230659643 	-4.264083969e-10 	0.02643484484 	7.088858467e-09 	5.039216145e-05
0.4890446283 	0.0264542617 	-0.0122865693 	-1.431207113e-09 	0.02639119494 	9.404486331e-09 	5.03089526e-05
0.4895583997 	0.02640216816 	-0.0122620583 	-2.484461057e-09 	0.02633787513 	1.184792113e-08 	5.020731023e-05
0.4900818274 	0.02634053796 	-0.01223309907 	-3.592901335e-09 	0.02627496094 	1.442081184e-08 	5.00873783e-05
0.4906150929 	0.0262694267 	-0.0121997172 	-4.762461052e-09 	0.02620250697 	1.712742147e-08 	4.994926089e-05
0.4911583811 	0.02618886889 	-0.01216192865 	-5.997945087e-09 	0.02612054757 	1.997436209e-08 	4.97930235e-05
0.4917118805 	0.02609887888 	-0.01211974016 	-7.303177566e-09 	0.02602909746 	2.296862008e-08 	4.961869418e-05
0.4922757829 	0.0259994517 	-0.01207314952 	-8.681242546e-09 	0.02592815236 	2.611478948e-08 	4.942626476e-05
0.4928502838 	0.02589056365 	-0.01202214593 	-1.013461679e-08 	0.02581768963 	2.941272315e-08 	4.92156921e-05
0.4934355824 	0.02577217289 	-0.01196671026 	-1.166524209e-08 	0.02569766892 	3.285808261e-08 	4.898689926e-05
0.4940318817 	0.02564422008 	-0.01190681531 	-1.327470991e-08 	0.0255680328 	3.644699106e-08 	4.873977678e-05
0.4946393885 	0.02550662899 	-0.01184242615 	-1.496462895e-08 	0.02542870738 	4.018136175e-08 	4.84741838e-05
0.4952583133 	0.02535930726 	-0.01177350044 	-1.673704929e-08 	0.025279603 	4.407053756e-08 	4.818994941e-05
0.4958888709 	0.02520214719 	-0.01169998876 	-1.859472054e-08 	0.02512061497 	4.812862592e-08 	4.788687404e-05
0.4965312797 	0.02503502653 	-0.01162183507 	-2.054103589e-08 	0.02495162457 	5.23701538e-08 	4.756473137e-05
0.4971857627 	0.02485780939 	-0.01153897715 	-2.257970891e-08 	0.02477250016 	5.68069156e-08 	4.722327046e-05
0.4978525466 	0.02467034739 	-0.01145134718 	-2.471437059e-08 	0.02458309856 	6.144700031e-08 	4.686221838e-05
0.4985318627 	0.02447248112 	-0.01135887248 	-2.69482497e-08 	0.02438326659 	6.629545617e-08 	4.64812831e-05
0.4992239466 	0.02426404195 	-0.01126147631 	-2.928400994e-08 	0.02417284281 	7.135561924e-08 	4.608015689e-05
0.4999290382 	0.0240448542 	-0.01115907886 	-3.172373344e-08 	0.02395165963 	7.663021768e-08 	4.565852028e-05
0.5006473819 	0.02381473768 	-0.01105159842 	-3.426898448e-08 	0.02371954569 	8.212183803e-08 	4.521604658e-05
0.501379227 	0.0235735103 	-0.01093895259 	-3.692088565e-08 	0.02347632844 	8.783279461e-08 	4.475240691e-05
0.502124827 	0.02332099054 	-0.01082105949 	-3.968017459e-08 	0.02322183706 	9.376484647e-08 	4.426727561e-05
0.5028844406 	0.02305699909 	-0.01069783867 	-4.254724391e-08 	0.02295590478 	9.992010393e-08 	4.376033477e-05
0.5036583311 	0.02278136092 	-0.01056921126 	-4.552214265e-08 	0.02267836535 	1.06303884e-07 	4.323126747e-05
0.5044467669 	0.02249390794 	-0.01043509846 	-4.860437034e-08 	0.02238903793 	1.12907174e-07 	4.2679729e-05
0.5052500214 	0.02219444294 	-0.01029541747 	-5.179235586e-08 	0.02208777137 	1.196406179e-07 	4.210543122e-05
0.506068373 	0.02184219187 	-0.01013117978 	-5.550996765e-08 	0.02173370515 	1.273273641e-07 	4.143048259e-05
0.507324668 	0.02139195662 	-0.009921324973 	-6.020982868e-08 	0.02128143017 	1.370908747e-07 	4.056832078e-05
0.5085949819 	0.02088134592 	-0.009683393312 	-6.547697189e-08 	0.02076872612 	1.482335007e-07 	3.959096436e-05
0.5098794711 	0.02035142978 	-0.009436553283 	-7.088178999e-08 	0.02023697993 	1.597589419e-07 	3.857730832e-05
0.5111782938 	0.01980252437 	-0.00918096789 	-7.642749629e-08 	0.01968658284 	1.715674959e-07 	3.752809849e-05
0.5124916099 	0.0192348005 	-0.008916719512 	-8.212616755e-08 	0.01911769798 	1.836819e-07 	3.644364584e-05
0.5138195812 	0.0186482114 	-0.008643793583 	-8.800029219e-08 	0.01853030038 	1.961431813e-07 	3.532390275e-05
0.5151623712 	0.01804246229 	-0.008362066293 	-9.40784463e-08 	0.01792416099 	2.090122877e-07 	3.416843261e-05
0.5165201452 	0.01741706419 	-0.008071317753 	-1.003762618e-07 	0.01729882887 	2.223554158e-07 	3.297637579e-05
0.5178930705 	0.01677190593 	-0.007771484121 	-1.063537337e-07 	0.01665411504 	2.350106068e-07 	3.174737204e-05
0.5192813161 	0.01611082054 	-0.007464355423 	-1.110771878e-07 	0.0159938785 	2.44937308e-07 	3.048877768e-05
0.520685053 	0.01544203134 	-0.007153790869 	-1.143869503e-07 	0.01532651619 	2.518196595e-07 	2.921659964e-05
0.522104454 	0.01477260522 	-0.006843079225 	-1.165515964e-07 	0.014659095 	2.562718901e-07 	2.794430936e-05
0.523539694 	0.01410779373 	-0.006534636008 	-1.175714436e-07 	0.01399674323 	2.582856428e-07 	2.668168279e-05
0.5249909497 	0.01345323724 	-0.006231061822 	-1.173208138e-07 	0.01334505653 	2.575805629e-07 	2.543938681e-05
0.5264583998 	0.01281525211 	-0.005935270261 	-1.155625047e-07 	0.01271034001 	2.536484687e-07 	2.422944071e-05
0.527942225 	0.01220122616 	-0.00565068037 	-1.120175143e-07 	0.01210002346 	2.458841389e-07 	2.306600774e-05
0.5294426081 	0.01161978923 	-0.005381067174 	-1.065453922e-07 	0.01152135041 	2.354489942e-07 	2.196289607e-05
0.5309597337 	0.01107860843 	-0.005129990105 	-9.931607552e-08 	0.01098199948 	2.187040841e-07 	2.09347433e-05
0.5324937889 	0.0105803312 	-0.004899844265 	-9.106424104e-08 	0.01049195833 	1.974185147e-07 	2.000058866e-05
0.5340449624 	0.01012539975 	-0.004656260301 	-1.339142871e-07 	0.01004731374 	1.867339211e-07 	1.915297249e-05
0.5356134452 	0.009709653014 	-0.004341944468 	-1.643067968e-07 	0.009630110434 	1.790484621e-07 	1.835766704e-05
0.5371994306 	0.009320324696 	-0.004008725734 	-1.416485036e-07 	0.009239393826 	1.648943945e-07 	1.761285259e-05
0.5388031139 	0.00895207608 	-0.003714145841 	-1.317196854e-07 	0.008879608302 	1.549118563e-07 	1.692700138e-05
0.5404246925 	0.008609804251 	-0.003439009075 	-1.244367515e-07 	0.008544007254 	1.461168924e-07 	1.628725251e-05
0.5420643661 	0.008294666816 	-0.00317960585 	-1.182609394e-07 	0.008232373857 	1.343096199e-07 	1.569319264e-05
0.5437223366 	0.008005790653 	-0.002934496558 	-1.124995909e-07 	0.007947821605 	1.222488002e-07 	1.515075696e-05
0.5453988083 	0.007743614417 	-0.002703187423 	-1.066795159e-07 	0.007690033989 	1.097482663e-07 	1.465934212e-05
0.5470939875 	0.007508025833 	-0.002485550447 	-1.008188247e-07 	0.007458840902 	9.698043633e-08 	1.421862384e-05
0.5488080831 	0.007298556504 	-0.002281272718 	-9.49883915e-08 	0.007253751761 	8.415344123e-08 	1.382766693e-05
0.5505413061 	0.007114393344 	-0.002089865345 	-8.92599693e-08 	0.007073945185 	7.146318343e-08 	1.348490562e-05
0.5522938699 	0.006954416832 	-0.00191071376 	-8.367245681e-08 	0.006918323024 	5.909525018e-08 	1.318824653e-05
0.5540659904 	0.006817313801 	-0.001743136823 	-7.824544165e-08 	0.006785559727 	4.718641168e-08 	1.293516279e-05
0.5558578859 	0.00670169454 	-0.00158648727 	-7.274393426e-08 	0.006674272429 	3.575614706e-08 	1.272301827e-05
0.5576697768 	0.006606226914 	-0.001440643636 	-6.701861584e-08 	0.006583278221 	2.462095774e-08 	1.254955802e-05
0.5595018865 	0.006530160658 	-0.001304583039 	-6.204594049e-08 	0.006511812601 	1.365490824e-08 	1.241332468e-05
0.5613544406 	0.006472832124 	-0.001175864224 	-5.815793021e-08 	0.006458963323 	3.239992131e-09 	1.231257927e-05
0.563227667 	0.006432517099 	-0.001053329077 	-5.448812673e-08 	0.006422987464 	-6.137980498e-09 	1.224399928e-05
0.5651217966 	0.006406949497 	-0.0009368043589 	-5.098971354e-08 	0.006401729093 	-1.438806177e-08 	1.220347492e-05
0.5670370626 	0.00639413803 	-0.0008256720829 	-4.791161747e-08 	0.006393163301 	-2.165746757e-08 	1.218714614e-05
0.5689737009 	0.006392380613 	-0.0007192497436 	-4.524643815e-08 	0.006395564518 	-2.806101911e-08 	1.219172353e-05
0.5709319499 	0.006400204898 	-0.0006169317045 	-4.300323509e-08 	0.006407486104 	-3.366803685e-08 	1.221444938e-05
0.5729120508 	0.006416350495 	-0.0005181884122 	-4.108787453e-08 	0.006427679556 	-3.864364538e-08 	1.225294371e-05
0.5749142474 	0.006439734142 	-0.0004225607559 	-3.938241456e-08 	0.006455068229 	-4.30950956e-08 	1.230515414e-05
0.5769387863 	0.006469420951 	-0.0003296520876 	-3.785024212e-08 	0.006488722795 	-4.705531284e-08 	1.236930909e-05
0.5789859169 	0.006504601862 	-0.0002391202641 	-3.648004522e-08 	0.006527838167 	-5.059150795e-08 	1.244387386e-05
0.5810558911 	0.006544574144 	-0.0001506698405 	-3.525639375e-08 	0.006571715936 	-5.376381929e-08 	1.252751709e-05
0.583148964 	0.006588726828 	-6.404789285e-05 	-3.415465415e-08 	0.006619746022 	-5.661833654e-08 	1.261907578e-05
0.5852653933 	0.006636525899 	2.096219968e-05 	-3.316404492e-08 	0.006671396765 	-5.919454048e-08 	1.271753645e-05
0.5874054395 	0.006687502048 	0.0001045577123 	-3.228693858e-08 	0.006726204289 	-6.152711851e-08 	1.282201483e-05
0.5895693664 	0.006741244697 	0.0001869143578 	-3.150007528e-08 	0.006783756598 	-6.364500776e-08 	1.293172552e-05
0.5917574402 	0.006797390994 	0.0002681722758 	-3.07836398e-08 	0.006843692451 	-6.557289385e-08 	1.304597992e-05
0.5939699306 	0.00685561924 	0.0003484504939 	-3.013392328e-08 	0.006905692889 	-6.733273351e-08 	1.316416998e-05
0.5962071099 	0.006915644818 	0.0004278572472 	-2.954343701e-08 	0.006969472419 	-6.894363594e-08 	1.32857515e-05
0.5984692536 	0.006977213492 	0.0005064864767 	-2.900580066e-08 	0.007034777689 	-7.042256557e-08 	1.341024149e-05
0.6007566404 	0.007040098052 	0.0005844196652 	-2.851552454e-08 	0.007101381747 	-7.178442762e-08 	1.353720734e-05
0.6030695519 	0.007104094621 	0.0006617273935 	-2.806786659e-08 	0.007169080811 	-7.304236909e-08 	1.366626057e-05
0.6054082729 	0.007169019645 	0.0007384706486 	-2.765870749e-08 	0.007237691253 	-7.420801318e-08 	1.379705114e-05
0.6077730914 	0.007234707317 	0.0008147019324 	-2.728443678e-08 	0.007307047039 	-7.529165952e-08 	1.392926255e-05
0.6101642987 	0.007301007375 	0.0008904661999 	-2.694182607e-08 	0.007376997532 	-7.630244511e-08 	1.406260763e-05
0.6125821893 	0.007367783215 	0.000965801653 	-2.662784986e-08 	0.007447405607 	-7.724843097e-08 	1.419682499e-05
0.6150270608 	0.007434910266 	0.00104074041 	-2.633958812e-08 	0.00751814603 	-7.813661916e-08 	1.433167589e-05
0.6174992144 	0.007502274586 	0.001115309063 	-2.607437098e-08 	0.007589104053 	-7.897304809e-08 	1.446694161e-05
0.6199989545 	0.007569771651 	0.001189529146 	-2.582991282e-08 	0.0076601742 	-7.976299707e-08 	1.460242106e-05
0.622526589 	0.007637305297 	0.001263417532 	-2.560424997e-08 	0.007731259207 	-8.051114447e-08 	1.473792884e-05
0.625082429 	0.007704786797 	0.001336986757 	-2.539563691e-08 	0.007802269097 	-8.122164529e-08 	1.487329343e-05
0.6276667894 	0.00777213405 	0.001410245298 	-2.520247128e-08 	0.007873120372 	-8.189817775e-08 	1.500835565e-05
0.6302799884 	0.007839270865 	0.001483197792 	-2.502323776e-08 	0.007943735292 	-8.254397363e-08 	1.514296731e-05
0.6329223478 	0.007906126334 	0.001555845225 	-2.485647231e-08 	0.008014041242 	-8.316184153e-08 	1.527699e-05
0.6355941931 	0.007972634267 	0.001628185076 	-2.470073583e-08 	0.008083970171 	-8.375419045e-08 	1.541029397e-05
0.6382958531 	0.008038732694 	0.001700211442 	-2.455458875e-08 	0.008153458079 	-8.432305157e-08 	1.554275724e-05
0.6410276607 	0.00810436342 	0.001771915134 	-2.441656929e-08 	0.008222444573 	-8.487009606e-08 	1.567426467e-05
0.6437899523 	0.008169471623 	0.001843283754 	-2.428517857e-08 	0.008290872453 	-8.539665181e-08 	1.580470722e-05
0.646583068 	0.008234005496 	0.001914301761 	-2.415886604e-08 	0.008358687348 	-8.590372153e-08 	1.593398126e-05
0.6494073518 	0.008297915926 	0.00198495052 	-2.403600981e-08 	0.008425837386 	-8.639199829e-08 	1.60619879e-05
0.6522631514 	0.008361156208 	0.002055208351 	-2.39148989e-08 	0.008492272896 	-8.686187629e-08 	1.618863244e-05
0.6551508186 	0.008423681785 	0.002125050566 	-2.379372106e-08 	0.008557946135 	-8.731346095e-08 	1.631382389e-05
0.658070709 	0.008485450027 	0.002194449515 	-2.367054923e-08 	0.008622811058 	-8.774657979e-08 	1.643747446e-05
0.6610231822 	0.008546420027 	0.002263374632 	-2.35433246e-08 	0.008686823094 	-8.816079026e-08 	1.65594992e-05
0.6640086017 	0.008606552433 	0.002331792486 	-2.340984396e-08 	0.008749938968 	-8.85553845e-08 	1.667981559e-05
0.6670273351 	0.0086658093 	0.00239966685 	-2.32677507e-08 	0.00881211653 	-8.892939491e-08 	1.679834331e-05
0.6700797543 	0.008724153972 	0.002466958786 	-2.311452198e-08 	0.008873314627 	-8.9281599e-08 	1.691500389e-05
0.6731662352 	0.008781550995 	0.002533626744 	-2.294745673e-08 	0.008933492986 	-8.961051982e-08 	1.702972057e-05
0.6762871577 	0.008837966044 	0.002599626701 	-2.276367143e-08 	0.008992612133 	-8.991442466e-08 	1.714241809e-05
0.6794429063 	0.008893365892 	0.002664912316 	-2.256009826e-08 	0.009050633334 	-9.019132376e-08 	1.725302263e-05
0.6826338695 	0.008947718401 	0.002729435138 	-2.233348567e-08 	0.009107518569 	-9.043896435e-08 	1.73614617e-05
0.6858604404 	0.009000992542 	0.002793144845 	-2.208041506e-08 	0.009163230533 	-9.065481874e-08 	1.746766418e-05
0.6891230163 	0.009053158454 	0.002855989543 	-2.179734602e-08 	0.009217732677 	-9.083606966e-08 	1.757156042e-05
0.6924219988 	0.009104187523 	0.002917916109 	-2.148072257e-08 	0.009270989279 	-9.097958966e-08 	1.76730823e-05
0.6957577944 	0.009154052506 	0.002978870605 	-2.112727797e-08 	0.009322965565 	-9.108189913e-08 	1.777216355e-05
0.6991308138 	0.009202727676 	0.003038798751 	-2.073480103e-08 	0.009373627877 	-9.113884937e-08 	1.786874e-05
0.7025414724 	0.009250188986 	0.003097646473 	-2.030385882e-08 	0.009422943915 	-9.114583143e-08 	1.796275007e-05
0.7059901901 	0.009296414239 	0.003155360502 	-1.984079656e-08 	0.009470883063 	-9.10992922e-08 	1.805413541e-05
0.7094773917 	0.009341383245 	0.00321188922 	-1.935103676e-08 	0.009517416848 	-9.099603974e-08 	1.814284174e-05
0.7130035066 	0.009385078442 	0.003267183913 	-1.881672084e-08 	0.009562518987 	-9.083286593e-08 	1.822881895e-05
0.7165689691 	0.009427486032 	0.003321199414 	-1.820856272e-08 	0.00960616518 	-9.060485306e-08 	1.831202073e-05
0.7201742182 	0.009468596196 	0.003373894439 	-1.752246773e-08 	0.009648333869 	-9.030557461e-08 	1.839240597e-05
0.7238196978 	0.009508403034 	0.003425232827 	-1.676949953e-08 	0.009689007288 	-8.99315277e-08 	1.846994081e-05
0.727505857 	0.009546904915 	0.003475184667 	-1.595494932e-08 	0.009728172804 	-8.94796862e-08 	1.854460117e-05
0.7312331497 	0.009584105203 	0.003523725484 	-1.507792775e-08 	0.009765823825 	-8.894696275e-08 	1.861637448e-05
0.7350020349 	0.009619921162 	0.003570706327 	-1.413422206e-08 	0.00980186495 	-8.83351428e-08 	1.868507888e-05
0.7387709215 	0.0096540994 	0.003615738393 	-1.312142553e-08 	0.009836031181 	-8.765008777e-08 	1.875020921e-05
0.7424982157 	0.009686446108 	0.003658512442 	-1.203341051e-08 	0.009868127468 	-8.689214845e-08 	1.881139366e-05
0.7461843763 	0.009717000036 	0.003699037833 	-1.086167024e-08 	0.009898196252 	-8.605477018e-08 	1.886871312e-05
0.7498298574 	0.00974589271 	0.003737455279 	-9.629868194e-09 	0.009926371272 	-8.513286321e-08 	1.892242254e-05
0.7534351078 	0.009773253566 	0.003773910433 	-8.383912171e-09 	0.009952786893 	-8.412803953e-08 	1.897277805e-05
0.7570005716 	0.00979921028 	0.003808550951 	-7.133302717e-09 	0.009977578296 	-8.30428189e-08 	1.902003736e-05
0.7605266877 	0.009823890598 	0.003841524808 	-5.859250893e-09 	0.01000087991 	-8.187385866e-08 	1.906445671e-05
0.7640138905 	0.009847422414 	0.003872979811 	-4.546998292e-09 	0.01002282538 	-8.061824056e-08 	1.910629087e-05
0.7674626093 	0.009869933879 	0.003903064323 	-3.189656213e-09 	0.01004354778 	-7.927501595e-08 	1.914579353e-05
0.770873269 	0.009891553021 	0.003931928036 	-1.789931854e-09 	0.01006318025 	-7.784425116e-08 	1.918321847e-05
0.7742462894 	0.009912407454 	0.00395972132 	-3.540332471e-10 	0.01008185635 	-7.632757354e-08 	1.921882032e-05
0.777582086 	0.009932624679 	0.003986594019 	1.114397255e-09 	0.01009970999 	-7.472587432e-08 	1.925285432e-05
0.7808810695 	0.009952332302 	0.004012694699 	2.614464895e-09 	0.01011687536 	-7.303915289e-08 	1.928557628e-05
0.7841436462 	0.009971658154 	0.004038170214 	4.146555704e-09 	0.01013348702 	-7.126713584e-08 	1.931724272e-05
0.787370218 	0.009990730377 	0.004063165403 	5.711295135e-09 	0.01014967996 	-6.940944641e-08 	1.934811097e-05
0.7905611821 	0.01000967751 	0.004087822829 	7.309199313e-09 	0.01016558971 	-6.746567189e-08 	1.937843936e-05
0.7937169314 	0.01002862858 	0.00411228253 	8.94063833e-09 	0.01018135236 	-6.543536803e-08 	1.940848737e-05
0.7968378547 	0.01004771314 	0.004136681796 	1.06058294e-08 	0.01019710473 	-6.331807128e-08 	1.943851575e-05
0.7999243362 	0.01006706138 	0.004161154951 	1.230480125e-08 	0.01021298433 	-6.111332112e-08 	1.946878669e-05
0.8029767561 	0.01008680418 	0.004185833148 	1.403735013e-08 	0.01022912951 	-5.882068063e-08 	1.949956388e-05
0.8059954902 	0.01010707316 	0.004210844162 	1.580300148e-08 	0.01024567946 	-5.64397515e-08 	1.95311127e-05
0.8089809102 	0.01012800074 	0.00423631218 	1.760096972e-08 	0.01026277431 	-5.397018563e-08 	1.956370023e-05
0.8119333839 	0.01014972017 	0.004262357571 	1.943010482e-08 	0.01028055512 	-5.141169764e-08 	1.959759539e-05
0.8148532749 	0.01017236559 	0.004289096643 	2.128882326e-08 	0.01029916394 	-4.876408047e-08 	1.963306896e-05
0.8177409426 	0.01019607202 	0.00431664135 	2.317502481e-08 	0.01031874381 	-4.60272223e-08 	1.967039365e-05
0.8205967427 	0.0102209754 	0.004345098952 	2.508599465e-08 	0.01033943882 	-4.320112311e-08 	1.970984409e-05
0.8234210268 	0.01024721256 	0.004374571596 	2.701828791e-08 	0.01036139407 	-4.028590993e-08 	1.97516969e-05
0.8262141429 	0.01027492117 	0.004405155791 	2.896758986e-08 	0.01038475569 	-3.728184971e-08 	1.979623065e-05
0.8289764348 	0.01030423976 	0.004436941755 	3.092853912e-08 	0.01040967084 	-3.418935884e-08 	1.984372584e-05
0.8317082427 	0.01033530761 	0.004470012585 	3.289449599e-08 	0.01043628767 	-3.100900864e-08 	1.989446491e-05
0.8344099031 	0.01036826467 	0.004504443219 	3.485723388e-08 	0.01046475532 	-2.774152588e-08 	1.994873216e-05
0.8370817486 	0.01040325145 	0.004540299108 	3.680652369e-08 	0.0104952239 	-2.438778555e-08 	2.000681376e-05
0.8397241082 	0.01044040895 	0.004577634556 	3.872956942e-08 	0.0105278445 	-2.094879226e-08 	2.006899768e-05
0.8423373074 	0.0104798784 	0.004616490599 	4.061023975e-08 	0.01056276915 	-1.742564535e-08 	2.013557377e-05
0.844921668 	0.01052180117 	0.004656892333 	4.242802594e-08 	0.01060015088 	-1.381948246e-08 	2.020683373e-05
0.8474775082 	0.0105663185 	0.004698845518 	4.415664085e-08 	0.01064014376 	-1.013139603e-08 	2.028307129e-05
0.8500051427 	0.01061357127 	0.004742332276 	4.576215479e-08 	0.01068290307 	-6.362319574e-09 	2.036458242e-05
0.8525048829 	0.01066369971 	0.004787305631 	4.720052875e-08 	0.01072858546 	-2.512861786e-09 	2.045166574e-05
0.8549770366 	0.01071684307 	0.004833682605 	4.841427527e-08 	0.01077734929 	1.416937321e-09 	2.054462317e-05
0.8574219081 	0.01077313925 	0.004881335531 	4.932759406e-08 	0.01082935519 	5.428223299e-09 	2.064376085e-05
0.8598397987 	0.01083272431 	0.004930081332 	4.983953039e-08 	0.01088476688 	9.52590636e-09 	2.074939093e-05
0.862231006 	0.01089573141 	0.004979669578 	4.981437258e-08 	0.01094375356 	1.371819206e-08 	2.086183594e-05
0.8645958245 	0.0109622909 	0.005029771808 	4.907626543e-08 	0.0110064902 	1.803016857e-08 	2.098142942e-05
0.8669345455 	0.01103252437 	0.005079988612 	4.74986194e-08 	0.01107317102 	2.255703156e-08 	2.110854159e-05
0.8692474569 	0.01110653982 	0.005129948101 	4.504989052e-08 	0.01114402564 	2.683284123e-08 	2.124361019e-05
0.8715348435 	0.01118464365 	0.005179417607 	4.208164296e-08 	0.01121890208 	3.134857785e-08 	2.138634549e-05
0.8737969871 	0.01126687401 	0.005228876807 	4.230810641e-08 	0.01129822203 	3.670321325e-08 	2.153755137e-05
0.8760341663 	0.01135321921 	0.005280797698 	3.701319378e-08 	0.01138270562 	4.058310664e-08 	2.169860058e-05
0.8782466565 	0.01144493278 	0.005329571623 	2.882772357e-08 	0.01147118933 	4.357012486e-08 	2.186727511e-05
0.8804347301 	0.01154283987 	0.005374077924 	2.894938345e-08 	0.01156364629 	4.849823863e-08 	2.204352379e-05
0.8825986568 	0.01164667248 	0.005421032317 	3.155517699e-08 	0.01166187288 	5.431611698e-08 	2.223077096e-05
0.8847387028 	0.01175683782 	0.005470851016 	3.431172784e-08 	0.01176620904 	6.004554e-08 	2.242966467e-05
0.8868551318 	0.01187390035 	0.005523739608 	3.720199685e-08 	0.01187677793 	6.622377007e-08 	2.264043971e-05
0.8889482045 	0.0119981809 	0.005579907901 	4.022078209e-08 	0.0119942555 	7.28479795e-08 	2.286438461e-05
0.8910181784 	0.0121301146 	0.005639573456 	4.336505715e-08 	0.0121191453 	7.978650147e-08 	2.310245928e-05
0.8930653087 	0.01227016185 	0.005702961277 	4.663100341e-08 	0.01225195204 	8.701303334e-08 	2.335562584e-05
0.8950898473 	0.01241879359 	0.005770302108 	5.001294893e-08 	0.01239319587 	9.453741664e-08 	2.362487585e-05
0.8970920436 	0.01257648089 	0.005841828372 	5.350165947e-08 	0.01254340388 	1.02332023e-07 	2.391121405e-05
0.8990721441 	0.0127436786 	0.005917767575 	5.70814824e-08 	0.0127030971 	1.103483698e-07 	2.421563371e-05
0.9010303927 	0.01292080724 	0.00599833346 	6.072859793e-08 	0.01287277144 	1.185221044e-07 	2.453908016e-05
0.9029670306 	0.01310823513 	0.006083715575 	6.441139116e-08 	0.0130528704 	1.267506108e-07 	2.488239883e-05
0.9048822962 	0.01330625581 	0.006174068032 	6.809155145e-08 	0.01324375932 	1.349350888e-07 	2.524628618e-05
0.9067764254 	0.01351506494 	0.006269498262 	7.172496619e-08 	0.01344570066 	1.430025728e-07 	2.56312425e-05
0.9086496514 	0.0137347401 	0.00637005667 	7.52625968e-08 	0.01365882985 	1.508756278e-07 	2.603752596e-05
0.910502205 	0.01396522341 	0.006475728025 	7.865194938e-08 	0.01388313583 	1.584510873e-07 	2.646511552e-05
0.9123343142 	0.01420630887 	0.006586425359 	8.183950456e-08 	0.01411844768 	1.656076738e-07 	2.69136853e-05
0.9141462048 	0.01445763643 	0.006701987253 	8.477386635e-08 	0.01436442886 	1.72226749e-07 	2.73825938e-05
0.9159380997 	0.01471869426 	0.006822179283 	8.740870267e-08 	0.01462058131 	1.782094599e-07 	2.787089155e-05
0.9177102197 	0.01498882923 	0.006946699445 	8.97045752e-08 	0.0148862581 	1.834810546e-07 	2.837734537e-05
0.9194627831 	0.015267263 	0.007075186069 	9.162954968e-08 	0.01516068133 	1.879741181e-07 	2.890047231e-05
0.9211960055 	0.01555311021 	0.007207226661 	9.315925189e-08 	0.01544296205 	1.916189704e-07 	2.943857782e-05
0.9229101006 	0.01584539816 	0.007342367191 	9.42773377e-08 	0.0157321204 	1.943623492e-07 	2.9989794e-05
0.9246052793 	0.01614308869 	0.007480122317 	9.497654045e-08 	0.01602710746 	1.961805295e-07 	3.055212132e-05
0.9262817504 	0.01644510267 	0.007619986958 	9.525928567e-08 	0.01632683062 	1.970774647e-07 	3.112347698e-05
0.9279397204 	0.01675034545 	0.007761448374 	9.51369115e-08 	0.01663017998 	1.970791766e-07 	3.170174516e-05
0.9295793934 	0.01705772978 	0.007903997031 	9.462771509e-08 	0.01693605208 	1.962272155e-07 	3.22848224e-05
0.9312009714 	0.01736619378 	0.008047135065 	9.375486261e-08 	0.01724336835 	1.945734915e-07 	3.287065263e-05