0.1259213289 	1.368515543e-06 	-1.021363082e-08 	-5.20029919e-12 	1.308396171e-06 	-3.307069074e-09 	2.494166752e-09
0.1262793061 	3.528313109e-05 	-5.374964137e-07 	-3.544588015e-09 	2.855150701e-05 	-7.94319249e-08 	5.442710784e-08
0.1266372716 	0.0002684459362 	5.848526851e-06 	-1.110593452e-07 	0.000163241624 	-4.423237931e-07 	3.111839059e-07
0.1269952209 	0.001026697616 	9.704695847e-05 	-7.191087684e-07 	0.000464731382 	-1.277953748e-06 	8.859071794e-07
0.1273531494 	0.002427041987 	0.0003566795737 	-1.811512908e-06 	0.0009174886375 	-2.562595377e-06 	1.748988346e-06
0.1277110527 	0.004148612045 	0.0006712321823 	-2.835106884e-06 	0.001494491665 	-3.873038593e-06 	2.848916486e-06
0.1280689261 	0.005856435109 	0.0009365241141 	-3.52230604e-06 	0.002111932805 	-4.814384435e-06 	4.025930907e-06
0.1284267651 	0.00739002662 	0.001159554141 	-3.81201742e-06 	0.002669853666 	-5.361018902e-06 	5.089483135e-06
0.1287845652 	0.008657524275 	0.001314181719 	-3.600064873e-06 	0.003139261628 	-5.65673717e-06 	5.984305175e-06
0.1291423219 	0.009663084494 	0.001375164208 	-2.608942373e-06 	0.003535311087 	-6.050427239e-06 	6.739285521e-06
0.1295000308 	0.01042721857 	0.001279077153 	5.355623344e-07 	0.003932471026 	-7.744556571e-06 	7.496382749e-06
0.1298576873 	0.01083243 	0.0008896349621 	4.515659502e-06 	0.004500278762 	-1.074433081e-05 	8.578782107e-06
0.1302152869 	0.01081483257 	0.0002374882366 	5.965102184e-06 	0.005345802173 	-1.285353097e-05 	1.019058473e-05
0.1305728251 	0.01054622491 	-0.0004245996801 	5.046111388e-06 	0.006371423569 	-1.294723418e-05 	1.214570417e-05
0.1309302976 	0.01022327908 	-0.0009188977059 	3.412383116e-06 	0.00739764646 	-1.155677134e-05 	1.410197022e-05
0.1312876999 	0.009929189549 	-0.001214527003 	1.914609873e-06 	0.008303757486 	-9.630275061e-06 	1.582926968e-05
0.1316450274 	0.009677955892 	-0.001343044838 	8.548578235e-07 	0.009036688042 	-7.760383374e-06 	1.722643902e-05
0.1320022759 	0.009435871899 	-0.001351726279 	2.294339238e-07 	0.009606567923 	-6.132981857e-06 	1.831278847e-05
0.1323594408 	0.009213954593 	-0.001288271466 	-3.370921957e-08 	0.01004081244 	-4.844151099e-06 	1.914057922e-05
0.1327165178 	0.009019154087 	-0.0011842968 	-7.353128724e-08 	0.01036173086 	-3.799389133e-06 	1.975233891e-05
0.1330735024 	0.008834772369 	-0.001069712628 	-3.296231853e-08 	0.01060841072 	-2.875125265e-06 	2.022257929e-05
0.1334303903 	0.008689488084 	-0.000960404829 	2.098144799e-08 	0.01079897227 	-2.037902295e-06 	2.058584257e-05
0.133787177 	0.008575614952 	-0.0008615371948 	5.737896391e-08 	0.01094416459 	-1.284469403e-06 	2.086261949e-05
0.1341438583 	0.008486141384 	-0.0007768835673 	5.468444061e-08 	0.01105118153 	-6.163635748e-07 	2.106662351e-05
0.1345004297 	0.008415735632 	-0.0007080150052 	4.189057472e-09 	0.01112592753 	-3.011449674e-08 	2.120911016e-05
0.1345200979 	0.008412694029 	-0.0007051097786 	1.271756646e-07 	0.01112853579 	7.296313339e-08 	2.121408223e-05
0.1348448873 	0.008361466864 	-0.0006570781463 	-8.401459116e-09 	0.01117165809 	-5.409835554e-07 	2.129628533e-05
0.1351885373 	0.008318674438 	-0.000620610598 	2.433496223e-08 	0.01119570508 	-1.049052808e-06 	2.134212558e-05
0.1355320768 	0.008284586588 	-0.0005963398871 	9.95585915e-08 	0.01120270458 	-1.497871368e-06 	2.135546857e-05
0.1358755018 	0.008256897966 	-0.0005818986956 	2.119017668e-07 	0.01119636507 	-1.895982171e-06 	2.134338369e-05
0.1362188085 	0.008234212942 	-0.0005752612481 	3.536532251e-07 	0.01118000837 	-2.252188696e-06 	2.131220328e-05
0.1365619928 	0.008213987039 	-0.0005758825375 	5.241908777e-07 	0.01115263132 	-2.561102572e-06 	2.126001501e-05
0.1370949704 	0.008193255009 	-0.0005827807721 	7.815781399e-07 	0.01111047958 	-3.035747378e-06 	2.117966208e-05
0.1376376367 	0.008172105363 	-0.0005945477802 	1.06200729e-06 	0.0110573575 	-3.467655408e-06 	2.107839664e-05
0.1381901456 	0.008152849858 	-0.0006091628549 	1.33735445e-06 	0.011000334 	-3.889595138e-06 	2.096969399e-05
0.1387526518 	0.008134766186 	-0.0006248180114 	1.599023082e-06 	0.01094222467 	-4.312205774e-06 	2.085892145e-05
0.1393253109 	0.00811697224 	-0.0006402283064 	1.844307516e-06 	0.01088447173 	-4.740401372e-06 	2.07488283e-05
0.1399082793 	0.008099072305 	-0.0006547331761 	2.074548814e-06 	0.01082799017 	-5.175565906e-06 	2.064115875e-05
0.1405017138 	0.008080920659 	-0.0006680410852 	2.292995918e-06 	0.01077330707 	-5.61665448e-06 	2.053691757e-05
0.1411057722 	0.008062478141 	-0.000680071499 	2.503448817e-06 	0.01072064858 	-6.061404103e-06 	2.043653584e-05
0.1417206121 	0.008043780938 	-0.0006908703394 	2.709429338e-06 	0.01067006536 	-6.507278009e-06 	2.034011016e-05
0.1423463917 	0.008024905688 	-0.0007005474137 	2.913773011e-06 	0.01062151199 	-6.951997064e-06 	2.024755394e-05
0.1429832692 	0.008005943463 	-0.0007092366213 	3.118536001e-06 	0.01057489445 	-7.393774251e-06 	2.015868797e-05
0.1436314025 	0.007986985147 	-0.0007170733245 	3.325077677e-06 	0.0105301 	-7.831349016e-06 	2.007329728e-05
0.1442909495 	0.007968113318 	-0.0007241823189 	3.534216499e-06 	0.01048701431 	-8.263908969e-06 	1.999116399e-05
0.1449620674 	0.007949398333 	-0.0007306724155 	3.746395001e-06 	0.01044553053 	-8.690970984e-06 	1.991208437e-05
0.1456449128 	0.007930897172 	-0.0007366350043 	3.961818853e-06 	0.01040555323 	-9.112266079e-06 	1.983587652e-05
0.1463396412 	0.007912653956 	-0.0007421448642 	3.920120895e-06 	0.01036699953 	-8.934104822e-06 	1.976238246e-05
0.1470464072 	0.007894701442 	-0.0007472621466 	3.665502228e-06 	0.01032979858 	-8.273336244e-06 	1.969146711e-05
0.1477653637 	0.007877062795 	-0.000752034796 	3.411589679e-06 	0.01029389003 	-7.622677584e-06 	1.962301544e-05
0.1484966621 	0.007859753446 	-0.0007565010114 	3.157827169e-06 	0.01025922221 	-6.982003826e-06 	1.955692894e-05
0.1492404515 	0.007842784554 	-0.0007606921435 	2.903760145e-06 	0.0102257515 	-6.351222976e-06 	1.949312446e-05
0.1499968789 	0.007826164821 	-0.0007646350219 	2.649023974e-06 	0.01019343994 	-5.730266234e-06 	1.943152965e-05
0.1507660886 	0.007809890178 	-0.0007683497248 	2.39333151e-06 	0.01016224355 	-5.119056759e-06 	1.937206065e-05
0.1515482218 	0.007793962822 	-0.0007718587707 	2.136467155e-06 	0.01013212115 	-4.517476145e-06 	1.931463899e-05
0.1523434163 	0.007778405879 	-0.0007751977167 	1.878316549e-06 	0.01010304134 	-3.925422419e-06 	1.92592048e-05
0.153154247 	0.007763109046 	-0.0007784183518 	1.617906977e-06 	0.01007477442 	-3.341227196e-06 	1.920532019e-05
0.1540028413 	0.007747940474 	-0.0007814411014 	1.348092374e-06 	0.01004721242 	-2.75011544e-06 	1.915277936e-05
0.1548660003 	0.00773295514 	-0.0007843223074 	1.076159646e-06 	0.0100204177 	-2.167999702e-06 	1.910170116e-05
0.1557439519 	0.007718357022 	-0.0007870588603 	8.020641404e-07 	0.009994650524 	-1.595014715e-06 	1.905258177e-05
0.1566369267 	0.00770413906 	-0.0007896440973 	5.255226411e-07 	0.009969922143 	-1.031205939e-06 	1.90054426e-05
0.1575451583 	0.007690257786 	-0.0007920595645 	2.462836941e-07 	0.009946209893 	-4.766267715e-07 	1.896024046e-05
0.1583510363 	0.007678427978 	-0.0007940015877 	-2.265439992e-08 	0.009926409024 	-3.799265481e-07 	1.89224945e-05
0.1584660267 	0.007676692357 	-0.0007944392835 	2.87348191e-08 	0.009923275132 	-7.134755598e-08 	1.891652043e-05
0.1593827974 	0.007663468836 	-0.0007976267673 	2.583501373e-07 	0.009899689464 	-6.293955543e-07 	1.887155959e-05
0.1603152827 	0.007650552886 	-0.0008005430869 	4.932519792e-07 	0.009877127359 	-1.178602179e-06 	1.882854995e-05
0.1612637283 	0.007637918517 	-0.0008031699918 	7.336115463e-07 	0.009855597983 	-1.71892061e-06 	1.878750898e-05
0.1622283831 	0.007625546586 	-0.0008054966619 	9.79458714e-07 	0.009835106791 	-2.250392882e-06 	1.874844707e-05
0.163209499 	0.007613428149 	-0.0008075233077 	1.230664402e-06 	0.009815652345 	-2.773163669e-06 	1.871136149e-05
0.1642073315 	0.007601567121 	-0.0008092638175 	1.486952337e-06 	0.00979722378 	-3.287470306e-06 	1.867623152e-05
0.165222139 	0.007589981449 	-0.0008107466841 	1.747949384e-06 	0.009779799438 	-3.793601356e-06 	1.864301588e-05
0.1662541832 	0.007578702231 	-0.0008120136025 	2.01327828e-06 	0.009763347264 	-4.291820428e-06 	1.861165347e-05
0.1673037291 	0.007567770465 	-0.0008131154026 	2.282688453e-06 	0.009747827331 	-4.782258859e-06 	1.858206816e-05
0.1683710452 	0.007557231481 	-0.0008141054121 	2.556209606e-06 	0.009733196628 	-5.264788599e-06 	1.855417797e-05
0.169456403 	0.007547127412 	-0.0008150308183 	2.834299569e-06 	0.009719415639 	-5.738894564e-06 	1.852790758e-05
0.1705600777 	0.007537488433 	-0.0008159231137 	3.117950334e-06 	0.00970645573 	-6.203581918e-06 	1.850320239e-05
0.1716823477 	0.007528325255 	-0.0008167896144 	2.966824582e-06 	0.009694306968 	-5.794335798e-06 	1.848004347e-05
0.1728234947 	0.007519625929 	-0.0008176084151 	2.701763725e-06 	0.009682986323 	-5.17129168e-06 	1.845846318e-05
0.1739838043 	0.007511348715 	-0.0008183253438 	2.433728211e-06 	0.009672536876 	-4.556069301e-06 	1.843854363e-05
0.1751635651 	0.007503408464 	-0.0008188518634 	2.161362119e-06 	0.009663011701 	-3.949930468e-06 	1.8420386e-05
0.1763630695 	0.007495738785 	-0.0008191137136 	1.882791018e-06 	0.009654472755 	-3.354718402e-06 	1.840410839e-05
0.1775826133 	0.007488319809 	-0.0008190849134 	1.596538389e-06 	0.009646997893 	-2.771949372e-06 	1.838985923e-05
0.1788397014 	0.007481021964 	-0.0008186550725 	1.297442144e-06 	0.009640676287 	-2.195098532e-06 	1.837780849e-05
0.1801389661 	0.007473764702 	-0.0008178024276 	9.841873891e-07 	0.009635444895 	-1.623337877e-06 	1.8367836e-05
0.1814596313 	0.007466732826 	-0.0008167012329 	6.623243772e-07 	0.009631210715 	-1.065997815e-06 	1.835976448e-05
0.1828020077 	0.007460106818 	-0.0008154441964 	3.32509432e-07 	0.009628031648 	-5.22787666e-07 	1.835370429e-05
0.1841485552 	0.007454009611 	-0.000814111839 	-1.91777233e-10 	0.009625880306 	-3.516061433e-08 	1.834960324e-05
0.18416605 	0.007453935546 	-0.0008140973012 	4.203436615e-09 	0.009625834617 	-6.758672906e-09 	1.834951614e-05
0.18552498 	0.007448921993 	-0.000813006244 	3.299020763e-07 	0.009623181371 	-5.215501672e-07 	1.834445832e-05
0.1869062846 	0.007444565971 	-0.0008119862052 	6.59933293e-07 	0.009621379935 	-1.026198415e-06 	1.834102428e-05
0.1883102904 	0.007440836051 	-0.0008110520395 	9.939641621e-07 	0.009620352647 	-1.520606502e-06 	1.833906598e-05
0.1897373279 	0.007437671482 	-0.0008102277271 	1.331996118e-06 	0.009619943395 	-2.005106476e-06 	1.833828584e-05
0.1911877315 	0.007435549252 	-0.0008099341075 	1.674148942e-06 	0.009619902266 	-2.477678705e-06 	1.833820743e-05
0.1926618398 	0.007434173154 	-0.0008102147601 	2.019259622e-06 	0.009620884458 	-2.936936142e-06 	1.834007976e-05
0.194917909 	0.007433227518 	-0.000808467764 	2.543530568e-06 	0.009626513911 	-3.611120033e-06 	1.835081107e-05
0.1971907412 	0.00743222588 	-0.0008070310164 	2.994477258e-06 	0.009632506852 	-4.145051933e-06 	1.836223528e-05
0.1994804504 	0.007432964159 	-0.0008062097623 	2.483540146e-06 	0.009639853064 	-3.347314301e-06 	1.83762392e-05
0.2017871531 	0.007435300963 	-0.0008056278428 	1.971620694e-06 	0.009649381944 	-2.586474567e-06 	1.839440389e-05
0.2041725415 	0.00743863337 	-0.0008048207696 	1.445338969e-06 	0.00966109422 	-1.843532147e-06 	1.841673074e-05
0.2065814515 	0.007442875563 	-0.00080394552 	9.172220266e-07 	0.009674619058 	-1.136610176e-06 	1.844251285e-05
0.2090075945 	0.007448135111 	-0.0008030574668 	3.883239918e-07 	0.00968993236 	-4.671222667e-07 	1.847170426e-05
0.2107981571 	0.007452713899 	-0.0008023373637 	-2.165546978e-08 	0.009702495708 	-9.427568643e-07 	1.849565349e-05
0.2114405296 	0.007454495165 	-0.0008021810588 	1.352964698e-07 	0.009706533237 	-1.690001209e-07 	1.850335014e-05
0.2138620629 	0.007462186389 	-0.0008014194392 	6.446881581e-07 	0.009723376029 	-7.79172306e-07 	1.853545718e-05
0.2163013646 	0.007470777877 	-0.0008004602452 	1.157924389e-06 	0.009741999072 	-1.354579504e-06 	1.857095788e-05
0.2187585689 	0.007480240009 	-0.000799313029 	1.674332293e-06 	0.009762355222 	-1.896478711e-06 	1.860976236e-05
0.2212338133 	0.00749054474 	-0.0007980028524 	2.193371799e-06 	0.009784362947 	-2.405975198e-06 	1.86517152e-05
0.2237272386 	0.007501766716 	-0.0007965711756 	2.71453751e-06 	0.009808113471 	-2.884029432e-06 	1.86969903e-05
0.2262844816 	0.007513912544 	-0.0007948161792 	2.43990955e-06 	0.009834008542 	-2.510073942e-06 	1.87463535e-05
0.2288841363 	0.007526838701 	-0.0007927688508 	1.926576496e-06 	0.009861802212 	-1.918692497e-06 	1.879933596e-05
0.2315022259 	0.007540565498 	-0.0007905735877 	1.411067192e-06 	0.009891213554 	-1.360176299e-06 	1.885540215e-05
0.2341388985 	0.0075550759 	-0.0007881919914 	8.936301318e-07 	0.00992227828 	-8.336264515e-07 	1.891462016e-05
0.2367943064 	0.007570299993 	-0.0007855821885 	3.745306537e-07 	0.009954973342 	-3.380542414e-07 	1.897694603e-05
0.2387190331 	0.00758177387 	-0.0007835336355 	-3.609687728e-09 	0.009979642653 	-8.174234012e-07 	1.902397259e-05
0.2394596258 	0.007586419836 	-0.0007828250329 	1.406903564e-07 	0.009988735968 	-1.347806471e-07 	1.904130698e-05
0.2421211125 	0.007603734025 	-0.0007800238375 	6.452357858e-07 	0.01002267826 	-5.976961672e-07 	1.910601043e-05
0.2448020967 	0.007621785475 	-0.0007769540479 	1.153525355e-06 	0.01005826661 	-1.033218203e-06 	1.917385171e-05
0.2475350655 	0.007640671362 	-0.0007734617482 	1.671296333e-06 	0.0100959291 	-1.447285866e-06 	1.924564688e-05
0.2503258165 	0.007660290955 	-0.0007694616611 	2.199011509e-06 	0.01013566454 	-1.840713363e-06 	1.932139368e-05
0.2531363547 	0.007680565243 	-0.0007651357452 	2.729025559e-06 	0.01017702282 	-2.20827337e-06 	1.940023405e-05
0.2559668634 	0.007701500731 	-0.0007604930602 	2.290133323e-06 	0.01021996042 	-1.791607473e-06 	1.948208506e-05
0.2588175317 	0.007723052301 	-0.0007554820947 	1.785021048e-06 	0.0102644964 	-1.350283921e-06 	1.9566983e-05
0.2616885543 	0.00774519194 	-0.0007500915822 	1.277394515e-06 	0.01031059254 	-9.344586435e-07 	1.965485506e-05
0.264580132 	0.007767920174 	-0.0007443317643 	7.674884754e-07 	0.01035821711 	-5.429707087e-07 	1.974564074e-05
0.2675004713 	0.007791419697 	-0.0007381697761 	2.540102988e-07 	0.01040771471 	-1.737869741e-07 	1.983999691e-05
0.2689517363 	0.007803183863 	-0.000734859408 	6.399778259e-08 	0.01043276922 	-1.196671595e-06 	1.988775776e-05
0.2704904539 	0.00781610559 	-0.0007314142728 	2.656504133e-07 	0.01045872097 	-1.952781698e-07 	1.993722902e-05
0.2734881808 	0.007841713668 	-0.0007242072091 	7.814179672e-07 	0.01051063156 	-5.565896045e-07 	2.003618504e-05
0.2765073236 	0.007867915427 	-0.0007165408815 	1.29984392e-06 	0.01056405944 	-8.974573648e-07 	2.013803342e-05
0.2795481128 	0.007894694589 	-0.000708322332 	1.820646718e-06 	0.01061911973 	-1.21920538e-06 	2.024299363e-05
0.2826107857 	0.007921977508 	-0.0006995264238 	2.343664733e-06 	0.01067571698 	-1.523117662e-06 	2.035088373e-05
0.2856955875 	0.007949879117 	-0.0006901858963 	2.647776595e-06 	0.01073395492 	-1.670917333e-06 	2.046190142e-05
0.2888351016 	0.007978571833 	-0.000680096472 	2.145658817e-06 	0.01079436596 	-1.315413549e-06 	2.057706166e-05
0.2920349116 	0.008007957384 	-0.0006691127022 	1.635364829e-06 	0.01085698125 	-9.745279392e-07 	2.069642381e-05
0.2952572244 	0.008037896831 	-0.0006574339786 	1.123434297e-06 	0.01092124584 	-6.513294832e-07 	2.081892998e-05
0.2985023113 	0.008068395002 	-0.0006450765638 	6.099273876e-07 	0.01098707392 	-3.444041341e-07 	2.094441659e-05
0.3017704529 	0.008099401043 	-0.0006319588492 	9.507174654e-08 	0.01105446589 	-5.235203618e-08 	2.107288442e-05
0.3023784211 	0.008105242576 	-0.0006294073742 	7.172516265e-08 	0.01106720829 	-3.635752896e-07 	2.109717497e-05
0.3050417129 	0.008131471279 	-0.0006182520314 	4.123221761e-07 	0.01112220031 	-2.492437712e-07 	2.120200505e-05
0.3083587734 	0.008164448975 	-0.000603625237 	9.238364986e-07 	0.01119178051 	-5.46742066e-07 	2.133464424e-05
0.3117421337 	0.008198175407 	-0.0005878277255 	1.443320589e-06 	0.01126363511 	-8.37345131e-07 	2.147161908e-05
0.3151496471 	0.008232466264 	-0.0005710708204 	1.963651481e-06 	0.01133716167 	-1.11853947e-06 	2.161178114e-05
0.3185816398 	0.008267332111 	-0.0005534074307 	2.484469856e-06 	0.01141221449 	-1.39182358e-06 	2.175485267e-05
0.3220384482 	0.008302713413 	-0.0005347263405 	2.510709917e-06 	0.01148878582 	-1.385800663e-06 	2.190081892e-05
0.3255204201 	0.008338792654 	-0.0005150369631 	2.017328985e-06 	0.01156707183 	-1.099110817e-06 	2.205005381e-05
0.3290810692 	0.008375781966 	-0.0004939225883 	1.515321585e-06 	0.01164776226 	-8.164117311e-07 	2.220387221e-05
0.3326809016 	0.008413429435 	-0.0004713928724 	1.011575109e-06 	0.01173040223 	-5.401847775e-07 	2.236140695e-05
0.3363064639 	0.008451683507 	-0.0004477020054 	5.082985355e-07 	0.01181449475 	-2.696373365e-07 	2.252171067e-05
0.3399581467 	0.008490535913 	-0.000422736754 	5.814356965e-09 	0.01190005382 	-3.071484802e-09 	2.268481003e-05
0.3400009082 	0.008490996073 	-0.0004224322078 	9.803307765e-09 	0.01190106779 	-1.801089863e-08 	2.268674294e-05
0.3436167554 	0.008530629158 	-0.000396654508 	4.864880766e-07 	0.01198596013 	-2.851609735e-07 	2.284857134e-05
0.3473421082 	0.008571686097 	-0.0003688900542 	9.830024317e-07 	0.01207404996 	-5.758588564e-07 	2.301649504e-05
0.3511193483 	0.008613557008 	-0.000339317821 	1.480591834e-06 	0.01216413452 	-8.689226865e-07 	2.318822124e-05
0.3549242038 	0.008656135416 	-0.0003082049217 	1.975182753e-06 	0.01225565432 	-1.164012918e-06 	2.336268342e-05
0.3587571281 	0.008699411975 	-0.0002754868414 	2.4662308e-06 	0.01234851334 	-1.462977606e-06 	2.353969851e-05
0.3626185895 	0.008743569545 	-0.0002410887668 	2.546788563e-06 	0.01244291498 	-1.524405565e-06 	2.371965428e-05
0.3665578315 	0.00878887288 	-0.000204505784 	2.070729509e-06 	0.01253946739 	-1.253677077e-06 	2.390371002e-05
0.3705385693 	0.008835111725 	-0.000165719473 	1.59691303e-06 	0.01263771871 	-9.805498271e-07 	2.409100434e-05
0.3745486816 	0.008882205476 	-0.0001250133011 	1.12737739e-06 	0.01273712229 	-7.038401891e-07 	2.428049519e-05
0.3785886962 	0.008930276602 	-8.229125547e-05 	6.627215564e-07 	0.01283774439 	-4.21761058e-07 	2.447230888e-05
0.3826754965 	0.00897956108 	-3.72487672e-05 	2.017226793e-07 	0.01293993633 	-1.31206997e-07 	2.466711511e-05
0.3845023008 	0.009001791993 	-1.628332935e-05 	7.204487864e-07 	0.01298564691 	-5.694349559e-07 	2.475425218e-05
0.386826837 	0.009030398791 	1.036753204e-05 	2.508124637e-07 	0.01304338113 	-1.82044591e-07 	2.486430965e-05
0.3910032662 	0.009082545602 	6.03405147e-05 	6.898069394e-07 	0.01314757794 	-5.127402214e-07 	2.506293773e-05
0.3952115833 	0.009135832189 	0.0001126469153 	1.11901348e-06 	0.0132526109 	-8.537966597e-07 	2.526315975e-05
0.3994543048 	0.009190556608 	0.0001674927099 	1.537409438e-06 	0.01335879022 	-1.206971823e-06 	2.546556705e-05
0.4037823229 	0.009247028897 	0.000225481705 	1.948710781e-06 	0.01346653493 	-1.577854947e-06 	2.567095841e-05
0.4081433549 	0.009305011974 	0.0002864470896 	2.3453135e-06 	0.01357516537 	-1.963296217e-06 	2.587803821e-05
0.4125380618 	0.00936446728 	0.0003500850967 	2.441160003e-06 	0.01368419008 	-2.117245706e-06 	2.608586961e-05
0.4169684189 	0.009425761657 	0.0004166594709 	2.030796088e-06 	0.01379393563 	-1.828996737e-06 	2.629507514e-05
0.4214827764 	0.009489242099 	0.0004868216935 	1.627752939e-06 	0.01390471693 	-1.525793761e-06 	2.650625509e-05
0.4260321037 	0.009554699761 	0.0005604260618 	1.238867351e-06 	0.0140158472 	-1.21145948e-06 	2.671810026e-05
0.4306171419 	0.009622148956 	0.0006371373353 	8.651340528e-07 	0.01412688866 	-8.844549651e-07 	2.692977615e-05
0.4352491377 	0.009692038673 	0.0007173985818 	5.068943032e-07 	0.01423815928 	-5.430682382e-07 	2.714188888e-05
0.4399539769 	0.009764625631 	0.0008017326602 	1.643155036e-07 	0.01434963301 	-1.849510208e-07 	2.735438879e-05
0.4423479416 	0.00980256659 	0.0008462672369 	1.543597515e-06 	0.0144057483 	-7.51165257e-07 	2.746136013e-05
0.4446905644 	0.009839930643 	0.0008897921861 	1.52891449e-07 	0.01446043837 	-1.879805091e-07 	2.75656146e-05
0.4494600003 	0.00991812583 	0.0009814040818 	4.436702726e-07 	0.01457039242 	-5.742121852e-07 	2.777521758e-05
0.4542945485 	0.009999591189 	0.001077324667 	7.12975433e-07 	0.01467992292 	-9.743317213e-07 	2.798401316e-05
0.4591850403 	0.01008439332 	0.001177767701 	9.575810579e-07 	0.01478855877 	-1.3863906e-06 	2.819110329e-05
0.4641157131 	0.01017249683 	0.001282354139 	1.174603231e-06 	0.01489573421 	-1.808103927e-06 	2.839540946e-05
0.4690937196 	0.01026435002 	0.001391325042 	1.362545218e-06 	0.01500143199 	-2.239231997e-06 	2.859689881e-05
0.4741454846 	0.01036039807 	0.001505236473 	1.52031476e-06 	0.01510547399 	-2.68023391e-06 	2.879523178e-05
0.4792393223 	0.0104605387 	0.001623825482 	1.644020983e-06 	0.01520713082 	-3.125990899e-06 	2.898901794e-05
0.484376213 	0.01056498942 	0.001746875269 	1.491040879e-06 	0.01530610489 	-3.077240535e-06 	2.917769003e-05
0.4895867639 	0.01067442391 	0.001874991541 	1.223173875e-06 	0.01540230601 	-2.761057962e-06 	2.93610761e-05
0.4948461995 	0.01078882427 	0.002008113631 	9.790713161e-07 	0.01549496591 	-2.439519508e-06 	2.953771163e-05
0.500150834 	0.01090825474 	0.002145806605 	7.600638351e-07 	0.01558364591 	-2.113650609e-06 	2.970676035e-05
0.5055231693 	0.01103336511 	0.002288464312 	5.669039578e-07 	0.01566816203 	-1.78354864e-06 	2.986787157e-05
0.5109512262 	0.01116421623 	0.002436065546 	4.01319325e-07 	0.01574776543 	-1.453746023e-06 	3.001961778e-05
0.5164268225 	0.01130080875 	0.002588088685 	2.636181038e-07 	0.01582197629 	-1.126924179e-06 	3.01610843e-05
0.5219689509 	0.01144372731 	0.002744712352 	1.538086942e-07 	0.01589050736 	-8.044217392e-07 	3.029172357e-05
0.5275693167 	0.0115930195 	0.00290579126 	7.2655617e-08 	0.01595263518 	-4.913154359e-07 	3.041015646e-05
0.5332197666 	0.01174858006 	0.003070664724 	1.985788314e-08 	0.01600794523 	-1.911600417e-07 	3.051559278e-05
0.5370443662 	0.01185715718 	0.003183475345 	1.933877827e-06 	0.01604018391 	-1.673608391e-06 	3.057704867e-05
0.5389372376 	0.01191099004 	0.003239292506 	6.437997828e-09 	0.0160561747 	-9.070754868e-08 	3.060753157e-05
0.5447098637 	0.0120803049 	0.003411335524 	9.133535174e-09 	0.01609668727 	-3.466094394e-07 	3.068475978e-05
0.5505356794 	0.01225612161 	0.003586046141 	-1.141271884e-08 	0.01612914775 	-5.804364144e-07 	3.074663848e-05
0.5564344686 	0.01243873325 	0.003763226538 	-5.337393842e-08 	0.01615329949 	-7.904526192e-07 	3.07926784e-05
0.5623900213 	0.0126277475 	0.003942256599 	-1.142940187e-07 	0.01616865088 	-9.725543985e-07 	3.082194243e-05
0.5684048535 	0.01282294139 	0.004122332397 	-1.913235992e-07 	0.0161751505 	-1.125271887e-06 	3.083433251e-05
0.5744913721 	0.01302368611 	0.004302430742 	-2.803426109e-07 	0.0161727405 	-1.247343148e-06 	3.082973837e-05
0.5805680299 	0.01322754783 	0.004480186912 	-3.753772053e-07 	0.01616140792 	-1.336035925e-06 	3.080813533e-05
0.5865762445 	0.01343367862 	0.004653889005 	-4.741748629e-07 	0.01614135767 	-1.389507722e-06 	3.076991398e-05
0.5925167773 	0.01364105249 	0.004822639345 	-5.713079223e-07 	0.01611312414 	-1.410182706e-06 	3.071609303e-05
0.5983839848 	0.01384733675 	0.004985119912 	-6.514613674e-07 	0.01607814174 	-1.414040753e-06 	3.064940685e-05
0.6041885817 	0.01404963297 	0.005137039333 	-6.26872276e-07 	0.01603773838 	-1.425354806e-06 	3.057238681e-05
0.609924862 	0.01424364739 	0.005273719218 	-3.929933466e-07 	0.01599317953 	-1.459076418e-06 	3.048744527e-05
0.6155918012 	0.01443096295 	0.005399211777 	-3.037299529e-08 	0.01594561674 	-1.514639854e-06 	3.039677737e-05
0.6211996839 	0.01461068291 	0.005513095495 	3.543732479e-07 	0.01589632071 	-1.596872816e-06 	3.030280543e-05
0.6267405924 	0.01477914923 	0.005610703723 	7.460712342e-07 	0.01584603483 	-1.696995767e-06 	3.020694656e-05
0.632216296 	0.01494130926 	0.005698405241 	1.112109751e-06 	0.01579435742 	-1.777617873e-06 	3.010843505e-05
0.6376339047 	0.01509977523 	0.005781201747 	1.40991767e-06 	0.01574134455 	-1.824588802e-06 	3.000737779e-05
0.6429876209 	0.01525197297 	0.005856778931 	1.528222077e-06 	0.01568756788 	-1.821081473e-06 	2.990486451e-05
0.6482792542 	0.01540053293 	0.005926738452 	1.499572082e-06 	0.01563234454 	-1.77857706e-06 	2.979959347e-05
0.6535142602 	0.01554797542 	0.005994112242 	1.454308443e-06 	0.01557498759 	-1.722362913e-06 	2.969025519e-05
0.6586883686 	0.01569262229 	0.006058445731 	1.39113366e-06 	0.01551617954 	-1.643837007e-06 	2.95781507e-05
0.6638027592 	0.01583469883 	0.006120126205 	1.328401992e-06 	0.01545608498 	-1.560441797e-06 	2.946359377e-05
0.6688625183 	0.01597487179 	0.006179406531 	1.274283983e-06 	0.01539450305 	-1.482844796e-06 	2.934620149e-05
0.6738640927 	0.01611283918 	0.006235982081 	1.226979835e-06 	0.01533148543 	-1.412932742e-06 	2.92260724e-05
0.6788084956 	0.0162482346 	0.006289751696 	1.184097615e-06 	0.01526743079 	-1.346028631e-06 	2.910396645e-05
0.6836992744 	0.01638124498 	0.006341026098 	1.146090215e-06 	0.01520237838 	-1.280156739e-06 	2.897995847e-05
0.6885349454 	0.01651176547 	0.006389797473 	1.11089911e-06 	0.01513623221 	-1.215159898e-06 	2.88538655e-05
0.6933158242 	0.01663959055 	0.006435942421 	1.074809534e-06 	0.01506921474 	-1.150486661e-06 	2.872611157e-05
0.6980440199 	0.01676491737 	0.006479700418 	1.03656757e-06 	0.01500139598 	-1.086314171e-06 	2.859683016e-05
0.7027200283 	0.01688773499 	0.006521166634 	9.963467641e-07 	0.01493266996 	-1.023007381e-06 	2.846581926e-05
0.7073434376 	0.0170078267 	0.006560281968 	9.547298512e-07 	0.01486318223 	-9.612226334e-07 	2.833335634e-05
0.711915207 	0.01712529696 	0.006597208654 	9.123215997e-07 	0.01479303019 	-9.019438014e-07 	2.819962706e-05
0.7164374468 	0.01724025389 	0.006632090726 	8.694401155e-07 	0.01472211153 	-8.455504888e-07 	2.806443637e-05
0.7209091221 	0.01735256007 	0.006664902513 	8.263404963e-07 	0.01465045197 	-7.918917003e-07 	2.792783333e-05
0.7253309727 	0.01746211757 	0.006695654101 	7.834258466e-07 	0.01457820868 	-7.408011097e-07 	2.779011755e-05
0.7297043654 	0.01756908948 	0.006724522977 	7.410617212e-07 	0.01450535877 	-6.922944045e-07 	2.765124537e-05
0.7340297528 	0.01767347608 	0.006751556584 	6.992288713e-07 	0.01443181413 	-6.460633176e-07 	2.751104884e-05
0.7383071582 	0.01777512251 	0.006776704883 	6.579800766e-07 	0.01435767391 	-6.018599425e-07 	2.736971697e-05
0.7425372445 	0.0178740592 	0.006800047464 	6.174682356e-07 	0.01428302249 	-5.596328298e-07 	2.722741063e-05
0.7467213447 	0.01797040819 	0.00682170635 	5.777809447e-07 	0.01420778014 	-5.193247025e-07 	2.70839778e-05
0.7508593764 	0.01806412307 	0.00684168682 	5.38835168e-07 	0.01413191146 	-4.807004702e-07 	2.693935101e-05
0.7549517763 	0.01815508185 	0.006859956581 	5.006769998e-07 	0.0140555239 	-4.436195346e-07 	2.679373509e-05
0.7589991451 	0.01824334508 	0.006876601401 	4.634146757e-07 	0.0139786564 	-4.080845726e-07 	2.664720426e-05
0.7630026057 	0.01832899918 	0.006891705874 	4.270674355e-07 	0.01390122943 	-3.740412081e-07 	2.649960694e-05
0.7669620699 	0.01841197972 	0.006905259274 	3.915830783e-07 	0.01382324128 	-3.413406004e-07 	2.635093985e-05
0.7708780631 	0.01849219412 	0.006917244621 	3.570171235e-07 	0.01374478722 	-3.099183404e-07 	2.620138461e-05
0.7747511348 	0.01856968234 	0.006927725055 	3.234561015e-07 	0.01366589744 	-2.797789226e-07 	2.605099877e-05
0.7785821642 	0.01864451647 	0.006936768623 	2.909185409e-07 	0.01358651017 	-2.50886954e-07 	2.589966456e-05
0.7823712521 	0.01871664028 	0.006944365169 	2.593604051e-07 	0.01350662957 	-2.231301943e-07 	2.574738993e-05
0.7861188721 	0.01878596896 	0.00695049729 	2.288220145e-07 	0.01342633878 	-1.964700947e-07 	2.559433337e-05
0.7898255312 	0.01885250776 	0.00695520125 	1.99356204e-07 	0.0133456832 	-1.709022548e-07 	2.544058141e-05
0.7934918964 	0.01891632527 	0.006958538169 	1.709871966e-07 	0.01326462212 	-1.464176972e-07 	2.528605647e-05
0.7971182852 	0.01897739639 	0.006960510512 	1.436612581e-07 	0.01318314442 	-1.229311648e-07 	2.513073733e-05
0.8007050767 	0.01903563303 	0.006961093411 	1.173957789e-07 	0.01310132473 	-1.004147909e-07 	2.497476627e-05
0.804252742 	0.01909101953 	0.006960306725 	9.221919353e-08 	0.0130192214 	-7.886709411e-08 	2.48182545e-05
0.807761783 	0.01914360152 	0.00695819512 	6.815406919e-08 	0.01293682409 	-5.829110703e-08 	2.466118232e-05
0.8112327012 	0.01919340121 	0.006954782793 	4.515617265e-08 	0.01285410569 	-3.863494731e-08 	2.450349807e-05
0.8146657788 	0.01924034835 	0.006950048674 	2.321005035e-08 	0.01277111993 	-1.986822737e-08 	2.434530414e-05
0.8180614562 	0.01928442121 	0.006944002506 	2.325864499e-09 	0.01268792098 	-1.992209652e-09 	2.418670382e-05
0.8184468325 	0.01928914725 	0.006943158335 	-1.773545934e-07 	0.01267835332 	-6.806912995e-07 	2.41684652e-05
0.821419617 	0.01932563635 	0.006936650927 	1.765898692e-08 	0.01260451057 	-1.403654866e-08 	2.402770039e-05
0.8247412418 	0.01936403307 	0.006928044896 	3.658700912e-08 	0.01252090289 	-2.918903964e-08 	2.386832091e-05
0.8280267635 	0.0193996103 	0.006918192782 	5.448747194e-08 	0.01243709623 	-4.363316133e-08 	2.370856212e-05
0.83127654 	0.01943231573 	0.006907081293 	7.136816408e-08 	0.01235315387 	-5.736286152e-08 	2.354854466e-05
0.8344909783 	0.01946216224 	0.006894730919 	8.723536482e-08 	0.01226911058 	-7.037210059e-08 	2.338833479e-05
0.8376704786 	0.01948916 	0.006881156226 	1.020989012e-07 	0.01218498869 	-8.265363441e-08 	2.322797509e-05
0.8408154687 	0.01951337511 	0.006866396045 	1.159859026e-07 	0.01210077565 	-9.422213056e-08 	2.306744163e-05
0.8439262864 	0.01953482224 	0.006850458899 	1.289454713e-07 	0.01201647174 	-1.051057319e-07 	2.290673493e-05
0.8470032886 	0.01955347964 	0.006833342154 	1.409922663e-07 	0.01193213188 	-1.152934635e-07 	2.274595972e-05
0.8500468538 	0.01956938434 	0.006815070396 	1.521463794e-07 	0.01184777947 	-1.247866928e-07 	2.258516058e-05