0.4709558481 	0.02647473661 	6.425761061e-08 	-3.508009887e-12
0.4711314108 	0.07279618282 	4.18056868e-07 	-2.678754838e-11
0.4713069734 	0.1455068414 	1.068865725e-06 	-8.105431151e-11
0.471482536 	0.2181132508 	1.167726922e-06 	-1.404991822e-10
0.4716580986 	0.2905449407 	1.957965211e-07 	-2.071878173e-10
0.4718336613 	0.3626333548 	-4.167322204e-07 	-3.66224371e-10
0.4720092239 	0.434070799 	2.58301229e-06 	-7.176410974e-10
0.4721847865 	0.5044144684 	1.113693164e-05 	-1.233913016e-09
0.4723603491 	0.5731560433 	2.39017492e-05 	-1.809354344e-09
0.4725359118 	0.6398303226 	5.592923617e-05 	-3.720248985e-09
0.4727114744 	0.7041069203 	7.194600396e-05 	-3.066352894e-09
0.472887037 	0.7658795063 	4.413871932e-05 	-7.040951902e-10
0.4730625996 	0.8252191215 	3.960335358e-05 	-3.079224385e-09
0.4732381623 	0.8821919319 	6.161179415e-05 	-4.916085314e-09
0.4734137249 	0.9368255484 	7.33959321e-05 	-4.550740937e-09
0.4735892875 	0.9891670067 	8.205818429e-05 	-5.140493918e-09
0.4737648501 	1.039288142 	9.161737677e-05 	-5.803464681e-09
0.4739404128 	1.087276499 	0.0001018843407 	-6.477301093e-09
0.4741159754 	1.133229173 	0.0001126090457 	-7.168881367e-09
0.474291538 	1.177248013 	0.0001237360034 	-7.886578566e-09
0.4744671006 	1.219435617 	0.0001352443054 	-8.628990606e-09
0.4746426632 	1.259892003 	0.000147109335 	-9.39469614e-09
0.4748182259 	1.298711819 	0.0001593075163 	-1.018264668e-08
0.4749937885 	1.33598233 	0.000171816537 	-1.09916468e-08
0.4751693511 	1.371783896 	0.0001846127362 	-1.18199766e-08
0.4753449137 	1.406200464 	0.0001976872226 	-1.266906173e-08
0.4755204764 	1.439328827 	0.0002110426561 	-1.353947666e-08
0.475696039 	1.471264381 	0.0002246549534 	-1.442732529e-08
0.4758716016 	1.502085202 	0.000238549773 	-1.533299273e-08
0.4760471642 	1.531856277 	0.0002530186283 	-1.626075724e-08
0.4762227269 	1.564554715 	0.0002698111078 	-1.733975814e-08
0.4764955107 	1.603725998 	0.0002902658089 	-1.871193614e-08
0.4767734216 	1.645290254 	0.0003134613586 	-2.027789199e-08
0.4770565557 	1.685613007 	0.0003382553723 	-2.192113089e-08
0.4773450114 	1.724770763 	0.0003641541115 	-2.363895931e-08
0.4776388886 	1.762837437 	0.0003910798851 	-2.543253488e-08
0.4779382892 	1.799884797 	0.0004190708826 	-2.730354724e-08
0.4782433171 	1.835982358 	0.0004481566683 	-2.925667759e-08
0.4785540779 	1.871196673 	0.0004783938229 	-3.129797453e-08
0.4788706795 	1.905590074 	0.0005098426647 	-3.34259969e-08
0.4791932316 	1.939219762 	0.0005425124544 	-3.564057464e-08
0.4795218461 	1.972138008 	0.0005764105991 	-3.79483762e-08
0.4798566368 	2.004392933 	0.0006115824991 	-4.035367853e-08
0.48019772 	2.03602904 	0.0006480759676 	-4.285892806e-08
0.4805452138 	2.067087515 	0.0006859309438 	-4.546776664e-08
0.4808992388 	2.097606453 	0.0007251893101 	-4.81839944e-08
0.4812599177 	2.127621065 	0.0007658949182 	-5.10114703e-08
0.4816273755 	2.157163868 	0.0008080931494 	-5.395409168e-08
0.4820017397 	2.186264853 	0.0008518306981 	-5.701575875e-08
0.48238314 	2.214951645 	0.0008971554201 	-6.02003182e-08
0.4827717088 	2.243249639 	0.0009441161399 	-6.3511496e-08
0.4831675807 	2.271182121 	0.0009927624145 	-6.695281833e-08
0.4835708931 	2.298770368 	0.001043144253 	-7.052751867e-08
0.4839817856 	2.326033729 	0.001095311784 	-7.423842967e-08
0.4844004009 	2.35298969 	0.001149314861 	-7.80878583e-08
0.4848268841 	2.379653917 	0.001205202603 	-8.207744335e-08
0.485261383 	2.406040282 	0.00126302285 	-8.620799396e-08
0.4857040484 	2.432160872 	0.001322821533 	-9.047930832e-08
0.4861550336 	2.458025982 	0.001384641955 	-9.488997257e-08
0.4866144951 	2.483644091 	0.001448523956 	-9.943714115e-08
0.4870825921 	2.509021825 	0.001514502984 	-1.041163037e-07
0.487559487 	2.53416391 	0.001582609043 	-1.089210497e-07
0.4880453452 	2.559073111 	0.001652865547 	-1.138428501e-07
0.4885403351 	2.583750173 	0.001725288069 	-1.188708889e-07
0.4890446283 	2.608193767 	0.001799883013 	-1.239919817e-07
0.4895583997 	2.632400437 	0.001876646224 	-1.291906165e-07
0.4900818274 	2.656364583 	0.001955561566 	-1.34449102e-07
0.4906150929 	2.680078477 	0.002036599496 	-1.397476816e-07
0.4911583811 	2.703532327 	0.002119715635 	-1.450643231e-07
0.4917118805 	2.726714397 	0.002204849626 	-1.503747281e-07
0.4922757829 	2.74961115 	0.002291925085 	-1.55651941e-07
0.4928502838 	2.772207309 	0.002380849262 	-1.608576733e-07
0.4934355824 	2.794485593 	0.002471481182 	-1.658308972e-07
0.4940318817 	2.816425572 	0.002563622891 	-1.705944184e-07
0.4946393885 	2.83800036 	0.002657168272 	-1.753596574e-07
0.4952583133 	2.859170523 	0.002752007647 	-1.797128258e-07
0.4958888709 	2.879879806 	0.002847670221 	-1.832723442e-07
0.4965312797 	2.900058138 	0.002943530175 	-1.862462033e-07
0.4971857627 	2.919628148 	0.003039096776 	-1.885630022e-07
0.4978525466 	2.93850863 	0.003133828074 	-1.900084611e-07
0.4985318627 	2.956614695 	0.003227081659 	-1.905384225e-07
0.4992239466 	2.973856827 	0.003318182236 	-1.901014215e-07
0.4999290382 	2.990140986 	0.003406315486 	-1.885968893e-07
0.5006473819 	3.005372846 	0.003490453937 	-1.859602482e-07
0.501379227 	3.019469473 	0.003570099235 	-1.857396806e-07
0.502124827 	3.032376488 	0.003652713114 	-1.842032284e-07
0.5028844406 	3.044104152 	0.003720193644 	-1.666613383e-07
0.5036583311 	3.054788563 	0.003768457462 	-1.582764447e-07
0.5044467669 	3.064619775 	0.003832089116 	-1.729340039e-07
0.5052500214 	3.073699564 	0.003897578259 	-1.718156051e-07
0.506068373 	3.083080992 	0.003956326431 	-1.611993608e-07
0.507324668 	3.093315372 	0.004022560229 	-1.574480229e-07
0.5085949819 	3.102945951 	0.004086928725 	-1.516324257e-07
0.5098794711 	3.111111373 	0.004142635304 	-1.458755801e-07
0.5111782938 	3.117969317 	0.004189794041 	-1.408354113e-07
0.5124916099 	3.123664133 	0.004229574547 	-1.347603974e-07
0.5138195812 	3.1283381 	0.004261182851 	-1.282902711e-07
0.5151623712 	3.132148502 	0.004285970335 	-1.236628201e-07
0.5165201452 	3.135254262 	0.004306083789 	-1.199162746e-07
0.5178930705 	3.137790469 	0.004321934162 	-1.162572176e-07
0.5192813161 	3.139862911 	0.004333942507 	-1.131114071e-07
0.520685053 	3.14155399 	0.004342838589 	-1.104263226e-07
0.522104454 	3.142928208 	0.004349095961 	-1.080690139e-07
0.523539694 	3.144036399 	0.004353082348 	-1.059829963e-07
0.5249909497 	3.14491894 	0.004355095136 	-1.041244903e-07
0.5264583998 	3.145608156 	0.004355377139 	-1.024568473e-07
0.527942225 	3.146130122 	0.004354127302 	-1.009496496e-07
0.5294426081 	3.146506029 	0.004351509586 	-9.957804395e-08
0.5309597337 	3.146753214 	0.004347660063 	-9.832155297e-08
0.5324937889 	3.146885957 	0.004342690899 	-9.716340593e-08
0.5340449624 	3.146916105 	0.004336699937 	-9.609031783e-08
0.5356134452 	3.146853536 	0.004329766004 	-9.50913869e-08
0.5371994306 	3.146706474 	0.004321955097 	-9.4156442e-08
0.5388031139 	3.146481832 	0.004313326204 	-9.327718363e-08
0.5404246925 	3.14618547 	0.004303926357 	-9.244713699e-08
0.5420643661 	3.14582235 	0.004293797228 	-9.166032626e-08
0.5437223366 	3.145396685 	0.00428297383 	-9.091162049e-08
0.5453988083 	3.144912062 	0.004271485854 	-9.019642128e-08
0.5470939875 	3.144371535 	0.004259358372 	-8.95105254e-08
0.5488080831 	3.14377771 	0.004246612512 	-8.885030185e-08
0.5505413061 	3.143132805 	0.004233265762 	-8.82120014e-08
0.5522938699 	3.14243871 	0.004219332552 	-8.759235788e-08
0.5540659904 	3.141697027 	0.004204824602 	-8.698862478e-08
0.5558578859 	3.140909111 	0.004189750962 	-8.639782558e-08
0.5576697768 	3.140076098 	0.004174118422 	-8.581728344e-08
0.5595018865 	3.139198934 	0.004157931659 	-8.524435562e-08
0.5613544406 	3.138278395 	0.004141193361 	-8.467641909e-08
0.563227667 	3.137315107 	0.00412390435 	-8.411085748e-08
0.5651217966 	3.136309562 	0.00410606368 	-8.354504485e-08
0.5670370626 	3.135262128 	0.004087668706 	-8.297632872e-08
0.5689737009 	3.134173066 	0.004068715139 	-8.24020146e-08
0.5709319499 	3.133042533 	0.004049197084 	-8.181935198e-08
0.5729120508 	3.131870595 	0.004029107071 	-8.122552187e-08
0.5749142474 	3.130657233 	0.004008436062 	-8.061762595e-08
0.5769387863 	3.129402347 	0.003987173461 	-7.999267743e-08
0.5789859169 	3.128105763 	0.003965307109 	-7.934759393e-08
0.5810558911 	3.126767238 	0.003942823271 	-7.867919252e-08
0.583148964 	3.125386462 	0.003919706622 	-7.798418768e-08
0.5852653933 	3.123963063 	0.003895940223 	-7.72591928e-08
0.5874054395 	3.122496608 	0.003871505496 	-7.650072619e-08
0.5895693664 	3.120986609 	0.0038463822 	-7.570522324e-08
0.5917574402 	3.119432521 	0.003820548398 	-7.486905673e-08
0.5939699306 	3.117833751 	0.003793980437 	-7.398856837e-08
0.5962071099 	3.116189654 	0.00376665292 	-7.306011562e-08
0.5984692536 	3.114499539 	0.003738538691 	-7.208013997e-08
0.6007566404 	3.112762671 	0.003709608829 	-7.104526465e-08
0.6030695519 	3.110978277 	0.003679832654 	-6.995243284e-08
0.6054082729 	3.109145542 	0.003649177749 	-6.879910024e-08
0.6077730914 	3.107263625 	0.003617610004 	-6.75834972e-08
0.6101642987 	3.105331652 	0.003585093691 	-6.630497339e-08
0.6125821893 	3.103348733 	0.003551591566 	-6.496441296e-08
0.6150270608 	3.101313963 	0.003517064992 	-6.356462043e-08
0.6174992144 	3.099226436 	0.003481474107 	-6.211073314e-08
0.6199989545 	3.097085256 	0.003444777762 	-6.060945067e-08
0.622526589 	3.094889551 	0.0034069309 	-5.906404575e-08
0.625082429 	3.092638495 	0.00336788981 	-5.749354455e-08
0.6276667894 	3.090331297 	0.003327589207 	-5.582589056e-08
0.6302799884 	3.087966997 	0.003285839593 	-5.373700896e-08
0.6329223478 	3.085544521 	0.00324357374 	-5.376746387e-08
0.6355941931 	3.08306249 	0.003199704147 	-4.844775617e-08
0.6382958531 	3.08051455 	0.003152189251 	-3.83539316e-08
0.6410276607 	3.077890853 	0.003103443748 	-3.633348149e-08
0.6437899523 	3.075189219 	0.003053849537 	-3.331002534e-08
0.646583068 	3.072418431 	0.003001672799 	-2.745880274e-08
0.6494073518 	3.06959176 	0.002947685556 	-2.540670693e-08
0.6522631514 	3.066721265 	0.002892672995 	-2.425854323e-08
0.6551508186 	3.063815848 	0.00283695422 	-2.36017625e-08
0.658070709 	3.060880744 	0.002780727761 	-2.315342385e-08
0.6610231822 	3.057918027 	0.002724083578 	-2.272128599e-08
0.6640086017 	3.054927593 	0.002667034065 	-2.218858976e-08
0.6670273351 	3.051908141 	0.002609551801 	-2.151341111e-08
0.6700797543 	3.048857928 	0.002551598926 	-2.070143905e-08
0.6731662352 	3.045775291 	0.002493142314 	-1.978448321e-08
0.6762871577 	3.04265896 	0.002434156802 	-1.880564871e-08
0.6794429063 	3.039508238 	0.002374620967 	-1.780863434e-08
0.6826338695 	3.036323037 	0.002314510889 	-1.68284575e-08
0.6858604404 	3.033103739 	0.002253797181 	-1.588359296e-08
0.6891230163 	3.029850847 	0.002192448813 	-1.497252571e-08
0.6924219988 	3.026564438 	0.002130444024 	-1.407735066e-08
0.6957577944 	3.023243535 	0.00206778473 	-1.317180773e-08
0.6991308138 	3.019885645 	0.002004508063 	-1.222613583e-08
0.7025414724 	3.01648676 	0.001940688097 	-1.120576502e-08
0.7059901901 	3.013042096 	0.001876422091 	-1.007676961e-08
0.7094773917 	3.009547656 	0.001811797233 	-8.840705715e-09
0.7130035066 	3.006002417 	0.001746835847 	-7.602838466e-09
0.7165689691 	3.00241042 	0.001681426273 	-6.597013126e-09
0.7201742182 	2.998781569 	0.001615285049 	-6.080878384e-09
0.7238196978 	2.995129786 	0.001548149304 	-5.425256975e-09
0.727505857 	2.991467634 	0.001479643658 	-6.177048123e-09
0.7312331497 	2.987797386 	0.001408754716 	-6.81133217e-09
0.7350020349 	2.984115023 	0.001336528509 	-4.437649808e-09
0.7387709215 	2.980433143 	0.001265218122 	-3.265750316e-09
0.7424982157 	2.976773505 	0.001194373698 	-3.205704392e-09
0.7461843763 	2.973143072 	0.001123858366 	-2.224685672e-09
0.7498298574 	2.969540216 	0.001054326173 	-1.471164141e-09
0.7534351078 	2.96596377 	0.0009856035151 	-7.188684546e-10
0.7570005716 	2.96241286 	0.0009176549808 	6.365583397e-11
0.7605266877 	2.958886698 	0.0008504608154 	8.64823223e-10
0.7640138905 	2.95538455 	0.000784004407 	1.672633638e-09
0.7674626093 	2.95190571 	0.0007182742878 	2.476362503e-09
0.770873269 	2.948449487 	0.0006532603803 	3.27214437e-09
0.7742462894 	2.945015197 	0.0005889533036 	4.060593561e-09
0.777582086 	2.941602161 	0.0005253442194 	4.84367038e-09
0.7808810695 	2.9382097 	0.0004624248747 	5.622880169e-09
0.7841436462 	2.934837138 	0.0004001876689 	6.39879919e-09
0.787370218 	2.931483797 	0.0003386256485 	7.171333907e-09
0.7905611821 	2.928148999 	0.0002777324406 	7.940132964e-09
0.7937169314 	2.924832063 	0.0002175021604 	8.704870987e-09
0.7968378547 	2.921532302 	0.0001579293222 	9.465361304e-09
0.7999243362 	2.918249027 	9.900876703e-05 	1.022155965e-08
0.8029767561 	2.914981542 	4.073560576e-05 	1.097352165e-08
0.8059954902 	2.911729146 	-1.689481003e-05 	1.172135702e-08
0.8089809102 	2.908491134 	-7.38869023e-05 	1.246520876e-08
0.8119333839 	2.905266793 	-0.0001302448982 	1.320524014e-08
0.8148532749 	2.902055404 	-0.0001859728452 	1.394162442e-08
0.8177409426 	2.898856241 	-0.0002410746029 	1.467455009e-08
0.8205967427 	2.895668571 	-0.0002955538467 	1.540422549e-08
0.8234210268 	2.892491654 	-0.0003494140713 	1.613088017e-08
0.8262141429 	2.889324738 	-0.0004026585854 	1.685476738e-08
0.8289764348 	2.886167066 	-0.0004552905051 	1.757616544e-08
0.8317082427 	2.883017868 	-0.0005073127442 	1.829537847e-08
0.8344099031 	2.879876363 	-0.0005587280032 	1.901273672e-08
0.8370817486 	2.876741759 	-0.0006095387559 	1.972859683e-08
0.8397241082 	2.87361325 	-0.0006597472344 	2.044334208e-08
0.8423373074 	2.870490014 	-0.0007093554134 	2.11573827e-08
0.844921668 	2.867371215 	-0.0007583649924 	2.187115621e-08
0.8474775082 	2.864255997 	-0.000806777378 	2.258512771e-08
0.8500051427 	2.861143486 	-0.0008545936648 	2.329979021e-08
0.8525048829 	2.858032787 	-0.0009018146155 	2.401566475e-08
0.8549770366 	2.854922982 	-0.0009484406408 	2.473330045e-08
0.8574219081 	2.851813126 	-0.0009944717784 	2.545327448e-08
0.8598397987 	2.848702248 	-0.001039907672 	2.617619189e-08
0.862231006 	2.845589347 	-0.001084747549 	2.690268532e-08
0.8645958245 	2.842473391 	-0.001128990198 	2.763341472e-08
0.8669345455 	2.83935331 	-0.001172633947 	2.836906692e-08
0.8692474569 	2.836227997 	-0.00121567664 	2.911035518e-08
0.8715348435 	2.833096305 	-0.001258115612 	2.985801873e-08
0.8737969871 	2.829957042 	-0.001299947665 	3.061282222e-08
0.8760341663 	2.826808966 	-0.001341169046 	3.137555516e-08
0.8782466565 	2.823650784 	-0.001381775416 	3.214703134e-08
0.8804347301 	2.820481146 	-0.001421761831 	3.292808823e-08
0.8825986568 	2.817298642 	-0.001461122706 	3.371958627e-08
0.8847387028 	2.814101795 	-0.001499851798 	3.452240826e-08
0.8868551318 	2.810889057 	-0.001537942165 	3.533745855e-08
0.8889482045 	2.807658802 	-0.001575386146 	3.616566222e-08
0.8910181784 	2.804409323 	-0.001612175326 	3.700796421e-08
0.8930653087 	2.801138822 	-0.001648300502 	3.78653283e-08
0.8950898473 	2.797845403 	-0.001683751651 	3.873873589e-08
0.8970920436 	2.794527066 	-0.001718517896 	3.962918469e-08
0.8990721441 	2.791181699 	-0.001752587466 	4.053768709e-08
0.9010303927 	2.787807064 	-0.001785947661 	4.146526828e-08
0.9029670306 	2.784400794 	-0.00181858481 	4.2412964e-08
0.9048822962 	2.780960375 	-0.001850484227 	4.338181773e-08
0.9067764254 	2.777483141 	-0.001881630173 	4.437287743e-08
0.9086496514 	2.773966255 	-0.001912005806 	4.538719145e-08
0.910502205 	2.770406701 	-0.001941593138 	4.642580355e-08
0.9123343142 	2.766801263 	-0.001970372983 	4.748974687e-08
0.9141462048 	2.763146512 	-0.001998324912 	4.858003645e-08
0.9159380997 	2.759438788 	-0.002025427199 	4.969766019e-08
0.9177102197 	2.75567418 	-0.002051656776 	5.084356779e-08
0.9194627831 	2.751848504 	-0.002076989183 	5.201865724e-08
0.9211960055 	2.747957281 	-0.002101398518 	5.322375834e-08
0.9229101006 	2.743995713 	-0.002124857399 	5.445961203e-08
0.9246052793 	2.739958654 	-0.002147336923 	5.57268439e-08
0.9262817504 	2.735840584 	-0.002168806638 	5.702592857e-08
0.9279397204 	2.731635577 	-0.002189234523 	5.835713912e-08
0.9295793934 	2.727337269 	-0.002208586992 	5.972047208e-08
0.9312009714 	2.722938822 	-0.002226828913 	6.111553306e-08
0.9328046541 	2.718432894 	-0.002243923668 	6.25413625e-08
0.9343906389 	2.713811598 	-0.00225983326 	6.399618247e-08
0.9359591211 	2.709066473 	-0.002274518496 	6.547705803e-08
0.937510294 	2.704188448 	-0.002287939292 	6.697942725e-08
0.9390443485 	2.699167822 	-0.002300055189 	6.849688251e-08
0.9405614735 	2.693994247 	-0.002310826367 	7.002052508e-08
0.942061856 	2.688656736 	-0.002320218204 	7.153212285e-08
0.9435456805 	2.683143677 	-0.002328206084 	7.303276102e-08
0.9450131299 	2.677442843 	-0.002334789943 	7.446145951e-08
0.946464385 	2.671541083 	-0.002340151092 	7.544715215e-08
0.9478996243 	2.665423444 	-0.002343740578 	7.953128898e-08
0.9493190246 	2.65907159 	-0.002344154017 	8.102635804e-08
0.9507227608 	2.65245424 	-0.002344329505 	7.867736428e-08
0.9521110058 	2.645506168 	-0.002344771977 	8.407009351e-08
0.9534839303 	2.638128657 	-0.002339744824 	8.96411281e-08
0.9548417036 	2.630218318 	-0.002329857474 	9.181407155e-08
0.9561844929 	2.621679173 	-0.002316834231 	9.612428626e-08
0.9575124634 	2.61241728 	-0.00229890041 	1.006901491e-07
0.9588257788 	2.602339851 	-0.002275608939 	1.053669235e-07
0.9601246008 	2.591356034 	-0.002246639897 	1.10095904e-07
0.9614090893 	2.579377312 	-0.002211715475 	1.147918809e-07
0.9626794024 	2.566318273 	-0.002170540781 	1.193266739e-07
0.9639356968 	2.553351034 	-0.002127467526 	1.232176822e-07
0.9647540487 	2.542086663 	-0.002088912855 	1.261216285e-07
0.9655573034 	2.531632765 	-0.002052353874 	1.284442601e-07
0.9663457395 	2.520737259 	-0.002013633219 	1.305002294e-07
0.9671196303 	2.509398664 	-0.001972980344 	1.322685455e-07
0.9678792442 	2.497617678 	-0.001930565437 	1.337330365e-07
0.9686248445 	2.485396716 	-0.001886554182 	1.348810623e-07
0.9693566897 	2.472739584 	-0.001841119915 	1.357044233e-07
0.9700750337 	2.459651238 	-0.001794439702 	1.361981686e-07
0.9707801255 	2.446137595 	-0.001746692216 	1.36360022e-07
0.9714722095 	2.432205397 	-0.001698056172 	1.361913317e-07
0.9721515258 	2.417862077 	-0.001648708638 	1.356970213e-07
0.9728183099 	2.403115641 	-0.001598823571 	1.348844578e-07
0.9734727929 	2.387974557 	-0.001548570584 	1.337633397e-07
0.9741152019 	2.37244765 	-0.001498113857 	1.323461212e-07
0.9747457596 	2.356543993 	-0.001447611093 	1.306477064e-07
0.9753646845 	2.340272797 	-0.001397212551 	1.286850698e-07
0.9759721914 	2.323643292 	-0.001347060202 	1.264768799e-07
0.9765684907 	2.306664613 	-0.001297287021 	1.24043137e-07
0.9771537895 	2.289345674 	-0.001248016422 	1.214048133e-07
0.9777282904 	2.271695055 	-0.001199361837 	1.185834902e-07
0.9782921928 	2.253720881 	-0.001151426451 	1.15601001e-07
0.9788456922 	2.235430712 	-0.001104303083 	1.124790936e-07
0.9793889805 	2.216831438 	-0.0010580742 	1.092391288e-07
0.979922246 	2.197929178 	-0.001012812063 	1.059018244e-07
0.9804456737 	2.178729191 	-0.0009685789887 	1.024870504e-07
0.9809594451 	2.159235797 	-0.0009254276989 	9.901367473e-08
0.9814637383 	2.139452303 	-0.00088340176 	9.549945439e-08
0.9819587281 	2.119380937 	-0.0008425360787 	9.196096668e-08
0.9824445862 	2.099022793 	-0.0008028574458 	8.841357201e-08
0.9829214811 	2.07837778 	-0.0007643851131 	8.487140181e-08
0.9833895781 	2.057444575 	-0.0007271313886 	8.134736558e-08
0.9838490396 	2.03622058 	-0.0006911022396 	7.785317203e-08
0.9843000247 	2.014701886 	-0.0006562978943 	7.439936101e-08
0.98474269 	1.992883227 	-0.0006227134336 	7.099534362e-08
0.9851771888 	1.970757946 	-0.0005903393679 	6.764944867e-08
0.9856036719 	1.94831795 	-0.0005591621915 	6.43689743e-08
0.9860222871 	1.925553668 	-0.000529164913 	6.116024377e-08
0.9864331796 	1.902453998 	-0.0005003275582 	5.802866446e-08
0.9868364919 	1.879006259 	-0.0004726276421 	5.497878934e-08
0.9872323637 	1.855196126 	-0.0004460406116 	5.201437994e-08
0.9876209323 	1.831007566 	-0.0004205402558 	4.913847004e-08
0.9880023326 	1.806422768 	-0.0003960990811 	4.63534291e-08
0.9883766967 	1.781422062 	-0.000372688645 	4.36610245e-08
0.9887441544 	1.755983839 	-0.0003502799439 	4.106248465e-08
0.9891048331 	1.730084457 	-0.0003288439677 	3.855856399e-08
0.9894588579 	1.70369815 	-0.0003083517736 	3.614959069e-08
0.9898063516 	1.676796909 	-0.000288765783 	3.38352688e-08
0.9901474347 	1.649350309 	-0.0002700515046 	3.161521557e-08
0.9904822253 	1.621325115 	-0.0002522057645 	2.948946775e-08
0.9908108397 	1.592684718 	-0.0002352156351 	2.745696765e-08
0.9911333916 	1.563389106 	-0.0002190270803 	2.551589094e-08
0.9914499931 	1.533395699 	-0.000203597341 	2.366506666e-08
0.9917607538 	1.502660327 	-0.0001889081724 	2.190292301e-08
0.9920657815 	1.471137707 	-0.0001749396342 	2.02274178e-08
0.9923651819 	1.438781514 	-0.000161668709 	1.863666531e-08
0.992659059 	1.405544226 	-0.0001490668709 	1.712869373e-08
0.9929475145 	1.371376941 	-0.0001370960054 	1.570136877e-08
0.9932306485 	1.336229214 	-0.0001258197353 	1.435319552e-08
0.9935085592 	1.300048657 	-0.0001156435832 	1.308480893e-08
0.9937813429 	1.266005193 	-0.000106734921 	1.198775609e-08
0.9939569055 	1.237629384 	-9.917737822e-05 	1.113590748e-08
0.9941324681 	1.211818789 	-9.274858353e-05 	1.04110196e-08
0.9943080307 	1.185110395 	-8.677327501e-05 	9.709954167e-09
0.9944835934 	1.157449672 	-8.098762952e-05 	9.030931409e-09
0.994659156 	1.12879114 	-7.535590596e-05 	8.374214015e-09
0.9948347186 	1.09908804 	-6.98956651e-05 	7.740393137e-09
0.9950102812 	1.068289477 	-6.461583421e-05 	7.129876138e-09
0.9951858439 	1.036340637 	-5.952142444e-05 	6.542948096e-09
0.9953614065 	1.003183761 	-5.461845667e-05 	5.979838115e-09
0.9955369691 	0.9687593778 	-4.991387562e-05 	5.440774508e-09
0.9957125317 	0.9330076957 	-4.541136041e-05 	4.926107e-09
0.9958880943 	0.8958702412 	-4.111037946e-05 	4.436142343e-09
0.996063657 	0.857291837 	-3.710335459e-05 	3.967743899e-09
0.9962392196 	0.8172229647 	-3.361772728e-05 	3.518094574e-09
0.9964147822 	0.775622314 	-3.035777936e-05 	3.107982731e-09
0.9965903448 	0.7324611417 	-1.82182555e-05 	3.04044965e-09
0.9967659075 	0.687726875 	-1.339338475e-05 	2.256280275e-09
0.9969414701 	0.6413908793 	-3.183966907e-05 	1.27808844e-09
0.9971170327 	0.5933911596 	-3.573643014e-05 	1.867402425e-09
0.9972925953 	0.5437177983 	-1.98374321e-05 	1.925158354e-09
0.997468158 	0.4924817622 	-9.989074302e-06 	1.178156747e-09
0.9976437206 	0.4398960051 	-4.59488482e-06 	9.091872633e-10
0.9978192832 	0.3862410476 	-6.463132255e-07 	6.710022622e-10
0.9979948458 	0.3318213216 	9.278746048e-07 	4.682662235e-10
0.9981704085 	0.2769128585 	6.41894439e-07 	3.151337582e-10
0.9983459711 	0.2217250877 	-1.417829965e-07 	2.041306443e-10
0.9985215337 	0.1663900643 	-5.154264581e-07 	1.194430573e-10
0.9986970963 	0.1109757097 	-4.049293883e-07 	5.542626893e-11
0.998872659 	0.05550940966 	-1.46361189e-07 	1.541747589e-11
0.9990482216 	0.02337779046 	-2.420927733e-08 	1.824046065e-12
0.9990482216 	0.02337779046 	-2.420927733e-08 	1.824046065e-12
