9.086985048e-34 	1.576930832 	-6.442279128e-14 	6.10075734e-20
0.0003200309159 	1.576950569 	-2.552637027e-05 	2.999760416e-10
0.0006400614409 	1.576996138 	-4.756178724e-05 	5.476730147e-10
0.0009600915746 	1.577053802 	-7.001927585e-05 	7.826409234e-10
0.001280121317 	1.577124072 	-9.300563064e-05 	1.010293179e-09
0.001600150666 	1.577207935 	-0.0001160283813 	1.223962758e-09
0.001920179623 	1.577306024 	-0.0001390746762 	1.423484144e-09
0.002240208187 	1.577418754 	-0.0001621312144 	1.608659649e-09
0.002560236358 	1.577546423 	-0.0001851912117 	1.779405792e-09
0.002880264135 	1.577689259 	-0.0002082491851 	1.935624245e-09
0.003200291518 	1.577847447 	-0.0002313015819 	2.077218666e-09
0.003520318506 	1.578021149 	-0.0002543457972 	2.20408303e-09
0.003840345101 	1.57821051 	-0.0002773797449 	2.316095534e-09
0.0041603713 	1.578415665 	-0.0003004016554 	2.413115724e-09
0.004480397105 	1.578636746 	-0.0003234099696 	2.494985132e-09
0.004800422516 	1.578873883 	-0.000346403273 	2.561523822e-09
0.005120447531 	1.579127207 	-0.00036938026 	2.612528407e-09
0.005440472151 	1.579396852 	-0.0003923397099 	2.647775542e-09
0.005760496377 	1.579682958 	-0.0004152804689 	2.667021135e-09
0.006080520207 	1.579985667 	-0.000438201442 	2.669998696e-09
0.006400543643 	1.580305134 	-0.000461101589 	2.656420177e-09
0.006720566684 	1.580641516 	-0.0004839799157 	2.625976178e-09
0.007040589331 	1.580994986 	-0.0005068354433 	2.578335567e-09
0.007360611583 	1.581365722 	-0.0005296672201 	2.513144154e-09
0.007680633441 	1.581753917 	-0.0005524748266 	2.430025881e-09
0.008000654905 	1.582159777 	-0.0005752597014 	2.328601185e-09
0.008320675975 	1.582583527 	-0.0005980233339 	2.208496867e-09
0.008640696652 	1.58302543 	-0.0006207245882 	2.069267067e-09
0.008960716935 	1.583485744 	-0.0006432219003 	1.910211996e-09
0.009280736826 	1.583964565 	-0.000665787357 	1.731103731e-09
0.009600756325 	1.584530301 	-0.0006920545012 	1.540204942e-09
0.01009799211 	1.58524658 	-0.0007246133393 	1.18011906e-09
0.01060457247 	1.586041657 	-0.0007601120109 	7.662165322e-10
0.01112067299 	1.58684915 	-0.0007962244784 	2.859381257e-10
0.01140056368 	1.587285979 	-0.000815885629 	1.411435022e-08
0.01164647258 	1.587669766 	-0.0008331594413 	2.398677533e-10
0.01218215349 	1.58850437 	-0.0008707536842 	8.084249883e-10
0.0127279014 	1.58935379 	-0.0009089831357 	1.454955592e-09
0.01328390549 	1.590218754 	-0.0009478629425 	2.186272801e-09
0.01385035847 	1.591099927 	-0.0009874072039 	3.009619323e-09
0.0144274567 	1.59199793 	-0.001027628588 	3.932680098e-09
0.01501540022 	1.592913342 	-0.001068539609 	4.963618017e-09
0.0156143928 	1.593846706 	-0.001110153093 	6.111103653e-09
0.01622464209 	1.594798534 	-0.001152482219 	7.384308756e-09
0.01684635961 	1.595769309 	-0.001195540515 	8.792888902e-09
0.01747976086 	1.596759488 	-0.001239341863 	1.034706096e-08
0.01812506539 	1.597769509 	-0.001283900416 	1.205766944e-08
0.01878249687 	1.598799789 	-0.001329229132 	1.393613151e-08
0.01945228319 	1.599850729 	-0.001375344183 	1.599444336e-08
0.02013465651 	1.600923465 	-0.001422299506 	1.824672016e-08
0.02083178422 	1.602019608 	-0.001470165232 	2.071362496e-08
0.02154340914 	1.603139213 	-0.001518943427 	2.341208459e-08
0.02226840742 	1.604281309 	-0.001568598101 	2.635417142e-08
0.02300703036 	1.60544571 	-0.001619125916 	2.955632205e-08
0.02375953399 	1.606632767 	-0.001670544053 	3.303701946e-08
0.02452617913 	1.607842829 	-0.001722870397 	3.681588831e-08
0.0253072315 	1.609076239 	-0.001776123453 	4.091377268e-08
0.02610296183 	1.610333338 	-0.001830322484 	4.535276906e-08
0.02691364592 	1.611614469 	-0.001885487273 	5.015628211e-08
0.02773956477 	1.612919974 	-0.001941638119 	5.534908546e-08
0.02858100463 	1.6142502 	-0.001998795858 	6.095738432e-08
0.02943825716 	1.615605499 	-0.002056981868 	6.700887544e-08
0.03031161947 	1.616986228 	-0.002116218072 	7.353281088e-08
0.03120139428 	1.618392756 	-0.002176526944 	8.056006714e-08
0.03210788998 	1.619825458 	-0.002237931507 	8.812321322e-08
0.03303142075 	1.621284724 	-0.002300455334 	9.625658105e-08
0.03397230668 	1.622770958 	-0.002364122548 	1.04996339e-07
0.03493087388 	1.624284581 	-0.002428957822 	1.143805676e-07
0.03590745458 	1.62582603 	-0.002494986381 	1.244493379e-07
0.03690238724 	1.627395765 	-0.002562233983 	1.352447968e-07
0.0379160167 	1.628994267 	-0.0026307261 	1.468112703e-07
0.03894869426 	1.630622043 	-0.002700488865 	1.591952954e-07
0.04000077783 	1.632280114 	-0.002771575057 	1.724491126e-07
0.04107387931 	1.633970885 	-0.002844092848 	1.866449704e-07
0.04217063918 	1.635695771 	-0.00291810379 	2.018582386e-07
0.04328800965 	1.63745351 	-0.00299356043 	2.181167422e-07
0.044426378 	1.639243438 	-0.003070437014 	2.354692919e-07
0.0455861388 	1.641066276 	-0.003148762347 	2.539777071e-07
0.04676769399 	1.64292279 	-0.003228566724 	2.737066628e-07
0.04797145311 	1.644813789 	-0.003309879901 	2.897202854e-07
0.04919783336 	1.646740132 	-0.003392732381 	2.92384988e-07
0.05044725979 	1.648702727 	-0.003477154928 	2.945107017e-07
0.05172016545 	1.650702536 	-0.003563178496 	2.9604388e-07
0.0530169915 	1.652740576 	-0.003650834186 	2.969278993e-07
0.0543381874 	1.654817924 	-0.003740153231 	2.971029589e-07
0.05568421106 	1.656935717 	-0.003831167167 	2.965059432e-07
0.05705552898 	1.659095157 	-0.003923907773 	2.950703842e-07
0.05845261643 	1.661297516 	-0.004018405607 	2.927266005e-07
0.05987595761 	1.663544503 	-0.004114690445 	2.894068659e-07
0.06132696399 	1.665839841 	-0.004212826699 	2.850388975e-07
0.06281019925 	1.668186506 	-0.004313061798 	2.794419618e-07
0.06432130776 	1.670891278 	-0.004428740181 	2.739714817e-07
0.0666410827 	1.674261695 	-0.004572903748 	2.59866671e-07
0.06898673389 	1.67796798 	-0.004731359623 	2.441552605e-07
0.07135854997 	1.681710424 	-0.00489150511 	2.252699832e-07
0.0737568228 	1.685494269 	-0.005053408964 	2.030369244e-07
0.07618184749 	1.68932469 	-0.005216911326 	1.773039578e-07
0.07863392243 	1.693206692 	-0.005381955756 	1.479147466e-07
0.08111334936 	1.697148356 	-0.005548638175 	1.147204348e-07
0.0836286727 	1.701158232 	-0.005717063433 	7.735234143e-08
0.08617295058 	1.705237944 	-0.005887057574 	3.585519693e-08
0.08820882703 	1.708522502 	-0.006022657291 	4.834946393e-08
0.08874561102 	1.709388438 	-0.006058425901 	1.015517801e-08
0.09134697064 	1.713613571 	-0.006231110677 	6.159782421e-08
0.0939773496 	1.717918217 	-0.006405030489 	1.176387403e-07
0.09663707163 	1.722306796 	-0.006580118813 	1.784002168e-07
0.09932646406 	1.726784338 	-0.006756336357 	2.439980356e-07
0.1020474201 	1.731359033 	-0.006933754663 	3.146031579e-07
0.1048062404 	1.736038045 	-0.007112390864 	3.905064825e-07
0.1075958387 	1.740821851 	-0.007292011386 	4.71525031e-07
0.1104165586 	1.745711748 	-0.007472409847 	5.5772091e-07
0.113268747 	1.750712064 	-0.007653488457 	6.49159913e-07
0.1161527553 	1.755827113 	-0.007835147521 	7.459011271e-07
0.1190689383 	1.761061552 	-0.008017297044 	8.479991297e-07
0.1220184539 	1.766423706 	-0.008199958272 	9.555602042e-07
0.1250089864 	1.77192167 	-0.008383124078 	1.068900377e-06
0.1280328844 	1.777555597 	-0.008566525821 	1.187687048e-06
0.1310905201 	1.783326224 	-0.00874991182 	1.31190383e-06
0.1341822699 	1.789237802 	-0.008933138251 	1.441553021e-06
0.1373085144 	1.795294563 	-0.009116064295 	1.413103175e-06
0.1404696386 	1.801503005 	-0.009298604104 	1.357346719e-06
0.1436708133 	1.807871894 	-0.009480717458 	1.296067152e-06
0.1469115851 	1.814405175 	-0.009662218349 	1.22933048e-06
0.1501885166 	1.821102702 	-0.009842805654 	1.157289751e-06
0.1535020113 	1.827966684 	-0.01002223952 	1.079918315e-06
0.1568524772 	1.835001119 	-0.01020033024 	9.972117275e-07
0.1602403266 	1.842212032 	-0.01037692925 	9.091805794e-07
0.1636700028 	1.849608069 	-0.01055192948 	8.156411735e-07
0.1671422645 	1.857193529 	-0.0107251102 	7.166854878e-07
0.1706532711 	1.864967655 	-0.01089613234 	6.125810354e-07
0.1742034549 	1.872931885 	-0.01106470268 	5.033687344e-07
0.1777932531 	1.881089778 	-0.01123057649 	3.891125023e-07
0.1814231076 	1.889448425 	-0.011393564 	2.699023576e-07
0.1850999798 	1.898016472 	-0.01155347962 	1.455539545e-07
0.188819334 	1.906794199 	-0.01170997522 	1.661774276e-08
0.1892955931 	1.907932055 	-0.01172930608 	4.622287182e-07
0.1925801925 	1.915779872 	-0.01186272808 	1.191211644e-07
0.1963830182 	1.924976153 	-0.01201137387 	2.594856938e-07
0.2002282796 	1.934388277 	-0.01215562063 	4.038497643e-07
0.2041202567 	1.944024043 	-0.01229518775 	5.520896966e-07
0.2080594045 	1.953886339 	-0.01242969023 	7.037545034e-07
0.2120425111 	1.963972906 	-0.01255864988 	8.583396638e-07
0.2160700672 	1.974283879 	-0.01268161351 	1.015532715e-06
0.2201425686 	1.984823615 	-0.01279816846 	1.174935941e-06
0.2242640801 	1.995599115 	-0.01290790714 	1.336245771e-06
0.2284351157 	2.006612491 	-0.01301035355 	1.498815488e-06
0.2326526998 	2.017860668 	-0.01310495364 	1.662062844e-06
0.2369173517 	2.029342848 	-0.01319113034 	1.825888305e-06
0.2412295967 	2.041063136 	-0.01326820154 	1.990157159e-06
0.2455951021 	2.053025613 	-0.01333462429 	2.152385371e-06
0.2500108086 	2.065221092 	-0.0133914164 	2.32525833e-06
0.2544757956 	2.077625885 	-0.0134407554 	2.501823793e-06
0.2589906129 	2.090209955 	-0.01347860162 	2.554882059e-06
0.263557627 	2.102952258 	-0.01350354649 	2.412801901e-06
0.2681799304 	2.11584341 	-0.01351918724 	2.277152241e-06
0.2728538215 	2.128875196 	-0.01352515048 	2.133257383e-06
0.2775798758 	2.14204242 	-0.01351982367 	1.987242645e-06
0.2823588813 	2.155345695 	-0.01350267851 	1.839468558e-06
0.2871966566 	2.1687859 	-0.01347316044 	1.690244831e-06
0.2920884254 	2.182354357 	-0.01343067273 	1.540475721e-06
0.2970347901 	2.196043271 	-0.01337460467 	1.390668219e-06
0.3020363598 	2.209851014 	-0.01330430332 	1.24132417e-06
0.307098782 	2.223776646 	-0.01321907703 	1.092905314e-06
0.3122178274 	2.23781004 	-0.01311826095 	9.463778724e-07
0.3173940061 	2.251941636 	-0.01300119039 	8.023437447e-07
0.3226284087 	2.266166997 	-0.01286713939 	6.614124289e-07
0.3279254551 	2.280481224 	-0.01271533523 	5.243148939e-07
0.3332816223 	2.294871512 	-0.01254510692 	3.920805833e-07
0.3386975697 	2.30932641 	-0.01235582265 	2.65454287e-07
0.3441755749 	2.323837668 	-0.01214670908 	1.451517672e-07
0.3497173251 	2.338393571 	-0.01191728661 	3.221399645e-08
0.3514027616 	2.342788341 	-0.01184195254 	5.829168719e-06
0.3553209274 	2.353006321 	-0.01166680348 	7.406183761e-08
0.3609870718 	2.367788011 	-0.01139324216 	1.718298436e-07
0.3667195497 	2.38291097 	-0.01109395678 	2.599757983e-07
0.3725166888 	2.398440102 	-0.01076871411 	3.385834353e-07
0.3783785302 	2.414287583 	-0.01042050082 	4.083380282e-07
0.3843071225 	2.430277651 	-0.01005335915 	4.699086111e-07
0.3903039129 	2.446198062 	-0.009671572462 	5.233798987e-07
0.396367634 	2.461840156 	-0.009278805754 	5.685852662e-07
0.4024993303 	2.477030631 	-0.008877411023 	6.052725022e-07
0.4087021267 	2.491646639 	-0.008467968829 	6.325600179e-07
0.4149741531 	2.505631384 	-0.008050159905 	6.473469186e-07
0.4213161813 	2.519042542 	-0.007621386855 	6.451998497e-07
0.4277313904 	2.531991809 	-0.00717558925 	6.247764217e-07
0.4342183981 	2.544483607 	-0.006704655832 	5.897571945e-07
0.4407778066 	2.556385888 	-0.006233362412 	5.524208814e-07
0.4474123577 	2.567402579 	-0.005774721667 	5.204719571e-07
0.4541212809 	2.577151915 	-0.005297040785 	4.881388472e-07
0.4609050812 	2.585441773 	-0.004820825495 	4.641679124e-07
0.4677663327 	2.592287685 	-0.004376950879 	4.582328732e-07
0.4747043718 	2.597762766 	-0.00396221998 	4.664489725e-07
0.4817198836 	2.601953261 	-0.003579371871 	4.876469423e-07
0.4888153226 	2.60495258 	-0.003229937051 	5.198407599e-07
0.4959899515 	2.60686041 	-0.00291512377 	5.599562923e-07
0.5031649243 	2.607788359 	-0.002635848395 	6.04123143e-07
0.5102617754 	2.607874377 	-0.002390865206 	6.481399777e-07
0.5172803182 	2.607260081 	-0.002176116049 	6.89211418e-07
0.5242218659 	2.60606864 	-0.001986875245 	7.253880511e-07
0.5310874576 	2.604405325 	-0.001818841816 	7.279135449e-07
0.5378772912 	2.602358717 	-0.001668131223 	7.184652231e-07
0.5445926252 	2.600001394 	-0.001531335113 	7.039169651e-07
0.5512342888 	2.597392207 	-0.001405574774 	6.854975311e-07
0.557802664 	2.594578729 	-0.001288535995 	6.643002474e-07
0.5642988774 	2.591598567 	-0.001178356132 	6.412319486e-07
0.5707237498 	2.588480772 	-0.001073591208 	6.172509729e-07
0.577077725 	2.585247309 	-0.0009731577338 	5.930196942e-07
0.5833617689 	2.581914306 	-0.000876253025 	5.690148997e-07
0.5895767917 	2.578493453 	-0.0007822884404 	5.456119395e-07
0.5957232321 	2.574993193 	-0.0006908320804 	5.230125054e-07
0.6018018976 	2.57141939 	-0.0006015628618 	5.013074245e-07
0.6078138169 	2.567776026 	-0.0005142380666 	4.805649619e-07
0.6137593944 	2.564065866 	-0.000428671242 	4.607917698e-07
0.6196393617 	2.560290629 	-0.0003447124315 	4.419403606e-07
0.625454667 	2.556451221 	-0.0002622386683 	4.239660434e-07
0.6312058611 	2.552548094 	-0.0001811482137 	4.068357316e-07
0.6368935895 	2.548581296 	-0.0001013529034 	3.904751066e-07
0.6425186168 	2.544550503 	-2.277730025e-05 	3.748115078e-07
0.6480817161 	2.540455184 	5.464242847e-05 	3.598035705e-07
0.653583425 	2.536294737 	0.0001309592382 	3.453891609e-07
0.6590244207 	2.532068469 	0.0002062152566 	3.314978423e-07
0.6644054777 	2.527775689 	0.0002804392333 	3.180704896e-07
0.6697271999 	2.52341592 	0.0003536436041 	3.050660345e-07
0.6749901949 	2.518989036 	0.0004258223651 	2.924236788e-07
0.6801951104 	2.514495433 	0.0004969411242 	2.800838706e-07
0.6853426864 	2.50993632 	0.0005669347021 	2.680217508e-07
0.6904334652 	2.505314103 	0.0006357073437 	2.562267899e-07
0.6954680649 	2.500632279 	0.0007028758218 	2.441668715e-07
0.7004471053 	2.495895254 	0.0007694077331 	2.33589627e-07
0.705371273 	2.491106964 	0.0008342043191 	2.207086016e-07
0.7102411011 	2.486262088 	0.0008958524268 	2.055445623e-07
0.715057188 	2.481340147 	0.000957499374 	1.962408618e-07
0.7198201268 	2.476318904 	0.001019479176 	1.882031374e-07
0.724530548 	2.471184514 	0.001080657377 	1.790338392e-07
0.7291889935 	2.465927471 	0.001141874579 	1.715695241e-07
0.7337960302 	2.460539765 	0.001203344168 	1.643793814e-07
0.7383522256 	2.455013811 	0.00126520465 	1.57479786e-07
0.7428581594 	2.449341694 	0.001327586969 	1.508450082e-07
0.747314382 	2.443514787 	0.001390615651 	1.444391025e-07
0.7517214274 	2.437523604 	0.001454407735 	1.382199733e-07
0.7560798383 	2.431357794 	0.001519076809 	1.321747199e-07
0.7603901521 	2.425006266 	0.001584736365 	1.263310758e-07
0.7646529193 	2.41845747 	0.001651500467 	1.207542373e-07
0.7688686441 	2.411699784 	0.001719480878 	1.155174667e-07
0.7730378455 	2.404721923 	0.001788779113 	1.106663802e-07
0.7771610371 	2.397513265 	0.001859476697 	1.061971516e-07
0.78123873 	2.390063948 	0.001931629518 	1.020560652e-07
0.7852714323 	2.382364684 	0.00200527214 	9.816119149e-08
0.789259631 	2.374406412 	0.002080427045 	9.441945719e-08
0.7932038172 	2.366179944 	0.002157111007 	9.075145574e-08
0.7971044765 	2.357675739 	0.002235339706 	8.711761019e-08
0.8009620913 	2.348883824 	0.002315131407 	8.353232722e-08
0.8047771403 	2.339793798 	0.002396510358 	8.005904285e-08
0.8085500876 	2.330394923 	0.002479507857 	7.678190111e-08
0.8122813978 	2.320676278 	0.002564159926 	7.377371773e-08
0.8159715303 	2.310626961 	0.002650502874 	7.106930406e-08
0.8196209396 	2.300236348 	0.002738566735 	6.865420335e-08
0.8232300789 	2.289494369 	0.002828368602 	6.647442806e-08
0.8267993892 	2.278391776 	0.002919908089 	6.445954101e-08
0.8303293095 	2.266920363 	0.003013165149 	6.254843691e-08
0.8338202746 	2.255073129 	0.003108100791 	6.070877905e-08
0.8372727143 	2.242844376 	0.003204659941 	5.893889088e-08
0.8406870545 	2.230229743 	0.003302773875 	5.725450697e-08
0.8440637165 	2.217226196 	0.003402361835 	5.566866877e-08
0.8474031146 	2.203831985 	0.003503330422 	5.417195875e-08
0.8507056601 	2.190046592 	0.003605570315 	5.272437276e-08
0.8539717594 	2.175870691 	0.003708951519 	5.125793394e-08
0.857201815 	2.161306135 	0.003813317133 	4.968501783e-08
0.8603962247 	2.146355944 	0.003918476047 	4.790661947e-08
0.8635553826 	2.131024227 	0.004024196279 	4.581705033e-08
0.8666796769 	2.115315958 	0.004130199479 	4.330263596e-08
0.8697694922 	2.099236503 	0.004236157545 	4.02428494e-08
0.8728252091 	2.082790963 	0.004341698481 	3.6523867e-08
0.8758472039 	2.065983642 	0.004446423499 	3.205145565e-08
0.8788358488 	2.048818083 	0.004549916318 	2.673938702e-08
0.881791512 	2.031297806 	0.004651731966 	2.04951799e-08
0.8847145574 	2.013427391 	0.004751384234 	1.322774916e-08
0.8876053449 	1.995213437 	0.004848343671 	4.85599544e-09
0.8904642303 	1.976665226 	0.004942037171 	-4.691419026e-09
0.8932915657 	1.957795153 	0.005031846366 	-1.547405776e-08
0.8960876994 	1.938618985 	0.005117108271 	-2.753441536e-08
0.8988529757 	1.919156041 	0.005197118987 	-4.089362626e-08
0.9015877351 	1.8994293 	0.00527113978 	-5.55475513e-08
0.9042923145 	1.879465463 	0.005338405798 	-7.146070714e-08
0.9069670469 	1.859294981 	0.005398137186 	-8.85563555e-08
0.9096122615 	1.838952041 	0.005449552515 	-1.067101428e-07
0.9122282842 	1.81847453 	0.005491883551 	-1.257576619e-07
0.9148154371 	1.797903955 	0.00552438888 	-1.455197199e-07
0.9173740388 	1.777285287 	0.005546364455 	-1.65830093e-07
0.9199044044 	1.756666614 	0.005557152902 	-1.865287551e-07
0.9224068456 	1.736098331 	0.005556147328 	-2.073453443e-07
0.9248816704 	1.715631559 	0.005542832056 	-2.280421056e-07
0.9273291837 	1.695315601 	0.005516727773 	-2.482869203e-07
0.9297496868 	1.675193404 	0.005477315403 	-2.677141643e-07
0.9321434779 	1.65695112 	0.005429531373 	-2.846464299e-07
0.9337027968 	1.642349461 	0.005382723281 	-2.976261543e-07
0.935233349 	1.629641878 	0.005335493074 	-3.084228458e-07
0.9367356652 	1.617178433 	0.00528307259 	-3.185157176e-07
0.9382102662 	1.604957505 	0.005225796013 	-3.279265671e-07
0.9396576634 	1.592978244 	0.005163905003 	-3.366889949e-07
0.9410783587 	1.581240423 	0.005097613465 	-3.448459635e-07
0.9424728445 	1.569744187 	0.005027124781 	-3.52432669e-07
0.9438416045 	1.558489569 	0.004952635047 	-3.594492704e-07
0.9451851132 	1.547475689 	0.004874345115 	-3.658364702e-07
0.9465038366 	1.536699677 	0.004792479511 	-3.714700986e-07
0.9477982317 	1.526155502 	0.004707306138 	-3.761865445e-07
0.9490687475 	1.515833061 	0.004619149616 	-3.79834737e-07
0.9503158245 	1.505717958 	0.004528390976 	-3.82331592e-07
0.9515398951 	1.495792383 	0.004435448576 	-3.836912904e-07
0.9527413837 	1.486037349 	0.004340739507 	-3.840165821e-07
0.9539207068 	1.476436288 	0.004244625191 	-3.834733142e-07
0.9550782736 	1.466979664 	0.004147348545 	-3.82299338e-07
0.9562144852 	1.457669794 	0.004048974171 	-3.808769328e-07
0.9573297356 	1.448524481 	0.00394934749 	-3.798148184e-07
0.9584244117 	1.439577605 	0.003848089273 	-3.799895501e-07
0.9594988928 	1.430874705 	0.003744632544 	-3.822323823e-07
0.9605535516 	1.422462541 	0.003638397645 	-3.863005409e-07
0.9615887538 	1.414373811 	0.003529453221 	-3.849966724e-07
0.9626048583 	1.406610795 	0.003419181692 	-3.985415064e-07
0.9636022174 	1.399128435 	0.003303017383 	-4.113933276e-07
0.964581177 	1.391826085 	0.003183489394 	-3.894237384e-07
0.9655420764 	1.384592192 	0.003070759825 	-3.771388293e-07
0.966485249 	1.377363948 	0.002959296965 	-3.782908726e-07
0.9674110216 	1.370117352 	0.002845993779 	-3.688097227e-07
0.9683197153 	1.362836029 	0.002734978605 	-3.590094642e-07
0.9692116452 	1.355505873 	0.002625812107 	-3.500696019e-07
0.9700871205 	1.348114004 	0.002518388214 	-3.412017249e-07
0.9709464448 	1.340647449 	0.002412748961 	-3.322939366e-07
0.9717899161 	1.333092914 	0.002308933079 	-3.232931265e-07
0.9726178268 	1.325436716 	0.002206987307 	-3.141884793e-07
0.9734304639 	1.317664728 	0.00210695616 	-3.049932145e-07
0.9742281093 	1.309762318 	0.002008880664 	-2.957287971e-07
0.9750110395 	1.301714285 	0.00191279891 	-2.864208762e-07
0.975779526 	1.293504784 	0.001818746324 	-2.770966522e-07
0.9765338353 	1.285117255 	0.001726755883 	-2.677833411e-07
0.9772742289 	1.276534338 	0.001636858252 	-2.585076212e-07
0.9780009634 	1.267737787 	0.001549081869 	-2.492958319e-07
0.978714291 	1.258708382 	0.001463452915 	-2.40174557e-07
0.9794144589 	1.249425838 	0.001379995284 	-2.311723724e-07
0.98010171 	1.239868715 	0.001298729128 	-2.223273573e-07
0.9807762824 	1.230014333 	0.001219663308 	-2.13676725e-07
0.9814384101 	1.219838677 	0.001142804735 	-2.053362168e-07
0.9820883228 	1.209316192 	0.001068056061 	-1.97706189e-07
0.9827262456 	1.198418835 	0.0009951037227 	-1.879604161e-07
0.9833523999 	1.187115677 	0.0009271704797 	-1.790538826e-07
0.9839670027 	1.175369469 	0.0008606628672 	-1.762930331e-07
0.9845702672 	1.16311435 	0.0007911523003 	-1.691959488e-07
0.9851624025 	1.150246296 	0.0007275796334 	-1.55652925e-07
0.9857436139 	1.136660147 	0.0006697335622 	-1.458509986e-07
0.9863141029 	1.122270965 	0.0006128496706 	-1.378449841e-07
0.9868740674 	1.107002369 	0.000558933414 	-1.284897151e-07
0.9874237016 	1.090780875 	0.00050817598 	-1.193085137e-07
0.9879631959 	1.073533622 	0.0004604808559 	-1.104315299e-07
0.9884927375 	1.055185343 	0.0004155993102 	-1.018585177e-07
0.98901251 	1.037371547 	0.0003771275755 	-9.428747295e-08
0.9893470337 	1.022116277 	0.0003479184678 	-8.833068446e-08
0.9896815574 	1.007925018 	0.0003232411083 	-8.318672081e-08
0.9900160812 	0.9929369922 	0.0002993793508 	-7.813806546e-08
0.9903506049 	0.9770987988 	0.0002764340253 	-7.318408169e-08
0.9906851286 	0.9603528227 	0.0002544297612 	-6.83274493e-08
0.9910196523 	0.942636133 	0.0002333685014 	-6.357310076e-08
0.991354176 	0.9238795175 	0.0002132541979 	-5.892729361e-08
0.9916886998 	0.9040065799 	0.0001940916133 	-5.439748874e-08
0.9920232235 	0.8829328483 	0.0001758847445 	-4.99919976e-08
0.9923577472 	0.8605648392 	0.0001586363975 	-4.572001748e-08
0.9926922709 	0.8367988446 	0.0001423447511 	-4.159200377e-08
0.9930267946 	0.8115192829 	0.000127002585 	-3.761817793e-08
0.9933613184 	0.7845987676 	0.0001126015553 	-3.380737537e-08
0.9936958421 	0.7559001212 	9.913211021e-05 	-3.016889868e-08
0.9940303658 	0.7252770453 	8.657700635e-05 	-2.671221162e-08
0.9943648895 	0.692575239 	7.474792871e-05 	-2.34340041e-08
0.9946994132 	0.6576365916 	6.3213713e-05 	-2.032559132e-08
0.9950339369 	0.6203057338 	5.237771297e-05 	-1.745514322e-08
0.9953684607 	0.5804439 	5.849939439e-05 	-1.598878858e-08
0.9957029844 	0.5379437394 	4.870697485e-05 	-1.209891353e-08
0.9960375081 	0.4926761191 	-2.299374491e-06 	-7.228700252e-09
0.9963720318 	0.4444790263 	-1.654405456e-05 	-8.265592834e-09
0.9967065555 	0.3933802612 	9.906279628e-06 	-7.847418469e-09
0.9970410793 	0.3397736207 	2.589422529e-05 	-4.605279127e-09
0.997375603 	0.2843423971 	2.962413464e-05 	-3.290232155e-09
0.9977101267 	0.2278515967 	2.172108044e-05 	-2.135172416e-09
0.9980446504 	0.1709141763 	1.023042589e-05 	-1.190020311e-09
0.9983791741 	0.1138825888 	2.925236721e-06 	-5.224089804e-10
0.9987136979 	0.05689841241 	3.562835545e-07 	-1.394356072e-10
0.9990482216 	0.02398606787 	-6.022330122e-08 	-1.497250988e-11
0.9990482216 	0.02398606787 	-6.022330122e-08 	-1.497250988e-11
