0.4709558481 	5.56779885e-07 	-2.206634206e-09 	4.119160256e-14 	5.556826327e-07 	-7.276321178e-12 	1.059285542e-09
0.4711314108 	6.254299352e-06 	-9.674811023e-08 	1.804823293e-12 	6.235676645e-06 	-8.16165689e-11 	1.18869328e-08
0.4713069734 	3.494135855e-05 	-1.257726868e-06 	2.339656338e-11 	3.46655765e-05 	-4.526495808e-10 	6.60822236e-08
0.471482536 	0.0001170736811 	-7.758169382e-06 	1.431584708e-10 	0.0001144573544 	-1.483457785e-09 	2.181875292e-07
0.4716580986 	0.0002930863644 	-3.070707122e-05 	5.568428928e-10 	0.0002772905307 	-3.532411287e-09 	5.285928204e-07
0.4718336613 	0.0006131191127 	-8.992186417e-05 	1.581002327e-09 	0.0005467007025 	-6.743176671e-09 	1.042163487e-06
0.4720092239 	0.001136658812 	-0.0002105762085 	3.531580964e-09 	0.0009264559755 	-1.085965326e-08 	1.766082585e-06
0.4721847865 	0.001923801545 	-0.0004136687851 	6.508752087e-09 	0.001394275892 	-1.524133116e-08 	2.657877368e-06
0.4723603491 	0.003015748358 	-0.000705257292 	1.026127676e-08 	0.001907871722 	-1.914862756e-08 	3.636933769e-06
0.4725359118 	0.004414440454 	-0.001072637534 	1.430463282e-08 	0.002421900389 	-2.217606096e-08 	4.616815273e-06
0.4727114744 	0.006077222051 	-0.001490630357 	1.817144023e-08 	0.002904127545 	-2.428409434e-08 	5.536074261e-06
0.472887037 	0.00784846579 	-0.001918983786 	2.066188803e-08 	0.003408741974 	-3.098363276e-08 	6.498009613e-06
0.4730625996 	0.00954552293 	-0.002327478274 	2.275580383e-08 	0.004025268563 	-3.935096633e-08 	7.673280646e-06
0.4732381623 	0.01117453644 	-0.002723924992 	2.55476254e-08 	0.004710251884 	-4.421470602e-08 	8.979049237e-06
0.4734137249 	0.01278798397 	-0.003117326718 	2.80752086e-08 	0.00539078661 	-4.861273068e-08 	1.027633757e-05
0.4735892875 	0.01436422422 	-0.003501730373 	3.030420831e-08 	0.006055879116 	-5.246670674e-08 	1.154418874e-05
0.4737648501 	0.01588750982 	-0.003872944852 	3.227249693e-08 	0.006697918455 	-5.588262227e-08 	1.276809417e-05
0.4739404128 	0.01734713862 	-0.004228615598 	3.398034109e-08 	0.007313090876 	-5.884996941e-08 	1.394078378e-05
0.4741159754 	0.01873659778 	-0.004567176421 	3.54433014e-08 	0.00789868913 	-6.139321064e-08 	1.505709681e-05
0.474291538 	0.02005259756 	-0.004887843631 	3.668246471e-08 	0.008453302577 	-6.354517682e-08 	1.611434418e-05
0.4744671006 	0.02129423874 	-0.005190470197 	3.772295319e-08 	0.00897654321 	-6.534032224e-08 	1.711178626e-05
0.4746426632 	0.02246232148 	-0.00547542484 	3.859450568e-08 	0.009468750602 	-6.681133114e-08 	1.805007035e-05
0.4748182259 	0.02355879279 	-0.005743515947 	3.933299838e-08 	0.009930746924 	-6.798815952e-08 	1.893076375e-05
0.4749937885 	0.02458631966 	-0.005995949302 	3.998122361e-08 	0.01036365732 	-6.889739425e-08 	1.975601128e-05
0.4751693511 	0.02554798023 	-0.006234295063 	4.058865275e-08 	0.01076878048 	-6.956242692e-08 	2.052828862e-05
0.4753449137 	0.026447085 	-0.006460453056 	4.121060549e-08 	0.01114750968 	-7.000468954e-08 	2.125025174e-05
0.4755204764 	0.02728720962 	-0.006668226362 	4.115163715e-08 	0.01150135772 	-7.025032494e-08 	2.192478446e-05
0.475696039 	0.02807241263 	-0.006856734652 	4.076559133e-08 	0.01183203109 	-7.033653722e-08 	2.255513979e-05
0.4758716016 	0.02880665317 	-0.007032970387 	4.071365095e-08 	0.01214110595 	-7.02828377e-08 	2.314432239e-05
0.4760471642 	0.02949330306 	-0.007197984158 	4.058213527e-08 	0.01243008855 	-7.009316885e-08 	2.369520353e-05
0.4762227269 	0.0302213727 	-0.007373240513 	4.034447606e-08 	0.01273677733 	-6.972879789e-08 	2.42798376e-05
0.4764955107 	0.03105596907 	-0.007574346298 	3.992716267e-08 	0.01308830824 	-6.906772114e-08 	2.49499532e-05
0.4767734216 	0.03189558551 	-0.007776705415 	3.932197119e-08 	0.01344150157 	-6.808862687e-08 	2.562323787e-05
0.4770565557 	0.03266331932 	-0.007961802968 	3.856718474e-08 	0.01376427689 	-6.685258445e-08 	2.623853733e-05
0.4773450114 	0.03336330899 	-0.008130649724 	3.766570582e-08 	0.01405859228 	-6.536346831e-08 	2.679958427e-05
0.4776388886 	0.03399923048 	-0.008284044537 	3.661602541e-08 	0.01432587481 	-6.361683169e-08 	2.730909907e-05
0.4779382892 	0.03457429657 	-0.008422725819 	3.541550099e-08 	0.01456745698 	-6.160666607e-08 	2.776962182e-05
0.4782433171 	0.03509137424 	-0.008547368218 	3.406272067e-08 	0.01478455224 	-5.932914554e-08 	2.818346573e-05
0.4785540779 	0.03555318146 	-0.008658609069 	3.255999305e-08 	0.01497828906 	-5.678686468e-08 	2.855278196e-05
0.4788706795 	0.03596326271 	-0.008757289495 	3.092257695e-08 	0.01515016283 	-5.400734133e-08 	2.888042112e-05
0.4791932316 	0.03632596805 	-0.008844448719 	2.916491264e-08 	0.01530203808 	-5.101875293e-08 	2.916993756e-05
0.4795218461 	0.03664481393 	-0.008920921441 	2.728261888e-08 	0.01543539819 	-4.781393023e-08 	2.942415899e-05
0.4798566368 	0.03692235642 	-0.008987314128 	2.527063174e-08 	0.01555130099 	-4.438325663e-08 	2.964510195e-05
0.48019772 	0.03716087024 	-0.009044174844 	2.313064621e-08 	0.01565070528 	-4.072998724e-08 	2.983459414e-05
0.4805452138 	0.03736240384 	-0.009092000434 	2.086371093e-08 	0.01573448043 	-3.68559522e-08 	2.999429287e-05
0.4808992388 	0.03752879122 	-0.009131234933 	1.847028796e-08 	0.01580340045 	-3.276175902e-08 	3.012567358e-05
0.4812599177 	0.03766166491 	-0.009162274121 	1.595049794e-08 	0.01585815407 	-2.844747289e-08 	3.02300492e-05
0.4816273755 	0.03776247031 	-0.009185469031 	1.330406548e-08 	0.01589935147 	-2.391244769e-08 	3.030858289e-05
0.4820017397 	0.03783248035 	-0.009201129337 	1.053033667e-08 	0.0159275303 	-1.915535259e-08 	3.036229958e-05
0.48238314 	0.03787280982 	-0.009209526744 	7.628305197e-09 	0.01594316174 	-1.417422006e-08 	3.039209745e-05
0.4827717088 	0.03788442917 	-0.009210898268 	4.596638109e-09 	0.01594665628 	-8.966491805e-09 	3.039875902e-05
0.4831675807 	0.03786817728 	-0.009205449335 	1.433701028e-09 	0.01593836916 	-3.529061863e-09 	3.038296146e-05
0.4835708931 	0.03782477335 	-0.009193356644 	-1.862415296e-09 	0.01591860539 	2.141678994e-09 	3.034528621e-05
0.4839817856 	0.03775482784 	-0.009174770821 	-5.293866035e-09 	0.01588762436 	8.049795413e-09 	3.028622777e-05
0.4844004009 	0.03765885242 	-0.009149818843 	-8.863019739e-09 	0.0158456441 	1.419975412e-08 	3.020620172e-05
0.4848268841 	0.03753726912 	-0.009118606268 	-1.257242082e-08 	0.01579284507 	2.059636261e-08 	3.01055521e-05
0.485261383 	0.03739041865 	-0.009081219277 	-1.642474572e-08 	0.01572937376 	2.724469728e-08 	2.998455815e-05
0.4857040484 	0.03721856818 	-0.009037726568 	-2.042275127e-08 	0.01565534594 	3.415001841e-08 	2.984344054e-05
0.4861550336 	0.03702191842 	-0.008988181109 	-2.456921395e-08 	0.01557084964 	4.13176693e-08 	2.968236711e-05
0.4866144951 	0.03680061034 	-0.008932621784 	-2.886685848e-08 	0.01547594805 	4.875295667e-08 	2.95014583e-05
0.4870825921 	0.03655473158 	-0.008871074966 	-3.33182745e-08 	0.01537068216 	5.646100977e-08 	2.930079226e-05
0.487559487 	0.03628432251 	-0.00880355602 	-3.79258201e-08 	0.01525507338 	6.444661549e-08 	2.908040978e-05
0.4880453452 	0.03598938223 	-0.008730070781 	-4.269151132e-08 	0.01512912604 	7.271402721e-08 	2.884031916e-05
0.4885403351 	0.03566987458 	-0.008650617016 	-4.761689737e-08 	0.01499282996 	8.126674596e-08 	2.858050095e-05
0.4890446283 	0.03532573409 	-0.008565185896 	-5.270292226e-08 	0.01484616294 	9.010727355e-08 	2.830091285e-05
0.4895583997 	0.03495687217 	-0.008473763498 	-5.7949775e-08 	0.01468909338 	9.923683981e-08 	2.800149461e-05
0.4900818274 	0.03456318346 	-0.00837633234 	-6.335673329e-08 	0.01452158296 	1.08655109e-07 	2.768217318e-05
0.4906150929 	0.0341445525 	-0.008272872974 	-6.892200799e-08 	0.01434358944 	1.183598753e-07 	2.734286807e-05
0.4911583811 	0.0337008606 	-0.00816336561 	-7.464260039e-08 	0.01415506958 	1.283467622e-07 	2.698349682e-05
0.4917118805 	0.03323199301 	-0.008047791783 	-8.05141881e-08 	0.01395598211 	1.386089493e-07 	2.660398077e-05
0.4922757829 	0.03273784613 	-0.007926135991 	-8.653105994e-08 	0.01374629082 	1.491369545e-07 	2.620425089e-05
0.4928502838 	0.03221833463 	-0.007798387264 	-9.268612492e-08 	0.01352596749 	1.599185132e-07 	2.578425338e-05
0.4934355824 	0.03167339785 	-0.007664540515 	-9.897102542e-08 	0.01329499462 	1.709386063e-07 	2.53439549e-05
0.4940318817 	0.03110300497 	-0.007524597514 	-1.053763914e-07 	0.01305336765 	1.821797088e-07 	2.488334673e-05
0.4946393885 	0.0305071578 	-0.007378567193 	-1.118922817e-07 	0.01280109609 	1.936223516e-07 	2.440244702e-05
0.4952583133 	0.02988588978 	-0.007226464942 	-1.185088808e-07 	0.01253820322 	2.052461366e-07 	2.390130015e-05
0.4958888709 	0.02923925975 	-0.007068310424 	-1.252176467e-07 	0.01226472344 	2.170316606e-07 	2.337997168e-05
0.4965312797 	0.0285673389 	-0.006904123429 	-1.32013018e-07 	0.01198069643 	2.289634956e-07 	2.283853727e-05
0.4971857627 	0.0278701908 	-0.006733917728 	-1.388938939e-07 	0.0116861582 	2.410319039e-07 	2.227706553e-05
0.4978525466 	0.02714784749 	-0.006557696514 	-1.458557172e-07 	0.01138113776 	2.53208226e-07 	2.169561179e-05
0.4985318627 	0.02640029258 	-0.006375452276 	-1.529180772e-07 	0.01106566421 	2.655190945e-07 	2.109423153e-05
0.4992239466 	0.0256274842 	-0.006187148846 	-1.60125521e-07 	0.01073971333 	2.780545694e-07 	2.047287855e-05
0.4999290382 	0.02483022954 	-0.005992939393 	-1.665175885e-07 	0.01040355125 	2.891828554e-07 	1.98320602e-05
0.5006473819 	0.02401360176 	-0.005794113078 	-1.710353002e-07 	0.01005935584 	2.9710404e-07 	1.917592809e-05
0.501379227 	0.02318555303 	-0.005592710939 	-1.743726119e-07 	0.009710596744 	3.029934377e-07 	1.851109632e-05
0.502124827 	0.02235098896 	-0.005389907336 	-1.770923029e-07 	0.009359303494 	3.077660829e-07 	1.784143374e-05
0.5028844406 	0.02151305206 	-0.005186385956 	-1.789395644e-07 	0.0090067167 	3.109256564e-07 	1.716930532e-05
0.5036583311 	0.02067589948 	-0.004983106879 	-1.797696631e-07 	0.008654602113 	3.121986523e-07 	1.649807705e-05
0.5044467669 	0.01984453318 	-0.00478127279 	-1.793094886e-07 	0.008305208136 	3.111156781e-07 	1.583203502e-05
0.5052500214 	0.01902533578 	-0.004582348063 	-1.772034967e-07 	0.007961171353 	3.071023569e-07 	1.517620529e-05
0.506068373 	0.01812616833 	-0.004363751505 	-1.724242141e-07 	0.00758355812 	2.984061639e-07 	1.445636952e-05
0.507324668 	0.01708785631 	-0.004109560781 	-1.640476297e-07 	0.007143628354 	2.846196332e-07 	1.361774111e-05
0.5085949819 	0.01606061441 	-0.003858943299 	-1.491736193e-07 	0.006711611952 	2.575777232e-07 	1.279419778e-05
0.5098794711 	0.01515853267 	-0.003643192437 	-1.30278094e-07 	0.006344495382 	2.214533059e-07 	1.209437156e-05
0.5111782938 	0.01419009973 	-0.003418219755 	-1.461009871e-07 	0.006167627824 	9.142549664e-08 	1.175721284e-05
0.5124916099 	0.01314193788 	-0.003173445935 	-1.620437806e-07 	0.006162035833 	-6.701599922e-09 	1.174655295e-05
0.5138195812 	0.0122109295 	-0.002946664294 	-1.487895824e-07 	0.00617276625 	-4.958384553e-10 	1.17670081e-05
0.5151623712 	0.01139890596 	-0.002735032015 	-1.439737357e-07 	0.006186871353 	-1.087922635e-08 	1.179389635e-05
0.5165201452 	0.01068841679 	-0.002532876002 	-1.408662773e-07 	0.006207835719 	-2.006951184e-08 	1.183386026e-05
0.5178930705 	0.0100716774 	-0.002340995915 	-1.359957453e-07 	0.006242729651 	-3.391536032e-08 	1.190037779e-05
0.5192813161 	0.009542007659 	-0.002158796241 	-1.311418748e-07 	0.006290938205 	-4.531582083e-08 	1.199227669e-05
0.520685053 	0.009093250775 	-0.001985995724 	-1.254530961e-07 	0.006349756871 	-5.42611851e-08 	1.210440142e-05
0.522104454 	0.008720981893 	-0.001824091187 	-1.177877544e-07 	0.006415646409 	-6.088979271e-08 	1.223000519e-05
0.523539694 	0.008418981676 	-0.001673330262 	-1.109825744e-07 	0.006488271322 	-6.919881904e-08 	1.236844846e-05
0.5249909497 	0.008175868822 	-0.00152962241 	-1.077725268e-07 	0.006571297799 	-8.018377214e-08 	1.252672e-05
0.5264583998 	0.007982486453 	-0.001390604712 	-1.051044001e-07 	0.006663856768 	-8.883620184e-08 	1.270316312e-05
0.527942225 	0.007832966848 	-0.001256835313 	-1.017704366e-07 	0.00676155649 	-9.410324203e-08 	1.288940595e-05
0.5294426081 	0.007721062963 	-0.001128084083 	-9.883696806e-08 	0.006861397916 	-9.739840778e-08 	1.307973145e-05
0.5309597337 	0.007641060998 	-0.001003750021 	-9.628054188e-08 	0.00696154487 	-9.934963015e-08 	1.327063938e-05
0.5324937889 	0.007588185889 	-0.0008833123154 	-9.404736389e-08 	0.007060884069 	-1.003909197e-07 	1.346000751e-05
0.5340449624 	0.007558485347 	-0.0007663135579 	-9.210090011e-08 	0.00715863668 	-1.007103871e-07 	1.364635115e-05
0.5356134452 	0.007548695773 	-0.00065235945 	-9.040407159e-08 	0.007254249454 	-1.004748496e-07 	1.382861567e-05
0.5371994306 	0.007556118541 	-0.0005411107337 	-8.892714214e-08 	0.007347341422 	-9.981091932e-08 	1.400607484e-05
0.5388031139 	0.007578516886 	-0.000432274636 	-8.764493907e-08 	0.007437655617 	-9.881300425e-08 	1.41782388e-05
0.5404246925 	0.007614031216 	-0.0003255979481 	-8.653575356e-08 	0.00752502332 	-9.755103349e-08 	1.434478592e-05
0.5420643661 	0.007661109943 	-0.0002208612255 	-8.558075841e-08 	0.007609339367 	-9.607845643e-08 	1.450551574e-05
0.5437223366 	0.007718453304 	-0.0001178739766 	-8.47634243e-08 	0.007690541477 	-9.443236991e-08 	1.466030953e-05
0.5453988083 	0.007784967491 	-1.648977239e-05 	-8.407077273e-08 	0.007768601071 	-9.264297451e-08 	1.480911281e-05
0.5470939875 	0.007859726219 	8.343711557e-05 	-8.349011288e-08 	0.007843514488 	-9.073607439e-08 	1.495191861e-05
0.5488080831 	0.007941946526 	0.0001820745419 	-8.300650685e-08 	0.007915285618 	-8.872386894e-08 	1.508873433e-05
0.5505413061 	0.008030962601 	0.0002795318291 	-8.260894919e-08 	0.007983930444 	-8.661940681e-08 	1.521959044e-05
0.5522938699 	0.008126201469 	0.0003758836569 	-8.228927583e-08 	0.008049474333 	-8.443492042e-08 	1.534453531e-05
0.5540659904 	0.00822717078 	0.0004712152649 	-8.203903152e-08 	0.008111943375 	-8.217626238e-08 	1.546361867e-05
0.5558578859 	0.008333445348 	0.0005656015165 	-8.185105256e-08 	0.008171366749 	-7.98492677e-08 	1.557689614e-05
0.5576697768 	0.00844465645 	0.0006591080468 	-8.171917457e-08 	0.008227773167 	-7.745753018e-08 	1.568442245e-05
0.5595018865 	0.008560482909 	0.0007517920913 	-8.163739722e-08 	0.008281190867 	-7.500425585e-08 	1.578625143e-05
0.5613544406 	0.008680643829 	0.0008437034731 	-8.15999645e-08 	0.008331646751 	-7.249249002e-08 	1.588243437e-05
0.563227667 	0.008804892841 	0.0009348859117 	-8.160239008e-08 	0.008379164985 	-6.992324064e-08 	1.597301733e-05
0.5651217966 	0.00893301297 	0.001025377443 	-8.164100176e-08 	0.008423767872 	-6.729715477e-08 	1.605804283e-05
0.5670370626 	0.00906481213 	0.001115210385 	-8.171218666e-08 	0.008465475639 	-6.461494581e-08 	1.613754943e-05
0.5689737009 	0.009200119571 	0.001204411912 	-8.181238612e-08 	0.008504305893 	-6.187656094e-08 	1.621157068e-05
0.5709319499 	0.009338782895 	0.001293004625 	-8.193820773e-08 	0.008540274111 	-5.908181366e-08 	1.62801361e-05
0.5729120508 	0.009480665439 	0.001381006845 	-8.208646031e-08 	0.008573393604 	-5.623031566e-08 	1.634327106e-05
0.5749142474 	0.00962564402 	0.001468432883 	-8.225414972e-08 	0.008603675665 	-5.332149333e-08 	1.640099709e-05
0.5769387863 	0.009773606972 	0.001555293259 	-8.243845296e-08 	0.008631129762 	-5.035460824e-08 	1.645333223e-05
0.5789859169 	0.009924452429 	0.001641594904 	-8.263668895e-08 	0.008655763746 	-4.732878514e-08 	1.650029144e-05
0.5810558911 	0.01007808681 	0.001727341315 	-8.284628937e-08 	0.008677584079 	-4.424303727e-08 	1.654188706e-05
0.583148964 	0.01023442345 	0.001812532694 	-8.306477102e-08 	0.008696596079 	-4.109629031e-08 	1.657812922e-05
0.5852653933 	0.01039338138 	0.001897166061 	-8.32897101e-08 	0.008712804178 	-3.788740608e-08 	1.660902636e-05
0.5874054395 	0.01055488421 	0.001981235343 	-8.35187181e-08 	0.008726212193 	-3.461520732e-08 	1.663458577e-05
0.5895693664 	0.01071885908 	0.002064731452 	-8.374941898e-08 	0.008736823609 	-3.127850484e-08 	1.665481407e-05
0.5917574402 	0.01088523568 	0.00214764234 	-8.39794271e-08 	0.008744641884 	-2.787612842e-08 	1.666971788e-05
0.5939699306 	0.01105394534 	0.002229953043 	-8.420632556e-08 	0.008749670763 	-2.440696278e-08 	1.667930432e-05
0.5962071099 	0.01122492009 	0.002311645714 	-8.442764425e-08 	0.008751914625 	-2.086999031e-08 	1.668358174e-05
0.5984692536 	0.01139809183 	0.002392699641 	-8.464083722e-08 	0.008751378841 	-1.726434228e-08 	1.668256039e-05
0.6007566404 	0.01157339141 	0.002473091257 	-8.484325887e-08 	0.008748070175 	-1.358936071e-08 	1.667625315e-05
0.6030695519 	0.01175074776 	0.002552794137 	-8.503213857e-08 	0.00874199721 	-9.844673105e-09 	1.666467639e-05
0.6054082729 	0.01193008698 	0.002631778987 	-8.520455328e-08 	0.008733170825 	-6.030282337e-09 	1.664785085e-05
0.6077730914 	0.01211133138 	0.002710013633 	-8.535739806e-08 	0.008721604718 	-2.146674334e-09 	1.662580264e-05
0.6101642987 	0.01229439853 	0.002787462987 	-8.548735428e-08 	0.008707315982 	1.805054018e-09 	1.659856433e-05
0.6125821893 	0.01247920014 	0.002864089026 	-8.559085587e-08 	0.008690325759 	5.823044976e-09 	1.656617625e-05
0.6150270608 	0.012665641 	0.002939850751 	-8.566405398e-08 	0.008670659962 	9.904507155e-09 	1.652868777e-05
0.6174992144 	0.0128536177 	0.003014704156 	-8.570278149e-08 	0.00864835009 	1.404552106e-08 	1.648615896e-05
0.6199989545 	0.01304301734 	0.003088602188 	-8.570251921e-08 	0.008623434135 	1.824082763e-08 	1.643866222e-05
0.622526589 	0.0132337161 	0.003161494715 	-8.56583674e-08 	0.008595957611 	2.248361035e-08 	1.638628433e-05
0.625082429 	0.01342557762 	0.003233328505 	-8.556502814e-08 	0.008565974697 	2.67652911e-08 	1.632912856e-05
0.6276667894 	0.01361845127 	0.003304047208 	-8.541680693e-08 	0.008533549517 	3.107537399e-08 	1.626731716e-05
0.6302799884 	0.01381217028 	0.003373591366 	-8.520764684e-08 	0.008498757568 	3.540139351e-08 	1.620099403e-05
0.6329223478 	0.0140065496 	0.00344189845 	-8.493121444e-08 	0.00846168731 	3.972905549e-08 	1.613032782e-05
0.6355941931 	0.01420138359 	0.003508902923 	-8.458106658e-08 	0.008422441931 	4.404270517e-08 	1.605551522e-05
0.6382958531 	0.0143964435 	0.003574536363 	-8.415093998e-08 	0.008381141322 	4.832631928e-08 	1.597678478e-05
0.6410276607 	0.01459147452 	0.003638727634 	-8.36352236e-08 	0.0083379243 	5.256530012e-08 	1.589440112e-05
0.6437899523 	0.01478619251 	0.003701403125 	-8.30296977e-08 	0.008292951169 	5.67494452e-08 	1.580866983e-05
0.646583068 	0.01498028006 	0.003762487045 	-8.233265195e-08 	0.008246406785 	6.087755658e-08 	1.57199433e-05
0.6494073518 	0.01517338153 	0.003821901776 	-8.154652359e-08 	0.00819850441 	6.49641906e-08 	1.562862806e-05
0.6522631514 	0.01536509658 	0.00387956821 	-8.06802135e-08 	0.008149490901 	6.904892092e-08 	1.553519469e-05
0.6551508186 	0.01555497082 	0.00393540598 	-7.975221381e-08 	0.008099654149 	7.3207965e-08 	1.544019199e-05
0.658070709 	0.01574248209 	0.003989333363 	-7.879457209e-08 	0.008049334321 	7.756660549e-08 	1.534426841e-05
0.6610231822 	0.0159270193 	0.00404126648 	-7.785738226e-08 	0.007998941281 	8.230769527e-08 	1.524820527e-05
0.6640086017 	0.01610785007 	0.004091117164 	-7.701261027e-08 	0.007948981624 	8.766521384e-08 	1.515296828e-05
0.6670273351 	0.01628407271 	0.004138788645 	-7.635525903e-08 	0.007900099354 	9.387994911e-08 	1.505978509e-05
0.6700797543 	0.01645455037 	0.004184167661 	-7.599466876e-08 	0.007853131678 	1.010928453e-07 	1.497025164e-05
0.6731662352 	0.01661783307 	0.004227111344 	-7.602138479e-08 	0.007809173742 	1.091577015e-07 	1.48864556e-05
0.6762871577 	0.01677209856 	0.004267431086 	-7.64586351e-08 	0.007769628269 	1.174312811e-07 	1.481107094e-05
0.6794429063 	0.01691515445 	0.004304878582 	-7.720555643e-08 	0.007736203317 	1.246099213e-07 	1.474735369e-05
0.6826338695 	0.01704455151 	0.004339138214 	-7.795962906e-08 	0.007710813462 	1.286884106e-07 	1.469895357e-05
0.6858604404 	0.01715787903 	0.00436983906 	-7.817413985e-08 	0.007695329475 	1.273205042e-07 	1.466943679e-05
0.6891230163 	0.0172532522 	0.004396606509 	-7.714313302e-08 	0.007691177173 	1.186993812e-07 	1.466152134e-05
0.6924219988 	0.01732985588 	0.004419160983 	-7.427194287e-08 	0.007698900005 	1.025709813e-07 	1.467624321e-05
0.6957577944 	0.01738831047 	0.004437437201 	-6.943375357e-08 	0.007717875327 	8.074171426e-08 	1.471241545e-05
0.6991308138 	0.01743065548 	0.004451665445 	-6.315820225e-08 	0.007746345168 	5.663634365e-08 	1.476668688e-05
0.7025414724 	0.01745991578 	0.004462363336 	-5.6482651e-08 	0.007781779355 	3.407374906e-08 	1.483423428e-05
0.7059901901 	0.01747942247 	0.00447023058 	-5.052570453e-08 	0.007821427075 	1.59353603e-08 	1.490981386e-05
0.7094773917 	0.01749215991 	0.00447599185 	-4.604678975e-08 	0.007862840099 	3.403966311e-09 	1.498875859e-05
0.7130035066 	0.01750035679 	0.004480256599 	-4.32428059e-08 	0.007904196546 	-3.964041897e-09 	1.506759548e-05
0.7165689691 	0.01750538572 	0.004483444388 	-4.18348842e-08 	0.007944375782 	-7.58117906e-09 	1.514418827e-05
0.7201742182 	0.01750789628 	0.00448578263 	-4.132206945e-08 	0.0079828455 	-9.054479051e-09 	1.521752224e-05
0.7238196978 	0.01750805095 	0.004487352202 	-4.123014741e-08 	0.008019466388 	-9.651121674e-09 	1.528733183e-05
0.727505857 	0.01750575096 	0.004488147346 	-4.124616208e-08 	0.008054307736 	-1.011758645e-08 	1.535374912e-05
0.7312331497 	0.01750079171 	0.004488123256 	-4.12293649e-08 	0.008087519161 	-1.076181285e-08 	1.541705933e-05
0.7350020349 	0.01749295812 	0.004487223339 	-4.115311763e-08 	0.008119185115 	-1.163386025e-08 	1.547742344e-05
0.7387709215 	0.01748216462 	0.004485417805 	-4.103745996e-08 	0.008149205338 	-1.268169126e-08 	1.553465033e-05
0.7424982157 	0.01746849901 	0.004482725481 	-4.090506594e-08 	0.008177468927 	-1.384469616e-08 	1.558852858e-05
0.7461843763 	0.01745207399 	0.004479178525 	-4.076657132e-08 	0.00820403021 	-1.508762788e-08 	1.563916177e-05
0.7498298574 	0.01743297636 	0.00447480321 	-4.06237498e-08 	0.008229006319 	-1.639392525e-08 	1.568677318e-05
0.7534351078 	0.01741130155 	0.004469627276 	-4.047568474e-08 	0.008252494089 	-1.775292065e-08 	1.57315474e-05
0.7570005716 	0.01738715356 	0.004463680296 	-4.032197371e-08 	0.008274572034 	-1.915454471e-08 	1.577363409e-05
0.7605266877 	0.01736064346 	0.004456993118 	-4.016310321e-08 	0.008295301844 	-2.058873529e-08 	1.581315088e-05
0.7640138905 	0.0173318873 	0.004449597652 	-3.999970658e-08 	0.008314731624 	-2.2046453e-08 	1.585018944e-05
0.7674626093 	0.01730100423 	0.004441526521 	-3.983197049e-08 	0.008332898693 	-2.352031346e-08 	1.588482092e-05
0.770873269 	0.01726811501 	0.004432812773 	-3.965952955e-08 	0.008349831844 	-2.500442575e-08 	1.591710021e-05
0.7742462894 	0.01723334093 	0.004423489689 	-3.948167132e-08 	0.00836555313 	-2.649383488e-08 	1.594706935e-05
0.777582086 	0.0171968031 	0.004413590657 	-3.929759181e-08 	0.008380079289 	-2.798401023e-08 	1.597476025e-05
0.7808810695 	0.01715862188 	0.004403149086 	-3.910655896e-08 	0.008393422911 	-2.947057126e-08 	1.60001969e-05
0.7841436462 	0.01711891648 	0.004392198336 	-3.890796587e-08 	0.008405593419 	-3.094922923e-08 	1.602339727e-05
0.787370218 	0.01707780461 	0.00438077166 	-3.870131436e-08 	0.008416597899 	-3.241584377e-08 	1.604437487e-05
0.7905611821 	0.01703540227 	0.004368902145 	-3.848617377e-08 	0.008426441804 	-3.386650635e-08 	1.606314009e-05
0.7937169314 	0.01699182357 	0.004356622668 	-3.826214127e-08 	0.008435129534 	-3.52976059e-08 	1.607970131e-05
0.7968378547 	0.01694718066 	0.004343965858 	-3.802881236e-08 	0.008442664917 	-3.670586625e-08 	1.609406585e-05
0.7999243362 	0.01690158373 	0.004330964071 	-3.778576054e-08 	0.008449051596 	-3.80883602e-08 	1.610624064e-05
0.8029767561 	0.01685514103 	0.004317649377 	-3.753252298e-08 	0.008454293349 	-3.944250888e-08 	1.611623287e-05
0.8059954902 	0.01680795891 	0.004304053531 	-3.726858952e-08 	0.008458394361 	-4.076607212e-08 	1.612405054e-05
0.8089809102 	0.01676014199 	0.004290207987 	-3.699339359e-08 	0.008461359362 	-4.205713332e-08 	1.612970266e-05
0.8119333839 	0.01671179363 	0.004276144004 	-3.670630416e-08 	0.008463193567 	-4.331408011e-08 	1.613319916e-05
0.8148532749 	0.0166630162 	0.004261892682 	-3.64066203e-08 	0.008463902723 	-4.453558184e-08 	1.613455101e-05
0.8177409426 	0.01661391102 	0.004247484925 	-3.609356775e-08 	0.008463493345 	-4.572056504e-08 	1.613377062e-05
0.8205967427 	0.01656457864 	0.004232951463 	-3.576629652e-08 	0.008461972782 	-4.686818703e-08 	1.613087201e-05
0.8234210268 	0.01651511916 	0.004218322937 	-3.542387955e-08 	0.008459349177 	-4.797780826e-08 	1.612587069e-05
0.8262141429 	0.01646563255 	0.004203629954 	-3.506531269e-08 	0.00845563144 	-4.904896424e-08 	1.611878365e-05
0.8289764348 	0.01641621899 	0.004188903142 	-3.468951559e-08 	0.008450829224 	-5.008133745e-08 	1.610962929e-05
0.8317082427 	0.01636697913 	0.004174173212 	-3.429533342e-08 	0.008444952909 	-5.107472975e-08 	1.60984274e-05
0.8344099031 	0.01631801442 	0.004159471016 	-3.388153938e-08 	0.008438013589 	-5.202903516e-08 	1.608519912e-05
0.8370817486 	0.01626942745 	0.004144827611 	-3.344683776e-08 	0.00843002305 	-5.294421336e-08 	1.606996694e-05
0.8397241082 	0.01622132219 	0.004130274318 	-3.298986763e-08 	0.008420993768 	-5.382026392e-08 	1.605275462e-05
0.8423373074 	0.01617380439 	0.004115842782 	-3.250920712e-08 	0.008410938904 	-5.465720124e-08 	1.603358725e-05
0.844921668 	0.0161269818 	0.00410156503 	-3.200337802e-08 	0.008399872305 	-5.545503043e-08 	1.601249124e-05
0.8474775082 	0.01608096458 	0.004087473529 	-3.147085093e-08 	0.008387808523 	-5.62137241e-08 	1.598949431e-05
0.8500051427 	0.01603586555 	0.004073601242 	-3.091005062e-08 	0.008374762828 	-5.693319993e-08 	1.59646256e-05
0.8525048829 	0.01599180051 	0.00405998168 	-3.031936176e-08 	0.00836075125 	-5.761329921e-08 	1.593791563e-05
0.8549770366 	0.01594888863 	0.004046648955 	-2.969713482e-08 	0.00834579061 	-5.825376626e-08 	1.59093965e-05
0.8574219081 	0.01590725269 	0.004033637827 	-2.904169225e-08 	0.00832989858 	-5.885422858e-08 	1.587910187e-05
0.8598397987 	0.0158670195 	0.004020983751 	-2.835133473e-08 	0.008313093739 	-5.941417778e-08 	1.584706717e-05
0.862231006 	0.0158283202 	0.004008722922 	-2.762434759e-08 	0.008295395649 	-5.993295088e-08 	1.581332969e-05
0.8645958245 	0.01579129059 	0.003996892317 	-2.685900733e-08 	0.008276824941 	-6.040971223e-08 	1.577792876e-05
0.8669345455 	0.01575607157 	0.003985529733 	-2.605358837e-08 	0.008257403406 	-6.084343548e-08 	1.574090592e-05
0.8692474569 	0.01572280942 	0.003974673823 	-2.520636981e-08 	0.008237154113 	-6.123288545e-08 	1.570230514e-05
0.8715348435 	0.01569165627 	0.003964364132 	-2.431564241e-08 	0.008216101522 	-6.157659942e-08 	1.566217305e-05
0.8737969871 	0.01566277041 	0.00395464113 	-2.337971584e-08 	0.008194271631 	-6.187286767e-08 	1.562055921e-05
0.8760341663 	0.01563631677 	0.003945546233 	-2.239692619e-08 	0.008171692128 	-6.211971257e-08 	1.55775164e-05
0.8782466565 	0.01561246728 	0.003937121839 	-2.136564384e-08 	0.008148392566 	-6.231486564e-08 	1.553310096e-05
0.8804347301 	0.01559140128 	0.003929411341 	-2.028428186e-08 	0.008124404561 	-6.245574163e-08 	1.548737316e-05
0.8825986568 	0.015573306 	0.00392245915 	-1.915130495e-08 	0.008099762017 	-6.253940907e-08 	1.544039762e-05
0.8847387028 	0.01555837692 	0.003916310708 	-1.796523932e-08 	0.008074501377 	-6.256255581e-08 	1.539224382e-05
0.8868551318 	0.01554681822 	0.003911012498 	-1.672468335e-08 	0.008048661919 	-6.252144842e-08 	1.534298663e-05
0.8889482045 	0.01553884316 	0.003906612045 	-1.542831947e-08 	0.008022286092 	-6.241188339e-08 	1.529270697e-05
0.8910181784 	0.01553467446 	0.003903157915 	-1.407492752e-08 	0.007995419901 	-6.222912834e-08 	1.524149254e-05
0.8930653087 	0.01553454468 	0.003900699703 	-1.266339966e-08 	0.007968113369 	-6.196785066e-08 	1.51894387e-05
0.8950898473 	0.01553869647 	0.003899288011 	-1.119275737e-08 	0.007940421069 	-6.162202983e-08 	1.513664948e-05
0.8970920436 	0.0155473828 	0.003898974417 	-9.662170706e-09 	0.007912402755 	-6.118484934e-08 	1.508323879e-05
0.8990721441 	0.01556086713 	0.003899811432 	-8.070980498e-09 	0.007884124127 	-6.06485623e-08 	1.502933187e-05
0.9010303927 	0.01557942334 	0.003901852437 	-6.418724055e-09 	0.007855657728 	-6.000432314e-08 	1.4975067e-05
0.9029670306 	0.01560333562 	0.003905151602 	-4.7051652e-09 	0.007827084043 	-5.924197472e-08 	1.492059761e-05
0.9048822962 	0.01563289803 	0.003909763789 	-2.930329972e-09 	0.007798492828 	-5.83497767e-08 	1.486609481e-05
0.9067764254 	0.01566841384 	0.003915744418 	-1.094549723e-09 	0.007769984738 	-5.731405641e-08 	1.481175047e-05
0.9086496514 	0.01571019446 	0.003923149312 	8.014862125e-10 	0.007741673322 	-5.611875772e-08 	1.475778104e-05
0.910502205 	0.01575855788 	0.003932034499 	2.756665343e-09 	0.007713687503 	-5.474485815e-08 	1.470443229e-05
0.9123343142 	0.01581382648 	0.003942455964 	4.76937148e-09 	0.00768617465 	-5.316962123e-08 	1.465198514e-05
0.9141462048 	0.015876324 	0.003954469357 	6.837386785e-09 	0.007659304435 	-5.136565505e-08 	1.460076305e-05
0.9159380997 	0.01594637151 	0.003968129618 	8.957777609e-09 	0.007633273671 	-4.929976736e-08 	1.455114118e-05
0.9177102197 	0.016024282 	0.003983490535 	1.112677281e-08 	0.007608312413 	-4.693165986e-08 	1.450355808e-05
0.9194627831 	0.01611035322 	0.00400060419 	1.333965716e-08 	0.007584691657 	-4.4212618e-08 	1.445853035e-05
0.9211960055 	0.01620485847 	0.004019520278 	1.559072771e-08 	0.007562733053 	-4.108455622e-08 	1.441667115e-05
0.9229101006 	0.01630803473 	0.004040285296 	1.787344272e-08 	0.007542821147 	-3.748006254e-08 	1.437871352e-05
0.9246052793 	0.01642006761 	0.004062941526 	2.018084562e-08 	0.007525418651 	-3.332483061e-08 	1.434553953e-05
0.9262817504 	0.01654107276 	0.004087525946 	2.250686291e-08 	0.007511085716 	-2.854324792e-08 	1.431821697e-05
0.9279397204 	0.01667107739 	0.004114071427 	2.485225666e-08 	0.007500504526 	-2.306786683e-08 	1.429804628e-05
0.9295793934 	0.01681001279 	0.004142606098 	2.722317627e-08 	0.007494484573 	-1.689147806e-08 	1.428657058e-05