0.3179529243 	0.0445651323 	0.008630170534 	-1.912412094e-06
0.3179529243 	0.0445651323 	0.008630170534 	-1.912412094e-06
0.318152706 	0.1358700868 	0.02622643657 	-6.592713221e-06
0.3183524966 	0.270727319 	0.0521906877 	-1.39103489e-05
0.318552295 	0.4044184968 	0.07793841537 	-2.194263121e-05
0.3187521003 	0.536527226 	0.103370794 	-3.064083758e-05
0.3189519114 	0.6662377328 	0.1283574552 	-3.994509653e-05
0.3191517275 	0.7924550648 	0.1527153551 	-4.969051792e-05
0.3193515475 	0.9141988193 	0.1761506974 	-5.977829024e-05
0.3195513705 	1.030951869 	0.1985246776 	-7.025614663e-05
0.3197511955 	1.142557414 	0.219954397 	-8.101396876e-05
0.3199510214 	1.248934971 	0.2404064819 	-9.19476488e-05
0.3201508474 	1.350022339 	0.2598061309 	-0.0001030380348
0.3203506724 	1.44580512 	0.278176894 	-0.0001142121295
0.3205504955 	1.536285012 	0.2955206446 	-0.0001253926887
0.3207503157 	1.621438602 	0.3118325183 	-0.0001364925381
0.3209501321 	1.701218874 	0.3271032487 	-0.0001474252529
0.3211499436 	1.775586267 	0.3413253665 	-0.000158119645
0.3213497493 	1.84454906 	0.3545007862 	-0.0001685302469
0.3215495483 	1.908224403 	0.36665219 	-0.0001786472034
0.3217493395 	1.967091967 	0.3778720776 	-0.0001885527104
0.3219491221 	2.022101343 	0.3883434822 	-0.000198374291
0.322148895 	2.074152827 	0.3982392536 	-0.0002081449174
0.3223486573 	2.123684012 	0.4076430143 	-0.0002178370388
0.322548408 	2.170859626 	0.4165864953 	-0.0002274322084
0.3227481462 	2.215792435 	0.4250916391 	-0.0002369143881
0.322947871 	2.25858068 	0.4331774339 	-0.0002462698658
0.3231475813 	2.299314978 	0.4408613742 	-0.0002554870943
0.3233472762 	2.338080071 	0.4481598109 	-0.0002645558371
0.3235469548 	2.374955164 	0.4550880175 	-0.0002734652505
0.3237466161 	2.410012055 	0.4616597238 	-0.0002821942401
0.3239462591 	2.447804808 	0.4687280951 	-0.0002909660351
0.32425642 	2.491868873 	0.4769342521 	-0.0003033371747
0.3245723591 	2.536934505 	0.4852887907 	-0.0003153637647
0.3248941791 	2.578643785 	0.4929724257 	-0.0003267072743
0.3252219844 	2.61692436 	0.499969146 	-0.0003372904515
0.3255558808 	2.651712689 	0.5062647226 	-0.0003469910785
0.3258959756 	2.682939955 	0.5118433367 	-0.0003556636175
0.3262423775 	2.710534592 	0.5166886754 	-0.000344790567
0.3265951969 	2.734446099 	0.5207961626 	-0.0003294488866
0.3269545455 	2.754711056 	0.524166584 	-0.0003132179321
0.3273205366 	2.771581264 	0.5268219143 	-0.0002970275108
0.3276932849 	2.785556009 	0.5288808601 	-0.0002821209715
0.3280729065 	2.797180568 	0.5304851733 	-0.0002676809911
0.328459519 	2.806874618 	0.5316904363 	-0.0002533327817
0.3288532414 	2.814946272 	0.5325437333 	-0.0002394075797
0.3292541942 	2.821641704 	0.5331066603 	-0.0002257449596
0.329662499 	2.827173574 	0.5334209799 	-0.0002123096416
0.330078279 	2.831741607 	0.5335265666 	-0.0001991377579
0.3305016584 	2.835535844 	0.5334625804 	-0.0001861820143
0.330932763 	2.838719566 	0.5332616455 	-0.000173359458
0.3313717196 	2.84142044 	0.5329489585 	-0.0001606083234
0.3318186562 	2.843735343 	0.5325440479 	-0.0001478804596
0.332273702 	2.84573799 	0.5320618146 	-0.0001351395434
0.3327369872 	2.84748484 	0.5315135747 	-0.0001223610565
0.333208643 	2.849020539 	0.5309075085 	-0.0001095282546
0.333690202 	2.850388539 	0.5302452492 	-9.658827473e-05
0.3341943182 	2.851619402 	0.5295258138 	-8.317042874e-05
0.3347076387 	2.852720435 	0.5287585815 	-6.964632733e-05
0.3352303273 	2.853701235 	0.5279514971 	-5.601350452e-05
0.3357625509 	2.854576272 	0.5271073448 	-4.226900812e-05
0.3363044791 	2.855357077 	0.5262282988 	-2.841138749e-05
0.3368562843 	2.856052852 	0.5253160525 	-1.444039266e-05
0.337418142 	2.856670942 	0.524371919 	-3.567630623e-07
0.3374324648 	2.856684592 	0.5243474894 	-1.68167745e-06
0.337988836 	2.857213638 	0.5234013021 	-1.35514782e-05
0.3385698873 	2.857688924 	0.5224006467 	-2.756116854e-05
0.3391615162 	2.858100437 	0.5213703628 	-4.167719123e-05
0.3397639102 	2.858450859 	0.5203107951 	-5.589637582e-05
0.3403772602 	2.858742123 	0.5192221664 	-7.021514303e-05
0.3410017602 	2.858975572 	0.5181045841 	-8.462937331e-05
0.3416376076 	2.85915295 	0.51695812 	-9.913505371e-05
0.342285003 	2.859277715 	0.515783203 	-0.000113732558
0.3429441507 	2.859354201 	0.5145806831 	-0.000128425226
0.3436152583 	2.859385452 	0.5133511745 	-0.0001432085323
0.3442985368 	2.859372713 	0.5120947228 	-0.0001580719733
0.3449942011 	2.859316387 	0.5108111614 	-0.0001730096962
0.3457024694 	2.859216792 	0.5095003731 	-0.0001880183888
0.3464235639 	2.859074366 	0.5081622878 	-0.0002030936617
0.3471577105 	2.858889679 	0.5067968569 	-0.0002182313119
0.3479051389 	2.85866344 	0.5054040076 	-0.0002334274593
0.3486660827 	2.858395353 	0.5039791503 	-0.0002486739302
0.34945109 	2.858083862 	0.5025112008 	-0.0002633472609
0.3502630611 	2.857728781 	0.5009986295 	-0.0002447597559
0.3510896352 	2.857332664 	0.4994525673 	-0.0002261027611
0.3519310666 	2.856898399 	0.4978788474 	-0.0002073879369
0.3527876142 	2.856427417 	0.4962776784 	-0.0001886210361
0.3536595409 	2.855921175 	0.4946492628 	-0.0001698076418
0.3545471142 	2.855381139 	0.4929938147 	-0.0001509531887
0.3554506062 	2.854808756 	0.4913115391 	-0.0001320629861
0.3563702933 	2.854205444 	0.4896026617 	-0.0001131423033
0.357306457 	2.853572536 	0.4878675691 	-9.419652416e-05
0.358259383 	2.85281697 	0.4858894126 	-7.517679606e-05
0.3597206513 	2.851870005 	0.4834173359 	-4.676085564e-05
0.3611962551 	2.850789473 	0.4807146661 	-1.874609798e-05
0.3622065599 	2.850033652 	0.4788740273 	-5.692252634e-05
0.3626853298 	2.849672405 	0.4780032081 	-8.659634538e-06
0.3641869071 	2.848512123 	0.4752699237 	-3.529419305e-05
0.3657415917 	2.847309815 	0.4724901779 	-6.220781314e-05
0.3673153958 	2.846072586 	0.46968208 	-8.87021694e-05
0.3689044967 	2.844810884 	0.4668649356 	-0.0001147002232
0.3705090474 	2.843527046 	0.4640410093 	-0.0001402007291
0.372129203 	2.84222219 	0.4612107067 	-0.0001652017882
0.3737651208 	2.84089713 	0.4583743969 	-0.0001897013595
0.3754169603 	2.839552446 	0.4555323857 	-0.0002136973502
0.3770848833 	2.838188577 	0.4526847734 	-0.0001921221933
0.3787690537 	2.836799325 	0.4498202049 	-0.0001647453287
0.3804988631 	2.835376625 	0.4469192661 	-0.0001373788875
0.3822608994 	2.833922619 	0.443988865 	-0.0001102988139
0.384039893 	2.832446203 	0.4410484293 	-8.378257133e-05
0.3858360178 	2.830950799 	0.4381044075 	-5.783437439e-05
0.3876494502 	2.829436389 	0.4351569507 	-3.24549249e-05
0.3894803696 	2.827902912 	0.4322062101 	-7.64472391e-06
0.3900584941 	2.827417518 	0.4312816271 	-6.072253308e-05
0.3913268074 	2.826345655 	0.4292551201 	-1.636593092e-05
0.3931901374 	2.824762296 	0.4262940124 	-3.971746287e-05
0.3950927878 	2.823145449 	0.4233032856 	-6.280291067e-05
0.3970388981 	2.8214942 	0.4202817113 	-8.563391408e-05
0.3990036413 	2.81981743 	0.417248648 	-0.0001078552309
0.400987215 	2.818120644 	0.4142137666 	-0.000129470943
0.4029898197 	2.816403709 	0.4111771937 	-0.0001504829418
0.4050116593 	2.814666468 	0.4081390058 	-0.0001708934388
0.4070529411 	2.812907582 	0.4050972981 	-0.000156523838
0.4091191997 	2.811116256 	0.402035646 	-0.0001328415858
0.4112474576 	2.809285724 	0.3989394183 	-0.0001092648716
0.4133959597 	2.807424378 	0.3958281195 	-8.63357902e-05
0.4155649276 	2.805541614 	0.3927169287 	-6.405901347e-05
0.4177545874 	2.803637273 	0.3896059452 	-4.24300924e-05
0.4199651688 	2.801711197 	0.3864951242 	-2.144432807e-05
0.4221969057 	2.799758129 	0.3833774182 	-1.096651571e-06
0.4223203246 	2.799650221 	0.3832068401 	-1.124375282e-05
0.424469228 	2.797762138 	0.3802378575 	-1.865609277e-05
0.4267889352 	2.795727677 	0.3770736226 	-3.799921795e-05
0.4291306938 	2.793664666 	0.3739022437 	-5.668071189e-05
0.4314947558 	2.791578853 	0.3707324681 	-7.470850509e-05
0.4338813777 	2.789470073 	0.3675642531 	-9.209008026e-05
0.4362908213 	2.787333895 	0.3643920515 	-0.0001088302836
0.43874163 	2.785159821 	0.3612005986 	-0.0001250770466
0.4412451404 	2.782945481 	0.3579862925 	-0.000133794294
0.4437723886 	2.780700396 	0.3547658901 	-0.0001143325709
0.446323657 	2.778431124 	0.3515487174 	-9.554866421e-05
0.4488992335 	2.776137506 	0.3483346223 	-7.743245264e-05
0.4514994119 	2.773810653 	0.3451131175 	-5.997016206e-05
0.4541616688 	2.771440874 	0.3418689541 	-4.289004313e-05
0.4568588278 	2.7690332 	0.3386119636 	-2.642346441e-05
0.4595815725 	2.766597862 	0.3353567745 	-1.063519868e-05
0.4615041402 	2.764876813 	0.3330823996 	-6.405487881e-05
0.4623294293 	2.764135491 	0.3321059861 	-4.467812388e-06
0.4651017109 	2.761637538 	0.3288517253 	-1.888237676e-05
0.4679286799 	2.759097435 	0.3255805318 	-3.283221227e-05
0.4708000474 	2.756517007 	0.3222962284 	-4.622828728e-05
0.4736987461 	2.753905986 	0.3190126954 	-5.897548364e-05
0.476625129 	2.751268217 	0.3157346725 	-7.109016522e-05
0.4795795562 	2.748595334 	0.312453349 	-8.258368323e-05
0.4825972259 	2.745877865 	0.3091557961 	-9.36276818e-05
0.4856526605 	2.743120742 	0.3058503458 	-0.000100291362
0.4887372686 	2.740333589 	0.3025492327 	-8.648517563e-05
0.4918514422 	2.737515516 	0.2992518998 	-7.330901732e-05
0.4950073042 	2.734656813 	0.2959476921 	-6.068989706e-05
0.4982235491 	2.731753292 	0.2926314029 	-4.855689061e-05
0.5014705527 	2.728813549 	0.289315148 	-3.704563581e-05
0.5047487424 	2.72584389 	0.28600609 	-2.613917953e-05
0.5080599365 	2.722834883 	0.28269516 	-1.581156168e-05
0.5114411945 	2.71977833 	0.2793720826 	-5.926261089e-06
0.5135991682 	2.717821418 	0.2772703227 	-7.939418787e-05
0.5148541725 	2.716681089 	0.2760474943 	-3.382959799e-06
0.5182988631 	2.713550677 	0.2727297532 	-1.215065486e-05
0.5217779526 	2.71038007 	0.2694118682 	-2.038249552e-05
0.52532682 	2.707161147 	0.2660843733 	-2.8187117e-05
0.528910028 	2.70390136 	0.262757374 	-3.545496958e-05
0.5325280828 	2.700606658 	0.2594375358 	-4.220926342e-05
0.5361891746 	2.697268739 	0.2561172882 	-4.848858273e-05
0.539912511 	2.693882749 	0.252791742 	-5.433739259e-05
0.5436721471 	2.690455631 	0.2494695561 	-5.970147723e-05
0.5474686338 	2.686988386 	0.2461527484 	-6.460450396e-05
0.5513216279 	2.683473184 	0.2428339518 	-6.452287778e-05
0.5552246668 	2.679910706 	0.2395148858 	-5.714421397e-05
0.5591661162 	2.676306198 	0.2362018328 	-5.023532678e-05
0.5631511971 	2.67265509 	0.2328915716 	-4.376299035e-05
0.5671996694 	2.66895193 	0.2295793095 	-3.768459541e-05
0.5712881919 	2.665202261 	0.2262717514 	-3.203783148e-05
0.5754174009 	2.661405445 	0.222969654 	-2.679929939e-05
0.5796100922 	2.657554332 	0.2196669442 	-2.191887135e-05
0.5838480727 	2.653652076 	0.2163678909 	-1.742307563e-05
0.5881285045 	2.649699686 	0.2130748662 	-1.329466752e-05
0.592468147 	2.64569121 	0.2097833883 	-9.494711069e-06
0.5968582973 	2.641627394 	0.2064953705 	-6.03205644e-06
0.6012927572 	2.637509068 	0.2032131929 	-2.893975448e-06
0.6057856853 	2.63333136 	0.1999336671 	-4.795326492e-08
0.6058686619 	2.633254025 	0.1998738566 	-3.759107271e-06
0.6103303191 	2.629093592 	0.196656698 	-2.549790695e-06
0.6149212656 	2.624796488 	0.1933855095 	-4.866046282e-06
0.6195723842 	2.620435357 	0.1901173942 	-6.927802375e-06
0.6242759264 	2.616010265 	0.186853925 	-8.732918165e-06
0.6290278534 	2.611520179 	0.1835961878 	-1.029824304e-05
0.6338430612 	2.606959976 	0.1803413973 	-1.164651706e-05
0.6387094544 	2.602330025 	0.1770917129 	-1.277673471e-05
0.6436287687 	2.597628337 	0.1738474484 	-1.370985879e-05
0.6486104566 	2.592863041 	0.1706149204 	-1.445891245e-05
0.6535885607 	2.588074641 	0.1674228845 	-1.5024367e-05
0.65851419 	2.583301875 	0.1642963994 	-1.542659883e-05
0.6633878192 	2.578556217 	0.1612408304 	-1.568038563e-05
0.6682048624 	2.573837605 	0.1582546063 	-1.580610808e-05
0.6729731885 	2.56914368 	0.1553342029 	-1.582396152e-05
0.6776883892 	2.56447458 	0.1524781131 	-1.574234095e-05
0.6823494001 	2.559829717 	0.1496845678 	-1.55784175e-05
0.6869638811 	2.555206449 	0.146950185 	-1.534441854e-05
0.69152573 	2.550605436 	0.1442740537 	-1.504679156e-05
0.6960360527 	2.546026017 	0.1416544573 	-1.469881261e-05
0.7005001735 	2.541465898 	0.1390885455 	-1.430737572e-05
0.7049135952 	2.536925555 	0.1365754533 	-1.387791218e-05
0.7092775063 	2.532404262 	0.1341135699 	-1.342005995e-05
0.7135960089 	2.527900086 	0.1317005207 	-1.293799959e-05
0.7178657865 	2.523413355 	0.1293354711 	-1.243555136e-05
0.7220875898 	2.518943397 	0.1270170168 	-1.191967067e-05
0.7262652504 	2.514488412 	0.1247430677 	-1.139339674e-05
0.7303960315 	2.510048535 	0.1225127841 	-1.085866753e-05
0.7344805912 	2.50562333 	0.1203250565 	-1.032053242e-05
0.7385215828 	2.50121128 	0.1181781215 	-9.781681932e-06
0.7425178833 	2.49681207 	0.11607099 	-9.242429855e-06
0.7464696505 	2.492425428 	0.1140027847 	-8.706295921e-06
0.7503784336 	2.488050223 	0.1119720901 	-8.17586108e-06
0.7542446399 	2.483685712 	0.1099777899 	-7.650593404e-06
0.7580679078 	2.479331732 	0.1080191606 	-7.132519088e-06
0.7618489142 	2.474987503 	0.1060951153 	-6.623851603e-06
0.7655892833 	2.470651955 	0.1042044677 	-6.124508888e-06
0.7692882266 	2.466324828 	0.1023465117 	-5.634734387e-06
0.7729462699 	2.462005721 	0.1005204927 	-5.156125587e-06
0.7765644362 	2.457693677 	0.09872536528 	-4.689639396e-06
0.7801431096 	2.453388006 	0.09696028592 	-4.23430777e-06
0.7836822925 	2.449088383 	0.09522463551 	-3.790895256e-06
0.7871824709 	2.444794194 	0.09351763841 	-3.360326415e-06
0.7906446711 	2.440504569 	0.09183841591 	-2.942630068e-06
0.7940688637 	2.436219006 	0.09018631438 	-2.536999436e-06
0.7974553732 	2.431937173 	0.08856077376 	-2.144027097e-06
0.8008046515 	2.427658438 	0.08696108446 	-1.764217325e-06
0.8041175789 	2.423382042 	0.08538651043 	-1.397181782e-06
0.8073941181 	2.419107536 	0.08383650166 	-1.042282392e-06
0.8106346707 	2.414834547 	0.08231054972 	-6.998427697e-07
0.8138396595 	2.410562452 	0.08080804311 	-3.701021482e-07
0.8170097807 	2.406290517 	0.07932835602 	-5.266247903e-08
0.8175402391 	2.405567689 	0.07908179406 	-1.306659767e-05
0.8201450131 	2.402018373 	0.07787069787 	-2.409141449e-07
0.8232458362 	2.397745442 	0.07643485153 	-5.206403551e-07
0.8263126747 	2.393471117 	0.07502036515 	-7.889993577e-07
0.8293460587 	2.389194742 	0.07362670304 	-1.046216374e-06
0.832346269 	2.384915751 	0.07225340174 	-1.293053102e-06
0.8353136109 	2.380633693 	0.07090005326 	-1.529576004e-06
0.8382484591 	2.376348082 	0.06956622988 	-1.755825094e-06
0.8411512145 	2.372058301 	0.06825147851 	-1.971890623e-06
0.8440222961 	2.367763662 	0.06695536399 	-2.178402652e-06
0.8468619449 	2.363463525 	0.0656775161 	-2.375679908e-06
0.8496705157 	2.359157238 	0.06441756009 	-2.56381403e-06
0.852448358 	2.354844053 	0.06317511511 	-2.742914162e-06
0.8551958614 	2.350523147 	0.06194978733 	-2.913198642e-06
0.857913338 	2.346193712 	0.06074121511 	-3.07524503e-06
0.8606010833 	2.341855033 	0.05954907622 	-3.229230417e-06
0.8632594293 	2.33750644 	0.05837303889 	-3.375281984e-06
0.8658887031 	2.333147231 	0.05721278005 	-3.513537554e-06
0.8684892567 	2.328776627 	0.0560679677 	-3.644233408e-06
0.8710613826 	2.324393784 	0.05493829472 	-3.767841947e-06
0.8736053763 	2.319997818 	0.05382347856 	-3.884528839e-06
0.8761215493 	2.31558776 	0.0527232247 	-3.994431881e-06
0.8786102089 	2.31116253 	0.05163724871 	-4.097692687e-06
0.8810716699 	2.30672093 	0.05056525735 	-4.194484404e-06
0.883506227 	2.3022617 	0.04950697051 	-4.285192907e-06
0.8859141583 	2.29778359 	0.04846213347 	-4.370006793e-06
0.888295757 	2.293285345 	0.04743048732 	-4.449060915e-06
0.8906513125 	2.288765653 	0.04641178129 	-4.522492522e-06
0.8929811107 	2.284223074 	0.04540576867 	-4.590439144e-06
0.8952854442 	2.279655999 	0.04441219975 	-4.653130071e-06
0.8975645752 	2.275062665 	0.0434308425 	-4.710830426e-06
0.8998187786 	2.270441202 	0.04246147322 	-4.763661524e-06
0.9020483272 	2.265789657 	0.04150386396 	-4.811739494e-06
0.9042534911 	2.261106025 	0.04055779683 	-4.855178943e-06
0.9064345369 	2.256388266 	0.03962305422 	-4.894092894e-06
0.9085917323 	2.25163427 	0.03869941765 	-4.928675856e-06
0.9107253281 	2.246841815 	0.03778668118 	-4.959118547e-06
0.912835582 	2.242008436 	0.03688463952 	-4.985534041e-06
0.9149227491 	2.237131245 	0.03599308204 	-5.008038625e-06
0.9169870814 	2.232206781 	0.03511180117 	-5.026751214e-06
0.9190288278 	2.227230962 	0.03424059236 	-5.041789654e-06
0.9210482361 	2.222199172 	0.03337924952 	-5.053292665e-06
0.923045546 	2.217106499 	0.03252758081 	-5.061438108e-06
0.9250209973 	2.211948045 	0.03168541007 	-4.982701079e-06
0.9269748283 	2.206719164 	0.03085256674 	-4.789657477e-06
0.9289072748 	2.201415523 	0.03002889116 	-4.602861126e-06
0.9308185697 	2.19603294 	0.02921423099 	-4.422107824e-06
0.9327089434 	2.190567001 	0.02840843262 	-4.247197241e-06
0.9345786239 	2.185012556 	0.02761133494 	-4.077905033e-06
0.9364278344 	2.179363262 	0.02682277497 	-3.91400459e-06
0.9382567978 	2.173611322 	0.02604258143 	-3.755311001e-06
0.9400657346 	2.167747458 	0.02527056965 	-3.6016472e-06
0.9418548629 	2.161761087 	0.02450654491 	-3.452850619e-06
0.9436243985 	2.155640523 	0.02375029828 	-3.308779931e-06
0.9453745545 	2.149372938 	0.02300160187 	-3.169319542e-06
0.9471055421 	2.142943807 	0.02226019745 	-3.03437115e-06
0.948817569 	2.136335701 	0.02152580194 	-2.903830933e-06
0.9505108414 	2.129526463 	0.02079806545 	-2.77764747e-06
0.9521855636 	2.123092339 	0.02013733792 	-2.660233318e-06
0.9532765531 	2.117716473 	0.0196060442 	-2.577828305e-06
0.9543474718 	2.11285563 	0.01914267343 	-2.502550138e-06
0.9553986881 	2.107884132 	0.01868655666 	-2.429800566e-06
0.9564305636 	2.102782684 	0.01823750058 	-2.359447974e-06
0.957443453 	2.097538068 	0.01779537017 	-2.291363827e-06
0.958437705 	2.092143591 	0.01736010803 	-2.225416808e-06
0.9594136616 	2.086598083 	0.01693169692 	-2.161482199e-06
0.9603716585 	2.080904034 	0.01651012662 	-2.099443925e-06
0.9613120254 	2.075065534 	0.01609536893 	-2.039204374e-06
0.962235086 	2.06908655 	0.01568736194 	-1.980685681e-06
0.963141158 	2.062969826 	0.01528600687 	-1.923824704e-06
0.9640305534 	2.056716432 	0.0148911736 	-1.86856956e-06
0.9649035784 	2.050325834 	0.01450271017 	-1.814875613e-06
0.9657605337 	2.043796257 	0.01412045352 	-1.762701759e-06
0.9666017145 	2.037125144 	0.01374423869 	-1.712007483e-06
0.9674274106 	2.030309568 	0.01337390544 	-1.662750913e-06
0.9682379063 	2.023346514 	0.013009302 	-1.614887818e-06
0.9690334809 	2.016233014 	0.01265028641 	-1.568371401e-06
0.9698144087 	2.008966162 	0.01229672635 	-1.52315266e-06
0.9705809586 	2.001543037 	0.01194849806 	-1.479181088e-06
0.9713333949 	1.993960575 	0.01160548512 	-1.436405524e-06
0.972071977 	1.986215433 	0.01126757757 	-1.394774986e-06
0.9727969594 	1.978303854 	0.01093467054 	-1.354239127e-06
0.9735085922 	1.970221538 	0.01060666465 	-1.314747263e-06
0.9742071205 	1.961963545 	0.01028346618 	-1.276250964e-06
0.9748927854 	1.953524189 	0.009964986605 	-1.238702637e-06
0.9755658233 	1.944896949 	0.009651143428 	-1.202054278e-06
0.9762264663 	1.936074376 	0.009341860758 	-1.166256972e-06
0.9768749423 	1.927047991 	0.009037069834 	-1.131261263e-06
0.9775114751 	1.917808182 	0.008736709556 	-1.09701885e-06
0.9781362841 	1.908344094 	0.008440726915 	-1.063485374e-06
0.9787495851 	1.89864351 	0.008149077248 	-1.030623125e-06
0.9793515896 	1.888692736 	0.007861724315 	-9.9840119e-07
0.9799425054 	1.878476479 	0.00757864031 	-9.667907579e-07
0.9805225364 	1.867977723 	0.00729980604 	-9.357574498e-07
0.9810918828 	1.857177596 	0.007025211528 	-9.052557982e-07
0.9816507412 	1.846055227 	0.006754856778 	-8.752275323e-07
0.9821993045 	1.834587577 	0.006488752446 	-8.456085725e-07
0.9827377621 	1.822749294 	0.006226920344 	-8.163449842e-07
0.9832662998 	1.81051258 	0.005969393641 	-7.874044253e-07
0.9837851002 	1.797847081 	0.005716216237 	-7.587753125e-07
0.9842943424 	1.784719796 	0.005467441217 	-7.304543192e-07
0.9847942024 	1.771094957 	0.00522312953 	-7.024350293e-07
0.9852848526 	1.756933888 	0.004983349403 	-6.747064132e-07
0.9857664627 	1.742194881 	0.00474817594 	-6.472565437e-07
0.986239199 	1.726833076 	0.004517690734 	-6.20076219e-07
0.9867032246 	1.710800348 	0.00429198147 	-5.931604945e-07
0.9871587001 	1.694045188 	0.004071141359 	-5.665083995e-07
0.9876057827 	1.676512585 	0.003855268711 	-5.401255458e-07
0.9880446269 	1.658143893 	0.003644463584 	-5.140255617e-07
0.9884753843 	1.638876657 	0.003438825389 	-4.882218976e-07
0.9888982039 	1.618644462 	0.003238457581 	-4.627303584e-07
0.9893132316 	1.597376907 	0.003043466458 	-4.375759839e-07
0.989720611 	1.574999743 	0.002853953913 	-4.127866361e-07
0.9901204828 	1.5514351 	0.002670017634 	-3.883916689e-07
0.9905129853 	1.526601787 	0.002491756473 	-3.644243994e-07
0.9908982542 	1.500415716 	0.002319272234 	-3.40920975e-07
0.9912764225 	1.472790455 	0.002152583554 	-3.179249951e-07
0.9916476211 	1.443637633 	0.001991383797 	-2.954949035e-07
0.9920119783 	1.415561427 	0.00184916121 	-2.751968087e-07
0.9922464807 	1.391692504 	0.001737829816 	-2.596094482e-07
0.9924809859 	1.369636263 	0.00164154577 	-2.457728119e-07
0.9927154937 	1.346488763 	0.00154653188 	-2.320922363e-07
0.9929500042 	1.322173222 	0.001453050849 	-2.18607936e-07
0.9931845174 	1.296587363 	0.001361196869 	-2.053372331e-07
0.9934190332 	1.269616948 	0.001271058223 	-1.922604909e-07
0.9936535518 	1.241162488 	0.001182764802 	-1.793811339e-07
0.9938880731 	1.211136128 	0.001096439594 	-1.667223626e-07
0.994122597 	1.179447175 	0.001012205346 	-1.543036298e-07
0.9943571236 	1.145998967 	0.0009301872629 	-1.421484329e-07
0.994591653 	1.110688623 	0.0008505097429 	-1.302821822e-07
0.994826185 	1.073407847 	0.0007732965726 	-1.187312354e-07
0.9950607197 	1.034044476 	0.0006986738278 	-1.075222609e-07
0.9952952571 	0.9924847893 	0.0006267765497 	-9.668255062e-08
0.9955297972 	0.9486166299 	0.000557740318 	-8.624896562e-08
0.99576434 	0.9023333843 	0.000491580162 	-7.625600351e-08
0.9959988855 	0.8535388618 	0.0004282806109 	-6.667820959e-08
0.9962334336 	0.8021530692 	0.0003694456411 	-5.677611661e-08
0.9964679845 	0.7481201445 	0.0003247035271 	-4.950222261e-08
0.996702538 	0.6914123303 	0.0002658457194 	-4.305157565e-08
0.9969370943 	0.6319889565 	0.0001897718542 	-3.280580548e-08
0.9971716532 	0.5698109438 	0.0001539772058 	-2.514208237e-08
0.9974062148 	0.5049786904 	0.0001371774431 	-2.069972065e-08
0.9976407792 	0.4377608412 	0.0001072838722 	-1.573108108e-08
0.9978753462 	0.3685005509 	7.78347406e-05 	-1.129108179e-08
0.9981099159 	0.2975293059 	5.029287442e-05 	-7.363153861e-09
0.9983444883 	0.2250930743 	2.772663511e-05 	-4.144089211e-09
0.9985790633 	0.1513294635 	1.226382355e-05 	-1.837546518e-09
0.9988136411 	0.07629339467 	-2.359071766e-06 	-3.123263677e-10
0.9990482216 	0.03192904605 	-9.259372764e-06 	2.492384711e-10
0.9990482216 	0.03192904605 	-9.259372764e-06 	2.492384711e-10
