3.60871192e-38 	0.04875484038 	-1.940524578e-15 	2.236398255e-18 	-3.021695807e-15 	-1.319300881e-16 	-5.760192044e-18
0.0003187685652 	0.04874547331 	-0.0008682435793 	-3.803363471e-08 	0.05176369871 	-1.374492738e-06 	9.867599672e-05
0.0006375366988 	0.04874694035 	-0.001246542031 	-4.725444764e-08 	0.05190626446 	-1.321733541e-06 	9.894776666e-05
0.0009563044003 	0.0487602387 	-0.001516516323 	-5.394353925e-08 	0.05193196969 	-1.268487541e-06 	9.899676797e-05
0.001275071669 	0.04876957171 	-0.001819545981 	-6.135603947e-08 	0.05195361906 	-1.215149604e-06 	9.903803768e-05
0.001593838505 	0.04878472664 	-0.002143043243 	-6.872589376e-08 	0.05197138281 	-1.16179274e-06 	9.907190034e-05
0.001912604907 	0.04880289231 	-0.002479242973 	-7.566946156e-08 	0.05199205526 	-1.108479613e-06 	9.911130777e-05
0.002231370875 	0.04882424038 	-0.002823894705 	-8.19816116e-08 	0.05201580475 	-1.055179387e-06 	9.915658089e-05
0.002550136408 	0.04884878457 	-0.003174607781 	-8.754480845e-08 	0.05204279838 	-1.001877288e-06 	9.920803826e-05
0.002868901507 	0.04887652901 	-0.003529946305 	-9.228421483e-08 	0.05207311441 	-9.485595277e-07 	9.926582904e-05
0.003187666171 	0.04890745862 	-0.003889012822 	-9.614733931e-08 	0.05210680943 	-8.952122675e-07 	9.933006111e-05
0.003506430399 	0.04894155857 	-0.004251231507 	-9.909359171e-08 	0.05214390949 	-8.418213786e-07 	9.940078414e-05
0.003825194192 	0.04897881259 	-0.004616228826 	-1.010885201e-07 	0.05218442594 	-7.883726925e-07 	9.947801975e-05
0.004143957549 	0.04901920252 	-0.004983763861 	-1.021003927e-07 	0.0522283621 	-7.34852062e-07 	9.956177429e-05
0.00446272047 	0.04906270827 	-0.005353685991 	-1.02098045e-07 	0.05227571632 	-6.812453928e-07 	9.965204458e-05
0.004781482955 	0.04910930793 	-0.005725908187 	-1.010494338e-07 	0.05232648348 	-6.275386699e-07 	9.97488209e-05
0.005100245004 	0.04915897776 	-0.006100389592 	-9.892059666e-08 	0.05238065595 	-5.737179812e-07 	9.985208869e-05
0.005419006617 	0.04921169224 	-0.00647712386 	-9.567484743e-08 	0.05243822416 	-5.197695383e-07 	9.99618297e-05
0.005737767794 	0.04926742402 	-0.006856131173 	-9.127210548e-08 	0.05249917692 	-4.656796949e-07 	0.0001000780226
0.006056528535 	0.04932614399 	-0.007237452672 	-8.566829558e-08 	0.05256350173 	-4.11434965e-07 	0.0001002006436
0.006375288839 	0.04938782125 	-0.007621146553 	-7.881477691e-08 	0.05263118483 	-3.570220452e-07 	0.0001003296664
0.006694048708 	0.04945242334 	-0.00800728535 	-7.065776799e-08 	0.05270221096 	-3.024278369e-07 	0.0001004650619
0.007012808141 	0.04951991649 	-0.008395953713 	-6.113773008e-08 	0.052776563 	-2.476394317e-07 	0.0001006067976
0.007331567139 	0.04959026268 	-0.008787245167 	-5.018869182e-08 	0.05285422793 	-1.926440167e-07 	0.0001007548485
0.007650325701 	0.04966340847 	-0.009181259262 	-3.773762878e-08 	0.0529352185 	-1.374289868e-07 	0.000100909239
0.007969083828 	0.04973929312 	-0.009578134615 	-2.370417219e-08 	0.05301955474 	-8.198266621e-08 	0.0001010700074
0.008287841521 	0.04981812117 	-0.009978164731 	-7.998645127e-09 	0.05310672151 	-2.629486153e-08 	0.0001012361715
0.008437852995 	0.04985701371 	-0.0101679852 	-4.104280198e-07 	0.05314823 	-4.018318319e-05 	0.0001013152982
0.008606598778 	0.04990076752 	-0.01038149097 	-9.896749077e-09 	0.05319493156 	-2.998234167e-08 	0.0001014043243
0.008925355602 	0.04998537553 	-0.01078704366 	-3.006906034e-08 	0.05328795936 	-8.682963008e-08 	0.0001015816612
0.009244111993 	0.05006863293 	-0.0111717011 	-5.202374069e-08 	0.05339194465 	-1.438709426e-07 	0.000101779886
0.00956286795 	0.05016766424 	-0.01143865534 	-7.468058678e-08 	0.05351041031 	-2.012581599e-07 	0.0001020057145
0.0100581404 	0.05029815523 	-0.01152619438 	-1.081435225e-07 	0.05364781949 	-2.910414168e-07 	0.0001022676546
0.01056272042 	0.05044124033 	-0.01152194864 	-1.40764545e-07 	0.05380182862 	-3.833162836e-07 	0.0001025612388
0.01107678291 	0.05058227928 	-0.01151350784 	-1.731302356e-07 	0.05396419514 	-4.778207511e-07 	0.0001028707545
0.01160050605 	0.05072468046 	-0.01151384831 	-2.056015456e-07 	0.05412836726 	-5.747586325e-07 	0.0001031837122
0.01213407137 	0.05086942365 	-0.0115224834 	-2.383012482e-07 	0.05429294094 	-6.742763258e-07 	0.0001034974354
0.01267766381 	0.05101589742 	-0.01153819071 	-2.7126932e-07 	0.05445947311 	-7.763851184e-07 	0.000103814892
0.0132314718 	0.05116404778 	-0.01155987171 	-3.045188013e-07 	0.05462833212 	-8.811258403e-07 	0.0001041367842
0.01379568728 	0.05131395909 	-0.01158668895 	-3.380582794e-07 	0.05479958151 	-9.885558288e-07 	0.0001044632331
0.01437050582 	0.05146569806 	-0.01161794711 	-3.718887136e-07 	0.05497329407 	-1.098734033e-06 	0.0001047943775
0.01495612667 	0.05161931594 	-0.01165305247 	-4.060022667e-07 	0.05514954892 	-1.211719474e-06 	0.0001051303683
0.01555275281 	0.05177485607 	-0.01169149902 	-4.403831832e-07 	0.05532841887 	-1.327571111e-06 	0.0001054713441
0.01616059102 	0.05193235611 	-0.01173285677 	-4.750087081e-07 	0.05550996854 	-1.446347878e-06 	0.0001058174282
0.016779852 	0.05209184852 	-0.01177676127 	-5.098498071e-07 	0.05569425557 	-1.568108512e-06 	0.0001061687305
0.01741075039 	0.0522533615 	-0.01182290528 	-5.448718344e-07 	0.05588133069 	-1.692911448e-06 	0.0001065253477
0.01805350486 	0.05241692482 	-0.01187103082 	-5.800348335e-07 	0.05607122788 	-1.820815278e-06 	0.0001068873445
0.0187083382 	0.05258255605 	-0.01192091829 	-6.152928644e-07 	0.05626399443 	-1.951875395e-06 	0.0001072548112
0.01937547738 	0.05275025062 	-0.0119723803 	-6.50585229e-07 	0.05645970926 	-2.086142343e-06 	0.000107627898
0.02005515364 	0.05292016853 	-0.01202475887 	-6.858148872e-07 	0.0566585289 	-2.223685571e-06 	0.0001080069035
0.02074973487 	0.0530925723 	-0.01207731573 	-7.210991496e-07 	0.05686066079 	-2.365047365e-06 	0.0001083922231
0.02145891096 	0.05326739527 	-0.01213035631 	-7.563815646e-07 	0.05706609939 	-2.510378273e-06 	0.0001087838461
0.02218141421 	0.05344438776 	-0.01218446574 	-7.915085912e-07 	0.05727464297 	-2.659475856e-06 	0.0001091813882
0.02291749506 	0.05362348005 	-0.01223981495 	-8.264608949e-07 	0.05748617554 	-2.812433375e-06 	0.000109584628
0.02366740864 	0.05380469303 	-0.01229644478 	-8.611849531e-07 	0.05770069485 	-2.969358123e-06 	0.0001099935615
0.02443141485 	0.05398803603 	-0.01235432768 	-8.956186012e-07 	0.0579182173 	-3.130356814e-06 	0.0001104082197
0.02520977851 	0.05417351892 	-0.01241344864 	-9.296950523e-07 	0.05813875517 	-3.295537479e-06 	0.0001108286262
0.0260027694 	0.05436115207 	-0.01247380662 	-9.633443108e-07 	0.05836231742 	-3.465011055e-06 	0.000111254798
0.02681066235 	0.05455094708 	-0.01253541321 	-9.964932633e-07 	0.05858890925 	-3.638891208e-06 	0.000111686745
0.02763373738 	0.05474291627 	-0.01259829127 	-1.029065562e-06 	0.05881853381 	-3.817294149e-06 	0.0001121244732
0.02847227976 	0.05493707293 	-0.01266247378 	-1.060981516e-06 	0.05905119235 	-4.00033867e-06 	0.000112567985
0.02932658012 	0.05513343167 	-0.01272800294 	-1.092158003e-06 	0.05928688434 	-4.188146203e-06 	0.0001130172795
0.03019693454 	0.0553320086 	-0.01279492937 	-1.12250836e-06 	0.05952560764 	-4.380840883e-06 	0.0001134723525
0.03108364468 	0.05553282159 	-0.0128633114 	-1.151942267e-06 	0.05976735866 	-4.578549617e-06 	0.0001139331971
0.03198701785 	0.0557358905 	-0.01293321447 	-1.180365607e-06 	0.06001213249 	-4.781402152e-06 	0.000114399804
0.03290736715 	0.05594123737 	-0.01300471055 	-1.20768032e-06 	0.06025992305 	-4.989531146e-06 	0.0001148721617
0.03384501154 	0.05614888657 	-0.01307787769 	-1.233784232e-06 	0.0605107233 	-5.20307224e-06 	0.0001153502567
0.034800276 	0.05635886498 	-0.01315279957 	-1.258570901e-06 	0.0607645254 	-5.422164154e-06 	0.000115834074
0.03577349159 	0.05657120207 	-0.01322956543 	-1.281929556e-06 	0.06102132088 	-5.64694892e-06 	0.0001163235976
0.0367649956 	0.05678593222 	-0.01330826998 	-1.303744946e-06 	0.06128109655 	-5.877572586e-06 	0.0001168188022
0.03777513166 	0.05700309261 	-0.01338901112 	-1.323896197e-06 	0.06154383923 	-6.114184093e-06 	0.0001173196628
0.03880424984 	0.05722270937 	-0.01347189755 	-1.342246798e-06 	0.06180956342 	-6.356930405e-06 	0.000117826207
0.0398527068 	0.05744489575 	-0.01355690415 	-1.358617375e-06 	0.06207834553 	-6.605984397e-06 	0.0001183385804
0.0409222433 	0.05766998875 	-0.01364377598 	-1.353038646e-06 	0.06235045171 	-6.762703972e-06 	0.0001188572904
0.04201573524 	0.05789813976 	-0.01373281742 	-1.279578875e-06 	0.06262601805 	-6.582933889e-06 	0.0001193825964
0.04312977606 	0.05812909435 	-0.01382444464 	-1.206435323e-06 	0.06290472171 	-6.397662284e-06 	0.000119913883
0.04426475185 	0.05836271908 	-0.01391878451 	-1.133856568e-06 	0.06318629859 	-6.206675896e-06 	0.0001204506468
0.04542105599 	0.0585990763 	-0.01401608492 	-1.061968467e-06 	0.06347073491 	-6.009819589e-06 	0.0001209928615
0.04659908922 	0.05883822565 	-0.01411647275 	-9.909035294e-07 	0.06375802677 	-5.806931689e-06 	0.0001215405197
0.04779925982 	0.05908023255 	-0.01422007593 	-9.207985398e-07 	0.06404816447 	-5.597843831e-06 	0.0001220936027
0.04902198374 	0.05932516191 	-0.0143270254 	-8.517967338e-07 	0.06434114402 	-5.382385029e-06 	0.0001226521032
0.05026768475 	0.05957308178 	-0.01443745516 	-7.840476481e-07 	0.06463695977 	-5.160380859e-06 	0.0001232160102
0.05153679457 	0.05982406189 	-0.01455150236 	-7.177077343e-07 	0.06493560655 	-4.931652936e-06 	0.000123785314
0.05282975304 	0.0600781733 	-0.01466930693 	-6.529405079e-07 	0.06523707991 	-4.696018693e-06 	0.000124360006
0.05414700825 	0.06033548757 	-0.01479101132 	-5.899167531e-07 	0.06554137685 	-4.453291079e-06 	0.0001249400806
0.05548901673 	0.06059607633 	-0.01491676074 	-5.288149611e-07 	0.06584849582 	-4.203278346e-06 	0.0001255255347
0.05685624356 	0.06086001353 	-0.01504670695 	-4.698234369e-07 	0.06615843135 	-3.945784794e-06 	0.0001261163579
0.05824916257 	0.06112739391 	-0.01518103038 	-4.131412802e-07 	0.06647113626 	-3.680624622e-06 	0.0001267124604
0.0596682565 	0.06139843431 	-0.01531986341 	-3.589496432e-07 	0.06678647216 	-3.407637766e-06 	0.0001273135783
0.0611150311 	0.0616732891 	-0.01546296525 	-3.073328627e-07 	0.06710523923 	-3.126187676e-06 	0.0001279212369
0.06259447225 	0.0619518099 	-0.01560780361 	-2.579210878e-07 	0.06742845716 	-2.834552382e-06 	0.0001285373801
0.0641017149 	0.06227049916 	-0.01575759418 	-2.067401872e-07 	0.06779564423 	-2.536982684e-06 	0.0001292373407
0.0664155543 	0.06266378683 	-0.01592241016 	-1.413791566e-07 	0.06824350225 	-2.068592648e-06 	0.0001300910826
0.0687552027 	0.06308955718 	-0.0161027866 	-8.540434076e-08 	0.06872555999 	-1.590329306e-06 	0.0001310100186
0.07112094796 	0.06351217354 	-0.01629763063 	-4.337693565e-08 	0.06920188428 	-1.099857223e-06 	0.0001319180251
0.07351308118 	0.06393269623 	-0.01650812541 	-1.53126587e-08 	0.06967196834 	-5.973433177e-07 	0.000132814136
0.07593189667 	0.06435167971 	-0.01673357977 	-1.014986801e-09 	0.07013611542 	-8.282090721e-08 	0.0001336989293
0.076319773 	0.06441791216 	-0.01677157429 	2.072183446e-06 	0.07020887208 	-1.254903625e-05 	0.0001338376237
0.07837769205 	0.06476945355 	-0.01697328209 	1.209174303e-11 	0.07059512074 	-4.494285464e-07 	0.000134573921
0.08085076825 	0.06518667912 	-0.01722649704 	1.274333753e-08 	0.07104964484 	-9.948963639e-07 	0.0001354403703
0.08336052852 	0.06560403441 	-0.01749307828 	3.934732117e-08 	0.07150041818 	-1.555130461e-06 	0.0001362996696
0.0858992737 	0.0660213476 	-0.01777251811 	7.985371926e-08 	0.07194727909 	-2.127409317e-06 	0.0001371515107
0.0884663388 	0.06643840469 	-0.01806388412 	1.342486529e-07 	0.07238995397 	-2.711383281e-06 	0.000137995372
0.09106203972 	0.06685530316 	-0.01836679662 	2.025782516e-07 	0.07282855977 	-3.307010481e-06 	0.0001388314766
0.0936866959 	0.0672721282 	-0.0186808464 	2.849152897e-07 	0.07326321719 	-3.91424744e-06 	0.0001396600544
0.09634063034 	0.06768892215 	-0.01900565173 	3.813573557e-07 	0.0736939973 	-4.533041291e-06 	0.000140481241
0.09902416965 	0.06810575297 	-0.01934087538 	4.920354292e-07 	0.07412098128 	-5.163337187e-06 	0.0001412951912
0.1017393693 	0.06852296474 	-0.01968631822 	6.172112136e-07 	0.0745445015 	-5.805602186e-06 	0.0001421025384
0.1044931515 	0.06894070127 	-0.02004207575 	7.573157804e-07 	0.07496474534 	-6.461302297e-06 	0.00014290364
0.1072776549 	0.06935840183 	-0.02040758629 	9.122267748e-07 	0.0753811666 	-7.12776599e-06 	0.0001436974547
0.1100932221 	0.0697755997 	-0.02078212551 	1.081977557e-06 	0.07579327404 	-7.804769338e-06 	0.000144483046
0.1129401996 	0.07019207195 	-0.02116547224 	1.2667269e-06 	0.07620086761 	-8.492117573e-06 	0.0001452600326
0.115818938 	0.07060754033 	-0.02155732417 	1.466625669e-06 	0.07660371782 	-9.189587488e-06 	0.0001460279771
0.1187297916 	0.07102172809 	-0.02195740763 	1.502016716e-06 	0.07700154051 	-8.838722822e-06 	0.0001467863377
0.1216740008 	0.07143461956 	-0.02236558913 	1.488628696e-06 	0.0773942807 	-8.260852028e-06 	0.0001475350096
0.1246600133 	0.07184607194 	-0.02278204834 	1.460259479e-06 	0.07778181112 	-7.668733648e-06 	0.0001482737503
0.1276793401 	0.07225522789 	-0.02320619008 	1.417251165e-06 	0.07816330061 	-7.065802714e-06 	0.0001490009753
0.130732353 	0.07266129627 	-0.02363721528 	1.359343352e-06 	0.0785379282 	-6.452162684e-06 	0.0001497151196
0.1338194279 	0.07306370906 	-0.02407487807 	1.286430436e-06 	0.07890514665 	-5.82802085e-06 	0.0001504151401
0.1369409448 	0.07346184632 	-0.02451885741 	1.198394267e-06 	0.07926434866 	-5.193618201e-06 	0.0001510998789
0.1400972879 	0.07385521198 	-0.02496888358 	1.095136375e-06 	0.07961496811 	-4.549249195e-06 	0.0001517682571
0.1432941265 	0.07424336507 	-0.02542500869 	9.761878991e-07 	0.07995651778 	-3.893683019e-06 	0.0001524193457
0.1465309181 	0.07462544759 	-0.02588694503 	8.415883896e-07 	0.08028812983 	-3.228180967e-06 	0.0001530514904
0.1498038247 	0.07500032022 	-0.02635385445 	6.915243506e-07 	0.08060863402 	-2.554612224e-06 	0.0001536624605
0.1531132491 	0.07536696668 	-0.02682517365 	5.259020337e-07 	0.08091699033 	-1.873493685e-06 	0.0001542502733
0.1564595988 	0.07572442717 	-0.02730053343 	3.446555955e-07 	0.0812122109 	-1.185412898e-06 	0.0001548130457
0.1598432858 	0.07607180475 	-0.02777958637 	1.477184146e-07 	0.08149329532 	-4.910205746e-07 	0.0001553488708
0.1622451615 	0.07630765695 	-0.02811796052 	1.503242943e-06 	0.08167975353 	-1.912598923e-05 	0.000155704312
0.1632691727 	0.07640827563 	-0.02826230047 	6.638691025e-08 	0.0817593262 	-2.127343753e-07 	0.0001558559996
0.166738053 	0.07673270763 	-0.02874836493 	2.991369362e-07 	0.08200912566 	-9.279330681e-07 	0.0001563321868
0.1702456402 	0.07704356886 	-0.02923681637 	5.478110685e-07 	0.08224102891 	-1.646105711e-06 	0.0001567742588
0.1737923664 	0.07733949138 	-0.02972696705 	8.124772259e-07 	0.08245358389 	-2.366247707e-06 	0.0001571794477
0.1773786681 	0.07761915208 	-0.03021833893 	1.09324063e-06 	0.08264534855 	-3.087263492e-06 	0.0001575450044
0.1810049869 	0.07788129426 	-0.03071055307 	1.390255701e-06 	0.08281485672 	-3.807947665e-06 	0.0001578681341
0.1846789635 	0.07812458761 	-0.03120348754 	1.704303331e-06 	0.0829605674 	-4.528507369e-06 	0.0001581458992
0.1883955412 	0.07834734533 	-0.03169637106 	2.034625808e-06 	0.08308065467 	-5.245210625e-06 	0.0001583748189
0.1921535922 	0.07854783107 	-0.03218816181 	2.380757494e-06 	0.08317323564 	-5.955764834e-06 	0.0001585513039
0.1959535793 	0.07872435741 	-0.03267822858 	2.742088927e-06 	0.08323646363 	-6.658077313e-06 	0.0001586718341
0.1997959703 	0.07887521456 	-0.03316605374 	3.117631933e-06 	0.08326844234 	-7.349884052e-06 	0.0001587327944
0.2036854422 	0.07899860868 	-0.03365139905 	3.506595752e-06 	0.08326717629 	-8.029768357e-06 	0.0001587303809
0.207622447 	0.0790925432 	-0.03413376907 	3.907678858e-06 	0.08323055074 	-8.694936922e-06 	0.0001586605624
0.211603387 	0.07915493081 	-0.03461229947 	4.320533532e-06 	0.08315639875 	-9.343022722e-06 	0.0001585192081
0.2156287526 	0.07918374081 	-0.03508640467 	4.747705669e-06 	0.0830424487 	-9.973367582e-06 	0.0001583019877
0.2196990393 	0.07917699823 	-0.0355556807 	4.730982955e-06 	0.0828861748 	-9.640503128e-06 	0.0001580040862
0.2238186833 	0.07913284859 	-0.03601959621 	4.511368019e-06 	0.08268451613 	-8.895439535e-06 	0.0001576196687
0.2279881991 	0.07905059884 	-0.03647421715 	4.279024781e-06 	0.08243196365 	-8.148486041e-06 	0.0001571382335
0.232204247 	0.07892502248 	-0.03690549538 	4.008444802e-06 	0.08213184172 	-7.43155078e-06 	0.0001565661177
0.236467346 	0.07874754399 	-0.03727782658 	3.646330366e-06 	0.08179255696 	-6.729261499e-06 	0.0001559193466
0.2407780212 	0.07852091196 	-0.03754233185 	3.191555905e-06 	0.08139668553 	-5.980584323e-06 	0.0001551647057
0.2451424756 	0.07824555374 	-0.03768563496 	2.758346893e-06 	0.08093328731 	-5.254845799e-06 	0.0001542813399
0.2495572744 	0.07791012331 	-0.03774533123 	2.410846023e-06 	0.08042122528 	-4.585595553e-06 	0.0001533052073
0.2540213442 	0.07751343379 	-0.03776180213 	2.100050144e-06 	0.07985906471 	-3.914286792e-06 	0.000152233573
0.2585352349 	0.07706035316 	-0.03774968692 	1.789498448e-06 	0.07923074289 	-3.252899535e-06 	0.000151035817
0.2631015014 	0.0765482931 	-0.03770915486 	1.475612047e-06 	0.0785340043 	-2.619986789e-06 	0.0001497076396
0.2677235003 	0.07597322452 	-0.03763737258 	1.160040919e-06 	0.07776905019 	-2.01209633e-06 	0.0001482494245
0.2723970843 	0.07533282986 	-0.0375317834 	8.459766091e-07 	0.07693374018 	-1.432906161e-06 	0.0001466570914
0.2771228288 	0.07462471653 	-0.03739016055 	5.353318639e-07 	0.07602581847 	-8.849691991e-07 	0.0001449263403
0.2819015435 	0.07384602161 	-0.03721014038 	2.300056621e-07 	0.07504263077 	-3.708045283e-07 	0.0001430521113
0.2856242117 	0.07319024919 	-0.03704014914 	8.574477276e-06 	0.07422610345 	-2.33568172e-05 	0.0001414955833
0.2867395923 	0.07299371589 	-0.03698921548 	6.885031227e-08 	0.0739813829 	-1.078393569e-07 	0.0001410290779
0.2916316387 	0.07206536243 	-0.03672484829 	3.59595348e-07 	0.07284007413 	-5.480239083e-07 	0.0001388534261
0.2965782851 	0.07105838681 	-0.03641429976 	6.37826815e-07 	0.07161663139 	-9.441971411e-07 	0.0001365212042
0.3015801405 	0.06996974329 	-0.03605466614 	9.014014456e-07 	0.07030846405 	-1.293397898e-06 	0.0001340274737
0.3066433776 	0.0687961941 	-0.03564283739 	1.148196556e-06 	0.06891285653 	-1.592622379e-06 	0.0001313670579
0.3117632607 	0.06753530139 	-0.03517577707 	1.375240335e-06 	0.06742812152 	-1.837636279e-06 	0.0001285367403
0.3169402875 	0.06618469307 	-0.03465035899 	1.580322398e-06 	0.06585264348 	-2.025159051e-06 	0.0001255334413
0.322175596 	0.06474291367 	-0.03406319878 	1.761317268e-06 	0.06418575147 	-2.152026437e-06 	0.0001223558818
0.3274740002 	0.0632101655 	-0.0334107426 	1.9159976e-06 	0.06242864882 	-2.21465443e-06 	0.0001190063558
0.3328315415 	0.06158621962 	-0.03268959826 	2.041575972e-06 	0.06058228631 	-2.207679463e-06 	0.0001154866757
0.3382488795 	0.05986899174 	-0.03189606183 	2.135396949e-06 	0.0586457111 	-2.125789686e-06 	0.0001117950251
0.3437284601 	0.0580563617 	-0.03102589495 	2.194326626e-06 	0.05661723908 	-1.962384683e-06 	0.0001079281936
0.3492720762 	0.05614637683 	-0.03009122663 	2.144839242e-06 	0.05449838511 	-1.711135359e-06 	0.0001038890691
0.3548775666 	0.05412919429 	-0.02906921296 	2.138438686e-06 	0.05229807362 	-1.370543035e-06 	9.969466381e-05
0.3605456212 	0.05198443282 	-0.02790390416 	2.1609624e-06 	0.05002152947 	-9.682660599e-07 	9.535493794e-05
0.3662803549 	0.04970113576 	-0.02663518056 	2.040661508e-06 	0.04765887269 	-5.338270231e-07 	9.085105744e-05
0.3720798471 	0.04728949567 	-0.02532285297 	1.891896098e-06 	0.0452018795 	-6.884578287e-08 	8.616734553e-05
0.3779440693 	0.04477183211 	-0.02397040118 	1.713368199e-06 	0.04265676738 	4.30935043e-07 	8.131565446e-05
0.3838752086 	0.04217481763 	-0.02258320332 	1.464016586e-06 	0.04003714556 	9.764154789e-07 	7.632192719e-05
0.3898747874 	0.03952451993 	-0.0211664629 	1.090069126e-06 	0.03735679794 	1.486033966e-06 	7.121243967e-05
0.3959413294 	0.03683544165 	-0.0196780469 	4.273933524e-07 	0.03462901633 	1.961186831e-06 	6.601252977e-05
0.4020759105 	0.03410476125 	-0.01809296737 	-2.218571331e-07 	0.03186881378 	2.365183907e-06 	6.075081655e-05
0.4082819033 	0.0313307902 	-0.01644117896 	-6.574156862e-07 	0.02909982415 	2.663859679e-06 	5.547235272e-05
0.4145571631 	0.02853197372 	-0.01473794546 	-1.087588424e-06 	0.02635646128 	2.843932199e-06 	5.024274061e-05
0.4209024622 	0.02575041136 	-0.01300370457 	-1.394966951e-06 	0.02366024337 	2.931993782e-06 	4.510299988e-05
0.4273212302 	0.02302301922 	-0.01126736126 	-1.584919213e-06 	0.02106249543 	2.89157385e-06 	4.015097031e-05
0.4338118585 	0.02038681516 	-0.009494922168 	-1.685712739e-06 	0.01863376695 	2.718131931e-06 	3.55211388e-05
0.4403749295 	0.01792157339 	-0.007620814431 	-1.702703612e-06 	0.01637149321 	2.499351957e-06 	3.120861628e-05
0.4470133871 	0.01568800733 	-0.0057629173 	-1.558319618e-06 	0.01431322052 	2.221136612e-06 	2.728497647e-05
0.4537262956 	0.01371388353 	-0.004162103745 	-1.260939978e-06 	0.01254661604 	1.863269029e-06 	2.391733733e-05
0.460514127 	0.01204342378 	-0.002906775757 	-9.456779045e-07 	0.01107358097 	1.499400712e-06 	2.110932306e-05
0.4673796373 	0.01069338841 	-0.00194027802 	-6.897978805e-07 	0.009874212035 	1.158294314e-06 	1.882299253e-05
0.4743220061 	0.009640764401 	-0.001189318137 	-4.941453337e-07 	0.008940933264 	8.517344854e-07 	1.704390381e-05
0.4813419013 	0.008849252493 	-0.0005978553017 	-3.469742668e-07 	0.008244472931 	5.999263079e-07 	1.571625684e-05
0.4884419439 	0.00827575741 	-0.0001260475227 	-2.382371607e-07 	0.007746033785 	4.056035563e-07 	1.476609329e-05
0.4956212291 	0.007877746638 	0.0002551645983 	-1.599239038e-07 	0.007406059422 	2.634282747e-07 	1.411800767e-05
0.5028008937 	0.007615504283 	0.000566102637 	-1.04862908e-07 	0.007187449753 	1.663901801e-07 	1.370127688e-05
0.5099024955 	0.007454160539 	0.0008224537139 	-6.702918597e-08 	0.007057750612 	1.020159749e-07 	1.345403427e-05
0.5169257377 	0.007367207824 	0.001037349153 	-4.131096858e-08 	0.006993243893 	5.834287384e-08 	1.333106653e-05
0.5238719808 	0.007334056635 	0.001221066717 	-2.428158622e-08 	0.006975744373 	3.05393059e-08 	1.329770758e-05
0.5307422839 	0.00733831726 	0.001381530629 	-1.348758116e-08 	0.006990494346 	1.4172449e-08 	1.332582513e-05
0.5375367778 	0.007368137629 	0.00152464046 	-6.857388995e-09 	0.007026947673 	4.940495357e-09 	1.33953153e-05
0.5442567658 	0.007415257702 	0.001654785921 	-2.974495302e-09 	0.0070779073 	1.039445893e-10 	1.349245852e-05
0.5509030776 	0.007473951837 	0.001775208648 	-8.489436392e-10 	0.007138485189 	-2.0683276e-09 	1.360793681e-05
0.5574760505 	0.00754027573 	0.001888272487 	1.882788054e-10 	0.007205367536 	-2.668557168e-09 	1.373543315e-05
0.5639768449 	0.007611534406 	0.00199570545 	5.651619297e-10 	0.007276316504 	-2.379582872e-09 	1.38706816e-05
0.5704062841 	0.007685900372 	0.00209875964 	5.447868388e-10 	0.007349823454 	-1.630551033e-09 	1.401080628e-05
0.5767647764 	0.007762144872 	0.002198345859 	2.801717474e-10 	0.007424882907 	-6.837242506e-10 	1.415389046e-05
0.5811455924 	0.007816006127 	0.002265785804 	9.544833326e-07 	0.007477796822 	-6.578182638e-08 	1.425475909e-05
0.5830533074 	0.007839461604 	0.002295153074 	1.574448313e-10 	0.007500839306 	-2.998511068e-10 	1.429868447e-05
0.5892728019 	0.007917339585 	0.002389709522 	7.349715289e-10 	0.007577277002 	-1.212784833e-09 	1.444439596e-05
0.5954236652 	0.007995471573 	0.002482429936 	1.407270407e-09 	0.007653952037 	-2.003129628e-09 	1.459055989e-05
0.6015067106 	0.008073700979 	0.002573665982 	2.171228318e-09 	0.007730746903 	-2.641536266e-09 	1.473695225e-05
0.6075229967 	0.008151980163 	0.002663724037 	3.026617978e-09 	0.007807632974 	-3.108503256e-09 	1.488351847e-05
0.6134728931 	0.008230335715 	0.002752871548 	3.976312626e-09 	0.007884644988 	-3.395154313e-09 	1.503032477e-05
0.6193571321 	0.00830885118 	0.00284135959 	5.025822489e-09 	0.007961870167 	-3.500313717e-09 	1.517753743e-05
0.6251766857 	0.008387653321 	0.002929431054 	6.17804824e-09 	0.008039432951 	-3.424430063e-09 	1.532539365e-05
0.630932088 	0.008466897048 	0.003017312377 	7.431338579e-09 	0.008117481316 	-3.169179774e-09 	1.547417553e-05
0.6366239785 	0.008546756732 	0.003105219685 	8.786119971e-09 	0.008196185363 	-2.74086599e-09 	1.562420731e-05
0.6422531291 	0.008627421786 	0.003193368739 	1.024034411e-08 	0.008275730865 	-2.146625118e-09 	1.577584315e-05
0.6478203216 	0.008709090209 	0.00328196425 	1.178378941e-08 	0.008356311073 	-1.393710563e-09 	1.592945142e-05
0.6533260787 	0.008791961318 	0.003371194137 	1.340557355e-08 	0.008438123823 	-4.921103293e-10 	1.608540926e-05
0.6587710783 	0.008876233244 	0.003461234206 	1.509211437e-08 	0.008521371523 	5.469355154e-10 	1.624410252e-05
0.6641561061 	0.00896210018 	0.003552242051 	1.682151485e-08 	0.008606256317 	1.711526861e-09 	1.640591653e-05
0.6694817605 	0.00904974685 	0.003644337945 	1.855804534e-08 	0.008692975459 	2.988231252e-09 	1.657122731e-05
0.6747486444 	0.009139344069 	0.00373758932 	2.025771668e-08 	0.008781723191 	4.363347145e-09 	1.674040516e-05
0.6799574061 	0.009231046171 	0.003831991335 	2.185653207e-08 	0.008872691598 	5.82388714e-09 	1.691381622e-05
0.6851087964 	0.009324987126 	0.003927420427 	2.325746682e-08 	0.008966069625 	7.356670824e-09 	1.70918207e-05
0.6902033484 	0.009421272883 	0.00402356503 	2.43248102e-08 	0.009062047502 	8.94902104e-09 	1.727478121e-05
0.6952416799 	0.009519978518 	0.004119846772 	2.488841405e-08 	0.009160823331 	1.059147303e-08 	1.746307539e-05
0.7002244109 	0.009621147135 	0.004215340957 	2.475447085e-08 	0.009262609935 	1.229815688e-08 	1.765710895e-05
0.7051522365 	0.009724724572 	0.004308861747 	2.379023531e-08 	0.009367777334 	1.41410044e-08 	1.785758724e-05
0.7100256822 	0.009831037079 	0.00439909056 	2.18560575e-08 	0.009475920532 	1.594352382e-08 	1.806373823e-05
0.714845347 	0.009939879967 	0.004485378754 	2.005633891e-08 	0.009587740276 	1.840015162e-08 	1.827689774e-05
0.7196118242 	0.01005094275 	0.004571536662 	1.943775803e-08 	0.009704506824 	2.139998097e-08 	1.849948723e-05
0.7243257496 	0.01016600076 	0.004643857101 	1.224495148e-08 	0.009824302943 	2.27482307e-08 	1.872785193e-05
0.7289876612 	0.0102865687 	0.004701110318 	5.651249979e-09 	0.009947304451 	2.376221855e-08 	1.896232699e-05
0.733598126 	0.01041256806 	0.004760327787 	7.001962587e-09 	0.01007654204 	2.649572942e-08 	1.920868975e-05
0.7381577117 	0.01054478451 	0.004822436356 	8.512573461e-09 	0.01021211566 	2.952885287e-08 	1.946713075e-05
0.7426670004 	0.01068415957 	0.004887675726 	1.017019935e-08 	0.0103538122 	3.272158236e-08 	1.973724374e-05
0.7471265425 	0.01083100254 	0.004956310859 	1.198345373e-08 	0.0105026328 	3.65700929e-08 	2.002093718e-05
0.7515368708 	0.0109858378 	0.00502860104 	1.394257609e-08 	0.01065915812 	4.070260294e-08 	2.031931794e-05
0.7558985284 	0.01114921361 	0.005104813827 	1.604964493e-08 	0.01082398535 	4.510863418e-08 	2.063352445e-05
0.7602120532 	0.01132170873 	0.005185224863 	1.830973032e-08 	0.01099772022 	4.979433762e-08 	2.09647114e-05
0.7644779982 	0.01150392585 	0.005270115293 	2.072816645e-08 	0.0111809707 	5.476910186e-08 	2.131403775e-05
0.7686968657 	0.01169648072 	0.005359767819 	2.331126519e-08 	0.01137433975 	6.004898094e-08 	2.168265291e-05
0.7728691753 	0.01189998883 	0.005454462918 	2.606773026e-08 	0.0115784221 	6.566812779e-08 	2.207169059e-05
0.7769954407 	0.01211505023 	0.005554474835 	2.900681426e-08 	0.01179380105 	7.167460503e-08 	2.248226271e-05
0.781076174 	0.01234223344 	0.005660066124 	3.21354789e-08 	0.01202104051 	7.811218742e-08 	2.291544428e-05
0.7851118841 	0.01258205439 	0.005771478461 	3.545106364e-08 	0.01226066629 	8.499234198e-08 	2.337223763e-05
0.7891030575 	0.01283494303 	0.005888916585 	3.893899758e-08 	0.01251313089 	9.228361668e-08 	2.385350532e-05
0.7930501855 	0.01310120081 	0.006012526481 	4.256901832e-08 	0.01277876203 	9.990323308e-08 	2.435987211e-05
0.7969537543 	0.01338097901 	0.006142383068 	4.630405843e-08 	0.01305773136 	1.077438397e-07 	2.489166519e-05
0.8008142465 	0.01367431364 	0.006278505393 	5.011988329e-08 	0.01335008521 	1.157288574e-07 	2.544897287e-05
0.804632142 	0.01398119863 	0.006420891312 	5.401129078e-08 	0.01365582076 	1.238366148e-07 	2.603178981e-05
0.8084079044 	0.01430164163 	0.006569545259 	5.799003047e-08 	0.01397495003 	1.321003264e-07 	2.664013889e-05
0.8121419985 	0.01463567943 	0.006724486809 	6.207382434e-08 	0.01430752077 	1.405795938e-07 	2.727411115e-05
0.8158348843 	0.01498336724 	0.006885745997 	6.627890902e-08 	0.01465360698 	1.493336999e-07 	2.793384767e-05
0.8194870164 	0.01534476061 	0.007053354317 	7.061825519e-08 	0.01501328857 	1.584066224e-07 	2.861950075e-05
0.823098849 	0.01571989874 	0.007227335433 	7.509938603e-08 	0.01538662834 	1.678156043e-07 	2.933119011e-05
0.8266708229 	0.01610878934 	0.007407696812 	7.972624291e-08 	0.01577365142 	1.775561244e-07 	3.006896367e-05
0.8302033774 	0.01651139573 	0.007594423102 	8.450464137e-08 	0.01617432996 	1.876212156e-07 	3.083276832e-05
0.8336969477 	0.01692762585 	0.007787471172 	8.944005074e-08 	0.01658857237 	1.98006151e-07 	3.162242949e-05
0.8371519639 	0.01735732297 	0.007986766845 	9.45376443e-08 	0.0170162184 	2.087157845e-07 	3.243764169e-05
0.8405688521 	0.0178002597 	0.00819220341 	9.98016199e-08 	0.01745703835 	2.197647452e-07 	3.327796703e-05
0.8439480343 	0.0182561362 	0.008403641673 	1.052304633e-07 	0.01791073465 	2.311630416e-07 	3.414283827e-05
0.8472899247 	0.01872458211 	0.008620911344 	1.108220524e-07 	0.018376946 	2.42920266e-07 	3.503156669e-05
0.8505949349 	0.01920516226 	0.008843813548 	1.165726815e-07 	0.01885525239 	2.550372842e-07 	3.594335159e-05
0.853863472 	0.01969738392 	0.009072123749 	1.224748287e-07 	0.01934518034 	2.674990901e-07 	3.687729045e-05
0.8570959383 	0.02020070253 	0.009305594356 	1.285162764e-07 	0.01984620865 	2.802751098e-07 	3.783238966e-05