0.3362433877 	1.345797368e-06 	-9.419908429e-09 	2.188068958e-14 	1.336509034e-06 	-2.000202897e-12 	2.547757683e-09
0.3363017955 	6.339015435e-06 	-1.574587419e-07 	-6.4634655e-09 	6.214612841e-06 	2.12974476e-07 	1.184677934e-08
0.3364356309 	1.780634377e-05 	-4.974166594e-07 	3.840321097e-12 	1.741762761e-05 	-9.07364873e-11 	3.320283921e-08
0.3366277463 	0.0001035856543 	-6.691570275e-06 	1.384499407e-10 	9.86133501e-05 	-1.361332968e-09 	1.879844535e-07
0.3368198693 	0.0003553477198 	-4.129048658e-05 	1.397795975e-09 	0.0003252070529 	-7.291548781e-09 	6.199350295e-07
0.3370119991 	0.0008921008828 	-0.0001588716659 	7.274220845e-09 	0.0007770050514 	-2.339382444e-08 	1.481187585e-06
0.3372041348 	0.001817765002 	-0.0004403688969 	2.43778199e-08 	0.001499664457 	-5.421530566e-08 	2.858777265e-06
0.3373962757 	0.003172446564 	-0.0009559781578 	5.925112421e-08 	0.002483316972 	-9.984068475e-08 	4.733892352e-06
0.3375884208 	0.004902676583 	-0.001721219816 	1.130463891e-07 	0.003665547596 	-1.551115136e-07 	6.987552504e-06
0.3377805694 	0.006843495147 	-0.0025641878 	1.481999182e-07 	0.00500262446 	-2.262257734e-07 	9.536392628e-06
0.3379727207 	0.008851876596 	-0.00334759713 	1.70754034e-07 	0.006446459012 	-3.087140577e-07 	1.228874258e-05
0.3381648737 	0.01087173673 	-0.004111031628 	2.152618381e-07 	0.007916425266 	-3.870380645e-07 	1.509090681e-05
0.3383570277 	0.01284852805 	-0.004859568705 	2.59143564e-07 	0.009356038551 	-4.613972454e-07 	1.783520985e-05
0.3385491818 	0.01473524353 	-0.005577659737 	3.022840846e-07 	0.01072702338 	-5.266551335e-07 	2.044868798e-05
0.3387413353 	0.01650005891 	-0.006259733769 	3.469718077e-07 	0.01200157349 	-5.780460568e-07 	2.287833473e-05
0.3389334873 	0.01812245524 	-0.006907882251 	3.957881861e-07 	0.01315820097 	-6.088629345e-07 	2.508318817e-05
0.3391256369 	0.01958836753 	-0.007526838274 	4.490768514e-07 	0.01417954968 	-6.122314829e-07 	2.703016268e-05
0.3393177834 	0.0208866245 	-0.008119185383 	5.034035502e-07 	0.01505264463 	-5.823305402e-07 	2.869452433e-05
0.3395099259 	0.02200851093 	-0.008683762555 	5.528224707e-07 	0.01576965977 	-5.155068174e-07 	3.006135447e-05
0.3397020636 	0.02294975125 	-0.009217944139 	5.919194041e-07 	0.01632826317 	-4.105101126e-07 	3.11262078e-05
0.3398941957 	0.02370012494 	-0.009687274801 	5.142780591e-07 	0.0167428973 	-3.049525908e-07 	3.19166157e-05
0.3400863214 	0.02420958896 	-0.009930922444 	3.782360048e-07 	0.01707835808 	-1.932945515e-07 	3.255609719e-05
0.3402784399 	0.02450820234 	-0.009977351659 	2.972683031e-07 	0.01734451877 	-4.112545087e-08 	3.306347344e-05
0.3404705503 	0.02467450286 	-0.009984219848 	2.03679018e-07 	0.01750735911 	1.369629874e-07 	3.337389239e-05
0.3406626518 	0.02472277987 	-0.00995453817 	9.786789682e-08 	0.01757870186 	3.395599048e-07 	3.350989149e-05
0.3408547436 	0.02466510654 	-0.009891340779 	-1.959615413e-08 	0.01756833655 	5.644238863e-07 	3.349013233e-05
0.3410468249 	0.02451253596 	-0.009797688471 	-1.481521214e-07 	0.01748517031 	8.090307818e-07 	3.333159437e-05
0.3412388949 	0.02427536406 	-0.00967652538 	-2.872297492e-07 	0.01733739665 	1.070630932e-06 	3.304989669e-05
0.3414309528 	0.02396319146 	-0.009530624779 	-4.362399121e-07 	0.01713260943 	1.346325924e-06 	3.265951533e-05
0.3416229978 	0.02358497216 	-0.009362571917 	-5.945729112e-07 	0.01687784905 	1.633091175e-06 	3.217387125e-05
0.341815029 	0.02314898172 	-0.009174794192 	-7.616361319e-07 	0.01657975459 	1.927915863e-06 	3.160562034e-05
0.3420070457 	0.02259189044 	-0.008939025229 	-9.573896379e-07 	0.01619596368 	2.258942266e-06 	3.087400821e-05
0.3423053646 	0.02182069437 	-0.008617136248 	-1.225873723e-06 	0.01566128239 	2.699076552e-06 	2.985475706e-05
0.3426092492 	0.02088616688 	-0.008230805356 	-1.522093911e-06 	0.01501024999 	3.165020577e-06 	2.861370837e-05
0.3429187992 	0.01987999244 	-0.007817468496 	-1.791893611e-06 	0.014307823 	3.596205635e-06 	2.727468729e-05
0.343234116 	0.01883029196 	-0.007389501101 	-2.024820931e-06 	0.01357382759 	3.971744834e-06 	2.587548804e-05
0.3435553022 	0.01775971402 	-0.006954556164 	-2.241314092e-06 	0.01282551743 	4.287604535e-06 	2.444900089e-05
0.3438824622 	0.01668717045 	-0.006517648398 	-2.438234016e-06 	0.01207828064 	4.528423859e-06 	2.302455989e-05
0.3442157019 	0.01563303345 	-0.00608582425 	-2.589908954e-06 	0.01134778949 	4.66785368e-06 	2.163204072e-05
0.3445551286 	0.01461875779 	-0.005668164793 	-2.66917467e-06 	0.01064976653 	4.681910055e-06 	2.030141496e-05
0.3449008511 	0.01366598741 	-0.005275189108 	-2.649436904e-06 	0.009999551694 	4.549556787e-06 	1.906192476e-05
0.3452529799 	0.01279589696 	-0.004917574303 	-2.515666987e-06 	0.009410719956 	4.268804123e-06 	1.793944781e-05
0.3456116268 	0.01202567411 	-0.004605146685 	-2.255064291e-06 	0.008897600631 	3.775207559e-06 	1.696129976e-05
0.3459769053 	0.01136417067 	-0.00434483116 	-1.895965104e-06 	0.008475105118 	3.08192483e-06 	1.615590589e-05
0.3463489302 	0.01079174557 	-0.004077000405 	-2.708392588e-06 	0.008154869868 	2.165736893e-06 	1.55454485e-05
0.346727818 	0.01027450975 	-0.00372330424 	-3.686800572e-06 	0.007932964524 	1.298226744e-06 	1.512243524e-05
0.3471136864 	0.009817776726 	-0.003347886503 	-3.419280983e-06 	0.007783980616 	6.246650422e-07 	1.48384305e-05
0.3475066549 	0.009435433249 	-0.003025906703 	-3.090641999e-06 	0.007688797783 	-1.911319837e-08 	1.465698556e-05
0.347906844 	0.009121307496 	-0.002746625173 	-2.666645102e-06 	0.00763857593 	-5.863542319e-07 	1.456124876e-05
0.348314376 	0.008867552956 	-0.00250512343 	-2.190348603e-06 	0.007628074827 	-1.124196519e-06 	1.454123073e-05
0.3487293745 	0.008665126337 	-0.002301200536 	-1.726970162e-06 	0.00765783958 	-1.622679999e-06 	1.459797063e-05
0.3491519642 	0.008506439902 	-0.002129388391 	-1.399486168e-06 	0.007726042729 	-2.056785148e-06 	1.472798478e-05
0.3495822713 	0.008382836127 	-0.001977724004 	-1.209367701e-06 	0.007827852363 	-2.379900461e-06 	1.492206224e-05
0.3500204234 	0.008286414445 	-0.001839421737 	-1.043664511e-06 	0.007955729937 	-2.588606053e-06 	1.516583244e-05
0.3504665492 	0.008211188304 	-0.001713831947 	-8.857040791e-07 	0.008102991 	-2.711475067e-06 	1.544655296e-05
0.3509207785 	0.008152368831 	-0.00159962118 	-7.526137435e-07 	0.008264739098 	-2.769589028e-06 	1.575488979e-05
0.3513845503 	0.008105785449 	-0.001494514866 	-6.414670803e-07 	0.008438942644 	-2.779396812e-06 	1.608697016e-05
0.3518696828 	0.008068185261 	-0.001396118135 	-5.476920478e-07 	0.008624452765 	-2.745904326e-06 	1.644060401e-05
0.3523637086 	0.008037584297 	-0.001303542336 	-4.699022263e-07 	0.008817980831 	-2.678195603e-06 	1.68095223e-05
0.3528667873 	0.008012331931 	-0.001216478512 	-4.05760404e-07 	0.009016734149 	-2.580674062e-06 	1.718840136e-05
0.3533790813 	0.007990888399 	-0.001133719632 	-3.526715833e-07 	0.009219419621 	-2.4574068e-06 	1.75747762e-05
0.3539007558 	0.007972045544 	-0.001054253634 	-3.083653913e-07 	0.009425041183 	-2.311539818e-06 	1.796674805e-05
0.354431979 	0.007954850162 	-0.0009772063009 	-2.708599875e-07 	0.009632813696 	-2.145477722e-06 	1.836282021e-05
0.3549729218 	0.007938546953 	-0.0009018162942 	-2.384065069e-07 	0.009842106385 	-1.961110173e-06 	1.876179024e-05
0.3555237583 	0.007922528865 	-0.0008274159694 	-2.09440151e-07 	0.01005241524 	-1.759935464e-06 	1.916269736e-05
0.3560846653 	0.007906302015 	-0.0007534137924 	-1.825363009e-07 	0.01026333795 	-1.543147074e-06 	1.956477469e-05
0.3566558229 	0.007889459279 	-0.0006792796859 	-1.563724821e-07 	0.0104745551 	-1.311693584e-06 	1.996741328e-05
0.3572374142 	0.007871660009 	-0.0006045326066 	-1.296945904e-07 	0.01068581626 	-1.066318946e-06 	2.037013577e-05
0.3578296256 	0.007852614304 	-0.0005287297877 	-1.012862569e-07 	0.01089692975 	-8.075865619e-07 	2.077257674e-05
0.3584326466 	0.007832070808 	-0.0004514570688 	-6.993835953e-08 	0.01110775467 	-5.35895484e-07 	2.117446764e-05
0.35904667 	0.007809806851 	-0.0003723198746 	-3.441452641e-08 	0.01131819523 	-2.514918032e-07 	2.157562584e-05
0.3595770964 	0.007789277681 	-0.0003032701994 	5.484498196e-07 	0.01149636436 	1.302903845e-06 	2.191526572e-05
0.3596716997 	0.007785607816 	-0.0002909279235 	-6.235042105e-09 	0.01152822426 	-4.427221421e-08 	2.197599955e-05
0.3603070346 	0.007759226055 	-0.0002068555579 	-5.130706484e-08 	0.01173794094 	-3.453574311e-07 	2.237577783e-05
0.3609539542 	0.007730556764 	-0.0001197441637 	-1.038302291e-07 	0.01194718999 	-6.589086054e-07 	2.277466467e-05
0.3616126648 	0.007699461995 	-2.922330786e-05 	-1.652483784e-07 	0.01215596507 	-9.850076085e-07 	2.3172648e-05
0.3622833765 	0.00766599432 	6.431325465e-05 	-2.329680585e-07 	0.01236424547 	-1.323614996e-06 	2.356968833e-05
0.3629663027 	0.007634801173 	0.0001576566435 	-2.861676463e-07 	0.01255221392 	-1.536159433e-06 	2.392800843e-05
0.3636616609 	0.007615204197 	0.0002450205678 	-2.93521338e-07 	0.01268116375 	-1.394196891e-06 	2.417382266e-05
0.364369672 	0.007608464763 	0.0003238272036 	-2.722800764e-07 	0.0127517394 	-1.168278077e-06 	2.430835945e-05
0.3650905608 	0.007607668363 	0.0003966247359 	-2.670700195e-07 	0.01279875105 	-1.201026139e-06 	2.439797673e-05
0.3658245562 	0.007608434665 	0.000466175625 	-2.770580568e-07 	0.01284151787 	-1.351768325e-06 	2.447950218e-05
0.3665815357 	0.007609920688 	0.0005335435503 	-2.857658204e-07 	0.01288307653 	-1.504043672e-06 	2.455872454e-05
0.3673642267 	0.007612074378 	0.0005989874133 	-2.878660054e-07 	0.01292337979 	-1.657965123e-06 	2.463555375e-05
0.3681610793 	0.007614841533 	0.0006618937542 	-2.816147443e-07 	0.01296214111 	-1.810606551e-06 	2.47094436e-05
0.3689723428 	0.007618148193 	0.0007217535173 	-2.668416585e-07 	0.01299928119 	-1.961677713e-06 	2.478024292e-05
0.369798271 	0.007621949474 	0.0007785805307 	-2.431761205e-07 	0.01303484761 	-2.11096864e-06 	2.48480424e-05
0.3706391218 	0.007626181973 	0.0008323371831 	-2.104046062e-07 	0.01306891268 	-2.258325436e-06 	2.491297989e-05
0.3714951578 	0.007630790518 	0.000883017372 	-1.685050736e-07 	0.01310155236 	-2.403629976e-06 	2.497520018e-05
0.372366646 	0.007635728978 	0.0009306413373 	-1.135098372e-07 	0.01313284583 	-2.457548675e-06 	2.503485424e-05
0.3732538578 	0.0076409888 	0.0009753044625 	-4.895524836e-08 	0.01316285367 	-2.262346119e-06 	2.509205753e-05
0.3741570696 	0.007646501636 	0.00101696248 	6.90165003e-09 	0.01319170021 	-2.068180962e-06 	2.514704704e-05
0.3750765622 	0.007653028715 	0.001059847169 	5.902668773e-08 	0.0132231031 	-1.873244412e-06 	2.520690969e-05
0.376486773 	0.007661181752 	0.001107705974 	1.047411608e-07 	0.013259549 	-1.589326705e-06 	2.52763857e-05
0.3779110756 	0.007670089439 	0.001154617319 	1.340409163e-07 	0.0132968244 	-1.312198733e-06 	2.534744297e-05
0.3793496129 	0.007679163176 	0.001196138578 	1.42585978e-07 	0.01333186783 	-1.044053067e-06 	2.541424548e-05
0.3808025294 	0.007688340814 	0.001232766632 	1.323988885e-07 	0.01336542513 	-7.844996192e-07 	2.547821502e-05
0.3823059562 	0.007697599335 	0.001265518097 	1.046044839e-07 	0.01339798565 	-5.264606373e-07 	2.554028443e-05
0.3838280091 	0.007706975257 	0.001295230097 	6.239187676e-08 	0.01342947743 	-2.760146708e-07 	2.560031652e-05
0.3853651093 	0.007716407995 	0.001321908342 	8.30439415e-09 	0.01346010349 	-3.315386902e-08 	2.56586983e-05
0.3855803392 	0.007717720971 	0.001325260636 	1.058204907e-07 	0.01346425126 	-1.139571474e-07 	2.56666051e-05
0.3869151756 	0.007725878207 	0.001346111942 	5.265005279e-08 	0.01349000488 	-2.027100922e-07 	2.571569865e-05
0.3884802461 	0.007735444539 	0.001368413301 	1.211840276e-07 	0.01351947084 	-4.324698373e-07 	2.577186896e-05
0.3900608389 	0.00774514983 	0.001389253454 	1.958792588e-07 	0.01354870593 	-6.568927878e-07 	2.582759916e-05
0.3916571133 	0.007754999586 	0.001408925621 	2.751871898e-07 	0.01357790746 	-8.76682041e-07 	2.58832654e-05
0.3932692312 	0.007765086188 	0.0014278891 	3.579535597e-07 	0.01360714178 	-1.092545134e-06 	2.593899415e-05
0.3948973565 	0.007775474455 	0.00144620676 	4.432336448e-07 	0.01363674847 	-1.305015192e-06 	2.599543272e-05
0.3965690669 	0.007786194044 	0.001464125823 	5.318779655e-07 	0.01366706065 	-1.518553096e-06 	2.605321616e-05
0.3982718105 	0.007797301218 	0.001482093923 	6.228627996e-07 	0.01369796965 	-1.731547091e-06 	2.61121373e-05
0.3999912797 	0.00780876813 	0.001499943271 	6.996602144e-07 	0.01372942352 	-1.900585282e-06 	2.617209713e-05
0.4017276483 	0.007820581772 	0.001517669615 	6.254213795e-07 	0.01376144448 	-1.664810739e-06 	2.623313797e-05
0.4034810924 	0.007832754361 	0.001535390245 	5.482140467e-07 	0.01379406528 	-1.433178666e-06 	2.629532229e-05
0.4052517911 	0.007845281091 	0.001553132805 	4.685658499e-07 	0.01382734027 	-1.20517525e-06 	2.635875367e-05
0.4070399258 	0.007858205001 	0.001571047534 	3.869029553e-07 	0.01386124824 	-9.804079851e-07 	2.642339168e-05
0.4088456808 	0.007871591247 	0.001589127787 	3.034855269e-07 	0.01389593827 	-7.584967599e-07 	2.648952052e-05
0.4106892378 	0.007885462627 	0.001607341695 	2.173817025e-07 	0.01393173005 	-5.363181665e-07 	2.655774961e-05
0.4125745154 	0.007899853744 	0.001626015507 	1.286296538e-07 	0.01396853929 	-3.13455543e-07 	2.662791825e-05
0.4144781776 	0.007914728728 	0.001645052015 	3.863058173e-08 	0.01400615675 	-9.304018814e-08 	2.669962757e-05
0.4152956098 	0.007921229611 	0.001653205487 	1.756294826e-07 	0.0140224802 	-4.001200578e-07 	2.673074461e-05
0.4163989494 	0.007930012397 	0.001664214916 	5.186261586e-08 	0.01404451213 	-1.245679811e-07 	2.677274359e-05
0.4183374299 	0.00794569769 	0.0016835753 	1.429221553e-07 	0.01408359605 	-3.396837837e-07 	2.684724841e-05
0.4202949142 	0.007961776585 	0.001703132124 	2.349802553e-07 	0.01412344988 	-5.528956554e-07 	2.692322087e-05
0.4222716086 	0.00797833893 	0.001723098483 	3.280305333e-07 	0.01416399287 	-7.643946273e-07 	2.70005071e-05
0.4242727255 	0.007995408243 	0.001743193585 	4.222367179e-07 	0.01420564342 	-9.748667223e-07 	2.707990462e-05
0.4263330869 	0.008013019202 	0.001763713572 	5.194201184e-07 	0.01424851288 	-1.188378778e-06 	2.716162572e-05
0.4284134725 	0.008031167256 	0.001784862806 	6.174407301e-07 	0.01429220184 	-1.400264307e-06 	2.724490901e-05
0.4305141024 	0.008049739593 	0.001806173983 	7.161706588e-07 	0.01433667408 	-1.610470509e-06 	2.732968547e-05
0.4326352002 	0.00806870362 	0.001827709308 	7.589768442e-07 	0.01438190043 	-1.692824458e-06 	2.741589946e-05
0.4347769937 	0.008088085048 	0.001849580317 	6.676421906e-07 	0.01442781505 	-1.4773875e-06 	2.750342549e-05
0.4369397142 	0.008107943958 	0.001871755787 	5.75525014e-07 	0.01447455596 	-1.263868874e-06 	2.759252666e-05
0.4391442892 	0.008128315274 	0.001894202893 	4.815474004e-07 	0.01452245062 	-1.049676867e-06 	2.76838272e-05
0.4413946634 	0.008149232597 	0.001917230447 	3.857088748e-07 	0.0145713706 	-8.346837487e-07 	2.777708226e-05
0.443666834 	0.008170628616 	0.001940715415 	2.893177814e-07 	0.01462105562 	-6.217216977e-07 	2.787179573e-05
0.4459610492 	0.008192406131 	0.001964397349 	1.923794892e-07 	0.01467147076 	-4.106260341e-07 	2.7967901e-05
0.448277562 	0.008214573842 	0.001988404605 	9.494000985e-08 	0.01472253979 	-2.013299186e-07 	2.806525275e-05
0.4505459865 	0.008236508757 	0.002012017302 	1.538192086e-08 	0.01477279126 	-2.65467426e-08 	2.816104603e-05
0.4506165593 	0.008237191709 	0.002012751659 	2.918227949e-09 	0.01477435457 	-6.224415853e-09 	2.816402612e-05
0.4529933429 	0.008260280019 	0.00203732941 	1.003915248e-07 	0.01482721361 	-2.129006572e-07 	2.826479016e-05
0.4554208951 	0.008283904418 	0.00206248802 	1.994217818e-07 	0.01488108031 	-4.205470515e-07 	2.836747506e-05
0.4578719627 	0.008307999786 	0.002088161286 	2.985851877e-07 	0.01493565532 	-6.263021961e-07 	2.847151019e-05
0.4603468233 	0.008332444409 	0.002114013593 	3.97819362e-07 	0.01499092625 	-8.301863243e-07 	2.857687195e-05
0.4628457593 	0.00835729149 	0.002140296273 	4.971142159e-07 	0.0150467385 	-1.032317078e-06 	2.868326562e-05
0.4653690586 	0.008382580705 	0.002166807844 	5.96382183e-07 	0.01510344001 	-1.232727864e-06 	2.879135444e-05
0.4679520536 	0.008408377179 	0.002193741215 	6.971806441e-07 	0.01516125004 	-1.434547386e-06 	2.890155643e-05
0.470569172 	0.008434692692 	0.002221379052 	7.981527804e-07 	0.01521979966 	-1.635291484e-06 	2.901316828e-05
0.4732116477 	0.008461382367 	0.002249284994 	7.532091272e-07 	0.01527901587 	-1.536964362e-06 	2.912605084e-05
0.4758797916 	0.008488446237 	0.002277564321 	6.579074243e-07 	0.01533876158 	-1.337353459e-06 	2.923994277e-05
0.478573921 	0.008515923674 	0.00230612451 	5.627535645e-07 	0.01539926888 	-1.139832019e-06 	2.935528648e-05
0.4813208668 	0.008543881044 	0.002335078365 	4.66649047e-07 	0.01546078774 	-9.419283474e-07 	2.947255853e-05
0.4841109496 	0.00857235094 	0.00236470874 	3.702656548e-07 	0.01552306019 	-7.449857073e-07 	2.959126714e-05
0.4869280722 	0.008601205791 	0.002394699421 	2.743891997e-07 	0.01558595334 	-5.504481685e-07 	2.971115896e-05
0.4897725782 	0.008630435214 	0.002425089715 	1.790716778e-07 	0.01564931257 	-3.58250322e-07 	2.983193927e-05
0.4926448178 	0.008660068096 	0.002455733712 	8.434241478e-08 	0.01571345535 	-1.68317281e-07 	2.995421322e-05
0.4952388018 	0.008686701562 	0.002483247299 	7.179168369e-08 	0.01577103021 	-1.208972559e-07 	3.006396691e-05
0.4955778201 	0.008690184318 	0.002486840071 	1.080288746e-08 	0.01577855507 	-2.184707839e-08 	3.007831139e-05
0.4985460505 	0.008720774816 	0.002518595999 	1.035210815e-07 	0.0158442336 	-2.089750485e-07 	3.020351292e-05
0.50154319 	0.008751736953 	0.00255070729 	1.952173339e-07 	0.01591043161 	-3.934599461e-07 	3.032970472e-05
0.5045696182 	0.008783075482 	0.002583179292 	2.858559641e-07 	0.01597715304 	-5.753679264e-07 	3.045689431e-05
0.5076367908 	0.008814839235 	0.002615989117 	3.757854746e-07 	0.01604469516 	-7.555423011e-07 	3.058564836e-05
0.5107623923 	0.008847107149 	0.00264943083 	4.654284214e-07 	0.0161129886 	-9.349344526e-07 	3.071583465e-05
0.5139184742 	0.008879803846 	0.002683436417 	5.535900683e-07 	0.01618176118 	-1.111400707e-06 	3.08469343e-05
0.5171054487 	0.008912873058 	0.002717856498 	6.402528166e-07 	0.01625090525 	-1.284978381e-06 	3.097874211e-05
0.520325042 	0.008946334604 	0.002752564059 	7.253794979e-07 	0.01632076512 	-1.455790825e-06 	3.111191443e-05
0.523612288 	0.008980294956 	0.002787864961 	8.099740101e-07 	0.01639139152 	-1.625829938e-06 	3.124654799e-05
0.5269316876 	0.009014724201 	0.002823875554 	7.402450859e-07 	0.0164623878 	-1.486728625e-06 	3.138188663e-05
0.5302836887 	0.009049525107 	0.002860308402 	6.571385472e-07 	0.01653368953 	-1.320953271e-06 	3.151780755e-05
0.533669638 	0.009084710485 	0.00289706075 	5.755114935e-07 	0.01660560498 	-1.1582459e-06 	3.165489839e-05
0.5371230183 	0.009120389443 	0.002934427078 	4.944734714e-07 	0.01667816687 	-9.965833987e-07 	3.179322151e-05
0.5406103399 	0.009156554961 	0.002972564663 	4.152911127e-07 	0.01675095489 	-8.386015281e-07 	3.193197571e-05
0.5441320894 	0.009193089128 	0.003011101162 	3.380340364e-07 	0.0168240347 	-6.841288295e-07 	3.207128614e-05
0.5476960233 	0.009230025568 	0.003050058739 	2.624972207e-07 	0.01689760277 	-5.326404582e-07 	3.221152733e-05
0.5513203417 	0.009267455929 	0.003089701751 	1.883895408e-07 	0.01697157388 	-3.834092885e-07 	3.235253683e-05
0.5549805169 	0.009305359723 	0.003130084788 	1.16578904e-07 	0.01704561896 	-2.380916312e-07 	3.249368733e-05
0.5586770766 	0.009343630842 	0.003170850619 	4.709496218e-08 	0.0171199394 	-9.655846303e-08 	3.263536275e-05
0.5612874305 	0.009370566078 	0.003199608121 	2.438844491e-07 	0.01717188041 	-4.898795466e-07 	3.273437675e-05
0.5624282509 	0.009382340582 	0.003212164914 	1.992435546e-08 	0.01719458251 	-4.178261027e-08 	3.277765324e-05
0.5662275028 	0.00942154408 	0.003254240054 	8.337585876e-08 	0.01726926862 	-1.757075299e-07 	3.292002574e-05
0.5700647233 	0.009461164544 	0.003296898859 	1.44174532e-07 	0.01734394604 	-3.054877826e-07 	3.306238166e-05
0.5739448569 	0.009501176896 	0.003340023994 	2.024151284e-07 	0.01741878102 	-4.314349761e-07 	3.320503793e-05
0.5778866303 	0.009541681559 	0.003383873469 	2.582901913e-07 	0.01749365792 	-5.54082629e-07 	3.33477741e-05
0.5818679746 	0.009582666724 	0.003428511192 	3.111629706e-07 	0.0175682554 	-6.722562884e-07 	3.348997764e-05
0.5858894948 	0.009624015925 	0.003473583368 	3.610700445e-07 	0.01764281097 	-7.86061405e-07 	3.363210128e-05
0.5899727857 	0.009665828865 	0.003519323099 	4.083070586e-07 	0.01771725421 	-8.962278776e-07 	3.377401079e-05
0.5941006535 	0.009708146312 	0.003565916757 	4.523014067e-07 	0.01779121198 	-1.001744333e-06 	3.391499485e-05
0.5982704142 	0.00975082965 	0.003612989997 	4.930728392e-07 	0.01786488192 	-1.102585198e-06 	3.405543022e-05
0.6024979472 	0.009793948676 	0.003660698994 	5.308199497e-07 	0.0179381918 	-1.199254732e-06 	3.419517922e-05
0.6067750414 	0.009837567608 	0.003709253486 	5.651519461e-07 	0.01801079799 	-1.291094322e-06 	3.433358682e-05
0.6110958307 	0.009881556437 	0.003758331968 	5.960690167e-07 	0.01808284241 	-1.377984233e-06 	3.44709235e-05
0.6154737333 	0.009925965742 	0.003808040364 	6.23729625e-07 	0.01815423415 	-1.460299144e-06 	3.4607016e-05
0.6199031021 	0.009970860724 	0.003858574993 	6.478212444e-07 	0.01822463671 	-1.53749752e-06 	3.474122284e-05
0.6243780584 	0.01001611218 	0.003909634922 	6.197880265e-07 	0.01829417943 	-1.492454408e-06 	3.487379059e-05
0.6289117321 	0.01006177774 	0.00396133608 	5.783449877e-07 	0.01836271915 	-1.414330522e-06 	3.500444635e-05
0.6334968048 	0.01010790142 	0.00401382269 	5.393165656e-07 	0.01842992872 	-1.340890627e-06 	3.513256647e-05
0.6381294517 	0.01015435286 	0.004066802431 	5.027197863e-07 	0.01849594276 	-1.272077428e-06 	3.525840758e-05
0.6428238051 	0.01020122174 	0.004120452167 	4.683330921e-07 	0.01856052431 	-1.20746432e-06 	3.538151797e-05
0.6475684204 	0.01024849418 	0.004174789025 	4.36315741e-07 	0.01862342933 	-1.147660756e-06 	3.550143242e-05
0.6523649443 	0.01029607116 	0.004229598672 	4.065532489e-07 	0.01868471409 	-1.092364074e-06 	3.561825821e-05
0.6572223575 	0.01034392553 	0.00428493656 	3.789783389e-07 	0.01874390007 	-1.041506379e-06 	3.573108312e-05
0.6620766355 	0.01039155286 	0.004340166713 	3.538719083e-07 	0.01880047456 	-9.958831678e-07 	3.583892982e-05
0.6668799146 	0.01043851986 	0.004394741105 	3.311801424e-07 	0.0188539915 	-9.553957984e-07 	3.594094799e-05
0.6716326517 	0.01048477776 	0.004448661916 	3.107837125e-07 	0.018904143 	-9.199674033e-07 	3.603655069e-05
0.6763304893 	0.01053022884 	0.004501737312 	2.924914324e-07 	0.01895112853 	-8.89249904e-07 	3.612611817e-05
0.680980885 	0.01057494014 	0.004554056833 	2.760189663e-07 	0.01899488694 	-8.627140946e-07 	3.620953386e-05
0.6855796658 	0.01061893205 	0.004605670781 	2.612506502e-07 	0.0190353414 	-8.403694185e-07 	3.628665131e-05
0.690125814 	0.01066210636 	0.004656388473 	2.479681273e-07 	0.01907272343 	-8.217535471e-07 	3.635791185e-05
0.6946265976 	0.0107045567 	0.004706342354 	2.359603161e-07 	0.0191069278 	-8.065116228e-07 	3.642311489e-05
0.6990762349 	0.01074625831 	0.00475550717 	2.25129162e-07 	0.01913796696 	-7.946183115e-07 	3.648228415e-05
0.7034757701 	0.01078713919 	0.004803744979 	2.152641656e-07 	0.01916602967 	-7.855973455e-07 	3.653577948e-05
0.7078302603 	0.01082729064 	0.00485118671 	2.06221337e-07 	0.01919100347 	-7.792358882e-07 	3.658338647e-05
0.7121354456 	0.01086666488 	0.004897773339 	1.979392245e-07 	0.01921295936 	-7.754782042e-07 	3.662524051e-05
0.7163924516 	0.01090521625 	0.004943414728 	1.902811197e-07 	0.01923204199 	-7.739604822e-07 	3.66616173e-05
0.7206051784 	0.01094303001 	0.004988226635 	1.83133791e-07 	0.01924814961 	-7.745242402e-07 	3.669232289e-05
0.7247704865 	0.01098005963 	0.005032155797 	1.764249365e-07 	0.01926135975 	-7.770755785e-07 	3.671750511e-05
0.7288890892 	0.01101625826 	0.00507511846 	1.700539947e-07 	0.01927181875 	-7.813095081e-07 	3.673744285e-05
0.7329646301 	0.01105170965 	0.005117218778 	1.639478667e-07 	0.01927943633 	-7.870927705e-07 	3.675196409e-05
0.7369945217 	0.01108638886 	0.005158438878 	1.580669452e-07 	0.01928425301 	-7.943872e-07 	3.676114601e-05
0.7409793914 	0.01112022806 	0.005198677939 	1.523223199e-07 	0.01928644364 	-8.029098879e-07 	3.676532198e-05
0.7449217639 	0.01115330583 	0.005238023042 	1.466212681e-07 	0.0192859362 	-8.124693723e-07 	3.676435464e-05
0.7488205855 	0.01118562613 	0.005276496994 	1.409321449e-07 	0.0192827242 	-8.230628668e-07 	3.675823168e-05
0.7526760103 	0.01121709854 	0.005313984696 	1.352193685e-07 	0.01927700808 	-8.344932149e-07 	3.674733517e-05
0.7564895149 	0.01124778659 	0.005350545342 	1.294246579e-07 	0.01926875098 	-8.465736698e-07 	3.673159484e-05
0.7602614981 	0.01127772592 	0.005386234887 	1.235255482e-07 	0.01925790539 	-8.593157483e-07 	3.671092014e-05
0.763991624 	0.01130683259 	0.005420962319 	1.175103684e-07 	0.01924464009 	-8.725950655e-07 	3.668563278e-05
0.767680541 	0.011335123 	0.005454732203 	1.113472903e-07 	0.01922899628 	-8.862423492e-07 	3.665581133e-05
0.7713298015 	0.0113626583 	0.005487614223 	1.050125362e-07 	0.01921091097 	-9.002149218e-07 	3.662133571e-05
0.7749386674 	0.01138940432 	0.0055195854 	9.850246621e-08 	0.01919045174 	-9.144799338e-07 	3.658233472e-05
0.7785076447 	0.01141530634 	0.005550583602 	9.181362405e-08 	0.01916775956 	-9.289063372e-07 	3.653907713e-05
0.7820377123 	0.01144042648 	0.005580664362 	8.492262449e-08 	0.01914279484 	-9.433752529e-07 	3.649148742e-05
0.7855292473 	0.01146478774 	0.005609863446 	7.782661814e-08 	0.01911553763 	-9.579086055e-07 	3.643952761e-05
0.7889822604 	0.01148832134 	0.005638120755 	7.053843882e-08 	0.01908612294 	-9.72433123e-07 	3.638345504e-05
0.7923972207 	0.01151101982 	0.005665422857 	6.306147089e-08 	0.01905462176 	-9.868481016e-07 	3.632340504e-05
0.7957751119 	0.01153293924 	0.005691823066 	5.539049976e-08 	0.019020991 	-1.001097646e-06 	3.625929545e-05
0.799115918 	0.01155407033 	0.005717326277 	4.753898337e-08 	0.01898526018 	-1.015208158e-06 	3.619118257e-05
0.8024199552 	0.01157434874 	0.005741878994 	3.953361341e-08 	0.01894756343 	-1.029120538e-06 	3.61193221e-05
0.8056876609 	0.01159378911 	0.005765490114 	3.138927344e-08 	0.018907937 	-1.042768356e-06 	3.604378311e-05
0.808919881 	0.01161244263 	0.005788208249 	2.311201945e-08 	0.01886634228 	-1.056134113e-06 	3.596449202e-05
0.8121165911 	0.01163029306 	0.005810030826 	1.422669088e-08 	0.01882282539 	-1.033782165e-06 	3.588153673e-05
0.815278181 	0.01164729548 	0.005830924232 	5.724969624e-09 	0.01877749382 	-9.969475763e-07 	3.579512215e-05
0.8184050606 	0.01166346887 	0.005850901857 	-2.09533977e-09 	0.01873037719 	-9.606150918e-07 	3.570530476e-05
0.8214979011 	0.01167886247 	0.005870007235 	-9.267903106e-09 	0.01868144468 	-9.24772544e-07 	3.56120258e-05
0.824556818 	0.01169346221 	0.005888239273 	-1.581059893e-08 	0.01863074367 	-8.894054709e-07 	3.551537559e-05
0.8275821714 	0.01170722438 	0.005905569637 	-2.173315073e-08 	0.01857837736 	-8.545720221e-07 	3.541555084e-05
0.8305743473 	0.0117201501 	0.005921999572 	-2.705293522e-08 	0.0185244007 	-8.203206158e-07 	3.531265633e-05
0.8335338579 	0.01173228249 	0.005937564225 	-3.17930265e-08 	0.01846880141 	-7.866697434e-07 	3.520666863e-05
0.8364609812 	0.01174362489 	0.005952275507 	-3.59690184e-08 	0.0184116083 	-7.535988445e-07 	3.509764266e-05
0.8393560156 	0.01175414217 	0.005966114577 	-3.959495079e-08 	0.01835291433 	-7.211483525e-07 	3.498575563e-05
0.8422193257 	0.01176384 	0.005979087037 	-4.269505367e-08 	0.01829277214 	-6.89346556e-07 	3.487110791e-05
0.8450513006 	0.01177277112 	0.005991230064 	-4.530309438e-08 	0.01823117118 	-6.582022922e-07 	3.475367937e-05
0.8478523485 	0.01178098341 	0.006002581551 	-4.745019318e-08 	0.01816809413 	-6.276731743e-07 	3.463343697e-05
0.8506227078 	0.01178846963 	0.006013141369 	-4.91623574e-08 	0.01810360211 	-5.977504641e-07 	3.451049726e-05
0.8533627237 	0.01179523294 	0.006022914101 	-5.046696073e-08 	0.01803775074 	-5.684443764e-07 	3.438496624e-05
0.8560727368 	0.01180129081 	0.006031912082 	-5.139100459e-08 	0.01797058273 	-5.39763836e-07 	3.425692535e-05
0.8587531258 	0.01180668208 	0.006040161491 	-5.195840322e-08 	0.01790211052 	-5.117120717e-07 	3.412639829e-05
0.861404197 	0.01181141419 	0.006047673495 	-5.218202437e-08 	0.01783237629 	-4.842724009e-07 	3.399346547e-05
0.8640262397 	0.01181545466 	0.006054433149 	-5.207239561e-08 	0.01776148503 	-4.574738524e-07 	3.385832702e-05
0.8666195773 	0.01181880517 	0.006060445507 	-5.164678296e-08 	0.01768950481 	-4.313392284e-07 	3.372111271e-05
0.8691845291 	0.01182149146 	0.006065728696 	-5.092848742e-08 	0.01761647966 	-4.05877997e-07 	3.358190647e-05
0.8717214379 	0.01182357303 	0.006070319468 	-4.994367188e-08 	0.0175424127 	-3.810816674e-07 	3.344071426e-05
0.8742305906 	0.01182509585 	0.006074248883 	-4.871565383e-08 	0.01746731822 	-3.569165097e-07 	3.329756331e-05
0.8767122763 	0.01182608029 	0.006077530816 	-4.726923107e-08 	0.01739125465 	-3.333782833e-07 	3.315256502e-05
0.8791667987 	0.01182657043 	0.00608019137 	-4.562923583e-08 	0.01731425494 	-3.10464602e-07 	3.300578217e-05
0.881594458 	0.01182661181 	0.006082256542 	-4.381747169e-08 	0.01723635447 	-2.881773529e-07 	3.285728223e-05
0.8839955611 	0.01182626032 	0.006083756747 	-4.185145662e-08 	0.01715757904 	-2.665226766e-07 	3.270711435e-05
0.8863703967 	0.01182555519 	0.006084716092 	-3.974125788e-08 	0.0170779686 	-2.454948195e-07 	3.255535473e-05
0.8887192369 	0.01182450803 	0.006085143386 	-3.749670482e-08 	0.01699760674 	-2.251130691e-07 	3.240216269e-05
0.891042368 	0.01182315491 	0.006085058723 	-3.512994783e-08 	0.01691655568 	-2.053989269e-07 	3.224765684e-05
0.8933400725 	0.01182155705 	0.00608449432 	-3.265695962e-08 	0.01683485041 	-1.863645178e-07 	3.209190389e-05
0.8956126298 	0.01181979327 	0.0060834885 	-3.0098356e-08 	0.01675251375 	-1.680091105e-07 	3.193494732e-05