0.4330902145 	2.93195594e-07 	-6.512170856e-10 	1.313595113e-12 	2.929095361e-07 	-2.515539506e-10 	5.583669857e-10
0.4330902145 	2.93195594e-07 	-6.512170856e-10 	1.313595113e-12 	2.929095361e-07 	-2.515539506e-10 	5.583669857e-10
0.4332736287 	3.491371029e-06 	-3.185430557e-08 	5.750802851e-11 	3.49692623e-06 	-2.67281279e-09 	6.666113314e-09
0.4334570457 	1.973104118e-05 	-4.38826633e-07 	7.357143666e-10 	1.983255861e-05 	-1.441005714e-08 	3.780636889e-08
0.4336404653 	6.619625311e-05 	-2.857582339e-06 	4.485918168e-09 	6.669692983e-05 	-4.658931091e-08 	1.271428857e-07
0.4338238871 	0.000164617036 	-1.201398471e-05 	1.761467103e-08 	0.0001653656648 	-1.106997171e-07 	3.15232918e-07
0.4340073109 	0.0003402041285 	-3.778489207e-05 	5.125045913e-08 	0.0003367602116 	-2.127460901e-07 	6.41958561e-07
0.4341907363 	0.000622511381 	-9.621274924e-05 	1.189220738e-07 	0.0005961066799 	-3.463886893e-07 	1.136345011e-06
0.4343741631 	0.001045535559 	-0.0002076186807 	2.294849237e-07 	0.0009465485718 	-4.89325469e-07 	1.804384657e-06
0.4345575909 	0.001643756125 	-0.0003909153564 	3.786140949e-07 	0.001375164734 	-6.089745655e-07 	2.62144619e-06
0.4347410195 	0.00244280931 	-0.0006562336898 	5.46234254e-07 	0.001855312924 	-6.766438916e-07 	3.536742091e-06
0.4349244486 	0.003448820317 	-0.001000361823 	7.034240156e-07 	0.002354894336 	-6.785755492e-07 	4.489083113e-06
0.4351078778 	0.004643394472 	-0.001408092413 	8.259477984e-07 	0.00284645675 	-6.269798191e-07 	5.426137697e-06
0.435291307 	0.005988538147 	-0.001858559461 	9.032922064e-07 	0.003313248087 	-5.374270243e-07 	6.315971724e-06
0.4354747357 	0.007377882714 	-0.002310005786 	7.8433254e-07 	0.003797109601 	-7.976911557e-07 	7.238346251e-06
0.4356581637 	0.008688146688 	-0.002722666494 	6.485977085e-07 	0.004365847054 	-1.133130635e-06 	8.322517909e-06
0.4358415907 	0.009938143587 	-0.003111255815 	6.611596655e-07 	0.004987665808 	-1.173240224e-06 	9.507877281e-06
0.4360250165 	0.01117969869 	-0.003497179943 	6.577220836e-07 	0.005606653594 	-1.183367317e-06 	1.068784004e-05
0.4362084406 	0.01240155523 	-0.003876360255 	6.38614639e-07 	0.006214949514 	-1.162760943e-06 	1.184742113e-05
0.4363918629 	0.01359512114 	-0.004245867448 	6.080565451e-07 	0.006807225325 	-1.125926239e-06 	1.297646344e-05
0.436575283 	0.01475406682 	-0.004603960355 	5.66733497e-07 	0.007381144677 	-1.071426317e-06 	1.407051324e-05
0.4367587007 	0.01587411939 	-0.004949376943 	5.161463681e-07 	0.007934665651 	-1.001311275e-06 	1.512567806e-05
0.4369421156 	0.01695257449 	-0.005281392052 	4.579089028e-07 	0.008466485174 	-9.180210942e-07 	1.613947388e-05
0.4371255275 	0.01798790038 	-0.00559978909 	3.936145676e-07 	0.008975941806 	-8.238581864e-07 	1.711063982e-05
0.4373089361 	0.01897939428 	-0.005904859034 	3.247565893e-07 	0.009462858646 	-7.208759439e-07 	1.803883865e-05
0.4374923411 	0.01992689063 	-0.006197427265 	2.526216525e-07 	0.009927415367 	-6.109211695e-07 	1.892441287e-05
0.4376757422 	0.02083053519 	-0.006478889946 	1.781207128e-07 	0.01037008627 	-4.955992657e-07 	1.976826665e-05
0.4378591391 	0.02169118809 	-0.006748786236 	9.750660106e-08 	0.01079118133 	-3.757100836e-07 	2.057099087e-05
0.4380425315 	0.02251147306 	-0.007000630565 	1.388472457e-08 	0.01119013755 	-2.538776573e-07 	2.13315123e-05
0.4382259191 	0.02329338609 	-0.007234924855 	-6.761401696e-08 	0.01156794792 	-1.319892979e-07 	2.205172387e-05
0.4384093017 	0.02403788216 	-0.007457600701 	-1.487005502e-07 	0.0119266885 	-9.846013586e-09 	2.273558313e-05
0.438592679 	0.02484225307 	-0.007697675557 	-2.402232031e-07 	0.01231330239 	1.28757392e-07 	2.347257667e-05
0.4388775938 	0.02578529312 	-0.007978301689 	-3.515060552e-07 	0.01276480589 	2.989333454e-07 	2.433326781e-05
0.4391678485 	0.02675885212 	-0.008266872784 	-4.715250622e-07 	0.01322841842 	4.835336223e-07 	2.521704216e-05
0.4394635417 	0.02767332185 	-0.008536664287 	-5.878716915e-07 	0.01366137244 	6.63705209e-07 	2.604237285e-05
0.4397647738 	0.02852956466 	-0.008787998241 	-6.990155949e-07 	0.01406431543 	8.369151825e-07 	2.681049418e-05
0.4400716469 	0.02932818315 	-0.009021098371 	-8.03528036e-07 	0.01443756274 	1.000749761e-06 	2.752200729e-05
0.4403842649 	0.03006963143 	-0.00923618854 	-9.001460151e-07 	0.01478144957 	1.153016596e-06 	2.817755117e-05
0.4407027333 	0.03075449005 	-0.009433541682 	-9.878899658e-07 	0.01509638764 	1.291943077e-06 	2.877791066e-05
0.4410271599 	0.03138411689 	-0.009613644419 	-1.066635452e-06 	0.01538313121 	1.417209602e-06 	2.93245236e-05
0.4413576537 	0.0319619747 	-0.009777583604 	-1.136864409e-06 	0.01564347191 	1.529577327e-06 	2.982080534e-05
0.4416943261 	0.03249277983 	-0.009926787094 	-1.198618787e-06 	0.01587980681 	1.629062007e-06 	3.027132534e-05
0.4420372902 	0.03298000005 	-0.01006229697 	-1.251748168e-06 	0.01609385048 	1.715344201e-06 	3.067935206e-05
0.4423866608 	0.03342606673 	-0.01018486031 	-1.296348641e-06 	0.01628679495 	1.788540741e-06 	3.104715785e-05
0.4427425551 	0.03383338683 	-0.01029522983 	-1.332641565e-06 	0.01645985743 	1.848972237e-06 	3.137706305e-05
0.4431050918 	0.0342043199 	-0.01039414395 	-1.360941251e-06 	0.01661423157 	1.89710171e-06 	3.167134305e-05
0.4434743918 	0.03454115409 	-0.01048231423 	-1.381633906e-06 	0.01675106014 	1.933509596e-06 	3.193217634e-05
0.443850578 	0.03484608807 	-0.01056042372 	-1.39515864e-06 	0.01687144185 	1.958868926e-06 	3.216165735e-05
0.4442337753 	0.03512122204 	-0.01062912016 	-1.401984419e-06 	0.01697641289 	1.973891679e-06 	3.236176131e-05
0.4446241106 	0.03536879121 	-0.01068907054 	-1.402636031e-06 	0.01706701915 	1.979365763e-06 	3.253448204e-05
0.4450233411 	0.0355909614 	-0.01074091874 	-1.397487686e-06 	0.0171442899 	1.975899836e-06 	3.268178156e-05
0.445431201 	0.03578925018 	-0.01078513978 	-1.386976603e-06 	0.01720900696 	1.964181925e-06 	3.280515026e-05
0.4458466793 	0.03596489054 	-0.01082212513 	-1.371626847e-06 	0.01726178948 	1.9449862e-06 	3.290576842e-05
0.4462699177 	0.03611931491 	-0.01085231845 	-1.351905276e-06 	0.0173033461 	1.919024943e-06 	3.298498688e-05
0.4467010604 	0.03625399357 	-0.0108761704 	-1.328283604e-06 	0.01733441122 	1.887031427e-06 	3.304420563e-05
0.4471402543 	0.03637028942 	-0.01089409289 	-1.301210887e-06 	0.01735564856 	1.849696789e-06 	3.30846899e-05
0.4475876489 	0.03646945951 	-0.01090646594 	-1.27111377e-06 	0.0173676738 	1.807679046e-06 	3.310761336e-05
0.4480433967 	0.03655265835 	-0.01091363874 	-1.238394408e-06 	0.0173710557 	1.761600094e-06 	3.31140602e-05
0.4485076529 	0.03662094131 	-0.01091593094 	-1.203428903e-06 	0.0173663181 	1.712043007e-06 	3.310502902e-05
0.4489805754 	0.03667526817 	-0.01091363417 	-1.166566518e-06 	0.01735394229 	1.659550766e-06 	3.308143729e-05
0.4494623252 	0.03671650673 	-0.01090701354 	-1.128129493e-06 	0.01733436948 	1.604625828e-06 	3.304412607e-05
0.4499530662 	0.03674543653 	-0.01089630911 	-1.088413337e-06 	0.0173080032 	1.547730362e-06 	3.299386461e-05
0.4504529654 	0.03676275261 	-0.01088173742 	-1.047687529e-06 	0.01727521158 	1.489287018e-06 	3.293135466e-05
0.4509621928 	0.03676906925 	-0.01086349286 	-1.006196495e-06 	0.01723632958 	1.429680118e-06 	3.285723476e-05
0.4514809216 	0.0367649238 	-0.0108417491 	-9.641607822e-07 	0.01719166108 	1.369257118e-06 	3.27720842e-05
0.4520093281 	0.03675078034 	-0.01081666039 	-9.217783148e-07 	0.01714148091 	1.308330236e-06 	3.267642684e-05
0.452547592 	0.03672703345 	-0.01078836283 	-8.792256875e-07 	0.01708603663 	1.247178138e-06 	3.257073464e-05
0.4530958961 	0.03669401187 	-0.01075697554 	-8.366594238e-07 	0.01702555035 	1.186047601e-06 	3.245543098e-05
0.4536544268 	0.0366519822 	-0.01072260181 	-7.942171512e-07 	0.0169602202 	1.125155011e-06 	3.233089356e-05
0.4542233737 	0.03660115247 	-0.01068533035 	-7.520187075e-07 	0.01689022248 	1.064687812e-06 	3.219745844e-05
0.4548029302 	0.03654167552 	-0.01064523725 	-7.101683904e-07 	0.01681571584 	1.004809673e-06 	3.205542808e-05
0.455393293 	0.03647365208 	-0.01060238631 	-6.687549101e-07 	0.01673683998 	9.456573885e-07 	3.190506877e-05
0.4559946626 	0.03639709458 	-0.01055680649 	-6.278459025e-07 	0.01665366467 	8.873238551e-07 	3.17465135e-05
0.4566082852 	0.03631184419 	-0.01050846003 	-5.874166299e-07 	0.01656614774 	8.297841738e-07 	3.157968191e-05
0.45723626 	0.03621775195 	-0.0104573383 	-5.473797484e-07 	0.0164743379 	7.729227429e-07 	3.140466685e-05
0.4578759321 	0.0361148539 	-0.01040351262 	-5.080076611e-07 	0.01637838412 	7.171118987e-07 	3.122175227e-05
0.4585275182 	0.03600312938 	-0.01034704383 	-4.693438366e-07 	0.01627841477 	6.624089223e-07 	3.103118291e-05
0.4591912389 	0.03588242259 	-0.01028794725 	-4.314041932e-07 	0.01617451198 	6.088305881e-07 	3.083311531e-05
0.459867319 	0.03575254612 	-0.01022621264 	-3.941923683e-07 	0.01606668851 	5.56367436e-07 	3.06275738e-05
0.4605559872 	0.03561328117 	-0.01016182607 	-3.577038298e-07 	0.0159549558 	5.04996783e-07 	3.041458021e-05
0.4612574765 	0.03546438159 	-0.01009476657 	-3.219261e-07 	0.015839313 	4.546827126e-07 	3.019413289e-05
0.4619720244 	0.03530557727 	-0.01002500627 	-2.86839147e-07 	0.01571974633 	4.053764357e-07 	2.996620558e-05
0.4626998725 	0.03513657778 	-0.009952510677 	-2.524160764e-07 	0.01559622945 	3.57017643e-07 	2.973074807e-05
0.463441267 	0.03495707664 	-0.009877239089 	-2.186237886e-07 	0.01546872389 	3.095357727e-07 	2.948768704e-05
0.4641964587 	0.03476675626 	-0.009799144951 	-1.854236569e-07 	0.01533717946 	2.628512581e-07 	2.923692679e-05
0.4649657028 	0.03456529334 	-0.00971817685 	-1.527723507e-07 	0.01520153591 	2.16876973e-07 	2.89783525e-05
0.4657492594 	0.03435236378 	-0.009634281301 	-1.206231981e-07 	0.01506172871 	1.715207902e-07 	2.871184111e-05
0.4665473934 	0.0341276444 	-0.009547406888 	-8.892761376e-08 	0.01491769575 	1.266877488e-07 	2.843727426e-05
0.4673603745 	0.03389074526 	-0.009457487307 	-5.763437051e-08 	0.01476934179 	8.227660659e-08 	2.815447038e-05
0.4681892405 	0.03364090329 	-0.009364378249 	-2.665077813e-08 	0.0146164515 	3.813116422e-08 	2.7863019e-05
0.4689198652 	0.03341393296 	-0.009281410003 	6.812860152e-07 	0.01448086409 	-1.106706179e-06 	2.76045517e-05
0.4690375466 	0.03337735029 	-0.009268036114 	-4.158469417e-09 	0.01445901469 	5.652298019e-09 	2.756290067e-05
0.4699010404 	0.03306348578 	-0.009155936087 	-3.411514416e-08 	0.01427676939 	4.648336679e-08 	2.721549048e-05
0.471226299 	0.03265773714 	-0.009013918599 	-7.887323206e-08 	0.01404708803 	1.078714665e-07 	2.677765396e-05
0.4725659371 	0.03219256927 	-0.008853874477 	-1.22778727e-07 	0.01378948518 	1.687392442e-07 	2.628659134e-05
0.4739201122 	0.03170415582 	-0.00868875808 	-1.661351544e-07 	0.0135249109 	2.295973148e-07 	2.578223924e-05
0.475288984 	0.03119246023 	-0.008518587167 	-2.091783587e-07 	0.01325335533 	2.908566205e-07 	2.526457885e-05
0.4766727141 	0.03065738242 	-0.00834329276 	-2.520957518e-07 	0.01297461936 	3.528314634e-07 	2.473323061e-05
0.4780714658 	0.0300987577 	-0.00816279826 	-2.950388551e-07 	0.01268850389 	4.157697777e-07 	2.4187815e-05
0.4794854044 	0.02951563038 	-0.007976806142 	-3.381329932e-07 	0.01239446581 	4.798762192e-07 	2.362729669e-05
0.4809214894 	0.02890682361 	-0.00778500525 	-3.817672205e-07 	0.01209201559 	5.45727556e-07 	2.305074251e-05
0.4823738791 	0.02827250461 	-0.007587460046 	-4.257228516e-07 	0.0117811914 	6.129902877e-07 	2.245822522e-05
0.4838420137 	0.02761290648 	-0.007384291064 	-4.701004322e-07 	0.01146212503 	6.817764538e-07 	2.184999605e-05
0.4853260666 	0.02692744103 	-0.007175402839 	-5.150659628e-07 	0.01113468054 	7.523016129e-07 	2.122579582e-05
0.4868262135 	0.02621528903 	-0.006960552605 	-5.608246173e-07 	0.01079844793 	8.248315787e-07 	2.058484302e-05
0.4883426321 	0.02547553208 	-0.006739407933 	-6.077016125e-07 	0.01045289255 	8.998772996e-07 	1.992611844e-05
0.4898755023 	0.02470715299 	-0.00651141973 	-6.562314916e-07 	0.01009709426 	9.784590092e-07 	1.924786801e-05
0.4914262901 	0.02390893472 	-0.006275629527 	-7.0547011e-07 	0.009729392679 	1.059519611e-06 	1.854692659e-05
0.4930000595 	0.02308516304 	-0.006032169949 	-7.520320373e-07 	0.009349776843 	1.138344417e-06 	1.78232733e-05
0.4945908782 	0.02224830983 	-0.005783054334 	-7.937037437e-07 	0.008961110955 	1.21211212e-06 	1.708236809e-05
0.496198935 	0.0214099463 	-0.005529950074 	-8.310461058e-07 	0.008565780268 	1.282238266e-06 	1.632875793e-05
0.497824421 	0.02057834685 	-0.005273762257 	-8.632786653e-07 	0.008165180007 	1.347853349e-06 	1.556510249e-05
0.4994675299 	0.01976191978 	-0.00501569211 	-8.88456769e-07 	0.007761417603 	1.406064898e-06 	1.479541913e-05
0.5011284574 	0.01896910144 	-0.004757294761 	-9.042142748e-07 	0.00735746128 	1.452917604e-06 	1.40253661e-05
0.5028080558 	0.01820736473 	-0.004500314711 	-9.076583508e-07 	0.006956922086 	1.483495182e-06 	1.326182707e-05
0.5045124937 	0.01748335826 	-0.004246520202 	-9.068815124e-07 	0.006563631821 	1.513952049e-06 	1.251210652e-05
0.5062353919 	0.01680315447 	-0.003997097438 	-8.85896201e-07 	0.0061801633 	1.511462193e-06 	1.178110894e-05
0.5079769559 	0.01617011038 	-0.003757574457 	-8.203123594e-07 	0.005817557501 	1.427109386e-06 	1.10898815e-05
0.509737394 	0.01555936839 	-0.003528801629 	-8.824447797e-07 	0.005501922251 	7.510304629e-07 	1.048819299e-05
0.5115169172 	0.01481754237 	-0.003285661967 	-1.043767867e-06 	0.005333370223 	-3.063524984e-07 	1.016688598e-05
0.5133157389 	0.01396685837 	-0.003032058458 	-1.074224028e-06 	0.005285195959 	-7.754618916e-07 	1.007505244e-05
0.515137967 	0.01316485964 	-0.002792365379 	-1.051524028e-06 	0.005241616857 	-7.704367203e-07 	9.991978561e-06
0.5169830942 	0.01242120706 	-0.002563032255 	-1.053672276e-06 	0.005188941108 	-7.135578041e-07 	9.891563944e-06
0.5188482099 	0.01173595324 	-0.002342196369 	-1.021190012e-06 	0.005124569553 	-6.565772076e-07 	9.768853868e-06
0.5207335384 	0.01110566538 	-0.002130930726 	-9.590864493e-07 	0.005056760596 	-6.195485688e-07 	9.639591149e-06
0.522639307 	0.01052762963 	-0.001928576712 	-9.043634283e-07 	0.004988955031 	-5.995164246e-07 	9.510334898e-06
0.5245657457 	0.01000061321 	-0.001734863234 	-8.547148756e-07 	0.004922752968 	-5.872861469e-07 	9.384135365e-06
0.526516352 	0.009523554494 	-0.001549585185 	-8.094257097e-07 	0.004859005482 	-5.781826658e-07 	9.26261494e-06
0.5284915975 	0.009095807803 	-0.001372691089 	-7.682237738e-07 	0.004797989108 	-5.696557291e-07 	9.146300772e-06
0.5304882478 	0.00871696945 	-0.001204326051 	-7.310586683e-07 	0.004739415131 	-5.598743708e-07 	9.034642492e-06
0.5325065448 	0.008386171831 	-0.001044578793 	-6.976969544e-07 	0.004682542255 	-5.472385441e-07 	8.926226982e-06
0.5345467337 	0.008102328052 	-0.000893456356 	-6.678796318e-07 	0.004625936346 	-5.301928034e-07 	8.818320388e-06
0.5366090627 	0.007864404135 	-0.0007509413022 	-6.413188224e-07 	0.004567465792 	-5.087041911e-07 	8.70685926e-06
0.5386990383 	0.007671576977 	-0.0006169457577 	-6.178142222e-07 	0.004504844478 	-4.841022949e-07 	8.587485632e-06
0.5408128428 	0.007522010939 	-0.0004912168038 	-5.982656924e-07 	0.004437771006 	-4.698203182e-07 	8.459624952e-06
0.5429495711 	0.007409793396 	-0.0003732677351 	-5.822963126e-07 	0.004371158979 	-4.772343658e-07 	8.332643916e-06
0.5451094844 	0.007327154172 	-0.0002626924924 	-5.682868769e-07 	0.004311228598 	-4.922222809e-07 	8.218399952e-06
0.5472928472 	0.007269098531 	-0.000159251923 	-5.552560655e-07 	0.004259762672 	-5.003381915e-07 	8.120291593e-06
0.5495029917 	0.007232830265 	-6.268861242e-05 	-5.426096497e-07 	0.004215826585 	-4.996518045e-07 	8.0365372e-06
0.5517401277 	0.007216147387 	2.717404661e-05 	-5.301209263e-07 	0.004178080712 	-4.910934084e-07 	7.964583074e-06
0.5540015404 	0.007217144458 	0.0001104193901 	-5.17677674e-07 	0.004145310084 	-4.765682957e-07 	7.902113149e-06
0.5562875083 	0.007234066471 	0.0001871948335 	-5.051495655e-07 	0.004116616645 	-4.575078278e-07 	7.84741548e-06
0.5585983135 	0.00726535078 	0.000257719437 	-4.923862907e-07 	0.004091206809 	-4.35097085e-07 	7.79897727e-06
0.5609371009 	0.007309632159 	0.0003222541218 	-4.791796198e-07 	0.004068452528 	-4.102401279e-07 	7.755601287e-06
0.5633041214 	0.007365687147 	0.0003810278069 	-4.654424908e-07 	0.004047791555 	-3.838140073e-07 	7.716215729e-06
0.5656968536 	0.007432401334 	0.0004342070223 	-4.511298797e-07 	0.004028720012 	-3.565404108e-07 	7.679860069e-06
0.5681155946 	0.00750877561 	0.0004819965724 	-4.361556644e-07 	0.004010879063 	-3.289518437e-07 	7.64585026e-06
0.5705606454 	0.007593958024 	0.0005246358798 	-4.204442189e-07 	0.00399393256 	-3.015311341e-07 	7.613545515e-06
0.5730364139 	0.007687222498 	0.0005623949504 	-4.038817524e-07 	0.003977635801 	-2.74571692e-07 	7.582479363e-06
0.5755402815 	0.007787837752 	0.0005954955261 	-3.865908163e-07 	0.003961694273 	-2.484103368e-07 	7.55209038e-06
0.5780713847 	0.007895096628 	0.0006241333715 	-3.685882189e-07 	0.003945886214 	-2.233263771e-07 	7.521955827e-06
0.5806300406 	0.008008401665 	0.0006485455764 	-3.498767629e-07 	0.003930110778 	-1.994867842e-07 	7.491883461e-06
0.5832180167 	0.008127270172 	0.0006689799959 	-3.304428515e-07 	0.003914226878 	-1.769552697e-07 	7.461604332e-06
0.5858376189 	0.008251254565 	0.0006856721153 	-3.103547376e-07 	0.003898095568 	-1.558438133e-07 	7.430853572e-06
0.5884857425 	0.008379818179 	0.0006988187259 	-2.897758668e-07 	0.003881591358 	-1.362506019e-07 	7.39939196e-06
0.5911627215 	0.008512445447 	0.0007086353851 	-2.687562652e-07 	0.003864701802 	-1.181435422e-07 	7.367195773e-06
0.5938690591 	0.008648723784 	0.0007153596427 	-2.473378198e-07 	0.003847446307 	-1.014328662e-07 	7.334302004e-06
0.5966092402 	0.008788310512 	0.0007192364708 	-2.255436961e-07 	0.003829810999 	-8.606182765e-08 	7.300684204e-06
0.5993792916 	0.008930789636 	0.0007204737252 	-2.036527115e-07 	0.003811683742 	-7.222605492e-08 	7.266128614e-06
0.602179565 	0.009076012358 	0.0007192219282 	-1.818865483e-07 	0.003792745248 	-6.033857679e-08 	7.230026581e-06
0.6050104173 	0.009224383164 	0.0007153057194 	-1.605856723e-07 	0.003771826125 	-5.088634893e-08 	7.190148918e-06
0.6078761888 	0.009376620926 	0.0007087596933 	-1.395594409e-07 	0.003748788637 	-4.305230748e-08 	7.146233064e-06
0.6107733423 	0.00953214646 	0.000700153427 	-1.186471447e-07 	0.003725051241 	-3.490000985e-08 	7.100982989e-06
0.6137021528 	0.009676270038 	0.0006953885584 	-9.628406351e-08 	0.003718574447 	-2.316722286e-08 	7.08863642e-06
0.6166633566 	0.009804219269 	0.000697124738 	-7.477333202e-08 	0.003734414941 	-1.459034896e-08 	7.118832804e-06
0.6196602986 	0.009928433342 	0.0007014854178 	-5.561787164e-08 	0.003756221672 	-1.076155448e-08 	7.160402495e-06
0.6226900141 	0.01005200772 	0.0007068359356 	-3.778233169e-08 	0.00377887838 	-7.370055358e-09 	7.203592478e-06
0.6257528942 	0.01017466278 	0.0007126071201 	-2.11704505e-08 	0.003801512999 	-4.197963714e-09 	7.246740352e-06
0.6288506095 	0.01029683981 	0.0007189372348 	-5.76532064e-09 	0.00382419739 	-1.159535301e-09 	7.289983106e-06
0.6301370712 	0.01034683208 	0.0007217743941 	5.388137779e-08 	0.003833531768 	6.481339431e-08 	7.307777024e-06
0.6319842164 	0.01041861361 	0.0007258431184 	-8.055593198e-09 	0.003846937973 	-1.814866746e-09 	7.333332978e-06
0.6351521115 	0.01053980968 	0.0007332623231 	-2.033476036e-08 	0.003869657266 	-4.645168963e-09 	7.376642265e-06
0.6383547749 	0.01066038801 	0.000741191112 	-3.124326493e-08 	0.003892356514 	-7.244593789e-09 	7.41991334e-06
0.6415950545 	0.01078040535 	0.0007496460027 	-4.077607696e-08 	0.003915023784 	-9.607130763e-09 	7.463123458e-06
0.6448714415 	0.01089977111 	0.0007586028071 	-4.878241403e-08 	0.003937593255 	-1.16889177e-08 	7.506147141e-06
0.6481838289 	0.01101838861 	0.0007680510596 	-5.526926881e-08 	0.003960054314 	-1.347743537e-08 	7.548964162e-06
0.6515336955 	0.01113633038 	0.0007780356776 	-6.026935209e-08 	0.003982430773 	-1.496644386e-08 	7.591619912e-06
0.6549219977 	0.01125355859 	0.0007885561761 	-6.36748838e-08 	0.004004676045 	-1.611270942e-08 	7.634025584e-06
0.658347578 	0.01136996515 	0.0007996015853 	-6.54593743e-08 	0.00402677173 	-1.688748233e-08 	7.676146101e-06
0.661811122 	0.01148557279 	0.0008112122298 	-6.567510073e-08 	0.004048753155 	-1.728125535e-08 	7.718048806e-06
0.6653149209 	0.01160039595 	0.0008234169692 	-6.428359032e-08 	0.004070611862 	-1.726059944e-08 	7.759717578e-06
0.6688573239 	0.01171432951 	0.0008362051982 	-6.12270337e-08 	0.004092321764 	-1.678179948e-08 	7.801102685e-06
0.6724387986 	0.01182735526 	0.0008496060547 	-5.657780023e-08 	0.004113919969 	-1.583419175e-08 	7.842274866e-06
0.6760616858 	0.01193952268 	0.0008636725334 	-5.035179392e-08 	0.004135431046 	-1.439308222e-08 	7.883280957e-06
0.6797247083 	0.01205073832 	0.0008783961447 	-4.248720622e-08 	0.004156828491 	-1.240774293e-08 	7.924070434e-06
0.6834281966 	0.01216097568 	0.0008938027498 	-3.307896373e-08 	0.004178153572 	-9.870618531e-09 	7.964721967e-06
0.6871741462 	0.01227029807 	0.0009099583687 	-2.217313784e-08 	0.004199450744 	-6.761801553e-09 	8.005320294e-06
0.6909617583 	0.0123786287 	0.0009268584792 	-9.730522294e-09 	0.004220701884 	-3.03303198e-09 	8.045830874e-06
0.6936431587 	0.01245378094 	0.0009392354192 	1.673936301e-07 	0.004235586124 	-2.649659965e-08 	8.074204374e-06
0.694791239 	0.01248596029 	0.0009445339457 	-4.206067252e-09 	0.004241959272 	-1.287415294e-09 	8.086353364e-06
0.6986643717 	0.01259236292 	0.0009630534899 	-1.968813267e-08 	0.004263278294 	-6.175323822e-09 	8.126993345e-06
0.7025805467 	0.01269778095 	0.0009824220564 	-3.652639903e-08 	0.004284654879 	-1.173986292e-08 	8.167743058e-06
0.7065401553 	0.01280224867 	0.001002690485 	-5.456367723e-08 	0.004306161636 	-1.796921628e-08 	8.208740915e-06
0.7105449492 	0.01290584261 	0.001023930641 	-7.373528177e-08 	0.004327860174 	-2.488084612e-08 	8.250104358e-06
0.7145941618 	0.01300826125 	0.00104608439 	-9.398705562e-08 	0.004349707559 	-3.249074518e-08 	8.291751546e-06
0.7186434165 	0.01310873981 	0.001069003519 	-1.148970193e-07 	0.004371604568 	-4.06757463e-08 	8.333493332e-06
0.7226486042 	0.01320657251 	0.001092505014 	-1.361498022e-07 	0.004393423141 	-4.933360923e-08 	8.375085595e-06
0.7266094196 	0.01330163614 	0.001116496558 	-1.576018338e-07 	0.004415154551 	-5.841322538e-08 	8.416511702e-06
0.7305267523 	0.01339417333 	0.0011410153 	-1.790641163e-07 	0.004436894115 	-6.784611415e-08 	8.457953354e-06
0.7344012368 	0.01348436172 	0.00116605367 	-2.004853498e-07 	0.004458670268 	-7.76112724e-08 	8.499464754e-06
0.7382328756 	0.0135723726 	0.0011915973 	-2.217268843e-07 	0.004480536454 	-8.764611e-08 	8.541147782e-06
0.7420225095 	0.0136584551 	0.001217697972 	-2.426438522e-07 	0.00450259087 	-9.788732056e-08 	8.583189628e-06
0.7457706092 	0.01374278113 	0.001244349044 	-2.632076704e-07 	0.004524860552 	-1.08313707e-07 	8.625641831e-06
0.7494773227 	0.01382553129 	0.001271545959 	-2.833057397e-07 	0.004547406289 	-1.188617667e-07 	8.668620274e-06
0.7531433854 	0.01390694825 	0.001299342404 	-3.028258978e-07 	0.004570326473 	-1.29472385e-07 	8.712312515e-06
0.7567692644 	0.01398720669 	0.001327735578 	-3.217564525e-07 	0.004593651504 	-1.401254161e-07 	8.756776505e-06
0.7603551552 	0.01406649155 	0.001356724268 	-3.400153228e-07 	0.004617443676 	-1.507624074e-07 	8.802130998e-06
0.763901668 	0.01414504053 	0.001386360741 	-3.575124608e-07 	0.004641802976 	-1.613266531e-07 	8.848566595e-06
0.7674093446 	0.01422303828 	0.001416650364 	-3.742460464e-07 	0.004666768566 	-1.717987292e-07 	8.896157947e-06
0.7708783745 	0.01430067142 	0.001447591991 	-3.901668245e-07 	0.004692399633 	-1.821296688e-07 	8.945017886e-06
0.7743092448 	0.01437817142 	0.001479231248 	-4.052052201e-07 	0.004718796142 	-1.922648393e-07 	8.995336968e-06
0.7777025987 	0.01445573947 	0.001511586895 	-4.193583551e-07 	0.004746014028 	-2.021813102e-07 	9.047221823e-06
0.7810585948 	0.01453356516 	0.00154465776 	-4.326141752e-07 	0.004774106448 	-2.118454626e-07 	9.100773785e-06
0.7843776614 	0.01461187243 	0.001578474486 	-4.449272994e-07 	0.004803167135 	-2.21206404e-07 	9.15617153e-06
0.7876603902 	0.01469088546 	0.001613072979 	-4.562797004e-07 	0.004833277031 	-2.302312921e-07 	9.213569361e-06
0.7909070506 	0.01477080359 	0.001648454863 	-4.666941999e-07 	0.004864485223 	-2.389042646e-07 	9.273060849e-06
0.7941180041 	0.01485184853 	0.001684635234 	-4.761481042e-07 	0.00489687451 	-2.471804278e-07 	9.334803832e-06
0.7972937061 	0.01493426428 	0.001721658599 	-4.846180558e-07 	0.004930545908 	-2.550210172e-07 	9.398990875e-06
0.8004346052 	0.01501827157 	0.001759538021 	-4.921324232e-07 	0.004965558821 	-2.624137282e-07 	9.465735219e-06
0.8035409751 	0.01510409903 	0.001798282603 	-4.986981344e-07 	0.005001985081 	-2.693302063e-07 	9.535173795e-06
0.8066132058 	0.01519199941 	0.001837926045 	-5.043054348e-07 	0.005039925943 	-2.757333411e-07 	9.607499623e-06
0.80965176 	0.01528222546 	0.001878503128 	-5.089588206e-07 	0.005079470394 	-2.815979904e-07 	9.682882338e-06
0.8126569591 	0.01537502206 	0.001920027951 	-5.126952672e-07 	0.005120686429 	-2.869156069e-07 	9.761451555e-06
0.8156291397 	0.01547064991 	0.001962521749 	-5.155211179e-07 	0.005163663542 	-2.916558939e-07 	9.843377876e-06
0.8185686718 	0.01556938802 	0.002006028226 	-5.174353422e-07 	0.005208511237 	-2.957871596e-07 	9.92887005e-06
0.8214759931 	0.01567151228 	0.002050583269 	-5.184559234e-07 	0.005255319599 	-2.992912516e-07 	1.00180998e-05
0.8243513843 	0.01577730171 	0.002096214394 	-5.186106087e-07 	0.005304173696 	-3.021540982e-07 	1.011122928e-05
0.8271951952 	0.01588705251 	0.002142962833 	-5.179024601e-07 	0.005355181366 	-3.043444766e-07 	1.020846408e-05
0.8300077779 	0.01600107436 	0.0021908883 	-5.163286812e-07 	0.005408463977 	-3.058305449e-07 	1.031003554e-05
0.8327895326 	0.01611967801 	0.002240047853 	-5.139028501e-07 	0.005464130192 	-3.065930841e-07 	1.041615082e-05
0.8355407393 	0.01624318117 	0.002290498216 	-5.106419735e-07 	0.005522290754 	-3.066133294e-07 	1.052702102e-05
0.8382617368 	0.01637191723 	0.002342312995 	-5.065464639e-07 	0.005583079068 	-3.058607522e-07 	1.064290044e-05
0.8409528603 	0.01650623136 	0.002395583037 	-5.016144898e-07 	0.005646642122 	-3.043043749e-07 	1.076406929e-05
0.8436144725 	0.01664647407 	0.00245040421 	-4.958569216e-07 	0.005713124293 	-3.01923817e-07 	1.089080278e-05
0.8462468653 	0.01679300375 	0.00250687378 	-4.89295832e-07 	0.005782672328 	-2.98704474e-07 	1.102338067e-05
0.848850357 	0.01694619361 	0.002565102838 	-4.819437806e-07 	0.005855453898 	-2.946241736e-07 	1.116212257e-05
0.8514252675 	0.01710643017 	0.002625216984 	-4.7381545e-07 	0.005931652973 	-2.896621959e-07 	1.130737918e-05
0.8539719263 	0.01727410904 	0.002687346743 	-4.649351066e-07 	0.0060114559 	-2.83807275e-07 	1.145950574e-05
0.856490637 	0.0174496355 	0.002751618624 	-4.553459019e-07 	0.006095047003 	-2.770621471e-07 	1.161885362e-05
0.8589816959 	0.01763342951 	0.00281816117 	-4.450867097e-07 	0.006182623583 	-2.694265117e-07 	1.178579892e-05
0.8614454083 	0.017825925 	0.002887106866 	-4.183422377e-07 	0.006274394902 	-2.513769289e-07 	1.196074056e-05
0.8638820763 	0.01802756561 	0.002958581689 	-3.909366935e-07 	0.00637056738 	-2.325947786e-07 	1.214407203e-05
0.8662920105 	0.018238803 	0.003032699156 	-3.646886874e-07 	0.006471339412 	-2.142208443e-07 	1.233617154e-05
0.8686754868 	0.01846009458 	0.00310955469 	-3.396222075e-07 	0.006576899538 	-1.963095319e-07 	1.253739847e-05
0.8710327965 	0.01869190071 	0.003189229656 	-3.157709137e-07 	0.006687431831 	-1.789168179e-07 	1.274810375e-05
0.8733642276 	0.01893467539 	0.003271785859 	-2.931389737e-07 	0.006803103933 	-1.620889864e-07 	1.296860692e-05
0.8756700675 	0.0191888558 	0.003357262457 	-2.717005964e-07 	0.006924060005 	-1.458635533e-07 	1.319918281e-05
0.8779505993 	0.01945484966 	0.003445667534 	-2.514280926e-07 	0.007050407753 	-1.302748682e-07 	1.344003674e-05
0.8802060927 	0.01973302207 	0.003536980094 	-2.323017452e-07 	0.00718222188 	-1.153590141e-07 	1.36913111e-05
0.8824368228 	0.02002367762 	0.003631152654 	-2.143041464e-07 	0.007319540601 	-1.01151666e-07 	1.395307875e-05
0.8846430618 	0.0203270396 	0.00372810709 	-1.974159205e-07 	0.007462353017 	-8.768453015e-08 	1.422531891e-05
0.88682508 	0.02064322932 	0.003827737846 	-1.816140122e-07 	0.007610598157 	-7.498450297e-08 	1.450791534e-05
0.8889831442 	0.02097224418 	0.003929907785 	-1.668707302e-07 	0.00776415238 	-6.307410573e-08 	1.480063237e-05
0.8911175121 	0.02131393949 	0.004034453541 	-1.531559428e-07 	0.007922835414 	-5.196867518e-08 	1.510312634e-05
0.8932284436 	0.02166801336 	0.004141190443 	-1.404359292e-07 	0.008086411879 	-4.167589334e-08 	1.541494854e-05
0.895316196 	0.02203399803 	0.004249911748 	-1.286728254e-07 	0.008254585565 	-3.219553582e-08 	1.573553433e-05
0.8973810235 	0.02241126028 	0.004360394945 	-1.178238976e-07 	0.008427008933 	-2.351805672e-08 	1.606422119e-05
0.8994231797 	0.02279900693 	0.004472402926 	-1.078425343e-07 	0.008603283518 	-1.562749646e-08 	1.640024954e-05
0.9014429092 	0.02319629547 	0.0045856867 	-9.867995605e-08 	0.00878296647 	-8.502158584e-09 	1.674277519e-05
0.9034404575 	0.02360204861 	0.0046999927 	-9.028678895e-08 	0.008965585296 	-2.114369497e-09 	1.709089743e-05
0.9054160679 	0.02401507262 	0.004815063096 	-8.261357371e-08 	0.009150638755 	3.56670778e-09 	1.744366075e-05
0.9073699809 	0.0244340829 	0.004930638961 	-7.561065643e-08 	0.009337606614 	8.575867761e-09 	1.780007346e-05
0.9093024346 	0.0248577354 	0.005046465348 	-6.922827077e-08 	0.009525962513 	1.295136749e-08 	1.815913215e-05
0.9112136641 	0.02528466022 	0.005162291268 	-6.34169268e-08 	0.00971517759 	1.67328201e-08 	1.851982868e-05
0.9131039001 	0.02571349372 	0.005277875542 	-5.812834386e-08 	0.009904736708 	1.996260631e-08 	1.888118105e-05
0.9149733728 	0.02614290418 	0.00539299007 	-5.331571123e-08 	0.01009414695 	2.268473632e-08 	1.924224961e-05
0.9168223097 	0.02657161169 	0.005507418548 	-4.89343441e-08 	0.01028293689 	2.494289096e-08 	1.960213572e-05