0.3810449493 	1.206882548e-06 	-7.576978543e-09 	2.841746507e-12 	1.200404551e-06 	-3.238808843e-10 	2.28830471e-09
0.3810449493 	1.206882548e-06 	-7.576978543e-09 	2.841746507e-12 	1.200404551e-06 	-3.238808843e-10 	2.28830471e-09
0.3812213909 	1.445168203e-05 	-3.455240916e-07 	1.744458851e-10 	1.420166426e-05 	-5.206328576e-09 	2.707231923e-08
0.3813978397 	8.155142817e-05 	-4.33792015e-06 	2.353369916e-09 	7.784125415e-05 	-3.084339607e-08 	1.483870653e-07
0.381574295 	0.0002782408855 	-2.529049919e-05 	1.342700639e-08 	0.0002503008584 	-9.880874061e-08 	4.771430036e-07
0.3817507564 	0.0007135894445 	-9.186389444e-05 	4.510073647e-08 	0.0005794472407 	-2.170713756e-07 	1.10458749e-06
0.3819272234 	0.001525727868 	-0.0002389319779 	1.023106817e-07 	0.001067249688 	-3.622970526e-07 	2.034474533e-06
0.3821036954 	0.002850241095 	-0.0004827222926 	1.683474621e-07 	0.001655739946 	-4.873264038e-07 	3.156300526e-06
0.3822801719 	0.004754766459 	-0.0008032129315 	2.103913546e-07 	0.002255959347 	-5.576431861e-07 	4.300485526e-06
0.3824566525 	0.007189426211 	-0.001154521927 	2.033938967e-07 	0.002797254263 	-5.735153939e-07 	5.332344082e-06
0.3826331365 	0.009759837929 	-0.001517601023 	2.043926053e-07 	0.00345558475 	-8.053600504e-07 	6.587304964e-06
0.3828096235 	0.01223403047 	-0.001895065548 	2.277079858e-07 	0.004298648847 	-1.104914832e-06 	8.194419451e-06
0.382986113 	0.01470284927 	-0.00227700871 	2.347378881e-07 	0.005166021621 	-1.228534617e-06 	9.847873031e-06
0.3831626043 	0.01712399054 	-0.002652510561 	2.327619045e-07 	0.006018167677 	-1.323698865e-06 	1.147230025e-05
0.3833390971 	0.01944978254 	-0.003013948383 	2.243759098e-07 	0.006835821212 	-1.388266097e-06 	1.303097515e-05
0.3835155909 	0.02164739639 	-0.003359094908 	2.179830182e-07 	0.007607081894 	-1.425408748e-06 	1.450121237e-05
0.383692085 	0.02369563573 	-0.003689700008 	2.211220656e-07 	0.008322912362 	-1.432971209e-06 	1.58657842e-05
0.3838685789 	0.02558140986 	-0.00401075977 	2.402514891e-07 	0.008976154032 	-1.409272058e-06 	1.711104438e-05
0.3840450723 	0.0272965746 	-0.004328696184 	2.774851446e-07 	0.009561142622 	-1.353396564e-06 	1.822619522e-05
0.3842215645 	0.02883594746 	-0.004649344957 	3.303609021e-07 	0.01007366908 	-1.266021707e-06 	1.920321309e-05
0.384398055 	0.03019686131 	-0.004977028577 	3.945464406e-07 	0.01051113958 	-1.149671718e-06 	2.003715347e-05
0.3845745433 	0.0313799353 	-0.005315071294 	4.671922737e-07 	0.01087257495 	-1.00798695e-06 	2.072614972e-05
0.384751029 	0.03236699971 	-0.005579453861 	2.722854937e-07 	0.01118110356 	-9.22453965e-07 	2.131429101e-05
0.3849275114 	0.0331535007 	-0.005700108053 	1.069253284e-08 	0.01146028031 	-8.57681772e-07 	2.184647949e-05
0.3851039901 	0.03377939267 	-0.005749561117 	-5.372710808e-08 	0.01169990983 	-7.459031732e-07 	2.230327996e-05
0.3852804646 	0.03427547656 	-0.005785051828 	-1.156557399e-07 	0.01189172979 	-6.300132905e-07 	2.266894212e-05
0.3854569344 	0.03465217438 	-0.005807036659 	-1.746092667e-07 	0.01203978794 	-5.10851146e-07 	2.29511821e-05
0.385633399 	0.03491848842 	-0.005816254384 	-2.301808421e-07 	0.0121474836 	-3.899351969e-07 	2.315647997e-05
0.3858098578 	0.03508275366 	-0.005813566761 	-2.822452627e-07 	0.01221789724 	-2.686661968e-07 	2.329070792e-05
0.3859863103 	0.03515280154 	-0.005799796389 	-3.307945631e-07 	0.01225379718 	-1.484106064e-07 	2.335914319e-05
0.3861627561 	0.03513603413 	-0.005775837206 	-3.758787006e-07 	0.01225800639 	-3.040702846e-08 	2.336716711e-05
0.3863391946 	0.03502059941 	-0.005736777836 	-4.246360759e-07 	0.0122282536 	9.994410509e-08 	2.331045002e-05
0.3866133237 	0.03474486447 	-0.005672312178 	-4.767185779e-07 	0.01214319406 	2.541961401e-07 	2.31483029e-05
0.3868925839 	0.03428690339 	-0.00558249759 	-5.281392369e-07 	0.01199298553 	4.129673888e-07 	2.28619637e-05
0.3871770685 	0.03367818855 	-0.005473208982 	-5.723550683e-07 	0.01178842204 	5.580612385e-07 	2.247200883e-05
0.3874668729 	0.03293286996 	-0.005345905674 	-6.091253877e-07 	0.01153502078 	6.867499913e-07 	2.19889556e-05
0.3877620936 	0.03206524764 	-0.005201889613 	-6.382734215e-07 	0.01123798587 	7.967039106e-07 	2.142272451e-05
0.3880628288 	0.03108978993 	-0.005042559464 	-6.596971736e-07 	0.01090269256 	8.860350988e-07 	2.078356226e-05
0.3883691783 	0.03002112084 	-0.004869365819 	-6.733490423e-07 	0.01053461403 	9.533066686e-07 	2.008190228e-05
0.3886812435 	0.0288740046 	-0.004683786108 	-6.792944747e-07 	0.01013927776 	9.977550004e-07 	1.932828147e-05
0.3889991275 	0.02766307836 	-0.004487215521 	-6.771400077e-07 	0.009722150657 	1.018872561e-06 	1.853312129e-05
0.3893229347 	0.02640461335 	-0.00428167175 	-6.618570704e-07 	0.009289178859 	1.012959757e-06 	1.77077567e-05
0.3896527714 	0.02511882357 	-0.004070695398 	-6.313254397e-07 	0.008847538734 	9.789665161e-07 	1.686586787e-05
0.3899887454 	0.02382581794 	-0.003857752002 	-5.921870875e-07 	0.008404423047 	9.233822621e-07 	1.602116622e-05
0.3903309662 	0.02254176863 	-0.003644873483 	-5.474656473e-07 	0.007965824476 	8.505408114e-07 	1.518507544e-05
0.3906795449 	0.02128203496 	-0.00343407347 	-4.954914729e-07 	0.007537476346 	7.617205218e-07 	1.436852485e-05
0.3910345942 	0.02006337983 	-0.003228363136 	-4.357894404e-07 	0.007125568983 	6.597658623e-07 	1.358331493e-05
0.3913962286 	0.01890335612 	-0.003031633054 	-3.691064939e-07 	0.006736583745 	5.486565859e-07 	1.284180095e-05
0.391764564 	0.01781972123 	-0.002848338477 	-2.991902203e-07 	0.006376985013 	4.361486242e-07 	1.215630583e-05
0.3921397182 	0.0168293242 	-0.002681847635 	-2.264528567e-07 	0.006050699419 	3.213010192e-07 	1.15343148e-05
0.3925218105 	0.01594636498 	-0.002538893745 	-1.548468966e-07 	0.005769012002 	2.090725014e-07 	1.099734029e-05
0.3929109619 	0.01517525413 	-0.002420847473 	-1.014971469e-07 	0.005543617789 	5.364117682e-08 	1.056767627e-05
0.3933072949 	0.01433251357 	-0.002325071242 	-5.775754967e-08 	0.005494509168 	-6.255282683e-08 	1.047406159e-05
0.3937109339 	0.0134001707 	-0.002244931842 	-2.48917935e-08 	0.005614324274 	-5.388239302e-08 	1.070246249e-05
0.3941220045 	0.01256728952 	-0.002169309877 	-4.56964229e-10 	0.00575984713 	-1.098398319e-09 	1.09798695e-05
0.394129973 	0.01255356911 	-0.002167833745 	6.682123824e-08 	0.005762720661 	1.214749876e-07 	1.098534724e-05
0.3945400737 	0.01184598883 	-0.002091746051 	-2.349728786e-08 	0.005910786188 	-5.807997903e-08 	1.126760129e-05
0.3949668698 	0.01121972248 	-0.00200979477 	-4.842653784e-08 	0.006064379332 	-1.243473561e-07 	1.156039251e-05
0.3954119652 	0.01067736178 	-0.001925831721 	-7.254607832e-08 	0.006226365114 	-2.045442668e-07 	1.186918244e-05
0.395865298 	0.01021492859 	-0.001841988787 	-9.441287073e-08 	0.006396592249 	-2.942924804e-07 	1.219368267e-05
0.3963270188 	0.00983140928 	-0.001762031433 	-1.092476806e-07 	0.006571219886 	-3.902365537e-07 	1.252657148e-05
0.3967972809 	0.009518638218 	-0.001687721222 	-1.196190963e-07 	0.006751430063 	-5.007450578e-07 	1.287010216e-05
0.3972762401 	0.00925958673 	-0.001615579742 	-1.366913316e-07 	0.006942549679 	-6.341255455e-07 	1.323442927e-05
0.3977640554 	0.009042065141 	-0.001542960953 	-1.567632818e-07 	0.007143577184 	-7.729819798e-07 	1.361764357e-05
0.3982608883 	0.008861214023 	-0.001470592276 	-1.732708239e-07 	0.007348871433 	-9.070384049e-07 	1.400899146e-05
0.3987669034 	0.008711767909 	-0.001398937622 	-1.890509241e-07 	0.007554860258 	-1.040131057e-06 	1.440166342e-05
0.399282268 	0.008588387427 	-0.001327966982 	-2.044257278e-07 	0.007759685512 	-1.173280875e-06 	1.479211728e-05
0.3998071528 	0.00848662625 	-0.001257642453 	-2.194653105e-07 	0.007962295929 	-1.307163078e-06 	1.517834905e-05
0.4003417311 	0.008402846712 	-0.001187880649 	-2.344866653e-07 	0.008161957083 	-1.44132476e-06 	1.55589587e-05
0.4008861797 	0.008334096494 	-0.001118564436 	-2.497466648e-07 	0.008358088275 	-1.575311785e-06 	1.593283926e-05
0.4014406782 	0.008277987362 	-0.001049560383 	-2.655029942e-07 	0.008550220624 	-1.708586009e-06 	1.629909692e-05
0.4020054097 	0.008232589292 	-0.0009807259572 	-2.820141787e-07 	0.008737955274 	-1.840478202e-06 	1.665697134e-05
0.4025805604 	0.008196343769 	-0.0009119151124 	-2.995341644e-07 	0.008920933641 	-1.970194194e-06 	1.700577897e-05
0.4031663199 	0.008167993378 	-0.0008429826334 	-3.183089859e-07 	0.009098818836 	-2.096827483e-06 	1.734487759e-05
0.4037628812 	0.008146525148 	-0.0007737873049 	-3.385749193e-07 	0.009271284228 	-2.219367605e-06 	1.767364456e-05
0.4043704407 	0.008131125331 	-0.0007041941842 	-3.605570815e-07 	0.009438006581 	-2.336705543e-06 	1.79914637e-05
0.4049891984 	0.008121143509 	-0.0006340762426 	-3.844679903e-07 	0.009598661503 	-2.447636975e-06 	1.829771663e-05
0.4056193577 	0.008116062828 	-0.0005633144632 	-4.105071054e-07 	0.009752914715 	-2.550858549e-06 	1.859176613e-05
0.4062611258 	0.008115477051 	-0.0004917970709 	-4.388592834e-07 	0.009900425064 	-2.64496988e-06 	1.887296185e-05
0.4069147136 	0.008119101806 	-0.0004194422905 	-4.696955629e-07 	0.01004093907 	-2.728442122e-06 	1.91408206e-05
0.4075803356 	0.008126638355 	-0.0003460637334 	-5.031717888e-07 	0.01017396312 	-2.799670104e-06 	1.939440141e-05
0.4082582104 	0.008138004013 	-0.0002714743684 	-4.917128251e-07 	0.01029939301 	-2.603791097e-06 	1.963350564e-05
0.4089563963 	0.008153383992 	-0.0001953180198 	-4.778901383e-07 	0.01041777522 	-2.39122844e-06 	1.985917505e-05
0.4096771504 	0.008172652032 	-0.0001171414301 	-4.631860977e-07 	0.01052835238 	-2.173497488e-06 	2.006996585e-05
0.4104111267 	0.008195751425 	-3.735616521e-05 	-4.475502789e-07 	0.01062974481 	-1.954824598e-06 	2.0263248e-05
0.411158564 	0.008222804047 	4.361097207e-05 	-4.3061455e-07 	0.01072122475 	-1.73685349e-06 	2.043763419e-05
0.411919705 	0.008253870813 	0.000125875412 	-4.121064303e-07 	0.01080222602 	-1.521158807e-06 	2.059204512e-05
0.4126947969 	0.0082891335 	0.000209451563 	-3.917260894e-07 	0.01087225495 	-1.309613666e-06 	2.072553971e-05
0.4134840914 	0.008328824701 	0.0002943473654 	-3.691988085e-07 	0.01093075354 	-1.10387859e-06 	2.083705429e-05
0.4142878445 	0.008373205834 	0.0003805616455 	-3.446998536e-07 	0.01097706486 	-9.047655394e-07 	2.092533654e-05
0.4151063168 	0.008422492892 	0.000468123437 	-3.172877901e-07 	0.01101032262 	-7.169596313e-07 	2.098873507e-05
0.4159397736 	0.008477266333 	0.0005567048137 	-2.799544081e-07 	0.01103008817 	-5.474035548e-07 	2.10264137e-05
0.4167884849 	0.008542378436 	0.0006553471058 	-2.234485483e-07 	0.01103816251 	-4.430372325e-07 	2.104180565e-05
0.4180905889 	0.008605091906 	0.0007706658812 	-1.438891442e-07 	0.01104412679 	-3.574414629e-07 	2.105317522e-05
0.419406252 	0.00865506802 	0.0008885804536 	-8.240683549e-08 	0.01105445876 	-2.535567085e-07 	2.107287082e-05
0.4207356172 	0.008704147438 	0.0009993068457 	-3.663720426e-08 	0.01106503002 	-1.326943237e-07 	2.109302258e-05
0.4220788289 	0.008756341588 	0.001103863726 	-1.656433008e-09 	0.01107515553 	-7.200232776e-09 	2.111232462e-05
0.4221548793 	0.008759338918 	0.001109297726 	2.302263476e-07 	0.01107569629 	-5.631480056e-08 	2.111335547e-05
0.4234639132 	0.008811022889 	0.00120304177 	-2.510593397e-08 	0.01108499493 	-1.229341619e-07 	2.113108126e-05
0.4248663094 	0.008866970039 	0.001296747999 	-3.985558188e-08 	0.01109420198 	-2.579258957e-07 	2.114863245e-05
0.4262832195 	0.008923166158 	0.001383705378 	-4.194560793e-08 	0.01110383746 	-3.977964318e-07 	2.116700034e-05
0.4277147966 	0.008978921176 	0.001464127828 	-3.135303169e-08 	0.01111407293 	-5.423866869e-07 	2.1186512e-05
0.4291611958 	0.009033733377 	0.001538243378 	-8.418545889e-09 	0.01112517829 	-6.914160253e-07 	2.12076819e-05
0.4306225742 	0.009087210578 	0.001606369383 	2.613161509e-08 	0.0111372963 	-8.443683405e-07 	2.12307822e-05
0.4320990907 	0.009139118329 	0.00166882441 	7.124952864e-08 	0.0111506758 	-1.000503517e-06 	2.125628724e-05
0.4335909064 	0.009189253352 	0.001726240163 	1.257301422e-07 	0.01116493818 	-1.159155601e-06 	2.128347531e-05
0.4350981844 	0.009237622428 	0.001778856602 	1.88179913e-07 	0.01118055566 	-1.3193954e-06 	2.131324657e-05
0.4366434922 	0.009284568282 	0.001827355426 	2.578574936e-07 	0.01119780922 	-1.483130791e-06 	2.134613665e-05
0.4382166345 	0.009330112458 	0.001872575127 	3.170584722e-07 	0.01121592827 	-1.567754333e-06 	2.138067658e-05
0.4398059559 	0.009374010613 	0.001914415699 	3.232862833e-07 	0.01123499367 	-1.419969905e-06 	2.141702053e-05
0.4414116291 	0.00941630699 	0.001953158415 	3.175178059e-07 	0.01125498645 	-1.268664618e-06 	2.145513234e-05
0.4430338293 	0.009457208945 	0.001989317934 	3.012763697e-07 	0.01127574295 	-1.114749134e-06 	2.14947e-05
0.4446727339 	0.009496931807 	0.002023278656 	2.760431406e-07 	0.0112972658 	-9.589891541e-07 	2.153572853e-05
0.4463285227 	0.009535666589 	0.002055534015 	2.432489877e-07 	0.01131922996 	-8.021375414e-07 	2.157759832e-05
0.4480013782 	0.009573589663 	0.002086324555 	2.041695031e-07 	0.01134170594 	-6.447193148e-07 	2.162044378e-05
0.4497078613 	0.00961109046 	0.002115878622 	1.592867508e-07 	0.01136520803 	-4.850667915e-07 	2.16652453e-05
0.4514512468 	0.009648492434 	0.002144885841 	1.095009809e-07 	0.0113891745 	-3.234396435e-07 	2.171093206e-05
0.4532124669 	0.009685682322 	0.002173379642 	5.644031255e-08 	0.01141334991 	-1.625129886e-07 	2.17570171e-05
0.454991715 	0.0097226125 	0.002201214107 	8.499780654e-10 	0.0114379636 	-2.395798538e-09 	2.180393765e-05
0.4550186889 	0.009723164674 	0.002201625417 	1.141048528e-08 	0.01143833792 	-1.086727276e-08 	2.180465119e-05
0.4567876948 	0.009759456356 	0.0022286298 	5.61442957e-08 	0.01146286965 	-1.569899606e-07 	2.185141549e-05
0.4586020882 	0.009796358026 	0.002255759192 	1.146515863e-07 	0.01148821443 	-3.154707144e-07 	2.189972968e-05
0.4604351201 	0.009833386159 	0.002282935429 	1.742607734e-07 	0.0115134737 	-4.730974715e-07 	2.194788087e-05
0.462291103 	0.009870655367 	0.002309846379 	2.347690361e-07 	0.01153959704 	-6.302608576e-07 	2.199767923e-05
0.4641986841 	0.009908610105 	0.002337000114 	2.970999261e-07 	0.01156647308 	-7.90017271e-07 	2.204891242e-05
0.4661257233 	0.009947171148 	0.002364718906 	3.596763294e-07 	0.01159323625 	-9.488984048e-07 	2.209993047e-05
0.4680724357 	0.009986018572 	0.00239241079 	4.222988233e-07 	0.01162045636 	-1.106791611e-06 	2.215181955e-05
0.4700390397 	0.0100252759 	0.002420231383 	4.8485137e-07 	0.01164807149 	-1.263798887e-06 	2.220446167e-05
0.4720257568 	0.01006499881 	0.00244832489 	5.472494941e-07 	0.01167588309 	-1.420021371e-06 	2.225747832e-05
0.4740328119 	0.01010518609 	0.002476645319 	6.094099733e-07 	0.01170401447 	-1.57553147e-06 	2.231110454e-05
0.4760774571 	0.01014606104 	0.002505174192 	5.502575522e-07 	0.01173301925 	-1.418299096e-06 	2.236639572e-05
0.478163013 	0.01018784887 	0.002534336283 	4.888531478e-07 	0.01176240369 	-1.256953294e-06 	2.242241063e-05
0.4802697826 	0.0102303038 	0.002563990609 	4.2742783e-07 	0.01179193104 	-1.096965661e-06 	2.247869797e-05
0.4823980057 	0.01027324932 	0.002593824903 	3.660562775e-07 	0.01182193165 	-9.381115225e-07 	2.253588746e-05
0.4845479263 	0.01031675971 	0.002624000696 	3.04819335e-07 	0.01185218513 	-7.803892344e-07 	2.259355901e-05
0.4867197918 	0.01036082757 	0.002654514276 	2.437797403e-07 	0.01188270902 	-6.237498733e-07 	2.265174602e-05
0.488928055 	0.01040562173 	0.002685296174 	1.824493856e-07 	0.01191408092 	-4.66697149e-07 	2.271154958e-05
0.4911816255 	0.01045140497 	0.002716741328 	1.206600793e-07 	0.01194589596 	-3.086532863e-07 	2.277219789e-05
0.4934580691 	0.01049794727 	0.00274877866 	5.935523881e-08 	0.0119777887 	-1.518962574e-07 	2.283299433e-05
0.4957035467 	0.0105439087 	0.002780253222 	1.843636574e-08 	0.0120094552 	-2.026203274e-08 	2.289335947e-05
0.4957576181 	0.01054501705 	0.00278101132 	1.419856635e-09 	0.01201021732 	-3.656465934e-09 	2.289481227e-05
0.4980792332 	0.01059270292 	0.002813701838 	6.130993407e-08 	0.0120426125 	-1.580596911e-07 	2.295656649e-05
0.5004245514 	0.0106409556 	0.002846611436 	1.205796039e-07 	0.0120756457 	-3.112887251e-07 	2.301953697e-05
0.5028227957 	0.0106901517 	0.002880000738 	1.801557814e-07 	0.01210948524 	-4.658144337e-07 	2.308404453e-05
0.5052529341 	0.0107403397 	0.00291420638 	2.391621727e-07 	0.01214331972 	-6.195940935e-07 	2.314854245e-05
0.5077077682 	0.01079112069 	0.002948723892 	2.973139631e-07 	0.01217755949 	-7.719212717e-07 	2.321381296e-05
0.5101875913 	0.01084249335 	0.002983658144 	3.545776777e-07 	0.01221190857 	-9.228543548e-07 	2.327929185e-05
0.5126927018 	0.01089445051 	0.003018895806 	4.109098244e-07 	0.01224671884 	-1.072385142e-06 	2.33456499e-05
0.5152453314 	0.01094728443 	0.003054584088 	4.669352305e-07 	0.0122822675 	-1.222164475e-06 	2.341341554e-05
0.5178375627 	0.01100114103 	0.003091051548 	5.222390136e-07 	0.01231793106 	-1.371407117e-06 	2.34814002e-05
0.5204561288 	0.01105568607 	0.00312795204 	5.763844383e-07 	0.01235388226 	-1.518954329e-06 	2.354993318e-05
0.5231013502 	0.01111082537 	0.003165299093 	5.375085415e-07 	0.01238985213 	-1.421926226e-06 	2.361850173e-05
0.5257735529 	0.01116655408 	0.003202933453 	4.804914665e-07 	0.01242637135 	-1.276306674e-06 	2.368811753e-05
0.5285003312 	0.01122325657 	0.003241118584 	4.236573231e-07 	0.01246354721 	-1.13019249e-06 	2.375898505e-05
0.5312618722 	0.01128098766 	0.003280111948 	3.677182635e-07 	0.01250068531 	-9.85619259e-07 	2.382978059e-05
0.5340515049 	0.01133934786 	0.003319519846 	3.129543656e-07 	0.01253800685 	-8.430332933e-07 	2.390092581e-05
0.53686958 	0.01139831493 	0.00335934662 	2.593768313e-07 	0.01257546527 	-7.024229346e-07 	2.397233197e-05
0.5397256397 	0.01145803388 	0.003399572479 	2.067501514e-07 	0.01261351758 	-5.630451739e-07 	2.404487026e-05
0.5426344385 	0.01151882721 	0.003440525423 	1.548268508e-07 	0.01265184929 	-4.241512834e-07 	2.411794115e-05
0.5455728418 	0.01158050555 	0.003482135721 	1.043025056e-07 	0.01269016763 	-2.875623331e-07 	2.419098655e-05
0.5485412272 	0.01164279113 	0.003524212067 	5.520367215e-08 	0.01272841761 	-1.532191677e-07 	2.426390164e-05
0.5515410631 	0.01170572819 	0.003566636345 	7.511450182e-09 	0.01276717616 	-2.099560971e-08 	2.433778621e-05
0.5520281168 	0.01171591671 	0.003573497701 	1.545399251e-07 	0.01277340885 	-1.991121178e-07 	2.434966745e-05
0.5546006518 	0.01176977497 	0.003609734137 	3.899149835e-08 	0.012806318 	-1.107193989e-07 	2.441240144e-05
0.5576913108 	0.01183485349 	0.00365362733 	8.378471038e-08 	0.01284523282 	-2.398395372e-07 	2.448658391e-05
0.5608136116 	0.01190054567 	0.0036979897 	1.269328487e-07 	0.01288402888 	-3.664330994e-07 	2.456053998e-05
0.5639687067 	0.011966917 	0.003742738688 	1.684439053e-07 	0.01292322111 	-4.905922895e-07 	2.463525125e-05
0.567184494 	0.01203441026 	0.003788187078 	2.087733977e-07 	0.01296271588 	-6.1371654e-07 	2.471053927e-05
0.5704332106 	0.01210296499 	0.003834468063 	2.472177826e-07 	0.01300180344 	-7.340041875e-07 	2.478505103e-05
0.5737152938 	0.01217214811 	0.003881195374 	2.838251044e-07 	0.0130408227 	-8.515024565e-07 	2.485943257e-05
0.5770372296 	0.01224214598 	0.003928412427 	3.186822231e-07 	0.01308008112 	-9.665732905e-07 	2.493427003e-05
0.5804142413 	0.01231328662 	0.003976373986 	3.518986274e-07 	0.01311935123 	-1.079683157e-06 	2.500912978e-05
0.5838259791 	0.0123854188 	0.00402510553 	3.830285896e-07 	0.01315809134 	-1.189705748e-06 	2.50829792e-05
0.5872729134 	0.01245822149 	0.00407426721 	4.121554355e-07 	0.01319682769 	-1.296699715e-06 	2.515682145e-05
0.5907705878 	0.01253204015 	0.004124046943 	4.39441116e-07 	0.01323560563 	-1.401321316e-06 	2.523074298e-05
0.5943140224 	0.01260700772 	0.004174629935 	4.646062983e-07 	0.01327392588 	-1.502984641e-06 	2.530379203e-05
0.5978940924 	0.01268280772 	0.004225810861 	4.279943334e-07 	0.01331178388 	-1.405646099e-06 	2.537595989e-05
0.6015149511 	0.01275944137 	0.004277490753 	3.913886193e-07 	0.0133495537 	-1.306018485e-06 	2.544795967e-05
0.6051922863 	0.01283725018 	0.004329899291 	3.561979266e-07 	0.01338700796 	-1.208726034e-06 	2.55193579e-05
0.6089077541 	0.01291610606 	0.004383062048 	3.227118362e-07 	0.01342361682 	-1.114855151e-06 	2.558914455e-05
0.612661888 	0.01299570698 	0.004436666421 	2.909846998e-07 	0.01345994429 	-1.024300288e-06 	2.565839482e-05
0.6164727598 	0.01307644702 	0.00449092602 	2.607689105e-07 	0.01349587986 	-9.363233988e-07 	2.5726898e-05
0.6203260974 	0.01315833157 	0.004545959108 	2.322652349e-07 	0.0135307881 	-8.518209943e-07 	2.57934428e-05
0.6242196901 	0.01324099399 	0.00460144384 	2.055483575e-07 	0.01356514669 	-7.708293256e-07 	2.585893982e-05
0.6281668391 	0.013324745 	0.004657516374 	1.804372979e-07 	0.01359890672 	-6.928161322e-07 	2.592329583e-05
0.6321607674 	0.01340965556 	0.004714308438 	1.570309244e-07 	0.01363148946 	-6.183296881e-07 	2.598540759e-05
0.6361966073 	0.01349539441 	0.004771549313 	1.353876627e-07 	0.01366325255 	-5.475062215e-07 	2.604595686e-05
0.6402856089 	0.0135822027 	0.004829320076 	1.153629348e-07 	0.01369415773 	-4.799200689e-07 	2.610487073e-05
0.6444231319 	0.01367015774 	0.004887735103 	9.701617147e-08 	0.01372366034 	-4.160102931e-07 	2.616111091e-05
0.6486042948 	0.01375895068 	0.004946544402 	8.036205792e-08 	0.01375209474 	-3.558695499e-07 	2.621531478e-05
0.6528401147 	0.01384881868 	0.005005824688 	6.526974924e-08 	0.01377935197 	-2.991382309e-07 	2.626727464e-05
0.6571245484 	0.0139397889 	0.005065642375 	5.178382395e-08 	0.01380493225 	-2.462562294e-07 	2.631603776e-05
0.6614544254 	0.01403157905 	0.005125757587 	3.986301974e-08 	0.01382919132 	-1.971940115e-07 	2.636228228e-05
0.6658416149 	0.01412445883 	0.005186277855 	2.938794841e-08 	0.01385185627 	-1.516741425e-07 	2.640548798e-05
0.6702766106 	0.01421834337 	0.005247170908 	2.038293941e-08 	0.01387261041 	-1.10131256e-07 	2.644505113e-05
0.6747608143 	0.01431305946 	0.005308251158 	1.274541681e-08 	0.01389171564 	-7.235214238e-08 	2.648147102e-05
0.6793018053 	0.01440856429 	0.005369459513 	6.400389169e-09 	0.01390869203 	-3.832913547e-08 	2.651383272e-05
0.6838407313 	0.014503796 	0.00543012757 	1.35097827e-09 	0.01392343643 	-8.569181929e-09 	2.654193965e-05
0.68533741 	0.01453517225 	0.005449971222 	3.461468733e-07 	0.01392761058 	-1.139659521e-06 	2.654989674e-05
0.6883321244 	0.01459795735 	0.005489672958 	2.490553878e-09 	0.01393596015 	-1.706700783e-08 	2.656581335e-05
0.6927764795 	0.01469091448 	0.00554802075 	5.274425334e-09 	0.0139459321 	-3.862788908e-08 	2.658482266e-05
0.6971701987 	0.01478244827 	0.005605034598 	7.172741664e-09 	0.01395366269 	-5.641507256e-08 	2.65995593e-05
0.7015195371 	0.01487274041 	0.005660766645 	8.335481958e-09 	0.01395908104 	-7.081580464e-08 	2.660988818e-05
0.7058210368 	0.01496176308 	0.005715233328 	8.85593935e-09 	0.01396200969 	-8.182972459e-08 	2.661547102e-05
0.7100738481 	0.01504932488 	0.005768308197 	8.869717259e-09 	0.01396280871 	-8.982410689e-08 	2.661699416e-05
0.7142840845 	0.01513563581 	0.005820068254 	8.482444198e-09 	0.01396131858 	-9.504823023e-08 	2.661415355e-05
0.7184469364 	0.01522058728 	0.005870487168 	7.776072976e-09 	0.0139574986 	-9.754079141e-08 	2.660687162e-05
0.7225632872 	0.01530406469 	0.005919479364 	6.857078675e-09 	0.01395163824 	-9.765508137e-08 	2.659570015e-05
0.7266374089 	0.01538625385 	0.005967118239 	5.799043315e-09 	0.01394355105 	-9.553379723e-08 	2.658028372e-05
0.730665764 	0.01546701242 	0.0060133622 	4.671696033e-09 	0.01393328806 	-9.126588471e-08 	2.65607196e-05
0.7346493111 	0.01554628179 	0.006058156869 	3.551205864e-09 	0.01392107357 	-8.515439306e-08 	2.65374354e-05
0.7385913566 	0.01562422394 	0.006101563731 	2.490573214e-09 	0.0139067371 	-7.730074535e-08 	2.651010609e-05
0.7424893035 	0.01570070407 	0.006143550157 	1.542263779e-09 	0.01389033417 	-6.779350197e-08 	2.647883755e-05
0.74634377 	0.01577565892 	0.006184069357 	7.577371358e-10 	0.01387208382 	-5.68888451e-08 	2.64440473e-05
0.7501578474 	0.01584925093 	0.006223173328 	1.744575016e-10 	0.01385184584 	-4.469039327e-08 	2.640546809e-05
0.7539294053 	0.01592138345 	0.006260851715 	-1.717109335e-10 	0.01382961954 	-3.125002585e-08 	2.636309859e-05
0.7576589941 	0.01599194594 	0.006297053525 	-2.491231937e-10 	0.01380565392 	-1.678428458e-08 	2.631741346e-05
0.7613487646 	0.0160611046 	0.006331819141 	-3.424247686e-11 	0.0137798509 	-1.417123855e-09 	2.626822574e-05
0.7616645071 	0.01606696374 	0.006334703973 	1.127101322e-08 	0.0137774529 	-3.556265125e-07 	2.626365446e-05
0.7649978035 	0.01612882541 	0.006365161935 	-4.836572178e-10 	0.01375213396 	-1.478585364e-08 	2.621538954e-05
0.7686063318 	0.01619494615 	0.006397032608 	-1.332144892e-09 	0.01372276841 	-3.16928283e-08 	2.615941063e-05
0.7721756267 	0.01625961126 	0.006427455515 	-2.522822332e-09 	0.01369171874 	-4.916525945e-08 	2.610022134e-05
0.7757060681 	0.01632285208 	0.006456459997 	-4.070957566e-09 	0.013658868 	-6.721210925e-08 	2.603759869e-05
0.779197407 	0.01638450519 	0.00648401363 	-5.980329766e-09 	0.01362441395 	-8.571519269e-08 	2.59719197e-05
0.7826502185 	0.01644462656 	0.006510118014 	-8.249300823e-09 	0.01358842737 	-1.045347824e-07 	2.590331928e-05
0.7860658461 	0.01650331679 	0.006534803811 	-1.088333614e-08 	0.01355080329 	-1.236414691e-07 	2.583159732e-05
0.7894437099 	0.01656048624 	0.006558071111 	-1.3883439e-08 	0.01351158467 	-1.429956568e-07 	2.575683574e-05
0.7927842666 	0.01661605009 	0.006579901994 	-1.72379896e-08 	0.01347095851 	-1.624848097e-07 	2.567939098e-05
0.7960883722 	0.01667013214 	0.006600316572 	-2.093890601e-08 	0.01342888103 	-1.820168089e-07 	2.559917961e-05
0.7993563864 	0.01672275025 	0.006619336444 	-2.498862316e-08 	0.01338528612 	-2.016059483e-07 	2.551607559e-05
0.8025883531 	0.01677377579 	0.00663695345 	-2.93720467e-08 	0.0133403196 	-2.211807607e-07 	2.54303569e-05
0.8057846993 	0.01682321731 	0.006653168536 	-3.40709445e-08 	0.01329408006 	-2.40655392e-07 	2.534221148e-05
0.8089462876 	0.01687117772 	0.006668002728 	-3.907574108e-08 	0.01324650172 	-2.599829771e-07 	2.525151395e-05
0.812073146 	0.01691762656 	0.006681471357 	-4.438168385e-08 	0.01319757911 	-2.791726056e-07 	2.515825385e-05
0.8151655736 	0.01696245827 	0.006693573289 	-4.996543404e-08 	0.01314746276 	-2.981626e-07 	2.506271817e-05
0.8182239713 	0.01700571638 	0.006704317065 	-5.580559948e-08 	0.01309620514 	-3.168869943e-07 	2.49650069e-05
0.8212490869 	0.01704748502 	0.006713722409 	-6.189208794e-08 	0.01304374501 	-3.353224534e-07 	2.486500331e-05
0.8242409391 	0.01708772189 	0.006721804406 	-6.821463188e-08 	0.01299010963 	-3.534718893e-07 	2.476275937e-05
0.8271998887 	0.01712635141 	0.00672857049 	-7.474742555e-08 	0.01293542386 	-3.712883816e-07 	2.465851309e-05
0.8301263136 	0.01716341422 	0.006734031811 	-8.146734783e-08 	0.0128797344 	-3.887207062e-07 	2.45523535e-05
0.8330208137 	0.01719898732 	0.006738206335 	-8.836187373e-08 	0.01282299487 	-4.057469593e-07 	2.444419218e-05
0.835883524 	0.01723303824 	0.006741112187 	-9.541976923e-08 	0.01276523632 	-4.223764543e-07 	2.433408833e-05
0.8387147803 	0.01726550059 	0.006742763944 	-1.026148646e-07 	0.0127065673 	-4.385784542e-07 	2.422224889e-05
0.8415149398 	0.01729639458 	0.00674317553 	-1.099229491e-07 	0.01264705102 	-4.543202919e-07 	2.410879432e-05
0.8442844673 	0.01732580181 	0.006742363422 	-1.173275004e-07 	0.01258665729 	-4.695763188e-07 	2.399366708e-05
0.8470236332 	0.01735373104 	0.006740348575 	-1.248207045e-07 	0.01252538698 	-4.843663177e-07 	2.387686884e-05
0.8497327213 	0.01738013509 	0.006737150899 	-1.323793634e-07 	0.01246332711 	-4.986763417e-07 	2.375856548e-05
0.8524120703 	0.01740503587 	0.006732787297 	-1.399808976e-07 	0.01240053461 	-5.124844919e-07 	2.363886551e-05
0.8550620396 	0.01742852127 	0.006727272097 	-1.476061543e-07 	0.01233699548 	-5.257582955e-07 	2.351774227e-05
0.8576830073 	0.01745065712 	0.006720623146 	-1.552479506e-07 	0.01227267538 	-5.38500605e-07 	2.33951303e-05
0.8602752069 	0.01747142486 	0.006712862038 	-1.628898301e-07 	0.01220763485 	-5.507110302e-07 	2.327114497e-05
0.8628389602 	0.01749082734 	0.006704009176 	-1.705107755e-07 	0.01214193275 	-5.623742946e-07 	2.31458985e-05
0.8653745848 	0.01750889692 	0.006694082823 	-1.780911386e-07 	0.01207561493 	-5.734768647e-07 	2.30194783e-05
0.8678824306 	0.01752570127 	0.006683098744 	-1.856160638e-07 	0.01200868212 	-5.840084642e-07 	2.289188576e-05
0.8703627885 	0.01754125897 	0.006671079919 	-1.930805807e-07 	0.01194115069 	-5.939936563e-07 	2.276315208e-05
0.8728159327 	0.01755553684 	0.006658054521 	-2.004683852e-07 	0.0118731136 	-6.034436625e-07 	2.263345448e-05
0.8752421656 	0.01756854999 	0.006644047336 	-2.077622424e-07 	0.01180462792 	-6.123490337e-07 	2.250290175e-05
0.8776417855 	0.01758034082 	0.006629080674 	-2.149430937e-07 	0.01173573511 	-6.206814586e-07 	2.237157289e-05
0.8800151111 	0.01759098572 	0.0066131729 	-2.219913095e-07 	0.01166643874 	-6.283924781e-07 	2.223947476e-05
0.8823624151 	0.01760052445 	0.006596349379 	-2.288902015e-07 	0.01159675483 	-6.354423178e-07 	2.210663785e-05
0.8846839699 	0.0176089616 	0.006578641049 	-2.356113129e-07 	0.01152675846 	-6.417844111e-07 	2.197320533e-05
0.8869800602 	0.01761634475 	0.006560073831 	-2.421291886e-07 	0.01145648884 	-6.473848837e-07 	2.183925189e-05
0.889250967 	0.01762274849 	0.006540669365 	-2.484295037e-07 	0.01138596809 	-6.522571279e-07 	2.170481975e-05
0.8914969771 	0.01762829687 	0.006520439037 	-2.54517585e-07 	0.01131517593 	-6.564769932e-07 	2.156987021e-05
0.8937183629 	0.0176331214 	0.006499391087 	-2.604290301e-07 	0.0112440654 	-6.60201112e-07 	2.143431378e-05
0.8959153816 	0.01763734055 	0.006477532738 	-2.66211219e-07 	0.01117262025 	-6.636180071e-07 	2.129811947e-05
0.8980883014 	0.01764109908 	0.006454862568 	-2.719121589e-07 	0.01110080794 	-6.668790036e-07 	2.116122524e-05
0.9002373876 	0.01764452742 	0.006431379246 	-2.775580335e-07 	0.01102860197 	-6.700272911e-07 	2.10235806e-05