0.4709558481 	0.02353777669 	1.893651957e-08 	-1.339713558e-13
0.4709558481 	0.02353777669 	1.893651957e-08 	-1.339713558e-13
0.4711314108 	0.06472271206 	4.48205434e-08 	-7.247585203e-13
0.4713069734 	0.1293743956 	-1.290458417e-07 	-1.423045257e-12
0.471482536 	0.1939427617 	-1.079401814e-06 	-1.706716467e-13
0.4716580986 	0.2583793337 	-3.282594422e-06 	3.510538421e-12
0.4718336613 	0.3225659919 	-6.135853559e-06 	4.407357405e-12
0.4720092239 	0.3862804366 	-7.512330519e-06 	-5.38530075e-12
0.4721847865 	0.4491877776 	-5.431471661e-06 	-2.705095115e-11
0.4723603491 	0.5108779733 	-3.113886162e-07 	-5.606653878e-11
0.4725359118 	0.5709418719 	8.153806309e-06 	-2.066617713e-10
0.4727114744 	0.6290495908 	2.976374902e-05 	-1.261403539e-10
0.472887037 	0.6850051275 	2.816989553e-05 	1.156137308e-10
0.4730625996 	0.7387924802 	-3.917606224e-06 	-5.980980705e-11
0.4732381623 	0.7904990925 	-4.406713537e-06 	-1.910442448e-10
0.4734137249 	0.8401739915 	9.771865604e-06 	-1.261391552e-10
0.4735892875 	0.8878387901 	1.020489405e-05 	-1.428725467e-10
0.4737648501 	0.9335382141 	1.064011941e-05 	-1.650610978e-10
0.4739404128 	0.9773347048 	1.160263164e-05 	-1.872834988e-10
0.4741159754 	1.019301448 	1.278210277e-05 	-2.10210264e-10
0.474291538 	1.059518509 	1.403657792e-05 	-2.346953884e-10
0.4744671006 	1.09806937 	1.536642508e-05 	-2.607310761e-10
0.4746426632 	1.135038119 	1.676775903e-05 	-2.882997804e-10
0.4748182259 	1.170507199 	1.823224145e-05 	-3.174174512e-10
0.4749937885 	1.204555598 	1.975253746e-05 	-3.48098608e-10
0.4751693511 	1.237257532 	2.132226548e-05 	-3.803284091e-10
0.4753449137 	1.26868237 	2.293495479e-05 	-4.140826996e-10
0.4755204764 	1.298899204 	2.458622889e-05 	-4.494954962e-10
0.475696039 	1.327982792 	2.627167351e-05 	-4.866371247e-10
0.4758716016 	1.356007617 	2.803256473e-05 	-5.253944262e-10
0.4760471642 	1.38303762 	3.012125895e-05 	-5.661258956e-10
0.4762227269 	1.412676741 	3.256046509e-05 	-6.146480802e-10
0.4764955107 	1.448111159 	3.482389818e-05 	-6.772489117e-10
0.4767734216 	1.485619894 	3.73386842e-05 	-7.506466516e-10
0.4770565557 	1.521910462 	4.051999559e-05 	-8.304053211e-10
0.4773450114 	1.557049988 	4.391886119e-05 	-9.162110293e-10
0.4776388886 	1.591102298 	4.745290657e-05 	-1.008175839e-09
0.4779382892 	1.624128448 	5.114360933e-05 	-1.106576622e-09
0.4782433171 	1.656186898 	5.499443822e-05 	-1.211544012e-09
0.4785540779 	1.687333522 	5.900724451e-05 	-1.323512042e-09
0.4788706795 	1.717621211 	6.32122049e-05 	-1.443391766e-09
0.4791932316 	1.747099104 	6.763109617e-05 	-1.571436357e-09
0.4795218461 	1.775812182 	7.225097893e-05 	-1.707601647e-09
0.4798566368 	1.803801653 	7.706778561e-05 	-1.85249514e-09
0.48019772 	1.831105612 	8.209822676e-05 	-2.00679328e-09
0.4805452138 	1.857759494 	8.735672996e-05 	-2.171024519e-09
0.4808992388 	1.883796359 	9.28537556e-05 	-2.345794609e-09
0.4812599177 	1.909247119 	9.860067851e-05 	-2.531758919e-09
0.4816273755 	1.934140744 	0.0001046097979 	-2.729617508e-09
0.4820017397 	1.958504446 	0.0001108941822 	-2.940115052e-09
0.48238314 	1.982363845 	0.0001174676638 	-3.164041694e-09
0.4827717088 	2.00574313 	0.0001243448752 	-3.40223332e-09
0.4831675807 	2.028665195 	0.0001315412812 	-3.655571643e-09
0.4835708931 	2.051151773 	0.0001390732092 	-3.924984104e-09
0.4839817856 	2.073223546 	0.0001469578801 	-4.211443516e-09
0.4844004009 	2.094900256 	0.00015521344 	-4.515967382e-09
0.4848268841 	2.116200794 	0.0001638589923 	-4.839616825e-09
0.485261383 	2.137143284 	0.0001729146281 	-5.183494969e-09
0.4857040484 	2.15774516 	0.0001824014563 	-5.548744674e-09
0.4861550336 	2.178023224 	0.000192341631 	-5.936545511e-09
0.4866144951 	2.197993707 	0.0002027583773 	-6.348109825e-09
0.4870825921 	2.21767232 	0.0002136760132 	-6.784677781e-09
0.487559487 	2.237074288 	0.0002251199678 	-7.247511327e-09
0.4880453452 	2.256214394 	0.0002371167939 	-7.737887093e-09
0.4885403351 	2.275107 	0.0002496941756 	-8.257088409e-09
0.4890446283 	2.293766077 	0.0002628809278 	-8.80639672e-09
0.4895583997 	2.312205216 	0.0002767069883 	-9.387082852e-09
0.4900818274 	2.330437645 	0.0002912034006 	-1.000039876e-08
0.4906150929 	2.348476236 	0.0003064022856 	-1.064757034e-08
0.4911583811 	2.366333504 	0.000322336803 	-1.132979148e-08
0.4917118805 	2.38402161 	0.0003390410996 	-1.204821925e-08
0.4922757829 	2.401552349 	0.0003565502433 	-1.280396878e-08
0.4928502838 	2.418937147 	0.0003749001422 	-1.359810572e-08
0.4934355824 	2.43618704 	0.000394127447 	-1.443163271e-08
0.4940318817 	2.453312657 	0.000414269433 	-1.530546617e-08
0.4946393885 	2.470324201 	0.0004353638621 	-1.622040067e-08
0.4952583133 	2.487231418 	0.0004574488204 	-1.717706029e-08
0.4958888709 	2.504043571 	0.0004805625305 	-1.817584043e-08
0.4965312797 	2.520769405 	0.0005047431386 	-1.921684757e-08
0.4971857627 	2.537417112 	0.0005300284752 	-2.029984841e-08
0.4978525466 	2.553994289 	0.0005564557941 	-2.14242399e-08
0.4985318627 	2.570507901 	0.0005840614912 	-2.25890484e-08
0.4992239466 	2.586964237 	0.0006128808116 	-2.379295881e-08
0.4999290382 	2.603368869 	0.0006429475477 	-2.503436487e-08
0.5006473819 	2.619726621 	0.0006742937455 	-2.631142379e-08
0.501379227 	2.63604154 	0.0007069494497 	-2.762209598e-08
0.502124827 	2.652316901 	0.0007409424474 	-2.896415678e-08
0.5028844406 	2.668555246 	0.0007762974697 	-3.033517534e-08
0.5036583311 	2.684758499 	0.0008130350276 	-3.17324797e-08
0.5044467669 	2.700928188 	0.0008511809329 	-3.315332763e-08
0.5052500214 	2.717065816 	0.0008908008201 	-3.459575867e-08
0.506068373 	2.735224956 	0.0009371961109 	-3.62443048e-08
0.507324668 	2.757272845 	0.0009960109301 	-3.827588935e-08
0.5085949819 	2.780907836 	0.001062270257 	-4.049046357e-08
0.5098794711 	2.804081259 	0.001130652275 	-4.269923743e-08
0.5111782938 	2.826798891 	0.00120086592 	-4.481799526e-08
0.5124916099 	2.849060053 	0.00127267299 	-4.685534494e-08
0.5138195812 	2.870847195 	0.001346084771 	-4.894934389e-08
0.5151623712 	2.892110842 	0.001420898287 	-5.08683814e-08
0.5165201452 	2.912761573 	0.00149635408 	-5.233812724e-08
0.5178930705 	2.932676037 	0.001571606253 	-5.341998224e-08
0.5192813161 	2.951709293 	0.001645860647 	-5.407415152e-08
0.520685053 	2.9697061 	0.001718185665 	-5.415864993e-08
0.522104454 	2.986512532 	0.001787515128 	-5.359475214e-08
0.523539694 	3.001993612 	0.001852552041 	-5.227668109e-08
0.5249909497 	3.016058341 	0.001919154401 	-5.638148741e-08
0.5264583998 	3.028699734 	0.001977988087 	-4.927486754e-08
0.527942225 	3.040061461 	0.002016885968 	-3.911119739e-08
0.5294426081 	3.050404295 	0.002059860941 	-5.07009885e-08
0.5309597337 	3.059936609 	0.002112447966 	-5.195569513e-08
0.5324937889 	3.068743958 	0.002156121854 	-4.44900526e-08
0.5340449624 	3.076856494 	0.002193315338 	-4.514771788e-08
0.5356134452 	3.084296453 	0.002229046369 	-4.441262468e-08
0.5371994306 	3.091085005 	0.002261974428 	-4.349259004e-08
0.5388031139 	3.097245567 	0.002291940866 	-4.246076703e-08
0.5404246925 	3.102805111 	0.002318891897 	-4.132963875e-08
0.5420643661 	3.107793395 	0.002342839606 	-4.014778431e-08
0.5437223366 	3.112241855 	0.002363814319 	-3.890294883e-08
0.5453988083 	3.116182456 	0.002381890633 	-3.769889106e-08
0.5470939875 	3.119646696 	0.002397249553 	-3.65477241e-08
0.5488080831 	3.122666261 	0.002409887343 	-3.523859579e-08
0.5505413061 	3.125277267 	0.002419765058 	-3.399371289e-08
0.5522938699 	3.127522564 	0.002427263539 	-3.303302522e-08
0.5540659904 	3.129446508 	0.002432747353 	-3.215324886e-08
0.5558578859 	3.131088785 	0.002436329391 	-3.132458914e-08
0.5576697768 	3.132483042 	0.002438175007 	-3.060834313e-08
0.5595018865 	3.13365774 	0.002438473615 	-2.997534115e-08
0.5613544406 	3.134637005 	0.002437364908 	-2.94115085e-08
0.563227667 	3.135441348 	0.002434968112 	-2.890803725e-08
0.5651217966 	3.136088271 	0.002431385952 	-2.84572449e-08
0.5670370626 	3.13659277 	0.002426707117 	-2.805225146e-08
0.5689737009 	3.136967735 	0.002421008225 	-2.768705554e-08
0.5709319499 	3.137224288 	0.002414355718 	-2.735652105e-08
0.5729120508 	3.137372059 	0.002406806288 	-2.705529219e-08
0.5749142474 	3.137419415 	0.002398412079 	-2.678186293e-08
0.5769387863 	3.137373669 	0.002389215237 	-2.653316007e-08
0.5789859169 	3.137241184 	0.002379252881 	-2.63045641e-08
0.5810558911 	3.137027511 	0.002368559865 	-2.609405667e-08
0.583148964 	3.136737553 	0.002357163522 	-2.589889303e-08
0.5852653933 	3.136375622 	0.002345089307 	-2.571743486e-08
0.5874054395 	3.135945521 	0.002332358977 	-2.554803311e-08
0.5895693664 	3.135450608 	0.002318991406 	-2.538920018e-08
0.5917574402 	3.134893849 	0.002305002888 	-2.523958333e-08
0.5939699306 	3.13427787 	0.002290407417 	-2.509794741e-08
0.5962071099 	3.133604993 	0.002275216913 	-2.496315737e-08
0.5984692536 	3.13287727 	0.002259441421 	-2.483416477e-08
0.6007566404 	3.132096515 	0.00224308928 	-2.470999594e-08
0.6030695519 	3.131264326 	0.002226167267 	-2.458974146e-08
0.6054082729 	3.130382111 	0.002208680718 	-2.447254679e-08
0.6077730914 	3.1294511 	0.002190633635 	-2.435760414e-08
0.6101642987 	3.128472366 	0.002172028773 	-2.424414534e-08
0.6125821893 	3.127446838 	0.002152867718 	-2.413143566e-08
0.6150270608 	3.126375311 	0.002133150953 	-2.401876857e-08
0.6174992144 	3.125258458 	0.002112877913 	-2.390546122e-08
0.6199989545 	3.12409684 	0.002092047038 	-2.379085069e-08
0.622526589 	3.122890914 	0.002070655812 	-2.367429078e-08
0.625082429 	3.121641036 	0.002048700806 	-2.355514941e-08
0.6276667894 	3.120347474 	0.002026177707 	-2.343280649e-08
0.6302799884 	3.119010408 	0.002003081358 	-2.330665218e-08
0.6329223478 	3.117629938 	0.001979405778 	-2.317608557e-08
0.6355941931 	3.116206089 	0.001955144197 	-2.304051372e-08
0.6382958531 	3.114738811 	0.001930289085 	-2.2899351e-08
0.6410276607 	3.113227989 	0.001904832171 	-2.275201868e-08
0.6437899523 	3.111673442 	0.001878764482 	-2.259794483e-08
0.646583068 	3.110074927 	0.001852076368 	-2.243656448e-08
0.6494073518 	3.108432145 	0.00182475753 	-2.226731998e-08
0.6522631514 	3.10674474 	0.001796797061 	-2.208966159e-08
0.6551508186 	3.105012303 	0.001768183477 	-2.190304836e-08
0.658070709 	3.103234376 	0.001738904762 	-2.17069491e-08
0.6610231822 	3.101410455 	0.001708948405 	-2.150084371e-08
0.6640086017 	3.099539988 	0.001678301456 	-2.128422464e-08
0.6670273351 	3.097622384 	0.001646950572 	-2.105659857e-08
0.6700797543 	3.095657009 	0.001614882083 	-2.081748828e-08
0.6731662352 	3.093643192 	0.001582082049 	-2.056643473e-08
0.6762871577 	3.091580225 	0.001548536336 	-2.030299928e-08
0.6794429063 	3.089467366 	0.00151423069 	-2.002676596e-08
0.6826338695 	3.087303841 	0.001479150822 	-1.973734391e-08
0.6858604404 	3.085088842 	0.001443282504 	-1.943436963e-08
0.6891230163 	3.082821532 	0.001406611662 	-1.911750926e-08
0.6924219988 	3.080501042 	0.001369124487 	-1.878646047e-08
0.6957577944 	3.078126474 	0.001330807554 	-1.844095411e-08
0.6991308138 	3.0756969 	0.001291647938 	-1.808075517e-08
0.7025414724 	3.073211357 	0.001251633353 	-1.770566325e-08
0.7059901901 	3.07066885 	0.001210752291 	-1.7315512e-08
0.7094773917 	3.068068346 	0.001168994164 	-1.691016783e-08
0.7130035066 	3.065408769 	0.001126349466 	-1.648952734e-08
0.7165689691 	3.062688995 	0.001082809933 	-1.605351378e-08
0.7201742182 	3.059907846 	0.001038368711 	-1.560207198e-08
0.7238196978 	3.057064079 	0.0009930205645 	-1.513516149e-08
0.727505857 	3.054156374 	0.0009467621208 	-1.465273808e-08
0.7312331497 	3.051183325 	0.0008995914663 	-1.41547528e-08
0.7350020349 	3.048151541 	0.0008516366985 	-1.364255072e-08
0.7387709215 	3.04508598 	0.0008033180512 	-1.312065527e-08
0.7424982157 	3.04201263 	0.0007550693986 	-1.259383438e-08
0.7461843763 	3.038940047 	0.0007070465038 	-1.206388378e-08
0.7498298574 	3.035868591 	0.0006592764559 	-1.153114327e-08
0.7534351078 	3.032798519 	0.0006117861911 	-1.099587437e-08
0.7570005716 	3.029729983 	0.0005646020907 	-1.045825591e-08
0.7605266877 	3.026663031 	0.0005177498779 	-9.918383956e-09
0.7640138905 	3.023597613 	0.0004712545792 	-9.376278411e-09
0.7674626093 	3.020533576 	0.0004251405023 	-8.831890293e-09
0.770873269 	3.017470672 	0.0003794312243 	-8.285110556e-09
0.7742462894 	3.014408557 	0.0003341495882 	-7.735779909e-09
0.777582086 	3.011346795 	0.0002893177075 	-7.18369919e-09
0.7808810695 	3.008284861 	0.0002449569783 	-6.628639849e-09
0.7841436462 	3.005222142 	0.0002010880959 	-6.070354141e-09
0.787370218 	3.002157942 	0.0001577310782 	-5.508584766e-09
0.7905611821 	2.999091483 	0.0001149052921 	-4.943073501e-09
0.7937169314 	2.996021908 	7.262948254e-05 	-4.373570358e-09
0.7968378547 	2.992948283 	3.0921795e-05 	-3.799840031e-09
0.7999243362 	2.989869602 	-1.020018546e-05 	-3.221665613e-09
0.8029767561 	2.986784784 	-5.071938512e-05 	-2.638857651e-09
0.8059954902 	2.983692679 	-9.061922999e-05 	-2.051259231e-09
0.8089809102 	2.980592067 	-0.000129883625 	-1.458745934e-09
0.8119333839 	2.977481661 	-0.0001684969035 	-8.612306402e-10
0.8148532749 	2.974360108 	-0.0002064438007 	-2.586669413e-10
0.8177409426 	2.971225988 	-0.0002437094352 	3.489497754e-10
0.8205967427 	2.968077818 	-0.000280279284 	9.615806281e-10
0.8234210268 	2.964914051 	-0.0003161391633 	1.57914198e-09
0.8262141429 	2.961733075 	-0.0003512752125 	2.201504343e-09
0.8289764348 	2.958533214 	-0.0003856738823 	2.828491275e-09
0.8317082427 	2.955312732 	-0.0004193219281 	3.459878124e-09
0.8344099031 	2.952069827 	-0.0004522064074 	4.09539044e-09
0.8370817486 	2.948802636 	-0.0004843146834 	4.734701858e-09
0.8397241082 	2.945509234 	-0.000515634435 	5.377431302e-09
0.8423373074 	2.942187632 	-0.0005461536728 	6.023139287e-09
0.844921668 	2.938835782 	-0.0005758607639 	6.67132313e-09
0.8474775082 	2.935451573 	-0.0006047444647 	7.321410856e-09
0.8500051427 	2.932032837 	-0.0006327939634 	7.97275352e-09
0.8525048829 	2.928577346 	-0.0006599989345 	8.624615681e-09
0.8549770366 	2.925082819 	-0.0006863496055 	9.27616365e-09
0.8574219081 	2.921546923 	-0.0007118368385 	9.92645102e-09
0.8598397987 	2.917967276 	-0.0007364522294 	1.057440085e-08
0.862231006 	2.914341454 	-0.0007601882268 	1.121878361e-08
0.8645958245 	2.910666999 	-0.000783038275 	1.185818938e-08
0.8669345455 	2.906941427 	-0.0008049969847 	1.249099228e-08
0.8692474569 	2.90316224 	-0.0008260603367 	1.311530316e-08
0.8715348435 	2.89932694 	-0.0008462259251 	1.372890449e-08
0.8737969871 	2.895433046 	-0.0008654932476 	1.432915753e-08
0.8760341663 	2.891478121 	-0.000883864054 	1.491287029e-08
0.8782466565 	2.887459794 	-0.0009013427641 	1.547611936e-08
0.8804347301 	2.883375797 	-0.0009179369868 	1.601400815e-08
0.8825986568 	2.879224009 	-0.0009336581774 	1.652053049e-08
0.8847387028 	2.875002501 	-0.0009485225323 	1.698845229e-08
0.8868551318 	2.870709602 	-0.000962553193 	1.740728624e-08
0.8889482045 	2.866343965 	-0.0009757822916 	1.777408418e-08
0.8910181784 	2.861904624 	-0.0009882561879 	1.807040582e-08
0.8930653087 	2.857390937 	-0.00100008974 	1.817342043e-08
0.8950898473 	2.85280231 	-0.001011158992 	1.918682506e-08
0.8970920436 	2.848137603 	-0.00102112979 	1.943791083e-08
0.8990721441 	2.843391813 	-0.001030858645 	1.857618397e-08
0.9010303927 	2.838549418 	-0.001040391524 	1.999401339e-08
0.9029670306 	2.833585189 	-0.001048144722 	2.145322418e-08
0.9048822962 	2.828472874 	-0.00105427166 	2.196799479e-08
0.9067764254 	2.823188091 	-0.001059152106 	2.312735451e-08
0.9086496514 	2.817706644 	-0.001062273606 	2.437758978e-08
0.910502205 	2.812004225 	-0.001063479577 	2.569064487e-08
0.9123343142 	2.806056652 	-0.001062643131 	2.705814863e-08
0.9141462048 	2.799840097 	-0.001059652199 	2.846530309e-08
0.9159380997 	2.793331458 	-0.001054414568 	2.988948537e-08
0.9177102197 	2.786508804 	-0.001046864233 	3.130478981e-08
0.9194627831 	2.779351855 	-0.00103696265 	3.268484214e-08
0.9211960055 	2.771842418 	-0.001024701434 	3.400364487e-08
0.9229101006 	2.763964755 	-0.001010103528 	3.523657083e-08
0.9246052793 	2.755705839 	-0.0009932231485 	3.636094748e-08
0.9262817504 	2.747055488 	-0.0009741443657 	3.735658502e-08
0.9279397204 	2.738006373 	-0.0009529786285 	3.820619152e-08
0.9295793934 	2.728553921 	-0.0009298616734 	3.889569803e-08
0.9312009714 	2.718696118 	-0.0009049499694 	3.94146423e-08
0.9328046541 	2.708433218 	-0.000878416601 	3.975659044e-08
0.9343906389 	2.697767379 	-0.0008504466397 	3.991938011e-08
0.9359591211 	2.68670226 	-0.0008212323978 	3.990487831e-08
0.937510294 	2.675242608 	-0.0007909691541 	3.971799078e-08
0.9390443485 	2.663393885 	-0.0007598517352 	3.936544574e-08
0.9405614735 	2.65116194 	-0.0007280719068 	3.885527367e-08
0.942061856 	2.638552741 	-0.0006958162861 	3.819677643e-08
0.9435456805 	2.625572147 	-0.0006632646539 	3.740052448e-08
0.9450131299 	2.612225722 	-0.0006305887094 	3.647838884e-08
0.946464385 	2.598518575 	-0.0005979511816 	3.544345447e-08
0.9478996243 	2.584455217 	-0.0005655052 	3.430965633e-08
0.9493190246 	2.570039441 	-0.0005333938659 	3.309115596e-08
0.9507227608 	2.555274185 	-0.0005017499904 	3.180166055e-08
0.9521110058 	2.54016141 	-0.0004706959586 	3.045394055e-08
0.9534839303 	2.524701952 	-0.0004403436799 	2.905971684e-08
0.9548417036 	2.508895349 	-0.000410794584 	2.762991309e-08
0.9561844929 	2.492739655 	-0.0003821396518 	2.617509784e-08
0.9575124634 	2.476231195 	-0.000354459425 	2.47058617e-08
0.9588257788 	2.459364295 	-0.0003278235689 	2.323291526e-08
0.9601246008 	2.442130951 	-0.0003022902047 	2.176684866e-08
0.9614090893 	2.424520443 	-0.0002779145154 	2.031790471e-08
0.9626794024 	2.406518859 	-0.0002547729634 	1.889640868e-08
0.9639356968 	2.389683167 	-0.0002346503931 	1.762534628e-08
0.9647540487 	2.375777697 	-0.0002190647359 	1.661948674e-08
0.9655573034 	2.363381327 	-0.000205968557 	1.575831228e-08
0.9663457395 	2.350918696 	-0.0001935623417 	1.492786644e-08
0.9671196303 	2.338383354 	-0.0001818041104 	1.412848394e-08
0.9678792442 	2.325769422 	-0.0001706686317 	1.336074318e-08
0.9686248445 	2.313071178 	-0.0001601338161 	1.26251298e-08
0.9693566897 	2.300282793 	-0.0001501765712 	1.192185679e-08
0.9700750337 	2.2873982 	-0.0001407734045 	1.125084195e-08
0.9707801255 	2.274411026 	-0.0001319008738 	1.061172291e-08
0.9714722095 	2.261314574 	-0.0001235357345 	1.000389616e-08
0.9721515258 	2.248101825 	-0.0001156550407 	9.426571166e-09
0.9728183099 	2.234765455 	-0.0001082362356 	8.878828688e-09
0.9734727929 	2.221297855 	-0.0001012572277 	8.359673291e-09
0.9741152019 	2.207691147 	-9.469645105e-05 	7.868073848e-09
0.9747457596 	2.193937202 	-8.853291489e-05 	7.402988918e-09
0.9753646845 	2.180027656 	-8.274624334e-05 	6.963377941e-09
0.9759721914 	2.165953919 	-7.731670838e-05 	6.548202037e-09
0.9765684907 	2.151707182 	-7.222525625e-05 	6.156419897e-09
0.9771537895 	2.137278425 	-6.745352787e-05 	5.786983623e-09
0.9777282904 	2.122658418 	-6.298387338e-05 	5.438837838e-09
0.9782921928 	2.107837719 	-5.879936054e-05 	5.110922923e-09
0.9788456922 	2.092806675 	-5.488377728e-05 	4.802181796e-09
0.9793889805 	2.077555413 	-5.122162844e-05 	4.511568469e-09
0.979922246 	2.062073838 	-4.779812742e-05 	4.238056742e-09
0.9804456737 	2.04635162 	-4.459918331e-05 	3.980647699e-09
0.9809594451 	2.030378183 	-4.161138439e-05 	3.738375574e-09
0.9814637383 	2.014142692 	-3.882197867e-05 	3.51031188e-09
0.9819587281 	1.997634032 	-3.621885224e-05 	3.295568155e-09
0.9824445862 	1.980840789 	-3.379050606e-05 	3.093297615e-09
0.9829214811 	1.963751228 	-3.152603161e-05 	2.902696228e-09
0.9833895781 	1.946353262 	-2.941508598e-05 	2.723003391e-09
0.9838490396 	1.928634421 	-2.744786669e-05 	2.553502327e-09
0.9843000247 	1.910581815 	-2.56150865e-05 	2.393520153e-09
0.98474269 	1.892182096 	-2.39079486e-05 	2.242427763e-09
0.9851771888 	1.873421405 	-2.231812244e-05 	2.099639453e-09
0.9856036719 	1.854285327 	-2.083772026e-05 	1.964612268e-09
0.9860222871 	1.834758828 	-1.945927464e-05 	1.836844959e-09
0.9864331796 	1.814826189 	-1.81757172e-05 	1.715876764e-09
0.9868364919 	1.794470936 	-1.698035866e-05 	1.601285941e-09
0.9872323637 	1.773675759 	-1.586687043e-05 	1.492688078e-09
0.9876209323 	1.752422418 	-1.482926789e-05 	1.389734126e-09
0.9880023326 	1.730691652 	-1.386189363e-05 	1.292108313e-09
0.9883766967 	1.708463068 	-1.295939666e-05 	1.199525961e-09
0.9887441544 	1.685715028 	-1.211674302e-05 	1.111731366e-09
0.9891048331 	1.662424517 	-1.132934771e-05 	1.028495751e-09
0.9894588579 	1.638567013 	-1.059310076e-05 	9.496139592e-10
0.9898063516 	1.614116318 	-9.900699005e-06 	8.74883993e-10
0.9901474347 	1.589044366 	-9.241894361e-06 	8.041468873e-10
0.9904822253 	1.563320881 	-8.622412886e-06 	7.373146322e-10
0.9908108397 	1.536912859 	-8.057405195e-06 	6.742382123e-10
0.9911333916 	1.509784244 	-7.533538877e-06 	6.147304076e-10
0.9914499931 	1.481896246 	-7.027728151e-06 	5.586955014e-10
0.9917607538 	1.453208014 	-6.540582631e-06 	5.060578198e-10
0.9920657815 	1.423677003 	-6.077551693e-06 	4.567223715e-10
0.9923651819 	1.393259009 	-5.637409991e-06 	4.106041213e-10
0.992659059 	1.361908096 	-5.21301764e-06 	3.676140405e-10
0.9929475145 	1.329576568 	-4.788131813e-06 	3.276523003e-10
0.9932306485 	1.296214999 	-4.441137515e-06 	2.906626356e-10
0.9935085592 	1.26177195 	-4.571888991e-06 	2.567958501e-10
0.9937813429 	1.229275968 	-4.605591175e-06 	2.282467999e-10
0.9939569055 	1.202128602 	-4.014736218e-06 	2.064145282e-10
0.9941324681 	1.177393658 	-3.52792678e-06 	1.881618139e-10
0.9943080307 	1.151764396 	-3.315098245e-06 	1.709366373e-10
0.9944835934 	1.125188884 	-3.129611052e-06 	1.54661037e-10
0.994659156 	1.097620388 	-2.933344936e-06 	1.393205301e-10
0.9948347186 	1.069010913 	-2.739798965e-06 	1.249222104e-10
0.9950102812 	1.039309114 	-2.555108214e-06 	1.114687182e-10
0.9951858439 	1.00846048 	-2.381909616e-06 	9.895534444e-11
0.9953614065 	0.9764081394 	-2.223894639e-06 	8.737225422e-11
0.9955369691 	0.9430939183 	-2.085392858e-06 	7.670641257e-11
0.9957125317 	0.9084596049 	-1.966323095e-06 	6.694550534e-11
0.9958880943 	0.8724485004 	-1.862385038e-06 	5.807079767e-11
0.996063657 	0.8350073484 	-1.88647088e-06 	4.993646238e-11
0.9962392196 	0.7960886443 	-2.28518562e-06 	4.24301044e-11
0.9964147822 	0.7556530663 	-2.613884057e-06 	3.629136205e-11
0.9965903448 	0.7136741445 	8.409842747e-06 	4.200956573e-11
0.9967659075 	0.6701412921 	7.111338031e-06 	2.00903079e-11
0.9969414701 	0.6250170257 	-1.893911932e-05 	-6.041630762e-12
0.9971170327 	0.5782296698 	-1.939845871e-05 	2.726887954e-11
0.9972925953 	0.5297840217 	-3.63693607e-06 	3.563658236e-11
0.997468158 	0.4798097022 	4.93090929e-07 	1.245698304e-11
0.9976437206 	0.4285249412 	3.596398019e-06 	8.19960304e-12
0.9978192832 	0.3762106795 	5.521881173e-06 	4.516391464e-12
0.9979948458 	0.3231670225 	5.336227958e-06 	1.882540334e-12
0.9981704085 	0.2696627135 	3.647899149e-06 	8.019059226e-13
0.9983459711 	0.2158997267 	1.793727508e-06 	6.735049661e-13
0.9985215337 	0.1620045127 	5.97583474e-07 	6.327967768e-13
0.9986970963 	0.1080417688 	1.024647824e-07 	4.007830394e-13
0.998872659 	0.054037473 	-7.241634693e-09 	1.334736401e-13
0.9990482216 	0.02275604298 	-8.175312104e-09 	1.963659796e-14
0.9990482216 	0.02275604298 	-8.175312104e-09 	1.963659796e-14
