0.3675691744 	1.25342859e-06 	-8.109164981e-09 	2.175362901e-12 	1.246102977e-06 	-2.325623664e-10 	2.37541861e-09
0.3675691744 	1.25342859e-06 	-8.109164981e-09 	2.175362901e-12 	1.246102977e-06 	-2.325623664e-10 	2.37541861e-09
0.3677500057 	1.544687047e-05 	-3.83447125e-07 	1.378122357e-10 	1.514603486e-05 	-3.861411263e-09 	2.887255207e-08
0.3679308446 	8.812998366e-05 	-4.855984145e-06 	1.812738295e-09 	8.360337936e-05 	-2.233869574e-08 	1.593712774e-07
0.3681116904 	0.0003031368315 	-2.825932614e-05 	1.014187103e-08 	0.0002690550154 	-7.066555443e-08 	5.128936394e-07
0.3682925426 	0.0007824026139 	-0.0001016132562 	3.28744918e-08 	0.0006200631824 	-1.516080046e-07 	1.182012763e-06
0.3684734006 	0.001679000574 	-0.0002597298915 	7.048894499e-08 	0.00113164747 	-2.439764572e-07 	2.157234604e-06
0.3686542637 	0.003135426763 	-0.0005128835918 	1.070286249e-07 	0.001734301402 	-3.13837104e-07 	3.306060497e-06
0.3688351313 	0.005207178331 	-0.0008317179567 	1.183988693e-07 	0.002332459871 	-3.417882871e-07 	4.446316788e-06
0.3690160028 	0.007773465294 	-0.001169098619 	1.107713252e-07 	0.002894483484 	-4.612003701e-07 	5.51769e-06
0.3691968776 	0.01041434076 	-0.001520329589 	1.092949027e-07 	0.003606419458 	-6.207107567e-07 	6.874837839e-06
0.3693777551 	0.01295746215 	-0.001889979596 	1.118817429e-07 	0.004485035281 	-7.028554031e-07 	8.549723797e-06
0.3695586347 	0.01549728172 	-0.002260260942 	1.083431093e-07 	0.005364637264 	-7.646087311e-07 	1.022648965e-05
0.3697395158 	0.01796886224 	-0.002621772517 	1.000684208e-07 	0.006221601475 	-8.045963206e-07 	1.186010162e-05
0.3699203977 	0.02032509136 	-0.002968555574 	9.135610137e-08 	0.007036862365 	-8.240615725e-07 	1.341421546e-05
0.3701012798 	0.02253446258 	-0.003301062656 	8.732601796e-08 	0.007798542394 	-8.226304326e-07 	1.48661893e-05
0.3702821617 	0.02457680914 	-0.003623759894 	9.264594449e-08 	0.00849677913 	-7.998954539e-07 	1.619722258e-05
0.3704630425 	0.02643916605 	-0.003943512148 	1.090444756e-07 	0.009123551709 	-7.559388201e-07 	1.739202532e-05
0.3706439218 	0.02811266375 	-0.004266890066 	1.346498504e-07 	0.009672635109 	-6.920527564e-07 	1.843873089e-05
0.370824799 	0.02959135339 	-0.004598412128 	1.65672454e-07 	0.01013985518 	-6.109498019e-07 	1.932938219e-05
0.3710056733 	0.03087287292 	-0.004940740153 	1.989158753e-07 	0.01052320628 	-5.162173482e-07 	2.006015595e-05
0.3711865443 	0.03195260941 	-0.00527144512 	1.041977066e-07 	0.01082975847 	-4.498303096e-07 	2.064452962e-05
0.3713674113 	0.03279786362 	-0.005449183659 	-2.19386631e-08 	0.01110303469 	-3.968355386e-07 	2.116547004e-05
0.3715482738 	0.03343383781 	-0.005484725236 	-5.787094517e-08 	0.01134888935 	-3.250667307e-07 	2.163413737e-05
0.371729131 	0.03392149208 	-0.005506805137 	-9.008647903e-08 	0.01154023505 	-2.534091347e-07 	2.199889544e-05
0.3719099825 	0.03427416023 	-0.005515601663 	-1.184626363e-07 	0.01168231519 	-1.829793882e-07 	2.226973968e-05
0.3720908276 	0.0345028805 	-0.005511718156 	-1.429277725e-07 	0.01177929562 	-1.150813155e-07 	2.245461133e-05
0.3722716657 	0.03461778476 	-0.00549600983 	-1.635537567e-07 	0.01183497588 	-5.084710743e-08 	2.256075339e-05
0.3724524963 	0.03462836053 	-0.005469356077 	-1.80466729e-07 	0.01185282694 	8.727708651e-09 	2.259478248e-05
0.3726333187 	0.03454352803 	-0.00543256228 	-1.938042845e-07 	0.0118360209 	6.279950205e-08 	2.256274549e-05
0.3728141323 	0.03437169903 	-0.005386484824 	-2.037032548e-07 	0.01178774699 	1.107066206e-07 	2.2470722e-05
0.3729949365 	0.03408058894 	-0.005323174824 	-2.130921448e-07 	0.01169892527 	1.585729786e-07 	2.23014031e-05
0.3732758447 	0.03358883159 	-0.005229923973 	-2.145869439e-07 	0.01154184489 	2.022311555e-07 	2.200196425e-05
0.3735620054 	0.03289724792 	-0.005110059451 	-2.110723644e-07 	0.01131462228 	2.349404862e-07 	2.15688148e-05
0.3738535141 	0.0320606304 	-0.004972169035 	-2.000635314e-07 	0.01103602767 	2.492664597e-07 	2.103773605e-05
0.3741504675 	0.03109624562 	-0.004817747596 	-1.815738944e-07 	0.01071270688 	2.447377323e-07 	2.042139676e-05
0.374452964 	0.03002145307 	-0.004648138441 	-1.556462993e-07 	0.01035102067 	2.215281353e-07 	1.973192231e-05
0.3747611033 	0.02885369435 	-0.004464765756 	-1.223411666e-07 	0.009957457997 	1.804850074e-07 	1.898168248e-05
0.3750749871 	0.02761051827 	-0.004269112167 	-8.127918555e-08 	0.009538522947 	1.227959342e-07 	1.818307583e-05
0.3753947182 	0.0263129585 	-0.004064111998 	-3.301739051e-08 	0.0091016723 	5.082983546e-08 	1.735031708e-05
0.3755993181 	0.02547917547 	-0.003932246897 	3.481431859e-06 	0.008821344447 	-7.396110603e-06 	1.681593428e-05
0.3757202004 	0.0249857074 	-0.003854199191 	-1.966084025e-08 	0.008655429311 	3.052419341e-08 	1.649965392e-05
0.3760513922 	0.02365012117 	-0.003642384509 	-7.478465595e-08 	0.00820745109 	1.169498385e-07 	1.564568292e-05
0.376388741 	0.02232402296 	-0.003430349658 	-1.321034393e-07 	0.007764396208 	2.057878332e-07 	1.480109717e-05
0.3767323563 	0.02102585033 	-0.003220530021 	-1.896299239e-07 	0.007333052816 	2.919049935e-07 	1.397883678e-05
0.3770823489 	0.01977522667 	-0.003016509769 	-2.440290376e-07 	0.006920494285 	3.692683607e-07 	1.319238556e-05
0.3774388313 	0.01859232965 	-0.002822884984 	-2.90635203e-07 	0.006533954089 	4.311020699e-07 	1.245553251e-05
0.3778019175 	0.01749706369 	-0.002644503211 	-3.255217395e-07 	0.006179946768 	4.729553746e-07 	1.178069617e-05
0.3781717233 	0.01650766392 	-0.00248591791 	-3.406917826e-07 	0.00586429897 	4.816876574e-07 	1.117898374e-05
0.3785483659 	0.01563796362 	-0.002354550833 	-3.277583988e-07 	0.005599570752 	4.407413285e-07 	1.067433817e-05
0.3789319641 	0.0148508125 	-0.002249747016 	-3.085250665e-07 	0.005420929922 	1.676724993e-07 	1.03337991e-05
0.3793226385 	0.01396572504 	-0.002170699053 	-2.745847428e-07 	0.005440207387 	-3.532851687e-07 	1.037054731e-05
0.3797205109 	0.01303439947 	-0.002107151811 	-2.505733182e-07 	0.005600438943 	-6.729218457e-07 	1.067599319e-05
0.3801257049 	0.01223312672 	-0.002043397585 	-2.695780953e-07 	0.005767351621 	-7.915446264e-07 	1.099417514e-05
0.3805383456 	0.01154489522 	-0.001975248683 	-2.982727947e-07 	0.005939174102 	-9.18208208e-07 	1.132171655e-05
0.3809585596 	0.01095742865 	-0.001902148802 	-3.255256547e-07 	0.00611211628 	-1.051509264e-06 	1.165139241e-05
0.381386475 	0.0104597903 	-0.001827658979 	-3.425978192e-07 	0.00629052538 	-1.203549803e-06 	1.199148974e-05
0.3818233582 	0.010042734 	-0.00175441197 	-3.406729947e-07 	0.006474064886 	-1.352156178e-06 	1.234136705e-05
0.3822794906 	0.009699029105 	-0.001685074827 	-3.254510097e-07 	0.006664118976 	-1.523140345e-06 	1.270366296e-05
0.3827440409 	0.00941643394 	-0.001618364947 	-3.309029431e-07 	0.006864837571 	-1.746979953e-06 	1.308628839e-05
0.3832171622 	0.009181134916 	-0.001551301373 	-3.517631965e-07 	0.007076500287 	-1.976023276e-06 	1.348977636e-05
0.3836990102 	0.008985738577 	-0.001483740549 	-3.658826021e-07 	0.007293890484 	-2.175240966e-06 	1.39041825e-05
0.3841897433 	0.008825049533 	-0.001416536298 	-3.778145107e-07 	0.007512219067 	-2.35828292e-06 	1.432037746e-05
0.384689523 	0.008693097487 	-0.001349768651 	-3.897510112e-07 	0.007729142301 	-2.532569233e-06 	1.473389343e-05
0.3851985134 	0.008584829303 	-0.001283447117 	-4.016879007e-07 	0.007943350099 	-2.702029787e-06 	1.514223303e-05
0.3857168816 	0.008496130771 	-0.001217537006 	-4.142466038e-07 	0.008154017021 	-2.867102326e-06 	1.554382273e-05
0.3862447977 	0.008423676442 	-0.001151944221 	-4.27914121e-07 	0.008360497124 	-3.027590567e-06 	1.59374312e-05
0.3867824347 	0.008364795199 	-0.001086546882 	-4.431108481e-07 	0.008562268252 	-3.183053082e-06 	1.632206305e-05
0.3873299689 	0.008317343105 	-0.001021206919 	-4.602311703e-07 	0.008758887197 	-3.332734169e-06 	1.66968734e-05
0.3878875794 	0.008279599802 	-0.0009557781365 	-4.796395407e-07 	0.008949955916 	-3.475620371e-06 	1.706110349e-05
0.3884554486 	0.00825018526 	-0.0008901124792 	-4.749137459e-07 	0.009135100752 	-3.417941724e-06 	1.7414041e-05
0.3890337624 	0.00822799344 	-0.0008240646097 	-4.560636135e-07 	0.00931395997 	-3.235433841e-06 	1.775499638e-05
0.3896227096 	0.008212139825 	-0.000757495136 	-4.386680304e-07 	0.009486176166 	-3.044730465e-06 	1.808328832e-05
0.3902224824 	0.008201920136 	-0.0006902728129 	-4.22338191e-07 	0.009651391447 	-2.846958852e-06 	1.839823456e-05
0.3908332767 	0.008196777947 	-0.000622275983 	-4.066733676e-07 	0.009809244145 	-2.643307384e-06 	1.869914568e-05
0.3914552915 	0.00819627953 	-0.0005533935485 	-3.912689119e-07 	0.009959366758 	-2.435038648e-06 	1.89853211e-05
0.3920887296 	0.008200094423 	-0.0004835256888 	-3.757225224e-07 	0.01010138394 	-2.223497526e-06 	1.925604532e-05
0.3927337972 	0.008207978167 	-0.0004125829483 	-3.596405596e-07 	0.01023490354 	-2.010114186e-06 	1.95105708e-05
0.3933907042 	0.00821976143 	-0.0003404850018 	-3.426419092e-07 	0.0103595209 	-1.796417907e-06 	1.974812612e-05
0.3940596643 	0.008235377743 	-0.0002671814225 	-3.243635047e-07 	0.01047489869 	-1.584011534e-06 	1.996806825e-05
0.3947408949 	0.008254714282 	-0.0001925241613 	-3.044528122e-07 	0.01058047477 	-1.374661619e-06 	2.01693256e-05
0.3954346172 	0.008277895958 	-0.0001163401951 	-2.826451374e-07 	0.01067599389 	-1.170096383e-06 	2.03514116e-05
0.3961494788 	0.00830538335 	-3.825619628e-05 	-2.582288321e-07 	0.01076163101 	-9.700272738e-07 	2.051465975e-05
0.3968878893 	0.008337254936 	4.213216956e-05 	-2.306563902e-07 	0.01083640805 	-7.766762172e-07 	2.065720558e-05
0.3976397877 	0.008373564465 	0.0001243379342 	-2.002436847e-07 	0.01089893118 	-5.951940578e-07 	2.077639204e-05
0.3984054155 	0.008414538543 	0.0002079045782 	-1.664845236e-07 	0.01094827665 	-4.292605759e-07 	2.087045822e-05
0.3991850187 	0.0084604868 	0.0002928080745 	-1.264339094e-07 	0.01098367328 	-2.839052265e-07 	2.093793402e-05
0.3999788474 	0.008511706758 	0.0003780642573 	-8.022447623e-08 	0.01100508383 	-1.711707538e-07 	2.097874848e-05
0.4007871563 	0.00855967017 	0.0004615760515 	-3.527160202e-08 	0.01101723106 	-8.45535319e-08 	2.100190448e-05
0.4015479658 	0.008588334149 	0.000535546906 	2.634922427e-07 	0.01102902538 	-2.559653211e-08 	2.102438774e-05
0.4016101199 	0.008590682728 	0.0005416017547 	-2.791906937e-09 	0.01102999106 	-6.772633457e-09 	2.102622858e-05
0.4024470408 	0.008612541269 	0.0006180402386 	-3.589055203e-08 	0.01104516729 	-1.019108678e-07 	2.10551587e-05
0.4032992213 	0.008636745072 	0.0006919756262 	-6.408462327e-08 	0.01105961578 	-1.993138167e-07 	2.108270154e-05
0.4041669344 	0.008666528907 	0.0007725693304 	-8.791122802e-08 	0.01107497379 	-2.983757059e-07 	2.111197818e-05
0.4054980656 	0.008705348228 	0.0008673715615 	-1.16687733e-07 	0.01109201481 	-4.497579833e-07 	2.11444631e-05
0.4068429052 	0.008749635671 	0.0009652997128 	-1.313461421e-07 	0.01110892432 	-6.039195256e-07 	2.117669731e-05
0.4082015963 	0.008795061445 	0.001056729541 	-1.316661956e-07 	0.01112427178 	-7.611479607e-07 	2.120595385e-05
0.4095742835 	0.008841203238 	0.001141523856 	-1.171578031e-07 	0.01113929692 	-9.215093688e-07 	2.123459594e-05
0.4109925526 	0.00888779039 	0.001220409275 	-8.784423356e-08 	0.01115446152 	-1.089337652e-06 	2.126350388e-05
0.4124285917 	0.008933930913 	0.001293569992 	-4.352588192e-08 	0.01116934871 	-1.260677597e-06 	2.1291883e-05
0.4138792945 	0.008978961389 	0.001360260304 	1.423449735e-08 	0.0111846553 	-1.434292472e-06 	2.132106161e-05
0.4153448143 	0.009022570588 	0.00142096558 	8.385598301e-08 	0.0112004328 	-1.60958365e-06 	2.135113792e-05
0.4168253059 	0.009064609944 	0.001476171336 	1.439093748e-07 	0.01121680849 	-1.57212704e-06 	2.138235454e-05
0.4183209264 	0.009105013766 	0.001526406152 	1.807277036e-07 	0.01123381316 	-1.41232002e-06 	2.141477016e-05
0.4198318349 	0.009143832466 	0.00157215716 	2.014174131e-07 	0.01125158967 	-1.249213626e-06 	2.144865713e-05
0.4213581924 	0.00918109946 	0.001614139779 	2.073389675e-07 	0.01126977087 	-1.083517458e-06 	2.148331556e-05
0.4229001622 	0.009217013842 	0.001652668596 	1.999844049e-07 	0.01128874696 	-9.157081809e-07 	2.151948925e-05
0.4244819438 	0.009252005397 	0.001688402447 	1.80283351e-07 	0.01130879306 	-7.430822085e-07 	2.155770269e-05
0.4260925758 	0.009286187242 	0.001722132177 	1.500879729e-07 	0.01132926602 	-5.681307449e-07 	2.159672984e-05
0.4277195391 	0.009319466256 	0.001753809418 	1.112752494e-07 	0.01135021949 	-3.930538229e-07 	2.163667297e-05
0.4293630066 	0.009351946425 	0.001783670915 	6.538250022e-08 	0.01137166986 	-2.182569444e-07 	2.167756335e-05
0.4310231538 	0.0093838254 	0.001812126732 	1.383098773e-08 	0.01139353003 	-4.407490435e-08 	2.171923491e-05
0.431448537 	0.009391794335 	0.001819049356 	2.103197605e-07 	0.01139919149 	-1.9964027e-07 	2.173002722e-05
0.4326988195 	0.009415276783 	0.001839435649 	4.144489221e-08 	0.01141581949 	-1.291934115e-07 	2.17617248e-05
0.4343910777 	0.009446456594 	0.001865988077 	1.001667379e-07 	0.01143833105 	-3.015723797e-07 	2.180463811e-05
0.436100568 	0.00947750787 	0.001891930188 	1.617252085e-07 	0.0114611919 	-4.730194195e-07 	2.184821723e-05
0.4378450104 	0.009508758901 	0.0019174006 	2.261477698e-07 	0.01148490625 	-6.455750042e-07 	2.189342337e-05
0.4396278893 	0.009540424751 	0.001942947134 	2.930414643e-07 	0.01150904992 	-8.195274115e-07 	2.193944793e-05
0.4414287725 	0.009572361928 	0.001968520598 	3.61037176e-07 	0.01153341245 	-9.923943029e-07 	2.198588967e-05
0.4432478542 	0.009604505547 	0.00199392408 	4.297316662e-07 	0.01155819583 	-1.164167767e-06 	2.203313369e-05
0.445085332 	0.009636959094 	0.002019330623 	4.988841515e-07 	0.01158333845 	-1.334982919e-06 	2.20810625e-05
0.4469414059 	0.009669805271 	0.002044788643 	5.683014132e-07 	0.01160894028 	-1.504874408e-06 	2.212986671e-05
0.4488162792 	0.009703051425 	0.002070552929 	6.063999748e-07 	0.01163456777 	-1.591448303e-06 	2.217871983e-05
0.4507145584 	0.009736825136 	0.002096316676 	5.437680734e-07 	0.01166105739 	-1.416208188e-06 	2.222921641e-05
0.4526669111 	0.00977148344 	0.002122528706 	4.785984468e-07 	0.01168835262 	-1.238066391e-06 	2.22812487e-05
0.4546388831 	0.009806879914 	0.002149434474 	4.127583289e-07 	0.01171568979 	-1.061522164e-06 	2.233336096e-05
0.4566306909 	0.009842739377 	0.002176458451 	3.463351607e-07 	0.01174352278 	-8.861619368e-07 	2.238641837e-05
0.4586425543 	0.009879148781 	0.002203727037 	2.794947813e-07 	0.01177180776 	-7.119533743e-07 	2.244033739e-05
0.4606746966 	0.009916129581 	0.002231361101 	2.123599936e-07 	0.01180036003 	-5.388325432e-07 	2.249476597e-05
0.4627273447 	0.009953684093 	0.002259308123 	1.450132738e-07 	0.01182929744 	-3.667110721e-07 	2.25499287e-05
0.4648189542 	0.009992038007 	0.002287563744 	7.6766312e-08 	0.01185912305 	-1.935521347e-07 	2.26067846e-05
0.466953052 	0.01003135403 	0.002316518029 	7.652177371e-09 	0.01188941173 	-1.924320591e-08 	2.266452325e-05
0.4671922495 	0.01003579316 	0.00231978997 	8.339005079e-08 	0.01189279846 	-9.879074051e-08 	2.267097929e-05
0.469107006 	0.01007138896 	0.002345997859 	6.115008234e-08 	0.01191989018 	-1.538917258e-07 	2.272262364e-05
0.4712824151 	0.01011198761 	0.002375713085 	1.297447411e-07 	0.01195085974 	-3.259382666e-07 	2.278166023e-05
0.4734797172 	0.01015320029 	0.002405817078 	1.981061709e-07 	0.011982127 	-4.969548774e-07 	2.284126432e-05
0.4756991628 	0.0101950251 	0.002436305895 	2.661845983e-07 	0.01201371302 	-6.670042274e-07 	2.290147606e-05
0.4779561872 	0.0102376513 	0.002467132425 	3.344930287e-07 	0.01204614625 	-8.374961984e-07 	2.296330281e-05
0.4802602884 	0.01028129135 	0.002498674357 	4.032736355e-07 	0.01207907695 	-1.009153098e-06 	2.302607787e-05
0.4825874655 	0.0103257043 	0.002530838563 	4.71520203e-07 	0.01211215847 	-1.179683419e-06 	2.308914044e-05
0.4849379871 	0.01037069554 	0.002563243514 	5.391649451e-07 	0.01214577185 	-1.34894453e-06 	2.315321689e-05
0.4873121266 	0.01041631329 	0.002596155251 	6.061915744e-07 	0.01217944069 	-1.517129435e-06 	2.321739905e-05
0.4897101617 	0.01046256415 	0.002629340729 	5.974218823e-07 	0.01221374247 	-1.496123361e-06 	2.328278779e-05
0.492163323 	0.01050980857 	0.002663071747 	5.292862649e-07 	0.01224885349 	-1.326563851e-06 	2.334971915e-05
0.4946490888 	0.01055804081 	0.00269765708 	4.614815447e-07 	0.01228403654 	-1.157979732e-06 	2.341678781e-05
0.4971597453 	0.01060690217 	0.002732592833 	3.943481012e-07 	0.01231962879 	-9.909106547e-07 	2.348463653e-05
0.4996955911 	0.01065638375 	0.002767983221 	3.279215841e-07 	0.01235535906 	-8.253810653e-07 	2.355274836e-05
0.5022569303 	0.01070650305 	0.002803724786 	2.622210006e-07 	0.01239155394 	-6.613170811e-07 	2.362174586e-05
0.5048675072 	0.01075755339 	0.002839981345 	1.965186498e-07 	0.01242848229 	-4.967066276e-07 	2.369214156e-05
0.507518827 	0.01080963461 	0.002877067293 	1.312884114e-07 	0.01246557657 	-3.326782453e-07 	2.376285356e-05
0.5101966917 	0.01086243037 	0.00291462502 	6.708078003e-08 	0.01250297001 	-1.704566216e-07 	2.383413586e-05
0.5129014286 	0.01091584798 	0.002952667862 	3.927655121e-09 	0.01254040847 	-1.001137342e-08 	2.390550397e-05
0.5130736398 	0.0109192548 	0.002955087138 	5.84141185e-08 	0.0125428029 	-6.927885326e-08 	2.391006843e-05
0.5156320481 	0.01096992414 	0.002991031779 	5.772820762e-08 	0.01257836041 	-1.484629774e-07 	2.397785092e-05
0.518419256 	0.01102502552 	0.003030012713 	1.190507453e-07 	0.0126169665 	-3.073152804e-07 	2.405144486e-05
0.5212419599 	0.01108116123 	0.003069853563 	1.792469216e-07 	0.01265558401 	-4.64629667e-07 	2.412506057e-05
0.5240930218 	0.01113795742 	0.003110149893 	2.380610069e-07 	0.01269439064 	-6.198199268e-07 	2.419903679e-05
0.5269728009 	0.01119540143 	0.003150907994 	2.954661371e-07 	0.01273335216 	-7.729403397e-07 	2.427330828e-05
0.5298914659 	0.01125366169 	0.003192126208 	3.516732528e-07 	0.01277289606 	-9.246476186e-07 	2.434868994e-05
0.532864735 	0.01131303215 	0.003234140827 	4.069334858e-07 	0.01281273688 	-1.075740743e-06 	2.442463761e-05
0.5358678962 	0.01137330584 	0.003276863341 	4.604811514e-07 	0.01285258889 	-1.224410595e-06 	2.450060661e-05
0.538901337 	0.01143422161 	0.003320095369 	5.123227264e-07 	0.01289239034 	-1.370687962e-06 	2.457647925e-05
0.5419666093 	0.01149585967 	0.003363731887 	5.624250765e-07 	0.01293268906 	-1.514620416e-06 	2.46532998e-05
0.5450948104 	0.01155865201 	0.003408133913 	5.438605677e-07 	0.01297339196 	-1.474759515e-06 	2.473089084e-05
0.5482545274 	0.01162249199 	0.003453396972 	4.877027747e-07 	0.01301389968 	-1.332379691e-06 	2.480810982e-05
0.5514461789 	0.0116869858 	0.003499176041 	4.331619787e-07 	0.01305429853 	-1.192694791e-06 	2.488512126e-05
0.5546709803 	0.0117522329 	0.003545400482 	3.80192616e-07 	0.01309508435 	-1.055560293e-06 	2.496287036e-05
0.5579586754 	0.01181866529 	0.003592408378 	3.282262308e-07 	0.01313616973 	-9.192702321e-07 	2.504119052e-05
0.5612796104 	0.01188618543 	0.003640321682 	2.780396258e-07 	0.01317687122 	-7.860666762e-07 	2.511877887e-05
0.564634237 	0.01195438745 	0.003688732909 	2.297006568e-07 	0.01321750583 	-6.5583585e-07 	2.519623972e-05
0.5680294603 	0.01202348184 	0.003737702644 	1.830605396e-07 	0.0132583735 	-5.281362485e-07 	2.527414487e-05
0.5714814891 	0.01209378431 	0.003787506673 	1.379319088e-07 	0.01329924811 	-4.023467093e-07 	2.535206323e-05
0.5749685919 	0.01216511895 	0.003838156933 	9.483017387e-08 	0.01333960613 	-2.798923211e-07 	2.542899684e-05
0.5784912566 	0.01223719609 	0.003889296314 	5.377121998e-08 	0.01337995428 	-1.606773403e-07 	2.550591162e-05
0.5820660421 	0.01231037354 	0.003941138543 	1.44957788e-08 	0.01342033699 	-4.388406537e-08 	2.558289229e-05
0.583462122 	0.01233904674 	0.003961471404 	4.605039205e-07 	0.01343572694 	-6.894530948e-07 	2.561222982e-05
0.5856870712 	0.01238476631 	0.003993870594 	2.250452436e-08 	0.01346024886 	-6.963476589e-08 	2.565897541e-05
0.5893448323 	0.01246005549 	0.004047266308 	5.715085342e-08 	0.01349969515 	-1.794629486e-07 	2.573417101e-05
0.593044075 	0.01253626893 	0.004101236766 	8.967334754e-08 	0.01353904365 	-2.859935514e-07 	2.580918018e-05
0.5968014921 	0.01261374719 	0.004156037898 	1.201934608e-07 	0.01357806185 	-3.896851274e-07 	2.588355972e-05
0.6005975097 	0.01269233886 	0.004211686097 	1.483597532e-07 	0.01361623114 	-4.895070545e-07 	2.595632099e-05
0.6044326823 	0.01277176818 	0.00426784743 	1.742323436e-07 	0.01365410561 	-5.855687804e-07 	2.602852025e-05
0.6083262453 	0.01285244229 	0.004324765497 	1.979842499e-07 	0.01369157073 	-6.785082855e-07 	2.609993919e-05
0.6122629626 	0.01293434425 	0.004382564046 	2.193053649e-07 	0.01372799078 	-7.674145406e-07 	2.616936593e-05
0.6162404639 	0.01301712094 	0.004440890286 	2.382658911e-07 	0.01376384429 	-8.52301089e-07 	2.623771267e-05
0.6202729019 	0.01310110254 	0.004499904866 	2.549825762e-07 	0.01379907697 	-9.336198831e-07 	2.630487595e-05
0.6243530268 	0.01318634579 	0.00455975225 	2.692519623e-07 	0.01383310154 	-1.010754072e-06 	2.636973625e-05
0.6284756376 	0.01327252441 	0.004620131491 	2.811471075e-07 	0.01386628259 	-1.08364473e-06 	2.643298854e-05
0.6326526999 	0.0133599004 	0.004681142851 	2.907668281e-07 	0.01389857534 	-1.152641798e-06 	2.64945475e-05
0.6368792419 	0.01344854181 	0.004742914594 	2.979576435e-07 	0.01392942309 	-1.217223287e-06 	2.65533519e-05
0.6411500483 	0.01353814235 	0.004805167699 	3.02835435e-07 	0.01395916911 	-1.277382938e-06 	2.661005607e-05
0.6454768345 	0.01362895984 	0.00486799782 	3.054855283e-07 	0.01398769632 	-1.333393629e-06 	2.666443686e-05
0.6498531354 	0.01372101323 	0.004931480793 	3.057940661e-07 	0.01401449247 	-1.384748829e-06 	2.671551778e-05
0.65427556 	0.01381402396 	0.004995349305 	3.039374714e-07 	0.01403992349 	-1.431567879e-06 	2.676399638e-05
0.6587567266 	0.01390828146 	0.005059733949 	2.950239623e-07 	0.01406370408 	-1.449693483e-06 	2.680932878e-05
0.6632864859 	0.01400369258 	0.005124600331 	2.717436494e-07 	0.01408550867 	-1.39785671e-06 	2.685089438e-05
0.6678663167 	0.0141000948 	0.00518974538 	2.497570942e-07 	0.01410560493 	-1.349813293e-06 	2.688920345e-05
0.6725042632 	0.01419745535 	0.005255121068 	2.289556462e-07 	0.01412349331 	-1.305430663e-06 	2.692330368e-05
0.6771398434 	0.01429467868 	0.005320001226 	2.095137352e-07 	0.01413907065 	-1.265420398e-06 	2.69529984e-05
0.6817269438 	0.01439095337 	0.005383762361 	1.914372245e-07 	0.01415234966 	-1.229741414e-06 	2.697831189e-05
0.6862659936 	0.01448614143 	0.005446329269 	1.745940683e-07 	0.01416298077 	-1.198271134e-06 	2.699857774e-05
0.6907531043 	0.0145800112 	0.005507541443 	1.588845822e-07 	0.01417128751 	-1.17074539e-06 	2.70144127e-05
0.6951949272 	0.0146727531 	0.005567459432 	1.44113947e-07 	0.01417719569 	-1.146692824e-06 	2.702567533e-05
0.6995877647 	0.01476432735 	0.005626099636 	1.301659457e-07 	0.01418051993 	-1.126093285e-06 	2.703201225e-05
0.7039307073 	0.01485453157 	0.005683313701 	1.169640933e-07 	0.01418163898 	-1.108623703e-06 	2.703414549e-05
0.7082302496 	0.01494358527 	0.005739191032 	1.043512198e-07 	0.01418038473 	-1.093946655e-06 	2.703175452e-05
0.7124812566 	0.01503136434 	0.005793698397 	9.224747185e-08 	0.01417671501 	-1.082032406e-06 	2.702475903e-05
0.7166846618 	0.01511774684 	0.005846734798 	8.058885732e-08 	0.01417093573 	-1.072555947e-06 	2.701374212e-05
0.7208449964 	0.0152029262 	0.005898385464 	6.925374878e-08 	0.01416284967 	-1.065296547e-06 	2.699832782e-05
0.7249584804 	0.01528674414 	0.005948599394 	5.818865961e-08 	0.01415251084 	-1.060182005e-06 	2.697861915e-05
0.729026125 	0.01536913749 	0.005997311913 	4.734540279e-08 	0.01414015699 	-1.056930548e-06 	2.695506927e-05
0.7330514326 	0.01545027489 	0.006044594679 	3.66308482e-08 	0.01412560682 	-1.055372342e-06 	2.692733261e-05
0.7370316237 	0.01553000669 	0.006090407128 	2.600809089e-08 	0.01410891899 	-1.055432476e-06 	2.689552097e-05
0.7409673456 	0.01560826418 	0.006134693069 	1.545337905e-08 	0.01409032588 	-1.0568824e-06 	2.686007733e-05
0.744861872 	0.01568521752 	0.006177513475 	4.896163973e-09 	0.01406967787 	-1.059559018e-06 	2.682071649e-05
0.7487129188 	0.01576075745 	0.006218853901 	-5.694317501e-09 	0.01404697396 	-1.063412927e-06 	2.677743653e-05
0.7525210598 	0.01583476392 	0.00625865241 	-1.631353924e-08 	0.01402247875 	-1.068267827e-06 	2.673074184e-05
0.7562885687 	0.01590741217 	0.0062969568 	-2.701181685e-08 	0.01399608711 	-1.073955379e-06 	2.668043204e-05
0.7600145333 	0.01597865658 	0.006333781879 	-3.782019369e-08 	0.01396771998 	-1.080448267e-06 	2.662635641e-05
0.7636991078 	0.0160483235 	0.006369065786 	-4.871361889e-08 	0.01393765729 	-1.087622665e-06 	2.656904857e-05
0.7673436288 	0.01611656605 	0.006402837475 	-5.971906583e-08 	0.0139058601 	-1.095310103e-06 	2.650843428e-05
0.7709484819 	0.01618341261 	0.006435130231 	-7.086793601e-08 	0.01387220297 	-1.103487002e-06 	2.644427443e-05
0.7745133872 	0.01624868446 	0.006465902484 	-8.21326847e-08 	0.01383689636 	-1.112076119e-06 	2.637697023e-05
0.7780389421 	0.01631243999 	0.006495155516 	-9.35103032e-08 	0.01380001467 	-1.120942361e-06 	2.630666348e-05
0.7815265585 	0.01637478357 	0.0065229253 	-1.050243091e-07 	0.01376144435 	-1.13001861e-06 	2.623313773e-05
0.784975603 	0.01643561474 	0.006549209132 	-1.166678315e-07 	0.01372123071 	-1.139274789e-06 	2.615647935e-05
0.7883865467 	0.01649484021 	0.00657398318 	-1.236522481e-07 	0.01367957221 	-1.106098331e-06 	2.607706668e-05
0.7917602851 	0.01655259078 	0.00659727149 	-1.299173746e-07 	0.01363642026 	-1.072686522e-06 	2.599480707e-05
0.7950971832 	0.01660888117 	0.006619098075 	-1.354974125e-07 	0.01359170328 	-1.039205211e-06 	2.590956407e-05
0.7983972724 	0.01666356932 	0.006639449485 	-1.403891837e-07 	0.0135455767 	-1.00577408e-06 	2.5821634e-05
0.8016609923 	0.01671666174 	0.006658325132 	-1.446093344e-07 	0.0134981448 	-9.725070791e-07 	2.57312156e-05
0.8048892448 	0.01676826526 	0.006675749754 	-1.48188096e-07 	0.01344933593 	-9.394205141e-07 	2.563817232e-05
0.8080820428 	0.01681834197 	0.006691738935 	-1.511364155e-07 	0.01339914416 	-9.065017522e-07 	2.554249287e-05
0.8112396897 	0.01686677439 	0.006706287394 	-1.534642715e-07 	0.01334773011 	-8.738592803e-07 	2.544448339e-05
0.8143625974 	0.01691360669 	0.006719403978 	-1.551997141e-07 	0.01329514812 	-8.415667542e-07 	2.53442475e-05
0.8174515457 	0.01695892623 	0.006731111635 	-1.56370981e-07 	0.01324133049 	-8.096118668e-07 	2.524165614e-05
0.8205065383 	0.01700268401 	0.006741425268 	-1.569925115e-07 	0.01318630477 	-7.779901943e-07 	2.513676184e-05
0.8235279445 	0.01704479647 	0.006750349859 	-1.570839594e-07 	0.01313020238 	-7.46776258e-07 	2.502981508e-05
0.8265161521 	0.01708530602 	0.006757897045 	-1.566752671e-07 	0.01307306986 	-7.160176469e-07 	2.492090463e-05
0.8294717838 	0.01712429318 	0.006764087331 	-1.557935527e-07 	0.01301485445 	-6.857012544e-07 	2.480992988e-05
0.8323949679 	0.01716171923 	0.006768938858 	-1.544539477e-07 	0.01295558773 	-6.558165418e-07 	2.469695104e-05
0.8352860472 	0.01719750864 	0.006772464508 	-1.526790307e-07 	0.01289538492 	-6.264220057e-07 	2.458218775e-05
0.8381453877 	0.01723167888 	0.006774678189 	-1.504966138e-07 	0.01283431238 	-5.975615338e-07 	2.446576651e-05
0.8409734693 	0.01726431255 	0.006775598411 	-1.47935134e-07 	0.01277233688 	-5.692418778e-07 	2.434762399e-05
0.8437705646 	0.01729541266 	0.006775247258 	-1.450100147e-07 	0.0127094595 	-5.414388041e-07 	2.422776222e-05
0.8465369613 	0.01732492255 	0.006773644012 	-1.417448856e-07 	0.01264577344 	-5.141903028e-07 	2.410635888e-05
0.8492730063 	0.01735286169 	0.006770805925 	-1.381667185e-07 	0.01258133793 	-4.875243254e-07 	2.39835269e-05
0.851979068 	0.01737932166 	0.006766748993 	-1.343044705e-07 	0.01251613481 	-4.614492404e-07 	2.385923163e-05
0.8546555343 	0.01740437062 	0.006761492871 	-1.301748653e-07 	0.01245012391 	-4.359301306e-07 	2.37333965e-05
0.8573026396 	0.01742798566 	0.006755059149 	-1.257965483e-07 	0.01238336703 	-4.109698361e-07 	2.360613934e-05
0.859920713 	0.01745016703 	0.006747468328 	-1.211931019e-07 	0.01231592438 	-3.865869178e-07 	2.34775749e-05
0.862510079 	0.01747094543 	0.006738739185 	-1.16388408e-07 	0.01224784277 	-3.627970187e-07 	2.334779243e-05
0.8650710966 	0.01749038794 	0.006728888769 	-1.114046293e-07 	0.01217912216 	-3.396039749e-07 	2.321679184e-05
0.8676040616 	0.01750850694 	0.006717941428 	-1.062541417e-07 	0.01210978081 	-3.16988346e-07 	2.308460795e-05
0.8701092526 	0.01752525945 	0.00670592579 	-1.009570513e-07 	0.01203991896 	-2.949684674e-07 	2.295143186e-05
0.8725869784 	0.01754065802 	0.006692867382 	-9.553500548e-08 	0.01196959535 	-2.735560245e-07 	2.281737551e-05
0.8750375438 	0.0175547495 	0.006678788813 	-9.000867013e-08 	0.01189884717 	-2.527532644e-07 	2.268250982e-05
0.8774612751 	0.01756762322 	0.006663708026 	-8.43948487e-08 	0.01182766605 	-2.325459076e-07 	2.254681882e-05
0.8798584493 	0.01757933245 	0.00664764893 	-7.870199262e-08 	0.01175605381 	-2.129010139e-07 	2.241030599e-05
0.8822293439 	0.0175898917 	0.006630639896 	-7.294560246e-08 	0.01168407632 	-1.938170839e-07 	2.227309689e-05
0.8845742495 	0.01759935471 	0.006612705183 	-6.714271014e-08 	0.01161176677 	-1.752980317e-07 	2.213525478e-05
0.886893453 	0.01760778937 	0.006593867173 	-6.131183445e-08 	0.01153915237 	-1.57356492e-07 	2.199683156e-05
0.8891872474 	0.01761529779 	0.006574141948 	-5.547242077e-08 	0.01146623128 	-1.400099196e-07 	2.18578237e-05
0.8914559102 	0.01762197245 	0.006553547227 	-4.963849051e-08 	0.0113929886 	-1.232627739e-07 	2.171820279e-05
0.8936997032 	0.01762788414 	0.006532102917 	-4.382926132e-08 	0.01131944975 	-1.071331277e-07 	2.157801731e-05
0.8959189001 	0.0176331424 	0.006509820396 	-3.806248528e-08 	0.01124561505 	-9.162828646e-08 	2.143726784e-05
0.8981137716 	0.01763787093 	0.006486706582 	-3.235066527e-08 	0.01117146705 	-7.673642709e-08 	2.129592114e-05
0.9002845849 	0.01764217864 	0.006462769535 	-2.670038177e-08 	0.01109701253 	-6.243043219e-08 	2.115399014e-05