0.3179529243 	1.365481059e-06 	-9.980762217e-09 	1.047005072e-12 	1.354879856e-06 	-7.967542731e-11 	2.582777576e-09
0.3179529243 	1.365481059e-06 	-9.980762217e-09 	1.047005072e-12 	1.354879856e-06 	-7.967542731e-11 	2.582777576e-09
0.318152706 	1.891237645e-05 	-5.597862278e-07 	1.01030878e-10 	1.842804194e-05 	-2.054761479e-09 	3.512896975e-08
0.3183524966 	0.000111885123 	-7.678325923e-06 	1.650142813e-09 	0.0001055205348 	-1.391577574e-08 	2.011514673e-07
0.318552295 	0.0003878576554 	-4.765797776e-05 	1.117237342e-08 	0.0003489381584 	-4.974695034e-08 	6.651731123e-07
0.3187521003 	0.0009790988534 	-0.0001827074138 	4.416449983e-08 	0.0008308029096 	-1.204379201e-07 	1.583741255e-06
0.3189519114 	0.001995815983 	-0.0005008093228 	1.190918035e-07 	0.001590268803 	-2.226524376e-07 	3.031494332e-06
0.3191517275 	0.003467607813 	-0.001069623755 	2.40470523e-07 	0.002603357415 	-3.363780077e-07 	4.962722798e-06
0.3193515475 	0.00530861587 	-0.001869444514 	3.092319324e-07 	0.003802251965 	-4.700131738e-07 	7.248149026e-06
0.3195513705 	0.007321215617 	-0.002690624559 	3.409086116e-07 	0.005154044259 	-6.131187923e-07 	9.825040851e-06
0.3197511955 	0.009376073662 	-0.003444810081 	4.109107576e-07 	0.00659842895 	-7.342848169e-07 	1.257843952e-05
0.3199510214 	0.01142958357 	-0.004199446071 	4.708409904e-07 	0.008043264629 	-8.326315295e-07 	1.533269789e-05
0.3201508474 	0.01341647103 	-0.004932364196 	5.216364187e-07 	0.009440348253 	-9.006691332e-07 	1.799592758e-05
0.3203506724 	0.01529189392 	-0.005632132613 	5.704014469e-07 	0.01075153608 	-9.312813027e-07 	2.049541601e-05
0.3205504955 	0.0170258541 	-0.006298161195 	6.258078746e-07 	0.01194842816 	-9.131048628e-07 	2.277702496e-05
0.3207503157 	0.01859782774 	-0.00693457217 	6.898879436e-07 	0.01300737572 	-8.338600151e-07 	2.479567333e-05
0.3209501321 	0.01999088567 	-0.007543302343 	7.526258479e-07 	0.01390994771 	-6.842614581e-07 	2.651622641e-05
0.3211499436 	0.02119004991 	-0.008120538845 	7.950414997e-07 	0.0146442506 	-4.61178783e-07 	2.79160118e-05
0.3213497493 	0.02218472521 	-0.008658752144 	7.980919824e-07 	0.01520580015 	-1.681678354e-07 	2.898648133e-05
0.3215495483 	0.02297241273 	-0.009152095181 	7.504341622e-07 	0.01559694859 	1.865254458e-07 	2.973211896e-05
0.3217493395 	0.02351626151 	-0.009495160794 	5.202860948e-07 	0.01586563415 	5.33740761e-07 	3.024430832e-05
0.3219491221 	0.02379282701 	-0.009591276834 	2.019159246e-07 	0.01606607635 	8.842627517e-07 	3.062640686e-05
0.322148895 	0.02387054561 	-0.009547129039 	-5.138544483e-08 	0.01618113505 	1.295428018e-06 	3.084574072e-05
0.3223486573 	0.02381236546 	-0.009464143435 	-3.213389943e-07 	0.01619219775 	1.741292745e-06 	3.08668293e-05
0.322548408 	0.02363505299 	-0.009345645717 	-6.071358518e-07 	0.01611306688 	2.21396687e-06 	3.071598388e-05
0.3227481462 	0.02335325964 	-0.009194998105 	-9.078540408e-07 	0.01595563746 	2.705219724e-06 	3.041587964e-05
0.322947871 	0.02298036372 	-0.009015493777 	-1.222746497e-06 	0.01573065351 	3.207277848e-06 	2.998699771e-05
0.3231475813 	0.02252864643 	-0.008810238929 	-1.551227574e-06 	0.01544788095 	3.712895431e-06 	2.94479546e-05
0.3233472762 	0.02200934849 	-0.00858211525 	-1.89282372e-06 	0.01511622047 	4.215547832e-06 	2.881571754e-05
0.3235469548 	0.02143272956 	-0.008333792359 	-2.246836131e-06 	0.01474379159 	4.709447416e-06 	2.810576459e-05
0.3237466161 	0.0208089048 	-0.008068420668 	-2.593190932e-06 	0.01433819634 	5.183149901e-06 	2.733258732e-05
0.3239462591 	0.02005645647 	-0.007751614692 	-2.915556047e-06 	0.01384638148 	5.654424643e-06 	2.63950515e-05
0.32425642 	0.01908237659 	-0.007348749792 	-3.252631379e-06 	0.01320455971 	6.188615918e-06 	2.517156083e-05
0.3245723591 	0.01797950464 	-0.006899427065 	-3.577604181e-06 	0.01247367554 	6.645865155e-06 	2.377829246e-05
0.3248941791 	0.01686046301 	-0.006445017091 	-3.874686764e-06 	0.01173271464 	6.966130739e-06 	2.236581504e-05
0.3252219844 	0.0157511048 	-0.005993141085 	-4.092236517e-06 	0.01100164954 	7.108771092e-06 	2.097220177e-05
0.3255558808 	0.01467910114 	-0.005554753833 	-4.179485878e-06 	0.01030010229 	7.040527952e-06 	1.963485773e-05
0.3258959756 	0.01367228656 	-0.005142990599 	-4.089584864e-06 	0.009646757134 	6.735726283e-06 	1.838940028e-05
0.3262423775 	0.01275731152 	-0.004771298354 	-3.607748441e-06 	0.009058080213 	5.880594747e-06 	1.726721845e-05
0.3265951969 	0.01195566877 	-0.004451567651 	-2.945115044e-06 	0.008550406763 	4.754024984e-06 	1.629945175e-05
0.3269545455 	0.01127821736 	-0.004191573656 	-2.229104925e-06 	0.008140670855 	3.49306414e-06 	1.551838123e-05
0.3273205366 	0.01070403718 	-0.003936469525 	-2.855972955e-06 	0.007843297229 	2.084641225e-06 	1.495150445e-05
0.3276932849 	0.0101889285 	-0.003592937504 	-3.657172483e-06 	0.007658448191 	8.911323337e-07 	1.459913081e-05
0.3280729065 	0.009734978061 	-0.003215976686 	-3.167352131e-06 	0.00755617111 	1.008130089e-07 	1.440416227e-05
0.328459519 	0.009361417477 	-0.002895400112 	-2.582585528e-06 	0.007509366541 	-5.227707284e-07 	1.431493975e-05
0.3288532414 	0.009060894232 	-0.002624163667 	-2.068259408e-06 	0.007507985209 	-1.016503222e-06 	1.431230654e-05
0.3292541942 	0.008824701954 	-0.002398204539 	-1.570811783e-06 	0.007546637575 	-1.476483149e-06 	1.43859887e-05
0.329662499 	0.008641749114 	-0.002212205945 	-1.218555453e-06 	0.007626365515 	-1.877170137e-06 	1.453797231e-05
0.330078279 	0.008500713509 	-0.002052079516 	-1.019269174e-06 	0.007743107238 	-2.164388934e-06 	1.476051448e-05
0.3305016584 	0.008391431921 	-0.001908072573 	-8.548892939e-07 	0.0078887861 	-2.330120603e-06 	1.503821888e-05
0.330932763 	0.008306568735 	-0.001778532374 	-7.007191551e-07 	0.0080554537 	-2.403607896e-06 	1.535593365e-05
0.3313717196 	0.008240436229 	-0.001662208604 	-5.733866613e-07 	0.008237338729 	-2.408589363e-06 	1.570265707e-05
0.3318186562 	0.008188415175 	-0.001556845141 	-4.698422446e-07 	0.008430377957 	-2.362019188e-06 	1.607064349e-05
0.332273702 	0.008146866449 	-0.001460419723 	-3.860565353e-07 	0.008631750198 	-2.274631769e-06 	1.645451495e-05
0.3327369872 	0.00811296474 	-0.001371200601 	-3.183653829e-07 	0.00883941345 	-2.153191995e-06 	1.685037882e-05
0.333208643 	0.008084631507 	-0.001287574624 	-2.63490331e-07 	0.00905173574 	-2.00298136e-06 	1.725512412e-05
0.333690202 	0.008060059648 	-0.001207935936 	-2.185236833e-07 	0.009269281722 	-1.827722863e-06 	1.766982722e-05
0.3341943182 	0.00803778073 	-0.001130620744 	-1.801860701e-07 	0.009492488541 	-1.623302641e-06 	1.809532146e-05
0.3347076387 	0.008016976506 	-0.001055098509 	-1.472814481e-07 	0.009718749204 	-1.398134471e-06 	1.852663717e-05
0.3352303273 	0.007996967321 	-0.0009812882985 	-1.179168693e-07 	0.009945974999 	-1.153745185e-06 	1.895979269e-05
0.3357625509 	0.007977066164 	-0.0009083982626 	-9.023762557e-08 	0.01017362824 	-8.915786369e-07 	1.939376304e-05
0.3363044791 	0.007956701161 	-0.0008357597164 	-6.255125894e-08 	0.0104013306 	-6.127384231e-07 	1.982782702e-05
0.3368562843 	0.00793540337 	-0.0007627750544 	-3.327207933e-08 	0.01062879213 	-3.180327548e-07 	2.026143191e-05
0.337418142 	0.007912781649 	-0.0006889034375 	-8.710588557e-10 	0.01085579752 	-8.016186506e-09 	2.069416729e-05
0.3374324648 	0.007912172285 	-0.0006870186689 	8.443864171e-08 	0.01086146672 	2.354195422e-07 	2.070497436e-05
0.337988836 	0.007888432361 	-0.0006136044832 	-3.440951863e-08 	0.01108237659 	-3.072518682e-07 	2.112608996e-05
0.3385698873 	0.007862108696 	-0.0005364321426 	-7.486570915e-08 	0.01130827576 	-6.36882958e-07 	2.155671656e-05
0.3391615162 	0.007833546998 	-0.0004569388192 	-1.220683005e-07 	0.01153346193 	-9.811069981e-07 	2.1985984e-05
0.3397639102 	0.007802521712 	-0.0003746749356 	-1.777001981e-07 	0.01175791588 	-1.339928695e-06 	2.241385562e-05
0.3403772602 	0.00776884792 	-0.0002892356433 	-2.432951934e-07 	0.01198163227 	-1.713418535e-06 	2.284032124e-05
0.3410017602 	0.007732642338 	-0.0002010534956 	-3.140285126e-07 	0.01220446773 	-2.100547494e-06 	2.326510755e-05
0.3416376076 	0.007698311919 	-0.0001122688258 	-3.720065347e-07 	0.01240595746 	-2.307382843e-06 	2.364920297e-05
0.342285003 	0.007674037051 	-2.650577473e-05 	-3.946286015e-07 	0.01254938207 	-2.068888442e-06 	2.392261015e-05
0.3429441507 	0.007661674265 	5.346895133e-05 	-3.852861238e-07 	0.01263303409 	-1.716267065e-06 	2.408207415e-05
0.3436152583 	0.007655792766 	0.0001279617702 	-3.788719393e-07 	0.01268819989 	-1.693347931e-06 	2.418723549e-05
0.3442985368 	0.007651881582 	0.0001986269522 	-3.872225061e-07 	0.01273653956 	-1.862823332e-06 	2.427938434e-05
0.3449942011 	0.007648745744 	0.0002663204487 	-3.958513063e-07 	0.01278257464 	-2.03094924e-06 	2.436714e-05
0.3457024694 	0.007646282149 	0.0003311343602 	-3.967681873e-07 	0.0128263465 	-2.196444072e-06 	2.445058132e-05
0.3464235639 	0.007644437382 	0.0003929725914 	-3.88338879e-07 	0.01286789475 	-2.359111196e-06 	2.452978384e-05
0.3471577105 	0.007643138572 	0.0004517252991 	-3.701313901e-07 	0.01290728165 	-2.518658641e-06 	2.460486623e-05
0.3479051389 	0.007642353967 	0.0005074036853 	-3.417723021e-07 	0.01294455627 	-2.674892657e-06 	2.4675922e-05
0.3486660827 	0.007642064199 	0.0005600750877 	-3.029052276e-07 	0.01297990797 	-2.827627158e-06 	2.474331217e-05
0.34945109 	0.007642191584 	0.0006099103307 	-2.525550866e-07 	0.01301366851 	-2.969584096e-06 	2.480766915e-05
0.3502630611 	0.007642692478 	0.0006570771501 	-1.685652857e-07 	0.01304585534 	-2.735581151e-06 	2.486902618e-05
0.3510896352 	0.007643537488 	0.0007012274507 	-9.313677829e-08 	0.0130762914 	-2.503792246e-06 	2.492704578e-05
0.3519310666 	0.007644685541 	0.0007421249793 	-2.763455577e-08 	0.01310498319 	-2.274822513e-06 	2.49817403e-05
0.3527876142 	0.007646105492 	0.000779933044 	2.723985197e-08 	0.01313204331 	-2.049081312e-06 	2.503332442e-05
0.3536595409 	0.007647758896 	0.0008147851902 	7.098997778e-08 	0.01315759997 	-1.826864225e-06 	2.508204251e-05
0.3545471142 	0.007649614181 	0.0008468375473 	1.033999941e-07 	0.01318178257 	-1.60837879e-06 	2.512814126e-05
0.3554506062 	0.007651649954 	0.0008762624369 	1.245105162e-07 	0.01320472009 	-1.393743154e-06 	2.517186655e-05
0.3563702933 	0.007653889299 	0.0009033072737 	1.345556066e-07 	0.01322651553 	-1.182980992e-06 	2.521341472e-05
0.357306457 	0.007656288278 	0.0009280574017 	1.34000902e-07 	0.01324733133 	-9.760426323e-07 	2.525309542e-05
0.358259383 	0.00765916177 	0.000952985761 	1.251276317e-07 	0.01326990354 	-7.716969464e-07 	2.529612432e-05
0.3597206513 	0.007662826912 	0.0009805819917 	9.056597625e-08 	0.01329611338 	-4.745577384e-07 	2.534608756e-05
0.3611962551 	0.007666948253 	0.001007533221 	4.124246246e-08 	0.01332302992 	-1.882418586e-07 	2.539739796e-05
0.3622065599 	0.007669921806 	0.001023750553 	2.573041629e-07 	0.01334036465 	-3.225152758e-07 	2.543044278e-05
0.3626853298 	0.007671330822 	0.001031464119 	2.005494383e-08 	0.01334859299 	-8.769590058e-08 	2.544612828e-05
0.3641869071 	0.007675917597 	0.001052774271 	8.955274988e-08 	0.01337341713 	-3.54526111e-07 	2.549345e-05
0.3657415917 	0.007680754269 	0.001072327655 	1.698690424e-07 	0.01339804195 	-6.205968744e-07 	2.554039176e-05
0.3673153958 	0.007685912094 	0.001090761294 	2.571899064e-07 	0.01342248351 	-8.801915644e-07 	2.558698415e-05
0.3689044967 	0.007691379839 	0.001108013 	3.493463293e-07 	0.01344690266 	-1.13369423e-06 	2.563353384e-05
0.3705090474 	0.007697173256 	0.001124436106 	4.449837473e-07 	0.01347147081 	-1.38212242e-06 	2.568036757e-05
0.372129203 	0.007703314354 	0.001140282325 	5.431589491e-07 	0.01349634781 	-1.626309544e-06 	2.572779005e-05
0.3737651208 	0.007709828217 	0.00115574887 	6.432810694e-07 	0.01352165958 	-1.866938374e-06 	2.577604131e-05
0.3754169603 	0.007716712454 	0.001170938577 	7.449710815e-07 	0.01354752662 	-2.104524988e-06 	2.582535108e-05
0.3770848833 	0.007724029665 	0.001186103654 	6.870087972e-07 	0.01357397415 	-1.895053149e-06 	2.587576743e-05
0.3787690537 	0.007731822955 	0.001201194725 	6.032876838e-07 	0.01360124284 	-1.628918985e-06 	2.592774913e-05
0.3804988631 	0.00774010464 	0.001216346302 	5.146509949e-07 	0.01362960141 	-1.36250747e-06 	2.598180844e-05
0.3822608994 	0.007748910439 	0.001231854528 	4.224846142e-07 	0.01365894779 	-1.098080184e-06 	2.603775079e-05
0.384039893 	0.007758214632 	0.001247516213 	3.279448576e-07 	0.01368917012 	-8.377822053e-07 	2.609536296e-05
0.3858360178 	0.00776799196 	0.001263278738 	2.312341959e-07 	0.01372024331 	-5.811764139e-07 	2.61545971e-05
0.3876494502 	0.007778239271 	0.001279203128 	1.325094476e-07 	0.01375216964 	-3.279153024e-07 	2.621545754e-05
0.3894803696 	0.007788943254 	0.001295286167 	3.186690538e-08 	0.01378496763 	-7.769580925e-08 	2.627797964e-05
0.3900584941 	0.007792436456 	0.001300392804 	1.071014134e-07 	0.01379548431 	-3.56397518e-07 	2.629802735e-05
0.3913268074 	0.007800099253 	0.001311601428 	6.957981662e-08 	0.01381854995 	-1.68829395e-07 	2.634199687e-05
0.3931901374 	0.007811772938 	0.001328143292 	1.723058072e-07 	0.01385306825 	-4.123947866e-07 	2.640779835e-05
0.3950927878 	0.007823997448 	0.001344909198 	2.780235533e-07 	0.01388883159 	-6.566183453e-07 	2.647597321e-05
0.3970388981 	0.007836793117 	0.001362169979 	3.869264127e-07 	0.01392578363 	-9.019386541e-07 	2.654641408e-05
0.3990036413 	0.007850123069 	0.001379818699 	4.974459399e-07 	0.0139636984 	-1.144901866e-06 	2.661869016e-05
0.400987215 	0.007863931057 	0.001397664968 	6.095199283e-07 	0.01400250388 	-1.385630449e-06 	2.66926642e-05
0.4029898197 	0.00787819807 	0.001415760525 	7.231444377e-07 	0.01404217874 	-1.624291061e-06 	2.676829549e-05
0.4050116593 	0.007892905935 	0.001434094955 	8.382714169e-07 	0.01408272253 	-1.861006546e-06 	2.684558323e-05
0.4070529411 	0.007908122945 	0.001452842105 	7.838392398e-07 	0.01412407984 	-1.720353749e-06 	2.692442177e-05
0.4091191997 	0.007923883683 	0.001471778256 	6.791870582e-07 	0.01416661844 	-1.474185668e-06 	2.700551216e-05
0.4112474576 	0.007940217016 	0.001491179735 	5.70532531e-07 	0.01421048192 	-1.224704622e-06 	2.708912813e-05
0.4133959597 	0.007957103656 	0.001511199154 	4.605147674e-07 	0.01425529813 	-9.778877138e-07 	2.717456029e-05
0.4155649276 	0.007974448064 	0.001531423764 	3.490540598e-07 	0.01430096539 	-7.33425908e-07 	2.726161479e-05
0.4177545874 	0.007992211779 	0.001551905102 	2.361952577e-07 	0.01434745989 	-4.912061777e-07 	2.735024623e-05
0.4199651688 	0.008010415809 	0.001572746904 	1.219630179e-07 	0.01439472392 	-2.511069978e-07 	2.744034459e-05
0.4221969057 	0.008029116091 	0.001593919708 	6.37315275e-09 	0.01444289065 	-1.299366252e-08 	2.753216377e-05
0.4223203246 	0.008030158612 	0.001595084696 	2.414593976e-08 	0.0144455697 	-5.437004805e-08 	2.753727079e-05
0.424469228 	0.008048314816 	0.001615358389 	1.096651864e-07 	0.01449220806 	-2.246823303e-07 	2.762617647e-05
0.4267889352 	0.008068071213 	0.001637396182 	2.281746393e-07 	0.01454264986 	-4.632625997e-07 	2.772233255e-05
0.4291306938 	0.0080883208 	0.001659906401 	3.477227252e-07 	0.01459394432 	-6.99783859e-07 	2.782011405e-05
0.4314947558 	0.00810897509 	0.001682654606 	4.682568225e-07 	0.01464601889 	-9.343187981e-07 	2.791938266e-05
0.4338813777 	0.008130035861 	0.001705758608 	5.897501607e-07 	0.01469881051 	-1.166986099e-06 	2.802001815e-05
0.4362908213 	0.008151560731 	0.001729232351 	7.121779959e-07 	0.01475241473 	-1.397912756e-06 	2.812220269e-05
0.43874163 	0.008173600029 	0.001753042559 	8.36494373e-07 	0.01480716565 	-1.62905416e-06 	2.822657317e-05
0.4412451404 	0.008196186258 	0.001777474173 	9.147033183e-07 	0.01486301104 	-1.767639073e-06 	2.833303e-05
0.4437723886 	0.00821925129 	0.001802443781 	7.991472234e-07 	0.01491964277 	-1.532847941e-06 	2.844098582e-05
0.446323657 	0.008242687318 	0.001827646378 	6.828040054e-07 	0.01497699985 	-1.300282748e-06 	2.855032436e-05
0.4488992335 	0.008266531288 	0.001853308003 	5.65774941e-07 	0.01503496029 	-1.069936136e-06 	2.866081307e-05
0.4514994119 	0.008290835918 	0.001879254981 	4.48051778e-07 	0.01509384396 	-8.41667844e-07 	2.877306171e-05
0.4541616688 	0.00831566508 	0.001905691559 	3.277340204e-07 	0.01515389178 	-6.116154535e-07 	2.888752955e-05
0.4568588278 	0.00834101393 	0.00193286508 	2.065390218e-07 	0.01521476789 	-3.830233682e-07 	2.900357633e-05
0.4595815725 	0.008366755297 	0.001960359765 	8.503832646e-08 	0.01527634089 	-1.567542506e-07 	2.912095159e-05
0.4615041402 	0.008385023565 	0.001979877893 	1.746892936e-07 	0.01531981074 	-3.140615381e-07 	2.920381719e-05
0.4623294293 	0.00839286749 	0.0019882462 	3.57833889e-08 	0.01533846902 	-6.686509439e-08 	2.923938505e-05
0.4651017109 	0.008419382327 	0.002016410595 	1.54583838e-07 	0.01540135147 	-2.873754854e-07 	2.935925648e-05
0.4679286799 	0.008446394747 	0.002045038975 	2.747864016e-07 	0.01546528837 	-5.083020561e-07 	2.948113798e-05
0.4708000474 	0.008473923733 	0.002074393119 	3.955985727e-07 	0.01553005412 	-7.283414285e-07 	2.960459951e-05
0.4736987461 	0.008501853628 	0.002104160754 	5.160343121e-07 	0.01559547502 	-9.45879322e-07 	2.972930993e-05
0.476625129 	0.008530166575 	0.002134373629 	6.360436867e-07 	0.01566140083 	-1.160998106e-06 	2.985498285e-05
0.4795795562 	0.008558903072 	0.002164904004 	7.555283185e-07 	0.01572813058 	-1.37375766e-06 	2.998218829e-05
0.4825972259 	0.008588143505 	0.00219598224 	8.760104877e-07 	0.01579586329 	-1.586914922e-06 	3.011130566e-05
0.4856526605 	0.008617881511 	0.002227817207 	9.597303523e-07 	0.01586427287 	-1.732710788e-06 	3.024171333e-05
0.4887372686 	0.008648008848 	0.002260068733 	8.464485068e-07 	0.01593322358 	-1.52347722e-06 	3.037315255e-05
0.4918514422 	0.008678526234 	0.002292737143 	7.338273835e-07 	0.01600272303 	-1.317068176e-06 	3.050563783e-05
0.4950073042 	0.008709492124 	0.002325824349 	6.213595016e-07 	0.01607306025 	-1.112400254e-06 	3.063972012e-05
0.4982235491 	0.008740976618 	0.002359626613 	5.085236528e-07 	0.01614419629 	-9.083287107e-07 	3.077532518e-05
0.5014705527 	0.008772903024 	0.002394059682 	3.96841541e-07 	0.01621584941 	-7.0750584e-07 	3.091191594e-05
0.5047487424 	0.008805217624 	0.002428968672 	2.864012497e-07 	0.01628789603 	-5.098010774e-07 	3.104925682e-05
0.5080599365 	0.008837952187 	0.002464246372 	1.771912306e-07 	0.01636066377 	-3.150159586e-07 	3.118797236e-05
0.5114411945 	0.008871208254 	0.002500216988 	6.793062463e-08 	0.01643423166 	-1.206499722e-07 	3.13282132e-05
0.5135991682 	0.008892531039 	0.002523451874 	2.808648032e-07 	0.01648100189 	-4.998966309e-07 	3.141737026e-05
0.5148541725 	0.008904933858 	0.002536943614 	3.828995752e-08 	0.01650820271 	-6.958729417e-08 	3.146922257e-05
0.5182988631 	0.008939034418 	0.002574108906 	1.405175076e-07 	0.01658247781 	-2.553769099e-07 	3.161081156e-05
0.5217779526 	0.008973551574 	0.002611681173 	2.40818256e-07 	0.01665737076 	-4.378350755e-07 	3.175357835e-05
0.52532682 	0.009008590877 	0.002649977652 	3.402340482e-07 	0.01673293727 	-6.190149887e-07 	3.189762912e-05
0.528910028 	0.00904413306 	0.002689136418 	4.371445265e-07 	0.01680877193 	-7.963063923e-07 	3.204219106e-05
0.5325280828 	0.009080076064 	0.002728777677 	5.31508231e-07 	0.01688490487 	-9.69758341e-07 	3.218732159e-05
0.5361891746 	0.009116457599 	0.002768942174 	6.234902772e-07 	0.01696152993 	-1.139894282e-06 	3.233339027e-05
0.539912511 	0.009153365875 	0.002809913724 	7.133597567e-07 	0.01703857867 	-1.307424894e-06 	3.248026657e-05
0.5436721471 	0.009190773346 	0.00285172742 	8.000226784e-07 	0.01711572946 	-1.470719091e-06 	3.262733742e-05
0.5474686338 	0.009228591781 	0.002894024114 	8.834515831e-07 	0.01719315009 	-1.629788258e-06 	3.277492267e-05
0.5513216279 	0.00926689612 	0.002937008473 	9.00187446e-07 	0.01727089948 	-1.667298208e-06 	3.292313461e-05
0.5552246668 	0.009305740653 	0.002980917274 	8.130925537e-07 	0.01734871439 	-1.512946546e-06 	3.307147146e-05
0.5591661162 	0.009345044453 	0.00302551892 	7.287415202e-07 	0.01742652217 	-1.363051536e-06 	3.321979471e-05
0.5631511971 	0.009384792774 	0.003070708765 	6.470059235e-07 	0.01750447261 	-1.217177541e-06 	3.336838991e-05
0.5671996694 	0.009425083786 	0.003116769099 	5.675806888e-07 	0.01758246163 	-1.074608886e-06 	3.351705867e-05
0.5712881919 	0.009465899147 	0.003163746497 	4.913258057e-07 	0.01766017578 	-9.369003083e-07 	3.366520343e-05
0.5754174009 	0.009507141183 	0.003211281557 	4.182772922e-07 	0.01773782284 	-8.038428216e-07 	3.38132203e-05
0.5796100922 	0.00954890827 	0.003259634549 	3.479959125e-07 	0.01781534039 	-6.744672401e-07 	3.396099031e-05
0.5838480727 	0.00959123329 	0.003308987992 	2.811984373e-07 	0.01789236653 	-5.501133793e-07 	3.410782354e-05
0.5881285045 	0.00963399481 	0.003358949959 	2.179889003e-07 	0.01796907431 	-4.307741078e-07 	3.425404988e-05
0.592468147 	0.009677263641 	0.0034096999 	1.580594683e-07 	0.01804539196 	-3.157595555e-07 	3.439953253e-05
0.5968582973 	0.009721098538 	0.003461452554 	1.018680713e-07 	0.0181209849 	-2.059246216e-07 	3.454363368e-05
0.6012927572 	0.009765383306 	0.00351386594 	4.954259904e-08 	0.01819597741 	-1.01427492e-07 	3.468659024e-05
0.6057856853 	0.009810172566 	0.003567066786 	8.315360551e-10 	0.01827027323 	-1.72562713e-09 	3.482821874e-05
0.6058686619 	0.009811000503 	0.003568056342 	2.104085534e-08 	0.01827161082 	-4.913717817e-08 	3.483076856e-05
0.6103303191 	0.009855518047 	0.003621223876 	4.248319913e-08 	0.01834353925 	-9.149018047e-08 	3.496788414e-05
0.6149212656 	0.009901318202 	0.003676061066 	8.190326639e-08 	0.0184158865 	-1.791378999e-07 	3.51057981e-05
0.6195723842 	0.009947634138 	0.003731712582 	1.176553422e-07 	0.01848716741 	-2.616574293e-07 	3.524167932e-05
0.6242759264 	0.009994505851 	0.003788319459 	1.49465969e-07 	0.01855706342 	-3.384041533e-07 	3.537492055e-05
0.6290278534 	0.01004181619 	0.003845570568 	1.774481692e-07 	0.01862569471 	-4.094541509e-07 	3.550575086e-05
0.6338430612 	0.01008965957 	0.003903667395 	2.017807929e-07 	0.01869281707 	-4.751143723e-07 	3.563370473e-05
0.6387094544 	0.01013802081 	0.003962620486 	2.222077431e-07 	0.01875818479 	-5.347265692e-07 	3.575831378e-05
0.6436287687 	0.01018680623 	0.004022199526 	2.389594489e-07 	0.01882184455 	-5.885675934e-07 	3.587966698e-05
0.6486104566 	0.01023598617 	0.004082465878 	2.521769289e-07 	0.01888330909 	-6.366308241e-07 	3.599683546e-05
0.6535885607 	0.01028505174 	0.004142726725 	2.618133929e-07 	0.01894203668 	-6.782858467e-07 	3.610878658e-05
0.65851419 	0.01033356045 	0.00420238086 	2.681611901e-07 	0.01899756116 	-7.137129616e-07 	3.621463166e-05
0.6633878192 	0.01038145121 	0.004261413203 	2.714063262e-07 	0.01904958207 	-7.429539009e-07 	3.631379799e-05
0.6682048624 	0.01042862597 	0.004319609231 	2.719055439e-07 	0.01909830084 	-7.664556926e-07 	3.640666949e-05
0.6729731885 	0.01047514936 	0.004377063834 	2.700163127e-07 	0.01914365596 	-7.847579234e-07 	3.649312896e-05
0.6776883892 	0.01052103501 	0.004433820598 	2.65923415e-07 	0.01918557649 	-7.979249093e-07 	3.657304115e-05
0.6823494001 	0.01056618283 	0.004489666681 	2.600138287e-07 	0.01922429874 	-8.065163617e-07 	3.664685652e-05
0.6869638811 	0.01061068062 	0.004544738191 	2.525494496e-07 	0.01925972333 	-8.109038179e-07 	3.671438563e-05
0.69152573 	0.01065449752 	0.004598999246 	2.437125332e-07 	0.01929186788 	-8.112128521e-07 	3.677566208e-05
0.6960360527 	0.0106975612 	0.004652299132 	2.338217676e-07 	0.01932092263 	-8.079694688e-07 	3.68310485e-05
0.7005001735 	0.01073995991 	0.004704774539 	2.230465688e-07 	0.01934677884 	-8.013978062e-07 	3.688033762e-05
0.7049135952 	0.01078164104 	0.004756354192 	2.115564132e-07 	0.01936951448 	-7.916788428e-07 	3.692367808e-05
0.7092775063 	0.01082255655 	0.00480693811 	1.99591653e-07 	0.01938927804 	-7.792622858e-07 	3.696135292e-05
0.7135960089 	0.01086278822 	0.004856648065 	1.872715993e-07 	0.01940596978 	-7.643134265e-07 	3.699317201e-05
0.7178657865 	0.0109022849 	0.004905421794 	1.747310074e-07 	0.01941967256 	-7.470053024e-07 	3.701929332e-05
0.7220875898 	0.01094099718 	0.004953167247 	1.62149129e-07 	0.01943053671 	-7.277190889e-07 	3.704000341e-05
0.7262652504 	0.01097900539 	0.004999993897 	1.496146251e-07 	0.01943847388 	-7.066145925e-07 	3.705513387e-05
0.7303960315 	0.01101627829 	0.005045876743 	1.372140811e-07 	0.01944353154 	-6.838056204e-07 	3.706477516e-05
0.7344805912 	0.01105274433 	0.005090704709 	1.250808772e-07 	0.0194458911 	-6.596142217e-07 	3.706927315e-05
0.7385215828 	0.01108848024 	0.005134570197 	1.13282319e-07 	0.01944548108 	-6.342217187e-07 	3.706849153e-05
0.7425178833 	0.01112348599 	0.005177494985 	1.018622233e-07 	0.01944229824 	-6.07669303e-07 	3.706242415e-05
0.7464696505 	0.01115766741 	0.005219354157 	9.09144873e-08 	0.01943654912 	-5.802193211e-07 	3.705146474e-05
0.7503784336 	0.01119108516 	0.00526020975 	8.049014628e-08 	0.01942819821 	-5.520756057e-07 	3.703554558e-05
0.7542446399 	0.01122377086 	0.00530011923 	7.060483664e-08 	0.01941720064 	-5.232376829e-07 	3.701458115e-05
0.7580679078 	0.01125563582 	0.00533898306 	6.131283661e-08 	0.01940373211 	-4.938888942e-07 	3.698890639e-05
0.7618489142 	0.0112866936 	0.00537680533 	5.264885261e-08 	0.01938783625 	-4.64225783e-07 	3.695860445e-05
0.7655892833 	0.01131700314 	0.005413660042 	4.461590361e-08 	0.0193694498 	-4.342824415e-07 	3.692355479e-05
0.7692882266 	0.01134652652 	0.005449521409 	3.722689401e-08 	0.01934864406 	-4.041224333e-07 	3.688389327e-05
0.7729462699 	0.01137520634 	0.005484323579 	3.050121441e-08 	0.0193255631 	-3.7390639e-07 	3.683989452e-05
0.7765644362 	0.01140310371 	0.005518126409 	2.443767223e-08 	0.01930016563 	-3.437470365e-07 	3.67914799e-05
0.7801431096 	0.01143023921 	0.005550967757 	1.902522051e-08 	0.0192724319 	-3.136186182e-07 	3.673861169e-05
0.7836822925 	0.01145653989 	0.005582782846 	1.426793711e-08 	0.01924250167 	-2.836276852e-07 	3.668155635e-05
0.7871824709 	0.01148199483 	0.005613556772 	1.016193752e-08 	0.01921044875 	-2.538924076e-07 	3.662045458e-05
0.7906446711 	0.01150665687 	0.005643345022 	6.69318375e-09 	0.01917623084 	-2.244617906e-07 	3.655522574e-05
0.7940688637 	0.01153051141 	0.005672150563 	3.847606326e-09 	0.01913988194 	-1.953221707e-07 	3.648593463e-05
0.7974553732 	0.01155348832 	0.00569991491 	1.613705616e-09 	0.01910154263 	-1.665652237e-07 	3.641284925e-05
0.8008046515 	0.01157559864 	0.00572664677 	-2.852637517e-11 	0.01906125147 	-1.382719772e-07 	3.63360431e-05
0.8041175789 	0.01159689138 	0.005752397682 	-1.103361785e-09 	0.019018969 	-1.104504909e-07 	3.625544097e-05
0.8073941181 	0.0116173478 	0.005777165509 	-1.633478615e-09 	0.01897474182 	-8.308804563e-08 	3.617113166e-05
0.8106346707 	0.01163692145 	0.005800916363 	-1.643029191e-09 	0.01892867755 	-5.624685715e-08 	3.608332036e-05
0.8138396595 	0.01165563172 	0.005823666752 	-1.158903632e-09 	0.01888080237 	-2.998231232e-08 	3.599205697e-05
0.8170097807 	0.01167352827 	0.005845464439 	-2.063561709e-10 	0.01883108115 	-4.299161211e-09 	3.58972745e-05
0.8175402391 	0.01167641498 	0.005848990306 	-1.196907899e-08 	0.01882236454 	-9.186945472e-07 	3.588065821e-05
0.8201450131 	0.01169060112 	0.005866312331 	-1.384842211e-09 	0.01877955598 	-2.073752492e-08 	3.579905321e-05
0.8232458362 	0.01170679801 	0.005886177527 	-3.443015635e-09 	0.01872633662 	-4.513126346e-08 	3.569760232e-05
0.8263126747 	0.01172211447 	0.005905059484 	-5.899678487e-09 	0.01867148159 	-6.885860693e-08 	3.559303338e-05
0.8293460587 	0.01173658872 	0.005922993186 	-8.725384675e-09 	0.01861498089 	-9.190699482e-08 	3.548532735e-05
0.832346269 	0.01175021792 	0.005939988796 	-1.189412063e-08 	0.01855686764 	-1.143148217e-07 	3.537454735e-05
0.8353136109 	0.01176296075 	0.005956024743 	-1.537302687e-08 	0.01849723987 	-1.360636543e-07 	3.526088023e-05
0.8382484591 	0.01177481944 	0.005971106575 	-1.912885083e-08 	0.01843615151 	-1.571333136e-07 	3.514442884e-05
0.8411512145 	0.01178584652 	0.005985274544 	-2.313071713e-08 	0.01837358848 	-1.775055583e-07 	3.502516632e-05
0.8440222961 	0.01179609131 	0.00599857055 	-2.735633322e-08 	0.01830952789 	-1.972077983e-07 	3.490304904e-05
0.8468619449 	0.01180554809 	0.006010997181 	-3.178171945e-08 	0.01824402592 	-2.162382333e-07 	3.477818407e-05
0.8496705157 	0.01181422157 	0.006022561597 	-3.638131027e-08 	0.01817713333 	-2.345732536e-07 	3.465066821e-05
0.852448358 	0.01182212987 	0.006033278324 	-4.113020041e-08 	0.01810888858 	-2.521902294e-07 	3.452057475e-05
0.8551958614 	0.01182931018 	0.006043174547 	-4.600376496e-08 	0.01803930238 	-2.690800606e-07 	3.438792409e-05
0.857913338 	0.01183576502 	0.006052260164 	-5.098026587e-08 	0.01796841918 	-2.85273471e-07 	3.425280103e-05
0.8606010833 	0.01184145438 	0.006060516855 	-5.602874051e-08 	0.01789634993 	-3.007724563e-07 	3.4115417e-05
0.8632594293 	0.01184637312 	0.00606794729 	-6.111726443e-08 	0.01782316769 	-3.155771544e-07 	3.397591131e-05
0.8658887031 	0.01185054255 	0.006074569097 	-6.62164808e-08 	0.01774891817 	-3.296856622e-07 	3.383437109e-05
0.8684892567 	0.0118540209 	0.006080420602 	-7.130248575e-08 	0.01767360244 	-3.431001949e-07 	3.369079838e-05
0.8710613826 	0.01185685544 	0.006085535659 	-7.635989107e-08 	0.01759722974 	-3.558385712e-07 	3.354521078e-05
0.8736053763 	0.01185906927 	0.006089931074 	-8.137002106e-08 	0.01751985229 	-3.678859206e-07 	3.339770785e-05
0.8761215493 	0.01186071012 	0.006093636335 	-8.631583567e-08 	0.01744149576 	-3.792214931e-07 	3.324833853e-05
0.8786102089 	0.0118618258 	0.006096679989 	-9.118041778e-08 	0.01736218959 	-3.898251544e-07 	3.309715893e-05
0.8810716699 	0.01186247113 	0.006099093182 	-9.594496996e-08 	0.01728195765 	-3.996868203e-07 	3.294421455e-05
0.883506227 	0.01186267961 	0.006100898374 	-1.005915866e-07 	0.01720084335 	-4.088267931e-07 	3.278958815e-05
0.8859141583 	0.01186245236 	0.006102100267 	-1.050932859e-07 	0.01711893976 	-4.172602739e-07 	3.263345714e-05
0.888295757 	0.01186181296 	0.006102714388 	-1.094195623e-07 	0.01703632116 	-4.250073292e-07 	3.247596314e-05