0.3985144112 	0.04142340752 	-0.007147105634 	-1.082445426e-06
0.3985144112 	0.04142340752 	-0.007147105634 	-1.082445426e-06
0.3987124635 	0.1202014688 	-0.02074684669 	-3.419302641e-06
0.3989105207 	0.2415217524 	-0.04166262137 	-6.810488925e-06
0.3991085821 	0.3634716713 	-0.06264025474 	-1.014824074e-05
0.3993066473 	0.4845002147 	-0.08343431564 	-1.339482632e-05
0.3995047155 	0.6015927221 	-0.1035221532 	-1.647183933e-05
0.3997027863 	0.7109636021 	-0.122236851 	-1.926617161e-05
0.399900859 	0.8096785618 	-0.1390764834 	-2.167329792e-05
0.4000989332 	0.8967142533 	-0.1538807229 	-2.364506656e-05
0.4002970082 	0.9726938502 	-0.1667642125 	-2.519386395e-05
0.4004950834 	1.03902359 	-0.1779702868 	-2.636578887e-05
0.4006931583 	1.097241643 	-0.1877653697 	-2.721613848e-05
0.4008912323 	1.148730346 	-0.1963895292 	-2.779683804e-05
0.4010893049 	1.19464203 	-0.2040429536 	-2.815223491e-05
0.4012873754 	1.235909735 	-0.2108877069 	-2.831878936e-05
0.4014854434 	1.273282177 	-0.2170538386 	-2.83260789e-05
0.4016835082 	1.307360413 	-0.2226457678 	-2.819804426e-05
0.4018815693 	1.338629354 	-0.2277477568 	-2.79541209e-05
0.4020796261 	1.367482999 	-0.2324282892 	-2.7610172e-05
0.4022776781 	1.39424405 	-0.236743475 	-2.717922924e-05
0.4024757247 	1.419179011 	-0.2407396693 	-2.667207265e-05
0.4026737653 	1.442509774 	-0.2444554839 	-2.609768268e-05
0.4028717994 	1.464422556 	-0.2479233361 	-2.546359322e-05
0.4030698264 	1.485074805 	-0.2511706485 	-2.477616845e-05
0.4032678458 	1.504600596 	-0.2542207836 	-2.404082098e-05
0.4034658569 	1.523114861 	-0.2570937782 	-2.326218476e-05
0.4036638593 	1.540716736 	-0.2598069222 	-2.244425301e-05
0.4038618524 	1.557492231 	-0.2623752287 	-2.159048891e-05
0.4040598357 	1.573516321 	-0.2648117904 	-2.070391515e-05
0.4042578085 	1.588855063 	-0.2671281947 	-1.978718668e-05
0.4044557703 	1.605554273 	-0.2696336312 	-1.886550052e-05
0.4047633343 	1.625389125 	-0.2725781168 	-1.732558296e-05
0.4050766481 	1.646249074 	-0.2756443203 	-1.572178404e-05
0.4053958166 	1.666336567 	-0.2785637434 	-1.403494019e-05
0.4057209459 	1.685723397 	-0.2813486716 	-1.22671291e-05
0.4060521443 	1.704473022 	-0.2840100184 	-1.042014524e-05
0.4063895215 	1.72264114 	-0.2865573412 	-8.495562282e-06
0.4067331892 	1.740276959 	-0.2889990752 	-6.494783286e-06
0.4070832607 	1.757424128 	-0.2913426833 	-4.419083337e-06
0.4074398513 	1.774121517 	-0.2935947942 	-2.269644905e-06
0.4078030778 	1.790403865 	-0.2957613152 	-4.758761128e-08
0.4078108127 	1.790736224 	-0.2958049348 	-1.707136525e-06
0.4081725207 	1.806297931 	-0.297848238 	-2.197764396e-06
0.4085488195 	1.821835953 	-0.2998595906 	-4.512391791e-06
0.4089321083 	1.837043296 	-0.3017996065 	-6.896341899e-06
0.4093225113 	1.851942807 	-0.3036721102 	-9.348603333e-06
0.4097201548 	1.866555189 	-0.3054805501 	-1.186812687e-05
0.4101251668 	1.880899237 	-0.3072280434 	-1.445380939e-05
0.4105376773 	1.894992053 	-0.3089174063 	-1.710448397e-05
0.4109578179 	1.908865049 	-0.3105530527 	-1.981907675e-05
0.4113876857 	1.922558128 	-0.312140068 	-2.261329495e-05
0.4118269536 	1.936077515 	-0.3136796089 	-2.54878072e-05
0.4122743862 	1.949408122 	-0.3151704101 	-2.843186089e-05
0.412730134 	1.962550516 	-0.3166129755 	-3.144517321e-05
0.4131943501 	1.975515065 	-0.3180089308 	-3.452759427e-05
0.4136671905 	1.98831128 	-0.3193597445 	-3.767896906e-05
0.4141488139 	2.000947883 	-0.3206667486 	-4.08991337e-05
0.4146393819 	2.013432883 	-0.3219311483 	-4.418791095e-05
0.4151390593 	2.025773633 	-0.3231540337 	-4.754510623e-05
0.4156480135 	2.037976887 	-0.3243363897 	-5.097050369e-05
0.4161664152 	2.050048849 	-0.3254791039 	-5.446386248e-05
0.4166944381 	2.061995218 	-0.3265829756 	-5.802491309e-05
0.4172322591 	2.073821227 	-0.327648722 	-6.165335385e-05
0.4177800583 	2.085531683 	-0.3286769853 	-6.534884754e-05
0.418338019 	2.097130997 	-0.3296683383 	-6.91110181e-05
0.418906328 	2.108623217 	-0.3306232898 	-7.293944748e-05
0.4194851754 	2.120012054 	-0.3315422899 	-7.683367275e-05
0.4200747546 	2.131300907 	-0.3324257338 	-8.079318336e-05
0.4206752628 	2.14249289 	-0.3332739667 	-8.481741884e-05
0.4212869005 	2.153590848 	-0.3340872868 	-8.890576669e-05
0.421909872 	2.164597378 	-0.3348659501 	-9.305756246e-05
0.4225443853 	2.175514851 	-0.3356101718 	-9.72720887e-05
0.4231906521 	2.186350562 	-0.3363204684 	-0.0001015487236
0.4238501406 	2.197125301 	-0.3369980994 	-0.0001058971774
0.4245253395 	2.207848418 	-0.3376433428 	-0.0001103338124
0.4252130261 	2.218501045 	-0.3382550233 	-0.0001148288403
0.4259134289 	2.229071026 	-0.3388322839 	-0.0001193806668
0.4266267807 	2.239559764 	-0.339375195 	-0.000123988048
0.4273533182 	2.249968513 	-0.3398837802 	-0.0001286496568
0.4280932826 	2.260298394 	-0.3403580439 	-0.0001333640886
0.4288469195 	2.27055039 	-0.3407979667 	-0.000138129858
0.4296144787 	2.28072536 	-0.341203509 	-0.0001429453979
0.430396215 	2.290824041 	-0.3415746115 	-0.0001478090577
0.4311923873 	2.300847054 	-0.3419111959 	-0.0001527191016
0.4320032595 	2.310794911 	-0.3422131661 	-0.0001576737068
0.4328291002 	2.320668015 	-0.3424804092 	-0.0001626709628
0.4336701831 	2.330466668 	-0.3427127966 	-0.0001677088697
0.4345267865 	2.340191077 	-0.342910186 	-0.0001727853375
0.435399194 	2.349843828 	-0.3430724571 	-0.0001778982127
0.4362886099 	2.359440269 	-0.3431996182 	-0.0001830521766
0.4371993628 	2.368990101 	-0.3432912205 	-0.0001882730718
0.4381268879 	2.379664978 	-0.3433597606 	-0.000193523958
0.4395501106 	2.392556602 	-0.343362351 	-0.0002014356668
0.4409884004 	2.406242643 	-0.3432976626 	-0.0002086172012
0.44244192 	2.419553013 	-0.3431566168 	-0.000200126708
0.443910834 	2.432506572 	-0.3429428078 	-0.0001916072981
0.4453953093 	2.445120745 	-0.3426593939 	-0.0001830694832
0.4468955146 	2.457411509 	-0.3423092896 	-0.0001745231469
0.448411621 	2.469408965 	-0.3418946952 	-0.0001659770689
0.449951937 	2.48114281 	-0.3414168514 	-0.0001573831066
0.4515094159 	2.492608206 	-0.3408786164 	-0.0001488084755
0.4530833577 	2.503799506 	-0.3402826163 	-0.0001402681335
0.4546739418 	2.514725806 	-0.3396309899 	-0.0001317696863
0.4562813499 	2.525396954 	-0.3389256069 	-0.0001233202024
0.4579057659 	2.535822031 	-0.3381682116 	-0.0001149263142
0.4595473762 	2.546011694 	-0.3373602361 	-0.0001065941493
0.4612079065 	2.555986459 	-0.3365020386 	-9.831897686e-05
0.4628933738 	2.565760937 	-0.3355938473 	-9.00740552e-05
0.4645966365 	2.575326484 	-0.3346382846 	-8.191743195e-05
0.4663178905 	2.584678844 	-0.3336374132 	-7.385454758e-05
0.4680573339 	2.593823768 	-0.3325924849 	-6.589009387e-05
0.4698151678 	2.602766578 	-0.3315046193 	-5.80284228e-05
0.4715915958 	2.611513132 	-0.3303747481 	-5.027354573e-05
0.4733876059 	2.620077885 	-0.3292025152 	-4.262435894e-05
0.4752105253 	2.628472822 	-0.3279873088 	-3.504888702e-05
0.477052684 	2.636689754 	-0.3267316648 	-2.760199256e-05
0.4789142958 	2.644723526 	-0.3254375688 	-2.028699889e-05
0.480795578 	2.652577608 	-0.3241059248 	-1.310669954e-05
0.4826967503 	2.660255236 	-0.3227375173 	-6.063608428e-06
0.4843826563 	2.66684394 	-0.3215043895 	1.348747227e-05
0.48461787 	2.667762906 	-0.3213321535 	-8.423479612e-07
0.4865627896 	2.675106088 	-0.3198878375 	-7.647318927e-06
0.488532044 	2.68229135 	-0.3184065537 	-1.432025077e-05
0.4905221263 	2.689312653 	-0.3168905556 	-2.083860664e-05
0.4925332712 	2.696169043 	-0.3153411848 	-2.720090927e-05
0.494565717 	2.702862751 	-0.3137591186 	-3.340592147e-05
0.4966197052 	2.709398816 	-0.3121442794 	-3.945251391e-05
0.4986993654 	2.715785203 	-0.310495615 	-4.535585574e-05
0.500805203 	2.722023071 	-0.3088136368 	-5.110686474e-05
0.5029333272 	2.728107456 	-0.307100593 	-5.668476149e-05
0.5050839924 	2.734037184 	-0.3053578674 	-6.208965053e-05
0.507257457 	2.739813994 	-0.3035860775 	-6.732171674e-05
0.5094539826 	2.745443337 	-0.3017846205 	-7.238091916e-05
0.5116800765 	2.750931524 	-0.2999523158 	-7.728779669e-05
0.5139311403 	2.756275985 	-0.2980909168 	-8.201535891e-05
0.5162060616 	2.761473589 	-0.296202497 	-8.655947052e-05
0.5185051168 	2.766525202 	-0.294287969 	-9.092161045e-05
0.5208285862 	2.771434277 	-0.2923472266 	-9.510300672e-05
0.523180392 	2.776206034 	-0.2903793143 	-9.911562969e-05
0.5255607218 	2.780841449 	-0.2883848658 	-0.000102950876
0.5279663095 	2.785338186 	-0.2863660585 	-0.000106597668
0.530397451 	2.789696398 	-0.2843242376 	-0.0001100589506
0.5328544466 	2.793919286 	-0.2822594028 	-0.0001133371068
0.5353409917 	2.798011437 	-0.2801707508 	-0.0001164427715
0.5378573206 	2.801974215 	-0.2780589717 	-0.0001193685297
0.5404003993 	2.805806499 	-0.2759262093 	-0.0001221069566
0.5429705454 	2.809509128 	-0.273773831 	-0.0001246623944
0.5455680808 	2.813085776 	-0.2716016231 	-0.0001270384052
0.5481981886 	2.816540692 	-0.2694089001 	-0.0001292472015
0.5508576999 	2.819874296 	-0.2671972778 	-0.0001312761214
0.5535455538 	2.823086809 	-0.2649688097 	-0.0001331288381
0.556262091 	2.826180754 	-0.2627243572 	-0.0001313836784
0.5590093701 	2.829160354 	-0.2604637841 	-0.0001264755646
0.5617900605 	2.832029344 	-0.2581878626 	-0.0001217620864
0.5646004358 	2.834790168 	-0.2558995961 	-0.0001172739049
0.5674408566 	2.83744744 	-0.2536020093 	-0.0001130273713
0.5703118841 	2.840006847 	-0.2512961274 	-0.0001089943796
0.5732187732 	2.842470365 	-0.2489815517 	-0.0001050993207
0.5761567623 	2.84483352 	-0.2466588422 	-0.0001013082462
0.5791262329 	2.847089718 	-0.2443273106 	-9.760954141e-05
0.5821275725 	2.849233406 	-0.2419843916 	-9.402366013e-05
0.5851658635 	2.851261345 	-0.2396279265 	-9.056912231e-05
0.5882368608 	2.853169996 	-0.2372585224 	-8.726940145e-05
0.591340855 	2.854956712 	-0.234876732 	-8.412457272e-05
0.5944786826 	2.856619951 	-0.2324817858 	-8.112832606e-05
0.5976542396 	2.858157721 	-0.2300728168 	-7.827781675e-05
0.6008639663 	2.859566341 	-0.2276506312 	-7.558041615e-05
0.6041082905 	2.860842413 	-0.22521551 	-7.303018003e-05
0.6073891503 	2.861982927 	-0.2227666257 	-7.061923363e-05
0.6107078431 	2.862984376 	-0.2203036447 	-6.835012218e-05
0.6140623721 	2.863843033 	-0.2178272196 	-6.622261972e-05
0.6174531904 	2.864556143 	-0.2153372625 	-6.422959706e-05
0.620883615 	2.865121871 	-0.2128331369 	-6.236460817e-05
0.6243517981 	2.865538848 	-0.2103154273 	-6.063238234e-05
0.6278575798 	2.865807008 	-0.2077847322 	-5.902640976e-05
0.6314026713 	2.865927478 	-0.2052409429 	-5.753846341e-05
0.6349881336 	2.865902118 	-0.2026842655 	-5.617015609e-05
0.6386125585 	2.865733417 	-0.2001155909 	-5.491821829e-05
0.642276724 	2.865424329 	-0.1975351926 	-5.377430562e-05
0.6459832748 	2.86497786 	-0.1949430295 	-5.273599934e-05
0.64973021 	2.864396963 	-0.1923399842 	-5.180301959e-05
0.6535180509 	2.863684402 	-0.1897264307 	-5.096701499e-05
0.6573495086 	2.862842491 	-0.1871022419 	-5.022321823e-05
0.6612230164 	2.861873298 	-0.1844680644 	-4.95724394e-05
0.665138934 	2.860778506 	-0.1818242161 	-4.900624806e-05
0.6690995676 	2.859559238 	-0.1791705794 	-4.851936356e-05
0.6731039138 	2.858216414 	-0.1765075822 	-4.811218392e-05
0.6771522377 	2.856750553 	-0.1738354237 	-4.777623318e-05
0.681246681 	2.855161636 	-0.1711539678 	-4.750662062e-05
0.6853863423 	2.853449534 	-0.1684635243 	-4.730280384e-05
0.6895716523 	2.851613703 	-0.165764178 	-4.715601485e-05
0.6938046212 	2.849653096 	-0.1630557555 	-4.706281794e-05
0.6980842929 	2.847572498 	-0.1603455052 	-4.702327841e-05
0.7023638346 	2.845389988 	-0.1576562871 	-4.702597519e-05
0.7065967077 	2.843126597 	-0.1550100558 	-4.70650976e-05
0.7107825189 	2.840792686 	-0.1524125351 	-4.713623803e-05
0.71492229 	2.838392198 	-0.1498623894 	-4.723062142e-05
0.7190167156 	2.835928671 	-0.1473582796 	-4.734661362e-05
0.7230657653 	2.833405414 	-0.1448990076 	-4.747811881e-05
0.7270703972 	2.830825316 	-0.1424833497 	-4.761892663e-05
0.7310311116 	2.828191039 	-0.1401101191 	-4.776856276e-05
0.7349480478 	2.825505085 	-0.1377782283 	-4.792220987e-05
0.7388220362 	2.822769638 	-0.1354865819 	-4.807529938e-05
0.7426535726 	2.819986739 	-0.1332341148 	-4.822804466e-05
0.7464428493 	2.81715834 	-0.1310198546 	-4.83770043e-05
0.7501905479 	2.81428615 	-0.1288428334 	-4.851862239e-05
0.7538972527 	2.811371766 	-0.1267020905 	-4.865344639e-05
0.7575631456 	2.808416768 	-0.124596765 	-4.727455463e-05
0.7611887622 	2.805422553 	-0.122526007 	-4.516726483e-05
0.7647748095 	2.802390404 	-0.1204889517 	-4.312010904e-05
0.7683214281 	2.799321655 	-0.1184848385 	-4.113213617e-05
0.7718290835 	2.796217526 	-0.116512925 	-3.920388087e-05
0.7752984274 	2.793079123 	-0.1145724595 	-3.733450154e-05
0.7787297262 	2.789907608 	-0.1126627528 	-3.552172644e-05
0.7821233653 	2.786704112 	-0.1107831544 	-3.376558473e-05
0.7854798396 	2.783469685 	-0.1089330274 	-3.206588808e-05
0.788799627 	2.780205381 	-0.107111746 	-3.042036148e-05
0.7920830061 	2.776912309 	-0.1053187365 	-2.88282187e-05
0.795330395 	2.773591591 	-0.1035534674 	-2.728932264e-05
0.7985422953 	2.770244342 	-0.101815477 	-2.580288374e-05
0.8017190362 	2.766871468 	-0.1001042047 	-2.436762262e-05
0.8048609729 	2.76347441 	-0.09841850253 	-2.298243267e-05
0.8079685004 	2.760055357 	-0.09675949292 	-2.16447392e-05
0.811042089 	2.756609204 	-0.09512720186 	-2.035489652e-05
0.8140820236 	2.753122357 	-0.09351796699 	-1.911059012e-05
0.8170886756 	2.749585745 	-0.09193169623 	-1.790814222e-05
0.820062419 	2.745996091 	-0.09036919415 	-1.674817562e-05
0.8230036812 	2.742349873 	-0.08882925263 	-1.562991639e-05
0.8259127482 	2.738643574 	-0.08731131613 	-1.455129222e-05
0.8287899789 	2.73487403 	-0.08581489658 	-1.351170528e-05
0.8316357286 	2.731038158 	-0.08433949502 	-1.251050556e-05
0.8344503826 	2.727132971 	-0.08288461789 	-1.154655387e-05
0.8372342416 	2.723155593 	-0.08144978667 	-1.061845491e-05
0.8399876419 	2.719103207 	-0.08003453636 	-9.72556882e-06
0.8427109212 	2.714973041 	-0.07863841195 	-8.867246621e-06
0.8454044284 	2.710762377 	-0.07726096907 	-8.042670983e-06
0.8480684794 	2.706468567 	-0.0759017736 	-7.250471991e-06
0.850703385 	2.702089019 	-0.07456040336 	-6.489930136e-06
0.8533094671 	2.697621173 	-0.07323645104 	-5.760409447e-06
0.8558870443 	2.693062509 	-0.07192951718 	-5.06126579e-06
0.8584364432 	2.688410559 	-0.07063921328 	-4.391458913e-06
0.8609579507 	2.683662917 	-0.06936516132 	-3.750033098e-06
0.8634518736 	2.678817213 	-0.06810699647 	-3.136380575e-06
0.865918515 	2.673871108 	-0.06686436297 	-2.549891621e-06
0.8683581774 	2.668822307 	-0.06563691691 	-1.989935424e-06
0.8707711573 	2.663668565 	-0.06442432327 	-1.455524514e-06
0.8731577363 	2.658407682 	-0.06322625551 	-9.459382496e-07
0.8755182041 	2.653037488 	-0.0620424008 	-4.606074825e-07
0.8778475053 	2.647568385 	-0.06087513049 	1.340880408e-07
0.8778528463 	2.647555843 	-0.06087245271 	-1.003591378e-09
0.8801617703 	2.64196015 	-0.05971580911 	-4.265303268e-07
0.8824454411 	2.636248847 	-0.05857250712 	-8.303243638e-07
0.8847041277 	2.630419896 	-0.05744226774 	-1.213016813e-06
0.8869381035 	2.62447128 	-0.05632482422 	-1.575118243e-06
0.8891476383 	2.618400998 	-0.05521991707 	-1.917133854e-06
0.8913329993 	2.612207062 	-0.05412729571 	-2.239563177e-06
0.8934944521 	2.605887502 	-0.05304671913 	-2.543016181e-06
0.8956322522 	2.599440357 	-0.05197795168 	-2.828128764e-06
0.8977466575 	2.59286366 	-0.05092076632 	-3.095363751e-06
0.8998379232 	2.586155435 	-0.04987494518 	-3.345176763e-06
0.9019063017 	2.57931369 	-0.04884027561 	-3.578016825e-06
0.9039520431 	2.57233641 	-0.04781655468 	-3.794332947e-06
0.9059753932 	2.565221555 	-0.04680358508 	-3.994691663e-06
0.9079765939 	2.557967044 	-0.04580117408 	-4.179564356e-06
0.9099558866 	2.550570744 	-0.04480913763 	-4.349360463e-06
0.9119135102 	2.543030455 	-0.04382729741 	-4.504483048e-06
0.9138497008 	2.535343907 	-0.04285547989 	-4.645328646e-06
0.9157646922 	2.527508741 	-0.04189351924 	-4.772290672e-06
0.9176587147 	2.519522503 	-0.04094125431 	-4.885836811e-06
0.9195319953 	2.511382623 	-0.03999852714 	-4.986376756e-06
0.9213847601 	2.503086395 	-0.03906518658 	-5.074273179e-06
0.9232172326 	2.494630963 	-0.03814108616 	-5.149883009e-06
0.9250296339 	2.486013297 	-0.0372260833 	-5.213557427e-06
0.9268221827 	2.477230179 	-0.03632003997 	-5.265642132e-06
0.9285950953 	2.468278175 	-0.0354228238 	-5.30649914e-06
0.9303485844 	2.459153614 	-0.03453430455 	-5.33651595e-06
0.9320828617 	2.449852549 	-0.03365435533 	-5.356019369e-06
0.9337981364 	2.440370731 	-0.03278285461 	-5.36532892e-06
0.9354946155 	2.430703577 	-0.03191968352 	-5.364759567e-06
0.9371725039 	2.420846126 	-0.03106472641 	-5.354622021e-06
0.9388320042 	2.410793001 	-0.03021787097 	-5.335223057e-06
0.9404733165 	2.400538359 	-0.02937900918 	-5.306879124e-06
0.9420966385 	2.390075845 	-0.02854803451 	-5.269919471e-06
0.9437021662 	2.379398523 	-0.02772484303 	-5.224637851e-06
0.9452900935 	2.368498817 	-0.02690933496 	-5.171324021e-06
0.9468606123 	2.35736844 	-0.02610141272 	-5.110265037e-06
0.9484139124 	2.345998313 	-0.02530098153 	-5.04174567e-06
0.9499501814 	2.334378479 	-0.02450794906 	-4.966048602e-06
0.9514696049 	2.322498003 	-0.02372222668 	-4.883455635e-06
0.9529723665 	2.310344866 	-0.0229437284 	-4.794262225e-06
0.9544586475 	2.297905845 	-0.02217236918 	-4.698752356e-06
0.9559286278 	2.285166358 	-0.02140807473 	-4.597199303e-06
0.957382485 	2.272110518 	-0.02065078649 	-4.489877081e-06
0.9588203951 	2.259866273 	-0.01996350417 	-4.39337733e-06
0.9597571038 	2.249729616 	-0.01941103034 	-4.300219835e-06
0.9606765719 	2.240681365 	-0.01892981385 	-4.222016259e-06
0.9615791158 	2.231581307 	-0.01845693956 	-4.142714007e-06
0.9624650466 	2.222430055 	-0.01799228048 	-4.062464092e-06
0.9633346692 	2.213228245 	-0.01753572198 	-3.981412108e-06
0.9641882832 	2.203976427 	-0.01708715515 	-3.899699702e-06
0.9650261827 	2.194675065 	-0.0166464723 	-3.817460059e-06
0.9658486563 	2.18532452 	-0.01621356767 	-3.734819278e-06
0.9666559876 	2.175925045 	-0.01578833716 	-3.651897719e-06
0.9674484547 	2.166476773 	-0.01537067833 	-3.568810087e-06
0.9682263307 	2.156979718 	-0.01496049029 	-3.485665556e-06
0.9689898839 	2.147433761 	-0.01455767365 	-3.402567897e-06
0.9697393775 	2.13783865 	-0.01416213045 	-3.319615607e-06
0.9704750697 	2.128193995 	-0.01377376412 	-3.236902052e-06
0.9711972145 	2.118499259 	-0.01339247939 	-3.154515599e-06
0.9719060607 	2.108753755 	-0.01301818229 	-3.072539756e-06
0.9726018528 	2.09895664 	-0.01265078008 	-2.991053308e-06
0.9732848309 	2.089106908 	-0.0122901812 	-2.910130456e-06
0.9739552305 	2.079203377 	-0.01193629524 	-2.829840943e-06
0.9746132828 	2.069244689 	-0.01158903288 	-2.75025018e-06
0.9752592151 	2.059229292 	-0.01124830592 	-2.671419438e-06
0.97589325 	2.049155432 	-0.01091402719 	-2.593406486e-06
0.9765156064 	2.03902114 	-0.0105861104 	-2.516264679e-06
0.9771264991 	2.028824216 	-0.0102644703 	-2.440043302e-06
0.9777261389 	2.018562215 	-0.009949022559 	-2.364787943e-06
0.9783147328 	2.008232428 	-0.009639683724 	-2.2905406e-06
0.978892484 	1.997831862 	-0.009336371209 	-2.217339808e-06
0.9794595919 	1.987357221 	-0.009039003265 	-2.145220749e-06
0.9800162523 	1.976804879 	-0.008747498963 	-2.07421537e-06
0.9805626574 	1.966170855 	-0.008461778175 	-2.004352496e-06
0.981098996 	1.955450784 	-0.008181761559 	-1.93565795e-06
0.9816254531 	1.944639887 	-0.007907370553 	-1.868154663e-06
0.9821422107 	1.933732933 	-0.007638527364 	-1.801862797e-06
0.9826494471 	1.922724201 	-0.007375154969 	-1.73679986e-06
0.9831473377 	1.911607438 	-0.007117177117 	-1.662281263e-06
0.9836360544 	1.90037581 	-0.006864518333 	-1.585100921e-06
0.984115766 	1.889021853 	-0.006617103929 	-1.510719366e-06
0.9845866383 	1.877537406 	-0.006374860021 	-1.439049648e-06
0.9850488339 	1.865913553 	-0.006137713542 	-1.370007213e-06
0.9855025126 	1.854140546 	-0.005905592268 	-1.303509886e-06
0.985947831 	1.84220772 	-0.005678424842 	-1.239477883e-06
0.9863849432 	1.830103405 	-0.005456140804 	-1.177833823e-06
0.9868140001 	1.817814812 	-0.005238670616 	-1.118502658e-06
0.9872351501 	1.80532792 	-0.005025945733 	-1.061411796e-06
0.9876485387 	1.792627335 	-0.00481789862 	-1.006490975e-06
0.9880543088 	1.779696134 	-0.004614462802 	-9.53671775e-07
0.9884526006 	1.766515684 	-0.004415572952 	-9.028873101e-07
0.9888435519 	1.753065431 	-0.004221164918 	-8.540723624e-07
0.9892272978 	1.739322658 	-0.004031175781 	-8.071634849e-07
0.9896039709 	1.725262206 	-0.003845543919 	-7.620989726e-07
0.9899737016 	1.710856139 	-0.003664209064 	-7.188188651e-07
0.9903366176 	1.696073357 	-0.003487112393 	-6.772649299e-07
0.9906928445 	1.680879135 	-0.003314196517 	-6.373806374e-07
0.9910425054 	1.665234578 	-0.003145405867 	-5.991111309e-07
0.9913857212 	1.649095968 	-0.002980685699 	-5.624031739e-07
0.9917226107 	1.632413974 	-0.0028199861 	-5.27205082e-07
0.9920532903 	1.615132722 	-0.002663248501 	-4.934664672e-07
0.9923778745 	1.597188515 	-0.002510450109 	-4.61137888e-07
0.9926964754 	1.578509343 	-0.002361473964 	-4.301739222e-07
0.9930092033 	1.560706247 	-0.002228516398 	-4.028946998e-07
0.9932104764 	1.545673798 	-0.002122883246 	-3.81721596e-07
0.9934117513 	1.5318377 	-0.002030600997 	-3.63351995e-07
0.9936130281 	1.517349935 	-0.001938801053 	-3.452906068e-07
0.9938143068 	1.502144491 	-0.001847539789 	-3.275352385e-07
0.9940155875 	1.48614637 	-0.001756827902 	-3.1008517e-07
0.99421687 	1.46926941 	-0.001666692892 	-2.929397145e-07
0.9944181544 	1.451414186 	-0.001577159575 	-2.760980144e-07
0.9946194408 	1.432465322 	-0.001488256813 	-2.595591874e-07
0.994820729 	1.412288119 	-0.001400016059 	-2.433222674e-07
0.9950220192 	1.390724301 	-0.001312472402 	-2.273861388e-07
0.9952233112 	1.367586593 	-0.001225665136 	-2.117494379e-07
0.9954246052 	1.342651763 	-0.001139638746 	-1.96410445e-07
0.995625901 	1.315651631 	-0.001054444137 	-1.813669663e-07
0.9958271988 	1.286261369 	-0.0009701402863 	-1.66616236e-07
0.9960284984 	1.254084237 	-0.0008867963202 	-1.521549064e-07
0.9962298 	1.218631678 	-0.0008044937999 	-1.379792539e-07
0.9964311034 	1.179297595 	-0.000723328634 	-1.240857104e-07
0.9966324088 	1.135325996 	-0.0006434139736 	-1.104714718e-07
0.9968337161 	1.08577288 	-0.0005648931835 	-9.713500251e-08
0.9970350252 	1.029468786 	-0.0004879568795 	-8.408226195e-08
0.9972363363 	0.9650039628 	-0.0004126845164 	-7.135742588e-08
0.9974376493 	0.8907966296 	-0.0003382535873 	-5.905201095e-08
0.9976389642 	0.8053756104 	-0.0002629969387 	-4.704356879e-08
0.9978402809 	0.7080374989 	-0.0001910463649 	-3.509461944e-08
0.9980415996 	0.5997428125 	-0.0001355662888 	-2.415752948e-08
0.9982429202 	0.4834244701 	-9.849342559e-05 	-1.56038082e-08
0.9984442427 	0.362924368 	-6.43762331e-05 	-9.038490628e-09
0.9986455671 	0.2413149318 	-2.974301503e-05 	-3.885794198e-09
0.9988468934 	0.120170434 	-1.148206381e-05 	-2.392148219e-09
0.9990482216 	0.05008169877 	-7.725162704e-06 	-2.570347777e-09
0.9990482216 	0.05008169877 	-7.725162704e-06 	-2.570347777e-09
