0.4709558481 	7.019482031e-06 	-1.018763286e-07 	-4.650544014e-14 	7.006123411e-06 	1.834138774e-12 	1.335561847e-08
0.4709558481 	7.019482031e-06 	-1.018763286e-07 	-4.650544014e-14 	7.006123411e-06 	1.834138775e-12 	1.335561847e-08
0.4711314108 	7.886187123e-05 	-4.449781717e-06 	-1.96132342e-12 	7.871061439e-05 	2.062980557e-11 	1.500443075e-07
0.4713069734 	0.0004399957284 	-5.668442804e-05 	-2.382093735e-11 	0.0004390143335 	1.151318964e-10 	8.368833373e-07
0.471482536 	0.001461302646 	-0.000330052196 	-1.285677892e-10 	0.001454130061 	3.77540895e-10 	2.771976051e-06
0.4716580986 	0.003552801009 	-0.001165205623 	-4.045730184e-10 	0.00349992833 	8.740312475e-10 	6.671836151e-06
0.4718336613 	0.006943529978 	-0.002858178234 	-8.513171485e-10 	0.006706735382 	1.550856027e-09 	1.278490168e-05
0.4720092239 	0.01142740394 	-0.005333004054 	-1.329662269e-09 	0.01077840366 	2.245298125e-09 	2.054663307e-05
0.4721847865 	0.01639298219 	-0.00815304774 	-1.698466417e-09 	0.01515651815 	2.824074349e-09 	2.889253613e-05
0.4723603491 	0.02120344953 	-0.01086838495 	-1.929913765e-09 	0.01935629675 	3.255103465e-09 	3.689848141e-05
0.4725359118 	0.02549233654 	-0.01324364941 	-2.066865216e-09 	0.02311760799 	3.565905901e-09 	4.406858604e-05
0.4727114744 	0.02915652483 	-0.01523011762 	-2.152150276e-09 	0.02636375666 	3.7953057e-09 	5.025664762e-05
0.472887037 	0.03223090446 	-0.01686469995 	-2.210346259e-09 	0.02911644421 	3.975004012e-09 	5.550403516e-05
0.4730625996 	0.0347972797 	-0.01820673897 	-2.254448985e-09 	0.0314356538 	4.127465292e-09 	5.992509322e-05
0.4732381623 	0.03694253566 	-0.0193131486 	-2.292313109e-09 	0.03338905826 	4.267958659e-09 	6.364882506e-05
0.4734137249 	0.03874383357 	-0.02023154317 	-2.329271884e-09 	0.03503931269 	4.406598831e-09 	6.679466866e-05
0.4735892875 	0.0402652106 	-0.02099981214 	-2.36892172e-09 	0.03644000802 	4.549878874e-09 	6.946478326e-05
0.4737648501 	0.04155832455 	-0.02164755995 	-2.413448521e-09 	0.0376353455 	4.701805205e-09 	7.174342873e-05
0.4739404128 	0.04266439284 	-0.02219781886 	-2.463943966e-09 	0.03866118748 	4.864730982e-09 	7.369896866e-05
0.4741159754 	0.04361622687 	-0.02266855198 	-2.520749443e-09 	0.03954645375 	5.039949167e-09 	7.538653221e-05
0.474291538 	0.04444000538 	-0.02307385036 	-2.583768468e-09 	0.04031445513 	5.228096059e-09 	7.685055629e-05
0.4744671006 	0.04515671382 	-0.02342485006 	-2.652702937e-09 	0.04098403252 	5.429412323e-09 	7.81269569e-05
0.4746426632 	0.0457832757 	-0.02373042362 	-2.727206463e-09 	0.04157048264 	5.643903873e-09 	7.924489383e-05
0.4748182259 	0.04633342942 	-0.02399769933 	-2.806967849e-09 	0.04208629277 	5.871437032e-09 	8.02281713e-05
0.4749937885 	0.04681840439 	-0.02423245167 	-2.891744521e-09 	0.04254171729 	6.111792978e-09 	8.109633702e-05
0.4751693511 	0.04724744233 	-0.02443939662 	-2.981366668e-09 	0.04294522902 	6.364699325e-09 	8.186554253e-05
0.4753449137 	0.04762820002 	-0.02462241431 	-3.075723437e-09 	0.04330386949 	6.629845018e-09 	8.254921093e-05
0.4755204764 	0.04796706633 	-0.02478472982 	-3.174752941e-09 	0.04362353209 	6.906897032e-09 	8.31585767e-05
0.475696039 	0.04826937501 	-0.02492898702 	-3.278376585e-09 	0.04390915321 	7.195466094e-09 	8.370304993e-05
0.4758716016 	0.04853985303 	-0.02505777047 	-3.386769243e-09 	0.04416498483 	7.49526703e-09 	8.419073611e-05
0.4760471642 	0.04878061548 	-0.02517045337 	-3.498339431e-09 	0.04439448492 	7.805936228e-09 	8.462822706e-05
0.4762227269 	0.04903182149 	-0.02529438293 	-3.640196048e-09 	0.04462806656 	8.173016351e-09 	8.50734986e-05
0.4764955107 	0.0493039629 	-0.02542660545 	-3.838452505e-09 	0.04488289362 	8.650389243e-09 	8.55592698e-05
0.4767734216 	0.0495556708 	-0.02554195924 	-4.074847186e-09 	0.04512494831 	9.203395031e-09 	8.602069332e-05
0.4770565557 	0.04977458598 	-0.02564399426 	-4.331481336e-09 	0.04533387785 	9.788621791e-09 	8.641897107e-05
0.4773450114 	0.04996218137 	-0.02573068565 	-4.60623766e-09 	0.04551348196 	1.040500811e-08 	8.676134643e-05
0.4776388886 	0.05012240581 	-0.02580434829 	-4.899453335e-09 	0.04566722713 	1.105181507e-08 	8.705442745e-05
0.4779382892 	0.05025824753 	-0.02586636624 	-5.211141765e-09 	0.04579793196 	1.17283098e-08 	8.730358719e-05
0.4782433171 	0.05037229916 	-0.02591800383 	-5.541504447e-09 	0.04590803624 	1.243397071e-08 	8.751347655e-05
0.4785540779 	0.05046677127 	-0.02596032478 	-5.890985566e-09 	0.04599961763 	1.316826724e-08 	8.768805613e-05
0.4788706795 	0.0505435638 	-0.02599424434 	-6.259998973e-09 	0.04607446557 	1.393053359e-08 	8.783073712e-05
0.4791932316 	0.0506043155 	-0.02602055021 	-6.648345086e-09 	0.04613412337 	1.471987427e-08 	8.794446146e-05
0.4795218461 	0.05065044529 	-0.02603992388 	-7.055007905e-09 	0.04617992798 	1.553499103e-08 	8.803177778e-05
0.4798566368 	0.05068318602 	-0.02605295704 	-7.478234592e-09 	0.04621304109 	1.637476646e-08 	8.809490056e-05
0.48019772 	0.05070361229 	-0.02606016511 	-7.916231122e-09 	0.04623447485 	1.724201881e-08 	8.813575927e-05
0.4805452138 	0.05071266292 	-0.02606199812 	-8.371331184e-09 	0.04624511421 	1.813515972e-08 	8.815604084e-05
0.4808992388 	0.05071115992 	-0.02605884962 	-8.85379825e-09 	0.04624573487 	1.904858241e-08 	8.815722401e-05
0.4812599177 	0.0506998255 	-0.02605106531 	-9.373402292e-09 	0.04623701708 	1.99871383e-08 	8.814060547e-05
0.4816273755 	0.0506792958 	-0.02603895036 	-9.930162138e-09 	0.04621955931 	2.095455434e-08 	8.810732612e-05
0.4820017397 	0.05065013182 	-0.02602277444 	-1.051999388e-08 	0.04619388947 	2.194967093e-08 	8.805839226e-05
0.48238314 	0.05061282893 	-0.02600277577 	-1.113942632e-08 	0.0461604731 	2.296831744e-08 	8.799469137e-05
0.4827717088 	0.05056782494 	-0.02597916498 	-1.178228666e-08 	0.04611972151 	2.400986319e-08 	8.791700751e-05
0.4831675807 	0.05051550701 	-0.02595212833 	-1.24362365e-08 	0.04607199846 	2.508151801e-08 	8.782603412e-05
0.4835708931 	0.05045621791 	-0.02592183068 	-1.30879588e-08 	0.04601762547 	2.618035599e-08 	8.772238408e-05
0.4839817856 	0.05039026125 	-0.02588841807 	-1.373409084e-08 	0.04595688686 	2.730461619e-08 	8.760659942e-05
0.4844004009 	0.05031790573 	-0.02585201985 	-1.437910781e-08 	0.04589003454 	2.845722001e-08 	8.747916031e-05
0.4848268841 	0.05023938912 	-0.02581275048 	-1.502891277e-08 	0.04581729146 	2.963722516e-08 	8.734049178e-05
0.485261383 	0.05015492213 	-0.02577071152 	-1.568577834e-08 	0.04573885403 	3.085051139e-08 	8.719096823e-05
0.4857040484 	0.05006469138 	-0.02572599339 	-1.634392246e-08 	0.04565489563 	3.210136576e-08 	8.70309202e-05
0.4861550336 	0.04996886114 	-0.02567867562 	-1.69983006e-08 	0.04556556974 	3.338520799e-08 	8.686064023e-05
0.4866144951 	0.04986757543 	-0.02562882727 	-1.765076798e-08 	0.04547101099 	3.469855373e-08 	8.668038497e-05
0.4870825921 	0.04976096027 	-0.02557650826 	-1.830654297e-08 	0.04537133721 	3.604601024e-08 	8.649037903e-05
0.487559487 	0.04964912563 	-0.02552177059 	-1.897335703e-08 	0.04526665136 	3.742970458e-08 	8.62908187e-05
0.4880453452 	0.04953216717 	-0.02546465927 	-1.966407583e-08 	0.04515704279 	3.884246136e-08 	8.60818743e-05
0.4885403351 	0.04941016748 	-0.025405213 	-2.039454884e-08 	0.04504258892 	4.028513468e-08 	8.586369343e-05
0.4890446283 	0.04928319729 	-0.02534346458 	-2.117404487e-08 	0.04492335632 	4.176153241e-08 	8.563640295e-05
0.4895583997 	0.04915131662 	-0.02527944141 	-2.200386289e-08 	0.04479940146 	4.32691144e-08 	8.540011053e-05
0.4900818274 	0.04901457579 	-0.02521316606 	-2.288172316e-08 	0.04467077182 	4.480580085e-08 	8.515490668e-05
0.4906150929 	0.04887301629 	-0.02514465664 	-2.380319947e-08 	0.04453750671 	4.637016099e-08 	8.490086636e-05
0.4911583811 	0.04872667161 	-0.02507392728 	-2.476328786e-08 	0.04439963805 	4.796147348e-08 	8.463805036e-05
0.4917118805 	0.04857556796 	-0.02500098839 	-2.575735794e-08 	0.04425719098 	4.957951849e-08 	8.436650665e-05
0.4922757829 	0.04841972493 	-0.02492584698 	-2.678154812e-08 	0.04411018454 	5.122440162e-08 	8.408627152e-05
0.4928502838 	0.04825915606 	-0.02484850693 	-2.783281358e-08 	0.04395863222 	5.289641493e-08 	8.379737069e-05
0.4934355824 	0.04809386939 	-0.02476896924 	-2.890883581e-08 	0.0438025425 	5.459596104e-08 	8.34998203e-05
0.4940318817 	0.047923868 	-0.0246872322 	-3.000780064e-08 	0.04364191933 	5.63234849e-08 	8.319362789e-05
0.4946393885 	0.04774915041 	-0.02460329162 	-3.112835581e-08 	0.04347676259 	5.807944537e-08 	8.287879324e-05
0.4952583133 	0.04756971107 	-0.02451714098 	-3.226957353e-08 	0.04330706856 	5.986430639e-08 	8.255530925e-05
0.4958888709 	0.04738554073 	-0.02442877157 	-3.343083106e-08 	0.04313283031 	6.167853761e-08 	8.222316273e-05
0.4965312797 	0.04719662684 	-0.02433817267 	-3.461174998e-08 	0.04295403816 	6.35226185e-08 	8.188233518e-05
0.4971857627 	0.04700295394 	-0.02424533161 	-3.581215848e-08 	0.04277067999 	6.539704426e-08 	8.153280357e-05
0.4978525466 	0.04680450399 	-0.0241502339 	-3.703206659e-08 	0.04258274174 	6.730233517e-08 	8.117454101e-05
0.4985318627 	0.04660125672 	-0.02405286332 	-3.827165226e-08 	0.04239020768 	6.923903844e-08 	8.080751759e-05
0.4992239466 	0.04639318994 	-0.02395320198 	-3.953124968e-08 	0.04219306088 	7.120772226e-08 	8.0431701e-05
0.4999290382 	0.0461802799 	-0.02385123039 	-4.081134319e-08 	0.04199128354 	7.320897698e-08 	8.00470573e-05
0.5006473819 	0.04596250152 	-0.02374692745 	-4.211256942e-08 	0.04178485732 	7.524341748e-08 	7.965355156e-05
0.501379227 	0.04573982876 	-0.02364027067 	-4.343571727e-08 	0.04157376393 	7.731168284e-08 	7.925114888e-05
0.502124827 	0.04551223473 	-0.02353123551 	-4.478165423e-08 	0.04135798472 	7.941442253e-08 	7.883981373e-05
0.5028844406 	0.04527969353 	-0.02341979889 	-4.615144796e-08 	0.0411375032 	8.155230067e-08 	7.841951467e-05
0.5036583311 	0.04504216961 	-0.02330591942 	-4.754638648e-08 	0.04091229731 	8.372597842e-08 	7.799020965e-05
0.5044467669 	0.0447996945 	-0.02318966161 	-4.896853098e-08 	0.04068236856 	8.593648998e-08 	7.755190156e-05
0.5052500214 	0.04455179726 	-0.02307034984 	-5.041614891e-08 	0.0404476828 	8.818483648e-08 	7.710452527e-05
0.506068373 	0.0442684488 	-0.02293595774 	-5.209574028e-08 	0.04017749092 	9.076602723e-08 	7.658946445e-05
0.507324668 	0.04391403216 	-0.02276683582 	-5.420800311e-08 	0.03984037367 	9.397160165e-08 	7.594682527e-05
0.5085949819 	0.04351979135 	-0.02257613027 	-5.65560452e-08 	0.03946769254 	9.749491756e-08 	7.523639145e-05
0.5098794711 	0.04312127895 	-0.0223836666 	-5.895286783e-08 	0.03909054947 	1.010411432e-07 	7.451745194e-05
0.5111782938 	0.04271785497 	-0.02218839913 	-6.139657638e-08 	0.03870901009 	1.04609613e-07 	7.379013184e-05
0.5124916099 	0.04230971782 	-0.02199051267 	-6.389194401e-08 	0.03832320197 	1.081992931e-07 	7.305467434e-05
0.5138195812 	0.04189694285 	-0.02179000004 	-6.644224275e-08 	0.03793321882 	1.118081617e-07 	7.231125806e-05
0.5151623712 	0.04147961874 	-0.0215868775 	-6.905046837e-08 	0.03753916839 	1.154336173e-07 	7.156008842e-05
0.5165201452 	0.04105782973 	-0.0213811501 	-7.171905997e-08 	0.0371411588 	1.19072488e-07 	7.080137153e-05
0.5178930705 	0.04063166019 	-0.02117281902 	-7.444992247e-08 	0.03673930439 	1.227210647e-07 	7.003532532e-05
0.5192813161 	0.04020119555 	-0.02096188084 	-7.72443978e-08 	0.03633372572 	1.263751014e-07 	6.926217966e-05
0.520685053 	0.0397665236 	-0.02074832846 	-8.010325434e-08 	0.03592455139 	1.300298264e-07 	6.848217967e-05
0.522104454 	0.03932773556 	-0.02053215149 	-8.302667535e-08 	0.03551191913 	1.33679947e-07 	6.76955879e-05
0.523539694 	0.03888492715 	-0.02031333671 	-8.601424953e-08 	0.035095977 	1.373196527e-07 	6.690268658e-05
0.5249909497 	0.03843819953 	-0.02009186848 	-8.906496152e-08 	0.03467688444 	1.409426165e-07 	6.610377968e-05
0.5264583998 	0.03798766018 	-0.01986772913 	-9.217718244e-08 	0.03425481335 	1.445419967e-07 	6.529919489e-05
0.527942225 	0.03753342382 	-0.01964089933 	-9.534866012e-08 	0.03382994902 	1.481104381e-07 	6.448928538e-05
0.5294426081 	0.03707561321 	-0.01941135844 	-9.85765099e-08 	0.03340249101 	1.516400762e-07 	6.367443161e-05
0.5309597337 	0.03661435997 	-0.01917908488 	-1.018572061e-07 	0.03297265401 	1.551225423e-07 	6.285504281e-05
0.5324937889 	0.03614980535 	-0.01894405644 	-1.051865756e-07 	0.03254066858 	1.585489733e-07 	6.203155853e-05
0.5340449624 	0.03568210103 	-0.01870625066 	-1.08559793e-07 	0.0321067819 	1.619100234e-07 	6.120444992e-05
0.5356134452 	0.03521140989 	-0.01846564512 	-1.119713802e-07 	0.03167125831 	1.651958812e-07 	6.037422092e-05
0.5371994306 	0.03473790676 	-0.01822221777 	-1.154152092e-07 	0.03123437993 	1.683962908e-07 	5.954140929e-05
0.5388031139 	0.03426177922 	-0.01797594728 	-1.18884509e-07 	0.03079644701 	1.71500578e-07 	5.870658743e-05
0.5404246925 	0.03378322839 	-0.01772681333 	-1.223718781e-07 	0.03035777833 	1.744976818e-07 	5.787036301e-05
0.5420643661 	0.03330246972 	-0.01747479695 	-1.258693021e-07 	0.0299187114 	1.773761918e-07 	5.70333794e-05
0.5437223366 	0.03281973386 	-0.01721988082 	-1.293681757e-07 	0.02947960249 	1.801243915e-07 	5.619631577e-05
0.5453988083 	0.0323352675 	-0.0169620496 	-1.328593312e-07 	0.0290408266 	1.827303075e-07 	5.535988698e-05
0.5470939875 	0.03184933427 	-0.01670129023 	-1.363330709e-07 	0.02860277722 	1.851817659e-07 	5.452484312e-05
0.5488080831 	0.03136221576 	-0.01643759224 	-1.397792051e-07 	0.0281658659 	1.874664549e-07 	5.369196871e-05
0.5505413061 	0.03087421245 	-0.01617094806 	-1.431870938e-07 	0.02773052163 	1.895719941e-07 	5.286208153e-05
0.5522938699 	0.03038564486 	-0.01590135332 	-1.465456931e-07 	0.02729719002 	1.914860106e-07 	5.203603104e-05
0.5540659904 	0.02989685468 	-0.01562880715 	-1.498436041e-07 	0.02686633224 	1.931962215e-07 	5.121469635e-05
0.5558578859 	0.02940820594 	-0.01535331247 	-1.530691239e-07 	0.02643842372 	1.946905219e-07 	5.039898378e-05
0.5576697768 	0.02892008641 	-0.01507487631 	-1.56210299e-07 	0.0260139526 	1.959570774e-07 	4.958982387e-05
0.5595018865 	0.02843290887 	-0.01479351006 	-1.592549793e-07 	0.02559341797 	1.969844173e-07 	4.878816797e-05
0.5613544406 	0.02794711269 	-0.01450922986 	-1.621908727e-07 	0.02517732777 	1.977615257e-07 	4.799498441e-05
0.563227667 	0.0274631653 	-0.01422205681 	-1.650056084e-07 	0.02476619665 	1.982779263e-07 	4.721125423e-05
0.5651217966 	0.02698156382 	-0.01393201724 	-1.676868134e-07 	0.02436054356 	1.985237699e-07 	4.643796669e-05
0.5670370626 	0.02650283655 	-0.01363914284 	-1.702221949e-07 	0.02396088913 	1.984899489e-07 	4.567611427e-05
0.5689737009 	0.02602754418 	-0.0133434706 	-1.725996142e-07 	0.02356775267 	1.981682659e-07 	4.49266869e-05
0.5709319499 	0.02555628047 	-0.01304504289 	-1.748071419e-07 	0.02318164841 	1.975516593e-07 	4.419066488e-05
0.5729120508 	0.02508967232 	-0.01274390754 	-1.768330983e-07 	0.02280308104 	1.96634443e-07 	4.346901025e-05
0.5749142474 	0.02462837895 	-0.0124401181 	-1.786660979e-07 	0.02243254044 	1.954124844e-07 	4.276265688e-05
0.5769387863 	0.02417309061 	-0.01213373411 	-1.802951188e-07 	0.02207049638 	1.938832511e-07 	4.207250029e-05
0.5789859169 	0.02372452668 	-0.0118248213 	-1.817095989e-07 	0.02171739369 	1.920457015e-07 	4.139938841e-05
0.5810558911 	0.02328343357 	-0.01151345154 	-1.828995516e-07 	0.02137364847 	1.899000588e-07 	4.074411449e-05
0.583148964 	0.02285058225 	-0.01119970255 	-1.838556919e-07 	0.02103964583 	1.874475461e-07 	4.010741261e-05
0.5852653933 	0.02242676539 	-0.01088365734 	-1.845695724e-07 	0.02071573884 	1.846901775e-07 	3.948995586e-05
0.5874054395 	0.02201279354 	-0.0105654034 	-1.850337286e-07 	0.0204022485 	1.816306946e-07 	3.889235615e-05
0.5895693664 	0.02160948986 	-0.01024503164 	-1.852418089e-07 	0.02009946399 	1.782727065e-07 	3.831516473e-05
0.5917574402 	0.02121768274 	-0.009922635357 	-1.851886293e-07 	0.01980764256 	1.746210186e-07 	3.775887197e-05
0.5939699306 	0.02083819632 	-0.009598309564 	-1.848701162e-07 	0.01952700872 	1.70682005e-07 	3.722390587e-05
0.5962071099 	0.02047183904 	-0.009272150861 	-1.842832054e-07 	0.01925775324 	1.664637916e-07 	3.671063009e-05
0.5984692536 	0.02011939122 	-0.008944257542 	-1.834260112e-07 	0.01900003301 	1.619762783e-07 	3.621934371e-05
0.6007566404 	0.01978159266 	-0.008614729075 	-1.823005039e-07 	0.01875397312 	1.572305351e-07 	3.575028517e-05
0.6030695519 	0.01945913097 	-0.008283664599 	-1.809124689e-07 	0.01851967137 	1.522376581e-07 	3.530364092e-05
0.6054082729 	0.01915263093 	-0.007951161168 	-1.792650773e-07 	0.01829720426 	1.470086892e-07 	3.487955676e-05
0.6077730914 	0.01886264519 	-0.007617312718 	-1.773580441e-07 	0.01808663307 	1.415556772e-07 	3.447814955e-05
0.6101642987 	0.01858964592 	-0.007282209588 	-1.751939146e-07 	0.01788800983 	1.358921521e-07 	3.409951845e-05
0.6125821893 	0.01833401774 	-0.006945937994 	-1.727802495e-07 	0.01770138282 	1.300328098e-07 	3.37437555e-05
0.6150270608 	0.01809605266 	-0.006608579352 	-1.701267608e-07 	0.01752680147 	1.239936647e-07 	3.341095493e-05
0.6174992144 	0.01787594739 	-0.006270209633 	-1.672437279e-07 	0.01736432035 	1.177924683e-07 	3.310122075e-05
0.6199989545 	0.01767380313 	-0.005930898866 	-1.641421289e-07 	0.01721400209 	1.114488781e-07 	3.281467236e-05
0.622526589 	0.01748962775 	-0.005590710738 	-1.608334893e-07 	0.01707591916 	1.049845848e-07 	3.255144793e-05
0.625082429 	0.01732334046 	-0.005249702377 	-1.573288171e-07 	0.01695015424 	9.84238289e-08 	3.231170503e-05
0.6276667894 	0.01717477842 	-0.004907923589 	-1.536442216e-07 	0.01683679925 	9.17940723e-08 	3.209561892e-05
0.6302799884 	0.01704370521 	-0.004565416189 	-1.498077093e-07 	0.01673595346 	8.512686958e-08 	3.190337882e-05
0.6329223478 	0.01692982165 	-0.0042222166 	-1.458359529e-07 	0.0166477203 	7.845831665e-08 	3.173518188e-05
0.6355941931 	0.01683277705 	-0.003878356784 	-1.417264074e-07 	0.01657220313 	7.182214328e-08 	3.159122517e-05
0.6382958531 	0.01675217995 	-0.003533861154 	-1.374878287e-07 	0.01650950094 	6.524792839e-08 	3.147169737e-05
0.6410276607 	0.01668760993 	-0.003188746854 	-1.331395089e-07 	0.01645970338 	5.876959717e-08 	3.137676937e-05
0.6437899523 	0.01663862955 	-0.002843025553 	-1.286976892e-07 	0.01642288576 	5.242447742e-08 	3.130658477e-05
0.646583068 	0.01660479531 	-0.002496703759 	-1.241778341e-07 	0.01639910447 	4.624853728e-08 	3.126125102e-05
0.6494073518 	0.0165856677 	-0.002149783385 	-1.195947643e-07 	0.01638839258 	4.027595047e-08 	3.124083118e-05
0.6522631514 	0.0165808201 	-0.001802262349 	-1.149627491e-07 	0.01639075616 	3.453857796e-08 	3.124533681e-05
0.6551508186 	0.01658984638 	-0.001454135223 	-1.102955441e-07 	0.01640617121 	2.90653718e-08 	3.127472218e-05
0.658070709 	0.01661236715 	-0.001105393895 	-1.056064205e-07 	0.01643458149 	2.388177425e-08 	3.132888008e-05
0.6610231822 	0.01664803455 	-0.0007560283748 	-1.009081679e-07 	0.01647589685 	1.900942093e-08 	3.140763864e-05
0.6640086017 	0.01669653555 	-0.0004060266016 	-9.62132361e-08 	0.01652999362 	1.446529406e-08 	3.151076212e-05
0.6670273351 	0.01675759413 	-5.538287289e-05 	-9.153242254e-08 	0.01659671341 	1.026212621e-08 	3.163794858e-05
0.6700797543 	0.01683097209 	0.0002959139534 	-8.687714493e-08 	0.01667586422 	6.408309255e-09 	3.178883203e-05
0.6731662352 	0.01691646847 	0.0006478877159 	-8.226073446e-08 	0.01676722486 	2.906774457e-09 	3.196299079e-05
0.6762871577 	0.01701391854 	0.001000547078 	-7.76936241e-08 	0.01687054406 	-2.434522173e-10 	3.21599459e-05
0.6794429063 	0.01712319136 	0.001353893096 	-7.31849047e-08 	0.01698554399 	-3.047406839e-09 	3.237916774e-05
0.6826338695 	0.01724418683 	0.001707931429 	-6.874456665e-08 	0.01711192489 	-5.514475862e-09 	3.262008486e-05
0.6858604404 	0.01737683237 	0.002062663684 	-6.438202989e-08 	0.01724936715 	-7.657357288e-09 	3.288208801e-05
0.6891230163 	0.01752107893 	0.002418087969 	-6.010632023e-08 	0.01739753576 	-9.491886692e-09 	3.316453855e-05
0.6924219988 	0.01767689685 	0.002774198348 	-5.592602455e-08 	0.017556084 	-1.103649075e-08 	3.346677557e-05
0.6957577944 	0.01784427147 	0.003130984516 	-5.184926612e-08 	0.01772465746 	-1.231170274e-08 	3.378812343e-05
0.6991308138 	0.01802319882 	0.003488431506 	-4.788366601e-08 	0.01790289782 	-1.333964862e-08 	3.412789911e-05
0.7025414724 	0.01821368123 	0.003846519477 	-4.403629671e-08 	0.01809044671 	-1.414354734e-08 	3.448541941e-05
0.7059901901 	0.01841572323 	0.004205223563 	-4.031362753e-08 	0.01828694923 	-1.474722622e-08 	3.486000783e-05
0.7094773917 	0.01862932759 	0.004564513798 	-3.672146338e-08 	0.01849205734 	-1.51746624e-08 	3.525100089e-05
0.7130035066 	0.01885449176 	0.004924355115 	-3.326487904e-08 	0.01870543295 	-1.54495565e-08 	3.565775412e-05
0.7165689691 	0.01909120455 	0.005284707413 	-2.994815193e-08 	0.01892675072 	-1.559494366e-08 	3.60796473e-05
0.7201742182 	0.01933944339 	0.005645525704 	-2.677469637e-08 	0.01915570048 	-1.563284485e-08 	3.651608916e-05
0.7238196978 	0.01959917189 	0.006006760327 	-2.374700409e-08 	0.01939198928 	-1.558396213e-08 	3.696652128e-05
0.727505857 	0.01987033794 	0.006368357209 	-2.086659572e-08 	0.01963534333 	-1.546741e-08 	3.743042174e-05
0.7312331497 	0.02015287239 	0.006730258571 	-1.81339779e-08 	0.01988550937 	-1.53004951e-08 	3.790730775e-05
0.7350020349 	0.02044589377 	0.00709145757 	-1.555496935e-08 	0.02014157001 	-1.509906393e-08 	3.83954305e-05
0.7387709215 	0.02074663731 	0.007448898768 	-1.314642201e-08 	0.02040106454 	-1.487819727e-08 	3.889009919e-05
0.7424982157 	0.02105209485 	0.007799634815 	-1.091946672e-08 	0.02066145972 	-1.465062323e-08 	3.938648479e-05
0.7461843763 	0.0213609082 	0.008142883124 	-8.867767623e-09 	0.0209217377 	-1.442476103e-08 	3.988264695e-05
0.7498298574 	0.02167254507 	0.008478819728 	-6.978494739e-09 	0.021181623 	-1.420554365e-08 	4.037806057e-05
0.7534351078 	0.02198651405 	0.008807617856 	-5.239349752e-09 	0.02144089107 	-1.399552848e-08 	4.087229758e-05
0.7570005716 	0.02230236312 	0.009129447656 	-3.638678675e-09 	0.02169936161 	-1.379534687e-08 	4.136501426e-05
0.7605266877 	0.02261967847 	0.009444476719 	-2.16557092e-09 	0.02195689245 	-1.360413234e-08 	4.185593961e-05
0.7640138905 	0.02293808299 	0.009752870361 	-8.099379856e-10 	0.0222133745 	-1.341988134e-08 	4.234486568e-05
0.7674626093 	0.02325723467 	0.01005479182 	4.374192442e-10 	0.02246872725 	-1.323978798e-08 	4.283163899e-05
0.770873269 	0.02357682487 	0.01035040239 	1.584750739e-09 	0.02272289487 	-1.306057196e-08 	4.331615313e-05
0.7742462894 	0.02389657657 	0.01063986152 	2.639185272e-09 	0.0229758428 	-1.287886562e-08 	4.379834218e-05
0.777582086 	0.0242162426 	0.01092332682 	3.606454119e-09 	0.02322755452 	-1.268958764e-08 	4.427817468e-05
0.7808810695 	0.0245356033 	0.01120095333 	4.499436739e-09 	0.0234780291 	-1.248794265e-08 	4.475564884e-05
0.7841436462 	0.02485446488 	0.01147289361 	5.337635524e-09 	0.02372727894 	-1.227434389e-08 	4.523078832e-05
0.787370218 	0.02517265889 	0.01173929998 	6.119558156e-09 	0.02397532747 	-1.20473374e-08 	4.570363776e-05
0.7905611821 	0.02549003952 	0.01200032385 	6.827562921e-09 	0.02422220796 	-1.180084037e-08 	4.617426059e-05
0.7937169314 	0.02580648067 	0.01225611356 	7.458960143e-09 	0.02446796224 	-1.153052012e-08 	4.664273655e-05
0.7968378547 	0.02612187521 	0.01250681492 	8.024909621e-09 	0.02471263855 	-1.12341648e-08 	4.71091576e-05
0.7999243362 	0.02643613373 	0.01275257163 	8.537955897e-09 	0.02495629022 	-1.09104245e-08 	4.757362539e-05
0.8029767561 	0.0267491827 	0.0129935251 	9.004408262e-09 	0.02519897491 	-1.055718758e-08 	4.803624987e-05
0.8059954902 	0.0270609628 	0.01322981431 	9.426033003e-09 	0.0254407538 	-1.017280133e-08 	4.849714764e-05
0.8089809102 	0.02737142763 	0.01346157596 	9.805336862e-09 	0.02568169074 	-9.756801335e-09 	4.895644042e-05
0.8119333839 	0.02768054238 	0.01368894436 	1.014499588e-08 	0.02592185153 	-9.30870896e-09 	4.941425362e-05
0.8148532749 	0.02798828255 	0.01391205137 	1.044775485e-08 	0.02616130324 	-8.828262939e-09 	4.987071514e-05
0.8177409426 	0.02829463277 	0.01413102635 	1.071638968e-08 	0.02640011364 	-8.315393041e-09 	5.032595412e-05
0.8205967427 	0.0285995857 	0.01434599613 	1.095372518e-08 	0.0266383506 	-7.77022531e-09 	5.078009999e-05
0.8234210268 	0.02890314101 	0.01455708498 	1.116265841e-08 	0.02687608165 	-7.193053408e-09 	5.123328145e-05
0.8262141429 	0.02920530438 	0.01476441454 	1.134616612e-08 	0.02711337348 	-6.584312354e-09 	5.168562563e-05
0.8289764348 	0.02950608663 	0.01496810379 	1.150730357e-08 	0.0273502915 	-5.944554064e-09 	5.213725722e-05
0.8317082427 	0.02980550285 	0.01516826904 	1.16491954e-08 	0.02758689946 	-5.274426386e-09 	5.258829775e-05
0.8344099031 	0.03010357163 	0.01536502387 	1.177501988e-08 	0.02782325907 	-4.574655515e-09 	5.303886486e-05
0.8370817486 	0.03040031435 	0.01555847909 	1.18879877e-08 	0.02805942964 	-3.846032116e-09 	5.348907161e-05
0.8397241082 	0.03069575449 	0.01574874275 	1.199131645e-08 	0.02829546774 	-3.089401156e-09 	5.393902584e-05
0.8423373074 	0.030989917 	0.01593592004 	1.208820177e-08 	0.02853142691 	-2.305655446e-09 	5.438882959e-05
0.844921668 	0.03128282773 	0.01612011331 	1.218178687e-08 	0.02876735731 	-1.495732598e-09 	5.483857851e-05
0.8474775082 	0.03157451287 	0.01630142201 	1.227513131e-08 	0.02900330551 	-6.606146509e-10 	5.528836136e-05
0.8500051427 	0.0318649985 	0.01647994265 	1.237117961e-08 	0.02923931417 	1.986701987e-10 	5.573825946e-05
0.8525048829 	0.03215431009 	0.0166557688 	1.24727307e-08 	0.02947542182 	1.081044461e-09 	5.618834627e-05
0.8549770366 	0.03244247211 	0.01682899101 	1.258240866e-08 	0.02971166264 	1.98537719e-09 	5.663868692e-05
0.8574219081 	0.0327295076 	0.0169996968 	1.270263519e-08 	0.02994806623 	2.910479184e-09 	5.708933787e-05
0.8598397987 	0.03301543789 	0.01716797064 	1.283560428e-08 	0.03018465745 	3.855098028e-09 	5.754034649e-05
0.862231006 	0.03330028219 	0.01733389388 	1.298325978e-08 	0.03042145625 	4.817913389e-09 	5.799175081e-05
0.8645958245 	0.03358405738 	0.01749754477 	1.314727576e-08 	0.0306584775 	5.797532701e-09 	5.84435792e-05
0.8669345455 	0.03386677769 	0.0176589984 	1.332904019e-08 	0.03089573093 	6.792487625e-09 	5.889585018e-05
0.8692474569 	0.03414845451 	0.01781832667 	1.352964191e-08 	0.03113322097 	7.801231429e-09 	5.934857221e-05
0.8715348435 	0.03442909617 	0.01797559832 	1.374986099e-08 	0.03137094673 	8.822137365e-09 	5.980174357e-05
0.8737969871 	0.03470870776 	0.01813087886 	1.399016288e-08 	0.03160890192 	9.853498252e-09 	6.02553523e-05
0.8760341663 	0.034987291 	0.01828423058 	1.425069563e-08 	0.03184707486 	1.089352716e-08 	6.070937613e-05
0.8782466565 	0.0352648441 	0.01843571255 	1.45312907e-08 	0.0320854485 	1.194035928e-08 	6.116378253e-05
0.8804347301 	0.0355413617 	0.01858538062 	1.483146706e-08 	0.03232400041 	1.299205483e-08 	6.161852877e-05
0.8825986568 	0.03581683476 	0.01873328742 	1.515043834e-08 	0.03256270289 	1.404660312e-08 	6.207356205e-05
0.8847387028 	0.03609125058 	0.01887948237 	1.548712269e-08 	0.03280152306 	1.510192732e-08 	6.252881967e-05
0.8868551318 	0.03636459273 	0.01902401173 	1.584015568e-08 	0.03304042295 	1.615589026e-08 	6.298422926e-05
0.8889482045 	0.03663684111 	0.01916691857 	1.620790539e-08 	0.03327935967 	1.720630062e-08 	6.343970905e-05
0.8910181784 	0.03690797197 	0.01930824286 	1.658848964e-08 	0.03351828556 	1.82509197e-08 	6.38951682e-05
0.8930653087 	0.03717795798 	0.0194480215 	1.697979541e-08 	0.03375714839 	1.928746875e-08 	6.435050715e-05
0.8950898473 	0.0374467683 	0.01958628834 	1.737949975e-08 	0.0339958916 	2.031363628e-08 	6.480561806e-05
0.8970920436 	0.03771436872 	0.01972307428 	1.778509198e-08 	0.03423445448 	2.132708551e-08 	6.526038521e-05
0.8990721441 	0.03798072178 	0.01985840731 	1.819389719e-08 	0.03447277246 	2.232546177e-08 	6.571468552e-05
0.9010303927 	0.03824578692 	0.01999231259 	1.860310055e-08 	0.03471077738 	2.330639997e-08 	6.616838904e-05
0.9029670306 	0.03850952063 	0.02012481254 	1.900977214e-08 	0.03494839774 	2.426753168e-08 	6.662135951e-05
0.9048822962 	0.03877187669 	0.02025592693 	1.941089219e-08 	0.03518555906 	2.520649196e-08 	6.707345489e-05
0.9067764254 	0.0390328063 	0.02038567294 	1.980337631e-08 	0.03542218409 	2.612092574e-08 	6.752452796e-05
0.9086496514 	0.03929225836 	0.02051406531 	2.018410071e-08 	0.0356581932 	2.700849407e-08 	6.797442692e-05
0.910502205 	0.03955017964 	0.02064111643 	2.054992699e-08 	0.03589350465 	2.786687983e-08 	6.842299595e-05
0.9123343142 	0.03980651504 	0.02076683641 	2.089772646e-08 	0.03612803493 	2.869379294e-08 	6.887007585e-05
0.9141462048 	0.0400612078 	0.02089123328 	2.122440381e-08 	0.03636169905 	2.948697508e-08 	6.931550461e-05
0.9159380997 	0.04031419978 	0.02101431301 	2.152691995e-08 	0.03659441087 	3.024420427e-08 	6.975911801e-05
0.9177102197 	0.04056543164 	0.02113607972 	2.1802314e-08 	0.03682608338 	3.096329879e-08 	7.020075021e-05
0.9194627831 	0.0408148431 	0.02125653572 	2.204772444e-08 	0.03705662902 	3.164212071e-08 	7.064023428e-05
0.9211960055 	0.0410623732 	0.02137568169 	2.226040932e-08 	0.03728595995 	3.227857906e-08 	7.107740276e-05
0.9229101006 	0.04130796045 	0.02149351677 	2.243776586e-08 	0.0375139883 	3.287063294e-08 	7.151208817e-05
0.9246052793 	0.04155154309 	0.02161003868 	2.257734951e-08 	0.03774062646 	3.341629419e-08 	7.19441235e-05
0.9262817504 	0.04179305929 	0.02172524383 	2.267689271e-08 	0.03796578729 	3.391363018e-08 	7.237334262e-05
0.9279397204 	0.04203244727 	0.02183912744 	2.273432339e-08 	0.03818938434 	3.436076708e-08 	7.279958074e-05
0.9295793934 	0.04226964555 	0.02195168361 	2.274778405e-08 	0.03841133202 	3.475589419e-08 	7.322267471e-05
0.9312009714 	0.04250459301 	0.02206290542 	2.271564978e-08 	0.03863154583 	3.509726885e-08 	7.364246344e-05
0.9328046541 	0.04273722905 	0.02217278505 	2.263654973e-08 	0.03884994243 	3.538322191e-08 	7.405878806e-05
0.9343906389 	0.04296749368 	0.02228131376 	2.250938013e-08 	0.0390664398 	3.56121668e-08 	7.447149222e-05
0.9359591211 	0.04319532758 	0.02238848204 	2.233331741e-08 	0.03928095732 	3.578259467e-08 	7.488042222e-05