0.2974940496 	1.62498877e-05 	-3.431917705e-07 	9.817822168e-11 	1.590664569e-05 	-3.609145038e-09 	3.03224877e-08
0.2977032251 	0.0002424723571 	-2.046136988e-05 	8.955429615e-09 	0.0002233832059 	-7.395690127e-08 	4.258304767e-07
0.2979124097 	0.001508100376 	-0.0002704982112 	1.303753001e-07 	0.001255557482 	-4.492148586e-07 	2.393441525e-06
0.2981216023 	0.005343940517 	-0.001445771069 	6.766494995e-07 	0.003936126551 	-1.396025847e-06 	7.503351196e-06
0.2983308017 	0.01288151459 	-0.004262900294 	1.77547592e-06 	0.00846471784 	-2.768330729e-06 	1.613610485e-05
0.2985400069 	0.02313643694 	-0.008353177602 	2.936518796e-06 	0.01401614336 	-4.038685685e-06 	2.671866483e-05
0.2987492165 	0.03356758471 	-0.01252893831 	3.657771169e-06 	0.01945953651 	-4.872198439e-06 	3.709528508e-05
0.2989584294 	0.04239235757 	-0.01600748403 	3.949305827e-06 	0.02413772677 	-5.282074434e-06 	4.601321595e-05
0.2991676445 	0.04923824303 	-0.01866277307 	4.006608093e-06 	0.02788481476 	-5.390505876e-06 	5.315620711e-05
0.2993768607 	0.05437931043 	-0.02063402641 	3.952712956e-06 	0.03077953285 	-5.307038969e-06 	5.867434435e-05
0.2995860767 	0.05819336026 	-0.02208742925 	3.841808771e-06 	0.0329736496 	-5.102704744e-06 	6.285694068e-05
0.2997952915 	0.0610016191 	-0.02315628261 	3.697068354e-06 	0.03461502725 	-4.817934409e-06 	6.598586268e-05
0.3000045038 	0.06304838154 	-0.02393845195 	3.528823144e-06 	0.03582561337 	-4.475068362e-06 	6.829357629e-05
0.3002137125 	0.06451367302 	-0.02450433289 	3.341863798e-06 	0.03670017878 	-4.086638965e-06 	6.996074105e-05
0.3004229164 	0.06552958589 	-0.02490465051 	3.138511241e-06 	0.03731088378 	-3.660051237e-06 	7.112491452e-05
0.3006321145 	0.06619368966 	-0.0251763356 	2.919972631e-06 	0.03771250515 	-3.200103038e-06 	7.189051647e-05
0.3008413056 	0.06657887432 	-0.02534664745 	2.686956075e-06 	0.0379468566 	-2.710336288e-06 	7.233725547e-05
0.3010504885 	0.06674030897 	-0.02543599719 	2.439953413e-06 	0.03804618001 	-2.193774251e-06 	7.252659348e-05
0.3012596621 	0.06672031439 	-0.02545987622 	2.179388904e-06 	0.03803565313 	-1.653324982e-06 	7.250652632e-05
0.3014688252 	0.06655179218 	-0.02543018925 	1.905724472e-06 	0.0379352172 	-1.091980855e-06 	7.231506752e-05
0.3016779767 	0.06626066783 	-0.02535619648 	1.61955172e-06 	0.03776089816 	-5.128829692e-07 	7.1982767e-05
0.3018871155 	0.06586765237 	-0.02524519433 	1.32163262e-06 	0.03752575629 	8.069569895e-08 	7.153452123e-05
0.3020962405 	0.06538953531 	-0.02510302145 	1.013094675e-06 	0.03724055882 	6.854684987e-07 	7.099085559e-05
0.3023053504 	0.0648400309 	-0.02493436989 	6.941418884e-07 	0.03691430724 	1.297578019e-06 	7.036892941e-05
0.3025144442 	0.06422965535 	-0.02474253136 	3.676907284e-07 	0.03655479587 	1.91472905e-06 	6.96836008e-05
0.3027235208 	0.06356867894 	-0.02453157435 	3.774389932e-08 	0.03616758736 	2.535982455e-06 	6.894547377e-05
0.3029325789 	0.06286771238 	-0.02430657258 	-2.924764782e-07 	0.03575630336 	3.103885553e-06 	6.816145215e-05
0.3031416175 	0.06213348345 	-0.02407000718 	-6.042745189e-07 	0.03532526353 	3.570958005e-06 	6.733977044e-05
0.3033506355 	0.06137135391 	-0.02382353641 	-8.953578369e-07 	0.03487889683 	3.990660271e-06 	6.648887146e-05
0.3035596318 	0.06058365702 	-0.02356685135 	-1.1663493e-06 	0.03442176356 	4.361369276e-06 	6.561744838e-05
0.3037686051 	0.05967609679 	-0.02327441598 	-1.451728158e-06 	0.03388744905 	4.738392581e-06 	6.459889642e-05
0.3040932534 	0.05851358331 	-0.02289665212 	-1.763828082e-06 	0.03321312751 	5.092912864e-06 	6.331345214e-05
0.3044239396 	0.05718556939 	-0.02245833282 	-2.066455696e-06 	0.0324626776 	5.385283474e-06 	6.188288604e-05
0.3047607701 	0.05582401732 	-0.02200842672 	-2.321239863e-06 	0.03170086396 	5.567746185e-06 	6.043065751e-05
0.3051038528 	0.05443371412 	-0.02154666585 	-2.525919664e-06 	0.03093651923 	5.641067653e-06 	5.897360402e-05
0.3054532974 	0.05302414835 	-0.02107626405 	-2.68829847e-06 	0.03017655617 	5.603060091e-06 	5.752490319e-05
0.3058092146 	0.05160279048 	-0.02059875289 	-2.818833437e-06 	0.02942806833 	5.454291673e-06 	5.609807734e-05
0.306171717 	0.05017653362 	-0.02011531394 	-2.91458254e-06 	0.0286975866 	5.209371031e-06 	5.470557614e-05
0.3065409184 	0.0487520468 	-0.01962742643 	-2.970093985e-06 	0.02799045464 	4.887381307e-06 	5.335758609e-05
0.306916934 	0.04733547623 	-0.01913680617 	-2.98416496e-06 	0.02731094128 	4.50434833e-06 	5.206224476e-05
0.3072998807 	0.04593227918 	-0.01864520099 	-2.957427611e-06 	0.02666255495 	4.074181902e-06 	5.082624021e-05
0.3076898765 	0.04454730507 	-0.01815430816 	-2.89183877e-06 	0.02604826689 	3.609532199e-06 	4.965523644e-05
0.3080870409 	0.04318491511 	-0.01766574538 	-2.789879787e-06 	0.02547063891 	3.122769608e-06 	4.855411697e-05
0.3084914948 	0.0418490838 	-0.01718105736 	-2.654559305e-06 	0.02493187977 	2.626216045e-06 	4.75270923e-05
0.3089033604 	0.04054344514 	-0.01670171745 	-2.489386886e-06 	0.02443387469 	2.132153114e-06 	4.65777562e-05
0.3093227611 	0.03927130254 	-0.01622912613 	-2.298332592e-06 	0.02397820249 	1.652722341e-06 	4.570911833e-05
0.3097498216 	0.03803561411 	-0.01576460752 	-2.085756043e-06 	0.02356614849 	1.199772174e-06 	4.49236289e-05
0.310184668 	0.03683896216 	-0.01530940529 	-1.856345152e-06 	0.02319871823 	7.847076396e-07 	4.42232047e-05
0.3106274272 	0.0356835169 	-0.01486467976 	-1.61498087e-06 	0.02287665131 	4.18340261e-07 	4.360925564e-05
0.3110782274 	0.03457099603 	-0.01443150017 	-1.366878874e-06 	0.02260043964 	1.108203535e-07 	4.308271942e-05
0.311537198 	0.03350264731 	-0.01401083929 	-1.116822268e-06 	0.02237031404 	-1.283969065e-07 	4.264403607e-05
0.3120044692 	0.03247925137 	-0.01360361819 	-8.712639555e-07 	0.02218635467 	-2.909327463e-07 	4.229335837e-05
0.3124801721 	0.03150048378 	-0.01321011961 	-6.336601674e-07 	0.02204870453 	-3.673745315e-07 	4.203095896e-05
0.3129644388 	0.03056641593 	-0.01283183149 	-4.101021981e-07 	0.02195688902 	-3.505602629e-07 	4.185593308e-05
0.313457402 	0.02967696672 	-0.01246959735 	-2.074367063e-07 	0.02190900755 	-2.378460702e-07 	4.176465769e-05
0.3139606955 	0.02882513721 	-0.01211866929 	-2.091044721e-08 	0.02190315718 	-3.00159354e-08 	4.175350526e-05
0.3140196842 	0.02873352493 	-0.01208003266 	1.80723839e-06 	0.02190704569 	2.012007743e-08 	4.176091783e-05
0.3144864039 	0.02800592273 	-0.01177323093 	-1.6750902e-07 	0.02193802068 	-2.289206724e-07 	4.181996478e-05
0.3150214844 	0.02722558192 	-0.01143401909 	-3.479886186e-07 	0.0220084953 	-5.69488743e-07 	4.195430899e-05
0.3155662914 	0.02648812227 	-0.01110335071 	-5.206246132e-07 	0.02211009122 	-9.894255377e-07 	4.214797904e-05
0.3161209968 	0.02579025503 	-0.01078026178 	-6.870711738e-07 	0.02223953461 	-1.482868735e-06 	4.239473412e-05
0.3166857751 	0.02512874034 	-0.01046396605 	-8.493061973e-07 	0.02239414574 	-2.044877645e-06 	4.26894659e-05
0.3172608041 	0.0245005246 	-0.01015367877 	-1.009064124e-06 	0.02257146135 	-2.670502145e-06 	4.302747874e-05
0.3178462644 	0.02390279337 	-0.009848701324 	-1.167950168e-06 	0.02276924923 	-3.35520308e-06 	4.340451742e-05
0.3184423396 	0.02333295713 	-0.009548404035 	-1.327359184e-06 	0.02298549239 	-4.095019911e-06 	4.381673699e-05
0.3190492165 	0.02278864125 	-0.009252230713 	-1.488457306e-06 	0.02321838526 	-4.886543481e-06 	4.426069552e-05
0.3196670849 	0.02226767316 	-0.00895969362 	-1.652161517e-06 	0.02346631512 	-5.726875583e-06 	4.473331875e-05
0.320296138 	0.0217680679 	-0.008670370517 	-1.819120682e-06 	0.02372784594 	-6.613596859e-06 	4.523186918e-05
0.3209365718 	0.02128801242 	-0.008383900983 	-1.989701138e-06 	0.02400170178 	-7.544730078e-06 	4.575391451e-05
0.3215885862 	0.02082584961 	-0.008099982798 	-2.163980001e-06 	0.02428675105 	-8.518691586e-06 	4.629729766e-05
0.3222523839 	0.02038006265 	-0.007818368024 	-2.341746042e-06 	0.0245819911 	-9.534232639e-06 	4.686010725e-05
0.3229281712 	0.0199492603 	-0.0075388588 	-2.522507859e-06 	0.02488653305 	-1.059037344e-05 	4.744064885e-05
0.3236161579 	0.01953216328 	-0.007261302985 	-2.7055088e-06 	0.02519958746 	-1.168633279e-05 	4.803741756e-05
0.3243165573 	0.01912759205 	-0.006985589293 	-2.889747888e-06 	0.02552044996 	-1.28214562e-05 	4.864907067e-05
0.3250295861 	0.01873445575 	-0.006711643121 	-3.074005958e-06 	0.02584848946 	-1.399514518e-05 	4.927440512e-05
0.3257554648 	0.01835174394 	-0.006439419499 	-3.183421509e-06 	0.02618313103 	-1.486382708e-05 	4.991232497e-05
0.3264944175 	0.01797851501 	-0.006168904608 	-2.968569578e-06 	0.02652385862 	-1.421381384e-05 	5.056184646e-05
0.3272466721 	0.01761389765 	-0.005900092711 	-2.749058331e-06 	0.02687016985 	-1.350232571e-05 	5.122201192e-05
0.3280124601 	0.01725704816 	-0.005633050941 	-2.525222832e-06 	0.02722171038 	-1.273109578e-05 	5.189214587e-05
0.3287920171 	0.01690723614 	-0.005367700952 	-2.297678483e-06 	0.02757788339 	-1.190181123e-05 	5.257111061e-05
0.3295855824 	0.0165626063 	-0.005103262808 	-2.067261902e-06 	0.02793950705 	-1.101663729e-05 	5.326046583e-05
0.3304044215 	0.01621998461 	-0.004838096734 	-1.832120091e-06 	0.02830927308 	-1.006179761e-05 	5.396534265e-05
0.3312516186 	0.01587879895 	-0.004571849597 	-1.592944385e-06 	0.02868670457 	-9.033731652e-06 	5.468483197e-05
0.3321139468 	0.01554111312 	-0.004306627744 	-1.355036087e-06 	0.02906860845 	-7.951889597e-06 	5.541284692e-05
0.3329916665 	0.01520771526 	-0.004043750996 	-1.120256271e-06 	0.02945318824 	-6.817504299e-06 	5.614596288e-05
0.3338850422 	0.01487806547 	-0.003783152298 	-8.904045084e-07 	0.02983991286 	-5.632721305e-06 	5.688316748e-05
0.3347943428 	0.01455163017 	-0.003524893726 	-6.673475872e-07 	0.03022843554 	-4.399779248e-06 	5.76237997e-05
0.3357198416 	0.01422795119 	-0.003268976015 	-4.529562549e-07 	0.03061829723 	-3.12110273e-06 	5.836698444e-05
0.3366618167 	0.01390659593 	-0.003015382208 	-2.490794657e-07 	0.03100907173 	-1.79927967e-06 	5.911190925e-05
0.3376205503 	0.01358727847 	-0.002764109789 	-5.751920103e-08 	0.03140010292 	-4.370409371e-07 	5.985732337e-05
0.3379264957 	0.01348752841 	-0.002686061906 	3.574576738e-06 	0.03152285888 	4.554741619e-06 	6.009133036e-05
0.338594552 	0.01326871338 	-0.002515181831 	-1.309871942e-07 	0.0317920662 	-9.359250825e-07 	6.060451433e-05
0.3395850516 	0.0129099544 	-0.002239215902 	-3.089983031e-07 	0.03223543259 	-2.335008797e-06 	6.144969388e-05
0.3411037153 	0.01247626721 	-0.001906992476 	-5.518889711e-07 	0.03277094463 	-4.490457515e-06 	6.247052869e-05
0.3426370071 	0.01201089881 	-0.001551885766 	-7.52173221e-07 	0.03334350792 	-6.674390718e-06 	6.356199345e-05
0.3441850697 	0.01155446841 	-0.001206492227 	-9.0976093e-07 	0.03390117246 	-8.873838973e-06 	6.462505706e-05
0.3457480479 	0.01110263154 	-0.0008683554308 	-1.019735585e-06 	0.03444858781 	-1.108438338e-05 	6.566858287e-05
0.3473669816 	0.01065108503 	-0.0005352996024 	-1.065034419e-06 	0.03499095164 	-1.340931234e-05 	6.670247906e-05
0.3490055772 	0.01020326051 	-0.0002082624936 	-1.049088527e-06 	0.0355219649 	-1.569039299e-05 	6.771473792e-05
0.3506597448 	0.009762973094 	0.0001182145024 	-1.321232608e-06 	0.03603298719 	-1.7729218e-05 	6.868888843e-05
0.3523296368 	0.009355191378 	0.0004664250215 	-2.080467165e-06 	0.03649107373 	-1.413804894e-05 	6.956212869e-05
0.3540154081 	0.009031444888 	0.0008608082951 	-3.128389416e-06 	0.03683569019 	-8.899985925e-06 	7.021906346e-05
0.3557172157 	0.00882486105 	0.001308527181 	-3.518090521e-06 	0.03702994785 	-4.758102349e-06 	7.058937254e-05
0.3574352186 	0.008719637517 	0.001790113711 	-3.006388712e-06 	0.03709335787 	-2.799133077e-06 	7.071024967e-05
0.3591695786 	0.008660112957 	0.002273495108 	-2.06653083e-06 	0.03709157102 	-1.83644122e-06 	7.070684344e-05
0.3609204596 	0.008613617684 	0.002734270132 	-1.171796011e-06 	0.03706631105 	-1.079883081e-06 	7.065869092e-05
0.3627191701 	0.00857939764 	0.003165129519 	-4.669428093e-07 	0.03702192663 	-4.618623078e-07 	7.057408186e-05
0.3644419757 	0.008556862894 	0.003540992521 	1.026036117e-06 	0.03696380035 	-6.167136204e-07 	7.046327702e-05
0.3645511443 	0.008555406338 	0.003564869349 	-3.016997256e-08 	0.03696010152 	-2.80318076e-08 	7.045622603e-05
0.3663965782 	0.008538982666 	0.003927118929 	-4.147800959e-07 	0.03688075874 	-4.288129311e-07 	7.030497663e-05
0.3682594268 	0.008528432693 	0.004253520012 	-5.612198649e-07 	0.03678771918 	-7.127609625e-07 	7.012761738e-05
0.3701398671 	0.008521846451 	0.004545035972 	-4.660990433e-07 	0.03668331594 	-9.01811771e-07 	6.992859578e-05
0.3720380791 	0.008517582631 	0.004803043147 	-1.385089195e-07 	0.03656984272 	-1.01670544e-06 	6.971228429e-05
0.3739542458 	0.008514327201 	0.005029815322 	4.017718972e-07 	0.03644923823 	-1.076931726e-06 	6.94823786e-05
0.3758885531 	0.008511019916 	0.005228019596 	1.127470339e-06 	0.03632311902 	-1.099195295e-06 	6.924196033e-05
0.3778638087 	0.008506962753 	0.005400864239 	2.011240768e-06 	0.03619270001 	-1.097490797e-06 	6.899334546e-05
0.379884383 	0.008501835926 	0.005551575578 	2.653414636e-06 	0.03605918838 	-9.502958806e-07 	6.873883518e-05
0.3819238389 	0.008495404746 	0.005681725486 	2.744495683e-06 	0.03592472684 	-7.070857178e-07 	6.848251411e-05
0.3839823744 	0.008487690636 	0.005793587547 	2.619645857e-06 	0.03579113616 	-5.166014425e-07 	6.822785315e-05
0.3860601911 	0.008478942735 	0.005890415617 	2.316661617e-06 	0.03565937236 	-3.659754579e-07 	6.797667473e-05
0.3881574941 	0.008469422355 	0.005974823735 	1.872415345e-06 	0.03553032377 	-2.452863754e-07 	6.773067224e-05
0.390274492 	0.008459487729 	0.0060498007 	1.320981522e-06 	0.03540422268 	-1.474657618e-07 	6.749028852e-05
0.3924170564 	0.008449269422 	0.006116904583 	6.893139868e-07 	0.03528138478 	-6.689459404e-08 	6.725612535e-05
0.3945853924 	0.008439490236 	0.006177758473 	8.764365661e-09 	0.03516387344 	-2.437574913e-07 	6.703211607e-05
0.3946244435 	0.008439315701 	0.006178849479 	1.21749603e-08 	0.03516174511 	-1.086797224e-09 	6.702805887e-05
0.3968485406 	0.008429964614 	0.006236484273 	7.201859198e-07 	0.03504564135 	-5.656503354e-08 	6.680673285e-05
0.3990933791 	0.008421478783 	0.006290832615 	1.458869229e-06 	0.03493471026 	-1.021541543e-07 	6.659526736e-05
0.4013591875 	0.00841419072 	0.006343228003 	2.214346499e-06 	0.03482910428 	-1.397381897e-07 	6.639395301e-05
0.4036461983 	0.008408274965 	0.006394579188 	2.97688068e-06 	0.03472883231 	-1.707844744e-07 	6.620280676e-05
0.4059546488 	0.008403767312 	0.00644535222 	3.740040896e-06 	0.03463380662 	-1.96510643e-07 	6.602166138e-05
0.4083080945 	0.008400797438 	0.006496010377 	4.508022101e-06 	0.03454397967 	-2.177372096e-07 	6.585042625e-05
0.4107109084 	0.00839964991 	0.006547590865 	5.279436682e-06 	0.03445918731 	-2.353487027e-07 	6.568878845e-05
0.4131360043 	0.0084002749 	0.006599808026 	4.988247702e-06 	0.03437993251 	-2.06524319e-07 	6.553770678e-05
0.4155836376 	0.008402655662 	0.006652313591 	4.240261629e-06 	0.03430671356 	-1.639061661e-07 	6.53981311e-05
0.418054069 	0.008406908794 	0.006705582463 	3.49285542e-06 	0.03423934149 	-1.268748071e-07 	6.526970122e-05
0.4205475644 	0.008412973034 	0.006759634295 	2.748077105e-06 	0.03417765948 	-9.447281885e-08 	6.515211815e-05
0.4230837798 	0.008420886917 	0.006814470285 	2.000719374e-06 	0.03412170346 	-6.539015999e-08 	6.504545044e-05
0.4256746989 	0.008430903301 	0.006870868839 	1.248756734e-06 	0.03407120411 	-3.899920278e-08 	6.494918463e-05
0.4282895784 	0.008442872212 	0.006928490397 	5.032265459e-07 	0.03402626432 	-1.515716574e-08 	6.48635169e-05
0.430085928 	0.00845222385 	0.006968052913 	-2.182884333e-08 	0.0339998037 	-3.439800781e-06 	6.48130756e-05
0.4309275931 	0.008456657367 	0.006986485249 	2.312724146e-07 	0.03398725674 	-6.329555439e-09 	6.478915761e-05
0.4335878205 	0.008472453112 	0.007045418051 	9.493836273e-07 	0.03395360512 	-2.536915261e-08 	6.472500827e-05
0.4362729455 	0.008489993367 	0.007104970022 	1.66011806e-06 	0.03392568076 	-4.366915886e-08 	6.467177669e-05
0.4390226095 	0.00850961647 	0.007165792583 	2.374879196e-06 	0.03390343496 	-6.170894205e-08 	6.462937001e-05
0.4418080164 	0.008531398425 	0.007228416626 	3.083790385e-06 	0.03388636741 	-8.00044657e-08 	6.459683452e-05
0.4446192947 	0.008554922655 	0.007291658771 	3.78360047e-06 	0.03387493023 	-9.866032831e-08 	6.457503206e-05
0.447456771 	0.008580329255 	0.007355978169 	4.474357066e-06 	0.03386877634 	-1.182757964e-07 	6.456330105e-05
0.4503207787 	0.008607512094 	0.007421079193 	5.155881287e-06 	0.0338680472 	-1.391302256e-07 	6.456191109e-05
0.4532413803 	0.008636742665 	0.007487368637 	4.654456421e-06 	0.03387284578 	-1.286119712e-07 	6.457105853e-05
0.4562076383 	0.008668190433 	0.007555473156 	3.956879321e-06 	0.03388267274 	-1.127208601e-07 	6.458979145e-05
0.4592014673 	0.008701443491 	0.00762445205 	3.269353182e-06 	0.03389770881 	-9.649160446e-08 	6.461845438e-05
0.4622232313 	0.008736555351 	0.00769455909 	2.591957456e-06 	0.0339176153 	-7.969531018e-08 	6.465640168e-05
0.4652733019 	0.008773436107 	0.007765424493 	1.924586799e-06 	0.03394274638 	-6.188502731e-08 	6.470430851e-05
0.4683888986 	0.008812523757 	0.00783773427 	1.258438266e-06 	0.03397317798 	-4.234624444e-08 	6.476231958e-05
0.4715430232 	0.008853861612 	0.007911903372 	6.017381022e-07 	0.03400828564 	-2.12952009e-08 	6.482924455e-05
0.4745135296 	0.008894090345 	0.007981963871 	1.976477245e-08 	0.03404551576 	-5.493974115e-07 	6.49002155e-05
0.4747263845 	0.008896980538 	0.007986959175 	4.199761166e-08 	0.03404816583 	-1.440063033e-09 	6.490526727e-05
0.4779369786 	0.008941993223 	0.00806273453 	6.59692018e-07 	0.03409256842 	-2.395211308e-08 	6.498991095e-05
0.4811902733 	0.008988994626 	0.00813957538 	1.267973539e-06 	0.03414202587 	-4.878363434e-08 	6.508419058e-05
0.4845059799 	0.009038396622 	0.008218289236 	1.869930485e-06 	0.03419624342 	-7.627795357e-08 	6.518754432e-05
0.487852787 	0.009089894331 	0.008298502996 	2.457768167e-06 	0.03425485962 	-1.065307464e-07 	6.529928308e-05
0.4912311382 	0.009143271679 	0.008379902235 	3.031504419e-06 	0.0343176826 	-1.397539832e-07 	6.541904114e-05
0.4946429456 	0.009198589013 	0.008462287823 	3.591265892e-06 	0.03438523309 	-1.761397725e-07 	6.554781115e-05
0.498127308 	0.009256453453 	0.008546568416 	4.144006475e-06 	0.03445746779 	-2.159731847e-07 	6.568551056e-05
0.5016444901 	0.009316709055 	0.008632823803 	4.680328582e-06 	0.03453362258 	-2.596491806e-07 	6.583068277e-05
0.5051949766 	0.009378894368 	0.008720306207 	4.402458677e-06 	0.03461363712 	-2.599150907e-07 	6.598321272e-05
0.508780257 	0.009443169278 	0.008808958846 	3.84820406e-06 	0.03469799213 	-2.417324151e-07 	6.614401681e-05
0.5124376631 	0.009510157858 	0.008899640203 	3.301779261e-06 	0.03478665805 	-2.203768088e-07 	6.631303869e-05
0.5161297417 	0.009579745158 	0.008992564575 	2.77124534e-06 	0.03487869666 	-1.967411968e-07 	6.648848987e-05
0.5198570229 	0.009651377332 	0.009086749321 	2.256681128e-06 	0.03497431717 	-1.702755707e-07 	6.667076914e-05
0.523628147 	0.009725449192 	0.009182510677 	1.756626846e-06 	0.03507379523 	-1.407954169e-07 	6.686040197e-05
0.527463351 	0.00980243607 	0.009280551964 	1.269091331e-06 	0.03517686575 	-1.079543119e-07 	6.705688303e-05
0.5313352305 	0.009882123053 	0.009380863863 	7.99433603e-07 	0.03528272392 	-7.219483547e-08 	6.725867812e-05
0.5352443644 	0.009964098861 	0.009482573022 	3.476178533e-07 	0.03539183076 	-3.329861083e-08 	6.746666608e-05
0.5383963734 	0.01003156855 	0.009565078804 	2.091735109e-07 	0.03548111536 	-1.327221329e-06 	6.763686734e-05
0.5392111012 	0.010049013 	0.009586337463 	8.671939327e-08 	0.0355041707 	-8.385448632e-09 	6.768081723e-05
0.5432275581 	0.01013705219 	0.009692510727 	4.944850605e-07 	0.03561897512 	-5.073393021e-08 	6.789966636e-05
0.5472829419 	0.01022777167 	0.009800681266 	8.829173286e-07 	0.03573612131 	-9.606353201e-08 	6.812297955e-05
0.5513827524 	0.01032132823 	0.009910757952 	1.2527207e-06 	0.03585590095 	-1.444181992e-07 	6.835131284e-05
0.5555477881 	0.01041834267 	0.01002353127 	1.605252361e-06 	0.03597793373 	-1.958910572e-07 	6.858394124e-05
0.5597534302 	0.0105186365 	0.0101390228 	1.936601209e-06 	0.03610134445 	-2.501082762e-07 	6.881919637e-05
0.5640003478 	0.01062180967 	0.01025637889 	2.246957906e-06 	0.03622665634 	-3.068138314e-07 	6.905807567e-05
0.5683125441 	0.01072867486 	0.01037646498 	2.538320568e-06 	0.03635358225 	-3.661069143e-07 	6.930003173e-05
0.5726708226 	0.01083927449 	0.01049961709 	2.807595808e-06 	0.0364810796 	-4.277953179e-07 	6.954307712e-05
0.5770721925 	0.01095302575 	0.01062482434 	3.055098377e-06 	0.0366096013 	-4.916766999e-07 	6.978807518e-05
0.5815342978 	0.01107069341 	0.01075281219 	3.281669661e-06 	0.0367388261 	-5.573127712e-07 	7.003441357e-05
0.5860479421 	0.0111925263 	0.01088410061 	3.484543717e-06 	0.03686769272 	-6.238296164e-07 	7.028006916e-05
0.5906065957 	0.01131800063 	0.01101781886 	3.663685387e-06 	0.03699647407 	-6.907713177e-07 	7.052556222e-05
0.5952251617 	0.01144777028 	0.01115450428 	3.464143074e-06 	0.03712481039 	-6.873512866e-07 	7.077020691e-05
0.5998973013 	0.01158209645 	0.0112946137 	3.177692094e-06 	0.03725166243 	-6.632090607e-07 	7.101202216e-05
0.6046164761 	0.01172047408 	0.0114373051 	2.908333883e-06 	0.03737728133 	-6.379067515e-07 	7.125148669e-05
0.6093972599 	0.01186358165 	0.01158312689 	2.654665722e-06 	0.03750114206 	-6.113594192e-07 	7.148759968e-05
0.6142314654 	0.01201159765 	0.0117323761 	2.417804637e-06 	0.03762221247 	-5.842200822e-07 	7.171839351e-05
0.6191148444 	0.012164072 	0.01188424561 	2.197471467e-06 	0.03774075684 	-5.565171396e-07 	7.194437204e-05
0.6240630691 	0.01232177161 	0.0120393998 	1.992452301e-06 	0.0378559582 	-5.282926675e-07 	7.216397784e-05
0.6290633844 	0.01248460406 	0.0121977227 	1.803642835e-06 	0.0379670464 	-5.00178703e-07 	7.237574284e-05
0.6341176252 	0.01265235744 	0.01235865179 	1.630065305e-06 	0.03807407853 	-4.721226534e-07 	7.257977582e-05
0.6392357207 	0.01282523822 	0.01252235757 	1.471306306e-06 	0.03817571923 	-4.443347938e-07 	7.277353125e-05
0.6443496457 	0.01300120361 	0.012686745 	1.328723398e-06 	0.03827100277 	-4.175520652e-07 	7.295516816e-05
0.6494093653 	0.01317869985 	0.0128501674 	1.201752382e-06 	0.03835909869 	-3.919956201e-07 	7.312310346e-05
0.6544153788 	0.01335734968 	0.01301237123 	1.089480357e-06 	0.03843921893 	-3.678679214e-07 	7.327583491e-05
0.6593628846 	0.01353638786 	0.0131725178 	9.903546283e-07 	0.03851196932 	-3.451017035e-07 	7.341451738e-05
0.6642601772 	0.01371596777 	0.01333071085 	9.026146528e-07 	0.03857719753 	-3.23569988e-07 	7.353886048e-05
0.6691026176 	0.01389571262 	0.01348669946 	8.254337034e-07 	0.03863476838 	-3.03405325e-07 	7.36486065e-05
0.6738891066 	0.01407485724 	0.01363967797 	7.572857444e-07 	0.03868548982 	-2.843263012e-07 	7.374529567e-05
0.6786277074 	0.01425354118 	0.01378979987 	6.96841277e-07 	0.03872920505 	-2.661186692e-07 	7.382862905e-05
0.6833120008 	0.01443112108 	0.01393657968 	6.432925195e-07 	0.03876617171 	-2.486907992e-07 	7.389909777e-05
0.6879431659 	0.01460693582 	0.01407938589 	5.953548475e-07 	0.03879718912 	-2.316763888e-07 	7.395822559e-05
0.6925268012 	0.01478097582 	0.01421829279 	5.520946919e-07 	0.03882223137 	-2.148349391e-07 	7.400596306e-05
0.697058177 	0.01495243285 	0.01435270486 	5.127362804e-07 	0.03884188553 	-1.978903649e-07 	7.404342937e-05
0.701538554 	0.01512069864 	0.0144821262 	4.762258919e-07 	0.03885694338 	-1.803905374e-07 	7.407213382e-05
0.7059722417 	0.01528568082 	0.01460659555 	4.418115371e-07 	0.03886751879 	-1.619992982e-07 	7.409229348e-05
0.7103557504 	0.01544656605 	0.01472549698 	4.088293756e-07 	0.03887459711 	-1.423251537e-07 	7.410578673e-05
0.7146898764 	0.01560251456 	0.01483809343 	3.762128007e-07 	0.03887974987 	-1.202958007e-07 	7.411560933e-05
0.7189786441 	0.01575499233 	0.01494627053 	3.420943818e-07 	0.03887928736 	-9.370638528e-08 	7.411472764e-05
0.72321917 	0.01591505881 	0.01505968803 	3.055468497e-07 	0.03885919967 	-6.288004453e-08 	7.407643492e-05
0.7274121495 	0.01609767461 	0.01516199688 	2.691884144e-07 	0.03878078204 	-3.57592005e-08 	7.392694913e-05
0.7315603692 	0.01630258234 	0.0152487112 	2.296056468e-07 	0.03864154945 	-2.958818515e-08 	7.366153311e-05
0.7356626389 	0.0165133225 	0.01533350225 	1.95848448e-07 	0.03848096748 	-3.946457692e-08 	7.335541925e-05
0.7397191247 	0.01671666621 	0.01540741862 	1.765899196e-07 	0.03831654112 	-4.827767886e-08 	7.30419769e-05
0.7437314537 	0.01691060561 	0.01546850837 	1.669173575e-07 	0.03815262841 	-5.305021084e-08 	7.272951372e-05
0.7477000423 	0.01709573749 	0.01551770298 	1.66480615e-07 	0.03798814123 	-5.317685823e-08 	7.241595544e-05
0.7516245074 	0.01727223894 	0.01555510253 	1.741823524e-07 	0.03782223224 	-4.925146717e-08 	7.209968679e-05
0.7555055586 	0.01744060488 	0.01558172822 	1.891159741e-07 	0.03765490768 	-4.151328178e-08 	7.178071968e-05
0.7593448937 	0.01760139521 	0.0155985456 	2.103794502e-07 	0.03748595489 	-3.016770716e-08 	7.14586487e-05
0.7631416759 	0.01775493871 	0.01560608804 	2.370690645e-07 	0.03731524184 	-1.546033395e-08 	7.113322219e-05
0.7668964541 	0.01790152166 	0.01560492424 	2.68271596e-07 	0.03714301438 	2.297463707e-09 	7.080490877e-05
0.7706102984 	0.01804178228 	0.01559621527 	3.030805624e-07 	0.03696941458 	2.270528846e-08 	7.047397932e-05
0.7742836007 	0.01817620465 	0.01558070976 	3.406862511e-07 	0.03679433483 	4.539786947e-08 	7.014022864e-05
0.7779163576 	0.01830504368 	0.01555882678 	3.802799579e-07 	0.03661793041 	7.000760222e-08 	6.980395278e-05
0.7815090748 	0.01842871325 	0.01553134755 	4.210761824e-07 	0.03644052519 	9.611714047e-08 	6.946576913e-05
0.7850628227 	0.01854773981 	0.01549916262 	4.623692653e-07 	0.03626222523 	1.233320824e-07 	6.912587984e-05
0.7885775598 	0.01866247489 	0.01546280388 	5.03553629e-07 	0.03608303551 	1.51304853e-07 	6.878429445e-05
0.7920536207 	0.01877311724 	0.01542261277 	5.440384328e-07 	0.03590318729 	1.796995889e-07 	6.844145375e-05
0.7954914742 	0.01888003369 	0.01537926476 	5.832861097e-07 	0.03572296385 	2.081571115e-07 	6.809789777e-05
0.7988920361 	0.01898361887 	0.0153333993 	6.208727444e-07 	0.03554243607 	2.363816449e-07 	6.775376167e-05
0.8022552571 	0.01908410239 	0.01528534967 	6.564611336e-07 	0.03536164358 	2.641293138e-07 	6.740912093e-05
0.8055815523 	0.019181637 	0.01523537579 	6.897318103e-07 	0.03518078618 	2.911628833e-07 	6.706435644e-05
0.8088713591 	0.01927647866 	0.01518393681 	7.204259799e-07 	0.03500008549 	3.172509238e-07 	6.671989071e-05
0.8121254 	0.0193689206 	0.01513149582 	7.48382347e-07 	0.03481959831 	3.422180202e-07 	6.637583199e-05
0.8153437808 	0.01945911761 	0.01507825344 	7.735170709e-07 	0.03463934413 	3.659490603e-07 	6.603221741e-05
0.818526883 	0.01954717123 	0.0150243612 	7.957460439e-07 	0.03445945648 	3.883270242e-07 	6.568930156e-05
0.8216751167 	0.01963323447 	0.01497008068 	8.150309091e-07 	0.03428010783 	4.092494837e-07 	6.53474132e-05
0.8247890302 	0.01971752418 	0.01491574697 	8.09863935e-07 	0.03410135959 	4.175474967e-07 	6.500666936e-05
0.8278689088 	0.01980016836 	0.01486150394 	7.809070887e-07 	0.03392319508 	4.126822149e-07 	6.466703828e-05
0.8309150649 	0.01988121494 	0.01480738593 	7.502491878e-07 	0.0337456868 	4.058031098e-07 	6.432865817e-05
0.8339278849 	0.01996076182 	0.01475354141 	7.183444801e-07 	0.03356896052 	3.97186516e-07 	6.399176875e-05
0.8369077818 	0.02003894271 	0.0147001607 	6.85605034e-07 	0.03339308653 	3.871006416e-07 	6.365650406e-05
0.8398551864 	0.02011588827 	0.01464739343 	6.523529636e-07 	0.03321804526 	3.757700478e-07 	6.332282674e-05
0.8427703435 	0.02019162022 	0.0145952083 	6.188996487e-07 	0.03304385923 	3.634328674e-07 	6.299077976e-05
0.8456536179 	0.02026621562 	0.01454369487 	5.8553471e-07 	0.03287059688 	3.502964634e-07 	6.266049356e-05
0.8485053691 	0.02033972281 	0.01449288826 	5.525102872e-07 	0.03269832628 	3.365634269e-07 	6.233209792e-05
0.8513259985 	0.02041225901 	0.01444293687 	5.200315311e-07 	0.03252708359 	3.223980897e-07 	6.200566175e-05
0.8541158245 	0.02048389338 	0.01439387405 	4.882403728e-07 	0.03235683542 	3.079378981e-07 	6.168112143e-05
0.8568751499 	0.02055463039 	0.01434564396 	4.572831378e-07 	0.03218761803 	2.933265133e-07 	6.135854605e-05
0.8596043157 	0.02062454266 	0.01429832085 	4.272817198e-07 	0.03201948096 	2.786783372e-07 	6.103803006e-05
0.8623036579 	0.02069365904 	0.01425189552 	3.983331402e-07 	0.03185246665 	2.641046278e-07 	6.071965438e-05
0.8649735387 	0.02076207256 	0.01420646953 	3.705031441e-07 	0.03168660215 	2.4968496e-07 	6.040347054e-05
0.8676142563 	0.02082983096 	0.01416204114 	3.438199168e-07 	0.03152186072 	2.354810844e-07 	6.008942759e-05
0.8702261138 	0.02089693823 	0.01411855486 	3.183193632e-07 	0.03135827726 	2.215592652e-07 	5.977759204e-05
0.8728094309 	0.02096345779 	0.014076064 	2.940240699e-07 	0.03119588843 	2.079673868e-07 	5.946803379e-05
0.8753645232 	0.02102940848 	0.01403453896 	2.709437234e-07 	0.03103472588 	1.947515458e-07 	5.916081318e-05
0.8778917136 	0.02109486124 	0.01399404549 	2.490740366e-07 	0.03087482391 	1.819398636e-07 	5.885599558e-05
0.8803913039 	0.021159867 	0.01395459249 	2.283864773e-07 	0.03071616488 	1.695453422e-07 	5.855354737e-05
0.8828635786 	0.02122443024 	0.01391612254 	2.088596837e-07 	0.03055877223 	1.575861845e-07 	5.825351324e-05
0.8853088386 	0.0212886008 	0.01387866637 	1.904696166e-07 	0.03040268487 	1.460723082e-07 	5.795596735e-05
0.8877273808 	0.02135241029 	0.01384221305 	1.731867537e-07 	0.0302479206 	1.350117594e-07 	5.766094364e-05
0.8901194985 	0.02141589398 	0.01380676655 	1.569770103e-07 	0.03009451758 	1.244066498e-07 	5.736851484e-05
0.8924854916 	0.02147911367 	0.01377236715 	1.417967308e-07 	0.02994248801 	1.142493532e-07 	5.707870423e-05
0.8948256282 	0.02154209638 	0.01373898753 	1.275975503e-07 	0.02979183067 	1.04529136e-07 	5.679150946e-05
0.8971401902 	0.02160486405 	0.01370660619 	1.143382242e-07 	0.02964258113 	9.523869399e-08 	5.650699836e-05