0.4709558481 	7.021736852e-06 	-1.0191317e-07 	7.355456618e-14 	7.008373844e-06 	-3.775363178e-12 	1.335990842e-08
0.4709558481 	7.021736852e-06 	-1.0191317e-07 	7.355456618e-14 	7.008373844e-06 	-3.775363178e-12 	1.335990842e-08
0.4711314108 	7.888721561e-05 	-4.451443995e-06 	3.220257126e-12 	7.873589817e-05 	-4.243242097e-11 	1.500925054e-07
0.4713069734 	0.0004401371994 	-5.670605043e-05 	4.067238161e-11 	0.0004391552116 	-2.365694199e-10 	8.371518902e-07
0.471482536 	0.001461771423 	-0.0003301780709 	2.295081477e-10 	0.001454593504 	-7.77473018e-10 	2.772859502e-06
0.4716580986 	0.003553925528 	-0.001165636416 	7.600070765e-10 	0.00350101688 	-1.817630084e-09 	6.67391123e-06
0.4718336613 	0.006945648363 	-0.0028591668 	1.688973989e-09 	0.00670871339 	-3.278484477e-09 	1.278867231e-05
0.4720092239 	0.01143066657 	-0.005334675575 	2.778693052e-09 	0.01078133162 	-4.82348945e-09 	2.055221458e-05
0.4721847865 	0.01639725813 	-0.008155315725 	3.699328893e-09 	0.01516023605 	-6.118534315e-09 	2.889962348e-05
0.4723603491 	0.0212084443 	-0.01087104936 	4.308573152e-09 	0.01936054772 	-7.035115113e-09 	3.690658494e-05
0.4725359118 	0.02549775796 	-0.0132465208 	4.648400439e-09 	0.02312214941 	-7.607097287e-09 	4.407724325e-05
0.4727114744 	0.02916215477 	-0.01523306315 	4.809783504e-09 	0.02636840118 	-7.920797361e-09 	5.026550136e-05
0.472887037 	0.03223659686 	-0.01686763709 	4.863778582e-09 	0.02912105779 	-8.055649622e-09 	5.551282993e-05
0.4730625996 	0.03480293805 	-0.0182096175 	4.853947943e-09 	0.03144014114 	-8.069083111e-09 	5.993364735e-05
0.4732381623 	0.03694809305 	-0.01931593593 	4.804750751e-09 	0.03339334931 	-7.999085113e-09 	6.365700499e-05
0.4734137249 	0.03874923988 	-0.02023421553 	4.729493628e-09 	0.03504335337 	-7.870093249e-09 	6.680237132e-05
0.4735892875 	0.04027042551 	-0.02100235012 	4.63554152e-09 	0.03644375458 	-7.697896725e-09 	6.947192525e-05
0.4737648501 	0.04156331399 	-0.02164994674 	4.52729676e-09 	0.0376387612 	-7.492927152e-09 	7.174994e-05
0.4739404128 	0.04266912726 	-0.02220003969 	4.407725909e-09 	0.03866424057 	-7.262277837e-09 	7.37047887e-05
0.4741159754 	0.04362068029 	-0.02267059392 	4.279057858e-09 	0.03954911622 	-7.010901491e-09 	7.539160763e-05
0.474291538 	0.04444415472 	-0.02307570228 	4.143066643e-09 	0.04031670182 	-6.742325931e-09 	7.685483911e-05
0.4744671006 	0.04516053831 	-0.02342650237 	4.001175975e-09 	0.04098584044 	-6.45909802e-09 	7.813040331e-05
0.4746426632 	0.04578675641 	-0.02373186805 	3.854503204e-09 	0.04157183052 	-6.16307355e-09 	7.924746326e-05
0.4748182259 	0.0463365488 	-0.02399892861 	3.703892761e-09 	0.04208716066 	-5.855615805e-09 	8.022982573e-05
0.4749937885 	0.04682114588 	-0.02423345927 	3.549953758e-09 	0.04254208631 	-5.537736354e-09 	8.109704047e-05
0.4751693511 	0.04724979014 	-0.02444017651 	3.393101992e-09 	0.04294508115 	-5.210196135e-09 	8.186526064e-05
0.4753449137 	0.04763013889 	-0.02462296075 	3.233603264e-09 	0.04330318744 	-4.873580145e-09 	8.254791076e-05
0.4755204764 	0.04796858136 	-0.02478503726 	3.071609492e-09 	0.04362229923 	-4.528347717e-09 	8.315622652e-05
0.475696039 	0.04827045159 	-0.02492904999 	2.907206328e-09 	0.04390735349 	-4.174893147e-09 	8.369961917e-05
0.4758716016 	0.0485404767 	-0.02505758335 	2.740369656e-09 	0.04416260266 	-3.813491771e-09 	8.418619502e-05
0.4760471642 	0.04878077279 	-0.02517001188 	2.571418079e-09 	0.04439150518 	-3.444399799e-09 	8.462254685e-05
0.4762227269 	0.04903142261 	-0.02529363122 	2.369107587e-09 	0.04462438787 	-3.014745219e-09 	8.506648598e-05
0.4764955107 	0.04930282936 	-0.02542543463 	2.099316403e-09 	0.04487831525 	-2.46449509e-09 	8.555054215e-05
0.4767734216 	0.04955368054 	-0.02554029777 	1.785601795e-09 	0.04511933806 	-1.836613769e-09 	8.600999862e-05
0.4770565557 	0.04977168657 	-0.02564181101 	1.455246221e-09 	0.0453271856 	-1.181473605e-09 	8.640621378e-05
0.4773450114 	0.04995832267 	-0.02572795205 	1.109261767e-09 	0.04550565895 	-4.997741151e-10 	8.674643361e-05
0.4776388886 	0.05011753793 	-0.02580103526 	7.47374147e-10 	0.04565822553 	2.080194298e-10 	8.703726791e-05
0.4779382892 	0.05025232096 	-0.02586244465 	3.695137491e-10 	0.04578770487 	9.414698039e-10 	8.728409151e-05
0.4782433171 	0.05036526472 	-0.02591344445 	-2.439751079e-11 	0.04589653749 	1.70024786e-09 	8.749155674e-05
0.4785540779 	0.05045857998 	-0.02595509835 	-4.344318236e-10 	0.04598680167 	2.484089644e-09 	8.766362536e-05
0.4788706795 	0.05053416687 	-0.02598832152 	-8.606658183e-10 	0.04606028735 	3.292798597e-09 	8.780370949e-05
0.4791932316 	0.0505936642 	-0.02601390149 	-1.303180555e-09 	0.04611853819 	4.126236543e-09 	8.791475178e-05
0.4795218461 	0.05063849085 	-0.02603251956 	-1.762062913e-09 	0.04616289137 	4.984319613e-09 	8.799930127e-05
0.4798566368 	0.05066987948 	-0.02604476707 	-2.237405928e-09 	0.04619450873 	5.867013713e-09 	8.805957273e-05
0.48019772 	0.05068890435 	-0.02605115917 	-2.729309158e-09 	0.04621440286 	6.774330852e-09 	8.809749647e-05
0.4805452138 	0.0506965043 	-0.02605214593 	-3.237878913e-09 	0.04622345867 	7.706325672e-09 	8.811475937e-05
0.4808992388 	0.05069350192 	-0.02604812172 	-3.763228738e-09 	0.04622245137 	8.663092477e-09 	8.811283918e-05
0.4812599177 	0.05068061961 	-0.02603943292 	-4.305479763e-09 	0.04621206154 	9.644762717e-09 	8.809303328e-05
0.4816273755 	0.05065849302 	-0.02602638445 	-4.864760941e-09 	0.04619288783 	1.06515026e-08 	8.805648285e-05
0.4820017397 	0.0506276824 	-0.02600924517 	-5.441209401e-09 	0.04616545766 	1.16835108e-08 	8.800419333e-05
0.48238314 	0.0505886823 	-0.02598825255 	-6.034970707e-09 	0.04613023637 	1.274101653e-08 	8.793705176e-05
0.4827717088 	0.05054192977 	-0.02596361655 	-6.646199285e-09 	0.04608763495 	1.382427779e-08 	8.78558416e-05
0.4831675807 	0.05048781133 	-0.02593552298 	-7.275058839e-09 	0.04603801669 	1.493357974e-08 	8.776125541e-05
0.4835708931 	0.05042666908 	-0.02590413636 	-7.921722658e-09 	0.04598170291 	1.606923314e-08 	8.76539057e-05
0.4839817856 	0.0503588058 	-0.02586960238 	-8.586374466e-09 	0.04591897787 	1.723157303e-08 	8.753433433e-05
0.4844004009 	0.05028448951 	-0.02583205001 	-9.269208951e-09 	0.04585009298 	1.842095748e-08 	8.74030206e-05
0.4848268841 	0.0502039573 	-0.02579159334 	-9.970432551e-09 	0.04577527057 	1.963776658e-08 	8.726038828e-05
0.485261383 	0.05011741877 	-0.02574833319 	-1.069026471e-08 	0.04569470702 	2.088240133e-08 	8.710681177e-05
0.4857040484 	0.05002505892 	-0.02570235848 	-1.142893889e-08 	0.04560857561 	2.215528284e-08 	8.694262137e-05
0.4861550336 	0.04992704078 	-0.02565374747 	-1.218670392e-08 	0.04551702896 	2.345685148e-08 	8.6768108e-05
0.4866144951 	0.04982350764 	-0.02560256882 	-1.296382563e-08 	0.04542020116 	2.478756618e-08 	8.658352729e-05
0.4870825921 	0.04971458508 	-0.02554888252 	-1.376058854e-08 	0.04531820967 	2.61479038e-08 	8.638910317e-05
0.487559487 	0.0496003827 	-0.02549274074 	-1.457729782e-08 	0.04521115701 	2.753835855e-08 	8.618503105e-05
0.4880453452 	0.04948099567 	-0.02543418854 	-1.541428135e-08 	0.04509913221 	2.895944131e-08 	8.597148065e-05
0.4885403351 	0.04935650616 	-0.02537326455 	-1.627189208e-08 	0.04498221213 	3.04116791e-08 	8.574859847e-05
0.4890446283 	0.0492269845 	-0.02531000152 	-1.715051048e-08 	0.04486046259 	3.189561464e-08 	8.551651002e-05
0.4895583997 	0.04909249032 	-0.02524442686 	-1.805054726e-08 	0.04473393948 	3.341180582e-08 	8.52753218e-05
0.4900818274 	0.04895307352 	-0.02517656307 	-1.89724462e-08 	0.0446026896 	3.49608249e-08 	8.502512305e-05
0.4906150929 	0.04880877515 	-0.02510642818 	-1.991668699e-08 	0.04446675157 	3.654325783e-08 	8.476598739e-05
0.4911583811 	0.04865962819 	-0.02503403611 	-2.088378834e-08 	0.04432615654 	3.815970362e-08 	8.449797418e-05
0.4917118805 	0.04850565827 	-0.02495939697 	-2.18743112e-08 	0.04418092889 	3.981077343e-08 	8.422112992e-05
0.4922757829 	0.04834688434 	-0.0248825174 	-2.288886182e-08 	0.04403108686 	4.14970893e-08 	8.393548936e-05
0.4928502838 	0.04818331925 	-0.02480340081 	-2.392809488e-08 	0.04387664309 	4.321928267e-08 	8.364107661e-05
0.4934355824 	0.04801497028 	-0.02472204758 	-2.499271647e-08 	0.04371760521 	4.497799312e-08 	8.333790621e-05
0.4940318817 	0.04784183968 	-0.02463845534 	-2.608348704e-08 	0.04355397627 	4.677386635e-08 	8.302598398e-05
0.4946393885 	0.04766392509 	-0.02455261912 	-2.720122381e-08 	0.04338575527 	4.860755164e-08 	8.270530798e-05
0.4952583133 	0.04748122002 	-0.0244645315 	-2.834680292e-08 	0.04321293753 	5.047969885e-08 	8.237586934e-05
0.4958888709 	0.04729371423 	-0.02437418278 	-2.952116091e-08 	0.04303551518 	5.239095529e-08 	8.203765304e-05
0.4965312797 	0.04710139412 	-0.0242815611 	-3.072529562e-08 	0.04285347755 	5.434196158e-08 	8.169063872e-05
0.4971857627 	0.04690424311 	-0.02418665254 	-3.196026599e-08 	0.04266681154 	5.633334643e-08 	8.133480142e-05
0.4978525466 	0.04670224196 	-0.02408944122 	-3.322719069e-08 	0.04247550205 	5.836572057e-08 	8.097011236e-05
0.4985318627 	0.04649536914 	-0.02398990938 	-3.45272454e-08 	0.04227953235 	6.043967007e-08 	8.059653965e-05
0.4992239466 	0.04628360112 	-0.02388803744 	-3.586165842e-08 	0.04207888448 	6.255574798e-08 	8.021404904e-05
0.4999290382 	0.0460669127 	-0.02378380404 	-3.723170423e-08 	0.04187353962 	6.471446439e-08 	7.982260467e-05
0.5006473819 	0.0458452773 	-0.02367718608 	-3.863869479e-08 	0.04166347845 	6.691627476e-08 	7.94221697e-05
0.501379227 	0.04561866728 	-0.0235681589 	-4.008396991e-08 	0.04144868173 	6.916156806e-08 	7.901270745e-05
0.502124827 	0.04538705404 	-0.02345669569 	-4.156888138e-08 	0.04122912993 	7.145064903e-08 	7.859418069e-05
0.5028844406 	0.04515040993 	-0.0233427709 	-4.309480123e-08 	0.04100480576 	7.378373227e-08 	7.816655647e-05
0.5036583311 	0.04490869762 	-0.02322634072 	-4.466298407e-08 	0.0407756865 	7.616089527e-08 	7.772979148e-05
0.5044467669 	0.04466194612 	-0.02310746603 	-4.627536435e-08 	0.04054177292 	7.85821773e-08 	7.728388719e-05
0.5052500214 	0.04440968711 	-0.02298547503 	-4.792906652e-08 	0.04030303076 	8.104723586e-08 	7.682877828e-05
0.506068373 	0.04412129623 	-0.02284795554 	-4.986257134e-08 	0.0400281799 	8.387827775e-08 	7.630483615e-05
0.507324668 	0.04376056754 	-0.02267488172 	-5.230723658e-08 	0.03968527239 	8.739582014e-08 	7.565115912e-05
0.5085949819 	0.04335933526 	-0.02247976395 	-5.503714665e-08 	0.03930622216 	9.126309936e-08 	7.492858403e-05
0.5098794711 	0.04295372295 	-0.02228277761 	-5.783572659e-08 	0.03892266744 	9.515330348e-08 	7.419742214e-05
0.5111782938 	0.0425430985 	-0.02208288646 	-6.069501371e-08 	0.03853467901 	9.906253159e-08 	7.345780835e-05
0.5124916099 	0.04212765961 	-0.02188027199 	-6.361524917e-08 	0.03814238939 	1.029869583e-07 	7.270999531e-05
0.5138195812 	0.04170748323 	-0.02167492651 	-6.659503071e-08 	0.03774589829 	1.069223086e-07 	7.195417307e-05
0.5151623712 	0.04128266024 	-0.02146686603 	-6.963287637e-08 	0.03734532015 	1.108639664e-07 	7.11905598e-05
0.5165201452 	0.04085327805 	-0.02125609615 	-7.272697148e-08 	0.03694077057 	1.148069215e-07 	7.041937587e-05
0.5178930705 	0.04041942507 	-0.02104261921 	-7.587520565e-08 	0.03653237212 	1.187457814e-07 	6.964085491e-05
0.5192813161 	0.03998119178 	-0.02082643374 	-7.907515522e-08 	0.03612025436 	1.226747602e-07 	6.885524392e-05
0.520685053 	0.03953867198 	-0.02060753528 	-8.23240768e-08 	0.03570455564 	1.265876736e-07 	6.806280661e-05
0.522104454 	0.03909196401 	-0.02038591685 	-8.561890039e-08 	0.03528542418 	1.304779322e-07 	6.726382557e-05
0.523539694 	0.03864117173 	-0.0201615694 	-8.895622518e-08 	0.03486301933 	1.34338537e-07 	6.645860452e-05
0.5249909497 	0.03818640561 	-0.01993448224 	-9.233231734e-08 	0.03443751258 	1.381620741e-07 	6.564747039e-05
0.5264583998 	0.03772778363 	-0.01970464345 	-9.574310979e-08 	0.03400908863 	1.419407115e-07 	6.483077527e-05
0.527942225 	0.03726543221 	-0.01947204022 	-9.918420375e-08 	0.03357794634 	1.456661965e-07 	6.400889823e-05
0.5294426081 	0.03679948708 	-0.01923665922 	-1.026508721e-07 	0.03314429961 	1.493298551e-07 	6.318224704e-05
0.5309597337 	0.03633009416 	-0.01899848697 	-1.061380642e-07 	0.03270837822 	1.52922593e-07 	6.235125972e-05
0.5324937889 	0.03585741036 	-0.01875751012 	-1.096404121e-07 	0.03227042859 	1.564348996e-07 	6.151640599e-05
0.5340449624 	0.03538160443 	-0.01851371586 	-1.131522381e-07 	0.03183071442 	1.598568538e-07 	6.067818858e-05
0.5356134452 	0.03490285777 	-0.01826709212 	-1.166675634e-07 	0.03138951737 	1.631781348e-07 	5.983714438e-05
0.5371994306 	0.03442136521 	-0.018017628 	-1.201801182e-07 	0.03094713748 	1.663880346e-07 	5.899384534e-05
0.5388031139 	0.0339373359 	-0.01776531397 	-1.236833519e-07 	0.03050389361 	1.694754771e-07 	5.814889933e-05
0.5404246925 	0.03345099405 	-0.01751014223 	-1.271704448e-07 	0.03006012373 	1.72429041e-07 	5.73029506e-05
0.5420643661 	0.03296257984 	-0.01725210696 	-1.306343201e-07 	0.02961618507 	1.752369901e-07 	5.645668014e-05
0.5437223366 	0.03247235024 	-0.01699120462 	-1.340676569e-07 	0.02917245414 	1.778873085e-07 	5.561080565e-05
0.5453988083 	0.03198057993 	-0.01672743423 	-1.374629029e-07 	0.02872932655 	1.803677457e-07 	5.476608131e-05
0.5470939875 	0.03148756219 	-0.01646079762 	-1.408122883e-07 	0.02828721673 	1.826658681e-07 	5.392329712e-05
0.5488080831 	0.03099360991 	-0.01619129974 	-1.441078396e-07 	0.02784655738 	1.847691209e-07 	5.308327791e-05
0.5505413061 	0.03049905656 	-0.01591894888 	-1.473413936e-07 	0.02740779872 	1.86664899e-07 	5.224688196e-05
0.5522938699 	0.03000425729 	-0.01564375695 	-1.505046116e-07 	0.02697140758 	1.883406271e-07 	5.141499917e-05
0.5540659904 	0.02950959005 	-0.01536573973 	-1.535889947e-07 	0.02653786617 	1.89783851e-07 	5.058854873e-05
0.5558578859 	0.02901545675 	-0.0150849171 	-1.565858949e-07 	0.0261076706 	1.909823375e-07 	4.976847641e-05
0.5576697768 	0.02852228452 	-0.01480131334 	-1.594865288e-07 	0.02568132922 	1.919241801e-07 	4.895575124e-05
0.5595018865 	0.02803052701 	-0.01451495732 	-1.622819931e-07 	0.02525936061 	1.92597906e-07 	4.815136179e-05
0.5613544406 	0.02754066576 	-0.01422588282 	-1.649632765e-07 	0.02484229141 	1.929925827e-07 	4.735631198e-05
0.563227667 	0.02705321164 	-0.01393412873 	-1.675212919e-07 	0.02443065394 	1.930979202e-07 	4.657161657e-05
0.5651217966 	0.02656870622 	-0.01363973916 	-1.699469273e-07 	0.02402498366 	1.929043886e-07 	4.579829626e-05
0.5670370626 	0.0260877229 	-0.01334276349 	-1.722310962e-07 	0.0236258163 	1.924033924e-07 	4.503737232e-05
0.5689737009 	0.02561086772 	-0.01304325625 	-1.743647711e-07 	0.02323368446 	1.915875283e-07 	4.428986004e-05
0.5709319499 	0.0251387794 	-0.01274127712 	-1.763389891e-07 	0.02284911345 	1.904509036e-07 	4.355676081e-05
0.5729120508 	0.02467212862 	-0.01243689103 	-1.781448477e-07 	0.02247261627 	1.889894342e-07 	4.283905256e-05
0.5749142474 	0.02421161648 	-0.01213016833 	-1.797735248e-07 	0.02210468813 	1.872010124e-07 	4.213767926e-05
0.5769387863 	0.02375797238 	-0.01182118498 	-1.812163436e-07 	0.02174580104 	1.850854769e-07 	4.145354071e-05
0.5789859169 	0.02331195139 	-0.01151002257 	-1.824648795e-07 	0.02139639928 	1.826443922e-07 	4.078748385e-05
0.5810558911 	0.02287433142 	-0.01119676808 	-1.835110945e-07 	0.02105689616 	1.798807221e-07 	4.014029655e-05
0.583148964 	0.02244590995 	-0.01088151331 	-1.843474887e-07 	0.02072767217 	1.767985177e-07 	3.951270411e-05
0.5852653933 	0.02202750012 	-0.01056435408 	-1.849672679e-07 	0.02040907433 	1.734027375e-07 	3.890536808e-05
0.5874054395 	0.02161992555 	-0.01024538909 	-1.8536451e-07 	0.02010141618 	1.696992959e-07 	3.831888613e-05
0.5895693664 	0.0212240134 	-0.009924718729 	-1.855342723e-07 	0.01980497762 	1.656953651e-07 	3.775379186e-05
0.5917574402 	0.02084058524 	-0.009602443947 	-1.854725606e-07 	0.01952000415 	1.61399821e-07 	3.721055322e-05
0.5939699306 	0.02047044573 	-0.009278665762 	-1.851761848e-07 	0.01924670546 	1.568235585e-07 	3.668956996e-05
0.5962071099 	0.02011437014 	-0.008953485269 	-1.846427246e-07 	0.01898525432 	1.51979351e-07 	3.619117142e-05
0.5984692536 	0.01977309149 	-0.008627003407 	-1.838708437e-07 	0.01873578723 	1.468812434e-07 	3.57156178e-05
0.6007566404 	0.01944728849 	-0.008299319754 	-1.828605131e-07 	0.01849840753 	1.415438962e-07 	3.526310613e-05
0.6030695519 	0.01913757472 	-0.007970530612 	-1.816143298e-07 	0.01827319064 	1.359824923e-07 	3.483378012e-05
0.6054082729 	0.01884448908 	-0.007640727575 	-1.801397393e-07 	0.01806018998 	1.302121748e-07 	3.442774167e-05
0.6077730914 	0.01856848763 	-0.007309997078 	-1.784345733e-07 	0.01785944295 	1.24247139e-07 	3.404506203e-05
0.6101642987 	0.01830993729 	-0.006978420252 	-1.764928048e-07 	0.0176709762 	1.18103067e-07 	3.368579203e-05
0.6125821893 	0.01806911094 	-0.006646072292 	-1.743283521e-07 	0.01749481073 	1.117982733e-07 	3.334997169e-05
0.6150270608 	0.01784618442 	-0.006313021388 	-1.719557661e-07 	0.01733096642 	1.053518509e-07 	3.303763888e-05
0.6174992144 	0.01764123685 	-0.005979328299 	-1.693809869e-07 	0.01717946546 	9.878366423e-08 	3.274883596e-05
0.6199989545 	0.01745425324 	-0.005645046283 	-1.666123526e-07 	0.01704033487 	9.211502998e-08 	3.248361439e-05
0.622526589 	0.01728512949 	-0.005310220915 	-1.636588919e-07 	0.01691360783 	8.536921406e-08 	3.224203741e-05
0.625082429 	0.01713367947 	-0.004974890038 	-1.60530275e-07 	0.01679932384 	7.857159474e-08 	3.202418036e-05
0.6276667894 	0.01699964396 	-0.004639083836 	-1.572365995e-07 	0.01669752782 	7.174960288e-08 	3.183012886e-05
0.6302799884 	0.01688270095 	-0.004302825013 	-1.537882279e-07 	0.01660826813 	6.49326066e-08 	3.165997508e-05
0.6329223478 	0.01678247699 	-0.003966129069 	-1.50195641e-07 	0.01653159382 	5.815166825e-08 	3.151381254e-05
0.6355941931 	0.01669855894 	-0.003629004658 	-1.464693109e-07 	0.01646755127 	5.143918278e-08 	3.139172964e-05
0.6382958531 	0.01663050588 	-0.003291454031 	-1.426195911e-07 	0.01641618045 	4.482840922e-08 	3.129380258e-05
0.6410276607 	0.01657786071 	-0.00295347354 	-1.386566264e-07 	0.01637751105 	3.835291996e-08 	3.122008796e-05
0.6437899523 	0.016540161 	-0.002615054192 	-1.345902796e-07 	0.01635155868 	3.204599626e-08 	3.117061553e-05
0.646583068 	0.01651694902 	-0.002276182254 	-1.304300794e-07 	0.01633832131 	2.594000134e-08 	3.114538141e-05
0.6494073518 	0.01650778055 	-0.001936839881 	-1.261851857e-07 	0.01633777613 	2.006576079e-08 	3.114434216e-05
0.6522631514 	0.01651223241 	-0.001597005779 	-1.218643734e-07 	0.016349877 	1.445198407e-08 	3.116740977e-05
0.6551508186 	0.01652990871 	-0.001256655854 	-1.174760472e-07 	0.01637455236 	9.124734067e-09 	3.121444787e-05
0.658070709 	0.01656044555 	-0.0009157639692 	-1.130281643e-07 	0.016411704 	4.107032404e-09 	3.128526922e-05
0.6610231822 	0.01660351463 	-0.0005743019454 	-1.085290873e-07 	0.01646120608 	-5.816875053e-10 	3.137963394e-05
0.6640086017 	0.01665882515 	-0.0002322456305 	-1.039808972e-07 	0.01652290601 	-4.925350062e-09 	3.149725116e-05
0.6670273351 	0.01672612543 	0.0001104302 	-9.939454683e-08 	0.01659662333 	-8.911784481e-09 	3.163777685e-05
0.6700797543 	0.01680520163 	0.0004537630873 	-9.478767999e-08 	0.01668215197 	-1.253333077e-08 	3.180081823e-05
0.6731662352 	0.01689587737 	0.0007977855643 	-9.015783621e-08 	0.01677926404 	-1.578533286e-08 	3.198594081e-05
0.6762871577 	0.0169980127 	0.001142517945 	-8.550768147e-08 	0.0168877078 	-1.86670197e-08 	3.219266477e-05
0.6794429063 	0.01711150024 	0.001487981332 	-8.084956583e-08 	0.01700721197 	-2.118149426e-08 	3.242047292e-05
0.6826338695 	0.01723626247 	0.001834197044 	-7.619040685e-08 	0.01713748968 	-2.333471806e-08 	3.266881844e-05
0.6858604404 	0.01737224829 	0.002181183075 	-7.153821001e-08 	0.01727823988 	-2.513581029e-08 	3.293712745e-05
0.6891230163 	0.01751942912 	0.002528954102 	-6.690137436e-08 	0.01742915118 	-2.659646488e-08 	3.322480633e-05
0.6924219988 	0.01767779486 	0.002877521073 	-6.228889978e-08 	0.01758990485 	-2.773066863e-08 	3.353124751e-05
0.6957577944 	0.01784734974 	0.003226890906 	-5.771047354e-08 	0.01776017812 	-2.855432799e-08 	3.385583569e-05
0.6991308138 	0.01802810819 	0.003577066202 	-5.317656249e-08 	0.01793964729 	-2.908492398e-08 	3.419795381e-05
0.7025414724 	0.01822009077 	0.003928045006 	-4.869848978e-08 	0.01812799084 	-2.934117249e-08 	3.455698895e-05
0.7059901901 	0.01842332025 	0.004279820597 	-4.428849288e-08 	0.01832489231 	-2.934270639e-08 	3.493233788e-05
0.7094773917 	0.01863781789 	0.004632381306 	-3.99597613e-08 	0.01853004306 	-2.910979014e-08 	3.532341223e-05
0.7130035066 	0.0188636 	0.004985710367 	-3.572643579e-08 	0.01874314479 	-2.866304847e-08 	3.572964335e-05
0.7165689691 	0.0191006748 	0.005339785795 	-3.160359895e-08 	0.01896391174 	-2.802326005e-08 	3.615048653e-05
0.7201742182 	0.0193490396 	0.005694580287 	-2.76071145e-08 	0.01919207275 	-2.721121889e-08 	3.658542483e-05
0.7238196978 	0.01960867837 	0.006050061139 	-2.375362085e-08 	0.01942737285 	-2.624769952e-08 	3.703397221e-05
0.727505857 	0.01987955955 	0.006406190162 	-2.005993306e-08 	0.01966957516 	-2.515455544e-08 	3.749567713e-05
0.7312331497 	0.02016163496 	0.006762924351 	-1.654611157e-08 	0.01991846013 	-2.394375769e-08 	3.797012106e-05
0.7350020349 	0.02045404499 	0.007119279084 	-1.322299678e-08 	0.02017314659 	-2.264242462e-08 	3.845562424e-05
0.7387709215 	0.02075405192 	0.007472239435 	-1.012918067e-08 	0.02043121737 	-2.128834255e-08 	3.894757887e-05
0.7424982157 	0.02105867775 	0.007818890487 	-7.325214682e-09 	0.02069017754 	-1.990287959e-08 	3.944122894e-05
0.7461843763 	0.02136658828 	0.008158447781 	-4.816775907e-09 	0.02094903681 	-1.851857957e-08 	3.993468665e-05
0.7498298574 	0.02167726914 	0.00849106733 	-2.585135616e-09 	0.02120753857 	-1.715134612e-08 	4.042746284e-05
0.7534351078 	0.02199024339 	0.008816899959 	-6.232849326e-10 	0.02146546988 	-1.580329527e-08 	4.091915162e-05
0.7570005716 	0.02230507021 	0.009136092495 	1.077444561e-09 	0.02172265826 	-1.448677758e-08 	4.140942414e-05
0.7605266877 	0.02262134408 	0.009448788576 	2.527435614e-09 	0.02197896587 	-1.320901816e-08 	4.189801769e-05
0.7640138905 	0.02293869372 	0.009755129287 	3.738310259e-09 	0.02223428507 	-1.197571917e-08 	4.238472703e-05
0.7674626093 	0.02325678085 	0.01005525366 	4.723084893e-09 	0.02248853433 	-1.079070744e-08 	4.28693968e-05
0.770873269 	0.02357529884 	0.0103492991 	5.495928451e-09 	0.02274165486 	-9.6563994e-09 	4.335191489e-05
0.7742462894 	0.02389397131 	0.01063740168 	6.071962593e-09 	0.02299360752 	-8.573895776e-09 	4.383220667e-05
0.777582086 	0.02421255057 	0.01091969641 	6.46702419e-09 	0.02324437018 	-7.543158521e-09 	4.431023e-05
0.7808810695 	0.02453081611 	0.01119631743 	6.697434166e-09 	0.02349393546 	-6.563161716e-09 	4.478597079e-05
0.7841436462 	0.02484857296 	0.01146739813 	6.779770175e-09 	0.02374230866 	-5.632042813e-09 	4.525943915e-05
0.787370218 	0.02516565009 	0.01173307118 	6.730650274e-09 	0.02398950606 	-4.747250666e-09 	4.573066609e-05
0.7905611821 	0.02548189873 	0.0119934686 	6.566542118e-09 	0.02423555332 	-3.90569157e-09 	4.619970056e-05
0.7937169314 	0.02579719082 	0.01224872175 	6.303528422e-09 	0.02448048419 	-3.103864858e-09 	4.666660686e-05
0.7968378547 	0.02611141734 	0.0124989612 	5.957496343e-09 	0.02472433924 	-2.337902944e-09 	4.713146237e-05
0.7999243362 	0.02642448672 	0.01274431655 	5.545602426e-09 	0.02496716486 	-1.603558369e-09 	4.759435549e-05
0.8029767561 	0.02673632349 	0.01298491643 	5.084963059e-09 	0.02520901219 	-8.964007819e-10 	4.805538371e-05
0.8059954902 	0.0270468669 	0.01322088876 	4.589152539e-09 	0.02544993637 	-2.121013557e-10 	4.851465216e-05
0.8089809102 	0.02735606942 	0.01345236045 	4.069635361e-09 	0.02568999585 	4.534614878e-10 	4.897227225e-05
0.8119333839 	0.02766389537 	0.01367945717 	3.538042837e-09 	0.02592925163 	1.104390379e-09 	4.942836028e-05
0.8148532749 	0.02797031964 	0.01390230318 	3.005115067e-09 	0.02616776665 	1.74488978e-09 	4.988303618e-05
0.8177409426 	0.02827532649 	0.0141210212 	2.480147546e-09 	0.02640560511 	2.379025433e-09 	5.033642241e-05
0.8205967427 	0.02857890846 	0.01433573231 	1.971498909e-09 	0.02664283205 	3.010594786e-09 	5.078864289e-05
0.8234210268 	0.02888106527 	0.01454655579 	1.486591349e-09 	0.02687951274 	3.643165981e-09 	5.123982205e-05
0.8262141429 	0.02918180288 	0.01475360903 	1.031601211e-09 	0.0271157122 	4.280070031e-09 	5.169008389e-05
0.8289764348 	0.02948113251 	0.01495700734 	6.118575289e-10 	0.02735149482 	4.924401952e-09 	5.213955108e-05
0.8317082427 	0.0297790697 	0.01515686373 	2.333676108e-10 	0.02758692381 	5.578792455e-09 	5.258834418e-05
0.8344099031 	0.03007563355 	0.01535328882 	-9.789262277e-11 	0.0278220609 	6.244934234e-09 	5.303658082e-05
0.8370817486 	0.0303708461 	0.015546391 	-3.782283736e-10 	0.02805696588 	6.923645638e-09 	5.3484375e-05
0.8397241082 	0.03066473167 	0.01573627629 	-6.053488833e-10 	0.02829169623 	7.615526341e-09 	5.393183629e-05
0.8423373074 	0.03095731616 	0.01592304811 	-7.772518236e-10 	0.02852630673 	8.321183093e-09 	5.437906911e-05
0.844921668 	0.0312486265 	0.01610680729 	-8.924814499e-10 	0.02876084915 	9.040933836e-09 	5.482617215e-05
0.8474775082 	0.03153869003 	0.01628765196 	-9.500593267e-10 	0.02899537195 	9.77468196e-09 	5.527323778e-05
0.8500051427 	0.03182753408 	0.01646567751 	-9.494093265e-10 	0.02922991996 	1.052201661e-08 	5.572035148e-05
0.8525048829 	0.03211518548 	0.01664097655 	-8.903619401e-10 	0.02946453411 	1.128228516e-08 	5.616759127e-05
0.8549770366 	0.03240167016 	0.01681363884 	-7.731343099e-10 	0.02969925117 	1.205461096e-08 	5.66150272e-05
0.8574219081 	0.03268701279 	0.0169837513 	-5.98281225e-10 	0.02993410347 	1.283791798e-08 	5.706272096e-05
0.8598397987 	0.03297123639 	0.0171513979 	-3.666598714e-10 	0.03016911875 	1.363096193e-08 	5.751072541e-05
0.862231006 	0.03325436209 	0.01731665974 	-7.939674956e-11 	0.03040431993 	1.443235883e-08 	5.795908423e-05
0.8645958245 	0.03353640876 	0.01747961493 	2.621405584e-10 	0.03063972493 	1.52406145e-08 	5.840783159e-05
0.8669345455 	0.03381739283 	0.01764033866 	6.563675334e-10 	0.03087534657 	1.60541542e-08 	5.885699192e-05
0.8692474569 	0.03409732801 	0.01779890312 	1.101502799e-09 	0.03111119239 	1.687135101e-08 	5.930657961e-05
0.8715348435 	0.03437622513 	0.01795537756 	1.595584518e-09 	0.03134726463 	1.769055264e-08 	5.975659891e-05
0.8737969871 	0.03465409198 	0.01810982823 	2.136483501e-09 	0.03158356013 	1.851010608e-08 	6.02070438e-05
0.8760341663 	0.03493093313 	0.01826231847 	2.721913245e-09 	0.03182007029 	1.932838015e-08 	6.06578979e-05
0.8782466565 	0.03520674981 	0.01841290861 	3.349437381e-09 	0.03205678109 	2.014378546e-08 	6.110913447e-05
0.8804347301 	0.03548153986 	0.01856165609 	4.016475007e-09 	0.03229367311 	2.095479194e-08 	6.156071651e-05
0.8825986568 	0.03575529763 	0.01870861541 	4.720304458e-09 	0.03253072159 	2.175994371e-08 	6.201259679e-05
0.8847387028 	0.03602801396 	0.01885383821 	5.458065837e-09 	0.03276789649 	2.255787106e-08 	6.246471808e-05
0.8868551318 	0.03629967613 	0.01899737322 	6.226762814e-09 	0.03300516264 	2.334729973e-08 	6.29170133e-05
0.8889482045 	0.03657026791 	0.0191392664 	7.023264219e-09 	0.03324247984 	2.412705743e-08 	6.336940585e-05
0.8910181784 	0.03683976953 	0.01927956088 	7.844305784e-09 	0.03347980309 	2.489607733e-08 	6.382180991e-05
0.8930653087 	0.03710815781 	0.01941829704 	8.686492387e-09 	0.03371708269 	2.565339904e-08 	6.427413079e-05
0.8950898473 	0.03737540614 	0.01955551258 	9.546301071e-09 	0.03395426457 	2.639816652e-08 	6.472626536e-05
0.8970920436 	0.03764148468 	0.01969124251 	1.042008554e-08 	0.03419129042 	2.712962361e-08 	6.517810253e-05
0.8990721441 	0.03790636038 	0.01982551925 	1.13040819e-08 	0.03442809805 	2.784710667e-08 	6.562952368e-05
0.9010303927 	0.03816999717 	0.01995837269 	1.219441638e-08 	0.03466462159 	2.855003533e-08 	6.608040328e-05
0.9029670306 	0.03843235608 	0.02008983018 	1.308711495e-08 	0.03490079182 	2.923790049e-08 	6.653060938e-05
0.9048822962 	0.03869339541 	0.02021991668 	1.397811515e-08 	0.03513653647 	2.991025078e-08 	6.698000421e-05
0.9067764254 	0.03895307094 	0.02034865476 	1.48632803e-08 	0.03537178055 	3.056667716e-08 	6.74284448e-05
0.9086496514 	0.03921133606 	0.02047606469 	1.573841613e-08 	0.03560644662 	3.120679625e-08 	6.787578357e-05
0.910502205 	0.039468142 	0.0206021645 	1.659928982e-08 	0.03584045521 	3.183023274e-08 	6.832186897e-05
0.9123343142 	0.03972343803 	0.02072697005 	1.744165161e-08 	0.03607372504 	3.24366011e-08 	6.876654609e-05
0.9141462048 	0.0399771717 	0.02085049511 	1.826125891e-08 	0.03630617341 	3.302548728e-08 	6.92096573e-05
0.9159380997 	0.04022928897 	0.02097275142 	1.905390256e-08 	0.03653771653 	3.359643076e-08 	6.965104284e-05
0.9177102197 	0.0404797345 	0.02109374874 	1.981543533e-08 	0.03676826978 	3.414890734e-08 	7.009054141e-05
0.9194627831 	0.04072845183 	0.02121349495 	2.054180255e-08 	0.03699774804 	3.468231325e-08 	7.052799075e-05
0.9211960055 	0.04097538356 	0.02133199612 	2.122907401e-08 	0.03722606597 	3.519595107e-08 	7.096322819e-05
0.9229101006 	0.04122047158 	0.02144925654 	2.187347744e-08 	0.0374531383 	3.568901786e-08 	7.139609116e-05
0.9246052793 	0.04146365724 	0.02156527883 	2.247143287e-08 	0.03767888004 	3.616059592e-08 	7.182641765e-05
0.9262817504 	0.04170488152 	0.02168006398 	2.301958722e-08 	0.03790320674 	3.660964667e-08 	7.225404669e-05
0.9279397204 	0.04194408518 	0.02179361139 	2.351484907e-08 	0.03812603469 	3.703500787e-08 	7.26788187e-05
0.9295793934 	0.04218120894 	0.02190591897 	2.395442259e-08 	0.0383472811 	3.743539449e-08 	7.310057585e-05
0.9312009714 	0.04241619356 	0.02201698315 	2.433584022e-08 	0.03856686424 	3.780940328e-08 	7.351916235e-05
0.9328046541 	0.04264897995 	0.02212679893 	2.465699356e-08 	0.0387847036 	3.815552143e-08 	7.393442472e-05
0.9343906389 	0.04287950928 	0.02223535995 	2.491616167e-08 	0.03900071995 	3.847213901e-08 	7.434621192e-05
0.9359591211 	0.04310772298 	0.02234265847 	2.51120363e-08 	0.03921483543 	3.875756514e-08 	7.475437554e-05