0.4709558481 	8.36194429e-06 	-1.296546318e-07 	2.139678617e-12 	8.346027966e-06 	-9.963602397e-11 	1.590984896e-08
0.4709558481 	8.36194429e-06 	-1.296546318e-07 	2.139678617e-12 	8.346027966e-06 	-9.963602397e-11 	1.590984896e-08
0.4711314108 	9.395235856e-05 	-5.659384232e-06 	9.311519011e-11 	9.377157684e-05 	-1.120025854e-09 	1.787546879e-07
0.4713069734 	0.0005242167497 	-7.184453562e-05 	1.163744364e-09 	0.0005229967698 	-6.244963677e-09 	9.969772027e-07
0.471482536 	0.001739603466 	-0.0004145126297 	6.437528241e-09 	0.001729784732 	-2.046520272e-08 	3.297450468e-06
0.4716580986 	0.004214129803 	-0.001439785332 	2.067713765e-08 	0.00414135612 	-4.738006209e-08 	7.894575795e-06
0.4718336613 	0.008167051326 	-0.003455549623 	4.429801076e-08 	0.007855450209 	-8.414305486e-08 	1.497467141e-05
0.4720092239 	0.01327095233 	-0.006297243314 	7.039694398e-08 	0.01245883409 	-1.219492145e-07 	2.375000053e-05
0.4721847865 	0.0187680644 	-0.009421518262 	9.143538438e-08 	0.01728649836 	-1.533562918e-07 	3.29528704e-05
0.4723603491 	0.02396074634 	-0.01234214824 	1.053380796e-07 	0.02181836149 	-1.762816595e-07 	4.159186111e-05
0.4725359118 	0.02850179153 	-0.01484335185 	1.138041269e-07 	0.02580834507 	-1.919919225e-07 	4.919787876e-05
0.4727114744 	0.0323282209 	-0.01690541131 	1.189216954e-07 	0.02920722788 	-2.025066027e-07 	5.567709406e-05
0.472887037 	0.03550692849 	-0.01858557132 	1.220674897e-07 	0.03206073651 	-2.095034246e-07 	6.11166746e-05
0.4730625996 	0.03814054 	-0.01995514106 	1.240255995e-07 	0.03444598385 	-2.141489802e-07 	6.566361898e-05
0.4732381623 	0.04032885007 	-0.02107789275 	1.252384773e-07 	0.03644202953 	-2.172092033e-07 	6.946863682e-05
0.4734137249 	0.04215702013 	-0.02200543403 	1.259634205e-07 	0.03811893402 	-2.191799648e-07 	7.266528285e-05
0.4735892875 	0.04369412245 	-0.02277804176 	1.263559502e-07 	0.03953510338 	-2.203839552e-07 	7.536489526e-05
0.4737648501 	0.04499505281 	-0.02342679096 	1.265137211e-07 	0.04073790594 	-2.210343157e-07 	7.765777124e-05
0.4739404128 	0.04610316185 	-0.02397564921 	1.265002473e-07 	0.04176532433 	-2.212745888e-07 	7.961631625e-05
0.4741159754 	0.04705270231 	-0.02444319491 	1.263581693e-07 	0.04264772698 	-2.212034829e-07 	8.129842094e-05
0.474291538 	0.04787085146 	-0.02484393792 	1.26116937e-07 	0.04340943535 	-2.208903042e-07 	8.27504488e-05
0.4744671006 	0.04857930296 	-0.02518930852 	1.257974057e-07 	0.04407000996 	-2.203847069e-07 	8.400968761e-05
0.4746426632 	0.04919549356 	-0.02548839184 	1.254146712e-07 	0.04464526992 	-2.197229586e-07 	8.510629298e-05
0.4748182259 	0.04973354071 	-0.02574847339 	1.249798725e-07 	0.04514808865 	-2.189320393e-07 	8.606480523e-05
0.4749937885 	0.05020495843 	-0.02597544593 	1.245013675e-07 	0.0455890108 	-2.180323709e-07 	8.690532539e-05
0.4751693511 	0.0506192053 	-0.02617411569 	1.239855206e-07 	0.04597673085 	-2.170396701e-07 	8.764442757e-05
0.4753449137 	0.05098410536 	-0.02634843208 	1.234372338e-07 	0.04631846208 	-2.159662164e-07 	8.829586228e-05
0.4755204764 	0.05130617812 	-0.02650167412 	1.228603545e-07 	0.04662023319 	-2.148217692e-07 	8.887112188e-05
0.475696039 	0.05159085863 	-0.02663652472 	1.222577302e-07 	0.04688708776 	-2.136141287e-07 	8.937982087e-05
0.4758716016 	0.05184296504 	-0.02675561475 	1.216327591e-07 	0.04712336693 	-2.123498675e-07 	8.983023464e-05
0.4760471642 	0.05206460544 	-0.02685823759 	1.209801882e-07 	0.04733259618 	-2.110340271e-07 	9.022908374e-05
0.4762227269 	0.05229361233 	-0.02697085988 	1.202532297e-07 	0.04754231496 	-2.094801029e-07 	9.062886602e-05
0.4764955107 	0.05253676148 	-0.02708823472 	1.193009622e-07 	0.04776622309 	-2.074594809e-07 	9.105569715e-05
0.4767734216 	0.05275450897 	-0.0271859118 	1.181599997e-07 	0.04797258042 	-2.05117682e-07 	9.144907156e-05
0.4770565557 	0.05293765144 	-0.02726948992 	1.16965618e-07 	0.04814388933 	-2.026411754e-07 	9.177563397e-05
0.4773450114 	0.05308758042 	-0.02733678129 	1.157064521e-07 	0.04828399071 	-2.000325962e-07 	9.204270614e-05
0.4776388886 	0.05320827984 	-0.02739011738 	1.14383868e-07 	0.04839638928 	-1.972944063e-07 	9.225696906e-05
0.4779382892 	0.0533027505 	-0.02743087527 	1.129976408e-07 	0.04848392884 	-1.944281066e-07 	9.242384377e-05
0.4782433171 	0.05337359238 	-0.0274603137 	1.115474956e-07 	0.04854906733 	-1.914346881e-07 	9.254801584e-05
0.4785540779 	0.0534230173 	-0.02747948909 	1.100330064e-07 	0.04859389332 	-1.883146125e-07 	9.263346664e-05
0.4788706795 	0.05345292129 	-0.02748930808 	1.084536373e-07 	0.04862020128 	-1.850679147e-07 	9.268361692e-05
0.4791932316 	0.05346493447 	-0.02749054834 	1.068087448e-07 	0.04862953427 	-1.816942478e-07 	9.270140819e-05
0.4795218461 	0.05346046292 	-0.02748387997 	1.050975863e-07 	0.04862322438 	-1.781929294e-07 	9.268937979e-05
0.4798566368 	0.05344072277 	-0.02746988194 	1.033193255e-07 	0.04860242431 	-1.745629747e-07 	9.264972907e-05
0.48019772 	0.05340676834 	-0.02744905579 	1.014730375e-07 	0.04856813387 	-1.70803126e-07 	9.258436197e-05
0.4805452138 	0.05335951543 	-0.02742183692 	9.955771326e-08 	0.04852122188 	-1.669118765e-07 	9.249493467e-05
0.4808992388 	0.05329976076 	-0.02738860399 	9.757226364e-08 	0.04846244438 	-1.628874912e-07 	9.238288843e-05
0.4812599177 	0.05322819818 	-0.02734968666 	9.551552317e-08 	0.04839246 	-1.587280245e-07 	9.224947875e-05
0.4816273755 	0.0531454323 	-0.02730537214 	9.338625349e-08 	0.0483118428 	-1.54431336e-07 	9.209579996e-05
0.4820017397 	0.05305199008 	-0.0272559107 	9.11831463e-08 	0.04822109321 	-1.499951053e-07 	9.192280601e-05
0.48238314 	0.05294833055 	-0.02720152029 	8.890482612e-08 	0.04812064728 	-1.454168449e-07 	9.173132816e-05
0.4827717088 	0.0528348532 	-0.02714239051 	8.654985283e-08 	0.04801088463 	-1.406939132e-07 	9.152209004e-05
0.4831675807 	0.05271190508 	-0.02707868593 	8.411672381e-08 	0.04789213518 	-1.358235262e-07 	9.129572059e-05
0.4835708931 	0.05257978696 	-0.02701054897 	8.160387617e-08 	0.04776468505 	-1.308027705e-07 	9.105276522e-05
0.4839817856 	0.05243875856 	-0.02693810241 	7.900968865e-08 	0.04762878158 	-1.256286151e-07 	9.079369543e-05
0.4844004009 	0.05228904321 	-0.02686145148 	7.633248352e-08 	0.0474846377 	-1.202979242e-07 	9.051891713e-05
0.4848268841 	0.05213083178 	-0.0267806857 	7.357052854e-08 	0.0473324358 	-1.148074708e-07 	9.0228778e-05
0.485261383 	0.05196428615 	-0.02669588053 	7.072203908e-08 	0.04717233101 	-1.091539505e-07 	8.992357378e-05
0.4857040484 	0.0517895423 	-0.0266070987 	6.778518009e-08 	0.04700445421 	-1.033339971e-07 	8.960355394e-05
0.4861550336 	0.05160671294 	-0.02651439152 	6.475806872e-08 	0.04682891457 	-9.734419915e-08 	8.926892659e-05
0.4866144951 	0.05141588992 	-0.02641779989 	6.163877692e-08 	0.04664580187 	-9.118111758e-08 	8.891986289e-05
0.4870825921 	0.05121714632 	-0.02631735527 	5.842533464e-08 	0.04645518858 	-8.484130589e-08 	8.855650098e-05
0.487559487 	0.05101053835 	-0.02621308054 	5.511573337e-08 	0.04625713168 	-7.832133175e-08 	8.817894949e-05
0.4880453452 	0.05079610701 	-0.02610499077 	5.170793025e-08 	0.04605167435 	-7.161780131e-08 	8.778729071e-05
0.4885403351 	0.05057387965 	-0.02599309382 	4.819985307e-08 	0.04583884745 	-6.472738603e-08 	8.738158348e-05
0.4890446283 	0.05034387133 	-0.02587739102 	4.458940562e-08 	0.04561867095 	-5.764685223e-08 	8.696186588e-05
0.4895583997 	0.05010608614 	-0.02575787768 	4.087447419e-08 	0.0453911552 	-5.037309418e-08 	8.652815763e-05
0.4900818274 	0.04986051836 	-0.02563454362 	3.705293498e-08 	0.04515630215 	-4.290317115e-08 	8.608046244e-05
0.4906150929 	0.04960715356 	-0.02550737359 	3.312266251e-08 	0.04491410647 	-3.523434862e-08 	8.561877016e-05
0.4911583811 	0.04934596968 	-0.02537634769 	2.908153932e-08 	0.04466455665 	-2.736414376e-08 	8.514305885e-05
0.4917118805 	0.04907693802 	-0.02524144182 	2.492746695e-08 	0.04440763606 	-1.929037646e-08 	8.465329679e-05
0.4922757829 	0.04880002421 	-0.02510262797 	2.065837842e-08 	0.04414332397 	-1.101122654e-08 	8.41494445e-05
0.4928502838 	0.04851518919 	-0.02495987463 	1.62722524e-08 	0.04387159662 	-2.525297178e-09 	8.363145664e-05
0.4934355824 	0.04822239013 	-0.0248131471 	1.176712897e-08 	0.04359242821 	6.168314939e-09 	8.309928405e-05
0.4940318817 	0.04792158144 	-0.02466240781 	7.14112752e-09 	0.04330579199 	1.506994126e-08 	8.255287575e-05
0.4946393885 	0.04761271573 	-0.02450761667 	2.392466724e-09 	0.04301166135 	2.417925404e-08 	8.199218101e-05
0.4952583133 	0.04729574482 	-0.02434873133 	-2.480513299e-09 	0.04271001098 	3.349516979e-08 	8.141715156e-05
0.4958888709 	0.0469706208 	-0.02418570755 	-7.479326341e-09 	0.04240081804 	4.301574303e-08 	8.082774389e-05
0.4965312797 	0.04663729718 	-0.02401849948 	-1.260531265e-08 	0.04208406348 	5.273804864e-08 	8.022392165e-05
0.4971857627 	0.04629573002 	-0.02384706001 	-1.785960885e-08 	0.04175973335 	6.265805201e-08 	7.960565828e-05
0.4978525466 	0.04594587921 	-0.02367134111 	-2.324311472e-08 	0.04142782031 	7.277046683e-08 	7.897293979e-05
0.4985318627 	0.04558770983 	-0.02349129417 	-2.875645665e-08 	0.0410883252 	8.306860037e-08 	7.832576775e-05
0.4992239466 	0.04522119353 	-0.02330687034 	-3.43999479e-08 	0.0407412587 	9.354418457e-08 	7.766416253e-05
0.4999290382 	0.04484631013 	-0.02311802097 	-4.01735451e-08 	0.04038664318 	1.041871931e-07 	7.698816678e-05
0.5006473819 	0.04446304918 	-0.02292469793 	-4.607680036e-08 	0.04002451461 	1.149856437e-07 	7.629784908e-05
0.501379227 	0.04407141176 	-0.0227268542 	-5.210881154e-08 	0.03965492483 	1.259253897e-07 	7.559330825e-05
0.502124827 	0.04367141212 	-0.0225244437 	-5.826815796e-08 	0.03927794324 	1.369898796e-07 	7.487467655e-05
0.5028844406 	0.0432630809 	-0.02231742446 	-6.455286351e-08 	0.03889366077 	1.481599541e-07 	7.414212736e-05
0.5036583311 	0.04284645853 	-0.02210574359 	-7.096017887e-08 	0.038502186 	1.594135298e-07 	7.339586764e-05
0.5044467669 	0.04242165915 	-0.02188943608 	-7.748725431e-08 	0.03810366846 	1.707259996e-07 	7.263618244e-05
0.5052500214 	0.0419884165 	-0.02166795393 	-8.412647955e-08 	0.03769825682 	1.820687586e-07 	7.186335518e-05
0.506068373 	0.0414923468 	-0.02141534926 	-9.175513764e-08 	0.03723328839 	1.948528472e-07 	7.097699612e-05
0.507324668 	0.04087414422 	-0.02109842424 	-1.012101922e-07 	0.03665640353 	2.103234794e-07 	6.987729324e-05
0.5085949819 	0.04019083391 	-0.02074430708 	-1.115594257e-07 	0.03602323097 	2.267609111e-07 	6.867029037e-05
0.5098794711 	0.03950265803 	-0.02038621588 	-1.219231461e-07 	0.03538776497 	2.426207657e-07 	6.745891556e-05
0.5111782938 	0.03880980113 	-0.02002354122 	-1.322642373e-07 	0.03475086094 	2.578001106e-07 	6.624479945e-05
0.5124916099 	0.03811318105 	-0.01965667923 	-1.425487853e-07 	0.03411347882 	2.721929806e-07 	6.502977197e-05
0.5138195812 	0.03741367278 	-0.01928589128 	-1.527401465e-07 	0.03347660488 	2.856900306e-07 	6.381571324e-05
0.5151623712 	0.03671221593 	-0.01891147378 	-1.628002002e-07 	0.03284128724 	2.981804705e-07 	6.260462125e-05
0.5165201452 	0.03600980015 	-0.01853373137 	-1.726892987e-07 	0.03220862108 	3.095534134e-07 	6.13985837e-05
0.5178930705 	0.03530746735 	-0.01815298265 	-1.823665408e-07 	0.03157974823 	3.196996392e-07 	6.019977727e-05
0.5192813161 	0.03460631045 	-0.01776955955 	-1.917900607e-07 	0.03095585111 	3.285134924e-07 	5.901045595e-05
0.520685053 	0.03390747155 	-0.01738380771 	-2.009174046e-07 	0.03033814643 	3.358950027e-07 	5.783293915e-05
0.522104454 	0.03321213927 	-0.01699608616 	-2.097059783e-07 	0.02972787713 	3.417521704e-07 	5.666959625e-05
0.523539694 	0.03252154498 	-0.01660676679 	-2.181135795e-07 	0.02912630283 	3.460033899e-07 	5.552282843e-05
0.5249909497 	0.03183695806 	-0.01621623337 	-2.260989918e-07 	0.02853468881 	3.485799377e-07 	5.439504768e-05
0.5264583998 	0.03115968002 	-0.01582488018 	-2.336227928e-07 	0.02795429369 	3.494284735e-07 	5.328865327e-05
0.527942225 	0.03049103762 	-0.01543311049 	-2.406472613e-07 	0.02738635586 	3.485134359e-07 	5.220600591e-05
0.5294426081 	0.02983237474 	-0.01504133429 	-2.471383866e-07 	0.02683207926 	3.458184994e-07 	5.114940065e-05
0.5309597337 	0.02918504283 	-0.01464996487 	-2.530675557e-07 	0.02629261874 	3.413481508e-07 	5.012103897e-05
0.5324937889 	0.02855038995 	-0.0142594154 	-2.584110904e-07 	0.02576906476 	3.351300205e-07 	4.912299958e-05
0.5340449624 	0.02792974774 	-0.01387009446 	-2.631523852e-07 	0.02526242761 	3.272164878e-07 	4.815720835e-05
0.5356134452 	0.02732441642 	-0.01348240165 	-2.672816773e-07 	0.02477362114 	3.17686153e-07 	4.722540737e-05
0.5371994306 	0.02673564885 	-0.01309672475 	-2.707940863e-07 	0.02430344677 	3.066440413e-07 	4.632912434e-05
0.5388031139 	0.0261646343 	-0.01271343726 	-2.736898942e-07 	0.02385257994 	2.942184108e-07 	4.546964684e-05
0.5404246925 	0.025612483 	-0.0123328952 	-2.759758432e-07 	0.0234215612 	2.805549795e-07 	4.464800534e-05
0.5420643661 	0.02508021194 	-0.0119554325 	-2.776670668e-07 	0.02301079269 	2.658106738e-07 	4.386496638e-05
0.5437223366 	0.0245687316 	-0.01158135502 	-2.7878859e-07 	0.0226205386 	2.501490339e-07 	4.312103362e-05
0.5453988083 	0.02407883292 	-0.01121093438 	-2.793753605e-07 	0.0222509277 	2.337378484e-07 	4.241645252e-05
0.5470939875 	0.02361117394 	-0.01084440247 	-2.794698767e-07 	0.02190195611 	2.167481319e-07 	4.175121567e-05
0.5488080831 	0.0231662682 	-0.01048195016 	-2.791180784e-07 	0.02157349041 	1.993530421e-07 	4.112506876e-05
0.5505413061 	0.02274447631 	-0.01012372962 	-2.783668947e-07 	0.02126527314 	1.817235691e-07 	4.053752099e-05
0.5522938699 	0.02234599982 	-0.009769853987 	-2.77265024e-07 	0.02097693251 	1.640216032e-07 	3.99878636e-05
0.5540659904 	0.02197088049 	-0.009420396337 	-2.758641106e-07 	0.02070799648 	1.463945135e-07 	3.947519677e-05
0.5558578859 	0.02161900459 	-0.009075389696 	-2.742174415e-07 	0.02045790934 	1.289722241e-07 	3.899846119e-05
0.5576697768 	0.02129011105 	-0.008734828173 	-2.723772669e-07 	0.02022604859 	1.118661203e-07 	3.855647016e-05
0.5595018865 	0.02098380271 	-0.008398669811 	-2.703932094e-07 	0.02001174111 	9.516880728e-08 	3.814794054e-05
0.5613544406 	0.02069956004 	-0.008066839941 	-2.683115631e-07 	0.01981427852 	7.895428657e-08 	3.777152195e-05
0.563227667 	0.02043675689 	-0.007739234764 	-2.661746831e-07 	0.01963293144 	6.32786564e-08 	3.742582402e-05
0.5651217966 	0.02019467757 	-0.007415725175 	-2.640204472e-07 	0.01946696243 	4.818130311e-08 	3.710944095e-05
0.5670370626 	0.01997253481 	-0.007096160744 	-2.618819045e-07 	0.01931563731 	3.368646382e-08 	3.682097321e-05
0.5689737009 	0.01976948759 	-0.006780373721 	-2.597871078e-07 	0.01917823488 	1.980502843e-08 	3.6559046e-05
0.5709319499 	0.01958465848 	-0.006468182949 	-2.577591083e-07 	0.01905405489 	6.536458934e-09 	3.632232443e-05
0.5729120508 	0.01941714977 	-0.006159397606 	-2.558160859e-07 	0.01894242435 	-6.129276992e-09 	3.610952558e-05
0.5749142474 	0.01926605825 	-0.005853820685 	-2.539715878e-07 	0.0188427023 	-1.820983739e-08 	3.591942765e-05
0.5769387863 	0.01913048806 	-0.005551252164 	-2.52234847e-07 	0.01875428325 	-2.97287589e-08 	3.575087636e-05
0.5789859169 	0.01900956175 	-0.005251491846 	-2.506111564e-07 	0.01867659923 	-4.071386748e-08 	3.560278902e-05
0.5810558911 	0.01890242941 	-0.004954341834 	-2.491022728e-07 	0.01860912091 	-5.119586636e-08 	3.547415659e-05
0.583148964 	0.01880827585 	-0.004659608648 	-2.477068337e-07 	0.01855135777 	-6.120710731e-08 	3.536404399e-05
0.5852653933 	0.0187263261 	-0.004367104999 	-2.464207698e-07 	0.01850285747 	-7.078054199e-08 	3.527158894e-05
0.5874054395 	0.01865584928 	-0.004076651223 	-2.452377013e-07 	0.01846320471 	-7.99488439e-08 	3.519599977e-05
0.5895693664 	0.01859616104 	-0.003788076416 	-2.441493097e-07 	0.01843201955 	-8.874368754e-08 	3.513655218e-05
0.5917574402 	0.01854662486 	-0.003501219287 	-2.431456787e-07 	0.01840895539 	-9.719516924e-08 	3.509258547e-05
0.5939699306 	0.01850665234 	-0.003215928764 	-2.422156024e-07 	0.01839369668 	-1.053313536e-07 	3.506349813e-05
0.5962071099 	0.01847570257 	-0.002932064384 	-2.413468585e-07 	0.01838595646 	-1.131779305e-07 	3.504874313e-05
0.5984692536 	0.01845328102 	-0.002649496493 	-2.405264476e-07 	0.01838547382 	-1.207579671e-07 	3.504782307e-05
0.6007566404 	0.01843893779 	-0.002368106292 	-2.397408001e-07 	0.01839201118 	-1.28091747e-07 	3.50602851e-05
0.6030695519 	0.0184322656 	-0.002087785745 	-2.389759539e-07 	0.01840535175 	-1.351966613e-07 	3.508571593e-05
0.6054082729 	0.01843289748 	-0.001808437381 	-2.382177015e-07 	0.01842529687 	-1.420872161e-07 	3.512373688e-05
0.6077730914 	0.01844050432 	-0.001529974015 	-2.374517232e-07 	0.01845166351 	-1.487748617e-07 	3.517399903e-05
0.6101642987 	0.01845479227 	-0.001252318384 	-2.366636684e-07 	0.01848428186 	-1.552688343e-07 	3.523617867e-05
0.6125821893 	0.01847550023 	-0.0009754027515 	-2.358393067e-07 	0.01852299299 	-1.615742808e-07 	3.530997284e-05
0.6150270608 	0.01850239712 	-0.000699168659 	-2.349640718e-07 	0.01856764721 	-1.677008278e-07 	3.539509619e-05
0.6174992144 	0.01853527959 	-0.0004235649977 	-2.340263685e-07 	0.0186181007 	-1.736241429e-07 	3.549127456e-05
0.6199989545 	0.01857396967 	-0.0001485635189 	-2.32983286e-07 	0.01867421251 	-1.793806914e-07 	3.559823927e-05
0.622526589 	0.01861831241 	0.0001258676808 	-2.318463231e-07 	0.01873585014 	-1.849743613e-07 	3.571573773e-05
0.625082429 	0.01866817108 	0.00039978596 	-2.306595834e-07 	0.01880288195 	-1.903255909e-07 	3.584351899e-05
0.6276667894 	0.01872342854 	0.0006732128487 	-2.293498735e-07 	0.01887517074 	-1.954887675e-07 	3.598132151e-05
0.6302799884 	0.01878398501 	0.0009461472454 	-2.278819693e-07 	0.01895258515 	-2.004608153e-07 	3.612889489e-05
0.6329223478 	0.01884975331 	0.001218599026 	-2.262771646e-07 	0.01903499169 	-2.051954379e-07 	3.628598467e-05
0.6355941931 	0.01892065916 	0.001490572119 	-2.245199228e-07 	0.01912225146 	-2.097050463e-07 	3.645232603e-05
0.6382958531 	0.01899663831 	0.001762066151 	-2.225998795e-07 	0.01921422524 	-2.139724253e-07 	3.662765363e-05
0.6410276607 	0.0190776353 	0.002033076624 	-2.205068321e-07 	0.01931077029 	-2.179859639e-07 	3.681169533e-05
0.6437899523 	0.01916360189 	0.002303595456 	-2.182313049e-07 	0.01941174068 	-2.217322837e-07 	3.700417296e-05
0.646583068 	0.01925449552 	0.002573611406 	-2.157645589e-07 	0.01951698718 	-2.25198319e-07 	3.720480203e-05
0.6494073518 	0.01935027808 	0.002843110531 	-2.130986402e-07 	0.01962635738 	-2.283707216e-07 	3.741329203e-05
0.6522631514 	0.01945091462 	0.00311207661 	-2.102264546e-07 	0.01973969593 	-2.312361987e-07 	3.76293468e-05
0.6551508186 	0.01955637228 	0.003380491575 	-2.071418372e-07 	0.01985684485 	-2.337816092e-07 	3.785266521e-05
0.658070709 	0.01966661933 	0.003648335922 	-2.038396327e-07 	0.01997764398 	-2.359941069e-07 	3.808294192e-05
0.6610231822 	0.01978162433 	0.003915589113 	-2.0031578e-07 	0.02010193145 	-2.378612485e-07 	3.831986839e-05
0.6640086017 	0.01990135539 	0.004182229964 	-1.965674016e-07 	0.02022954432 	-2.393710971e-07 	3.856313398e-05
0.6670273351 	0.02002577958 	0.004448237027 	-1.925928984e-07 	0.02036031918 	-2.405123117e-07 	3.881242721e-05
0.6700797543 	0.02015486245 	0.004713588953 	-1.883920459e-07 	0.02049409285 	-2.412742293e-07 	3.906743701e-05
0.6731662352 	0.02028856771 	0.00497826484 	-1.839660922e-07 	0.02063070312 	-2.416469385e-07 	3.932785416e-05
0.6762871577 	0.02042685696 	0.005242244573 	-1.793178548e-07 	0.02076998949 	-2.416213462e-07 	3.959337268e-05
0.6794429063 	0.02056968961 	0.005505509134 	-1.744518137e-07 	0.02091179391 	-2.411892398e-07 	3.986369132e-05
0.6826338695 	0.02071702284 	0.005768040897 	-1.693741977e-07 	0.02105596159 	-2.403433458e-07 	4.013851499e-05
0.6858604404 	0.02086881171 	0.006029823897 	-1.640930615e-07 	0.02120234176 	-2.390773855e-07 	4.041755628e-05
0.6891230163 	0.02102500934 	0.006290844065 	-1.586183491e-07 	0.02135078844 	-2.373861299e-07 	4.070053691e-05
0.6924219988 	0.02118556722 	0.006551089438 	-1.529619387e-07 	0.02150116119 	-2.35265453e-07 	4.098718917e-05
0.6957577944 	0.0213504355 	0.006810550324 	-1.471376673e-07 	0.02165332589 	-2.327123861e-07 	4.127725738e-05
0.6991308138 	0.02151956343 	0.007069219421 	-1.411613272e-07 	0.02180715543 	-2.297251706e-07 	4.157049924e-05
0.7025414724 	0.02169289983 	0.007327091898 	-1.350506315e-07 	0.02196253045 	-2.263033112e-07 	4.186668721e-05
0.7059901901 	0.02187039357 	0.007584165408 	-1.288251435e-07 	0.02211934 	-2.224476282e-07 	4.21656098e-05
0.7094773917 	0.02205199412 	0.007840440054 	-1.225061644e-07 	0.02227748223 	-2.181603071e-07 	4.246707284e-05
0.7130035066 	0.02223765208 	0.008095918289 	-1.16116575e-07 	0.022436865 	-2.134449456e-07 	4.27709007e-05
0.7165689691 	0.02242731972 	0.008350604749 	-1.096806271e-07 	0.0225974065 	-2.083065954e-07 	4.307693741e-05
0.7201742182 	0.02262095157 	0.008604506032 	-1.032236804e-07 	0.02275903579 	-2.027517968e-07 	4.338504777e-05
0.7238196978 	0.02281850492 	0.008857630381 	-9.677188121e-08 	0.02292169331 	-1.967886079e-07 	4.36951182e-05
0.727505857 	0.02301994038 	0.009109987406 	-9.035177832e-08 	0.02308533154 	-1.904266331e-07 	4.400705816e-05
0.7312331497 	0.02322522222 	0.009361587301 	-8.39899169e-08 	0.02324991546 	-1.836769939e-07 	4.432080084e-05
0.7350020349 	0.02343376235 	0.009611788396 	-7.772855708e-08 	0.02341498573 	-1.765715755e-07 	4.463547067e-05
0.7387709215 	0.02364372916 	0.009858549682 	-7.16418788e-08 	0.02357914462 	-1.691904144e-07 	4.494840313e-05
0.7424982157 	0.02385325714 	0.01009992752 	-6.57957132e-08 	0.02374103508 	-1.616224153e-07 	4.525701134e-05
0.7461843763 	0.02406170107 	0.01033547931 	-6.021312649e-08 	0.02390029085 	-1.539164097e-07 	4.55605971e-05
0.7498298574 	0.0242689867 	0.01056541636 	-5.489701954e-08 	0.02405699255 	-1.460994245e-07 	4.585931409e-05
0.7534351078 	0.02447505414 	0.01078993839 	-4.984711333e-08 	0.02421122796 	-1.381959977e-07 	4.615332966e-05
0.7570005716 	0.02467985657 	0.01100923425 	-4.506027789e-08 	0.02436309045 	-1.302283254e-07 	4.644282177e-05
0.7605266877 	0.02488335911 	0.01122348289 	-4.053090247e-08 	0.02451267732 	-1.222163659e-07 	4.672797593e-05
0.7640138905 	0.02508553782 	0.01143285415 	-3.625125209e-08 	0.02466008883 	-1.141779603e-07 	4.700898322e-05
0.7674626093 	0.02528637877 	0.01163750964 	-3.22118096e-08 	0.02480542715 	-1.061289644e-07 	4.728603846e-05
0.770873269 	0.02548587727 	0.01183760356 	-2.84015978e-08 	0.02494879569 	-9.808338727e-08 	4.755933875e-05
0.7742462894 	0.02568403713 	0.01203328345 	-2.48084789e-08 	0.02509029841 	-9.005352958e-08 	4.782908226e-05
0.777582086 	0.02588087009 	0.01222469095 	-2.141942926e-08 	0.02523003934 	-8.205012002e-08 	4.809546731e-05
0.7808810695 	0.02607639522 	0.01241196247 	-1.822078835e-08 	0.02536812219 	-7.408244724e-08 	4.83586916e-05
0.7841436462 	0.02627063851 	0.01259522983 	-1.51984815e-08 	0.02550465007 	-6.615848516e-08 	4.861895169e-05
0.787370218 	0.02646363238 	0.01277462087 	-1.233821744e-08 	0.02563972527 	-5.828501082e-08 	4.887644255e-05
0.7905611821 	0.02665541528 	0.01295025994 	-9.625660783e-09 	0.0257734491 	-5.046771387e-08 	4.913135735e-05
0.7937169314 	0.02684603138 	0.0131222684 	-7.04658119e-09 	0.02590592187 	-4.271129734e-08 	4.938388726e-05
0.7968378547 	0.02703553021 	0.01329076506 	-4.586980803e-09 	0.02603724278 	-3.501956973e-08 	4.963422142e-05
0.7999243362 	0.02722396632 	0.01345586652 	-2.233201282e-09 	0.02616751001 	-2.739552848e-08 	4.988254696e-05
0.8029767561 	0.02741139903 	0.01361768754 	2.798706155e-11 	0.02629682073 	-1.984143569e-08 	5.012904913e-05
0.8059954902 	0.02759789211 	0.01377634132 	2.209312658e-09 	0.0264252712 	-1.235888647e-08 	5.037391143e-05
0.8089809102 	0.02778351349 	0.01393193974 	4.322944503e-09 	0.02655295687 	-4.948870817e-09 	5.061731581e-05
0.8119333839 	0.027968335 	0.01408459356 	6.380446472e-09 	0.02667997254 	2.388170131e-09 	5.085944298e-05
0.8148532749 	0.02815243209 	0.0142344126 	8.39274285e-09 	0.02680641248 	9.652292492e-09 	5.110047264e-05
0.8177409426 	0.02833588353 	0.01438150588 	1.037009308e-08 	0.0269323706 	1.684400177e-08 	5.134058383e-05
0.8205967427 	0.02851877119 	0.01452598173 	1.232207435e-08 	0.02705794063 	2.396420784e-08 	5.157995521e-05
0.8234210268 	0.02870117969 	0.01466794785 	1.425757099e-08 	0.02718321629 	3.101418195e-08 	5.181876544e-05
0.8262141429 	0.02888319618 	0.01480751141 	1.618476921e-08 	0.02730829148 	3.799551494e-08 	5.205719351e-05
0.8289764348 	0.02906491005 	0.01494477904 	1.811115665e-08 	0.02743326043 	4.49100759e-08 	5.229541907e-05
0.8317082427 	0.02924641265 	0.01507985685 	2.004352531e-08 	0.02755821791 	5.175997085e-08 	5.253362274e-05
0.8344099031 	0.029427797 	0.01521285044 	2.198797746e-08 	0.02768325936 	5.854750078e-08 	5.27719865e-05
0.8370817486 	0.02960915757 	0.01534386486 	2.394993409e-08 	0.02780848106 	6.527511882e-08 	5.301069387e-05
0.8397241082 	0.02979058998 	0.01547300458 	2.593414513e-08 	0.02793398029 	7.19453861e-08 	5.324993028e-05
0.8423373074 	0.02997219072 	0.01560037344 	2.794470104e-08 	0.02805985542 	7.856092628e-08 	5.348988327e-05
0.844921668 	0.03015405694 	0.01572607456 	2.998504556e-08 	0.02818620604 	8.512437862e-08 	5.373074266e-05
0.8474775082 	0.03033628619 	0.01585021031 	3.205798942e-08 	0.02831313303 	9.163834959e-08 	5.397270078e-05
0.8500051427 	0.03051897616 	0.01597288218 	3.416572472e-08 	0.02844073862 	9.810536324e-08 	5.42159525e-05
0.8525048829 	0.03070222446 	0.01609419072 	3.630983957e-08 	0.02856912644 	1.045278104e-07 	5.446069538e-05
0.8549770366 	0.03088612838 	0.01621423543 	3.84913335e-08 	0.02869840154 	1.109078968e-07 	5.470712964e-05
0.8574219081 	0.0310707847 	0.01633311461 	4.071063306e-08 	0.0288286703 	1.172475912e-07 	5.495545811e-05
0.8598397987 	0.03125628946 	0.01645092532 	4.296760754e-08 	0.02896004046 	1.235485726e-07 	5.520588615e-05
0.862231006 	0.03144273774 	0.01656776321 	4.52615852e-08 	0.02909262099 	1.29812178e-07 	5.545862149e-05
0.8645958245 	0.03163022351 	0.01668372238 	4.759136953e-08 	0.02922652197 	1.360393509e-07 	5.571387397e-05
0.8669345455 	0.03181883936 	0.0167988953 	4.995525591e-08 	0.02936185444 	1.4223059e-07 	5.597185528e-05
0.8692474569 	0.03200867638 	0.01691337264 	5.235104847e-08 	0.02949873024 	1.483859006e-07 	5.623277858e-05
0.8715348435 	0.03219982394 	0.01702724311 	5.477607714e-08 	0.02963726172 	1.545047469e-07 	5.649685809e-05
0.8737969871 	0.03239236946 	0.01714059338 	5.722721523e-08 	0.02977756156 	1.605860066e-07 	5.676430858e-05
0.8760341663 	0.03258639828 	0.01725350788 	5.970089724e-08 	0.02991974241 	1.666279292e-07 	5.703534479e-05
0.8782466565 	0.03278199343 	0.01736606864 	6.219313715e-08 	0.03006391657 	1.726280963e-07 	5.731018082e-05
0.8804347301 	0.03297923539 	0.01747835518 	6.469954737e-08 	0.03021019566 	1.785833867e-07 	5.758902941e-05
0.8825986568 	0.03317820194 	0.01759044434 	6.721535809e-08 	0.03035869015 	1.844899445e-07 	5.787210119e-05
0.8847387028 	0.03337896785 	0.01770241007 	6.973543746e-08 	0.030509509 	1.903431525e-07 	5.815960383e-05
0.8868551318 	0.03358160471 	0.01781432333 	7.225431237e-08 	0.03066275911 	1.961376103e-07 	5.845174114e-05
0.8889482045 	0.03378618063 	0.01792625191 	7.476619045e-08 	0.03081854489 	2.018671171e-07 	5.874871213e-05
0.8910181784 	0.03399275995 	0.01803826022 	7.726498285e-08 	0.03097696767 	2.075246618e-07 	5.905070998e-05
0.8930653087 	0.03420140299 	0.01815040919 	7.974432806e-08 	0.03113812518 	2.131024174e-07 	5.9357921e-05
0.8950898473 	0.03441216568 	0.01826275602 	8.219761718e-08 	0.03130211096 	2.185917435e-07 	5.967052346e-05
0.8970920436 	0.03462509927 	0.01837535411 	8.461802031e-08 	0.03146901371 	2.239831948e-07 	5.998868649e-05
0.8990721441 	0.03484024994 	0.01848825278 	8.699851478e-08 	0.03163891674 	2.292665383e-07 	6.031256888e-05
0.9010303927 	0.03505765842 	0.0186014972 	8.933191283e-08 	0.03181189724 	2.344307756e-07 	6.064231779e-05
0.9029670306 	0.03527735965 	0.01871512817 	9.161090149e-08 	0.03198802569 	2.394641797e-07 	6.097806758e-05
0.9048822962 	0.03549938227 	0.01882918199 	9.382802647e-08 	0.03216736517 	2.443543251e-07 	6.131993847e-05
0.9067764254 	0.03572374829 	0.01894369028 	9.59760053e-08 	0.03234997068 	2.490881719e-07 	6.166803533e-05
0.9086496514 	0.03595047247 	0.01905867966 	9.804759211e-08 	0.03253588848 	2.536521335e-07 	6.202244633e-05
0.910502205 	0.03617956201 	0.01917417182 	1.000348491e-07 	0.03272515545 	2.580319784e-07 	6.238324178e-05
0.9123343142 	0.03641101637 	0.01929018373 	1.019298883e-07 	0.03291779844 	2.622130405e-07 	6.275047285e-05
0.9141462048 	0.03664482649 	0.01940672712 	1.037256006e-07 	0.03311383364 	2.661804323e-07 	6.312417043e-05
0.9159380997 	0.03688097432 	0.0195238082 	1.054149459e-07 	0.03331326597 	2.699189767e-07 	6.350434388e-05
0.9177102197 	0.03711943247 	0.01964142783 	1.069908321e-07 	0.0335160885 	2.734133223e-07 	6.389098e-05
0.9194627831 	0.03736016381 	0.01975958135 	1.084464238e-07 	0.03372228198 	2.766480886e-07 	6.428404208e-05
0.9211960055 	0.0376031211 	0.01987825857 	1.097751447e-07 	0.03393181429 	2.796079772e-07 	6.468346889e-05
0.9229101006 	0.03784824661 	0.01999744372 	1.109707309e-07 	0.03414464006 	2.822779026e-07 	6.508917396e-05
0.9246052793 	0.03809547182 	0.0201171154 	1.120272749e-07 	0.0343607003 	2.846431239e-07 	6.550104484e-05
0.9262817504 	0.03834471715 	0.02023724661 	1.129392716e-07 	0.03457992212 	2.866893827e-07 	6.591894255e-05
0.9279397204 	0.03859589176 	0.02035780479 	1.13701662e-07 	0.03480221846 	2.884030426e-07 	6.634270116e-05
0.9295793934 	0.03884889338 	0.0204787518 	1.143098769e-07 	0.03502748801 	2.897712322e-07 	6.677212753e-05
0.9312009714 	0.0391036082 	0.02060004404 	1.147598766e-07 	0.03525561511 	2.907819843e-07 	6.720700119e-05
0.9328046541 	0.03935991085 	0.02072163253 	1.150481936e-07 	0.0354864698 	2.914243817e-07 	6.764707439e-05
0.9343906389 	0.03961766446 	0.020843463 	1.151719555e-07 	0.0357199079 	2.916886761e-07 	6.80920723e-05