5.827988603e-37 	0.01840176989 	-7.534076794e-16 	-7.218789816e-20 	-1.240788183e-15 	-5.417398201e-17 	-2.365287136e-18
0.0003175062146 	0.01839560019 	2.649545868e-05 	7.249103268e-09 	0.02097108404 	1.569498463e-07 	3.997671479e-05
0.0006350119567 	0.01839410251 	-4.779107989e-05 	8.172787065e-09 	0.02105877841 	1.511115796e-07 	4.014388463e-05
0.000952517226 	0.0183978869 	-9.372047047e-05 	9.289413145e-09 	0.02106936699 	1.423515289e-07 	4.016406941e-05
0.001270022022 	0.01839783618 	-0.000138572723 	1.044598537e-08 	0.02108624852 	1.336663887e-07 	4.01962503e-05
0.001587526343 	0.01839951795 	-0.0001817126514 	1.147910009e-08 	0.02108972548 	1.24448668e-07 	4.020287836e-05
0.00190503019 	0.01840145927 	-0.0002240755041 	1.232096216e-08 	0.02109353292 	1.15186432e-07 	4.021013639e-05
0.002222533562 	0.01840380521 	-0.0002659628707 	1.293584954e-08 	0.02109716884 	1.058882792e-07 	4.021706747e-05
0.002540036458 	0.01840649041 	-0.00030756184 	1.33043229e-08 	0.021101283 	9.659243008e-08 	4.02249102e-05
0.002857538879 	0.01840953853 	-0.0003489834556 	1.341494815e-08 	0.02110574508 	8.731313353e-08 	4.023341617e-05
0.003175040824 	0.01841294345 	-0.0003903019715 	1.326094315e-08 	0.02111063285 	7.806993538e-08 	4.024273361e-05
0.003492542292 	0.01841670308 	-0.0004315692718 	1.283837415e-08 	0.02111596871 	6.888054788e-08 	4.025290523e-05
0.003810043283 	0.0184208136 	-0.0004728238401 	1.214520831e-08 	0.0211217766 	5.976234304e-08 	4.026397669e-05
0.004127543797 	0.01842527164 	-0.0005140954205 	1.118075428e-08 	0.02112806882 	5.073207238e-08 	4.027597141e-05
0.004445043835 	0.0184300736 	-0.0005554079261 	9.945322098e-09 	0.02113485481 	4.18060661e-08 	4.028890739e-05
0.004762543395 	0.01843521574 	-0.0005967812034 	8.440003566e-09 	0.02114214158 	3.300022963e-08 	4.030279801e-05
0.005080042477 	0.0184406942 	-0.0006382321856 	6.666524664e-09 	0.02114993488 	2.433004354e-08 	4.031765421e-05
0.005397541083 	0.01844650501 	-0.0006797756581 	4.627141786e-09 	0.02115823952 	1.58105439e-08 	4.033348515e-05
0.005715039211 	0.01845264407 	-0.0007214247837 	2.324565631e-09 	0.02116705968 	7.456298911e-09 	4.035029883e-05
0.006004330093 	0.01845853297 	-0.0007594806426 	-5.976765158e-09 	0.02117556923 	-4.286183317e-06 	4.03665204e-05
0.006032536862 	0.01845910748 	-0.0007631913597 	2.332626428e-10 	0.02117639969 	6.941847326e-10 	4.036810349e-05
0.006350034036 	0.01846589356 	-0.0008050852157 	2.995400512e-09 	0.02118626814 	8.400867525e-09 	4.03869155e-05
0.006667530732 	0.01847299524 	-0.000847117555 	6.005451089e-09 	0.0211966624 	1.59011506e-08 	4.040672985e-05
0.006985026952 	0.01848040824 	-0.0008892978419 	9.259484851e-09 	0.02120758533 	2.318269283e-08 	4.042755198e-05
0.007302522695 	0.01848812826 	-0.0009316349916 	1.275332867e-08 	0.02121903965 	3.023377476e-08 	4.04493871e-05
0.007620017961 	0.0184961509 	-0.000974137441 	1.648259078e-08 	0.02123102808 	3.704332172e-08 	4.047224037e-05
0.007937512752 	0.01850447172 	-0.00101681331 	2.044267992e-08 	0.02124355303 	4.360091824e-08 	4.049611642e-05
0.008255007066 	0.01851308622 	-0.00105966955 	2.4628857e-08 	0.0212566149 	4.989678423e-08 	4.052101598e-05
0.008572500905 	0.01852199073 	-0.001102720223 	2.90359177e-08 	0.02127020594 	5.592162842e-08 	4.054692427e-05
0.008889994269 	0.01853117611 	-0.001145910315 	3.366170273e-08 	0.02128433412 	6.166700667e-08 	4.057385651e-05
0.009207487159 	0.01854065554 	-0.001189809308 	3.847113743e-08 	0.02129906394 	6.712645393e-08 	4.060193563e-05
0.009524979574 	0.01855224577 	-0.001248805674 	4.311829212e-08 	0.02131690362 	7.208987189e-08 	4.063594303e-05
0.01001828869 	0.01856849926 	-0.001336076791 	4.941103693e-08 	0.02134115692 	7.976151374e-08 	4.068217656e-05
0.01052086838 	0.01858863282 	-0.001437894494 	5.55370249e-08 	0.02137037671 	8.667508361e-08 	4.07378776e-05
0.01103289283 	0.01861113704 	-0.001541103833 	6.179785359e-08 	0.02140232601 	9.297445716e-08 	4.079878185e-05
0.01155453952 	0.01863607299 	-0.001645727819 	6.821073745e-08 	0.02143706034 	9.861389138e-08 	4.086499514e-05
0.01208598924 	0.01866351263 	-0.001751861141 	7.478319953e-08 	0.02147464197 	1.035479152e-07 	4.093663616e-05
0.01262742622 	0.01869352731 	-0.001859580241 	8.152378296e-08 	0.0215151628 	1.077327067e-07 	4.101388012e-05
0.0131790381 	0.01872619187 	-0.001968954295 	8.844096254e-08 	0.02155870643 	1.111249963e-07 	4.109688638e-05
0.01374101608 	0.01876158312 	-0.002080045818 	9.554348691e-08 	0.02160535641 	1.13682444e-07 	4.118581421e-05
0.01431355495 	0.01879977953 	-0.00219291178 	1.028405135e-07 	0.02165519549 	1.153637752e-07 	4.128082135e-05
0.01489685313 	0.01884086085 	-0.002307604515 	1.103417453e-07 	0.02170830605 	1.161289654e-07 	4.138206485e-05
0.01549111281 	0.01888490793 	-0.002424172467 	1.180575473e-07 	0.02176476958 	1.159393885e-07 	4.148970003e-05
0.01609653995 	0.0189320025 	-0.002542660811 	1.259990482e-07 	0.02182466636 	1.147579706e-07 	4.160387993e-05
0.01671334439 	0.01898222707 	-0.002663111996 	1.3417823e-07 	0.02188807517 	1.125493384e-07 	4.172475476e-05
0.01734173992 	0.01903566475 	-0.002785566097 	1.426080102e-07 	0.02195507282 	1.092799484e-07 	4.18524709e-05
0.01798194434 	0.01909239915 	-0.002910061873 	1.513022698e-07 	0.02202573463 	1.049182438e-07 	4.198717194e-05
0.01863417954 	0.01915251363 	-0.003036631235 	1.602762986e-07 	0.02210013294 	9.943468652e-08 	4.21289958e-05
0.01929867158 	0.01921609749 	-0.003165352348 	1.695430965e-07 	0.02217834078 	9.28021132e-08 	4.227808167e-05
0.01997565077 	0.01928329291 	-0.003296355658 	1.791271395e-07 	0.0222604983 	8.498222954e-08 	4.243469674e-05
0.02066768552 	0.01935429226 	-0.003429815232 	1.890777719e-07 	0.02234680085 	7.603091438e-08 	4.259921338e-05
0.02137441278 	0.0194291978 	-0.003565835138 	1.994141947e-07 	0.02243731441 	6.59022427e-08 	4.277175739e-05
0.02209442101 	0.0195079992 	-0.003704236236 	2.101498843e-07 	0.02253197993 	5.452264317e-08 	4.295221619e-05
0.02282795976 	0.01959072789 	-0.003844890627 	2.213127683e-07 	0.02263079452 	4.188212994e-08 	4.314058426e-05
0.02357528328 	0.01967747174 	-0.003987857302 	2.329291394e-07 	0.02273381006 	2.796301374e-08 	4.333696052e-05
0.02433665058 	0.01976831443 	-0.004133165011 	2.450292786e-07 	0.02284107294 	1.274923449e-08 	4.354143337e-05
0.02511232553 	0.0198633397 	-0.004280845643 	2.576450032e-07 	0.02295262719 	-3.773807587e-09 	4.375408678e-05
0.02590257696 	0.01996263102 	-0.004430930472 	2.708099578e-07 	0.02306851233 	-2.161938478e-08 	4.397499607e-05
0.02670767878 	0.02006627152 	-0.004583450683 	2.845596012e-07 	0.0231887642 	-4.079957008e-08 	4.420422954e-05
0.02752790999 	0.02017434392 	-0.004738437326 	2.989312121e-07 	0.02331341468 	-6.132539474e-08 	4.4441848e-05
0.02836355489 	0.02028693054 	-0.00489592135 	3.139638847e-07 	0.02344249177 	-8.320701272e-08 	4.468790481e-05
0.02921490307 	0.02040411325 	-0.005055933604 	3.296985147e-07 	0.02357601953 	-1.064538715e-07 	4.494244584e-05
0.0300822496 	0.02052597345 	-0.005218504832 	3.461777759e-07 	0.02371401809 	-1.310748902e-07 	4.520550944e-05
0.03096589507 	0.02065259203 	-0.005383665656 	3.634460888e-07 	0.02385650363 	-1.570786445e-07 	4.547712649e-05
0.03186614572 	0.0207840493 	-0.005551446546 	3.815495775e-07 	0.0240034884 	-1.844735532e-07 	4.575732032e-05
0.03278331355 	0.02092042498 	-0.005721877786 	4.005360178e-07 	0.02415498076 	-2.13268064e-07 	4.604610686e-05
0.0337177164 	0.02106179814 	-0.00589498942 	4.204547736e-07 	0.02431098516 	-2.434708391e-07 	4.634349461e-05
0.03466967812 	0.02120824705 	-0.006070811201 	4.413567234e-07 	0.02447150219 	-2.750909405e-07 	4.664948467e-05
0.0356395286 	0.0213598492 	-0.006249372487 	4.445527161e-07 	0.0246365285 	-2.956730241e-07 	4.696407069e-05
0.03662760396 	0.02151668109 	-0.006430702384 	4.372837725e-07 	0.02480605714 	-3.080749261e-07 	4.728723939e-05
0.03763424661 	0.0216788177 	-0.006614827819 	4.295911394e-07 	0.02498007753 	-3.185637194e-07 	4.761897062e-05
0.03865980541 	0.02184633687 	-0.006801789903 	4.214257451e-07 	0.02515857499 	-3.271216962e-07 	4.795923639e-05
0.03970463577 	0.02201937467 	-0.006991684194 	4.12741364e-07 	0.02534159878 	-3.337430526e-07 	4.83081306e-05
0.04077060729 	0.02219822791 	-0.00718471762 	4.034680786e-07 	0.02552937393 	-3.383728977e-07 	4.866608222e-05
0.04186083131 	0.02238313628 	-0.007381167883 	3.934706364e-07 	0.02572201609 	-3.408768323e-07 	4.903331173e-05
0.04297154247 	0.02257394304 	-0.007580806862 	3.827925982e-07 	0.02591925139 	-3.414166529e-07 	4.940929702e-05
0.0441031257 	0.02277050716 	-0.007783350858 	3.713659891e-07 	0.02612085138 	-3.399545243e-07 	4.979360265e-05
0.04525597319 	0.02297290771 	-0.007988880581 	3.591255899e-07 	0.02632678179 	-3.364786464e-07 	5.018616324e-05
0.04643048445 	0.02318120207 	-0.008197408772 	3.4600698e-07 	0.02653699731 	-3.309778378e-07 	5.058689244e-05
0.04762706653 	0.0233954462 	-0.008408954363 	3.319436837e-07 	0.0267514517 	-3.234404241e-07 	5.099570213e-05
0.04884613412 	0.02361569213 	-0.008623533136 	3.168676901e-07 	0.02697009227 	-3.138544296e-07 	5.141249181e-05
0.05008810971 	0.02384198752 	-0.008841158866 	3.007096202e-07 	0.02719286218 	-3.022072924e-07 	5.183715319e-05
0.05135342369 	0.02407437512 	-0.009061842858 	2.833989564e-07 	0.02741969968 	-2.884857539e-07 	5.22695685e-05
0.05264251458 	0.02431289221 	-0.009285593787 	2.648642844e-07 	0.02765053787 	-2.726757552e-07 	5.270961025e-05
0.0539558291 	0.02455756996 	-0.009512417465 	2.450335541e-07 	0.02788530445 	-2.547623796e-07 	5.315714059e-05
0.0552938224 	0.02480843283 	-0.009742316638 	2.238343623e-07 	0.02812392119 	-2.347298547e-07 	5.361201043e-05
0.05665695814 	0.02506549756 	-0.009975290247 	2.011942426e-07 	0.02836630459 	-2.125615373e-07 	5.407406055e-05
0.05804570871 	0.0253287754 	-0.0102113391 	1.770409567e-07 	0.02861236265 	-1.882402648e-07 	5.45431156e-05
0.05946055538 	0.02559832868 	-0.01045052386 	1.51303216e-07 	0.02886205011 	-1.617499173e-07 	5.501908929e-05
0.06090309821 	0.0258744505 	-0.01069302368 	1.238860889e-07 	0.02911555961 	-1.330408889e-07 	5.550234887e-05
0.06237874525 	0.02615740818 	-0.01093911073 	9.457405591e-08 	0.02937300098 	-1.019324344e-07 	5.599310367e-05
0.06388212204 	0.02648448331 	-0.01122078463 	6.364263958e-08 	0.02966736992 	-6.882433918e-08 	5.655425268e-05
0.06619002591 	0.02689427004 	-0.01156975903 	1.332189056e-08 	0.03003132789 	-1.445100424e-08 	5.724805774e-05
0.06678384734 	0.02700958547 	-0.01166667461 	3.139201893e-07 	0.03013224806 	-7.37165933e-06 	5.744043963e-05
0.06852367151 	0.02734749137 	-0.0119506557 	4.035351741e-08 	0.03042796847 	-4.391961795e-08 	5.800416492e-05
0.07088334596 	0.02780680747 	-0.01233129566 	9.747961385e-08 	0.03082372687 	-1.061568665e-07 	5.875859043e-05
0.07326933955 	0.02827172754 	-0.01271163371 	1.579992728e-07 	0.03121815555 	-1.720181195e-07 	5.951048111e-05
0.07568194585 	0.02874168066 	-0.0130914456 	2.218708496e-07 	0.0316107683 	-2.413222351e-07 	6.025891014e-05
0.07812146167 	0.02921611521 	-0.01347056743 	2.890254946e-07 	0.03200109586 	-3.138743032e-07 	6.100298296e-05
0.08058818714 	0.02969484919 	-0.01384900614 	3.593926028e-07 	0.0323890117 	-3.894815267e-07 	6.174245835e-05
0.08309238433 	0.03017788564 	-0.01422704996 	4.331554589e-07 	0.03277443031 	-4.68164823e-07 	6.247717335e-05
0.08562559683 	0.03066417006 	-0.01460413291 	5.098765312e-07 	0.03315643174 	-5.493864887e-07 	6.320537425e-05
0.08818706658 	0.03115244389 	-0.01497940197 	5.893347633e-07 	0.03353403083 	-6.328044541e-07 	6.392518306e-05
0.0907771088 	0.03164201026 	-0.01535258451 	6.713300262e-07 	0.03390661668 	-7.180875885e-07 	6.463543525e-05
0.0933960422 	0.03213216177 	-0.01572336055 	7.556396291e-07 	0.03427359462 	-8.048727349e-07 	6.53349972e-05
0.09604418905 	0.0326221718 	-0.01609140386 	8.420159814e-07 	0.03463435082 	-8.927580715e-07 	6.602269878e-05
0.09872187523 	0.03311137036 	-0.01645642917 	9.301878992e-07 	0.0349883079 	-9.813055436e-07 	6.669743935e-05
0.1014313185 	0.03359941801 	-0.01681835474 	1.019951891e-06 	0.03533513922 	-1.070089924e-06 	6.735859625e-05
0.1041800627 	0.03408588138 	-0.0171771289 	9.855495748e-07 	0.035674359 	-1.027684375e-06 	6.800524344e-05
0.106959471 	0.03456937902 	-0.01753194583 	9.190574162e-07 	0.0360048569 	-9.519661291e-07 	6.863526428e-05
0.1097698855 	0.03504858065 	-0.01788198305 	8.494367095e-07 	0.03632561274 	-8.73444686e-07 	6.924671407e-05
0.1126116522 	0.03552261139 	-0.01822684852 	7.769237962e-07 	0.03663586131 	-7.925081063e-07 	6.983813407e-05
0.1154851208 	0.0359905245 	-0.01856606394 	7.017841255e-07 	0.03693481122 	-7.095902165e-07 	7.040801568e-05
0.1183906449 	0.03645139025 	-0.0188991754 	6.243080529e-07 	0.03722166838 	-6.251705269e-07 	7.095484516e-05
0.1213295478 	0.03690455029 	-0.0192258785 	5.447939016e-07 	0.03749582275 	-5.397370553e-07 	7.147745959e-05
0.1243110401 	0.03734933699 	-0.01954595485 	4.632805744e-07 	0.03775656292 	-4.53527519e-07 	7.197450283e-05
0.1273257958 	0.03778418914 	-0.01985850134 	3.805760096e-07 	0.03800267886 	-3.676634869e-07 	7.24436682e-05
0.130374186 	0.03820755216 	-0.02016255648 	2.97101372e-07 	0.03823302889 	-2.828329927e-07 	7.288277939e-05
0.133456586 	0.03861829388 	-0.02045754564 	2.133203304e-07 	0.03844666186 	-1.997803133e-07 	7.32900232e-05
0.1365733751 	0.03901521063 	-0.02074281823 	1.297373048e-07 	0.03864260608 	-1.193039788e-07 	7.366354735e-05
0.1397249371 	0.03939718322 	-0.02101775577 	4.690088306e-08 	0.03881994202 	-4.225550075e-08 	7.400159893e-05
0.1415500185 	0.03960644139 	-0.02116874953 	3.985796942e-06 	0.0389101732 	-1.336238229e-05 	7.417360465e-05
0.1429174396 	0.0397632112 	-0.02128186596 	3.452654728e-08 	0.0389777469 	-3.028504815e-08 	7.430241889e-05
0.1461502511 	0.04011187449 	-0.02153436465 	1.136026452e-07 	0.03911489332 	-9.701081182e-08 	7.45638581e-05
0.1494191327 	0.04044140839 	-0.02177415733 	1.897342289e-07 	0.03923018036 	-1.571446446e-07 	7.478362724e-05
0.1527244868 	0.04075024987 	-0.02200031937 	2.621443483e-07 	0.03932249756 	-2.096251654e-07 	7.495960948e-05
0.1560667204 	0.04103693288 	-0.02221200442 	3.299925688e-07 	0.03939078358 	-2.533549687e-07 	7.50897816e-05
0.159446245 	0.04129998662 	-0.02240833237 	3.923709187e-07 	0.03943398981 	-2.872010743e-07 	7.51721447e-05
0.1628683426 	0.04153799729 	-0.02258849335 	4.483922802e-07 	0.03945103974 	-3.100354723e-07 	7.520464659e-05
0.1663338415 	0.04174928861 	-0.02275149077 	4.969155026e-07 	0.0394408098 	-3.206037803e-07 	7.518514549e-05
0.1698380093 	0.04193193363 	-0.02289608853 	5.366920129e-07 	0.03940223609 	-3.177101959e-07 	7.511161328e-05
0.1733812778 	0.04208414302 	-0.02302115856 	5.665480227e-07 	0.03933433867 	-3.002757742e-07 	7.498218192e-05
0.176964083 	0.04220419906 	-0.02312563081 	5.852417225e-07 	0.03923619002 	-2.672730645e-07 	7.479508332e-05
0.1805868662 	0.04229034853 	-0.02320838529 	5.914626579e-07 	0.03910685394 	-2.177237157e-07 	7.454853281e-05
0.1842579471 	0.04234082821 	-0.02326833211 	5.838803522e-07 	0.03894537568 	-1.506620287e-07 	7.424071036e-05
0.1879717484 	0.04235374567 	-0.02330423972 	5.450527979e-07 	0.03875106431 	-6.35930578e-08 	7.387029888e-05
0.1917269919 	0.04232724362 	-0.0233148445 	4.359170115e-07 	0.0385234508 	3.194298517e-08 	7.343640426e-05
0.1955241403 	0.04225962843 	-0.02329902749 	3.332685228e-07 	0.03826214788 	1.151716924e-07 	7.293828828e-05
0.1993636609 	0.04214920176 	-0.0232556421 	2.383612895e-07 	0.03796684226 	1.849315604e-07 	7.237535369e-05
0.2032506276 	0.04199429937 	-0.02318357868 	1.52436388e-07 	0.03763727618 	2.401938006e-07 	7.174710915e-05
0.2071854895 	0.04179343712 	-0.02308181675 	7.690729764e-08 	0.03727359517 	2.800070987e-07 	7.105383205e-05
0.2111642629 	0.041545441 	-0.02294947849 	1.320102128e-08 	0.03687647073 	3.036200723e-07 	7.02968025e-05
0.215187438 	0.04124942359 	-0.022785879 	-3.740434577e-08 	0.0364468077 	3.106085078e-07 	6.947774534e-05
0.21925551 	0.04090467374 	-0.02259044325 	-7.377306667e-08 	0.03598564452 	3.009185172e-07 	6.859864015e-05
0.2233732865 	0.04051070439 	-0.02236273117 	-9.495829375e-08 	0.03549421914 	2.74838172e-07 	6.766184679e-05
0.2275412826 	0.04006766878 	-0.02210268651 	-1.002297195e-07 	0.03497441476 	2.332189392e-07 	6.667095517e-05
0.2317557942 	0.03957658286 	-0.02181078364 	-8.925987251e-08 	0.03442883521 	1.774705143e-07 	6.563092891e-05
0.2360173403 	0.03903905875 	-0.02148787906 	-6.225424406e-08 	0.03386037755 	1.094978579e-07 	6.454729062e-05
0.2403264456 	0.03845708794 	-0.02113505462 	-1.998856559e-08 	0.03327202824 	3.177973956e-08 	6.342573331e-05
0.2420006484 	0.03821779979 	-0.02098881074 	1.279341915e-05 	0.0330399076 	-2.022256716e-05 	6.298324685e-05
0.244689849 	0.0378332559 	-0.02075377363 	-3.790092966e-08 	0.03266700237 	5.371601277e-08 	6.227238585e-05
0.2491037402 	0.03717151795 	-0.02034635499 	-1.082664372e-07 	0.03204937166 	1.425548915e-07 	6.109501005e-05
0.2535668929 	0.03647677137 	-0.01991570462 	-1.869563321e-07 	0.03142355814 	2.301469978e-07 	5.990203555e-05
0.2580798568 	0.03575435695 	-0.01946502517 	-2.703056571e-07 	0.03079381245 	3.124719314e-07 	5.870156523e-05
0.2626453758 	0.03500991868 	-0.01899772018 	-3.542705717e-07 	0.03016416473 	3.856259428e-07 	5.750128168e-05
0.2672670702 	0.03424971134 	-0.01851760559 	-4.343819829e-07 	0.02953867179 	4.459688684e-07 	5.630891829e-05
0.2719403471 	0.03348075361 	-0.01802899448 	-5.05966828e-07 	0.02892154406 	4.902807554e-07 	5.513250131e-05
0.2766657819 	0.03270991278 	-0.01753612194 	-5.648633389e-07 	0.02831646399 	5.162929872e-07 	5.397905051e-05
0.2814442057 	0.03194332702 	-0.01704280172 	-6.074747321e-07 	0.02772622668 	5.227246697e-07 	5.285389416e-05
0.2862825281 	0.03118656418 	-0.01655253373 	-6.310765834e-07 	0.02715298747 	5.092680495e-07 	5.176114091e-05
0.2911748521 	0.03044507165 	-0.0160687643 	-6.337904959e-07 	0.02659874008 	4.76320469e-07 	5.070459134e-05
0.2961217801 	0.02972326541 	-0.01559427905 	-6.150815986e-07 	0.02606473149 	4.253355992e-07 	4.968662255e-05
0.3011239213 	0.02902413933 	-0.01513094161 	-5.754989134e-07 	0.02555127146 	3.583908826e-07 	4.870782502e-05
0.3061879732 	0.02834962162 	-0.01467989498 	-5.165890419e-07 	0.02505810008 	2.780297337e-07 	4.776770329e-05
0.311308694 	0.02770117551 	-0.01424193932 	-4.405977687e-07 	0.02458487578 	1.869680507e-07 	4.686560625e-05
0.3164865689 	0.02707928702 	-0.01381717583 	-3.116435255e-07 	0.02413081532 	7.830595512e-08 	4.600004082e-05
0.3217227834 	0.02648340623 	-0.01340494736 	-1.953744659e-07 	0.02369465474 	-1.25587036e-08 	4.516859751e-05
0.3270225453 	0.02591243396 	-0.0130041415 	-9.694054827e-08 	0.02327500227 	-8.477901418e-08 	4.436862327e-05
0.3323814607 	0.02536523188 	-0.01261353622 	-1.638514048e-08 	0.02287067256 	-1.39775124e-07 	4.359785847e-05
0.3378001894 	0.02484031445 	-0.01223158452 	4.699314847e-08 	0.02248040586 	-1.792248188e-07 	4.285390168e-05
0.3432813453 	0.02433592796 	-0.01185645271 	9.440654957e-08 	0.02210288392 	-2.049169348e-07 	4.213423994e-05
0.3488268273 	0.02385046864 	-0.01148631156 	1.274013409e-07 	0.02173699987 	-2.186831927e-07 	4.143676324e-05
0.3544342057 	0.02338264078 	-0.01111945785 	1.477092408e-07 	0.02138192156 	-2.22294359e-07 	4.075988529e-05
0.3601041707 	0.02293123711 	-0.01075414786 	1.571056728e-07 	0.02103687706 	-2.173733004e-07 	4.010213457e-05
0.36584116 	0.02249523294 	-0.01038865178 	1.573241019e-07 	0.02070120291 	-2.053983229e-07 	3.946224636e-05
0.3716430054 	0.02207409817 	-0.01002150916 	1.500450353e-07 	0.02037455474 	-1.877808557e-07 	3.883956414e-05
0.3775096083 	0.02166760757 	-0.009651388172 	1.367331385e-07 	0.0200567328 	-1.657010246e-07 	3.823370719e-05
0.3834432946 	0.02127574754 	-0.009277007377 	1.186709497e-07 	0.01974760371 	-1.401965564e-07 	3.764442124e-05
0.3894456619 	0.02089885859 	-0.00889727828 	9.70218446e-08 	0.01944722153 	-1.122506633e-07 	3.707180931e-05
0.3955150249 	0.02053765511 	-0.008511387354 	7.281738512e-08 	0.01915583917 	-8.27190761e-08 	3.651635354e-05
0.4016524908 	0.02019303692 	-0.008118635341 	4.686290742e-08 	0.01887375044 	-5.236669995e-08 	3.597861403e-05
0.4078616799 	0.0198661606 	-0.00771830712 	1.986381072e-08 	0.01860145378 	-2.18706561e-08 	3.545954091e-05
0.4124308776 	0.01964230133 	-0.007421061592 	6.179614768e-06 	0.01841104705 	-6.422981114e-06 	3.509657276e-05
0.4141401731 	0.01955855805 	-0.007309867918 	7.562535394e-09 	0.01833981835 	-8.205593045e-09 	3.496079106e-05
0.4204887431 	0.01927179729 	-0.006892936346 	3.503952732e-08 	0.01808974455 	-3.741198057e-08 	3.448408089e-05
0.42691107 	0.01900739814 	-0.006467168534 	6.203558445e-08 	0.01785215494 	-6.510186398e-08 	3.403116906e-05
0.433405319 	0.01876697846 	-0.006032415923 	8.811045092e-08 	0.0176282076 	-9.073517429e-08 	3.36042632e-05
0.4399720525 	0.01855209332 	-0.005588589244 	1.12947135e-07 	0.01741917889 	-1.139095603e-07 	3.320579638e-05
0.4466144165 	0.0183641726 	-0.005135604988 	1.362242564e-07 	0.01722645948 	-1.342370029e-07 	3.283841962e-05
0.4533313103 	0.01820456249 	-0.004673575813 	1.575951602e-07 	0.01705162336 	-1.51342481e-07 	3.250513338e-05
0.4601231728 	0.01807442584 	-0.004202665029 	1.768227309e-07 	0.01689632513 	-1.650086248e-07 	3.220909178e-05
0.4669929419 	0.01797471738 	-0.00372303874 	1.936520906e-07 	0.01676226531 	-1.750600007e-07 	3.195353652e-05
0.4739396403 	0.0179062166 	-0.003235051424 	2.078188235e-07 	0.01665120004 	-1.81389945e-07 	3.174181523e-05
0.4809639189 	0.01786948241 	-0.002739090886 	2.191688742e-07 	0.01656482785 	-1.84069994e-07 	3.157716584e-05
0.4880685652 	0.01786484408 	-0.002235553544 	2.275281011e-07 	0.01650473748 	-1.832365101e-07 	3.146261689e-05
0.4952525067 	0.01789224859 	-0.001726173974 	2.327943564e-07 	0.01647239494 	-1.791836789e-07 	3.140096302e-05
0.5024368632 	0.0179505539 	-0.001215956673 	2.349114004e-07 	0.01646864212 	-1.724220269e-07 	3.13938091e-05
0.5095432156 	0.01803729113 	-0.0007099484155 	2.338887036e-07 	0.01649301954 	-1.635097299e-07 	3.144027925e-05
0.5165711572 	0.01814960461 	-0.0002100470325 	2.299698373e-07 	0.01654423138 	-1.531508885e-07 	3.153790324e-05
0.5235220957 	0.01828471824 	0.0002832123682 	2.23491505e-07 	0.01662056923 	-1.421025338e-07 	3.168342439e-05
0.5303971102 	0.01844001803 	0.0007695125995 	2.146852919e-07 	0.016720076 	-1.307797646e-07 	3.187311196e-05
0.5371962645 	0.0186131387 	0.001248422218 	2.037760176e-07 	0.01684076496 	-1.196442177e-07 	3.210317866e-05
0.5439209063 	0.01880204574 	0.001719525769 	1.910654409e-07 	0.01698056961 	-1.091133135e-07 	3.236968517e-05
0.5505718664 	0.01900500142 	0.0021825293 	1.76841236e-07 	0.01713743745 	-9.935990774e-08 	3.266871888e-05
0.557149437 	0.01922049736 	0.00263718627 	1.613987477e-07 	0.01730943795 	-9.055636373e-08 	3.299659964e-05
0.5636548124 	0.01944722897 	0.003083367764 	1.450108709e-07 	0.01749475802 	-8.278169318e-08 	3.33498712e-05
0.5700888185 	0.01968403208 	0.003520973351 	1.279149565e-07 	0.01769172701 	-7.605038193e-08 	3.372534884e-05
0.5764518278 	0.01992984946 	0.003949914182 	1.103548838e-07 	0.01789880954 	-7.034577054e-08 	3.412010571e-05
0.5827448459 	0.02018373557 	0.004370191701 	9.254783148e-08 	0.01811462228 	-6.561590693e-08 	3.453150477e-05
0.5889688121 	0.02044482516 	0.004781829816 	7.467958873e-08 	0.01833792808 	-6.177814463e-08 	3.495718768e-05
0.5951240983 	0.0207123123 	0.005184846831 	5.692957917e-08 	0.01856761645 	-5.874445673e-08 	3.539503755e-05
0.6012115237 	0.02098547065 	0.005579328292 	3.945096118e-08 	0.0188027127 	-5.641871781e-08 	3.584319635e-05
0.6072321764 	0.02126363682 	0.005965386454 	2.237045e-08 	0.01904237019 	-5.469672456e-08 	3.630005013e-05
0.6131863918 	0.02154618477 	0.006343115848 	5.802045252e-09 	0.01928584217 	-5.348018396e-08 	3.67641754e-05
0.6190749025 	0.02183254727 	0.006712645776 	-1.016189715e-08 	0.0195324871 	-5.26782315e-08 	3.723434919e-05
0.6248987045 	0.02212221535 	0.007074142585 	-2.545214595e-08 	0.01978176325 	-5.220360791e-08 	3.770953881e-05
0.630658315 	0.02241470992 	0.007427754928 	-4.001131813e-08 	0.02003320434 	-5.197577403e-08 	3.818885542e-05
0.6363543676 	0.02270959015 	0.007773631439 	-5.379871409e-08 	0.02028641472 	-5.192866666e-08 	3.867154477e-05
0.6419876414 	0.02300646891 	0.008111960533 	-6.679496255e-08 	0.02054106929 	-5.200403214e-08 	3.915698715e-05
0.647558927 	0.0233049901 	0.00844292299 	-7.898821855e-08 	0.02079690039 	-5.214955369e-08 	3.964467234e-05
0.6530687325 	0.02360482046 	0.008766682482 	-9.037894995e-08 	0.02105368257 	-5.232574833e-08 	4.013417055e-05
0.6585177359 	0.02390566529 	0.009083418729 	-9.975340951e-08 	0.02131123508 	-5.186369471e-08 	4.062513722e-05
0.6639067345 	0.02420726624 	0.009393325034 	-1.077425149e-07 	0.02156941811 	-5.11930827e-08 	4.111730583e-05
0.669236321 	0.02450938145 	0.009696576638 	-1.148650523e-07 	0.02182811905 	-5.054364358e-08 	4.161046171e-05
0.6745070939 	0.02481178809 	0.009993337512 	-1.21207776e-07 	0.02208724829 	-4.990653883e-08 	4.210443407e-05
0.6797197019 	0.02511429492 	0.01028378693 	-1.268571338e-07 	0.02234674097 	-4.927991342e-08 	4.259909924e-05
0.6848749064 	0.0254167314 	0.01056810203 	-1.319016014e-07 	0.0226065523 	-4.866990761e-08 	4.309437184e-05
0.6899732317 	0.0257189341 	0.01084644031 	-1.364276855e-07 	0.02286664712 	-4.808956128e-08 	4.359018487e-05
0.6950152948 	0.02602075336 	0.01111895218 	-1.405132655e-07 	0.02312700017 	-4.755541168e-08 	4.408649014e-05
0.7000017166 	0.02632206008 	0.01138579563 	-1.442354686e-07 	0.02338759702 	-4.708875064e-08 	4.458326017e-05
0.7049331999 	0.02662273541 	0.01164712171 	-1.476736557e-07 	0.02364843 	-4.671656197e-08 	4.508048032e-05
0.7098102633 	0.02692266028 	0.01190306223 	-1.509038007e-07 	0.02390949087 	-4.64704501e-08 	4.55781349e-05
0.7146335059 	0.02722172245 	0.01215374249 	-1.539939606e-07 	0.02417077181 	-4.638424155e-08 	4.607620899e-05
0.7194035216 	0.02751981913 	0.01239928767 	-1.570104847e-07 	0.02443226586 	-4.649544513e-08 	4.657468932e-05
0.7241209511 	0.02781685108 	0.01263981667 	-1.600208161e-07 	0.02469396403 	-4.684548863e-08 	4.707355878e-05
0.7287863289 	0.0281127133 	0.01287543044 	-1.630908018e-07 	0.0249558506 	-4.747978497e-08 	4.757278737e-05
0.7334002218 	0.02840729943 	0.01310622054 	-1.66277328e-07 	0.02521790286 	-4.844494219e-08 	4.80723318e-05
0.7379631978 	0.02870050389 	0.01333227423 	-1.696347378e-07 	0.02548009138 	-4.979022693e-08 	4.857213599e-05
0.7424758414 	0.02899221943 	0.01355367325 	-1.732161127e-07 	0.02574237854 	-5.156722811e-08 	4.907212822e-05
0.7469387029 	0.02928232968 	0.0137704845 	-1.770759119e-07 	0.02600471563 	-5.383101481e-08 	4.957221562e-05
0.7513523141 	0.02957070879 	0.01398276108 	-1.812587499e-07 	0.02626704115 	-5.66369671e-08 	5.007228097e-05
0.7557172184 	0.02985722635 	0.01419055151 	-1.858054415e-07 	0.02652928111 	-6.004130433e-08 	5.057218322e-05
0.7600339544 	0.030141744 	0.01439389573 	-1.907531449e-07 	0.02679134858 	-6.410114124e-08 	5.107175667e-05
0.7643030771 	0.03042411416 	0.01459282505 	-1.961398164e-07 	0.02705314215 	-6.88750854e-08 	5.157080796e-05
0.7685250874 	0.03070417427 	0.01478735518 	-2.019981048e-07 	0.02731454362 	-7.442201821e-08 	5.206911182e-05
0.7727005051 	0.03098175197 	0.01497749465 	-2.083529066e-07 	0.02757541825 	-8.079885687e-08 	5.256641137e-05
0.7768298443 	0.03125666353 	0.01516324337 	-2.152240955e-07 	0.02783561469 	-8.806143881e-08 	5.306241811e-05
0.780913618 	0.03152871399 	0.01534459385 	-2.226316927e-07 	0.02809496434 	-9.626385941e-08 	5.355681063e-05
0.7849523359 	0.03179769406 	0.01552152789 	-2.305930675e-07 	0.02835328076 	-1.05460022e-07 	5.404923351e-05
0.7889464839 	0.03206337981 	0.01569401613 	-2.391092458e-07 	0.02861035842 	-1.156995596e-07 	5.453929498e-05
0.7928965538 	0.03232553748 	0.01586202568 	-2.481826557e-07 	0.02886597332 	-1.270273661e-07 	5.502656802e-05
0.796803032 	0.03258391894 	0.01602551382 	-2.578131399e-07 	0.0291198834 	-1.3948429e-07 	5.551059121e-05
0.8006664018 	0.03283826463 	0.01618443233 	-2.679919641e-07 	0.0293718285 	-1.531058691e-07 	5.59908686e-05
0.8044871437 	0.0330883021 	0.01633872556 	-2.787110375e-07 	0.02962153063 	-1.679247954e-07 	5.646687026e-05
0.8082657211 	0.03333374505 	0.01648832868 	-2.899535932e-07 	0.02986869387 	-1.839662965e-07 	5.693803208e-05
0.8120025992 	0.03357429776 	0.01663317379 	-3.01695823e-07 	0.03011300548 	-2.012470724e-07 	5.740375793e-05
0.8156982382 	0.03380965396 	0.01677318763 	-3.139085334e-07 	0.03035413702 	-2.197759524e-07 	5.786342165e-05
0.8193530933 	0.03403949828 	0.01690829295 	-3.265574347e-07 	0.03059174508 	-2.395532973e-07 	5.831636866e-05
0.8229676192 	0.03426350783 	0.01703841018 	-3.396069872e-07 	0.03082547266 	-2.605729118e-07 	5.876191839e-05
0.8265422566 	0.03448135119 	0.01716345481 	-3.530182081e-07 	0.03105495011 	-2.828210926e-07 	5.919936618e-05
0.8300774454 	0.03469269155 	0.01728334065 	-3.667431359e-07 	0.03127979663 	-3.062713389e-07 	5.962798614e-05
0.8335736208 	0.03489718889 	0.01739798182 	-3.807298235e-07 	0.03149962229 	-3.308869287e-07 	6.004703495e-05
0.8370312134 	0.0350944998 	0.01750729088 	-3.949220103e-07 	0.03171402957 	-3.566209055e-07 	6.045575482e-05
0.8404506497 	0.03528428089 	0.01761118228 	-4.092604718e-07 	0.0319226153 	-3.834160738e-07 	6.08533772e-05
0.843832352 	0.03546618923 	0.01770957141 	-4.236881336e-07 	0.0321249727 	-4.112100262e-07 	6.123912665e-05
0.8471767348 	0.03563988366 	0.01780237458 	-4.381420955e-07 	0.03232069313 	-4.399281917e-07 	6.161222417e-05
0.8504842098 	0.03580502821 	0.01788951216 	-4.525553605e-07 	0.03250936833 	-4.694840924e-07 	6.197189156e-05
0.8537551845 	0.03596129315 	0.01797090832 	-4.668591659e-07 	0.03269059283 	-4.997815767e-07 	6.231735581e-05
0.8569900615 	0.03610835657 	0.01804649119 	-4.809833507e-07 	0.03286396578 	-5.307153744e-07 	6.264785284e-05
0.8601892396 	0.03624590687 	0.0181161948 	-4.948574691e-07 	0.0330290933 	-5.621717862e-07 	6.296263179e-05