0.4709558481 	0.06030720999 	3.50717447e-07 	-1.562200304e-11
0.4709558481 	0.06030720999 	3.50717447e-07 	-1.562200304e-11
0.4711314108 	0.1658166677 	3.620322672e-06 	-1.073189101e-10
0.4713069734 	0.3312639871 	1.366493037e-05 	-3.119871058e-10
0.471482536 	0.4954043499 	1.925457512e-05 	-3.561708906e-10
0.4716580986 	0.6555494018 	7.44745596e-06 	-2.328912555e-10
0.4718336613 	0.8070430136 	-4.276228577e-06 	-4.403577112e-10
0.4720092239 	0.9449640514 	3.471424013e-06 	-9.68491153e-10
0.4721847865 	1.066507235 	1.968179933e-05 	-1.393462122e-09
0.4723603491 	1.171689443 	3.087946362e-05 	-1.69386229e-09
0.4725359118 	1.262305033 	3.800554529e-05 	-2.009092853e-09
0.4727114744 	1.340675049 	4.432619708e-05 	-2.353623612e-09
0.472887037 	1.408975993 	5.073266853e-05 	-2.71225817e-09
0.4730625996 	1.469031749 	5.729420691e-05 	-3.080353211e-09
0.4732381623 	1.522307808 	6.400556186e-05 	-3.456667638e-09
0.4734137249 	1.569966199 	7.08618856e-05 	-3.84015238e-09
0.4735892875 	1.612927818 	7.784984109e-05 	-4.229887859e-09
0.4737648501 	1.651926323 	8.495239745e-05 	-4.625214833e-09
0.4739404128 	1.687550824 	9.215417029e-05 	-5.025675795e-09
0.4741159754 	1.720278587 	9.94429892e-05 	-5.430936404e-09
0.474291538 	1.750499813 	0.0001068096092 	-5.840737163e-09
0.4744671006 	1.778536386 	0.0001142470361 	-6.254867552e-09
0.4746426632 	1.80465612 	0.0001217499191 	-6.673151391e-09
0.4748182259 	1.829083654 	0.0001293141016 	-7.09543789e-09
0.4749937885 	1.852008855 	0.000136936244 	-7.521595735e-09
0.4751693511 	1.873593346 	0.0001446137247 	-7.951509146e-09
0.4753449137 	1.893975632 	0.0001523439497 	-8.385074534e-09
0.4755204764 	1.913275135 	0.000160126254 	-8.822199428e-09
0.475696039 	1.931595439 	0.0001679554755 	-9.262798011e-09
0.4758716016 	1.949026801 	0.0001758432909 	-9.706791706e-09
0.4760471642 	1.96564875 	0.0001837473891 	-1.0154096e-08
0.4762227269 	1.983676888 	0.0001927848145 	-1.066723539e-08
0.4764955107 	2.004979234 	0.0002042643114 	-1.131440062e-08
0.4767734216 	2.027268155 	0.0002171126268 	-1.204192723e-08
0.4770565557 	2.048615696 	0.0002302519715 	-1.279088918e-08
0.4773450114 	2.069110191 	0.0002437697112 	-1.356180892e-08
0.4776388886 	2.088829984 	0.0002576429819 	-1.435521239e-08
0.4779382892 	2.107843989 	0.0002718874235 	-1.517165157e-08
0.4782433171 	2.126213214 	0.0002865082207 	-1.601169616e-08
0.4785540779 	2.143991881 	0.0003015141612 	-1.687593709e-08
0.4788706795 	2.161228366 	0.0003169133636 	-1.776498628e-08
0.4791932316 	2.177965987 	0.0003327144664 	-1.867947661e-08
0.4795218461 	2.194243659 	0.0003489263071 	-1.962006177e-08
0.4798566368 	2.210096457 	0.0003655580146 	-2.058741637e-08
0.48019772 	2.225556079 	0.0003826189831 	-2.158223606e-08
0.4805452138 	2.240651252 	0.0004001188799 	-2.260523765e-08
0.4808992388 	2.255408072 	0.0004180676451 	-2.36571592e-08
0.4812599177 	2.269850301 	0.0004364754931 	-2.473876013e-08
0.4816273755 	2.283999618 	0.0004553529148 	-2.585082127e-08
0.4820017397 	2.297875838 	0.0004747106791 	-2.699414478e-08
0.48238314 	2.31149711 	0.0004945598342 	-2.81695541e-08
0.4827717088 	2.324880073 	0.0005149117088 	-2.937789376e-08
0.4831675807 	2.338040011 	0.0005357779131 	-3.062002902e-08
0.4835708931 	2.350990975 	0.0005571703386 	-3.189684543e-08
0.4839817856 	2.3637459 	0.000579101158 	-3.320924828e-08
0.4844004009 	2.376316703 	0.0006015828233 	-3.45581618e-08
0.4848268841 	2.388714371 	0.0006246280642 	-3.594452821e-08
0.485261383 	2.40094904 	0.000648249884 	-3.736930651e-08
0.4857040484 	2.413030063 	0.0006724615552 	-3.883347109e-08
0.4861550336 	2.424966075 	0.0006972766136 	-4.033801e-08
0.4866144951 	2.43676505 	0.0007227088499 	-4.188392295e-08
0.4870825921 	2.448434343 	0.0007487723006 	-4.347221892e-08
0.487559487 	2.459980743 	0.0007754812358 	-4.51039134e-08
0.4880453452 	2.471410509 	0.0008028501452 	-4.678002525e-08
0.4885403351 	2.482729406 	0.0008308937217 	-4.850157292e-08
0.4890446283 	2.493942735 	0.000859626841 	-5.02695703e-08
0.4895583997 	2.505055364 	0.0008890645393 	-5.208502187e-08
0.4900818274 	2.516071754 	0.0009192219867 	-5.394891722e-08
0.4906150929 	2.526995977 	0.0009501144559 	-5.58622248e-08
0.4911583811 	2.53783174 	0.0009817572879 	-5.782588483e-08
0.4917118805 	2.548582399 	0.001014165851 	-5.984080137e-08
0.4922757829 	2.559250977 	0.001047355497 	-6.190783338e-08
0.4928502838 	2.569840173 	0.001081341506 	-6.402778453e-08
0.4934355824 	2.580352375 	0.001116139032 	-6.620139196e-08
0.4940318817 	2.590789669 	0.001151763033 	-6.842931356e-08
0.4946393885 	2.601153843 	0.001188228199 	-7.071211392e-08
0.4952583133 	2.611446394 	0.00122554887 	-7.305024841e-08
0.4958888709 	2.621668529 	0.001263738937 	-7.544404571e-08
0.4965312797 	2.631821169 	0.001302811745 	-7.789368822e-08
0.4971857627 	2.641904944 	0.00134277997 	-8.039919053e-08
0.4978525466 	2.651920198 	0.001383655494 	-8.296037538e-08
0.4985318627 	2.661866978 	0.001425449258 	-8.557684733e-08
0.4992239466 	2.671745033 	0.001468171107 	-8.824796375e-08
0.4999290382 	2.681553809 	0.001511829611 	-9.097280312e-08
0.5006473819 	2.69129244 	0.001556431866 	-9.375013056e-08
0.501379227 	2.700959741 	0.001601983305 	-9.657835999e-08
0.502124827 	2.710554202 	0.00164848738 	-9.945551476e-08
0.5028844406 	2.720073976 	0.001695945564 	-1.023791729e-07
0.5036583311 	2.729516875 	0.001744356253 	-1.053464407e-07
0.5044467669 	2.738880352 	0.001793717638 	-1.083538819e-07
0.5052500214 	2.74816157 	0.001844018749 	-1.113979173e-07
0.506068373 	2.758523385 	0.001901842329 	-1.148681731e-07
0.507324668 	2.770978316 	0.001973801267 	-1.191335887e-07
0.5085949819 	2.784178128 	0.002053024018 	-1.237550743e-07
0.5098794711 	2.796969151 	0.002132784335 	-1.283172524e-07
0.5111782938 	2.809363642 	0.002212971468 	-1.327984715e-07
0.5124916099 	2.821372186 	0.002293450432 	-1.371769063e-07
0.5138195812 	2.833003729 	0.002374085772 	-1.414302677e-07
0.5151623712 	2.84426581 	0.002454732945 	-1.455361266e-07
0.5165201452 	2.855164746 	0.002535241068 	-1.494721432e-07
0.5178930705 	2.865705815 	0.002615452696 	-1.532163915e-07
0.5192813161 	2.875893419 	0.002695204732 	-1.567476961e-07
0.520685053 	2.885731249 	0.002774329202 	-1.600460025e-07
0.522104454 	2.895222436 	0.002852654281 	-1.630927598e-07
0.523539694 	2.904369706 	0.00293000547 	-1.658713284e-07
0.5249909497 	2.913175515 	0.003006206967 	-1.6836743e-07
0.5264583998 	2.921642203 	0.003081083256 	-1.705696481e-07
0.527942225 	2.929772123 	0.003154460904 	-1.724699376e-07
0.5294426081 	2.937567782 	0.003226170536 	-1.74063996e-07
0.5309597337 	2.945031955 	0.00329604881 	-1.753513597e-07
0.5324937889 	2.952167788 	0.003363940233 	-1.763352065e-07
0.5340449624 	2.958978863 	0.003429698716 	-1.7702202e-07
0.5356134452 	2.965469261 	0.003493188931 	-1.774213376e-07
0.5371994306 	2.971643612 	0.003554287632 	-1.775457086e-07
0.5388031139 	2.977507158 	0.003612885105 	-1.774108242e-07
0.5404246925 	2.983065806 	0.003668886744 	-1.770356046e-07
0.5420643661 	2.988326179 	0.003722214527 	-1.764420468e-07
0.5437223366 	2.993295636 	0.003772808174 	-1.756546424e-07
0.5453988083 	2.997982242 	0.003820625702 	-1.746994223e-07
0.5470939875 	3.00239471 	0.003865643264 	-1.736030455e-07
0.5488080831 	3.006542312 	0.003907854529 	-1.723920583e-07
0.5505413061 	3.010434788 	0.003947269702 	-1.71092294e-07
0.5522938699 	3.014082246 	0.00398391432 	-1.697283959e-07
0.5540659904 	3.017495069 	0.004017827853 	-1.683233821e-07
0.5558578859 	3.020683806 	0.004049062119 	-1.668982681e-07
0.5576697768 	3.02365908 	0.004077679577 	-1.654717849e-07
0.5595018865 	3.026431483 	0.004103751537 	-1.640602041e-07
0.5613544406 	3.029011494 	0.004127356375 	-1.626772582e-07
0.563227667 	3.031409387 	0.004148577783 	-1.613341437e-07
0.5651217966 	3.033635165 	0.004167503114 	-1.600395962e-07
0.5670370626 	3.035698493 	0.004184221837 	-1.588000212e-07
0.5689737009 	3.037608649 	0.004198824143 	-1.576196652e-07
0.5709319499 	3.039374483 	0.004211399709 	-1.565008151e-07
0.5729120508 	3.041004383 	0.004222036621 	-1.554440117e-07
0.5749142474 	3.042506259 	0.00423082047 	-1.544482673e-07
0.5769387863 	3.043887524 	0.004237833595 	-1.535112795e-07
0.5789859169 	3.045155096 	0.004243154482 	-1.526296353e-07
0.5810558911 	3.046315396 	0.0042468573 	-1.517989998e-07
0.583148964 	3.047374353 	0.004249011555 	-1.510142887e-07
0.5852653933 	3.048337421 	0.004249681854 	-1.502698221e-07
0.5874054395 	3.04920959 	0.004248927766 	-1.495594595e-07
0.5895693664 	3.049995402 	0.004246803752 	-1.48876717e-07
0.5917574402 	3.050698977 	0.004243359179 	-1.482148683e-07
0.5939699306 	3.051324028 	0.004238638376 	-1.475670293e-07
0.5962071099 	3.051873885 	0.004232680737 	-1.4692623e-07
0.5984692536 	3.052351519 	0.00422552087 	-1.462854737e-07
0.6007566404 	3.052759558 	0.00421718876 	-1.456377889e-07
0.6030695519 	3.053100318 	0.004207709965 	-1.449762644e-07
0.6054082729 	3.053375815 	0.004197105842 	-1.442941186e-07
0.6077730914 	3.053587792 	0.00418539371 	-1.435846387e-07
0.6101642987 	3.053737735 	0.004172587257 	-1.428414889e-07
0.6125821893 	3.053826895 	0.004158695789 	-1.420572182e-07
0.6150270608 	3.053856304 	0.004143727861 	-1.412281829e-07
0.6174992144 	3.053826798 	0.004127685867 	-1.403471149e-07
0.6199989545 	3.053739019 	0.004110569999 	-1.394069974e-07
0.622526589 	3.053593434 	0.004092380376 	-1.384044536e-07
0.625082429 	3.053390362 	0.004073111866 	-1.373329203e-07
0.6276667894 	3.053129976 	0.004052758731 	-1.361878501e-07
0.6302799884 	3.052812318 	0.004031313077 	-1.349646126e-07
0.6329223478 	3.052437312 	0.004008765495 	-1.336589841e-07
0.6355941931 	3.05200477 	0.003985105215 	-1.322670572e-07
0.6382958531 	3.051514408 	0.003960320383 	-1.307853096e-07
0.6410276607 	3.050965848 	0.003934398298 	-1.292106153e-07
0.6437899523 	3.050358632 	0.003907325659 	-1.27540271e-07
0.646583068 	3.049692225 	0.003879088802 	-1.257720182e-07
0.6494073518 	3.048966027 	0.003849673944 	-1.239040669e-07
0.6522631514 	3.048179372 	0.003819067425 	-1.219351167e-07
0.6551508186 	3.04733154 	0.003787255939 	-1.198643771e-07
0.658070709 	3.046421758 	0.003754226772 	-1.176915844e-07
0.6610231822 	3.045449206 	0.003719968031 	-1.154170159e-07
0.6640086017 	3.04441302 	0.003684468861 	-1.130414999e-07
0.6670273351 	3.043312293 	0.003647719662 	-1.105664211e-07
0.6700797543 	3.042146082 	0.003609712287 	-1.079937216e-07
0.6731662352 	3.040913404 	0.00357044024 	-1.053258955e-07
0.6762871577 	3.039613242 	0.00352989884 	-1.025659783e-07
0.6794429063 	3.038244544 	0.003488085383 	-9.971753035e-08
0.6826338695 	3.036806222 	0.003444999274 	-9.67846143e-08
0.6858604404 	3.035297151 	0.00340064214 	-9.377176741e-08
0.6891230163 	3.033716171 	0.003355017908 	-9.068396844e-08
0.6924219988 	3.032062084 	0.003308132858 	-8.752660054e-08
0.6957577944 	3.030333649 	0.003259995646 	-8.430541067e-08
0.6991308138 	3.028529583 	0.003210617277 	-8.102646689e-08
0.7025414724 	3.026648556 	0.003160011057 	-7.769611466e-08
0.7059901901 	3.024689188 	0.003108192484 	-7.432093346e-08
0.7094773917 	3.022650045 	0.003055179109 	-7.090769519e-08
0.7130035066 	3.020529631 	0.003000990343 	-6.746332561e-08
0.7165689691 	3.018326389 	0.002945647222 	-6.399486997e-08
0.7201742182 	3.016038692 	0.002889172115 	-6.050946323e-08
0.7238196978 	3.013664837 	0.002831588391 	-5.701430596e-08
0.727505857 	3.01120304 	0.002772920047 	-5.35166418e-08
0.7312331497 	3.00865143 	0.002713191211 	-5.002375085e-08
0.7350020349 	3.00601515 	0.002652587627 	-4.655212151e-08
0.7387709215 	3.003315944 	0.002591656218 	-4.313744819e-08
0.7424982157 	3.000577567 	0.002530950815 	-3.981306407e-08
0.7461843763 	2.997809012 	0.002470667889 	-3.659049707e-08
0.7498298574 	2.995012051 	0.002410836774 	-3.34714583e-08
0.7534351078 	2.992188324 	0.002351481564 	-3.045703594e-08
0.7570005716 	2.989339346 	0.002292621566 	-2.75477405e-08
0.7605266877 	2.986466518 	0.00223427181 	-2.474352861e-08
0.7640138905 	2.983571125 	0.002176443543 	-2.204382704e-08
0.7674626093 	2.980654352 	0.00211914471 	-1.944755507e-08
0.770873269 	2.977717278 	0.002062380416 	-1.695314777e-08
0.7742462894 	2.974760886 	0.002006153367 	-1.455858086e-08
0.777582086 	2.971786063 	0.001950464295 	-1.226139812e-08
0.7808810695 	2.968793606 	0.001895312352 	-1.005874173e-08
0.7841436462 	2.965784218 	0.001840695474 	-7.947385812e-09
0.787370218 	2.962758516 	0.001786610729 	-5.923773017e-09
0.7905611821 	2.959717027 	0.001733054622 	-3.98405375e-09
0.7937169314 	2.956660191 	0.001680023379 	-2.124127589e-09
0.7968378547 	2.953588363 	0.001627513203 	-3.396862397e-10
0.7999243362 	2.950501809 	0.001575520497 	1.373742608e-09
0.8029767561 	2.947400712 	0.001524042061 	3.020751321e-09
0.8059954902 	2.944285165 	0.001473075262 	4.60600894e-09
0.8089809102 	2.941155179 	0.00142261818 	6.134219038e-09
0.8119333839 	2.938010677 	0.001372669731 	7.610079398e-09
0.8148532749 	2.934851494 	0.001323229756 	9.038244068e-09
0.8177409426 	2.931677379 	0.00127429911 	1.04232882e-08
0.8205967427 	2.928487996 	0.001225879711 	1.176967602e-08
0.8234210268 	2.925282919 	0.001177974581 	1.308173204e-08
0.8262141429 	2.922061635 	0.001130587873 	1.436361581e-08
0.8289764348 	2.918823544 	0.00108372488 	1.561930005e-08
0.8317082427 	2.915567957 	0.001037392029 	1.685255227e-08
0.8344099031 	2.912294095 	0.0009915968709 	1.806691969e-08
0.8370817486 	2.909001091 	0.0009463480524 	1.926571719e-08
0.8397241082 	2.905687989 	0.0009016552873 	2.045201826e-08
0.8423373074 	2.902353742 	0.0008575293155 	2.162864852e-08
0.844921668 	2.898997213 	0.0008139818571 	2.279818165e-08
0.8474775082 	2.895617176 	0.0007710255624 	2.396293737e-08
0.8500051427 	2.89221231 	0.000728673957 	2.512498117e-08
0.8525048829 	2.888781206 	0.0006869413831 	2.628612562e-08
0.8549770366 	2.885322361 	0.0006458429384 	2.744793282e-08
0.8574219081 	2.881834179 	0.000605394413 	2.861171794e-08
0.8598397987 	2.878314972 	0.0005656122236 	2.977855339e-08
0.862231006 	2.874762956 	0.0005265133472 	3.094927365e-08
0.8645958245 	2.871176255 	0.0004881152526 	3.212448035e-08
0.8669345455 	2.867552896 	0.0004504358316 	3.33045477e-08
0.8692474569 	2.86389081 	0.000413493329 	3.448962784e-08
0.8715348435 	2.860187832 	0.0003773062714 	3.567965632e-08
0.8737969871 	2.8564417 	0.000341893396 	3.687435737e-08
0.8760341663 	2.852650054 	0.0003072735777 	3.807324914e-08
0.8782466565 	2.848810434 	0.0002734657557 	3.92756486e-08
0.8804347301 	2.844920283 	0.0002404888588 	4.048067642e-08
0.8825986568 	2.840976942 	0.00020836173 	4.168726152e-08
0.8847387028 	2.836977653 	0.0001771030494 	4.289414557e-08
0.8868551318 	2.832919556 	0.000146731256 	4.409988729e-08
0.8889482045 	2.828799691 	0.0001172644676 	4.53028667e-08
0.8910181784 	2.824614996 	8.872039998e-05 	4.650128946e-08
0.8930653087 	2.820362305 	6.111628315e-05 	4.769319118e-08
0.8950898473 	2.816038353 	3.446877711e-05 	4.887644213e-08
0.8970920436 	2.81163977 	8.793884479e-06 	5.004875123e-08
0.8990721441 	2.807163086 	-1.58931356e-05 	5.120767126e-08
0.9010303927 	2.802604729 	-3.957785726e-05 	5.235060874e-08
0.9029670306 	2.797961026 	-6.22467846e-05 	5.347482743e-08
0.9048822962 	2.7932282 	-8.38874439e-05 	5.457745384e-08
0.9067764254 	2.788402378 	-0.0001044884758 	5.565548708e-08
0.9086496514 	2.783479584 	-0.0001240397308 	5.670580651e-08
0.910502205 	2.778455745 	-0.0001425323645 	5.772518229e-08
0.9123343142 	2.773326688 	-0.0001599589326 	5.871028634e-08
0.9141462048 	2.768088146 	-0.000176313486 	5.965770477e-08
0.9159380997 	2.762735754 	-0.0001915916636 	6.056395173e-08
0.9177102197 	2.757265049 	-0.0002057907843 	6.142548459e-08
0.9194627831 	2.751671476 	-0.0002189099346 	6.223872063e-08
0.9211960055 	2.745950385 	-0.0002309500541 	6.300005519e-08
0.9229101006 	2.74009703 	-0.0002419140156 	6.37058813e-08
0.9246052793 	2.734106568 	-0.0002518066993 	6.435261073e-08
0.9262817504 	2.727974063 	-0.000260635061 	6.493669645e-08
0.9279397204 	2.721694477 	-0.0002684081924 	6.545465631e-08
0.9295793934 	2.715262671 	-0.0002751373727 	6.590309785e-08
0.9312009714 	2.708673402 	-0.00028083611 	6.627874413e-08
0.9328046541 	2.701921314 	-0.0002855201728 	6.657846024e-08
0.9343906389 	2.695000932 	-0.0002892076088 	6.679928046e-08
0.9359591211 	2.687906656 	-0.0002919187526 	6.693843558e-08
0.937510294 	2.680632745 	-0.0002936762183 	6.69933818e-08
0.9390443485 	2.673173308 	-0.000294504887 	6.696182181e-08
0.9405614735 	2.665522282 	-0.00029443184 	6.684173181e-08
0.942061856 	2.657673419 	-0.0002934863622 	6.66314055e-08
0.9435456805 	2.649620254 	-0.0002916998547 	6.632945193e-08
0.9450131299 	2.641356084 	-0.0002891057229 	6.593481929e-08
0.946464385 	2.63287393 	-0.0002857393352 	6.544683328e-08
0.9478996243 	2.624166499 	-0.0002816378931 	6.486519931e-08
0.9493190246 	2.615226142 	-0.0002768403169 	6.419002009e-08
0.9507227608 	2.606044796 	-0.000271387117 	6.342180587e-08
0.9521110058 	2.596613924 	-0.0002653202522 	6.256148176e-08
0.9534839303 	2.586924445 	-0.0002586829876 	6.161039051e-08
0.9548417036 	2.576966652 	-0.0002515197182 	6.057029211e-08
0.9561844929 	2.566730114 	-0.0002438758706 	5.944335646e-08
0.9575124634 	2.556203571 	-0.0002357974784 	5.823216008e-08
0.9588257788 	2.545374805 	-0.0002273317752 	5.693964815e-08
0.9601246008 	2.534230504 	-0.0002185245504 	5.556918829e-08
0.9614090893 	2.522756064 	-0.0002094294779 	5.412433611e-08
0.9626794024 	2.51093564 	-0.0002000846921 	5.260953177e-08
0.9639356968 	2.499796622 	-0.0001913526387 	5.116516834e-08
0.9647540487 	2.490536101 	-0.0001841892012 	4.995583081e-08
0.9655573034 	2.482242565 	-0.0001778562571 	4.886986046e-08
0.9663457395 	2.473875767 	-0.0001715562361 	4.777366187e-08
0.9671196303 	2.465436514 	-0.0001653069106 	4.666907548e-08
0.9678792442 	2.456925571 	-0.0001591178317 	4.555822083e-08
0.9686248445 	2.448343572 	-0.0001530007513 	4.444310856e-08
0.9693566897 	2.439691015 	-0.0001469657393 	4.332569884e-08
0.9700750337 	2.430968263 	-0.0001410221733 	4.220787194e-08
0.9707801255 	2.422175528 	-0.0001351784595 	4.10914322e-08
0.9714722095 	2.413312875 	-0.0001294421605 	3.997810192e-08
0.9721515258 	2.404380208 	-0.0001238200043 	3.886951832e-08
0.9728183099 	2.395377272 	-0.0001183179251 	3.776723073e-08
0.9734727929 	2.386303641 	-0.0001129410974 	3.667269885e-08
0.9741152019 	2.377158715 	-0.0001076939728 	3.558729172e-08
0.9747457596 	2.367941711 	-0.0001025803177 	3.451228735e-08
0.9753646845 	2.358651659 	-9.760325065e-05 	3.344887304e-08
0.9759721914 	2.349287387 	-9.276528073e-05 	3.239814613e-08
0.9765684907 	2.339847516 	-8.806834471e-05 	3.13611153e-08
0.9771537895 	2.330330448 	-8.351384454e-05 	3.033870233e-08
0.9777282904 	2.320734355 	-7.910268398e-05 	2.93317441e-08
0.9782921928 	2.311057163 	-7.483530464e-05 	2.834099502e-08
0.9788456922 	2.301296544 	-7.071172115e-05 	2.736712962e-08
0.9793889805 	2.291449892 	-6.673155535e-05 	2.641074551e-08
0.979922246 	2.281514312 	-6.289406946e-05 	2.54723663e-08
0.9804456737 	2.2714866 	-5.919819803e-05 	2.455244487e-08
0.9809594451 	2.26136322 	-5.564257873e-05 	2.365136661e-08
0.9814637383 	2.251140283 	-5.222558177e-05 	2.276945279e-08
0.9819587281 	2.240813521 	-4.8945338e-05 	2.190696395e-08
0.9824445862 	2.230378261 	-4.579976565e-05 	2.106410332e-08
0.9829214811 	2.219829393 	-4.278659558e-05 	2.024102021e-08
0.9833895781 	2.209161339 	-3.990339515e-05 	1.943781342e-08
0.9838490396 	2.198368013 	-3.714759064e-05 	1.865453457e-08
0.9843000247 	2.187442781 	-3.451648817e-05 	1.789119134e-08
0.98474269 	2.176378421 	-3.200729333e-05 	1.71477507e-08
0.9851771888 	2.165167064 	-2.961712924e-05 	1.642414198e-08
0.9856036719 	2.153800148 	-2.734305335e-05 	1.572025993e-08
0.9860222871 	2.142268351 	-2.518207286e-05 	1.503596755e-08
0.9864331796 	2.130561522 	-2.313115882e-05 	1.437109895e-08
0.9868364919 	2.118668605 	-2.118725903e-05 	1.3725462e-08
0.9872323637 	2.106577555 	-1.934730972e-05 	1.309884083e-08
0.9876209323 	2.094275236 	-1.760824604e-05 	1.249099837e-08
0.9880023326 	2.081747314 	-1.596701164e-05 	1.190167858e-08
0.9883766967 	2.068978132 	-1.442056707e-05 	1.133060868e-08
0.9887441544 	2.055950569 	-1.296589745e-05 	1.077750126e-08
0.9891048331 	2.042645876 	-1.160001924e-05 	1.024205619e-08
0.9894588579 	2.029043497 	-1.031998639e-05 	9.723962597e-09
0.9898063516 	2.015120852 	-9.122895807e-06 	9.222900542e-09
0.9901474347 	2.000853093 	-8.005892664e-06 	8.738542749e-09
0.9904822253 	1.986212824 	-6.966174736e-06 	8.270556222e-09
0.9908108397 	1.971169768 	-6.000999137e-06 	7.818603766e-09
0.9911333916 	1.955690383 	-5.107680835e-06 	7.382345469e-09
0.9914499931 	1.939737411 	-4.283622701e-06 	6.961440048e-09
0.9917607538 	1.923269342 	-3.526233959e-06 	6.555546361e-09
0.9920657815 	1.906239784 	-2.833237971e-06 	6.164324033e-09
0.9923651819 	1.888596706 	-2.201558107e-06 	5.787437575e-09
0.992659059 	1.870281531 	-1.631402328e-06 	5.424551459e-09
0.9929475145 	1.851228071 	-1.112795848e-06 	5.075352116e-09
0.9932306485 	1.831361046 	-6.723098808e-07 	4.739447604e-09
0.9935085592 	1.810595548 	-2.297682994e-07 	4.416529564e-09
0.9937813429 	1.790728181 	1.540918749e-07 	4.132307728e-09
0.9939569055 	1.773897883 	3.523077371e-07 	3.909105746e-09
0.9941324681 	1.758366133 	5.194461041e-07 	3.716155113e-09
0.9943080307 	1.742063347 	6.983265171e-07 	3.526140818e-09
0.9944835934 	1.724912468 	8.478453678e-07 	3.339106909e-09
0.994659156 	1.706826026 	9.805070192e-07 	3.155139869e-09
0.9948347186 	1.687703627 	1.092487648e-06 	2.974278435e-09
0.9950102812 	1.667429531 	1.184510603e-06 	2.796549516e-09
0.9951858439 	1.645869544 	1.255579371e-06 	2.62201562e-09
0.9953614065 	1.622867167 	1.304880507e-06 	2.45068386e-09
0.9955369691 	1.59823873 	1.331194362e-06 	2.283433623e-09
0.9957125317 	1.571767244 	1.332905293e-06 	2.118016701e-09
0.9958880943 	1.543194547 	1.307580436e-06 	1.955928498e-09
0.996063657 	1.512211232 	1.25215147e-06 	1.800188971e-09
0.9962392196 	1.478443655 	1.162696904e-06 	1.645632087e-09
0.9964147822 	1.441437113 	1.033927603e-06 	1.493508106e-09
0.9965903448 	1.400634142 	8.608857499e-07 	1.34637727e-09
0.9967659075 	1.355346827 	6.423809459e-07 	1.202498159e-09
0.9969414701 	1.304722547 	3.86085657e-07 	1.062353347e-09
0.9971170327 	1.24770473 	1.085437704e-07 	9.26119593e-10
0.9972925953 	1.182996561 	-1.611080552e-07 	7.941110129e-10
0.997468158 	1.109052606 	-1.852945922e-07 	6.666646356e-10
0.9976437206 	1.024162758 	1.317269906e-06 	5.444556851e-10
0.9978192832 	0.9267589738 	6.698917929e-06 	4.30572582e-10
0.9979948458 	0.816087412 	1.323465191e-05 	3.297757706e-10
0.9981704085 	0.6930877163 	9.910112402e-06 	2.385288616e-10
0.9983459711 	0.5606805533 	-3.774188215e-06 	1.508803825e-10
0.9985215337 	0.4227284097 	-1.115841502e-05 	7.792324155e-11
0.9986970963 	0.2823772048 	-6.721289661e-06 	3.19870019e-11
0.998872659 	0.1412833242 	-1.390902294e-06 	8.569133469e-12
0.9990482216 	0.05949870743 	-6.310690428e-08 	9.390717205e-13
0.9990482216 	0.05949870743 	-6.310690428e-08 	9.390717205e-13
