0.3810449493 	1.357637426e-05 	-2.565829939e-07 	6.590335136e-11 	1.341673748e-05 	-2.649039816e-09 	2.557603063e-08
0.3810449493 	1.357637426e-05 	-2.565829939e-07 	6.590335136e-11 	1.341673748e-05 	-2.649039816e-09 	2.557603063e-08
0.3812213909 	0.0001640625989 	-1.178550808e-05 	4.594415019e-09 	0.0001576034802 	-4.563106237e-08 	3.004360369e-07
0.3813978397 	0.0009354370045 	-0.0001465522013 	6.305896231e-08 	0.0008564191339 	-2.680294762e-07 	1.632572899e-06
0.381574295 	0.003173699784 	-0.0008087274681 	3.388156366e-07 	0.002723571284 	-8.352840083e-07 	5.191883845e-06
0.3817507564 	0.007736579488 	-0.002615957671 	9.881363116e-07 	0.006173706111 	-1.741391102e-06 	1.176879974e-05
0.3819272234 	0.01470084874 	-0.005756995821 	1.856363594e-06 	0.01098235071 	-2.713494067e-06 	2.093541284e-05
0.3821036954 	0.0229644408 	-0.009630382283 	2.575198897e-06 	0.01636314924 	-3.451916554e-06 	3.119271036e-05
0.3822801719 	0.03104797331 	-0.01340744082 	2.97205329e-06 	0.02153810311 	-3.868715632e-06 	4.105761074e-05
0.3824566525 	0.03806649583 	-0.01663222676 	3.116642315e-06 	0.02608430869 	-4.028262103e-06 	4.972394212e-05
0.3826331365 	0.04381382499 	-0.01922563187 	3.122663866e-06 	0.02988637786 	-4.0219124e-06 	5.697174269e-05
0.3828096235 	0.04841035708 	-0.02126842616 	3.061365152e-06 	0.03298929025 	-3.919950754e-06 	6.288675612e-05
0.382986113 	0.05205937704 	-0.02287121113 	2.968228724e-06 	0.0354943004 	-3.766535245e-06 	6.766200168e-05
0.3831626043 	0.05495409373 	-0.02413176363 	2.860343668e-06 	0.03750850414 	-3.587171381e-06 	7.150163384e-05
0.3833390971 	0.05725381971 	-0.02512726292 	2.746102139e-06 	0.03912637395 	-3.396083397e-06 	7.458574337e-05
0.3835155909 	0.05908350884 	-0.02591641529 	2.629735512e-06 	0.04042551354 	-3.201082726e-06 	7.70622645e-05
0.383692085 	0.0605394991 	-0.0265434431 	2.513428252e-06 	0.04146775338 	-3.006429046e-06 	7.90490633e-05
0.3838685789 	0.06169584678 	-0.02704172277 	2.398330866e-06 	0.04230178695 	-2.814433065e-06 	8.06389631e-05
0.3840450723 	0.06260969471 	-0.02743662923 	2.285059782e-06 	0.04296588392 	-2.626336591e-06 	8.19049165e-05
0.3842215645 	0.06332544602 	-0.02774764202 	2.173949026e-06 	0.04349021087 	-2.442794659e-06 	8.290442939e-05
0.384398055 	0.06387789902 	-0.02798987302 	2.065175743e-06 	0.04389868016 	-2.264142139e-06 	8.368308539e-05
0.3845745433 	0.06429457032 	-0.02817516812 	1.958818491e-06 	0.04421037863 	-2.090544491e-06 	8.427726931e-05
0.384751029 	0.06459741103 	-0.0283129017 	1.854881415e-06 	0.04444065836 	-1.922086479e-06 	8.471624647e-05
0.3849275114 	0.06480407847 	-0.02841055267 	1.753305699e-06 	0.04460196757 	-1.758825912e-06 	8.502374667e-05
0.3851039901 	0.06492888598 	-0.02847412598 	1.653986656e-06 	0.0447044848 	-1.600825753e-06 	8.5219173e-05
0.3852804646 	0.06498352235 	-0.02850846878 	1.556773584e-06 	0.04475660554 	-1.448166937e-06 	8.531852962e-05
0.3854569344 	0.06497759735 	-0.02851750259 	1.461651122e-06 	0.04476531102 	-1.300916664e-06 	8.533512469e-05
0.385633399 	0.06491911555 	-0.02850446091 	1.367595726e-06 	0.04473645595 	-1.159425954e-06 	8.52801189e-05
0.3858098578 	0.06481409999 	-0.02847136741 	1.275187085e-06 	0.04467514286 	-1.023691612e-06 	8.51632391e-05
0.3859863103 	0.06466869962 	-0.02842103073 	1.187290288e-06 	0.04458549537 	-8.929134023e-07 	8.499234608e-05
0.3861627561 	0.06448690859 	-0.02835471198 	1.103420664e-06 	0.04447109721 	-7.671170708e-07 	8.477427138e-05
0.3863391946 	0.06425492428 	-0.0282750998 	1.014427043e-06 	0.0443113661 	-6.318910764e-07 	8.446977949e-05
0.3866133237 	0.06391330906 	-0.02815242512 	9.004448751e-07 	0.04407750698 	-4.675832182e-07 	8.402397901e-05
0.3868925839 	0.06346833808 	-0.02798319871 	7.836047027e-07 	0.04378085379 	-3.004135362e-07 	8.345847559e-05
0.3871770685 	0.06297000409 	-0.02779417758 	6.71640559e-07 	0.04344237506 	-1.435106337e-07 	8.281324104e-05
0.3874668729 	0.06241969295 	-0.02758365241 	5.649380599e-07 	0.04306698398 	2.095007973e-09 	8.209764131e-05
0.3877620936 	0.06182253436 	-0.02735397813 	4.639310369e-07 	0.04265821624 	1.35627566e-07 	8.131841639e-05
0.3880628288 	0.06118244032 	-0.02710662323 	3.690420686e-07 	0.04221918838 	2.56296118e-07 	8.048150727e-05
0.3883691783 	0.06050292733 	-0.02684296061 	2.806951863e-07 	0.04175267404 	3.633474744e-07 	7.959220128e-05
0.3886812435 	0.05978710819 	-0.02656418723 	1.993062158e-07 	0.0412611669 	4.560735482e-07 	7.865525207e-05
0.3889991275 	0.05903778584 	-0.02627137634 	1.252773082e-07 	0.04074695132 	5.338294018e-07 	7.767501424e-05
0.3893229347 	0.0582575156 	-0.02596549796 	5.899013558e-08 	0.04021214829 	5.960516184e-07 	7.665553103e-05
0.3896527714 	0.057448659 	-0.02564744052 	7.992979919e-10 	0.03965875749 	6.422777326e-07 	7.560061436e-05
0.3899887454 	0.05661342772 	-0.02531802758 	-4.897434372e-08 	0.03908869098 	6.721662463e-07 	7.451390915e-05
0.3903309662 	0.05575392004 	-0.02497803192 	-9.005025376e-08 	0.03850380142 	6.855169475e-07 	7.339894709e-05
0.3906795449 	0.05487215088 	-0.02462818697 	-1.221946461e-07 	0.03790590515 	6.822910744e-07 	7.225919062e-05
0.3910345942 	0.05397007661 	-0.02426919624 	-1.452266249e-07 	0.03729680096 	6.626307849e-07 	7.109806873e-05
0.3913962286 	0.05304961511 	-0.02390174091 	-1.59023905e-07 	0.03667828501 	6.268773168e-07 	6.991900543e-05
0.391764564 	0.05211266199 	-0.023526486 	-1.635279819e-07 	0.03605216243 	5.755870214e-07 	6.872544177e-05
0.3921397182 	0.05116110307 	-0.02314408484 	-1.587482284e-07 	0.03542025544 	5.095444674e-07 	6.752085142e-05
0.3925218105 	0.05019682453 	-0.02275518362 	-1.447663712e-07 	0.03478440944 	4.29771108e-07 	6.630875221e-05
0.3929109619 	0.04922171666 	-0.02236041918 	-1.217312421e-07 	0.03414649291 	3.375351904e-07 	6.509270601e-05
0.3933072949 	0.04823769823 	-0.02196044631 	-8.98510322e-08 	0.03350840535 	2.343519576e-07 	6.387633378e-05
0.3937109339 	0.04724673275 	-0.02155591863 	-4.947311752e-08 	0.03287206167 	1.219534965e-07 	6.266328587e-05
0.3941220045 	0.04625084372 	-0.02114754934 	-1.005881083e-09 	0.03223960333 	2.34845197e-09 	6.145764447e-05
0.394129973 	0.04623182135 	-0.02113970509 	3.621612971e-07 	0.03222766282 	-5.521419551e-07 	6.143488254e-05
0.3945400737 	0.04525140611 	-0.02073539487 	-5.326045032e-08 	0.03161216442 	1.20677558e-07 	6.026157153e-05
0.3949668698 	0.04424413502 	-0.02031749451 	-1.152113816e-07 	0.0309882201 	2.471069494e-07 	5.907216023e-05
0.3954119652 	0.04322571983 	-0.01989177435 	-1.86812238e-07 	0.03036730101 	3.78066355e-07 	5.788851588e-05
0.395865298 	0.0422051962 	-0.01946119605 	-2.659940118e-07 	0.02975548658 	5.069773309e-07 	5.672222754e-05
0.3963270188 	0.04119053125 	-0.01902872623 	-3.532018469e-07 	0.02915869041 	6.306290442e-07 	5.558456816e-05
0.3967972809 	0.04018324514 	-0.01859465696 	-4.470722077e-07 	0.02857856125 	7.470669812e-07 	5.447868075e-05
0.3972762401 	0.03918529029 	-0.01816042858 	-5.44379154e-07 	0.02801623047 	8.550158388e-07 	5.340672199e-05
0.3977640554 	0.03819824804 	-0.01772694233 	-6.472646256e-07 	0.02747309261 	9.498907907e-07 	5.237135026e-05
0.3982608883 	0.03722357203 	-0.01729446506 	-7.552873081e-07 	0.0269510655 	1.02773012e-06 	5.137622151e-05
0.3987669034 	0.03626310535 	-0.01686354487 	-8.659729528e-07 	0.02645196265 	1.08604186e-06 	5.042479275e-05
0.399282268 	0.03531871976 	-0.01643483522 	-9.791258395e-07 	0.02597744301 	1.121340343e-06 	4.952022644e-05
0.3998071528 	0.03439217728 	-0.01600893886 	-1.093476595e-06 	0.02552907463 	1.130448172e-06 	4.866551168e-05
0.4003417311 	0.0334851667 	-0.01558645969 	-1.20802722e-06 	0.02510830033 	1.110237075e-06 	4.786339893e-05
0.4008861797 	0.03259927267 	-0.01516797976 	-1.321700256e-06 	0.02471643095 	1.057699761e-06 	4.711638697e-05
0.4014406782 	0.03173596271 	-0.01475405495 	-1.433462413e-06 	0.02435463577 	9.69996486e-07 	4.642670479e-05
0.4020054097 	0.03089657417 	-0.01434520427 	-1.5423418e-06 	0.02402393167 	8.445274945e-07 	4.579629087e-05
0.4025805604 	0.03008231053 	-0.01394189674 	-1.647503817e-06 	0.02372516311 	6.790986121e-07 	4.522675495e-05
0.4031663199 	0.02929425173 	-0.01354452937 	-1.748400472e-06 	0.02345896044 	4.722642323e-07 	4.471929867e-05
0.4037628812 	0.02853337361 	-0.01315337987 	-1.845196204e-06 	0.02322566659 	2.238289196e-07 	4.427457576e-05
0.4043704407 	0.02780053402 	-0.01276850568 	-1.939592453e-06 	0.02302525083 	-6.480246186e-08 	4.389252762e-05
0.4049891984 	0.02709639261 	-0.01238964859 	-2.034520616e-06 	0.02285724434 	-3.907196922e-07 	4.357226055e-05
0.4056193577 	0.02642132456 	-0.01201635544 	-2.131420084e-06 	0.02272076604 	-7.502845799e-07 	4.331209499e-05
0.4062611258 	0.02577536896 	-0.01164822314 	-2.229209871e-06 	0.02261461048 	-1.140543209e-06 	4.310973299e-05
0.4069147136 	0.02515817435 	-0.01128506644 	-2.327006831e-06 	0.02253762757 	-1.560045736e-06 	4.296298215e-05
0.4075803356 	0.02456907813 	-0.01092653487 	-2.425463284e-06 	0.02248829646 	-2.008019682e-06 	4.286894334e-05
0.4082582104 	0.02400571709 	-0.01057146293 	-2.301864425e-06 	0.0224652216 	-2.264497962e-06 	4.282495625e-05
0.4089563963 	0.02346399366 	-0.01021772987 	-2.169259452e-06 	0.02246805834 	-2.468384528e-06 	4.283036388e-05
0.4096771504 	0.02294313281 	-0.009864454199 	-2.03660357e-06 	0.02249579211 	-2.625628175e-06 	4.288323214e-05
0.4104111267 	0.02244572884 	-0.009513577764 	-1.905358216e-06 	0.0225471824 	-2.736606333e-06 	4.298119632e-05
0.411158564 	0.02197236959 	-0.009166271057 	-1.775065413e-06 	0.0226210972 	-2.801028112e-06 	4.312209848e-05
0.411919705 	0.02152172969 	-0.008822056681 	-1.645429562e-06 	0.0227161011 	-2.819807497e-06 	4.33032023e-05
0.4126947969 	0.02109252809 	-0.008480640326 	-1.516063615e-06 	0.02283099878 	-2.794118762e-06 	4.352222922e-05
0.4134840914 	0.02068353298 	-0.008141691032 	-1.386565182e-06 	0.02296453265 	-2.725219266e-06 	4.377678188e-05
0.4142878445 	0.02029355462 	-0.00780485447 	-1.256485859e-06 	0.02311546975 	-2.614503054e-06 	4.406450996e-05
0.4151063168 	0.01992151717 	-0.00747001988 	-1.125438363e-06 	0.02328273476 	-2.463340846e-06 	4.438336355e-05
0.4159397736 	0.01956584402 	-0.007135967953 	-9.926563397e-07 	0.02346566779 	-2.273247257e-06 	4.473208476e-05
0.4167884849 	0.01918505472 	-0.006765357753 	-8.591827555e-07 	0.02368971697 	-2.056680763e-06 	4.515918476e-05
0.4180905889 	0.01874673181 	-0.006314789061 	-6.529845358e-07 	0.02398396019 	-1.637510952e-06 	4.572009412e-05
0.419406252 	0.01830169934 	-0.005826978947 	-4.433028592e-07 	0.02432536572 	-1.161786646e-06 	4.637090794e-05
0.4207356172 	0.0178909858 	-0.005348730194 	-2.300568566e-07 	0.02468285682 	-6.254933771e-07 	4.705238534e-05
0.4220788289 	0.01750813977 	-0.004876257023 	-1.243202813e-08 	0.02505736954 	-3.487137358e-08 	4.776631067e-05
0.4221548793 	0.01748840928 	-0.004850478837 	1.176294995e-06 	0.02507889345 	7.775094495e-07 	4.780734124e-05
0.4234639132 	0.01714814683 	-0.004406088689 	-2.138854678e-07 	0.02544971212 	-6.051493584e-07 	4.851422468e-05
0.4248663094 	0.01681098173 	-0.003939056352 	-4.460568838e-07 	0.02585395029 	-1.292309209e-06 	4.928481499e-05
0.4262832195 	0.01649631978 	-0.003478577329 	-6.835411474e-07 	0.02626697829 	-2.021230641e-06 	5.007216115e-05
0.4277147966 	0.01620219788 	-0.00302402952 	-9.260969407e-07 	0.02668638487 	-2.787605836e-06 	5.087166666e-05
0.4291611958 	0.01592660763 	-0.002575135497 	-1.173320796e-06 	0.02711100151 	-3.587591137e-06 	5.168110399e-05
0.4306225742 	0.01566790427 	-0.002131510331 	-1.424701183e-06 	0.02753934038 	-4.41762977e-06 	5.249763693e-05
0.4320990907 	0.0154244336 	-0.001693042385 	-1.679635784e-06 	0.02797078615 	-5.274379489e-06 	5.332009248e-05
0.4335909064 	0.01519517632 	-0.00125895839 	-1.937487796e-06 	0.02840317618 	-6.154728311e-06 	5.414434805e-05
0.4350981844 	0.01497803113 	-0.00082827145 	-2.197900131e-06 	0.02883795472 	-7.056354217e-06 	5.49731568e-05
0.4366434922 	0.01477070747 	-0.0003985534943 	-2.465613978e-06 	0.02927746784 	-7.9925461e-06 	5.581099096e-05
0.4382166345 	0.01457320824 	3.046046582e-05 	-2.603413931e-06 	0.02971878193 	-8.514220428e-06 	5.665225827e-05
0.4398059559 	0.01438583349 	0.0004558065275 	-2.35721721e-06 	0.03015917479 	-7.772581395e-06 	5.749176946e-05
0.4414116291 	0.01420817828 	0.0008767740847 	-2.106783708e-06 	0.03059714192 	-6.999722162e-06 	5.832665654e-05
0.4430338293 	0.01403954889 	0.001293648098 	-1.852840996e-06 	0.03103199787 	-6.199106634e-06 	5.915561284e-05
0.4446727339 	0.01387922248 	0.001706450238 	-1.596077679e-06 	0.03146350239 	-5.374131029e-06 	5.997818038e-05
0.4463285227 	0.01372687299 	0.002115689048 	-1.33715007e-06 	0.03189046841 	-4.528174556e-06 	6.079209628e-05
0.4480013782 	0.0135817436 	0.002522128566 	-1.076717702e-06 	0.03231331792 	-3.664673072e-06 	6.159816497e-05
0.4497078613 	0.01344238359 	0.002927437996 	-8.12009311e-07 	0.03273491787 	-2.775286614e-06 	6.240185165e-05
0.4514512468 	0.01330887889 	0.003332880242 	-5.428715861e-07 	0.0331538298 	-1.861491755e-06 	6.320041422e-05
0.4532124669 	0.01318183219 	0.003736205682 	-2.73472993e-07 	0.0335670896 	-9.400124773e-07 	6.398820227e-05
0.454991715 	0.01306120937 	0.004135892885 	-4.041977788e-09 	0.03397366767 	-1.391515117e-08 	6.476325307e-05
0.4550186889 	0.01305949131 	0.004141841886 	2.530758115e-07 	0.03397965635 	1.874492901e-07 	6.477466915e-05
0.4567876948 	0.0129465918 	0.004532419434 	-2.663252837e-07 	0.03437296898 	-9.028279053e-07 	6.552443235e-05
0.4586020882 	0.01283791947 	0.004925816498 	-5.36847334e-07 	0.03476517617 	-1.819189573e-06 	6.627208826e-05
0.4604351201 	0.01273570435 	0.005317160516 	-8.074969408e-07 	0.03514839887 	-2.732614357e-06 	6.700261724e-05
0.462291103 	0.01263861746 	0.005706852152 	-1.079315849e-06 	0.03552620418 	-3.643224383e-06 	6.772281916e-05
0.4641986841 	0.01254657342 	0.00609754876 	-1.35801153e-06 	0.03589932467 	-4.566135435e-06 	6.843409052e-05
0.4661257233 	0.01246073125 	0.006488282303 	-1.637314725e-06 	0.03626390783 	-5.477045466e-06 	6.912908735e-05
0.4680724357 	0.0123809252 	0.006875935563 	-1.917419321e-06 	0.03661956729 	-6.373338245e-06 	6.980707313e-05
0.4700390397 	0.01230742391 	0.007261383635 	-2.198746636e-06 	0.03696563545 	-7.252741819e-06 	7.046677523e-05
0.4720257568 	0.01224040679 	0.007645004016 	-2.481839081e-06 	0.03730174932 	-8.112965343e-06 	7.110750168e-05
0.4740328119 	0.01217986165 	0.00802731671 	-2.76775503e-06 	0.03762821523 	-8.951063965e-06 	7.172983646e-05
0.4760774571 	0.01212522641 	0.008409673329 	-2.506596903e-06 	0.03794745074 	-8.004815968e-06 	7.233838806e-05
0.478163013 	0.01207722513 	0.008793440271 	-2.233556734e-06 	0.03825834189 	-7.044149329e-06 	7.2931033e-05
0.4802697826 	0.01203600594 	0.009176435766 	-1.954431708e-06 	0.03855984425 	-6.12987866e-06 	7.350578029e-05
0.4823980057 	0.01200118398 	0.009556584571 	-1.657867008e-06 	0.03885250519 	-5.218569964e-06 	7.406367338e-05
0.4845479263 	0.01197372153 	0.009937464855 	-1.515969023e-06 	0.03913516062 	-4.27872424e-06 	7.46024932e-05
0.4867197918 	0.01196153703 	0.01033091875 	-1.559481773e-06 	0.03939814621 	-3.016077026e-06 	7.510381682e-05
0.488928055 	0.01199222773 	0.01075527202 	-1.405997656e-06 	0.03960766314 	-1.302129861e-06 	7.550321433e-05
0.4911816255 	0.01211560734 	0.0112094136 	-9.303344539e-07 	0.03969382973 	-1.135705038e-08 	7.56674718e-05
0.4934580691 	0.01235340998 	0.01165860526 	-4.275321703e-07 	0.03961073067 	2.061266569e-07 	7.550906189e-05
0.4957035467 	0.01264030069 	0.01207813654 	3.941844959e-07 	0.03943626586 	-3.76524134e-07 	7.517648347e-05
0.4957576181 	0.01264720904 	0.01208824926 	-1.021943491e-08 	0.03943206685 	5.415861176e-09 	7.516847899e-05
0.4980792332 	0.01293114634 	0.01247758412 	-3.598690873e-07 	0.03924037723 	2.487763375e-07 	7.480306529e-05
0.5004245514 	0.01318645174 	0.01280544974 	-4.312114485e-07 	0.03905881905 	4.082680763e-07 	7.445696495e-05
0.5028227957 	0.01341021235 	0.01307589822 	-2.647693107e-07 	0.03889462668 	4.492267906e-07 	7.414396865e-05
0.5052529341 	0.013602661 	0.01329695806 	5.425314215e-08 	0.03874887137 	4.053064786e-07 	7.386611853e-05
0.5077077682 	0.01376403017 	0.01347422786 	4.633884913e-07 	0.03862389965 	3.034247431e-07 	7.362788769e-05
0.5101875913 	0.01389823842 	0.01361615047 	9.157641265e-07 	0.03851799062 	1.704741664e-07 	7.342599564e-05
0.5126927018 	0.01400919321 	0.01372951172 	1.378788582e-06 	0.03842980886 	3.07318948e-08 	7.32578967e-05
0.5152453314 	0.0141015927 	0.01382083434 	1.836310455e-06 	0.0383569546 	-9.984833288e-08 	7.311901624e-05
0.5178375627 	0.01418006023 	0.01389614329 	2.277536741e-06 	0.0382960152 	-2.145154788e-07 	7.30028488e-05
0.5204561288 	0.01424702715 	0.0139585429 	2.695472817e-06 	0.03824606513 	-3.107883756e-07 	7.290763009e-05
0.5231013502 	0.01430552079 	0.01401165646 	2.637998473e-06 	0.03820487057 	-3.330403543e-07 	7.282910181e-05
0.5257735529 	0.01435736249 	0.014057448 	2.439710252e-06 	0.03817197794 	-3.205109623e-07 	7.276639931e-05
0.5285003312 	0.01440500159 	0.01409836654 	2.204123494e-06 	0.03814609336 	-2.933206364e-07 	7.27170561e-05
0.5312618722 	0.01445048204 	0.01413667447 	1.94684144e-06 	0.03812538515 	-2.592913445e-07 	7.267758049e-05
0.5340515049 	0.01449395709 	0.01417256636 	1.677667696e-06 	0.03811031742 	-2.22177943e-07 	7.264885722e-05
0.53686958 	0.01453638367 	0.01420708085 	1.402776724e-06 	0.03810017937 	-1.84310443e-07 	7.262953128e-05
0.5397256397 	0.01457819383 	0.01424048839 	1.125201466e-06 	0.03809542206 	-1.465209944e-07 	7.262046253e-05
0.5426344385 	0.01462070149 	0.01427405925 	8.464462598e-07 	0.03809496487 	-1.093159329e-07 	7.261959099e-05
0.5455728418 	0.01466413342 	0.0143080837 	5.720966531e-07 	0.03809851692 	-7.350576443e-08 	7.262636219e-05
0.5485412272 	0.01470837072 	0.01434255189 	3.035058685e-07 	0.03810601949 	-3.89193788e-08 	7.264066416e-05
0.5515410631 	0.01475322602 	0.01437715457 	4.137148814e-08 	0.03811825402 	-5.308757729e-09 	7.266398658e-05
0.5520281168 	0.01476062287 	0.01438281806 	-3.48460506e-07 	0.03812086484 	-1.350383322e-06 	7.266896354e-05
0.5546006518 	0.0147997062 	0.01441263379 	2.15382512e-07 	0.03813448951 	-3.084745825e-08 	7.269493594e-05
0.5576913108 	0.01484821369 	0.01444956772 	4.637289241e-07 	0.03815386601 	-6.671022896e-08 	7.273187293e-05
0.5608136116 	0.01489803218 	0.01448737993 	7.038379345e-07 	0.03817683674 	-1.020104107e-07 	7.277566152e-05
0.5639687067 	0.0149489885 	0.01452579058 	9.3574847e-07 	0.03820400751 	-1.369808123e-07 	7.282745658e-05
0.567184494 	0.01500188761 	0.01456539413 	1.162203477e-06 	0.03823493078 	-1.720598272e-07 	7.288640491e-05
0.5704332106 	0.01505711973 	0.01460670912 	1.379516686e-06 	0.03826840919 	-2.072060736e-07 	7.295022407e-05
0.5737152938 	0.01511371714 	0.01464886609 	1.587949014e-06 	0.03830526771 	-2.424926925e-07 	7.302048665e-05
0.5770372296 	0.01517185375 	0.01469190241 	1.788234601e-06 	0.03834566525 	-2.780918782e-07 	7.30974956e-05
0.5804142413 	0.01523216095 	0.01473629606 	1.981399475e-06 	0.03838907318 	-3.14113723e-07 	7.318024317e-05
0.5838259791 	0.01529472207 	0.01478227336 	2.165125231e-06 	0.0384345665 	-3.506728534e-07 	7.326696609e-05
0.5872729134 	0.01535864553 	0.01482897765 	2.339762199e-06 	0.03848315387 	-3.876794219e-07 	7.335958712e-05
0.5907705878 	0.01542451226 	0.01487679245 	2.50662763e-06 	0.03853452547 	-4.252176968e-07 	7.345751567e-05
0.5943140224 	0.01549277231 	0.01492614793 	2.664535401e-06 	0.03858778537 	-4.632757818e-07 	7.355904383e-05
0.5978940924 	0.01556287476 	0.01497662157 	2.469106639e-06 	0.03864300002 	-4.405483545e-07 	7.36642983e-05
0.6015149511 	0.01563460706 	0.0150279165 	2.272442242e-06 	0.03870063264 	-4.163870511e-07 	7.37741621e-05
0.6051922863 	0.01570861624 	0.01508050272 	2.082781451e-06 	0.03876007925 	-3.919864289e-07 	7.388748385e-05
0.6089077541 	0.01578494291 	0.01513453525 	1.901626363e-06 	0.03882042494 	-3.679603674e-07 	7.400251951e-05
0.612661888 	0.01586272274 	0.01518919057 	1.728855532e-06 	0.03888268797 	-3.440727649e-07 	7.412121015e-05
0.6164727598 	0.01594266075 	0.01524494359 	1.563195355e-06 	0.03894632031 	-3.199108675e-07 	7.424251108e-05
0.6203260974 	0.01602500722 	0.01530209965 	1.405872906e-06 	0.03901023867 	-2.959499104e-07 	7.436435723e-05
0.6242196901 	0.01610882548 	0.01535981902 	1.256951961e-06 	0.03907535 	-2.721589059e-07 	7.448847752e-05
0.6281668391 	0.01619462901 	0.01541841082 	1.115493435e-06 	0.0391412395 	-2.482828425e-07 	7.461408123e-05
0.6321607674 	0.01628268764 	0.01547815604 	9.822273908e-07 	0.03920692161 	-2.246199747e-07 	7.473928959e-05
0.6361966073 	0.01637215233 	0.01553831262 	8.573159107e-07 	0.03927310097 	-2.012931512e-07 	7.486544585e-05
0.6402856089 	0.01646335201 	0.01559904008 	7.400245123e-07 	0.03933946026 	-1.781614136e-07 	7.499194509e-05
0.6444231319 	0.01655647923 	0.01566053748 	6.309237213e-07 	0.03940509217 	-1.555176663e-07 	7.511705776e-05
0.6486042948 	0.01665066131 	0.01572204676 	5.300907624e-07 	0.03947070976 	-1.335368642e-07 	7.524214311e-05
0.6528401147 	0.01674615309 	0.0157836752 	4.369265601e-07 	0.03953594907 	-1.121883487e-07 	7.536650738e-05
0.6571245484 	0.0168429203 	0.01584543106 	3.519946293e-07 	0.03960007785 	-9.18312097e-08 	7.548875466e-05
0.6614544254 	0.01693999844 	0.01590647549 	2.751909604e-07 	0.03966393408 	-7.265536013e-08 	7.561048238e-05
0.6658416149 	0.01703759349 	0.0159668978 	2.060725623e-07 	0.03972699837 	-5.475290603e-08 	7.573070044e-05
0.6702766106 	0.01713519476 	0.01602630709 	1.451709721e-07 	0.03978906617 	-3.85461717e-08 	7.584901892e-05
0.6747608143 	0.01723187044 	0.01608388502 	9.214041169e-08 	0.03985089673 	-2.421769222e-08 	7.596688515e-05
0.6793018053 	0.01732728654 	0.01613938736 	4.691881466e-08 	0.03991180494 	-1.204184146e-08 	7.608299313e-05
0.6838407313 	0.01741946861 	0.01619143194 	1.002229125e-08 	0.03997195444 	-2.465817239e-09 	7.619765479e-05
0.68533741 	0.01744861182 	0.01620727812 	-8.654050243e-07 	0.03999177554 	-2.951758091e-06 	7.623543931e-05
0.6883321244 	0.01750688265 	0.01623894304 	1.837216341e-08 	0.04003144119 	-4.206193411e-09 	7.631105308e-05
0.6927764795 	0.01758885277 	0.01628148746 	3.885746774e-08 	0.04009012171 	-7.727055693e-09 	7.642291445e-05
0.6971701987 	0.01766408984 	0.01631807128 	5.235073926e-08 	0.04014924341 	-8.168468348e-09 	7.653561684e-05
0.7015195371 	0.0177321414 	0.01634832808 	5.961789073e-08 	0.04020910945 	-5.569024647e-09 	7.664973816e-05
0.7058210368 	0.01779225648 	0.01637163605 	6.091272645e-08 	0.04027047313 	7.746181449e-10 	7.676671438e-05
0.7100738481 	0.01784287759 	0.01638645039 	5.727355891e-08 	0.04033643201 	8.946592474e-09 	7.689245034e-05
0.7142840845 	0.0178841193 	0.01639330942 	5.686986157e-08 	0.04040345747 	5.0910894e-09 	7.702021949e-05
0.7184469364 	0.01792982387 	0.01640240515 	3.884147712e-08 	0.0404494862 	-5.025056823e-08 	7.710796305e-05
0.7225632872 	0.01800540505 	0.01638299523 	5.525631184e-09 	0.04040633497 	-1.382913856e-07 	7.702570482e-05
0.7266374089 	0.01812005097 	0.01633603633 	1.127613201e-09 	0.04026249327 	-1.804121102e-07 	7.675150255e-05
0.730665764 	0.018254188 	0.0162995876 	4.577027564e-09 	0.04008069155 	-1.776414889e-07 	7.640493795e-05
0.7346493111 	0.0183889553 	0.0162681774 	1.240773757e-09 	0.03989313473 	-1.620974248e-07 	7.604740251e-05
0.7385913566 	0.01852187897 	0.01624003144 	-1.143750693e-09 	0.03970947459 	-1.438887935e-07 	7.569729526e-05
0.7424893035 	0.01865261599 	0.01621379446 	-3.218391015e-09 	0.03952770131 	-1.245705112e-07 	7.535078485e-05
0.74634377 	0.01878122541 	0.01618902313 	-4.50154034e-09 	0.03934708023 	-1.033488219e-07 	7.500647087e-05
0.7501578474 	0.01890792136 	0.01616583501 	-4.930359356e-09 	0.03916725787 	-8.030087588e-08 	7.466367948e-05
0.7539294053 	0.01903245682 	0.01614364684 	-4.401869158e-09 	0.0389881556 	-5.554709662e-08 	7.432226078e-05
0.7576589941 	0.01915451794 	0.01612190297 	-2.862274522e-09 	0.03881004887 	-2.952516183e-08 	7.398273985e-05
0.7613487646 	0.01927429519 	0.0161008235 	-2.824574277e-10 	0.03863285934 	-2.46811419e-09 	7.364496735e-05
0.7616645071 	0.01928444978 	0.01609902155 	-3.704925442e-07 	0.03861758331 	-1.36895384e-06 	7.361584699e-05
0.7649978035 	0.01939166728 	0.01608000325 	-3.158599838e-09 	0.03845629338 	-2.500435009e-08 	7.330838355e-05
0.7686063318 	0.01950629188 	0.01605882351 	-7.655589195e-09 	0.0382805386 	-5.310265563e-08 	7.29733461e-05
0.7721756267 	0.01961834405 	0.01603753246 	-1.318117449e-08 	0.03810558578 	-8.165227535e-08 	7.26398374e-05
0.7757060681 	0.01972782697 	0.01601594834 	-1.970240049e-08 	0.03793113158 	-1.106779577e-07 	7.230727921e-05
0.779197407 	0.01983446241 	0.01599352323 	-2.712423793e-08 	0.03775720879 	-1.39988324e-07 	7.197573403e-05
0.7826502185 	0.01993830987 	0.01597033094 	-3.533197078e-08 	0.03758388451 	-1.693643369e-07 	7.164532977e-05
0.7860658461 	0.02003948491 	0.01594642665 	-4.423569632e-08 	0.03741095821 	-1.987677657e-07 	7.131568418e-05
0.7894437099 	0.02013789163 	0.0159215143 	-5.372258924e-08 	0.03723827281 	-2.281337881e-07 	7.098649783e-05
0.7927842666 	0.02023340722 	0.01589534942 	-6.363795909e-08 	0.03706593646 	-2.572791257e-07 	7.065797683e-05
0.7960883722 	0.02032621883 	0.0158681737 	-7.385137243e-08 	0.03689390752 	-2.860645061e-07 	7.033004186e-05
0.7993563864 	0.0204163881 	0.01583993262 	-8.426287406e-08 	0.03672197128 	-3.145087434e-07 	7.000228361e-05
0.8025883531 	0.02050380529 	0.01581034699 	-9.471809358e-08 	0.03655011798 	-3.424841776e-07 	6.967468345e-05
0.8057846993 	0.02058852926 	0.01577947089 	-1.050729233e-07 	0.0363784333 	-3.698523789e-07 	6.934740474e-05
0.8089462876 	0.02067073463 	0.01574748761 	-1.152183943e-07 	0.0362068337 	-3.965414252e-07 	6.90202882e-05
0.812073146 	0.02075046988 	0.01571433532 	-1.250580299e-07 	0.03603517889 	-4.225512542e-07 	6.869306643e-05
0.8151655736 	0.02082768496 	0.01567985011 	-1.344511971e-07 	0.03586351824 	-4.477677517e-07 	6.836583351e-05
0.8182239713 	0.02090250365 	0.01564418 	-1.432897461e-07 	0.03569192573 	-4.720903714e-07 	6.803873049e-05
0.8212490869 	0.02097509395 	0.01560748697 	-1.515013117e-07 	0.0355203281 	-4.95486342e-07 	6.771161773e-05
0.8242409391 	0.02104550582 	0.01556972717 	-1.590104478e-07 	0.0353486524 	-5.179481119e-07 	6.738435612e-05
0.8271998887 	0.02111375036 	0.01553084096 	-1.657164789e-07 	0.03517696212 	-5.393946038e-07 	6.705706674e-05
0.8301263136 	0.02117994963 	0.01549096724 	-1.715504156e-07 	0.03500533902 	-5.59759872e-07 	6.672990541e-05
0.8330208137 	0.02124427387 	0.01545028131 	-1.764766848e-07 	0.03483374954 	-5.790251386e-07 	6.640280816e-05
0.835883524 	0.0213067908 	0.01540877888 	-1.804547786e-07 	0.03466215541 	-5.971996692e-07 	6.607570205e-05
0.8387147803 	0.02136754087 	0.01536644706 	-1.834247113e-07 	0.03449061657 	-6.142327731e-07 	6.574870134e-05
0.8415149398 	0.02142662383 	0.01532339034 	-1.853506926e-07 	0.03431923024 	-6.300885308e-07 	6.542199138e-05
0.8442844673 	0.02148420532 	0.01527979562 	-1.862266036e-07 	0.03414801325 	-6.447498009e-07 	6.50956042e-05
0.8470236332 	0.0215403831 	0.01523571587 	-1.860493295e-07 	0.03397693917 	-6.582462385e-07 	6.476948947e-05
0.8497327213 	0.02159519682 	0.01519113656 	-1.847887087e-07 	0.03380606311 	-6.705540204e-07 	6.44437522e-05
0.8524120703 	0.02164873859 	0.01514615237 	-1.824368959e-07 	0.03363548244 	-6.81658198e-07 	6.411857802e-05
0.8550620396 	0.02170113774 	0.01510090849 	-1.790022126e-07 	0.03346525953 	-6.915455801e-07 	6.379408585e-05
0.8576830073 	0.02175252461 	0.01505552672 	-1.745095504e-07 	0.03329539036 	-7.002442874e-07 	6.347026801e-05
0.8602752069 	0.0218029407 	0.01500999618 	-1.689525466e-07 	0.03312592014 	-7.077607362e-07 	6.314721066e-05
0.8628389602 	0.02185248066 	0.01496441144 	-1.623428499e-07 	0.03295692313 	-7.140882854e-07 	6.282505538e-05
0.8653745848 	0.02190121712 	0.01491883403 	-1.546877168e-07 	0.03278848595 	-7.192248713e-07 	6.250396731e-05
0.8678824306 	0.02194928504 	0.01487342184 	-1.460212576e-07 	0.03262066479 	-7.231752291e-07 	6.218405354e-05
0.8703627885 	0.02199677849 	0.01482824471 	-1.363679298e-07 	0.03245346944 	-7.259662809e-07 	6.186533272e-05
0.8728159327 	0.02204373815 	0.01478330588 	-1.257280985e-07 	0.03228697099 	-7.275990291e-07 	6.154794041e-05
0.8752421656 	0.02209026603 	0.01473871629 	-1.141271958e-07 	0.03212124361 	-7.280724947e-07 	6.123201795e-05
0.8776417855 	0.02213642684 	0.01469452442 	-1.015752418e-07 	0.0319563664 	-7.273856795e-07 	6.091771618e-05
0.8800151111 	0.02218234229 	0.01465086871 	-8.810707505e-08 	0.03179239903 	-7.255430725e-07 	6.060514879e-05
0.8823624151 	0.02222809484 	0.01460780551 	-7.373885786e-08 	0.03162936506 	-7.225578913e-07 	6.029436074e-05
0.8846839699 	0.02227373071 	0.01456534945 	-5.846897089e-08 	0.03146733976 	-7.184255855e-07 	5.998549548e-05
0.8869800602 	0.02231934909 	0.01452360316 	-4.231780067e-08 	0.03130639355 	-7.131378517e-07 	5.967868727e-05
0.889250967 	0.02236501113 	0.01448260407 	-2.528533943e-08 	0.03114660079 	-7.066834979e-07 	5.937407785e-05
0.8914969771 	0.02241082468 	0.01444246603 	-7.391815774e-09 	0.03098803214 	-6.990520927e-07 	5.907180194e-05
0.8937183629 	0.0224568808 	0.01440325663 	1.135757664e-08 	0.03083072049 	-6.902354523e-07 	5.87719222e-05
0.8959153816 	0.02250323209 	0.01436499013 	3.097818788e-08 	0.03067473476 	-6.802127236e-07 	5.847457006e-05
0.8980883014 	0.0225499727 	0.01432775179 	5.146711051e-08 	0.03052015198 	-6.689578587e-07 	5.817989231e-05
0.9002373876 	0.02259718229 	0.01429159336 	7.283459723e-08 	0.03036703673 	-6.564351038e-07 	5.788801209e-05
0.9023629021 	0.02264494617 	0.0142565786 	9.509028968e-08 	0.03021547 	-6.426086708e-07 	5.759908378e-05
0.9044651126 	0.0226933747 	0.01422280018 	1.182380806e-07 	0.03006551166 	-6.274379618e-07 	5.73132215e-05
0.9065442628 	0.02274255055 	0.01419029603 	1.370737443e-07 	0.02991721529 	-5.884217065e-07 	5.703052741e-05