0.4709558481 	0.05849733623 	2.661598805e-07 	-9.391088387e-12
0.4711314108 	0.1608410114 	3.021309316e-06 	-6.846056595e-11
0.4713069734 	0.3213374026 	1.188124745e-05 	-2.082155036e-10
0.471482536 	0.4806441725 	1.712290321e-05 	-2.565529941e-10
0.4716580986 	0.6363108018 	5.938674001e-06 	-1.865978028e-10
0.4718336613 	0.7840115667 	-6.96093584e-06 	-3.174901722e-10
0.4720092239 	0.919029922 	-2.268661494e-06 	-6.75605291e-10
0.4721847865 	1.038501735 	1.139183447e-05 	-9.832727839e-10
0.4723603491 	1.142224362 	2.07585022e-05 	-1.204364916e-09
0.4725359118 	1.231776474 	2.598448883e-05 	-1.43123406e-09
0.4727114744 	1.309331193 	3.023458948e-05 	-1.67834405e-09
0.472887037 	1.376975573 	3.448721334e-05 	-1.93543472e-09
0.4730625996 	1.436480278 	3.884032992e-05 	-2.198878432e-09
0.4732381623 	1.489278309 	4.329646088e-05 	-2.46770605e-09
0.4734137249 	1.536511117 	4.785707552e-05 	-2.74116074e-09
0.4735892875 	1.579086098 	5.251440079e-05 	-3.018571823e-09
0.4737648501 	1.617727751 	5.725543321e-05 	-3.299452583e-09
0.4739404128 	1.653018794 	6.206758877e-05 	-3.583467171e-09
0.4741159754 	1.685431923 	6.694073103e-05 	-3.870375226e-09
0.474291538 	1.715353992 	7.186717768e-05 	-4.159995057e-09
0.4744671006 	1.743104395 	7.68411884e-05 	-4.452182977e-09
0.4746426632 	1.768949055 	8.185845204e-05 	-4.746821101e-09
0.4748182259 	1.793111156 	8.691569575e-05 	-5.043809909e-09
0.4749937885 	1.815779431 	9.201034704e-05 	-5.343063162e-09
0.4751693511 	1.837114608 	9.714046051e-05 	-5.6445048e-09
0.4753449137 	1.85725447 	0.0001023040488 	-5.94806634e-09
0.4755204764 	1.876317863 	0.0001075009919 	-6.253686217e-09
0.475696039 	1.894407888 	0.0001127266367 	-6.561306324e-09
0.4758716016 	1.911614407 	0.0001179931336 	-6.870872432e-09
0.4760471642 	1.928016609 	0.0001232586306 	-7.182335791e-09
0.4762227269 	1.945800379 	0.0001292718428 	-7.53914145e-09
0.4764955107 	1.96680555 	0.0001369415841 	-7.988357322e-09
0.4767734216 	1.988773537 	0.0001455125223 	-8.492385613e-09
0.4770565557 	2.009803819 	0.0001542543463 	-9.010226071e-09
0.4773450114 	2.029984329 	0.0001632518668 	-9.542155082e-09
0.4776388886 	2.049393045 	0.0001724796006 	-1.008846293e-08
0.4779382892 	2.068098542 	0.0001819504548 	-1.064945138e-08
0.4782433171 	2.086161519 	0.0001916668129 	-1.12254289e-08
0.4785540779 	2.10363591 	0.0002016345676 	-1.181671405e-08
0.4788706795 	2.120569827 	0.0002118588517 	-1.242363504e-08
0.4791932316 	2.137006341 	0.000222345226 	-1.304652984e-08
0.4795218461 	2.152984143 	0.0002330993601 	-1.368574616e-08
0.4798566368 	2.168538093 	0.0002441271236 	-1.434164143e-08
0.48019772 	2.183699695 	0.0002554345605 	-1.501458275e-08
0.4805452138 	2.198497495 	0.0002670278965 	-1.570494682e-08
0.4808992388 	2.212957421 	0.0002789135386 	-1.641311997e-08
0.4812599177 	2.22710308 	0.0002910980771 	-1.713949809e-08
0.4816273755 	2.240956009 	0.0003035882877 	-1.78844865e-08
0.4820017397 	2.254535894 	0.0003163911338 	-1.864849986e-08
0.48238314 	2.267860764 	0.0003295137688 	-1.943196209e-08
0.4827717088 	2.280947154 	0.0003429635384 	-2.023530626e-08
0.4831675807 	2.293810253 	0.0003567479829 	-2.105897438e-08
0.4835708931 	2.306464032 	0.0003708748397 	-2.190341717e-08
0.4839817856 	2.318921358 	0.0003853520453 	-2.276909397e-08
0.4844004009 	2.331194092 	0.0004001877368 	-2.365647237e-08
0.4848268841 	2.34329318 	0.000415390254 	-2.4566028e-08
0.485261383 	2.355228731 	0.0004309681398 	-2.549824405e-08
0.4857040484 	2.367010089 	0.0004469301416 	-2.645361103e-08
0.4861550336 	2.378645895 	0.0004632852111 	-2.743262621e-08
0.4866144951 	2.390144141 	0.0004800425038 	-2.843579311e-08
0.4870825921 	2.401512228 	0.0004972113784 	-2.94636209e-08
0.487559487 	2.412757003 	0.0005148013946 	-3.051662368e-08
0.4880453452 	2.423884806 	0.0005328223105 	-3.159531973e-08
0.4885403351 	2.434901505 	0.0005512840793 	-3.270023056e-08
0.4890446283 	2.445812529 	0.0005701968443 	-3.383187988e-08
0.4895583997 	2.456622899 	0.0005895709337 	-3.499079241e-08
0.4900818274 	2.467337252 	0.000609416853 	-3.617749256e-08
0.4906150929 	2.477959872 	0.0006297452771 	-3.739250291e-08
0.4911583811 	2.488494703 	0.00065056704 	-3.863634241e-08
0.4917118805 	2.498945374 	0.0006718931233 	-3.990952448e-08
0.4922757829 	2.509315218 	0.0006937346424 	-4.121255475e-08
0.4928502838 	2.519607279 	0.0007161028312 	-4.254592852e-08
0.4934355824 	2.529824336 	0.0007390090232 	-4.391012792e-08
0.4940318817 	2.539968905 	0.0007624646316 	-4.530561865e-08
0.4946393885 	2.550043256 	0.000786481125 	-4.673284633e-08
0.4952583133 	2.560049418 	0.0008110700006 	-4.819223243e-08
0.4958888709 	2.569989188 	0.0008362427539 	-4.968416961e-08
0.4965312797 	2.579864132 	0.0008620108434 	-5.120901658e-08
0.4971857627 	2.589675594 	0.000888385652 	-5.276709223e-08
0.4978525466 	2.599424699 	0.0009153784427 	-5.435866921e-08
0.4985318627 	2.609112349 	0.0009430003088 	-5.598396669e-08
0.4992239466 	2.618739228 	0.0009712621181 	-5.764314235e-08
0.4999290382 	2.628305803 	0.001000174452 	-5.933628347e-08
0.5006473819 	2.637812319 	0.001029747529 	-6.106339712e-08
0.501379227 	2.647258798 	0.00105999115 	-6.282439917e-08
0.502124827 	2.656645039 	0.001090914525 	-6.461910282e-08
0.5028844406 	2.665970616 	0.001122526476 	-6.644720144e-08
0.5036583311 	2.675234877 	0.001154834433 	-6.830826201e-08
0.5044467669 	2.684436929 	0.001187847614 	-7.020169154e-08
0.5052500214 	2.693575722 	0.001221566518 	-7.212686565e-08
0.506068373 	2.703801937 	0.001260433121 	-7.433421814e-08
0.507324668 	2.716131982 	0.001308988749 	-7.707081164e-08
0.5085949819 	2.729250283 	0.001362698885 	-8.007056444e-08
0.5098794711 	2.742019552 	0.001417073881 	-8.307560599e-08
0.5111782938 	2.754454351 	0.001472085085 	-8.60794401e-08
0.5124916099 	2.766567579 	0.001527681891 	-8.907531217e-08
0.5138195812 	2.778370451 	0.001583817135 	-9.205603483e-08
0.5151623712 	2.789872692 	0.001640437667 	-9.501402921e-08
0.5165201452 	2.801082679 	0.00169748674 	-9.794131291e-08
0.5178930705 	2.812007577 	0.00175490305 	-1.008295164e-07
0.5192813161 	2.822653456 	0.001812620865 	-1.036698985e-07
0.520685053 	2.833025405 	0.001870569863 	-1.064533696e-07
0.522104454 	2.843127635 	0.001928675085 	-1.091705231e-07
0.523539694 	2.852963574 	0.001986856904 	-1.118116744e-07
0.5249909497 	2.862535953 	0.002045031039 	-1.143669102e-07
0.5264583998 	2.871846893 	0.002103108608 	-1.168261488e-07
0.527942225 	2.880897982 	0.002160996242 	-1.191792136e-07
0.5294426081 	2.88969035 	0.002218596252 	-1.214159199e-07
0.5309597337 	2.898224741 	0.002275806868 	-1.235261803e-07
0.5324937889 	2.906501586 	0.002332522542 	-1.255001249e-07
0.5340449624 	2.914521067 	0.002388634349 	-1.273282394e-07
0.5356134452 	2.922283194 	0.002444030468 	-1.290015271e-07
0.5371994306 	2.929787868 	0.002498596792 	-1.305116965e-07
0.5388031139 	2.937034955 	0.002552217644 	-1.318513703e-07
0.5404246925 	2.944024359 	0.002604776632 	-1.330143032e-07
0.5420643661 	2.950756097 	0.002656157611 	-1.339955752e-07
0.5437223366 	2.957230366 	0.002706245732 	-1.347917557e-07
0.5453988083 	2.963447612 	0.002754928547 	-1.354010344e-07
0.5470939875 	2.969408595 	0.002802097151 	-1.358233373e-07
0.5488080831 	2.975114448 	0.002847647384 	-1.360604498e-07
0.5505413061 	2.980566736 	0.002891481084 	-1.361161355e-07
0.5522938699 	2.985767519 	0.002933507423 	-1.359962467e-07
0.5540659904 	2.990719404 	0.002973644249 	-1.357087379e-07
0.5558578859 	2.995425592 	0.003011819306 	-1.352634984e-07
0.5576697768 	2.999889904 	0.003047971283 	-1.346722494e-07
0.5595018865 	3.004116787 	0.003082050626 	-1.339480944e-07
0.5613544406 	3.008111303 	0.003114020001 	-1.331050779e-07
0.563227667 	3.011879096 	0.003143854516 	-1.321580153e-07
0.5651217966 	3.015426356 	0.003171541694 	-1.31122112e-07
0.5670370626 	3.018759762 	0.003197081196 	-1.300126113e-07
0.5689737009 	3.021886419 	0.003220484297 	-1.288444548e-07
0.5709319499 	3.024813784 	0.003241773138 	-1.276319661e-07
0.5729120508 	3.027549584 	0.003260979769 	-1.263885791e-07
0.5749142474 	3.030101736 	0.003278145061 	-1.251266216e-07
0.5769387863 	3.032478257 	0.003293317498 	-1.238571551e-07
0.5789859169 	3.034687189 	0.003306551917 	-1.225898729e-07
0.5810558911 	3.036736513 	0.003317908235 	-1.213330516e-07
0.583148964 	3.038634084 	0.003327450203 	-1.200935513e-07
0.5852653933 	3.04038756 	0.003335244208 	-1.188768567e-07
0.5874054395 	3.042004352 	0.003341358173 	-1.176871501e-07
0.5895693664 	3.043491576 	0.003345860542 	-1.165274086e-07
0.5917574402 	3.044856014 	0.003348819392 	-1.153995174e-07
0.5939699306 	3.046104083 	0.003350301658 	-1.143043915e-07
0.5962071099 	3.047241819 	0.00335037247 	-1.132421009e-07
0.5984692536 	3.048274859 	0.003349094619 	-1.12211993e-07
0.6007566404 	3.049208437 	0.003346528118 	-1.112128102e-07
0.6030695519 	3.050047381 	0.003342729872 	-1.10242799e-07
0.6054082729 	3.050796116 	0.003337753435 	-1.092998098e-07
0.6077730914 	3.051458675 	0.003331648841 	-1.083813853e-07
0.6101642987 	3.052038706 	0.003324462511 	-1.074848391e-07
0.6125821893 	3.052539489 	0.003316237211 	-1.066073243e-07
0.6150270608 	3.052963948 	0.003307012066 	-1.057458879e-07
0.6174992144 	3.053314668 	0.003296822602 	-1.048975365e-07
0.6199989545 	3.053593916 	0.003285700849 	-1.040592193e-07
0.622526589 	3.053803653 	0.003273675383 	-1.032280189e-07
0.625082429 	3.053945557 	0.00326077161 	-1.02400514e-07
0.6276667894 	3.054021039 	0.00324701106 	-1.015753019e-07
0.6302799884 	3.054031261 	0.003232414538 	-1.007475744e-07
0.6329223478 	3.053977153 	0.003216997176 	-9.991547043e-08
0.6355941931 	3.05385942 	0.003200771932 	-9.90777667e-08
0.6382958531 	3.053678568 	0.003183751408 	-9.823000783e-08
0.6410276607 	3.05343492 	0.003165943204 	-9.737108756e-08
0.6437899523 	3.053128623 	0.003147354004 	-9.649858754e-08
0.646583068 	3.052759668 	0.00312798807 	-9.561057281e-08
0.6494073518 	3.052327895 	0.003107847739 	-9.470516486e-08
0.6522631514 	3.051833012 	0.003086933478 	-9.378066419e-08
0.6551508186 	3.051274597 	0.003065244033 	-9.28355085e-08
0.658070709 	3.050652117 	0.003042776537 	-9.186828673e-08
0.6610231822 	3.04996493 	0.003019526624 	-9.087773698e-08
0.6640086017 	3.049212296 	0.002995488523 	-8.986274812e-08
0.6670273351 	3.048393387 	0.002970655153 	-8.882235925e-08
0.6700797543 	3.047507291 	0.002945018212 	-8.775575905e-08
0.6731662352 	3.046553019 	0.002918568254 	-8.666228443e-08
0.6762871577 	3.045529512 	0.002891294759 	-8.554141868e-08
0.6794429063 	3.044435646 	0.002863186208 	-8.439278897e-08
0.6826338695 	3.043270235 	0.002834230141 	-8.321616322e-08
0.6858604404 	3.042032039 	0.002804413214 	-8.201144623e-08
0.6891230163 	3.040719764 	0.002773721258 	-8.077867495e-08
0.6924219988 	3.039332066 	0.002742139333 	-7.951801286e-08
0.6957577944 	3.037867555 	0.002709651774 	-7.822974327e-08
0.6991308138 	3.036324797 	0.00267624225 	-7.691426146e-08
0.7025414724 	3.034702314 	0.002641893815 	-7.557206551e-08
0.7059901901 	3.032998586 	0.002606588968 	-7.420374567e-08
0.7094773917 	3.031212049 	0.002570309717 	-7.280997218e-08
0.7130035066 	3.029341101 	0.002533037648 	-7.139148143e-08
0.7165689691 	3.027384092 	0.00249475401 	-6.99490603e-08
0.7201742182 	3.025339327 	0.002455439809 	-6.848352887e-08
0.7238196978 	3.023205065 	0.002415075916 	-6.69957209e-08
0.727505857 	3.020979507 	0.002373643223 	-6.548646416e-08
0.7312331497 	3.018660798 	0.002331122754 	-6.395655121e-08
0.7350020349 	3.016253522 	0.002287612588 	-6.241083959e-08
0.7387709215 	3.013777653 	0.002243478981 	-6.086322714e-08
0.7424982157 	3.011255374 	0.00219910942 	-5.932750575e-08
0.7461843763 	3.008695518 	0.002154644291 	-5.780819136e-08
0.7498298574 	3.006100267 	0.00211010748 	-5.630547925e-08
0.7534351078 	3.003471642 	0.002065522703 	-5.481936088e-08
0.7570005716 	3.000811505 	0.002020913483 	-5.334962933e-08
0.7605266877 	2.998121561 	0.001976303182 	-5.189589471e-08
0.7640138905 	2.995403362 	0.001931715015 	-5.045760059e-08
0.7674626093 	2.992658311 	0.001887172068 	-4.903404246e-08
0.770873269 	2.989887664 	0.001842697305 	-4.762438743e-08
0.7742462894 	2.987092537 	0.001798313583 	-4.622769482e-08
0.777582086 	2.984273903 	0.001754043659 	-4.484293704e-08
0.7808810695 	2.981432601 	0.001709910198 	-4.34690206e-08
0.7841436462 	2.978569335 	0.00166593578 	-4.210480672e-08
0.787370218 	2.975684683 	0.0016221429 	-4.074913129e-08
0.7905611821 	2.972779093 	0.001578553969 	-3.940082395e-08
0.7937169314 	2.969852892 	0.001535191316 	-3.805872615e-08
0.7968378547 	2.966906285 	0.001492077179 	-3.672170786e-08
0.7999243362 	2.96393936 	0.001449233701 	-3.538868302e-08
0.8029767561 	2.960952092 	0.001406682919 	-3.405862348e-08
0.8059954902 	2.957944343 	0.001364446755 	-3.273057148e-08
0.8089809102 	2.954915865 	0.001322546999 	-3.140365068e-08
0.8119333839 	2.951866304 	0.001281005297 	-3.007707563e-08
0.8148532749 	2.948795203 	0.001239843133 	-2.875015985e-08
0.8177409426 	2.945702001 	0.001199081808 	-2.742232246e-08
0.8205967427 	2.942586038 	0.00115874242 	-2.609309356e-08
0.8234210268 	2.939446556 	0.001118845846 	-2.47621183e-08
0.8262141429 	2.936282702 	0.001079412715 	-2.342915979e-08
0.8289764348 	2.933093527 	0.001040463389 	-2.209410098e-08
0.8317082427 	2.929877991 	0.001002017933 	-2.075694555e-08
0.8344099031 	2.926634963 	0.0009640960955 	-1.941781795e-08
0.8370817486 	2.923363221 	0.0009267172816 	-1.807696257e-08
0.8397241082 	2.920061456 	0.0008899005255 	-1.673474234e-08
0.8423373074 	2.916728273 	0.0008536644662 	-1.539163663e-08
0.844921668 	2.913362191 	0.0008180273199 	-1.404823867e-08
0.8474775082 	2.909961643 	0.0007830068537 	-1.27052525e-08
0.8500051427 	2.90652498 	0.0007486203578 	-1.13634895e-08
0.8525048829 	2.90305047 	0.0007148846183 	-1.002386467e-08
0.8549770366 	2.899536301 	0.0006818158888 	-8.687392517e-09
0.8574219081 	2.895980577 	0.000649429862 	-7.355182821e-09
0.8598397987 	2.892381327 	0.0006177416408 	-6.028436086e-09
0.862231006 	2.888736497 	0.0005867657086 	-4.708438895e-09
0.8645958245 	2.885043959 	0.0005565158995 	-3.396559072e-09
0.8669345455 	2.881301506 	0.0005270053669 	-2.094240693e-09
0.8692474569 	2.877506856 	0.000498246553 	-8.029989816e-10
0.8715348435 	2.873657652 	0.0004702511558 	4.755849538e-10
0.8737969871 	2.869751465 	0.0004430300972 	1.739869517e-09
0.8760341663 	2.865785791 	0.0004165934886 	2.988158189e-09
0.8782466565 	2.861758057 	0.000390950598 	4.218705252e-09
0.8804347301 	2.857665622 	0.0003661098141 	5.429721698e-09
0.8825986568 	2.853505773 	0.0003420786124 	6.619381361e-09
0.8847387028 	2.849275734 	0.000318863519 	7.78582729e-09
0.8868551318 	2.844972664 	0.0002964700754 	8.927178341e-09
0.8889482045 	2.840593658 	0.0002749028026 	1.004153607e-08
0.8910181784 	2.836135752 	0.0002541651661 	1.112699195e-08
0.8930653087 	2.831595922 	0.0002342595411 	1.218163484e-08
0.8950898473 	2.826971089 	0.0002151871778 	1.320355884e-08
0.8970920436 	2.822258119 	0.0001969481696 	1.419087146e-08
0.8990721441 	2.817453828 	0.0001795414208 	1.514170213e-08
0.9010303927 	2.81255498 	0.0001629646175 	1.605421108e-08
0.9029670306 	2.807558296 	0.0001472142006 	1.692659848e-08
0.9048822962 	2.802460448 	0.000132285341 	1.775711392e-08
0.9067764254 	2.79725807 	0.0001181719188 	1.85440662e-08
0.9086496514 	2.791947753 	0.0001048665057 	1.928583331e-08
0.910502205 	2.78652605 	9.236035128e-05 	1.99808726e-08
0.9123343142 	2.780989477 	8.064337492e-05 	2.062773108e-08
0.9141462048 	2.775334517 	6.97041616e-05 	2.122505583e-08
0.9159380997 	2.769557614 	5.952996391e-05 	2.177160428e-08
0.9177102197 	2.76365518 	5.010670973e-05 	2.226625456e-08
0.9194627831 	2.75762359 	4.141901611e-05 	2.270801548e-08
0.9211960055 	2.751459182 	3.345020981e-05 	2.309603636e-08
0.9229101006 	2.745158255 	2.618235452e-05 	2.342961636e-08
0.9246052793 	2.738717067 	1.959628518e-05 	2.370821343e-08
0.9262817504 	2.732131826 	1.367164928e-05 	2.393145293e-08
0.9279397204 	2.725398689 	8.386955401e-06 	2.409913458e-08
0.9295793934 	2.718513751 	3.71962883e-06 	2.421124104e-08
0.9312009714 	2.711473036 	-3.539253966e-07 	2.426793053e-08
0.9328046541 	2.704272487 	-3.858250635e-06 	2.426956467e-08
0.9343906389 	2.696907953 	-6.818765685e-06 	2.421669028e-08
0.9359591211 	2.68937517 	-9.261681689e-06 	2.41100502e-08
0.937510294 	2.681669747 	-1.121391734e-05 	2.395059264e-08
0.9390443485 	2.673787142 	-1.270299949e-05 	2.373948228e-08
0.9405614735 	2.665722638 	-1.37569806e-05 	2.347803764e-08
0.942061856 	2.657471313 	-1.440425206e-05 	2.316805655e-08
0.9435456805 	2.649028015 	-1.467383528e-05 	2.281040668e-08
0.9450131299 	2.640387317 	-1.459435512e-05 	2.240805772e-08
0.946464385 	2.631543483 	-1.419492267e-05 	2.196300112e-08
0.9478996243 	2.622490419 	-1.350490199e-05 	2.147636019e-08
0.9493190246 	2.613221624 	-1.255290966e-05 	2.095147783e-08
0.9507227608 	2.603730124 	-1.136772466e-05 	2.039070235e-08
0.9521110058 	2.594008413 	-9.977692054e-06 	1.979678278e-08
0.9534839303 	2.584048373 	-8.410741078e-06 	1.917257058e-08
0.9548417036 	2.573841187 	-6.694246674e-06 	1.852106773e-08
0.9561844929 	2.563377243 	-4.855024111e-06 	1.784538421e-08
0.9575124634 	2.552646022 	-2.918955208e-06 	1.714873456e-08
0.9588257788 	2.541635969 	-9.117926078e-07 	1.643439868e-08
0.9601246008 	2.530334356 	1.143717782e-06 	1.570575049e-08
0.9614090893 	2.518727084 	3.21733473e-06 	1.496614637e-08
0.9626794024 	2.50679872 	5.298087942e-06 	1.421924705e-08
0.9639356968 	2.49558298 	7.19014304e-06 	1.353210891e-08
0.9647540487 	2.486276175 	8.688499567e-06 	1.297461422e-08
0.9655573034 	2.477953575 	9.979544704e-06 	1.248692404e-08
0.9663457395 	2.469568626 	1.123213618e-05 	1.200654498e-08
0.9671196303 	2.461121728 	1.243666004e-05 	1.15341171e-08
0.9678792442 	2.45261322 	1.359287997e-05 	1.107036377e-08
0.9686248445 	2.444043297 	1.469762239e-05 	1.061589234e-08
0.9693566897 	2.43541201 	1.574899046e-05 	1.017124012e-08
0.9700750337 	2.426719268 	1.674525113e-05 	9.736865637e-09
0.9707801255 	2.417964828 	1.768515475e-05 	9.313157181e-09
0.9714722095 	2.409148297 	1.856779557e-05 	8.900435405e-09
0.9721515258 	2.400269126 	1.939260639e-05 	8.49895759e-09
0.9728183099 	2.391326606 	2.015932111e-05 	8.108921679e-09
0.9734727929 	2.382319869 	2.086794906e-05 	7.730470359e-09
0.9741152019 	2.373247873 	2.151874773e-05 	7.363695262e-09
0.9747457596 	2.364109406 	2.211219788e-05 	7.00864114e-09
0.9753646845 	2.354903075 	2.264897974e-05 	6.665309928e-09
0.9759721914 	2.345627298 	2.312995076e-05 	6.333664623e-09
0.9765684907 	2.336280297 	2.355612461e-05 	6.013632862e-09
0.9771537895 	2.326860086 	2.392865162e-05 	5.70511143e-09
0.9777282904 	2.317364463 	2.424880023e-05 	5.407967081e-09
0.9782921928 	2.307790994 	2.451794e-05 	5.122047149e-09
0.9788456922 	2.298137005 	2.473752324e-05 	4.847149231e-09
0.9793889805 	2.288399559 	2.490907638e-05 	4.583126074e-09
0.979922246 	2.278575446 	2.50341761e-05 	4.329607616e-09
0.9804456737 	2.268661161 	2.511453175e-05 	4.087196169e-09
0.9809594451 	2.258652884 	2.515162416e-05 	3.853224291e-09
0.9814637383 	2.248546456 	2.514712175e-05 	3.631411019e-09
0.9819587281 	2.238337358 	2.510309089e-05 	3.418858747e-09
0.9824445862 	2.228020679 	2.502094697e-05 	3.213230397e-09
0.9829214811 	2.217591091 	2.49022406e-05 	3.018737717e-09
0.9833895781 	2.207042809 	2.474884194e-05 	2.832379914e-09
0.9838490396 	2.196369555 	2.456235178e-05 	2.654566273e-09
0.9843000247 	2.185564522 	2.434440417e-05 	2.484965413e-09
0.98474269 	2.174620322 	2.409659893e-05 	2.323373864e-09
0.9851771888 	2.163528942 	2.382050782e-05 	2.169520912e-09
0.9856036719 	2.152281681 	2.351766486e-05 	2.02315419e-09
0.9860222871 	2.140869095 	2.318956491e-05 	1.884021129e-09
0.9864331796 	2.129280921 	2.28376611e-05 	1.751873697e-09
0.9868364919 	2.117506003 	2.246336311e-05 	1.626467387e-09
0.9872323637 	2.105532204 	2.206803578e-05 	1.50756217e-09
0.9876209323 	2.093346306 	2.165299814e-05 	1.394922786e-09
0.9880023326 	2.080933902 	2.121952287e-05 	1.28831908e-09
0.9883766967 	2.068279269 	2.076883613e-05 	1.187526308e-09
0.9887441544 	2.055365225 	2.03021176e-05 	1.092325296e-09
0.9891048331 	2.04217297 	1.982050087e-05 	1.002502546e-09
0.9894588579 	2.028681898 	1.932507397e-05 	9.178502878e-10
0.9898063516 	2.014869383 	1.881688004e-05 	8.381665657e-10
0.9901474347 	2.000710539 	1.829691791e-05 	7.632552354e-10
0.9904822253 	1.986177931 	1.776614325e-05 	6.929259807e-10
0.9908108397 	1.971241248 	1.722546706e-05 	6.269942498e-10
0.9911333916 	1.95586692 	1.667576227e-05 	5.652813767e-10
0.9914499931 	1.940017659 	1.61178383e-05 	5.076145005e-10
0.9917607538 	1.923651934 	1.555252817e-05 	4.538267345e-10
0.9920657815 	1.906723337 	1.49803822e-05 	4.037568724e-10
0.9923651819 	1.889179827 	1.440280051e-05 	3.572507368e-10
0.992659059 	1.870962831 	1.381792426e-05 	3.141588776e-10
0.9929475145 	1.852006174 	1.323420694e-05 	2.743456458e-10
0.9932306485 	1.832234608 	1.262322304e-05 	2.376494512e-10
0.9935085592 	1.811563285 	1.206369425e-05 	2.039406058e-10
0.9937813429 	1.791781 	1.157328416e-05 	1.756477287e-10
0.9939569055 	1.775019107 	1.109043973e-05 	1.544132548e-10
0.9941324681 	1.759547622 	1.0672843e-05 	1.367761693e-10
0.9943080307 	1.743305169 	1.027968739e-05 	1.200829177e-10
0.9944835934 	1.726214583 	9.870042279e-06 	1.043457845e-10
0.994659156 	1.708188283 	9.456758397e-06 	8.958955651e-11
0.9948347186 	1.689125755 	9.036142709e-06 	7.582210325e-11
0.9950102812 	1.66891113 	8.609093029e-06 	6.305641975e-11
0.9951858439 	1.64741007 	8.174771066e-06 	5.130474708e-11
0.9953614065 	1.624465899 	7.732515193e-06 	4.057951118e-11
0.9955369691 	1.599894733 	7.281225751e-06 	3.089170637e-11
0.9957125317 	1.573479306 	6.819359174e-06 	2.224972079e-11
0.9958880943 	1.544961089 	6.344704621e-06 	1.465755046e-11
0.996063657 	1.514030187 	5.854182695e-06 	8.112756485e-12
0.9962392196 	1.480312291 	5.343662393e-06 	2.603654157e-12
0.9964147822 	1.443351819 	4.808049343e-06 	-1.89434424e-12
0.9965903448 	1.402590154 	4.2423622e-06 	-5.423652201e-12
0.9967659075 	1.357337879 	3.645145424e-06 	-8.049335601e-12
0.9969414701 	1.306740437 	3.02397628e-06 	-9.855058376e-12
0.9971170327 	1.249738702 	2.395460045e-06 	-1.092578835e-11
0.9972925953 	1.185032334 	1.788809229e-06 	-1.14000017e-11
0.997468158 	1.111070715 	1.439959911e-06 	-1.179907284e-11
0.9976437206 	1.026135733 	2.628734556e-06 	-1.278501439e-11
0.9978192832 	0.9286473626 	7.733379068e-06 	-1.062987828e-11
0.9979948458 	0.8178369696 	1.407764939e-05 	2.311527848e-12
0.9981704085 	0.6946336737 	1.058331358e-05 	1.481366715e-11
0.9983459711 	0.561962244 	-3.368280203e-06 	5.331243541e-12
0.9985215337 	0.4237049382 	-1.101800687e-05 	-1.152401361e-11
0.9986970963 	0.2830304861 	-6.695203363e-06 	-1.126394603e-11
0.998872659 	0.1416094068 	-1.385153209e-06 	-3.279952714e-12
0.9990482216 	0.0596355602 	-6.282744964e-08 	-4.323165663e-13
