5.827988603e-37 	1.39133204 	-5.683612854e-14 	1.292890087e-19
0.0003175062146 	1.391331285 	-5.164256126e-05 	1.223748433e-09
0.0006350119567 	1.391332706 	-9.793277141e-05 	2.182772542e-09
0.000952517226 	1.391339717 	-0.0001430571963 	3.003908789e-09
0.001270022022 	1.391351674 	-0.0001901091692 	3.741965168e-09
0.001587526343 	1.391368222 	-0.0002371572362 	4.35574733e-09
0.00190503019 	1.391389229 	-0.0002843030573 	4.846886924e-09
0.002222533562 	1.391414614 	-0.0003314518445 	5.213688007e-09
0.002540036458 	1.391444329 	-0.0003786161451 	5.456170236e-09
0.002857538879 	1.391478338 	-0.0004257825576 	5.574053314e-09
0.003175040824 	1.391516616 	-0.0004729457993 	5.567221959e-09
0.003492542292 	1.391559146 	-0.0005201006817 	5.435610732e-09
0.003810043283 	1.391605911 	-0.000567243728 	5.179205674e-09
0.004127543797 	1.3916569 	-0.0006143720045 	4.798026145e-09
0.004445043835 	1.391712102 	-0.0006614830361 	4.292119162e-09
0.004762543395 	1.391771508 	-0.0007085746275 	3.661554679e-09
0.005080042477 	1.39183511 	-0.0007556447965 	2.906422348e-09
0.005397541083 	1.391902899 	-0.0008026917174 	2.026828873e-09
0.005715039211 	1.391974868 	-0.0008497136873 	1.022895727e-09
0.006004330093 	1.392044243 	-0.0008925338752 	8.722562138e-10
0.006032536862 	1.392050995 	-0.0008967091436 	1.069704711e-10
0.006350034036 	1.39213115 	-0.0009436769621 	1.379765612e-09
0.006667530732 	1.39221546 	-0.0009906153152 	2.778587931e-09
0.006985026952 	1.392303918 	-0.001037522824 	4.303291629e-09
0.007302522695 	1.392396514 	-0.001084398169 	5.953726131e-09
0.007620017961 	1.392493238 	-0.001131240096 	7.729737737e-09
0.007937512752 	1.392594081 	-0.001178047423 	9.631171164e-09
0.008255007066 	1.392699031 	-0.00122481901 	1.165787102e-08
0.008572500905 	1.392808077 	-0.001271553587 	1.380968246e-08
0.008889994269 	1.392921207 	-0.001318249024 	1.608644971e-08
0.009207487159 	1.393038396 	-0.001364904976 	1.848803215e-08
0.009524979574 	1.393177138 	-0.001418061133 	2.111221893e-08
0.01001828869 	1.393360523 	-0.001484399091 	2.519546385e-08
0.01052086838 	1.393578606 	-0.001558016406 	2.975607879e-08
0.01103289283 	1.393816144 	-0.001632906861 	3.472235018e-08
0.01155453952 	1.39407382 	-0.001709092298 	4.011355866e-08
0.01208598924 	1.394352343 	-0.001786589633 	4.59497663e-08
0.01262742622 	1.394652441 	-0.001865417548 	5.225189409e-08
0.0131790381 	1.394974864 	-0.001945594904 	5.904173582e-08
0.01374101608 	1.395320378 	-0.002027140879 	6.63419922e-08
0.01431355495 	1.395689769 	-0.002110074843 	7.417630061e-08
0.01489685313 	1.396083838 	-0.002194416408 	8.256926508e-08
0.01549111281 	1.396503403 	-0.002280185435 	9.154648371e-08
0.01609653995 	1.396949296 	-0.002367402048 	1.011345736e-07
0.01671334439 	1.397422364 	-0.00245608664 	1.113611922e-07
0.01734173992 	1.397923467 	-0.002546259891 	1.222550549e-07
0.01798194434 	1.398453479 	-0.002637942721 	1.338459469e-07
0.01863417954 	1.399013286 	-0.002731156446 	1.46164734e-07
0.01929867158 	1.399603787 	-0.002825922611 	1.592433694e-07
0.01997565077 	1.400226441 	-0.00292234663 	1.731228058e-07
0.02066768552 	1.400883217 	-0.003020594578 	1.878823067e-07
0.02137441278 	1.401575068 	-0.003120667076 	2.035684185e-07
0.02209442101 	1.402302075 	-0.003222447048 	2.201936903e-07
0.02282795976 	1.40306481 	-0.003325899869 	2.377961021e-07
0.02357528328 	1.403864257 	-0.003431049052 	2.564213103e-07
0.02433665058 	1.404701409 	-0.003537918119 	2.761168549e-07
0.02511232553 	1.405577275 	-0.003646531 	2.969322281e-07
0.02590257696 	1.406492877 	-0.003756911816 	3.189188942e-07
0.02670767878 	1.407449255 	-0.003869084909 	3.421303202e-07
0.02752790999 	1.408447464 	-0.003983074799 	3.666219946e-07
0.02836355489 	1.409488576 	-0.004098906159 	3.924514435e-07
0.02921490307 	1.410573682 	-0.004216603775 	4.196782388e-07
0.0300822496 	1.411703892 	-0.004336192514 	4.483640002e-07
0.03096589507 	1.412880338 	-0.004457697273 	4.785723897e-07
0.03186614572 	1.414104171 	-0.004581142934 	5.103690995e-07
0.03278331355 	1.41537657 	-0.004706554311 	5.438218303e-07
0.0337177164 	1.416698735 	-0.004833956087 	5.790002627e-07
0.03466967812 	1.418071895 	-0.004963372756 	6.159760182e-07
0.0356395286 	1.419497305 	-0.005094828546 	6.283333284e-07
0.03662760396 	1.420976252 	-0.005228347336 	6.254746972e-07
0.03763424661 	1.422510053 	-0.005363952629 	6.214083026e-07
0.03865980541 	1.424100058 	-0.005501667524 	6.160623393e-07
0.03970463577 	1.425748252 	-0.005641564592 	6.093712925e-07
0.04077060729 	1.427458429 	-0.005783857904 	6.012307381e-07
0.04186083131 	1.42923336 	-0.00592866003 	5.914644734e-07
0.04297154247 	1.431072406 	-0.006075801209 	5.801164446e-07
0.0441031257 	1.432975465 	-0.006225164632 	5.67077759e-07
0.04525597319 	1.434944141 	-0.00637676835 	5.522605156e-07
0.04643048445 	1.436980075 	-0.006530628391 	5.355744731e-07
0.04762706653 	1.439084957 	-0.006686759893 	5.169271178e-07
0.04884613412 	1.441260525 	-0.006845176272 	4.962237963e-07
0.05008810971 	1.443508568 	-0.007005889266 	4.733678625e-07
0.05135342369 	1.445830922 	-0.007168908729 	4.482608419e-07
0.05264251458 	1.448229479 	-0.0073342425 	4.208026109e-07
0.0539558291 	1.45070618 	-0.007501896223 	3.908915941e-07
0.0552938224 	1.453263018 	-0.007671873188 	3.584249771e-07
0.05665695814 	1.455902042 	-0.007844174117 	3.232989378e-07
0.05804570871 	1.458625351 	-0.00801879732 	2.854088824e-07
0.05946055538 	1.46143565 	-0.008195772142 	2.446514476e-07
0.06090309821 	1.464338788 	-0.008375312294 	2.008772476e-07
0.06237874525 	1.467339786 	-0.008557558432 	1.537572029e-07
0.06388212204 	1.470839767 	-0.00876599779 	1.03773162e-07
0.06619002591 	1.47527175 	-0.009023920207 	2.179877806e-08
0.06678384734 	1.476535909 	-0.009095544123 	4.295194353e-07
0.06852367151 	1.480239786 	-0.009305475347 	6.744288072e-08
0.07088334596 	1.485351104 	-0.009587177103 	1.634581182e-07
0.07326933955 	1.490608011 	-0.009868879891 	2.657688522e-07
0.07568194585 	1.496012577 	-0.01015042969 	3.743343503e-07
0.07812146167 	1.501566908 	-0.01043166806 	4.890961939e-07
0.08058818714 	1.507278922 	-0.0107127071 	6.100026335e-07
0.08309238433 	1.513157927 	-0.01099368538 	7.375027832e-07
0.08562559683 	1.519201197 	-0.01127413835 	8.709680364e-07
0.08818706658 	1.525404812 	-0.0115535706 	1.010174732e-06
0.0907771088 	1.531770495 	-0.01183175235 	1.15495993e-06
0.0933960422 	1.53830062 	-0.01210847339 	1.30514561e-06
0.09604418905 	1.5449976 	-0.01238351615 	1.460535408e-06
0.09872187523 	1.551865092 	-0.01265670106 	1.62092336e-06
0.1014313185 	1.558912821 	-0.01292806197 	1.786232857e-06
0.1041800627 	1.566148771 	-0.01319752387 	1.735423036e-06
0.106959471 	1.573568413 	-0.0134645302 	1.627964575e-06
0.1097698855 	1.581168674 	-0.01372860184 	1.514380749e-06
0.1126116522 	1.588952212 	-0.01398946395 	1.394868854e-06
0.1154851208 	1.596921713 	-0.01424683182 	1.269645208e-06
0.1183906449 	1.605080566 	-0.01450043108 	1.138947334e-06
0.1213295478 	1.613439178 	-0.01475017702 	1.002980423e-06
0.1243110401 	1.622007566 	-0.01499592717 	8.614813093e-07
0.1273257958 	1.63078076 	-0.01523708808 	7.154743444e-07
0.130374186 	1.639754913 	-0.01547312175 	5.652751767e-07
0.133456586 	1.648932898 	-0.01570367169 	4.112393199e-07
0.1365733751 	1.658317596 	-0.01592836872 	2.537464339e-07
0.1397249371 	1.667916225 	-0.01614692553 	9.320200041e-08
0.1415500185 	1.673531798 	-0.01626822012 	2.935228098e-06
0.1429174396 	1.677740014 	-0.01635913941 	7.160345983e-08
0.1461502511 	1.687791385 	-0.01656455536 	2.40441386e-07
0.1494191327 	1.698065602 	-0.01676251557 	4.107624034e-07
0.1527244868 	1.708562076 	-0.01695250176 	5.820201919e-07
0.1560667204 	1.719283619 	-0.01713405215 	7.536354239e-07
0.159446245 	1.730236819 	-0.01730674724 	9.249961261e-07
0.1628683426 	1.741433048 	-0.0174702017 	1.095727917e-06
0.1663338415 	1.752875609 	-0.01762387277 	1.26499367e-06
0.1698380093 	1.764558563 	-0.01776709348 	1.431707121e-06
0.1733812778 	1.776480002 	-0.0178992654 	1.595097468e-06
0.176964083 	1.788641799 	-0.01801983467 	1.754365508e-06
0.1805868662 	1.801052018 	-0.01812828986 	1.90868213e-06
0.1842579471 	1.813721131 	-0.01822410164 	2.057520457e-06
0.1879717484 	1.826644211 	-0.01830660823 	2.136940872e-06
0.1917269919 	1.839813185 	-0.01837516479 	1.950503157e-06
0.1955241403 	1.853225803 	-0.01842919401 	1.76533526e-06
0.1993636609 	1.866884249 	-0.01846815472 	1.582236199e-06
0.2032506276 	1.880794358 	-0.01849151857 	1.401798673e-06
0.2071854895 	1.894952183 	-0.01849875788 	1.225069102e-06
0.2111642629 	1.909343589 	-0.01848940889 	1.053187375e-06
0.215187438 	1.923957169 	-0.01846310536 	8.869780963e-07
0.21925551 	1.938786936 	-0.01841956181 	7.271993851e-07
0.2233732865 	1.953829087 	-0.0183585658 	5.743653292e-07
0.2275412826 	1.969068843 	-0.01828005284 	4.292262086e-07
0.2317557942 	1.984480094 	-0.01818417539 	2.923812753e-07
0.2360173403 	2.000037999 	-0.01807126728 	1.639839842e-07
0.2403264456 	2.015723196 	-0.01794180224 	4.391968202e-08
0.2420006484 	2.021781878 	-0.01788604248 	7.935896677e-06
0.244689849 	2.031515599 	-0.0177964617 	6.981256153e-08
0.2491037402 	2.047378485 	-0.01763622637 	1.772035983e-07
0.2535668929 	2.063269385 	-0.01746234911 	2.784687308e-07
0.2580798568 	2.079150402 	-0.01727625225 	3.750800234e-07
0.2626453758 	2.094987401 	-0.01707946901 	4.688205338e-07
0.2672670702 	2.110741052 	-0.01687371979 	5.6152732e-07
0.2719403471 	2.126361215 	-0.01666095927 	6.54957733e-07
0.2766657819 	2.141801793 	-0.0164431311 	7.509673201e-07
0.2814442057 	2.157027363 	-0.01622199907 	8.511754282e-07
0.2862825281 	2.172005793 	-0.01599918615 	9.568757359e-07
0.2911748521 	2.186696048 	-0.0157763096 	1.068624016e-06
0.2961217801 	2.201063727 	-0.0155547103 	1.186724006e-06
0.3011239213 	2.215087712 	-0.0153353087 	1.310997069e-06
0.3061879732 	2.228752585 	-0.01511870578 	1.440852556e-06
0.311308694 	2.242037178 	-0.01490536796 	1.575045991e-06
0.3164865689 	2.254926579 	-0.01469545413 	1.522686957e-06
0.3217227834 	2.2674161 	-0.01448876977 	1.450634251e-06
0.3270225453 	2.279503846 	-0.01428492084 	1.373644311e-06
0.3323814607 	2.291182835 	-0.01408348401 	1.291900061e-06
0.3378001894 	2.302450486 	-0.01388388461 	1.205633764e-06
0.3432813453 	2.313309498 	-0.01368540631 	1.115271037e-06
0.3488268273 	2.323760947 	-0.01348734361 	1.021617786e-06
0.3544342057 	2.333802756 	-0.01328905988 	9.254988434e-07
0.3601041707 	2.343435965 	-0.01308988505 	8.276124228e-07
0.36584116 	2.35266337 	-0.01288914807 	7.286622316e-07
0.3716430054 	2.361483517 	-0.0126863166 	6.295811811e-07
0.3775096083 	2.369895261 	-0.01248091085 	5.309653458e-07
0.3834432946 	2.377899578 	-0.01227245528 	4.332925896e-07
0.3894456619 	2.385496214 	-0.01206056442 	3.372341513e-07
0.3955150249 	2.392683062 	-0.01184496899 	2.432403906e-07
0.4016524908 	2.399459724 	-0.01162541758 	1.515760255e-07
0.4078616799 	2.405826526 	-0.01140168838 	6.262509029e-08
0.4124308776 	2.410160515 	-0.01123575857 	4.747019532e-06
0.4141401731 	2.411781953 	-0.01117369748 	2.393430035e-08
0.4204887431 	2.417326228 	-0.01094137867 	1.090859937e-07
0.42691107 	2.422460898 	-0.01070460508 	1.90770376e-07
0.433405319 	2.4271863 	-0.01046341432 	2.686622815e-07
0.4399720525 	2.431504102 	-0.01021785747 	3.427199192e-07
0.4466144165 	2.435417345 	-0.009967983291 	4.128155634e-07
0.4533313103 	2.438928903 	-0.009713937806 	4.786777121e-07
0.4601231728 	2.442042916 	-0.009455882518 	5.403108354e-07
0.4669929419 	2.444764882 	-0.009193977568 	5.976176583e-07
0.4739396403 	2.447100763 	-0.008928470801 	6.503979478e-07
0.4809639189 	2.449057966 	-0.00865961937 	6.987159687e-07
0.4880685652 	2.450645319 	-0.008387681295 	7.424848998e-07
0.4952525067 	2.451870202 	-0.008113639955 	7.816646818e-07
0.5024368632 	2.452740144 	-0.007840241389 	8.159952688e-07
0.5095432156 	2.453274884 	-0.007570175148 	8.452430779e-07
0.5165711572 	2.453504421 	-0.007304340888 	8.697704576e-07
0.5235220957 	2.453458625 	-0.007042964265 	8.900369155e-07
0.5303971102 	2.453164325 	-0.006786195419 	9.063018686e-07
0.5371962645 	2.452645257 	-0.006534164506 	9.188925867e-07
0.5439209063 	2.451922342 	-0.006286975657 	9.282185013e-07
0.5505718664 	2.451013892 	-0.006044686113 	9.34476483e-07
0.557149437 	2.449935936 	-0.005807340301 	9.380044744e-07
0.5636548124 	2.448702417 	-0.00557494422 	9.391214521e-07
0.5700888185 	2.4473255 	-0.005347488256 	9.379985318e-07
0.5764518278 	2.445815822 	-0.005124951142 	9.349100634e-07
0.5827448459 	2.444182587 	-0.004907286041 	9.301213134e-07
0.5889688121 	2.442433776 	-0.004694434366 	9.237672569e-07
0.5951240983 	2.440576359 	-0.004486334287 	9.160519834e-07
0.6012115237 	2.438616306 	-0.004282906999 	9.071885701e-07
0.6072321764 	2.43655871 	-0.004084063544 	8.972891248e-07
0.6131863918 	2.43440801 	-0.003889717906 	8.864832213e-07
0.6190749025 	2.432167948 	-0.003699774407 	8.749314961e-07
0.6248987045 	2.429841626 	-0.003514129297 	8.627428999e-07
0.630658315 	2.427431689 	-0.003332682183 	8.499753467e-07
0.6363543676 	2.424940324 	-0.003155330721 	8.367422658e-07
0.6419876414 	2.422369252 	-0.002981967523 	8.231396285e-07
0.647558927 	2.419719825 	-0.002812486006 	8.091946865e-07
0.6530687325 	2.416993116 	-0.002646783456 	7.949663953e-07
0.6585177359 	2.414189868 	-0.002484755763 	7.710120835e-07
0.6639067345 	2.411310519 	-0.002326298507 	7.445647091e-07
0.669236321 	2.408355305 	-0.002171311844 	7.192852783e-07
0.6745070939 	2.405324258 	-0.00201969897 	6.950726701e-07
0.6797197019 	2.402217179 	-0.001871363719 	6.718286998e-07
0.6848749064 	2.399033672 	-0.001726212466 	6.494846951e-07
0.6899732317 	2.395773227 	-0.00158415726 	6.279839712e-07
0.6950152948 	2.392435188 	-0.001445113467 	6.0724241e-07
0.7000017166 	2.389018738 	-0.001308998717 	5.871811455e-07
0.7049331999 	2.385522935 	-0.001175734544 	5.677470825e-07
0.7098102633 	2.381946772 	-0.001045248299 	5.488911057e-07
0.7146335059 	2.378289148 	-0.0009174713149 	5.30545888e-07
0.7194035216 	2.374548858 	-0.0007923383626 	5.126486391e-07
0.7241209511 	2.370724621 	-0.0006697886904 	4.951532441e-07
0.7287863289 	2.366815125 	-0.0005497671546 	4.780234345e-07
0.7334002218 	2.362819011 	-0.0004322232528 	4.612065375e-07
0.7379631978 	2.358734866 	-0.0003171106673 	4.446535049e-07
0.7424758414 	2.354561243 	-0.0002043877353 	4.283230063e-07
0.7469387029 	2.350296686 	-9.401805945e-05 	4.121903094e-07
0.7513523141 	2.345939742 	1.402967006e-05 	3.96217504e-07
0.7557172184 	2.341488948 	0.0001197822108 	3.803678852e-07
0.7600339544 	2.336942845 	0.0002232617113 	3.646082901e-07
0.7643030771 	2.332299986 	0.0003244855091 	3.489178163e-07
0.7685250874 	2.327558972 	0.0004234657659 	3.33276277e-07
0.7727005051 	2.322718436 	0.0005202100863 	3.176586244e-07
0.7768298443 	2.317777049 	0.0006147216703 	3.020431185e-07
0.780913618 	2.312733529 	0.0007069993247 	2.864118167e-07
0.7849523359 	2.30758666 	0.0007970373987 	2.707569902e-07
0.7889464839 	2.302335302 	0.0008848258155 	2.550682023e-07
0.7928965538 	2.296978388 	0.0009703506211 	2.393351596e-07
0.796803032 	2.291514929 	0.001053594093 	2.235506895e-07
0.8006664018 	2.285944019 	0.001134534935 	2.077110765e-07
0.8044871437 	2.280264851 	0.001213148412 	1.918198023e-07
0.8082657211 	2.27447672 	0.001289406525 	1.758797912e-07
0.8120025992 	2.268579024 	0.001363278488 	1.598949548e-07
0.8156982382 	2.262571262 	0.001434730975 	1.438721826e-07
0.8193530933 	2.256453042 	0.001503728418 	1.278212614e-07
0.8229676192 	2.250224082 	0.001570233338 	1.117560578e-07
0.8265422566 	2.243884213 	0.001634206567 	9.569283712e-08
0.8300774454 	2.237433376 	0.001695607699 	7.964821161e-08
0.8335736208 	2.230871622 	0.001754395506 	6.364119389e-08
0.8370312134 	2.224199104 	0.001810528212 	4.769300885e-08
0.8404506497 	2.217416076 	0.001863963934 	3.182697162e-08
0.843832352 	2.21052289 	0.001914660999 	1.606849939e-08
0.8471767348 	2.203519991 	0.001962578272 	4.43697645e-10
0.8504842098 	2.196407906 	0.002007675608 	-1.502021244e-08
0.8537551845 	2.189187234 	0.002049914179 	-3.029482995e-08
0.8569900615 	2.181858637 	0.00208925679 	-4.535084031e-08
0.8601892396 	2.174422829 	0.002125668249 	-6.015825337e-08
0.8633531134 	2.166880564 	0.002159115651 	-7.468734515e-08
0.8664820715 	2.159232619 	0.002189568633 	-8.890838182e-08
0.8695764992 	2.151479784 	0.002216999697 	-1.0279149e-07
0.8726367777 	2.143622835 	0.002241384446 	-1.163070841e-07
0.8756632836 	2.135662524 	0.002262701787 	-1.294261033e-07
0.8786563899 	2.127599555 	0.002280934127 	-1.421202276e-07
0.8816164654 	2.119434562 	0.002296067563 	-1.543624928e-07
0.8845438743 	2.111168085 	0.002308091978 	-1.661280103e-07
0.8874389772 	2.102800547 	0.002317001156 	-1.773920955e-07
0.8903021304 	2.094332222 	0.002322792863 	-1.881318004e-07
0.8931336866 	2.08576321 	0.002325468948 	-1.983247884e-07
0.8959339944 	2.077093397 	0.002325034856 	-2.079554049e-07
0.8987033988 	2.068322427 	0.0023215016 	-2.169881495e-07
0.9014422408 	2.05944965 	0.002314882183 	-2.254270095e-07
0.9041508577 	2.050474107 	0.002305194229 	-2.332611564e-07
0.906829583 	2.041394468 	0.002292460513 	-2.404571e-07
0.9094787465 	2.032208974 	0.002276705581 	-2.470170556e-07
0.9120986745 	2.022915386 	0.002257958623 	-2.529259171e-07
0.9146896896 	2.013510931 	0.002236251966 	-2.581755795e-07
0.917252111 	2.003992231 	0.002211621199 	-2.627592299e-07
0.919786254 	1.994355233 	0.002184105134 	-2.666720981e-07
0.922292431 	1.984595126 	0.002153744596 	-2.699116243e-07
0.9247709504 	1.974706257 	0.002120585274 	-2.724761732e-07
0.9272221175 	1.964682012 	0.002084667839 	-2.743648481e-07
0.929646234 	1.954514826 	0.002046057561 	-2.755790003e-07
0.9320435986 	1.945065841 	0.002008357533 	-2.760986223e-07
0.9336052454 	1.937328115 	0.001976238836 	-2.760988964e-07
0.9351380825 	1.930463222 	0.001946901316 	-2.757955146e-07
0.9366426415 	1.923605719 	0.00191685448 	-2.752169182e-07
0.9381194438 	1.916755602 	0.001886140676 	-2.743721436e-07
0.9395690018 	1.909912765 	0.001854812974 	-2.732713095e-07
0.9409918179 	1.903076955 	0.001822921371 	-2.719240686e-07
0.9423883855 	1.896247775 	0.001790516078 	-2.703399282e-07
0.9437591889 	1.889424682 	0.001757646231 	-2.685281814e-07
0.9451047033 	1.882606989 	0.001724360198 	-2.664979987e-07
0.9464253953 	1.875793862 	0.001690705403 	-2.642584621e-07
0.9477217228 	1.868984322 	0.001656728285 	-2.618185695e-07
0.9489941353 	1.862177246 	0.001622474223 	-2.591872405e-07
0.950243074 	1.85537137 	0.001587987475 	-2.563733175e-07
0.9514689719 	1.848565286 	0.001553311137 	-2.533855645e-07
0.9526722541 	1.841757445 	0.001518487095 	-2.502326646e-07
0.9538533379 	1.834946154 	0.001483555993 	-2.469232153e-07
0.9550126327 	1.828129579 	0.001448557208 	-2.434657233e-07
0.9561505405 	1.821305738 	0.001413528824 	-2.398685979e-07
0.9572674559 	1.814472504 	0.00137850762 	-2.361401439e-07
0.9583637661 	1.807627597 	0.001343529062 	-2.322885555e-07
0.9594398513 	1.800768582 	0.001308627295 	-2.283219108e-07
0.9604960845 	1.793892863 	0.001273835144 	-2.242482338e-07
0.9615328321 	1.786997676 	0.001239184121 	-2.200753691e-07
0.9625504535 	1.780080081 	0.001204704427 	-2.158109897e-07
0.9635493016 	1.773136952 	0.001170424972 	-2.114626262e-07
0.9645297226 	1.766164969 	0.001136373382 	-2.070376613e-07
0.9654920565 	1.759160601 	0.001102576019 	-2.025433269e-07
0.9664366371 	1.752120098 	0.001069058006 	-1.979867004e-07
0.9673637917 	1.74503947 	0.001035843238 	-1.933747026e-07
0.968273842 	1.73791447 	0.001002954417 	-1.887140962e-07
0.9691671034 	1.730740579 	0.0009704130722 	-1.840114845e-07
0.9700438857 	1.723512975 	0.0009382395861 	-1.792733119e-07
0.9709044929 	1.716226515 	0.0009064532259 	-1.745058638e-07
0.9717492233 	1.708875704 	0.0008750721714 	-1.697152677e-07
0.9725783699 	1.701454661 	0.0008441135446 	-1.649074952e-07
0.9733922202 	1.693957089 	0.0008135934412 	-1.600883637e-07
0.9741910564 	1.686376227 	0.0007835269616 	-1.552635394e-07
0.9749751554 	1.678704815 	0.0007539282418 	-1.504385402e-07
0.9757447892 	1.670935035 	0.0007248104858 	-1.456187388e-07
0.9765002245 	1.663058461 	0.0006961859968 	-1.408093669e-07
0.9772417234 	1.655065991 	0.0006680662085 	-1.360155186e-07
0.9779695429 	1.646947776 	0.0006404617166 	-1.31242155e-07
0.9786839354 	1.638693141 	0.000613382309 	-1.264941079e-07
0.9793851485 	1.63029049 	0.0005868369967 	-1.217760853e-07
0.9800734255 	1.621727204 	0.0005608340426 	-1.170926825e-07
0.980749005 	1.612989516 	0.0005353809898 	-1.124483703e-07
0.9814121212 	1.604062379 	0.0005104846901 	-1.078475031e-07
0.9820630041 	1.594929306 	0.0004861513301 	-1.03294326e-07
0.9827018792 	1.585572187 	0.0004623864568 	-9.879297666e-08
0.9833289683 	1.575971077 	0.0004391950002 	-9.434748781e-08
0.9839444886 	1.566103952 	0.0004165813022 	-8.996178832e-08
0.9845486537 	1.555946417 	0.0003945491121 	-8.563970232e-08
0.9851416729 	1.545471365 	0.0003731016892 	-8.138495064e-08
0.985723752 	1.534648573 	0.0003522415266 	-7.720114015e-08
0.9862950927 	1.523444223 	0.0003319715068 	-7.309179202e-08
0.9868558932 	1.511820312 	0.0003122912386 	-6.906024101e-08
0.9874063478 	1.499733976 	0.0002932091267 	-6.510992956e-08
0.9879466476 	1.48713652 	0.0002746975534 	-6.124314331e-08
0.9884769797 	1.473973124 	0.0002568126943 	-5.746402022e-08
0.9889975281 	1.461380563 	0.0002409928644 	-5.408600228e-08
0.9893325512 	1.450714674 	0.0002284513408 	-5.139713667e-08
0.9896675743 	1.440870644 	0.0002175753183 	-4.904838311e-08
0.9900025975 	1.43053636 	0.0002068462097 	-4.671354486e-08
0.9903376206 	1.419661438 	0.0001962402665 	-4.439351312e-08
0.9906726437 	1.408188674 	0.0001857760915 	-4.209058236e-08
0.9910076668 	1.396052356 	0.000175456111 	-3.980658418e-08
0.9913426899 	1.383176646 	0.0001652870524 	-3.75435696e-08
0.991677713 	1.369473491 	0.0001552741545 	-3.530365936e-08
0.9920127361 	1.354839982 	0.0001454229207 	-3.308909603e-08
0.9923477593 	1.339154975 	0.000135738479 	-3.090222429e-08
0.9926827824 	1.322274729 	0.0001262255719 	-2.874549469e-08
0.9930178055 	1.304027197 	0.0001168882924 	-2.662146209e-08
0.9933528286 	1.284204465 	0.0001077297468 	-2.453278717e-08
0.9936878517 	1.262552603 	9.875148454e-05 	-2.248224162e-08
0.9940228748 	1.238757859 	8.995255754e-05 	-2.047272242e-08
0.994357898 	1.212427602 	8.132798254e-05 	-1.850728072e-08
0.9946929211 	1.183063652 	7.286651035e-05 	-1.658918286e-08
0.9950279442 	1.150024462 	6.454850648e-05 	-1.472203673e-08
0.9953629673 	1.112471016 	5.634530989e-05 	-1.291000314e-08
0.9956979904 	1.069289301 	4.821552531e-05 	-1.115793644e-08
0.9960330135 	1.018981104 	4.008026167e-05 	-9.472355095e-09
0.9963680367 	0.9595207503 	3.19717048e-05 	-7.867049048e-09
0.9967030598 	0.8882138727 	2.556165392e-05 	-6.385226978e-09
0.9970380829 	0.8017594229 	2.852909735e-05 	-5.001476599e-09
0.997373106 	0.6971520603 	4.051597238e-05 	-3.383682466e-09
0.9977081291 	0.5740892534 	3.020617622e-05 	-1.813274747e-09
0.9980431522 	0.4369933837 	-5.334524306e-06 	-1.153154828e-09
0.9983781754 	0.2928222045 	-1.843728999e-05 	-8.890588178e-10
0.9987131985 	0.1465567823 	-7.120910459e-06 	-3.660724998e-10
0.9990482216 	0.0618330862 	-1.094616609e-06 	-6.895527025e-11
0.9990482216 	0.0618330862 	-1.094616609e-06 	-6.895527025e-11
