0.4709558481 	0.05568659993 	1.429993557e-07 	-3.024881243e-12
0.4709558481 	0.05568659993 	1.429993557e-07 	-3.024881243e-12
0.4711314108 	0.1531123807 	2.055484108e-06 	-3.041388535e-11
0.4713069734 	0.3059134635 	8.789957071e-06 	-1.123814056e-10
0.471482536 	0.4576913785 	1.277057684e-05 	-2.542213547e-10
0.4716580986 	0.6063449269 	1.77677282e-06 	-4.50651075e-10
0.4718336613 	0.7480542525 	-1.35025337e-05 	-6.864854789e-10
0.4720092239 	0.8784493273 	-1.442539709e-05 	-9.529942195e-10
0.4721847865 	0.9946181912 	-6.012769283e-06 	-1.248375456e-09
0.4723603491 	1.096037279 	-7.808511338e-07 	-1.564906793e-09
0.4725359118 	1.183943225 	2.500016697e-07 	-1.8942371e-09
0.4727114744 	1.260263597 	6.484357272e-09 	-2.232658648e-09
0.472887037 	1.326933362 	-3.933176866e-07 	-2.578272237e-09
0.4730625996 	1.38563219 	-7.925908771e-07 	-2.929562781e-09
0.4732381623 	1.437738016 	-1.171079915e-06 	-3.285369084e-09
0.4734137249 	1.484358086 	-1.514719974e-06 	-3.644833009e-09
0.4735892875 	1.526377882 	-1.820494936e-06 	-4.007303812e-09
0.4737648501 	1.564507414 	-2.093497745e-06 	-4.372270681e-09
0.4739404128 	1.599319514 	-2.34078433e-06 	-4.7393232e-09
0.4741159754 	1.631279936 	-2.568506969e-06 	-5.108126303e-09
0.474291538 	1.660770542 	-2.781328356e-06 	-5.478403005e-09
0.4744671006 	1.688107057 	-2.982598469e-06 	-5.849921905e-09
0.4746426632 	1.71355267 	-3.174670355e-06 	-6.222487978e-09
0.4748182259 	1.737328501 	-3.359169045e-06 	-6.595935508e-09
0.4749937885 	1.759621708 	-3.537250325e-06 	-6.970122838e-09
0.4751693511 	1.780591808 	-3.709621392e-06 	-7.344928042e-09
0.4753449137 	1.800375651 	-3.877173628e-06 	-7.72024624e-09
0.4755204764 	1.819091344 	-4.039042334e-06 	-8.095984597e-09
0.475696039 	1.836841408 	-4.198981108e-06 	-8.472063842e-09
0.4758716016 	1.853715227 	-4.343861782e-06 	-8.848388429e-09
0.4760471642 	1.869791585 	-4.515088206e-06 	-9.224937654e-09
0.4762227269 	1.88721225 	-4.721008377e-06 	-9.653866988e-09
0.4764955107 	1.907774976 	-4.866557668e-06 	-1.019002971e-08
0.4767734216 	1.929264304 	-5.046843439e-06 	-1.078674396e-08
0.4770565557 	1.949820694 	-5.277825605e-06 	-1.139459341e-08
0.4773450114 	1.9695316 	-5.478578747e-06 	-1.201356159e-08
0.4776388886 	1.988474522 	-5.679097044e-06 	-1.264371895e-08
0.4779382892 	2.006717566 	-5.871002887e-06 	-1.328510201e-08
0.4782433171 	2.024320982 	-6.056577271e-06 	-1.393779573e-08
0.4785540779 	2.041338271 	-6.234729081e-06 	-1.460191766e-08
0.4788706795 	2.057817127 	-6.405275446e-06 	-1.527755704e-08
0.4791932316 	2.073800218 	-6.567757005e-06 	-1.596473416e-08
0.4795218461 	2.089325844 	-6.721764447e-06 	-1.666331595e-08
0.4798566368 	2.104428491 	-6.866861466e-06 	-1.737285256e-08
0.48019772 	2.119139297 	-7.00258247e-06 	-1.809288911e-08
0.4805452138 	2.13348645 	-7.128217705e-06 	-1.88251771e-08
0.4808992388 	2.147495532 	-7.243318717e-06 	-1.956824718e-08
0.4812599177 	2.161189811 	-7.347458253e-06 	-2.03200725e-08
0.4816273755 	2.174590492 	-7.439872217e-06 	-2.108209072e-08
0.4820017397 	2.187716938 	-7.519885679e-06 	-2.185460022e-08
0.48238314 	2.200586862 	-7.586805845e-06 	-2.263847112e-08
0.4827717088 	2.213216491 	-7.639845777e-06 	-2.343177222e-08
0.4831675807 	2.225620718 	-7.678233036e-06 	-2.423540447e-08
0.4835708931 	2.237813221 	-7.701169735e-06 	-2.505191805e-08
0.4839817856 	2.249806588 	-7.707714011e-06 	-2.588074118e-08
0.4844004009 	2.261612407 	-7.696828883e-06 	-2.672328277e-08
0.4848268841 	2.273241365 	-7.667521561e-06 	-2.758004736e-08
0.485261383 	2.284703323 	-7.618784183e-06 	-2.845131996e-08
0.4857040484 	2.296007387 	-7.549298313e-06 	-2.934014311e-08
0.4861550336 	2.307161976 	-7.457751604e-06 	-3.024864149e-08
0.4866144951 	2.318174876 	-7.342907044e-06 	-3.117718589e-08
0.4870825921 	2.329053294 	-7.203378632e-06 	-3.212576296e-08
0.487559487 	2.339803903 	-7.037765694e-06 	-3.309664278e-08
0.4880453452 	2.350432886 	-6.844565711e-06 	-3.409033595e-08
0.4885403351 	2.360945973 	-6.622174374e-06 	-3.510503193e-08
0.4890446283 	2.371348474 	-6.368996257e-06 	-3.614122352e-08
0.4895583997 	2.381645316 	-6.083379534e-06 	-3.719870782e-08
0.4900818274 	2.391841067 	-5.763618939e-06 	-3.827682113e-08
0.4906150929 	2.401939963 	-5.407957162e-06 	-3.937462863e-08
0.4911583811 	2.41194593 	-5.014585175e-06 	-4.049112947e-08
0.4917118805 	2.42186261 	-4.581640715e-06 	-4.162538362e-08
0.4922757829 	2.431693375 	-4.107205749e-06 	-4.277658291e-08
0.4928502838 	2.441441347 	-3.589303212e-06 	-4.394406925e-08
0.4934355824 	2.451109414 	-3.025893876e-06 	-4.512733835e-08
0.4940318817 	2.460700244 	-2.414873106e-06 	-4.632602546e-08
0.4946393885 	2.470216296 	-1.754067557e-06 	-4.753988603e-08
0.4952583133 	2.479659834 	-1.041231878e-06 	-4.876877469e-08
0.4958888709 	2.489032935 	-2.740453796e-07 	-5.001262771e-08
0.4965312797 	2.498337501 	5.498915402e-07 	-5.127144955e-08
0.4971857627 	2.507575263 	1.433061291e-06 	-5.2545303e-08
0.4978525466 	2.516747795 	2.378033414e-06 	-5.383430349e-08
0.4985318627 	2.525856515 	3.38746979e-06 	-5.513861719e-08
0.4992239466 	2.534902693 	4.464129855e-06 	-5.645845969e-08
0.4999290382 	2.54388746 	5.610879126e-06 	-5.779409535e-08
0.5006473819 	2.55281181 	6.830689197e-06 	-5.91458389e-08
0.501379227 	2.561676609 	8.126669328e-06 	-6.051405797e-08
0.502124827 	2.570482598 	9.501983737e-06 	-6.18991764e-08
0.5028844406 	2.579230402 	1.096020116e-05 	-6.330167502e-08
0.5036583311 	2.587920537 	1.25043113e-05 	-6.472209399e-08
0.5044467669 	2.596553404 	1.414031357e-05 	-6.616103836e-08
0.5052500214 	2.605129388 	1.5865534e-05 	-6.76193051e-08
0.506068373 	2.614730528 	1.792359487e-05 	-6.928757972e-08
0.507324668 	2.626316791 	2.062275652e-05 	-7.135446669e-08
0.5085949819 	2.638659023 	2.374935355e-05 	-7.36231877e-08
0.5098794711 	2.650692181 	2.706451545e-05 	-7.590524205e-08
0.5111782938 	2.662432886 	3.058778624e-05 	-7.820224838e-08
0.5124916099 	2.673896319 	3.432028487e-05 	-8.051582215e-08
0.5138195812 	2.68509618 	3.82710629e-05 	-8.284740976e-08
0.5151623712 	2.69604487 	4.244751984e-05 	-8.519823565e-08
0.5165201452 	2.706753612 	4.685805882e-05 	-8.756929092e-08
0.5178930705 	2.717232575 	5.151118688e-05 	-8.996132983e-08
0.5192813161 	2.727490971 	5.641573389e-05 	-9.237486618e-08
0.520685053 	2.737537151 	6.158073541e-05 	-9.481017203e-08
0.522104454 	2.747378679 	6.701540544e-05 	-9.726727726e-08
0.523539694 	2.757022411 	7.272907905e-05 	-9.974596932e-08
0.5249909497 	2.766474554 	7.873116046e-05 	-1.022457929e-07
0.5264583998 	2.775740722 	8.503106582e-05 	-1.04766049e-07
0.527942225 	2.784825991 	9.163816335e-05 	-1.073057943e-07
0.5294426081 	2.793734941 	9.856171001e-05 	-1.098638397e-07
0.5309597337 	2.802471697 	0.0001058107849 	-1.124387492e-07
0.5324937889 	2.811039969 	0.0001133942195 	-1.150288397e-07
0.5340449624 	2.819443082 	0.0001213205245 	-1.176321806e-07
0.5356134452 	2.827684004 	0.0001295978139 	-1.20246595e-07
0.5371994306 	2.83576538 	0.0001382337262 	-1.228696617e-07
0.5388031139 	2.843689549 	0.000147235343 	-1.254987192e-07
0.5404246925 	2.851458572 	0.0001566091056 	-1.281308708e-07
0.5420643661 	2.859074246 	0.0001663607291 	-1.307629914e-07
0.5437223366 	2.866538131 	0.0001764951152 	-1.333917365e-07
0.5453988083 	2.873851558 	0.0001870162638 	-1.360135528e-07
0.5470939875 	2.88101565 	0.0001979271838 	-1.3862469e-07
0.5488080831 	2.888031337 	0.0002092298028 	-1.412212156e-07
0.5505413061 	2.894899365 	0.0002209248777 	-1.437990298e-07
0.5522938699 	2.901620311 	0.0002330119047 	-1.463538823e-07
0.5540659904 	2.908194595 	0.0002454890308 	-1.488813911e-07
0.5558578859 	2.914622488 	0.0002583529658 	-1.513770609e-07
0.5576697768 	2.920904123 	0.0002715988968 	-1.538363032e-07
0.5595018865 	2.927039508 	0.0002852204038 	-1.562544571e-07
0.5613544406 	2.933028529 	0.0002992093786 	-1.5862681e-07
0.563227667 	2.938870963 	0.0003135559473 	-1.609486191e-07
0.5651217966 	2.944566487 	0.0003282483976 	-1.632151339e-07
0.5670370626 	2.950114687 	0.0003432731145 	-1.654216192e-07
0.5689737009 	2.955515072 	0.0003586145241 	-1.675633794e-07
0.5709319499 	2.960767087 	0.0003742550498 	-1.696357836e-07
0.5729120508 	2.965870124 	0.0003901750796 	-1.716342909e-07
0.5749142474 	2.970823542 	0.0004063529456 	-1.735544755e-07
0.5769387863 	2.975626678 	0.0004227649166 	-1.753920515e-07
0.5789859169 	2.980278864 	0.0004393852085 	-1.771428982e-07
0.5810558911 	2.984779448 	0.0004561860172 	-1.788030868e-07
0.583148964 	2.989127809 	0.0004731375833 	-1.803689097e-07
0.5852653933 	2.993323384 	0.0004902082968 	-1.818369138e-07
0.5874054395 	2.997365696 	0.0005073648479 	-1.832039384e-07
0.5895693664 	3.001254388 	0.0005245724294 	-1.844671568e-07
0.5917574402 	3.004989249 	0.0005417949877 	-1.856241188e-07
0.5939699306 	3.008570254 	0.0005589955124 	-1.866727898e-07
0.5962071099 	3.011997589 	0.0005761363524 	-1.876115836e-07
0.5984692536 	3.015271672 	0.000593179549 	-1.88439398e-07
0.6007566404 	3.018393172 	0.000610087185 	-1.891557422e-07
0.6030695519 	3.021363017 	0.0006268217462 	-1.897605991e-07
0.6054082729 	3.024182405 	0.0006433464821 	-1.902542773e-07
0.6077730914 	3.026852806 	0.0006596257804 	-1.906376046e-07
0.6101642987 	3.029375962 	0.0006756255516 	-1.909120944e-07
0.6125821893 	3.031753875 	0.0006913135707 	-1.91079855e-07
0.6150270608 	3.033988793 	0.0007066597624 	-1.911434365e-07
0.6174992144 	3.036083192 	0.0007216364463 	-1.911058121e-07
0.6199989545 	3.038039748 	0.0007362185322 	-1.909703184e-07
0.622526589 	3.039861306 	0.0007503836568 	-1.907405748e-07
0.625082429 	3.041550852 	0.0007641122592 	-1.904203775e-07
0.6276667894 	3.043111474 	0.0007773876236 	-1.900137978e-07
0.6302799884 	3.044546329 	0.0007901958266 	-1.895250127e-07
0.6329223478 	3.045858605 	0.0008025255752 	-1.889582691e-07
0.6355941931 	3.047051492 	0.0008143682114 	-1.883189716e-07
0.6382958531 	3.048128145 	0.0008257175481 	-1.876122467e-07
0.6410276607 	3.049091659 	0.0008365695624 	-1.868420767e-07
0.6437899523 	3.049945035 	0.0008469222113 	-1.860125945e-07
0.646583068 	3.050691161 	0.0008567751705 	-1.851279399e-07
0.6494073518 	3.051332789 	0.0008661295709 	-1.841921597e-07
0.6522631514 	3.051872517 	0.0008749877298 	-1.832091647e-07
0.6551508186 	3.052312776 	0.0008833528778 	-1.821827072e-07
0.658070709 	3.052655813 	0.0008912288974 	-1.811163691e-07
0.6610231822 	3.05290369 	0.0008986200431 	-1.800135416e-07
0.6640086017 	3.05305827 	0.0009055307826 	-1.788774765e-07
0.6670273351 	3.053121218 	0.0009119652463 	-1.777111223e-07
0.6700797543 	3.053093996 	0.0009179275334 	-1.765173674e-07
0.6731662352 	3.052977862 	0.0009234211171 	-1.752988908e-07
0.6762871577 	3.052773867 	0.0009284485015 	-1.740580843e-07
0.6794429063 	3.052482864 	0.0009330115524 	-1.727972954e-07
0.6826338695 	3.052105507 	0.0009371108982 	-1.71518629e-07
0.6858604404 	3.051642253 	0.0009407459766 	-1.702240313e-07
0.6891230163 	3.051093368 	0.0009439148585 	-1.689152678e-07
0.6924219988 	3.050458928 	0.0009466141496 	-1.675939245e-07
0.6957577944 	3.049738827 	0.0009488388941 	-1.662614009e-07
0.6991308138 	3.048932773 	0.0009505825014 	-1.649189012e-07
0.7025414724 	3.048040302 	0.0009518366913 	-1.635674237e-07
0.7059901901 	3.047060772 	0.0009525914574 	-1.62207748e-07
0.7094773917 	3.04599337 	0.0009528350507 	-1.608404197e-07
0.7130035066 	3.044837114 	0.0009525539823 	-1.594657354e-07
0.7165689691 	3.043590854 	0.0009517330466 	-1.580837262e-07
0.7201742182 	3.04225327 	0.0009503553668 	-1.566941432e-07
0.7238196978 	3.040822875 	0.0009484024594 	-1.552964444e-07
0.727505857 	3.039298012 	0.0009458543365 	-1.538897857e-07
0.7312331497 	3.03767685 	0.000942689564 	-1.524730184e-07
0.7350020349 	3.035962057 	0.0009388963275 	-1.510484829e-07
0.7387709215 	3.034167723 	0.0009344960111 	-1.496265503e-07
0.7424982157 	3.032310408 	0.0009295300551 	-1.482173475e-07
0.7461843763 	3.030397397 	0.0009240254592 	-1.46822626e-07
0.7498298574 	3.028431032 	0.0009179983771 	-1.454404419e-07
0.7534351078 	3.026413391 	0.0009114651524 	-1.440689696e-07
0.7570005716 	3.024346302 	0.0009044423188 	-1.42706537e-07
0.7605266877 	3.02223136 	0.0008969466905 	-1.413516494e-07
0.7640138905 	3.020069946 	0.000888995417 	-1.400030045e-07
0.7674626093 	3.017863234 	0.0008806060138 	-1.386595012e-07
0.770873269 	3.015612209 	0.0008717963699 	-1.37320235e-07
0.7742462894 	3.013317674 	0.0008625847399 	-1.359844772e-07
0.777582086 	3.010980265 	0.0008529897198 	-1.346516235e-07
0.7808810695 	3.008600454 	0.0008430302581 	-1.333216296e-07
0.7841436462 	3.006178564 	0.000832725564 	-1.319942507e-07
0.787370218 	3.003714775 	0.0008220950891 	-1.306683934e-07
0.7905611821 	3.001209131 	0.0008111585688 	-1.293438218e-07
0.7937169314 	2.998661548 	0.0007999358541 	-1.280208469e-07
0.7968378547 	2.996071818 	0.0007884468359 	-1.266997035e-07
0.7999243362 	2.99343962 	0.0007767114734 	-1.253805059e-07
0.8029767561 	2.990764523 	0.000764749765 	-1.240631771e-07
0.8059954902 	2.988045991 	0.000752581704 	-1.227478355e-07
0.8089809102 	2.985283391 	0.0007402272399 	-1.214344721e-07
0.8119333839 	2.982475994 	0.000727706238 	-1.201230106e-07
0.8148532749 	2.979622984 	0.0007150384417 	-1.188132982e-07
0.8177409426 	2.976723461 	0.000702243437 	-1.175051102e-07
0.8205967427 	2.973776442 	0.0006893406175 	-1.161981484e-07
0.8234210268 	2.970780871 	0.0006763491518 	-1.148920433e-07
0.8262141429 	2.96773562 	0.0006632879507 	-1.135863578e-07
0.8289764348 	2.96463949 	0.0006501756361 	-1.122805938e-07
0.8317082427 	2.961491222 	0.0006370305101 	-1.109742001e-07
0.8344099031 	2.958289493 	0.0006238705256 	-1.096665831e-07
0.8370817486 	2.955032926 	0.0006107132557 	-1.083571177e-07
0.8397241082 	2.951720089 	0.0005975758653 	-1.070451597e-07
0.8423373074 	2.948349501 	0.000584475082 	-1.057300595e-07
0.844921668 	2.944919635 	0.0005714271676 	-1.044111749e-07
0.8474775082 	2.941428921 	0.0005584478899 	-1.030878848e-07
0.8500051427 	2.93787575 	0.0005455524952 	-1.017596023e-07
0.8525048829 	2.934258476 	0.0005327556813 	-1.004257869e-07
0.8549770366 	2.930575421 	0.0005200715702 	-9.908595653e-08
0.8574219081 	2.926824877 	0.0005075136829 	-9.773969835e-08
0.8598397987 	2.923005111 	0.000495094914 	-9.638667827e-08
0.862231006 	2.919114367 	0.0004828275075 	-9.502664968e-08
0.8645958245 	2.915150867 	0.0004707230338 	-9.365946068e-08
0.8669345455 	2.911112819 	0.0004587923683 	-9.228506001e-08
0.8692474569 	2.906998413 	0.0004470456707 	-9.090350163e-08
0.8715348435 	2.902805831 	0.0004354923666 	-8.951494792e-08
0.8737969871 	2.898533246 	0.0004241411308 	-8.811967148e-08
0.8760341663 	2.894178824 	0.0004129998723 	-8.671805563e-08
0.8782466565 	2.889740727 	0.0004020757215 	-8.531059358e-08
0.8804347301 	2.885217116 	0.0003913750205 	-8.389788634e-08
0.8825986568 	2.880606152 	0.0003809033145 	-8.248063951e-08
0.8847387028 	2.875905998 	0.0003706653471 	-8.10596589e-08
0.8868551318 	2.871114818 	0.0003606650578 	-7.963584521e-08
0.8889482045 	2.866230784 	0.0003509055824 	-7.821018779e-08
0.8910181784 	2.86125207 	0.0003413892565 	-7.678375756e-08
0.8930653087 	2.856176856 	0.0003321176221 	-7.535769927e-08
0.8950898473 	2.851003327 	0.0003230914373 	-7.393322317e-08
0.8970920436 	2.845729673 	0.0003143106892 	-7.251159614e-08
0.8990721441 	2.840354088 	0.0003057746101 	-7.109413249e-08
0.9010303927 	2.834874766 	0.0002974816966 	-6.968218447e-08
0.9029670306 	2.829289905 	0.000289429732 	-6.827713262e-08
0.9048822962 	2.823597696 	0.0002816158118 	-6.688037604e-08
0.9067764254 	2.817796329 	0.0002740363725 	-6.549332269e-08
0.9086496514 	2.811883982 	0.0002666872219 	-6.411737971e-08
0.910502205 	2.805858821 	0.0002595635741 	-6.27539441e-08
0.9123343142 	2.799718991 	0.0002526600849 	-6.140439347e-08
0.9141462048 	2.793462615 	0.0002459708908 	-6.007007718e-08
0.9159380997 	2.787087785 	0.0002394896499 	-5.875230776e-08
0.9177102197 	2.780592553 	0.0002332095833 	-5.745235271e-08
0.9194627831 	2.773974924 	0.0002271235196 	-5.617142673e-08
0.9211960055 	2.76723285 	0.0002212239395 	-5.49106841e-08
0.9229101006 	2.760364213 	0.0002155030214 	-5.367121153e-08
0.9246052793 	2.753366821 	0.0002099526878 	-5.245402118e-08
0.9262817504 	2.746238391 	0.0002045646513 	-5.126004378e-08
0.9279397204 	2.738976536 	0.0001993304615 	-5.009012191e-08
0.9295793934 	2.731578751 	0.0001942415504 	-4.894500326e-08
0.9312009714 	2.724042398 	0.0001892892779 	-4.782533401e-08
0.9328046541 	2.716364685 	0.0001844649757 	-4.673165201e-08
0.9343906389 	2.708542645 	0.0001797599913 	-4.566437971e-08
0.9359591211 	2.700573121 	0.0001751657291 	-4.46238176e-08
0.937510294 	2.692452735 	0.0001706736912 	-4.361013114e-08
0.9390443485 	2.684177864 	0.0001662755158 	-4.262335485e-08
0.9405614735 	2.675744612 	0.0001619630151 	-4.166337642e-08
0.942061856 	2.667148776 	0.0001577282151 	-4.072992426e-08
0.9435456805 	2.658385812 	0.0001535633942 	-3.98225955e-08
0.9450131299 	2.649450796 	0.0001494611102 	-3.894084869e-08
0.946464385 	2.640338376 	0.0001454142264 	-3.808389045e-08
0.9478996243 	2.631042733 	0.0001414159455 	-3.725066329e-08
0.9493190246 	2.621557516 	0.0001374598439 	-3.643990936e-08
0.9507227608 	2.611875794 	0.0001335399015 	-3.565015058e-08
0.9521110058 	2.601989981 	0.0001296505346 	-3.487968492e-08
0.9534839303 	2.591891769 	0.0001257866189 	-3.412658491e-08
0.9548417036 	2.581572043 	0.0001219435445 	-3.338870296e-08
0.9561844929 	2.571020788 	0.000118117165 	-3.266368348e-08
0.9575124634 	2.560226992 	0.0001143041458 	-3.194898194e-08
0.9588257788 	2.549178523 	0.0001105010187 	-3.12418959e-08
0.9601246008 	2.537862008 	0.0001067072962 	-3.053959549e-08
0.9614090893 	2.526262656 	0.0001029138779 	-2.983923544e-08
0.9626794024 	2.514364309 	9.913269221e-05 	-2.91380541e-08
0.9639356968 	2.503194754 	9.568125998e-05 	-2.849324616e-08
0.9647540487 	2.493938274 	9.287617328e-05 	-2.796756615e-08
0.9655573034 	2.485668674 	9.042310742e-05 	-2.750354967e-08
0.9663457395 	2.477343899 	8.800503165e-05 	-2.704110941e-08
0.9671196303 	2.468963677 	8.56152954e-05 	-2.657979439e-08
0.9678792442 	2.460527714 	8.325729898e-05 	-2.611931568e-08
0.9686248445 	2.452035603 	8.093073494e-05 	-2.565948896e-08
0.9693566897 	2.443486824 	7.863621144e-05 	-2.520020945e-08
0.9700750337 	2.434880739 	7.63740547e-05 	-2.47414481e-08
0.9707801255 	2.426216585 	7.414469034e-05 	-2.428324363e-08
0.9714722095 	2.417493472 	7.194851569e-05 	-2.382569373e-08
0.9721515258 	2.408710371 	6.978591939e-05 	-2.336894538e-08
0.9728183099 	2.399866116 	6.765726594e-05 	-2.291318516e-08
0.9734727929 	2.390959397 	6.55628929e-05 	-2.245862988e-08
0.9741152019 	2.381988752 	6.350310629e-05 	-2.20055175e-08
0.9747457596 	2.372952564 	6.147817783e-05 	-2.15540987e-08
0.9753646845 	2.363849052 	5.948834301e-05 	-2.110462914e-08
0.9759721914 	2.354676264 	5.753380015e-05 	-2.065736255e-08
0.9765684907 	2.345432072 	5.56147102e-05 	-2.021254473e-08
0.9771537895 	2.336114154 	5.37311972e-05 	-1.977040847e-08
0.9777282904 	2.326719993 	5.188334925e-05 	-1.933116951e-08
0.9782921928 	2.317246857 	5.007122002e-05 	-1.889502339e-08
0.9788456922 	2.307691789 	4.829483047e-05 	-1.846214319e-08
0.9793889805 	2.29805159 	4.655417091e-05 	-1.803267828e-08
0.979922246 	2.288322803 	4.484920316e-05 	-1.760675372e-08
0.9804456737 	2.278501693 	4.31798628e-05 	-1.718447045e-08
0.9809594451 	2.268584227 	4.154606151e-05 	-1.676590612e-08
0.9814637383 	2.25856605 	3.994768923e-05 	-1.635111639e-08
0.9819587281 	2.248442458 	3.838461639e-05 	-1.594013675e-08
0.9824445862 	2.238208372 	3.685669592e-05 	-1.553298457e-08
0.9829214811 	2.227858306 	3.536376514e-05 	-1.512966152e-08
0.9833895781 	2.217386332 	3.390564753e-05 	-1.473015602e-08
0.9838490396 	2.206786042 	3.248215428e-05 	-1.433444587e-08
0.9843000247 	2.196050506 	3.109308566e-05 	-1.394250081e-08
0.98474269 	2.185172226 	2.973823227e-05 	-1.355428501e-08
0.9851771888 	2.174143083 	2.841737607e-05 	-1.316975954e-08
0.9856036719 	2.162954281 	2.713029129e-05 	-1.278888455e-08
0.9860222871 	2.151596286 	2.587674516e-05 	-1.241162139e-08
0.9864331796 	2.140058749 	2.465649857e-05 	-1.203793438e-08
0.9868364919 	2.128330433 	2.346930655e-05 	-1.166779244e-08
0.9872323637 	2.116399118 	2.231491872e-05 	-1.130117046e-08
0.9876209323 	2.104251508 	2.119307962e-05 	-1.093805036e-08
0.9880023326 	2.091873115 	2.010352901e-05 	-1.057842204e-08
0.9883766967 	2.079248131 	1.904600205e-05 	-1.022228394e-08
0.9887441544 	2.066359287 	1.802022953e-05 	-9.86964351e-09
0.9891048331 	2.053187684 	1.702593802e-05 	-9.520517391e-09
0.9894588579 	2.03971261 	1.606284996e-05 	-9.174931468e-09
0.9898063516 	2.025911323 	1.513068378e-05 	-8.832920704e-09
0.9901474347 	2.011758802 	1.42291538e-05 	-8.494528837e-09
0.9904822253 	1.997227459 	1.335797072e-05 	-8.159807976e-09
0.9908108397 	1.982286808 	1.251683954e-05 	-7.828818038e-09
0.9911333916 	1.966903071 	1.170546592e-05 	-7.501626151e-09
0.9914499931 	1.951038726 	1.092353013e-05 	-7.178305927e-09
0.9917607538 	1.934651964 	1.017077635e-05 	-6.858936736e-09
0.9920657815 	1.917696051 	9.446701255e-06 	-6.543603055e-09
0.9923651819 	1.900118567 	8.751714667e-06 	-6.232393245e-09
0.992659059 	1.881860493 	8.082958636e-06 	-5.92540057e-09
0.9929475145 	1.862855132 	7.448131265e-06 	-5.622715211e-09
0.9932306485 	1.843026622 	6.817280864e-06 	-5.32444629e-09
0.9935085592 	1.822289402 	6.269306121e-06 	-5.030662647e-09
0.9937813429 	1.802438257 	5.816518435e-06 	-4.765964315e-09
0.9939569055 	1.785613773 	5.382029623e-06 	-4.55382966e-09
0.9941324681 	1.770081364 	5.021194749e-06 	-4.367290119e-09
0.9943080307 	1.753771969 	4.698616161e-06 	-4.180577919e-09
0.9944835934 	1.736607953 	4.373132439e-06 	-3.993765429e-09
0.994659156 	1.718501248 	4.05815393e-06 	-3.806916832e-09
0.9948347186 	1.699350847 	3.75016223e-06 	-3.620106881e-09
0.9950102812 	1.679040394 	3.450302917e-06 	-3.433416755e-09
0.9951858439 	1.657435093 	3.15794075e-06 	-3.246936851e-09
0.9953614065 	1.634377857 	2.872603005e-06 	-3.060767736e-09
0.9955369691 	1.609684452 	2.593345092e-06 	-2.875021619e-09
0.9957125317 	1.583137341 	2.318734324e-06 	-2.689824134e-09
0.9958880943 	1.554477804 	2.046605378e-06 	-2.505316713e-09
0.996063657 	1.523395809 	1.773828683e-06 	-2.321659641e-09
0.9962392196 	1.489516914 	1.496081558e-06 	-2.139036273e-09
0.9964147822 	1.452385285 	1.207866602e-06 	-1.957659164e-09
0.9965903448 	1.411441749 	9.034838304e-07 	-1.77777899e-09
0.9967659075 	1.36599572 	5.803283362e-07 	-1.599697062e-09
0.9969414701 	1.31519037 	2.444118985e-07 	-1.423783603e-09
0.9971170327 	1.257962431 	-8.946704729e-08 	-1.250509072e-09
0.9972925953 	1.193004217 	-3.956807701e-07 	-1.080535225e-09
0.997468158 	1.118752163 	-4.514848716e-07 	-9.149588152e-10
0.9976437206 	1.033465641 	1.003431707e-06 	-7.553780508e-10
0.9978192832 	0.9355280598 	6.41587081e-06 	-6.023598978e-10
0.9979948458 	0.8241223435 	1.327031834e-05 	-4.555773155e-10
0.9981704085 	0.7001385331 	1.027711369e-05 	-3.216702944e-10
0.9983459711 	0.5665059381 	-3.63383004e-06 	-2.116877575e-10
0.9985215337 	0.427162027 	-1.144900042e-05 	-1.254539791e-10
0.9986970963 	0.2853437398 	-7.010819464e-06 	-5.858190143e-11
0.998872659 	0.1427650187 	-1.476652064e-06 	-1.619516688e-11
0.9990482216 	0.06012103145 	-7.479006867e-08 	-1.981807203e-12
