0 	0.5409053761 	-2.209899531e-14 	-7.754185418e-20
0.0003137191626 	0.5409072984 	-0.0002383962996 	3.253665449e-09
0.0006274377305 	0.5409156399 	-0.0004546596868 	1.785414775e-09
0.0007529268723 	0.5409249705 	-0.0005379816513 	3.34443222e-07
0.000941155703 	0.5409360897 	-0.0006629936592 	4.088423359e-09
0.001254873079 	0.540965906 	-0.0008809242268 	1.448573525e-08
0.001568589859 	0.5410060944 	-0.001098968124 	2.936995046e-08
0.001882306041 	0.5410564062 	-0.001317565072 	4.876393852e-08
0.002196021624 	0.5411167078 	-0.001536197414 	7.265987703e-08
0.00250973661 	0.541186917 	-0.001754957882 	1.010661605e-07
0.002823450996 	0.5412669729 	-0.00197378942 	1.339838837e-07
0.003137164783 	0.5413568253 	-0.0021926777 	1.714151339e-07
0.003450877969 	0.5414564287 	-0.002411604688 	2.133605665e-07
0.003764590556 	0.5415657393 	-0.0026305614 	2.598207924e-07
0.004078302543 	0.5416847137 	-0.002849541069 	3.107960133e-07
0.004392013928 	0.5418133079 	-0.003068539096 	3.66286169e-07
0.004705724713 	0.5419514768 	-0.003287552032 	4.262909044e-07
0.005019434897 	0.5420991743 	-0.003506577313 	4.908096009e-07
0.00533314448 	0.5422563524 	-0.003725612976 	5.598413824e-07
0.005646853463 	0.542422962 	-0.003944657504 	6.33385127e-07
0.005960561844 	0.5425989524 	-0.004163709707 	7.114394723e-07
0.006274269624 	0.5427842714 	-0.004382768646 	7.940028222e-07
0.006587976804 	0.5429788654 	-0.004601833572 	8.810733525e-07
0.006901683384 	0.5431826796 	-0.004820903884 	9.726490154e-07
0.007215389363 	0.5433956578 	-0.005039979099 	1.068727541e-06
0.007529094743 	0.5436177429 	-0.005259058835 	1.169306434e-06
0.007842799523 	0.5438488765 	-0.005478142784 	1.274382972e-06
0.008156503703 	0.5440889991 	-0.005697230789 	1.383954338e-06
0.008470207286 	0.5443380499 	-0.005916322472 	1.498017901e-06
0.00878391027 	0.5445959666 	-0.006135417646 	1.616571209e-06
0.009097612657 	0.5448626808 	-0.006354513328 	1.739606442e-06
0.009411314447 	0.5451778312 	-0.006604344987 	1.87624622e-06
0.009898733563 	0.5455883875 	-0.006916519274 	2.074777619e-06
0.01039531224 	0.5460665418 	-0.00726341254 	2.296642138e-06
0.01090122258 	0.5465775791 	-0.007616821951 	2.534148939e-06
0.01141663991 	0.5471227094 	-0.007976875758 	2.788009951e-06
0.01194174287 	0.5477031758 	-0.008343693241 	3.058953433e-06
0.01247671344 	0.548320254 	-0.008717399 	3.347735415e-06
0.01302173702 	0.548975253 	-0.009098119605 	3.655140138e-06
0.0135770025 	0.5496695156 	-0.00948598427 	3.981979952e-06
0.01414270231 	0.5504044197 	-0.009881124491 	4.329095643e-06
0.0147190325 	0.5511813783 	-0.01028367418 	4.697357087e-06
0.01530619282 	0.5520018403 	-0.01069376965 	5.087663862e-06
0.01590438673 	0.5528672909 	-0.01111154968 	5.500945803e-06
0.01651382157 	0.5537792525 	-0.01153715554 	5.938163504e-06
0.01713470852 	0.5547392853 	-0.01197073095 	6.40030874e-06
0.01776726278 	0.5557489877 	-0.01241242216 	6.888404944e-06
0.01841170354 	0.5568099978 	-0.01286237782 	7.403507274e-06
0.01906825416 	0.5579239915 	-0.01332074959 	7.946702946e-06
0.01973714216 	0.5590939994 	-0.0137882084 	8.519484899e-06
0.02042153748 	0.560324227 	-0.0142658061 	9.124972509e-06
0.02112091823 	0.5616164678 	-0.01475357498 	9.764688088e-06
0.02183344139 	0.5629704962 	-0.01525081447 	1.043872771e-05
0.02255935386 	0.5643872866 	-0.01575733197 	1.114830495e-05
0.02329890722 	0.5658688058 	-0.01627329596 	1.16264282e-05
0.02405235775 	0.5674170693 	-0.01679887637 	1.16102683e-05
0.02481996657 	0.5690341437 	-0.01733424577 	1.156960469e-05
0.02560199967 	0.5707221481 	-0.01787957908 	1.150310425e-05
0.02639872806 	0.5724832564 	-0.01843505351 	1.140937177e-05
0.02721042784 	0.574319699 	-0.01900084853 	1.128694691e-05
0.02803738028 	0.5762337645 	-0.01957714567 	1.113430109e-05
0.02887987195 	0.5782278024 	-0.02016412849 	1.094983425e-05
0.0297381948 	0.5803042247 	-0.02076198239 	1.073187151e-05
0.03061264626 	0.5824655088 	-0.02137089449 	1.047865979e-05
0.03150352933 	0.5847141995 	-0.02199105345 	1.01883643e-05
0.03241115274 	0.5870529116 	-0.02262264926 	9.859064955e-06
0.03333583098 	0.589484333 	-0.02326587301 	9.488752843e-06
0.03427788447 	0.5920112272 	-0.02392091666 	9.075326545e-06
0.03523763963 	0.5946364361 	-0.02458797278 	8.616588559e-06
0.03621542904 	0.5973628837 	-0.02526723415 	8.110241788e-06
0.03721159148 	0.6001935788 	-0.02595889359 	7.553886082e-06
0.03822647215 	0.6031316184 	-0.02666314326 	6.945014367e-06
0.03926042268 	0.6061816181 	-0.0273805059 	6.281104778e-06
0.04031569926 	0.6093524621 	-0.028112431 	5.557981285e-06
0.04139611951 	0.6126506382 	-0.02885971421 	4.769622607e-06
0.0424968417 	0.6160746475 	-0.02962132214 	3.917343121e-06
0.04361824725 	0.6196242405 	-0.03039654558 	2.997838832e-06
0.04476072477 	0.6233031858 	-0.03118556249 	2.00791262e-06
0.04592467013 	0.6271153669 	-0.03198854693 	9.442499308e-07
0.04691067477 	0.6303991843 	-0.03266788215 	2.548840364e-07
0.04711048667 	0.6310611232 	-0.03280569722 	1.978612849e-07
0.04831858527 	0.6351297857 	-0.03363730674 	1.427674407e-06
0.04954938458 	0.639343704 	-0.03448339836 	2.743060404e-06
0.05080331105 	0.6437073003 	-0.03534412454 	4.148004415e-06
0.0520807992 	0.6482251504 	-0.03621962961 	5.646613325e-06
0.05338229166 	0.6529020125 	-0.03711004811 	7.243110557e-06
0.05470823941 	0.6577428287 	-0.03801550419 	8.941840394e-06
0.05605910188 	0.6627527175 	-0.03893611137 	1.074726965e-05
0.05743534714 	0.6679369875 	-0.03987197109 	1.266398487e-05
0.05883745205 	0.673302515 	-0.04082340974 	1.46967551e-05
0.06026729956 	0.6788639422 	-0.041792015 	1.685284543e-05
0.06173156424 	0.684634047 	-0.04277889243 	1.914620631e-05
0.06322334345 	0.6913932601 	-0.04391184708 	2.163590769e-05
0.06551344073 	0.6999800377 	-0.04531930994 	2.548443432e-05
0.06782907795 	0.7096603739 	-0.04686280622 	2.965149927e-05
0.07017053993 	0.7196775758 	-0.04841455404 	3.407839359e-05
0.07253811468 	0.7300420692 	-0.04997376895 	3.876869517e-05
0.07493209339 	0.7407641765 	-0.05153955905 	3.691575142e-05
0.07735277052 	0.7518542557 	-0.05311097978 	3.445841168e-05
0.07980044382 	0.7633375566 	-0.05468900852 	3.174766939e-05
0.08228795177 	0.7752429929 	-0.05627484992 	2.876027613e-05
0.0848045662 	0.7875691179 	-0.05786539707 	2.550910066e-05
0.08734924993 	0.8003108533 	-0.05945726915 	2.199130923e-05
0.08992231604 	0.8134775278 	-0.06104895534 	1.820366168e-05
0.09252408108 	0.8270801329 	-0.06263909348 	1.414354373e-05
0.09515486517 	0.8411297391 	-0.06422625556 	9.808882909e-06
0.09781499197 	0.8556407346 	-0.06580929283 	5.19820484e-06
0.100507166 	0.8706439347 	-0.06738862559 	3.059953196e-07
0.1006723289 	0.8715811212 	-0.06748362982 	9.935111834e-07
0.1032407961 	0.8861299878 	-0.06896892657 	5.102394578e-06
0.1060049194 	0.9021248662 	-0.07054191909 	1.081384463e-05
0.108799876 	0.9186264298 	-0.07210392347 	1.681368189e-05
0.11162601 	0.9356453652 	-0.07365307859 	2.310011686e-05
0.114483669 	0.953191891 	-0.07518745955 	2.967057887e-05
0.1173732048 	0.9712775086 	-0.076705222 	3.652176747e-05
0.1202961886 	0.9899327613 	-0.07820596566 	4.365329226e-05
0.1232641206 	1.009186096 	-0.07968894869 	5.108257489e-05
0.1262651629 	1.029022419 	-0.08114996873 	5.877388522e-05
0.1292996849 	1.049427173 	-0.08258528357 	6.671846639e-05
0.1323680601 	1.070402669 	-0.08399258755 	7.100442268e-05
0.1354706662 	1.091948581 	-0.0853695716 	6.527292431e-05
0.138607885 	1.114074148 	-0.08671465665 	5.925817274e-05
0.1417873791 	1.136797404 	-0.08802686851 	5.295085165e-05
0.1450082501 	1.160105989 	-0.08930362037 	4.636638889e-05
0.1482650567 	1.183960502 	-0.09054129965 	3.952704267e-05
0.1515582 	1.208329371 	-0.09173730592 	3.244220022e-05
0.1548880853 	1.233185514 	-0.09288978832 	2.512259438e-05
0.1582551226 	1.258507238 	-0.09399755467 	1.757989106e-05
0.1616658524 	1.284280825 	-0.09506010419 	9.812768234e-06
0.1651212069 	1.310462423 	-0.09607611964 	1.839960933e-06
0.1659171165 	1.316498933 	-0.09629614923 	1.246158567e-05
0.1686151167 	1.336952713 	-0.09705048384 	6.606922835e-06
0.1721480121 	1.363703783 	-0.09797760675 	1.531507748e-05
0.175720328 	1.390664821 	-0.09885514676 	2.418065764e-05
0.1793325041 	1.417793551 	-0.09968348059 	3.318581457e-05
0.182994898 	1.445053198 	-0.1004633256 	4.233272199e-05
0.1867003698 	1.472366912 	-0.1011942943 	5.157548426e-05
0.1904471912 	1.499654226 	-0.1018761484 	6.088807918e-05
0.1942358234 	1.526856424 	-0.1025092863 	7.02501529e-05
0.1980667329 	1.553932717 	-0.1030944795 	7.964172111e-05
0.201946184 	1.580857781 	-0.1036326897 	8.905506168e-05
0.205874617 	1.607589846 	-0.1041244274 	9.497138829e-05
0.2098468907 	1.63407278 	-0.1045698587 	8.622466628e-05
0.2138634941 	1.660267697 	-0.1049694339 	7.740058805e-05
0.2179249219 	1.68615771 	-0.105323872 	6.851887431e-05
0.2220370961 	1.71173896 	-0.1056339566 	5.9588197e-05
0.226200533 	1.736992731 	-0.1059002346 	5.063872566e-05
0.2304104359 	1.761886892 	-0.1061230823 	4.170228882e-05
0.2346673231 	1.786402408 	-0.1063030335 	3.279572909e-05
0.238971719 	1.810540167 	-0.106440759 	2.393484911e-05
0.2433319693 	1.834307063 	-0.1065369663 	1.512312485e-05
0.2477431375 	1.857686641 	-0.1065922431 	6.39722536e-06
0.2510499412 	1.874716088 	-0.106603482 	2.334065549e-05
0.2522035389 	1.880656941 	-0.1066097099 	2.332384836e-06
0.2567137226 	1.903209403 	-0.1065945014 	1.124825429e-05
0.2612769989 	1.925361477 	-0.1065402039 	2.003371529e-05
0.2658977798 	1.947114989 	-0.1064475635 	2.867295232e-05
0.2705701354 	1.968454958 	-0.1063173713 	3.713941292e-05
0.275294641 	1.98937345 	-0.1061504381 	4.542516875e-05
0.2800721922 	2.009878433 	-0.1059474451 	5.352389255e-05
0.2849113354 	2.029979146 	-0.105709133 	6.143336692e-05
0.2898044922 	2.049664338 	-0.1054364044 	6.912563113e-05
0.2947522652 	2.068927083 	-0.1051301697 	7.659702712e-05
0.2997552636 	2.087775306 	-0.1047910621 	8.384461577e-05
0.3048217599 	2.106218864 	-0.1044197568 	9.086875968e-05
0.3099449938 	2.124250487 	-0.1040171895 	8.984097476e-05
0.3151254131 	2.141866392 	-0.1035842373 	8.160959993e-05
0.3203643454 	2.15907429 	-0.1031214459 	7.357192774e-05
0.3256681805 	2.175881901 	-0.1026294296 	6.573344342e-05
0.3310312183 	2.19228421 	-0.1021090784 	5.811292612e-05
0.3364541189 	2.208280777 	-0.1015610913 	5.071034781e-05
0.3419400009 	2.223878604 	-0.10098589 	4.35230991e-05
0.3474910806 	2.239080723 	-0.1003840671 	3.656307878e-05
0.3531041231 	2.253883693 	-0.09975635791 	2.983698239e-05
0.3587798191 	2.26828943 	-0.09910317235 	2.334165327e-05
0.3645235755 	2.282303319 	-0.09842479538 	1.707515359e-05
0.3703324803 	2.295922954 	-0.09772181972 	1.105071184e-05
0.3762062255 	2.309146501 	-0.09699468257 	5.264757623e-06
0.3818349366 	2.32130113 	-0.09628312846 	5.455130339e-06
0.3821475528 	2.321976372 	-0.09624379762 	3.006262145e-07
0.3881582854 	2.334411762 	-0.09547392106 	5.831946139e-06
0.3942361112 	2.346450374 	-0.09468038556 	1.110945586e-05
0.4003822316 	2.358091726 	-0.09386323863 	1.614127093e-05
0.4066010098 	2.369336377 	-0.09302245425 	2.092618009e-05
0.4128892032 	2.380179473 	-0.09215822113 	2.546128509e-05
0.4192475857 	2.390618281 	-0.09127037165 	2.975645119e-05
0.4256805892 	2.400651621 	-0.09035848676 	3.381581705e-05
0.4321857004 	2.410273471 	-0.08942231571 	3.763636015e-05
0.4387634212 	2.419478248 	-0.08846121435 	4.123000593e-05
0.4454175046 	2.428260869 	-0.08747418208 	4.46037572e-05
0.4521463543 	2.436612036 	-0.08646026629 	4.775655551e-05
0.4589503101 	2.444521581 	-0.0854181263 	5.070094917e-05
0.4658328557 	2.451978843 	-0.08434614506 	5.344254313e-05
0.4727925432 	2.45896949 	-0.08324288345 	5.597947818e-05
0.479829972 	2.465478384 	-0.08210675952 	5.832140451e-05
0.486948429 	2.471489932 	-0.08093621471 	6.046791254e-05
0.4941463394 	2.476974333 	-0.07973307341 	6.241906933e-05
0.5013447716 	2.481878514 	-0.07850747513 	6.401610039e-05
0.508465376 	2.48617174 	-0.0772708173 	6.035087502e-05
0.5155074155 	2.489867911 	-0.07602770644 	5.691962632e-05
0.5224724405 	2.492996295 	-0.07478017778 	5.370016337e-05
0.5293615891 	2.495588881 	-0.07353068514 	5.068414486e-05
0.5361747244 	2.497679599 	-0.07228191925 	4.785636206e-05
0.5429133278 	2.499303719 	-0.07103654657 	4.520207057e-05
0.5495782327 	2.500496608 	-0.06979724356 	4.271698113e-05
0.5561695966 	2.501292946 	-0.06856651845 	4.038900111e-05
0.5626887148 	2.501726212 	-0.06734650554 	3.820667634e-05
0.5691364214 	2.501828197 	-0.06613917854 	3.616621356e-05
0.5755129821 	2.501628809 	-0.0649462302 	3.425740702e-05
0.5818194612 	2.501155729 	-0.06376890359 	3.246987869e-05
0.5880568427 	2.500434231 	-0.06260824081 	3.079988367e-05
0.5942253977 	2.499487346 	-0.06146505078 	2.923919808e-05
0.6003259628 	2.498335882 	-0.06033984803 	2.777807471e-05
0.6063597157 	2.496998515 	-0.0592329716 	2.641239639e-05
0.612326888 	2.495492009 	-0.05814463767 	2.513652706e-05
0.6182282137 	2.493831256 	-0.05707486414 	2.394217536e-05
0.6240647607 	2.492029385 	-0.0560235485 	2.282375087e-05
0.6298369959 	2.490098014 	-0.05499053876 	2.177860868e-05
0.6355455349 	2.488047337 	-0.0539755682 	2.080002039e-05
0.6411911782 	2.485886196 	-0.05297828919 	1.988189037e-05
0.6467747435 	2.483622252 	-0.05199833244 	1.902234379e-05
0.6522966938 	2.481262155 	-0.05103529653 	1.821712525e-05
0.6577577088 	2.478811556 	-0.05008872147 	1.74610183e-05
0.6631586198 	2.476275201 	-0.0491581363 	1.675033314e-05
0.6685000027 	2.473657088 	-0.0482430816 	1.608388769e-05
0.6737824424 	2.470960527 	-0.04734307702 	1.545765996e-05
0.679006589 	2.468188141 	-0.04645762483 	1.486775293e-05
0.6841732363 	2.465341958 	-0.04558624359 	1.431217438e-05
0.6892828813 	2.462423527 	-0.04472847177 	1.378968804e-05
0.6943361397 	2.459433915 	-0.0438838395 	1.329712662e-05
0.6993336336 	2.456373717 	-0.04305187897 	1.283158193e-05
0.7042760903 	2.453243121 	-0.04223214601 	1.239184664e-05
0.7091640066 	2.450041992 	-0.04142421733 	1.197692078e-05
0.7139979828 	2.446769855 	-0.04062767092 	1.158442468e-05
0.7187786138 	2.443425895 	-0.03984209297 	1.121218219e-05
0.7235065557 	2.44000901 	-0.03906709387 	1.085911102e-05
0.7281823321 	2.43651786 	-0.03830230423 	1.052476659e-05
0.7328065091 	2.432950861 	-0.03754736149 	1.020738055e-05
0.737379656 	2.42930618 	-0.03680191186 	9.90531723e-06
0.7419023644 	2.425581767 	-0.03606562346 	9.617381387e-06
0.7463751843 	2.421775387 	-0.03533818397 	9.343558331e-06
0.7507986441 	2.417884626 	-0.03461929067 	9.082679309e-06
0.7551732887 	2.413906891 	-0.03390865081 	8.833509219e-06
0.7594996577 	2.409839416 	-0.03320598744 	8.594921053e-06
0.7637783137 	2.405679282 	-0.03251104213 	8.36665093e-06
0.7680097523 	2.401423451 	-0.03182357046 	8.14835958e-06
0.7721944944 	2.397068748 	-0.03114333768 	7.939109393e-06
0.7763330552 	2.392611874 	-0.03047012018 	7.73804212e-06
0.7804259499 	2.388049412 	-0.02980371043 	7.544415174e-06
0.7844736913 	2.383377851 	-0.02914391716 	7.358260484e-06
0.7884767633 	2.378593599 	-0.02849055928 	7.179154437e-06
0.7924356588 	2.37369298 	-0.0278434671 	7.006439034e-06
0.7963508653 	2.368672243 	-0.02720248265 	6.839511595e-06
0.8002228677 	2.363527577 	-0.02656746251 	6.677846042e-06
0.8040521488 	2.358255124 	-0.02593827851 	6.521483655e-06
0.8078391712 	2.352850995 	-0.02531481283 	6.370155775e-06
0.8115844012 	2.347311275 	-0.02469695921 	6.223398919e-06
0.8152883001 	2.341632028 	-0.02408462387 	6.080788441e-06
0.8189513238 	2.335809317 	-0.02347772524 	5.941935661e-06
0.8225739295 	2.329839211 	-0.02287619638 	5.806727837e-06
0.8261565578 	2.323717806 	-0.02227998206 	5.675152895e-06
0.8296996493 	2.317441227 	-0.02168903723 	5.546881637e-06
0.8332036402 	2.311005641 	-0.02110332977 	5.421609968e-06
0.8366689621 	2.304407267 	-0.02052283884 	5.299058811e-06
0.8400960425 	2.29764239 	-0.01994755677 	5.178985921e-06
0.8434853052 	2.290707369 	-0.01937748909 	5.06143405e-06
0.846837165 	2.283598653 	-0.01881265148 	4.946281771e-06
0.8501520345 	2.276312783 	-0.01825307126 	4.83330972e-06
0.853430322 	2.268846402 	-0.01769878812 	4.722316761e-06
0.8566724313 	2.261196263 	-0.01714985251 	4.613118635e-06
0.8598787618 	2.253359238 	-0.01660632732 	4.505553378e-06
0.8630497095 	2.24533232 	-0.0160682875 	4.399647768e-06
0.8661856634 	2.237112631 	-0.01553581768 	4.29533343e-06
0.8692870097 	2.228697421 	-0.01500901319 	4.192467061e-06
0.8723541304 	2.220084069 	-0.01448798023 	4.090918329e-06
0.8753874032 	2.211270079 	-0.01397283486 	3.990569211e-06
0.8783872015 	2.202253079 	-0.01346370246 	3.89131355e-06
0.8813538954 	2.193030813 	-0.01296071867 	3.793103537e-06
0.8842878497 	2.18360113 	-0.01246402726 	3.695971186e-06
0.8871894257 	2.173961969 	-0.0119737789 	3.599837927e-06
0.8900589807 	2.164111339 	-0.01149013205 	3.50462931e-06
0.8928968679 	2.154047299 	-0.0110132514 	3.410280824e-06
0.895703437 	2.143767926 	-0.01054330684 	3.316737044e-06
0.8984790334 	2.133271281 	-0.01008047248 	3.223950229e-06
0.9012239993 	2.12255537 	-0.009624926563 	3.131907344e-06
0.9039386725 	2.111618091 	-0.009176849038 	3.04063446e-06
0.9066233872 	2.100457185 	-0.008736420054 	2.950080124e-06
0.909278474 	2.089070171 	-0.008303820758 	2.860180978e-06
0.91190426 	2.07745428 	-0.007879234959 	2.770874153e-06
0.9145010685 	2.065606389 	-0.007462851203 	2.682101752e-06
0.9170692192 	2.053522953 	-0.007054863189 	2.5938047e-06
0.9196090285 	2.041199937 	-0.006655471764 	2.505920425e-06
0.9221208091 	2.028632746 	-0.006264887936 	2.418415897e-06
0.9246048703 	2.015816164 	-0.005883330753 	2.331228835e-06
0.927061518 	2.002744272 	-0.005511033942 	2.24427601e-06
0.9294910548 	1.989410551 	-0.005148223942 	2.157521476e-06
0.9318937798 	1.976957175 	-0.004824393932 	2.078454548e-06
0.9334589183 	1.966718964 	-0.004568942456 	2.015161834e-06
0.9349951828 	1.957608998 	-0.004349427361 	1.959975642e-06
0.9365031058 	1.948486417 	-0.004136767139 	1.905601643e-06
0.9379832102 	1.939354031 	-0.003930901636 	1.852008529e-06
0.9394360093 	1.930214575 	-0.003731755379 	1.799206604e-06
0.9408620068 	1.921070627 	-0.003539248895 	1.747211957e-06
0.9422616971 	1.911924611 	-0.003353298206 	1.696034721e-06
0.9436355655 	1.902778779 	-0.003173816714 	1.645682634e-06
0.9449840884 	1.893635205 	-0.003000714634 	1.596164488e-06
0.9463077333 	1.884495781 	-0.002833898883 	1.5474896e-06
0.9476069594 	1.875362211 	-0.002673272993 	1.499667164e-06
0.9488822169 	1.866236008 	-0.002518737117 	1.452705332e-06
0.9501339482 	1.857118491 	-0.002370188003 	1.406611988e-06
0.9513625871 	1.848010784 	-0.002227519144 	1.361393341e-06
0.9525685598 	1.838913812 	-0.002090621196 	1.31705345e-06
0.9537522844 	1.829828304 	-0.001959382256 	1.273597345e-06
0.9549141714 	1.820754781 	-0.001833687995 	1.231030231e-06
0.9560546235 	1.811693562 	-0.001713421811 	1.189356003e-06
0.9571740362 	1.802644756 	-0.001598465 	1.148577277e-06
0.9582727977 	1.793608261 	-0.001488696955 	1.10869532e-06
0.959351289 	1.784583757 	-0.001383995434 	1.069710111e-06
0.9604098839 	1.775570703 	-0.001284236762 	1.031621631e-06
0.9614489497 	1.766568329 	-0.001189296031 	9.944275919e-07
0.9624688464 	1.757575633 	-0.001099047403 	9.581238982e-07
0.9634699278 	1.748591367 	-0.001013364334 	9.227053924e-07
0.964452541 	1.739614034 	-0.0009321197972 	8.881659503e-07
0.9654170267 	1.730641876 	-0.0008551865091 	8.544985794e-07
0.9663637192 	1.721672859 	-0.0007824371508 	8.216955122e-07
0.967292947 	1.712704667 	-0.0007137445726 	7.897482967e-07
0.9682050321 	1.70373468 	-0.0006489819903 	7.58647882e-07
0.9691002908 	1.694759963 	-0.0005880231683 	7.283847004e-07
0.9699790335 	1.685777244 	-0.0005307425908 	6.989487496e-07
0.9708415649 	1.676782894 	-0.0004770156206 	6.703296675e-07
0.9716881841 	1.667772904 	-0.0004267186449 	6.425167909e-07
0.9725191847 	1.658742857 	-0.0003797292077 	6.154992001e-07
0.9733348547 	1.649687899 	-0.00033592613 	5.892657555e-07
0.9741354771 	1.640602705 	-0.0002951896161 	5.638051275e-07
0.9749213293 	1.631481437 	-0.0002574013477 	5.391058214e-07
0.9756926839 	1.622317707 	-0.000222444564 	5.15156198e-07
0.9764498084 	1.613104519 	-0.0001902041299 	4.91944491e-07
0.9771929652 	1.603834221 	-0.0001605665905 	4.69458821e-07
0.977922412 	1.594498433 	-0.0001334202135 	4.476872087e-07
0.9786384019 	1.58508798 	-0.000108655016 	4.26617573e-07
0.9793411829 	1.575592803 	-8.616279575e-05 	4.06237736e-07
0.9800309988 	1.566001866 	-6.583712053e-05 	3.865355376e-07
0.9807080889 	1.556303045 	-4.757331534e-05 	3.674986276e-07
0.9813726878 	1.546482994 	-3.126846282e-05 	3.491145477e-07
0.982025026 	1.536527006 	-1.682136394e-05 	3.313707932e-07
0.9826653297 	1.52641883 	-4.132488674e-06 	3.14254891e-07
0.9832938208 	1.516140473 	6.896079359e-06 	2.977544954e-07
0.9839107174 	1.505671965 	1.636073261e-05 	2.818578301e-07
0.9845162334 	1.494991072 	2.435634407e-05 	2.665545514e-07
0.9851105786 	1.484072967 	3.097663793e-05 	2.51837393e-07
0.9856939592 	1.472889832 	3.631405309e-05 	2.377110611e-07
0.9862665774 	1.461410378 	4.04634732e-05 	2.241758646e-07
0.9868286317 	1.449599274 	4.35108274e-05 	2.112694166e-07
0.9873803172 	1.437416407 	4.555590519e-05 	1.989750834e-07
0.987921825 	1.424815928 	4.665279095e-05 	1.872885568e-07
0.9884533429 	1.411745923 	4.694777683e-05 	1.761879477e-07
0.9889750553 	1.399326007 	4.659408973e-05 	1.663988726e-07
0.9893108275 	1.388864687 	4.58201028e-05 	1.586647382e-07
0.9896465997 	1.379251808 	4.485937524e-05 	1.519745794e-07
0.9899823719 	1.369200249 	4.366777078e-05 	1.453296289e-07
0.9903181441 	1.358663055 	4.222507284e-05 	1.386739232e-07
0.9906539163 	1.34758662 	4.056162006e-05 	1.320062024e-07
0.9909896885 	1.335909045 	3.86912498e-05 	1.253281408e-07
0.9913254607 	1.323558536 	3.663403212e-05 	1.186436343e-07
0.991661233 	1.310451325 	3.44102999e-05 	1.119555968e-07
0.9919970052 	1.29648905 	3.203762944e-05 	1.053016898e-07
0.9923327774 	1.281555398 	2.955715289e-05 	9.857895208e-08
0.9926685496 	1.265511765 	2.69829121e-05 	9.187831547e-08
0.9930043218 	1.248191573 	2.433274412e-05 	8.527990934e-08
0.993340094 	1.229392772 	2.16544191e-05 	7.867930279e-08
0.9936758662 	1.208867778 	1.897330734e-05 	7.212928271e-08
0.9940116384 	1.186309781 	1.632822079e-05 	6.560206841e-08
0.9943474106 	1.161333855 	1.373116299e-05 	5.924301498e-08
0.9946831828 	1.13345053 	1.122385787e-05 	5.298722066e-08
0.9950189551 	1.102028343 	8.84074144e-06 	4.678698794e-08
0.9953547273 	1.066240345 	6.575856217e-06 	4.080214592e-08
0.9956904995 	1.024987623 	4.431895199e-06 	3.50511035e-08
0.9960262717 	0.9767918793 	2.355378946e-06 	2.960108324e-08
0.9963620439 	0.9196556802 	4.163928109e-07 	2.449770472e-08
0.9966978161 	0.8509294753 	4.995345744e-07 	1.977754606e-08
0.9970335883 	0.7673960354 	1.038850307e-05 	1.532879997e-08
0.9973693605 	0.6662214664 	2.801157216e-05 	1.097702121e-08
0.9977051327 	0.5473807368 	2.119985753e-05 	7.313167006e-09
0.998040905 	0.4155309725 	-1.026112144e-05 	4.865357717e-09
0.9983766772 	0.2776388459 	-1.928598079e-05 	2.863742818e-09
0.9987124494 	0.1385553959 	-6.720731578e-06 	1.12059537e-09
0.9990482216 	0.05828810599 	-8.911604196e-07 	3.617646865e-10
0.9990482216 	0.05828810599 	-8.911604196e-07 	3.617646865e-10
