0.4535129604 	6.482004389e-06 	-9.064957144e-08 	2.324643395e-12 	6.491355425e-06 	-9.524000214e-11 	1.237432762e-08
0.4535129604 	6.482004389e-06 	-9.064957144e-08 	2.324643395e-12 	6.491355425e-06 	-9.524000214e-11 	1.237432762e-08
0.4536885212 	7.360707915e-05 	-4.025493704e-06 	6.844008407e-11 	7.442807623e-05 	-6.293228703e-10 	1.418805995e-07
0.4538640836 	0.000406954766 	-5.137163638e-05 	6.818167942e-10 	0.0004183220456 	-2.249000232e-09 	7.974380854e-07
0.4540396474 	0.001336021198 	-0.0003005430317 	3.236255421e-09 	0.001401382215 	-3.639023418e-09 	2.671423995e-06
0.4542152125 	0.0032118943 	-0.001070040046 	9.339447217e-09 	0.003420187229 	3.132556628e-10 	6.51982745e-06
0.4543907787 	0.006231484765 	-0.002654747934 	1.856176425e-08 	0.006649894414 	1.681705356e-08 	1.2676547e-05
0.4545663459 	0.01023439134 	-0.005014025652 	2.809516197e-08 	0.01082808312 	4.875519507e-08 	2.064133594e-05
0.454741914 	0.01470781593 	-0.007749146653 	3.566515551e-08 	0.01538567466 	9.144685309e-08 	2.932937212e-05
0.4549174829 	0.0190896812 	-0.0104183663 	4.109625337e-08 	0.01979818967 	1.372495328e-07 	3.774085213e-05
0.4550930523 	0.02303554119 	-0.0127744319 	4.510336456e-08 	0.0237710585 	1.808428359e-07 	4.531424432e-05
0.4552686222 	0.02643377824 	-0.0147559284 	4.82645524e-08 	0.02720996677 	2.200777259e-07 	5.186975928e-05
0.4554441925 	0.02930307664 	-0.01639214813 	5.093009152e-08 	0.03013094531 	2.546453071e-07 	5.743795622e-05
0.4556197629 	0.03171043559 	-0.01773861115 	5.332847964e-08 	0.03259406199 	2.849641302e-07 	6.21333412e-05
0.4557953335 	0.0337312117 	-0.01885038663 	5.561690137e-08 	0.03466926676 	3.116552896e-07 	6.608925827e-05
0.455970904 	0.0354340111 	-0.01977419014 	5.789834871e-08 	0.0364220622 	3.353433742e-07 	6.943057354e-05
0.4561464743 	0.03687659461 	-0.02054746559 	6.023141001e-08 	0.03790879762 	3.5659002e-07 	7.226470447e-05
0.4563220442 	0.03810600321 	-0.02119959516 	6.263978025e-08 	0.0391761133 	3.758769659e-07 	7.46805604e-05
0.4564976137 	0.03916002988 	-0.02175350264 	6.512171486e-08 	0.04026194394 	3.936070221e-07 	7.675045539e-05
0.4566731827 	0.04006891947 	-0.02222710285 	6.765851273e-08 	0.04119693966 	4.101111466e-07 	7.853281709e-05
0.4568487509 	0.04085690615 	-0.02263447164 	7.02214947e-08 	0.04200584728 	4.256572015e-07 	8.007481984e-05
0.4570243182 	0.04154348625 	-0.02298674863 	7.277738468e-08 	0.04270869953 	4.404587311e-07 	8.141465157e-05
0.4571998846 	0.04214443146 	-0.02329282076 	7.529223627e-08 	0.04332178579 	4.546831574e-07 	8.258336439e-05
0.4573754499 	0.04267258078 	-0.02355983703 	7.773413606e-08 	0.04385842475 	4.684591882e-07 	8.36063474e-05
0.4575510139 	0.04313845522 	-0.02379359605 	8.007492124e-08 	0.04432957172 	4.818834008e-07 	8.450448447e-05
0.4577265766 	0.04355073414 	-0.02399883963 	8.229116188e-08 	0.04474429453 	4.950259782e-07 	8.52950614e-05
0.4579021377 	0.04391662485 	-0.02417947456 	8.436448357e-08 	0.04511014336 	5.079356686e-07 	8.599247096e-05
0.4580776973 	0.04424215318 	-0.02433875161 	8.628190556e-08 	0.04543345063 	5.206437737e-07 	8.660878448e-05
0.458253255 	0.0445323639 	-0.02447934282 	8.80347179e-08 	0.04571953673 	5.331682296e-07 	8.71541441e-05
0.4584288109 	0.04479169432 	-0.02460384672 	8.962262747e-08 	0.04597303447 	5.455279854e-07 	8.763738125e-05
0.4586043647 	0.04502244784 	-0.02471171986 	9.10416058e-08 	0.04619738377 	5.576704518e-07 	8.806505337e-05
0.4587799164 	0.04526164717 	-0.02482942838 	9.214734682e-08 	0.04642334922 	5.702898861e-07 	8.849580631e-05
0.4590526787 	0.0455202696 	-0.02495308339 	9.379698281e-08 	0.04666460038 	5.884795593e-07 	8.895569808e-05
0.4593305614 	0.04575922936 	-0.02505790624 	9.508885966e-08 	0.04688634368 	6.064419759e-07 	8.937840244e-05
0.4596136599 	0.04596523001 	-0.02514798408 	9.610144206e-08 	0.0470711271 	6.241533178e-07 	8.973065099e-05
0.4599020716 	0.04614018404 	-0.02522142996 	9.685247612e-08 	0.04722261789 	6.414082506e-07 	9.001943456e-05
0.4601958952 	0.04628780934 	-0.02528056393 	9.740218765e-08 	0.04734468203 	6.58099298e-07 	9.025212272e-05
0.4604952317 	0.04641099157 	-0.02532679691 	9.780693582e-08 	0.04744044019 	6.741021781e-07 	9.043466439e-05
0.4608001837 	0.046512244 	-0.02536142337 	9.8129979e-08 	0.04751260687 	6.89293204e-07 	9.057223415e-05
0.4611108555 	0.04659372539 	-0.02538554133 	9.843695019e-08 	0.04756351161 	7.035532307e-07 	9.066927273e-05
0.4614273535 	0.04665730396 	-0.02540010222 	9.879514414e-08 	0.04759517744 	7.16768685e-07 	9.072963659e-05
0.4617497859 	0.04670460356 	-0.02540593196 	9.927165214e-08 	0.04760936506 	7.288331466e-07 	9.075668214e-05
0.462078263 	0.04673704199 	-0.02540375171 	9.993236012e-08 	0.04760761415 	7.396482322e-07 	9.075334441e-05
0.4624128968 	0.04675586227 	-0.02539419397 	1.008411321e-07 	0.0475912758 	7.491241381e-07 	9.072219899e-05
0.4627538017 	0.04676215841 	-0.02537781601 	1.020591784e-07 	0.04756154025 	7.571798417e-07 	9.066551476e-05
0.4631010937 	0.04675689671 	-0.02535511042 	1.036446001e-07 	0.04751945853 	7.637430482e-07 	9.058529531e-05
0.4634548912 	0.04674093309 	-0.02532651537 	1.056524375e-07 	0.04746596535 	7.687511482e-07 	9.048332243e-05
0.4638153145 	0.04671503318 	-0.02529242209 	1.081309765e-07 	0.04740187711 	7.72149731e-07 	9.036115244e-05
0.4641824861 	0.0466798561 	-0.02525315399 	1.11149244e-07 	0.04732794888 	7.738900264e-07 	9.02202247e-05
0.4645565307 	0.04663600229 	-0.02520904226 	1.147364708e-07 	0.04724476159 	7.738987847e-07 	9.006164659e-05
0.4649388915 	0.04658393384 	-0.02516029942 	1.189347142e-07 	0.04715271411 	7.721853546e-07 	8.988617851e-05
0.4653293684 	0.04652403792 	-0.02510706637 	1.238365701e-07 	0.04705234816 	7.687370204e-07 	8.969485312e-05
0.465727164 	0.046456831 	-0.02504965148 	1.294663004e-07 	0.0469442512 	7.634938453e-07 	8.948879028e-05
0.4661324151 	0.04638277994 	-0.02498833475 	1.35825642e-07 	0.04682889577 	7.56449955e-07 	8.926889076e-05
0.4665452612 	0.04630223989 	-0.02492329807 	1.429501396e-07 	0.04670668899 	7.476072195e-07 	8.903593067e-05
0.4669658443 	0.04621554219 	-0.02485471359 	1.508683755e-07 	0.04657797712 	7.369542642e-07 	8.879057006e-05
0.467394309 	0.04612298589 	-0.0247827381 	1.596062849e-07 	0.04644307676 	7.244848927e-07 	8.853341248e-05
0.4678308029 	0.0460248423 	-0.02470751364 	1.691881489e-07 	0.04630227218 	7.101940951e-07 	8.826499983e-05
0.4682754759 	0.04592135777 	-0.02462916956 	1.796363732e-07 	0.04615582023 	6.94078747e-07 	8.79858217e-05
0.4687284811 	0.04581275628 	-0.02454782355 	1.909717512e-07 	0.04600395248 	6.761367425e-07 	8.769631957e-05
0.4691899741 	0.04569924163 	-0.02446358278 	2.032135237e-07 	0.04584687791 	6.563667756e-07 	8.739689178e-05
0.4696601137 	0.0455809994 	-0.0243765449 	2.163794818e-07 	0.04568478503 	6.347680522e-07 	8.708789769e-05
0.4701390614 	0.04545819866 	-0.02428679883 	2.304860322e-07 	0.04551784382 	6.113400903e-07 	8.676966135e-05
0.470626982 	0.04533099347 	-0.02419442553 	2.455482514e-07 	0.04534620749 	5.860825534e-07 	8.64424748e-05
0.4711240431 	0.04519952425 	-0.02409949871 	2.615799215e-07 	0.04517001394 	5.589951292e-07 	8.610660093e-05
0.4716304156 	0.0450639189 	-0.02400208537 	2.785935527e-07 	0.04498938714 	5.300774424e-07 	8.576227605e-05
0.4721462736 	0.04492429391 	-0.02390224632 	2.966003922e-07 	0.0448044383 	4.993289831e-07 	8.540971215e-05
0.4726717942 	0.04478075524 	-0.02380003672 	3.156104229e-07 	0.04461526703 	4.6674907e-07 	8.504909913e-05
0.473207158 	0.04463339914 	-0.02369550633 	3.356323562e-07 	0.04442196219 	4.323368122e-07 	8.468060638e-05
0.4737525491 	0.04448231272 	-0.02358870024 	3.566737864e-07 	0.04422460388 	3.960918527e-07 	8.430438658e-05
0.4743081547 	0.04432757713 	-0.02347966019 	3.787390602e-07 	0.04402325767 	3.580141326e-07 	8.392056475e-05
0.4748741658 	0.04416925839 	-0.02336841125 	4.018461175e-07 	0.04381798158 	3.181016844e-07 	8.352925148e-05
0.4754507766 	0.04400735414 	-0.02325495034 	4.260251968e-07 	0.04360879053 	2.763166434e-07 	8.313047518e-05
0.4760390304 	0.04384175074 	-0.02313920538 	4.512721943e-07 	0.04339536213 	2.32520168e-07 	8.272362134e-05
0.4766406634 	0.04367233082 	-0.0230210599 	4.777521376e-07 	0.0431776564 	1.866565841e-07 	8.230861371e-05
0.4772535582 	0.04349933083 	-0.02290065017 	5.053920979e-07 	0.04295600583 	1.388149099e-07 	8.188608612e-05
0.4778779252 	0.0433230116 	-0.02277816895 	5.340700703e-07 	0.04273057539 	8.905417858e-08 	8.145635304e-05
0.4785139785 	0.04314338601 	-0.02265362156 	5.638148215e-07 	0.04250144655 	3.741962841e-08 	8.101956979e-05
0.4791619364 	0.04296049019 	-0.0225270182 	5.94626927e-07 	0.04226861447 	-1.610775898e-08 	8.057572713e-05
0.479822021 	0.04277435153 	-0.02239837162 	6.26505579e-07 	0.04203209476 	-7.152929856e-08 	8.012485483e-05
0.4804944587 	0.04258499364 	-0.02226768946 	6.59450779e-07 	0.04179189251 	-1.288499967e-07 	7.966696257e-05
0.4811794801 	0.04239243635 	-0.02213497771 	6.934614712e-07 	0.04154801013 	-1.880737694e-07 	7.920205498e-05
0.4818773202 	0.04219669615 	-0.02200023984 	7.285360241e-07 	0.0413004453 	-2.492054734e-07 	7.873012762e-05
0.4825882181 	0.04199778639 	-0.02186347711 	7.646719559e-07 	0.041049192 	-3.122505396e-07 	7.825116899e-05
0.4833124177 	0.04179571745 	-0.02172468873 	8.018659161e-07 	0.0407942411 	-3.772148271e-07 	7.776516171e-05
0.4840501672 	0.04159049699 	-0.02158387152 	8.401135227e-07 	0.04053558001 	-4.441037798e-07 	7.727208178e-05
0.4848017195 	0.04138213137 	-0.02144102269 	8.794064824e-07 	0.04027319389 	-5.129230646e-07 	7.677190092e-05
0.4855673323 	0.04117062482 	-0.0212961283 	9.197403762e-07 	0.0400070465 	-5.837026172e-07 	7.626455001e-05
0.4863472679 	0.04095590474 	-0.02114913075 	9.611537711e-07 	0.03973713231 	-6.565232548e-07 	7.575001856e-05
0.4871424131 	0.04073780722 	-0.02099999002 	1.003676121e-06 	0.03946302287 	-7.315321916e-07 	7.522748977e-05
0.487955776 	0.04051578097 	-0.02084790415 	1.047507628e-06 	0.03918439255 	-8.079393643e-07 	7.469634294e-05
0.488784347 	0.04026305974 	-0.02067681995 	1.095575422e-06 	0.03886567629 	-8.914302713e-07 	7.408878116e-05
0.4900561769 	0.03994942322 	-0.02046402901 	1.161954646e-06 	0.03847145211 	-1.002612531e-06 	7.333728031e-05
0.4913420125 	0.03960326463 	-0.02022740429 	1.193030112e-06 	0.03803960043 	-1.089702669e-06 	7.251405098e-05
0.492642009 	0.03925580234 	-0.01999079849 	1.197680903e-06 	0.03760688414 	-1.149778834e-06 	7.168917347e-05
0.4939563229 	0.03890647287 	-0.01975318595 	1.199395416e-06 	0.03717313534 	-1.201897789e-06 	7.086232769e-05
0.4952851132 	0.03855536589 	-0.01951470791 	1.198342401e-06 	0.03673825466 	-1.246484352e-06 	7.003332426e-05
0.4966285401 	0.03820242521 	-0.01927532075 	1.194666956e-06 	0.03630229658 	-1.283873365e-06 	6.920226697e-05
0.4979867659 	0.03784738546 	-0.01903486163 	1.188412949e-06 	0.03586462039 	-1.314597589e-06 	6.836793452e-05
0.4993654849 	0.03748979341 	-0.01879298949 	1.179611876e-06 	0.03542478807 	-1.338846027e-06 	6.752949187e-05
0.5007599792 	0.03712992056 	-0.01854982343 	1.168551655e-06 	0.03498322702 	-1.356982298e-06 	6.668775379e-05
0.5021698222 	0.03676826573 	-0.01830568457 	1.155087769e-06 	0.03454022441 	-1.369195838e-06 	6.584326768e-05
0.5035951842 	0.03640484266 	-0.01806055561 	1.139312888e-06 	0.03409592744 	-1.375661818e-06 	6.499631417e-05
0.5050362374 	0.03603968055 	-0.01781438844 	1.121294993e-06 	0.03365027781 	-1.376700263e-06 	6.414678211e-05
0.506493156 	0.03567280857 	-0.01756713511 	1.101099323e-06 	0.03320326131 	-1.372589741e-06 	6.329464442e-05
0.5079661163 	0.03530418311 	-0.01731870605 	1.078815494e-06 	0.03275486379 	-1.363625053e-06 	6.243987414e-05
0.5094563425 	0.03493354228 	-0.01706885899 	1.054448873e-06 	0.03230453169 	-1.35012708e-06 	6.158141597e-05
0.5109679966 	0.03456063442 	-0.0168173185 	1.028006213e-06 	0.03185211703 	-1.332157026e-06 	6.07189879e-05
0.5124962823 	0.03418588789 	-0.01656425246 	9.997670985e-07 	0.03139813956 	-1.310158246e-06 	5.985358067e-05
0.5140413844 	0.03380975858 	-0.01630987997 	9.696803177e-07 	0.03094290896 	-1.284271626e-06 	5.898578461e-05
0.5156034901 	0.03343229622 	-0.01605413424 	9.378559319e-07 	0.03048662321 	-1.254653923e-06 	5.811597716e-05
0.5171827887 	0.03305361685 	-0.01579694405 	9.043757194e-07 	0.03002929603 	-1.221532662e-06 	5.724418445e-05
0.5187794715 	0.03267377912 	-0.0155382305 	8.693407767e-07 	0.0295710893 	-1.185101848e-06 	5.637071506e-05
0.5203942656 	0.03229264195 	-0.01527776305 	8.327903219e-07 	0.02911156208 	-1.145589089e-06 	5.549472847e-05
0.5220322396 	0.03191000784 	-0.01501523725 	7.946636097e-07 	0.02865063596 	-1.102875704e-06 	5.461607518e-05
0.5236882315 	0.03152637163 	-0.01475079814 	7.553294936e-07 	0.0281889227 	-1.057464813e-06 	5.373592138e-05
0.525362442 	0.03114230423 	-0.01448467883 	7.147896683e-07 	0.02772682685 	-1.009457893e-06 	5.285503825e-05
0.5270550745 	0.03075796151 	-0.01421681065 	6.731601064e-07 	0.0272646532 	-9.589559898e-07 	5.197400681e-05
0.5287663347 	0.03037354967 	-0.01394712395 	6.305464373e-07 	0.02680260008 	-9.06108278e-07 	5.109320514e-05
0.5304964306 	0.02998916498 	-0.01367549117 	5.870361741e-07 	0.02634062909 	-8.51069887e-07 	5.021256005e-05
0.5322487505 	0.02960474526 	-0.0134016392 	5.425931593e-07 	0.0258786128 	-7.937494273e-07 	4.933182858e-05
0.5340229257 	0.0292205674 	-0.01312550191 	4.97418432e-07 	0.02541693453 	-7.343606969e-07 	4.845174149e-05
0.5358166178 	0.0288372889 	-0.01284729461 	4.517164889e-07 	0.02495615733 	-6.731862096e-07 	4.757337208e-05
0.537630045 	0.02845537317 	-0.01256710178 	4.055793339e-07 	0.02449674079 	-6.102963265e-07 	4.669759646e-05
0.5394634285 	0.02807513312 	-0.01228487191 	3.591229059e-07 	0.02403904235 	-5.457830635e-07 	4.582509603e-05
0.5413169919 	0.02769683004 	-0.01200051017 	3.124501088e-07 	0.0235831487 	-4.797531973e-07 	4.495603601e-05
0.543193629 	0.02732058216 	-0.01171379089 	2.655488357e-07 	0.02312905579 	-4.120991805e-07 	4.409040872e-05
0.5450937731 	0.02694676952 	-0.01142464677 	2.185914785e-07 	0.02267717505 	-3.429769828e-07 	4.322899845e-05
0.5470148217 	0.02657614735 	-0.01113330655 	1.718317077e-07 	0.02222812083 	-2.727024932e-07 	4.237297629e-05
0.5489570095 	0.02620932979 	-0.0108398977 	1.253775038e-07 	0.02178239863 	-2.013487658e-07 	4.15233059e-05
0.5509205742 	0.02584676345 	-0.01054440343 	7.934735806e-08 	0.02134047551 	-1.290000146e-07 	4.068087759e-05
0.552905756 	0.02548882348 	-0.01024673088 	3.385394924e-08 	0.0209023552 	-5.57460355e-08 	3.984569851e-05
0.5544172605 	0.02522352925 	-0.01002124141 	3.658163583e-06 	0.02057611006 	-5.533983292e-06 	3.922378461e-05
0.5549169899 	0.02513579776 	-0.009946679434 	1.163672885e-08 	0.02046821799 	-1.854528805e-08 	3.901811233e-05
0.5569509921 	0.02478841444 	-0.009644387027 	5.766910362e-08 	0.02003867952 	-9.325987664e-08 	3.819929263e-05
0.5590073931 	0.0244475029 	-0.009340117026 	1.026237164e-07 	0.01961428937 	-1.684812594e-07 	3.739028704e-05
0.5610864451 	0.02411365553 	-0.009033939786 	1.463927421e-07 	0.01919563298 	-2.440997702e-07 	3.659221161e-05
0.5631884037 	0.02378741178 	-0.008725845081 	1.888676108e-07 	0.0187829064 	-3.200093911e-07 	3.580544004e-05
0.5653160348 	0.02346921001 	-0.008415715461 	2.300495786e-07 	0.01837630128 	-3.962755595e-07 	3.503033768e-05
0.5674695637 	0.02315968074 	-0.00810359067 	2.697501623e-07 	0.01797630721 	-4.726196351e-07 	3.426783779e-05
0.5696468135 	0.02285968936 	-0.007789769485 	3.077241753e-07 	0.01758349236 	-5.486676511e-07 	3.351902353e-05
0.5718480523 	0.02256994576 	-0.007474445637 	3.438617843e-07 	0.01719845506 	-6.242402847e-07 	3.27850354e-05
0.5740735515 	0.02229101473 	-0.007157661487 	3.780574481e-07 	0.01682149802 	-6.991652082e-07 	3.206645052e-05
0.5763259274 	0.02202337716 	-0.006839354432 	4.103023456e-07 	0.01645288091 	-7.734125804e-07 	3.136376386e-05
0.5786054411 	0.02176763732 	-0.006519612374 	4.404164758e-07 	0.01609312692 	-8.466023221e-07 	3.067797277e-05
0.5809100742 	0.02152454713 	-0.006198764289 	4.681755722e-07 	0.01574280098 	-9.18291621e-07 	3.001015415e-05
0.5832401115 	0.02129469739 	-0.005877034109 	4.934821819e-07 	0.01540254718 	-9.882144066e-07 	2.936153584e-05
0.5855958414 	0.02107853218 	-0.005554484412 	5.162434708e-07 	0.01507266885 	-1.056127559e-06 	2.873269606e-05
0.5879809209 	0.02087641381 	-0.005231073628 	5.364818176e-07 	0.01475358607 	-1.121941401e-06 	2.812443559e-05
0.590393263 	0.0206888267 	-0.004907014181 	5.539564694e-07 	0.01444592425 	-1.185034701e-06 	2.753794666e-05
0.5928322043 	0.020516254 	-0.004582664542 	5.685271369e-07 	0.01415027723 	-1.245047036e-06 	2.697436126e-05
0.5952980476 	0.02035898851 	-0.004258187325 	5.801224224e-07 	0.01386724906 	-1.30168541e-06 	2.643483091e-05
0.5977922851 	0.02021722985 	-0.003933609445 	5.887207751e-07 	0.01359724501 	-1.35476176e-06 	2.592012815e-05
0.6003168648 	0.02009115897 	-0.003608997853 	5.942506663e-07 	0.01334084125 	-1.4039441e-06 	2.543135131e-05
0.6028692929 	0.01998099655 	-0.003284673154 	5.965312014e-07 	0.01309864798 	-1.448741327e-06 	2.496966364e-05
0.6054498872 	0.01988686589 	-0.002960912917 	5.954988456e-07 	0.01287130024 	-1.488933579e-06 	2.453627565e-05
0.6080591046 	0.01980878297 	-0.002637785009 	5.911188887e-07 	0.01265923516 	-1.524351478e-06 	2.413202067e-05
0.610700678 	0.01974673887 	-0.002315280585 	5.834136639e-07 	0.01246296367 	-1.554911949e-06 	2.375787266e-05
0.6133714062 	0.01970075194 	-0.001993675606 	5.722203901e-07 	0.01228302955 	-1.580181711e-06 	2.341486821e-05
0.6160716229 	0.01967080392 	-0.001673290287 	5.574865692e-07 	0.01211990282 	-1.600121057e-06 	2.310390333e-05
0.6188016662 	0.01965682675 	-0.001354190045 	5.392059659e-07 	0.01197396139 	-1.614716608e-06 	2.28256984e-05
0.6215651523 	0.01965877452 	-0.001036352767 	5.174280028e-07 	0.0118455498 	-1.624060839e-06 	2.258091023e-05
0.6243592387 	0.01967661645 	-0.0007200147075 	4.920571874e-07 	0.01173498358 	-1.627967709e-06 	2.237014027e-05
0.6271841974 	0.01971032898 	-0.0004054736497 	4.630721106e-07 	0.01164242905 	-1.626626788e-06 	2.219370561e-05
0.630040679 	0.01975992789 	-9.275539489e-05 	4.305273409e-07 	0.01156804107 	-1.620254634e-06 	2.205190144e-05
0.6329314886 	0.0198254887 	0.0002181534695 	3.944926932e-07 	0.01151185448 	-1.609086891e-06 	2.19447942e-05
0.6358542509 	0.01990709998 	0.0005270410559 	3.5496358e-07 	0.01147380085 	-1.593265477e-06 	2.18722534e-05
0.638809334 	0.02000489358 	0.0008336827727 	3.119853545e-07 	0.01145363606 	-1.573217616e-06 	2.183381371e-05
0.6417981584 	0.02011911429 	0.001138135319 	2.657073211e-07 	0.01145116223 	-1.549395262e-06 	2.18290979e-05
0.6448217377 	0.0202500494 	0.001440378813 	2.16248122e-07 	0.01146597089 	-1.522161861e-06 	2.185732733e-05
0.6478787682 	0.02039799071 	0.001740224857 	1.637152674e-07 	0.01149748978 	-1.492019538e-06 	2.191741108e-05
0.6509696362 	0.02056331288 	0.002037601984 	1.082826882e-07 	0.01154507029 	-1.459600409e-06 	2.200811275e-05
0.6540967377 	0.02074650272 	0.002332636468 	5.021330986e-08 	0.01160805414 	-1.425543511e-06 	2.212817749e-05
0.6572588978 	0.02094799745 	0.002625275223 	-1.025461361e-08 	0.01168555136 	-1.390399696e-06 	2.227590873e-05
0.6604560787 	0.0211682131 	0.002915380996 	-7.28875853e-08 	0.01177648064 	-1.354968908e-06 	2.244924519e-05
0.6636895472 	0.02140768536 	0.003203125662 	-1.373124631e-07 	0.0118799171 	-1.320037765e-06 	2.264642384e-05
0.6669601563 	0.02166688361 	0.003488609435 	-2.031404974e-07 	0.01199472337 	-1.286299925e-06 	2.28652765e-05
0.6702670102 	0.02194612342 	0.003771772202 	-2.700057038e-07 	0.01211959087 	-1.254583977e-06 	2.310330867e-05
0.6736107231 	0.02224573177 	0.004052759933 	-3.37451295e-07 	0.01225333292 	-1.225735693e-06 	2.335825817e-05
0.6769932431 	0.02256597108 	0.00433181963 	-4.049427399e-07 	0.01239476389 	-1.200480582e-06 	2.362786491e-05
0.6804132742 	0.02290679685 	0.004609001339 	-4.71958291e-07 	0.01254254505 	-1.179507366e-06 	2.390957689e-05
0.6838712526 	0.0232680213 	0.004884443474 	-5.379625546e-07 	0.0126954474 	-1.163508371e-06 	2.420105126e-05
0.6873691649 	0.02364938111 	0.005158521044 	-6.022919078e-07 	0.0128524765 	-1.152961936e-06 	2.450039236e-05
0.6909060268 	0.02405018539 	0.005431391625 	-6.642892894e-07 	0.01301253151 	-1.148135624e-06 	2.48055017e-05
0.6944821627 	0.02446948082 	0.005703241752 	-7.233424105e-07 	0.01317468467 	-1.149212378e-06 	2.51146107e-05
0.6980992752 	0.0249062333 	0.005974547254 	-7.786894504e-07 	0.01333839453 	-1.156045566e-06 	2.542668719e-05
0.7017567755 	0.0253589481 	0.006245553068 	-8.295847688e-07 	0.01350308276 	-1.168149395e-06 	2.574062874e-05
0.7054549232 	0.02582587638 	0.006516533527 	-8.753621711e-07 	0.01366843065 	-1.184880853e-06 	2.605582776e-05
0.7091953095 	0.02630526408 	0.006788044344 	-9.152102834e-07 	0.01383454975 	-1.205230945e-06 	2.637249694e-05
0.712977415 	0.02679497582 	0.007060377574 	-9.483721261e-07 	0.01400153448 	-1.227868192e-06 	2.669081625e-05
0.7168016154 	0.02729280946 	0.007333909041 	-9.741996895e-07 	0.01416979461 	-1.251401216e-06 	2.701156682e-05
0.7206694186 	0.02779672982 	0.00760923483 	-9.919334475e-07 	0.01434008155 	-1.274202068e-06 	2.733618105e-05
0.7245802603 	0.02830316408 	0.007885909209 	-1.000956364e-06 	0.01451259342 	-1.29449732e-06 	2.766503662e-05
0.728491219 	0.02880583908 	0.008162029704 	-1.001132532e-06 	0.01468678265 	-1.310922548e-06 	2.799708972e-05
0.7323596049 	0.02929881539 	0.008435720497 	-9.926760789e-07 	0.01486215139 	-1.322457316e-06 	2.833139128e-05
0.7361852235 	0.02977925037 	0.008706415021 	-9.760884227e-07 	0.01503899578 	-1.32859705e-06 	2.866850584e-05
0.7399688599 	0.03024623276 	0.008974481316 	-9.520778256e-07 	0.01521818854 	-1.329393243e-06 	2.901009703e-05
0.7437111026 	0.03069907078 	0.00924011626 	-9.215721486e-07 	0.01540042073 	-1.324895071e-06 	2.935748224e-05
0.747412009 	0.03113706835 	0.009503270718 	-8.85824717e-07 	0.01558622653 	-1.315302557e-06 	2.971167973e-05
0.7510723258 	0.03155995399 	0.009764134103 	-8.460153036e-07 	0.01577625576 	-1.300842785e-06 	3.007392827e-05
0.7546925061 	0.03196755485 	0.01002269245 	-8.034634292e-07 	0.01597093556 	-1.281769744e-06 	3.044504206e-05
0.758272727 	0.03235969374 	0.01027874403 	-7.59745498e-07 	0.01617057072 	-1.258622521e-06 	3.082560216e-05
0.7618136489 	0.03273648801 	0.01053237493 	-7.157818243e-07 	0.01637560998 	-1.23148386e-06 	3.121646399e-05
0.7653157208 	0.03309800844 	0.0107835911 	-6.717217945e-07 	0.01658638365 	-1.199701985e-06 	3.161825717e-05
0.7687791594 	0.03344432247 	0.01103228064 	-6.277933827e-07 	0.01680314053 	-1.162873483e-06 	3.203145603e-05
0.7722045214 	0.03377584533 	0.01127854825 	-5.843562321e-07 	0.01702619041 	-1.120926834e-06 	3.245665111e-05
0.775592316 	0.03409303247 	0.0115224051 	-5.41588945e-07 	0.01725569023 	-1.073730453e-06 	3.289414156e-05
0.7789427553 	0.03439634058 	0.01176376374 	-4.995286963e-07 	0.01749170549 	-1.021452091e-06 	3.334405224e-05
0.7822562941 	0.03468654115 	0.01200273905 	-4.580610227e-07 	0.01773433218 	-9.645413007e-07 	3.380656614e-05
0.7855335223 	0.03496448067 	0.01223940975 	-4.170416999e-07 	0.01798354097 	-9.034032386e-07 	3.428162736e-05
0.788774628 	0.03523085179 	0.01247371271 	-3.765050778e-07 	0.01823921813 	-8.385000359e-07 	3.476901908e-05
0.7919800171 	0.03548637186 	0.01270563599 	-3.36625532e-07 	0.01850126973 	-7.704077765e-07 	3.526856227e-05
0.7951502328 	0.0357318576 	0.0129352436 	-2.975907957e-07 	0.01876957312 	-6.996682782e-07 	3.57800231e-05
0.798285556 	0.035968014 	0.0131624771 	-2.59574282e-07 	0.01904391044 	-6.267414643e-07 	3.630298628e-05
0.8013863374 	0.03619546242 	0.01338723609 	-2.227898929e-07 	0.019324059 	-5.522157164e-07 	3.68370273e-05
0.8044530048 	0.03641495346 	0.01360958328 	-1.873920785e-07 	0.01960984146 	-4.766444734e-07 	3.73818081e-05
0.8074859852 	0.03662717307 	0.01382950268 	-1.534596406e-07 	0.01990099133 	-4.004114006e-07 	3.793682067e-05
0.8104855581 	0.03683269658 	0.01404691396 	-1.210860381e-07 	0.02019723234 	-3.239592187e-07 	3.850153838e-05
0.8134520959 	0.0370321218 	0.01426180641 	-9.034718128e-08 	0.02049832194 	-2.477428554e-07 	3.907549882e-05
0.816386033 	0.03722608814 	0.01447422613 	-6.127572065e-08 	0.0208040021 	-1.721394555e-07 	3.965821018e-05
0.8192876894 	0.0374151479 	0.01468414859 	-3.385886456e-08 	0.02111397147 	-9.740405967e-08 	4.024909795e-05
0.8221573933 	0.03759977399 	0.01489151621 	-8.109067071e-09 	0.02142793958 	-2.387672397e-08 	4.084760842e-05
0.8230922397 	0.0376593108 	0.01495898778 	2.214696361e-06 	0.02153258831 	3.529169037e-06 	4.104709799e-05
0.8249954061 	0.03778050574 	0.01509633219 	-1.727487562e-08 	0.02174564094 	-4.845833385e-08 	4.145323552e-05
0.8278021922 	0.03795784126 	0.01529864926 	-4.157349385e-08 	0.02206679296 	-1.192382716e-07 	4.206544054e-05
0.8305780822 	0.03813220095 	0.0154984634 	-6.418610871e-08 	0.02239109873 	-1.88139029e-07 	4.268365747e-05
0.8333234135 	0.03830396828 	0.01569575115 	-8.514807921e-08 	0.02271827834 	-2.549363702e-07 	4.330735274e-05
0.836038525 	0.03847355718 	0.01589055551 	-1.045006565e-07 	0.02304807367 	-3.194362029e-07 	4.39360343e-05
0.8387237968 	0.03864136136 	0.01608291371 	-1.223102018e-07 	0.02338020578 	-3.815366136e-07 	4.456917042e-05
0.8413795096 	0.03880770264 	0.01627281646 	-1.38650815e-07 	0.02371439005 	-4.41164816e-07 	4.520621852e-05
0.8440059901 	0.03897287246 	0.01646026375 	-1.535794387e-07 	0.02405036816 	-4.982068841e-07 	4.584668616e-05
0.8466035617 	0.03913716955 	0.01664529242 	-1.671516105e-07 	0.02438789504 	-5.525733097e-07 	4.649010621e-05
0.8491725713 	0.03930088263 	0.01682794905 	-1.794334116e-07 	0.02472671976 	-6.042381575e-07 	4.71360003e-05
0.8517133075 	0.0394642412 	0.0170082396 	-1.90502568e-07 	0.02506658551 	-6.532180321e-07 	4.778387889e-05
0.8542260787 	0.03962744257 	0.01718617191 	-2.004189671e-07 	0.02540725925 	-6.994846196e-07 	4.843329771e-05
0.8567111938 	0.03979068037 	0.01736177764 	-2.092376501e-07 	0.02574852286 	-7.430254666e-07 	4.9083841e-05
0.85916897 	0.03995414636 	0.01753510724 	-2.17011501e-07 	0.02609015933 	-7.838589437e-07 	4.973509507e-05
0.8615997037 	0.040117992 	0.01770618533 	-2.238087855e-07 	0.02643194702 	-8.220642218e-07 	5.038663739e-05
0.8640036837 	0.0402823267 	0.01787501831 	-2.296859095e-07 	0.02677367862 	-8.576777938e-07 	5.10380728e-05
0.8663812051 	0.04044725937 	0.01804164129 	-2.346886226e-07 	0.02711516913 	-8.907370972e-07 	5.168904863e-05
0.8687325604 	0.04061288625 	0.01820609106 	-2.388595436e-07 	0.02745623216 	-9.212914498e-07 	5.233920955e-05
0.8710580494 	0.04077929247 	0.0183684117 	-2.422445636e-07 	0.02779668723 	-9.494316143e-07 	5.298821154e-05
0.8733579429 	0.04094652149 	0.0185286167 	-2.448940661e-07 	0.02813635386 	-9.752490005e-07 	5.363571055e-05
0.8756325228 	0.04111460694 	0.01868673453 	-2.468448131e-07 	0.02847507308 	-9.988088802e-07 	5.428140353e-05
0.8778820682 	0.0412835692 	0.01884279409 	-2.48130997e-07 	0.02881269093 	-1.020181186e-06 	5.492499698e-05
0.8801068572 	0.04145342597 	0.01899683787 	-2.487798352e-07 	0.02914906069 	-1.039441567e-06 	5.556621123e-05
0.8823071649 	0.04162417839 	0.01914890091 	-2.488253173e-07 	0.02948403514 	-1.056699559e-06 	5.620476564e-05
0.8844832541 	0.04179579663 	0.019298997 	-2.483021627e-07 	0.02981747341 	-1.072043874e-06 	5.684039165e-05
0.8866353917 	0.04196825256 	0.01944716112 	-2.472323662e-07 	0.03014925222 	-1.085548907e-06 	5.747285428e-05
0.8887638413 	0.04214150198 	0.01959341757 	-2.4564017e-07 	0.03047924763 	-1.097290944e-06 	5.810191725e-05
0.8908688648 	0.042315501 	0.01973780453 	-2.4354216e-07 	0.03080734559 	-1.107345807e-06 	5.872736315e-05
0.8929507216 	0.04249019501 	0.01988035399 	-2.409600803e-07 	0.03113343071 	-1.115812018e-06 	5.934897202e-05
0.8950096626 	0.04266550721 	0.02002108096 	-2.379187249e-07 	0.0314573933 	-1.122771296e-06 	5.996653476e-05
0.8970459398 	0.04284136281 	0.02016001543 	-2.344327223e-07 	0.03177913732 	-1.128291007e-06 	6.057986828e-05
0.8990598026 	0.04301767889 	0.02029718193 	-2.305181065e-07 	0.03209856688 	-1.132438509e-06 	6.118878981e-05
0.9010514977 	0.0431943676 	0.02043260631 	-2.261890492e-07 	0.03241559301 	-1.135277632e-06 	6.179312972e-05
0.9030212711 	0.04337134213 	0.02056632047 	-2.214573369e-07 	0.03273013005 	-1.136880434e-06 	6.239272474e-05
0.9049693608 	0.04354850144 	0.02069834116 	-2.163422961e-07 	0.03304209263 	-1.137320534e-06 	6.298741213e-05
0.9068960052 	0.0437257399 	0.02082868644 	-2.108594446e-07 	0.03335140613 	-1.136651882e-06 	6.357704963e-05
0.9088014402 	0.04390295565 	0.02095738195 	-2.050196961e-07 	0.0336580005 	-1.13492614e-06 	6.416150371e-05
0.910685899 	0.04408003812 	0.02108444299 	-1.988394191e-07 	0.03396180698 	-1.132193155e-06 	6.474064331e-05
0.9125496127 	0.0442568814 	0.02120989421 	-1.923293109e-07 	0.03426276459 	-1.12849889e-06 	6.531435216e-05
0.9143928095 	0.0444333771 	0.02133375522 	-1.855044735e-07 	0.03456081109 	-1.123899862e-06 	6.588251163e-05
0.9162157138 	0.04460940816 	0.02145603557 	-1.783849745e-07 	0.03485588922 	-1.118441797e-06 	6.644501256e-05
0.9180185488 	0.04478486171 	0.02157675221 	-1.709857427e-07 	0.03514795006 	-1.112161041e-06 	6.700176168e-05
0.9198015351 	0.04495962534 	0.0216959201 	-1.633232561e-07 	0.03543694498 	-1.10509414e-06 	6.755266631e-05
0.9215648909 	0.04513358324 	0.02181354897 	-1.554177491e-07 	0.03572282949 	-1.097274786e-06 	6.809764166e-05
0.9233088322 	0.045306624 	0.02192965373 	-1.472864286e-07 	0.03600556431 	-1.088734099e-06 	6.863661281e-05
0.9250335726 	0.04547863641 	0.02204424582 	-1.389501629e-07 	0.03628510963 	-1.079510791e-06 	6.916950388e-05
0.9267393224 	0.04564950422 	0.02215732848 	-1.304355178e-07 	0.03656142936 	-1.069637303e-06 	6.969624608e-05
0.9284262905 	0.04581911474 	0.02226890913 	-1.217664608e-07 	0.0368344937 	-1.059139513e-06 	7.021678261e-05
0.9300946832 	0.04598735653 	0.02237899337 	-1.129690257e-07 	0.03710427329 	-1.048044322e-06 	7.073105749e-05