0 	0.01658099305 	-6.77372308e-16 	-3.900276507e-23 	2.767224147e-29 	1.593354084e-36 	9.174454619e-44
0.0003149815133 	0.01657344262 	1.589331131e-05 	-2.504460326e-09 	0.02072240982 	3.538896846e-08 	3.950267261e-05
0.0006299624726 	0.01657170182 	-0.0001087931789 	1.019498122e-09 	0.0208701474 	2.381357047e-08 	3.97843015e-05
0.0009449428773 	0.01657613652 	-0.0001710901029 	1.170926433e-09 	0.02089000117 	1.845206019e-08 	3.98221483e-05
0.001259922727 	0.01657543105 	-0.0002347552952 	1.170829395e-09 	0.02092023022 	1.322207888e-08 	3.987977327e-05
0.00157490202 	0.01657672017 	-0.0002969752791 	9.758475033e-10 	0.02092690997 	8.910894181e-09 	3.989250673e-05
0.001889880757 	0.01657816911 	-0.0003587871764 	6.077964422e-10 	0.02093403219 	4.664106429e-09 	3.990608366e-05
0.002204858937 	0.01657995915 	-0.0004203583397 	6.88407941e-11 	0.02094085616 	4.564130047e-10 	3.991909204e-05
0.002239077857 	0.01658018155 	-0.0004270337265 	-6.545547712e-09 	0.02094169385 	-1.415265621e-05 	3.992068892e-05
0.002519836559 	0.01658196069 	-0.0004818055933 	6.429182255e-10 	0.02094854242 	4.815273877e-09 	3.99337442e-05
0.002834813624 	0.01658425095 	-0.0005431870575 	1.526145025e-09 	0.02095686658 	1.020742429e-08 	3.994961236e-05
0.00314979013 	0.01658683366 	-0.0006045414302 	2.58078144e-09 	0.02096596219 	1.559398144e-08 	3.996695112e-05
0.003464766077 	0.0165897129 	-0.0006658941602 	3.806890323e-09 	0.02097585929 	2.09789564e-08 	3.998581774e-05
0.003779741465 	0.01659289104 	-0.0007272640128 	5.204393533e-09 	0.02098659226 	2.636443941e-08 	4.000627777e-05
0.004094716294 	0.01659637183 	-0.0007886653491 	6.773055767e-09 	0.0209981733 	3.175192249e-08 	4.002835446e-05
0.004409690564 	0.01660015948 	-0.0008501097949 	8.512495208e-09 	0.02101060893 	3.714218656e-08 	4.005206021e-05
0.004724664274 	0.01660425876 	-0.0009116070828 	1.042218488e-08 	0.02102390053 	4.253549912e-08 	4.00773977e-05
0.005039637424 	0.01660867497 	-0.000973165617 	1.250145525e-08 	0.02103804668 	4.793161214e-08 	4.010436419e-05
0.005354610015 	0.01661341397 	-0.00103479282 	1.474949338e-08 	0.02105304374 	5.332979269e-08 	4.013295275e-05
0.005669582045 	0.01661848218 	-0.001096495366 	1.716534084e-08 	0.02106888651 	5.872881452e-08 	4.016315348e-05
0.005984553517 	0.01662388657 	-0.001158279334 	1.974789069e-08 	0.02108556859 	6.412694373e-08 	4.019495417e-05
0.006299524428 	0.01662963469 	-0.001220150318 	2.249588252e-08 	0.02110308261 	6.952191662e-08 	4.022834075e-05
0.00661449478 	0.0166357347 	-0.001282113492 	2.540789599e-08 	0.02112142037 	7.491092366e-08 	4.026329763e-05
0.006929464573 	0.01664219522 	-0.001344173667 	2.848234375e-08 	0.02114057308 	8.0290599e-08 	4.029980801e-05
0.007244433807 	0.01664902533 	-0.001406335315 	3.171746322e-08 	0.02116053149 	8.565699391e-08 	4.033785429e-05
0.007559402482 	0.01665623424 	-0.001468602592 	3.511130265e-08 	0.02118128615 	9.100556502e-08 	4.037741843e-05
0.007874370599 	0.01666383089 	-0.001530979371 	3.8661717e-08 	0.0212028277 	9.633102637e-08 	4.041848261e-05
0.008189338158 	0.01667182334 	-0.001593468985 	4.236642698e-08 	0.02122514593 	1.01627391e-07 	4.046102736e-05
0.008504305159 	0.01668021789 	-0.001656076685 	4.622255762e-08 	0.02124822861 	1.068873052e-07 	4.050502937e-05
0.008819271603 	0.01668901545 	-0.001718784791 	5.023078762e-08 	0.0212720642 	1.121074578e-07 	4.055046663e-05
0.009134237491 	0.01669822558 	-0.001781799354 	5.435886627e-08 	0.0212966838 	1.172829957e-07 	4.059739843e-05
0.009449202822 	0.0167095146 	-0.001856672603 	5.836809934e-08 	0.02132583133 	1.224302426e-07 	4.065296172e-05
0.009938585273 	0.01672554526 	-0.001954816407 	6.35096877e-08 	0.02136419727 	1.303690069e-07 	4.072609788e-05
0.01043716429 	0.01674597192 	-0.002065577478 	6.866414716e-08 	0.02140922407 	1.383364825e-07 	4.081193146e-05
0.01094511266 	0.01676946259 	-0.002178256973 	7.402223352e-08 	0.02145743997 	1.463146866e-07 	4.090384436e-05
0.01146260645 	0.01679610155 	-0.002292892947 	7.958358528e-08 	0.02150892357 	1.542620616e-07 	4.100198643e-05
0.011989825 	0.0168259916 	-0.002409539188 	8.534205451e-08 	0.02156373482 	1.621427682e-07 	4.11064719e-05
0.01252695103 	0.01685924147 	-0.002528244922 	9.129078203e-08 	0.0216219614 	1.699124603e-07 	4.121746795e-05
0.01307417071 	0.01689596635 	-0.002649056155 	9.742151015e-08 	0.0216836836 	1.775226136e-07 	4.133512761e-05
0.01363167369 	0.01693628566 	-0.002772016483 	1.037247368e-07 	0.02174898228 	1.849197713e-07 	4.145960505e-05
0.01419965319 	0.01698032201 	-0.002897167315 	1.101896913e-07 	0.02181793796 	1.920458588e-07 	4.159105374e-05
0.01477830605 	0.01702820042 	-0.003024548197 	1.168043735e-07 	0.02189063165 	1.988379524e-07 	4.172962812e-05
0.01536783281 	0.01708004794 	-0.003154197031 	1.23555563e-07 	0.02196714454 	2.052282766e-07 	4.187548294e-05
0.01596843781 	0.01713599325 	-0.003286150264 	1.304288476e-07 	0.02204755782 	2.111441817e-07 	4.202877301e-05
0.01658032918 	0.01719616645 	-0.003420443055 	1.374086759e-07 	0.02213195257 	2.165081567e-07 	4.218965285e-05
0.01720371899 	0.0172606988 	-0.003557109341 	1.44478421e-07 	0.02222040923 	2.212378507e-07 	4.235827583e-05
0.0178388233 	0.0173297225 	-0.003696182479 	1.516203766e-07 	0.02231300813 	2.252462462e-07 	4.253479508e-05
0.01848586221 	0.01740336965 	-0.003837690358 	1.588161274e-07 	0.02240982861 	2.284413708e-07 	4.271936182e-05
0.01914505996 	0.01748178063 	-0.003981704649 	1.660471462e-07 	0.02251095167 	2.307270551e-07 	4.291213048e-05
0.01981664503 	0.01756517977 	-0.004128421286 	1.733215378e-07 	0.02261656955 	2.319864295e-07 	4.311346752e-05
0.02050358683 	0.01765384228 	-0.004277974804 	1.805843624e-07 	0.02272694484 	2.322611395e-07 	4.332387349e-05
0.02120541641 	0.01774792802 	-0.004430449842 	1.878162974e-07 	0.0228421465 	2.314079145e-07 	4.354347988e-05
0.02192043459 	0.01784745003 	-0.00458570966 	1.950421609e-07 	0.02296208174 	2.292044741e-07 	4.377210978e-05
0.02264888916 	0.01795245793 	-0.004743573094 	2.022184824e-07 	0.02308673823 	2.255368682e-07 	4.40097397e-05
0.02339103257 	0.01806308769 	-0.004904092226 	2.093266536e-07 	0.02321618504 	2.202793008e-07 	4.42565013e-05
0.02414712203 	0.01817946851 	-0.005067291184 	2.163499754e-07 	0.02335048795 	2.133004694e-07 	4.451251997e-05
0.02491741955 	0.01830172815 	-0.005233196442 	2.232725177e-07 	0.02348971276 	2.044638566e-07 	4.477792114e-05
0.0257021921 	0.01842999217 	-0.005401833576 	2.300797755e-07 	0.0236339221 	1.936286133e-07 	4.505282424e-05
0.02650171163 	0.01856438352 	-0.005573227716 	2.346507721e-07 	0.02378317643 	1.79041108e-07 	4.533734447e-05
0.02731625522 	0.01870502221 	-0.005747403493 	2.259781458e-07 	0.02393753359 	1.536042156e-07 	4.563159211e-05
0.02814610515 	0.01885202489 	-0.005924385068 	2.170764569e-07 	0.02409704881 	1.283723424e-07 	4.593567245e-05
0.02899154899 	0.01900550454 	-0.006104196148 	2.079756223e-07 	0.02426177451 	1.034793648e-07 	4.624968542e-05
0.02985287974 	0.01916557005 	-0.006286859995 	1.98706211e-07 	0.02443176016 	7.906685383e-08 	4.657372532e-05
0.03073039586 	0.01933232592 	-0.006472399434 	1.892990729e-07 	0.02460705209 	5.528393535e-08 	4.690788047e-05
0.03162440146 	0.01950587188 	-0.006660836857 	1.797849329e-07 	0.02478769329 	3.228712186e-08 	4.725223279e-05
0.03253520634 	0.01968630251 	-0.006852194229 	1.70193958e-07 	0.02497372317 	1.024010884e-08 	4.760685745e-05
0.03346312612 	0.01987370694 	-0.007046493081 	1.605552947e-07 	0.02516517736 	-1.068647448e-08 	4.797182235e-05
0.03440848235 	0.0200681685 	-0.007243754506 	1.508965735e-07 	0.02536208741 	-3.031536792e-08 	4.834718764e-05
0.03537160262 	0.02026976438 	-0.007443999122 	1.41243396e-07 	0.02556448044 	-4.846303167e-08 	4.873300499e-05
0.03635282068 	0.02047856533 	-0.00764724723 	1.316187811e-07 	0.02577237905 	-6.494005156e-08 	4.912931753e-05
0.03735247653 	0.0206946349 	-0.007853517343 	1.220427606e-07 	0.02598580062 	-7.955149209e-08 	4.953615836e-05
0.03837091657 	0.02091803391 	-0.008062839292 	1.125306083e-07 	0.02620475727 	-9.209788721e-08 	4.99535506e-05
0.03940849371 	0.02114890678 	-0.008275308877 	1.03092261e-07 	0.02642935174 	-1.023852192e-07 	5.038169008e-05
0.04046733527 	0.02138766451 	-0.0084912319 	9.372753304e-08 	0.02665994658 	-1.10191841e-07 	5.082126792e-05
0.04155102344 	0.02163459511 	-0.008710906288 	8.439853846e-08 	0.02689673141 	-1.152285648e-07 	5.127264563e-05
0.04265507529 	0.02188936219 	-0.00893399722 	7.515552032e-08 	0.027139342 	-1.17372262e-07 	5.173512884e-05
0.0437798734 	0.02215167414 	-0.00916017819 	6.598719439e-08 	0.02738748134 	-1.163837925e-07 	5.22081514e-05
0.04492580757 	0.02242156018 	-0.009389519362 	5.687454714e-08 	0.02764111673 	-1.120485476e-07 	5.269165094e-05
0.0460932749 	0.02269901628 	-0.009622027645 	4.779153133e-08 	0.02790020556 	-1.041551873e-07 	5.318554627e-05
0.04728267995 	0.02298403193 	-0.00985771565 	3.870360628e-08 	0.02816469563 	-9.249453598e-08 	5.368973784e-05
0.04849443489 	0.02327658705 	-0.01009659362 	2.956762795e-08 	0.02843452199 	-7.686164482e-08 	5.420410188e-05
0.04972895962 	0.02357665192 	-0.0103386703 	2.033141521e-08 	0.02870960809 	-5.705706264e-08 	5.472849244e-05
0.05098668193 	0.02388418701 	-0.01058395256 	1.093346349e-08 	0.0289898644 	-3.288835878e-08 	5.526273887e-05
0.05226803766 	0.0241991429 	-0.01083244514 	1.302722568e-09 	0.02927518753 	-4.171682275e-09 	5.580664405e-05
0.05244057823 	0.02424173952 	-0.01086571303 	1.100572915e-07 	0.02931354734 	-2.548732112e-06 	5.587976852e-05
0.05357347081 	0.02452139609 	-0.0110841077 	6.779536295e-09 	0.02956546632 	-2.958448151e-08 	5.63599961e-05
0.05490343374 	0.02485093009 	-0.01133897671 	1.501177838e-08 	0.02986056399 	-6.845065422e-08 	5.692253428e-05
0.0562583873 	0.02518767607 	-0.01159705493 	2.379324461e-08 	0.03016032777 	-1.125328594e-07 	5.749396735e-05
0.057638801 	0.02553154967 	-0.01185834036 	3.324483424e-08 	0.03046458652 	-1.619568505e-07 	5.80739691e-05
0.05904515316 	0.02588253838 	-0.01212288489 	4.349377794e-08 	0.03077322389 	-2.168328799e-07 	5.866231771e-05
0.06047923244 	0.02624103635 	-0.01239099981 	5.470018096e-08 	0.03108646856 	-2.773149742e-07 	5.925944912e-05
0.06194729124 	0.02660731531 	-0.01266293704 	6.702203474e-08 	0.03140439155 	-3.4366918e-07 	5.98654987e-05
0.06344293631 	0.02702911302 	-0.0129736982 	8.108101497e-08 	0.03176743605 	-4.1816703e-07 	6.055756241e-05
0.06573896912 	0.02755505186 	-0.01335821446 	1.039560753e-07 	0.0322152003 	-5.343310359e-07 	6.141112552e-05
0.06806060914 	0.02813370777 	-0.01377751291 	1.303824268e-07 	0.03270166639 	-6.630935087e-07 	6.233846509e-05
0.07040814194 	0.02871670138 	-0.01419593047 	1.602760849e-07 	0.03318505789 	-8.012334257e-07 	6.325994364e-05
0.0727818563 	0.02930328608 	-0.01461343784 	1.938992982e-07 	0.03366444853 	-9.478809942e-07 	6.417379545e-05
0.07518204421 	0.0298925363 	-0.01502966822 	2.31406473e-07 	0.03413885637 	-1.102066401e-06 	6.507814865e-05
0.07760900091 	0.03048353713 	-0.01544428588 	2.728595244e-07 	0.03460729728 	-1.26272233e-06 	6.597112721e-05
0.08006302493 	0.03107596698 	-0.01585726871 	3.183037567e-07 	0.03506926307 	-1.428764421e-06 	6.685176241e-05
0.08255609596 	0.03166969515 	-0.01626883369 	3.249989216e-07 	0.03552424251 	-1.413511191e-06 	6.771907968e-05
0.08507824308 	0.03226301178 	-0.01667803308 	3.134511089e-07 	0.03597055742 	-1.320420102e-06 	6.856987994e-05
0.08762852215 	0.03285398171 	-0.01708365122 	2.980591329e-07 	0.03640644736 	-1.216329862e-06 	6.940080731e-05
0.09020724696 	0.03344143648 	-0.01748511718 	2.786619887e-07 	0.0368306378 	-1.102260961e-06 	7.02094322e-05
0.09281473479 	0.03402417207 	-0.01788178291 	2.551954704e-07 	0.03724188212 	-9.793616596e-07 	7.099337816e-05
0.09545130646 	0.03460092817 	-0.01827295622 	2.277078537e-07 	0.03763888917 	-8.488909828e-07 	7.175018394e-05
0.09811728639 	0.03517047093 	-0.0186579367 	1.963656428e-07 	0.03802040067 	-7.122302441e-07 	7.247745089e-05
0.1008152168 	0.03573202155 	-0.01903631615 	1.614536039e-07 	0.0383854437 	-5.707418955e-07 	7.317332438e-05
0.1035538849 	0.03628453465 	-0.01940757014 	1.232737923e-07 	0.03873279129 	-4.255996956e-07 	7.383546541e-05
0.1063231032 	0.03682562719 	-0.01977019418 	8.263530743e-08 	0.03906046597 	-2.793272706e-07 	7.446010444e-05
0.1091232125 	0.03735302077 	-0.02012272457 	4.032161307e-08 	0.03936662632 	-1.338368292e-07 	7.504373116e-05
0.1117768629 	0.03783282128 	-0.02044268678 	4.853787603e-07 	0.03963197049 	-1.980851201e-06 	7.554955089e-05
0.1119545574 	0.03786494602 	-0.02046411043 	2.622903235e-09 	0.03964973938 	-8.995640111e-09 	7.558342334e-05
0.1148174862 	0.03835940976 	-0.02079314977 	4.401333664e-08 	0.03990831226 	-1.493399289e-07 	7.607633511e-05
0.1177123515 	0.03883452484 	-0.02110863819 	8.359827688e-08 	0.04014073583 	-2.822468811e-07 	7.651939904e-05
0.1206406417 	0.0392886021 	-0.02140952383 	1.198030128e-07 	0.04034562026 	-4.053362741e-07 	7.690996571e-05
0.1236130938 	0.03971977335 	-0.02169470997 	1.509188396e-07 	0.04052143284 	-5.164133675e-07 	7.724511335e-05
0.1266187072 	0.04012504164 	-0.02196229747 	1.74770742e-07 	0.04066628196 	-6.123137794e-07 	7.752123603e-05
0.1296578519 	0.04050146747 	-0.02221039343 	1.891939635e-07 	0.04077844692 	-6.904926001e-07 	7.773505361e-05
0.132730902 	0.04084653875 	-0.02243746243 	1.918784127e-07 	0.0408564315 	-7.484384514e-07 	7.78837139e-05
0.1358382358 	0.041157628 	-0.02264187879 	1.803968951e-07 	0.04089883173 	-7.837521258e-07 	7.796454052e-05
0.1389802357 	0.04143214888 	-0.02282202571 	1.522260223e-07 	0.0409043304 	-7.94162453e-07 	7.797502251e-05
0.142164066 	0.04166759267 	-0.02297640079 	1.047778909e-07 	0.04087163014 	-7.77636755e-07 	7.791268673e-05
0.1453889171 	0.04186107245 	-0.02310326216 	3.552076712e-08 	0.04079956679 	-7.323446989e-07 	7.777531396e-05
0.1486497487 	0.0420095656 	-0.02320072834 	-5.096656271e-08 	0.04068730396 	-5.797378672e-07 	7.756130981e-05
0.1519469623 	0.04211046042 	-0.02326723352 	-1.304880702e-07 	0.04053428836 	-4.066023711e-07 	7.726961953e-05
0.1552809637 	0.04216142014 	-0.02330140484 	-1.98406486e-07 	0.04034025492 	-2.54861631e-07 	7.689973788e-05
0.1586521634 	0.04216031298 	-0.02330198018 	-2.520620094e-07 	0.04010517502 	-1.26748699e-07 	7.645161024e-05
0.1620666825 	0.04210530659 	-0.02326793239 	-2.888892623e-07 	0.03982919217 	-2.397954708e-08 	7.592551024e-05
0.1655254184 	0.04199494275 	-0.0231984793 	-3.065354451e-07 	0.03951306365 	5.202264595e-08 	7.53228814e-05
0.1690227476 	0.04182840991 	-0.02309319611 	-3.031052319e-07 	0.03915836744 	1.004969491e-07 	7.464673184e-05
0.1725591007 	0.04160569522 	-0.02295217861 	-2.772716854e-07 	0.03876711542 	1.216634876e-07 	7.390089675e-05
0.176134913 	0.04132753482 	-0.02277599825 	-2.284240341e-07 	0.03834173636 	1.166627082e-07 	7.309000604e-05
0.1797506248 	0.04099516938 	-0.02256545818 	-1.569177895e-07 	0.03788490632 	8.760218774e-08 	7.221916102e-05
0.1834159144 	0.04061059567 	-0.02232185229 	-6.356891215e-08 	0.0373996416 	3.740243362e-08 	7.129411159e-05
0.1855771689 	0.04035817734 	-0.02216200679 	1.290847926e-05 	0.03710270903 	-2.256874425e-05 	7.072807558e-05
0.1871241627 	0.04017735234 	-0.02204749551 	-4.973324513e-08 	0.03689012198 	2.888143448e-08 	7.032282557e-05
0.1908737914 	0.0397001117 	-0.02174533904 	-1.793337089e-07 	0.03636106512 	1.056386058e-07 	6.931429616e-05
0.1946652623 	0.03918421138 	-0.02141870676 	-3.20303049e-07 	0.03581713735 	1.886939072e-07 	6.827741864e-05
0.1984990422 	0.03863536592 	-0.021071125 	-4.679001101e-07 	0.03526295922 	2.724309331e-07 	6.72210011e-05
0.2023809985 	0.03805962244 	-0.02070632732 	-6.172588952e-07 	0.03470292872 	3.51459887e-07 	6.615342732e-05
0.2063115745 	0.0374637366 	-0.02032848056 	-7.631459351e-07 	0.03414174657 	4.205724347e-07 	6.508365817e-05
0.2102860148 	0.03685493245 	-0.01994200727 	-9.005629309e-07 	0.03358422397 	4.752152149e-07 	6.402086515e-05
0.2143048088 	0.03624007055 	-0.01955111469 	-1.025426061e-06 	0.03303449801 	5.119861498e-07 	6.297293468e-05
0.2183684513 	0.03562519124 	-0.01915949697 	-1.134570399e-06 	0.03249585056 	5.285867823e-07 	6.194612293e-05
0.2224824929 	0.03501553303 	-0.01877037058 	-1.226012572e-06 	0.03197078351 	5.239446534e-07 	6.094519919e-05
0.2266474495 	0.03441594705 	-0.01838672525 	-1.298528251e-06 	0.03146154801 	4.978920432e-07 	5.997445479e-05
0.2308588887 	0.03383073911 	-0.01801121072 	-1.351924423e-06 	0.03097005338 	4.512471425e-07 	5.903752941e-05
0.2351173289 	0.03326308994 	-0.01764580258 	-1.191459916e-06 	0.03049736855 	3.313170357e-07 	5.813646076e-05
0.2394232945 	0.03271490285 	-0.0172916961 	-1.017331985e-06 	0.03004371162 	2.196498837e-07 	5.727166457e-05
0.2437845959 	0.03218721481 	-0.01694957429 	-8.558951166e-07 	0.02960877064 	1.257236878e-07 	5.644254616e-05
0.2481966718 	0.03168083688 	-0.01661999631 	-7.086680849e-07 	0.02919230834 	5.003307617e-08 	5.564865327e-05
0.2526579903 	0.03119602121 	-0.01630318523 	-5.761625293e-07 	0.02879381127 	-7.694108775e-09 	5.488900711e-05
0.2571691007 	0.03073227323 	-0.01599892058 	-4.581923514e-07 	0.02841229606 	-4.830107102e-08 	5.416173307e-05
0.2617331245 	0.03028856589 	-0.01570667382 	-3.541052969e-07 	0.02804648263 	-7.299922309e-08 	5.346439102e-05
0.2663542099 	0.02986375779 	-0.01542586121 	-2.631088206e-07 	0.0276951299 	-8.322473126e-08 	5.279461506e-05
0.2710268726 	0.0294568423 	-0.01515599027 	-1.843882513e-07 	0.02735721732 	-8.058015081e-08 	5.215045975e-05
0.275751688 	0.02906661506 	-0.01489645297 	-1.169834319e-07 	0.02703158913 	-6.66641003e-08 	5.152972192e-05
0.28052953 	0.0286915973 	-0.01464647688 	-6.000155556e-08 	0.02671689372 	-4.304590107e-08 	5.0929825e-05
0.2853683996 	0.02833032296 	-0.01440529673 	-1.267377671e-08 	0.02641181825 	-1.119804828e-08 	5.034826636e-05
0.2868768159 	0.0282228094 	-0.01433346411 	6.448072229e-06 	0.0263204214 	-1.009719328e-05 	5.017403858e-05
0.2902612788 	0.02798172335 	-0.01417238065 	-2.459043452e-08 	0.02611544003 	-2.889781383e-08 	4.978328711e-05
0.2952087702 	0.02764466031 	-0.0139471249 	-5.280110021e-08 	0.02582674878 	-7.477152354e-08 	4.923296135e-05
0.3002114828 	0.02731785551 	-0.01372881328 	-7.266128704e-08 	0.0255445976 	-1.245113702e-07 	4.869510279e-05
0.3052771643 	0.02700008854 	-0.01351673069 	-8.432112055e-08 	0.02526790866 	-1.770747766e-07 	4.816765677e-05
0.3103995605 	0.02669045767 	-0.01331030383 	-8.772128422e-08 	0.02499591606 	-2.314032171e-07 	4.764916326e-05
0.3155791317 	0.02638806592 	-0.01310889026 	-8.275575931e-08 	0.02472785597 	-2.866843119e-07 	4.713816624e-05
0.320817158 	0.02609192371 	-0.0129117296 	-6.915964372e-08 	0.02446285784 	-3.422387382e-07 	4.663300614e-05
0.3261196354 	0.02580108554 	-0.01271801049 	-4.651674075e-08 	0.02420013612 	-3.974768606e-07 	4.613218552e-05
0.3314812991 	0.02551483664 	-0.01252696191 	-1.429393181e-08 	0.02393915498 	-4.518594405e-07 	4.563468294e-05
0.336902809 	0.02523244196 	-0.01233769441 	2.813126998e-08 	0.02367936764 	-5.050652287e-07 	4.513945606e-05
0.3423871157 	0.02495311458 	-0.01214919023 	8.152763377e-08 	0.0234201739 	-5.568744939e-07 	4.464536076e-05
0.3479363295 	0.02467615395 	-0.01196036695 	1.467224596e-07 	0.02316112508 	-6.070629015e-07 	4.415154171e-05
0.3535474839 	0.02440099392 	-0.01177009 	2.245323199e-07 	0.02290193937 	-6.555257348e-07 	4.36574617e-05
0.3592212696 	0.02412705075 	-0.01157709271 	3.157951288e-07 	0.02264230174 	-7.022449983e-07 	4.316252021e-05
0.3649627704 	0.02385374034 	-0.01137998509 	3.710465859e-07 	0.0223819192 	-6.580704762e-07 	4.266615873e-05
0.370769322 	0.02358066206 	-0.01117735781 	4.182602692e-07 	0.02212071509 	-6.103450364e-07 	4.216823109e-05
0.3766406864 	0.02330748789 	-0.01096771069 	4.58438044e-07 	0.02185867211 	-5.631204981e-07 	4.166870434e-05
0.3825794668 	0.02303394823 	-0.01074945848 	4.908101256e-07 	0.02159573624 	-5.164903776e-07 	4.11674755e-05
0.3885874109 	0.02275993067 	-0.01052098893 	5.14680102e-07 	0.02133199207 	-4.706398577e-07 	4.06647058e-05
0.3946624157 	0.02248555594 	-0.01028071269 	5.293371623e-07 	0.02106766057 	-4.256673717e-07 	4.016081651e-05
0.4008056513 	0.02221111269 	-0.01002702116 	5.341327931e-07 	0.02080291698 	-3.815576266e-07 	3.965614163e-05
0.4070212331 	0.02193710437 	-0.009758311382 	5.286661972e-07 	0.0205379775 	-3.383664012e-07 	3.915109335e-05
0.4133061932 	0.02166442048 	-0.009473125623 	5.127587104e-07 	0.02027322385 	-2.961907411e-07 	3.864639931e-05
0.4196613049 	0.02139423854 	-0.009170055827 	4.86326001e-07 	0.02000900128 	-2.550276954e-07 	3.814271765e-05
0.4260907495 	0.02112805043 	-0.008847753884 	4.496087234e-07 	0.01974564706 	-2.149532065e-07 	3.764069131e-05
0.4325922399 	0.02086780701 	-0.008505098074 	4.03222856e-07 	0.01948368757 	-1.761886906e-07 	3.714132372e-05
0.4391662983 	0.02061581295 	-0.008141085692 	3.477986664e-07 	0.01922368824 	-1.389261072e-07 	3.664569273e-05
0.4458164752 	0.02037470274 	-0.007754824624 	2.842686343e-07 	0.01896627594 	-1.035220831e-07 	3.615499334e-05
0.4525413396 	0.02014748839 	-0.007345700736 	2.139300892e-07 	0.01871238183 	-7.057535734e-08 	3.56710006e-05
0.4593412644 	0.01993742167 	-0.006913275049 	1.379501929e-07 	0.01846315311 	-4.076160096e-08 	3.519590139e-05
0.4662195511 	0.01974789637 	-0.006457260453 	5.772893531e-08 	0.01821999686 	-1.499895535e-08 	3.473237799e-05
0.471104341 	0.01963167771 	-0.006120460242 	7.399601317e-06 	0.01805485608 	-6.49870383e-06 	3.441757378e-05
0.4731749089 	0.01958240448 	-0.005977724375 	2.565042633e-08 	0.01798483352 	-5.36407699e-09 	3.428409131e-05
0.4802079543 	0.01944435181 	-0.005474951516 	1.117181135e-07 	0.01775999414 	-1.889009715e-08 	3.385548496e-05
0.4873218078 	0.01933691195 	-0.004949398277 	1.976745469e-07 	0.01754828665 	-2.475252851e-08 	3.345191164e-05
0.4945150618 	0.01926304349 	-0.004403258498 	2.819318117e-07 	0.01735357934 	-2.175437698e-08 	3.30807454e-05
0.5017088021 	0.01922495926 	-0.003842650228 	3.624229558e-07 	0.01718093951 	-9.123352331e-09 	3.27516459e-05
0.5088246559 	0.01922298697 	-0.003274250905 	4.370792568e-07 	0.01703480682 	1.315295751e-08 	3.247307638e-05
0.5158619961 	0.01925579861 	-0.002701509702 	5.052202284e-07 	0.01691797311 	4.442926755e-08 	3.225035886e-05
0.5228223256 	0.01932127339 	-0.002126507352 	5.665622735e-07 	0.01683228283 	8.36250983e-08 	3.208700936e-05
0.5297067628 	0.01941688959 	-0.001551316595 	6.206973758e-07 	0.01677876906 	1.292405349e-07 	3.198499725e-05
0.5365152377 	0.01953994822 	-0.0009781241457 	6.676006306e-07 	0.01675778045 	1.796788963e-07 	3.194498712e-05
0.5432491873 	0.0196877815 	-0.0004089388765 	7.076214621e-07 	0.01676876753 	2.332236877e-07 	3.196593156e-05
0.5499094439 	0.01985797668 	0.0001546654242 	7.413007739e-07 	0.0168101284 	2.8814284e-07 	3.204477686e-05
0.55649621 	0.02004832993 	0.0007113458158 	7.690826724e-07 	0.0168800111 	3.432675796e-07 	3.217799272e-05
0.5630107473 	0.02025680054 	0.001259802956 	7.912444688e-07 	0.01697625129 	3.975130956e-07 	3.236145326e-05
0.5694538871 	0.0204815293 	0.00179882102 	8.082544603e-07 	0.01709634843 	4.498529382e-07 	3.25903918e-05
0.5758259306 	0.0207207744 	0.002327375171 	8.207871595e-07 	0.01723783492 	4.997179128e-07 	3.286010436e-05
0.5821279228 	0.02097293206 	0.002844715858 	8.295035281e-07 	0.01739821294 	5.467267161e-07 	3.316582944e-05
0.5883608325 	0.02123649289 	0.003350249699 	8.348422961e-07 	0.01757510589 	5.90559134e-07 	3.350303658e-05
0.5945249646 	0.02151001578 	0.003843485688 	8.373533155e-07 	0.01776630695 	6.310975915e-07 	3.386751893e-05
0.6006211498 	0.02179216306 	0.004324138987 	8.375783656e-07 	0.01796975942 	6.683949843e-07 	3.425535589e-05
0.606650536 	0.02208168073 	0.004792055511 	8.358699701e-07 	0.01818362107 	7.024700201e-07 	3.466303564e-05
0.6126133893 	0.0223773703 	0.005247132233 	8.325931198e-07 	0.01840626297 	7.334116146e-07 	3.508745297e-05
0.6185104433 	0.02267812632 	0.00568939237 	8.281380556e-07 	0.01863625401 	7.614126243e-07 	3.552587983e-05
0.6243427419 	0.02298294581 	0.006118979859 	8.22780793e-07 	0.01887234542 	7.866447092e-07 	3.597593566e-05
0.6301107689 	0.02329089057 	0.006536060241 	8.166985656e-07 	0.01911347009 	8.092125688e-07 	3.643558631e-05
0.6358151458 	0.0236011022 	0.006940843955 	8.101438012e-07 	0.01935873646 	8.293132644e-07 	3.690313217e-05
0.6414566659 	0.02391283862 	0.007333646482 	8.033121858e-07 	0.0196073693 	8.471588495e-07 	3.737709547e-05
0.647036138 	0.02422543511 	0.007714801259 	7.962750526e-07 	0.01985873298 	8.628455377e-07 	3.785626451e-05
0.65255404 	0.02453829462 	0.008084638562 	7.891495794e-07 	0.02011230261 	8.765217497e-07 	3.83396387e-05
0.6580110512 	0.02485091497 	0.00844354003 	7.82050684e-07 	0.02036764528 	8.88366184e-07 	3.88263928e-05
0.6634079914 	0.02516288751 	0.00879192995 	7.750339106e-07 	0.02062440436 	8.985249448e-07 	3.931584697e-05
0.6687454422 	0.02547386108 	0.009130215291 	7.680892069e-07 	0.02088229378 	9.070689766e-07 	3.980745587e-05
0.6740239929 	0.02578354354 	0.009458796372 	7.612676915e-07 	0.02114109466 	9.141383393e-07 	4.030080228e-05
0.6792442933 	0.0260917263 	0.00977811273 	7.545984513e-07 	0.02140062944 	9.198805185e-07 	4.079554771e-05
0.6844071263 	0.02639826219 	0.01008860914 	7.480564468e-07 	0.02166076551 	9.243891001e-07 	4.129143935e-05
0.6895129981 	0.02670303976 	0.01039070159 	7.41600864e-07 	0.02192140528 	9.277309351e-07 	4.17882912e-05
0.6945625248 	0.02700599156 	0.01068479986 	7.3523305e-07 	0.02218248733 	9.300242442e-07 	4.228598616e-05
0.6995563279 	0.02730710821 	0.01097133427 	7.289365722e-07 	0.02244397227 	9.313859358e-07 	4.278444912e-05
0.7044951269 	0.02760641707 	0.01125072652 	7.226527308e-07 	0.02270584277 	9.318822661e-07 	4.328364709e-05
0.7093794255 	0.02790396108 	0.01152336599 	7.163238011e-07 	0.02296810175 	9.315666255e-07 	4.378358559e-05
0.7142098238 	0.02819981024 	0.01178963327 	7.099241245e-07 	0.02323076914 	9.305322744e-07 	4.428430265e-05
0.7189869164 	0.02849406634 	0.01204991323 	7.034176794e-07 	0.02349388015 	9.288654506e-07 	4.478586535e-05
0.7237113541 	0.02878685273 	0.01230458141 	6.96742029e-07 	0.02375747751 	9.266198858e-07 	4.528835519e-05
0.7283836644 	0.02907829327 	0.01255398075 	6.898272307e-07 	0.02402161587 	9.238216008e-07 	4.579187631e-05
0.7330044134 	0.02936852073 	0.01279843796 	6.826377648e-07 	0.02428635777 	9.205350335e-07 	4.629654795e-05
0.7375741699 	0.02965768066 	0.01303827479 	6.751329576e-07 	0.02455177441 	9.168162181e-07 	4.680250584e-05
0.7420935234 	0.02994592876 	0.0132738051 	6.672607244e-07 	0.02481793831 	9.127068593e-07 	4.730988821e-05
0.7465630238 	0.03023341333 	0.01350531383 	6.58947985e-07 	0.02508492454 	9.082047913e-07 	4.781883817e-05
0.7509832008 	0.03052027338 	0.01373305983 	6.501557228e-07 	0.02535281354 	9.033371365e-07 	4.832950907e-05
0.7553545986 	0.03080665078 	0.01395729499 	6.408453213e-07 	0.02562168298 	8.981315643e-07 	4.884204894e-05
0.7596777566 	0.03109268183 	0.01417825633 	6.309767226e-07 	0.0258916131 	8.926049336e-07 	4.935661077e-05
0.7639532349 	0.0313784962 	0.01439616378 	6.204918112e-07 	0.02616267591 	8.867441468e-07 	4.987333182e-05
0.7681815307 	0.03166420143 	0.01461120524 	6.093425381e-07 	0.02643494342 	8.805279812e-07 	5.039234937e-05
0.7723631646 	0.03194989551 	0.01482355435 	5.974965983e-07 	0.02670847904 	8.739526096e-07 	5.091378428e-05
0.7764986516 	0.03223566123 	0.01503336693 	5.849217724e-07 	0.02698334239 	8.670033096e-07 	5.143775024e-05
0.7805885059 	0.03252156918 	0.01524078546 	5.715830185e-07 	0.02725958228 	8.596575641e-07 	5.196434024e-05
0.7846332395 	0.03280766938 	0.01544592907 	5.574316687e-07 	0.02753723454 	8.518612739e-07 	5.24936226e-05
0.7886333369 	0.03309398325 	0.01564888742 	5.424369618e-07 	0.02781632688 	8.435661933e-07 	5.302565019e-05
0.7925892905 	0.03338051716 	0.01584973871 	5.265728099e-07 	0.0280968692 	8.347302842e-07 	5.356044182e-05
0.7965015875 	0.03366725071 	0.01604853793 	5.098156368e-07 	0.02837885991 	8.253006541e-07 	5.409799449e-05
0.8003707124 	0.03395414366 	0.01624532611 	4.921397532e-07 	0.028662278 	8.152183344e-07 	5.463826813e-05
0.8041971471 	0.03424112859 	0.01644012181 	4.735108992e-07 	0.02894708172 	8.043998178e-07 	5.518118319e-05
0.8079813545 	0.03452810415 	0.01663291564 	4.539084198e-07 	0.0292332117 	7.927649872e-07 	5.572662646e-05
0.8117238006 	0.03481494587 	0.01682368504 	4.333153927e-07 	0.02952058423 	7.802384076e-07 	5.627443836e-05
0.8154249461 	0.03510149863 	0.01701238628 	4.117170978e-07 	0.02980909309 	7.667383509e-07 	5.682441643e-05
0.819085247 	0.03538757759 	0.01719895699 	3.890998143e-07 	0.03009860755 	7.521776921e-07 	5.737631146e-05
0.8227051594 	0.03567297007 	0.01738331883 	3.654454144e-07 	0.03038896783 	7.364584168e-07 	5.792981886e-05
0.8262851241 	0.03595742661 	0.01756536756 	3.407405015e-07 	0.03067998719 	7.194755434e-07 	5.848458264e-05
0.8298255813 	0.03624066585 	0.01774498106 	3.149798827e-07 	0.03097145075 	7.011335275e-07 	5.904019319e-05
0.8333269671 	0.03652237767 	0.01792202321 	2.881581346e-07 	0.03126311189 	6.813368355e-07 	5.95961804e-05
0.8367897125 	0.03680221598 	0.01809633604 	2.602737118e-07 	0.03155469512 	6.599872727e-07 	6.015201906e-05
0.8402142449 	0.03707980599 	0.0182677491 	2.313242585e-07 	0.03184589208 	6.369873489e-07 	6.070712141e-05
0.8436009875 	0.03735473991 	0.01843607367 	2.013074741e-07 	0.03213636124 	6.122325207e-07 	6.126083637e-05
0.8469503549 	0.03762657431 	0.0186011004 	1.702290243e-07 	0.03242573014 	5.856257952e-07 	6.181245392e-05
0.8502627596 	0.03789483743 	0.01876260868 	1.380962987e-07 	0.03271359339 	5.57077926e-07 	6.236120127e-05
0.8535386095 	0.03815902721 	0.01892036332 	1.049191426e-07 	0.03299951279 	5.265042939e-07 	6.290624311e-05
0.856778308 	0.03841861039 	0.01907411337 	7.07111083e-08 	0.03328301914 	4.93824498e-07 	6.344668502e-05
0.8599822544 	0.03867302772 	0.01922359815 	3.548670986e-08 	0.03356361143 	4.589645543e-07 	6.39815719e-05