0.4709558481 	7.070996041e-06 	-1.028960335e-07 	2.937499942e-13 	7.057539095e-06 	-1.465309067e-11 	1.345363106e-08
0.4709558481 	7.070996041e-06 	-1.028960335e-07 	2.937499942e-13 	7.057539095e-06 	-1.465309067e-11 	1.345363106e-08
0.4711314108 	7.944090503e-05 	-4.494278423e-06 	1.279622772e-11 	7.928849487e-05 	-1.646947196e-10 	1.511459083e-07
0.4713069734 	0.000443227261 	-5.7244574e-05 	1.607919781e-10 	0.0004422365876 	-9.183980748e-10 	8.430258493e-07
0.471482536 	0.001471990198 	-0.0003332012459 	9.01988944e-10 	0.001464720718 	-3.0184853e-09 	2.792164786e-06
0.4716580986 	0.003578289774 	-0.001175590463 	2.967045014e-09 	0.003524686237 	-7.054902077e-09 	6.719031604e-06
0.4718336613 	0.006991037771 	-0.002881166531 	6.551438034e-09 	0.006751403465 	-1.272626864e-08 	1.287005146e-05
0.4720092239 	0.0114996524 	-0.005370725561 	1.072992272e-08 	0.01084422291 	-1.875980047e-08 	2.067210286e-05
0.4721847865 	0.01648676107 	-0.008203256234 	1.427294807e-08 	0.01524030614 	-2.391450066e-08 	2.905225933e-05
0.4723603491 	0.02131268632 	-0.01092702521 	1.668633878e-08 	0.01945319173 	-2.772436298e-08 	3.708319018e-05
0.4725359118 	0.02561146906 	-0.01330726896 	1.814800743e-08 	0.02322319196 	-3.0314654e-08 	4.426985843e-05
0.4727114744 	0.02928160707 	-0.01529645441 	1.899040425e-08 	0.02647472795 	-3.199522433e-08 	5.046818974e-05
0.472887037 	0.03235937664 	-0.01693239635 	1.946187053e-08 	0.02923052612 	-3.304971865e-08 	5.572150698e-05
0.4730625996 	0.03492750712 	-0.01827498738 	1.9712604e-08 	0.0315513132 	-3.36841414e-08 	6.01455722e-05
0.4732381623 	0.03707345577 	-0.0193814547 	1.982880209e-08 	0.03350525742 	-3.403619749e-08 	6.387033295e-05
0.4734137249 	0.03887473211 	-0.02029958867 	1.985970616e-08 	0.03515533464 	-3.419536043e-08 	6.701583874e-05
0.4735892875 	0.04039558813 	-0.02106737925 	1.983388277e-08 	0.03655534348 	-3.421961634e-08 	6.968464471e-05
0.4737648501 	0.04168781835 	-0.02171449115 	1.976845192e-08 	0.03774962175 	-3.414700059e-08 	7.196127102e-05
0.4739404128 	0.04279273074 	-0.02226399548 	1.967418733e-08 	0.03877412361 	-3.400295964e-08 	7.391425631e-05
0.4741159754 	0.04374319914 	-0.02273388246 	1.955827727e-08 	0.03965783207 	-3.380490009e-08 	7.559885025e-05
0.474291538 	0.04456544674 	-0.02313826327 	1.942579509e-08 	0.04042410237 	-3.356498535e-08 	7.705957442e-05
0.4744671006 	0.04528049123 	-0.02348828933 	1.928047862e-08 	0.04109180712 	-3.329187558e-08 	7.833240525e-05
0.4746426632 	0.04590527979 	-0.02379284501 	1.912515279e-08 	0.04167626597 	-3.299183413e-08 	7.944654626e-05
0.4748182259 	0.04645356822 	-0.02405906762 	1.896197256e-08 	0.04218998293 	-3.266945035e-08 	8.042583357e-05
0.4749937885 	0.04693659867 	-0.02429273834 	1.879257642e-08 	0.04264322475 	-3.232812446e-08 	8.128983845e-05
0.4751693511 	0.04736362214 	-0.024498578 	1.861819523e-08 	0.04304447343 	-3.197040087e-08 	8.205472995e-05
0.4753449137 	0.04774230215 	-0.02468047014 	1.843973406e-08 	0.04340077742 	-3.1598202e-08 	8.273394439e-05
0.4755204764 	0.04807903237 	-0.02484164209 	1.825784214e-08 	0.04371803545 	-3.121299709e-08 	8.333872637e-05
0.475696039 	0.04837914996 	-0.0249847391 	1.807293971e-08 	0.04400118812 	-3.081592794e-08 	8.387849406e-05
0.4758716016 	0.04864738449 	-0.02511234662 	1.788544761e-08 	0.04425449056 	-3.040788056e-08 	8.43613589e-05
0.4760471642 	0.04888585202 	-0.02522383745 	1.769447402e-08 	0.04448140323 	-2.998952275e-08 	8.479391752e-05
0.4762227269 	0.04913436729 	-0.02534635866 	1.747355487e-08 	0.04471196917 	-2.95012931e-08 	8.523344028e-05
0.4764955107 	0.04940300197 	-0.02547670857 	1.718216549e-08 	0.0449629288 	-2.887451817e-08 	8.57118391e-05
0.4767734216 	0.04965065702 	-0.02558987947 	1.684173539e-08 	0.04520056421 	-2.815763211e-08 	8.616483823e-05
0.4770565557 	0.04986532037 	-0.02568962554 	1.648729517e-08 	0.04540487682 	-2.740814224e-08 	8.655431485e-05
0.4773450114 	0.05004846738 	-0.02577392277 	1.611724828e-08 	0.04557967061 	-2.662662992e-08 	8.688752039e-05
0.4776388886 	0.05020404781 	-0.02584508452 	1.573136854e-08 	0.04572841497 	-2.58135435e-08 	8.717106849e-05
0.4779382892 	0.05033505044 	-0.02590449381 	1.532926228e-08 	0.04585393098 	-2.496921355e-08 	8.741033689e-05
0.4782433171 	0.05044406813 	-0.02595341397 	1.491056263e-08 	0.04595866017 	-2.409386465e-08 	8.760997984e-05
0.4785540779 	0.05053331126 	-0.02599290774 	1.447489183e-08 	0.04604468144 	-2.318763721e-08 	8.777396029e-05
0.4788706795 	0.05060467924 	-0.0260238893 	1.402185972e-08 	0.04611378496 	-2.22505984e-08 	8.79056908e-05
0.4791932316 	0.05065980993 	-0.02604714517 	1.355106078e-08 	0.0461675143 	-2.128275129e-08 	8.800811386e-05
0.4795218461 	0.05070012101 	-0.02606335554 	1.30620733e-08 	0.04620720627 	-2.028404169e-08 	8.808377778e-05
0.4798566368 	0.05072684374 	-0.02607311061 	1.255445875e-08 	0.04623402204 	-1.92543641e-08 	8.81348961e-05
0.48019772 	0.05074105073 	-0.0260769243 	1.20277611e-08 	0.04624897333 	-1.81935664e-08 	8.81633974e-05
0.4805452138 	0.05074367902 	-0.02607524539 	1.148150639e-08 	0.0462529439 	-1.710145347e-08 	8.817096641e-05
0.4808992388 	0.05073554919 	-0.0260684669 	1.091520237e-08 	0.04624670762 	-1.597779056e-08 	8.815907832e-05
0.4812599177 	0.05071738148 	-0.02605693377 	1.032833782e-08 	0.04623094353 	-1.482230643e-08 	8.812902759e-05
0.4816273755 	0.05068980918 	-0.02604094937 	9.720382599e-09 	0.04620624855 	-1.363469615e-08 	8.808195209e-05
0.4820017397 	0.05065339008 	-0.02602078096 	9.090787712e-09 	0.0461731482 	-1.241462344e-08 	8.801885364e-05
0.48238314 	0.05060861607 	-0.02599666431 	8.438985044e-09 	0.04613210576 	-1.116172311e-08 	8.794061533e-05
0.4827717088 	0.05055592142 	-0.02596880758 	7.764388106e-09 	0.04608352999 	-9.875603459e-09 	8.784801641e-05
0.4831675807 	0.05049568975 	-0.0259373947 	7.066392644e-09 	0.04602778183 	-8.55584861e-09 	8.774174492e-05
0.4835708931 	0.05042826006 	-0.02590258818 	6.344377408e-09 	0.04596518009 	-7.202020628e-09 	8.762240862e-05
0.4839817856 	0.05035393198 	-0.02586453161 	5.597705257e-09 	0.04589600641 	-5.813661725e-09 	8.749054435e-05
0.4844004009 	0.05027297019 	-0.02582335175 	4.825724613e-09 	0.04582050947 	-4.390296443e-09 	8.73466262e-05
0.4848268841 	0.05018560837 	-0.02577916037 	4.027770838e-09 	0.04573890873 	-2.931433809e-09 	8.719107251e-05
0.485261383 	0.05009205254 	-0.02573205585 	3.203167983e-09 	0.04565139763 	-1.436569568e-09 	8.702425202e-05
0.4857040484 	0.04999248403 	-0.02568212455 	2.351230922e-09 	0.04555814639 	9.481163679e-11 	8.684648925e-05
0.4861550336 	0.04988706206 	-0.02562944204 	1.471267091e-09 	0.0454593045 	1.663234213e-09 	8.665806914e-05
0.4866144951 	0.04977592602 	-0.02557407417 	5.625788741e-10 	0.04535500285 	3.269229487e-09 	8.64592412e-05
0.4870825921 	0.04965919744 	-0.02551607799 	-3.755340322e-10 	0.04524535561 	4.913333346e-09 	8.62502231e-05
0.487559487 	0.04953698178 	-0.02545550259 	-1.34377242e-09 	0.04513046198 	6.596083984e-09 	8.60312039e-05
0.4880453452 	0.04940936997 	-0.02539238983 	-2.342834988e-09 	0.04501040758 	8.318019944e-09 	8.580234685e-05
0.4885403351 	0.04927643977 	-0.02532677498 	-3.373415964e-09 	0.04488526585 	1.007967794e-08 	8.556379193e-05
0.4890446283 	0.04913825707 	-0.02525868729 	-4.436202661e-09 	0.04475509916 	1.18815901e-08 	8.531565803e-05
0.4895583997 	0.04899487689 	-0.02518815054 	-5.531872972e-09 	0.0446199599 	1.37242815e-08 	8.505804505e-05
0.4900818274 	0.04884634444 	-0.02511518347 	-6.661093193e-09 	0.04447989141 	1.560826807e-08 	8.479103557e-05
0.4906150929 	0.04869269598 	-0.02503980018 	-7.82451578e-09 	0.04433492882 	1.753405407e-08 	8.451469658e-05
0.4911583811 	0.04853395961 	-0.02496201053 	-9.022777189e-09 	0.04418509983 	1.950212886e-08 	8.422908089e-05
0.4917118805 	0.04837015599 	-0.02488182046 	-1.025649584e-08 	0.0440304254 	2.151296381e-08 	8.393422844e-05
0.4922757829 	0.04820129901 	-0.02479923228 	-1.152627047e-08 	0.04387092041 	2.356700987e-08 	8.36301676e-05
0.4928502838 	0.04802739642 	-0.02471424496 	-1.283267851e-08 	0.04370659423 	2.566469438e-08 	8.331691622e-05
0.4934355824 	0.04784845031 	-0.02462685434 	-1.417627455e-08 	0.04353745127 	2.780641694e-08 	8.299448273e-05
0.4940318817 	0.04766445772 	-0.02453705339 	-1.555758912e-08 	0.04336349154 	2.999254571e-08 	8.266286713e-05
0.4946393885 	0.04747541104 	-0.02444483238 	-1.697712775e-08 	0.04318471107 	3.22234141e-08 	8.232206187e-05
0.4952583133 	0.04728129854 	-0.02435017907 	-1.843537022e-08 	0.04300110246 	3.449931676e-08 	8.197205284e-05
0.4958888709 	0.04708210474 	-0.02425307889 	-1.993276982e-08 	0.04281265528 	3.682050455e-08 	8.161282012e-05
0.4965312797 	0.04687781086 	-0.02415351504 	-2.146975294e-08 	0.0426193565 	3.918717966e-08 	8.124433893e-05
0.4971857627 	0.0466683952 	-0.02405146867 	-2.304671893e-08 	0.042421191 	4.159949138e-08 	8.08665804e-05
0.4978525466 	0.04645383353 	-0.02394691899 	-2.466404004e-08 	0.04221814191 	4.405753072e-08 	8.04795124e-05
0.4985318627 	0.04623409947 	-0.02383984335 	-2.632206126e-08 	0.04201019112 	4.656132403e-08 	8.00831004e-05
0.4992239466 	0.04600916485 	-0.02373021736 	-2.802110043e-08 	0.04179731966 	4.911082646e-08 	7.967730824e-05
0.4999290382 	0.0457790001 	-0.02361801498 	-2.976144824e-08 	0.04157950818 	5.170591544e-08 	7.926209902e-05
0.5006473819 	0.04554357455 	-0.0235032086 	-3.154336819e-08 	0.04135673733 	5.434638284e-08 	7.883743585e-05
0.501379227 	0.04530285692 	-0.02338576922 	-3.336709775e-08 	0.04112898839 	5.703192603e-08 	7.840328309e-05
0.502124827 	0.04505681541 	-0.02326566597 	-3.523284661e-08 	0.04089624306 	5.976213599e-08 	7.795960579e-05
0.5028844406 	0.04480541963 	-0.02314286942 	-3.714081926e-08 	0.04065848591 	6.253649506e-08 	7.750637458e-05
0.5036583311 	0.04454863053 	-0.02301733277 	-3.909110146e-08 	0.04041569702 	6.535435214e-08 	7.704355149e-05
0.5044467669 	0.04428647351 	-0.02288911045 	-4.108445776e-08 	0.04016788029 	6.821499726e-08 	7.657114392e-05
0.5052500214 	0.0440184958 	-0.02275755064 	-4.311692841e-08 	0.03991500615 	7.111742154e-08 	7.608909553e-05
0.506068373 	0.04371194208 	-0.02260888061 	-4.547059756e-08 	0.03962395598 	7.443802063e-08 	7.5534273e-05
0.507324668 	0.04332851716 	-0.02242176933 	-4.841705123e-08 	0.0392609723 	7.854507073e-08 	7.484232522e-05
0.5085949819 	0.04290220585 	-0.02221104742 	-5.167602453e-08 	0.03885991755 	8.30377965e-08 	7.407780341e-05
0.5098794711 	0.04247120028 	-0.02199814257 	-5.498179239e-08 	0.03845430134 	8.753431817e-08 	7.330458617e-05
0.5111782938 	0.04203491706 	-0.02178207052 	-5.83257918e-08 	0.03804421815 	9.203148494e-08 	7.252285364e-05
0.5124916099 	0.04159357193 	-0.02156301983 	-6.170765058e-08 	0.03762982434 	9.652599736e-08 	7.173290385e-05
0.5138195812 	0.04114726647 	-0.02134099748 	-6.51258618e-08 	0.03721124513 	1.010141323e-07 	7.093497555e-05
0.5151623712 	0.04069611704 	-0.02111603345 	-6.857921256e-08 	0.03678862178 	1.054917373e-07 	7.012933799e-05
0.5165201452 	0.04024023825 	-0.02088814789 	-7.206650692e-08 	0.0363620983 	1.09954154e-07 	6.931626569e-05
0.5178930705 	0.03977974748 	-0.02065735807 	-7.558655163e-08 	0.03593182725 	1.143961662e-07 	6.849604947e-05
0.5192813161 	0.03931476599 	-0.02042367785 	-7.913809259e-08 	0.03549796999 	1.188119366e-07 	6.766899695e-05
0.520685053 	0.03884542036 	-0.02018711859 	-8.271975832e-08 	0.03506069855 	1.231949477e-07 	6.683543605e-05
0.522104454 	0.03837184378 	-0.01994768963 	-8.633000154e-08 	0.0346201969 	1.275379461e-07 	6.599571747e-05
0.523539694 	0.03789417731 	-0.01970539881 	-8.996704257e-08 	0.03417666229 	1.318328902e-07 	6.515021723e-05
0.5249909497 	0.03741257104 	-0.01946025295 	-9.362881457e-08 	0.03373030648 	1.360709041e-07 	6.429933901e-05
0.5264583998 	0.03692718524 	-0.01921225829 	-9.731291136e-08 	0.03328135695 	1.402422385e-07 	6.344351642e-05
0.527942225 	0.03643819147 	-0.01896142095 	-1.010165384e-07 	0.03283005793 	1.443362391e-07 	6.258321506e-05
0.5294426081 	0.03594577371 	-0.01870774734 	-1.04736468e-07 	0.03237667151 	1.483413262e-07 	6.171893452e-05
0.5309597337 	0.03545012945 	-0.01845124461 	-1.084689987e-07 	0.03192147851 	1.52244985e-07 	6.085121016e-05
0.5324937889 	0.03495147073 	-0.01819192108 	-1.12209921e-07 	0.03146477939 	1.560337701e-07 	5.99806147e-05
0.5340449624 	0.03445002524 	-0.01792978662 	-1.159544883e-07 	0.03100689494 	1.596933224e-07 	5.910775968e-05
0.5356134452 	0.0339460374 	-0.0176648531 	-1.196973949e-07 	0.03054816693 	1.632084039e-07 	5.823329659e-05
0.5371994306 	0.03343976939 	-0.01739713477 	-1.234327615e-07 	0.03008895856 	1.665629486e-07 	5.735791781e-05
0.5388031139 	0.03293150224 	-0.0171266487 	-1.271541279e-07 	0.02962965482 	1.697401321e-07 	5.648235722e-05
0.5404246925 	0.03242153689 	-0.0168534151 	-1.30854454e-07 	0.02917066257 	1.727224602e-07 	5.560739043e-05
0.5420643661 	0.03191019526 	-0.01657745776 	-1.345261288e-07 	0.02871241057 	1.754918778e-07 	5.473383475e-05
0.5437223366 	0.03139782129 	-0.01629880439 	-1.38160987e-07 	0.02825534911 	1.780298983e-07 	5.386254857e-05
0.5453988083 	0.03088478201 	-0.01601748695 	-1.417503339e-07 	0.02779994954 	1.803177542e-07 	5.299443042e-05
0.5470939875 	0.03037146864 	-0.015733542 	-1.452849775e-07 	0.02734670348 	1.823365669e-07 	5.213041746e-05
0.5488080831 	0.02985829759 	-0.01544701101 	-1.487552675e-07 	0.02689612174 	1.840675361e-07 	5.127148343e-05
0.5505413061 	0.02934571159 	-0.0151579406 	-1.521511406e-07 	0.02644873295 	1.854921482e-07 	5.041863604e-05
0.5522938699 	0.02883418066 	-0.01486638286 	-1.554621712e-07 	0.02600508185 	1.865923991e-07 	4.957291375e-05
0.5540659904 	0.02832420317 	-0.01457239554 	-1.586776248e-07 	0.02556572734 	1.873510311e-07 	4.873538194e-05
0.5558578859 	0.02781630683 	-0.01427604233 	-1.617865032e-07 	0.02513124008 	1.877517738e-07 	4.790712846e-05
0.5576697768 	0.02731104965 	-0.01397739299 	-1.647776198e-07 	0.02470219991 	1.877795702e-07 	4.708925865e-05
0.5595018865 	0.02680902084 	-0.01367652354 	-1.676396855e-07 	0.02427919301 	1.874207983e-07 	4.628288993e-05
0.5613544406 	0.02631084155 	-0.01337351631 	-1.70361393e-07 	0.02386280874 	1.866635091e-07 	4.548914579e-05
0.563227667 	0.02581716543 	-0.0130684599 	-1.729315445e-07 	0.02345363631 	1.854977037e-07 	4.470914941e-05
0.5651217966 	0.02532867851 	-0.01276144887 	-1.753391662e-07 	0.02305226093 	1.839156962e-07 	4.394401638e-05
0.5670370626 	0.02484609842 	-0.01245258345 	-1.77573563e-07 	0.02265925926 	1.819125676e-07 	4.319484596e-05
0.5689737009 	0.02437017254 	-0.01214196933 	-1.796243442e-07 	0.02227519396 	1.794866e-07 	4.246271075e-05
0.5709319499 	0.02390167516 	-0.01182971756 	-1.814814637e-07 	0.02190060767 	1.76639533e-07 	4.174864517e-05
0.5729120508 	0.02344140374 	-0.01151594436 	-1.831353171e-07 	0.02153601693 	1.733765225e-07 	4.10536339e-05
0.5749142474 	0.02299017449 	-0.01120077089 	-1.845769055e-07 	0.02118190686 	1.697058038e-07 	4.037860168e-05
0.5769387863 	0.02254881762 	-0.01088432255 	-1.85798045e-07 	0.02083872707 	1.656381816e-07 	3.972440562e-05
0.5789859169 	0.02211817204 	-0.01056672807 	-1.867915993e-07 	0.02050688912 	1.611865403e-07 	3.909183025e-05
0.5810558911 	0.02169907932 	-0.01024811811 	-1.875517207e-07 	0.02018676507 	1.563655604e-07 	3.848158485e-05
0.583148964 	0.02129237643 	-0.009928623565 	-1.880740584e-07 	0.01987868671 	1.511917686e-07 	3.789430186e-05
0.5852653933 	0.0208988866 	-0.009608373747 	-1.883558325e-07 	0.01958294449 	1.456839149e-07 	3.7330535e-05
0.5874054395 	0.02051940817 	-0.009287494775 	-1.883956685e-07 	0.01929978591 	1.398634545e-07 	3.679075604e-05
0.5895693664 	0.0201547017 	-0.008966108683 	-1.881933018e-07 	0.01902941326 	1.337546824e-07 	3.627535063e-05
0.5917574402 	0.01980547633 	-0.008644332918 	-1.877494219e-07 	0.0187719821 	1.273841991e-07 	3.578461528e-05
0.5939699306 	0.01947237686 	-0.008322279772 	-1.87066185e-07 	0.01852760168 	1.207798215e-07 	3.531875829e-05
0.5962071099 	0.01915597238 	-0.008000055048 	-1.861478372e-07 	0.01829633801 	1.139693896e-07 	3.487790546e-05
0.5984692536 	0.01885674661 	-0.007677755837 	-1.850003211e-07 	0.01807821864 	1.069802675e-07 	3.44621093e-05
0.6007566404 	0.01857509028 	-0.007355469175 	-1.836307492e-07 	0.01787323812 	9.983944355e-08 	3.407135947e-05
0.6030695519 	0.0183112956 	-0.00703327166 	-1.820472974e-07 	0.01768136347 	9.257356125e-08 	3.370559306e-05
0.6054082729 	0.01806555279 	-0.006711229082 	-1.80259104e-07 	0.01750253948 	8.520892885e-08 	3.336470483e-05
0.6077730914 	0.01783794915 	-0.006389396122 	-1.782761587e-07 	0.01733669381 	7.777157612e-08 	3.304855689e-05
0.6101642987 	0.01762847086 	-0.006067816215 	-1.761091214e-07 	0.01718374176 	7.028734495e-08 	3.275698777e-05
0.6125821893 	0.01743700737 	-0.005746521612 	-1.737691299e-07 	0.01704359036 	6.278201407e-08 	3.248982024e-05
0.6150270608 	0.01726335821 	-0.005425533633 	-1.712676101e-07 	0.01691614179 	5.52814241e-08 	3.224686784e-05
0.6174992144 	0.01710724189 	-0.005104863081 	-1.686160925e-07 	0.01680129594 	4.781157573e-08 	3.202793974e-05
0.6199989545 	0.01696830638 	-0.00478451081 	-1.65826042e-07 	0.01669895213 	4.039867629e-08 	3.183284399e-05
0.622526589 	0.01684614074 	-0.004464468394 	-1.629087022e-07 	0.01660900999 	3.306911807e-08 	3.166138927e-05
0.625082429 	0.01674028738 	-0.004144718891 	-1.598749594e-07 	0.01653136966 	2.584938115e-08 	3.151338522e-05
0.6276667894 	0.01665025457 	-0.003825237674 	-1.567352249e-07 	0.01646593134 	1.876586214e-08 	3.13886416e-05
0.6302799884 	0.01657552855 	-0.003505993292 	-1.534993394e-07 	0.01641259441 	1.184463867e-08 	3.128696659e-05
0.6329223478 	0.0165155851 	-0.003186948358 	-1.501764982e-07 	0.01637125616 	5.111184639e-09 	3.12081644e-05
0.6355941931 	0.01646990016 	-0.002868060427 	-1.467751961e-07 	0.0163418104 	-1.409945156e-09 	3.115203259e-05
0.6382958531 	0.01643795934 	-0.002549282873 	-1.433031938e-07 	0.01632414593 	-7.695441382e-09 	3.111835921e-05
0.6410276607 	0.01641926604 	-0.00223056572 	-1.397675012e-07 	0.0163181451 	-1.372355722e-08 	3.110691996e-05
0.6437899523 	0.01641334838 	-0.001911856446 	-1.361743782e-07 	0.01632368245 	-1.947440316e-08 	3.111747568e-05
0.646583068 	0.01641976463 	-0.001593100737 	-1.325293498e-07 	0.01634062352 	-2.493019091e-08 	3.114977007e-05
0.6494073518 	0.01643810746 	-0.001274243187 	-1.288372381e-07 	0.01636882396 	-3.007547423e-08 	3.120352795e-05
0.6522631514 	0.01646800681 	-0.0009552279322 	-1.251021538e-07 	0.01640812874 	-3.489720709e-08 	3.127845377e-05
0.6551508186 	0.01650913166 	-0.0006359993591 	-1.213279404e-07 	0.01645837211 	-3.938532508e-08 	3.137423161e-05
0.658070709 	0.01656119096 	-0.0003165015991 	-1.175148938e-07 	0.01651937627 	-4.353114573e-08 	3.149052249e-05
0.6610231822 	0.01662393354 	3.310353951e-06 	-1.136677916e-07 	0.01659095287 	-4.732839372e-08 	3.162696738e-05
0.6640086017 	0.01669714617 	0.0003234884738 	-1.097943862e-07 	0.0166729038 	-5.077660141e-08 	3.178318864e-05
0.6670273351 	0.01678065346 	0.0006441016759 	-1.058909808e-07 	0.01676501932 	-5.387577417e-08 	3.195878641e-05
0.6700797543 	0.01687431559 	0.0009651965873 	-1.019564406e-07 	0.01686708126 	-5.662782906e-08 	3.215334485e-05
0.6731662352 	0.01697802458 	0.001286809594 	-9.799369684e-08 	0.0169788637 	-5.903307313e-08 	3.236643325e-05
0.6762871577 	0.01709170278 	0.001608985586 	-9.400630971e-08 	0.01710013111 	-6.110323976e-08 	3.259760262e-05
0.6794429063 	0.0172152983 	0.001931762208 	-8.998855069e-08 	0.01723064561 	-6.284513919e-08 	3.284639955e-05
0.6826338695 	0.0173487827 	0.002255173744 	-8.594515416e-08 	0.01737016489 	-6.42571025e-08 	3.311236207e-05
0.6858604404 	0.01749214809 	0.002579258459 	-8.189450553e-08 	0.01751843915 	-6.536588145e-08 	3.339501401e-05
0.6891230163 	0.01764540227 	0.002904052231 	-7.782944714e-08 	0.01767522324 	-6.618475366e-08 	3.369388807e-05
0.6924219988 	0.01780856662 	0.003229583004 	-7.374076095e-08 	0.01784027258 	-6.671502086e-08 	3.400851798e-05
0.6957577944 	0.01798167279 	0.003555874371 	-6.963209889e-08 	0.018013341 	-6.697334626e-08 	3.43384345e-05
0.6991308138 	0.01816475896 	0.003882947659 	-6.550744365e-08 	0.01819418792 	-6.697517172e-08 	3.4683179e-05
0.7025414724 	0.01835786716 	0.004210821531 	-6.137014121e-08 	0.01838257828 	-6.673528995e-08 	3.504230337e-05
0.7059901901 	0.01856104053 	0.004539511896 	-5.722349035e-08 	0.0185782841 	-6.626851586e-08 	3.541537306e-05
0.7094773917 	0.01877432081 	0.004869031867 	-5.307089541e-08 	0.01878108588 	-6.558979607e-08 	3.580196963e-05
0.7130035066 	0.01899774609 	0.005199391805 	-4.891598602e-08 	0.01899077399 	-6.471401383e-08 	3.620169345e-05
0.7165689691 	0.01923134878 	0.005530599376 	-4.476263834e-08 	0.01920714987 	-6.365586029e-08 	3.6614166e-05
0.7201742182 	0.0194751539 	0.00586265963 	-4.061496424e-08 	0.01943002712 	-6.242973572e-08 	3.7039032e-05
0.7238196978 	0.01972917764 	0.006195575067 	-3.647727372e-08 	0.01965923251 	-6.104967203e-08 	3.747596116e-05
0.727505857 	0.0199934261 	0.006529345672 	-3.235401933e-08 	0.01989460686 	-5.952925574e-08 	3.792465009e-05
0.7312331497 	0.02026789456 	0.006863969333 	-2.824972721e-08 	0.02013600571 	-5.788156546e-08 	3.83848234e-05
0.7350020349 	0.02055179777 	0.007198561281 	-2.417899982e-08 	0.02038263948 	-5.612387077e-08 	3.885497591e-05
0.7387709215 	0.02084254312 	0.007530326896 	-2.017884459e-08 	0.02063223151 	-5.428456522e-08 	3.933076769e-05
0.7424982157 	0.0211373238 	0.007856554765 	-1.628483689e-08 	0.0208824348 	-5.239329838e-08 	3.98077247e-05
0.7461843763 	0.02143493268 	0.008176525717 	-1.25072186e-08 	0.02113234946 	-5.046817951e-08 	4.02841315e-05
0.7498298574 	0.02173495206 	0.008490401913 	-8.844346061e-09 	0.02138177369 	-4.852019939e-08 	4.075960341e-05
0.7534351078 	0.02203699455 	0.008798339521 	-5.294106675e-09 	0.02163054068 	-4.655829393e-08 	4.123382244e-05
0.7570005716 	0.02234070187 	0.009100488739 	-1.8539812e-09 	0.02187851448 	-4.458958981e-08 	4.170652942e-05
0.7605266877 	0.02264574403 	0.009396994568 	1.47890353e-09 	0.02212558601 	-4.261964377e-08 	4.217751642e-05
0.7640138905 	0.02295181829 	0.009687997367 	4.707708541e-09 	0.02237166986 	-4.06526414e-08 	4.264662064e-05
0.7674626093 	0.02325864804 	0.009973633346 	7.835810403e-09 	0.02261670146 	-3.869158111e-08 	4.311371897e-05
0.770873269 	0.02356598169 	0.01025403497 	1.086672625e-08 	0.02286063455 	-3.673844227e-08 	4.357872323e-05
0.7742462894 	0.02387359141 	0.01052933132 	1.380403871e-08 	0.02310343901 	-3.479433919e-08 	4.404157603e-05
0.777582086 	0.02418127193 	0.01079964838 	1.665132317e-08 	0.02334509893 	-3.285966178e-08 	4.450224699e-05
0.7808810695 	0.02448883925 	0.01106510926 	1.941207951e-08 	0.02358561086 	-3.093420413e-08 	4.496072958e-05
0.7841436462 	0.02479612938 	0.01132583443 	2.20896699e-08 	0.02382498235 	-2.901728175e-08 	4.541703818e-05
0.787370218 	0.02510299708 	0.01158194186 	2.468726416e-08 	0.0240632306 	-2.71078381e-08 	4.587120555e-05
0.7905611821 	0.02540931457 	0.01183354715 	2.720779322e-08 	0.02430038123 	-2.520454093e-08 	4.632328057e-05
0.7937169314 	0.02571497032 	0.01208076361 	2.965391146e-08 	0.02453646729 	-2.330586904e-08 	4.677332621e-05
0.7968378547 	0.02601986781 	0.01232370237 	3.202796833e-08 	0.02477152824 	-2.141018991e-08 	4.722141772e-05
0.7999243362 	0.02632392439 	0.01256247241 	3.433198841e-08 	0.02500560914 	-1.951582847e-08 	4.766764097e-05
0.8029767561 	0.02662707011 	0.01279718057 	3.656766037e-08 	0.02523875983 	-1.762112729e-08 	4.811209098e-05
0.8059954902 	0.02692924664 	0.01302793163 	3.873633378e-08 	0.02547103422 	-1.572449877e-08 	4.855487053e-05
0.8089809102 	0.02723040623 	0.0132548283 	4.083902325e-08 	0.02570248967 	-1.382446982e-08 	4.899608894e-05
0.8119333839 	0.02753051068 	0.01347797119 	4.287641902e-08 	0.02593318633 	-1.191971921e-08 	4.94358609e-05
0.8148532749 	0.02782953046 	0.01369745886 	4.484890282e-08 	0.02616318662 	-1.000910819e-08 	4.987430539e-05
0.8177409426 	0.02812744373 	0.01391338778 	4.675656857e-08 	0.02639255468 	-8.091704962e-09 	5.031154465e-05
0.8205967427 	0.02842423554 	0.01412585234 	4.859924655e-08 	0.02662135584 	-6.166803604e-09 	5.074770326e-05
0.8234210268 	0.02871989705 	0.01433494481 	5.037653018e-08 	0.02684965621 	-4.233937953e-09 	5.118290722e-05
0.8262141429 	0.02901442471 	0.01454075535 	5.208780478e-08 	0.02707752219 	-2.292890862e-09 	5.161728311e-05
0.8289764348 	0.02930781962 	0.01474337201 	5.373227743e-08 	0.02730502004 	-3.436996188e-10 	5.205095724e-05
0.8317082427 	0.02960008683 	0.01494288068 	5.530900704e-08 	0.02753221547 	1.613341896e-09 	5.248405487e-05
0.8344099031 	0.02989123476 	0.01513936511 	5.681693434e-08 	0.02775917326 	3.577683925e-09 	5.291669949e-05
0.8370817486 	0.03018127456 	0.01533290688 	5.825491135e-08 	0.02798595685 	5.548524081e-09 	5.334901204e-05
0.8397241082 	0.03047021962 	0.0155235854 	5.962172955e-08 	0.02821262799 	7.524812467e-09 	5.378111024e-05
0.8423373074 	0.03075808507 	0.01571147791 	6.091614688e-08 	0.02843924638 	9.505258378e-09 	5.421310788e-05
0.844921668 	0.03104488724 	0.01589665945 	6.213691335e-08 	0.02866586932 	1.148833833e-08 	5.46451142e-05
0.8474775082 	0.03133064329 	0.01607920287 	6.328279502e-08 	0.02889255141 	1.347230536e-08 	5.507723325e-05
0.8500051427 	0.03161537078 	0.01625917882 	6.435259617e-08 	0.02911934416 	1.545519922e-08 	5.550956326e-05
0.8525048829 	0.03189908725 	0.01643665577 	6.534517998e-08 	0.02934629576 	1.743485724e-08 	5.59421961e-05
0.8549770366 	0.03218180991 	0.01661169998 	6.625948769e-08 	0.02957345076 	1.940892617e-08 	5.637521667e-05
0.8574219081 	0.03246355528 	0.01678437551 	6.709455604e-08 	0.0298008498 	2.137487473e-08 	5.680870244e-05
0.8598397987 	0.03274433887 	0.01695474423 	6.784953342e-08 	0.03002852934 	2.333000694e-08 	5.724272292e-05
0.862231006 	0.03302417492 	0.01712286584 	6.852369453e-08 	0.03025652141 	2.527147618e-08 	5.767733918e-05
0.8645958245 	0.03330307611 	0.01728879782 	6.911645356e-08 	0.03048485344 	2.719630002e-08 	5.811260349e-05
0.8669345455 	0.03358105332 	0.01745259551 	6.962737638e-08 	0.030713548 	2.910137597e-08 	5.854855887e-05
0.8692474569 	0.03385811541 	0.01761431209 	7.005619116e-08 	0.03094262262 	3.098349818e-08 	5.898523877e-05
0.8715348435 	0.034134269 	0.01777399858 	7.040279784e-08 	0.03117208969 	3.28393747e-08 	5.942266677e-05
0.8737969871 	0.0344095183 	0.01793170386 	7.066727619e-08 	0.03140195624 	3.466564574e-08 	5.986085632e-05
0.8760341663 	0.03468386493 	0.01808747472 	7.08498923e-08 	0.03163222393 	3.645890249e-08 	6.029981052e-05
0.8782466565 	0.03495730776 	0.01824135582 	7.095110422e-08 	0.03186288885 	3.821570688e-08 	6.073952198e-05
0.8804347301 	0.03522984281 	0.01839338977 	7.097156508e-08 	0.03209394158 	3.993261076e-08 	6.11799727e-05
0.8825986568 	0.03550146313 	0.01854361714 	7.091212421e-08 	0.03232536707 	4.16061794e-08 	6.162113401e-05
0.8847387028 	0.0357721587 	0.01869207644 	7.077384318e-08 	0.0325571447 	4.323300929e-08 	6.20629666e-05
0.8868551318 	0.03604191639 	0.01883880423 	7.055786814e-08 	0.03278924829 	4.48097604e-08 	6.250542054e-05
0.8889482045 	0.03631071986 	0.01898383507 	7.026636289e-08 	0.03302164614 	4.633303011e-08 	6.294843544e-05
0.8910181784 	0.03657854976 	0.01912720179 	6.99035385e-08 	0.03325430112 	4.779935248e-08 	6.339194049e-05
0.8930653087 	0.03684538376 	0.01926893559 	6.947009259e-08 	0.03348717077 	4.92058918e-08 	6.383585477e-05
0.8950898473 	0.03711119607 	0.01940906554 	6.896282483e-08 	0.03372020752 	5.055040775e-08 	6.428008759e-05
0.8970920436 	0.03737595729 	0.01954761838 	6.838342877e-08 	0.03395335891 	5.183023541e-08 	6.472453893e-05
0.8990721441 	0.03763963491 	0.01968461911 	6.773668181e-08 	0.03418656769 	5.304229734e-08 	6.516909968e-05
0.9010303927 	0.03790219363 	0.01982009123 	6.702549463e-08 	0.03441977203 	5.418384069e-08 	6.561365196e-05
0.9029670306 	0.03816359526 	0.01995405663 	6.625225489e-08 	0.03465290575 	5.525253275e-08 	6.605806963e-05
0.9048822962 	0.03842379876 	0.02008653551 	6.541952638e-08 	0.03488589864 	5.624623817e-08 	6.650221884e-05
0.9067764254 	0.03868276038 	0.02021754648 	6.452993758e-08 	0.03511867673 	5.716299338e-08 	6.694595857e-05
0.9086496514 	0.03894043381 	0.02034710661 	6.358618219e-08 	0.03535116258 	5.800102088e-08 	6.738914123e-05
0.910502205 	0.03919677032 	0.02047523142 	6.259100188e-08 	0.03558327564 	5.875873089e-08 	6.783161323e-05
0.9123343142 	0.03945171892 	0.02060193498 	6.154717287e-08 	0.0358149325 	5.943472023e-08 	6.827321559e-05
0.9141462048 	0.03970522656 	0.02072722994 	6.045749379e-08 	0.03604604727 	6.002776873e-08 	6.871378458e-05
0.9159380997 	0.03995723831 	0.02085112757 	5.93247759e-08 	0.03627653193 	6.053683471e-08 	6.91531524e-05
0.9177102197 	0.04020769753 	0.02097363779 	5.815183603e-08 	0.03650629661 	6.096104961e-08 	6.959114774e-05
0.9194627831 	0.04045654611 	0.02109476923 	5.694149274e-08 	0.03673524997 	6.129971221e-08 	7.002759648e-05
0.9211960055 	0.04070372461 	0.02121452927 	5.569656592e-08 	0.03696329951 	6.155228318e-08 	7.046232229e-05
0.9229101006 	0.04094917254 	0.0213329241 	5.441988032e-08 	0.03719035189 	6.171838067e-08 	7.089514723e-05
0.9246052793 	0.04119282848 	0.02144995869 	5.311427286e-08 	0.03741631325 	6.179777737e-08 	7.132589238e-05
0.9262817504 	0.04143463033 	0.02156563691 	5.178260376e-08 	0.03764108948 	6.179039981e-08 	7.175437835e-05
0.9279397204 	0.04167451547 	0.02167996151 	5.042777151e-08 	0.03786458652 	6.169633048e-08 	7.218042583e-05
0.9295793934 	0.04191242096 	0.02179293419 	4.905273111e-08 	0.03808671062 	6.151581338e-08 	7.26038561e-05
0.9312009714 	0.04214828368 	0.02190455559 	4.766051515e-08 	0.03830736857 	6.124926363e-08 	7.302449148e-05
0.9328046541 	0.04238204053 	0.02201482535 	4.625425706e-08 	0.0385264679 	6.089728119e-08 	7.344215569e-05
0.9343906389 	0.04261362852 	0.02212374211 	4.483721538e-08 	0.03874391709 	6.046066927e-08 	7.385667428e-05
0.9359591211 	0.04284298494 	0.02223130356 	4.341279822e-08 	0.03895962572 	5.994045726e-08 	7.426787489e-05