0 	1.227009782 	-5.012621651e-14 	-2.886242947e-21
0.0003162438639 	1.227011025 	-6.373779576e-05 	1.961049081e-09
0.0006324872147 	1.227017859 	-0.0001208310438 	3.40013621e-09
0.0009487300516 	1.227033343 	-0.0001765185137 	4.494505007e-09
0.001264972374 	1.227056817 	-0.0002345821859 	5.348487414e-09
0.001581214182 	1.227087875 	-0.0002926453899 	5.893428813e-09
0.001897455474 	1.227126378 	-0.0003508342378 	6.131285341e-09
0.002213696249 	1.227172224 	-0.000409034139 	6.058938893e-09
0.002529936509 	1.227225339 	-0.0004672613318 	5.6761806e-09
0.002846176251 	1.227285653 	-0.0005255004756 	4.982215079e-09
0.003162415477 	1.227353102 	-0.0005837461608 	3.976417344e-09
0.003478654184 	1.227427621 	-0.0006419931484 	2.658154539e-09
0.003794892374 	1.227509146 	-0.0007002382899 	1.026793618e-09
0.003968138875 	1.227557607 	-0.0007321438382 	2.884134175e-09
0.004111130046 	1.227597434 	-0.0007584799993 	9.573804545e-10
0.004427367199 	1.227692377 	-0.0008167167655 	3.313023219e-09
0.004743603834 	1.227794115 	-0.0008749460024 	5.99719658e-09
0.005059839951 	1.22790257 	-0.0009331663779 	9.010668682e-09
0.005376075549 	1.228017666 	-0.0009913767417 	1.235423429e-08
0.005692310628 	1.228139319 	-0.001049576083 	1.60287109e-08
0.006008545189 	1.228267446 	-0.001107763499 	2.003493457e-08
0.006324779232 	1.228401961 	-0.001165938179 	2.437375465e-08
0.006641012756 	1.228542774 	-0.001224099381 	2.904602878e-08
0.006957245763 	1.228689794 	-0.001282246428 	3.405261724e-08
0.007273478251 	1.22884293 	-0.001340378691 	3.939437709e-08
0.007589710222 	1.229002085 	-0.001398495598 	4.507215641e-08
0.007905941675 	1.229167165 	-0.001456596633 	5.108678751e-08
0.008222172612 	1.229338073 	-0.001514681309 	5.743908208e-08
0.008538403032 	1.229514711 	-0.001572749009 	6.412982866e-08
0.008854632936 	1.229696981 	-0.001630798371 	7.115981915e-08
0.009170862325 	1.229884775 	-0.00168882956 	7.852974104e-08
0.009487091198 	1.230105682 	-0.001754983167 	8.665656462e-08
0.009978436983 	1.230393199 	-0.001837600882 	9.893389882e-08
0.01047901633 	1.230728314 	-0.001929364105 	1.126822652e-07
0.01098900275 	1.231086347 	-0.002022802617 	1.27572411e-07
0.01150857298 	1.231467937 	-0.002117949153 	1.436607719e-07
0.01203790712 	1.231873742 	-0.002214832219 	1.610058841e-07
0.01257718863 	1.232304441 	-0.002313482225 	1.796682697e-07
0.01312660441 	1.232760736 	-0.002413929948 	1.997104373e-07
0.01368634489 	1.233243348 	-0.002516206653 	2.211968578e-07
0.01425660407 	1.233753019 	-0.002620343955 	2.441939282e-07
0.01483757959 	1.234290516 	-0.002726373844 	2.687699211e-07
0.01542947281 	1.234856625 	-0.002834328661 	2.949949203e-07
0.01603248888 	1.235452155 	-0.002944241082 	3.229407444e-07
0.01664683679 	1.23607794 	-0.003056144095 	3.526808529e-07
0.01727272946 	1.236734834 	-0.003170070975 	3.842902373e-07
0.01791038382 	1.237423719 	-0.003286055207 	4.17845293e-07
0.01856002087 	1.2381455 	-0.003404130603 	4.534236714e-07
0.01922186577 	1.238901106 	-0.003524331127 	4.91104139e-07
0.0198961479 	1.239692253 	-0.003646806758 	5.309887418e-07
0.02058563617 	1.240521337 	-0.003771791837 	5.73292365e-07
0.02128991459 	1.241389349 	-0.003899291554 	6.181236593e-07
0.0220074278 	1.242296123 	-0.00402914679 	6.654900702e-07
0.02273842446 	1.2432422 	-0.004161311707 	7.154739862e-07
0.02348315793 	1.244228699 	-0.00429582071 	7.681760633e-07
0.0242418863 	1.245256771 	-0.004432707719 	8.236989464e-07
0.02501487254 	1.246327601 	-0.004572006592 	8.8214725e-07
0.02580238453 	1.247442412 	-0.004713750837 	9.436274634e-07
0.0266046952 	1.248602462 	-0.004857973599 	1.00824787e-06
0.02742208261 	1.249809052 	-0.00500470756 	1.076118457e-06
0.02825483002 	1.25106352 	-0.005153984871 	1.147350824e-06
0.02910322603 	1.252367247 	-0.005305837061 	1.222058085e-06
0.02996756467 	1.253721658 	-0.005460294954 	1.300354774e-06
0.03084814547 	1.255128221 	-0.00561738858 	1.330941972e-06
0.03174527359 	1.256588451 	-0.005777147076 	1.324330356e-06
0.03265925994 	1.25810391 	-0.005939598588 	1.314902332e-06
0.03359042126 	1.259676207 	-0.006104770175 	1.302520857e-06
0.03453908024 	1.261307003 	-0.006272687702 	1.28704648e-06
0.03550556561 	1.262998007 	-0.006443375734 	1.268337487e-06
0.03649021232 	1.264750983 	-0.006616857405 	1.246250061e-06
0.03749336157 	1.266567747 	-0.006793154379 	1.220638448e-06
0.03851536099 	1.268450167 	-0.006972286752 	1.191355095e-06
0.03955656474 	1.270400946 	-0.007154344226 	1.15826564e-06
0.04061897128 	1.272425122 	-0.007339616126 	1.121133302e-06
0.04170592738 	1.27452642 	-0.007528246758 	1.07957213e-06
0.04281330888 	1.27670418 	-0.007719979706 	1.033743803e-06
0.04394149955 	1.278958443 	-0.007914631937 	9.834584617e-07
0.04509089038 	1.281291447 	-0.008112210828 	9.285626993e-07
0.04626187967 	1.283705484 	-0.008312720676 	8.689027434e-07
0.04745487324 	1.286202907 	-0.008516163635 	8.043244399e-07
0.04867028451 	1.288786129 	-0.008722538921 	7.346733561e-07
0.04990853466 	1.291457622 	-0.008931842858 	6.597948483e-07
0.05117005281 	1.294219917 	-0.009144068702 	5.79534114e-07
0.05245527612 	1.297075607 	-0.009359206523 	4.937362174e-07
0.05376464996 	1.300027339 	-0.00957724306 	4.022460892e-07
0.05509862807 	1.30307782 	-0.009798161589 	3.049084998e-07
0.05645767272 	1.306229817 	-0.01002194172 	2.015680074e-07
0.05784225485 	1.309486149 	-0.01024855954 	9.206888342e-08
0.05896828177 	1.312171624 	-0.01043173268 	1.991359206e-07
0.05925285427 	1.31285013 	-0.01047805288 	2.449906443e-08
0.06069116533 	1.316328596 	-0.01071075657 	1.50775838e-07
0.06216301825 	1.319929325 	-0.01094677987 	2.845391949e-07
0.06366252918 	1.324134923 	-0.0112164415 	4.263695653e-07
0.06596449751 	1.329467467 	-0.01154963921 	6.498133668e-07
0.06829214032 	1.335455966 	-0.01191268421 	8.868135088e-07
0.07064574395 	1.341627464 	-0.01227520217 	1.13619238e-06
0.07302559793 	1.347984527 	-0.01263698879 	1.397846165e-06
0.07543199503 	1.354529704 	-0.01299782257 	1.671670366e-06
0.07786523129 	1.36126555 	-0.01335748237 	1.95755996e-06
0.08032560603 	1.368202288 	-0.01371612756 	2.255481077e-06
0.08282424014 	1.375351972 	-0.01407395333 	2.566606328e-06
0.08535191995 	1.382710747 	-0.01443032286 	2.889574431e-06
0.08790779437 	1.390273119 	-0.01478456263 	3.22401306e-06
0.09049217788 	1.39804106 	-0.01513636853 	3.534033263e-06
0.09310538849 	1.406017419 	-0.01548546589 	3.31819573e-06
0.09574774776 	1.41420512 	-0.01583156944 	3.089647036e-06
0.09841958081 	1.422608776 	-0.01617444541 	2.84852744e-06
0.1011232676 	1.431241134 	-0.01651414739 	2.594750918e-06
0.1038669738 	1.440112681 	-0.01685057411 	2.327526936e-06
0.1066412871 	1.449217282 	-0.01718296763 	2.048432057e-06
0.109446549 	1.458550756 	-0.01751067391 	1.757648598e-06
0.1122831048 	1.468116632 	-0.01783331101 	1.455445873e-06
0.1151513035 	1.477918544 	-0.01815047845 	1.142132797e-06
0.1180514982 	1.487961133 	-0.01846178271 	8.180640882e-07
0.1209850947 	1.498258518 	-0.0187670736 	4.835024538e-07
0.1239620669 	1.508824377 	-0.01906611042 	1.377212789e-07
0.1251390251 	1.513057234 	-0.01918023168 	3.060032008e-06
0.1269722515 	1.519651339 	-0.01935821206 	2.243497026e-07
0.1300160189 	1.530735021 	-0.01964254972 	5.998282062e-07
0.133093744 	1.542080338 	-0.01991847281 	9.834504593e-07
0.1362058055 	1.553691566 	-0.02018541076 	1.374429476e-06
0.1393525864 	1.565578838 	-0.02044288807 	1.77190937e-06
0.1425407528 	1.577758039 	-0.02069048566 	2.175787108e-06
0.1457695841 	1.590232888 	-0.02092747626 	2.584545738e-06
0.1490344407 	1.602996791 	-0.0211529387 	2.996266995e-06
0.1523357245 	1.616049077 	-0.02136608027 	3.409714357e-06
0.155673842 	1.629393473 	-0.02156618055 	3.823592615e-06
0.1590492042 	1.643038582 	-0.02175257117 	4.236559302e-06
0.1624675126 	1.656999167 	-0.02192462214 	4.647865674e-06
0.1659296299 	1.671278638 	-0.02208152851 	4.722737015e-06
0.1694303785 	1.685867302 	-0.02222237508 	4.321410507e-06
0.1729701892 	1.700760218 	-0.02234636522 	3.916204399e-06
0.176549498 	1.715956757 	-0.02245279716 	3.50848145e-06
0.1801687455 	1.731463708 	-0.02254105887 	3.099642493e-06
0.1838369307 	1.747289922 	-0.02261057294 	2.690128735e-06
0.1875479555 	1.763421939 	-0.02266073765 	2.282611272e-06
0.1913003917 	1.779840449 	-0.02269110112 	1.878694428e-06
0.1950947013 	1.796532307 	-0.02270140333 	1.479581479e-06
0.1989313516 	1.81348846 	-0.02269155602 	1.086276117e-06
0.2028158131 	1.83070268 	-0.02266162862 	6.990102324e-07
0.206748532 	1.848153349 	-0.02261191173 	3.186737968e-07
0.2101444497 	1.863225359 	-0.02255307415 	3.205875152e-06
0.2107251389 	1.865803218 	-0.0225430545 	5.629091066e-08
0.2147461234 	1.883616945 	-0.02245618397 	4.372817796e-07
0.2188119806 	1.901565959 	-0.02235211058 	8.123741296e-07
0.2229278897 	1.919623372 	-0.0222321473 	1.183387435e-06
0.2270943661 	1.937748154 	-0.02209790879 	1.551613272e-06
0.2313073414 	1.955886258 	-0.02195130941 	1.918539762e-06
0.2355673346 	1.973988321 	-0.0217943815 	2.28634533e-06
0.2398748701 	1.992016053 	-0.02162913334 	2.657157945e-06
0.2442372224 	2.009935212 	-0.02145752711 	3.033324581e-06
0.248650206 	2.027697563 	-0.02128159182 	3.415435654e-06
0.2531124416 	2.045255612 	-0.02110322858 	3.804259926e-06
0.2576244788 	2.062575254 	-0.0209240123 	4.200189796e-06
0.2621892502 	2.079634184 	-0.02074516201 	4.603238525e-06
0.2668106401 	2.096410598 	-0.02056763817 	4.757383948e-06
0.2714836098 	2.112875893 	-0.02039221544 	4.431134543e-06
0.2762087349 	2.129010377 	-0.02021932314 	4.100870855e-06
0.2809868679 	2.144808639 	-0.02004900905 	3.765829018e-06
0.2858254639 	2.160269169 	-0.01988108855 	3.425566041e-06
0.2907180655 	2.175379135 	-0.01971534473 	3.081307471e-06
0.2956652752 	2.190130424 	-0.0195513933 	2.733504228e-06
0.3006677021 	2.204525841 	-0.01938864219 	2.382791367e-06
0.3057325688 	2.218570007 	-0.01922642892 	2.029753089e-06
0.3108541272 	2.232256347 	-0.01906419389 	1.676197333e-06
0.3160328503 	2.245580541 	-0.01890135012 	1.322857314e-06
0.3212699707 	2.258545411 	-0.01873722874 	9.703192763e-07
0.3265710904 	2.271153234 	-0.01857118669 	6.192958189e-07
0.3319313799 	2.283397455 	-0.01840271951 	2.710767542e-07
0.3361906379 	2.292730217 	-0.01826802566 	4.415554793e-06
0.3373514992 	2.295273963 	-0.01823139086 	7.719357154e-08
0.3428342305 	2.306782821 	-0.01805684198 	4.336560727e-07
0.3483815784 	2.317921732 	-0.01787832481 	7.856859308e-07
0.3539908448 	2.328683684 	-0.01769545489 	1.132666848e-06
0.3596627202 	2.339064949 	-0.01750781532 	1.474479563e-06
0.3654019652 	2.349063873 	-0.0173149717 	1.810910602e-06
0.3712061637 	2.35867399 	-0.01711660226 	2.140870954e-06
0.3770751474 	2.367889448 	-0.01691240064 	2.46413619e-06
0.3830113807 	2.376707255 	-0.01670201804 	2.780565744e-06
0.3890165364 	2.385123333 	-0.01648515852 	3.089158802e-06
0.3950887203 	2.393131748 	-0.01626160375 	3.389329183e-06
0.4012290711 	2.400729014 	-0.01603110175 	3.680878043e-06
0.4074414565 	2.407912722 	-0.01579340494 	3.963032963e-06
0.4137231831 	2.414678098 	-0.01554838441 	4.234877618e-06
0.420075024 	2.421022372 	-0.01529589381 	4.496187376e-06
0.4265009097 	2.426944413 	-0.01503577553 	4.746369324e-06
0.4329987794 	2.4324416 	-0.01476799972 	4.984372313e-06
0.4395691754 	2.437512821 	-0.01449254423 	5.210001759e-06
0.4462154458 	2.442158524 	-0.01420938577 	5.087852238e-06
0.452936325 	2.446378695 	-0.01391862614 	4.807154918e-06
0.4597322186 	2.450174689 	-0.01362039356 	4.532926356e-06
0.4666062465 	2.453549362 	-0.01331483031 	4.26550807e-06
0.4735572746 	2.456505899 	-0.01300220684 	4.005695329e-06
0.4805859366 	2.459049126 	-0.0126828231 	3.753399553e-06
0.4876951865 	2.461185571 	-0.01235700472 	3.509104712e-06
0.4948837842 	2.462919333 	-0.01202599032 	3.27347413e-06
0.5020728327 	2.464252768 	-0.01169321125 	3.048704975e-06
0.5091839357 	2.465202659 	-0.01136214673 	2.837272158e-06
0.5162165766 	2.465800463 	-0.01103416191 	2.63879188e-06
0.5231722107 	2.466079055 	-0.01070972541 	2.452332997e-06
0.5300519365 	2.466068735 	-0.01038932147 	2.27782653e-06
0.5368557511 	2.465796811 	-0.01007334689 	2.114622301e-06
0.5435850468 	2.465287478 	-0.009762082699 	1.961866017e-06
0.5502406551 	2.464562177 	-0.009455834839 	1.819427381e-06
0.5568228235 	2.463639884 	-0.009154824562 	1.686582311e-06
0.5633327798 	2.462537294 	-0.008859219087 	1.562606527e-06
0.5697713528 	2.461269128 	-0.008569150425 	1.447309301e-06
0.5761388792 	2.459848398 	-0.008284718679 	1.340045592e-06
0.5824363843 	2.458286505 	-0.008005975 	1.240140182e-06
0.5886648223 	2.456593461 	-0.00773294345 	1.147394987e-06
0.5948245315 	2.454778112 	-0.007465629118 	1.06129252e-06
0.6009163367 	2.452848151 	-0.007204001596 	9.812207466e-07
0.6069413562 	2.450810244 	-0.006948007536 	9.069399095e-07
0.6128998905 	2.448670278 	-0.006697586874 	8.381078425e-07
0.6187926729 	2.446433308 	-0.006452655681 	7.742044976e-07
0.6246207232 	2.444103624 	-0.006213111964 	7.148879363e-07
0.630384542 	2.441684953 	-0.005978851393 	6.600107812e-07
0.6360847567 	2.439180454 	-0.005749758284 	6.09152059e-07
0.6417221536 	2.436592717 	-0.00552570435 	5.619311489e-07
0.6472975325 	2.433923872 	-0.005306558136 	5.182475913e-07
0.6528113863 	2.431175681 	-0.005092187594 	4.778399421e-07
0.6582643935 	2.428349493 	-0.004882453457 	4.403807757e-07
0.663657363 	2.425446275 	-0.004677213124 	4.0564293e-07
0.6689908816 	2.422466718 	-0.004476327078 	3.735654236e-07
0.6742655434 	2.419411242 	-0.004279655642 	3.438956581e-07
0.6794819976 	2.416279967 	-0.004087056973 	3.163880969e-07
0.6846410163 	2.413072755 	-0.003898391063 	2.909235817e-07
0.6897431149 	2.409789296 	-0.00371352325 	2.674323945e-07
0.6947889098 	2.40642908 	-0.003532320426 	2.457144427e-07
0.6997790223 	2.402991376 	-0.003354650767 	2.255861738e-07
0.7047141634 	2.399475276 	-0.003180386779 	2.069772189e-07
0.7095948444 	2.395879761 	-0.003009407182 	1.898302235e-07
0.7144216649 	2.392203666 	-0.002841594129 	1.73994747e-07
0.719195219 	2.388445673 	-0.002676833235 	1.593335148e-07
0.7239161526 	2.38460434 	-0.002515015688 	1.457819366e-07
0.7285849967 	2.380678148 	-0.002356039287 	1.333174585e-07
0.7332023176 	2.376665489 	-0.002199806847 	1.218285153e-07
0.7377686838 	2.372564653 	-0.002046226041 	1.112121957e-07
0.7422846824 	2.36837385 	-0.001895210765 	1.013946643e-07
0.7467508634 	2.364091241 	-0.001746681785 	9.238030237e-08
0.7511677575 	2.359714945 	-0.001600566094 	8.409620699e-08
0.7555359085 	2.355243031 	-0.0014567966 	7.646496164e-08
0.7598558555 	2.350673527 	-0.001315312675 	6.941626697e-08
0.764128156 	2.346004437 	-0.001176060691 	6.293667881e-08
0.768353309 	2.341233771 	-0.001038994272 	5.700729091e-08
0.7725318348 	2.336359536 	-0.0009040736056 	5.156962443e-08
0.776664248 	2.331379737 	-0.0007712655649 	4.657053608e-08
0.7807510619 	2.326292396 	-0.00064054417 	4.19645492e-08
0.7847927877 	2.321095566 	-0.0005118908376 	3.775637602e-08
0.7887899104 	2.315787348 	-0.0003852941388 	3.392078966e-08
0.7927429222 	2.310365888 	-0.0002607495917 	3.041747058e-08
0.7966523098 	2.304829389 	-0.0001382597283 	2.720989395e-08
0.8005185571 	2.299176117 	-1.783421898e-05 	2.426661046e-08
0.8043421454 	2.293404418 	0.000100510027 	2.159188359e-08
0.8081235378 	2.287512733 	0.0002167491734 	1.917000048e-08
0.8118631999 	2.281499595 	0.0003308526841 	1.697310517e-08
0.8155615922 	2.275363639 	0.0004427833695 	1.497605128e-08
0.8192191701 	2.269103612 	0.0005524975823 	1.315622383e-08
0.8228363893 	2.262718376 	0.0006599451978 	1.150781147e-08
0.8264136904 	2.256206926 	0.0007650698993 	1.003066216e-08
0.8299515134 	2.249568386 	0.0008678098173 	8.705614259e-09
0.833450294 	2.242802012 	0.0009680977141 	7.515294989e-09
0.836910463 	2.235907198 	0.001065861278 	6.444142012e-09
0.8403324473 	2.228883478 	0.001161023463 	5.479014835e-09
0.8437166697 	2.221730529 	0.001253502864 	4.622615606e-09
0.8470635448 	2.214448168 	0.001343214323 	3.868135018e-09
0.8503734847 	2.207036355 	0.001430069414 	3.203524932e-09
0.853646897 	2.19949518 	0.001513976907 	2.618022328e-09
0.8568841848 	2.191824868 	0.001594843387 	2.102068926e-09
0.860085747 	2.184025762 	0.00167257378 	1.647526477e-09
0.8632519787 	2.176098323 	0.001747071952 	1.255466615e-09
0.8663832688 	2.168043116 	0.001818241445 	9.21919345e-10
0.8694800027 	2.159860797 	0.001885986093 	6.394105956e-10
0.8725425619 	2.151552095 	0.001950210661 	4.013154881e-10
0.8755713235 	2.143117799 	0.002010821531 	2.018021029e-10
0.8785666604 	2.134558735 	0.002067727376 	3.577643483e-11
0.8793111533 	2.13237649 	0.002081075762 	5.063370542e-07
0.881528942 	2.125875745 	0.002120839572 	1.082100935e-10
0.8844585328 	2.117069663 	0.002170073477 	2.224469252e-10
0.8873557934 	2.108141285 	0.002215348606 	3.084342079e-10
0.8902210805 	2.099091339 	0.002256589218 	3.704146026e-10
0.893054747 	2.089920452 	0.002293724975 	4.120921615e-10
0.8958571419 	2.080629114 	0.002326691477 	4.366730509e-10
0.8986286103 	2.071217634 	0.002355430743 	4.469055878e-10
0.9013694936 	2.061686095 	0.00237989161 	4.443318918e-10
0.9040801293 	2.052034311 	0.002400030119 	4.294411851e-10
0.906760851 	2.042261768 	0.002415809902 	4.046194254e-10
0.909411989 	2.032367569 	0.002427202008 	3.719955314e-10
0.9120338697 	2.022350371 	0.002434185854 	3.333656274e-10
0.9146268159 	2.01220831 	0.002436745946 	2.9019059e-10
0.9171911471 	2.00193894 	0.002434884919 	2.436131951e-10
0.9197271789 	1.991539107 	0.002428596227 	1.95204545e-10
0.9222352237 	1.981004925 	0.002417896546 	1.446205594e-10
0.9247155904 	1.970331679 	0.002402814073 	9.307865194e-11
0.9271685843 	1.959513635 	0.002383358158 	4.237769107e-11
0.9295945076 	1.948544076 	0.002359588355 	-7.626089789e-12
0.931993659 	1.938353052 	0.002334053956 	-5.219340567e-11
0.9335564697 	1.930011125 	0.002310747241 	-8.692064741e-11
0.9350904493 	1.922613402 	0.002288405873 	-1.164793895e-10
0.9365961296 	1.915227325 	0.002264597955 	-1.447336003e-10
0.9380740326 	1.907853503 	0.002239387916 	-1.716579731e-10
0.939524671 	1.900492428 	0.002212852263 	-1.972421848e-10
0.9409485475 	1.893144421 	0.002185064791 	-2.214013081e-10
0.942346156 	1.885809638 	0.002156099332 	-2.440827627e-10
0.9437179811 	1.878488067 	0.00212602834 	-2.652811468e-10
0.9450644983 	1.871179528 	0.002094923219 	-2.850031875e-10
0.9463861746 	1.863883675 	0.002062854139 	-3.032656224e-10
0.9476834683 	1.856599992 	0.002029889987 	-3.20093322e-10
0.9489568292 	1.849327801 	0.00199609828 	-3.355176563e-10
0.9502066987 	1.842066259 	0.001961545103 	-3.495750859e-10
0.9514335103 	1.83481436 	0.001926295051 	-3.623059473e-10
0.9526376894 	1.827570936 	0.001890411182 	-3.737534195e-10
0.9538196534 	1.82033466 	0.001853954981 	-3.839626435e-10
0.9549798122 	1.813104042 	0.001816986327 	-3.929799867e-10
0.9561185681 	1.805877429 	0.001779563466 	-4.008524261e-10
0.957236316 	1.798653005 	0.001741742993 	-4.076270378e-10
0.9583334433 	1.791428788 	0.001703579841 	-4.133505849e-10
0.9594103305 	1.784202623 	0.00166512727 	-4.180665901e-10
0.960467351 	1.776972184 	0.001626436865 	-4.217586835e-10
0.9615048713 	1.76973496 	0.001587558541 	-4.24444909e-10
0.9625232512 	1.762488253 	0.001548540543 	-4.261695604e-10
0.9635228437 	1.755229169 	0.001509429451 	-4.269768846e-10
0.9645039954 	1.747954607 	0.001470270248 	-4.269082626e-10
0.9654670466 	1.740661247 	0.001431106342 	-4.260042538e-10
0.9664123311 	1.733345538 	0.001391979489 	-4.2430896e-10
0.9673401768 	1.726003684 	0.001352929805 	-4.218664097e-10
0.9682509054 	1.718631629 	0.001313995834 	-4.187174581e-10
0.9691448325 	1.71122503 	0.00127521459 	-4.149013886e-10
0.9700222683 	1.703779245 	0.001236621575 	-4.104566311e-10
0.9708835169 	1.696289302 	0.00119825082 	-4.054205852e-10
0.9717288769 	1.688749873 	0.001160134908 	-3.998295797e-10
0.9725586415 	1.681155245 	0.001122305019 	-3.93718872e-10
0.9733730984 	1.673499285 	0.001084790957 	-3.871226439e-10
0.97417253 	1.665775398 	0.001047621196 	-3.800740133e-10
0.9749572134 	1.657976487 	0.001010822909 	-3.726050478e-10
0.9757274208 	1.650094901 	0.0009744220192 	-3.64746787e-10
0.9764834191 	1.642122383 	0.0009384432292 	-3.565292712e-10
0.9772254706 	1.634050002 	0.0009029100688 	-3.47981577e-10
0.9779538326 	1.625868085 	0.0008678449341 	-3.391318557e-10
0.9786687575 	1.617566137 	0.0008332691287 	-3.300073758e-10
0.9793704933 	1.609132746 	0.0007992029047 	-3.206334359e-10
0.9800592833 	1.600555482 	0.0007656655038 	-3.110249685e-10
0.9807353663 	1.591820777 	0.0007326751976 	-3.012054789e-10
0.9813989767 	1.582913784 	0.0007002493255 	-2.912008037e-10
0.9820503447 	1.573818223 	0.0006684043329 	-2.810361807e-10
0.982689696 	1.564516199 	0.0006371558074 	-2.707362836e-10
0.9833172525 	1.554987985 	0.0006065185103 	-2.603252544e-10
0.9839332316 	1.545211779 	0.000576506415 	-2.498267357e-10
0.9845378469 	1.535163412 	0.0005471327074 	-2.392639025e-10
0.9851313081 	1.524816005 	0.0005184098985 	-2.286595027e-10
0.985713821 	1.514139565 	0.0004903495337 	-2.180358568e-10
0.9862855876 	1.503100497 	0.0004629634172 	-2.074150119e-10
0.986846806 	1.491661022 	0.0004362597426 	-1.968183722e-10
0.987397671 	1.479778488 	0.000410255798 	-1.862679657e-10
0.9879383734 	1.467404409 	0.0003849305135 	-1.757815076e-10
0.9884691008 	1.454484147 	0.0003603508608 	-1.653853532e-10
0.9889900372 	1.442131439 	0.0003385173143 	-1.559708227e-10
0.98932531 	1.43167299 	0.0003211680333 	-1.483919647e-10
0.9896605828 	1.422022779 	0.0003060783626 	-1.41714427e-10
0.9899958556 	1.411893563 	0.0002911479017 	-1.350249212e-10
0.9903311284 	1.401235295 	0.0002763546758 	-1.283269368e-10
0.9906664012 	1.389991087 	0.0002617221579 	-1.216301631e-10
0.991001674 	1.378095521 	0.0002472568616 	-1.14943128e-10
0.9913369469 	1.365473041 	0.0002329701892 	-1.082757134e-10
0.9916722197 	1.352035853 	0.000218872341 	-1.016386157e-10
0.9920074925 	1.337681292 	0.0002049741934 	-9.504360983e-11
0.9923427653 	1.322288447 	0.0001912866313 	-8.850352992e-11
0.9926780381 	1.305713813 	0.0001778205563 	-8.203233205e-11
0.9930133109 	1.287785589 	0.0001645866262 	-7.564512506e-11
0.9933485837 	1.268296148 	0.0001515949254 	-6.9358193e-11
0.9936838566 	1.246991924 	0.0001388544033 	-6.318901186e-11
0.9940191294 	1.223559674 	0.0001263719485 	-5.715626609e-11
0.9943544022 	1.197607515 	0.0001141508849 	-5.127986849e-11
0.994689675 	1.168638413 	0.0001021888211 	-4.558101825e-11
0.9950249478 	1.136012636 	9.047570553e-05 	-4.008235546e-11
0.9953602206 	1.098894108 	7.899345886e-05 	-3.480815298e-11
0.9956954934 	1.056173702 	6.771229156e-05 	-2.978377375e-11
0.9960307663 	1.006361622 	5.656741477e-05 	-2.50373414e-11
0.9963660391 	0.9474473414 	4.561827642e-05 	-2.061835224e-11
0.9967013119 	0.8767654593 	3.662033517e-05 	-1.667637508e-11
0.9970365847 	0.7910729191 	3.720684347e-05 	-1.314217577e-11
0.9973718575 	0.687470661 	4.63862405e-05 	-8.899867043e-12
0.9977071303 	0.565783319 	3.332583004e-05 	-4.654581839e-12
0.9980424031 	0.4304647106 	-3.328528314e-06 	-3.042647686e-12
0.998377676 	0.2883538342 	-1.684579531e-05 	-2.540941865e-12
0.9987129488 	0.1442867818 	-6.454530225e-06 	-1.09730735e-12
0.9990482216 	0.06086277423 	-9.667576088e-07 	-2.174759976e-13
0.9990482216 	0.06086277423 	-9.667576088e-07 	-2.174759974e-13
