5.591349661e-37 	1.749568169 	-7.147394758e-14 	-4.115434826e-21
0.0003212932665 	1.749565193 	-3.248263558e-05 	1.539144511e-09
0.000642586183 	1.749559682 	-6.167910973e-05 	2.858333768e-09
0.0009638787489 	1.749554753 	-9.006786834e-05 	4.081571686e-09
0.001285170964 	1.749549898 	-0.0001196937773 	5.300801779e-09
0.001606462828 	1.749544862 	-0.0001493228691 	6.458943955e-09
0.00192775434 	1.749539526 	-0.0001790205226 	7.558644815e-09
0.0022490455 	1.74953382 	-0.000208725088 	8.597106948e-09
0.002570336307 	1.7495277 	-0.0002384463428 	9.574623158e-09
0.002891626762 	1.749521141 	-0.0002681766529 	1.049078499e-08
0.003212916865 	1.749514124 	-0.0002979136839 	1.134542484e-08
0.003534206614 	1.749506641 	-0.0003276550165 	1.213839267e-08
0.003855496009 	1.749498685 	-0.0003573993353 	1.286959758e-08
0.004176785052 	1.749490257 	-0.000387145645 	1.353897512e-08
0.004498073741 	1.749481358 	-0.0004168932275 	1.41464841e-08
0.004819362076 	1.749471993 	-0.0004466415207 	1.469210128e-08
0.005140650058 	1.74946217 	-0.0004763900777 	1.51758193e-08
0.005461937686 	1.749451896 	-0.0005061385295 	1.559764487e-08
0.00578322496 	1.749441183 	-0.0005358865629 	1.595759776e-08
0.00610451188 	1.749430041 	-0.0005656339043 	1.625571012e-08
0.006425798447 	1.749418486 	-0.0005953803092 	1.649202591e-08
0.00674708466 	1.74940653 	-0.0006251255534 	1.666660061e-08
0.00706837052 	1.749394191 	-0.0006548694275 	1.677950093e-08
0.007389656027 	1.749381486 	-0.0006846117325 	1.683080463e-08
0.00771094118 	1.749368432 	-0.0007143522761 	1.682060054e-08
0.008032225981 	1.749355049 	-0.0007440908619 	1.674898875e-08
0.008353510429 	1.749341358 	-0.0007738273228 	1.661607984e-08
0.008674794525 	1.74932738 	-0.000803561528 	1.642199223e-08
0.008996078268 	1.74931314 	-0.0008332936783 	1.616684066e-08
0.00931736166 	1.749298646 	-0.000863022425 	1.585077987e-08
0.009638644701 	1.749282048 	-0.0008969169074 	1.554545439e-08
0.01013784382 	1.749264267 	-0.0009392594439 	1.477364343e-08
0.01064642451 	1.749250152 	-0.000986305132 	1.390467326e-08
0.01116456308 	1.749241938 	-0.00103422214 	1.286477404e-08
0.01169243912 	1.749239928 	-0.001083024854 	1.164582865e-08
0.01223023562 	1.749244459 	-0.001132727736 	1.0239437e-08
0.012778139 	1.749255894 	-0.001183345076 	8.636993328e-09
0.01333633918 	1.749274622 	-0.001234891183 	6.829675986e-09
0.01390502967 	1.749301059 	-0.001287380438 	4.808454974e-09
0.01448440758 	1.749335645 	-0.001340827276 	2.564099207e-09
0.01507467376 	1.749378848 	-0.001395246173 	8.718651931e-11
0.01509467593 	1.749380587 	-0.001397088973 	4.590273217e-10
0.0156760328 	1.749431033 	-0.001450651876 	2.643029858e-09
0.01628869317 	1.749492839 	-0.001507058655 	5.626481134e-09
0.01691286722 	1.749564815 	-0.00156448098 	8.8727345e-09
0.01754877133 	1.749647533 	-0.001622933305 	1.239186185e-08
0.01819662591 	1.749741588 	-0.001682430016 	1.619404913e-08
0.01885665553 	1.749847606 	-0.001742985469 	2.028957631e-08
0.01952908899 	1.749966235 	-0.001804613878 	2.468879217e-08
0.02021415938 	1.750098241 	-0.001867369328 	2.940314802e-08
0.02091383357 	1.750244526 	-0.001931334642 	3.446307617e-08
0.02162790732 	1.750405873 	-0.001996513412 	3.988362086e-08
0.02235540062 	1.75058292 	-0.002062852788 	4.566566107e-08
0.02309656566 	1.750776395 	-0.002130338746 	5.182156439e-08
0.02385165934 	1.750987117 	-0.002198984585 	5.836480647e-08
0.0246209434 	1.751215935 	-0.002268803311 	6.530913244e-08
0.02540468448 	1.751463725 	-0.002339807731 	7.266856634e-08
0.02620315426 	1.751731391 	-0.002412010361 	8.045740585e-08
0.02701662949 	1.752019863 	-0.002485423417 	8.869022374e-08
0.02784539215 	1.752330099 	-0.002560058793 	9.738186823e-08
0.0286897295 	1.752663086 	-0.002635928039 	1.065474645e-07
0.0295499342 	1.753019836 	-0.00271304234 	1.162024173e-07
0.03042630441 	1.753401388 	-0.002791412498 	1.263624142e-07
0.03131914389 	1.753808806 	-0.002871048907 	1.370434305e-07
0.03222876211 	1.754243181 	-0.002951961539 	1.48261735e-07
0.03315547435 	1.754705628 	-0.003034159921 	1.600338977e-07
0.03409960182 	1.755197286 	-0.003117653118 	1.723767987e-07
0.03506147177 	1.755719321 	-0.003202449717 	1.853076392e-07
0.03604141757 	1.756272917 	-0.003288557808 	1.98843954e-07
0.03703977888 	1.756859283 	-0.003375984958 	2.130036247e-07
0.03805690174 	1.757479651 	-0.003464738228 	2.278049001e-07
0.03909313868 	1.75813527 	-0.003554824213 	2.432664196e-07
0.04014884885 	1.758827598 	-0.003646272832 	2.594100458e-07
0.04122551531 	1.75955869 	-0.003739181726 	2.762813784e-07
0.04232554311 	1.760330331 	-0.003833599317 	2.939326779e-07
0.04344624324 	1.761143214 	-0.003929438303 	3.123335993e-07
0.04458800415 	1.761998164 	-0.004026637382 	3.314967531e-07
0.0457512216 	1.762896549 	-0.004125199625 	3.514432594e-07
0.04693629876 	1.763839747 	-0.004225126957 	3.721946833e-07
0.0481436464 	1.764829151 	-0.004326421034 	3.937731922e-07
0.04937368298 	1.765866166 	-0.004429082746 	4.162015191e-07
0.05062683484 	1.766952208 	-0.00453311233 	4.395030071e-07
0.05190353633 	1.768088706 	-0.004638509321 	4.637016298e-07
0.05320422996 	1.769277099 	-0.004745272546 	4.88822018e-07
0.05452936655 	1.770518834 	-0.004853400095 	5.148894796e-07
0.05587940539 	1.771815367 	-0.004962889316 	5.419300194e-07
0.0572548144 	1.773168162 	-0.005073736749 	5.49371091e-07
0.05865607028 	1.774578693 	-0.005185938508 	5.418154552e-07
0.06008365872 	1.776048649 	-0.005299505152 	5.333981232e-07
0.06153889687 	1.777580946 	-0.005414534243 	5.240849134e-07
0.06302592626 	1.779178208 	-0.005531086857 	5.13751719e-07
0.06454090063 	1.781057194 	-0.005664183982 	5.036776503e-07
0.06686661109 	1.783461491 	-0.005828697064 	4.83780718e-07
0.06921826507 	1.786185797 	-0.006007997471 	4.631399006e-07
0.07159615198 	1.789017007 	-0.006187149396 	4.405877235e-07
0.07400056443 	1.791954896 	-0.006366113018 	4.161247209e-07
0.07643179831 	1.794999261 	-0.006544832739 	3.897490454e-07
0.07889015282 	1.798149929 	-0.006723254161 	3.614581019e-07
0.08137593047 	1.801409199 	-0.006901451453 	3.312589665e-07
0.08389681689 	1.804780045 	-0.007079513624 	2.989375958e-07
0.08644662745 	1.808260379 	-0.007257247636 	2.646931145e-07
0.08902488323 	1.811847593 	-0.007434449483 	2.285376569e-07
0.09163190156 	1.815541493 	-0.007611039645 	1.904705211e-07
0.09426800331 	1.819342198 	-0.007786947555 	1.504931581e-07
0.09693351292 	1.823249885 	-0.007962100199 	1.086086631e-07
0.09962875848 	1.827265309 	-0.008136442063 	6.482247959e-08
0.102355471 	1.831391899 	-0.008310019499 	1.909985142e-08
0.1034723851 	1.833105374 	-0.00837984925 	9.296430565e-07
0.1051193293 	1.835632221 	-0.008482831115 	2.879553258e-08
0.1079140226 	1.839983699 	-0.008654643907 	7.860878128e-08
0.1107398951 	1.844444488 	-0.008825260659 	1.302494752e-07
0.1135972945 	1.849015143 	-0.00899458105 	1.836914598e-07
0.1164865725 	1.853696276 	-0.009162499404 	2.38903916e-07
0.119408085 	1.858488844 	-0.00932891458 	2.958515779e-07
0.122362907 	1.863396886 	-0.009493818749 	3.545216234e-07
0.1253579596 	1.868424321 	-0.009657178485 	4.150407971e-07
0.1283864287 	1.873568592 	-0.009818738664 	4.771124885e-07
0.1314486871 	1.878827683 	-0.009978270089 	5.406661533e-07
0.1345451119 	1.884202521 	-0.01013563166 	6.056308006e-07
0.1376760841 	1.889694065 	-0.01029067555 	6.719285864e-07
0.1408419893 	1.895305173 	-0.0104432977 	7.394804856e-07
0.1440475001 	1.90104057 	-0.01059342697 	8.083172898e-07
0.1472922521 	1.906901103 	-0.01074087407 	8.782663573e-07
0.1505732086 	1.912884393 	-0.01088536829 	9.491005382e-07
0.1538907736 	1.91899004 	-0.01102669055 	1.020693746e-06
0.1572453555 	1.925219131 	-0.0111646523 	1.092916869e-06
0.1606373674 	1.931574397 	-0.01129909248 	1.090287784e-06
0.1640708329 	1.93806064 	-0.01142987759 	1.035287328e-06
0.167546476 	1.944679228 	-0.01155678864 	9.786140426e-07
0.171060902 	1.951427626 	-0.01167953093 	9.205024014e-07
0.1746145435 	1.958305091 	-0.01179784762 	8.610451601e-07
0.1782078381 	1.965312564 	-0.01191150861 	8.003472393e-07
0.1818412283 	1.972453694 	-0.01202031857 	7.385241927e-07
0.1855209962 	1.97973326 	-0.01212408099 	6.755260393e-07
0.1892431269 	1.987149611 	-0.01222249665 	6.1169486e-07
0.1930067927 	1.994699955 	-0.01231525856 	5.472124965e-07
0.1968124572 	2.002384189 	-0.01240209632 	4.822259186e-07
0.200660589 	2.010204343 	-0.01248275899 	4.168908448e-07
0.2045550713 	2.018164317 	-0.01255700129 	3.512778824e-07
0.208496362 	2.026264256 	-0.01262453062 	2.856384776e-07
0.2124816352 	2.034500472 	-0.01268502544 	2.202703989e-07
0.2165113818 	2.042870985 	-0.01273818495 	1.553646656e-07
0.220586098 	2.051376765 	-0.01278372672 	9.112039736e-08
0.2247094769 	2.060020472 	-0.01282136662 	2.767294251e-08
0.2265534959 	2.063900603 	-0.01283437483 	4.053742478e-06
0.2288820322 	2.068800953 	-0.01285079746 	3.478386436e-08
0.2331011526 	2.077713226 	-0.01287170188 	9.588799745e-08
0.2373673575 	2.086753827 	-0.01288377655 	1.553155363e-07
0.2416811722 	2.09592267 	-0.01288672758 	2.128250195e-07
0.2460477287 	2.105220469 	-0.01288025352 	2.682372322e-07
0.2504643428 	2.114641788 	-0.01286405744 	3.211484382e-07
0.2549302469 	2.124179456 	-0.01283786352 	3.712756699e-07
0.259445991 	2.133828839 	-0.01280140539 	4.183698416e-07
0.2640137526 	2.14358733 	-0.01275441624 	4.622084706e-07
0.2686363606 	2.153449928 	-0.01269664635 	5.025132122e-07
0.2733105587 	2.16340587 	-0.01262790116 	5.389724314e-07
0.2780369227 	2.173444726 	-0.01254801784 	5.713980306e-07
0.2828162191 	2.183559107 	-0.01245683696 	5.996277336e-07
0.2876537208 	2.193740714 	-0.01235422843 	6.235402441e-07
0.292545212 	2.203973413 	-0.01224017778 	6.429591233e-07
0.2974912951 	2.21424025 	-0.0121147367 	6.57893363e-07
0.302492579 	2.224526858 	-0.01197797707 	6.684129727e-07
0.3075541865 	2.234817564 	-0.01183003481 	6.746661604e-07
0.3126723942 	2.245088798 	-0.01167122096 	6.768307835e-07
0.3178477247 	2.255315641 	-0.01150194894 	6.752880519e-07
0.3230812214 	2.265474741 	-0.01132268072 	6.161332001e-07
0.32837691 	2.27554065 	-0.01113398341 	5.555159462e-07
0.3337317031 	2.285481333 	-0.0109366265 	4.994902611e-07
0.3391462598 	2.295264497 	-0.01073147365 	4.48188086e-07
0.3446226897 	2.304859105 	-0.01051943525 	4.016285073e-07
0.350162574 	2.314231779 	-0.01030153878 	3.598025107e-07
0.3557642883 	2.323346564 	-0.01007893618 	3.225774072e-07
0.3614285223 	2.332170057 	-0.009852769929 	2.896734152e-07
0.3671587446 	2.340671547 	-0.009624145142 	2.607127003e-07
0.3729535305 	2.348819824 	-0.009394202332 	2.352990401e-07
0.3788129912 	2.356587104 	-0.009164002073 	2.129299941e-07
0.3847390365 	2.363950959 	-0.008934444135 	1.930671178e-07
0.3907330384 	2.370892483 	-0.00870631037 	1.752176241e-07
0.3967939386 	2.377396187 	-0.008480266097 	1.589073638e-07
0.40292275 	2.38345246 	-0.00825676946 	1.43697741e-07
0.4091223501 	2.389056607 	-0.008036095617 	1.292484083e-07
0.4153911431 	2.394206687 	-0.007818424719 	1.153203367e-07
0.4217299005 	2.39890504 	-0.007603775807 	1.01716384e-07
0.4281415507 	2.403157394 	-0.00739202701 	8.832109658e-08
0.4346249376 	2.406971714 	-0.007183015027 	7.511192892e-08
0.4411806837 	2.410359409 	-0.006976488838 	6.207994309e-08
0.4478113283 	2.413333852 	-0.006772133303 	4.927595745e-08
0.4545162663 	2.415908689 	-0.006569666554 	3.680232401e-08
0.4612960355 	2.41809844 	-0.006368802198 	2.472717051e-08
0.4681530281 	2.419918265 	-0.006169249199 	1.314276641e-08
0.4750867375 	2.4213833 	-0.005970778146 	2.160857385e-09
0.4765328118 	2.421615473 	-0.005930023365 	2.575050134e-06
0.4820978659 	2.422509007 	-0.005773181597 	8.239982561e-09
0.4891887013 	2.423310993 	-0.00557627501 	1.790693118e-08
0.4963586739 	2.423803898 	-0.005380381681 	2.675044911e-08
0.5035289548 	2.424004449 	-0.005187093177 	3.466359584e-08
0.5106210553 	2.423937761 	-0.00499793514 	4.155662291e-08
0.5176348988 	2.423632187 	-0.004813154267 	4.748180227e-08
0.524571751 	2.423113104 	-0.004632591038 	5.250402516e-08
0.5314326313 	2.422402483 	-0.004456105137 	5.666632449e-08
0.5382178046 	2.421519186 	-0.004283574435 	6.003715878e-08
0.5449284847 	2.420479297 	-0.004114883093 	6.268862848e-08
0.5515655 	2.419296568 	-0.003949927119 	6.466593584e-08
0.5581292774 	2.417982793 	-0.003788613836 	6.603623936e-08
0.56462091 	2.416548036 	-0.003630847634 	6.686334292e-08
0.5710412155 	2.415000933 	-0.003476539305 	6.718761211e-08
0.5773906736 	2.413348921 	-0.003325606887 	6.706461071e-08
0.5836702305 	2.411598329 	-0.00317796532 	6.654694915e-08
0.5898807815 	2.409754564 	-0.003033532842 	6.566717413e-08
0.596022799 	2.407822287 	-0.00289223487 	6.446690441e-08
0.6020970845 	2.405805427 	-0.002753995001 	6.298735508e-08
0.6081046371 	2.403707284 	-0.002618737959 	6.125479552e-08
0.6140458957 	2.401530702 	-0.002486396211 	5.929716837e-08
0.6199215913 	2.399278037 	-0.002356902533 	5.714512068e-08
0.6257326483 	2.396951205 	-0.00223018987 	5.482152638e-08
0.6314796341 	2.394551816 	-0.002106197338 	5.234265186e-08
0.6371632004 	2.39208118 	-0.00198486724 	4.973047732e-08
0.6427841045 	2.389540295 	-0.001866142262 	4.700375228e-08
0.6483431106 	2.386929924 	-0.001749968595 	4.417334541e-08
0.6538407712 	2.384250658 	-0.001636297473 	4.12530971e-08
0.6592777631 	2.381502881 	-0.001525081794 	3.825679232e-08
0.6646548492 	2.378686787 	-0.00141627615 	3.519488962e-08
0.6699726393 	2.375802456 	-0.001309839482 	3.207437637e-08
0.6752317453 	2.372849852 	-0.001205734151 	2.890501653e-08
0.6804328147 	2.369828803 	-0.001103924007 	2.56953456e-08
0.6855765764 	2.366739028 	-0.001004375206 	2.245141128e-08
0.690663582 	2.363580195 	-0.0009070578965 	1.917859743e-08
0.6956944499 	2.360351898 	-0.0008119447741 	1.588336878e-08
0.7006697996 	2.357053648 	-0.0007190100319 	1.257124287e-08
0.7055903096 	2.353684898 	-0.0006282301067 	9.246468618e-09
0.71045652 	2.350245084 	-0.0005395847245 	5.913333068e-09
0.7152690291 	2.346733609 	-0.0004530556968 	2.576339042e-09
0.7200284294 	2.34314983 	-0.0003686263173 	-7.6060155e-10
0.7247353465 	2.339493083 	-0.0002862817372 	-4.093932483e-09
0.7293903257 	2.335762712 	-0.0002060096183 	-7.419905927e-09
0.7339939345 	2.331958054 	-0.0001277994436 	-1.073502227e-08
0.7385467395 	2.328078442 	-5.164204017e-05 	-1.40361428e-08
0.7430493185 	2.32412321 	2.247037756e-05 	-1.732023642e-08
0.7475022216 	2.320091713 	9.454384392e-05 	-2.058351826e-08
0.7519059841 	2.315983334 	0.0001645827961 	-2.382285769e-08
0.7562611482 	2.311797474 	0.0002325906141 	-2.703544276e-08
0.760568251 	2.307533559 	0.0002985696758 	-3.021865932e-08
0.7648278404 	2.303191045 	0.0003625213528 	-3.336901359e-08
0.7690404224 	2.29876944 	0.0004244457618 	-3.648293446e-08
0.7732065157 	2.294268288 	0.000484342266 	-3.955773683e-08
0.7773266334 	2.289687176 	0.0005422096099 	-4.259087445e-08
0.781401286 	2.285025736 	0.0005980460441 	-4.557984079e-08
0.7854309805 	2.280283649 	0.0006518492915 	-4.852068942e-08
0.7894162045 	2.275460656 	0.0007036165157 	-5.141027713e-08
0.7933574489 	2.270556548 	0.0007533447434 	-5.424610071e-08
0.7972551988 	2.265571168 	0.0008010308687 	-5.702574439e-08
0.801109936 	2.260504411 	0.0008466718554 	-5.974682297e-08
0.8049221386 	2.255356227 	0.0008902647347 	-6.24054606e-08
0.8086922709 	2.250126623 	0.0009318066097 	-6.499859207e-08
0.8124207971 	2.244815654 	0.0009712949976 	-6.75238729e-08
0.8161081764 	2.239423426 	0.001008727868 	-6.997904385e-08
0.8197548627 	2.233950088 	0.001044103767 	-7.236192494e-08
0.8233613088 	2.228395832 	0.001077421967 	-7.466945872e-08
0.8269279554 	2.222760891 	0.001108682418 	-7.689817755e-08
0.8304552415 	2.217045532 	0.001137885961 	-7.904591647e-08
0.8339436015 	2.211250047 	0.001165034504 	-8.111059185e-08
0.8373934648 	2.205374752 	0.001190131008 	-8.309018532e-08
0.8408052569 	2.199419974 	0.001213179705 	-8.498267355e-08
0.8441793988 	2.193386048 	0.001234186112 	-8.678472842e-08
0.8475163046 	2.187273306 	0.001253157061 	-8.849381831e-08
0.8508163852 	2.181082071 	0.001270100916 	-9.010801693e-08
0.8540800469 	2.174812641 	0.001285027618 	-9.162544456e-08
0.8573076917 	2.168465281 	0.001297948714 	-9.304425985e-08
0.8604997173 	2.162040209 	0.001308877521 	-9.436261714e-08
0.8636565172 	2.155537589 	0.00131782913 	-9.557758294e-08
0.8667784796 	2.148957509 	0.001324820419 	-9.668680975e-08
0.8698659887 	2.142299974 	0.001329870199 	-9.768850915e-08
0.8729194249 	2.135564885 	0.001332999241 	-9.858092379e-08
0.8759391641 	2.128752023 	0.001334230293 	-9.936232502e-08
0.8789255782 	2.121861032 	0.001333588118 	-1.000310234e-07
0.8818790354 	2.114891399 	0.001331099603 	-1.005849749e-07
0.884799899 	2.107842433 	0.001326793622 	-1.010216373e-07
0.8876885287 	2.100713244 	0.001320701144 	-1.013393845e-07
0.8905452802 	2.093502715 	0.0013128553 	-1.01536686e-07
0.8933705053 	2.08620948 	0.001303291251 	-1.016121552e-07
0.8961645519 	2.078831892 	0.001292046269 	-1.015644882e-07
0.8989277641 	2.071367992 	0.001279159684 	-1.0139255e-07
0.9016604823 	2.063815476 	0.001264672902 	-1.010950328e-07
0.9043630429 	2.056171659 	0.001248629318 	-1.00670418e-07
0.9070357788 	2.048433433 	0.001231074284 	-1.001180924e-07
0.909679019 	2.040597221 	0.001212055104 	-9.943770339e-08
0.912293089 	2.032658931 	0.001191620949 	-9.86291822e-08
0.9148783108 	2.024613903 	0.001169822824 	-9.769274878e-08
0.9174350027 	2.016456848 	0.001146713412 	-9.662893051e-08
0.9199634796 	2.008181786 	0.00112234731 	-9.54385616e-08
0.9224640529 	1.999781978 	0.001096780004 	-9.412240693e-08
0.9249370305 	1.991249847 	0.001070070622 	-9.268175578e-08
0.9273827169 	1.982576882 	0.00104227209 	-9.111848215e-08
0.9298014133 	1.973753657 	0.001013457673 	-8.943491868e-08
0.9321934175 	1.96552816 	0.0009862167748 	-8.778872692e-08
0.9337515725 	1.958772629 	0.0009636162113 	-8.638501308e-08
0.9352809823 	1.952763486 	0.0009434004799 	-8.51021563e-08
0.9367821771 	1.946744904 	0.0009230811702 	-8.378744432e-08
0.9382556774 	1.940715857 	0.0009026792947 	-8.24431168e-08
0.9397019943 	1.934675297 	0.0008822242806 	-8.10714871e-08
0.941121629 	1.928622095 	0.0008617417213 	-7.967479518e-08
0.942515074 	1.922555046 	0.0008412569974 	-7.825528992e-08
0.9438828123 	1.916472862 	0.0008207941602 	-7.681521353e-08
0.9452253182 	1.91037417 	0.0008003762921 	-7.535675642e-08
0.9465430572 	1.904257508 	0.0007800254098 	-7.388205374e-08
0.9478364862 	1.898121324 	0.0007597624971 	-7.239318166e-08
0.9491060536 	1.891963971 	0.0007396075057 	-7.089215477e-08
0.9503521998 	1.88578371 	0.0007195793687 	-6.938092431e-08
0.9515753567 	1.879578705 	0.0006996960144 	-6.786137721e-08
0.9527759484 	1.873347019 	0.0006799743828 	-6.633533569e-08
0.9539543913 	1.867086616 	0.000660430443 	-6.480455753e-08
0.955111094 	1.860795352 	0.0006410792127 	-6.327073668e-08
0.9562464575 	1.854470977 	0.0006219347789 	-6.173550429e-08
0.9573608755 	1.848111126 	0.0006030103189 	-6.020043007e-08
0.9584547344 	1.841713316 	0.0005843181229 	-5.866702386e-08
0.9595284136 	1.835274937 	0.0005658696189 	-5.713673632e-08
0.9605822851 	1.828793249 	0.0005476753948 	-5.561094089e-08
0.9616167146 	1.822265368 	0.000529745221 	-5.409097149e-08
0.9626320607 	1.81568826 	0.0005120880791 	-5.257811922e-08
0.9636286753 	1.809058728 	0.0004947121853 	-5.107362421e-08
0.9646069042 	1.802373401 	0.0004776250154 	-4.957867738e-08
0.9655670864 	1.79562872 	0.000460833331 	-4.809442212e-08
0.9665095549 	1.788820922 	0.0004443432051 	-4.66219559e-08
0.9674346365 	1.78194602 	0.0004281600476 	-4.516233166e-08
0.968342652 	1.774999791 	0.0004122886311 	-4.371655922e-08
0.9692339161 	1.767977744 	0.0003967331166 	-4.228560653e-08
0.9701087379 	1.760875106 	0.0003814970787 	-4.087040078e-08
0.9709674208 	1.753686789 	0.000366583531 	-3.94718294e-08
0.9718102625 	1.746407363 	0.0003519949507 	-3.809074096e-08
0.9726375552 	1.739031024 	0.0003377333034 	-3.672794596e-08
0.9734495857 	1.731551553 	0.000323800067 	-3.538421755e-08
0.9742466358 	1.72396228 	0.0003101962555 	-3.406029204e-08
0.9750289816 	1.716256037 	0.0002969224418 	-3.275686948e-08
0.9757968945 	1.708425104 	0.0002839787808 	-3.147461402e-08
0.9765506407 	1.700461158 	0.0002713650307 	-3.021415434e-08
0.9772904816 	1.692355201 	0.000259080575 	-2.897608385e-08
0.9780166737 	1.684097494 	0.0002471244424 	-2.776096096e-08
0.9787294689 	1.675677472 	0.0002354953271 	-2.656930927e-08
0.9794291141 	1.667083653 	0.0002241916087 	-2.540161749e-08
0.9801158522 	1.65830353 	0.0002132113696 	-2.425833778e-08
0.9807899211 	1.649323454 	0.0002025524132 	-2.313988993e-08
0.9814515546 	1.640128496 	0.0001922122819 	-2.204666007e-08
0.9821009821 	1.630702283 	0.0001821882732 	-2.097900011e-08
0.9827384288 	1.621026825 	0.0001724774569 	-1.993722787e-08
0.9833641157 	1.61108229 	0.0001630766886 	-1.892162722e-08
0.9839782598 	1.600846765 	0.000153982633 	-1.793244831e-08
0.984581074 	1.590295961 	0.0001451917546 	-1.696990776e-08
0.9851727673 	1.579402867 	0.0001367004125 	-1.603418929e-08
0.9857535448 	1.568137343 	0.0001285046033 	-1.512544271e-08
0.986323608 	1.556465632 	0.0001206010352 	-1.424379004e-08
0.9868831546 	1.544349767 	0.0001129837006 	-1.338931128e-08
0.9874323785 	1.531746881 	0.0001056551836 	-1.256209742e-08
0.9879714701 	1.518608226 	9.858504314e-05 	-1.176203893e-08
0.9885006164 	1.504878879 	9.182263479e-05 	-1.098923355e-08
0.9890200009 	1.491746783 	8.589492979e-05 	-1.030610145e-08
0.989354275 	1.480626935 	8.119177922e-05 	-9.76780201e-09
0.989688549 	1.470367969 	7.713808899e-05 	-9.30139868e-09
0.990022823 	1.459603551 	7.316877641e-05 	-8.841197392e-09
0.990357097 	1.448283323 	6.925770706e-05 	-8.387345545e-09
0.990691371 	1.43635015 	6.541778786e-05 	-7.940175832e-09
0.9910256451 	1.423738422 	6.164730149e-05 	-7.499890804e-09
0.9913599191 	1.410372443 	5.794845876e-05 	-7.066704432e-09
0.9916941931 	1.396164323 	5.432201215e-05 	-6.640814216e-09
0.9920284671 	1.381011341 	5.076888992e-05 	-6.222408368e-09
0.9923627412 	1.364792549 	4.728961873e-05 	-5.811661618e-09
0.9926970152 	1.347364389 	4.388430956e-05 	-5.408736065e-09
0.9930312892 	1.328554951 	4.055240536e-05 	-5.013780132e-09
0.9933655632 	1.308156363 	3.729234116e-05 	-4.626928776e-09
0.9936998372 	1.285914579 	3.410095791e-05 	-4.248304478e-09
0.9940341113 	1.261515466 	3.097251492e-05 	-3.87802019e-09
0.9943683853 	1.234565593 	2.789705763e-05 	-3.516185181e-09
0.9947026593 	1.204565302 	2.485798429e-05 	-3.162917392e-09
0.9950369333 	1.170870487 	2.182952244e-05 	-2.818368595e-09
0.9953712073 	1.132637776 	1.877540412e-05 	-2.482766486e-09
0.9957054814 	1.088745698 	1.564456734e-05 	-2.156452097e-09
0.9960397554 	1.037683013 	1.234351892e-05 	-1.840040591e-09
0.9963740294 	0.9774004006 	8.869646975e-06 	-1.535304054e-09
0.9967083034 	0.9051583676 	6.779166998e-06 	-1.248808588e-09
0.9970425775 	0.8175663662 	1.381376653e-05 	-9.779917918e-10
0.9973768515 	0.711456771 	3.053034279e-05 	-6.692480954e-10
0.9977111255 	0.5863350954 	2.482334268e-05 	-3.676764589e-10
0.9980453995 	0.4465825878 	-8.711200851e-06 	-2.255432324e-10
0.9983796735 	0.2993506416 	-2.099821248e-05 	-1.644776512e-10
0.9987139476 	0.1498532478 	-8.173144796e-06 	-6.718114255e-11
0.9990482216 	0.06323343496 	-1.292814672e-06 	-1.272137954e-11
0.9990482216 	0.06323343496 	-1.292814672e-06 	-1.272137954e-11
