0.2739420079 	2.227603253e-07 	-2.783249095e-09 	-5.922758005e-13 	2.19389895e-07 	3.310475741e-10 	4.18218116e-10
0.275272557 	2.407904691e-05 	-2.59571294e-06 	2.098630466e-09 	2.128531629e-05 	1.601867627e-08 	4.05757288e-08
0.2766031854 	0.0003196993368 	-8.102705739e-05 	1.864877414e-08 	0.0002332673371 	1.843413932e-07 	4.446723778e-07
0.2779335901 	0.001264024057 	-0.0004125086081 	-3.902663428e-07 	0.0008281835149 	1.164848858e-06 	1.578747961e-06
0.2792634708 	0.002399258479 	-0.0008536631923 	-1.780682464e-06 	0.001506182601 	3.049968429e-06 	2.871202659e-06
0.2805925299 	0.00302021617 	-0.001098375042 	-3.362517822e-06 	0.001888372515 	4.366679737e-06 	3.59976286e-06
0.2826362867 	0.002995070905 	-0.001071495283 	-2.937374658e-06 	0.001931432996 	2.881213785e-06 	3.681848105e-06
0.2849408702 	0.002637833908 	-0.0008974050291 	-1.807702065e-06 	0.001855648266 	-1.362512917e-06 	3.537381345e-06
0.2875370716 	0.002351713293 	-0.0007053660806 	-1.648433657e-06 	0.001952176461 	-5.510221236e-06 	3.721390915e-06
0.2904580691 	0.002172756524 	-0.0005126472163 	-1.366011879e-06 	0.002221532275 	-7.504617198e-06 	4.234857959e-06
0.2938196317 	0.002058578446 	-0.0003548491191 	-9.473040334e-07 	0.002534622133 	-7.262421138e-06 	4.831694246e-06
0.2976320779 	0.001967013059 	-0.00023134875 	-6.545542625e-07 	0.002802174054 	-5.566739983e-06 	5.341722571e-06
0.3019179803 	0.001882993679 	-0.0001299384616 	-3.949787978e-07 	0.002959676671 	-3.487255635e-06 	5.641966334e-06
0.3067337774 	0.001804014553 	-4.37757328e-05 	-8.439927769e-08 	0.002992940986 	-1.992709824e-06 	5.705377365e-06
0.3122569715 	0.001730963259 	1.994210244e-05 	1.676459597e-07 	0.002955941558 	-1.18307131e-06 	5.63484617e-06
0.3185112727 	0.001661205225 	5.901588785e-05 	2.487689363e-07 	0.00288494968 	-7.075100979e-07 	5.499515921e-06
0.3279565291 	0.001596226444 	8.091788393e-05 	1.399165771e-07 	0.002805612679 	-2.752484824e-07 	5.348277546e-06
0.3358853299 	0.001555981129 	9.10776026e-05 	6.037734784e-08 	0.002754309443 	-1.382368991e-06 	5.250479319e-06
0.3381259885 	0.001544178542 	9.386362778e-05 	3.433329286e-08 	0.00273920728 	-6.9998526e-08 	5.221690399e-06
0.3489508731 	0.001504760079 	0.0001027117704 	2.10091531e-07 	0.002691899982 	-3.61911713e-07 	5.131509541e-06
0.3605981766 	0.001474814843 	0.0001110844075 	4.042832224e-07 	0.002661172519 	-6.169488936e-07 	5.072934456e-06
0.3731708885 	0.00145229995 	0.0001203118801 	6.178454675e-07 	0.002643696717 	-8.425412036e-07 	5.039620721e-06
0.3867969958 	0.001435829439 	0.0001310022785 	8.521176136e-07 	0.002637618391 	-1.047196774e-06 	5.028033741e-06
0.4014972221 	0.001424362985 	0.0001437062835 	1.10365613e-06 	0.002641320023 	-1.236543809e-06 	5.035090081e-06
0.4173643717 	0.001417072385 	0.0001588093325 	1.36866061e-06 	0.002653460804 	-1.41600543e-06 	5.058233784e-06
0.4344885207 	0.001413227904 	0.0001766225383 	1.639779571e-06 	0.002672723417 	-1.592388891e-06 	5.094953678e-06
0.4530046648 	0.001412158483 	0.0001974528918 	1.504428309e-06 	0.002697750613 	-1.396628147e-06 	5.14266247e-06
0.4729699124 	0.001413234378 	0.0002214874516 	1.313681704e-06 	0.002726990245 	-1.191377771e-06 	5.198401335e-06
0.4944634565 	0.001415827141 	0.0002489397597 	1.115719989e-06 	0.002758710719 	-1.011306915e-06 	5.258869374e-06
0.5176484568 	0.001419473216 	0.0002802794299 	9.184054287e-07 	0.002791060801 	-8.527415965e-07 	5.320537623e-06
0.542569778 	0.001423787139 	0.0003163870787 	7.303705935e-07 	0.002821372848 	-7.147058367e-07 	5.378320809e-06
0.5693462178 	0.00142871171 	0.0003581337174 	5.585004174e-07 	0.002846706842 	-5.963185112e-07 	5.426614443e-06
0.5980874262 	0.001434046196 	0.0004058492851 	4.099031124e-07 	0.002862791066 	-4.978175355e-07 	5.457275444e-06
0.6289040372 	0.001439649435 	0.0004585546981 	2.911107948e-07 	0.00286435983 	-4.195719697e-07 	5.460265943e-06
0.6597287896 	0.001445683566 	0.0005125163142 	2.052939541e-07 	0.002848049552 	-3.651442968e-07 	5.429174021e-06
0.6885070106 	0.001452988503 	0.0005639583834 	1.445477962e-07 	0.002815535064 	-3.289382798e-07 	5.367192369e-06
0.7153735372 	0.001463012618 	0.0006119140129 	9.924964927e-08 	0.002770661872 	-3.002471801e-07 	5.281651593e-06
0.7404577418 	0.001477911418 	0.0006562276926 	8.541748348e-08 	0.002717038491 	-2.461124081e-07 	5.179430525e-06
0.763881608 	0.001499526131 	0.0006973789691 	9.915204203e-08 	0.002660356178 	-1.680308749e-07 	5.071378283e-06
0.7857594625 	0.001529481609 	0.0007368490115 	1.096035084e-07 	0.00260788362 	-9.805924888e-08 	4.971351004e-06
0.8061955834 	0.001570155087 	0.0007762507239 	1.062773113e-07 	0.002566140371 	-3.725700206e-08 	4.891776769e-06
0.8252873287 	0.001624265316 	0.0008174799412 	8.713867114e-08 	0.002541099801 	1.812424346e-08 	4.844042483e-06
0.8431242394 	0.001694826018 	0.0008626279081 	5.436528705e-08 	0.002537765811 	7.163159173e-08 	4.837686971e-06
0.8597896056 	0.001785379271 	0.0009131477672 	4.376282198e-08 	0.002559350933 	1.405524782e-07 	4.878834213e-06
0.8753606451 	0.001899444067 	0.0009709050779 	6.955443335e-08 	0.002608150873 	2.283581934e-07 	4.971860463e-06
0.8899091601 	0.002039913938 	0.001038291847 	1.034400062e-07 	0.002685996482 	3.183594663e-07 	5.120255829e-06
0.9035021065 	0.002208041626 	0.001116212714 	1.350247072e-07 	0.002793370961 	4.005904135e-07 	5.324941428e-06
0.9162019423 	0.002400737862 	0.001203572043 	1.542358694e-07 	0.002928137226 	4.548753942e-07 	5.581843386e-06
0.9280669907 	0.002608143992 	0.00129631042 	1.497351682e-07 	0.003082086372 	4.542637857e-07 	5.875313247e-06
0.939151752 	0.002813041667 	0.001386875887 	1.149733903e-07 	0.003238357488 	3.803384534e-07 	6.173209427e-06
0.9495071738 	0.002981850558 	0.001460275977 	6.084456237e-08 	0.003364937933 	2.549786124e-07 	6.414506936e-06
0.9563628554 	0.003096098193 	0.001508228801 	9.946163609e-09 	0.003442818833 	1.264458877e-07 	6.562969578e-06
0.962432965 	0.003173258558 	0.001537059565 	-4.194909188e-08 	0.003482691563 	2.307196047e-08 	6.638978084e-06
0.9678072944 	0.003227054176 	0.001549976837 	-8.922072068e-08 	0.003493954706 	-4.753224681e-08 	6.660448765e-06
0.9725654226 	0.003258686709 	0.001552122105 	-7.591081487e-08 	0.003479861003 	-6.513431687e-08 	6.633582249e-06
0.9767778614 	0.003265969348 	0.001550845301 	-1.164453982e-08 	0.003441606091 	-2.757315902e-08 	6.560657754e-06
0.9805070848 	0.003239990707 	0.001534927637 	4.177069692e-08 	0.003371514722 	4.942242697e-08 	6.427044124e-06
0.9838084378 	0.003157268567 	0.001488390297 	8.235343015e-08 	0.003248125798 	1.424953872e-07 	6.19183054e-06
0.9867309446 	0.002969037545 	0.001394373641 	1.101758413e-07 	0.003025797454 	2.044393954e-07 	5.768010924e-06
0.9893180269 	0.002588656296 	0.001211833232 	8.954799944e-08 	0.002619346288 	1.694562403e-07 	4.993202034e-06
0.9916081409 	0.001955290656 	0.0009057855466 	3.200593084e-08 	0.001968890644 	4.760264508e-08 	3.753252793e-06
0.9930959046 	0.001187531851 	0.0005147233536 	-2.003178489e-08 	0.001192039075 	-5.189908848e-08 	2.272357788e-06
0.9945837944 	0.0005017694016 	0.0001780704039 	-2.344914536e-08 	0.0005025093745 	-4.71827345e-08 	9.57922533e-07
0.9960718106 	0.00010919238 	2.394869718e-05 	-3.039357327e-09 	0.0001091445566 	-6.535009047e-09 	2.0805986e-07
0.9975599529 	8.132284434e-06 	5.783619407e-07 	8.092268337e-11 	8.119574118e-06 	1.107718132e-09 	1.547816499e-08
0.9990482216 	7.56712907e-08 	5.49556321e-10 	4.388651909e-13 	7.552749944e-08 	4.434187697e-11 	1.439764057e-10
