6.483489025e-34 	0.007021004681 	-4.768308899e-16 	-1.733154078e-22 	3.238392622e-29 	1.177070005e-35 	4.278337922e-42
0.001935329056 	0.007017309451 	-4.653310373e-05 	8.407600732e-09 	0.007727181726 	-1.035813227e-06 	1.473015603e-05
0.003870646918 	0.007016778532 	-0.0001007139478 	2.461927268e-08 	0.007755829512 	-1.030610562e-06 	1.478476667e-05
0.005805953543 	0.007020379279 	-0.0001504785454 	3.677512817e-08 	0.00776053083 	-1.018427545e-06 	1.479372869e-05
0.00774124892 	0.007022152303 	-0.0002001381699 	4.838316777e-08 	0.007765456063 	-1.006310795e-06 	1.480311755e-05
0.009676533077 	0.007025769917 	-0.0002568777492 	6.127131549e-08 	0.007769109851 	-9.939031894e-07 	1.481008269e-05
0.0126558162 	0.007031886045 	-0.0003295520613 	7.693700782e-08 	0.007774706235 	-9.748795732e-07 	1.482075095e-05
0.0160218712 	0.007041234383 	-0.0004163065009 	9.484923139e-08 	0.007783582125 	-9.543955086e-07 	1.483767086e-05
0.01982490545 	0.007054464486 	-0.0005142252514 	1.139444048e-07 	0.007795875248 	-9.323238576e-07 	1.486110497e-05
0.02413483307 	0.007072787048 	-0.000624666987 	1.339482011e-07 	0.00781268683 	-9.073107372e-07 	1.489315252e-05
0.02900746903 	0.0070977108 	-0.000749005269 	1.546166857e-07 	0.00783533767 	-8.806440196e-07 	1.493633132e-05
0.03451265705 	0.007131067955 	-0.0008886682532 	1.755394331e-07 	0.007865455102 	-8.524704942e-07 	1.499374352e-05
0.04073250544 	0.007175143984 	-0.001045271648 	1.961684878e-07 	0.007905044863 	-8.225466804e-07 	1.50692126e-05
0.0477826567 	0.007232689936 	-0.001220578259 	2.155648126e-07 	0.007956480321 	-7.89311781e-07 	1.516726288e-05
0.05574940349 	0.007306805021 	-0.001415929401 	2.328116197e-07 	0.008022415928 	-7.535748692e-07 	1.529295447e-05
0.06476049349 	0.007410735082 	-0.001652958374 	2.494722072e-07 	0.008114121974 	-7.161310255e-07 	1.546777169e-05
0.07840541888 	0.007560093043 	-0.001948578861 	2.558843703e-07 	0.00824492822 	-6.533168635e-07 	1.571712475e-05
0.09305181054 	0.007747141137 	-0.002273275071 	2.528793571e-07 	0.008406946851 	-5.85111012e-07 	1.602597729e-05
0.1087667242 	0.007957999888 	-0.002601216698 	2.362246147e-07 	0.00858608739 	-5.064036634e-07 	1.636746895e-05
0.1256313686 	0.008184300768 	-0.002926250922 	2.053657246e-07 	0.008772890188 	-4.146126404e-07 	1.6723567e-05
0.1437313485 	0.008412861746 	-0.003240200629 	1.605171381e-07 	0.008953007021 	-3.086837298e-07 	1.706691974e-05
0.1631570974 	0.00862453519 	-0.003532315194 	1.030315355e-07 	0.009106264545 	-1.900464314e-07 	1.735907118e-05
0.1840043494 	0.008793054412 	-0.003788612151 	3.589336824e-08 	0.009205703937 	-6.368625074e-08 	1.75486303e-05
0.1952923877 	0.008838868926 	-0.0038907623 	5.011981765e-06 	0.009211285407 	-2.142921369e-05 	1.755927013e-05
0.2063746485 	0.008883862473 	-0.003991074561 	3.626172336e-08 	0.009216749568 	-6.168622599e-08 	1.756968634e-05
0.2303758959 	0.008852983955 	-0.004116667685 	1.046689773e-07 	0.009096578762 	-1.697589568e-07 	1.734060738e-05
0.2561229333 	0.008646605936 	-0.004136419725 	1.559289208e-07 	0.008794409734 	-2.373014571e-07 	1.676458923e-05
0.2837387559 	0.008202665862 	-0.004014996313 	1.730621467e-07 	0.008253989959 	-2.379060322e-07 	1.573439894e-05
0.3133605011 	0.007457984666 	-0.003712052847 	1.364878735e-07 	0.007421714571 	-1.47528295e-07 	1.414785073e-05
0.3451213801 	0.006370897304 	-0.003190224439 	3.393751151e-08 	0.006269482725 	3.418745044e-08 	1.195137659e-05
0.3791749318 	0.004979636169 	-0.002445579763 	-1.047390403e-07 	0.004851025342 	2.398740061e-07 	9.247402575e-06
0.4156786692 	0.003509713524 	-0.001587899517 	-1.737620913e-07 	0.003395742575 	3.182960116e-07 	6.473229145e-06
0.4548022144 	0.002368952289 	-0.0008335347174 	-1.245893328e-07 	0.002286789917 	2.128416967e-07 	4.359257162e-06
0.4967273963 	0.001835008328 	-0.0002774016294 	-4.25583449e-08 	0.001769739102 	8.466116383e-08 	3.373614601e-06
0.5386674328 	0.001833184884 	0.0001668092277 	1.901454529e-08 	0.00176382116 	5.60363099e-08 	3.362333359e-06
0.5778332805 	0.002133433832 	0.0005715045915 	6.229574265e-08 	0.002050856665 	9.095863894e-08 	3.909502809e-06
0.6144050965 	0.002581148449 	0.0009472245129 	8.911385596e-08 	0.002485419385 	1.40254686e-07 	4.737900135e-06
0.6485527742 	0.003101904698 	0.001310880484 	1.157897162e-07 	0.002995740093 	1.845048585e-07 	5.710713239e-06
0.6804359545 	0.003669015512 	0.00165440364 	1.222640713e-07 	0.003556325342 	2.237533945e-07 	6.779344531e-06
0.7102043027 	0.004279362248 	0.001961851126 	1.184993591e-07 	0.004164152035 	2.571803017e-07 	7.938031144e-06
0.7379976686 	0.004919210739 	0.002259108457 	1.204776363e-07 	0.004804191374 	2.630514463e-07 	9.158124015e-06
0.7639469474 	0.005540080422 	0.002548648261 	9.716980175e-08 	0.005429566084 	2.160581496e-07 	1.035026203e-05
0.7881743872 	0.006077366483 	0.002801081351 	4.810696365e-08 	0.005978531156 	1.148041896e-07 	1.139674203e-05
0.8107941812 	0.006484235051 	0.002995065658 	-1.763197882e-08 	0.006406126357 	-2.256865771e-08 	1.221185733e-05
0.8319129813 	0.006740189563 	0.003121017225 	-8.587342974e-08 	0.006691708951 	-1.67641111e-07 	1.275625713e-05
0.8516303754 	0.00685102181 	0.003180664695 	-1.42066739e-07 	0.00683691748 	-2.903239392e-07 	1.303306494e-05
0.8700393505 	0.0068405275 	0.003152150284 	-2.103885505e-07 	0.006857549123 	-3.770539736e-07 	1.307239459e-05
0.8872267278 	0.006735421336 	0.003053984375 	-2.451923133e-07 	0.006774615039 	-4.273191371e-07 	1.291429917e-05
0.903273569 	0.006555204172 	0.002931134006 	-2.304692842e-07 	0.006607595495 	-4.455516812e-07 	1.25959135e-05
0.9182555581 	0.006312441096 	0.002789711978 	-2.130024283e-07 	0.006370318816 	-4.374782118e-07 	1.21435982e-05
0.9322433571 	0.00603727108 	0.002635845146 	-1.854664187e-07 	0.006093637563 	-4.085865002e-07 	1.161616683e-05
0.9414993065 	0.005778111516 	0.002499950188 	-1.566119717e-07 	0.005828636752 	-3.707972326e-07 	1.111100163e-05
0.9496916368 	0.005536921797 	0.002390175753 	-1.288108865e-07 	0.00557974984 	-3.296950758e-07 	1.063655401e-05
0.9569425705 	0.005294457211 	0.002287365627 	-1.021936682e-07 	0.00532858502 	-2.848284185e-07 	1.015776405e-05
0.9633602853 	0.005050012673 	0.002191158259 	-7.777730108e-08 	0.005075367612 	-2.379465587e-07 	9.675061294e-06
0.969040528 	0.00480013723 	0.002098706622 	-5.62576066e-08 	0.004817339171 	-1.905470543e-07 	9.183187369e-06
0.974068043 	0.004537173871 	0.002004863644 	-3.800545185e-08 	0.004547320877 	-1.44118377e-07 	8.668457454e-06
0.9785178364 	0.0042458699 	0.001900605154 	-2.312758031e-08 	0.004250343957 	-1.003178382e-07 	8.102336904e-06
0.9824562955 	0.003895866801 	0.001771244247 	-1.02099223e-08 	0.00389617043 	-6.100082038e-08 	7.427183725e-06
0.9859421785 	0.003420572782 	0.00157910861 	-6.161463601e-09 	0.003418244066 	-3.102363344e-08 	6.516123242e-06
0.9890274919 	0.00272423692 	0.001255862016 	-2.0038694e-09 	0.002720961456 	-1.163669865e-08 	5.186908787e-06
0.9910316378 	0.001828305629 	0.0008033967131 	4.514454342e-09 	0.001825548044 	-5.343925972e-10 	3.480001957e-06
0.9930357838 	0.0008553214463 	0.0003249966001 	3.018901894e-09 	0.0008538834288 	2.361235996e-09 	1.62773914e-06
0.9950399297 	0.0001941010809 	4.839021979e-05 	7.348398324e-10 	0.0001937496341 	1.006288191e-09 	3.693406524e-07
0.9970440756 	1.288930039e-05 	9.85099732e-07 	1.934163251e-11 	1.286498356e-05 	7.892509452e-11 	2.452423429e-08
0.9990482216 	9.174225744e-08 	5.84445095e-10 	1.345051808e-14 	9.15677476e-08 	6.828867864e-13 	1.745535768e-10
