/*--------------------------------*- C++ -*----------------------------------*\
| =========                 |                                                 |
| \\      /  F ield         | OpenFOAM: The Open Source CFD Toolbox           |
|  \\    /   O peration     | Version:  2.4.0                                 |
|   \\  /    A nd           | Web:      www.OpenFOAM.org                      |
|    \\/     M anipulation  |                                                 |
\*---------------------------------------------------------------------------*/
FoamFile
{
    version     2.0;
    format      ascii;
    class       volSymmTensorField;
    location    "2000";
    object      Ax;
}
// * * * * * * * * * * * * * * * * * * * * * * * * * * * * * * * * * * * * * //

dimensions      [0 0 0 0 0 0 0];

internalField   nonuniform List<symmTensor> 
15296
(
(0.14857597 0.00073785144 -1.6572049e-12 0.33161368 2.4612592e-10 -0.48018966)
(0.12024561 0.0024491761 1.1127696e-13 0.35160954 2.4260962e-10 -0.47185515)
(0.12228006 0.0022675329 -1.9962022e-12 0.35021346 2.4239596e-10 -0.47249352)
(0.12248774 0.0022308432 6.8760359e-14 0.35005019 2.4277253e-10 -0.47253793)
(0.12214813 0.0022054425 6.7563493e-14 0.35026537 2.421341e-10 -0.47241351)
(0.12262053 0.0021988424 2.2184655e-12 0.34992055 2.4228593e-10 -0.47254109)
(0.12333457 0.0022139499 5.9746387e-14 0.34940787 2.4292858e-10 -0.47274244)
(0.12400157 0.0022460533 6.7100253e-14 0.34892646 2.4368998e-10 -0.47292804)
(0.12399229 0.0051226308 1.7073943e-12 0.34914822 2.4277438e-10 -0.4731405)
(-0.094500491 0.0051925183 1.6294413e-12 -0.36759989 -2.6156377e-10 0.46210038)
(-0.094036254 0.0022010841 -5.4540033e-12 -0.36797946 -2.5596168e-10 0.46201571)
(-0.09419608 0.0022257098 -5.8224488e-14 -0.36768755 -2.5249284e-10 0.46188363)
(-0.093248134 -0.00064241118 3.7793864e-12 -0.36854019 -2.4978629e-10 0.46178832)
(0.12898104 -0.00037534476 8.1373633e-13 0.34458158 2.3492359e-10 -0.47356261)
(0.12891166 0.0024329726 -2.2296409e-12 0.34468928 2.3046288e-10 -0.47360094)
(0.12998584 0.0024732089 7.1486721e-14 0.34346658 2.2142163e-10 -0.47345242)
(0.12942472 0.005235113 1.4745195e-12 0.34416574 2.1618276e-10 -0.47359047)
(-0.096254529 0.0053720465 1.3991343e-12 -0.3647555 -2.3633723e-10 0.46101003)
(-0.095660463 0.0025655605 -5.6387526e-14 -0.36534344 -2.2860476e-10 0.46100391)
(-0.095691682 0.0025982042 2.6078794e-12 -0.36513074 -2.2544703e-10 0.46082242)
(-0.093908773 -8.0889961e-05 1.2537915e-12 -0.36677287 -2.2244704e-10 0.46068165)
(0.1363705 0.0002096202 -1.2746688e-12 0.33760781 2.1091857e-10 -0.47397831)
(0.1363853 0.0029167528 2.2884164e-12 0.33791221 2.0525658e-10 -0.47429751)
(0.13815575 0.0030484392 6.4811603e-14 0.33650068 2.0362493e-10 -0.47465643)
(0.13867007 0.0057196979 -8.4725631e-13 0.33673164 1.9827267e-10 -0.47540171)
(-0.088823788 0.0061056405 1.0399078e-12 -0.36805545 -2.3802971e-10 0.45687924)
(-0.083176252 0.0037266502 -4.1594348e-12 -0.37212415 -1.5143666e-10 0.45530041)
(-0.07623471 0.0043870356 -1.2281866e-11 -0.37624647 -6.4965433e-10 0.45248118)
(-0.069825372 0.0019418813 1.4607983e-10 -0.37995629 3.8092018e-09 0.44978166)
(0.17311536 0.0027416308 3.8487928e-09 0.30490103 -2.8950615e-08 -0.47801639)
(0.17933327 0.0079745068 -4.1236394e-07 0.30008472 -1.4059934e-06 -0.47941799)
(-0.055294366 0.010709171 3.4917773e-06 -0.37961599 0.00014228021 0.43491036)
(-0.0094242279 0.011307359 0.00070008911 -0.40556493 -0.00055255558 0.41498915)
(0.14425548 0.018303347 -0.0024795449 -0.34833462 -0.30111486 0.20407914)
(0.23722615 0.019267514 0.0019270822 -0.099249146 0.39095722 -0.13797701)
(0.26511258 0.021589867 -0.0023764981 -0.11114424 -0.37709621 -0.15396834)
(0.26512665 0.021692599 8.929919e-05 -0.10782844 0.37687028 -0.15729821)
(0.43738571 -0.066811604 0.00063866155 -0.37834693 -0.0095693208 -0.05903878)
(-0.017160686 0.012228609 6.4038437e-13 0.079469031 3.6837723e-11 -0.062308345)
(-0.055882454 0.0064905338 5.6474281e-14 0.096499426 3.5222837e-11 -0.040616972)
(-0.0531048 0.0058139834 6.9001139e-14 0.095356055 3.5191728e-11 -0.042251254)
(-0.052848402 0.005640533 -9.0220278e-13 0.095331909 3.5327097e-11 -0.042483507)
(-0.053362632 0.0055030467 -1.9036351e-12 0.095660726 3.5146211e-11 -0.042298094)
(-0.052747129 0.0053985075 6.244533e-14 0.095481762 3.5399159e-11 -0.042734633)
(-0.051793667 0.0053363183 6.5549709e-14 0.095151901 3.539744e-11 -0.043358235)
(-0.050902694 0.0053089014 -9.6135681e-13 0.094855681 3.5359265e-11 -0.043952988)
(-0.050017251 0.0048233561 7.3833666e-13 0.093855857 3.5106337e-11 -0.043838606)
(0.091149466 0.0044605014 -1.4667796e-12 -0.1149893 -3.7632594e-11 0.02383983)
(0.092865316 0.0049815994 -1.1063093e-12 -0.11740545 -3.7803973e-11 0.024540139)
(0.094307119 0.0049683084 -4.8572025e-14 -0.11999812 -3.8275516e-11 0.025690997)
(0.095570209 0.0054232913 2.6841009e-13 -0.12110797 -3.8232637e-11 0.025537762)
(-0.047597959 0.0056575185 3.8820765e-13 0.098839264 3.7656363e-11 -0.051241305)
(-0.04816079 0.0052322531 -1.0782357e-12 0.10153077 3.8053129e-11 -0.053369984)
(-0.049189911 0.0052585931 4.0955294e-14 0.10710771 3.9388081e-11 -0.057917794)
(-0.049234337 0.0049412387 -2.002731e-13 0.10787042 3.9116167e-11 -0.058636079)
(0.1019527 0.0045400306 1.9902255e-12 -0.13525084 -4.2064238e-11 0.033298146)
(0.10431969 0.0049192075 1.1198741e-12 -0.13904461 -4.2155952e-11 0.034724914)
(0.10613323 0.0048777013 -2.4046839e-12 -0.14213457 -4.2919535e-11 0.036001337)
(0.10825148 0.0051530191 1.5944972e-13 -0.14351362 -4.2538301e-11 0.035262141)
(-0.04510881 0.0053800689 2.7880743e-13 0.11468872 4.2791381e-11 -0.069579906)
(-0.044525759 0.0050611087 5.7965732e-14 0.11679719 4.2962873e-11 -0.072271436)
(-0.042364038 0.0049951874 5.3394407e-14 0.11774786 4.3687731e-11 -0.075383822)
(-0.039312764 0.0046863464 -7.8872593e-14 0.11622429 4.2560421e-11 -0.076911525)
(0.12515104 0.0041290753 -4.4620073e-13 -0.15960343 -4.932188e-11 0.034452385)
(0.13475898 0.0042342244 1.1140325e-12 -0.16607644 -3.3591216e-11 0.031317466)
(0.14707193 0.0040673812 -7.994759e-12 -0.17325904 -1.2795432e-10 0.026187112)
(0.17059077 0.0037077697 9.2140929e-11 -0.19849706 8.738535e-10 0.027906286)
(0.010174388 0.003758004 -4.1291418e-09 0.17267451 -2.1277003e-08 -0.1828489)
(0.036164506 0.0044528058 -1.1913381e-07 0.20377823 -2.6384963e-07 -0.23994274)
(0.32945279 0.0029814828 8.0156576e-06 -0.39106899 7.5887386e-05 0.061616191)
(0.42281673 9.117466e-06 0.0001879493 -0.42361611 -0.0011567219 0.00079938249)
(0.47860966 -0.0032015805 -5.8858093e-05 -0.32881062 -0.10063786 -0.14979904)
(0.48501736 -0.0058037561 -0.00030998992 -0.22853346 0.13518758 -0.25648391)
(0.49352994 -0.010051877 0.00035337631 -0.23365815 -0.10967317 -0.2598718)
(0.49315102 -0.0055400608 -0.00018778734 -0.22759442 0.11072772 -0.2655566)
(0.30076423 -0.29325089 1.9541531e-05 -0.35591133 -0.0015525961 0.055147107)
(0.054133711 0.018887541 -3.1453782e-13 -0.051910039 -1.6878288e-11 -0.0022236725)
(0.017824631 0.010246137 -4.0466274e-14 -0.035284412 -1.5936186e-11 0.017459781)
(0.020770072 0.0090547612 -2.2808283e-14 -0.036800828 -1.6078459e-11 0.016030756)
(0.020972855 0.0087948772 -2.3379554e-14 -0.036876965 -1.6147813e-11 0.01590411)
(0.020390094 0.008591726 -2.5379817e-14 -0.036563385 -1.6124941e-11 0.016173292)
(0.020941443 0.0084416657 -6.2123478e-13 -0.0368053 -1.6131292e-11 0.015863857)
(0.021832747 0.0083575453 5.8278025e-13 -0.037213753 -1.6068782e-11 0.015381006)
(0.022661864 0.0083151594 5.9223219e-13 -0.037595037 -1.6251657e-11 0.014933173)
(0.023781728 0.0076709667 -8.518196e-13 -0.038480671 -1.6378836e-11 0.014698942)
(0.017978053 0.0077500703 -1.8744441e-13 0.01695761 1.2636996e-11 -0.034935663)
(0.018847009 0.0083581809 2.1376198e-14 0.016815994 1.237082e-11 -0.035663003)
(0.019893683 0.0083579083 2.7108686e-14 0.016140931 1.2107025e-11 -0.036034614)
(0.020399214 0.0089619267 2.2575929e-13 0.016304457 1.2053507e-11 -0.036703671)
(0.026115357 0.0089345613 1.8324635e-13 -0.038016853 -1.5209003e-11 0.011901496)
(0.026670362 0.0083141435 -2.2916186e-14 -0.038609913 -1.5099165e-11 0.011939551)
(0.026554654 0.0083098892 -2.6721426e-14 -0.038002737 -1.4154228e-11 0.011448082)
(0.027588308 0.0076751876 -2.1401013e-13 -0.039117537 -1.3937274e-11 0.011529229)
(0.026562219 0.0077371998 -1.7576434e-13 0.010632052 1.0132584e-11 -0.037194271)
(0.027561378 0.0083299651 1.8691543e-14 0.010591825 9.7105913e-12 -0.038153202)
(0.028990606 0.0083070956 -6.8895929e-13 0.0096529519 9.1972856e-12 -0.038643558)
(0.02981064 0.0088687273 2.0646168e-13 0.010112649 9.3486871e-12 -0.039923289)
(0.030904386 0.0088137722 -5.5638827e-13 -0.037959377 -1.2764098e-11 0.0070549908)
(0.033055516 0.0081244441 1.4555067e-12 -0.039709992 -1.2432209e-11 0.006654476)
(0.035540643 0.0080501779 -2.8893762e-14 -0.040733176 -1.2353212e-11 0.0051925321)
(0.040108877 0.0073499516 6.1841691e-13 -0.044152453 -1.2313635e-11 0.0040435762)
(0.048301496 0.0073114141 -1.2765874e-12 -0.0022453797 8.6383666e-12 -0.046056116)
(0.056152579 0.0077973981 2.8202439e-12 -0.0051914611 4.5371617e-12 -0.050961118)
(0.068355963 0.0076505252 -1.1384678e-11 -0.011459061 3.0306762e-11 -0.056896903)
(0.087836962 0.0081518098 5.8094133e-11 -0.021379819 -2.392639e-10 -0.066457143)
(0.095114362 0.0079697968 -1.9588558e-09 -0.056272476 -1.6173744e-09 -0.038841886)
(0.13154672 0.0061860344 1.3825269e-07 -0.071744661 4.1287144e-07 -0.059802056)
(0.24633441 0.0054912443 -7.0556159e-07 -0.12501662 -4.3089852e-07 -0.12131779)
(0.34803499 0.005320242 -0.00013444708 -0.17139431 -0.00058726827 -0.17664068)
(0.49187549 0.0041837043 0.00032625202 -0.23341961 -0.0008091823 -0.25845589)
(0.51010998 0.0017311098 -0.00024612803 -0.24668897 -0.0087877518 -0.263421)
(0.51004876 -0.0047839566 0.00027532939 -0.24878646 0.012869435 -0.26126231)
(0.50975509 0.00066528526 7.8259954e-05 -0.23977877 -0.012688465 -0.26997632)
(0.29160779 -0.33700856 -1.913876e-05 -0.27743458 -0.00034455796 -0.014173206)
(0.057767614 0.024077467 3.0196384e-14 -0.041402559 -6.644754e-12 -0.016365055)
(0.023815514 0.014433626 -2.7092855e-14 -0.026043057 -6.1022635e-12 0.0022275425)
(0.027017813 0.012640982 3.9368314e-13 -0.027781267 -6.1010186e-12 0.00076345442)
(0.027287529 0.01226759 -1.4001496e-14 -0.027940722 -6.2758991e-12 0.000653193)
(0.026750429 0.011981761 -4.3760204e-13 -0.02768867 -6.2731192e-12 0.00093824092)
(0.027355177 0.011768138 4.1364914e-13 -0.02800816 -6.2652911e-12 0.00065298261)
(0.028303613 0.011644157 -1.3472273e-14 -0.028500072 -6.1665202e-12 0.00019645946)
(0.029191657 0.011576777 -1.6913545e-14 -0.028965339 -6.3269548e-12 -0.0002263179)
(0.030053781 0.011558722 -2.8513204e-15 -0.029293446 -6.3105099e-12 -0.0007603351)
(0.011353839 0.011668569 2.734223e-14 0.0086831058 4.4966079e-12 -0.020036945)
(0.011954723 0.01164353 1.4741094e-14 0.0086860202 4.4441652e-12 -0.020640743)
(0.012589613 0.011638573 2.3785631e-14 0.0086167815 4.4743908e-12 -0.021206395)
(0.013225374 0.011636762 1.4691255e-14 0.0083228775 4.4569364e-12 -0.021548252)
(0.033950226 0.011496258 -4.9498069e-13 -0.031812732 -6.4959516e-12 -0.0021374937)
(0.03490252 0.011510866 -1.3696169e-14 -0.032674604 -6.4502758e-12 -0.0022279166)
(0.035867298 0.011504965 -5.0689674e-13 -0.033742753 -6.4408753e-12 -0.0021245453)
(0.036757885 0.01147832 -1.5171172e-14 -0.034259067 -6.3107188e-12 -0.0024988183)
(0.01668809 0.011601141 -4.7778534e-13 0.0076709346 4.4822957e-12 -0.024359024)
(0.01731099 0.011585374 1.5748008e-14 0.0077794623 4.4728448e-12 -0.025090452)
(0.018251058 0.011543966 2.1967698e-14 0.0075879844 4.3823748e-12 -0.025839042)
(0.019364209 0.011509778 5.3730188e-13 0.0070859486 4.4287747e-12 -0.026450158)
(0.04247998 0.011272379 -1.4287008e-14 -0.037918492 -6.5918687e-12 -0.004561488)
(0.044888674 0.01115421 -9.7406507e-15 -0.039527052 -6.4296195e-12 -0.0053616217)
(0.047818622 0.011029329 4.9264167e-13 -0.041243421 -6.5249826e-12 -0.0065752018)
(0.051936448 0.010848309 9.0744502e-14 -0.043336377 -6.417253e-12 -0.0086000707)
(0.035470564 0.01082008 -9.8145955e-15 -0.00029545148 4.9304469e-12 -0.035175113)
(0.043248559 0.010630289 3.7812198e-12 -0.0038211227 2.5638862e-12 -0.039427436)
(0.055148033 0.010333063 -1.9796581e-11 -0.0096260577 1.5452371e-11 -0.045521975)
(0.072200421 0.010107119 1.1924921e-10 -0.016517328 -1.4241467e-10 -0.055683093)
(0.1248282 0.0094417615 -3.9712749e-10 -0.087470847 3.6456305e-09 -0.037357356)
(0.16950962 0.008262132 3.9073719e-08 -0.11499176 7.7754525e-08 -0.054517862)
(0.20499402 0.007266727 -1.6513916e-06 -0.072927604 -1.009932e-05 -0.13206641)
(0.31038557 0.0051805004 1.3626365e-05 -0.12647993 6.2818249e-05 -0.18390564)
(0.48008271 0.0016850406 5.9353563e-05 -0.22718982 0.0083569195 -0.25289289)
(0.51019564 -0.0017610512 -4.72348e-05 -0.2563437 -0.012402597 -0.25385194)
(0.51009094 -0.01113072 9.0599482e-06 -0.25652248 0.010639854 -0.25356846)
(0.5101 -0.0022573646 4.6203137e-06 -0.24481967 -0.011173101 -0.26528033)
(0.30139716 -0.33629589 -2.0631231e-06 -0.27099725 2.2505237e-05 -0.03039991)
(0.04640866 0.029778249 4.6824173e-14 -0.02042767 -5.2955804e-13 -0.02598099)
(0.014763327 0.018726813 -6.2986995e-13 -0.0065819491 -3.2834602e-13 -0.0081813778)
(0.018124173 0.016303296 -3.1389228e-13 -0.0083598156 -3.3019912e-13 -0.0097643575)
(0.018415668 0.01581073 2.1969162e-15 -0.0085283835 -3.5756547e-13 -0.0098872848)
(0.017874402 0.015444048 5.3484687e-16 -0.0082645946 -4.3329317e-13 -0.0096098069)
(0.018470811 0.015169959 -3.2477285e-13 -0.0085660875 -3.8534387e-13 -0.0099047235)
(0.019410803 0.015009338 2.5562582e-15 -0.0090389946 -3.3245883e-13 -0.010371808)
(0.020288744 0.014924608 -7.6384126e-16 -0.0094808629 -4.1482271e-13 -0.010807881)
(0.021063593 0.015006042 7.2070325e-13 -0.0097340565 -3.5740471e-13 -0.011329536)
(0.020124888 0.01499666 2.1573007e-14 -0.010599887 -1.2470755e-12 -0.0095250009)
(0.020890009 0.014850463 -3.1879406e-15 -0.010995393 -1.3222818e-12 -0.0098946162)
(0.02156999 0.014838699 9.3689843e-15 -0.011256062 -1.2084134e-12 -0.010313928)
(0.022360684 0.014710234 -7.4747817e-13 -0.011791388 -1.3046771e-12 -0.010569296)
(0.025167417 0.014701382 3.5121615e-13 -0.012279135 -5.5439612e-13 -0.012888282)
(0.025891902 0.014830208 -3.7242204e-13 -0.012612118 -6.6926713e-13 -0.013279784)
(0.026775459 0.014826595 -6.9133422e-15 -0.013268245 -7.2183724e-13 -0.013507214)
(0.027429714 0.01493403 1.8030895e-14 -0.013402349 -6.4068039e-13 -0.014027364)
(0.02551637 0.014933638 2.1479347e-14 -0.012539687 -1.1261282e-12 -0.012976683)
(0.026421529 0.014765854 7.8345251e-13 -0.013061727 -9.9004942e-13 -0.013359802)
(0.027398045 0.01470698 1.1946237e-12 -0.0134503 -1.0182039e-12 -0.013947746)
(0.028810427 0.014506475 -4.108932e-13 -0.014423716 -1.0444256e-12 -0.014386711)
(0.033601068 0.014385448 -2.02462e-14 -0.017335425 -9.4766815e-13 -0.016265642)
(0.035648292 0.014385837 7.0082604e-15 -0.018215752 -8.6879261e-13 -0.01743254)
(0.038525991 0.014235285 -2.6916992e-14 -0.019738971 -9.0741383e-13 -0.01878702)
(0.042237805 0.014168024 9.893831e-13 -0.021234378 -8.4692865e-13 -0.021003427)
(0.044175637 0.013978078 -7.236901e-13 -0.021124416 -9.6282837e-13 -0.023051221)
(0.052310535 0.013570976 4.2877104e-12 -0.025400586 -1.009618e-12 -0.026909949)
(0.064116399 0.013213978 -2.6553863e-11 -0.031208042 -2.2967324e-12 -0.032908357)
(0.081715409 0.012626179 1.9131618e-10 -0.039833796 2.5432368e-11 -0.041881614)
(0.1154843 0.011890106 -1.1406416e-09 -0.062300239 1.4981798e-09 -0.053184063)
(0.15836596 0.01109444 6.1500514e-09 -0.084708744 -6.8773992e-08 -0.073657216)
(0.21173906 0.009713905 -9.1334609e-07 -0.098156131 -1.9555249e-06 -0.11358293)
(0.31734196 0.0065140782 3.1980017e-05 -0.1521728 0.00011588242 -0.16516916)
(0.48186635 0.0023900065 -2.4517054e-05 -0.23884424 -0.00026394568 -0.24302211)
(0.51040113 -0.0016210482 6.3800123e-06 -0.25419379 -0.0012370108 -0.25620735)
(0.51016628 -0.013667353 -2.4413439e-05 -0.2540581 0.00058286919 -0.25610818)
(0.5101148 -0.0037013935 -8.0150627e-06 -0.2409688 -0.00081208428 -0.26914601)
(0.33515371 -0.30160313 1.7788157e-06 -0.31074505 8.1607711e-05 -0.024408663)
(0.041437168 0.03696437 -5.4748733e-13 -0.016145314 -2.4666185e-13 -0.025291855)
(0.012482801 0.024242111 -6.3827568e-13 -0.0041143175 -1.6721176e-13 -0.0083684839)
(0.016070779 0.020992791 3.2842958e-13 -0.0059846846 -4.7906145e-14 -0.010086095)
(0.016416083 0.020333257 4.3310441e-15 -0.0061961138 -9.8619675e-14 -0.01021997)
(0.015883619 0.019863116 3.3289991e-13 -0.0059398114 -4.194743e-14 -0.0099438078)
(0.016480961 0.019512834 1.1657874e-14 -0.0062377716 -1.0635076e-13 -0.010243189)
(0.017421661 0.019305519 -3.3576759e-13 -0.0067058615 -1.346438e-13 -0.0107158)
(0.018299406 0.019194158 6.619432e-16 -0.0071418439 -1.0803459e-13 -0.011157562)
(0.019140811 0.019163531 1.0459038e-14 -0.007557445 -6.5860612e-14 -0.011583366)
(0.022173493 0.019102253 -3.4546184e-15 -0.013028375 -1.1823655e-12 -0.0091451178)
(0.023002713 0.019054969 7.1652299e-13 -0.013507462 -1.1058091e-12 -0.0094952506)
(0.023754114 0.019040167 1.0308835e-14 -0.013908363 -1.1624421e-12 -0.0098457511)
(0.024501553 0.019005342 2.712445e-15 -0.014306585 -1.2397667e-12 -0.010194968)
(0.023008326 0.019038978 -3.69745e-13 -0.0095145052 -1.8815363e-13 -0.013493821)
(0.023662607 0.01907122 1.5415633e-15 -0.0097620114 -2.6550057e-13 -0.013900595)
(0.024376507 0.019068165 -5.0475571e-15 -0.010070269 -2.2028814e-13 -0.014306237)
(0.025077461 0.019084223 1.5370929e-15 -0.010372773 -1.9516415e-13 -0.014704688)
(0.028073702 0.019016714 3.953753e-13 -0.016061788 -1.1518971e-12 -0.012011914)
(0.029041271 0.018927354 -2.1883951e-16 -0.016637959 -1.1311113e-12 -0.012403311)
(0.030096966 0.018848581 4.0757547e-13 -0.017190599 -1.0773581e-12 -0.012906367)
(0.031432972 0.018709989 -4.0206229e-13 -0.017917733 -1.2471613e-12 -0.013515239)
(0.030845953 0.018617168 -9.8622707e-16 -0.013314046 -2.8719575e-13 -0.017531907)
(0.032841074 0.01849832 1.2445851e-14 -0.014197404 -2.533877e-13 -0.01864367)
(0.035628116 0.01830658 -4.4785282e-13 -0.015556615 -2.7087707e-13 -0.020071501)
(0.039414424 0.01810872 1.9576948e-13 -0.017356919 -2.5611391e-13 -0.022057505)
(0.047089378 0.017784276 -5.6714703e-13 -0.025579061 -1.2441132e-12 -0.021510317)
(0.055183797 0.017378555 5.2901564e-12 -0.02972471 -1.1622189e-12 -0.025459087)
(0.066954602 0.016913562 -3.6164866e-11 -0.035583968 -3.2261598e-12 -0.031370634)
(0.084779664 0.016234827 2.6084833e-10 -0.0446947 4.1528907e-11 -0.040084964)
(0.10958445 0.015393605 -2.4144535e-09 -0.052124658 -8.4166954e-10 -0.057459796)
(0.15090701 0.014257239 2.0369724e-08 -0.071984321 -2.3492887e-08 -0.078922685)
(0.2172868 0.012261862 -3.3271951e-07 -0.11058194 7.8194635e-07 -0.10670486)
(0.3214681 0.0081719213 2.34597e-05 -0.16259457 4.0351747e-05 -0.15887353)
(0.48044918 0.0029791037 -1.3601067e-05 -0.24031716 -0.0012531782 -0.24013201)
(0.51039519 -0.0019907791 -2.8015634e-06 -0.25337973 0.000823328 -0.25701546)
(0.51001681 -0.017325619 -7.1084703e-06 -0.25355543 -0.00076750643 -0.25646138)
(0.51000064 -0.0062649963 -3.0115545e-06 -0.23890979 0.00078799514 -0.27109085)
(0.37724851 -0.25174351 1.4681071e-06 -0.34768409 1.9404826e-05 -0.029564415)
(0.038918618 0.045171283 6.8085142e-14 -0.016250066 -5.7367909e-13 -0.022668552)
(0.012837726 0.031198597 2.1590838e-13 -0.0059788795 -5.00075e-13 -0.0068588463)
(0.016795388 0.026934623 4.5187592e-13 -0.0080877559 -3.1751857e-13 -0.0087076319)
(0.01722976 0.02604734 2.7793178e-15 -0.0083678972 -4.7715829e-13 -0.0088618633)
(0.016711215 0.025446368 -3.6627255e-18 -0.0081239266 -4.261073e-13 -0.0085872887)
(0.017311659 0.025001023 8.493282e-15 -0.0084252327 -4.6471794e-13 -0.0088864258)
(0.018254875 0.024735205 3.1941189e-15 -0.0088960352 -5.1544489e-13 -0.0093588401)
(0.019134358 0.0245865 4.7831056e-19 -0.009335264 -4.9593148e-13 -0.0097990944)
(0.020012822 0.024485669 -2.3922506e-13 -0.0098056727 -5.3182561e-13 -0.010207149)
(0.021458152 0.024435905 -7.3701706e-15 -0.011036809 -6.1349486e-13 -0.010421344)
(0.022264018 0.024432971 7.4337577e-13 -0.011447165 -4.0959839e-13 -0.010816853)
(0.023022943 0.024416917 1.2088392e-14 -0.011844485 -5.9294911e-13 -0.011178459)
(0.023720275 0.024429587 1.1508432e-14 -0.012159109 -5.8384879e-13 -0.011561166)
(0.023759994 0.024440681 9.0469113e-15 -0.011583469 -5.6417225e-13 -0.012176525)
(0.024444856 0.024418517 8.8809186e-16 -0.011920157 -5.2843246e-13 -0.012524699)
(0.025128709 0.02440859 -8.2620949e-15 -0.012215924 -5.3998704e-13 -0.012912785)
(0.025896781 0.024360712 -6.2857362e-15 -0.012640896 -5.2948129e-13 -0.013255885)
(0.027465239 0.024299524 -6.1513798e-16 -0.014179302 -5.7776192e-13 -0.013285937)
(0.028378125 0.024245507 2.5541759e-15 -0.014629864 -6.0415736e-13 -0.013748261)
(0.029439504 0.024143467 8.9853022e-15 -0.015179872 -5.5776744e-13 -0.014259632)
(0.030672364 0.02403028 9.8466567e-15 -0.015734953 -6.9150928e-13 -0.014937411)
(0.031413576 0.023882026 4.8163956e-15 -0.015220978 -5.3979476e-13 -0.016192598)
(0.033464733 0.023659243 1.4078693e-14 -0.016256871 -5.3318916e-13 -0.017207862)
(0.036219068 0.023410337 -3.3318152e-13 -0.017604974 -6.2705143e-13 -0.018614094)
(0.040095621 0.023085714 2.5230981e-13 -0.019605451 -5.8109635e-13 -0.020490169)
(0.046462662 0.022695239 -1.3399447e-12 -0.023764322 -7.0319578e-13 -0.02269834)
(0.054388083 0.022243617 7.7213557e-12 -0.02767287 -6.4065771e-13 -0.026715213)
(0.066060998 0.021638952 -4.7888999e-11 -0.033494526 -3.0893116e-12 -0.032566471)
(0.083623164 0.020850967 3.4507873e-10 -0.04226073 2.9314071e-11 -0.041362434)
(0.10869828 0.019751011 -3.3043341e-09 -0.05289938 -1.1251618e-09 -0.055798902)
(0.1496801 0.018040135 4.2602324e-08 -0.073048987 2.6956533e-08 -0.07663111)
(0.21597415 0.015441647 -5.4719014e-07 -0.10916236 -1.1157162e-08 -0.10681179)
(0.31875569 0.010375662 1.1572952e-05 -0.16006048 5.8469474e-06 -0.15869521)
(0.47526247 0.0037282605 1.4997939e-06 -0.23687967 -0.00064196836 -0.23838279)
(0.51038563 -0.0026517905 -7.9836101e-06 -0.25311454 0.00023934453 -0.25727109)
(0.50978739 -0.021814473 1.3301593e-06 -0.25339066 -0.00016742291 -0.25639674)
(0.50990152 -0.0098507955 3.2397444e-07 -0.23897537 0.00020051415 -0.27092615)
(0.40731332 -0.22137848 -4.9455994e-07 -0.3501982 -5.4785334e-06 -0.057115128)
(0.036020831 0.053447998 -8.8968597e-14 -0.014972617 -5.3027796e-13 -0.021048214)
(0.01267372 0.038964181 3.2397946e-16 -0.0063201939 -4.7021243e-13 -0.0063535259)
(0.017099272 0.03365087 -1.485668e-13 -0.0087399832 -4.0189417e-13 -0.0083592883)
(0.017663697 0.032491861 -1.183544e-15 -0.0091182938 -4.5193795e-13 -0.0085454034)
(0.017169256 0.031742759 1.6072898e-13 -0.0088948197 -4.2310659e-13 -0.0082744367)
(0.017778921 0.031190959 9.9034552e-15 -0.0092050829 -4.303483e-13 -0.0085738382)
(0.018730011 0.030858945 -1.6400881e-13 -0.0096837687 -5.3395327e-13 -0.0090462421)
(0.019615995 0.030667735 -2.85242e-15 -0.010130528 -4.7919487e-13 -0.0094854672)
(0.020487155 0.03055461 3.9973217e-15 -0.01057452 -5.4014878e-13 -0.0099126354)
(0.021101214 0.03050852 -1.7400261e-13 -0.010404089 -4.5431217e-13 -0.010697125)
(0.021887452 0.030488732 -1.0759271e-15 -0.010782274 -2.8208051e-13 -0.011105178)
(0.022632623 0.030470189 1.2948058e-14 -0.011151934 -3.7796606e-13 -0.011480689)
(0.023335059 0.030468196 -1.6849397e-13 -0.01149135 -4.5143145e-13 -0.011843709)
(0.02425207 0.030457175 7.8742797e-15 -0.012426422 -5.4296501e-13 -0.011825648)
(0.024955415 0.030441245 -1.8487303e-13 -0.012795133 -5.5093759e-13 -0.012160282)
(0.025662099 0.030423543 -1.1879801e-14 -0.01314807 -5.3835368e-13 -0.012514029)
(0.026421983 0.030375002 1.8357729e-13 -0.013544524 -5.0959864e-13 -0.012877459)
(0.027021149 0.030317401 2.5712202e-15 -0.013369915 -4.1640062e-13 -0.013651234)
(0.027906232 0.030233327 3.630211e-15 -0.01378661 -4.4796793e-13 -0.014119623)
(0.028945429 0.030104364 1.0619666e-14 -0.014300714 -3.8081793e-13 -0.014644714)
(0.030173445 0.029948433 -1.8714782e-13 -0.01488524 -5.0178199e-13 -0.015288205)
(0.031930835 0.029735827 -3.9545038e-13 -0.016227515 -5.8601192e-13 -0.01570332)
(0.033984624 0.029469541 1.4489694e-14 -0.017277449 -5.2922633e-13 -0.016707175)
(0.036727326 0.029158061 1.3988704e-13 -0.018643371 -6.2056043e-13 -0.018083955)
(0.040561963 0.028765981 3.3293059e-13 -0.020584348 -5.6280085e-13 -0.019977615)
(0.045786556 0.02830551 -1.5566072e-12 -0.02271802 -5.1802466e-13 -0.023068536)
(0.053610058 0.027733683 1.0201581e-11 -0.026574682 -7.9619368e-14 -0.027035376)
(0.065145845 0.026981246 -6.3859016e-11 -0.032315919 -5.9043901e-12 -0.032829927)
(0.082438236 0.02599906 4.5833058e-10 -0.040871606 5.5035694e-11 -0.041566631)
(0.10866225 0.024594039 -4.0985269e-09 -0.054303003 -9.8113127e-10 -0.054359243)
(0.14938233 0.022454515 5.2879612e-08 -0.074668861 3.3766984e-08 -0.074713471)
(0.21278244 0.019286591 -6.9202441e-07 -0.1059372 -7.3914672e-07 -0.10684524)
(0.31431977 0.013093577 8.9520959e-06 -0.15632504 1.1012785e-05 -0.15799473)
(0.46911656 0.0047874084 3.3361292e-06 -0.23335841 -0.00023375601 -0.23575815)
(0.51037473 -0.0032453007 -6.6500017e-06 -0.25311423 -5.2341662e-05 -0.2572605)
(0.50949128 -0.026510116 4.3163939e-07 -0.25341046 4.2161333e-05 -0.25608082)
(0.50961061 -0.0084563059 3.8525321e-07 -0.23432922 -4.0239061e-05 -0.27528139)
(0.37011269 -0.24000262 -2.4860072e-07 -0.37173382 -3.4003208e-06 0.0016211387)
(0.032616877 0.061797651 5.3750014e-14 -0.012876288 -4.6824984e-13 -0.019740589)
(0.011941158 0.047578932 1.6885232e-15 -0.0057314121 -4.1729403e-13 -0.006209746)
(0.016890013 0.041220455 1.1474806e-14 -0.0084741821 -3.447358e-13 -0.0084158305)
(0.017631166 0.039747025 1.31756e-15 -0.0089832746 -3.5496239e-13 -0.0086478911)
(0.017171162 0.038830109 2.3415398e-13 -0.0087880396 -2.8703259e-13 -0.0083831226)
(0.017792803 0.038158591 -2.2908442e-13 -0.0091080617 -3.7891527e-13 -0.0086847409)
(0.018753071 0.037751068 1.8719388e-15 -0.0095941359 -4.2306677e-13 -0.0091589351)
(0.019645646 0.037510415 -2.4547666e-13 -0.010046449 -3.8483121e-13 -0.0095991966)
(0.020510811 0.037377554 5.3058122e-15 -0.010477192 -3.6576889e-13 -0.010033619)
(0.021232003 0.037313039 2.3810184e-15 -0.010683756 -4.0655106e-13 -0.010548248)
(0.022019981 0.037273965 2.5466142e-13 -0.011073092 -2.5073684e-13 -0.010946889)
(0.02276115 0.037249502 -2.4560474e-13 -0.01144009 -3.6454214e-13 -0.011321061)
(0.02347428 0.037228941 1.0260458e-14 -0.011802631 -4.2888939e-13 -0.01167165)
(0.024298249 0.037211644 8.2005189e-15 -0.012383905 -4.5465939e-13 -0.011914344)
(0.024993687 0.037198233 2.0618463e-17 -0.012735664 -4.9836715e-13 -0.012258024)
(0.025703943 0.037169882 1.2280518e-13 -0.013097082 -4.252058e-13 -0.012606861)
(0.026441672 0.037120203 1.3212527e-13 -0.0134575 -3.5574251e-13 -0.012984171)
(0.027095951 0.0370424 2.617305e-15 -0.013588719 -3.8462167e-13 -0.013507232)
(0.027981612 0.036920066 1.4479828e-13 -0.01402454 -3.9951508e-13 -0.013957072)
(0.029007216 0.036757599 1.1716261e-14 -0.014528772 -3.4773383e-13 -0.014478444)
(0.030245559 0.036547197 6.8039298e-15 -0.015151471 -4.8396086e-13 -0.015094088)
(0.031947815 0.036284918 2.9161808e-13 -0.016209464 -4.6441533e-13 -0.015738351)
(0.033965816 0.035972153 1.9719366e-14 -0.017213508 -4.2981552e-13 -0.016752308)
(0.036681201 0.035590419 -8.1549701e-14 -0.018566797 -5.0243439e-13 -0.018114404)
(0.040442647 0.035127433 4.3115625e-13 -0.020426429 -4.8024881e-13 -0.020016218)
(0.045619646 0.034563828 -2.282234e-12 -0.022770049 -5.2701278e-13 -0.022849597)
(0.05336428 0.033850327 1.3096596e-11 -0.026621875 4.8586817e-13 -0.026742406)
(0.06474472 0.032932969 -8.3586092e-11 -0.032280684 -1.0885179e-11 -0.032464036)
(0.081819367 0.0317134 6.0270745e-10 -0.040767187 1.1615329e-10 -0.04105218)
(0.10782317 0.029992602 -5.1989645e-09 -0.054049217 -1.5580858e-09 -0.053773953)
(0.14795137 0.027439215 5.7828749e-08 -0.074059496 3.2270465e-08 -0.073891874)
(0.20994211 0.023615159 -7.0886446e-07 -0.104349 -8.2526439e-07 -0.10559311)
(0.31009345 0.016184377 7.2787312e-06 -0.15418354 1.3810828e-05 -0.15590991)
(0.46248524 0.0060585181 2.1809636e-06 -0.23023356 -0.00015675858 -0.23225168)
(0.51035861 -0.003927934 -4.3576942e-06 -0.25294835 -4.2809101e-05 -0.25741026)
(0.50912575 -0.031342238 -6.9244623e-07 -0.25338749 1.8666232e-05 -0.25573826)
(0.50952094 -0.013227497 -6.9645237e-08 -0.23395127 -2.4766566e-05 -0.27556967)
(0.38111627 -0.21659762 -1.3903357e-08 -0.38046658 -3.8240941e-07 -0.00064969267)
(0.029544525 0.070156439 4.4260029e-14 -0.011116101 -3.6892514e-13 -0.018428424)
(0.011110146 0.057041974 1.7087303e-13 -0.0051698424 -2.8288492e-13 -0.0059403033)
(0.016601742 0.049712483 1.6598152e-14 -0.0082205062 -2.37029e-13 -0.008381236)
(0.01757564 0.047895712 2.4441019e-15 -0.0088987463 -2.8715766e-13 -0.0086768937)
(0.017166161 0.046795125 1.6977741e-13 -0.0087441072 -2.1445817e-13 -0.0084220534)
(0.017805325 0.045993805 6.8866136e-15 -0.009077518 -3.1681847e-13 -0.0087278067)
(0.018778111 0.045505045 -1.7192878e-13 -0.009572951 -3.4387097e-13 -0.0092051603)
(0.019679412 0.045210931 -1.2919182e-15 -0.010032072 -3.618065e-13 -0.00964734)
(0.020550549 0.045043139 6.1092939e-15 -0.010471335 -3.0906713e-13 -0.010079214)
(0.021411489 0.044956398 5.039975e-15 -0.010948568 -3.592289e-13 -0.010462921)
(0.022204354 0.044910079 6.4979561e-16 -0.01134908 -2.3140389e-13 -0.010855273)
(0.022946186 0.044880776 8.9128201e-15 -0.011721056 -3.4009845e-13 -0.011225129)
(0.023657447 0.04485447 1.1708309e-14 -0.012081017 -3.7149188e-13 -0.01157643)
(0.024335169 0.044833288 8.8023484e-15 -0.01237907 -3.4237502e-13 -0.011956099)
(0.025021068 0.044809657 1.8111883e-15 -0.012718579 -3.6902027e-13 -0.012302489)
(0.025722622 0.0447694 -1.0502947e-14 -0.013068988 -3.6080902e-13 -0.012653633)
(0.026452065 0.044704775 -5.3249642e-15 -0.013426374 -2.9638182e-13 -0.013025691)
(0.027250327 0.044601067 1.0010628e-15 -0.013859146 -3.480532e-13 -0.013391181)
(0.028132148 0.044450354 2.0918882e-13 -0.01430066 -3.0710292e-13 -0.013831488)
(0.029147724 0.044251463 -1.9313515e-13 -0.014803528 -3.3617351e-13 -0.014344196)
(0.030373081 0.04399514 7.6395449e-15 -0.015417745 -4.1720101e-13 -0.014955336)