/*--------------------------------*- C++ -*----------------------------------*\
| =========                 |                                                 |
| \\      /  F ield         | OpenFOAM: The Open Source CFD Toolbox           |
|  \\    /   O peration     | Version:  2.4.0                                 |
|   \\  /    A nd           | Web:      www.OpenFOAM.org                      |
|    \\/     M anipulation  |                                                 |
\*---------------------------------------------------------------------------*/
FoamFile
{
    version     2.0;
    format      ascii;
    class       volScalarField;
    location    "2000";
    object      omega;
}
// * * * * * * * * * * * * * * * * * * * * * * * * * * * * * * * * * * * * * //

dimensions      [0 0 -1 0 0 0 0];

internalField   nonuniform List<scalar> 
15296
(
0.85798629
0.85571122
0.85347246
0.85143288
0.84961565
0.84804542
0.8467304
0.84567642
0.84489174
0.84423507
0.8440548
0.84417905
0.84461091
0.84546008
0.84658298
0.84813606
0.85000879
0.85202221
0.85470136
0.85777836
0.86128298
0.86531202
0.86971096
0.87451956
0.87977549
0.88518207
0.89138468
0.89806322
0.90574862
0.9163909
0.92921287
0.94196069
0.9585431
0.98215482
1.0726457
1.3563705
2.8533847
2.3799922
0.85731406
0.85511226
0.85288906
0.85086321
0.84906086
0.84750264
0.84619844
0.845155
0.84438044
0.8438677
0.84367966
0.84379655
0.84422249
0.84494754
0.84604596
0.84755118
0.84940842
0.85159606
0.85425039
0.85731403
0.86080332
0.86467853
0.86903879
0.87382627
0.87905764
0.88466312
0.89082222
0.89746883
0.90494729
0.91420452
0.92531424
0.9378235
0.95231008
0.97356294
1.0543812
1.2884662
2.5292734
0.78095215
0.85703044
0.8548344
0.85262843
0.85061432
0.84882365
0.84727566
0.84598095
0.84494672
0.84418121
0.84368628
0.84349869
0.84361542
0.84404252
0.84476909
0.84586257
0.84735264
0.84920664
0.85141218
0.85405747
0.85711612
0.86060052
0.86447454
0.86882178
0.87360056
0.87882194
0.88444019
0.89057718
0.8972047
0.904583
0.91342143
0.92393165
0.93591444
0.94951806
0.97015337
1.0464949
1.2621579
2.359264
7.3451385
0.85691095
0.85470391
0.85251443
0.85051277
0.84873407
0.84719708
0.84591276
0.84488869
0.84413306
0.84364926
0.8434662
0.84358666
0.84401811
0.84475436
0.84584917
0.84733365
0.84918843
0.85140399
0.85404718
0.85710538
0.86058904
0.86447023
0.86881152
0.87358579
0.87880104
0.88442248
0.89054473
0.89715774
0.90446958
0.91304424
0.92315048
0.93474039
0.94774824
0.96782288
1.0403392
1.2453391
2.2127705
7.4063278
0.85688778
0.85466732
0.85249325
0.85050543
0.84874006
0.84721562
0.84594339
0.84493116
0.84418712
0.84371571
0.84354052
0.84366794
0.84410669
0.84485417
0.84595477
0.84743967
0.84929887
0.85152559
0.85417169
0.85723312
0.86071956
0.8646088
0.86894887
0.87372176
0.8789339
0.88455857
0.89067062
0.89727186
0.90453491
0.91291541
0.92271395
0.93399534
0.94655285
0.96606802
1.0357728
1.2330513
2.1068387
9.5789693
0.85694741
0.85471422
0.85255909
0.85059118
0.84884524
0.84733946
0.84608535
0.84509097
0.84436448
0.84391114
0.84374999
0.84389026
0.84434204
0.84510665
0.8462196
0.84771131
0.84958058
0.85182382
0.85447899
0.85754895
0.86104303
0.86494479
0.86928818
0.87406289
0.87927443
0.88490358
0.89100666
0.89759529
0.90480956
0.91299783
0.92247934
0.93342837
0.94552874
0.96428707
1.0311987
1.2206736
1.9987316
9.0961535
0.85715513
0.85492261
0.85279185
0.85085372
0.84913762
0.84766092
0.84643535
0.84546919
0.84477054
0.8443453
0.84420908
0.84437287
0.84484815
0.84564023
0.84677732
0.84828804
0.85017839
0.85244805
0.85512374
0.85821248
0.86172375
0.8656463
0.87000188
0.87478534
0.88000201
0.88563895
0.89173701
0.89831423
0.9054844
0.91350178
0.92268293
0.93329441
0.94497635
0.96274767
1.0269763
1.2077982
1.902873
4.8893795
0.85753171
0.85531389
0.85321693
0.85131899
0.84964359
0.84820701
0.84702102
0.84609411
0.84543431
0.845048
0.84494842
0.84514754
0.84565806
0.84648872
0.84766286
0.8492066
0.85113098
0.85343844
0.85614746
0.859267
0.86280675
0.86675941
0.87113753
0.87593845
0.88116782
0.88681742
0.89291631
0.89948558
0.90661934
0.91450123
0.92342642
0.93372509
0.94506891
0.96171658
1.0235992
1.1938766
1.8652648
3.0182814
0.85811727
0.85592781
0.85388304
0.85203991
0.85041998
0.84903834
0.84790675
0.84703384
0.84642758
0.8460948
0.84604706
0.84629694
0.84685817
0.8477425
0.84897031
0.85056481
0.85254038
0.85490123
0.85765991
0.8608259
0.86440901
0.86840449
0.87281815
0.87764788
0.88289992
0.88856947
0.89467625
0.90124195
0.90834553
0.91611957
0.92482552
0.93482893
0.94590469
0.96129158
1.0211144
1.1778014
1.8677624
3.6353025
0.8589316
0.8568262
0.85485607
0.8530879
0.85154376
0.85023735
0.84918027
0.84838138
0.84784859
0.84758913
0.84761356
0.84793492
0.84856787
0.84952686
0.85083063
0.85249934
0.85454952
0.85698544
0.85981557
0.86304927
0.86669612
0.87075256
0.87521928
0.8800935
0.8853823
0.89108285
0.89720726
0.90377595
0.91085617
0.91854361
0.92706127
0.93677993
0.94764887
0.9616291
1.0196291
1.1589328
1.8976488
3.3446922
0.86002886
0.85808233
0.85621975
0.85455537
0.85311499
0.85191124
0.85095573
0.85025763
0.84982493
0.84966527
0.84978881
0.85020918
0.85094198
0.85200418
0.85341366
0.85518745
0.85734369
0.85988387
0.86281427
0.86614395
0.86988184
0.87402394
0.87856693
0.88350669
0.8888516
0.89459892
0.90075427
0.90733533
0.91439926
0.92201847
0.93037712
0.93981934
0.95053752
0.96297348
1.0192772
1.1390933
1.9033388
3.2855556
0.86153474
0.85977679
0.85807624
0.85655762
0.85525871
0.85419382
0.85337514
0.85281248
0.85251411
0.85248826
0.85274531
0.85329992
0.85416864
0.855371
0.85692412
0.85884188
0.86114253
0.86382519
0.8668917
0.87035252
0.87421534
0.87847373
0.88312108
0.88815193
0.89357684
0.89939051
0.9055926
0.91219719
0.91925168
0.9268165
0.93504376
0.94421764
0.9548319
0.96563106
1.0201442
1.1218604
1.8673335
3.2199212
0.86352744
0.86203313
0.86055738
0.85923968
0.85813295
0.85725479
0.85661898
0.85623652
0.85611644
0.85626802
0.85670266
0.85743675
0.85848785
0.85987829
0.86162362
0.86373432
0.86622707
0.86910098
0.87234765
0.87598332
0.88001289
0.88442486
0.88921032
0.89436302
0.89989745
0.90580138
0.91206892
0.9187102
0.92576218
0.93328133
0.94140359
0.95031699
0.9608594
0.96999367
1.0223206
1.1098452
1.7895754
3.0955368
0.86612964
0.8650081
0.86383083
0.8627864
0.86194044
0.86131329
0.8609216
0.86077857
0.86089466
0.8612812
0.86195183
0.86292588
0.86422169
0.86586501
0.86786718
0.87023501
0.87298488
0.87611165
0.87959425
0.88346252
0.8877131
0.89232636
0.89729315
0.90260806
0.90827366
0.91428106
0.92062567
0.92731367
0.93437001
0.9418795
0.94995994
0.95862366
0.96911135
0.97663182
1.0261336
1.1025453
1.714097
3.0700178
0.86961957
0.86888255
0.86810294
0.86742965
0.86693481
0.86664301
0.86657553
0.86674901
0.86717632
0.8678727
0.86885599
0.87015035
0.87177387
0.87375691
0.87610006
0.87880742
0.88189806
0.88535086
0.88914126
0.89328817
0.89778743
0.90262753
0.90780258
0.91330742
0.91912324
0.92525029
0.93168761
0.93843628
0.94550973
0.95302251
0.96111104
0.96975871
0.98020446
0.98630994
1.0320973
1.1017485
1.6118338
3.2167886
0.87499276
0.87486186
0.87469093
0.87459595
0.87465204
0.8748857
0.87532416
0.8759895
0.87689913
0.87807698
0.87954945
0.8813495
0.88349098
0.88601323
0.88888544
0.89209637
0.89565262
0.89954026
0.90375477
0.90827115
0.91309303
0.91823152
0.92368553
0.92944798
0.93550305
0.94183725
0.94843905
0.95530009
0.9624204
0.9698721
0.97787879
0.98661547
0.99725771
1.0025586
1.0426214
1.1092238
1.4721474
3.125237
0.88291824
0.88366637
0.88437127
0.88511628
0.88598141
0.88699133
0.88817693
0.88956652
0.89118682
0.89308302
0.89529565
0.89787146
0.90077956
0.90401103
0.90755071
0.91138621
0.91550083
0.91991582
0.92464376
0.9296707
0.93498715
0.94058999
0.9464732
0.95262674
0.95903422
0.96567518
0.97252738
0.97956861
0.98678389
0.9941869
1.0019635
1.0102127
1.0208623
1.026809
1.0601852
1.1162209
1.4208959
2.4477264
0.8930073
0.89477501
0.89651596
0.89827395
0.9001287
0.90209672
0.90420734
0.90649496
0.90900877
0.91184069
0.91499385
0.91845245
0.92219056
0.92616632
0.93040827
0.93493345
0.93974092
0.94483043
0.95020213
0.95584995
0.96175902
0.96791942
0.97431902
0.98094343
0.9877733
0.99478305
1.0019415
1.0092124
1.0165638
1.0239643
1.0315385
1.0392593
1.0489709
1.055534
1.0821754
1.1231176
1.412461
1.8847663
0.90562447
0.90858795
0.91153935
0.9144859
0.91751139
0.92062151
0.92383901
0.92721295
0.93086295
0.93478875
0.93896333
0.9433431
0.94795658
0.95281161
0.95791467
0.96327273
0.96888773
0.97475692
0.98087423
0.98722983
0.99381023
1.0005993
1.0075799
1.0147342
1.0220391
1.0294645
1.0369714
1.0445105
1.0520312
1.0594684
1.0668821
1.0741649
1.0827355
1.0894325
1.1080577
1.1377105
1.3973851
1.4934877
0.92111624
0.92551432
0.92988523
0.93421139
0.93859474
0.9430327
0.94754356
0.95225117
0.9571761
0.96225685
0.96750866
0.97295353
0.97860663
0.98447438
0.99055889
0.99686135
1.0033813
1.010115
1.0170541
1.0241862
1.031496
1.0389644
1.0465716
1.0542959
1.0621114
1.069984
1.0778681
1.0857029
1.0934189
1.1009208
1.1082081
1.1151265
1.1226252
1.1291737
1.1407768
1.1667457
1.3504783
1.4864281
0.93995625
0.94602107
0.95203342
0.95794727
0.96388868
0.96984474
0.97588269
0.98206798
0.98832908
0.99469045
1.0011874
1.0078431
1.0146687
1.0216669
1.0288366
1.0361755
1.0436804
1.0513467
1.0591657
1.0671239
1.0752044
1.0833873
1.0916515
1.0999725
1.1083217
1.1166625
1.1249441
1.1330955
1.1410299
1.1486227
1.1558153
1.1624156
1.1689758
1.1751404
1.1812964
1.2060931
1.3079862
1.5559839
0.96265078
0.97060319
0.97849119
0.98621983
0.99393288
1.0016154
1.0093594
1.0171009
1.0248523
1.0326538
1.0405399
1.0485325
1.0566407
1.0648652
1.073202
1.0816463
1.0901935
1.0988381
1.107572
1.1163829
1.1252542
1.1341663
1.1430973
1.1520232
1.1609139
1.1697306
1.1784179
1.1868973
1.1950665
1.2027723
1.2099017
1.2162174
1.2219906
1.2272971
1.2312338
1.2489107
1.2924268
1.5877665
0.98967006
0.99977214
1.0098079
1.0196051
1.029316
1.0389503
1.0485086
1.0579608
1.0673526
1.076728
1.0861203
1.0955504
1.1050262
1.114547
1.1241072
1.1337007
1.1433219
1.1529658
1.1626259
1.1722926
1.181952
1.1915868
1.2011768
1.2106986
1.2201239
1.229412
1.2385053
1.2473176
1.2557332
1.2635706
1.2706714
1.2767342
1.2818597
1.2859636
1.288918
1.2976736
1.3093894
1.5620181
1.0216253
1.034212
1.0466781
1.0587912
1.0707222
1.0824978
1.0940232
1.105338
1.1165034
1.1275658
1.1385592
1.1495046
1.16041
1.1712746
1.1820924
1.1928569
1.2035632
1.2142077
1.2247872
1.2352964
1.2457265
1.2560651
1.2662962
1.2763994
1.2863477
1.296101
1.3056009
1.3147535
1.3234306
1.331426
1.3385393
1.3443836
1.3489763
1.3518442
1.3537239
1.3569076
1.3525836
1.5336051
1.0595271
1.0747957
1.0899131
1.1045638
1.1189216
1.1330396
1.1467048
1.1600283
1.1730889
1.1859377
1.1986109
1.2111322
1.2235118
1.2357502
1.2478427
1.2597841
1.2715713
1.2832044
1.2946856
1.3060164
1.3171956
1.3282181
1.3390745
1.3497491
1.3602179
1.3704418
1.3803601
1.3898734
1.3988421
1.4070358
1.4142152
1.4198969
1.4240522
1.4258792
1.4259635
1.4287736
1.4159501
1.5281543
1.1039998
1.1222839
1.1403424
1.1577806
1.1747831
1.1914236
1.207486
1.2229754
1.2380569
1.2527876
1.2672099
1.2813562
1.2952428
1.3088733
1.3222455
1.3353566
1.3482085
1.3608092
1.3731701
1.3853025
1.3972147
1.408911
1.4203895
1.431641
1.4426451
1.4533638
1.4637347
1.4736519
1.4829642
1.4914141
1.498727
1.5043393
1.5081128
1.5090999
1.5075635
1.5068263
1.5033327
1.5557228
1.1563642
1.1778505
1.199058
1.2194936
1.2393422
1.258662
1.2773736
1.2953946
1.3126993
1.3293788
1.3455988
1.361421
1.3768536
1.3918952
1.4065463
1.4208111
1.4347055
1.4482548
1.4614842
1.4744156
1.4870669
1.499451
1.5115741
1.5234338
1.5350132
1.5462757
1.5571587
1.5675497
1.5772831
1.5860727
1.5936005
1.5992387
1.602665
1.6029925
1.6002243
1.5947805
1.5984209
1.599797
1.2177559
1.2427201
1.2673407
1.2910145
1.3139183
1.3361108
1.3575724
1.3782892
1.3981986
1.4173578
1.4357419
1.4534089
1.4704351
1.4868766
1.5027734
1.5181518
1.5330779
1.5476056
1.561754
1.5755426
1.5889941
1.6021298
1.6149654
1.6275059
1.639737
1.6516284
1.6631226
1.6740976
1.6843654
1.6936033
1.7014416
1.7071866
1.7103633
1.7099571
1.706215
1.6970354
1.7006966
1.6697034
1.290176
1.3188779
1.3471276
1.3742282
1.4003529
1.4255795
1.4498927
1.4733144
1.4958687
1.5175987
1.5384508
1.5584365
1.5776
1.595988
1.6136455
1.630627
1.6469591
1.6626821
1.6778643
1.6925733
1.7068672
1.7207915
1.7343781
1.7476426
1.7605677
1.7731768
1.7854314
1.7971575
1.8081123
1.8179205
1.8261546
1.8320527
1.8350339
1.8337349
1.8288774
1.8176519
1.8144817
1.7804133
1.3760708
1.408752
1.4408428
1.4715611
1.5010782
1.5294984
1.5568148
1.5830491
1.6082427
1.6324442
1.6556941
1.6780242
1.6994622
1.7200382
1.7397885
1.7587695
1.7770026
1.7945235
1.8114101
1.8277441
1.8435984
1.859032
1.8740858
1.888776
1.9030985
1.9169854
1.9303255
1.9429569
1.9546485
1.9650135
1.9735883
1.9795565
1.9822197
1.9801127
1.9732882
1.9605384
1.9514552
1.9079807
1.4787572
1.5156512
1.5518195
1.5863903
1.6195214
1.6513423
1.681857
1.7110835
1.7390675
1.7658699
1.7915575
1.8161924
1.8398303
1.8625277
1.8843472
1.9053631
1.9256554
1.9453055
1.9643944
1.982998
2.001181
2.0189919
2.0364576
2.0535734
2.0703128
2.086523
2.1020073
2.1165624
2.1299174
2.1416414
2.151213
2.1577577
2.1604442
2.1577901
2.1489417
2.1332282
2.1197899
2.0641253
1.6030612
1.6445276
1.6851168
1.7238683
1.7609099
1.7963964
1.8303494
1.8627859
1.8937616
1.9233654
1.951699
1.9788597
2.0049404
2.0300369
2.0542524
2.0776983
2.1004895
2.1227375
2.1445414
2.1659813
2.1871125
2.2079617
2.2285223
2.2487485
2.2685529
2.2877884
2.3062424
2.3236215
2.3395563
2.3535262
2.3649196
2.3727922
2.3761943
2.373541
2.3638944
2.344313
2.3260777
2.2588954
1.7509421
1.7975754
1.8430348
1.886288
1.9274528
1.9667473
2.0042472
2.0399921
2.0740729
2.1066382
2.1378537
2.1678747
2.1968475
2.2249185
2.2522369
2.2789503
2.3051958
2.3310904
2.3567206
2.3821363
2.4073469
2.4323191
2.4569756
2.481193
2.5048004
2.5275746
2.5492384
2.5694398
2.587756
2.6036201
2.6163776
2.6250559
2.6286643
2.625565
2.6148036
2.5928472
2.5701518
2.4922096
1.9181595
1.9705806
2.0211942
2.0689598
2.1140946
2.1569946
2.1978728
2.2368363
2.2740461
2.3097465
2.3441959
2.377625
2.4102416
2.4422413
2.4738049
2.5050875
2.5362053
2.5672255
2.5981597
2.6289627
2.6595349
2.689727
2.7193445
2.7481524
2.7758805
2.8022234
2.8268431
2.8493478
2.8692964
2.8861195
2.8991747
2.9075141
2.9101822
2.9055559
2.8927819
2.8678725
2.8423219
2.7545811
2.1017409
2.1604276
2.2161325
2.2680645
2.316776
2.3630171
2.4072207
2.4495767
2.4903223
2.5298091
2.5683957
2.6063859
2.6440338
2.6815527
2.7191035
2.7567767
2.7945805
2.8324397
2.8702017
2.9076488
2.9445127
2.9804883
3.0152474
3.0484492
3.0797508
3.1088075
3.1352738
3.158776
3.1789123
3.1951659
3.206962
3.2134251
3.2136932
3.2062091
3.190299
3.1616746
3.1328721
3.0381057
2.303819
2.3679126
2.4280488
2.4838145
2.5361443
2.5861765
2.6345281
2.6813979
2.7270571
2.7719589
2.8165608
2.8612197
2.9061906
2.9516276
2.9975646
3.0438994
3.0904013
3.1367365
3.1825009
3.2272522
3.2705367
3.3119107
3.3509574
3.3872976
3.4205961
3.4505542
3.4769009
3.4993541
3.5176153
3.5312716
3.5398617
3.542616
3.5388046
3.5269665
3.5066387
3.4733937
3.4405332
3.3399987
2.5279216
2.5961727
2.6600377
2.7197051
2.7764123
2.8315958
2.8859174
2.9394413
2.9924046
3.0453519
3.098822
3.153162
3.2085103
3.2648002
3.3217518
3.3788901
3.4356021
3.4912096
3.5450337
3.5964396
3.6448634
3.6898268
3.7309443
3.7679217
3.800548
3.8286712
3.852177
3.8709364
3.8847999
3.8934897
3.8966824
3.8937275
3.8840444
3.8662777
3.8401785
3.8013014
3.7634227
3.6577293
2.7764613
2.8477348
2.9163774
2.9821431
3.0459063
3.1091819
3.1725789
3.235966
3.2995652
3.3640504
3.4300013
3.4976004
3.5666297
3.6365305
3.7064672
3.775427
3.8423525
3.9062587
3.9663065
4.0218286
4.0723303
4.1174771
4.1570782
4.1910633
4.2194542
4.2423235
4.2597638
4.271828
4.2785296
4.2797299
4.2752446
4.2645358
4.2471724
4.2218972
4.1886646
4.1430963
4.0991599
3.9885489
3.0575777
3.1366711
3.2139385
3.2889077
3.3624494
3.4366006
3.5121313
3.588741
3.6666289
3.7465234
3.828807
3.9131116
3.9984392
4.0834002
4.1664221
4.2459506
4.3206277
4.3893991
4.4515378
4.5066098
4.5544233
4.5949789
4.6284266
4.6550205
4.6750759
4.6889179
4.696851
4.6991004
4.6958283
4.6870166
4.6726053
4.6521503
4.6253608
4.5910598
4.5493907
4.4960948
4.4450906
4.3295336
3.3865956
3.4810216
3.571453
3.6584678
3.7441088
3.8318519
3.9229459
4.0168134
4.1133797
4.2130382
4.3153948
4.4188932
4.5212831
4.6201708
4.7133697
4.7991102
4.876152
4.9437882
5.0017628
5.0501544
5.0892755
5.1195951
5.1416803
5.1561413
5.163585
5.1645658
5.1595666
5.1489503
5.1329959
5.1117783
5.0853401
5.0533075
5.0155177
4.9708493
4.9196238
4.8577151
4.7988413
4.6781181
3.7617681
3.8811238
3.9926108
4.0980255
4.2013873
4.3085811
4.4216027
4.539234
4.6605217
4.7847692
4.909988
5.032848
5.1497418
5.2576343
5.3543573
5.4386133
5.5098821
5.5682626
5.6142807
5.6487177
5.67249
5.6865726
5.6919435
5.6895336
5.68019
5.6646399
5.6434924
5.6172037
5.5861347
5.5504231
5.510191
5.465108
5.4151234
5.3591362
5.297638
5.2265958
5.1595063
5.0333022
4.2051018
4.3552028
4.4935988
4.6234459
4.7513744
4.8862846
5.0303588
5.1803423
5.3329503
5.485207
5.6328132
5.7706817
5.8945734
6.0019018
6.0915891
6.163652
6.2188533
6.2584214
6.2838159
6.2965641
6.2981693
6.2900606
6.273557
6.2498311
6.2198912
6.1845672
6.144537
6.1003036
6.0522718
6.0006073
5.945479
5.8865611
5.8238861
5.7563201
5.6845149
5.6044239
5.529467
5.3974656
4.7198058
4.9110837
5.0867238
5.2517519
5.4162263
5.5921829
5.7801684
5.9722381
6.1607936
6.3397701
6.5029229
6.6447351
6.7621013
6.854505
6.9231227
6.9699651
6.9973907
7.0078376
7.0036574
6.9870299
6.9599371
6.924152
6.8812232
6.8324579
6.7789292
6.7214869
6.6608084
6.5973842
6.5316076
6.463616
6.3935692
6.321086
6.2462338
6.1677714
6.0865
5.9981843
5.9165012
5.7784054
5.3259588
5.571872
5.7989596
6.0152558
6.2344229
6.4697121
6.7158567
6.9565006
7.1784307
7.3734995
7.5359023
7.6624867
7.7536738
7.812607
7.8435312
7.8507212
7.8380931
7.8091212
7.7668436
7.7139024
7.6525872
7.5848519
7.5123162
7.436272
7.3577225
7.2774222
7.1959477
7.113685
7.0309286
6.947703
6.8640811
6.7795502
6.6941547
6.6064623
6.5174255
6.4223871
6.3358182
6.1912605
6.0524963
6.3744611
6.6754536
6.9684827
7.2683668
7.5836137
7.8970183
8.1814726
8.4200917
8.6068852
8.7409723
8.8250773
8.8652852
8.8693467
8.8447426
8.7977726
8.7335193
8.6560991
8.5689
8.474741
8.3759544
8.2744147
8.1715623
8.0684496
7.9658206
7.8641774
7.7638625
7.6650408
7.5678036
7.4719706
7.3774506
7.2835318
7.190189
7.0957226
7.0012665
6.9014585
6.8123199
6.6606661
6.9526877
7.380067
7.7891936
8.1976316
8.6104041
9.01962
9.3921272
9.6941047
9.9125654
10.050926
10.118416
10.126524
10.088081
10.015408
9.9186228
9.8052526
9.6807843
9.5493482
9.414172
9.2777975
9.1421662
9.0086697
8.8782237
8.7513675
8.6283797
8.5093521
8.3942684
8.2829694
8.1752605
8.070692
7.9689611
7.8691172
7.7710462
7.6727207
7.5755259
7.4730504
7.3838886
7.2238955
8.0904088
8.6725233
9.2494874
9.8309193
10.385532
10.877778
11.267705
11.530538
11.669616
11.705243
11.660488
11.556832
11.413515
11.246175
11.065937
10.880012
10.69307
10.508344
10.328164
10.154138
9.9872398
9.8279155
9.676228
9.5319882
9.39487
9.2644611
9.1403178
9.0219095
8.908725
8.8000297
8.6953046
8.5933555
8.4939901
8.3948045
8.2975516
8.1943326
8.1077133
7.9369204
9.5596681
10.379967
11.225738
12.050596
12.745834
13.25737
13.574185
13.7081
13.690434
13.561502
13.35874
13.112999
12.847822
12.578916
12.31515
12.061007
11.818831
11.589946
11.374953
11.173826
10.986052
10.810826
10.647209
10.494228
10.350939
10.216432
10.089851
9.9703188
9.8570385
9.7490271
9.645584
9.5452967
9.4479236
9.3506477
9.2557344
9.1532511
9.0716332
8.8853605
11.498321
12.734074
14.011217
15.126079
15.87379
16.250218
16.345582
16.236489
15.979912
15.629854
15.236065
14.836401
14.452915
14.094507
13.762996
13.457903
13.178288
12.922837
12.689737
12.476861
12.282044
12.103266
11.938707
11.786742
11.645929
11.514962
11.392671
11.27792
11.169712
11.066889
10.968623
10.87333
10.780737
10.687599
10.596816
10.495796
10.421226
10.21187
13.807322
15.684293
17.484115
18.778993
19.35546
19.389946
19.140034
18.734933
18.223962
17.660076
17.102943
16.591303
16.13529
15.729677
15.367434
15.043904
14.755455
14.498121
14.267711
14.060388
13.872921
13.702623
13.547216
13.40474
13.2735
13.152002
13.038933
12.933057
12.833294
12.738421
12.647537
12.558968
12.47238
12.3842
12.297882
12.197979
12.130731
11.894134
16.312265
18.943832
21.14609
22.398627
22.618414
22.217473
21.6189
20.963013
20.255246
19.536776
18.875234
18.305155
17.820383
17.401778
17.035981
16.715954
16.436046
16.190142
15.97244
15.778227
15.60386
15.446416
15.303448
15.172875
15.052923
14.942054
14.838932
14.742315
14.651116
14.564102
14.480346
14.398113
14.317044
14.233245
14.150817
14.051163
13.991437
13.723308
19.497577
23.085997
25.512812
26.470221
26.144995
25.21271
24.261957
23.398232
22.54196
21.714378
20.993106
20.405342
19.925073
19.519595
19.171258
18.871803
18.613938
18.389868
18.19291
18.018155
17.861984
17.721491
17.594236
17.478163
17.371544
17.272896
17.180945
17.094502
17.012519
16.93378
16.857351
16.781433
16.70566
16.625741
16.546636
16.445615
16.394694
16.082261
23.639832
28.253158
30.543506
30.945398
29.976289
28.501254
27.251249
26.254068
25.313287
24.430145
23.697103
23.132016
22.687259
22.318316
22.005606
21.740791
21.515512
21.321057
21.1507
20.999936
20.865489
20.74466
20.635158
20.535082
20.442857
20.357144
20.27679
20.200704
20.127912
20.057227
19.987725
19.917523
19.846277
19.769179
19.692357
19.587623
19.547463
19.171688
29.001962
34.53249
36.171391
35.869225
34.331717
32.391988
30.922482
29.874541
28.919118
28.038463
27.342641
26.838417
26.456757
26.144272
25.881958
25.662572
25.477483
25.317975
25.178075
25.054132
24.943429
24.843602
24.752646
24.668931
24.591128
24.518102
24.448872
24.38248
24.318045
24.254414
24.190688
24.124863
24.056671
23.980622
23.904401
23.792763
23.766169
23.298172
36.051044
41.961172
42.400603
41.531602
39.742617
37.467417
35.832539
34.802243
33.906483
33.094361
32.4873
32.079586
31.784365
31.544104
31.343153
31.176549
31.036296
30.914606
30.806914
30.710728
30.624022
30.54489
30.471736
30.403305
30.338584
30.276695
30.216864
30.158285
30.10019
30.041455
29.981226
29.91732
29.849635
29.771781
29.693475
29.570706
29.561106
28.957267
45.103716
50.536254
49.521691
48.683217
47.225707
44.730144
42.905762
41.937824
41.190736
40.530625
40.06914
39.789754
39.598147
39.44038
39.307116
39.196604
39.102315
39.018227
38.941682
38.871534
38.806544
38.745379
38.68697
38.630524
38.5754
38.521011
38.466815
38.412172
38.356443
38.298518
38.23762
38.171309
38.099802
38.015521
37.930771
37.791375
37.801515
36.998522
56.206496
60.382768
58.563803
58.920562
58.618825
55.952697
53.81548
52.942949
52.466303
52.068001
51.812559
51.683818
51.601983
51.528227
51.461922
51.404612
51.351775
51.299865
51.248484
51.197922
51.147795
51.097455
51.046459
50.99454
50.941463
50.886953
50.830719
50.772289
50.711168
50.646238
50.576862
50.500235
50.417151
50.31847
50.219746
50.05633
50.084166
48.998179
68.77535
72.439652
72.230751
75.418888
77.284129
74.492804
71.893429
71.187391
71.152535
71.145889
71.144503
71.165266
71.179607
71.176808
71.164752
71.146885
71.120888
71.086264
71.045058
70.998954
70.948431
70.893604
70.834727
70.772084
70.705855
70.636081
70.562725
70.485484
70.40403
70.317229
70.224683
70.123132
70.014361
69.887257
69.761416
69.563897
69.593332
68.139463
79.841255
90.229266
97.752369
105.41204
110.1881
107.53491
104.71164
104.40355
104.96127
105.3979
105.61923
105.72892
105.7845
105.80799
105.81029
105.79343
105.75711
105.70417
105.63882
105.56369
105.47992
105.38834
105.28985
105.18523
105.07501
104.95951
104.83895
104.7132
104.58217
104.44478
104.30115
104.14757
103.98772
103.80807
103.63402
103.3899
103.37462
101.58104
86.296762
122.73888
148.36108
159.6459
166.51604
165.87273
164.66041
165.29939
166.43557
167.14091
167.38121
167.41629
167.38654
167.32353
167.23059
167.10786
166.95817
166.78727
166.6004
166.40047
166.18911
165.96774
165.73777
165.50029
165.25613
165.00584
164.74987
164.48832
164.2214
163.94831
163.66976
163.38235
163.09142
162.78313
162.48622
162.13691
161.94217
160.15585
93.934793
183.45356
241.83105
253.12707
257.68874
261.48628
267.22895
269.79971
271.04717
271.62296
271.64328
271.44035
271.18158
270.89233
270.56735
270.20568
269.8133
269.39802
268.96519
268.5176
268.05722
267.58595
267.10551
266.61727
266.12225
265.6213
265.11511
264.60417
264.08904
263.56967
263.04736
262.52029
261.99468
261.46013
260.94465
260.40698
259.91873
258.42882
210.91252
368.34621
513.89386
524.83557
504.91714
514.75167
554.78861
565.37984
565.97659
565.86723
565.487
564.91635
564.24686
563.51893
562.73313
561.8864
560.98875
560.05306
559.08658
558.09268
557.07439
556.03509
554.9778
553.90498
552.81871
551.72097
550.61356
549.49857
548.37775
547.25415
546.12982
545.01034
543.89875
542.80515
541.73506
540.72022
539.57949
539.06473
1287.8639
1075.6184
1449.8632
1548.566
1458.2247
1326.1193
1520.5861
1583.23
1583.8301
1583.9933
1584.2166
1584.0817
1583.6487
1583.0228
1582.2208
1581.2476
1580.1312
1578.8988
1577.5651
1576.1393
1574.631
1573.0503
1571.4063
1569.7072
1567.9605
1566.1752
1564.3595
1562.5271
1560.6875
1558.869
1557.0763
1555.3822
1553.749
1552.397
1551.0701
1550.5319
1549.3805
1551.4735
14948.358
14580.644
14500.488
14464.355
14449.624
14438.442
14394.293
14363.594
14340.123
14316.896
14293.713
14270.476
14247.213
14223.958
14200.716
14177.489
14154.285
14131.112
14107.972
14084.869
14061.805
14038.784
14015.808
13992.88
13970.002
13947.18
13924.416
13901.718
13879.089
13856.551
13834.097
13811.79
13789.57
13767.656
13745.719
13724.595
13702.771
13683.301
15122.525
16410.944
18314.027
19923.219
21339.103
22596.547
23718.3
24720.228
25615.236
26410.791
27110.962
27717.849
28233.076
28658.192
28995.833
29247.588
29415.333
29501.81
29510.201
29444.118
29307.568
29104.918
28840.703
28519.714
28146.133
27725.575
1194.0888
1729.4279
2291.3791
2653.1291
2892.196
3097.7876
3304.6046
3517.3627
3725.7559
3920.283
4095.1656
4247.2977
4374.9847
4478.1602
4553.737
4606.4887
4641.6184
4660.8299
4665.0643
4654.9653
4631.0933
4594.0833
4544.4852
4483.1105
4409.6169
4325.2941
416.41169
456.56605
654.21003
875.77021
1013.5488
1116.2977
1210.075
1303.4601
1396.0339
1485.7131
1570.5441
1648.8973
1719.0823
1779.2326
1827.0222
1862.3928
1886.2376
1899.5968
1903.6838
1899.6224
1888.2931
1870.388
1846.4238
1816.9839
1782.2325
1742.8363
273.7066
242.60085
284.07689
387.25302
484.14979
556.54081
613.59919
663.30282
709.56594
753.70334
795.83465
835.657
872.12863
904.22858
930.79656
951.24499
965.51385
973.88451
976.88217
975.11263
969.12308
959.37837
946.2435
930.12083
911.23756
889.97228
219.00112
175.07725
174.45627
217.37998
277.49147
334.07987
379.78188
415.94235
446.44297
473.77363
499.28136
523.68195
546.07517
565.93285
582.72661
596.03106
605.65295
611.62997
614.17638
613.60722
610.25227
604.42083
596.36793
586.38125
574.66564
561.45381
179.51637
134.97785
118.47089
130.86015
160.07009
196.25686
230.88094
259.61345
282.61897
301.60073
318.15969
333.42022
347.15016
359.22547
369.52103
377.8446
384.05253
388.11531
390.09689
390.12885
388.37544
385.01389
380.20423
374.13929
366.99853
358.91088
146.82944
108.72939
89.324938
89.986025
102.16101
120.72296
142.08189
163.03592
181.5175
197.16211
210.29602
221.36528
230.86517
238.95514
245.73166
251.1952
255.31275
258.08854
259.56249
259.80197
258.8924
256.9338
254.02324
250.28549
245.87328
240.85063
119.16036
88.971267
72.147304
68.962874
73.447735
82.513333
94.495606
107.7872
120.8828
132.90876
143.50766
152.61623
160.39592
166.96001
172.41653
176.81966
180.18483
182.53955
183.93005
184.41605
184.06542
182.95413
181.15583
178.76113
175.90538
172.61212
94.479128
71.543068
60.163378
56.370696
57.257456
61.307205
67.678195
75.59281
84.183255
92.735111
100.77375
108.02157
114.39463
119.87788
124.50912
128.32294
131.33364
133.5612
135.0391
135.81141
135.92909
135.45023
134.43368
132.9488
131.11719
128.9436
62.931649
55.188793
50.80614
47.774477
46.981292
48.310642
51.387222
55.806442
61.101237
66.819165
72.58027
78.086699
83.154762
87.678632
91.621414
94.973771
97.726894
99.880288
101.44711
102.45256
102.9306
102.92348
102.47753
101.64614
100.53736
99.144121
35.929656
41.504501
43.073424
41.303236
39.878814
39.762404
40.931399
43.171662
46.2217
49.815623
53.70461
57.660315
61.500606
65.090257
68.347954
71.226802
73.692432
75.722135
77.307609
78.454221
79.178403
79.506543
79.472296
79.115074
78.528808
77.697108
25.343071
32.30555
36.602068
36.042193
34.600894
33.796462
33.892662
34.813002
36.407857
38.518273
40.990187
43.671632
46.423666
49.126387
51.690427
54.0525
56.16307
57.983888
59.489708
60.668633
61.520772
62.057264
62.29889
62.272059
62.056175
61.626149
20.930607
27.066003
31.251067
31.504393
30.375737
29.350132
28.884358
29.024908
29.700808
30.816841
32.276843
33.983714
35.842622
37.764068
39.672346
41.506795
43.216284
44.757531
46.096596
47.210237
48.08604
48.722205
49.127564
49.316586
49.354166
49.206787
16.847421
23.288818
26.646389
27.399368
26.728799
25.772331
25.069598
24.773354
24.881649
25.346007
26.107599
27.104694
28.27503
29.557021
30.894436
32.238435
33.545315
34.775444
35.894376
36.87454
37.69641
38.349141
38.83193
39.149098
39.351774
39.399024
13.227486
19.75496
22.467264
23.600206
23.43063
22.721029
22.002921
21.505329
21.288289
21.344111
21.642295
22.144871
22.811466
23.600955
24.474155
25.395391
26.331544
27.251177
28.124995
28.927141
29.636613
30.238341
30.725451
31.094974
31.386015
31.552441
9.9781445
15.874453
18.16046
19.465184
19.837247
19.521349
18.956603
18.415916
18.017649
17.797636
17.754734
17.872561
18.128726
18.498532
18.95735
19.481965
20.050412
20.641336
21.233838
21.807982
22.345821
22.83233
23.258033
23.615312
23.932186
24.159894
7.2344297
12.012092
14.199016
15.580522
16.322113
16.430393
16.153612
15.739634
15.336744
15.016244
14.804557
14.705019
14.709883
14.806385
14.980064
15.216532
15.501998
15.823092
16.166603
16.519477
16.869279
17.204635
17.517478
17.799872
18.072213
18.289072
5.4990371
8.8535445
10.873641
12.515549
13.329953