/*--------------------------------*- C++ -*----------------------------------*\
| =========                 |                                                 |
| \\      /  F ield         | OpenFOAM: The Open Source CFD Toolbox           |
|  \\    /   O peration     | Version:  2.4.0                                 |
|   \\  /    A nd           | Web:      www.OpenFOAM.org                      |
|    \\/     M anipulation  |                                                 |
\*---------------------------------------------------------------------------*/
FoamFile
{
    version     2.0;
    format      ascii;
    class       volScalarField;
    location    "2000";
    object      p;
}
// * * * * * * * * * * * * * * * * * * * * * * * * * * * * * * * * * * * * * //

dimensions      [0 2 -2 0 0 0 0];

internalField   nonuniform List<scalar> 
15296
(
0.77086026
0.76790604
0.76675548
0.76580585
0.7647644
0.76374489
0.76277763
0.76183736
0.76091738
0.7603525
0.75946106
0.75857685
0.75769246
0.75644601
0.75555664
0.75465952
0.75376948
0.75328215
0.75239753
0.75152142
0.7506522
0.74936339
0.74854767
0.74778546
0.74711786
0.74707231
0.74674485
0.7467352
0.74720638
0.74770108
0.74998181
0.75500841
0.76211816
0.7742277
0.79599946
0.83561347
0.91267793
1.0534223
0.77107073
0.76812406
0.76697256
0.76602229
0.76498021
0.76396022
0.76299264
0.7620522
0.76113089
0.76014215
0.75924777
0.75836053
0.75747544
0.75667636
0.75579217
0.7549048
0.75401755
0.75304264
0.75215384
0.75127264
0.75040189
0.74964446
0.74883557
0.74808118
0.74741674
0.74678994
0.74645768
0.74644104
0.74689873
0.74817732
0.75054306
0.75463675
0.76178748
0.77392463
0.79577473
0.83501462
0.91137799
1.0488808
0.77102795
0.76809692
0.76694448
0.76599474
0.76495306
0.7639333
0.76296592
0.76202567
0.76110394
0.76017366
0.75928012
0.75839311
0.75750925
0.75665343
0.75576923
0.75488353
0.75399553
0.75307514
0.75218792
0.75130703
0.75043863
0.74962814
0.74881803
0.74806371
0.74739625
0.7468212
0.74648984
0.74647017
0.74692609
0.74818335
0.75055255
0.75460569
0.76175094
0.77389627
0.79562334
0.83444061
0.91006231
1.0440176
0.77099672
0.76808115
0.76692744
0.76597833
0.76493707
0.76391755
0.76295038
0.76201034
0.76108899
0.76019509
0.75930233
0.75841607
0.7575327
0.75663883
0.75575435
0.75486808
0.75398013
0.75310271
0.75221668
0.75133672
0.75046897
0.74961153
0.74880036
0.7480449
0.74737606
0.74685148
0.74651866
0.7464953
0.74694801
0.74812193
0.75046225
0.75458835
0.76168849
0.7737335
0.7952274
0.83363591
0.90835365
1.0396424
0.77098592
0.76808553
0.76693011
0.76598181
0.76494104
0.76392183
0.76295498
0.7620153
0.76109443
0.76019657
0.75930408
0.75841821
0.75753503
0.75664547
0.75576142
0.7548753
0.7539879
0.75310757
0.75222174
0.75134213
0.75047429
0.74961967
0.74880856
0.74805263
0.74738333
0.74685491
0.74651917
0.74649142
0.74693718
0.74809518
0.75041325
0.75452045
0.76156417
0.7734999
0.79480155
0.83281481
0.9066413
1.0355572
0.77097298
0.76809257
0.76693403
0.76598691
0.76494677
0.76392794
0.76296148
0.76202222
0.76110175
0.76019777
0.7593056
0.75842009
0.75753734
0.75665507
0.75577159
0.75488605
0.75399913
0.75311184
0.75222628
0.75134691
0.75047929
0.74963278
0.74882166
0.74806533
0.74739497
0.74685581
0.74651649
0.74648291
0.74691903
0.74807238
0.75036574
0.75441707
0.76138953
0.77318651
0.79424602
0.83175833
0.90446837
1.0305875
0.77095424
0.76809818
0.7669351
0.76598965
0.76495032
0.76393194
0.76296597
0.76202724
0.76110723
0.76020314
0.75931151
0.75842652
0.7575444
0.75666348
0.75578057
0.75489569
0.75400925
0.75312149
0.7522365
0.75135754
0.75049039
0.74964529
0.74883391
0.74807699
0.74740507
0.74686189
0.74651843
0.74647768
0.7469023
0.74803974
0.7503017
0.75429502
0.76117957
0.7728017
0.79355677
0.8304434
0.90181793
1.0244835
0.77093372
0.7681045
0.76693551
0.76599216
0.76495374
0.76393584
0.76297041
0.76203229
0.76111284
0.76021001
0.75931901
0.75843465
0.7575532
0.75667223
0.75578995
0.75490573
0.7540199
0.7531335
0.75224916
0.75137071
0.75050401
0.7496583
0.74884666
0.74808902
0.74741548
0.74687034
0.74652222
0.74647351
0.74688539
0.74800084
0.75022758
0.75416361
0.76095059
0.77237753
0.79279127
0.82898552
0.89888746
1.0175931
0.77091192
0.76811275
0.76693604
0.76599536
0.76495798
0.76394058
0.76297577
0.76203832
0.76111954
0.76021754
0.75932722
0.75844357
0.75756284
0.7566824
0.75580086
0.75491737
0.75403227
0.75314683
0.75226316
0.75138528
0.75051901
0.74967318
0.74886132
0.74810289
0.74742764
0.74687971
0.74652629
0.74646871
0.74686623
0.74795747
0.75014537
0.75401784
0.76069631
0.77190766
0.79194265
0.82737737
0.89563991
1.010435
0.7708895
0.76812313
0.76693649
0.76599915
0.764963
0.76394612
0.76298201
0.76204534
0.76112729
0.76022596
0.75933641
0.75845354
0.75757363
0.7566941
0.7558134
0.75493075
0.75404648
0.75316176
0.75227883
0.75140158
0.75053578
0.74969022
0.74887812
0.74811881
0.74744164
0.74689014
0.74653074
0.7464632
0.74684454
0.74790932
0.75005398
0.75385437
0.76041197
0.77138452
0.79099715
0.82559488
0.89220173
1.0040262
0.77086623
0.76813594
0.76693671
0.76600351
0.76496883
0.76395249
0.76298917
0.76205338
0.76113618
0.76023564
0.75934696
0.75846499
0.757586
0.75670746
0.75582771
0.75494602
0.75406267
0.7531788
0.7522967
0.75142017
0.75055489
0.74970961
0.74889724
0.74813692
0.74745758
0.74690207
0.74653593
0.74645716
0.74682028
0.74785534
0.74995146
0.75367075
0.76009334
0.77080064
0.78994141
0.82360371
0.88845098
0.99747891
0.77084084
0.7681515
0.76693661
0.7660085
0.76497556
0.76395976
0.76299731
0.76206254
0.76114628
0.76024669
0.75935899
0.75847803
0.75760008
0.7567226
0.7558439
0.75496328
0.75408097
0.7531981
0.75231694
0.7514412
0.75057651
0.74973146
0.74891878
0.74815734
0.74747557
0.74691563
0.74654195
0.74645066
0.74679345
0.74779529
0.74983745
0.75346675
0.75974015
0.7701562
0.78877714
0.82139572
0.88433156
0.98898035
0.77081412
0.76817029
0.76693611
0.76601414
0.76498332
0.76396803
0.76300657
0.76207294
0.76115776
0.76025924
0.75937264
0.75849281
0.75761603
0.75673971
0.75586221
0.75498277
0.75410162
0.75321988
0.75233975
0.75146488
0.75060084
0.74975604
0.748943
0.7481803
0.74749582
0.74693096
0.74654888
0.74644366
0.74676387
0.74772888
0.74971133
0.75324119
0.75935059
0.76944896
0.78750304
0.81895506
0.87989453
0.97888909
0.77078512
0.76819309
0.76693512
0.76602046
0.76499232
0.76397751
0.76301715
0.76208484
0.76117087
0.76027356
0.75938821
0.75850967
0.75763419
0.7567592
0.75588304
0.75500494
0.7541251
0.75324461
0.75236563
0.75149175
0.75062842
0.74978389
0.74897046
0.74820632
0.7475188
0.7469484
0.7465569
0.74643609
0.74673102
0.74765488
0.74957076
0.75298987
0.75891747
0.76866734
0.78610173
0.81623366
0.87509615
0.96752856
0.7707499
0.76822097
0.76693377
0.76602741
0.76500282
0.76398845
0.7630293
0.76209851
0.76118593
0.76028999
0.75940606
0.75852897
0.75765497
0.75678148
0.75590683
0.75503023
0.75415186
0.75327277
0.75239508
0.75152229
0.75065975
0.74981552
0.74900163
0.74823587
0.74754491
0.74696828
0.74656618
0.74642788
0.74669446
0.74757234
0.74941384
0.75270961
0.75843525
0.7678038
0.78456379
0.81320353
0.86988099
0.95519803
0.77070278
0.76825923
0.76693223
0.76603619
0.76501714
0.76400328
0.76304568
0.76211694
0.76120624
0.76031213
0.7594301
0.75855495
0.75768291
0.75681141
0.75593874
0.75506413
0.75418769
0.75331044
0.75243444
0.75156307
0.75070154
0.74985768
0.74904316
0.74827522
0.74757969
0.74699479
0.74657868
0.74641733
0.7466466
0.74746413
0.74920819
0.75234289
0.75780549
0.76668661
0.78259047
0.8092632
0.863149
0.93980172
0.77065858
0.76829949
0.76693192
0.76604669
0.76503486
0.76402168
0.76306596
0.76213979
0.76123143
0.7603396
0.75945992
0.75858715
0.75771751
0.75684843
0.75597819
0.75510597
0.75423187
0.75335685
0.75248288
0.75161321
0.75075288
0.74990944
0.74909412
0.74832352
0.74762245
0.74702756
0.74659455
0.74640547
0.74659004
0.74733535
0.74896349
0.75190657
0.75706062
0.76537641
0.78031186
0.80464019
0.85527353
0.92227966
0.77061773
0.76833676
0.76693328
0.76605719
0.76505364
0.76404136
0.76308761
0.76216422
0.76125839
0.76036902
0.75949186
0.75862165
0.75775456
0.75688804
0.75602035
0.75515065
0.754279
0.75340629
0.75253443
0.75166653
0.75080743
0.74996439
0.74914818
0.74837474
0.74766781
0.7470624
0.74661169
0.74639362
0.7465316
0.74720184
0.74871005
0.75145517
0.75629304
0.76403967
0.77798228
0.79997941
0.84715986
0.90542635
0.77057539
0.76837216
0.7669361
0.76606721
0.76507315
0.76406208
0.76311031
0.76218993
0.76128687
0.76040013
0.75952567
0.75865817
0.75779378
0.75692995
0.75606492
0.75519785
0.75432874
0.75345844
0.75258874
0.75172264
0.75086479
0.75002211
0.74920493
0.74842845
0.74771533
0.74709889
0.74662966
0.7463814
0.74647101
0.74706355
0.74844812
0.75098995
0.75550345
0.76267909
0.77558648
0.79536668
0.83881529
0.88957715
0.7705301
0.76840578
0.76694006
0.76607636
0.76509291
0.76408343
0.76313368
0.76221654
0.76131646
0.76043256
0.75956098
0.75869637
0.75783484
0.75697382
0.75611158
0.75524723
0.75438074
0.75351291
0.75264543
0.75178117
0.75092455
0.75008219
0.74926392
0.7484842
0.74776456
0.74713655
0.74664801
0.74636839
0.74640791
0.74692031
0.74817775
0.75051175
0.75469344
0.76129777
0.77317132
0.7908758
0.83034406
0.87479195
0.77048051
0.76843694
0.76694475
0.7660842
0.76511234
0.76410496
0.76315723
0.76224355
0.76134673
0.76046587
0.75959739
0.75873586
0.75787735
0.75701929
0.75615996
0.75529844
0.75443466
0.75356937
0.75270417
0.75184178
0.75098638
0.75014429
0.7493248
0.74854162
0.7478151
0.74717496
0.74666626
0.74635401
0.74634162
0.7467713
0.74789798
0.75001964
0.75386197
0.75989424
0.7707679
0.78648297
0.82185604
0.86085081
0.77042551
0.7684646
0.7669496
0.76609017
0.76513063
0.76412591
0.7631802
0.7622702
0.76137692
0.76049935
0.75963418
0.75877594
0.75792063
0.75706569
0.75620938
0.75535079
0.75448981
0.75362712
0.75276425
0.75190373
0.75104956
0.75020766
0.74938683
0.74859995
0.74786617
0.74721333
0.74668363
0.74633754
0.74627152
0.74661614
0.74760873
0.7495144
0.75301137
0.75846952
0.76836867
0.78213182
0.81344272
0.84754059
0.77036548
0.76848754
0.76695368
0.7660934
0.76514667
0.76414526
0.76320156
0.76229542
0.76140598
0.76053196
0.75967035
0.75881563
0.7579637
0.75711202
0.75625886
0.75540329
0.75454519
0.75368517
0.75282465
0.75196603
0.75111304
0.75027126
0.74944894
0.74865814
0.74791672
0.74725063
0.74669912
0.74631807
0.74619683
0.74645436
0.74731003
0.74899721
0.75214453
0.75703086
0.76596169
0.77788772
0.80520461
0.83485217
0.77029996
0.76850484
0.76695604
0.76609294
0.76515917
0.76416175
0.76322006
0.76231796
0.7614327
0.76056252
0.75970473
0.75885377
0.75800544
0.75715718
0.7563073
0.75545486
0.75459971
0.75374241
0.75288428
0.75202756
0.75117573
0.75033399
0.74951003
0.74871504
0.74796561
0.74728571
0.74671159
0.74629448
0.74611648
0.74628508
0.74700125
0.74846826
0.75126239
0.75558465
0.76354529
0.77385915
0.79718539
0.82280134
0.77022419
0.76851428
0.76695513
0.76608747
0.76516655
0.76417383
0.76323422
0.76233633
0.76145559
0.76058958
0.75973592
0.75888899
0.75804449
0.75719985
0.75635339
0.7555042
0.75465209
0.75379757
0.75294187
0.75208705
0.75123635
0.75039456
0.74956879
0.74876936
0.74801151
0.74731723
0.74671966
0.74626539
0.74602915
0.74610709
0.74668134
0.74792726
0.75036491
0.75413568
0.76111632
0.7700426
0.78943209
0.81139924
0.77013812
0.76851517
0.76694962
0.76607558
0.76516703
0.76417968
0.76324226
0.76234874
0.7614729
0.76061145
0.75976227
0.75891969
0.75807926
0.75723844
0.75639558
0.75554975
0.75470077
0.75384911
0.75299587
0.75214296
0.75129334
0.75045141
0.74962365
0.74881949
0.74805281
0.74734355
0.74672173
0.74622924
0.74593333
0.74591916
0.74634944
0.74737438
0.74945335
0.75268909
0.75868541
0.76637807
0.78212335
0.80068145
0.77003859
0.76850497
0.76693729
0.76605544
0.7651585
0.76417717
0.7632422
0.76235323
0.76148264
0.76062614
0.75978182
0.75894395
0.75810791
0.75727114
0.75643203
0.75558969
0.75474394
0.75389518
0.75304443
0.75219342
0.75134482
0.75050262
0.74967268
0.7488635
0.74808756
0.74736273
0.74671586
0.74618417
0.74582734
0.74571995
0.74600478
0.74681002
0.74853014
0.75124922
0.75627299
0.76282612
0.7753969
0.79070925
0.76992721
0.76848331
0.76691654
0.76602532
0.76513882
0.76416399
0.76323187
0.76234779
0.76148291
0.76063181
0.75979272
0.75895988
0.7581285
0.757296
0.75646083
0.75562212
0.7547797
0.75393392
0.75308569
0.75223655
0.75138888
0.75054626
0.74971389
0.74889933
0.74811365
0.74737262
0.74669987
0.74612799
0.74570901
0.74550741
0.74564561
0.74623291
0.74759586
0.74981582
0.75389224
0.75936611
0.76913093
0.78164851
0.76980269
0.76844906
0.76688551
0.7659834
0.76510584
0.7641377
0.7632089
0.76233019
0.76147168
0.76062663
0.7597933
0.75896586
0.7581394
0.75731136
0.75648024
0.75564522
0.75480613
0.7539633
0.75311752
0.75227015
0.75142326
0.75057999
0.74974488
0.74892452
0.74812854
0.74737063
0.74667116
0.74605814
0.74557588
0.74527932
0.74527026
0.74564198
0.74665212
0.74839005
0.75155719
0.75600593
0.76323314
0.77349003
0.7696647
0.7684019
0.76684278
0.76592813
0.76505748
0.76409587
0.76317092
0.7622981
0.76144661
0.76060841
0.75978161
0.75896019
0.75813908
0.75731575
0.75648881
0.7556575
0.75482166
0.75398163
0.7531381
0.75229223
0.75144582
0.7506015
0.74976317
0.74893642
0.74812943
0.74735381
0.74662667
0.74597152
0.745425
0.745033
0.74487685
0.74503603
0.74570089
0.74697363
0.74928227
0.75275456
0.75774178
0.765989
0.76951803
0.76834245
0.7667872
0.76585824
0.76499189
0.76403621
0.7631158
0.76224951
0.76140569
0.7605752
0.75975575
0.758941
0.75812571
0.7573074
0.75648481
0.75565726
0.75482464
0.75398728
0.75314578
0.75230111
0.75145473
0.75060883
0.74976663
0.74893275
0.74811387
0.74731951
0.74656356
0.74586521
0.74525351
0.74476576
0.7444634
0.74441354
0.74474352
0.74556777
0.74707708
0.74962198
0.75265757
0.75906672
0.76937366
0.76827272
0.76671824
0.76577308
0.76490731
0.76395634
0.76304141
0.76218254
0.76134717
0.76052536
0.75971421
0.75890679
0.75809771
0.75728461
0.75646637
0.75564245
0.75481284
0.75397784
0.75313796
0.75229397
0.75144703
0.75059886
0.74975201
0.74891013
0.74807847
0.74726447
0.74647884
0.74573653
0.7450592
0.74447599
0.74402941
0.74377506
0.74378349
0.74417747
0.7449522
0.74662361
0.74798574
0.75272397
0.76925133
0.76819904
0.76663858
0.76567636
0.76480642
0.76385812
0.76294985
0.76209929
0.76127284
0.76046051
0.75965837
0.75885859
0.7580557
0.75724755
0.75643322
0.75561234
0.75478501
0.75395156
0.75311245
0.75226825
0.75141982
0.75056848
0.74971615
0.74886559
0.74802072
0.74718706
0.7463723
0.74558743
0.74484721
0.74417331
0.74359117
0.74314594
0.7428599
0.74286021
0.74299019
0.7438818
0.74386715
0.74718295
0.76916413
0.76813278
0.76655496
0.76557534
0.76469684
0.76374929
0.76284917
0.76200757
0.76118999
0.76038731
0.75959418
0.75880161
0.75800413
0.75719994
0.75638838
0.75556931
0.75474298
0.75390981
0.75307022
0.75222465
0.75137376
0.75051849
0.74966025
0.74880108
0.7479437
0.74709198
0.74625094
0.74542812
0.74463225
0.7438787
0.74317843
0.74256799
0.74203104
0.74169735
0.74129827
0.74154695
0.74046574
0.74266343
0.76910524
0.76807942
0.76647278
0.76547627
0.76458573
0.76363757
0.76274687
0.76191418
0.76110478
0.7603113
0.75952655
0.75874008
0.75794663
0.75714489
0.75633456
0.75551575
0.75468895
0.75385471
0.75301347
0.75216562
0.75131162
0.75045219
0.74958831
0.74872139
0.74785314
0.746986
0.74612266
0.74526776
0.7444249
0.74360429
0.74280495
0.74205671
0.74131279
0.74070526
0.73988374
0.73961871
0.73773249
0.73906278
0.76907654
0.76803604
0.76638972
0.76537871
0.7644734
0.76352451
0.76264498
0.76182093
0.76101876
0.76023384
0.75945654
0.75867479
0.75788371
0.7570827
0.75627193
0.75545186
0.75462327
0.7537869
0.75294328
0.75209275
0.75123565
0.75037247
0.74950386
0.74863066
0.74775365
0.74687401
0.74599239
0.74511097
0.74422898
0.74335246
0.74247044
0.74160779
0.74069315
0.73986157
0.73870104
0.73802532
0.73552681
0.73617501
0.76910611
0.76800654
0.76631104
0.7652876
0.7643619
0.76341161
0.76254452
0.76172809
0.76093183
0.76015462
0.75938363
0.75860496
0.75781443
0.75701239
0.75619966
0.75537714
0.75454595
0.75370706
0.75286107
0.75200827
0.75114884
0.75028308
0.74941127
0.74853369
0.74765031
0.74676114
0.74586506
0.74496219
0.74404801
0.7431253
0.74217464
0.7412175
0.74016214
0.73914788
0.73771418
0.73671072
0.73374285
0.73385025
0.76921592
0.76797615
0.76622807
0.76519888
0.76424809
0.76329741
0.76244454
0.76163452
0.76084278
0.76007233
0.75930634
0.75852899
0.7577372
0.75693265
0.75611698
0.75529156
0.75445784
0.75361698
0.75276954
0.75191567
0.75105538
0.75018868
0.74931549
0.74843558
0.74754812
0.74665212
0.74574493
0.74482499
0.74388459
0.74292402
0.74191663
0.74088186
0.73971064
0.73854813
0.73689361
0.73562959
0.73229935
0.73197567
0.76944967
0.76796222
0.7661493
0.76511467
0.76413128
0.76318148
0.76234433
0.76153902
0.76075013
0.75998534
0.75922288
0.75844512
0.7576506
0.75684277
0.75602412
0.75519645
0.75436135
0.75351998
0.75267273
0.75181952
0.7509601
0.7500942
0.74922139
0.74834094
0.74745132
0.74655071
0.74563516
0.74470176
0.74374012
0.74274869
0.74169457
0.7405964
0.7393299
0.73804783
0.7362143
0.73474437
0.73113239
0.73046409
0.76970704
0.76793215
0.7660654
0.76502958
0.76400837
0.76306275
0.76224285
0.76144012
0.76065219
0.75989179
0.75913149
0.75835204
0.75755424
0.75674352
0.75592316
0.755095
0.75426054
0.75342067
0.75257552
0.75172471
0.75086773
0.75000409
0.749133
0.74825333
0.74736294
0.74645935
0.74553753
0.74459356
0.74361477
0.7425983
0.74150582
0.7403562
0.73901151
0.73763371
0.73565474
0.7340236
0.73019092
0.72924736
0.7699744
0.76788692
0.7659799
0.76494309
0.7638782
0.76294064
0.76213887
0.76133605
0.76054703
0.75978998
0.7590311
0.7582498
0.75744955
0.75663777
0.75581807
0.75499194
0.7541604
0.75332401
0.75248259
0.75163551
0.75078207
0.7499216
0.74905303
0.74817491
0.74728461
0.74637914
0.74545261
0.74450034
0.7435077
0.74247104
0.74134722
0.74015616
0.73874748
0.7372938
0.7351965
0.73344089
0.72943389
0.7282721
0.77024563
0.76781246
0.76588812
0.76485085
0.76373757
0.76281291
0.76202978
0.76122419
0.76043253
0.75967877
0.75892206
0.75814045
0.75734013
0.75653018
0.75571404
0.75489241
0.75406574
0.75323426
0.75239757
0.75155493
0.75070553
0.74984858
0.74898283
0.74810657
0.7472168
0.74631016
0.74538006
0.74442129
0.74341756
0.74236477
0.74121553
0.73999148
0.73853074
0.73701776
0.73482421
0.73297452
0.72882864
0.72749704
0.77053635
0.76770312
0.76579102
0.76475068
0.76358385
0.76267677
0.76191225
0.76110183
0.76030738
0.75955873
0.75880692
0.75802816
0.75723111
0.75642612
0.75561611
0.75480081
0.75398015
0.75315421
0.75232256
0.75148444
0.75063908
0.7497856
0.74892262
0.74804824
0.74715921
0.7462519
0.74531916
0.74435541
0.74334294
0.74227752
0.74110794
0.73985808
0.73835538
0.73679697
0.73452542
0.73260692
0.72834944
0.72689051
0.77085414
0.76755051
0.76568857
0.76463929
0.76341386
0.76252883
0.76178308
0.76096753
0.76017244
0.75943297
0.75869047
0.75791851
0.75712795
0.75633036
0.75552808
0.75471994
0.75390556
0.75308508
0.75225822
0.75142435
0.75058273
0.74973246
0.74887207
0.74799954
0.7471114
0.74620388
0.74526936
0.744302
0.74328291
0.74220789
0.74102241
0.73975287
0.73821685
0.73662465
0.73429036
0.73232413
0.72797627
0.72642829
0.77120333
0.76734884
0.76558171
0.76451288
0.76322443
0.76236611
0.76164069
0.76082256
0.76003159
0.75930704
0.75857873
0.75781694
0.75703499
0.75624601
0.75545194
0.7546509
0.7538424
0.75302688
0.75220435
0.75137433
0.75053613
0.74968886
0.74883096
0.74796031
0.74707332
0.74616608
0.74523063
0.74426096
0.74323714
0.74215519
0.74095765
0.73967367
0.73811178
0.73649552
0.73411146
0.73211501
0.72769354
0.72609161
0.77158052
0.76709134
0.76546993
0.76436632
0.76301258
0.76218706
0.76148653
0.76067174
0.75989139
0.75918758
0.7584773
0.75772754
0.75695483
0.75617451
0.7553883
0.75459376
0.75379049
0.75297939
0.75216078
0.75133436
0.75049946
0.74965513
0.74879975
0.74793116
0.74704566
0.74613925
0.74520368
0.74423285
0.74320597
0.74211939
0.74091312
0.73961909
0.73803775
0.73640547
0.73398283
0.73197053
0.72748894
0.72586531
0.7719809
0.76677059
0.7653503
0.76419309
0.76277759
0.76199469
0.76132676
0.76052293
0.75975946
0.75908067
0.75839019
0.75765251
0.75688852
0.75611622
0.75533719
0.75454846
0.7537499
0.7529429
0.75212812
0.75130529
0.75047371
0.74963239
0.74877968
0.74791337
0.74702968
0.74612459
0.74518958
0.74421854
0.74318997
0.74210064
0.74088845
0.73958802
0.73799275
0.73635106
0.73389957
0.73188307
0.72735231
0.72573726
0.77240166
0.76637731
0.76521871
0.76398895
0.76252381
0.76179653
0.76117029
0.76038486
0.75964265
0.75899063
0.75831969
0.75759309
0.75683696
0.75607203
0.7552996
0.75451625
0.75372218
0.75291929
0.75210841
0.75128924
0.75046104
0.74962278
0.74877279
0.74790886
0.74702716
0.74612366
0.74518966
0.74421907
0.74318984
0.74209923
0.74088336
0.73957954
0.73797485
0.73632934
0.73385682
0.73184661
0.7272729
0.72569906
0.7728438
0.76589925
0.76507004
0.76375494
0.76226338
0.76160575
0.76102756
0.76026502
0.75954593
0.75892027
0.75826735
0.75755069
0.75680185
0.75604388
0.75527764
0.75449942
0.7537098
0.75291105
0.75210405
0.75128844
0.75046344
0.74962804
0.74878058
0.74791888
0.7470391
0.74613719
0.74520433
0.74423452
0.74320529
0.74211449
0.74089661
0.73959193
0.73798116
0.73633715
0.73384856
0.7318566
0.72723736
0.7257485
0.77323749
0.76540959
0.76492834
0.7635426
0.76204724
0.76145062
0.76091766
0.76018157
0.75948297
0.75887733
0.75823836
0.75753029
0.75678784
0.75603547
0.75527407
0.75449997
0.75371401
0.75291857
0.75211454
0.75130155
0.75047883
0.74964543
0.74879973
0.74793956
0.74706108
0.74616028
0.74522827
0.74425919
0.74323018
0.74213985
0.74092113
0.73961753
0.73800327
0.73636495
0.73386393
0.73189946
0.72723102
0.72585807
0.77352899
0.76498081
0.76480431
0.76338166
0.76189519
0.76133759
0.76084088
0.76013228
0.7594505
0.75885779
0.75822835
0.75752711
0.75678969
0.7560412
0.75528302
0.75451173
0.75372825
0.75293494
0.75213271
0.75132125
0.75049983
0.74966754
0.74882278
0.74796342
0.74708562
0.74618542
0.74525387
0.74428523
0.74325648
0.74216665
0.74094788
0.7396455
0.73803036
0.73639654
0.73389084
0.73194491
0.72725004
0.72595921
0.77377059
0.76455571
0.76468004
0.76324425
0.76177596
0.76124584
0.76078189
0.76010317
0.75943757
0.75885479
0.75823275
0.75753727
0.75680385
0.7560581
0.75530207
0.75453268
0.7537508
0.75295875
0.75215751
0.75134682
0.75052602
0.74969424
0.74884989
0.74799087
0.74711335
0.74621339
0.74528205
0.74431366
0.74328513
0.74219576
0.74097737
0.73967622
0.73806164
0.73643159
0.73392567
0.73199319
0.72728478
0.7260587
0.77396044
0.76414362
0.76456236
0.76313403
0.76168958
0.76117684
0.7607419
0.76009368
0.75944309
0.7588674
0.75825039
0.75755897
0.75682814
0.75608381
0.75532878
0.75456025
0.75377901
0.75298736
0.75218632
0.75137574
0.75055499
0.74972321
0.74887882
0.74801975
0.74714218
0.74624219
0.74531085
0.74434255
0.7433142
0.74222526
0.74100746
0.73970757
0.73809439
0.73646775
0.73396406
0.73204221
0.7273272
0.72615584
0.7741028
0.76375552
0.76445785
0.76305296
0.76163632
0.76113247
0.76072181
0.76010284
0.75946536
0.75889382
0.75827915
0.75758971
0.75685983
0.7561156
0.75536043
0.75459174
0.75381027
0.75301826
0.75221681
0.75140581
0.75058465
0.74975248
0.74890774
0.74804834
0.74717048
0.74627026
0.74533878
0.74437045
0.74334225
0.7422537
0.74103662
0.73973799
0.73812665
0.73650317
0.7340031
0.73208996
0.72737255
0.72624836
0.77419173
0.76340147
0.76437238
0.76300248
0.76161718
0.76111463
0.7607215
0.76012843
0.75950163
0.75893125
0.75831603
0.75762633
0.75689586
0.75615058
0.75539431
0.75462464
0.75384225
0.75304935
0.75224706
0.75143529
0.75061344
0.74978064
0.74893534
0.74807544
0.74719716
0.7462966
0.7453649
0.74439649
0.74336841
0.74228023
0.74106393
0.73976654
0.73815728
0.73653668
0.73404106
0.73213491
0.72741833
0.72633364
0.77422364
0.76309197
0.76431338
0.76298314
0.76163103
0.76112312
0.76073873
0.76016626
0.75954737
0.7589754
0.75835691
0.75766494
0.75693263
0.75618549
0.75542749
0.7546563
0.75387258
0.75307849
0.75227514
0.75146242
0.75063973
0.74980619
0.74896023
0.74809977
0.74722101
0.74632008
0.74538813
0.74441962
0.74339166
0.74230383
0.74108833
0.73979211
0.73818503
0.736567
0.73407627
0.73217552
0.72746239
0.72640904
0.77420697
0.76284012
0.76428804
0.76299225
0.76167331
0.7611556
0.76077037
0.76021181
0.75959788
0.75902209
0.75839827
0.75770261
0.75696775
0.75621841
0.7554584
0.75468549
0.75390031
0.75310497
0.75230052
0.75148684
0.7506633
0.74982903
0.74898243
0.74812142
0.74724221
0.74634092
0.74540874
0.74444015
0.74341232
0.74232484
0.74111015
0.73981502
0.73821011
0.73659435
0.73410864
0.73221186
0.72750437
0.72647348
0.77413454
0.76266651
0.76430305
0.76302032
0.7617326
0.76120563
0.76081095
0.7602586
0.75964657
0.75906557
0.75843545
0.75773553
0.75699799
0.75624649
0.75548454
0.75470997
0.75392342
0.75312692
0.75232146
0.7515069
0.7506826
0.74984766
0.74900049
0.74813899
0.74725938
0.74635779
0.74542542
0.74445677
0.74342909
0.74234195
0.74112802
0.7398339
0.73823103
0.73661726
0.73413638
0.73224244
0.72754221
0.72652422
0.77403653
0.76259583
0.76435029
0.76305169
0.76179845
0.7612696
0.76085788
0.76030398
0.75969118
0.75910476
0.75846867
0.75776486
0.757025
0.75627172
0.75550817
0.75473222
0.75394454
0.7531471
0.75234083
0.75152556
0.75070065
0.74986518
0.74901756
0.74815569
0.74727578
0.74637397
0.74544148
0.74447281
0.74344531
0.74235851
0.74114532
0.73985213
0.73825113
0.73663915
0.73416266
0.73227083
0.72757897
0.72656301
0.77387123
0.76264459
0.76440538
0.76306032
0.76184486
0.76132756
0.76089514
0.76033239
0.75971763
0.75912746
0.75848725
0.75778074
0.75703936
0.75628492
0.75552028
0.7547434
0.75395497
0.7531569
0.75235009
0.75153435
0.75070903
0.74987321
0.7490253
0.74816318
0.74728308
0.74638114
0.74544859
0.74447995
0.74345261
0.74236611
0.7411535
0.73986106
0.73826151
0.73665094
0.73417778
0.73228743
0.72760334
0.72657972
0.77376628
0.76274098
0.7644441
0.76304893
0.76187316
0.76137822
0.76092472
0.76035021
0.75973348
0.75914152
0.75849916
0.75779118
0.75704898
0.75629392
0.75552869
0.75475129
0.75396246
0.75316407
0.75235698
0.75154099
0.75071547
0.74987948
0.74903143
0.7481692
0.74728903
0.74638705
0.74545452
0.74448595
0.74345878
0.74237252
0.74116038
0.73986849
0.73827003
0.73666037
0.73418982
0.73229993
0.72762333
0.72658232
0.77367594
0.7628385
0.76445418
0.7630068
0.76187101
0.76140231
0.76092794
0.76033977
0.75972102
0.7591287
0.75848545
0.75777657
0.75703383
0.75627838
0.75551279
0.75473508
0.753946
0.75314743
0.75234017
0.75152405
0.75069841
0.74986235
0.74901424
0.74815198
0.7472718
0.74636984
0.74543737
0.74446891
0.74344192
0.74235592
0.74114421
0.7398528
0.7382553
0.7366464
0.73417807
0.73228847
0.72761856
0.72655394
0.77368321
0.76278346
0.76442873
0.76293267
0.76182966
0.76139348
0.76089833
0.76029662
0.75967555
0.75908291
0.75843899
0.75772928
0.75698585
0.75622984
0.75546371
0.75468551
0.753896
0.75309703
0.7522894
0.75147294
0.75064698
0.74981062
0.74896223
0.74809971
0.7472193
0.74631713
0.74538448
0.74441586
0.74338877
0.7423027
0.74109103
0.73979969
0.73820253
0.73659384
0.73412652
0.73223686
0.72757067
0.72647368
0.77399483
0.76265373
0.76439725
0.76288033
0.76178099
0.7613748
0.76087454
0.76026788
0.75964594
0.75905295
0.7584085
0.75769816
0.7569542
0.75619769
0.75543111
0.75465247
0.75386255
0.75306318
0.75225519
0.75143836
0.75061206
0.74977535
0.74892664
0.74806381
0.74718309
0.74628063
0.74534769
0.7443788
0.74335146
0.74226515
0.74105327
0.73976173
0.73816444
0.7365556
0.73408832
0.73219845
0.72753292
0.72641525
1.5273639
0.87553429
0.79163731
0.72319827
0.67693337
0.64249215
0.61157707
0.58489373
0.5601419
0.5367248
0.51412555
0.49207499
0.47047314
0.44931641
0.42865366
0.40856112
0.38913897
0.37050171
0.3527661
0.33605458
0.3204831
0.30619914
0.29331098
0.28213922
0.27278312
0.26701403
1.5167063
0.87819181
0.79304491
0.72393956
0.67749854
0.64295417
0.61197519
0.58524196
0.56045703
0.53701481
0.51439558
0.49232779
0.47071019
0.44953872
0.42886214
0.40875647
0.38932182
0.37067278
0.35292614
0.33620445
0.32062367
0.30633146
0.29343608
0.28225847
0.2728976
0.26712531
1.485296
0.8780244
0.79455038
0.72475634
0.67812729
0.6434585
0.61240463
0.58561943
0.56080278
0.53733812
0.51470165
0.4926192
0.47098826
0.44980439
0.42911614
0.40899926
0.38955393
0.37089485
0.35313886
0.33640861
0.32082013
0.30652123
0.2936202
0.28243843
0.27307446
0.26729814
1.4405658
0.8723676
0.79466927
0.72514876
0.67858809
0.64385826
0.61274839
0.58591743
0.56107149
0.53758653
0.51493541
0.49284139
0.47120035
0.45000721
0.42930998
0.40918409
0.38972981
0.37106203
0.35329777
0.33655987
0.32096459
0.30665997
0.2937544
0.28256993
0.27320466
0.26742475
1.4030967
0.86452891
0.79313382
0.72478736
0.67873096
0.64411223
0.61300839
0.58615182
0.56128167
0.53777687
0.51511047
0.49300437
0.47135316
0.45015094
0.42944524
0.40931109
0.38984871
0.37117313
0.35340158
0.33665716
0.32105631
0.30674739
0.29383891
0.28265369
0.27328941
0.26750761
1.3733655
0.85650884
0.79010028
0.72343967
0.67843682
0.64420735
0.6132353
0.58640453
0.56152924
0.53800978
0.51532763
0.49320707
0.47154297
0.45032904
0.42961253
0.40946813
0.38999598
0.37131124
0.35353134
0.33677964
0.32117286
0.30685972
0.29394888
0.2827642
0.27340282
0.26761953
1.3570742
0.85059819
0.78631631
0.72111862
0.67753058
0.6439895
0.61332952
0.58662025
0.56178748
0.53827529
0.51558647
0.49345387
0.47177624
0.45054861
0.42981883
0.40966164
0.39017727
0.37148112
0.35369094
0.33693044
0.32131664
0.30699876
0.29408563
0.28290241
0.27354542
0.26775968
1.3569124
0.84767255
0.78275894
0.71839503
0.67614307
0.64341084
0.61319944
0.58671332
0.56198846
0.53852259
0.51584988
0.49371786
0.47203315
0.45079486
0.43005299
0.40988326
0.39038643
0.37167845
0.35387755
0.33710791
0.32148696
0.30716447
0.29424944
0.28306845
0.27371683
0.26792719
1.3653518
0.84615477
0.77960441
0.71564095
0.6744747
0.64252339
0.61282191
0.5866364
0.56208413
0.53871078
0.51608536
0.49397447
0.47229573
0.4510549
0.43030586
0.41012657
0.39061905
0.37190022
0.35408912
0.33731067
0.32168284
0.30735613
0.29443976
0.28326175
0.27391642
0.26812094
1.3700209
0.84407165
0.77691111
0.7131229
0.67274154
0.64144641
0.61223933
0.58638957
0.56205816