/*--------------------------------*- C++ -*----------------------------------*\
  =========                 |
  \\      /  F ield         | OpenFOAM: The Open Source CFD Toolbox
   \\    /   O peration     | Website:  https://openfoam.org
    \\  /    A nd           | Version:  7
     \\/     M anipulation  |
\*---------------------------------------------------------------------------*/
FoamFile
{
    version     2.0;
    format      ascii;
    class       volSymmTensorField;
    location    "2000";
    object      R;
}
// * * * * * * * * * * * * * * * * * * * * * * * * * * * * * * * * * * * * * //

dimensions      [0 2 -2 0 0 0 0];

internalField   nonuniform List<symmTensor> 
15296
(
(0.001167187 9.8914413e-06 6.2730552e-15 0.0011156202 1.8119805e-16 0.0011047554)
(0.0011256912 4.1121212e-06 3.1785667e-15 0.0011255245 2.2316987e-16 0.0011253936)
(0.0011166015 3.5801918e-06 -6.4359763e-19 0.001124048 -2.1497548e-17 0.0011253495)
(0.0011090917 3.2480207e-06 6.524655e-15 0.0011221344 3.6418852e-16 0.0011244525)
(0.0011020703 2.9320303e-06 -3.3060559e-15 0.0011201593 -2.7122644e-17 0.0011233721)
(0.0010970015 2.7180895e-06 6.6995412e-15 0.0011175593 3.2949383e-16 0.0011211808)
(0.0010932862 2.5499953e-06 3.3974964e-15 0.0011145469 1.811928e-16 0.0011182469)
(0.0010902915 2.4210804e-06 2.0935494e-18 0.0011113504 -3.0225965e-17 0.0011149605)
(0.0010878036 2.2548163e-06 -6.4290323e-19 0.0011080425 -1.0064028e-16 0.0011114509)
(0.0010856701 2.1290001e-06 3.5376101e-15 0.001104674 2.3491049e-16 0.0011078092)
(0.0010837394 2.0374726e-06 7.6131007e-20 0.0011012973 -1.7514633e-17 0.0011041258)
(0.001081909 2.0543751e-06 3.2124495e-19 0.0010979466 2.9058478e-17 0.0011004598)
(0.0010801232 2.0139482e-06 -3.6912184e-15 0.0010946396 -2.1572935e-16 0.0010968419)
(0.001078357 1.9935938e-06 3.7430402e-15 0.0010913825 2.9242086e-16 0.0010932843)
(0.0010766038 1.9922838e-06 6.3728472e-19 0.0010881749 -5.8949139e-17 0.0010897873)
(0.0010748695 1.9274385e-06 3.8508675e-15 0.0010850121 2.231648e-16 0.0010863437)
(0.0010731823 1.970237e-06 3.9088914e-15 0.0010818801 2.059823e-16 0.0010829326)
(0.0010715831 1.9627327e-06 3.9674841e-15 0.0010787612 1.9487284e-16 0.0010795266)
(0.001070132 2.0884769e-06 8.5789743e-19 0.0010756299 -1.2047972e-16 0.0010760863)
(0.0010689161 2.1168902e-06 -1.2666245e-18 0.0010724496 -6.4276139e-17 0.0010725564)
(0.0010680528 2.1663991e-06 -2.5942813e-19 0.0010691723 1.5782062e-16 0.0010688629)
(0.0010677112 2.2902226e-06 -6.9544275e-19 0.0010657293 -1.2426259e-16 0.0010649011)
(0.0010681369 2.5712984e-06 4.2739955e-15 0.0010620206 2.8964907e-16 0.0010605207)
(0.0010696867 3.048712e-06 -4.3367606e-15 0.0010579016 -1.6593541e-16 0.0010555054)
(0.0010728787 3.5572511e-06 3.1093693e-19 0.0010531627 -1.0685883e-16 0.0010495431)
(0.0010784822 4.4761276e-06 -4.4749827e-15 0.0010474917 -2.2010975e-16 0.0010421745)
(0.0010876767 5.7280587e-06 -4.5468533e-15 0.0010404087 -2.5840409e-16 0.001032702)
(0.0011022388 7.7592239e-06 -8.3443328e-19 0.0010311854 -6.8769431e-19 0.0010200878)
(0.0011250836 1.0954369e-05 7.4675554e-19 0.0010186257 -1.4413542e-17 0.00100265)
(0.0011606452 1.5747624e-05 -4.7663335e-15 0.0010008483 -8.0990479e-17 0.00097786187)
(0.0012172658 2.3143757e-05 -4.4712692e-19 0.00097434314 1.3895205e-16 0.00094103905)
(0.0013073139 3.4805432e-05 5.8466533e-20 0.00093366489 -7.5300315e-19 0.00088556285)
(0.001461444 5.4044101e-05 -5.0059822e-15 0.00086559744 1.3436326e-16 0.00079476773)
(0.0015892252 7.0742292e-05 -4.0868616e-15 0.00080465227 9.8788418e-17 0.00072424468)
(0.0015876927 7.261505e-05 -3.2982537e-19 0.00079234562 -3.9249102e-17 0.00073446224)
(0.001590532 7.8470736e-05 -1.6634492e-18 0.00077272719 -3.4410009e-17 0.00075843125)
(0.0015881298 6.5232921e-05 6.3341588e-16 0.00072564638 2.1174623e-16 0.000807172)
(0.0016919274 -6.3101693e-05 -3.0390089e-16 0.00071029771 -5.1476635e-16 0.00094608345)
(0.0011647136 2.1682305e-05 9.683277e-19 0.0011132864 5.6981557e-17 0.0011096812)
(0.0011255706 9.9420498e-06 -1.0598384e-15 0.0011256386 -2.7105565e-17 0.0011255138)
(0.0011165443 8.4387145e-06 1.0730244e-15 0.0011246987 1.0129264e-16 0.0011248766)
(0.0011089878 7.8324743e-06 6.8477745e-19 0.0011232375 1.1038034e-16 0.001123577)
(0.0011019167 7.3277924e-06 -1.1037589e-15 0.0011216658 -9.1788944e-17 0.0011221453)
(0.0010968177 6.9487826e-06 -1.7692029e-18 0.0011192551 1.3424896e-16 0.0011197974)
(0.0010930862 6.679406e-06 1.1336039e-15 0.0011162854 9.5088742e-17 0.001116839)
(0.0010900821 6.4498925e-06 4.0575775e-18 0.0011130567 -8.3063235e-18 0.001113596)
(0.0010875911 6.21774e-06 -1.1628039e-15 0.001109666 -1.0608775e-16 0.001110174)
(0.0010854608 6.0904105e-06 -1.8253363e-18 0.0011061813 3.0063487e-17 0.0011066471)
(0.0010835375 5.9983366e-06 -1.1988075e-15 0.0011026718 -9.1777989e-17 0.0011030902)
(0.001081715 5.8486803e-06 2.4254187e-15 0.0010991846 1.1980576e-16 0.0010995543)
(0.0010799366 5.7410711e-06 1.2301956e-15 0.001095743 -2.3192713e-17 0.0010960647)
(0.0010781797 5.7190941e-06 1.96526e-18 0.0010923548 1.1926305e-16 0.0010926301)
(0.0010764348 5.5825144e-06 -2.5309404e-15 0.0010890211 -1.1073579e-16 0.0010892517)
(0.0010747109 5.5519541e-06 1.283202e-15 0.001085735 1.0613509e-16 0.0010859223)
(0.0010730349 5.4568378e-06 1.3046634e-15 0.0010824797 1.444634e-16 0.001082624)
(0.0010714486 5.4149493e-06 1.6953962e-18 0.0010792334 1.5575338e-16 0.0010793334)
(0.001070012 5.3298803e-06 3.5385322e-20 0.0010759645 -3.0730767e-17 0.0010760169)
(0.0010688124 5.2885979e-06 1.3608116e-15 0.0010726283 9.985751e-17 0.0010726271)
(0.001067974 5.2359888e-06 -1.6241232e-18 0.0010691627 5.5855452e-17 0.0010690977)
(0.001067668 5.2240502e-06 -1.1031119e-18 0.0010654824 -9.8083139e-17 0.0010653381)
(0.0010681442 5.192467e-06 2.1645068e-18 0.0010614644 8.466872e-17 0.0010612173)
(0.001069762 5.2130441e-06 3.3674264e-18 0.0010569321 -6.7341327e-17 0.0010565477)
(0.0010730547 5.2043219e-06 -1.468774e-15 0.0010516255 -1.4489464e-16 0.0010510528)
(0.0010788078 5.2116876e-06 -1.49478e-15 0.0010451629 -9.6057249e-17 0.0010443267)
(0.0010882252 5.2403457e-06 3.0269385e-15 0.0010369616 9.4908669e-18 0.0010357498)
(0.0011031277 5.4039617e-06 1.5393358e-15 0.0010261445 8.2550157e-17 0.0010243889)
(0.0011264939 5.6097807e-06 1.8587142e-18 0.001011288 -1.1382451e-17 0.0010087259)
(0.0011628715 5.8533614e-06 3.0182128e-19 0.00099020199 -4.3067892e-17 0.00098642871)
(0.0012208303 6.1185362e-06 1.6144239e-15 0.00095881869 1.9032511e-17 0.00095314156)
(0.0013131078 6.2300166e-06 3.2837946e-15 0.00091111879 9.5734075e-17 0.00090244665)
(0.0014712992 5.8909608e-06 3.8722823e-18 0.00083225235 2.1790205e-18 0.00081837329)
(0.0015973544 4.2672352e-06 -1.345431e-15 0.00076865807 -1.1373836e-16 0.00075222096)
(0.0015954956 1.2259873e-06 7.7539105e-16 0.00076513488 -1.8190924e-17 0.00075391795)
(0.0015991329 5.6911241e-06 -1.4041201e-18 0.00076237223 4.2734073e-17 0.00076020289)
(0.0015972785 -2.7132883e-05 6.8094488e-18 0.00075154166 -2.1569742e-17 0.00077134543)
(0.0015373132 -0.0002408004 -1.1972327e-18 0.00063189465 -3.1477595e-16 0.0011586207)
(0.0011614277 3.3147017e-05 1.04149e-18 0.0011150363 1.9311466e-17 0.0011114672)
(0.0011253435 1.6656322e-05 6.3699764e-16 0.0011259492 5.4350216e-18 0.001125677)
(0.0011166282 1.3771522e-05 -6.4338397e-16 0.0011248487 6.64517e-17 0.0011248978)
(0.0011091303 1.2696079e-05 -6.5499131e-16 0.0011233932 -1.1074351e-18 0.001123537)
(0.0011020958 1.1983901e-05 6.5986668e-16 0.0011218375 -3.3753291e-17 0.0011220551)
(0.0010970162 1.1332292e-05 -6.7095908e-16 0.0011194312 7.6113813e-18 0.0011196852)
(0.0010932925 1.0889323e-05 5.2558655e-19 0.0011164583 4.5287992e-17 0.0011167234)
(0.0010902899 1.0544938e-05 -6.8504449e-16 0.0011132229 -2.2629385e-17 0.0011134866)
(0.0010877981 1.0241371e-05 -6.9709928e-16 0.0011098223 -1.2838458e-16 0.001110076)
(0.0010856644 1.0024503e-05 -2.8797149e-18 0.0011063264 -6.6563435e-17 0.0011065642)
(0.0010837321 9.8416585e-06 7.1621179e-16 0.0011028072 -6.9000451e-17 0.0011030262)
(0.0010819013 9.6530319e-06 -1.4570061e-15 0.0010993097 2.6393806e-17 0.0010995088)
(0.0010801185 9.4723661e-06 -7.3988433e-16 0.0010958564 2.7790289e-18 0.0010960355)
(0.001078353 9.3570311e-06 1.4472068e-18 0.0010924589 9.2288185e-18 0.0010926183)
(0.0010766008 9.2255822e-06 7.6215561e-16 0.0010891159 -6.9251214e-17 0.0010892561)
(0.0010748694 9.0833644e-06 1.1008586e-18 0.001085821 8.6356636e-17 0.0010859424)
(0.0010731842 8.9921403e-06 -7.7942387e-16 0.001082558 7.4033232e-17 0.0010826603)
(0.0010715879 8.8545047e-06 8.4179174e-19 0.0010793042 4.8282748e-17 0.0010793864)
(0.0010701398 8.7273722e-06 -2.4384139e-19 0.001076028 -9.3522746e-17 0.001076088)
(0.0010689278 8.6547534e-06 -8.1918295e-16 0.0010726837 6.3864797e-18 0.001072718)
(0.0010680706 8.5715311e-06 -5.3397836e-18 0.001069211 8.554139e-18 0.0010692137)
(0.0010677373 8.4638044e-06 8.408782e-16 0.0010655244 4.4195415e-18 0.0010654865)
(0.0010681751 8.3753802e-06 8.5941076e-16 0.0010615006 1.2206518e-16 0.0010614087)
(0.0010697406 8.2282718e-06 -8.6556412e-16 0.0010569624 -1.1655306e-16 0.0010567964)
(0.0010729549 8.1541875e-06 8.8258627e-16 0.0010516522 -7.6930161e-17 0.0010513824)
(0.001078592 8.0277442e-06 -8.9734796e-16 0.0010451893 -7.2883493e-17 0.0010447711)
(0.0010878371 7.9885005e-06 -4.9262842e-18 0.0010369937 -1.5192144e-17 0.0010363594)
(0.0011024718 7.8693224e-06 9.229404e-16 0.0010261975 1.0598652e-16 0.0010252435)
(0.0011254175 7.6290883e-06 1.4050949e-18 0.0010113894 -1.2157319e-17 0.0010099504)
(0.0011611167 7.4508644e-06 -9.534661e-16 0.00099041002 -6.2853675e-17 0.00098822131)
(0.0012179375 7.1513844e-06 -9.6913326e-16 0.00095924711 -7.2076268e-17 0.00095584483)
(0.0013082082 6.4968992e-06 9.855791e-16 0.00091204513 8.508664e-17 0.00090664383)
(0.0014626664 5.5059917e-06 -9.9950345e-16 0.00083423861 -7.5743097e-17 0.0008252222)
(0.0015975632 3.3579142e-06 2.434442e-18 0.0007665611 -1.7865737e-16 0.00075430894)
(0.001595635 -1.6072972e-06 -1.7256548e-18 0.00076518324 -1.5636962e-17 0.00075385819)
(0.0015992223 5.9468533e-06 5.0681697e-16 0.00076689546 2.5809286e-17 0.00075563789)
(0.0015962751 -4.1203038e-05 1.2337448e-16 0.00076642219 3.9704789e-17 0.00075714648)
(0.0015274226 -0.00020248399 -5.1666912e-18 0.00060150827 -2.006898e-16 0.0011508858)
(0.0011589991 4.3210794e-05 2.1602011e-18 0.0011164673 1.0261939e-17 0.0011128326)
(0.0011250342 2.3611132e-05 -4.5295755e-16 0.001126397 -1.1876608e-17 0.0011259134)
(0.0011166597 1.9285441e-05 3.9033506e-19 0.0011250814 -2.4935131e-17 0.0011250162)
(0.0011092025 1.7646866e-05 4.6344059e-16 0.0011236203 -2.2251055e-17 0.0011236235)
(0.0011021697 1.6594601e-05 -2.629098e-18 0.0011220856 -4.7632647e-18 0.0011221204)
(0.0010970899 1.5776539e-05 4.7885565e-16 0.0011196893 2.9097941e-17 0.0011197414)
(0.00109337 1.5156458e-05 9.1744238e-19 0.0011167162 4.2125907e-17 0.0011167763)
(0.0010903699 1.4679996e-05 4.962963e-16 0.0011134774 -4.2242249e-18 0.0011135405)
(0.0010878799 1.4300965e-05 1.3306811e-18 0.0011100709 -7.9642629e-17 0.0011101334)
(0.0010857487 1.396212e-05 -3.0999496e-18 0.0011065667 -8.1915762e-17 0.0011066266)
(0.0010838205 1.3656446e-05 5.1111204e-16 0.0011030375 2.3656916e-17 0.0011030934)
(0.0010819926 1.3425259e-05 -1.4024342e-19 0.0010995303 -2.2206129e-17 0.0010995815)
(0.0010802111 1.3166224e-05 -1.7560122e-18 0.0010960678 -6.2306471e-17 0.0010961143)
(0.0010784495 1.298408e-05 1.6945259e-18 0.0010926601 2.4112826e-17 0.0010927017)
(0.0010766984 1.2807728e-05 4.2961145e-18 0.0010893084 -1.2057941e-18 0.0010893452)
(0.0010749693 1.2608938e-05 -5.4872227e-16 0.0010860044 1.8021191e-17 0.0010860363)
(0.0010732862 1.2471453e-05 3.1152624e-18 0.0010827322 1.3078581e-17 0.0010827592)
(0.0010716907 1.2324008e-05 -5.4857312e-19 0.0010794694 1.820613e-17 0.0010794911)
(0.0010702448 1.2211248e-05 -8.7446332e-19 0.0010761827 -5.1457307e-17 0.0010761986)
(0.0010690324 1.2052399e-05 -1.1695173e-15 0.0010728279 -1.0969249e-16 0.0010728369)
(0.0010681739 1.194379e-05 -5.9942729e-16 0.0010693429 -6.8692834e-17 0.0010693434)
(0.0010678402 1.1759202e-05 -6.0280634e-16 0.0010656405 6.559281e-17 0.0010656301)
(0.0010682758 1.1628983e-05 -6.0771389e-16 0.0010615967 5.6264132e-17 0.0010615717)
(0.0010698366 1.1450153e-05 1.243735e-15 0.0010570324 -4.3776223e-17 0.0010569874)
(0.0010730444 1.1275711e-05 -6.2861364e-16 0.0010516861 -7.8381333e-17 0.0010516131)
(0.0010786704 1.1094318e-05 -6.4264949e-16 0.0010451729 -7.4787003e-17 0.0010450601)
(0.0010878948 1.0923533e-05 6.448624e-16 0.0010369066 -2.7345261e-17 0.0010367366)
(0.0011024935 1.061593e-05 6.5910291e-16 0.0010260084 1.0228849e-16 0.0010257549)
(0.001125387 1.0297582e-05 2.4934037e-19 0.0010110436 -1.34669e-17 0.0010106662)
(0.0011609953 9.8472003e-06 -8.5430613e-20 0.00098982515 -6.5236431e-17 0.00098926159)
(0.0012176655 9.1576766e-06 1.9170312e-18 0.00095827114 -8.2022633e-17 0.00095741772)
(0.0013076425 7.8897042e-06 8.7497082e-20 0.00091043544 3.0839899e-17 0.00090912744)
(0.0014616015 5.893709e-06 7.1744945e-16 0.00083144506 -5.7525836e-17 0.00082936307)
(0.0015977671 2.3189382e-06 -5.898212e-16 0.00076190986 -1.3237095e-16 0.00075903647)
(0.0015957642 -4.7393288e-06 -3.4554769e-16 0.00076083608 -6.9303132e-17 0.00075828615)
(0.0015993334 5.0265591e-06 1.811416e-16 0.00076362682 5.7187319e-17 0.00075891115)
(0.0015948073 -5.1757228e-05 8.8599986e-17 0.00076652502 7.0645906e-17 0.00075793687)
(0.0015380379 -0.00019082421 -1.829109e-18 0.00060270601 -8.9279842e-17 0.0011281095)
(0.0011567681 5.1944768e-05 2.3362821e-18 0.0011181107 1.1017678e-17 0.0011139022)
(0.0011247024 3.0549802e-05 -3.5247757e-16 0.0011269099 -5.7414183e-17 0.0011262351)
(0.0011167095 2.4764662e-05 8.9381189e-19 0.0011253501 -6.0004057e-17 0.001125207)
(0.0011093242 2.2684203e-05 3.5954855e-16 0.0011238374 -1.5664145e-17 0.0011237962)
(0.001102312 2.1267523e-05 3.6553174e-16 0.0011222904 3.2736329e-17 0.0011222858)
(0.0010972411 2.0214575e-05 3.0549678e-19 0.0011198887 4.6279613e-17 0.0011199034)
(0.001093525 1.9429312e-05 4.9578326e-19 0.0011169122 6.3858589e-17 0.0011169374)
(0.0010905279 1.8774994e-05 3.8705655e-16 0.0011136697 5.4315242e-17 0.0011137008)
(0.0010880395 1.8339086e-05 3.8922442e-16 0.00111026 -3.1216492e-17 0.0011102937)
(0.0010859079 1.7899071e-05 3.9108336e-16 0.0011067534 -4.2909994e-17 0.0011067875)
(0.0010839793 1.7535866e-05 3.9735228e-16 0.0011032216 5.4814996e-17 0.0011032548)
(0.0010821507 1.7197921e-05 -4.0687187e-16 0.0010997119 -4.0578972e-19 0.0010997434)
(0.0010803699 1.6925295e-05 -1.4872732e-18 0.0010962462 -4.0528094e-17 0.0010962757)
(0.0010786074 1.667458e-05 4.2002912e-16 0.001092836 5.2175831e-17 0.0010928632)
(0.0010768553 1.6433768e-05 -4.1799148e-16 0.0010894818 -2.0607941e-17 0.0010895066)
(0.0010751251 1.6214534e-05 -4.2607634e-16 0.0010861754 -5.047114e-17 0.0010861977)
(0.0010734407 1.6010721e-05 -1.3005872e-15 0.0010829009 -9.7375971e-17 0.0010829204)
(0.0010718437 1.5794631e-05 -8.8361779e-16 0.0010796358 -2.5878643e-17 0.0010796523)
(0.0010703932 1.5616328e-05 -4.508771e-16 0.0010763482 -6.4259451e-17 0.001076361)
(0.0010691774 1.545228e-05 -4.5683501e-16 0.0010729918 -1.1559148e-16 0.0010730002)
(0.0010683135 1.524568e-05 4.5551034e-16 0.001069506 -4.8786343e-17 0.0010695087)
(0.0010679709 1.5084501e-05 4.6858091e-16 0.0010658042 2.5441781e-17 0.0010657993)
(0.0010683951 1.4902815e-05 -9.4736072e-16 0.0010617618 -4.8127693e-17 0.0010617465)
(0.0010699386 1.4715511e-05 2.0531569e-18 0.0010572011 1.4592368e-17 0.0010571713)
(0.0010731211 1.4446592e-05 4.9170242e-16 0.0010518614 -4.0781342e-17 0.001051811)
(0.0010787096 1.4213387e-05 -2.2228278e-18 0.0010453597 -4.6281621e-17 0.0010452796)
(0.0010878761 1.3882704e-05 5.0090323e-16 0.0010371129 3.5472456e-17 0.0010369892)
(0.0011023874 1.3548124e-05 -1.786466e-18 0.0010262459 1.0044249e-16 0.001026058)
(0.0011251409 1.3091073e-05 -1.2240387e-18 0.0010113347 -2.1611876e-17 0.0010110496)
(0.0011605173 1.2351953e-05 5.299747e-16 0.00099020931 1.9587602e-18 0.00098977622)
(0.0012168052 1.1403799e-05 3.1448318e-18 0.00095881438 -5.9558368e-18 0.0009581446)
(0.0013060884 9.6461205e-06 -5.4765509e-16 0.00091127679 -3.330207e-17 0.00091023066)
(0.0014587956 6.8562959e-06 2.2178808e-19 0.00083283991 -6.5587651e-17 0.00083113508)
(0.0015979541 2.0472735e-06 3.8375529e-18 0.00076184007 -9.023349e-17 0.00075927902)
(0.0015958791 -7.0884912e-06 3.5671685e-19 0.00076090915 -7.6311028e-17 0.000758389)
(0.0015994275 4.5129894e-06 -1.4932605e-16 0.00076457445 2.1052255e-17 0.00075806006)
(0.0015932938 -5.8039453e-05 -6.4879934e-17 0.00076871847 3.4830899e-17 0.00075598492)
(0.0015549918 -0.00018590268 -2.1049437e-19 0.00060907605 -4.1747557e-17 0.001119176)
(0.0011543017 6.1243589e-05 2.2937088e-18 0.0011201356 1.3314792e-17 0.0011151117)
(0.0011242822 3.9323711e-05 -3.5804463e-16 0.0011276487 -4.8587164e-17 0.0011267293)
(0.0011167758 3.1819e-05 1.7750841e-18 0.0011257861 -7.3724197e-17 0.0011255239)
(0.001109514 2.9071688e-05 -7.389722e-16 0.0011241731 -5.4759576e-17 0.0011240923)
(0.0011025322 2.7284774e-05 -2.4759558e-18 0.0011225952 1.0105827e-17 0.001122583)
(0.0010974753 2.5908054e-05 4.2425117e-19 0.0011201796 -1.9833671e-18 0.0011201995)
(0.0010937672 2.4895077e-05 1.4035209e-18 0.0011171951 4.6142899e-17 0.0011172314)
(0.0010907762 2.413021e-05 3.8758736e-18 0.0011139462 5.7473129e-17 0.001113992)
(0.0010882903 2.3479358e-05 -3.9415722e-16 0.0011105325 -1.5684941e-17 0.0011105826)
(0.0010861582 2.2968909e-05 -2.6340309e-18 0.0011070239 -3.0190166e-17 0.0011070745)
(0.0010842301 2.2493105e-05 -2.1807191e-18 0.0011034897 2.0201173e-17 0.0011035388)
(0.0010824017 2.2076989e-05 -3.0889842e-18 0.0010999777 -6.1084026e-20 0.001100024)
(0.0010806196 2.1753885e-05 4.1498788e-16 0.0010965104 -2.7768988e-18 0.0010965534)
(0.0010788556 2.1408426e-05 3.7913156e-18 0.0010930986 6.9733408e-17 0.0010931378)
(0.0010771018 2.1115323e-05 4.4474294e-18 0.0010897429 -3.140386e-17 0.0010897781)
(0.0010753696 2.0835243e-05 1.9632414e-18 0.0010864349 -5.7102962e-17 0.0010864659)
(0.0010736818 2.057673e-05 4.4690773e-16 0.0010831595 -1.066831e-16 0.001083186)
(0.0010720809 2.030421e-05 -8.953487e-16 0.0010798937 -1.2705511e-16 0.0010799152)
(0.001070629 2.0039263e-05 9.0434192e-16 0.0010766043 -3.8736072e-17 0.0010766198)
(0.001069406 1.9837857e-05 -4.6253153e-16 0.0010732493 -9.6718249e-17 0.0010732576)
(0.0010685341 1.9576446e-05 -6.6079812e-18 0.0010697654 -5.2797308e-17 0.0010697644)
(0.0010681826 1.9350762e-05 9.4923575e-16 0.0010660664 4.0071055e-17 0.0010660532)
(0.0010685912 1.9075958e-05 5.3229812e-18 0.0010620311 -5.4806203e-17 0.0010620011)
(0.0010701117 1.882744e-05 3.7089819e-18 0.0010574824 -2.1963279e-17 0.0010574289)
(0.0010732628 1.8583182e-05 1.250109e-18 0.0010521607 2.5963382e-17 0.0010520739)
(0.0010788041 1.8260007e-05 -5.0713729e-16 0.0010456873 -6.1048629e-18 0.0010455528)
(0.0010878997 1.787482e-05 5.0797213e-16 0.0010374846 8.7889816e-17 0.0010372805)
(0.0011022994 1.7445733e-05 -5.2451157e-16 0.0010266879 9.5395024e-17 0.0010263811)
(0.0011248748 1.6808665e-05 5.2720103e-16 0.0010118892 2.9157977e-17 0.0010114274)
(0.0011599664 1.5925139e-05 5.3795343e-16 0.00099094358 8.5538453e-17 0.00099024699)
(0.0012157786 1.4677023e-05 2.820697e-18 0.00095984842 2.8350357e-17 0.0009587744)
(0.0013041974 1.2476501e-05 5.5484875e-16 0.00091283613 -6.2564529e-18 0.00091117144)
(0.0014553398 8.9578381e-06 -1.1574118e-19 0.00083536638 -7.6855968e-17 0.00083263103)
(0.0015982364 2.8805714e-06 4.7381807e-18 0.00076279288 -2.3115634e-17 0.00075860895)
(0.0015960868 -8.791e-06 5.2738961e-19 0.00076185079 -4.1203926e-17 0.00075771738)
(0.0015995846 4.2839508e-06 -3.3717865e-18 0.00076644079 -2.2183092e-17 0.00075638561)
(0.0015916638 -6.0328119e-05 2.4022789e-18 0.00077084197 4.337146e-17 0.00075306426)
(0.0015777146 -0.00018519521 -1.7988799e-17 0.0006189283 -5.5709207e-17 0.0011234449)
(0.0011519131 7.1270253e-05 2.5099737e-18 0.0011222115 2.2533987e-17 0.0011167007)
(0.0011237813 4.9947594e-05 -2.4842524e-16 0.001128753 -2.4569829e-17 0.0011274803)
(0.0011168802 4.0765666e-05 2.522031e-16 0.0011265113 -3.7509464e-18 0.0011260547)
(0.0011098177 3.7114787e-05 -2.5369977e-18 0.0011247531 -2.9682662e-17 0.0011245717)
(0.001102893 3.4852518e-05 5.1246983e-16 0.0011231313 2.0372685e-17 0.0011230485)
(0.0010978589 3.3189783e-05 -2.5928251e-16 0.001120696 -5.0593308e-17 0.001120658)
(0.0010941659 3.1899665e-05 2.8761419e-18 0.0011176973 2.744635e-17 0.0011176836)
(0.0010911809 3.0914505e-05 4.1488284e-18 0.001114439 -1.1828323e-18 0.0011144411)
(0.0010886984 3.0088321e-05 -1.86603e-18 0.0011110172 -6.6202205e-17 0.0011110286)
(0.0010865689 2.9417103e-05 -3.0562714e-18 0.0011075007 1.1832502e-17 0.0011075169)
(0.0010846388 2.880829e-05 -2.2517037e-18 0.0011039609 1.6714203e-17 0.0011039791)
(0.0010828107 2.8315138e-05 2.7913472e-16 0.0011004418 1.8548924e-17 0.0011004605)
(0.0010810271 2.7838837e-05 2.8691551e-16 0.0010969683 9.1446282e-18 0.0010969863)
(0.0010792601 2.7439458e-05 -2.8678409e-16 0.0010935509 4.5984607e-17 0.0010935676)
(0.0010775043 2.7053096e-05 3.4596364e-18 0.001090189 -1.6043451e-17 0.0010902039)
(0.0010757685 2.6711251e-05 1.6974821e-18 0.0010868755 -3.5885824e-17 0.0010868882)
(0.0010740768 2.6356004e-05 -2.986237e-16 0.0010835948 -7.1755525e-17 0.0010836048)
(0.0010724704 2.6057949e-05 -3.0777457e-16 0.0010803242 -1.4904151e-16 0.0010803312)
(0.0010710111 2.5737468e-05 -4.0169196e-18 0.0010770307 -7.3271394e-18 0.0010770338)
(0.0010697814 2.5412779e-05 -3.3502397e-18 0.0010736709 -8.956913e-17 0.0010736691)
(0.0010688983 2.5117561e-05 3.1696404e-16 0.0010701843 -3.827005e-17 0.001070176)
(0.0010685305 2.4804281e-05 -4.3103691e-19 0.0010664847 5.8282275e-17 0.0010664676)
(0.00106892 2.4482542e-05 4.9944459e-18 0.0010624495 -2.1916135e-17 0.0010624203)
(0.0010704165 2.4131671e-05 6.0217811e-18 0.0010579024 -2.289004e-17 0.0010578559)
(0.0010735267 2.3790487e-05 -6.8370142e-16 0.0010525893 -5.6323688e-17 0.0010525184)
(0.0010790072 2.3393116e-05 -1.6662735e-18 0.0010461326 -3.270171e-18 0.0010460262)
(0.0010880147 2.2916001e-05 -7.1281032e-16 0.0010379572 8.0971245e-18 0.0010377989)
(0.0011022775 2.2254557e-05 3.5447141e-16 0.0010272077 8.168375e-17 0.0010269725)
(0.0011246394 2.147019e-05 3.6261171e-16 0.0010124876 7.3219263e-17 0.001012135)
(0.0011593792 2.0343187e-05 3.7047448e-16 0.00099167943 1.1080602e-16 0.00099114874)
(0.0012146077 1.8642417e-05 2.3943798e-18 0.00096082142 2.0204242e-17 0.00095999592)
(0.0013019693 1.5782449e-05 3.8092499e-16 0.00091425085 2.6621936e-17 0.00091296743)
(0.0014512071 1.1152604e-05 7.7924402e-16 0.00083759922 4.072435e-18 0.00083545009)
(0.0015987077 3.1514858e-06 6.3091545e-18 0.00076269596 2.1043289e-17 0.00075915013)
(0.0015964338 -1.161243e-05 1.9428941e-16 0.00076149622 -3.2258041e-17 0.0007585336)
(0.0015999246 1.7574312e-06 1.0498913e-16 0.00076663707 -2.5956554e-17 0.00075648112)
(0.0015899212 -6.0681304e-05 -4.6915183e-17 0.0007712041 1.6932097e-17 0.00075120931)
(0.0015995995 -0.00019359836 -9.2779302e-19 0.00063564981 -4.9473368e-17 0.0011210247)
(0.0011499642 8.050026e-05 -3.4259706e-16 0.001124302 -5.000247e-18 0.0011184278)
(0.0011233202 6.0982226e-05 1.7430326e-16 0.001130141 3.9002197e-18 0.0011284777)
(0.001117052 5.059762e-05 2.4828446e-18 0.001127515 3.6075876e-17 0.0011268186)
(0.0011102497 4.6116577e-05 -3.1425842e-18 0.0011255709 -4.9442925e-18 0.0011252651)
(0.0011034094 4.3341723e-05 3.6060249e-16 0.0011238838 5.8223314e-17 0.0011237199)
(0.0010984086 4.1313979e-05 1.861496e-16 0.001121419 5.3639372e-18 0.001121319)
(0.0010947315 3.9752614e-05 -1.8282721e-16 0.0011184018 4.8920145e-17 0.0011183377)
(0.0010917587 3.8519772e-05 2.7020211e-18 0.0011151278 -1.5024638e-17 0.0011150875)
(0.0010892814 3.753239e-05 -9.1907557e-19 0.001111694 -8.342257e-17 0.0011116688)
(0.0010871518 3.6687781e-05 -1.9647782e-16 0.0011081681 1.8725689e-17 0.0011081523)
(0.0010852236 3.5953056e-05 -2.0094469e-16 0.0011046178 2.6310149e-18 0.0011046076)
(0.0010833929 3.5348191e-05 1.954641e-16 0.0011010903 3.2405541e-17 0.0011010836)
(0.0010816061 3.4760401e-05 6.1003287e-16 0.0010976085 6.351337e-17 0.0010976036)
(0.0010798368 3.4267261e-05 5.1174831e-18 0.0010941821 3.187351e-17 0.0010941781)
(0.0010780756 3.3785032e-05 3.4673905e-18 0.0010908125 -8.2039525e-18 0.0010908087)
(0.0010763341 3.3342762e-05 1.0042683e-18 0.0010874913 -2.1263706e-17 0.001087487)
(0.0010746363 3.2916346e-05 -2.1063996e-16 0.0010842029 -6.3438688e-17 0.0010841977)
(0.0010730233 3.2513851e-05 -2.165108e-16 0.0010809247 -1.4341073e-16 0.001080918)
(0.0010715544 3.2120141e-05 -2.2602545e-16 0.0010776249 -1.9397006e-17 0.0010776161)
(0.0010703131 3.1728401e-05 -4.0641612e-18 0.0010742595 -4.9586345e-17 0.0010742476)
(0.0010694176 3.1341214e-05 4.5276944e-16 0.0010707676 3.1727169e-17 0.0010707513)
(0.0010690335 3.0978377e-05 2.3168398e-16 0.0010670641 9.181626e-17 0.0010670416)
(0.0010693983 3.059557e-05 -2.3065311e-16 0.0010630287 8.0744157e-19 0.0010629973)
(0.0010708597 3.0158001e-05 -2.3378722e-16 0.0010584863 -2.1844044e-17 0.0010584419)
(0.0010739253 2.9687123e-05 2.4610163e-16 0.0010531815 -8.3639441e-17 0.0010531182)
(0.001079339 2.9171002e-05 -8.458098e-19 0.001046743 -1.6551628e-17 0.0010466518)
(0.0010882418 2.8569374e-05 -5.0016045e-18 0.001038603 -5.3751028e-17 0.0010384701)
(0.001102349 2.7787459e-05 -2.5877223e-16 0.0010279118 4.1206422e-17 0.0010277163)
(0.0011244679 2.6756304e-05 -2.6156787e-16 0.0010132896 3.3079345e-17 0.0010129961)
(0.0011588081 2.5324874e-05 -1.8731148e-18 0.00099265291 8.0115647e-17 0.00099220917)
(0.0012133766 2.3199519e-05 -2.657563e-16 0.00096208843 7.9605235e-18 0.00096138596)
(0.0012995411 1.9615268e-05 -2.7412505e-16 0.00091606248 6.3331717e-18 0.00091495662)
(0.0014466541 1.3848705e-05 -2.768166e-16 0.00084038576 4.2960542e-17 0.00083850778)
(0.0015993613 3.7622645e-06 6.3279396e-18 0.00076295949 2.7231487e-17 0.0007595156)
(0.0015969531 -1.4186932e-05 -8.1927428e-19 0.00076149579 -2.1133816e-17 0.00075918229)
(0.0016003713 -2.4741575e-06 -3.1579769e-18 0.0007671926 3.3731498e-17 0.00075637005)
(0.0015892209 -5.7642862e-05 -3.4131324e-17 0.00077285182 6.4422957e-18 0.00074819869)
(0.0016077955 -0.00020521496 4.3451627e-19 0.00065051581 -1.8172735e-17 0.0011083053)
(0.0011483683 8.8705066e-05 -2.4619325e-16 0.0011265778 -4.0762537e-17 0.0011204291)
(0.0011230308 7.2296326e-05 -2.5317911e-16 0.0011317937 1.8351319e-17 0.0011297851)
(0.0011173507 6.1251885e-05 2.3931078e-18 0.0011288586 2.787964e-18 0.0011278807)
(0.0011108582 5.6087103e-05 -3.0445534e-18 0.0011266996 -1.1903552e-17 0.0011262376)
(0.0011041307 5.2780047e-05 -3.4196947e-18 0.0011249222 4.800862e-17 0.0011246637)
(0.0010991775 5.0343902e-05 1.7248815e-18 0.0011224132 4.7174675e-17 0.0011222482)
(0.0010955269 4.8510305e-05 -2.6666312e-16 0.0011193664 3.721277e-17 0.0011192552)
(0.0010925679 4.7064615e-05 3.101094e-19 0.0011160706 -6.385265e-18 0.0011159957)
(0.0010900977 4.5862856e-05 2.7729573e-16 0.001112619 -2.8562983e-17 0.0011125683)
(0.0010879708 4.4859587e-05 -3.1998938e-19 0.0011090777 2.2918324e-18 0.001109043)
(0.0010860413 4.4003666e-05 -3.0931905e-18 0.0011055138 -3.2204006e-17 0.0011054898)
(0.0010842084 4.3239993e-05 -4.1139677e-18 0.0011019733 2.7988766e-17 0.0011019565)
(0.0010824174 4.2563383e-05 -6.3585921e-19 0.0010984792 9.08625e-17 0.0010984672)
(0.0010806418 4.1921899e-05 4.1353833e-18 0.0010950413 5.0812041e-17 0.0010950325)
(0.0010788738 4.1362944e-05 -1.483212e-16 0.0010916604 -1.3922139e-18 0.0010916535)
(0.0010771249 4.0814211e-05 1.4352801e-19 0.001088328 -1.5435502e-17 0.0010883221)
(0.0010754181 4.0303951e-05 3.1511252e-16 0.0010850293 -4.0345828e-17 0.0010850234)
(0.0010737941 3.9815257e-05 3.621438e-18 0.0010817416 -1.0031555e-16 0.0010817349)
(0.0010723133 3.9336626e-05 -1.6279708e-16 0.0010784324 -4.7913174e-17 0.001078424)
(0.0010710581 3.8862708e-05 -3.2755574e-18 0.0010750587 -3.0043004e-17 0.0010750474)
(0.001070145 3.8399339e-05 -2.9186118e-18 0.0010715601 4.0987852e-17 0.0010715445)
(0.001069738 3.7941932e-05 3.3391674e-16 0.0010678528 1.1118762e-16 0.0010678307)
(0.0010700723 3.7431859e-05 3.2300858e-18 0.0010638172 2.8087701e-17 0.0010637857)
(0.0010714948 3.6952729e-05 5.5698489e-18 0.0010592784 -4.3609207e-17 0.0010592334)
(0.0010745037 3.6379609e-05 -1.7179546e-16 0.0010539863 -4.7272314e-17 0.0010539217)
(0.0010798373 3.57255e-05 -1.7935458e-16 0.0010475717 -6.3811589e-17 0.0010474787)
(0.0010886247 3.4961641e-05 -5.3377614e-18 0.0010394726 -5.114061e-17 0.0010393375)
(0.0011025512 3.4000088e-05 -1.8810567e-16 0.0010288534 -2.9000952e-17 0.0010286563)
(0.0011243925 3.2738208e-05 -2.6525826e-18 0.0010143496 -9.4781703e-18 0.0010140563)
(0.0011582856 3.0947411e-05 -2.3681765e-18 0.0009939136 4.5520701e-17 0.00099347561)
(0.0012121154 2.8305213e-05 6.691557e-19 0.00096368998 2.8593542e-17 0.00096300018)
(0.0012969522 2.3944969e-05 -2.3829809e-18 0.00091828198 -3.2787958e-17 0.00091721143)
(0.0014417347 1.6897779e-05 -1.9977668e-16 0.00084369255 1.8552403e-17 0.00084190152)
(0.0016002603 4.5025324e-06 6.9713784e-18 0.00076347549 3.6379545e-17 0.00075986341)
(0.0015977056 -1.6591898e-05 -2.0406305e-16 0.00076172539 -3.955789e-17 0.00075984221)
(0.0016008838 -8.8860412e-06 -3.0794825e-18 0.00076767592 5.2002096e-17 0.00075654911)
(0.0015899485 -5.2209735e-05 2.5232016e-17 0.00077516247 4.1300068e-17 0.00074537105)
(0.0016022812 -0.00021604069 4.9978883e-19 0.00066020935 -1.4676212e-17 0.0010913079)
(0.001147638 9.6125512e-05 3.8284871e-18 0.0011287357 -3.1355183e-17 0.0011226364)
(0.0011230881 8.3656511e-05 1.0689865e-18 0.0011337309 7.0835392e-18 0.0011314765)
(0.0011178641 7.2617448e-05 2.0547527e-18 0.0011306191 -3.1892383e-18 0.0011293226)
(0.0011117104 6.697857e-05 -2.3486376e-18 0.0011282357 3.7883126e-18 0.0011275689)
(0.0011051223 6.3226462e-05 -1.9575185e-16 0.0011263484 1.1990116e-17 0.0011259563)
(0.001100234 6.0426368e-05 -1.9388416e-16 0.0011237808 -2.6225825e-18 0.0011235184)
(0.0010966179 5.830923e-05 -1.9424168e-16 0.0011206954 -1.4611371e-17 0.0011205087)