/*--------------------------------*- C++ -*----------------------------------*\
  =========                 |
  \\      /  F ield         | OpenFOAM: The Open Source CFD Toolbox
   \\    /   O peration     | Website:  https://openfoam.org
    \\  /    A nd           | Version:  7
     \\/     M anipulation  |
\*---------------------------------------------------------------------------*/
FoamFile
{
    version     2.0;
    format      ascii;
    class       volScalarField;
    location    "2000";
    object      k;
}
// * * * * * * * * * * * * * * * * * * * * * * * * * * * * * * * * * * * * * //

dimensions      [0 2 -2 0 0 0 0];

internalField   nonuniform List<scalar> 
15296
(
0.00169379
0.0016883331
0.0016830551
0.0016779293
0.0016729321
0.0016680501
0.0016632735
0.0016585954
0.0016540095
0.0016495108
0.0016450943
0.001640756
0.001636492
0.0016322988
0.0016281731
0.001624112
0.0016201118
0.0016161705
0.0016122856
0.0016084547
0.0016046755
0.0016009458
0.0015972633
0.0015936262
0.0015900329
0.001586483
0.0015829791
0.0015795296
0.0015761605
0.0015729009
0.0015698724
0.0015673616
0.0015663024
0.0015682993
0.001574894
0.001584472
0.0016564938
0.0016544436
0.0016938494
0.0016883902
0.0016831157
0.0016779915
0.0016729956
0.0016681148
0.0016633394
0.0016586621
0.0016540772
0.0016495792
0.0016451635
0.0016408258
0.0016365624
0.0016323697
0.0016282445
0.0016241838
0.001620184
0.0016162431
0.0016123585
0.0016085279
0.001604749
0.0016010195
0.0015973372
0.0015937002
0.0015901071
0.0015865573
0.0015830534
0.0015796037
0.001576234
0.001572973
0.0015699407
0.0015674191
0.0015663331
0.0015682875
0.0015748311
0.0015840691
0.0016565692
0.0016239264
0.0016939746
0.0016885141
0.0016832439
0.0016781215
0.0016731269
0.001668247
0.0016634724
0.0016587957
0.0016542112
0.0016497135
0.001645298
0.0016409604
0.0016366969
0.0016325041
0.0016283787
0.0016243179
0.0016203177
0.0016163764
0.0016124915
0.0016086604
0.001604881
0.001601151
0.0015974682
0.0015938306
0.0015902368
0.0015866863
0.0015831816
0.0015797307
0.0015763595
0.001573096
0.0015700585
0.0015675239
0.0015664055
0.0015683149
0.0015747899
0.0015836691
0.0016566221
0.001571306
0.0016941589
0.0016887023
0.0016834364
0.0016783156
0.0016733221
0.0016684428
0.0016636685
0.0016589919
0.0016544073
0.0016499093
0.0016454934
0.0016411552
0.0016368911
0.0016326975
0.0016285712
0.0016245094
0.0016205082
0.0016165658
0.0016126796
0.0016088474
0.0016050667
0.0016013353
0.0015976511
0.0015940122
0.0015904169
0.0015868649
0.0015833584
0.0015799055
0.0015765318
0.0015732649
0.0015702212
0.0015676726
0.0015665199
0.001568385
0.0015747849
0.00158336
0.0016560074
0.0015608974
0.0016944003
0.0016889548
0.0016836925
0.0016785732
0.0016735804
0.0016687015
0.001663927
0.0016592501
0.0016546648
0.001650166
0.001645749
0.0016414096
0.0016371441
0.001632949
0.0016288211
0.0016247576
0.0016207546
0.0016168103
0.0016129223
0.001609088
0.0016053052
0.0016015717
0.0015978854
0.0015942442
0.0015906466
0.0015870922
0.0015835831
0.0015801273
0.0015767502
0.0015734789
0.0015704281
0.0015678645
0.0015666754
0.0015684977
0.0015748149
0.001583152
0.0016544197
0.001571824
0.0016947853
0.0016893631
0.0016841044
0.001678987
0.001673995
0.0016691159
0.0016643408
0.0016596627
0.0016550759
0.0016505752
0.001646156
0.0016418143
0.0016375461
0.0016333481
0.0016292172
0.0016251506
0.0016211443
0.0016171967
0.0016133051
0.0016094672
0.0016056807
0.0016019435
0.0015982533
0.0015946081
0.0015910065
0.0015874479
0.0015839344
0.0015804737
0.0015770909
0.0015738129
0.0015707515
0.0015681674
0.0015669293
0.0015686974
0.0015748984
0.0015830209
0.0016513385
0.0015953208
0.001695425
0.0016900432
0.0016847886
0.0016796734
0.0016746818
0.0016698017
0.0016650246
0.0016603438
0.0016557537
0.0016512491
0.0016468256
0.0016424791
0.0016382059
0.0016340025
0.001629866
0.0016257934
0.0016217811
0.0016178272
0.0016139291
0.0016100846
0.0016062915
0.0016025474
0.0015988502
0.001595198
0.0015915891
0.001588023
0.0015845017
0.0015810325
0.0015776401
0.0015743512
0.0015712739
0.0015686614
0.001567357
0.0015690577
0.001575093
0.0015831109
0.0016463166
0.0016265996
0.0016963614
0.0016910098
0.0016857641
0.001680652
0.0016756601
0.0016707776
0.0016659969
0.0016613115
0.0016567159
0.0016522051
0.0016477746
0.0016434206
0.0016391394
0.0016349277
0.0016307824
0.0016267007
0.0016226792
0.0016187157
0.0016148079
0.0016109534
0.0016071501
0.0016033957
0.0015996881
0.0015960252
0.0015924054
0.0015888281
0.0015852951
0.0015818135
0.0015784072
0.0015751031
0.0015720049
0.0015693574
0.0015679738
0.001569599
0.0015754265
0.0015834824
0.0016403749
0.0016546353
0.0016977048
0.0016923511
0.0016871243
0.0016820166
0.0016770232
0.0016721367
0.0016673501
0.0016626574
0.0016580533
0.0016535329
0.0016490921
0.0016447269
0.0016404339
0.0016362098
0.0016320516
0.0016279566
0.0016239216
0.0016199441
0.001616022
0.001612153
0.0016083349
0.0016045655
0.0016008427
0.0015971644
0.0015935289
0.0015899355
0.0015863858
0.0015828866
0.0015794604
0.0015761356
0.0015730097
0.0015703191
0.0015688415
0.0015703802
0.0015759519
0.0015841604
0.0016341797
0.0016773148
0.0016995256
0.001694202
0.0016889931
0.0016838898
0.0016788942
0.0016740018
0.0016692067
0.0016645036
0.0016598874
0.0016553537
0.0016508982
0.0016465174
0.0016422078
0.0016379664
0.0016337902
0.0016296767
0.0016256229
0.001621626
0.001617684
0.0016137948
0.0016099563
0.0016061662
0.0016024223
0.0015987226
0.0015950653
0.0015914497
0.0015878769
0.0015843534
0.0015809004
0.0015775474
0.0015743854
0.0015716414
0.0015700523
0.0015714872
0.0015767495
0.0015851747
0.0016281449
0.0016963874
0.0017019681
0.0016967257
0.0016915302
0.001686431
0.0016814323
0.0016765318
0.0016717253
0.0016670081
0.0016623757
0.0016578238
0.0016533485
0.0016489465
0.0016446146
0.0016403497
0.0016361493
0.0016320107
0.0016279317
0.0016239084
0.0016199396
0.0016160232
0.001612157
0.0016083388
0.0016045665
0.0016008379
0.0015971513
0.0015935055
0.0015899017
0.0015863455
0.0015828567
0.0015794662
0.0015762574
0.001573447
0.0015717261
0.0015730285
0.0015779265
0.0015865571
0.0016227444
0.0017107549
0.0017053338
0.0017001063
0.0016949364
0.0016898424
0.0016848385
0.0016799267
0.0016751044
0.0016703678
0.001665713
0.0016611361
0.0016566338
0.0016522029
0.0016478406
0.001643544
0.0016393106
0.001635138
0.0016310245
0.0016269658
0.0016229608
0.0016190076
0.001615104
0.001611248
0.0016074372
0.0016036697
0.0015999434
0.0015962571
0.0015926114
0.0015890114
0.001585475
0.0015820346
0.0015787651
0.0015758721
0.0015739972
0.001575119
0.0015796074
0.0015883457
0.0016185644
0.001718298
0.0017098322
0.0017046295
0.0016994786
0.0016943859
0.001689373
0.0016844449
0.0016796004
0.0016748369
0.0016701512
0.0016655402
0.0016610009
0.0016565308
0.001652127
0.0016477874
0.0016435095
0.0016392911
0.0016351304
0.0016310244
0.0016269707
0.001622968
0.0016190142
0.0016151073
0.0016112449
0.0016074251
0.0016036456
0.001599905
0.0015962034
0.001592545
0.0015889456
0.0015854392
0.0015820914
0.0015790949
0.001577042
0.001577898
0.0015819522
0.0015906265
0.0016159746
0.0017197581
0.0017157778
0.0017106621
0.0017055064
0.0017004055
0.0016953787
0.0016904282
0.0016855539
0.0016807544
0.0016760277
0.0016713715
0.0016667835
0.0016622615
0.0016578034
0.0016534071
0.0016490706
0.0016447921
0.0016405696
0.0016364016
0.0016322839
0.0016282162
0.0016241966
0.0016202229
0.0016162929
0.0016124045
0.0016085553
0.0016047435
0.0016009686
0.001597234
0.0015935525
0.0015899602
0.0015865119
0.0015833859
0.0015811281
0.0015815885
0.0015852049
0.0015935931
0.0016152683
0.0017154251
0.0017238455
0.0017186276
0.0017134609
0.0017083481
0.0017032997
0.0016983177
0.001693403
0.0016885559
0.0016837753
0.00167906
0.0016744085
0.0016698192
0.0016652905
0.0016608208
0.0016564086
0.0016520522
0.0016477499
0.0016435011
0.001639301
0.0016351496
0.0016310449
0.0016269849
0.0016229676
0.0016189905
0.0016150512
0.0016111473
0.0016072777
0.0016034445
0.0015996578
0.0015959543
0.0015923782
0.0015890904
0.0015865963
0.0015865368
0.0015896971
0.0015975523
0.0016166169
0.0017069513
0.0017364254
0.0017311224
0.0017259081
0.0017207566
0.0017156626
0.0017106239
0.0017056415
0.0017007168
0.0016958502
0.0016910415
0.0016862903
0.0016815959
0.0016769575
0.0016723742
0.0016678448
0.0016633681
0.001658943
0.0016545684
0.0016502427
0.0016459625
0.0016417269
0.0016375343
0.0016333827
0.0016292696
0.0016251919
0.0016211467
0.0016171319
0.0016131478
0.0016092009
0.0016053262
0.0016015578
0.0015980311
0.0015952113
0.0015944384
0.0015970003
0.001603958
0.0016207707
0.0016966146
0.0017552298
0.0017499037
0.0017446117
0.0017393669
0.0017341737
0.0017290278
0.0017239284
0.0017188768
0.0017138741
0.0017089209
0.0017040177
0.001699165
0.0016943625
0.0016896101
0.0016849073
0.0016802534
0.0016756477
0.0016710891
0.0016665777
0.0016621104
0.0016576833
0.0016532973
0.0016489501
0.0016446386
0.0016403594
0.0016361086
0.0016318827
0.0016276794
0.0016235016
0.001619373
0.0016153332
0.0016114739
0.0016082263
0.0016065697
0.0016084266
0.0016141173
0.0016290656
0.0016875254
0.0017794522
0.0017739867
0.0017685484
0.0017631494
0.0017577976
0.001752488
0.0017472185
0.0017419898
0.0017368029
0.0017316587
0.0017265583
0.0017215024
0.0017164917
0.0017115263
0.0017066064
0.0017017316
0.0016969016
0.0016921156
0.001687373
0.0016826741
0.0016780125
0.0016733897
0.0016688024
0.0016642475
0.0016597211
0.0016552184
0.001650734
0.0016462627
0.0016418038
0.0016373634
0.0016329973
0.0016287439
0.0016250054
0.0016224112
0.0016235548
0.0016278354
0.0016411773
0.0016830954
0.0018101144
0.0018043775
0.0017986966
0.0017930612
0.0017874734
0.0017819259
0.0017764154
0.0017709423
0.0017655071
0.0017601107
0.001754754
0.0017494379
0.0017441631
0.0017389302
0.0017337394
0.0017285907
0.0017234839
0.0017184186
0.001713394
0.0017084094
0.0017034638
0.0016985543
0.0016936753
0.0016888252
0.0016839996
0.0016791925
0.0016743964
0.0016696026
0.0016648061
0.0016599989
0.0016552415
0.0016505248
0.0016462216
0.0016426406
0.0016430394
0.0016458283
0.0016575394
0.0016848398
0.001848186
0.0018421387
0.0018361351
0.0018301714
0.0018242552
0.0018183803
0.0018125428
0.0018067428
0.0018009804
0.001795256
0.0017895701
0.0017839233
0.0017783164
0.0017727497
0.0017672233
0.0017617375
0.0017562919
0.0017508862
0.0017455196
0.0017401908
0.0017349006
0.0017296442
0.0017244177
0.0017192148
0.0017140321
0.0017088623
0.0017036956
0.0016985193
0.0016933231
0.0016880871
0.0016828676
0.0016776148
0.0016726644
0.0016680613
0.0016675643
0.0016687703
0.0016787338
0.0016934807
0.0018949329
0.0018884703
0.0018820421
0.0018756496
0.0018693068
0.0018630087
0.001856751
0.0018505332
0.0018443553
0.0018382171
0.0018321188
0.0018260609
0.0018200436
0.0018140671
0.0018081315
0.0018022366
0.0017963821
0.0017905674
0.0017847916
0.0017790532
0.0017733509
0.0017676816
0.0017620437
0.0017564287
0.0017508269
0.0017452326
0.0017396326
0.0017340101
0.0017283485
0.0017226192
0.0017168507
0.0017109922
0.0017053081
0.0016996918
0.001697634
0.0016972515
0.0017054479
0.0017095313
0.0019517038
0.0019446523
0.0019376681
0.0019307361
0.0019238638
0.0019170423
0.0019102649
0.0019035306
0.0018968394
0.0018901912
0.0018835861
0.0018770245
0.0018705067
0.0018640326
0.001857602
0.0018512146
0.0018448698
0.0018385668
0.0018323043
0.0018260806
0.0018198933
0.0018137393
0.0018076142
0.0018015143
0.0017954267
0.0017893412
0.0017832381
0.0017770999
0.0017709026
0.0017646089
0.0017582051
0.0017516673
0.001745157
0.0017385272
0.0017341298
0.0017322407
0.0017387437
0.0017332208
0.0020196804
0.0020119446
0.0020043095
0.0019967379
0.0019892309
0.0019817778
0.0019743708
0.0019670096
0.001959695
0.0019524276
0.0019452079
0.0019380366
0.0019309141
0.0019238404
0.0019168152
0.001909838
0.001902908
0.001896024
0.0018891844
0.001882387
0.0018756289
0.0018689061
0.0018622131
0.0018555428
0.0018488878
0.0018422304
0.0018355499
0.0018288214
0.0018220129
0.0018150737
0.0018079647
0.001800658
0.0017932283
0.0017855111
0.0017789917
0.0017753814
0.0017800335
0.0017657667
0.0021001572
0.0020917505
0.0020833898
0.0020750669
0.002066801
0.0020585891
0.0020504257
0.002042312
0.0020342497
0.0020262402
0.0020182848
0.0020103846
0.0020025403
0.001994752
0.0019870195
0.0019793423
0.0019717193
0.001964149
0.0019566295
0.0019491582
0.0019417314
0.0019343443
0.0019269905
0.0019196609
0.0019123443
0.0019050231
0.0018976779
0.0018902732
0.0018827675
0.0018751016
0.001867215
0.0018590214
0.001850595
0.0018416928
0.00183328
0.0018271456
0.0018299091
0.0018079933
0.0021952802
0.0021858109
0.0021764686
0.0021672028
0.002158013
0.0021488885
0.0021398203
0.0021308089
0.0021218567
0.0021129656
0.0021041375
0.002095374
0.0020866761
0.0020780442
0.002069478
0.002060977
0.0020525399
0.0020441652
0.0020358504
0.0020275923
0.0020193869
0.0020112285
0.0020031094
0.0019950191
0.0019869437
0.0019788634
0.0019707522
0.0019625726
0.0019542751
0.0019457912
0.0019370425
0.0019278654
0.0019183664
0.0019081748
0.0018980531
0.0018880947
0.0018890382
0.0018606048
0.0023059134
0.0022953657
0.0022849258
0.0022745567
0.0022642676
0.0022540527
0.0022439039
0.0022338223
0.0022238113
0.0022138735
0.0022040111
0.0021942262
0.0021845201
0.0021748933
0.0021653457
0.0021558765
0.0021464846
0.002137168
0.0021279239
0.0021187487
0.0021096376
0.002100584
0.0020915792
0.0020826112
0.0020736637
0.0020647142
0.0020557322
0.0020466745
0.0020374846
0.002028077
0.0020183646
0.0020081513
0.0019974559
0.0019858933
0.0019740877
0.0019606232
0.0019590082
0.0019249619
0.0024339862
0.0024220309
0.0024102249
0.0023985131
0.002386897
0.0023753691
0.0023639205
0.0023525533
0.0023412721
0.0023300803
0.0023189812
0.0023079772
0.0022970702
0.0022862607
0.0022755487
0.0022649336
0.0022544137
0.0022439869
0.00223365
0.0022233989
0.002213228
0.0022031299
0.0021930945
0.0021831083
0.0021731529
0.0021632028
0.0021532236
0.0021431662
0.0021329667
0.0021225273
0.0021117417
0.0021004034
0.002088402
0.0020754155
0.002061846
0.0020457373
0.0020395832
0.0020009983
0.002580894
0.0025672644
0.0025538036
0.0025404526
0.0025272134
0.00251408
0.002501045
0.002488112
0.0024752873
0.0024625758
0.0024499816
0.0024375081
0.0024251571
0.0024129297
0.0024008256
0.0023888438
0.0023769827
0.0023652394
0.0023536103
0.0023420905
0.0023306736
0.0023193511
0.0023081116
0.0022969399
0.0022858153
0.0022747095
0.0022635841
0.0022523849
0.0022410405
0.002229443
0.0022174681
0.0022048941
0.0021915452
0.0021770219
0.002161628
0.0021433583
0.0021318735
0.0020895225
0.002748499
0.0027326941
0.0027171075
0.0027016713
0.0026863824
0.0026712335
0.0026562171
0.0026413376
0.0026266027
0.002612018
0.0025975883
0.0025833169
0.0025692061
0.0025552562
0.0025414667
0.0025278361
0.0025143618
0.0025010403
0.0024878671
0.0024748361
0.0024619398
0.0024491683
0.0024365088
0.002423944
0.002411451
0.0023989987
0.0023865448
0.0023740304
0.0023613773
0.0023484694
0.0023351676
0.0023212344
0.0023064658
0.0022903393
0.0022731067
0.0022527567
0.0022376258
0.0021904584
0.0029379405
0.0029193877
0.0029011058
0.0028830235
0.0028651368
0.0028474386
0.0028299236
0.0028125984
0.0027954722
0.0027785514
0.0027618408
0.002745344
0.0027290621
0.0027129948
0.0026971406
0.0026814965
0.0026660586
0.0026508222
0.002635781
0.0026209276
0.0026062529
0.0025917451
0.0025773894
0.0025631666
0.0025490514
0.0025350096
0.0025209957
0.0025069466
0.0024927785
0.0024783689
0.0024635675
0.0024481287
0.0024318153
0.0024141009
0.0023949967
0.0023725981
0.0023548127
0.0023026224
0.0031501784
0.0031281149
0.0031063909
0.0030849361
0.0030637464
0.003042815
0.0030221401
0.0030017315
0.0029815996
0.0029617514
0.0029421916
0.0029229226
0.0029039443
0.0028852545
0.0028668496
0.0028487246
0.0028308736
0.0028132895
0.002795964
0.0027788876
0.0027620488
0.0027454339
0.0027290259
0.0027128031
0.0026967377
0.0026807931
0.0026649208
0.0026490543
0.0026331059
0.0026169497
0.0026004274
0.0025832939
0.0025652857
0.0025459058
0.0025249958
0.0025006554
0.0024802708
0.0024267536
0.0033862902
0.0033596371
0.0033334307
0.0033076075
0.0032821606
0.0032570801
0.0032323668
0.0032080326
0.0031840869
0.0031605353
0.0031373804
0.0031146219
0.0030922565
0.003070279
0.0030486825
0.0030274591
0.0030065995
0.002986094
0.0029659314
0.0029460995
0.0029265844
0.0029073698
0.0028884362
0.0028697596
0.00285131
0.0028330484
0.002814924
0.0027968686
0.0027787921
0.0027605685
0.0027420367
0.0027229587
0.0027030613
0.0026818786
0.0026592053
0.0026331827
0.0026101449
0.0025577312
0.0036379866
0.0036055577
0.0035737073
0.0035423946
0.00351161
0.0034813375
0.0034515808
0.003422353
0.0033936607
0.0033655066
0.0033378903
0.0033108075
0.0032842512
0.003258212
0.0032326794
0.0032076418
0.0031830866
0.0031590005
0.0031353696
0.0031121785
0.0030894104
0.0030670462
0.0030450639
0.003023437
0.0030021331
0.0029811115
0.0029603199
0.0029396893
0.0029191298
0.0028985181
0.0028776963
0.0028564395
0.0028344799
0.0028113989
0.0027869513
0.0027595954
0.0027341967
0.0026845763
0.0038871883
0.0038479525
0.0038094309
0.0037716209
0.0037345146
0.003698091
0.0036623613
0.0036273418
0.0035930379
0.0035594507
0.0035265779
0.0034944123
0.0034629435
0.0034321588
0.0034020437
0.0033725828
0.0033437596
0.0033155569
0.0032879567
0.0032609396
0.0032344849
0.0032085699
0.0031831688
0.0031582518
0.0031337837
0.0031097213
0.0030860111
0.0030625838
0.0030393511
0.0030161944
0.002992963
0.0029694495
0.0029454021
0.002920457
0.0028943511
0.0028658917
0.0028386266
0.0027928889
0.0041239875
0.0040769601
0.0040307469
0.0039854227
0.0039409974
0.0038974582
0.0038548355
0.0038131561
0.0037724285
0.003732655
0.0036938318
0.0036559483
0.0036189888
0.003582935
0.0035477659
0.0035134591
0.0034799913
0.0034473381
0.0034154746
0.0033843746
0.0033540108
0.0033243543
0.0032953734
0.0032670333
0.003239294
0.0032121089
0.0031854221
0.0031591637
0.0031332469
0.0031075585
0.0030819566
0.0030562523
0.0030302152
0.0030035362
0.0029759467
0.0029466034
0.0029177841
0.0028763328
0.0043476409
0.004291318
0.0042359911
0.0041818362
0.0041288818
0.004077127
0.0040266244
0.0039774074
0.0039294818
0.0038828439
0.0038374805
0.003793369
0.0037504808
0.0037087839
0.0036682442
0.0036288262
0.003590494
0.0035532116
0.0035169425
0.0034816502
0.0034472976
0.0034138467
0.0033812577
0.0033494882
0.0033184921
0.0032882178
0.003258606
0.0032295853
0.0032010701
0.0031729518
0.0031450981
0.0031173375
0.0030894631
0.0030612158
0.0030323288
0.0030022825
0.0029721983
0.0029348462
0.0045580834
0.0044905821
0.0044243993
0.004359893
0.004297114
0.0042360607
0.0041767823
0.0041192882
0.0040635548
0.0040095503
0.0039572337
0.0039065558
0.0038574636
0.0038099029
0.0037638188
0.003719157
0.0036758643
0.0036338888
0.0035931796
0.0035536865
0.0035153604
0.003478152
0.0034420115
0.0034068874
0.0033727262
0.0033394699
0.0033070546
0.0032754068
0.0032444409
0.0032140522
0.0031841171
0.0031544795
0.0031249553
0.0030953282
0.0030653388
0.003034744
0.0030036782
0.0029699608
0.0047553129
0.0046745575
0.0045959928
0.0045199903
0.0044464764
0.0043753725
0.004306681
0.0042403612
0.0041763463
0.0041145671
0.0040549481
0.0039974086
0.0039418669
0.0038882426
0.0038364569
0.0037864332
0.0037380982
0.0036913815
0.0036462149
0.0036025326
0.003560271
0.0035193677
0.0034797609
0.0034413884
0.0034041873
0.0033680921
0.0033330331
0.0032989329
0.0032657049
0.0032332464
0.0032014409
0.0031701444
0.003139194
0.0031084062
0.0030775343
0.0030465524
0.0030148067
0.0029841625
0.0049409685
0.0048459728
0.0047539431
0.0046653985
0.0045801731
0.004498129
0.0044192251
0.0043433676
0.0042704435
0.0042003431
0.0041329521
0.0040681537
0.0040058331
0.0039458787
0.0038881833
0.0038326438
0.0037791623
0.003727646
0.003678006
0.0036301569
0.0035840178
0.0035395101
0.0034965573
0.0034550842
0.0034150163
0.0033762784
0.0033387932
0.0033024779
0.0032672429
0.0032329856
0.0031995946
0.003166934
0.0031348589
0.0031032073
0.0030717506
0.0030406117
0.0030085685
0.0029804491
0.0051161433
0.0050061279
0.0048996096
0.0047974109
0.0046993582
0.0046053253
0.0045152609
0.00442903
0.0043464766
0.0042674462
0.0041917791
0.0041193148
0.004049897
0.0039833756
0.0039196075
0.0038584562
0.0037997935
0.0037434983
0.0036894557
0.0036375567
0.0035876984
0.0035397829
0.0034937159
0.0034494065
0.003406767
0.0033657107
0.0033261508
0.003287997
0.0032511553
0.0032155204
0.0031809833
0.0031474114
0.0031146739
0.0030826168
0.0030510347
0.0030201213
0.0029883333
0.0029622665
0.0052804086
0.0051536
0.0050310057
0.0049137556
0.0048016452
0.004694566
0.0045924486
0.0044951067
0.0044023307
0.0043139094
0.0042296254
0.0041492628
0.0040726133
0.0039994785
0.0039296703
0.0038630111
0.0037993348
0.0037384859
0.0036803184
0.0036246952
0.003571489
0.0035205797
0.0034718531
0.0034252011
0.003380521
0.0033377135
0.0032966809
0.0032573238
0.0032195404
0.0031832188
0.0031482471
0.0031144874
0.003081816
0.0030500695
0.0030190704
0.0029889944
0.0029582564
0.0029338794
0.0054331328
0.0052864253
0.0051452659
0.0050110209
0.0048833422
0.0047620647
0.0046470311
0.0045379527
0.0044345295
0.0043364638
0.0042434566
0.0041552178
0.0040714703
0.0039919535
0.0039164228
0.0038446496
0.0037764236
0.0037115499
0.0036498472
0.0035911482
0.0035352988
0.0034821563
0.0034315856
0.0033834589
0.0033376552
0.0032940576
0.0032525523
0.0032130252
0.0031753604
0.0031394314
0.003105115
0.0030722568
0.0030407281
0.0030103345
0.0029809258
0.0029525667
0.0029239187
0.0029010217
0.0055724213
0.0054022395
0.0052396295
0.005086125
0.0049411399
0.004804378
0.0046755166
0.004554107
0.0044397115
0.0043319051
0.0042302738
0.0041344241
0.0040439876
0.0039586238
0.0038780186
0.003801884
0.0037299591
0.0036620069
0.0035978093
0.003537165
0.0034798884
0.003425806
0.0033747532
0.0033265751
0.0032811239
0.0032382547
0.0031978246
0.003159689
0.0031237003
0.0030896976
0.0030575285
0.0030270064
0.0029979875
0.0029702264
0.002943602
0.0029179902
0.0028925495
0.0028711022
0.0056961442
0.0054987919
0.0053116712
0.0051364389
0.0049722304
0.0048185761
0.004674926
0.004540619
0.0044150314
0.0042975636
0.0041876452
0.0040847479
0.0039883882
0.0038981306
0.0038135837
0.0037343937
0.0036602415
0.0035908349
0.0035259034
0.0034651963
0.0034084799
0.0033555292
0.0033061202
0.0032600366
0.0032170736
0.0031770351
0.0031397289
0.0031049601
0.0030725338
0.0030422485
0.0030139143
0.002987296
0.0029622188
0.0029383658
0.0029156549
0.0028937241
0.0028724011
0.0028525479
0.0058047569
0.0055754406
0.0053598504
0.005159742
0.0049739501
0.0048017649
0.0046423197
0.0044946595
0.0043578931
0.0042311851
0.0041137686
0.0040049568
0.0039041365
0.0038107621
0.0037243411
0.0036444261
0.0035706071
0.0035024957
0.0034397117
0.0033818885
0.0033286809
0.0032797581
0.0032348094
0.0031935393
0.0031556578
0.0031208813
0.0030889366
0.0030595586
0.0030324987
0.0030075147
0.0029843864
0.0029628403
0.0029426837
0.0029235379
0.0029053922
0.0028876394
0.0028708606
0.002852909
0.0059004177
0.0056317226
0.0053819894
0.0051528429
0.0049426409
0.0047502184
0.0045741941
0.0044131727
0.0042659029
0.0041312604
0.0040082533
0.0038960013
0.0037937143
0.0037006729
0.0036161905
0.0035395947
0.0034702451
0.0034075342
0.003350893
0.0032997864
0.0032536936
0.0032121165
0.0031746022
0.003140746
0.0031101723
0.0030825266
0.0030574774
0.0030347286
0.0030140265
0.0029950864
0.0029776428
0.0029614101
0.0029462247
0.0029317205
0.002918002
0.0029042615
0.002891887
0.0028759186
0.0059827551
0.0056645004
0.0053733082
0.0051102385
0.0048727596
0.0046588322
0.0044662868
0.0042931668
0.0041378057
0.0039987359
0.0038746298
0.0037642269
0.0036662919
0.0035796268
0.0035030784
0.003435579
0.0033761057
0.003323692
0.0032774635
0.0032366553
0.0032005702
0.0031686421
0.0031403301
0.0031151091
0.0030925385
0.0030722756
0.0030540439
0.0030376231
0.0030228439
0.0030094713
0.002997264
0.0029859571
0.002975414
0.0029652916
0.002955764
0.0029458587
0.002937686
0.0029235512
0.0060471301
0.0056666197
0.00532568
0.0050238025
0.0047569202
0.0045217353
0.0043151835
0.0041346925
0.0039779679
0.0038427275
0.0037266357
0.0036273634
0.0035427095
0.0034705589
0.0034089799
0.0033562958
0.003311066
0.0032721247
0.0032384424
0.003209089
0.0031833107
0.0031606545
0.0031407718
0.0031232958
0.0031078858
0.0030942689
0.0030822329
0.0030716212
0.0030621431
0.0030534085
0.0030454104
0.0030380984
0.0030314209
0.0030251165
0.0030192615
0.003012948
0.0030083753
0.0029955598
0.0060878883
0.0056292991
0.0052287451
0.0048832623
0.0045870544
0.0043355825
0.0041246639
0.0039500625
0.0038071282
0.0036910015
0.0035968644
0.0035203491
0.0034577193
0.0034059359
0.0033627815
0.003326286
0.0032949142
0.0032677321
0.0032441935
0.0032238694
0.0032063688
0.0031914223
0.0031781292
0.0031662415
0.0031558312
0.0031469123
0.0031394245
0.0031332655
0.0031282726
0.0031242224
0.0031209392
0.0031182497
0.0031160577
0.0031140698
0.0031123574
0.0031099454
0.0031091236
0.0030986751
0.0060999438
0.005553276
0.0050899657
0.0047051721
0.004391903
0.0041432711
0.0039507115
0.0038041432
0.0036930394
0.0036079088
0.0035411739
0.0034876545
0.0034433649
0.0034057403
0.0033735512
0.0033459094
0.0033220907
0.0033015898
0.0032835608
0.0032677227
0.0032542461
0.003243144
0.0032340779
0.0032267053
0.0032208444
0.0032164081
0.003213327
0.0032115192
0.0032108512
0.0032110986
0.0032120557
0.0032134939
0.0032152858
0.003217084
0.0032189656
0.0032199105
0.0032220824
0.0032143459
0.0060918951
0.0054593166
0.0049422432
0.0045353877
0.0042285819
0.0040069212
0.0038509626
0.0037408157
0.003660458
0.0035985001
0.003547859
0.0035051628
0.003468477
0.0034367045
0.0034091403
0.0033846449
0.0033635659
0.0033459407
0.003331321
0.0033192414
0.0033094993
0.0033020414
0.003296623
0.003292938
0.0032907612
0.0032899475
0.0032903894
0.003291985
0.0032946274
0.0032981616
0.0033024063
0.0033070885
0.0033120373
0.0033168153
0.0033214996
0.0033250242
0.0033292582
0.0033242514
0.0060613203
0.0053322889
0.004771293
0.004370638
0.0041051653
0.0039370293
0.003828584
0.0037514469
0.0036899931
0.0036373786
0.0035910835
0.0035503219
0.0035137047
0.0034820033
0.0034552711
0.0034328145
0.0034142597
0.0033994645
0.0033880248
0.0033793977
0.0033731956
0.0033692157
0.0033673058
0.0033672579
0.0033688158
0.0033717318
0.0033757967
0.0033808287
0.0033866806
0.0033932054
0.0034002548
0.0034075655
0.0034149847
0.0034220203
0.0034287653
0.003434193
0.0034394631
0.0034377146
0.0060024556
0.0051753591
0.0046042775
0.0042599783
0.0040716409
0.0039636409
0.0038867701
0.0038195699
0.0037569418
0.0036983159
0.003645469
0.003599908
0.0035612078
0.0035290035
0.0035029594
0.0034821219
0.0034657426
0.0034534041
0.003444774
0.0034394183
0.0034368358
0.0034365788
0.0034383384
0.0034418636
0.0034468927
0.0034531512
0.0034603819
0.0034683487
0.0034768474
0.0034856802
0.0034947005
0.0035036608
0.0035124824
0.0035206472
0.0035283558
0.0035346443
0.0035396875
0.0035417422
0.005915336
0.0050119381
0.0045000937
0.0042662848
0.0041568658
0.0040759899
0.0039927544
0.0039056349
0.0038231192
0.0037501868
0.0036883493
0.0036377092
0.0035967195
0.0035639871
0.0035385697
0.0035195275
0.0035058438
0.0034966239
0.0034912259
0.0034891369
0.0034898426
0.0034928329
0.0034976548
0.0035039462
0.0035114168
0.0035198088
0.0035288814
0.0035384108
0.0035481953
0.0035580234
0.0035677555
0.0035771291
0.0035861603
0.0035942525
0.0036018757
0.0036079467
0.0036117523
0.0036183233
0.0058024641
0.0049000069
0.0045401946
0.004423716
0.0043366716
0.0042197533
0.0040884741
0.003963599
0.0038561107
0.0037682248
0.003698087
0.0036432616
0.0036011792
0.0035693718
0.0035458702
0.0035292637
0.0035183392
0.0035120029
0.0035093415
0.0035096518
0.0035123858
0.0035170752
0.0035232873
0.0035306429
0.0035388332
0.0035476084
0.0035567625
0.0035661173
0.0035755238
0.0035848019
0.0035938595
0.0036024133
0.0036106171
0.0036176948
0.0036246096
0.0036297329
0.0036320522
0.003644227
0.005690462
0.0049384419
0.0047791342
0.0046938007
0.0045269014
0.0043172559
0.0041176471
0.003951288
0.0038210564
0.0037218803
0.00364701
0.0035907149
0.0035488505
0.0035182152
0.0034962921
0.0034811826
0.0034714841
0.0034660936
0.0034640835
0.0034646933
0.003467339
0.003471576
0.0034770328
0.0034833869
0.0034903645
0.0034977453
0.0035053689
0.0035131041
0.0035208637
0.0035285078
0.0035360223
0.0035431036
0.0035501132
0.0035559798
0.0035624681
0.0035667309
0.0035687062
0.0035882104
0.0056363689
0.0052162324
0.0051702458
0.0049580492
0.0046187775
0.0042845197
0.0040161981
0.0038176634
0.0036735577
0.0035684618
0.0034911094
0.0034337741
0.0033912195
0.0033598632
0.0033371001
0.0033209302
0.0033098545
0.0033027641
0.0032987905
0.0032972276
0.0032975232
0.0032992629
0.0033021139
0.0033058089
0.0033101253
0.0033148906
0.0033200051
0.0033253807
0.0033309768
0.0033366794
0.0033425664
0.0033483174
0.0033545801
0.0033599023
0.0033672079
0.0033716236
0.0033760184
0.0034047358
0.0057082555
0.0056995189
0.005564058
0.0050478161
0.0044743956
0.0040239798
0.0037098385
0.0034948585
0.0033445972
0.0032366277
0.0031574369
0.003098601
0.003054499
0.0030213109
0.0029963751
0.0029777241
0.0029638907
0.0029538063
0.002946666
0.0029418424
0.0029388556
0.0029373384
0.0029369826
0.0029375565
0.0029388703
0.0029408199
0.0029433664
0.0029464529
0.0029500714
0.0029541283
0.002958801
0.0029637669
0.0029700014
0.0029756588
0.0029850619
0.0029906245
0.0030007031
0.0030377901
0.0059092582
0.0062079334
0.0056721194
0.0047147613
0.0039317196
0.0034186085
0.003093293
0.0028781586
0.0027284494
0.0026203234
0.002540307
0.0024801326
0.0024343273
0.0023991682
0.0023720692
0.0023511447
0.0023350035
0.0023226227
0.0023132198
0.0023061953
0.0023011027
0.0022975947
0.0022953678
0.0022942028
0.0022939098
0.0022944822
0.0022959132
0.0022981605
0.0023012377
0.0023050808
0.0023099667
0.0023156097
0.002323269
0.00233085
0.0023438744
0.002352267
0.0023706982
0.0024142907
0.005854712
0.0062477151
0.0051268579
0.0038221741
0.002966328
0.0024745475
0.0021807591
0.0019904325
0.0018593452
0.0017654649
0.0016964302
0.0016446902
0.0016053431
0.0015750993
0.0015516831
0.0015334716
0.0015192938
0.0015082837
0.0014997831
0.0014932962
0.0014884527
0.0014849603
0.0014825756
0.0014811268
0.001480439
0.001480669
0.0014818273
0.0014838234
0.0014866723
0.0014903525
0.0014951695