/*--------------------------------*- C++ -*----------------------------------*\
  =========                 |
  \\      /  F ield         | OpenFOAM: The Open Source CFD Toolbox
   \\    /   O peration     | Website:  https://openfoam.org
    \\  /    A nd           | Version:  7
     \\/     M anipulation  |
\*---------------------------------------------------------------------------*/
FoamFile
{
    version     2.0;
    format      ascii;
    class       surfaceScalarField;
    location    "2000";
    object      phi;
}
// * * * * * * * * * * * * * * * * * * * * * * * * * * * * * * * * * * * * * //

dimensions      [0 3 -1 0 0 0 0];

internalField   nonuniform List<scalar> 
30289
(
2.0793501e-07
2.790848e-09
2.0533288e-07
2.6021285e-09
2.0276912e-07
2.5637676e-09
2.0023782e-07
2.5312991e-09
1.9773646e-07
2.5013525e-09
1.9525672e-07
2.4797398e-09
1.9279329e-07
2.46343e-09
1.9034361e-07
2.4496811e-09
1.8790607e-07
2.4375472e-09
1.8547974e-07
2.4263266e-09
1.8306436e-07
2.4153829e-09
1.8066003e-07
2.4043255e-09
1.7826706e-07
2.3929698e-09
1.7588581e-07
2.3812503e-09
1.7351663e-07
2.3691791e-09
1.711598e-07
2.3568296e-09
1.6881548e-07
2.3443237e-09
1.6648365e-07
2.3318271e-09
1.641641e-07
2.3195554e-09
1.6185631e-07
2.3077907e-09
1.595594e-07
2.2969083e-09
1.5727198e-07
2.2874179e-09
1.5499195e-07
2.2800271e-09
1.5271622e-07
2.2757328e-09
1.5044025e-07
2.2759706e-09
1.4815743e-07
2.2828199e-09
1.4585803e-07
2.2994021e-09
1.4352769e-07
2.3303401e-09
1.4114463e-07
2.3830595e-09
1.3867599e-07
2.4686399e-09
1.3606842e-07
2.6075713e-09
1.3323939e-07
2.8290288e-09
1.3003155e-07
3.2078341e-09
1.2618908e-07
3.8424722e-09
1.2102389e-07
5.165191e-09
1.1316046e-07
7.8634254e-09
9.8058908e-08
1.5101557e-08
1.3836797e-08
8.422211e-08
6.2380168e-07
1.112026e-08
6.1599607e-07
1.0407731e-08
6.0830499e-07
1.025485e-08
6.0071119e-07
1.0125102e-08
5.9320713e-07
1.0005415e-08
5.857679e-07
9.9189649e-09
5.7837763e-07
9.8537034e-09
5.7102861e-07
9.7986929e-09
5.6371602e-07
9.7501408e-09
5.5643711e-07
9.7052418e-09
5.4919103e-07
9.6614547e-09
5.4197814e-07
9.6172161e-09
5.3479933e-07
9.5717872e-09
5.2765567e-07
9.5249043e-09
5.2054824e-07
9.4766148e-09
5.1347786e-07
9.4272104e-09
5.06445e-07
9.377177e-09
4.9944965e-07
9.3271748e-09
4.9249115e-07
9.2780633e-09
4.8556797e-07
9.2309661e-09
4.786775e-07
9.1873779e-09
4.7181559e-07
9.1493278e-09
4.6497599e-07
9.1196316e-09
4.5814947e-07
9.1022543e-09
4.5132253e-07
9.1029027e-09
4.4447552e-07
9.1298381e-09
4.3757946e-07
9.195455e-09
4.3059172e-07
9.3180867e-09
4.234476e-07
9.5271757e-09
4.160497e-07
9.8665357e-09
4.0823997e-07
1.0417302e-08
3.9977491e-07
1.1294094e-08
3.901896e-07
1.2793143e-08
3.7873613e-07
1.5295937e-08
3.6340027e-07
2.0501052e-08
3.40241e-07
3.1022704e-08
2.9536038e-07
5.9982167e-08
1.5312608e-09
3.0766592e-07
1.0396548e-06
2.4934388e-08
1.0266509e-06
2.3411594e-08
1.0138333e-06
2.3072422e-08
1.0011774e-06
2.2781008e-08
9.8867093e-07
2.2511922e-08
9.7627244e-07
2.2317456e-08
9.6395552e-07
2.2170618e-08
9.5170738e-07
2.2046837e-08
9.3951995e-07
2.1937575e-08
9.2738866e-07
2.1836531e-08
9.1531212e-07
2.1737994e-08
9.0329089e-07
2.1638446e-08
8.9132645e-07
2.1536225e-08
8.7942062e-07
2.1430734e-08
8.6757516e-07
2.1322077e-08
8.5579146e-07
2.1210907e-08
8.4407032e-07
2.1098315e-08
8.3241172e-07
2.0985779e-08
8.2081455e-07
2.0875228e-08
8.0927634e-07
2.076918e-08
7.9779273e-07
2.0670984e-08
7.8635688e-07
2.0585186e-08
7.7495842e-07
2.051809e-08
7.635821e-07
2.0478572e-08
7.522056e-07
2.0479403e-08
7.4079638e-07
2.053906e-08
7.2930657e-07
2.068526e-08
7.1766569e-07
2.0958967e-08
7.0576689e-07
2.1425979e-08
6.934494e-07
2.2184021e-08
6.8045233e-07
2.3414378e-08
6.6637487e-07
2.5371548e-08
6.5045126e-07
2.871675e-08
6.3146361e-07
3.4283588e-08
6.0611453e-07
4.5850134e-08
5.6808206e-07
6.9055175e-08
4.9385823e-07
1.34206e-07
-5.0017157e-09
5.003912e-07
1.4554855e-06
4.4188559e-08
1.4372915e-06
4.160555e-08
1.4193492e-06
4.101476e-08
1.401632e-06
4.0498215e-08
1.3841236e-06
4.0020297e-08
1.3667663e-06
3.9674739e-08
1.3495231e-06
3.9413764e-08
1.3323762e-06
3.9193737e-08
1.3153143e-06
3.8999488e-08
1.298331e-06
3.8819836e-08
1.2814244e-06
3.8644647e-08
1.2645952e-06
3.8467669e-08
1.2478454e-06
3.8285941e-08
1.2311778e-06
3.8098402e-08
1.2145946e-06
3.7905232e-08
1.1980979e-06
3.7707587e-08
1.1816889e-06
3.7507397e-08
1.1653673e-06
3.7307285e-08
1.1491319e-06
3.7110665e-08
1.1329791e-06
3.6921998e-08
1.1169029e-06
3.6747213e-08
1.1008937e-06
3.6594356e-08
1.0849372e-06
3.6474583e-08
1.0690122e-06
3.640359e-08
1.0530876e-06
3.6403958e-08
1.0371183e-06
3.6508345e-08
1.0210379e-06
3.6765726e-08
1.0047484e-06
3.7248422e-08
9.8810178e-07
3.8072622e-08
9.7087527e-07
3.9410523e-08
9.5270754e-07
4.1582115e-08
9.3304559e-07
4.5033492e-08
9.1083067e-07
5.093167e-08
8.8439808e-07
6.0716183e-08
8.4921198e-07
8.1036233e-08
7.9677874e-07
1.2148842e-07
6.9397855e-07
2.3700619e-07
5.5038006e-09
6.8347303e-07
1.8712867e-06
6.8843559e-08
1.8479117e-06
6.4980565e-08
1.8248474e-06
6.4079052e-08
1.8020702e-06
6.3275418e-08
1.7795608e-06
6.2529653e-08
1.7572455e-06
6.1990102e-08
1.7350767e-06
6.1582525e-08
1.7130316e-06
6.123884e-08
1.6910957e-06
6.0935359e-08
1.6692609e-06
6.0654661e-08
1.6475246e-06
6.0380935e-08
1.6258879e-06
6.0104419e-08
1.6043533e-06
5.9820484e-08
1.5829243e-06
5.9527469e-08
1.5616039e-06
5.9225649e-08
1.5403946e-06
5.8916823e-08
1.519298e-06
5.8603995e-08
1.4983141e-06
5.8291251e-08
1.4774408e-06
5.7983907e-08
1.4566739e-06
5.7688907e-08
1.4360056e-06
5.7415478e-08
1.4154239e-06
5.7176135e-08
1.3949102e-06
5.6988225e-08
1.3744377e-06
5.6876151e-08
1.3539666e-06
5.6875005e-08
1.3334394e-06
5.7035514e-08
1.3127714e-06
5.7433742e-08
1.2918379e-06
5.8181912e-08
1.2704502e-06
5.946036e-08
1.2483249e-06
6.1535777e-08
1.2250024e-06
6.4904632e-08
1.1997816e-06
7.02543e-08
1.171318e-06
7.939532e-08
1.1375231e-06
9.4511005e-08
1.0926671e-06
1.2589226e-07
1.0263124e-06
1.8784312e-07
8.9549604e-07
3.6782257e-07
3.3378289e-08
8.6762155e-07
3.6934822e-06
1.1725217e-07
3.6473823e-06
1.1108053e-07
3.6018728e-06
1.0958848e-07
3.5569218e-06
1.0822644e-07
3.5124965e-06
1.0695495e-07
3.4684532e-06
1.0603346e-07
3.4246988e-06
1.0533693e-07
3.3811881e-06
1.0474949e-07
3.3378929e-06
1.042306e-07
3.294797e-06
1.0375056e-07
3.2518955e-06
1.0328242e-07
3.2091904e-06
1.028095e-07
3.166687e-06
1.023239e-07
3.1243917e-06
1.0182275e-07
3.0823109e-06
1.0130652e-07
3.0404494e-06
1.0077825e-07
2.9988103e-06
1.0024308e-07
2.9573936e-06
9.9707947e-08
2.9161957e-06
9.91819e-08
2.8752078e-06
9.8676748e-08
2.8344151e-06
9.8208178e-08
2.7937938e-06
9.779745e-08
2.753308e-06
9.747402e-08
2.7129048e-06
9.7279304e-08
2.672507e-06
9.727283e-08
2.6320019e-06
9.7540592e-08
2.5912242e-06
9.8211486e-08
2.5499306e-06
9.9475462e-08
2.5077532e-06
1.0163779e-07
2.4641404e-06
1.0514859e-07
2.4181975e-06
1.1084754e-07
2.3685658e-06
1.19886e-07
2.3126387e-06
1.3532246e-07
2.2464295e-06
1.6072012e-07
2.1589303e-06
2.1339152e-07
2.0309252e-06
3.1584823e-07
1.7768473e-06
6.2190041e-07
1.3207592e-07
1.6781497e-06
5.3583581e-06
1.871148e-07
5.2915679e-06
1.7787071e-07
5.2255785e-06
1.7557791e-07
5.1603795e-06
1.7342549e-07
5.0959368e-06
1.7139764e-07
5.0320458e-06
1.6992447e-07
4.9685726e-06
1.6881006e-07
4.9054522e-06
1.6786988e-07
4.8426438e-06
1.6703902e-07
4.7801243e-06
1.6627012e-07
4.7178865e-06
1.655202e-07
4.6559334e-06
1.6476258e-07
4.5942727e-06
1.6398459e-07
4.5329138e-06
1.6318165e-07
4.4718658e-06
1.6235448e-07
4.4111361e-06
1.6150794e-07
4.350729e-06
1.6065019e-07
4.2906447e-06
1.5979231e-07
4.2308778e-06
1.5894872e-07
4.1714164e-06
1.5813821e-07
4.1122388e-06
1.5738576e-07
4.0533111e-06
1.5672517e-07
3.9945818e-06
1.5620326e-07
3.9359753e-06
1.5588583e-07
3.8773808e-06
1.5586737e-07
3.818637e-06
1.5628433e-07
3.7595074e-06
1.5734109e-07
3.6996444e-06
1.5933849e-07
3.6385221e-06
1.6276005e-07
3.5753544e-06
1.6831631e-07
3.5088659e-06
1.7733603e-07
3.4371308e-06
1.9162107e-07
3.3564457e-06
2.1600762e-07
3.261266e-06
2.5589984e-07
3.1360698e-06
3.3858769e-07
2.9553744e-06
4.9654357e-07
2.594554e-06
9.8272086e-07
3.1565278e-07
2.4109771e-06
7.5668155e-06
2.8528349e-07
7.4726501e-06
2.7203603e-07
7.3795303e-06
2.6869777e-07
7.2874891e-06
2.654667e-07
7.1965031e-06
2.6238363e-07
7.106291e-06
2.6013654e-07
7.0166662e-06
2.5843488e-07
6.9275375e-06
2.5699853e-07
6.8388482e-06
2.5572837e-07
6.7505659e-06
2.545524e-07
6.6626809e-06
2.534052e-07
6.5751974e-06
2.5224607e-07
6.4881264e-06
2.5105563e-07
6.4014812e-06
2.4982689e-07
6.3152747e-06
2.4856091e-07
6.2295176e-06
2.4726511e-07
6.1442158e-06
2.459519e-07
6.05937e-06
2.4463814e-07
5.974973e-06
2.4334577e-07
5.8910078e-06
2.4210337e-07
5.8074447e-06
2.4094885e-07
5.7242364e-06
2.3993354e-07
5.6413112e-06
2.3912846e-07
5.5585636e-06
2.3863333e-07
5.4758397e-06
2.3859133e-07
5.392915e-06
2.3920897e-07
5.3094607e-06
2.4079549e-07
5.2249938e-06
2.4380535e-07
5.1387847e-06
2.4896914e-07
5.0497447e-06
2.5735635e-07
4.9561079e-06
2.7097276e-07
4.8552253e-06
2.9250375e-07
4.7419847e-06
3.2924817e-07
4.6089255e-06
3.8895906e-07
4.4347533e-06
5.1275986e-07
4.1871979e-06
7.4409901e-07
3.6902655e-06
1.4796533e-06
6.191541e-07
3.3867641e-06
1.0479743e-05
4.2055653e-07
1.0349561e-05
4.0221805e-07
1.0220716e-05
3.9754245e-07
1.0093302e-05
3.9288125e-07
9.9673238e-06
3.8836152e-07
9.8424076e-06
3.8505272e-07
9.718299e-06
3.8254346e-07
9.5948737e-06
3.8042383e-07
9.4720543e-06
3.7854781e-07
9.3497968e-06
3.7680984e-07
9.2280883e-06
3.7511379e-07
9.1069346e-06
3.733997e-07
8.9863513e-06
3.7163897e-07
8.8663569e-06
3.6982128e-07
8.7469696e-06
3.6794821e-07
8.628204e-06
3.6603065e-07
8.5100691e-06
3.6408687e-07
8.3925655e-06
3.6214169e-07
8.2756839e-06
3.6022735e-07
8.1594015e-06
3.5838582e-07
8.0436776e-06
3.5667275e-07
7.9284477e-06
3.5516338e-07
7.8136144e-06
3.5396177e-07
7.6990339e-06
3.532139e-07
7.5844959e-06
3.5312924e-07
7.4696953e-06
3.5400962e-07
7.354184e-06
3.5630682e-07
7.2373057e-06
3.6068359e-07
7.1180692e-06
3.6820568e-07
6.9949992e-06
3.8042637e-07
6.8657034e-06
4.0026853e-07
6.7266182e-06
4.3158892e-07
6.5708394e-06
4.8502701e-07
6.3885899e-06
5.7120849e-07
6.1512376e-06
7.5011215e-07
5.8196447e-06
1.075692e-06
5.151668e-06
2.1476299e-06
1.091661e-06
4.6791612e-06
1.4310531e-05
5.976363e-07
1.4139851e-05
5.7289793e-07
1.3970799e-05
5.6659481e-07
1.3803518e-05
5.6016185e-07
1.3638075e-05
5.5380492e-07
1.3473982e-05
5.4914571e-07
1.33109e-05
5.4562532e-07
1.3148662e-05
5.4266146e-07
1.2987165e-05
5.4004525e-07
1.2826348e-05
5.3762623e-07
1.2666195e-05
5.3526693e-07
1.2506714e-05
5.3288126e-07
1.2347925e-05
5.3042807e-07
1.2189853e-05
5.2789251e-07
1.2032525e-05
5.2527682e-07
1.1875959e-05
5.2259662e-07
1.1720168e-05
5.1987816e-07
1.1565152e-05
5.1715711e-07
1.14109e-05
5.1447975e-07
1.1257379e-05
5.1190637e-07
1.1104535e-05
5.0951683e-07
1.0952279e-05
5.0741907e-07
1.0800479e-05
5.0576229e-07
1.0648937e-05
5.0475569e-07
1.0497367e-05
5.0469932e-07
1.0345352e-05
5.0602512e-07
1.0192279e-05
5.0937942e-07
1.0037254e-05
5.1570874e-07
9.8789239e-06
5.2653564e-07
9.7152813e-06
5.4406893e-07
9.5430698e-06
5.7248005e-07
9.3574724e-06
6.1718629e-07
9.1491164e-06
6.9338301e-07
8.9051811e-06
8.1514378e-07
8.5868939e-06
1.0683994e-06
8.147731e-06
1.5148549e-06
7.2553069e-06
3.0400539e-06
1.8111911e-06
6.5357768e-06
1.9317642e-05
8.3128509e-07
1.9092178e-05
7.9836243e-07
1.8868774e-05
7.8999826e-07
1.8647571e-05
7.8136538e-07
1.8428724e-05
7.7265207e-07
1.8211615e-05
7.6625444e-07
1.79958e-05
7.6144014e-07
1.7781059e-05
7.5740219e-07
1.7567256e-05
7.5384875e-07
1.7354312e-05
7.5057033e-07
1.7142204e-05
7.4737472e-07
1.6930944e-05
7.4414093e-07
1.6720561e-05
7.4081106e-07
1.651109e-05
7.3736421e-07
1.6302563e-05
7.3380356e-07
1.6095008e-05
7.3015107e-07
1.5888443e-05
7.264437e-07
1.5682868e-05
7.2273166e-07
1.5478268e-05
7.190801e-07
1.52746e-05
7.1557382e-07
1.5071792e-05
7.1232509e-07
1.4869726e-05
7.0948558e-07
1.4668223e-05
7.0726481e-07
1.4467022e-05
7.0595637e-07
1.4265741e-05
7.0598109e-07
1.4063822e-05
7.0794427e-07
1.386045e-05
7.127512e-07
1.3654433e-05
7.217251e-07
1.3443974e-05
7.369953e-07
1.3226408e-05
7.616349e-07
1.2997417e-05
8.0147092e-07
1.2750667e-05
8.6393627e-07
1.2473766e-05
9.7028395e-07
1.2150473e-05
1.1384371e-06
1.1729508e-05
1.4893644e-06
1.1158909e-05
2.085454e-06
9.9979378e-06
4.2010247e-06
2.8482304e-06
8.9608985e-06
2.5840366e-05
1.1406588e-06
2.5541168e-05
1.0975601e-06
2.5244684e-05
1.0864821e-06
2.4950954e-05
1.0750954e-06
2.466025e-05
1.063356e-06
2.43718e-05
1.0547047e-06
2.4085029e-05
1.0482107e-06
2.3799654e-05
1.0427779e-06
2.3515496e-05
1.0380064e-06
2.3232456e-05
1.0336103e-06
2.2950505e-05
1.0293257e-06
2.266966e-05
1.0249858e-06
2.2389961e-05
1.0205106e-06
2.2111454e-05
1.0158713e-06
2.1834185e-05
1.0110723e-06
2.1558192e-05
1.0061443e-06
2.1283497e-05
1.0011383e-06
2.1010105e-05
9.9612384e-07
2.0737994e-05
9.9119099e-07
2.0467111e-05
9.8645693e-07
2.0197359e-05
9.8207661e-07
1.9928586e-05
9.7825923e-07
1.9660557e-05
9.7529352e-07
1.939293e-05
9.7358372e-07
1.9125202e-05
9.7370891e-07
1.8856645e-05
9.7650096e-07
1.8586193e-05
9.832034e-07
1.8312288e-05
9.9562979e-07
1.8032584e-05
1.0166996e-06
1.7743617e-05
1.0506018e-06
1.7439773e-05
1.1053149e-06
1.7112897e-05
1.1908121e-06
1.6746937e-05
1.3362439e-06
1.63219e-05
1.5634744e-06
1.5771113e-05
2.0401513e-06
1.5040156e-05
2.8164109e-06
1.356219e-05
5.6789904e-06
4.2854372e-06
1.2124983e-05
3.4316419e-05
1.5480806e-06
3.3921653e-05
1.4923257e-06
3.3530593e-05
1.4775427e-06
3.3142985e-05
1.4627027e-06
3.2759232e-05
1.4471097e-06
3.2378375e-05
1.4355619e-06
3.1999679e-05
1.426906e-06
3.1622781e-05
1.4196764e-06
3.1247454e-05
1.4133335e-06
3.0873571e-05
1.4074934e-06
3.0501097e-05
1.4017996e-06
3.0130057e-05
1.3960254e-06
2.9760506e-05
1.3900621e-06
2.9392506e-05
1.3838708e-06
2.9026121e-05
1.3774579e-06
2.86614e-05
1.3708651e-06
2.8298376e-05
1.3641623e-06
2.7937055e-05
1.3574443e-06
2.7577412e-05
1.350834e-06
2.7219378e-05
1.3444909e-06
2.6862829e-05
1.3386255e-06
2.6507567e-05
1.3335221e-06
2.6153288e-05
1.3295722e-06
2.5799548e-05
1.3273239e-06
2.5445696e-05
1.327561e-06
2.5090788e-05
1.3314085e-06
2.4733445e-05
1.3405468e-06
2.4371654e-05
1.3574205e-06
2.4002388e-05
1.385966e-06
2.3621194e-05
1.431795e-06
2.322086e-05
1.5056489e-06
2.2791019e-05
1.6206535e-06
2.2311146e-05
1.8161168e-06
2.1757101e-05
2.1175195e-06
2.1043036e-05
2.7542162e-06
2.0115638e-05
3.7438088e-06
1.8263653e-05
7.5309754e-06
6.2254971e-06
1.6323593e-05
4.5322774e-05
2.0630567e-06
4.4823594e-05
1.9915062e-06
4.4329435e-05
1.9717013e-06
4.3839426e-05
1.9527122e-06
4.3354084e-05
1.9324516e-06
4.2872229e-05
1.9174167e-06
4.2392921e-05
1.9062141e-06
4.191569e-05
1.8969068e-06
4.1440251e-05
1.8887729e-06
4.0966441e-05
1.8813036e-06
4.0494217e-05
1.8740236e-06
4.0023614e-05
1.8666283e-06
3.9554704e-05
1.8589714e-06
3.9087574e-05
1.8510011e-06
3.8622306e-05
1.8427263e-06
3.8158967e-05
1.8342035e-06
3.7697602e-05
1.8255273e-06
3.7238221e-05
1.8168258e-06
3.678079e-05
1.8082647e-06
3.6325222e-05
1.8000591e-06
3.5871355e-05
1.7924925e-06
3.541893e-05
1.7859472e-06
3.4967553e-05
1.7809496e-06
3.4516641e-05
1.7782351e-06
3.4065347e-05
1.7788554e-06
3.3612438e-05
1.7843175e-06
3.3156114e-05
1.7968704e-06
3.2693757e-05
1.8197779e-06
3.2221426e-05
1.8582969e-06
3.1733352e-05
1.9198689e-06
3.1220189e-05
2.0188124e-06
3.0668645e-05
2.1721977e-06
3.005233e-05
2.432431e-06
2.9341906e-05
2.8279439e-06
2.8425969e-05
3.6701531e-06
2.7255137e-05
4.9146413e-06
2.4944343e-05
9.8417692e-06
8.8292745e-06
2.2340565e-05
5.9553605e-05
2.7195185e-06
5.8914914e-05
2.6301976e-06
5.828333e-05
2.6032849e-06
5.7656956e-05
2.5790863e-06
5.7036319e-05
2.5530891e-06
5.6419977e-05
2.5337587e-06
5.5806725e-05
2.5194658e-06
5.5195956e-05
2.5076757e-06
5.4587306e-05
2.4974225e-06
5.3980573e-05
2.4880372e-06
5.3375704e-05
2.4788925e-06
5.2772749e-05
2.4695833e-06
5.2171805e-05
2.459915e-06
5.1572988e-05
2.4498188e-06
5.0976407e-05
2.439307e-06
5.0382155e-05
2.4284557e-06
4.9790291e-05
2.4173915e-06
4.9200831e-05
2.4062858e-06
4.8613735e-05
2.3953601e-06
4.8028893e-05
2.3849011e-06
4.7446099e-05
2.375287e-06
4.686502e-05
2.3670263e-06
4.628515e-05
2.3608189e-06
4.5705744e-05
2.3576417e-06
4.5125709e-05
2.3588897e-06
4.4543468e-05
2.366559e-06
4.3956712e-05
2.383626e-06
4.3362092e-05
2.4143981e-06
4.2754577e-05
2.4658123e-06
4.2126825e-05
2.5476207e-06
4.1466969e-05
2.6786685e-06
4.0758295e-05
2.880872e-06
3.99677e-05
3.2230254e-06
3.9060248e-05
3.7353957e-06
3.7895366e-05
4.8350359e-06
3.6430282e-05
6.3797253e-06
3.3612643e-05
1.2659408e-05
1.2235613e-05
3.0206305e-05
0.00010677978
3.8543058e-06
0.00010566462
3.7453583e-06
0.0001045649
3.7029984e-06
0.00010347466
3.6693245e-06
0.00010239381
3.6339412e-06
0.00010132015
3.6074153e-06
0.00010025162
3.5879998e-06
9.9187091e-05
3.5722058e-06
9.8125926e-05
3.5585872e-06
9.7067783e-05
3.5461803e-06
9.6012578e-05
3.5340968e-06
9.4960406e-05
3.5217556e-06
9.3911446e-05
3.5088754e-06
9.2865907e-05
3.4953574e-06
9.1823994e-05
3.4812203e-06
9.0785875e-05
3.4665745e-06
8.9751663e-05
3.4516034e-06
8.8721394e-05
3.4365547e-06
8.7695006e-05
3.4217476e-06
8.6672312e-05
3.4075951e-06
8.5652959e-05
3.3946401e-06
8.4636374e-05
3.3836118e-06
8.3621681e-05
3.3755116e-06
8.2607588e-05
3.3717351e-06
8.1592206e-05
3.3742715e-06
8.0572803e-05
3.3859619e-06
7.9545397e-05
3.4110315e-06
7.8504213e-05
3.4555823e-06
7.7440621e-05
3.5294049e-06
7.6342036e-05
3.6462049e-06
7.5188328e-05
3.8323769e-06
7.3951095e-05
4.1181055e-06
7.2575706e-05
4.5984141e-06
7.1005649e-05
5.3054523e-06
6.9012317e-05
6.8283677e-06
6.6529303e-05
8.8627393e-06
6.2030852e-05
1.7157859e-05
1.8459427e-05
5.5807038e-05
0.00013675957
5.227098e-06
0.0001354088
5.0961252e-06
0.00013407809
5.0337082e-06
0.00013275929
4.9881299e-06
0.00013145149
4.9417399e-06
0.00013015205
4.906859e-06
0.0001288583
4.8817458e-06
0.00012756878
4.8617245e-06
0.00012628267
4.844696e-06
0.00012499954
4.8293153e-06
0.00012371927
4.8143645e-06
0.00012244199
4.7990366e-06
0.00012116793
4.7829386e-06
0.00011989735
4.7659321e-06
0.00011863053
4.7480429e-06
0.00011736768
4.7294238e-06
0.00011610895
4.7103294e-06
0.00011485441
4.6911026e-06
0.00011360397
4.6721856e-06
0.00011235741
4.6541487e-06
0.00011111431
4.6377409e-06
0.00010987396
4.6239661e-06
0.00010863527
4.6142004e-06
0.00010739665
4.6103584e-06
0.00010615575
4.6151636e-06
0.00010490922
4.6324992e-06
0.00010365212
4.6681252e-06
0.00010237737
4.7303382e-06
0.00010107436
4.8324087e-06
9.9727756e-05
4.9928122e-06
9.831307e-05
5.2470632e-06
9.6796156e-05
5.6350197e-06
9.511154e-05
6.2830302e-06
9.3194665e-05
7.2223272e-06
9.0778168e-05
9.244865e-06
8.7803342e-05
1.1837565e-05
8.2684995e-05
2.2276205e-05
2.5795825e-05
7.5348597e-05
0.00017210932
6.8568958e-06
0.00017050519
6.700247e-06
0.00016892583
6.6130669e-06
0.0001673612
6.5527604e-06
0.00016580942
6.4935247e-06
0.00016426725
6.4490239e-06
0.00016273134
6.4176563e-06
0.00016119977
6.3932941e-06
0.0001596715
6.3729718e-06
0.00015814596
6.3548566e-06
0.00015662301
6.3373164e-06
0.00015510279
6.3192571e-06
0.00015358558
6.3001412e-06
0.00015207174
6.2797785e-06
0.00015056158
6.2582008e-06
0.00014905539
6.235612e-06
0.00014755337
6.2123528e-06
0.00014605559
6.1888833e-06
0.00014456198
6.1657957e-06
0.00014307227
6.1438531e-06
0.00014158596
6.1240559e-06
0.00014010218
6.1077428e-06
0.00013861963
6.0967455e-06
0.00013713639
6.0936078e-06
0.00013564961
6.1019416e-06
0.00013415522
6.1268857e-06
0.0001326473
6.1760449e-06
0.0001311173
6.2603383e-06
0.00012955252
6.3971871e-06
0.00012793466
6.6106742e-06
0.00012623461
6.9471145e-06
0.00012441231
7.4573143e-06
0.0001223907
8.3046457e-06
0.00012009672
9.5163035e-06
0.00011722961
1.2111982e-05
0.00011373498
1.5332189e-05
0.00010803685
2.7974337e-05
3.4144368e-05
9.9688307e-05
0.00021364918
8.7679533e-06
0.00021176713
8.5822965e-06
0.00020991482
8.4653693e-06
0.00020808054
8.3870481e-06
0.00020626111
8.3129548e-06
0.00020445268
8.2574555e-06
0.00020265108
8.2192509e-06
0.00020085387
8.1905032e-06
0.00019905972
8.1671216e-06
0.00019726792
8.1466562e-06
0.00019547827
8.126964e-06
0.00019369094
8.1065906e-06
0.00019190627
8.0848147e-06
0.00019012467
8.0613781e-06
0.00018834655
8.0363168e-06
0.00018657227
8.0098942e-06
0.00018480207
7.9825538e-06
0.00018303606
7.954896e-06
0.00018127416
7.9276934e-06
0.00017951607
7.9019402e-06
0.00017776119
7.8789383e-06
0.00017600851
7.8604262e-06
0.00017425647
7.8487791e-06
0.00017250279
7.8472891e-06
0.00017074411
7.8606213e-06
0.0001689756
7.8953982e-06
0.00016719025
7.9613974e-06
0.00016537798
8.0726067e-06
0.00016352387
8.2512975e-06
0.00016160654
8.5279979e-06
0.00015959211
8.9615475e-06
0.00015743462
9.6148062e-06
0.00015504507
1.0694192e-05
0.00015234056
1.2220817e-05
0.00014899806
1.5454477e-05
0.00014495573
1.9374519e-05
0.00013873092
3.4199145e-05
4.3405653e-05
0.00012946964
0.00026235115
1.0953621e-05
0.00026019843
1.0735019e-05
0.00025808077
1.0583033e-05
0.00025598465
1.0483163e-05
0.00025390523
1.0392375e-05
0.00025183791
1.0324777e-05
0.00024977766
1.0279502e-05
0.0002477214
1.0246761e-05
0.00024566749
1.0221032e-05
0.00024361505
1.01991e-05
0.00024156381
1.0178202e-05
0.00023951396
1.0156441e-05
0.00023746591
1.0132866e-05
0.00023542016
1.0107133e-05
0.0002333772
1.0079279e-05
0.00023133745
1.0049635e-05
0.00022930124
1.0018767e-05
0.0002272687
9.9874408e-06
0.00022523975
9.9566424e-06
0.00022321405
9.9276406e-06
0.00022119089
9.9020934e-06
0.00021916911
9.8822114e-06
0.00021714688
9.8710101e-06
0.0002151215
9.8726611e-06
0.00021308906
9.8930634e-06
0.00021104389
9.9405715e-06
0.00020897779
1.0027491e-05
0.00020687904
1.0171358e-05
0.0002047303
1.0400039e-05
0.00020250692
1.0751376e-05
0.00020016993
1.1298535e-05
0.00019766731
1.2117431e-05
0.00019489784
1.3463662e-05
0.00019176551
1.5353144e-05
0.00018793794
1.9282047e-05
0.00018332851
2.3983948e-05
0.00017662571
4.0901951e-05
5.3491871e-05
0.00016653949
0.00031930745
1.3378615e-05
0.0003169196
1.3122876e-05
0.00031457216
1.2930466e-05
0.00031224989
1.2805437e-05
0.00030994576
1.26965e-05
0.00030765428
1.2616258e-05
0.00030536948
1.2564308e-05
0.00030308756
1.2528673e-05
0.00030080654
1.2502057e-05
0.00029852534
1.24803e-05
0.00029624363
1.2459905e-05
0.00029396164
1.2438438e-05
0.00029167983
1.2414671e-05
0.00028939881
1.2388152e-05
0.00028711917
1.2358918e-05
0.00028484143
1.2327377e-05
0.00028256596
1.2294238e-05
0.00028029294
1.226046e-05
0.0002780223
1.2227282e-05
0.00027575365
1.2196292e-05
0.00027348617
1.2169568e-05
0.00027121851
1.2149872e-05
0.00026894856
1.2140965e-05
0.00026667318
1.2148043e-05
0.0002643878
1.2178439e-05
0.00026208586
1.2242508e-05
0.00025975789
1.235547e-05
0.00025739032
1.2538923e-05
0.00025496324
1.2827123e-05
0.00025244849
1.3266121e-05
0.00024980172
1.3945307e-05
0.00024696482
1.4954328e-05
0.00024382333
1.6605154e-05
0.00024027291
1.8903569e-05
0.00023597339
2.3581565e-05
0.00023079208
2.9165254e-05
0.00022366855
4.8025478e-05
6.4285126e-05
0.0002128753
0.00038567965
1.6047658e-05
0.00038305257
1.5749952e-05
0.00038047149
1.5511549e-05
0.00037791959
1.5357337e-05
0.00037538734
1.5228748e-05
0.00037286811
1.5135489e-05
0.00037035491
1.5077509e-05
0.00036784316
1.5040423e-05
0.00036533046
1.5014761e-05
0.00036281555
1.4995206e-05
0.00036029806
1.4977394e-05
0.00035777824
1.495826e-05
0.00035525667
1.493624e-05
0.00035273407
1.4910758e-05
0.00035021114
1.4881846e-05
0.00034768851
1.4850006e-05
0.00034516664
1.4816111e-05
0.00034264575
1.4781348e-05
0.00034012578
1.4747247e-05
0.0003376063
1.471577e-05
0.0003350864
1.4689476e-05
0.0003325645
1.4671765e-05
0.00033003821
1.4667259e-05
0.00032750393
1.4682326e-05
0.00032495643
1.4725936e-05
0.00032238821
1.4810726e-05
0.00031978846
1.4955223e-05
0.00031714179
1.5185596e-05
0.00031442563
1.5543274e-05
0.00031160839
1.6083368e-05
0.00030864038
1.6913317e-05
0.00030545794
1.813676e-05
0.00030193477
2.0128327e-05
0.00029796355
2.2874794e-05
0.00029319017
2.8354946e-05
0.00028743606
3.4919357e-05
0.0002799578
5.550374e-05
7.5586131e-05
0.0002686568
0.00046286854
1.8923132e-05
0.00046004136
1.8577134e-05
0.00045726622
1.8286688e-05
0.00045452469
1.8098871e-05
0.00045180424
1.7949193e-05
0.00044909675
1.7842987e-05
0.00044639404
1.7780217e-05
0.00044369063
1.7743831e-05
0.00044098366
1.772173e-05
0.00043827169
1.7707178e-05
0.00043555429
1.7694797e-05
0.00043283177
1.7680775e-05
0.00043010485
1.7663157e-05
0.00042737439
1.764122e-05
0.00042464124
1.7614996e-05
0.00042190615
1.7585097e-05
0.00041916968
1.7552586e-05
0.00041643211
1.7518914e-05
0.00041369341
1.7485948e-05
0.0004109531
1.745608e-05
0.00040821015
1.7432423e-05
0.00040546281
1.7419106e-05
0.00040270834
1.7421728e-05
0.00039994268
1.7447992e-05
0.00039715989
1.7508719e-05
0.0003943515
1.7619116e-05
0.00039150531
1.7801418e-05
0.00038860401
1.8086893e-05
0.00038562236
1.852492e-05
0.00038252523
1.9180498e-05
0.00037925775
2.0180802e-05
0.00037575064
2.1643872e-05
0.00037186767
2.4011296e-05
0.00036749027
2.7252193e-05
0.000362262
3.3583216e-05
0.00035597426
4.1207098e-05
0.0003482133
6.3264695e-05
8.7195294e-05
0.00033660414
0.0005524112
2.1958056e-05
0.00054943508
2.1553247e-05
0.00054651928
2.1202494e-05
0.00054364259
2.0975561e-05
0.00054078865
2.0803131e-05
0.00053794717
2.0684463e-05
0.00053510859
2.0618802e-05
0.00053226637
2.058605e-05
0.00052941713
2.0570966e-05
0.00052655924
2.0565075e-05
0.00052369223
2.0561805e-05
0.00052081653
2.0556476e-05
0.000517933
2.0546681e-05
0.00051504269
2.0531529e-05
0.00051214663
2.0511057e-05
0.00050924572
2.0486006e-05
0.00050634065
2.0457664e-05
0.00050343177
2.0427787e-05
0.00050051909
2.0398628e-05
0.0004976021
2.0373071e-05
0.00049467967
2.0354858e-05
0.00049174983
2.0348943e-05
0.00048880953
2.0362031e-05
0.0004858542
2.0403322e-05
0.0004828772
2.0485714e-05
0.00047986904
2.0627278e-05
0.0004768161
2.0854358e-05
0.00047369915
2.1203844e-05
0.00047049027
2.1733805e-05
0.00046715081
2.2519954e-05
0.00046362114
2.3710476e-05
0.00045982588
2.5439128e-05
0.00045562457
2.8212609e-05
0.0004508757
3.200106e-05
0.00044525191
3.9207004e-05
0.00043850034
4.7958666e-05
0.00043053432
7.1230717e-05
9.8891812e-05
0.00041883781
0.00065605017
2.5039158e-05
0.0006530375
2.4565917e-05
0.00065009239
2.4147606e-05
0.00064719143
2.387652e-05
0.00064431445
2.3680113e-05
0.00064144858
2.3550339e-05
0.00063858262
2.348476e-05
0.00063570893
2.3459735e-05
0.00063282357
2.3456331e-05
0.00062992468
2.3463966e-05
0.00062701183
2.3474655e-05
0.00062408558
2.3482722e-05
0.00062114702
2.3485242e-05
0.00061819741
2.348114e-05
0.000615238
2.347047e-05
0.00061226988
2.3454125e-05
0.00060929388
2.343366e-05
0.00060631049
2.341118e-05
0.00060331973
2.3389383e-05
0.00060032109
2.3371709e-05
0.00059731334
2.3362611e-05
0.00059429431
2.3367972e-05
0.00059126061
2.339573e-05
0.00058820717
2.345676e-05
0.00058512663
2.3566261e-05
0.00058200843
2.3745471e-05
0.00057883755
2.4025245e-05
0.00057559278
2.4448614e-05
0.00057224356
2.508302e-05
0.00056874775
2.6015768e-05
0.00056504156
2.741666e-05
0.00056104272
2.9437974e-05
0.0005566124
3.2642929e-05
0.0005515802
3.7033254e-05
0.00054568824
4.5098968e-05
0.00053856581
5.5081091e-05
0.00053050174
7.9294787e-05
0.00011041485
0.00051897871
0.00077563572
2.8107242e-05
0.00077265321
2.7548423e-05
0.00076974907
2.7051747e-05
0.00076689556
2.6730028e-05
0.00076406768
2.650799e-05
0.00076124908
2.636894e-05
0.00075842658
2.6307258e-05
0.00075559136
2.6294956e-05
0.00075273889
2.6308807e-05
0.00074986716
2.6335694e-05
0.00074697584
2.6365974e-05
0.00074406572
2.6392838e-05
0.00074113818
2.6412787e-05
0.00073819476
2.642456e-05
0.00073523699
2.6428239e-05
0.0007322662
2.6424913e-05
0.00072928341
2.6416447e-05
0.00072628924
2.6405351e-05
0.0007232838
2.6394824e-05
0.00072026658
2.6388935e-05
0.00071723625
2.6392935e-05
0.00071419049
2.6413734e-05
0.00071112558
2.6460641e-05
0.00070803597
2.6546369e-05
0.00070491359
2.6688641e-05
0.00070174692
2.6912144e-05
0.00069851955
2.7252616e-05
0.00069520845
2.7759713e-05
0.00069178069
2.8510774e-05
0.00068819087
2.9605587e-05
0.00068437221
3.123532e-05
0.00068023568
3.357451e-05
0.00067564827
3.7230339e-05
0.00067041472
4.2266803e-05
0.00066434546
5.1168226e-05
0.00065694272
6.2483827e-05
0.00064892509
8.731242e-05
0.00012146918
0.00063787076
0.00091326672
3.1065781e-05
0.00091041379
3.0401352e-05
0.00090765056
2.9814977e-05
0.00090494429
2.94363e-05
0.00090226499
2.9187287e-05
0.00089959218
2.9041754e-05
0.00089691041
2.898903e-05
0.00089420973
2.8995637e-05
0.00089148509
2.9033443e-05
0.00088873443
2.9086352e-05
0.00088595764
2.9142768e-05
0.00088315585
2.9194622e-05
0.00088033083
2.9237809e-05
0.00087748451
2.9270884e-05
0.00087461875
2.9293998e-05
0.00087173518
2.9308482e-05
0.00086883506
2.9316568e-05
0.00086591918
2.9321233e-05
0.00086298776
2.9326244e-05
0.00086004032
2.9336372e-05
0.0008570755
2.935775e-05
0.00085409082
2.939842e-05
0.00085108227
2.9469185e-05
0.00084804388
2.9584762e-05
0.00084496692
2.9765598e-05
0.00084183898
3.0040091e-05
0.00083864242
3.0449175e-05
0.00083535257
3.1049558e-05
0.00083193453
3.1928821e-05
0.00082834005
3.3200064e-05
0.00082450056
3.507481e-05
0.00082032152
3.7753551e-05
0.00081567745
4.1874409e-05
0.0008103608
4.7583454e-05
0.00080423169
5.7297334e-05
0.00079673395
6.998157e-05
0.00078891361
9.5132759e-05
0.00013178014
0.00077860264
0.0010713538
3.3724544e-05
0.001068831
3.2924112e-05
0.0010664137
3.2232275e-05
0.0010640611
3.1788919e-05
0.001061737
3.1511437e-05
0.0010594153
3.1363399e-05
0.0010570779
3.1326468e-05
0.0010547136
3.1359922e-05
0.001052317
3.1430065e-05
0.001049886
3.1517339e-05
0.0010474209
3.1607844e-05
0.0010449234
3.1692133e-05
0.0010423957
3.1765491e-05
0.0010398403
3.1826319e-05
0.0010372594
3.1874889e-05
0.001034655
3.1912842e-05
0.0010320288
3.1942852e-05
0.0010293816
3.1968427e-05
0.0010267138
3.1993976e-05
0.0010240251
3.2025051e-05
0.0010213141
3.2068751e-05
0.0010185782
3.2134349e-05
0.0010158131
3.2234264e-05
0.0010130125
3.2385366e-05
0.0010101671
3.2611008e-05
0.0010072637
3.294353e-05
0.0010042835
3.3429316e-05
0.0010012006
3.4132485e-05
0.00099797843
3.5151005e-05
0.00099456648
3.6612009e-05