/*--------------------------------*- C++ -*----------------------------------*\
  =========                 |
  \\      /  F ield         | OpenFOAM: The Open Source CFD Toolbox
   \\    /   O peration     | Website:  https://openfoam.org
    \\  /    A nd           | Version:  7
     \\/     M anipulation  |
\*---------------------------------------------------------------------------*/
FoamFile
{
    version     2.0;
    format      ascii;
    class       volScalarField;
    location    "2000";
    object      k;
}
// * * * * * * * * * * * * * * * * * * * * * * * * * * * * * * * * * * * * * //

dimensions      [0 2 -2 0 0 0 0];

internalField   nonuniform List<scalar> 
15296
(
0.0016938425
0.0016884962
0.0016833643
0.0016784241
0.0016736521
0.0016690342
0.0016645604
0.0016602227
0.0016560144
0.0016519291
0.0016479615
0.0016441065
0.0016403592
0.0016367155
0.0016331713
0.0016297228
0.0016263654
0.0016230965
0.0016199131
0.0016168118
0.0016137899
0.0016108447
0.0016079736
0.0016051745
0.0016024464
0.0015997904
0.0015972122
0.0015947284
0.001592384
0.0015902493
0.0015885464
0.0015879188
0.0015898843
0.0015994543
0.0016167128
0.0016640374
0.0017505268
0.0018482184
0.0016939026
0.0016885545
0.0016834265
0.0016784883
0.0016737178
0.0016691014
0.0016646289
0.0016602923
0.0016560849
0.0016520005
0.0016480336
0.0016441792
0.0016404325
0.0016367892
0.0016332453
0.0016297971
0.0016264399
0.0016231712
0.0016199878
0.0016168866
0.0016138647
0.0016109194
0.0016080481
0.0016052488
0.0016025205
0.001599864
0.0015972852
0.0015948005
0.0015924545
0.0015903165
0.0015886054
0.001587957
0.0015898672
0.0015993429
0.0016163927
0.0016631438
0.0017493998
0.0018159676
0.0016940289
0.0016886811
0.0016835584
0.0016786228
0.0016738544
0.0016692397
0.0016647685
0.001660433
0.0016562265
0.0016521428
0.0016481765
0.0016443224
0.0016405759
0.0016369327
0.0016333887
0.0016299404
0.0016265829
0.0016233139
0.00162013
0.0016170282
0.0016140056
0.0016110596
0.0016081875
0.0016053873
0.001602658
0.0016000003
0.0015974202
0.0015949336
0.0015925849
0.0015904423
0.0015887212
0.0015880478
0.0015899003
0.0015992686
0.0016161048
0.0016619915
0.0017473479
0.0017838932
0.0016942151
0.0016888736
0.0016837566
0.001678824
0.0016740578
0.0016694448
0.001664975
0.0016606406
0.0016564348
0.0016523517
0.0016483856
0.0016445315
0.0016407848
0.0016371413
0.0016335968
0.0016301478
0.0016267896
0.0016235196
0.0016203346
0.0016172317
0.0016142079
0.0016112604
0.0016083869
0.0016055851
0.001602854
0.0016001945
0.0015976122
0.0015951229
0.0015927706
0.0015906226
0.0015888905
0.001588191
0.0015899877
0.0015992406
0.0016158718
0.0016607044
0.0017436525
0.0017906132
0.0016944591
0.0016891317
0.0016840204
0.0016790911
0.0016743275
0.0016697163
0.0016652479
0.0016609144
0.0016567092
0.0016526263
0.0016486601
0.0016448057
0.0016410585
0.0016374142
0.0016338688
0.0016304187
0.0016270591
0.0016237876
0.0016206011
0.0016174964
0.0016144707
0.0016115212
0.0016086455
0.0016058415
0.001603108
0.0016004458
0.0015978606
0.0015953678
0.001593011
0.0015908567
0.0015891127
0.0015883856
0.001590127
0.0015992574
0.0016156876
0.0016593469
0.0017383525
0.0018096809
0.0016948481
0.001689549
0.0016844449
0.0016795204
0.0016747603
0.0016701516
0.0016656849
0.0016613525
0.0016571478
0.0016530649
0.0016490983
0.0016452431
0.0016414947
0.0016378489
0.0016343016
0.0016308494
0.0016274875
0.0016242134
0.001621024
0.0016179163
0.0016148873
0.0016119345
0.0016090551
0.0016062473
0.0016035097
0.0016008432
0.0015982532
0.0015957548
0.0015933911
0.0015912275
0.0015894671
0.001588703
0.0015903718
0.0015993376
0.0016155133
0.001657597
0.0017303085
0.0018365002
0.0016954943
0.0016902442
0.0016851499
0.0016802327
0.0016754777
0.0016708725
0.0016664079
0.0016620766
0.0016578722
0.0016537887
0.0016498209
0.0016459637
0.0016422128
0.0016385639
0.0016350132
0.001631557
0.0016281908
0.0016249121
0.0016217176
0.0016186045
0.0016155699
0.001612611
0.0016097254
0.0016069109
0.0016041664
0.0016014925
0.0015988944
0.0015963869
0.0015940121
0.0015918346
0.0015900511
0.0015892372
0.0015908082
0.0015995604
0.0016154312
0.0016555307
0.0017196569
0.0018602194
0.0016964394
0.0016912321
0.0016861552
0.0016812485
0.0016765
0.0016718989
0.0016674367
0.0016631064
0.0016589016
0.0016548168
0.0016508465
0.0016469861
0.0016432311
0.0016395774
0.0016360211
0.0016325589
0.0016291863
0.0016259004
0.0016226984
0.0016195773
0.0016165342
0.0016135665
0.0016106716
0.0016078475
0.0016050929
0.0016024082
0.0015997985
0.001597278
0.0015948877
0.001592692
0.0015908794
0.0015900069
0.0015914572
0.0015999718
0.0016155528
0.001653554
0.0017089336
0.0018741886
0.0016977941
0.0016926025
0.0016875569
0.001682665
0.0016779249
0.0016733287
0.0016688691
0.0016645394
0.0016603336
0.0016562461
0.0016522719
0.0016484063
0.0016446451
0.0016409842
0.0016374199
0.0016339487
0.0016305666
0.0016272705
0.0016240576
0.0016209249
0.0016178697
0.0016148894
0.0016119814
0.0016091435
0.0016063745
0.0016036747
0.0016010488
0.0015985104
0.0015960988
0.001593879
0.0015920301
0.0015910889
0.0015923899
0.0016006404
0.0016159837
0.0016519008
0.0017003139
0.0018747534
0.001699629
0.0016944925
0.0016894821
0.0016846095
0.0016798807
0.0016752913
0.001670835
0.001666506
0.0016622986
0.0016582073
0.0016542276
0.0016503548
0.001646585
0.0016429141
0.0016393387
0.0016358554
0.0016324605
0.0016291503
0.0016259224
0.0016227741
0.0016197025
0.001616705
0.001613779
0.0016109225
0.001608134
0.0016054136
0.0016027658
0.0016002034
0.0015977638
0.0015955124
0.001593618
0.0015925961
0.0015937151
0.0016016593
0.0016167617
0.0016506814
0.001695497
0.0018621873
0.0017020889
0.001697067
0.0016920947
0.0016872468
0.0016825337
0.0016779537
0.0016735023
0.0016691745
0.001664965
0.001660869
0.0016568821
0.0016529999
0.0016492188
0.0016455349
0.0016419449
0.0016384455
0.0016350338
0.001631705
0.0016284574
0.0016252883
0.001622195
0.0016191748
0.0016162252
0.001613344
0.0016105296
0.0016077821
0.0016051052
0.0016025113
0.0016000351
0.0015977429
0.0015957916
0.0015946741
0.0015955784
0.001603152
0.0016178967
0.0016497039
0.001695222
0.0018406036
0.0017054753
0.001700512
0.0016955998
0.0016907861
0.0016860937
0.0016815261
0.0016770809
0.0016727544
0.0016685419
0.0016644392
0.0016604423
0.0016565474
0.0016527509
0.0016490495
0.0016454399
0.0016419189
0.0016384842
0.0016351308
0.0016318569
0.0016286602
0.0016255379
0.0016224874
0.0016195062
0.001616592
0.0016137433
0.0016109596
0.0016082443
0.0016056087
0.0016030847
0.0016007396
0.0015987168
0.0015974849
0.001598148
0.0016052667
0.0016195339
0.0016487825
0.0016982224
0.0018208282
0.0017099984
0.0017051153
0.0017002691
0.0016954967
0.0016908309
0.0016862792
0.0016818417
0.001677516
0.0016732987
0.0016691864
0.0016651755
0.001661263
0.0016574456
0.0016537203
0.0016500841
0.0016465341
0.001643068
0.0016396819
0.001636373
0.0016331392
0.0016299782
0.0016268873
0.001623864
0.0016209061
0.0016180116
0.00161518
0.0016124138
0.0016097233
0.0016071371
0.0016047233
0.0016026108
0.00160124
0.0016016402
0.0016081871
0.0016219412
0.0016482152
0.0017025263
0.0018079411
0.0017159735
0.0017112457
0.0017064574
0.001701732
0.001697101
0.0016925707
0.0016881435
0.0016838192
0.0016795959
0.0016754711
0.0016714424
0.0016675072
0.0016636628
0.0016599067
0.0016562362
0.0016526489
0.0016491423
0.0016457143
0.0016423598
0.0016390783
0.0016358673
0.0016327243
0.0016296467
0.0016266322
0.0016236786
0.001620785
0.0016179532
0.0016151919
0.0016125263
0.0016100246
0.0016078002
0.0016062597
0.0016063734
0.0016121779
0.0016254342
0.00164865
0.0017069255
0.0018017221
0.001724076
0.0017193293
0.0017146116
0.0017099484
0.001705362
0.0017008596
0.0016964463
0.0016921245
0.0016878941
0.0016837542
0.0016797033
0.0016757398
0.0016718617
0.0016680669
0.0016643534
0.001660719
0.0016571615
0.0016536799
0.0016502683
0.0016469267
0.0016436524
0.0016404433
0.0016372968
0.0016342105
0.0016311819
0.0016282096
0.0016252943
0.0016224431
0.0016196771
0.0016170638
0.0016147009
0.0016129533
0.0016127495
0.0016176319
0.0016303464
0.0016508219
0.0017110889
0.0017993675
0.0017367063
0.001731994
0.001727351
0.0017227643
0.0017182374
0.0017137733
0.0017093787
0.001705059
0.0017008168
0.0016966532
0.0016925682
0.0016885613
0.0016846318
0.0016807784
0.0016769997
0.001673294
0.0016696597
0.0016660953
0.0016625989
0.0016591664
0.0016557965
0.0016524873
0.0016492367
0.0016460418
0.0016428998
0.0016398084
0.0016367669
0.0016337801
0.0016308639
0.0016280815
0.0016255155
0.0016234702
0.0016228409
0.0016264748
0.0016383455
0.0016563615
0.0017142853
0.0017973838
0.0017555859
0.0017510115
0.0017464572
0.0017419405
0.001737469
0.0017330411
0.0017286616
0.0017243373
0.0017200728
0.0017158712
0.0017117344
0.0017076636
0.0017036591
0.0016997207
0.001695848
0.00169204
0.0016882958
0.0016846139
0.0016809943
0.0016774334
0.0016739267
0.0016704751
0.0016670761
0.0016637265
0.0016604228
0.0016571614
0.0016539402
0.0016507602
0.0016476323
0.0016446028
0.0016417589
0.0016393163
0.001638143
0.0016402746
0.0016508705
0.0016671792
0.0017176319
0.0017945464
0.0017799058
0.0017753841
0.0017708759
0.0017663963
0.0017619531
0.0017575397
0.001753158
0.0017488139
0.0017445127
0.0017402586
0.0017360549
0.001731904
0.0017278074
0.0017237659
0.0017197798
0.001715849
0.0017119731
0.0017081513
0.0017043828
0.0017006679
0.0016969994
0.0016933792
0.0016898036
0.0016862693
0.0016827724
0.0016793083
0.0016758724
0.0016724617
0.0016690823
0.0016657555
0.0016625869
0.001659692
0.0016579126
0.0016585194
0.0016676454
0.0016825178
0.0017249584
0.0017950239
0.0018106874
0.0018061252
0.0018015996
0.0017971049
0.0017926438
0.0017882047
0.0017837857
0.0017793915
0.0017750264
0.0017706947
0.0017663999
0.0017621452
0.0017579327
0.0017537639
0.0017496398
0.0017455609
0.0017415273
0.0017375387
0.0017335944
0.0017296939
0.0017258362
0.0017220182
0.0017182338
0.0017144817
0.0017107572
0.0017070543
0.0017033658
0.0016996841
0.0016960093
0.0016923422
0.0016887929
0.0016853865
0.0016829306
0.001682018
0.001689578
0.0017028783
0.0017377182
0.0018015504
0.0018489012
0.0018443035
0.0018397197
0.001835153
0.001830615
0.0018260946
0.0018215882
0.0018170986
0.0018126288
0.001808182
0.0018037614
0.0017993698
0.0017950095
0.0017906824
0.0017863895
0.0017821318
0.0017779097
0.0017737232
0.0017695719
0.0017654547
0.0017613731
0.0017573219
0.0017532971
0.0017492921
0.0017453036
0.0017413239
0.001737343
0.001733348
0.0017293318
0.0017252774
0.0017212882
0.0017173119
0.001714099
0.0017117214
0.0017175269
0.0017289283
0.001756591
0.0018155854
0.0018958148
0.0018911233
0.001886424
0.0018817263
0.0018770517
0.0018723914
0.0018677409
0.0018631025
0.0018584783
0.0018538702
0.0018492806
0.0018447116
0.0018401653
0.001835643
0.001831146
0.0018266751
0.0018222308
0.001817813
0.0018134215
0.0018090553
0.0018047135
0.0018003933
0.0017960935
0.0017918048
0.001787517
0.0017832241
0.0017789121
0.0017745627
0.0017701605
0.0017656739
0.0017611711
0.0017565777
0.0017525166
0.0017488219
0.001752069
0.001761174
0.0017835159
0.0018305749
0.0019527759
0.0019478655
0.0019429687
0.0019380772
0.0019332077
0.0019283489
0.0019234948
0.0019186479
0.0019138106
0.0019089847
0.001904172
0.0018993744
0.0018945932
0.0018898295
0.001885084
0.0018803573
0.0018756495
0.0018709605
0.0018662899
0.0018616363
0.001856998
0.0018523722
0.0018477548
0.0018431423
0.0018385206
0.0018338786
0.0018291945
0.0018244483
0.0018196152
0.0018146497
0.0018095646
0.0018043092
0.0017993052
0.0017944129
0.0017939796
0.0018006477
0.0018197323
0.001848914
0.0020209659
0.0020157927
0.0020106566
0.0020055228
0.0020004022
0.0019952827
0.0019901589
0.0019850353
0.0019799161
0.0019748042
0.0019697017
0.0019646107
0.0019595324
0.0019544673
0.0019494159
0.0019443782
0.0019393541
0.0019343428
0.0019293436
0.0019243548
0.0019193739
0.0019143974
0.0019094199
0.0019044339
0.0018994321
0.0018943944
0.0018892975
0.001884112
0.0018788026
0.0018733048
0.0018675942
0.001861614
0.001855597
0.0018494526
0.0018457382
0.001849475
0.001865613
0.001877991
0.0021016894
0.0020963247
0.0020909272
0.0020854898
0.0020800433
0.0020745847
0.0020691115
0.002063631
0.0020581499
0.0020526722
0.0020472015
0.0020417402
0.0020362897
0.0020308508
0.0020254233
0.0020200072
0.0020146017
0.0020092057
0.0020038177
0.0019984356
0.0019930562
0.0019876748
0.0019822851
0.0019768774
0.0019714395
0.0019659515
0.0019603913
0.0019547159
0.0019488779
0.0019427996
0.0019364239
0.0019296217
0.001922568
0.0019150573
0.0019086452
0.0019082835
0.0019211119
0.0019198528
0.0021970916
0.0021912048
0.0021853472
0.0021794698
0.0021735853
0.0021676849
0.0021617636
0.0021558295
0.002149891
0.0021439539
0.0021380226
0.0021321005
0.0021261896
0.0021202906
0.0021144036
0.002108528
0.002102663
0.002096807
0.0020909579
0.0020851128
0.0020792678
0.0020734172
0.0020675531
0.0020616642
0.0020557349
0.0020497423
0.0020436561
0.00203743
0.0020310056
0.0020242912
0.002017202
0.002009508
0.0020014017
0.0019924191
0.0019838528
0.0019775991
0.0019869872
0.00197484
0.0023080362
0.0023016748
0.0022953029
0.002288884
0.0022824422
0.0022759756
0.002269482
0.0022629719
0.002256456
0.0022499416
0.0022434343
0.0022369386
0.0022304569
0.0022239904
0.0022175392
0.0022111028
0.00220468
0.002198269
0.0021918671
0.0021854709
0.0021790754
0.002172674
0.0021662572
0.0021598118
0.0021533193
0.002146753
0.0021400768
0.0021332364
0.0021261634
0.002118743
0.002110875
0.0021022775
0.0020930308
0.0020825587
0.0020719315
0.0020606424
0.0020654327
0.0020437319
0.002436453
0.0024293513
0.0024222586
0.0024151192
0.0024079507
0.002400751
0.0023935195
0.0023862693
0.0023790142
0.0023717637
0.0023645252
0.0023573044
0.0023501043
0.0023429267
0.002335772
0.0023286395
0.002321528
0.0023144352
0.0023073582
0.0023002928
0.0022932331
0.0022861715
0.0022790968
0.0022719938
0.0022648412
0.0022576084
0.0022502537
0.002242715
0.0022349129
0.002226715
0.0022179933
0.0022084433
0.0021979728
0.0021860555
0.0021733172
0.0021583023
0.0021559007
0.0021260852
0.0025837366
0.002575694
0.0025676553
0.0025595599
0.0025514262
0.0025432561
0.0025350529
0.002526834
0.0025186171
0.0025104143
0.0025022352
0.0024940864
0.002485972
0.0024778938
0.0024698524
0.002461847
0.0024538761
0.002445937
0.0024380261
0.0024301385
0.0024222675
0.0024144041
0.0024065356
0.0023986447
0.0023907071
0.0023826885
0.0023745418
0.0023661972
0.0023575649
0.0023484974
0.0023388391
0.0023282641
0.0023165696
0.0023031552
0.0022883479
0.0022704457
0.0022603419
0.0022231959
0.0027517604
0.0027423512
0.0027329606
0.0027235206
0.0027140485
0.0027045489
0.0026950289
0.0026855104
0.0026760142
0.0026665548
0.0026571429
0.0026477858
0.0026384877
0.0026292501
0.0026200731
0.0026109554
0.0026018945
0.0025928872
0.0025839289
0.0025750136
0.0025661337
0.0025572785
0.0025484339
0.0025395801
0.0025306903
0.0025217264
0.0025126359
0.0025033426
0.0024937463
0.0024836874
0.0024729861
0.0024612967
0.0024483528
0.0024334183
0.0024166677
0.0023961424
0.0023808561
0.002334601
0.0029416622
0.0029303873
0.0029191404
0.0029078555
0.0028965536
0.0028852444
0.0028739423
0.0028626755
0.0028514682
0.0028403371
0.0028292939
0.0028183458
0.0028074962
0.0027967458
0.0027860932
0.002775536
0.0027650703
0.0027546917
0.0027443942
0.0027341707
0.0027240118
0.0027139055
0.0027038359
0.0026937809
0.002683711
0.0026735845
0.0026633446
0.0026529089
0.0026421686
0.0026309551
0.0026190679
0.0026061515
0.0025918787
0.0025755054
0.0025568909
0.0025339976
0.002515358
0.002459922
0.0031543968
0.0031405605
0.0031267754
0.0031129833
0.0030992079
0.0030854631
0.0030717725
0.0030581712
0.0030446871
0.0030313383
0.0030181371
0.0030050899
0.0029921986
0.0029794623
0.0029668778
0.002954441
0.0029421463
0.0029299876
0.0029179574
0.0029060469
0.0028942453
0.0028825389
0.0028709097
0.0028593339
0.0028477793
0.0028362011
0.0028245388
0.0028127054
0.0028005852
0.002788004
0.002774746
0.0027604557
0.0027447589
0.0027269434
0.0027066509
0.0026817085
0.0026602209
0.0026011071
0.0033910494
0.0033736498
0.0033563561
0.0033391275
0.0033219857
0.0033049438
0.0032880343
0.0032712984
0.0032547653
0.0032384533
0.0032223741
0.0032065322
0.0031909275
0.0031755568
0.0031604148
0.0031454953
0.003130791
0.0031162939
0.003101995
0.0030878837
0.0030739476
0.0030601712
0.0030465349
0.0030330128
0.0030195705
0.0030061608
0.00299272
0.0029791584
0.0029653558
0.0029511361
0.0029362752
0.0029204251
0.0029031885
0.0028838897
0.0028621056
0.002835622
0.0028115046
0.0027525079
0.0036433398
0.0036212792
0.003599378
0.0035776314
0.003556061
0.0035346799
0.0035135355
0.0034926782
0.0034721397
0.0034519398
0.0034320903
0.0034125949
0.0033934515
0.0033746551
0.0033561986
0.0033380737
0.0033202711
0.003302781
0.0032855921
0.0032686921
0.0032520663
0.0032356972
0.0032195629
0.0032036354
0.0031878779
0.0031722412
0.0031566595
0.0031410415
0.0031252654
0.0031091569
0.0030924909
0.0030749342
0.0030560879
0.0030353302
0.0030121959
0.002984767
0.0029586235
0.0029022561
0.0038931812
0.003865489
0.0038379651
0.0038106642
0.0037836201
0.0037568593
0.0037304603
0.0037044938
0.0036790009
0.0036540084
0.0036295315
0.0036055742
0.0035821334
0.0035592019
0.0035367698
0.0035148258
0.0034933571
0.0034723501
0.0034517899
0.0034316602
0.0034119429
0.0033926165
0.0033736559
0.0033550295
0.0033366976
0.0033186087
0.0033006948
0.0032828641
0.003264995
0.0032469176
0.0032284121
0.0032091639
0.003188789
0.0031667252
0.0031425016
0.0031145256
0.0030871519
0.0030348764
0.0041306744
0.0040963762
0.0040621398
0.0040281626
0.0039945355
0.0039613301
0.003928678
0.0038966792
0.0038653877
0.003834837
0.003805043
0.003776006
0.0037477171
0.0037201621
0.0036933239
0.0036671831
0.0036417193
0.0036169114
0.0035927374
0.003569174
0.0035461967
0.0035237783
0.0035018878
0.0034804891
0.0034595385
0.0034389808
0.0034187462
0.0033987422
0.0033788487
0.0033589011
0.0033386882
0.0033179148
0.00329622
0.0032730986
0.0032480945
0.0032199275
0.0031918446
0.0031441992
0.004354927
0.0043123356
0.0042698309
0.0042277885
0.0041863466
0.0041456197
0.0041057865
0.0040669614
0.0040291962
0.0039925163
0.0039569245
0.0039224054
0.0038889338
0.0038564802
0.0038250124
0.0037944976
0.0037649027
0.0037361953
0.0037083426
0.0036813123
0.0036550709
0.0036295837
0.0036048132
0.0035807173
0.0035572474
0.0035343448
0.0035119372
0.0034899319
0.0034682103
0.0034466136
0.0034249402
0.0034029133
0.0033801982
0.0033563386
0.0033309045
0.0033028839
0.0032745961
0.0032314009
0.0045658993
0.0045129152
0.0044602596
0.0044086087
0.004358121
0.004308909
0.004261147
0.0042149147
0.0041702238
0.0041270637
0.0040854025
0.0040451935
0.0040063848
0.0039689232
0.0039327563
0.0038978335
0.0038641063
0.0038315287
0.003800056
0.0037696451
0.0037402534
0.0037118379
0.0036843539
0.0036577531
0.0036319817
0.0036069773
0.0035826649
0.0035589507
0.0035357179
0.003512812
0.0034900409
0.0034671426
0.0034438076
0.0034196172
0.0033941731
0.0033666644
0.0033387187
0.0032994943
0.0047633903
0.0046977366
0.0046334571
0.004571232
0.0045110041
0.0044527682
0.0043966353
0.0043426198
0.0042906814
0.0042407676
0.0041928093
0.0041467272
0.0041024412
0.0040598739
0.0040189519
0.0039796062
0.0039417724
0.00390539
0.003870402
0.0038367539
0.0038043933
0.003773268
0.0037433253
0.0037145098
0.0036867616
0.003660013
0.0036341849
0.0036091812
0.0035848846
0.0035611421
0.0035377682
0.0035145102
0.0034910795
0.0034670803
0.0034421474
0.0034155937
0.0033886147
0.0033528011
0.004949629
0.0048708046
0.0047941303
0.0047204597
0.0046496036
0.0045815072
0.0045162461
0.0044537776
0.0043940113
0.0043368509
0.0042821863
0.0042299022
0.0041798873
0.0041320373
0.0040862548
0.0040424501
0.0040005405
0.0039604489
0.0039221035
0.0038854361
0.0038503816
0.0038168762
0.0037848563
0.0037542564
0.0037250071
0.0036970321
0.003670245
0.0036445429
0.0036198039
0.0035958719
0.0035725621
0.003549623
0.0035267794
0.0035036418
0.0034798765
0.0034548393
0.0034295547
0.0033966549
0.0051260905
0.0050341747
0.0049445575
0.0048585782
0.0047761014
0.0046971598
0.0046218605
0.0045501325
0.0044818487
0.0044168715
0.0043550481
0.0042962236
0.0042402514
0.0041869957
0.0041363314
0.0040881438
0.0040423272
0.0039987834
0.0039574206
0.003918152
0.0038808941
0.0038455659
0.003812087
0.0037803757
0.0037503475
0.003721911
0.0036949662
0.0036693972
0.0036450707
0.0036218197
0.0035994526
0.003577709
0.0035563175
0.0035348767
0.0035130809
0.0034902541
0.0034674846
0.0034371686
0.0052920143
0.0051858494
0.0050822665
0.0049830681
0.004888131
0.0047975943
0.0047116045
0.0046300718
0.0045528418
0.0044797408
0.0044105754
0.0043451522
0.0042832887
0.0042248153
0.0041695755
0.0041174242
0.0040682263
0.0040218552
0.0039781905
0.0039371174
0.0038985252
0.0038623058
0.0038283526
0.0037965585
0.0037668142
0.0037390049
0.0037130081
0.0036886863
0.0036658863
0.0036444212
0.0036240838
0.0036045934
0.0035856729
0.0035668922
0.0035479683
0.0035281353
0.0035087229
0.0034808898
0.0054467176
0.0053237185
0.0052042048
0.0050903461
0.004981898
0.0048790339
0.0047818727
0.004690265
0.0046040067
0.0045228739
0.0044466247
0.0043750214
0.0043078392
0.0042448669
0.0041859062
0.0041307696
0.0040792785
0.0040312621
0.0039865561
0.0039450018
0.0039064459
0.0038707388
0.0038377342
0.0038072872
0.0037792527
0.0037534817
0.0037298198
0.0037080988
0.0036881371
0.0036697196
0.0036526152
0.0036365143
0.0036211258
0.0036059789
0.0035908086
0.0035747283
0.003559397
0.0035341833
0.0055882469
0.0054452761
0.0053074364
0.0051771571
0.0050539617
0.0049379878
0.0048292541
0.0047275073
0.004632463
0.0045438228
0.0044612747
0.0043845142
0.0043132487
0.0042471973
0.004186089
0.0041296618
0.0040776623
0.0040298454
0.0039859755
0.0039458259
0.0039091795
0.0038758276
0.0038455693
0.0038182095
0.0037935569
0.0037714202
0.0037516054
0.0037339079
0.0037181124
0.0037039707
0.0036912241
0.0036795296
0.0036685802
0.0036578594
0.0036471195
0.0036353559
0.0036245351
0.0036022582
0.0057145689
0.0055484515
0.0053897476
0.0052410949
0.0051017664
0.0049718544
0.0048512474
0.0047395675
0.0046364226
0.0045413996
0.0044540662
0.0043739902
0.0043007443
0.0042339078
0.0041730698
0.0041178326
0.0040678146
0.0040226532
0.003982007
0.0039455555
0.0039129991
0.0038840571
0.0038584656
0.0038359739
0.0038163416
0.0037993335
0.0037847162
0.0037722488
0.003761684
0.0037527423
0.0037451406
0.0037385053
0.0037325197
0.0037266259
0.0037205987
0.0037133516
0.003707026
0.00368808
0.0058263107
0.0056329788
0.0054501009
0.0052805381
0.0051233845
0.0049787078
0.0048462431
0.004725452
0.004615759
0.0045165261
0.0044270658
0.0043466724
0.0042746407
0.0042102827
0.0041529425
0.004102007
0.0040569113
0.0040171409
0.0039822303
0.0039517589
0.0039253457
0.003902644
0.0038833348
0.0038671209
0.0038537223
0.0038428686
0.003834296
0.0038277362
0.0038229184
0.0038195413
0.0038173076
0.0038158234
0.0038147763
0.0038135784
0.0038120406
0.0038090499
0.0038067147
0.0037914348
0.005925845
0.0056988964
0.0054870594
0.0052933093
0.0051165815
0.0049568748
0.004813665
0.004686084
0.0045731226
0.0044736181
0.0043863204
0.0043099748
0.0042433797
0.0041854294
0.0041351364
0.0040916367
0.0040541829
0.004022131
0.0039949245
0.0039720783
0.0039531645
0.0039377999
0.0039256359
0.0039163505
0.0039096409
0.0039052178
0.0039028001
0.0039021055
0.003902853
0.0039047328
0.0039074483
0.0039105995
0.003913898
0.0039167381
0.0039189902
0.0039195653
0.0039203109
0.0039088865
0.0060130283
0.005743653
0.0054968561
0.0052755763
0.0050785719
0.0049055662
0.0047553876
0.0046262706
0.0045160915
0.0044225119
0.0043432075
0.0042760477
0.0042191881
0.0041710962
0.00413053
0.004096491
0.0040681715
0.0040449078
0.0040261412
0.0040113889
0.0040002238
0.0039922593
0.0039871401
0.0039845348
0.0039841314
0.0039856316
0.0039887488
0.0039931975
0.0039986995
0.0040049494
0.0040116675
0.0040184607
0.0040250873
0.0040309278
0.0040359521
0.004039103
0.0040418064
0.0040342223
0.0060833513
0.0057606868
0.0054728839
0.0052225074
0.0050079993
0.0048280827
0.0046796457
0.0045584627
0.0044599167
0.0043795901
0.0043137267
0.0042593907
0.0042144089
0.0041772148
0.0041466751
0.0041219405
0.0041023391
0.0040873062
0.0040763438
0.0040689978
0.0040648469
0.0040634964
0.0040645769
0.0040677419
0.0040726674
0.0040790482
0.0040865973
0.004095035
0.0041040973
0.0041134958
0.0041229829
0.0041321836
0.0041409259
0.0041485725
0.0041552389
0.0041598753
0.0041633794
0.00415951
0.0061316964
0.0057430036
0.0054091712
0.0051329517
0.004911545
0.0047395568
0.0046079699
0.0045069526
0.0044279356
0.0043645405
0.0043125927
0.0042695992
0.0042341165
0.0042052582
0.0041823866
0.0041649504
0.0041524161
0.0041442515
0.0041399294
0.0041389382
0.0041407918
0.0041450372
0.0041512587
0.0041590787
0.0041681575
0.0041781879
0.0041888935
0.0042000145
0.0042113169
0.0042225447
0.0042334983
0.0042438329
0.004253461
0.0042617306
0.0042689189
0.0042740069
0.0042771116
0.0042770557
0.006152372
0.0056908231
0.0053160262
0.005031061
0.0048256084
0.0046814307
0.0045777389
0.0044982357
0.0044331241
0.0043777679
0.00433051
0.0042909114
0.0042587791
0.0042337887
0.004215415
0.0042029828
0.0041957425
0.0041929351
0.0041938349
0.0041977744
0.0042041559
0.0042124547
0.0042222168
0.0042330538
0.004244635
0.0042566776
0.0042689399
0.0042812033
0.0042932804
0.0043049614
0.0043161017
0.0043263962
0.0043358338
0.0043437694
0.0043505856
0.0043553928
0.0043573324
0.0043603791
0.006153407
0.0056261293
0.0052302536
0.0049620187
0.004790349
0.0046767835
0.0045911531
0.0045179259
0.0044522682
0.0043942084
0.0043448898
0.0043049933
0.004274428
0.0042525047
0.0042381995
0.0042303658
0.0042278723
0.0042296784
0.0042348662
0.0042426482
0.0042523623
0.0042634604
0.0042754953
0.0042881046
0.004300997
0.0043139355
0.0043267278
0.0043392045
0.0043512271
0.0043626306
0.0043733188
0.0043830191
0.0043917806
0.0043989595
0.0044050135
0.0044091693
0.0044096797
0.0044149962
0.0061339872
0.0055445865
0.0051569809
0.0049363599
0.0048087625
0.004714693
0.0046269971
0.0045419284
0.0044640139
0.00439764
0.0043447741
0.0043053019
0.004277893
0.00426071
0.004251843
0.0042495321
0.0042522551
0.0042587438
0.0042679652
0.004279092
0.0042914716
0.004304597
0.0043180798
0.0043316256
0.0043450127
0.0043580721
0.0043706747
0.004382708
0.0043940865
0.0044046882
0.0044144647
0.0044231652
0.0044309041
0.004437002
0.0044420432
0.0044452319
0.0044441415
0.0044514818
0.0060905202
0.0054629846
0.0051316622
0.0049797901
0.0048782298
0.0047702852
0.0046538653
0.0045433601
0.0044496923
0.0043768863
0.0043243153
0.0042892046
0.0042681749
0.0042580027
0.0042559322
0.0042597421
0.0042676984
0.0042784703
0.0042910473
0.0043046724
0.0043187878
0.0043329913
0.004346999
0.0043606149
0.0043737061
0.0043861804
0.0043979753
0.0044090335
0.004419318
0.0044287421
0.0044373001
0.004444747
0.00445127
0.0044561058
0.004460042
0.0044620621
0.0044593955
0.0044686294
0.0060298534
0.0054194683
0.0051941951
0.0050920956
0.0049636423
0.0048015078
0.0046402323
0.004504293
0.0044015391
0.0043300746
0.0042843347
0.0042582407
0.0042464454
0.0042446807
0.0042497356
0.0042592762
0.0042716291
0.0042855986
0.004300336
0.0043152507
0.0043299446
0.0043441614
0.0043577446
0.0043706058
0.0043827003
0.0043940072
0.0044045211
0.0044142286
0.0044231307
0.0044311629
0.0044383552
0.0044444497
0.0044497174
0.0044532551
0.0044561577
0.0044569258
0.0044529695
0.0044639535
0.0059653086
0.005468162
0.0053591663
0.0052299972
0.0050102646
0.0047718589
0.0045697494
0.004420877
0.0043212821
0.0042603081
0.004227169
0.0042130694
0.0042114461
0.0042176912
0.0042287001
0.0042424229
0.0042574973
0.0042730121
0.004288368
0.0043031901
0.0043172641
0.0043304843
0.0043428145
0.0043542589
0.004364843
0.0043745977
0.0043835568
0.0043917336
0.0043991531
0.0044057591
0.0044116115
0.0044164205
0.0044205605
0.0044229222
0.0044250571
0.0044246115
0.0044200669
0.0044323581
0.0059310628
0.0056607162
0.0055877708
0.0053239948
0.0049742787
0.0046657285
0.0044417893
0.0042974001
0.0042128726
0.0041689465
0.0041509326
0.0041487144
0.0041556354
0.0041675578
0.0041820159
0.0041975303
0.0042131794
0.0042283828
0.0042427992
0.0042562598
0.0042687115
0.0042801693
0.0042906839
0.0043003192
0.0043091416
0.0043172083
0.0043245708
0.0043312523
0.0043372899
0.0043426231
0.0043473416
0.0043511071
0.0043544302
0.0043559204
0.0043577903
0.0043563329
0.0043524688
0.0043651396
0.0059778372
0.0059833358
0.0057887404
0.0053118264
0.0048320074
0.0044780746
0.0042560596
0.0041314006
0.0040688762
0.0040431181
0.0040380352
0.0040440185
0.0040554498
0.0040692941
0.0040840145
0.0040987451
0.004112939
0.0041262662
0.0041385755
0.004149843
0.0041601182
0.0041694831
0.0041780277
0.0041858371
0.0041929874
0.0041995384
0.0042055431
0.0042110218
0.0042160178
0.0042204619
0.004224481
0.0042276801
0.0042307527
0.0042319548
0.0042344092
0.0042324686
0.0042312965
0.0042429617
0.0061211365
0.0063260602
0.0058714654
0.0051508396
0.0045622383
0.0041924718
0.0039911982
0.0038922067
0.0038492484
0.0038354966
0.0038363839
0.0038442448
0.0038550146
0.0038668898
0.0038791131
0.0038911602
0.0039026226
0.0039132684
0.0039230331
0.0039319552
0.0039401166
0.0039476085
0.0039545164
0.0039609143
0.0039668662
0.003972421
0.0039776252
0.0039824945
0.0039870826
0.0039913186
0.0039953859
0.003998843
0.0040026237
0.0040045931
0.0040090314
0.0040078174
0.0040123261
0.0040215285
0.0063336656
0.0065724869
0.0057600761
0.0047791858
0.0041115816
0.0037513955
0.0035760091
0.0034949517
0.0034601819
0.0034480743
0.0034469721
0.0034511413
0.0034576183
0.0034653378
0.0034738805
0.0034827064
0.0034913239
0.0034994795
0.0035071128
0.003514255
0.0035209652
0.0035273043
0.0035333279
0.0035390842
0.0035446181
0.0035499659
0.0035551719
0.0035602557
0.0035652947
0.0035702365
0.0035753458
0.0035801728
0.0035859308
0.0035901536
0.0035983702
0.0035998684
0.0036134207
0.0036201588
0.0062806878
0.0065389241
0.0053029195
0.0040830619
0.0033749331
0.0030226862
0.0028496254
0.0027636777
0.0027216781
0.0027022087
0.0026943972
0.002692803
0.002694454
0.0026986025
0.0027045916
0.0027114311
0.0027184339
0.0027253095
0.0027319825
0.0027384556
0.002744753
0.0027509033
0.0027569363
0.0027628821
0.0027687755
0.0027746514
0.0027805627
0.0027865482
0.0027927198
0.0027990724
0.0028059492
0.0028129764