/*--------------------------------*- C++ -*----------------------------------*\
  =========                 |
  \\      /  F ield         | OpenFOAM: The Open Source CFD Toolbox
   \\    /   O peration     | Website:  https://openfoam.org
    \\  /    A nd           | Version:  7
     \\/     M anipulation  |
\*---------------------------------------------------------------------------*/
FoamFile
{
    version     2.0;
    format      ascii;
    class       volScalarField;
    location    "2000";
    object      omega;
}
// * * * * * * * * * * * * * * * * * * * * * * * * * * * * * * * * * * * * * //

dimensions      [0 0 -1 0 0 0 0];

internalField   nonuniform List<scalar> 
15296
(
0.85602559
0.85295909
0.84993909
0.8469665
0.84403762
0.84115109
0.83830583
0.83550097
0.83273571
0.83000922
0.82732064
0.82466909
0.82205369
0.81947358
0.8169279
0.81441589
0.81193619
0.80948843
0.80707172
0.80468527
0.8023283
0.80000008
0.79769985
0.79542695
0.79318087
0.79096153
0.78876984
0.78660891
0.78448838
0.7824166
0.78043552
0.77869946
0.77752418
0.77897772
0.78667514
0.82669349
1.0405431
2.3341575
0.85605153
0.85298329
0.84996494
0.84699319
0.84406509
0.8411793
0.83833474
0.83553057
0.83276596
0.83004009
0.8273521
0.82470111
0.82208625
0.81950665
0.81696146
0.81444993
0.81197067
0.80952333
0.80710703
0.80472096
0.80236436
0.80003649
0.79773659
0.795464
0.79321822
0.79099914
0.78880767
0.78664687
0.78452635
0.78245431
0.78047189
0.77873162
0.77754079
0.77894219
0.78644599
0.82446318
1.0836322
0.39045817
0.85610561
0.85303549
0.85001895
0.84704796
0.8441205
0.84123531
0.83839132
0.83558766
0.83282354
0.83009812
0.82741054
0.82475993
0.82214541
0.81956613
0.81702122
0.81450996
0.81203092
0.80958378
0.80716766
0.80478174
0.80242527
0.80009749
0.79779767
0.79552514
0.79327938
0.7910603
0.78886876
0.78670778
0.78458694
0.78251427
0.78052997
0.77878439
0.77757847
0.77891991
0.78622745
0.82145257
1.1175304
0.042570105
0.85618476
0.85311471
0.85009961
0.84712916
0.84420215
0.84131735
0.8384737
0.83567035
0.83290649
0.83018129
0.82749388
0.82484341
0.822229
0.81964977
0.81710489
0.81459363
0.81211456
0.80966736
0.80725113
0.80486508
0.80250845
0.8001805
0.79788047
0.7956077
0.79336167
0.79114228
0.78895036
0.78678888
0.78466737
0.78259377
0.78060731
0.77885594
0.77763671
0.77891236
0.78600585
0.81885826
1.1204178
0.034477826
0.85628793
0.85322094
0.85020667
0.84723652
0.84430976
0.84142515
0.83858162
0.83577834
0.83301451
0.83028929
0.82760183
0.82495124
0.82233667
0.81975726
0.81721214
0.81470058
0.81222124
0.8097737
0.8073571
0.80497064
0.80261357
0.80028514
0.79798462
0.79571131
0.79346472
0.7912447
0.78905209
0.78688979
0.78476726
0.78269242
0.78070347
0.77894578
0.77771423
0.77891838
0.78574678
0.81726238
1.0915628
0.45613103
0.85645191
0.85339265
0.85037866
0.84740861
0.84448192
0.84159726
0.8387536
0.83595012
0.83318602
0.83046047
0.82777261
0.82512156
0.82250646
0.81992646
0.8173807
0.81486842
0.81238838
0.80994005
0.8075226
0.80513525
0.80277724
0.80044784
0.79814629
0.79587191
0.79362419
0.79140298
0.78920907
0.7870453
0.78492097
0.78284414
0.78085158
0.77908513
0.77783818
0.77894741
0.78535789
0.8165649
1.0327035
1.0824123
0.85672379
0.85367863
0.85066382
0.84769345
0.84476636
0.84188109
0.83903669
0.83623237
0.83346735
0.83074077
0.82805177
0.8253995
0.82278309
0.82020168
0.81765443
0.81514056
0.81265894
0.81020891
0.80778967
0.80540046
0.80304054
0.80070915
0.79840556
0.79612906
0.79387915
0.79165564
0.78945927
0.78729281
0.78516524
0.78308512
0.78108718
0.77930848
0.77804122
0.77903598
0.78481037
0.81733061
0.96073951
1.4231929
0.85712263
0.8540844
0.85106974
0.84809884
0.84517067
0.84228402
0.83943806
0.83663206
0.83386522
0.8311367
0.82844563
0.82579116
0.82317243
0.82058858
0.8180388
0.81552226
0.81303799
0.81058514
0.80816296
0.80577074
0.80340772
0.80107316
0.7987663
0.79648645
0.79423308
0.79200597
0.78980582
0.78763528
0.78550276
0.78341802
0.78141298
0.7796193
0.77832651
0.77920518
0.78427558
0.81893508
0.89241774
1.6290682
0.85769607
0.85464621
0.85163488
0.84866329
0.8457331
0.84284401
0.83999538
0.83718653
0.83441667
0.83168496
0.82899053
0.82633253
0.8237101
0.82112242
0.81856866
0.81604798
0.81355962
0.81110242
0.80867576
0.80627895
0.80391125
0.8015719
0.79926014
0.79697527
0.79471673
0.7924843
0.79027857
0.78810209
0.78596253
0.78387124
0.78185684
0.78004499
0.7787195
0.77947628
0.78390549
0.82060682
0.84166018
1.7178753
0.85846887
0.85542048
0.8524104
0.84943707
0.84650384
0.84361111
0.84075854
0.8379455
0.8351712
0.83243481
0.82973547
0.82707235
0.82444459
0.82185137
0.8192919
0.81676531
0.81427112
0.81180768
0.80937464
0.80697133
0.80459699
0.80225085
0.79993217
0.79764022
0.79537442
0.79313449
0.79092095
0.78873621
0.78658717
0.78448673
0.78246009
0.78062623
0.77925994
0.77987551
0.78372257
0.82144332
0.81533004
1.6979905
0.8594983
0.8564741
0.85346169
0.85048518
0.84754776
0.84465008
0.84179209
0.83897325
0.83619281
0.83344995
0.83074384
0.82807363
0.82543852
0.8228377
0.82027037
0.81773567
0.81523354
0.81276147
0.81031972
0.80790752
0.80552411
0.80316872
0.80084058
0.79853897
0.79626327
0.79401315
0.79178899
0.78959307
0.78743138
0.78531859
0.78327606
0.78141534
0.7800008
0.78044477
0.78376438
0.81991735
0.81559742
1.5605227
0.86091209
0.85788024
0.85486962
0.8518896
0.84894632
0.84604178
0.84317628
0.84034939
0.83756041
0.83480855
0.832093
0.82941298
0.82676768
0.82415633
0.82157815
0.81903231
0.81651883
0.81403524
0.8115816
0.80915722
0.80676139
0.80439335
0.8020523
0.79973752
0.79744834
0.79518435
0.79294579
0.79073476
0.78855622
0.78642681
0.7843636
0.78246968
0.78100149
0.78123773
0.78425634
0.8155692
0.83008968
1.4189124
0.86278853
0.85975327
0.85674147
0.85375543
0.85080403
0.84789016
0.84501437
0.84217638
0.8393756
0.83661129
0.83388273
0.83118916
0.82852985
0.82590403
0.82331099
0.82074991
0.81822046
0.81572155
0.81325171
0.81081075
0.80839805
0.80601281
0.80365426
0.80132163
0.79901422
0.79673151
0.79447355
0.79224221
0.79004138
0.78788969
0.7857996
0.78386424
0.78233815
0.782322
0.78536625
0.80998809
0.8455163
1.311484
0.86524572
0.8622379
0.85921578
0.85621942
0.85325758
0.85033183
0.84744273
0.84459024
0.84177395
0.83899325
0.83624751
0.83353608
0.83085825
0.82821335
0.82560068
0.82301952
0.82046924
0.81795013
0.81545871
0.81299594
0.81056105
0.80815319
0.80577162
0.80341553
0.80108415
0.79877685
0.79649344
0.79423549
0.79200574
0.78982475
0.78770014
0.78571313
0.7841232
0.7838056
0.78706274
0.80520386
0.8552875
1.2394109
0.86855762
0.8654978
0.86246316
0.85945629
0.85648186
0.85354125
0.8506353
0.84776431
0.84492813
0.84212634
0.83935848
0.83662398
0.83392226
0.8312527
0.82861468
0.82600755
0.82343058
0.82088447
0.81836571
0.81587495
0.81341138
0.81097429
0.80856297
0.80617659
0.80381426
0.80147518
0.7991589
0.79686661
0.7945999
0.79238064
0.79021212
0.78816147
0.78649626
0.78584968
0.78921025
0.80251914
0.85838264
1.1894466
0.8736703
0.87057095
0.86751165
0.86448552
0.86149098
0.85852734
0.85559538
0.85269586
0.84982898
0.84699464
0.84419259
0.84142248
0.83868388
0.83597629
0.83329919
0.83065202
0.82803412
0.82544525
0.82288547
0.82035169
0.81784396
0.81536192
0.81290492
0.81047204
0.8080622
0.80567438
0.80330775
0.80096283
0.79864016
0.79636092
0.79412636
0.79198429
0.79020697
0.78918083
0.79223767
0.80250509
0.8531304
1.1411028
0.8812131
0.87810452
0.87501876
0.87196088
0.86893258
0.86593256
0.86296104
0.86001883
0.8571064
0.85422396
0.85137156
0.84854912
0.8457564
0.84299309
0.8402588
0.83755309
0.83487547
0.83222531
0.82960357
0.82700823
0.82443599
0.82188862
0.81936537
0.81686497
0.81438615
0.81192755
0.80948792
0.80706672
0.80466427
0.80229175
0.79996541
0.79770275
0.79576063
0.79437351
0.79650644
0.80568454
0.84315004
1.0887764
0.8908115
0.88765921
0.88452895
0.88142485
0.87834909
0.87529964
0.87227607
0.86927898
0.86630891
0.86336623
0.86045121
0.85756397
0.85470448
0.85187261
0.8490681
0.84629063
0.84353981
0.84081514
0.83811633
0.83544453
0.83279466
0.83016869
0.82756497
0.8249823
0.82241936
0.81987457
0.81734612
0.81483223
0.81233314
0.80984658
0.80741052
0.80501043
0.80286986
0.80116311
0.80218307
0.81059264
0.83597371
1.0426229
0.90282399
0.89959189
0.89639104
0.89321912
0.89007617
0.88695869
0.88386541
0.88079661
0.87775264
0.87473386
0.87174058
0.86877304
0.86583133
0.86291541
0.86002514
0.8571603
0.85432059
0.8515056
0.84871488
0.84594808
0.84320607
0.84048648
0.83778525
0.83510326
0.83243915
0.82979091
0.82715606
0.8245314
0.82191633
0.81930137
0.81673234
0.81417298
0.8118056
0.80977811
0.80974146
0.81710324
0.83269861
1.005782
0.91758893
0.91427608
0.91098849
0.9077264
0.90449237
0.90128336
0.89809779
0.89493569
0.89179716
0.88868234
0.88559143
0.88252464
0.87948203
0.8764636
0.87346925
0.87049882
0.86755203
0.86462853
0.86172794
0.85884935
0.85599485
0.85316106
0.85034644
0.84754707
0.84476316
0.84199265
0.83923222
0.83647722
0.83372524
0.83096299
0.82823617
0.82549404
0.82287602
0.82051219
0.81953664
0.8255212
0.83320938
0.97842549
0.93556884
0.93214974
0.92875026
0.92537254
0.92202174
0.9186957
0.91539285
0.9121131
0.90885637
0.90562257
0.90241173
0.8992239
0.89605909
0.89291724
0.88979822
0.88670185
0.88362786
0.8805759
0.87754556
0.87453607
0.87154734
0.86857798
0.8656291
0.86269611
0.85977341
0.8568614
0.85395543
0.85104964
0.84813914
0.8452105
0.8422866
0.83934226
0.83645393
0.83374874
0.83187242
0.83596096
0.83964603
0.94873859
0.95727294
0.95369627
0.95014695
0.9466227
0.943127
0.93965657
0.93620908
0.93278429
0.9293821
0.92600235
0.92264502
0.91931008
0.91599748
0.9127071
0.90943875
0.90619221
0.90296718
0.89976325
0.89657996
0.89341661
0.89027245
0.88714635
0.88403692
0.88094508
0.87786419
0.87479126
0.87171686
0.86863756
0.86554573
0.86242775
0.85927322
0.85610445
0.85292535
0.84984604
0.84714694
0.84902609
0.85174341
0.92272073
0.98317547
0.97941353
0.97568894
0.97199169
0.96832259
0.96467755
0.96105397
0.95745189
0.95387161
0.95031322
0.94677687
0.94326266
0.93977056
0.93630045
0.93285213
0.92942534
0.92601972
0.92263483
0.9192701
0.9159248
0.91259795
0.90928829
0.90599402
0.90271286
0.89944497
0.89618212
0.89291693
0.88964138
0.88634462
0.88300741
0.87960741
0.87617889
0.87268394
0.86917966
0.8658256
0.86555196
0.86762063
0.90910393
1.0138376
1.0099067
1.0059916
1.0020909
0.9982117
0.99435307
0.9905136
0.98669415
0.98289566
0.97911866
0.97536361
0.97163084
0.96792049
0.96423252
0.96056676
0.95692295
0.95330069
0.9496995
0.94611871
0.9425575
0.93901473
0.93548892
0.93197802
0.9284791
0.92498904
0.92150176
0.9180136
0.91451016
0.91097647
0.90739317
0.90373056
0.89997686
0.89614918
0.89219208
0.88827172
0.88600277
0.88684234
0.90777269
1.0502681
1.0460312
1.0418323
1.0376579
1.0335088
1.0293814
1.0252731
1.0211846
1.0171172
1.0130716
1.0090487
1.0050489
1.0010728
0.99712017
0.9931911
0.9892853
0.98540237
0.98154177
0.97770277
0.97388439
0.97008537
0.96630396
0.96253781
0.95878362
0.95503699
0.95129147
0.94753896
0.94376701
0.93995812
0.93609162
0.93213468
0.92801461
0.92382806
0.91939844
0.91492674
0.91091004
0.91031604
0.91688768
1.093102
1.0885541
1.0840307
1.079524
1.0750392
1.0705751
1.0661302
1.0617059
1.057304
1.0529256
1.0485718
1.0442434
1.0399408
1.0356644
1.0314139
1.0271893
1.0229901
1.0188157
1.0146654
1.0105379
1.0064319
1.0023454
0.99827557
0.99421877
0.99016982
0.98612139
0.98206352
0.97798174
0.97385688
0.96965871
0.96535828
0.96087096
0.95624069
0.95132055
0.94625259
0.9408707
0.93883229
0.93475952
1.1436479
1.1386321
1.1336588
1.1287126
1.1237942
1.1189006
1.1140293
1.1091814
1.104359
1.0995635
1.0947963
1.0900583
1.0853502
1.0806722
1.0760246
1.0714069
1.0668189
1.0622598
1.0577288
1.0532247
1.0487457
1.0442895
1.0398532
1.0354324
1.0310213
1.0266115
1.0221917
1.0177453
1.0132506
1.0086726
1.0039739
0.99907698
0.99392859
0.98849308
0.98279112
0.97629331
0.97275217
0.96091476
1.2030514
1.1974856
1.1919642
1.1864713
1.1810079
1.1755718
1.1701611
1.1647778
1.1594245
1.1541034
1.1488162
1.1435642
1.1383484
1.1331692
1.1280267
1.1229208
1.1178509
1.1128164
1.1078162
1.1028489
1.0979126
1.0930048
1.0881219
1.083259
1.0784096
1.0735643
1.0687103
1.063829
1.0588958
1.0538721
1.0487127
1.0433369
1.0376609
1.0315858
1.0252165
1.0177214
1.0128639
0.99538222
1.2732304
1.266935
1.2606927
1.2544856
1.2483138
1.2421752
1.2360685
1.2299965
1.2239626
1.2179697
1.2120198
1.2061148
1.2002557
1.1944431
1.188677
1.1829572
1.1772832
1.1716541
1.1660686
1.1605252
1.1550216
1.1495548
1.1441209
1.1387143
1.1333276
1.1279504
1.1225684
1.1171609
1.1117004
1.1061448
1.100443
1.0945048
1.0882498
1.0814518
1.0743334
1.0658667
1.0600303
1.0381778
1.3566173
1.3493453
1.3421405
1.3349837
1.3278742
1.3208096
1.3137893
1.306817
1.2998969
1.2930322
1.2862255
1.2794786
1.2727927
1.2661682
1.259605
1.2531027
1.2466606
1.2402774
1.2339516
1.2276812
1.2214635
1.2152952
1.2091715
1.2030864
1.1970314
1.1909948
1.1849609
1.1789069
1.1728025
1.166602
1.1602486
1.1536463
1.1467013
1.1391826
1.1311522
1.1216883
1.1149644
1.0899119
1.4564982
1.4479101
1.4394132
1.4309875
1.4226306
1.4143388
1.406112
1.3979546
1.3898714
1.3818658
1.3739406
1.3660976
1.3583377
1.3506611
1.3430674
1.3355559
1.3281252
1.3207738
1.3134997
1.3063003
1.2991726
1.2921124
1.2851144
1.2781716
1.2712745
1.2644102
1.257561
1.2507023
1.2438008
1.2368075
1.2296597
1.222258
1.2144929
1.2061432
1.1971715
1.1865082
1.1787778
1.1516296
1.5775591
1.5671864
1.5569432
1.5468099
1.5367804
1.5268476
1.5170114
1.507277
1.497649
1.4881311
1.478726
1.4694354
1.4602598
1.451199
1.4422524
1.4334184
1.4246955
1.4160815
1.4075738
1.3991693
1.390864
1.3826531
1.3745305
1.366488
1.358515
1.3505969
1.3427144
1.3348405
1.3269386
1.3189567
1.3108265
1.302445
1.293693
1.2843408
1.2743701
1.2624746
1.253398
1.2244615
1.7215678
1.7088541
1.6963167
1.6839396
1.6717119
1.6596223
1.6476718
1.635867
1.6242132
1.6127145
1.6013743
1.5901943
1.5791751
1.5683163
1.5576166
1.5470743
1.536687
1.5264518
1.5163655
1.5064239
1.4966223
1.4869547
1.4774136
1.4679897
1.4586706
1.44944
1.4402763
1.4311497
1.4220206
1.4128332
1.4035141
1.3939562
1.3840329
1.3735103
1.3623661
1.3492843
1.3388682
1.3079541
1.8841678
1.8685016
1.8530724
1.8378687
1.8228739
1.8080712
1.7934646
1.7790639
1.7648761
1.7509073
1.7371618
1.7236421
1.7103488
1.697281
1.6844369
1.6718138
1.6594083
1.6472162
1.6352328
1.6234527
1.6118692
1.6004747
1.58926
1.5782136
1.5673211
1.5565637
1.5459169
1.5353481
1.5248138
1.5142542
1.503591
1.4927124
1.4814861
1.4696727
1.457257
1.4428726
1.4313322
1.3984807
2.0623079
2.043113
2.0241924
2.0055583
1.9871985
1.9690977
1.9512697
1.9337315
1.9164942
1.8995666
1.882955
1.8666618
1.850687
1.8350285
1.8196827
1.8046447
1.7899088
1.7754685
1.7613163
1.7474441
1.7338429
1.7205022
1.7074101
1.6945522
1.6819111
1.669465
1.6571862
1.645038
1.6329731
1.6209271
1.6088162
1.5965238
1.5839123
1.5707353
1.5569889
1.5412511
1.5285535
1.4939223
2.2588524
2.2351856
2.2118796
2.1889795
2.1664728
2.1443435
2.1226146
2.1013081
2.0804365
2.0600086
2.0400293
2.0204982
2.0014117
1.9827636
1.9645463
1.9467505
1.9293662
1.9123826
1.8957883
1.8795711
1.863718
1.8482147
1.8330456
1.8181926
1.8036344
1.7893455
1.7752937
1.7614385
1.7477272
1.7340905
1.7204387
1.7066487
1.6925776
1.6779695
1.6628331
1.6456817
1.6317994
1.5952238
2.4772945
2.4478726
2.4189796
2.3907332
2.3631121
2.3360856
2.3096738
2.283891
2.2587402
2.234222
2.2103327
2.1870636
2.1644032
2.1423377
2.1208522
2.0999308
2.0795574
2.059715
2.0403867
2.021555
2.0032017
1.9853079
1.9678531
1.9508146
1.9341666
1.9178786
1.9019138
1.8862261
1.8707573
1.8554317
1.8401527
1.8247891
1.8091914
1.7930906
1.776509
1.7578766
1.742794
1.7039919
2.7211568
2.6843591
2.6485772
2.6139088
2.5802343
2.5474586
2.5155749
2.4845768
2.4544516
2.4251887
2.3967742
2.3691898
2.3424147
2.3164267
2.2912025
2.2667184
2.2429507
2.2198755
2.1974691
2.1757075
2.1545664
2.1340209
2.1140447
2.0946092
2.075683
2.0572296
2.0392061
2.0215598
2.0042254
1.987119
1.9701355
1.9531333
1.9359535
1.9183098
1.9002378
1.88006
1.8637745
1.8223984
2.9945178
2.9496528
2.9060551
2.8639323
2.823129
2.7835315
2.745135
2.7079267
2.6718856
2.6369932
2.6032264
2.5705567
2.5389529
2.5083824
2.4788117
2.4502074
2.4225361
2.3957649
2.3698613
2.3447927
2.3205268
2.2970305
2.2742696
2.2522081
2.2308063
2.2100201
2.1897981
2.1700788
2.1507875
2.1318297
2.1130885
2.0944084
2.0756181
2.0564069
2.0368236
2.0150534
1.9975873
1.9532412
3.3086221
3.2530698
3.1993866
3.1478313
3.0981198
3.0500752
3.0036728
2.9588772
2.9156501
2.8739587
2.8337651
2.7950257
2.7576947
2.7217246
2.687068
2.6536777
2.6215069
2.5905098
2.5606414
2.531857
2.5041123
2.4773627
2.4515627
2.4266648
2.4026182
2.3793671
2.3568485
2.3349885
2.3136991
2.2928711
2.272372
2.2520273
2.2316478
2.2108915
2.1898174
2.1664402
2.1478528
2.1001031
3.6635743
3.5970162
3.5322544
3.4699138
3.4097479
3.3516452
3.2956414
3.2417249
3.1898674
3.1400364
3.0921854
3.0462574
3.0021903
2.959919
2.9193775
2.8804996
2.8432201
2.8074743
2.7731987
2.7403307
2.7088081
2.6785689
2.6495504
2.6216882
2.5949148
2.5691575
2.5443362
2.5203594
2.4971206
2.4744904
2.4523148
2.4303937
2.4085138
2.3862924
2.3637957
2.3388315
2.3192128
2.2675921
4.0799388
3.9965427
3.9160265
3.8391326
3.7653573
3.6944916
3.6265309
3.5614211
3.4991034
3.4395176
3.3825884
3.3282297
3.2763496
3.2268534
3.1796448
3.1346279
3.0917076
3.0507896
3.0117814
2.974592
2.9391313
2.9053105
2.8730407
2.8422321
2.8127922
2.7846241
2.7576233
2.7316734
2.7066426
2.6823745
2.6586866
2.635346
2.6121076
2.5885386
2.564708
2.538182
2.5176117
2.4616081
4.5602173
4.4564492
4.3565936
4.2617607
4.1712239
4.0847203
4.0022144
3.9236061
3.8487993
3.7776961
3.7101794
3.6461189
3.5853766
3.5278094
3.473272
3.4216186
3.3727045
3.3263867
3.2825255
3.2409842
3.2016294
3.1643312
3.1289616
3.0953939
3.0635004
3.0331504
3.0042064
2.9765197
2.9499257
2.9242341
2.8992268
2.8746315
2.8501636
2.8253328
2.8002058
2.7720784
2.7505478
2.6895658
5.1210652
4.9909948
4.8665568
4.7491976
4.6378114
4.5320367
4.43178
4.3368845
4.2472109
4.1626099
4.082901
4.0078804
3.9373284
3.8710148
3.808705
3.7501644
3.6951622
3.6434737
3.5948826
3.5491819
3.5061737
3.4656692
3.4274867
3.3914504
3.3573877
3.3251254
3.2944866
3.2652839
3.2373146
3.2103497
3.1841307
3.1583416
3.1326525
3.1065113
3.0799765
3.0500526
3.0273779
2.9606669
5.7860321
5.6225038
5.4665108
5.3201994
5.1821191
5.051923
4.9295103
4.8146701
4.707198
4.6068428
4.5132866
4.4261645
4.3450822
4.2696322
4.1994088
4.1340179
4.0730847
4.0162571
3.9632074
3.9136322
3.8672509
3.8238025
3.7830432
3.7447419
3.7086769
3.6746304
3.6423835
3.611709
3.5823646
3.5540809
3.5265567
3.4994299
3.4723204
3.4446117
3.4163462
3.3842169
3.3600059
3.2865376
6.5996509
6.3883442
6.1882243
6.0022168
5.8283488
5.6662423
5.5157245
5.3764324
5.2479286
5.1296508
5.0209161
4.9209759
4.8290644
4.7444368
4.6663958
4.594305
4.5275927
4.4657497
4.4083231
4.3549098
4.305148
4.2587098
4.215294
4.1746196
4.136419
4.1004321
4.0663988
4.0340513
4.0031055
3.9732489
3.9441319
3.9153417
3.8864373
3.8567317
3.8262375
3.7912984
3.7650055
3.6832833
7.6127599
7.3328665
7.0702135
6.8291262
6.6071352
6.4038173
6.2186405
6.0506768
5.8987089
5.761293
5.6368776
5.5239433
5.421095
5.3271072
5.2409355
5.1617017
5.0886685
5.021212
4.9587961
4.9009522
4.8472619
4.7973444
4.7508464
4.7074344
4.666788
4.6285933
4.592536
4.5582935
4.5255249
4.4938594
4.4628826
4.4321159
4.4010358
4.3688691
4.3355787
4.2970708
4.2681089
4.1756962
8.9000232
8.5164299
8.1634344
7.8463812
7.5616224
7.3079575
7.0832831
6.8845935
6.7085382
6.5516972
6.4110105
6.2839425
6.1684971
6.063143
5.9667077
5.8782708
5.7970793
5.7224861
5.6539114
5.5908188
5.5327024
5.4790799
5.4294892
5.3834861
5.3406418
5.3005389
5.262766
5.2269093
5.1925401
5.1592041
5.1263964
5.0935535
5.0600366
5.0249723
4.9882364
4.9451618
4.9128852
4.8053863
10.556896
10.02429
9.5456408
9.1287098
8.7679498
8.4588452
8.1937371
7.9639851
7.7619382
7.5817156
7.4191931
7.2717132
7.137585
7.0156488
6.904986
6.8047555
6.7141194
6.632225
6.5582119
6.4912299
6.4304567
6.3751119
6.3244657
6.2778417
6.2346154
6.1942073
6.1560713
6.1196818
6.0845102
6.0500144
6.0155866
5.9805796
5.9441958
5.9054803
5.8641117
5.8147903
5.7778043
5.6479647
12.453035
11.731864
11.100745
10.574959
10.142558
9.7858054
9.4833659
9.2183163
8.9805744
8.7652825
8.5705684
8.3956653
8.2398462
8.1020385
7.9808047
7.8744595
7.7812125
7.699288
7.6270085
7.5628439
7.5054325
7.4535845
7.4062719
7.3626106
7.321838
7.2832872
7.2463576
7.2104891
7.1751191
7.1396749
7.1034763
7.0658298
7.0257401
6.9822379
6.9345952
6.8771346
6.8328571
6.6773712
14.40055
13.450438
12.660432
12.040201
11.549913
11.145305
10.792323
10.474544
10.187636
9.9318134
9.7074469
9.5136256
9.3480906
9.2077075
9.0889787
8.9884251
8.9028194
8.8293055
8.7654373
8.7091694
8.6588205
8.6130256
8.5706834
8.5309056
8.4929662
8.4562569
8.4202393
8.3844102
8.3482421
8.3111808
8.2725088
8.2315033
8.1869866
8.1379604
8.0833122
8.0168783
7.9648076
7.7804465
16.727793
15.493633
14.529591
13.812685
13.243951
12.753059
12.311911
11.91902
11.579086
11.293406
11.058738
10.868854
10.716428
10.594198
10.495614
10.415119
10.348187
10.29124
10.241506
10.19688
10.155778
10.117025
10.079753
10.043314
10.007212
9.971039
9.9344229
9.8969843
9.8582669
9.817748
9.7746567
9.7282147
9.6769923
9.61992
9.5553705
9.4765459
9.4135805
9.1907384
19.561636
17.954016
16.794426
15.935056
15.213664
14.578923
14.034164
13.587911
13.237366
12.970506
12.771727
12.625492
12.518031
12.438111
12.377019
12.328287
12.287282
12.250783
12.216605
12.183304
12.149961
12.116014
12.081138
12.045146
12.007916
11.969333
11.929236
11.887384
11.843376
11.796688
11.746435
11.691715
11.630739
11.562276
11.484028
11.388332
11.310374
11.036499
22.982704
20.944623
19.479027
18.327151
17.373185
16.619187
16.059488
15.665879
15.402081
15.233489
15.13089
15.071325
15.037527
15.017277
15.002567
14.988502
14.97235
14.952743
14.92914
14.901485
14.870005
14.835058
14.797043
14.756324
14.713182
14.667779
14.620121
14.570042
14.517122
14.46074
14.399796
14.333144
14.258492
14.174308
14.077454
13.959052
13.860892
13.518706
27.274163
24.452205
22.32941
20.778224
19.74601
19.119947
18.771399
18.603961
18.550912
18.564464
18.610532
18.666196
18.717589
18.757082
18.781805
18.791719
18.788216
18.773093
18.748176
18.715177
18.675623
18.630821
18.581831
18.529458
18.474254
18.416519
18.35629
18.293337
18.227085
18.156682
18.080667
17.997485
17.904188
17.798714
17.676992
17.528325
17.403651
16.968324
32.506693
27.869162
24.802078
23.357594
22.876865
22.8391
22.99736
23.242257
23.511795
23.765143
23.978624
24.142921
24.258426
24.330321
24.366246
24.373949
24.359825
24.328969
24.285414
24.232349
24.172262
24.107039
24.038053
23.966234
23.892128
23.815936
23.737519
23.656409
23.571714
23.482187
23.38586
23.280573
23.162609
23.029029
22.874973
22.686931
22.528657
21.966014
37.961692
29.55072
26.82495
27.158411
28.220356
29.289466
30.244949
31.060098
31.714436
32.203613
32.542865
32.758793
32.8799
32.93105
32.932597
32.899901
32.843436
32.770544
32.686513
32.595164
32.499199
32.400441
32.300039
32.198617
32.096376
31.993149
31.888408
31.781258
31.670335
31.55383
31.429142
31.293289
31.141769
30.970288
30.773801
30.534518
30.333705
29.598112
40.054244
28.101892
30.392999
35.030845
38.658564
41.313808
43.299045
44.73599
45.704938
46.304199
46.636165
46.787185
46.820754
46.779492
46.691464
46.574821
46.441083
46.297799
46.149968
46.000775
45.852097
45.704896
45.559514
45.415854
45.273478
45.131645
44.989282
44.844956
44.696745
44.542201
44.378076
44.200438
44.004284
43.783398
43.534158
43.232626
42.979997
42.036621
32.373272
25.97062
41.236664
52.936238
60.003682
64.604041
67.653781
69.514578
70.517476
70.968822
71.095085
71.040198
70.889023
70.685678
70.454678
70.211585
69.96618
69.724141
69.488342
69.259842
69.038627
68.824114
68.615429
68.41153
68.211232
68.013186
67.815809
67.617204
67.415035
67.206388
66.987717
66.754375
66.50183
66.221656
65.915114
65.550181
65.240388
64.160141
13.7331
31.735539
68.82403
88.412904
98.531018
104.7601
108.45215
110.30081
111.02729
111.16042
111.00393
110.71477
110.37372
109.99794
109.60801
109.22446
108.85616
108.50518
108.17081
107.8512
107.54428
107.24801
106.96055
106.68024
106.40549
106.13475
105.86639
105.59863
105.32945
105.05635
104.77678
104.48668
104.18449
103.86074
103.52752
103.14333
102.81909
101.97311
9.6865582
59.946065
122.94289
147.49363
159.65013
167.28744
171.43566
173.16673
173.63509
173.53056
173.17762
172.72444
172.24571
171.70864
171.15424
170.62496
170.12722
169.65751
169.21124
168.7842
168.37293
167.97465
167.58718
167.20881
166.83816
166.47412
166.11581
165.7625
165.41375
165.06905
164.72889
164.39244
164.06428
163.73829
163.44111
163.12841
162.90767
162.69246
20.607419
175.79524
265.81205
284.56527
301.6001
315.78462
324.2026
328.15219
329.79032
330.30518
330.2339
329.8522
329.32509
328.50385
327.58597
326.71104
325.87844
325.07778
324.302
323.54616
322.80675
322.08133
321.36823
320.66645
319.97553
319.29559
318.62731
317.97219
317.33246
316.71189
316.11495
315.55002
315.02416
314.55629
314.15277
313.86187
313.61781
314.27603
841.97105
497.46151
883.06985
927.72103
994.56947
1064.5599
1111.4525
1137.0815
1150.7173
1157.7804
1161.0102
1162.0014
1161.7516
1159.5976
1156.7609
1153.9577
1151.1874
1148.4418
1145.717
1143.0104
1140.3204
1137.6458
1134.986
1132.3407
1129.71
1127.0942
1124.4941
1121.9112
1119.3471
1116.8058
1114.2891
1111.8084
1109.3588
1106.9809
1104.6222
1102.4524
1100.1404
1099.0359
14951.358
14519.9
14431.844
14403.387
14373.086
14342.445
14313.617
14286.58
14260.634
14235.339
14210.459
14185.853
14161.432
14137.246
14113.19
14089.204
14065.287
14041.437
14017.655
13993.939
13970.291
13946.708
13923.191
13899.74
13876.354
13853.033
13829.778
13806.588
13783.463
13760.403
13737.409
13714.482
13691.62
13668.832
13646.102
13623.47
13600.853
13578.321
14833.769
16006.816
17983.755
19531.381
20928.731
22175.576
23295.49
24304.411
25209.226
26014.122
26722.093
27335.331
27855.616
28284.626
28624.215
28876.747
29044.514
29130.53
29138.26
29071.584
28934.748
28732.296
28468.992
28149.743
27779.505
27364.288
890.88154
637.9335
2402.8857
1517.5095
1882.4507
2165.3581
2388.775
2565.0393
2712.991
2842.9286
2958.0164
3058.8957
3145.4446
3217.5328
3275.0028
3316.2513
3343.6978
3357.6994
3358.7314
3347.3972
3324.4075
3290.5563
3246.6898
3193.7071
3132.3859
3061.0938
61.052478
176.06135
449.76698
565.99944
687.31767
759.62546
813.79495
858.62357
898.43337
934.75133
967.6556
996.93503
1022.3288
1043.6349
1060.6253
1072.854
1080.8199
1084.5821
1084.2295
1079.9031
1071.789
1060.1045
1045.0745
1026.9562
1005.8392
981.57115
4.5275634
44.333334
140.89892
282.97337
386.11482
440.79876
470.43773
490.39768
507.73083
524.14934
539.4488
553.24613
565.27287
575.37158
583.38745
589.13243
592.73048
594.2065
593.58825
590.9278
586.30214
579.80759
571.54312
561.65298
550.1806
537.15668
0.82483918
12.503989
51.301134
136.61225
223.08925
281.61664
311.81496
328.1813
340.22857
350.92435
360.85669
369.83364
377.6583
384.21871
389.40474
393.11469
395.37307
396.19953
395.61639
393.66045
390.38601
385.8638
380.16881
373.43028
365.73469
357.15816
0.0081125214
1.1416657
16.404557
52.492151
105.39007
157.17438
191.62289
210.98726
223.32967
231.97069
239.28485
245.57898
250.94848
255.39805
258.89923
261.40883
262.92258
263.45569
263.03007
261.67742
259.44095
256.37613
252.54303
248.05215
243.01177
237.50611
0.017796344
2.3883828
7.1659775
19.45221
43.797954
76.528279
106.07958
126.93869
141.27314
150.98003
158.25754
163.67561
168.03235
171.48333
174.14433
176.05547
177.24394
177.73635
177.55991
176.74776
175.33764
173.37382
170.90364
168.01319
164.80617
161.35703
0.02592488
3.218656
5.3708973
9.7836907
19.118963
35.934162
57.364092
76.271564
90.044302
99.535663
106.59898
112.26192
116.64423
119.86561
122.30624
124.05557
125.20525
125.80152
125.88429
125.49458
124.66868
123.44535
121.86453
119.99348
117.92238
115.70608
0.025159412
0.55727401
4.317273
6.8254713
10.799035
17.571963
28.981886
43.449652
56.623977
66.422486
73.140067
78.060346
82.029623
85.385741
87.962695
89.776579
91.048884
91.823392
92.167418
92.132086
91.749644
91.058225
90.094478
88.912217
87.587348
86.1523
0.13371887
1.8234947
4.626232
5.9948158
7.7401619
10.432603
15.155976
22.757507
33.005873
42.221862
49.677547
54.870488
58.512593
61.300097
63.614309
65.592254
67.101433
68.086199
68.699201
68.988042
68.97334
68.703229
68.212253
67.543947
66.763093
65.885335
0.83586408
2.3283035
4.573794
5.6394046
6.4185072
7.6046031
9.4660833
12.629041
17.640896
24.813039
31.486834
37.184071
41.457127
44.400778
46.510135
48.163674
49.526618
50.693917
51.594045
52.179044
52.459388
52.514719
52.383535
52.100197
51.721791
51.251998
1.1351405
2.3798425
4.2489702
5.2263699
5.7061406
6.254314
7.0420207
8.3328859
10.345405
13.820848
18.628646
23.559735
27.764072
31.206951
33.759756
35.555863
36.841292
37.857829
38.653213
39.289259
39.79054
40.122849
40.284286
40.29969
40.224349
40.054759
1.2967323
2.3203612
3.8784474
4.742192
5.1602926
5.4507489
5.817807
6.3645999
7.2125978
8.5728974
10.915591
13.857383
17.390227
20.594894
23.2733
25.452201
27.061942
28.216229
29.026067
29.609556
30.063419
30.407445
30.664631
30.853114
31.008359
31.076904
1.3618621
2.2030149
3.5109245
4.2547726
4.6446179
4.8559683
5.051912
5.2889069
5.6492975
6.2127461
7.1437808
8.4755708
10.3516
12.564479
14.974508
17.128567
18.838655
20.236378
21.310346
22.081267
22.630954
23.025255
23.312407
23.528844
23.724933
23.86257
1.3752793
2.0694398
3.1625602
3.79933
4.1501087
4.3426998
4.472066
4.5963677
4.7480467
4.9829223
5.3676092
5.9315068
6.7103951
7.7957709
9.152111
10.603261
12.152897
13.599769
14.776085
15.69448
16.437521
17.030656
17.482014
17.813942
18.081027
18.274462
1.3506233
1.9130558
2.7894274
3.3162593
3.6159835
3.7918215
3.8976421
3.9774402
4.0439847
4.1180135
4.239827
4.4304506
4.702076
5.0780072
5.5599358
6.1576152
6.931158
7.7477832
8.6133591
9.5214626
10.379251
11.134283
11.746517
12.220846
12.623945
12.948335
1.3010811
1.7508602
2.4191996
2.8404982
3.0939538
3.2527198
3.3554696
3.4255751
3.4798172
3.5180839
3.5536218
3.6094443
3.6955578
3.8211848
3.9905312
4.2037818