/*--------------------------------*- C++ -*----------------------------------*\
  =========                 |
  \\      /  F ield         | OpenFOAM: The Open Source CFD Toolbox
   \\    /   O peration     | Website:  https://openfoam.org
    \\  /    A nd           | Version:  7
     \\/     M anipulation  |
\*---------------------------------------------------------------------------*/
FoamFile
{
    version     2.0;
    format      ascii;
    class       volSymmTensorField;
    location    "2000";
    object      R;
}
// * * * * * * * * * * * * * * * * * * * * * * * * * * * * * * * * * * * * * //

dimensions      [0 2 -2 0 0 0 0];

internalField   nonuniform List<symmTensor> 
15296
(
(0.0011702272 8.470012e-06 3.1369963e-15 0.0011142985 -1.4046694e-16 0.0011030494)
(0.0011262848 3.8231839e-06 3.1778057e-15 0.001125326 1.4897222e-16 0.0011250504)
(0.0011168562 3.5095205e-06 1.4462911e-19 0.0011240178 -2.9048131e-17 0.0011252375)
(0.0011088843 3.0859072e-06 3.2628071e-15 0.0011223202 7.495511e-17 0.0011246668)
(0.0011016374 2.8309823e-06 -3.3057392e-15 0.001120479 -1.2881006e-16 0.0011237764)
(0.001096546 2.6074023e-06 3.3486927e-15 0.0011179413 3.5872461e-17 0.0011216602)
(0.0010929332 2.4364805e-06 3.3960697e-15 0.0011149497 1.8844594e-16 0.0011187321)
(0.0010901374 2.3130713e-06 2.0504839e-18 0.0011117433 9.2106318e-19 0.0011153991)
(0.0010879087 2.1605042e-06 9.4629154e-19 0.0011084075 -8.9070436e-17 0.0011118122)
(0.0010860575 2.1344908e-06 7.07786e-15 0.0011050064 -5.2482274e-17 0.0011080855)
(0.0010844029 1.9877071e-06 -6.5927237e-19 0.0011016034 -2.7738152e-17 0.0011043266)
(0.0010828282 2.0310347e-06 -1.2910779e-19 0.0010982378 -1.8954099e-17 0.0011006034)
(0.0010812711 1.9362606e-06 -3.6922184e-15 0.0010949297 -9.3921435e-17 0.0010969504)
(0.0010797045 2.0235358e-06 3.7444972e-15 0.0010916859 1.5915314e-16 0.00109338)
(0.0010781242 1.9645761e-06 4.1698833e-19 0.0010885049 -4.0713398e-17 0.0010898912)
(0.0010765418 1.9225859e-06 3.8526644e-15 0.0010853801 9.9588422e-17 0.0010864725)
(0.0010749943 1.9878445e-06 1.0714542e-19 0.0010822934 1.1330217e-16 0.0010830978)
(0.0010735288 2.0030392e-06 3.9684855e-15 0.0010792246 1.3544171e-16 0.0010797352)
(0.0010722135 2.0680843e-06 4.0272269e-15 0.0010761449 -3.3536788e-17 0.0010763406)
(0.001071142 2.1231908e-06 -7.0848664e-20 0.0010730149 -4.6057088e-17 0.0010728542)
(0.0010704417 2.2050149e-06 -4.7594536e-20 0.0010697824 -3.1771884e-17 0.0010691965)
(0.0010702953 2.4585687e-06 -1.1011195e-18 0.0010663717 -2.7871685e-17 0.001065255)
(0.0010709565 2.6204177e-06 4.2766867e-15 0.0010626793 1.6847442e-16 0.0010608752)
(0.0010727917 3.0814622e-06 -4.3410597e-15 0.0010585547 -4.0488084e-17 0.0010558365)
(0.0010763369 3.5969705e-06 -2.4608432e-19 0.0010537771 -3.1518924e-17 0.00104982)
(0.0010823731 4.372367e-06 -4.4783668e-15 0.0010480231 3.2079014e-17 0.0010423668)
(0.0010920876 5.6042156e-06 -4.5494941e-15 0.001040797 -9.8739494e-17 0.0010327894)
(0.0011072538 7.1950029e-06 -5.1354576e-19 0.0010313485 -4.4318101e-17 0.0010200795)
(0.0011307244 9.5003703e-06 6.7408626e-20 0.0010184628 -5.4074504e-18 0.0010026462)
(0.0011667875 1.2613152e-05 -4.7785998e-15 0.0010002425 3.6923086e-16 0.00097814021)
(0.0012233518 1.6789311e-05 -4.9815426e-15 0.00097321372 5.9457473e-16 0.00094231088)
(0.0013116251 2.2136977e-05 9.954297e-16 0.00093220887 -3.4953062e-15 0.00088945147)
(0.0014625518 2.9131995e-05 3.8063453e-15 0.00086346845 4.112403e-14 0.00080326899)
(0.0015984933 3.4287735e-05 -5.5741664e-14 0.00079806196 5.3765854e-13 0.00072968757)
(0.0015982665 3.5216277e-05 6.4742603e-14 0.00078820792 -5.9797772e-13 0.00073871341)
(0.0015977517 3.7166982e-05 -1.4103707e-12 0.00076879482 -1.0969334e-11 0.00075805286)
(0.0016226381 3.7207249e-05 -6.299366e-10 0.00074435151 2.4167732e-10 0.00081290959)
(0.0015830994 -0.00022805113 -7.2960929e-10 0.00078886988 3.5730416e-08 0.00084682236)
(0.0011677928 1.8889705e-05 -4.2495147e-19 0.0011118664 1.8074127e-17 0.0011080348)
(0.0011261973 9.2484396e-06 -1.0585243e-15 0.0011253647 -3.094036e-17 0.0011252135)
(0.0011167968 8.2205672e-06 1.073126e-15 0.0011246399 2.556761e-17 0.0011247961)
(0.0011087671 7.6169152e-06 4.2720383e-19 0.0011234455 2.9859466e-17 0.0011237832)
(0.0011014675 7.1378202e-06 4.350423e-19 0.0011220315 -3.2342438e-17 0.001122521)
(0.0010963437 6.8101834e-06 1.1142893e-15 0.0011196886 2.3242165e-17 0.0011202449)
(0.0010927157 6.5373495e-06 -9.9676081e-19 0.0011167323 1.0043956e-16 0.0011172988)
(0.001089913 6.3128997e-06 3.9588533e-18 0.0011134765 9.0563832e-18 0.0011140238)
(0.001087686 6.1582122e-06 -1.1611314e-15 0.0011100344 -2.9211329e-17 0.0011105432)
(0.0010858406 5.9670336e-06 -3.592519e-20 0.0011064937 -4.6786107e-17 0.0011069522)
(0.0010841961 5.8544661e-06 -1.1987162e-15 0.0011029359 -8.8107263e-17 0.0011033392)
(0.0010826331 5.7308211e-06 1.2123343e-15 0.001099414 1.067016e-18 0.0010997618)
(0.0010810883 5.6049303e-06 2.4605783e-15 0.0010959547 1.0389597e-17 0.0010962488)
(0.0010795342 5.5878808e-06 1.6178249e-18 0.0010925674 1.1659712e-16 0.0010928104)
(0.0010779636 5.4291268e-06 -1.2658929e-15 0.0010892522 -1.0741825e-16 0.001089447)
(0.0010763953 5.3538907e-06 1.2833329e-15 0.001085997 6.0209315e-17 0.0010861457)
(0.0010748612 5.3476981e-06 8.0150188e-19 0.0010827825 1.0120096e-16 0.0010828859)
(0.0010734095 5.2591098e-06 -1.3226675e-15 0.0010795835 4.5760468e-17 0.0010796406)
(0.0010721108 5.2185127e-06 -8.9689137e-19 0.0010763632 -1.0806028e-17 0.0010763706)
(0.0010710596 5.1344358e-06 -2.0448627e-19 0.0010730736 6.0870575e-17 0.0010730245)
(0.0010703882 5.1134421e-06 5.143743e-20 0.0010696479 3.7234918e-18 0.0010695313)
(0.0010702785 5.0494274e-06 -1.7380994e-18 0.0010659961 -4.7349247e-17 0.0010657947)
(0.0010709924 5.043796e-06 1.1763832e-18 0.0010619891 3.9933067e-17 0.0010616771)
(0.001072904 5.0144065e-06 1.9987672e-18 0.0010574439 -2.8588217e-17 0.0010569829)
(0.0010765574 4.9767278e-06 -1.4705813e-15 0.0010520957 -5.0816448e-17 0.0010514293)
(0.0010827572 4.8842489e-06 9.5661978e-20 0.001045555 -1.8884931e-17 0.0010445996)
(0.0010927132 4.8210915e-06 3.0319061e-15 0.0010372396 -4.2406957e-17 0.00103587)
(0.001108245 4.6698178e-06 3.0813989e-15 0.0010262788 1.3918752e-17 0.0010243064)
(0.0011322849 4.3890186e-06 4.8115018e-18 0.0010112822 5.8043064e-18 0.0010084137)
(0.0011692456 3.6837232e-06 -1.9675143e-17 0.00099014142 1.065256e-16 0.00098592837)
(0.0012272905 2.3438779e-06 1.082571e-15 0.00095901172 5.6721934e-16 0.00095271374)
(0.0013180007 1.4643324e-08 7.2933434e-15 0.00091245242 -9.0683696e-15 0.00090295909)
(0.0014734812 -4.2943738e-06 3.9658308e-14 0.00083538294 -9.4970839e-15 0.0008205351)
(0.0016013882 -9.1035258e-06 -1.9814801e-13 0.00077136059 8.1097999e-13 0.00075358961)
(0.0016007964 -1.1482454e-05 4.6466114e-14 0.00076858186 -3.0296036e-13 0.00075588371)
(0.0016003255 -1.2924622e-05 1.3438707e-11 0.00076354179 -3.1032984e-11 0.00076051134)
(0.0016288122 -1.5943012e-05 -1.3524105e-09 0.00076864063 -3.7829547e-10 0.0007829882)
(0.001389434 -0.000343027 -2.5870325e-09 0.00068680009 3.1803634e-08 0.0011025933)
(0.0011643449 2.9328151e-05 -8.8946124e-19 0.0011136754 2.6002541e-17 0.0011099239)
(0.0011260176 1.5552524e-05 6.3774724e-16 0.0011256252 7.6267234e-18 0.0011253804)
(0.0011168913 1.3363981e-05 -1.2884021e-15 0.0011247735 5.3968857e-17 0.0011248248)
(0.0011089153 1.2486717e-05 -1.3059523e-15 0.001123596 3.191925e-17 0.001123745)
(0.0011016549 1.1756569e-05 6.6239393e-16 0.0011222004 -2.7596302e-17 0.0011224275)
(0.0010965514 1.119618e-05 -6.7412262e-16 0.001119863 -5.7902676e-17 0.0011201276)
(0.0010929296 1.0749264e-05 -1.7318765e-18 0.0011169043 9.473167e-17 0.0011171791)
(0.0010901286 1.0409899e-05 -6.8418425e-16 0.0011136407 1.2948619e-19 0.0011139115)
(0.0010878964 1.0106044e-05 -6.9495232e-16 0.0011101892 -5.6207672e-17 0.0011104462)
(0.0010860441 9.8764861e-06 -1.1291073e-18 0.001106637 -1.2104644e-16 0.0011068741)
(0.0010843914 9.65773e-06 -2.5922195e-18 0.0011030673 -1.0010463e-16 0.0011032815)
(0.0010828182 9.4342995e-06 -1.4573321e-15 0.0010995347 -1.5605928e-17 0.0010997253)
(0.0010812659 9.3411401e-06 -6.2649525e-19 0.0010960639 2.540552e-17 0.0010962312)
(0.0010797017 9.1423267e-06 -7.4878801e-16 0.0010926671 2.7372011e-17 0.0010928122)
(0.0010781224 8.9719946e-06 7.6068705e-16 0.0010893425 -1.2620951e-16 0.0010894662)
(0.0010765469 8.8664396e-06 5.5371151e-20 0.001086078 8.2193195e-17 0.0010861811)
(0.0010750024 8.7188994e-06 -1.5643985e-15 0.001082856 3.445505e-17 0.0010829384)
(0.0010735396 8.6162834e-06 -7.9481053e-16 0.0010796499 1.2956081e-18 0.0010797107)
(0.0010722281 8.4970019e-06 -8.2886537e-19 0.0010764225 -2.3274248e-17 0.0010764596)
(0.0010711615 8.3997964e-06 -8.1822606e-16 0.0010731256 1.0332989e-16 0.0010731351)
(0.001070468 8.2818255e-06 -8.3199503e-16 0.0010696938 5.4361797e-18 0.0010696692)
(0.0010703298 8.1779551e-06 8.4040023e-16 0.0010660354 4.4167668e-18 0.0010659668)
(0.0010710027 8.0604566e-06 1.7141999e-15 0.0010620224 8.0603625e-17 0.0010618949)
(0.0010728535 7.930235e-06 -8.6687229e-16 0.0010574731 -7.109306e-17 0.0010572644)
(0.0010764198 7.8289885e-06 -1.603531e-19 0.0010521222 -5.9222362e-17 0.0010517992)
(0.0010824886 7.7039949e-06 -8.9606647e-16 0.0010455839 -2.4537615e-18 0.0010450967)
(0.0010922487 7.577808e-06 -9.1343671e-16 0.0010372784 -6.2066631e-17 0.0010365513)
(0.0011074775 7.4044195e-06 9.2423237e-16 0.001026345 4.1416961e-17 0.0010252611)
(0.0011310367 7.1787172e-06 -9.3165375e-16 0.0010114106 -1.6721956e-17 0.0010097839)
(0.0011672219 6.83831e-06 -9.7507733e-16 0.00099040286 -2.4304141e-17 0.00098793649)
(0.0012239872 6.5359912e-06 -2.9496698e-15 0.00095954166 1.3543227e-15 0.00095572476)
(0.0013124821 6.1330735e-06 5.7728682e-15 0.00091358282 -8.9315246e-15 0.00090756793)
(0.0014639074 5.826556e-06 7.6843546e-14 0.00083784855 -1.2578182e-13 0.00082784088)
(0.0016016848 4.2894228e-06 -3.2791174e-13 0.00076920984 9.9440677e-13 0.00075562859)
(0.0016011218 1.2571889e-06 -9.7311597e-13 0.00076845493 2.1679681e-12 0.00075583206)
(0.0016005167 -2.2500263e-07 4.5643801e-11 0.00076729379 -5.8010508e-11 0.00075639066)
(0.0016301554 -2.5878689e-06 -1.1809823e-09 0.00078334567 -6.4758156e-11 0.0007686019)
(0.0013820436 -0.00028486685 -4.6610882e-09 0.00062149873 1.8636591e-08 0.0010784964)
(0.0011618428 3.8834318e-05 -5.61336e-19 0.001115108 6.9184646e-18 0.001111362)
(0.0011257951 2.2121891e-05 -4.5154926e-16 0.0011259939 4.8330048e-17 0.0011256109)
(0.0011169542 1.8627927e-05 4.6319915e-19 0.0011249725 8.9296194e-18 0.0011249481)
(0.0011090005 1.738444e-05 -1.1136606e-18 0.0011238081 -1.4662129e-17 0.0011238362)
(0.0011017362 1.6368654e-05 -5.7329553e-19 0.0011224409 -1.6028472e-17 0.0011224963)
(0.0010966311 1.5584577e-05 4.7575172e-16 0.0011201161 -4.0720636e-17 0.0011201865)
(0.0010930114 1.5016396e-05 -1.374831e-18 0.0011171588 9.3976303e-17 0.0011172354)
(0.0010902115 1.4487343e-05 4.9750144e-16 0.0011138922 -2.7910906e-17 0.0011139699)
(0.0010879828 1.4073587e-05 5.0280485e-16 0.0011104332 -7.4460709e-17 0.0011105085)
(0.0010861335 1.3744142e-05 -1.8256843e-18 0.0011068713 -1.3644804e-16 0.0011069422)
(0.0010844827 1.3413807e-05 5.1107831e-16 0.0011032916 -7.575389e-17 0.0011033569)
(0.0010829157 1.3219079e-05 7.3510413e-19 0.0010997465 -2.3456747e-17 0.0010998059)
(0.0010813651 1.2976456e-05 -5.2883825e-16 0.0010962653 -1.4104546e-17 0.0010963187)
(0.0010798025 1.2710275e-05 -6.1507441e-19 0.0010928586 -5.7600854e-17 0.0010929063)
(0.0010782275 1.2568027e-05 1.7830369e-18 0.0010895232 -4.0777351e-17 0.0010895653)
(0.0010766531 1.2381173e-05 -1.1011132e-15 0.0010862495 6.4005413e-17 0.001086286)
(0.0010751111 1.216379e-05 2.1603921e-19 0.0010830176 2.5343494e-17 0.0010830487)
(0.0010736505 1.202654e-05 -1.0487665e-18 0.0010798012 4.8229169e-17 0.0010798265)
(0.0010723402 1.1822036e-05 1.1160398e-19 0.0010765634 -9.8391058e-18 0.0010765824)
(0.0010712736 1.1687327e-05 -1.1690903e-15 0.0010732551 2.5625738e-17 0.0010732667)
(0.0010705807 1.1556576e-05 -5.9640604e-16 0.0010698092 -3.0547976e-17 0.0010698117)
(0.0010704411 1.1399403e-05 -6.0522725e-16 0.0010661338 3.9815852e-17 0.0010661247)
(0.0010711116 1.1214154e-05 -6.0989611e-16 0.001062099 1.2399737e-16 0.0010620744)
(0.0010729607 1.1038819e-05 1.2439043e-15 0.001057519 -5.4303236e-17 0.0010574734)
(0.0010765218 1.0835803e-05 -6.2998382e-16 0.0010521266 -6.4016829e-17 0.0010520518)
(0.0010825827 1.0654406e-05 4.8238367e-19 0.0010455289 -2.8096899e-17 0.0010454132)
(0.0010923286 1.0395309e-05 6.471354e-16 0.001037138 -7.2679166e-17 0.001036964)
(0.0011075352 1.0099589e-05 6.6028346e-16 0.0010260769 7.4849953e-17 0.0010258195)
(0.0011310637 9.673724e-06 1.0662231e-17 0.0010109446 -2.0662709e-17 0.0010105659)
(0.0011671996 9.0349006e-06 -3.3294935e-18 0.00098962797 -1.6356507e-16 0.0009890702)
(0.0012238881 8.1427009e-06 -1.5455828e-15 0.00095826281 2.5095996e-15 0.00095742874)
(0.001312178 6.5035498e-06 6.4932326e-15 0.00091152041 -8.6113571e-15 0.00091024099)
(0.0014632508 3.5894107e-06 1.2556182e-13 0.00083436278 -2.7683873e-13 0.0008322628)
(0.0016019089 -1.2263071e-06 -3.8697591e-13 0.00076392839 1.2590234e-12 0.00076095315)
(0.0016012552 -5.7469931e-06 -3.4764757e-12 0.00076366815 6.7879233e-12 0.00076070669)
(0.0016004454 -8.3374675e-06 8.7027532e-11 0.00076347226 -1.0252069e-10 0.00076022037)
(0.0016306582 -1.2486123e-05 -1.3495017e-09 0.0007838543 3.7296352e-10 0.00076891386)
(0.0013876247 -0.00026189536 -1.0900879e-09 0.00060712526 6.0660788e-10 0.0010451927)
(0.0011594811 4.7426823e-05 -1.2834502e-19 0.0011168581 1.9461127e-18 0.0011124562)
(0.0011255428 2.8757645e-05 3.4990818e-18 0.0011264559 2.3248074e-17 0.0011259063)
(0.0011170378 2.3987019e-05 -4.9246383e-19 0.0011252191 -3.7891543e-17 0.0011251303)
(0.0011091396 2.224595e-05 3.618462e-16 0.0011240155 5.1558968e-18 0.0011240053)
(0.0011018875 2.0982299e-05 3.6765654e-16 0.0011226419 -5.5784298e-18 0.0011226613)
(0.0010967906 1.9958383e-05 -3.3268804e-18 0.0011203129 2.7449533e-17 0.0011203483)
(0.0010931728 1.92153e-05 -2.1419227e-18 0.0011173535 8.3641001e-17 0.0011173971)
(0.0010903744 1.8559711e-05 3.8781514e-16 0.0011140841 1.9878999e-17 0.0011141319)
(0.0010881469 1.8048908e-05 3.9215587e-16 0.0011106222 -3.6438836e-17 0.0011106709)
(0.0010862972 1.7622861e-05 7.8559276e-16 0.0011070579 -7.5895412e-17 0.0011071056)
(0.0010846486 1.7239179e-05 3.9770679e-16 0.0011034743 -1.2094117e-17 0.0011035198)
(0.0010830796 1.6932301e-05 -4.0380032e-16 0.0010999273 3.5661616e-18 0.0010999701)
(0.0010815269 1.6590205e-05 -1.6978645e-18 0.0010964443 -4.9649957e-17 0.0010964841)
(0.0010799661 1.6313865e-05 4.1640266e-16 0.0010930338 -4.0536099e-17 0.0010930705)
(0.0010783901 1.6101603e-05 -4.1917155e-16 0.001089696 -9.3362247e-18 0.0010897296)
(0.0010768132 1.5852519e-05 -4.268616e-16 0.0010864205 8.1026595e-18 0.001086451)
(0.0010752697 1.5622747e-05 -1.3050062e-15 0.0010831863 -6.026221e-18 0.0010832135)
(0.0010738063 1.5374328e-05 -8.8503959e-16 0.0010799683 8.2560539e-17 0.001079992)
(0.0010724928 1.521201e-05 -4.4923951e-16 0.001076729 -2.5937296e-17 0.0010767486)
(0.0010714238 1.4977275e-05 -2.5854558e-19 0.0010734185 -6.0154041e-18 0.0010734332)
(0.0010707239 1.4799478e-05 4.5872943e-16 0.0010699725 -5.3425929e-17 0.001069981)
(0.0010705753 1.457395e-05 4.6710538e-16 0.0010662978 -1.1451142e-18 0.0010662981)
(0.0010712341 1.439342e-05 -9.5044243e-16 0.0010622645 7.6482135e-17 0.0010622535)
(0.001073064 1.4119818e-05 4.8343764e-16 0.001057689 -2.7313941e-17 0.0010576624)
(0.0010765992 1.3884579e-05 4.9169703e-16 0.0010523036 -8.1317234e-17 0.001052255)
(0.0010826201 1.3614138e-05 6.1576882e-19 0.0010457188 -3.8644652e-17 0.0010456385)
(0.0010923067 1.3273217e-05 5.0314656e-16 0.0010373487 -2.586802e-17 0.0010372224)
(0.0011074222 1.2866892e-05 -5.7322634e-19 0.0010263223 9.6808478e-17 0.0010261283)
(0.0011308055 1.2289438e-05 1.0655256e-17 0.0010112492 -4.2843692e-17 0.0010109537)
(0.0011667068 1.1557244e-05 5.6701014e-16 0.00099003262 -2.6670018e-16 0.00098958394)
(0.0012230181 1.0437004e-05 -2.0963743e-15 0.00095883144 3.8676531e-15 0.00095814303)
(0.0013106228 8.5796376e-06 2.122452e-15 0.00091238781 -4.6181592e-15 0.00091131981)
(0.0014605304 5.6004642e-06 1.7793715e-13 0.0008357178 -4.6213305e-13 0.00083398796)
(0.0016020913 4.1592043e-07 -2.8630124e-13 0.00076382443 1.4441824e-12 0.00076122406)
(0.0016014101 -5.3629677e-06 -8.1501466e-12 0.00076380875 1.4387863e-11 0.00076070454)
(0.0016004685 -8.7744086e-06 1.5372603e-10 0.00076407912 -1.5239799e-10 0.00075966538)
(0.0016306388 -1.3600905e-05 -1.891738e-09 0.00078647132 5.9815102e-10 0.0007664581)
(0.0014019556 -0.00024729737 1.751924e-08 0.00060278143 8.9223933e-09 0.0010301476)
(0.0011568251 5.6990737e-05 -8.6391723e-20 0.0011190409 -3.2004661e-18 0.0011136992)
(0.0011252043 3.7264145e-05 3.8071367e-18 0.0011271628 -1.359472e-17 0.0011263547)
(0.0011171338 3.0884774e-05 -1.7720304e-19 0.0011256503 -5.5008394e-17 0.0011254276)
(0.0011093383 2.8487935e-05 -7.3713985e-16 0.0011243583 2.3238184e-17 0.001124292)
(0.0011021123 2.68858e-05 -3.7328614e-16 0.0011229568 -4.1538011e-17 0.0011229515)
(0.0010970251 2.5597603e-05 -3.1926512e-18 0.0011206164 5.655179e-18 0.0011206401)
(0.0010934154 2.4612067e-05 -2.638299e-18 0.0011176491 4.7613099e-17 0.0011176874)
(0.0010906205 2.3851983e-05 -3.8361642e-16 0.0011143747 6.6226731e-17 0.0011144211)
(0.001088396 2.3173954e-05 3.3813047e-18 0.0011109089 -7.6987879e-18 0.0011109581)
(0.0010865473 2.2649893e-05 -2.3451631e-18 0.001107342 -3.6373807e-17 0.0011073905)
(0.0010848969 2.2159937e-05 -1.3782667e-18 0.0011037574 5.3258538e-18 0.0011038032)
(0.0010833283 2.1696329e-05 5.2210376e-19 0.0011002081 -2.3007101e-17 0.0011002502)
(0.001081776 2.1324838e-05 4.1387849e-16 0.0010967227 -5.5595279e-17 0.0010967607)
(0.0010802139 2.1003956e-05 4.2259956e-16 0.0010933105 1.4195703e-17 0.0010933441)
(0.0010786363 2.0659033e-05 4.5595848e-18 0.0010899709 -2.1630699e-17 0.0010900001)
(0.0010770577 2.0326496e-05 2.4007216e-18 0.0010866938 -4.1874278e-17 0.0010867185)
(0.001075511 2.0048264e-05 4.4332748e-16 0.0010834587 -7.9540226e-17 0.0010834785)
(0.0010740465 1.9758249e-05 -8.9786859e-16 0.0010802386 1.3351151e-17 0.0010802531)
(0.0010727289 1.951541e-05 4.5219103e-16 0.0010769986 -3.6772567e-17 0.0010770069)
(0.0010716514 1.9256684e-05 -4.61685e-16 0.00107369 -3.5940264e-18 0.0010736908)
(0.0010709449 1.8947457e-05 -4.7271067e-16 0.0010702452 -6.4566915e-17 0.0010702363)
(0.0010707859 1.8678313e-05 9.4958744e-16 0.001066574 1.6950227e-17 0.0010665523)
(0.0010714276 1.8410138e-05 2.0959711e-18 0.0010625484 -6.7791669e-18 0.001062509)
(0.0010732358 1.8144223e-05 -1.4255948e-18 0.0010579842 -7.5112877e-18 0.0010579204)
(0.0010767392 1.7830484e-05 4.9878054e-16 0.0010526169 4.3778924e-17 0.0010525183)
(0.0010827112 1.7459217e-05 1.9992566e-18 0.0010460612 -1.5496227e-17 0.0010459128)
(0.0010923239 1.7060387e-05 -2.5824479e-18 0.0010377365 8.9671493e-17 0.001037516)
(0.0011073249 1.6523066e-05 -1.6232117e-18 0.0010267813 7.7708898e-17 0.0010264551)
(0.0011305348 1.5797793e-05 5.3859692e-16 0.0010118172 -1.8650016e-17 0.0010113332)
(0.0011661553 1.4880555e-05 6.5690666e-16 0.00099077587 -3.0854412e-16 0.00099005563)
(0.001222008 1.3459735e-05 -2.7324885e-15 0.00095985976 4.2444409e-15 0.000958769)
(0.001308773 1.1070883e-05 -3.9540951e-15 0.00091391809 7.9684843e-15 0.00091225191)
(0.0014572037 7.1873685e-06 2.5190861e-13 0.00083816461 -5.7147657e-13 0.0008354357)
(0.0016023734 2.4714673e-08 1.8112062e-13 0.00076469075 8.8503613e-13 0.00076063044)
(0.0016016144 -7.3187173e-06 -1.7758449e-11 0.00076484182 2.2974302e-11 0.00075993701)
(0.0016005266 -1.2033616e-05 2.6886338e-10 0.00076540632 -9.3437024e-11 0.00075857748)
(0.0016297037 -1.7101108e-05 -2.7549252e-09 0.00078920339 -2.2700809e-09 0.0007632603)
(0.0014210081 -0.00023418542 3.4610829e-08 0.0006005184 5.8049871e-08 0.0010293673)
(0.00115423 6.7467187e-05 -6.3740265e-19 0.0011212383 4.9464026e-17 0.0011153761)
(0.0011247917 4.7658942e-05 3.8900434e-18 0.0011282193 -3.0164784e-17 0.0011270714)
(0.0011172853 3.9583348e-05 2.5102147e-16 0.001126352 -5.6330698e-17 0.0011259435)
(0.0011096613 3.6425332e-05 -1.3306127e-18 0.0011249337 -1.669757e-17 0.0011247676)
(0.001102482 3.4339843e-05 2.5629796e-16 0.0011234964 -5.7419159e-17 0.0011234172)
(0.0010974142 3.2776501e-05 -2.6321585e-16 0.0011211399 -4.1902745e-17 0.0011211005)
(0.0010938155 3.1506767e-05 -1.7917986e-18 0.0011181614 2.6557923e-17 0.001118144)
(0.0010910268 3.0523913e-05 -2.6238847e-16 0.0011148783 4.1310546e-17 0.0011148751)
(0.0010888046 2.9707686e-05 2.5282895e-18 0.0011114051 -2.9034436e-17 0.0011114101)
(0.0010869576 2.8995556e-05 -2.9818865e-18 0.0011078312 -3.6325608e-18 0.00110784)
(0.001085307 2.8378896e-05 -2.0290706e-18 0.0011042401 4.2651432e-17 0.0011042503)
(0.0010837378 2.7818578e-05 2.8314289e-16 0.0011006845 -4.3774701e-17 0.0011006945)
(0.0010821859 2.7337266e-05 2.8528188e-16 0.001097192 -7.9407735e-17 0.0010972011)
(0.0010806212 2.6898926e-05 -2.9080227e-16 0.0010937742 4.6618008e-17 0.0010937817)
(0.0010790393 2.6471806e-05 4.3586868e-18 0.0010904297 -1.0446866e-17 0.0010904352)
(0.0010774587 2.6088326e-05 1.7198328e-18 0.0010871462 -3.6229285e-17 0.0010871495)
(0.0010759096 2.5719965e-05 3.1754851e-18 0.0010839049 -4.2912246e-17 0.0010839056)
(0.0010744384 2.5376411e-05 -3.1063743e-16 0.0010806805 -5.7353501e-17 0.0010806781)
(0.0010731148 2.4977434e-05 -2.591298e-18 0.0010774358 -6.424151e-18 0.0010774295)
(0.0010720294 2.4673663e-05 -3.1936389e-16 0.0010741229 -3.5672621e-17 0.0010741116)
(0.0010713103 2.4340494e-05 3.1815581e-16 0.001070676 -5.2678811e-17 0.001070658)
(0.0010711376 2.3996448e-05 -8.5126659e-19 0.0010670028 2.9053675e-17 0.0010669756)
(0.0010717613 2.36199e-05 1.947381e-18 0.0010629765 -2.4665229e-17 0.0010629366)
(0.0010735398 2.3262122e-05 7.9456782e-19 0.0010584165 2.9541232e-17 0.0010583586)
(0.0010769992 2.2837695e-05 -6.8534586e-16 0.0010530591 8.7234323e-17 0.0010529755)
(0.0010829112 2.238263e-05 2.7648166e-18 0.0010465194 -1.6378109e-17 0.0010463986)
(0.0010924337 2.1844304e-05 -7.1052985e-16 0.0010382228 6.6934659e-17 0.0010380476)
(0.0011072955 2.1119765e-05 3.5552998e-16 0.0010273155 6.4862546e-17 0.0010270601)
(0.00113029 2.0256581e-05 3.6923589e-16 0.0010124309 6.6759843e-17 0.0010120543)
(0.0011655611 1.8949806e-05 6.1935041e-16 0.00099152641 -3.5416985e-16 0.0009909671)
(0.0012208491 1.7117041e-05 -3.2079041e-15 0.00096083991 3.5470223e-15 0.00095998596)
(0.0013065747 1.4112192e-05 -1.6906716e-14 0.00091533704 2.6146958e-14 0.00091402347)
(0.0014531877 9.2690677e-06 3.2620699e-13 0.00084038224 -5.9070869e-13 0.00083815944)
(0.0016028425 1.5026233e-07 1.4379233e-12 0.00076459738 -4.293666e-13 0.00076116432)
(0.0016019783 -9.0875018e-06 -3.220534e-11 0.00076469521 2.6195847e-11 0.00076049472)
(0.0016008082 -1.5789306e-05 3.1550926e-10 0.00076523926 1.5483231e-10 0.00075925275)
(0.0016273953 -2.0598222e-05 -1.9606767e-09 0.00078957106 -7.2201395e-09 0.00076108708)
(0.0014503482 -0.00022604025 1.9472622e-08 0.00060811696 9.5612006e-08 0.0010298232)
(0.0011520944 7.7313396e-05 -3.4559618e-16 0.0011234077 9.037408e-17 0.001117215)
(0.0011244147 5.8591112e-05 1.7720473e-16 0.0011295635 -3.6902248e-17 0.0011280378)
(0.0011175199 4.9230972e-05 5.3525512e-19 0.0011273182 -2.9991755e-17 0.001126695)
(0.0011101258 4.5281982e-05 -1.6292843e-18 0.0011257345 -2.7283476e-17 0.0011254611)
(0.0011030167 4.2734425e-05 1.8077922e-16 0.0011242432 -9.0746696e-18 0.0011240941)
(0.0010979754 4.0764015e-05 1.8330972e-16 0.0011218631 -2.1216335e-17 0.0011217699)
(0.001094391 3.9244991e-05 -6.5417566e-19 0.0011188689 6.4341197e-17 0.0011188077)
(0.0010916132 3.8037995e-05 5.6093004e-18 0.0011155719 1.6620645e-17 0.0011155322)
(0.0010893951 3.7034234e-05 3.0272486e-18 0.0011120883 -5.0137408e-17 0.0011120623)
(0.0010875485 3.615315e-05 -1.9660171e-16 0.0011085056 -9.9448981e-18 0.0011084879)
(0.0010858975 3.53865e-05 -2.0155693e-16 0.0011049058 5.0014222e-17 0.001104893)
(0.0010843275 3.4725213e-05 1.9728042e-16 0.0011013414 -7.6863659e-18 0.0011013315)
(0.0010827727 3.4106784e-05 6.1016261e-16 0.0010978409 -4.7216193e-17 0.0010978325)
(0.0010812048 3.3554411e-05 2.6083177e-18 0.0010944149 3.6120139e-17 0.0010944071)
(0.0010796205 3.3038107e-05 3.9961794e-18 0.0010910615 2.4921945e-17 0.0010910538)
(0.0010780344 3.255869e-05 2.2073687e-18 0.0010877705 -3.2435744e-18 0.0010877623)
(0.0010764782 3.2093697e-05 -4.2845287e-16 0.0010845224 -4.0502478e-17 0.0010845132)
(0.0010749993 3.1651227e-05 -2.2094467e-16 0.0010812912 -1.0363252e-16 0.0010812805)
(0.0010736674 3.1218837e-05 -2.2491145e-16 0.0010780396 1.6231475e-17 0.0010780266)
(0.0010725731 3.0789359e-05 -2.4253512e-18 0.0010747201 -5.4423541e-17 0.0010747038)
(0.0010718401 3.0367771e-05 4.5305821e-16 0.0010712686 -1.1762235e-17 0.0010712477)
(0.0010716469 2.9948723e-05 4.6409055e-16 0.0010675937 1.8341253e-17 0.001067566)
(0.0010722443 2.9522271e-05 2.9777889e-18 0.0010635682 4.9236614e-18 0.0010635309)
(0.0010739896 2.9025582e-05 -2.3722191e-16 0.0010590118 3.4944749e-17 0.0010589604)
(0.0010774025 2.8514701e-05 2.4367111e-16 0.0010536637 5.2250201e-17 0.0010535918)
(0.0010832441 2.7956938e-05 2.7868742e-18 0.001047144 4.2091672e-17 0.0010470421)
(0.0010926593 2.7252047e-05 -1.1746432e-18 0.001038884 -1.2506095e-17 0.0010387375)
(0.0011073628 2.6400227e-05 -2.5883635e-16 0.0010280361 8.9276036e-17 0.001027823)
(0.0011301103 2.5254731e-05 -2.6583249e-16 0.001013251 8.2321945e-17 0.0010129353)
(0.0011649843 2.3653647e-05 4.0329786e-16 0.00099251618 -4.3418915e-16 0.00099204429)
(0.0012196371 2.1364805e-05 -3.1279601e-15 0.00096210943 2.0193318e-15 0.00096137846)
(0.0013041882 1.7658267e-05 -3.6191361e-14 0.0009171369 4.6303317e-14 0.00091600048)
(0.0014487717 1.1745484e-05 3.5263966e-13 0.00084312295 -5.2234056e-13 0.000841139)
(0.0016035042 1.9777663e-07 3.5857338e-12 0.00076480591 -2.0619243e-12 0.00076157867)
(0.0016024922 -1.1106641e-05 -4.0726621e-11 0.00076488548 1.6513004e-11 0.00076089032)
(0.0016013073 -2.0506711e-05 9.7613799e-11 0.00076559354 4.2138265e-10 0.0007597738)
(0.0016240022 -2.3445846e-05 1.2351572e-09 0.00079040116 -7.877461e-09 0.00075750046)
(0.0014800489 -0.00022629318 -1.818912e-08 0.0006230349 5.1282457e-08 0.0010297406)
(0.0011503001 8.623557e-05 1.7693841e-18 0.0011258066 6.5736269e-17 0.0011192969)
(0.0011241862 6.9903482e-05 -4.0613782e-20 0.0011311888 -8.2104206e-19 0.0011293238)
(0.0011178861 5.9694516e-05 -2.5549479e-16 0.0011286266 6.4657795e-18 0.0011277417)
(0.0011107746 5.5061805e-05 -1.2476453e-18 0.0011268472 -4.0577649e-17 0.0011264304)
(0.0011037597 5.2039148e-05 -1.2720784e-18 0.0011252802 6.5198943e-17 0.0011250427)
(0.0010987591 4.9695205e-05 -1.9845464e-19 0.0011228628 3.0677295e-17 0.0011227073)
(0.0010951996 4.7918836e-05 -2.713033e-16 0.0011198421 8.3786502e-17 0.0011197348)
(0.0010924331 4.6471428e-05 3.614158e-18 0.0011165263 2.1893673e-17 0.0011164522)
(0.0010902198 4.5254575e-05 2.8563862e-18 0.0011130274 -2.0688409e-17 0.0011129756)
(0.0010883751 4.4196911e-05 1.6223881e-19 0.0011094308 -5.1023854e-17 0.0011093937)
(0.0010867249 4.3290783e-05 -3.5005919e-18 0.0011058175 1.6007745e-18 0.0011057903)
(0.001085152 4.2502788e-05 -5.2253297e-18 0.001102241 1.6136762e-17 0.0011022206)
(0.0010835936 4.1753466e-05 2.9367356e-16 0.0010987286 5.2222239e-17 0.0010987128)
(0.0010820213 4.1085843e-05 -1.4490522e-16 0.0010952909 2.7888996e-17 0.001095278)
(0.0010804293 4.0449092e-05 4.6059298e-18 0.0010919271 -1.5725415e-17 0.001091916)
(0.0010788362 3.9844572e-05 1.5401078e-16 0.0010886251 -5.8707472e-18 0.0010886149)
(0.0010772726 3.9301441e-05 1.5680698e-16 0.0010853662 -7.3886534e-17 0.0010853561)
(0.0010757842 3.8753409e-05 1.5756162e-16 0.001082125 -1.0126906e-16 0.0010821141)
(0.0010744393 3.8240276e-05 -1.6249159e-16 0.0010788648 1.8964289e-17 0.0010788521)
(0.0010733285 3.7708071e-05 -3.2447627e-18 0.0010755384 -6.108759e-17 0.0010755227)
(0.0010725778 3.7190123e-05 -4.2932595e-18 0.0010720804 1.1580822e-17 0.00107206)
(0.0010723641 3.6659924e-05 1.6733291e-16 0.0010684004 5.8626401e-17 0.0010683731)
(0.0010729307 3.6139159e-05 -1.6678997e-16 0.0010643748 3.0329038e-18 0.0010643374)
(0.0010746326 3.5558028e-05 3.3708804e-18 0.0010598243 -3.8676693e-17 0.0010597723)
(0.0010779879 3.4956283e-05 -1.7426649e-16 0.001054489 3.6622535e-17 0.0010544158)
(0.0010837458 3.4219545e-05 -1.7673792e-16 0.0010479947 3.5320885e-17 0.0010478909)
(0.0010930418 3.3349089e-05 -1.0973039e-18 0.0010397771 -2.6626493e-17 0.0010396283)
(0.0011075622 3.231402e-05 -3.7135039e-16 0.0010290018 1.5560161e-17 0.0010287872)
(0.0011300298 3.0887843e-05 -2.5647946e-17 0.0010143349 5.1683051e-17 0.0010140198)
(0.0011644603 2.8966454e-05 5.5796891e-16 0.00099379725 -4.4340575e-16 0.00099333223)
(0.0012184012 2.6173005e-05 -2.161943e-15 0.00096371482 -4.1989314e-16 0.00096299962)
(0.0013016552 2.1654579e-05 -5.8638102e-14 0.00091933926 6.1023807e-14 0.00091824577)
(0.0014440007 1.4669264e-05 2.9386526e-13 0.00084638472 -3.1580551e-13 0.00084445223)
(0.0016044177 3.2191905e-07 5.982548e-12 0.00076524504 -2.9862137e-12 0.00076200184)
(0.0016032195 -1.3057459e-05 -3.2247512e-11 0.00076528732 -7.6135668e-12 0.00076129215)
(0.0016020569 -2.6038876e-05 -2.7961491e-10 0.00076609972 3.8430708e-10 0.00076057756)
(0.001620044 -2.52506e-05 3.4981133e-09 0.00079096815 -1.4378209e-09 0.00075358504)
(0.0015068746 -0.00022923779 -2.939869e-08 0.00063846389 -3.4364506e-08 0.0010326229)
(0.0011493309 9.4226674e-05 4.0126105e-18 0.0011281594 3.0065817e-17 0.0011215542)
(0.0011242808 8.1413891e-05 -7.7481889e-19 0.0011331145 -2.8077547e-17 0.0011310055)
(0.001118467 7.0915741e-05 -6.8845534e-19 0.0011303561 1.1017098e-17 0.0011291701)
(0.0011116738 6.5761008e-05 1.9082676e-16 0.0011283685 -2.452273e-17 0.0011277582)
(0.0011047816 6.2292e-05 -1.9171806e-16 0.0011267064 4.3991414e-17 0.001126339)
(0.0010998348 5.9648316e-05 -1.9615063e-16 0.0011242407 2.6037886e-17 0.0011239867)