4.167472323e-21 	0.0008061257025 	-3.603843769e-17 	4.652859242e-25 	1.611124651e-30 	-2.080094672e-38 	2.685573609e-46
4.167472323e-21 	0.0008061257025 	-3.603826761e-17 	7.891240143e-24 	3.68489126e-21 	1.608858269e-22 	7.024426902e-24
4.167472323e-21 	0.0008061257025 	-3.603826761e-17 	7.891240143e-24 	3.68489126e-21 	1.608858269e-22 	7.024426902e-24
0.001920129637 	0.0009220870083 	1.98617355e-05 	-8.659374947e-07 	0.0004306408523 	-1.87559522e-05 	8.209211549e-07
0.0038356351 	0.0009412503212 	-5.49918546e-06 	2.734619224e-07 	0.0004583293709 	-1.928402744e-05 	8.737031671e-07
0.005746372548 	0.001112119066 	-3.276583394e-06 	2.560115009e-07 	0.0006190316447 	-2.336059148e-05 	1.180046366e-06
0.007652199874 	0.001474121253 	-3.971223824e-05 	1.28770889e-06 	0.0008931348456 	-2.906964207e-05 	1.70256325e-06
0.009552976685 	0.001948046402 	-0.0001778397238 	4.176408345e-06 	0.001149309675 	-3.187061867e-05 	2.190903676e-06
0.01144856429 	0.002293055838 	-0.0003234709123 	5.746703266e-06 	0.001334358883 	-3.112130547e-05 	2.543658897e-06
0.01333882568 	0.002424899693 	-0.0003828643898 	5.082734164e-06 	0.001462360941 	-2.899172e-05 	2.787666396e-06
0.01522362552 	0.002473070304 	-0.0004070046844 	4.326337457e-06 	0.001526903209 	-2.628240283e-05 	2.910701896e-06
0.0171028301 	0.002480759249 	-0.0004187139443 	3.6196065e-06 	0.001552869779 	-2.356247915e-05 	2.960201396e-06
0.01897630738 	0.002472676735 	-0.0004254421053 	3.019280109e-06 	0.001560421751 	-2.106318338e-05 	2.974597554e-06
0.02084392689 	0.002462059119 	-0.0004308945747 	2.512515633e-06 	0.001562360671 	-1.881680208e-05 	2.978293676e-06
0.02270555981 	0.002453469552 	-0.0004364918508 	2.074972594e-06 	0.001564684146 	-1.678963823e-05 	2.982722863e-06
0.02456107885 	0.002447294663 	-0.0004425986929 	1.690330456e-06 	0.001568860544 	-1.493898654e-05 	2.990684239e-06
0.02641035832 	0.002442835053 	-0.0004490232773 	1.352628469e-06 	0.001574120035 	-1.322320499e-05 	3.000710291e-06
0.02825327408 	0.002436149936 	-0.0004540375058 	1.086408892e-06 	0.001574930504 	-1.162430591e-05 	3.00225527e-06
0.03109892423 	0.002435466242 	-0.0004672775495 	7.987155723e-07 	0.001588211659 	-9.351483885e-06 	3.027572843e-06
0.03403744147 	0.002428990134 	-0.0004814600038 	5.946901989e-07 	0.001600987131 	-7.241264808e-06 	3.051926442e-06
0.03707054921 	0.002419246503 	-0.0004965795022 	4.209356153e-07 	0.001615161726 	-5.240808801e-06 	3.078947162e-06
0.04019983969 	0.002406131788 	-0.0005113107363 	2.610691317e-07 	0.001628600852 	-3.315846141e-06 	3.10456587e-06
0.04342674889 	0.002389102834 	-0.0005256279405 	1.124524415e-07 	0.001641082565 	-1.452622915e-06 	3.128359484e-06
0.04608392513 	0.002372947272 	-0.0005369034135 	1.961065667e-07 	0.001650611673 	-6.004051864e-07 	3.146524612e-06
0.04654117035 	0.002361664898 	-0.000536072073 	7.083366961e-08 	0.001647984263 	-2.234049422e-07 	3.141516039e-06
0.04888888267 	0.00230768445 	-0.00053288879 	4.112032441e-07 	0.001637056662 	-1.311948111e-06 	3.120684994e-06
0.05131388488 	0.002255458447 	-0.0005303938593 	7.264097218e-07 	0.001627329303 	-2.342531011e-06 	3.102141944e-06
0.05381747611 	0.002204926882 	-0.0005285264994 	1.018689622e-06 	0.001618712567 	-3.317266101e-06 	3.085716051e-06
0.05640080791 	0.002156058302 	-0.000527228448 	1.290171843e-06 	0.001611132009 	-4.237579387e-06 	3.0712654e-06
0.05906485677 	0.002108846922 	-0.0005264450994 	1.542612871e-06 	0.001604516461 	-5.104789131e-06 	3.058654327e-06
0.06181039336 	0.002063160672 	-0.0005260949692 	1.777575649e-06 	0.001598675938 	-5.919970421e-06 	3.047520668e-06
0.06467976772 	0.002018604719 	-0.000526184581 	1.999986762e-06 	0.001593678915 	-6.695153513e-06 	3.037994951e-06
0.06768484062 	0.001975175883 	-0.0005266829932 	1.768088827e-06 	0.001589550564 	-5.94382715e-06 	3.030125168e-06
0.07078398561 	0.001933316043 	-0.0005274888707 	1.49921505e-06 	0.001586106029 	-5.057164313e-06 	3.023558926e-06
0.07397940159 	0.001893144579 	-0.0005286190397 	1.243746851e-06 	0.001583426385 	-4.205175726e-06 	3.01845078e-06
0.0772732906 	0.001854677019 	-0.0005300430507 	1.000650105e-06 	0.001581489505 	-3.387332497e-06 	3.014758548e-06
0.08066785462 	0.001817967145 	-0.0005317323863 	7.690120489e-07 	0.00158028207 	-2.60357525e-06 	3.012456842e-06
0.08416529224 	0.001783081554 	-0.0005336684629 	5.482254106e-07 	0.001579805003 	-1.854343715e-06 	3.01154742e-06
0.08776779529 	0.001750109884 	-0.0005358331945 	3.377821995e-07 	0.001580057807 	-1.140292342e-06 	3.012029335e-06
0.09147754533 	0.00171914646 	-0.0005382110316 	1.372807277e-07 	0.001581036951 	-4.620715607e-07 	3.013895855e-06
0.0941941486 	0.001698514153 	-0.0005400889452 	1.89733291e-07 	0.001582375598 	-6.060858725e-07 	3.016447689e-06
0.09512015167 	0.001692096971 	-0.0005385873113 	1.057820983e-07 	0.001580883285 	-1.323014801e-07 	3.013602925e-06
0.09842640954 	0.001671489881 	-0.0005338568439 	4.647657104e-07 	0.001577066715 	-5.728663607e-07 	3.006327481e-06
0.1018355174 	0.001652539672 	-0.0005295840919 	8.07605525e-07 	0.00157426101 	-9.808526419e-07 	3.000979028e-06
0.1053695942 	0.00163516788 	-0.0005257661178 	1.138142384e-06 	0.001572553712 	-1.363337943e-06 	2.997724443e-06
0.1090973503 	0.001619073987 	-0.0005223339527 	1.463970898e-06 	0.001572082125 	-1.730981707e-06 	2.996825468e-06
0.1129369161 	0.001604279081 	-0.0005192251143 	1.778136059e-06 	0.001572349593 	-2.075869365e-06 	2.997335336e-06
0.1168907052 	0.001590579211 	-0.0005164186508 	1.894536979e-06 	0.001573336382 	-2.184666028e-06 	2.999216431e-06
0.1209611377 	0.001577571142 	-0.0005138771996 	1.549027414e-06 	0.001574954279 	-1.768079528e-06 	3.002300592e-06
0.1251506387 	0.001564277271 	-0.0005111872581 	1.211296544e-06 	0.001575299741 	-1.374942904e-06 	3.002959137e-06
0.1315129055 	0.001548436598 	-0.0005084534634 	7.349250491e-07 	0.001581095563 	-8.234909049e-07 	3.014007585e-06
0.1379294732 	0.001533692379 	-0.0005059106091 	2.953459629e-07 	0.001585860496 	-3.273931647e-07 	3.023090873e-06
0.142594115 	0.001524474329 	-0.0005044936192 	2.086808012e-07 	0.001590237082 	-7.509689549e-07 	3.031433862e-06
0.1444145078 	0.001519000478 	-0.0005032339513 	1.248514536e-07 	0.001592637484 	-2.10171704e-08 	3.036009696e-06
0.1506012767 	0.001501949272 	-0.0004997347726 	5.16235223e-07 	0.001602335245 	-6.101015523e-08 	3.054496322e-06
0.1568523474 	0.001486107508 	-0.0004970291364 	8.666866392e-07 	0.001613157068 	-5.810941031e-08 	3.075125725e-06
0.1631682206 	0.001471360445 	-0.0004950160013 	1.180064634e-06 	0.001624955841 	-1.656734068e-08 	3.097617467e-06
0.1695992752 	0.001457631349 	-0.0004936227027 	1.325931174e-06 	0.001637802653 	5.528423555e-08 	3.122107061e-06
0.1762161813 	0.001444854082 	-0.0004927875734 	9.677553354e-07 	0.001651902744 	9.824152025e-08 	3.148985753e-06
0.1828965747 	0.001433375713 	-0.0004924935679 	6.420122216e-07 	0.001666904732 	1.05098794e-07 	3.177583711e-06
0.189641161 	0.001423168646 	-0.0004926820613 	3.460797589e-07 	0.001682815522 	7.84938406e-08 	3.2079141e-06
0.1964815349 	0.001414147199 	-0.0004932847826 	7.564294311e-08 	0.001699666511 	2.203147373e-08 	3.240036768e-06
0.1985371585 	0.001411766904 	-0.0004935450202 	1.375301584e-07 	0.001705023865 	-5.647426273e-07 	3.250249373e-06
0.2032185491 	0.001410707581 	-0.0004913818781 	2.675194069e-07 	0.001713537823 	-7.854814578e-09 	3.266479343e-06
0.2099019787 	0.001409986191 	-0.0004887571954 	6.219583031e-07 	0.001726725198 	2.608773729e-09 	3.291618146e-06
0.2166621951 	0.001409970593 	-0.0004865651131 	9.515775945e-07 	0.001741016505 	3.66541688e-08 	3.318861349e-06
0.223580899 	0.001410543931 	-0.0004847130782 	1.262309389e-06 	0.00175658671 	9.360246366e-08 	3.348542488e-06
0.2306588464 	0.001411684093 	-0.0004831604515 	1.423664037e-06 	0.0017734432 	1.578575988e-07 	3.380675642e-06
0.2378148209 	0.001413351915 	-0.0004818902611 	1.084925146e-06 	0.001791402267 	1.609846953e-07 	3.414910615e-06
0.2450768786 	0.001415470046 	-0.0004808396456 	7.659727525e-07 	0.00181056593 	1.430172419e-07 	3.451441884e-06
0.2525531599 	0.001417959511 	-0.0004799170153 	4.610542202e-07 	0.001831164635 	1.042871434e-07 	3.490708741e-06
0.2601092494 	0.001420836687 	-0.0004791178333 	1.744748906e-07 	0.001852923106 	4.640623258e-08 	3.532186434e-06
0.26499871 	0.001422863322 	-0.0004786218846 	1.316550111e-07 	0.001867642796 	-5.137675767e-07 	3.560246254e-06
0.267659551 	0.001423710777 	-0.000477817024 	1.119907533e-07 	0.001875597673 	4.747337661e-08 	3.575410459e-06
0.2752428316 	0.001426327931 	-0.0004754791477 	4.169348855e-07 	0.001899177085 	1.875988228e-07 	3.620359373e-06
0.2829188503 	0.001429285514 	-0.0004730947187 	7.087230903e-07 	0.001923961649 	3.356276958e-07 	3.66760564e-06
0.2907384978 	0.001432476599 	-0.0004705551613 	9.906923918e-07 	0.001950080274 	4.900862013e-07 	3.717394999e-06
0.2987528556 	0.001435866192 	-0.0004677611111 	1.265435851e-06 	0.001977624993 	6.495615198e-07 	3.769902889e-06
0.3068653525 	0.001439490709 	-0.0004646983369 	1.184076065e-06 	0.002006402707 	6.261859292e-07 	3.82476121e-06
0.3151831164 	0.001443199142 	-0.0004611998271 	9.088623784e-07 	0.002036648886 	4.920153738e-07 	3.882418834e-06
0.32363898 	0.001447022284 	-0.0004572160595 	6.433405391e-07 	0.002068213706 	3.541106909e-07 	3.942590154e-06
0.3322445631 	0.00145087506 	-0.0004526332113 	3.859696758e-07 	0.002101125371 	2.145258023e-07 	4.005328935e-06
0.3410461685 	0.001454666783 	-0.0004473003268 	1.349070523e-07 	0.002135460905 	7.519525447e-08 	4.070782006e-06
0.3459859862 	0.00145673668 	-0.0004439042489 	2.324588361e-07 	0.002155218725 	-4.45586986e-07 	4.108445901e-06
0.3499050321 	0.001458863029 	-0.0004407969863 	1.201093229e-07 	0.002170328044 	4.444629842e-08 	4.137248464e-06
0.3589202033 	0.001463338656 	-0.0004328754299 	3.83908495e-07 	0.002205779313 	1.406860167e-07 	4.204828436e-06
0.368058623 	0.001467518963 	-0.0004239277283 	6.375747032e-07 	0.002242553796 	2.285843955e-07 	4.27493082e-06
0.3774357461 	0.00147128211 	-0.0004137279561 	8.83976792e-07 	0.002280743709 	3.061361141e-07 	4.347731409e-06
0.3869478457 	0.001474634815 	-0.0004021729543 	1.119155454e-06 	0.002320161112 	3.686035098e-07 	4.422871935e-06
0.3966980808 	0.00147748538 	-0.0003890257291 	1.344617774e-06 	0.002360831622 	4.137037524e-07 	4.500401231e-06
0.4065975039 	0.00147981707 	-0.000374114157 	1.200242403e-06 	0.002402577841 	3.369511593e-07 	4.579981127e-06
0.4167328884 	0.00148157281 	-0.0003571671261 	9.797360025e-07 	0.002445357892 	2.433743784e-07 	4.661531794e-06
0.4270399082 	0.001482709418 	-0.000337922306 	7.694665905e-07 	0.002488984063 	1.615488117e-07 	4.744695401e-06
0.4375662557 	0.001483200819 	-0.0003160774296 	5.7001804e-07 	0.002533294387 	9.4098542e-08 	4.829163195e-06
0.4482957169 	0.001483025873 	-0.0002913187164 	3.835450494e-07 	0.002578031307 	4.353150984e-08 	4.914444199e-06
0.4592261542 	0.00148221656 	-0.0002633301662 	2.114328785e-07 	0.002622867199 	1.119846304e-08 	4.99991387e-06
0.4703929298 	0.001480743915 	-0.000231747465 	5.571535541e-08 	0.002667455309 	-1.339745296e-09 	5.084911201e-06
0.475020859 	0.001479802133 	-0.0002171716714 	6.796777244e-07 	0.00268539701 	-3.611149477e-07 	5.119113068e-06
0.4817349195 	0.001478821052 	-0.0001959062994 	7.948954344e-08 	0.00271101976 	-1.621459854e-08 	5.167957152e-06
0.4932888347 	0.001476189402 	-0.0001547126082 	1.85234825e-07 	0.002752023104 	-5.290029268e-08 	5.246120921e-06
0.5050858184 	0.00147639302 	-0.0001068253897 	2.435879776e-07 	0.002778474918 	-1.098202715e-08 	5.296545431e-06
0.5171152231 	0.001483748934 	-5.45368442e-05 	2.654659221e-07 	0.002782768349 	1.804981344e-07 	5.304729904e-06
0.5293886399 	0.001497908961 	-2.182272131e-06 	2.853932531e-07 	0.002771643388 	4.101004037e-07 	5.283522635e-06
0.5419232336 	0.001515898661 	4.796875694e-05 	3.040906406e-07 	0.002754224439 	5.432608906e-07 	5.250317278e-06
0.554710722 	0.00153554168 	9.533466876e-05 	3.095162644e-07 	0.002734748423 	5.70640421e-07 	5.213190578e-06
0.5674704186 	0.001555080849 	0.000139467758 	3.022728254e-07 	0.002715591251 	5.638822406e-07 	5.176671684e-06
0.5799252834 	0.00157385867 	0.0001799914697 	2.885813086e-07 	0.002697032717 	5.40676261e-07 	5.141293959e-06
0.5920881456 	0.001591606431 	0.0002171274789 	2.723090192e-07 	0.002679057592 	5.11195667e-07 	5.107028375e-06
0.6039611633 	0.001608234018 	0.0002512552453 	2.543185081e-07 	0.002661475298 	4.758896393e-07 	5.073511636e-06
0.6155537879 	0.001623707886 	0.0002827150599 	2.356676895e-07 	0.002644119553 	4.374823703e-07 	5.040426763e-06
0.6268803304 	0.001638014963 	0.0003118063497 	2.174536181e-07 	0.002626890539 	3.979259704e-07 	5.007583473e-06
0.6379431449 	0.001651160301 	0.0003387982558 	2.000504116e-07 	0.002609714788 	3.586410006e-07 	4.97484172e-06
0.6487495828 	0.001663183685 	0.0003639393807 	1.837488692e-07 	0.002592505635 	3.204891934e-07 	4.942036291e-06
0.6593116064 	0.001674118866 	0.000387445706 	1.687741402e-07 	0.002575236404 	2.842497398e-07 	4.909116336e-06
0.6696315972 	0.00168400466 	0.0004095252017 	1.552711228e-07 	0.002557902839 	2.504472526e-07 	4.876073744e-06
0.6797174335 	0.001692909939 	0.000430367665 	1.432351054e-07 	0.00254048012 	2.193633943e-07 	4.842861198e-06
0.689576746 	0.001700889935 	0.0004501452919 	1.326811698e-07 	0.002523004937 	1.912625672e-07 	4.809548644e-06
0.6992132169 	0.001708020074 	0.0004690318342 	1.235868779e-07 	0.002505504112 	1.662282206e-07 	4.776187206e-06
0.7086351831 	0.001714389116 	0.0004871816894 	1.15865653e-07 	0.002488016023 	1.443078948e-07 	4.742850047e-06
0.7178461165 	0.001720083183 	0.0005047507425 	1.094788861e-07 	0.002470618708 	1.25503641e-07 	4.70968593e-06
0.7268524876 	0.001725215006 	0.0005218871513 	1.043160243e-07 	0.002453378887 	1.097490356e-07 	4.67682204e-06
0.7356589145 	0.001729899715 	0.0005387373257 	1.003041978e-07 	0.002436402303 	9.698120737e-08 	4.644459952e-06
0.7442704478 	0.001734274158 	0.0005554458368 	9.732429154e-08 	0.002419800779 	8.707715513e-08 	4.612812834e-06
0.7526918894 	0.001738489544 	0.0005721553883 	9.527525969e-08 	0.002403711815 	7.99189475e-08 	4.582142796e-06
0.7609276568 	0.001742716368 	0.0005890081225 	9.40228381e-08 	0.002388293452 	7.533898038e-08 	4.552751112e-06
0.7689823013 	0.001747146283 	0.0006061441405 	9.344294098e-08 	0.002373725334 	7.31683122e-08 	4.524980229e-06
0.7768599716 	0.001751992026 	0.0006237021651 	9.338079788e-08 	0.002360211826 	7.318864856e-08 	4.499219728e-06
0.7845648206 	0.001757489735 	0.0006418161582 	9.369168327e-08 	0.002347980141 	7.517570994e-08 	4.475902736e-06
0.7921008732 	0.001763898521 	0.0006606172732 	9.420933957e-08 	0.0023372804 	7.885232626e-08 	4.455506057e-06
0.7994718677 	0.001771500108 	0.0006802259986 	9.477826928e-08 	0.002328385797 	8.393514256e-08 	4.43855047e-06
0.8066817559 	0.001780597904 	0.0007007588437 	9.524472396e-08 	0.002321587937 	9.00931842e-08 	4.42559186e-06
0.8137339253 	0.001791516252 	0.0007223143957 	9.545726511e-08 	0.002317193705 	9.698691906e-08 	4.417215232e-06
0.8206321628 	0.001804592044 	0.0007449840347 	9.530017942e-08 	0.002315529871 	1.04263007e-07 	4.414043503e-06
0.8273796949 	0.001820182376 	0.0007688397489 	9.464879707e-08 	0.00231691802 	1.115450053e-07 	4.4166897e-06
0.8339799829 	0.001838644841 	0.0007939378095 	9.342999992e-08 	0.002321699811 	1.18492753e-07 	4.425805123e-06
0.8404362522 	0.001860349247 	0.0008203203653 	9.156910392e-08 	0.002330199096 	1.247466485e-07 	4.442007122e-06
0.8467516381 	0.001885660937 	0.0008480058592 	8.901426185e-08 	0.002342742845 	1.30003256e-07 	4.465918995e-06
0.8529293161 	0.00191493731 	0.0008770002443 	8.572651887e-08 	0.002359652765 	1.339944537e-07 	4.498154002e-06
0.8589722164 	0.001948534331 	0.0009072857686 	8.162196827e-08 	0.002381220854 	1.364674489e-07 	4.539268773e-06
0.864883315 	0.001986782705 	0.0009388161003 	7.658842781e-08 	0.002407745165 	1.372676507e-07 	4.589831484e-06
0.8706655099 	0.002029993132 	0.0009715086729 	7.042260685e-08 	0.002439505558 	1.363648882e-07 	4.650375618e-06
0.8763215516 	0.002078436963 	0.00100520847 	6.273327277e-08 	0.002476788421 	1.336390931e-07 	4.721447118e-06
0.8818542123 	0.002132347413 	0.00103968431 	5.504605162e-08 	0.00251987379 	1.285411744e-07 	4.803579807e-06
0.8872661699 	0.002192054958 	0.001075213476 	4.624807339e-08 	0.002568859054 	1.196319553e-07 	4.896959335e-06
0.8925600128 	0.002258529791 	0.001111507953 	3.372970626e-08 	0.002623334656 	1.07176822e-07 	5.000804972e-06
0.8977383167 	0.002333215932 	0.001147173329 	2.728811361e-08 	0.002682931596 	9.521437577e-08 	5.114413304e-06
0.9028035842 	0.002416577088 	0.001184066352 	2.625775925e-08 	0.002748676883 	8.450216904e-08 	5.239742093e-06
0.9077582389 	0.002508193694 	0.001224551696 	2.380151948e-08 	0.002822123647 	7.29823215e-08 	5.379752039e-06
0.9126046815 	0.002607469313 	0.001268560058 	2.006410321e-08 	0.002904043037 	5.974464704e-08 	5.535913166e-06
0.9173452564 	0.002713481577 	0.001315809209 	1.528895861e-08 	0.002994318785 	4.471886499e-08 	5.708003831e-06
0.9219822372 	0.002824907988 	0.001365765839 	9.824285995e-09 	0.003091929393 	2.847854826e-08 	5.89407678e-06
0.9265178632 	0.002940011441 	0.001417653606 	4.118786576e-09 	0.00319513472 	1.192482558e-08 	6.090814818e-06
0.9298315599 	0.003027194117 	0.001457133239 	5.079166874e-07 	0.003274717928 	1.007321558e-06 	6.242522531e-06
0.9309540925 	0.003056724746 	0.001470505583 	1.4852999e-09 	0.003301674385 	4.201616851e-09 	6.293909031e-06
0.9352927004 	0.003172755937 	0.001523234463 	6.830808203e-09 	0.003409038567 	1.95267434e-08 	6.498575002e-06
0.9395365111 	0.003276661416 	0.001570582169 	1.121291982e-08 	0.003506141684 	3.257971673e-08 	6.683680531e-06
0.9422997149 	0.003357968477 	0.001607669521 	1.320008532e-08 	0.00358245681 	3.909009542e-08 	6.829158373e-06
0.9449607537 	0.003425970726 	0.001638658611 	1.46039368e-08 	0.003646198477 	4.415903618e-08 	6.950667705e-06
0.9475233858 	0.003489319133 	0.001667492996 	1.534030736e-08 	0.003705444454 	4.75749384e-08 	7.063607005e-06
0.949991232 	0.003547806598 	0.001694064348 	1.545066649e-08 	0.003759930347 	4.94228508e-08 	7.16747226e-06
0.9523677797 	0.003601324225 	0.001718303985 	1.499359629e-08 	0.003809439722 	4.982686718e-08 	7.26185089e-06
0.9546563908 	0.003649827898 	0.001740175648 	1.403711078e-08 	0.003853839331 	4.893062568e-08 	7.346488885e-06
0.9568603048 	0.003693326626 	0.001759670238 	1.265455564e-08 	0.003893066728 	4.68903489e-08 	7.421267205e-06
0.9589826428 	0.003731872155 	0.001776800134 	1.092120978e-08 	0.003927112 	4.386740697e-08 	7.486166957e-06
0.9610264117 	0.003765545917 	0.001791593051 	8.912013821e-09 	0.003956004054 	4.002319304e-08 	7.541243242e-06
0.9629945086 	0.003794446431 	0.001804086062 	6.70019837e-09 	0.003979797331 	3.551585447e-08 	7.586599839e-06
0.9648897244 	0.003818677385 	0.00181431994 	4.356386957e-09 	0.003998559152 	3.049825725e-08 	7.622365087e-06
0.9667147477 	0.00383833619 	0.001822333755 	1.947761902e-09 	0.004012357496 	2.51171243e-08 	7.648668565e-06
0.9684721685 	0.003853501978 	0.001828159476 	-4.631059769e-10 	0.004021249758 	1.951313053e-08 	7.665619688e-06
0.9701644822 	0.003864222673 	0.001831816361 	-2.81969506e-09 	0.004025271811 	1.382070656e-08 	7.673286837e-06
0.9717940927 	0.003870502013 	0.001833304928 	-5.072790983e-09 	0.004024424516 	8.164442216e-09 	7.671671658e-06
0.9733633159 	0.003872286551 	0.001832600236 	-7.181245801e-09 	0.004018656666 	2.645526795e-09 	7.660676533e-06
0.9748743827 	0.003869449737 	0.001829643793 	-9.113073872e-09 	0.004007847504 	-2.664838353e-09 	7.640071266e-06
0.9763294418 	0.003861764594 	0.001824333069 	-1.084950087e-08 	0.003991789694 	-7.710166106e-09 	7.609460617e-06
0.9777305633 	0.003848868623 	0.001816508191 	-1.239095128e-08 	0.003970164232 	-1.244450168e-08 	7.568236476e-06
0.9790797411 	0.00383023367 	0.001805935717 	-1.376113655e-08 	0.003942501825 	-1.686201683e-08 	7.51550424e-06
0.9803788957 	0.003805127168 	0.001792288146 	-1.500979517e-08 	0.003908134693 	-2.102978675e-08 	7.449990935e-06
0.981629877 	0.003772551007 	0.001775117669 	-1.621615366e-08 	0.003866141805 	-2.508960625e-08 	7.369940818e-06
0.982834467 	0.003731167465 	0.001753822945 	-1.749286534e-08 	0.003815279788 	-2.924949767e-08 	7.272983677e-06
0.9839943818 	0.003679212371 	0.001727607502 	-1.898867523e-08 	0.003753890864 	-3.379429208e-08 	7.155959326e-06
0.9851112746 	0.003614387753 	0.001695428936 	-2.08879817e-08 	0.003679789154 	-3.909648209e-08 	7.014700872e-06
0.9861867375 	0.003533733442 	0.001655939504 	-2.340504671e-08 	0.003590127657 	-4.560899551e-08 	6.843781138e-06
0.9872223041 	0.00343348292 	0.001607422625 	-2.676726434e-08 	0.003481250473 	-5.383682782e-08 	6.636230965e-06
0.9882194515 	0.003308918975 	0.001547709724 	-3.128792558e-08 	0.003348546009 	-6.428435577e-08 	6.383259373e-06
0.9891796021 	0.003154271799 	0.001474087933 	-3.705636789e-08 	0.003186334385 	-7.733247083e-08 	6.074038934e-06
0.9901041261 	0.002979912223 	0.001391536966 	-4.347859619e-08 	0.003005597225 	-9.179035599e-08 	5.729503673e-06
0.9907002092 	0.002809632432 	0.001311264192 	-4.945985269e-08 	0.002830537451 	-1.050738534e-07 	5.395791088e-06
0.9912963194 	0.002632477289 	0.001227993642 	-5.526884644e-08 	0.002649465219 	-1.178799845e-07 	5.050617089e-06
0.9918924568 	0.002425308347 	0.001130837086 	-6.123047635e-08 	0.002438690507 	-1.309724059e-07 	4.648821906e-06
0.9924886213 	0.002184456217 	0.001018096852 	-6.679625033e-08 	0.002194582764 	-1.431726081e-07 	4.1834847e-06
0.993084813 	0.001906751052 	0.0008801570915 	-7.628366511e-08 	0.001913919817 	-1.530450197e-07 	3.648463118e-06
0.9936810318 	0.001592138424 	0.0007133056196 	-8.369291303e-08 	0.001596690764 	-1.572122642e-07 	3.043736373e-06
0.9942772777 	0.001249260044 	0.0005293269491 	-7.998089684e-08 	0.001251721934 	-1.503202858e-07 	2.386129905e-06
0.9948735508 	0.0009000065206 	0.0003463721466 	-6.587531135e-08 	0.0009010038544 	-1.286757752e-07 	1.717563768e-06
0.995469851 	0.0005787612376 	0.0001902031793 	-4.349155669e-08 	0.0005789276134 	-9.427254839e-08 	1.103596936e-06
0.9960661783 	0.0003212565678 	8.264148657e-05 	-2.138295401e-08 	0.0003211103251 	-5.643836655e-08 	6.121255277e-07
0.9966625328 	0.0001471601024 	2.641534476e-05 	-7.214273325e-09 	0.0001470031461 	-2.624828996e-08 	2.802288539e-07
0.9972589143 	5.153977724e-05 	5.574355086e-06 	-1.488522059e-09 	5.146240044e-05 	-8.748228099e-09 	9.810163848e-08
0.997855323 	1.186135677e-05 	6.318640335e-07 	-1.489728502e-10 	1.184053545e-05 	-1.749730839e-09 	2.257135148e-08
0.9984517587 	1.285031817e-06 	2.309396386e-08 	-3.692441259e-12 	1.282629921e-06 	-1.28198503e-10 	2.445049117e-09
0.9990482216 	3.745037282e-08 	9.879168283e-11 	8.657319765e-16 	3.73791593e-08 	3.794834924e-13 	7.125506662e-11
0.9990482216 	3.745037282e-08 	9.879168283e-11 	8.657319765e-16 	3.73791593e-08 	3.794834924e-13 	7.125506662e-11
