0.4709558481 	0.01691249847 	3.169523741e-09 	-4.132845046e-13
0.4709558481 	0.01691249847 	3.169523741e-09 	-4.132845046e-13
0.4713069734 	0.05506729424 	4.557666868e-08 	-6.229138194e-12
0.4716580986 	0.110017748 	1.685219131e-07 	-2.294614452e-11
0.4720092239 	0.1648183203 	3.76634092e-07 	-5.083222312e-11
0.4723603491 	0.2193268862 	6.695507631e-07 	-8.945370915e-11
0.4727114744 	0.2731769988 	1.044711222e-06 	-1.380684345e-10
0.4730625996 	0.3256940121 	1.498268817e-06 	-1.958685287e-10
0.4734137249 	0.3759689826 	2.023305905e-06 	-2.617801544e-10
0.4737648501 	0.4231129688 	2.6101614e-06 	-3.345017608e-10
0.4741159754 	0.4665308431 	3.248511079e-06 	-4.127290711e-10
0.4744671006 	0.5060300082 	3.929381364e-06 	-4.953550327e-10
0.4748182259 	0.5417483756 	4.645947453e-06 	-5.815265479e-10
0.4751693511 	0.5740163819 	5.393691878e-06 	-6.706499429e-10
0.4755204764 	0.603273225 	6.170136448e-06 	-7.62369788e-10
0.4758716016 	0.629966537 	6.974395634e-06 	-8.564946982e-10
0.4762227269 	0.657666503 	7.921579168e-06 	-9.661448006e-10
0.4767673536 	0.6889457373 	9.155806569e-06 	-1.106985118e-09
0.4773330083 	0.7203036653 	1.06030986e-05 	-1.269469418e-09
0.4779205028 	0.7492019531 	1.216326932e-05 	-1.441602435e-09
0.4785306805 	0.7759518721 	1.384207538e-05 	-1.623432723e-09
0.479164417 	0.800827181 	1.564618212e-05 	-1.815048643e-09
0.4798226221 	0.8240655619 	1.758297822e-05 	-2.016580275e-09
0.4805062404 	0.845871932 	1.966069139e-05 	-2.22820313e-09
0.4812162531 	0.8664224915 	2.18884282e-05 	-2.450139205e-09
0.4819536793 	0.8858686158 	2.427618988e-05 	-2.682659137e-09
0.4827195775 	0.9043404683 	2.683491379e-05 	-2.926088172e-09
0.483515047 	0.9219502157 	2.957653226e-05 	-3.180814464e-09
0.4843412294 	0.9387948131 	3.251404355e-05 	-3.447298873e-09
0.4851993106 	0.9549583721 	3.566159343e-05 	-3.726085688e-09
0.4860905223 	0.9705141556 	3.903456738e-05 	-4.017813677e-09
0.4870161436 	0.9855262474 	4.264969343e-05 	-4.323226837e-09
0.487977503 	1.000050944 	4.652515552e-05 	-4.643184214e-09
0.4889759804 	1.014137915 	5.068071752e-05 	-4.978668291e-09
0.4900130089 	1.027831163 	5.513785831e-05 	-5.330791525e-09
0.491090077 	1.041169825 	5.991991794e-05 	-5.70080083e-09
0.4922087306 	1.054188834 	6.50522551e-05 	-6.090079951e-09
0.4933705753 	1.066919464 	7.056241567e-05 	-6.500149925e-09
0.4945772787 	1.07938979 	7.648031136e-05 	-6.932667979e-09
0.4958305727 	1.091625064 	8.283840563e-05 	-7.38942533e-09
0.4971322564 	1.103648059 	8.967190392e-05 	-7.872344169e-09
0.4984841978 	1.115479407 	9.701895705e-05 	-8.383474348e-09
0.4998883377 	1.127137985 	0.0001049209031 	-8.924993637e-09
0.5013466912 	1.138641452 	0.0001134224441 	-9.499219635e-09
0.5028613516 	1.150007029 	0.0001225711822 	-1.010860886e-08
0.5044344929 	1.161252685 	0.000132416643 	-1.075557572e-08
0.506068373 	1.173750357 	0.0001443546642 	-1.152844508e-08
0.5085784129 	1.188589039 	0.0001600417283 	-1.252584333e-08
0.5111453651 	1.204128783 	0.0001784044717 	-1.367201806e-08
0.5137705202 	1.219079587 	0.0001981654162 	-1.488398703e-08
0.5164551977 	1.233506779 	0.0002194039132 	-1.616443945e-08
0.5192007473 	1.247468412 	0.0002421976244 	-1.75155016e-08
0.5220085492 	1.261014937 	0.0002666239849 	-1.893913517e-08
0.5248800149 	1.27418978 	0.0002927617826 	-2.043749786e-08
0.5278165879 	1.287030319 	0.0003206918679 	-2.201352264e-08
0.5308197445 	1.299568978 	0.0003504977992 	-2.367138603e-08
0.5338909942 	1.311834216 	0.000382266112 	-2.541608615e-08
0.5370318812 	1.32385114 	0.0004160853022 	-2.725120591e-08
0.5402439843 	1.335641277 	0.0004520419537 	-2.917452865e-08
0.5435289183 	1.34722071 	0.0004902106119 	-3.117273715e-08
0.5468883345 	1.358595413 	0.0005306288118 	-3.321777904e-08
0.5503239217 	1.369752335 	0.0005732335224 	-3.526316039e-08
0.5538374071 	1.380646654 	0.0006177396335 	-3.724436329e-08
0.5574305568 	1.391193116 	0.0006634981604 	-3.909318653e-08
0.5611051773 	1.401276857 	0.0007094543859 	-4.075245677e-08
0.5648631156 	1.410793559 	0.0007544094837 	-4.215935987e-08
0.5687062611 	1.419716102 	0.0007979646991 	-4.337877521e-08
0.5726365456 	1.428126595 	0.0008404527944 	-4.450454176e-08
0.576655945 	1.436119761 	0.0008823554194 	-4.545858467e-08
0.5807664798 	1.44369805 	0.0009234552222 	-4.617903597e-08
0.5849702164 	1.450804814 	0.0009627736759 	-4.661414605e-08
0.5892692681 	1.457374592 	0.0009993615322 	-4.66552228e-08
0.593665796 	1.463338432 	0.001032128902 	-4.621827678e-08
0.5981620103 	1.468631946 	0.001059925699 	-4.525863573e-08
0.6027601713 	1.473205201 	0.001081679154 	-4.378828399e-08
0.6074625904 	1.477032229 	0.001096545929 	-4.188509095e-08
0.6122716317 	1.48011684 	0.001104039048 	-3.968242455e-08
0.6171897127 	1.482492124 	0.001104071951 	-3.733117561e-08
0.6222193057 	1.484213295 	0.001096857599 	-3.496426118e-08
0.6273629392 	1.485349915 	0.001082893803 	-3.272220421e-08
0.6326231989 	1.485984022 	0.001063007502 	-3.070647794e-08
0.6380027291 	1.486202639 	0.001038147852 	-2.89246536e-08
0.6435042341 	1.486080932 	0.001009157715 	-2.734984524e-08
0.6491304798 	1.485674285 	0.000976715199 	-2.594173301e-08
0.6548842942 	1.485021495 	0.0009413372598 	-2.465292215e-08
0.6607685701 	1.484149228 	0.0009034104674 	-2.344772541e-08
0.6667862654 	1.483075198 	0.0008632310045 	-2.230033953e-08
0.6729404052 	1.481810419 	0.0008210295348 	-2.119162211e-08
0.6792340834 	1.480360778 	0.0007769891746 	-2.010681109e-08
0.6856704637 	1.47872814 	0.0007312596013 	-1.903416252e-08
0.6922527818 	1.476911088 	0.0006839684867 	-1.796414167e-08
0.6989843466 	1.474905399 	0.000635231181 	-1.68888087e-08
0.7058685423 	1.472704297 	0.0005851594689 	-1.5801128e-08
0.7129088294 	1.470298516 	0.0005338701852 	-1.469402729e-08
0.7201087472 	1.467676171 	0.0004814945605 	-1.355908265e-08
0.7274719152 	1.46482242 	0.0004281894701 	-1.238462675e-08
0.7350020349 	1.461736152 	0.0003744440523 	-1.11592101e-08
0.7425321576 	1.458456665 	0.0003214219013 	-9.876727607e-09
0.7498953284 	1.455032828 	0.0002702861729 	-8.525960064e-09
0.7570952489 	1.451479124 	0.000221563965 	-7.088384536e-09
0.7641355384 	1.447790842 	0.0001754997744 	-5.5580204e-09
0.7710197363 	1.443962343 	0.0001323152506 	-3.951615402e-09
0.7777513032 	1.439987954 	9.218289841e-05 	-2.300507038e-09
0.7843336232 	1.435862306 	5.521773781e-05 	-6.35213327e-10
0.7907700052 	1.431580405 	2.148219016e-05 	1.021242294e-09
0.7970636849 	1.427137671 	-9.020837012e-06 	2.649579965e-09
0.8032178261 	1.422530027 	-3.630028051e-05 	4.230635816e-09
0.8092355226 	1.41773157 	-6.032688716e-05 	5.763809805e-09
0.8151197995 	1.412675204 	-8.106530184e-05 	7.265374384e-09
0.8208736149 	1.407291428 	-9.83441915e-05 	8.758982603e-09
0.8264998613 	1.401548577 	-0.000111897056 	1.024824022e-08
0.8320013671 	1.39544801 	-0.0001215831133 	1.169907103e-08
0.8373808978 	1.389007998 	-0.0001274041318 	1.306732728e-08
0.8426411579 	1.382252933 	-0.0001294966888 	1.430765512e-08
0.8477847917 	1.375207736 	-0.0001281281867 	1.537830927e-08
0.8528143849 	1.367895963 	-0.0001236782902 	1.624548024e-08
0.857732466 	1.360339586 	-0.0001166052832 	1.688778317e-08
0.8625415073 	1.352558861 	-0.0001074019716 	1.729993504e-08
0.8672439263 	1.344571632 	-9.654940301e-05 	1.749285921e-08
0.8718420871 	1.336392542 	-8.448148032e-05 	1.748869006e-08
0.8763383011 	1.328032998 	-7.157034646e-05 	1.731333503e-08
0.8807348287 	1.319502032 	-5.813099274e-05 	1.699097159e-08
0.8850338799 	1.310807329 	-4.443422934e-05 	1.654265721e-08
0.889237616 	1.301955814 	-3.071732156e-05 	1.598745668e-08
0.8933481502 	1.292953788 	-1.718923974e-05 	1.534343629e-08
0.8973675489 	1.283806811 	-4.032694615e-06 	1.46278707e-08
0.9012978327 	1.274519488 	8.594992906e-06 	1.385710097e-08
0.9051409774 	1.265095245 	2.056123023e-05 	1.304631675e-08
0.9088989149 	1.255536115 	3.17572751e-05 	1.220937354e-08
0.9125735344 	1.245842559 	4.209699618e-05 	1.135871293e-08
0.9161666832 	1.236013302 	5.151529994e-05 	1.050541536e-08
0.9196801676 	1.226045195 	5.996633346e-05 	9.65933986e-09
0.9231157538 	1.215933081 	6.742157139e-05 	8.829209878e-09
0.9264751689 	1.205669667 	7.386782274e-05 	8.02245862e-09
0.9297601017 	1.195245385 	7.930508154e-05 	7.244746055e-09
0.9329722036 	1.184648256 	8.374406148e-05 	6.499334025e-09
0.9361130893 	1.173863728 	8.720328936e-05 	5.786826446e-09
0.9391843379 	1.162874487 	8.970586073e-05 	5.105871574e-09
0.9421874931 	1.151660184 	9.127638025e-05 	4.455039533e-09
0.9451240648 	1.140197004 	9.193906712e-05 	3.835294527e-09
0.9479955291 	1.128456915 	9.171817376e-05 	3.251772385e-09
0.9508033297 	1.116406378 	9.064157598e-05 	2.713597007e-09
0.9535488779 	1.104004192 	8.87492228e-05 	2.23127261e-09
0.956233554 	1.09119803 	8.611291193e-05 	1.811765473e-09
0.9588587076 	1.077919108 	8.287293442e-05 	1.450863978e-09
0.9614256584 	1.064082425 	7.91843761e-05 	1.138811499e-09
0.9639356968 	1.050814734 	7.551908829e-05 	8.880313782e-10
0.9655695775 	1.039587155 	7.239457117e-05 	7.064800532e-10
0.9671427194 	1.02944625 	6.957969869e-05 	5.636711181e-10
0.9686573803 	1.019171178 	6.67525805e-05 	4.371020712e-10
0.9701157342 	1.008748719 	6.39261733e-05 	3.252203107e-10
0.9715198744 	0.9981646389 	6.111254038e-05 	2.266254307e-10
0.9728718162 	0.9874035389 	5.832222942e-05 	1.400323763e-10
0.9741735001 	0.9764486727 	5.556427902e-05 	6.428397005e-11
0.9754267944 	0.9652817484 	5.284642273e-05 	-1.656050785e-12
0.9766334979 	0.9538827007 	5.017525457e-05 	-5.87168167e-11
0.9777953427 	0.942229428 	4.75563562e-05 	-1.077332976e-10
0.9789139964 	0.9302974877 	4.499440738e-05 	-1.494576778e-10
0.9799910645 	0.9180597394 	4.249327989e-05 	-1.845693252e-10
0.981028093 	0.9054859248 	4.005610813e-05 	-2.136823553e-10
0.9820265703 	0.8925421714 	3.768539589e-05 	-2.373522061e-10
0.9829879297 	0.8791904016 	3.538334731e-05 	-2.560957465e-10
0.9839135509 	0.8653876287 	3.315238946e-05 	-2.704773633e-10
0.9848047624 	0.8510829276 	3.099018472e-05 	-2.807299426e-10
0.9856628435 	0.8362098179 	2.889092685e-05 	-2.86862335e-10
0.9864890258 	0.8206854996 	2.684792197e-05 	-2.890246275e-10
0.987284495 	0.8044203405 	2.485701028e-05 	-2.874545549e-10
0.988050393 	0.7873196179 	2.292016586e-05 	-2.82571046e-10
0.988787819 	0.7692776362 	2.104043146e-05 	-2.748382364e-10
0.9894978315 	0.7501736225 	1.922045818e-05 	-2.646614119e-10
0.9901814495 	0.7298684812 	1.746237538e-05 	-2.523867803e-10
0.9908396543 	0.7082019739 	1.576793766e-05 	-2.383227047e-10
0.9914733905 	0.6849901929 	1.413869245e-05 	-2.227549452e-10
0.9920835679 	0.660023773 	1.257614869e-05 	-2.059580276e-10
0.9926710621 	0.6330677618 	1.108191402e-05 	-1.882065213e-10
0.9932367165 	0.6038630437 	9.658014445e-06 	-1.697645709e-10
0.9937813429 	0.5748046328 	8.414310094e-06 	-1.523816633e-10
0.9941324681 	0.5491350197 	7.440859832e-06 	-1.378767202e-10
0.9944835934 	0.5244169967 	6.601089299e-06 	-1.247760589e-10
0.9948347186 	0.4973351776 	5.778699876e-06 	-1.114612683e-10
0.9951858439 	0.4675783066 	4.978180027e-06 	-9.804105665e-11
0.9955369691 	0.4348974202 	4.205839386e-06 	-8.464916397e-11
0.9958880943 	0.399153158 	3.469470392e-06 	-7.145285906e-11
0.9962392196 	0.3604063535 	2.779171971e-06 	-5.866104831e-11
0.9965903448 	0.3189875349 	2.146803721e-06 	-4.651718766e-11
0.9969414701 	0.2754778369 	1.584289049e-06 	-3.528191531e-11
0.9972925953 	0.2305704618 	1.101332993e-06 	-2.520966633e-11
0.9976437206 	0.184880962 	7.039576873e-07 	-1.653406549e-11
0.9979948458 	0.138825247 	3.950034428e-07 	-9.479055474e-12
0.9983459711 	0.09261630349 	1.762814236e-07 	-4.290182155e-12
0.9986970963 	0.04633404399 	4.752228447e-08 	-1.143098198e-12
0.9990482216 	0.01708171081 	3.921122293e-09 	-6.690164457e-14
