0.4709558481 	0.01693248045 	3.76588888e-09 	-1.090110845e-12
0.4713069734 	0.05513238998 	5.358154869e-08 	-1.648139411e-11
0.4716580986 	0.1101478521 	1.97623761e-07 	-6.106075162e-11
0.4720092239 	0.1650131954 	4.40853186e-07 	-1.361312482e-10
0.4723603491 	0.2195857395 	7.824429219e-07 	-2.411113178e-10
0.4727114744 	0.2734977189 	1.219026615e-06 	-3.745758506e-10
0.4730625996 	0.3260723735 	1.745830724e-06 	-5.347479207e-10
0.4734137249 	0.3763985608 	2.354619885e-06 	-7.189052132e-10
0.4737648501 	0.4235861404 	3.034082349e-06 	-9.235042827e-10
0.4741159754 	0.4670402641 	3.772218858e-06 	-1.144881122e-09
0.4744671006 	0.5065696325 	4.558633703e-06 	-1.379893797e-09
0.4748182259 	0.5423137101 	5.385411257e-06 	-1.626113035e-09
0.4751693511 	0.5746048754 	6.247286164e-06 	-1.881906169e-09
0.4755204764 	0.6038837658 	7.141347413e-06 	-2.146357197e-09
0.4758716016 	0.63059792 	8.066500174e-06 	-2.41899634e-09
0.4762227269 	0.6583198818 	9.154870196e-06 	-2.738291078e-09
0.4767673536 	0.6896246922 	1.057116188e-05 	-3.151323054e-09
0.4773330083 	0.7210094233 	1.222943152e-05 	-3.63173041e-09
0.4779205028 	0.7499338729 	1.401420081e-05 	-4.145199994e-09
0.4785306805 	0.776709673 	1.5931622e-05 	-4.692799454e-09
0.479164417 	0.8016108617 	1.798887555e-05 	-5.27581476e-09
0.4798226221 	0.8248753381 	2.01939589e-05 	-5.895724974e-09
0.4805062404 	0.8467081947 	2.255580897e-05 	-6.554219261e-09
0.4812162531 	0.8672857795 	2.50843427e-05 	-7.253193178e-09
0.4819536793 	0.8867595972 	2.779047053e-05 	-7.994739022e-09
0.4827195775 	0.905259928 	3.068613847e-05 	-8.781143112e-09
0.483515047 	0.922899048 	3.378438927e-05 	-9.614887652e-09
0.4843412294 	0.9397740165 	3.709943649e-05 	-1.049865667e-08
0.4851993106 	0.9559690467 	4.064675e-05 	-1.143534673e-08
0.4860905223 	0.9715575021 	4.444315279e-05 	-1.242808339e-08
0.4870161436 	0.9866035668 	4.850692896e-05 	-1.348024377e-08
0.487977503 	1.001163639 	5.285794304e-05 	-1.459548564e-08
0.4889759804 	1.01528749 	5.751777092e-05 	-1.577778228e-08
0.4900130089 	1.029019228 	6.250984266e-05 	-1.703146275e-08
0.491090077 	1.042398096 	6.785959771e-05 	-1.836125589e-08
0.4922087306 	1.055459136 	7.359465263e-05 	-1.977233689e-08
0.4933705753 	1.068233733 	7.974498129e-05 	-2.127037451e-08
0.4945772787 	1.080750071 	8.634310642e-05 	-2.286157745e-08
0.4958305727 	1.093033517 	9.342429939e-05 	-2.455273798e-08
0.4971322564 	1.105106951 	0.0001010267846 	-2.635127043e-08
0.4984841978 	1.11699111 	0.0001091919572 	-2.826524374e-08
0.4998883377 	1.128704971 	0.0001179646393 	-3.030341452e-08
0.5013466912 	1.140266283 	0.0001273932681 	-3.247526111e-08
0.5028613516 	1.151692354 	0.000137529414 	-3.479090619e-08
0.5044344929 	1.163001244 	0.0001484267316 	-3.726060807e-08
0.506068373 	1.175573231 	0.0001616265157 	-4.022624058e-08
0.5085784129 	1.190505884 	0.0001789501952 	-4.407761318e-08
0.5111453651 	1.206150885 	0.000199201876 	-4.85306904e-08
0.5137705202 	1.221209726 	0.0002209670773 	-5.326559388e-08
0.5164551977 	1.235747525 	0.0002443304667 	-5.829565382e-08
0.5192007473 	1.249822129 	0.0002693746933 	-6.363429081e-08
0.5220085492 	1.263483805 	0.000296181759 	-6.92959184e-08
0.5248800149 	1.276775862 	0.0003248344716 	-7.529454071e-08
0.5278165879 	1.289735672 	0.0003554174504 	-8.164016499e-08
0.5308197445 	1.30239575 	0.0003880189814 	-8.833549397e-08
0.5338909942 	1.314784602 	0.0004227331645 	-9.53788295e-08
0.5370318812 	1.326927012 	0.0004596593331 	-1.027784283e-07
0.5402439843 	1.338843172 	0.0004988925062 	-1.105692145e-07
0.5435289183 	1.35054581 	0.0005404956002 	-1.187907498e-07
0.5468883345 	1.362033933 	0.0005844420267 	-1.27355665e-07
0.5503239217 	1.373281628 	0.0006305196204 	-1.358167622e-07
0.5538374071 	1.38422447 	0.0006782256826 	-1.432838171e-07
0.5574305568 	1.394756131 	0.0007267326461 	-1.488804749e-07
0.5611051773 	1.40475142 	0.0007749728719 	-1.526458076e-07
0.5648631156 	1.414122541 	0.0008218515902 	-1.557298826e-07
0.5687062611 	1.422905276 	0.0008672275523 	-1.595400462e-07
0.5726365456 	1.431221334 	0.0009115919899 	-1.644948566e-07
0.576655945 	1.439119918 	0.0009551429535 	-1.691586208e-07
0.5807664798 	1.44655949 	0.0009974175962 	-1.722156422e-07
0.5849702164 	1.453475162 	0.001037310671 	-1.732897609e-07
0.5892692681 	1.459796369 	0.001073663205 	-1.719629478e-07
0.593665796 	1.465454251 	0.00110526012 	-1.681230021e-07
0.5981620103 	1.470391414 	0.001130931507 	-1.619400882e-07
0.6027601713 	1.474572291 	0.00114970091 	-1.538366213e-07
0.6074625904 	1.477990932 	0.001160926713 	-1.444362756e-07
0.6122716317 	1.480672898 	0.001164382957 	-1.344231222e-07
0.6171897127 	1.482670045 	0.001160207891 	-1.242457398e-07
0.6222193057 	1.484050233 	0.001148821447 	-1.143554461e-07
0.6273629392 	1.484892893 	0.001130988791 	-1.053361354e-07
0.6326231989 	1.485287083 	0.001107698943 	-9.743399279e-08
0.6380027291 	1.485316389 	0.001079872331 	-9.054806824e-08
0.6435042341 	1.485045047 	0.00104827035 	-8.44660584e-08
0.6491304798 	1.484518428 	0.001013486095 	-7.897793875e-08
0.6548842942 	1.483767998 	0.000975958713 	-7.391833458e-08
0.6607685701 	1.48281507 	0.000936019663 	-6.916120222e-08
0.6667862654 	1.481673464 	0.0008939228969 	-6.460669161e-08
0.6729404052 	1.480351374 	0.000849865871 	-6.017960629e-08
0.6792340834 	1.478852679 	0.0008040058991 	-5.582537592e-08
0.6856704637 	1.477177846 	0.000756472923 	-5.150434594e-08
0.6922527818 	1.475324534 	0.0007073795773 	-4.718677791e-08
0.6989843466 	1.473287973 	0.0006568294783 	-4.284917561e-08
0.7058685423 	1.47106116 	0.0006049245403 	-3.847151114e-08
0.7129088294 	1.468634894 	0.0005517720179 	-3.403463562e-08
0.7201087472 	1.465997656 	0.0004974919653 	-2.951714042e-08
0.7274719152 	1.463135319 	0.0004422259636 	-2.48909638e-08
0.7350020349 	1.460047913 	0.0003864508283 	-2.014066741e-08
0.7425321576 	1.45677613 	0.0003313300431 	-1.528777184e-08
0.7498953284 	1.45337019 	0.0002780146412 	-1.032789193e-08
0.7570952489 	1.449845952 	0.0002269926496 	-5.172491157e-09
0.7641355384 	1.446199733 	0.0001784764606 	2.88272237e-10
0.7710197363 	1.442425869 	0.0001326910471 	6.103754726e-09
0.7777513032 	1.438517604 	8.98478297e-05 	1.223259592e-08
0.7843336232 	1.434468043 	5.011740148e-05 	1.855855649e-08
0.7907700052 	1.430270681 	1.361203109e-05 	2.494678158e-08
0.7970636849 	1.425919544 	-1.962606925e-05 	3.128656468e-08
0.8032178261 	1.421409254 	-4.9569661e-05 	3.748221522e-08
0.8092355226 	1.416715502 	-7.618503312e-05 	4.3515882e-08
0.8151197995 	1.41177674 	-9.946114593e-05 	4.943939967e-08
0.8208736149 	1.406527357 	-0.000119262038 	5.532654948e-08
0.8264998613 	1.400935201 	-0.0001353277828 	6.119389593e-08
0.8320013671 	1.394998318 	-0.0001474671422 	6.693906562e-08
0.8373808978 	1.388729677 	-0.0001556135001 	7.241770032e-08
0.8426411579 	1.382147287 	-0.0001598307246 	7.747222627e-08
0.8477847917 	1.37526947 	-0.00016031608 	8.194420583e-08
0.8528143849 	1.368113773 	-0.0001573879861 	8.568592498e-08
0.857732466 	1.360697455 	-0.0001514598612 	8.857675615e-08
0.8625415073 	1.35303793 	-0.0001430037576 	9.054338269e-08
0.8672439263 	1.345152309 	-0.000132507813 	9.157533169e-08
0.8718420871 	1.337056218 	-0.0001204360989 	9.172267676e-08
0.8763383011 	1.328762792 	-0.0001072025435 	9.107384294e-08
0.8807348287 	1.320282633 	-9.316453965e-05 	8.972786266e-08
0.8850338799 	1.311624549 	-7.86309708e-05 	8.777722231e-08
0.889237616 	1.302796284 	-6.387353581e-05 	8.530567279e-08
0.8933481502 	1.293804857 	-4.913384631e-05 	8.239233808e-08
0.8973675489 	1.284656572 	-3.462605509e-05 	7.911384603e-08
0.9012978327 	1.275356859 	-2.053752144e-05 	7.554412529e-08
0.9051409774 	1.265910049 	-7.02906801e-06 	7.175344187e-08
0.9088989149 	1.256319148 	5.764537695e-06 	6.780724554e-08
0.9125735344 	1.246585622 	1.773363103e-05 	6.376512333e-08
0.9161666832 	1.236709209 	2.879219406e-05 	5.968012218e-08
0.9196801676 	1.226687755 	3.88759919e-05 	5.559867993e-08
0.9231157538 	1.21651706 	4.794046086e-05 	5.156125878e-08
0.9264751689 	1.206190734 	5.595850975e-05 	4.760339236e-08
0.9297601017 	1.195700048 	6.291833893e-05 	4.375633796e-08
0.9329722036 	1.185033765 	6.882127934e-05 	4.004633247e-08
0.9361130893 	1.174177951 	7.367955492e-05 	3.649220936e-08
0.9391843379 	1.163115738 	7.75138569e-05 	3.310296338e-08
0.9421874931 	1.15182703 	8.035076116e-05 	2.987858185e-08
0.9451240648 	1.140288086 	8.222030845e-05 	2.681660657e-08
0.9479955291 	1.128470911 	8.315434992e-05 	2.392143107e-08
0.9508033297 	1.1163423 	8.318629784e-05 	2.120606449e-08
0.9535488779 	1.103862309 	8.235296378e-05 	1.868020264e-08
0.956233554 	1.090981828 	8.070130319e-05 	1.634912609e-08
0.9588587076 	1.077638763 	7.830865451e-05 	1.427371867e-08
0.9614256584 	1.063752208 	7.531145096e-05 	1.243992974e-08
0.9639356968 	1.050447255 	7.21596308e-05 	1.094897953e-08
0.9655695775 	1.039192174 	6.938759904e-05 	9.869593308e-09
0.9671427194 	1.02902874 	6.686633712e-05 	8.975665724e-09
0.9686573803 	1.018732889 	6.431040231e-05 	8.151254824e-09
0.9701157342 	1.008291283 	6.173214545e-05 	7.397310426e-09
0.9715198744 	0.9976895917 	5.914549723e-05 	6.709330398e-09
0.9728718162 	0.9869123266 	5.656296297e-05 	6.081713482e-09
0.9741735001 	0.9759426625 	5.399518139e-05 	5.50915524e-09
0.9754267944 	0.9647622364 	5.145128054e-05 	4.986712972e-09
0.9766334979 	0.9533509182 	4.893912442e-05 	4.509794765e-09
0.9777953427 	0.9416865475 	4.646545651e-05 	4.074190562e-09
0.9789139964 	0.9297446275 	4.403601802e-05 	3.67608649e-09
0.9799910645 	0.9174979677 	4.165565084e-05 	3.312054361e-09
0.981028093 	0.9049162641 	3.932837459e-05 	2.979030806e-09
0.9820265703 	0.8919656024 	3.705749585e-05 	2.674297631e-09
0.9829879297 	0.8786078677 	3.484595439e-05 	2.395439358e-09
0.9839135509 	0.8648000414 	3.269697354e-05 	2.14005993e-09
0.9848047624 	0.8504899539 	3.06086643e-05 	1.906497168e-09
0.9856628435 	0.8356094119 	2.857538513e-05 	1.693593676e-09
0.9864890258 	0.8200763929 	2.659082217e-05 	1.499642451e-09
0.987284495 	0.8038030484 	2.465120984e-05 	1.323025717e-09
0.988050393 	0.7866953601 	2.275895663e-05 	1.162384596e-09
0.988787819 	0.768647853 	2.091763103e-05 	1.016438812e-09
0.9894978315 	0.7495397942 	1.913038752e-05 	8.841344156e-10
0.9901814495 	0.7292320932 	1.739981849e-05 	7.645931963e-10
0.9908396543 	0.7075645502 	1.57281128e-05 	6.570315177e-10
0.9914733905 	0.6843533605 	1.411723267e-05 	5.607130074e-10
0.9920835679 	0.6593893506 	1.256908926e-05 	4.749212244e-10
0.9926710621 	0.6324378799 	1.108568994e-05 	3.98932808e-10
0.9932367165 	0.6032402892 	9.669457404e-06 	3.320504318e-10
0.9937813429 	0.5741912175 	8.430338962e-06 	2.781479625e-10
0.9941324681 	0.5485315972 	7.45910574e-06 	2.389810226e-10
0.9944835934 	0.5238245947 	6.620374893e-06 	2.070742039e-10
0.9948347186 	0.4967565438 	5.798272924e-06 	1.773056891e-10
0.9951858439 	0.4670171705 	4.99737008e-06 	1.496049473e-10
0.9955369691 	0.4343587782 	4.224043625e-06 	1.240126393e-10
0.9958880943 	0.3986435095 	3.486177328e-06 	1.005614896e-10
0.9962392196 	0.3599335829 	2.793976479e-06 	7.93267064e-11
0.9965903448 	0.3185601446 	2.159414776e-06 	6.043914014e-11
0.9969414701 	0.2751035867 	1.594533466e-06 	4.405876932e-11
0.9972925953 	0.2302550762 	1.109159851e-06 	3.031421093e-11
0.9976437206 	0.1846276898 	7.094469602e-07 	1.924641833e-11
0.9979948458 	0.1386353691 	3.983809785e-07 	1.08017255e-11
0.9983459711 	0.09249000255 	1.779430885e-07 	4.885691685e-12
0.9986970963 	0.04627107319 	4.802790193e-08 	1.393207774e-12
0.9990482216 	0.01705857697 	3.984087377e-09 	1.756818133e-13
