0.4709558481 	1.321499878e-07 	-3.978341087e-10 	1.070745703e-15 	1.318985509e-07 	-2.469178788e-13 	2.514352973e-10
0.4709558481 	1.321499878e-07 	-3.978341087e-10 	1.070745703e-15 	1.318985509e-07 	-2.469178788e-13 	2.514352973e-10
0.4713069734 	3.242113845e-06 	-5.270672448e-08 	1.417245347e-13 	3.235944612e-06 	-6.057625344e-12 	6.168609814e-09
0.4716580986 	2.398278465e-05 	-1.048880859e-06 	2.810448223e-12 	2.393713333e-05 	-4.478354841e-11 	4.56308291e-08
0.4720092239 	9.306953519e-05 	-8.042151717e-06 	2.13104147e-11 	9.289223919e-05 	-1.732482951e-10 	1.77078426e-07
0.4723603491 	0.0002501058609 	-3.59466891e-05 	9.284540003e-11 	0.0002496287529 	-4.611340114e-10 	4.758617838e-07
0.4727114744 	0.0005318130234 	-0.0001118762698 	2.757343471e-10 	0.0005307964059 	-9.596637612e-10 	1.011845477e-06
0.4730625996 	0.0009577969296 	-0.0002659690969 	6.101304183e-10 	0.000955960969 	-1.663353593e-09 	1.822327302e-06
0.4734137249 	0.001517682447 	-0.0005118606384 	1.067839412e-09 	0.001514763782 	-2.490875432e-09 	2.887560775e-06
0.4737648501 	0.002170884139 	-0.0008338492086 	1.55653411e-09 	0.002166694231 	-3.31780582e-09 	4.130321406e-06
0.4741159754 	0.002862501261 	-0.001195026375 	1.983465223e-09 	0.002856955277 	-4.040402941e-09 	5.446150807e-06
0.4744671006 	0.003543360227 	-0.001557333265 	2.305179837e-09 	0.003536467509 	-4.612200111e-09 	6.741489982e-06
0.4748182259 	0.004180902805 	-0.001895169485 	2.537275922e-09 	0.004172735866 	-5.035554547e-09 	7.954394312e-06
0.4751693511 	0.004759335503 	-0.00219683757 	2.59222003e-09 	0.004749998181 	-5.338930091e-09 	9.054816726e-06
0.4755204764 	0.005275037603 	-0.002450474403 	2.593009157e-09 	0.005264643367 	-5.561040656e-09 	1.003587349e-05
0.4758716016 	0.005731604621 	-0.002662557205 	2.668849303e-09 	0.005720260758 	-5.721749594e-09 	1.090440687e-05
0.4762227269 	0.00618666412 	-0.002873935716 	2.723915909e-09 	0.006174353877 	-5.837275126e-09 	1.177003456e-05
0.4767673536 	0.006671187192 	-0.00309899739 	2.756594996e-09 	0.006657817355 	-5.903568119e-09 	1.269165032e-05
0.4773330083 	0.007120070607 	-0.003307514859 	2.757231419e-09 	0.007105677745 	-5.899626881e-09 	1.35453967e-05
0.4779205028 	0.007497187011 	-0.003482697062 	2.728378797e-09 	0.007481886429 	-5.832209017e-09 	1.426255502e-05
0.4785306805 	0.007812713595 	-0.003629216126 	2.675322949e-09 	0.007796600327 	-5.71303136e-09 	1.486248718e-05
0.479164417 	0.008075901199 	-0.003751392206 	2.602135056e-09 	0.008059051832 	-5.549837227e-09 	1.536279269e-05
0.4798226221 	0.00829478774 	-0.003853004411 	2.511058434e-09 	0.008277262652 	-5.347441817e-09 	1.577876316e-05
0.4805062404 	0.00847617329 	-0.003937197096 	2.403360497e-09 	0.008458018924 	-5.108634495e-09 	1.612333485e-05
0.4812162531 	0.008625724345 	-0.004006597446 	2.279670759e-09 	0.008606975281 	-4.834794278e-09 	1.640728707e-05
0.4819536793 	0.008748120327 	-0.004063377284 	2.140162713e-09 	0.008728801073 	-4.526297529e-09 	1.663952089e-05
0.4827195775 	0.008847206791 	-0.004109322142 	1.984672746e-09 	0.008827333281 	-4.18278417e-09 	1.682735066e-05
0.483515047 	0.00892613709 	-0.004145896364 	1.812777268e-09 	0.008905717912 	-3.803329163e-09 	1.697677356e-05
0.4843412294 	0.008987495829 	-0.004174300198 	1.623846806e-09 	0.008966533216 	-3.38656165e-09 	1.709270443e-05
0.4851993106 	0.009033402281 	-0.004195517756 	1.417077655e-09 	0.00901189291 	-2.930734524e-09 	1.717917261e-05
0.4860905223 	0.009065594908 	-0.004210356238 	1.191504042e-09 	0.009043530541 	-2.433751559e-09 	1.723948273e-05
0.4870161436 	0.009085500448 	-0.004219478023 	9.460080268e-10 	0.009062868451 	-1.89318953e-09 	1.727634616e-05
0.487977503 	0.009094289882 	-0.004223426657 	6.793257851e-10 	0.009071073635 	-1.306312594e-09 	1.729198752e-05
0.4889759804 	0.009092923326 	-0.004222647716 	3.90047376e-10 	0.009069102566 	-6.700727924e-10 	1.728823012e-05
0.4900130089 	0.009082186193 	-0.004217505599 	7.661356222e-11 	0.009057737284 	1.889564193e-11 	1.726656473e-05
0.491090077 	0.009062718383 	-0.00420829709 	-2.626894345e-10 	0.009037614546 	7.642863161e-10 	1.72282052e-05
0.4922087306 	0.009035037974 	-0.004195262372 	-6.297364664e-10 	0.009009249476 	1.570133437e-09 	1.717413349e-05
0.4933705753 	0.008999560628 	-0.004178594035 	-1.026570398e-09 	0.008973054949 	2.44082544e-09 	1.710513666e-05
0.4945772787 	0.008956615665 	-0.004158444556 	-1.455408314e-09 	0.008929357645 	3.381117055e-09 	1.702183746e-05
0.4958305727 	0.00890645954 	-0.00413493256 	-1.918645616e-09 	0.008878411539 	4.396136695e-09 	1.692472002e-05
0.4971322564 	0.008849287117 	-0.004108148075 	-2.418856681e-09 	0.008820409217 	5.491386123e-09 	1.681415147e-05
0.4984841978 	0.00878524072 	-0.004078156773 	-2.958791907e-09 	0.008755491036 	6.672731293e-09 	1.669039938e-05
0.4998883377 	0.008714416192 	-0.004045002846 	-3.541374386e-09 	0.008683751465 	7.946388583e-09 	1.655364382e-05
0.5013466912 	0.008636864049 	-0.004008709712 	-4.169707014e-09 	0.008605241019 	9.318923173e-09 	1.640398109e-05
0.5028613516 	0.00855258234 	-0.003969276983 	-4.84711505e-09 	0.008519960503 	1.079731606e-08 	1.624141272e-05
0.5044344929 	0.008461496809 	-0.003926671198 	-5.577271797e-09 	0.008427840115 	1.238927575e-08 	1.606580566e-05
0.506068373 	0.008351047344 	-0.003875021384 	-6.463933527e-09 	0.008316193712 	1.432025904e-08 	1.585297658e-05
0.5085784129 	0.008206507146 	-0.003807444728 	-7.630652318e-09 	0.008170153589 	1.685806684e-08 	1.557458352e-05
0.5111453651 	0.008038743965 	-0.003729026238 	-8.9976209e-09 	0.008000720048 	1.982762e-08 	1.52515961e-05
0.5137705202 	0.007860670593 	-0.003645806958 	-1.046825425e-08 	0.007820956292 	2.301780496e-08 	1.490891641e-05
0.5164551977 	0.007672623866 	-0.003557948546 	-1.204667131e-08 	0.007631219967 	2.643670897e-08 	1.454722624e-05
0.5192007473 	0.007474804889 	-0.003465549742 	-1.373787344e-08 	0.007431734641 	3.009434179e-08 	1.416695177e-05
0.5220085492 	0.007267290826 	-0.003368651532 	-1.554816748e-08 	0.007222599043 	3.400377519e-08 	1.376828119e-05
0.5248800149 	0.007050047691 	-0.00326724338 	-1.748570467e-08 	0.007003801169 	3.818233344e-08 	1.335119163e-05
0.5278165879 	0.006822935577 	-0.003161266016 	-1.956096689e-08 	0.006775225062 	4.265238988e-08 	1.291546204e-05
0.5308197445 	0.006585704698 	-0.003050609947 	-2.178690624e-08 	0.006536648304 	4.744098631e-08 	1.246066843e-05
0.5338909942 	0.006337987855 	-0.00293511228 	-2.417822242e-08 	0.006287735771 	5.257733891e-08 	1.198617197e-05
0.5370318812 	0.00607930613 	-0.002814559512 	-2.674859111e-08 	0.006028045931 	5.808648585e-08 	1.149113095e-05
0.5402439843 	0.005809123071 	-0.002688712747 	-2.950286945e-08 	0.005757085273 	6.397393633e-08 	1.097460463e-05
0.5435289183 	0.005527010787 	-0.002557385573 	-3.241777176e-08 	0.005474478224 	7.018741631e-08 	1.043587705e-05
0.5468883345 	0.005233371893 	-0.002420781514 	-3.528119163e-08 	0.005180697764 	7.627668886e-08 	9.875849838e-06
0.5503239217 	0.004931067185 	-0.00228025111 	-3.763173706e-08 	0.004878693149 	8.126631196e-08 	9.300145105e-06
0.5538374071 	0.004625735159 	-0.002138437589 	-3.911529018e-08 	0.004574195677 	8.441123686e-08 	8.719688293e-06
0.5574305568 	0.004323770104 	-0.001998327499 	-3.966721783e-08 	0.004273653276 	8.556277337e-08 	8.146770944e-06
0.5611051773 	0.00403071095 	-0.001862469178 	-3.94124219e-08 	0.003982451442 	8.495543423e-08 	7.591659314e-06
0.5648631156 	0.003749849794 	-0.001726623946 	-4.472482392e-08 	0.003703613648 	8.365703949e-08 	7.060116979e-06
0.5687062611 	0.003480834623 	-0.001579831926 	-4.86494705e-08 	0.003436881718 	8.262742415e-08 	6.551651787e-06
0.5726365456 	0.00322230458 	-0.001429628543 	-4.737682994e-08 	0.003180984714 	8.139228587e-08 	6.063840973e-06
0.576655945 	0.002974968786 	-0.001284773359 	-4.798848481e-08 	0.002936647834 	7.931509609e-08 	5.59806697e-06
0.5807664798 	0.002740949993 	-0.00114163106 	-4.808036754e-08 	0.002706073038 	7.61718652e-08 	5.158527325e-06
0.5849702164 	0.002523004954 	-0.001001776051 	-4.753187299e-08 	0.002491954907 	7.166449183e-08 	4.750358656e-06
0.5892692681 	0.002324365439 	-0.0008668891695 	-4.626465973e-08 	0.002297485959 	6.562442691e-08 	4.379646791e-06
0.593665796 	0.002148232788 	-0.0007385750974 	-4.428717923e-08 	0.002125807901 	5.812667597e-08 	4.052380696e-06
0.5981620103 	0.001997102807 	-0.0006181286184 	-4.171149455e-08 	0.001979342593 	4.953021516e-08 	3.773177111e-06
0.6027601713 	0.001872177343 	-0.0005063343573 	-3.873078246e-08 	0.00185921443 	4.041922871e-08 	3.544179446e-06
0.6074625904 	0.001773055114 	-0.0004033920965 	-3.555591495e-08 	0.001764954954 	3.147245945e-08 	3.364494685e-06
0.6122716317 	0.001697792531 	-0.000308959111 	-3.239121407e-08 	0.001694589868 	2.329180427e-08 	3.230359275e-06
0.6171897127 	0.001643247624 	-0.0002227442111 	-2.911294119e-08 	0.001645006763 	1.628668286e-08 	3.135840096e-06
0.6222193057 	0.001606371832 	-0.0001441841111 	-2.610654394e-08 	0.001613210856 	1.02610333e-08 	3.07522826e-06
0.6273629392 	0.00158488039 	-7.146341961e-05 	-2.384293265e-08 	0.001596846392 	5.145375232e-09 	3.044033044e-06
0.6326231989 	0.001576110755 	-3.053495922e-06 	-2.185990041e-08 	0.001593055088 	1.314959452e-09 	3.036805764e-06
0.6380027291 	0.001577057143 	6.158907033e-05 	-1.997978877e-08 	0.00159871265 	-1.326177702e-09 	3.047590651e-06
0.6435042341 	0.001585366476 	0.0001230736739 	-1.83151952e-08 	0.001611444946 	-3.106844685e-09 	3.071861945e-06
0.6491304798 	0.00159942463 	0.0001820167066 	-1.681293833e-08 	0.001629629667 	-4.253330506e-09 	3.106527078e-06
0.6548842942 	0.001618124467 	0.0002388924631 	-1.542960192e-08 	0.001652152853 	-4.919504779e-09 	3.149462529e-06
0.6607685701 	0.001640710391 	0.0002940698076 	-1.413163604e-08 	0.00167825332 	-5.212166412e-09 	3.199217274e-06
0.6667862654 	0.001666674858 	0.0003478398751 	-1.289269673e-08 	0.001707420847 	-5.205261223e-09 	3.254818687e-06
0.6729404052 	0.001695690306 	0.0004004372005 	-1.169181021e-08 	0.001739327393 	-4.949211686e-09 	3.315641433e-06
0.6792340834 	0.001727564456 	0.0004520563285 	-1.051243142e-08 	0.001773781241 	-4.477451921e-09 	3.381320043e-06
0.6856704637 	0.001762211488 	0.0005028652074 	-9.341821287e-09 	0.001810697105 	-3.811109909e-09 	3.45169194e-06
0.6922527818 	0.0017996344 	0.0005530162366 	-8.170381475e-09 	0.001850077546 	-2.962339174e-09 	3.526762005e-06
0.6989843466 	0.001839915602 	0.0006026556733 	-6.990860889e-09 	0.001892002655 	-1.93660627e-09 	3.606682915e-06
0.7058685423 	0.001883213943 	0.0006519320578 	-5.797472871e-09 	0.001936626147 	-7.341520095e-10 	3.691747694e-06
0.7129088294 	0.001929767234 	0.0007010043383 	-4.584958303e-09 	0.001984176787 	6.49212772e-10 	3.78239243e-06
0.7201087472 	0.001979899944 	0.0007500504443 	-3.347565697e-09 	0.002034964747 	2.221878585e-09 	3.879208397e-06
0.7274719152 	0.002034036394 	0.0007992771447 	-2.077839904e-09 	0.002089392843 	3.996748426e-09 	3.982963475e-06
0.7350020349 	0.002092393567 	0.0008486526362 	-7.730457456e-10 	0.002147649099 	5.980936217e-09 	4.09401609e-06
0.7425321576 	0.002154478534 	0.0008976124595 	5.574558191e-10 	0.002209217892 	8.157119592e-09 	4.211383322e-06
0.7498953284 	0.00221964531 	0.0009456739679 	1.910044029e-09 	0.002273447082 	1.050155343e-08 	4.33382201e-06
0.7570952489 	0.002287901819 	0.000992965469 	3.300246483e-09 	0.002340337786 	1.301497245e-08 	4.461334283e-06
0.7641355384 	0.002359630071 	0.001039867439 	4.745500737e-09 	0.002410254211 	1.571137944e-08 	4.594614421e-06
0.7710197363 	0.002435240962 	0.00108675555 	6.264112236e-09 	0.002483589572 	1.858471771e-08 	4.734412003e-06
0.7777513032 	0.002515111293 	0.001134015346 	7.900602902e-09 	0.002560726591 	2.158697975e-08 	4.8814566e-06
0.7843336232 	0.002599525248 	0.001182062184 	9.692775935e-09 	0.002642000467 	2.466168772e-08 	5.036387195e-06
0.7907700052 	0.0026886971 	0.001231294753 	1.160699512e-08 	0.002727718603 	2.779368452e-08 	5.199789788e-06
0.7970636849 	0.002782849595 	0.00128200553 	1.356914556e-08 	0.002818193887 	3.099677746e-08 	5.372260825e-06
0.8032178261 	0.002882224649 	0.001337100179 	1.562689693e-08 	0.002913737221 	3.427203618e-08 	5.554392974e-06
0.8092355226 	0.002987469892 	0.001393347847 	1.771177199e-08 	0.003014802346 	3.761580805e-08 	5.747051192e-06
0.8151197995 	0.003099767897 	0.001446714456 	1.95318152e-08 	0.003122433456 	4.105570995e-08 	5.952226003e-06
0.8208736149 	0.003220105149 	0.001501559759 	2.118815509e-08 	0.003237835818 	4.464026041e-08 	6.172214978e-06
0.8264998613 	0.003348817864 	0.00156027439 	2.291409636e-08 	0.003361543594 	4.838000402e-08 	6.408036383e-06
0.8320013671 	0.003485731398 	0.001622802748 	2.468116708e-08 	0.003493490422 	5.221963632e-08 	6.65956371e-06
0.8373808978 	0.003630400078 	0.001688954905 	2.644339848e-08 	0.003633301979 	5.606111698e-08 	6.926083395e-06
0.8426411579 	0.003782242567 	0.001758477074 	2.81466416e-08 	0.003780463169 	5.978771368e-08 	7.206613525e-06
0.8477847917 	0.003940596775 	0.001831079541 	2.973528246e-08 	0.003934385042 	6.327990292e-08 	7.500031395e-06
0.8528143849 	0.004104720269 	0.001906435312 	3.115623286e-08 	0.004094398569 	6.642355507e-08 	7.805061651e-06
0.857732466 	0.004273766939 	0.001984166759 	3.236115284e-08 	0.004259720623 	6.911368906e-08 	8.120211435e-06
0.8625415073 	0.004446763794 	0.002063832608 	3.330709934e-08 	0.004429421522 	7.125502516e-08 	8.443708516e-06
0.8672439263 	0.004622591846 	0.002144917551 	3.39543034e-08 	0.004602399877 	7.275727662e-08 	8.773453336e-06
0.8718420871 	0.004799976944 	0.002226827804 	3.427113965e-08 	0.004777373043 	7.354718858e-08 	9.107000823e-06
0.8763383011 	0.004977578136 	0.002308933929 	3.42613836e-08 	0.004952972978 	7.362896299e-08 	9.441743104e-06
0.8807348287 	0.005154204574 	0.002390674737 	3.397429143e-08 	0.005127975626 	7.310677622e-08 	9.775346791e-06
0.8850338799 	0.005328943171 	0.002471619092 	3.346665195e-08 	0.005301438623 	7.210258751e-08 	1.010601547e-05
0.889237616 	0.0055010802 	0.002551430062 	3.27752176e-08 	0.005472625593 	7.069564973e-08 	1.043234542e-05
0.8933481502 	0.00566999429 	0.002629814459 	3.192524107e-08 	0.005640896268 	6.894018373e-08 	1.075311609e-05
0.8973675489 	0.005835126043 	0.002706507886 	3.094038531e-08 	0.00580567248 	6.688674642e-08 	1.106722535e-05
0.9012978327 	0.005995979963 	0.002781275199 	2.984426818e-08 	0.005966438149 	6.458578674e-08 	1.13736894e-05
0.9051409774 	0.006152128359 	0.002853912213 	2.866013898e-08 	0.006122742677 	6.208706747e-08 	1.167164927e-05
0.9088989149 	0.006303213236 	0.002924246643 	2.741036484e-08 	0.006274203072 	5.943860685e-08 	1.196037488e-05
0.9125735344 	0.006448945577 	0.002992137903 	2.611591859e-08 	0.006420503783 	5.668559823e-08 	1.22392647e-05
0.9161666832 	0.006589102093 	0.003057475757 	2.479596983e-08 	0.006561394128 	5.386952955e-08 	1.250784085e-05
0.9196801676 	0.006723519888 	0.00312017801 	2.346762153e-08 	0.006696683657 	5.102758895e-08 	1.27657403e-05
0.9231157538 	0.00685208961 	0.003180187469 	2.214579919e-08 	0.00682623594 	4.819237434e-08 	1.301270296e-05
0.9264751689 	0.006974747668 	0.003237468456 	2.084327895e-08 	0.006949961324 	4.539189644e-08 	1.324855792e-05
0.9297601017 	0.007091468021 	0.003292003082 	1.957082841e-08 	0.007067809118 	4.264985065e-08 	1.347320858e-05
0.9329722036 	0.007202253971 	0.003343787495 	1.833742667e-08 	0.007179759661 	3.998610477e-08 	1.368661743e-05
0.9361130893 	0.007307130286 	0.003392828249 	1.715053182e-08 	0.007285816573 	3.741730113e-08 	1.388879138e-05
0.9391843379 	0.007406135849 	0.003439138893 	1.601637434e-08 	0.007385999453 	3.495743799e-08 	1.407976779e-05
0.9421874931 	0.00749931697 	0.00348273685 	1.494026578e-08 	0.007480337122 	3.261834937e-08 	1.425960161e-05
0.9451240648 	0.007586721297 	0.003523640532 	1.392690527e-08 	0.007568861326 	3.041019248e-08 	1.442835334e-05
0.9479955291 	0.007668392038 	0.003561866555 	1.298063028e-08 	0.007651600513 	2.834227029e-08 	1.458607723e-05
0.9508033297 	0.007744361598 	0.003597426613 	1.210550914e-08 	0.007728572792 	2.642437628e-08 	1.473280779e-05
0.9535488779 	0.007814642781 	0.003630323135 	1.130516243e-08 	0.007799776074 	2.466763303e-08 	1.486854103e-05
0.956233554 	0.007879214018 	0.00366054194 	1.058223447e-08 	0.007865171105 	2.308139392e-08 	1.499320214e-05
0.9588587076 	0.007937991892 	0.003688038519 	9.937331939e-09 	0.007924649548 	2.166264235e-08 	1.510658458e-05
0.9614256584 	0.007990777969 	0.003712711771 	9.366511154e-09 	0.00797797382 	2.039646101e-08 	1.520823546e-05
0.9639356968 	0.008033602321 	0.003729353808 	8.389799001e-09 	0.008021118712 	1.934457135e-08 	1.529048162e-05
0.9655695775 	0.008064125052 	0.003739871707 	7.739704423e-09 	0.008051772848 	1.855220508e-08 	1.534891692e-05
0.9671427194 	0.008087390579 	0.003749866589 	7.636609589e-09 	0.008075085418 	1.789012054e-08 	1.539335716e-05
0.9686573803 	0.008106785703 	0.003758002143 	7.325453839e-09 	0.008094496578 	1.725341092e-08 	1.543036023e-05
0.9701157342 	0.008122190971 	0.003764399924 	7.034744489e-09 	0.008109896218 	1.663907696e-08 	1.545971622e-05
0.9715198744 	0.008133465846 	0.003769020397 	6.763619876e-09 	0.008121145645 	1.604790749e-08 	1.548116076e-05
0.9728718162 	0.008140442191 	0.003771807854 	6.511020379e-09 	0.008128079899 	1.548036139e-08 	1.549437937e-05
0.9741735001 	0.008142920433 	0.003772688898 	6.275782252e-09 	0.008130503036 	1.493629025e-08 	1.549899854e-05
0.9754267944 	0.00814066499 	0.00377157045 	6.056701105e-09 	0.008128182878 	1.441519768e-08 	1.549457568e-05
0.9766334979 	0.008133398639 	0.003768337202 	5.852585067e-09 	0.008120845367 	1.39163508e-08 	1.548058834e-05
0.9777953427 	0.008120795853 	0.003762848419 	5.662289104e-09 	0.008108167994 	1.343880924e-08 	1.545642175e-05
0.9789139964 	0.008102474928 	0.003754933966 	5.484733626e-09 	0.00808977198 	1.298144005e-08 	1.542135383e-05
0.9799910645 	0.008077988644 	0.003744389374 	5.318911544e-09 	0.008065212976 	1.254292308e-08 	1.537453754e-05
0.981028093 	0.008046813154 	0.003730969746 	5.163886513e-09 	0.008033969978 	1.212174085e-08 	1.531497971e-05
0.9820265703 	0.008008334763 	0.003714382189 	5.018783621e-09 	0.007995432067 	1.171615069e-08 	1.524151573e-05
0.9829879297 	0.007961834197 	0.003694276435 	4.882773123e-09 	0.007948882544 	1.132414071e-08 	1.515277941e-05
0.9839135509 	0.007906467284 	0.003670837445 	4.661872979e-09 	0.007893481272 	1.094329531e-08 	1.504716918e-05
0.9848047624 	0.007841174105 	0.003642546413 	4.665960294e-09 	0.007828174256 	1.058120417e-08 	1.492267586e-05
0.9856628435 	0.007764582853 	0.003607507465 	4.751746097e-09 	0.007751595153 	1.024693863e-08 	1.477669481e-05
0.9864890258 	0.00767497727 	0.003565850717 	4.612129788e-09 	0.007662029777 	9.942107356e-09 	1.460595831e-05
0.987284495 	0.007570259862 	0.003517173578 	4.485811795e-09 	0.007557381085 	9.666260576e-09 	1.440646881e-05
0.988050393 	0.007447908508 	0.003460304284 	4.370509595e-09 	0.007435130553 	9.414536256e-09 	1.417342532e-05
0.988787819 	0.007304914773 	0.003393845827 	4.263414612e-09 	0.007292276466 	9.180897189e-09 	1.390110573e-05
0.9894978315 	0.007137698062 	0.003316136133 	4.161689652e-09 	0.007125246568 	8.959238925e-09 	1.358270032e-05
0.9901814495 	0.006942010057 	0.003225204749 	4.062481972e-09 	0.006929802101 	8.743464572e-09 	1.321012884e-05
0.9908396543 	0.006712847814 	0.003118736031 	3.962692203e-09 	0.006700950954 	8.527056723e-09 	1.277387495e-05
0.9914733905 	0.00644440286 	0.002994010003 	3.859332823e-09 	0.006432896867 	8.302426245e-09 	1.226288936e-05
0.9920835679 	0.006130101616 	0.0028479545 	3.747672961e-09 	0.006119079816 	8.059991827e-09 	1.166466684e-05
0.9926710621 	0.005762824386 	0.002677291466 	3.621380244e-09 	0.005752394592 	7.787117435e-09 	1.096566289e-05
0.9932367165 	0.005335405947 	0.002478704346 	3.473080836e-09 	0.005325690334 	7.46709919e-09 	1.015224598e-05
0.9937813429 	0.004884275553 	0.002269108294 	3.308914876e-09 	0.004875334394 	7.11325762e-09 	9.293742384e-06
0.9941324681 	0.004468753969 	0.002073950463 	3.161157028e-09 	0.004460539646 	6.767163367e-09 	8.503028309e-06
0.9944835934 	0.004058420421 	0.001869724464 	3.008583658e-09 	0.004050932593 	6.400960181e-09 	7.72220342e-06
0.9948347186 	0.003603251043 	0.001632627959 	2.807996596e-09 	0.00359657765 	5.95793134e-09 	6.856076617e-06
0.9951858439 	0.003105494192 	0.001370012673 	2.548105559e-09 	0.003099721005 	5.417215241e-09 	5.908929759e-06
0.9955369691 	0.002574488296 	0.001087856683 	2.210261514e-09 	0.00256968451 	4.760810555e-09 	4.898532883e-06
0.9958880943 	0.002029459604 	0.0008012680216 	1.789059532e-09 	0.002025659057 	3.985453155e-09 	3.861469165e-06
0.9962392196 	0.001500464543 	0.0005339372988 	1.308955624e-09 	0.001497644804 	3.120031973e-09 	2.854927246e-06
0.9965903448 	0.001024202955 	0.0003125739927 	8.337182476e-10 	0.001022271928 	2.236623976e-09 	1.948734421e-06
0.9969414701 	0.0006337541144 	0.0001554857336 	4.439905236e-10 	0.0006325557714 	1.435878843e-09 	1.20582711e-06
0.9972925953 	0.00034704927 	6.315564342e-05 	1.892954148e-10 	0.0003463914902 	8.051387928e-10 	6.603184549e-07
0.9976437206 	0.0001618849009 	1.98121805e-05 	6.115739204e-11 	0.0001615775367 	3.803584283e-10 	3.080116932e-07
0.9979948458 	5.999492734e-05 	4.371716659e-06 	1.36927755e-11 	5.988088902e-05 	1.417318494e-10 	1.141496175e-07
0.9983459711 	1.543089777e-05 	5.663622841e-07 	1.782959439e-12 	1.540154852e-05 	3.651739165e-11 	2.935963211e-08
0.9986970963 	2.083875949e-06 	2.837398322e-08 	8.935218591e-14 	2.079911373e-06 	4.933130013e-12 	3.964889159e-09
0.9990482216 	1.01923212e-07 	2.567575761e-10 	8.075126936e-16 	1.017292887e-07 	2.412855835e-13 	1.939242985e-10
