0.4709558481 	1.460298954e-07 	-4.594084e-10 	4.606977396e-15 	1.457520442e-07 	-1.007419213e-12 	2.778439059e-10
0.4709558481 	1.460298954e-07 	-4.594084e-10 	4.606977396e-15 	1.457520442e-07 	-1.007419213e-12 	2.778439059e-10
0.4713069734 	3.582629961e-06 	-6.085668456e-08 	6.097364006e-13 	3.575810742e-06 	-2.471482898e-11 	6.816489119e-09
0.4716580986 	2.650009452e-05 	-1.210441715e-06 	1.208207022e-11 	2.644958452e-05 	-1.826912418e-10 	5.042025937e-08
0.4720092239 	0.0001028052824 	-9.26559749e-06 	9.136521316e-11 	0.0001026087302 	-7.062724237e-10 	1.956007584e-07
0.4723603491 	0.0002759968801 	-4.126095715e-05 	3.956156542e-10 	0.0002754663314 	-1.876050492e-09 	5.251153897e-07
0.4727114744 	0.0005855917437 	-0.0001275766452 	1.162511299e-09 	0.0005844569138 	-3.887258976e-09 	1.114137319e-06
0.4730625996 	0.001050716239 	-0.0003004598108 	2.534721327e-09 	0.001048658533 	-6.689687496e-09 	1.999034623e-06
0.4734137249 	0.001656260824 	-0.0005717241479 	4.360910778e-09 	0.001652977111 	-9.924314557e-09 	3.151033795e-06
0.4737648501 	0.002354668811 	-0.0009203954471 	6.248924767e-09 	0.002349937264 	-1.308407679e-08 	4.479633557e-06
0.4741159754 	0.003085441567 	-0.001304536055 	7.843958374e-09 	0.003079153106 	-1.577850368e-08 	5.869721626e-06
0.4744671006 	0.003797066564 	-0.001683914695 	9.006410821e-09 	0.003789213128 	-1.785801451e-08 	7.223293379e-06
0.4748182259 	0.004457281687 	-0.002033968327 	9.826974258e-09 	0.004447921638 	-1.935730363e-08 	8.478974878e-06
0.4751693511 	0.00505191453 	-0.0023382559 	9.943803947e-09 	0.005041141698 	-2.039854985e-08 	9.609817189e-06
0.4755204764 	0.005579462283 	-0.002591638513 	9.858325938e-09 	0.005567380999 	-2.113589934e-08 	1.061297556e-05
0.4758716016 	0.00604459738 	-0.002807643672 	1.0099817e-08 	0.00603130142 	-2.164458643e-08 	1.149733682e-05
0.4762227269 	0.006505806011 	-0.003021807232 	1.02563178e-08 	0.006491221853 	-2.196789858e-08 	1.237407299e-05
0.4767673536 	0.006993832391 	-0.003248402878 	1.031335434e-08 	0.006977756544 	-2.207151601e-08 	1.330154334e-05
0.4773330083 	0.007442439045 	-0.003456696967 	1.023780861e-08 	0.007424818252 	-2.188126724e-08 	1.415376721e-05
0.4779205028 	0.007815850219 	-0.003630029612 	1.004016557e-08 	0.007796740405 	-2.142991936e-08 	1.48627542e-05
0.4785306805 	0.008124854375 	-0.003773344143 	9.737526717e-09 	0.008104287618 	-2.075698875e-08 	1.544902467e-05
0.479164417 	0.008379097589 	-0.003891182537 	9.345373354e-09 	0.008357084706 	-1.988687805e-08 	1.593092618e-05
0.4798226221 	0.008586852577 	-0.003987429487 	8.869496173e-09 	0.008563385739 	-1.883258375e-08 	1.632419329e-05
0.4805062404 	0.008755043499 	-0.004065283747 	8.312017797e-09 	0.008730098795 	-1.75992545e-08 	1.664199471e-05
0.4812162531 	0.008889382941 	-0.004127391992 	7.672584461e-09 	0.008862922712 	-1.6186435e-08 	1.689519401e-05
0.4819536793 	0.008994539776 	-0.004175919974 	6.948959922e-09 	0.008966514683 	-1.458948594e-08 	1.70926691e-05
0.4827195775 	0.009074306113 	-0.004212627645 	6.137398224e-09 	0.009044656933 	-1.280046596e-08 	1.724162995e-05
0.483515047 	0.009131747884 	-0.004238938226 	5.232899597e-09 	0.009100407095 	-1.080872565e-08 	1.734790525e-05
0.4843412294 	0.009169335073 	-0.004255998382 	4.229445479e-09 	0.009136228276 	-8.601437489e-09 	1.741619038e-05
0.4851993106 	0.009189048334 	-0.004264727645 	3.120063067e-09 	0.009154095582 	-6.163750467e-09 	1.745025043e-05
0.4860905223 	0.009192463682 	-0.004265857728 	1.896755816e-09 	0.009155580775 	-3.478653005e-09 	1.745308162e-05
0.4870161436 	0.009180822377 	-0.004259965001 	5.505124879e-10 	0.009141922164 	-5.270028638e-10 	1.742704451e-05
0.487977503 	0.009155087453 	-0.004247496776 	-9.28680488e-10 	0.009114081179 	2.712436437e-09 	1.737397186e-05
0.4889759804 	0.009115988199 	-0.004228792008 	-2.551865905e-09 	0.009072786933 	6.263043315e-09 	1.729525354e-05
0.4900130089 	0.009064055541 	-0.004204097768 	-4.331152692e-09 	0.009018571718 	1.015040694e-08 	1.719190428e-05
0.491090077 	0.008999650202 	-0.004173582377 	-6.279758776e-09 	0.008951799308 	1.440240831e-08 	1.706461751e-05
0.4922087306 	0.008922985225 	-0.00413734591 	-8.412056996e-09 	0.00887268763 	1.904930696e-08 	1.691380866e-05
0.4933705753 	0.00883414416 	-0.0040954287 	-1.074362222e-08 	0.008781327125 	2.412382856e-08 	1.673965014e-05
0.4945772787 	0.008733096046 	-0.004047818339 	-1.32912788e-08 	0.008677695895 	2.966124947e-08 	1.654210022e-05
0.4958305727 	0.008619708051 	-0.003994455617 	-1.607314923e-08 	0.00856167255 	3.569947727e-08 	1.632092747e-05
0.4971322564 	0.008493756405 	-0.003935239666 	-1.910870713e-08 	0.008433047399 	4.227913225e-08 	1.607573219e-05
0.4984841978 	0.008354935584 	-0.003870032348 	-2.241884195e-08 	0.008291532072 	4.944364846e-08 	1.580596464e-05
0.4998883377 	0.008202864535 	-0.003798661386 	-2.602594759e-08 	0.008136766694 	5.723943312e-08 	1.551093882e-05
0.5013466912 	0.008037086285 	-0.003720920735 	-2.995405005e-08 	0.007968321884 	6.571614445e-08 	1.518983619e-05
0.5028613516 	0.007857053474 	-0.003636564944 	-3.422898358e-08 	0.007785689117 	7.492713293e-08 	1.484168738e-05
0.5044344929 	0.007662089221 	-0.003545291526 	-3.887859232e-08 	0.007588241692 	8.493013484e-08 	1.446529771e-05
0.506068373 	0.007424642815 	-0.003434240994 	-4.457359495e-08 	0.007348237055 	9.71618858e-08 	1.400778216e-05
0.5085784129 	0.007111724334 	-0.003288051417 	-5.212272646e-08 	0.00703260878 	1.13346067e-07 	1.340610695e-05
0.5111453651 	0.006745077232 	-0.003116961569 	-6.09914671e-08 	0.006663620013 	1.323171392e-07 	1.27027118e-05
0.5137705202 	0.006351413051 	-0.002933507976 	-7.043596003e-08 	0.006268438783 	1.524594729e-07 	1.194938654e-05
0.5164551977 	0.005931152353 	-0.002737931581 	-8.018253947e-08 	0.005847662765 	1.731704277e-07 	1.11472705e-05
0.5192007473 	0.005489201657 	-0.002532550308 	-8.864921933e-08 	0.005406338808 	1.910935527e-07 	1.030598438e-05
0.5220085492 	0.005038361154 	-0.002323339439 	-9.367617579e-08 	0.004957327916 	2.016969827e-07 	9.450044825e-06
0.5248800149 	0.004594195305 	-0.002117547613 	-9.496098917e-08 	0.004516189975 	2.043690662e-07 	8.609113302e-06
0.5278165879 	0.004169503387 	-0.001921076752 	-9.317101271e-08 	0.004095428578 	2.004315563e-07 	7.807025136e-06
0.5308197445 	0.003772008846 	-0.001728742044 	-1.050551927e-07 	0.003702375734 	1.93159487e-07 	7.05775717e-06
0.5338909942 	0.003402210284 	-0.001524993309 	-1.130769346e-07 	0.003337849212 	1.857140332e-07 	6.362868306e-06
0.5370318812 	0.003059427841 	-0.001321613745 	-1.063500215e-07 	0.003001156662 	1.759681319e-07 	5.721038727e-06
0.5402439843 	0.002748007135 	-0.001133584151 	-1.026793198e-07 	0.002696348252 	1.612420806e-07 	5.13998918e-06
0.5435289183 	0.002474620066 	-0.0009580790959 	-9.669904026e-08 	0.002430050839 	1.413922771e-07 	4.632352297e-06
0.5468883345 	0.002244612733 	-0.0007981198223 	-8.87898051e-08 	0.002207312561 	1.175680171e-07 	4.207751232e-06
0.5503239217 	0.002060122251 	-0.0006552712891 	-7.979536316e-08 	0.002030076336 	9.207849541e-08 	3.869889726e-06
0.5538374071 	0.001919338947 	-0.000529427087 	-7.069301946e-08 	0.001896390328 	6.754803635e-08 	3.615047039e-06
0.5574305568 	0.001817044144 	-0.000419151636 	-6.23250441e-08 	0.001800994391 	4.605598003e-08 	3.433195869e-06
0.5611051773 	0.001746000749 	-0.0003227702817 	-5.420041166e-08 	0.001736729392 	2.874128721e-08 	3.310688919e-06
0.5648631156 	0.001698991117 	-0.0002393053713 	-4.689648978e-08 	0.001696483738 	1.498296485e-08 	3.233969517e-06
0.5687062611 	0.001670521049 	-0.0001660201038 	-4.208393587e-08 	0.001674782555 	4.038681204e-09 	3.192601031e-06
0.5726365456 	0.001656020348 	-9.928103171e-05 	-3.857907119e-08 	0.00166690902 	-3.7903238e-09 	3.177591885e-06
0.576655945 	0.001651143233 	-3.77984611e-05 	-3.535764156e-08 	0.001668370734 	-8.975560714e-09 	3.180378319e-06
0.5807664798 	0.001652679829 	1.90935621e-05 	-3.27627686e-08 	0.001675945547 	-1.245588876e-08 	3.194818018e-06
0.5849702164 	0.001658592918 	7.23379884e-05 	-3.066851173e-08 	0.001687614485 	-1.483007878e-08 	3.217062256e-06
0.5892692681 	0.001667553691 	0.0001225994186 	-2.892973054e-08 	0.001702062883 	-1.645758336e-08 	3.24460492e-06
0.593665796 	0.00167866883 	0.0001703461653 	-2.74412904e-08 	0.001718405715 	-1.756413898e-08 	3.275758899e-06
0.5981620103 	0.00169131968 	0.0002159104388 	-2.612795132e-08 	0.001736030123 	-1.829505851e-08 	3.309355919e-06
0.6027601713 	0.001705065621 	0.0002595290426 	-2.493595189e-08 	0.001754500006 	-1.874619289e-08 	3.34456465e-06
0.6074625904 	0.001719584279 	0.0003013710239 	-2.382631098e-08 	0.001773496652 	-1.89820874e-08 	3.380777537e-06
0.6122716317 	0.001734633593 	0.0003415568779 	-2.277023991e-08 	0.001792780971 	-1.90467941e-08 	3.417538808e-06
0.6171897127 	0.001750027286 	0.0003801722658 	-2.174618309e-08 	0.001812169 	-1.897061778e-08 	3.454497781e-06
0.6222193057 	0.001765618824 	0.0004172780938 	-2.073788073e-08 	0.001831515828 	-1.877452953e-08 	3.491378211e-06
0.6273629392 	0.001781290876 	0.0004529181171 	-1.973304866e-08 	0.001850704999 	-1.847312951e-08 	3.527958105e-06
0.6326231989 	0.001796948442 	0.0004871248293 	-1.872245814e-08 	0.001869641613 	-1.807665907e-08 	3.564056555e-06
0.6380027291 	0.001812514503 	0.0005199241459 	-1.769929688e-08 	0.001888247941 	-1.759238207e-08 	3.599525387e-06
0.6435042341 	0.001827927427 	0.0005513392298 	-1.665873187e-08 	0.001906460843 	-1.702554803e-08 	3.63424424e-06
0.6491304798 	0.001843139656 	0.0005813936951 	-1.559761228e-08 	0.001924230483 	-1.638007531e-08 	3.668118112e-06
0.6548842942 	0.001858117331 	0.0006101143519 	-1.451426381e-08 	0.001941520022 	-1.565904171e-08 	3.70107678e-06
0.6607685701 	0.001872840646 	0.0006375336019 	-1.34083396e-08 	0.001958306066 	-1.486503716e-08 	3.733075646e-06
0.6667862654 	0.001887304769 	0.0006636915588 	-1.228070307e-08 	0.0019745797 	-1.400041343e-08 	3.764097715e-06
0.6729404052 	0.001901521224 	0.0006886379409 	-1.113332528e-08 	0.001990348013 	-1.306745412e-08 	3.794156501e-06
0.6792340834 	0.001915519672 	0.0007124337622 	-9.969182398e-09 	0.002005636021 	-1.206848069e-08 	3.823299694e-06
0.6856704637 	0.001929350033 	0.0007351528315 	-8.79214077e-09 	0.002020488948 	-1.100590503e-08 	3.851613502e-06
0.6922527818 	0.001943084926 	0.0007568830587 	-7.606818452e-09 	0.002034974809 	-9.882235098e-09 	3.879227578e-06
0.6989843466 	0.001956822419 	0.0007777275572 	-6.418415168e-09 	0.002049187295 	-8.700036853e-09 	3.906320527e-06
0.7058685423 	0.001970689098 	0.0007978055287 	-5.232506765e-09 	0.002063248953 	-7.461853408e-09 	3.933125954e-06
0.7129088294 	0.001984843482 	0.0008172529171 	-4.054805721e-09 	0.00207731469 	-6.170080279e-09 	3.959939159e-06
0.7201087472 	0.001999479855 	0.0008362228239 	-2.890894707e-09 	0.002091575668 	-4.826793137e-09 	3.987124547e-06
0.7274719152 	0.002014832665 	0.0008548858133 	-1.745925326e-09 	0.002106263521 	-3.433521252e-09 	4.015123676e-06
0.7350020349 	0.002031091071 	0.0008733245671 	-6.300250347e-10 	0.002121570858 	-1.998792141e-09 	4.044303715e-06
0.7425321576 	0.002048258913 	0.0008914240084 	4.362402078e-10 	0.002137526887 	-5.477250457e-10 	4.074720342e-06
0.7498953284 	0.002066294487 	0.0009090934353 	1.436331667e-09 	0.002154131635 	8.950574918e-10 	4.106373607e-06
0.7570952489 	0.002085312369 	0.0009264410486 	2.369243191e-09 	0.00217153359 	2.323389097e-09 	4.139546568e-06
0.7641355384 	0.00210550036 	0.0009436343359 	3.240651519e-09 	0.002189944433 	3.740625199e-09 	4.174642754e-06
0.7710197363 	0.002127031755 	0.0009608132079 	4.056560464e-09 	0.00220955749 	5.151808794e-09 	4.212030691e-06
0.7777513032 	0.002150067668 	0.0009780944513 	4.823132945e-09 	0.002230550693 	6.563633896e-09 	4.25204957e-06
0.7843336232 	0.002174759768 	0.0009955756222 	5.546711394e-09 	0.002253089765 	7.984429596e-09 	4.295015306e-06
0.7907700052 	0.002201253336 	0.001013338419 	6.234042636e-09 	0.002277331676 	9.424172566e-09 	4.341227126e-06
0.7970636849 	0.002229690644 	0.001031451619 	6.892720038e-09 	0.002303428289 	1.089453457e-08 	4.390974523e-06
0.8032178261 	0.002260214717 	0.001049973694 	7.531780706e-09 	0.00233153007 	1.240902264e-08 	4.444544328e-06
0.8092355226 	0.002292973178 	0.001068955256 	8.162301924e-09 	0.002361790465 	1.398356558e-08 	4.502229052e-06
0.8151197995 	0.002328120949 	0.001088441512 	8.797780429e-09 	0.002394373384 	1.563781479e-08 	4.564341151e-06
0.8208736149 	0.002365825016 	0.001108474905 	9.45410314e-09 	0.00242945725 	1.738982793e-08 	4.631220752e-06
0.8264998613 	0.002406286748 	0.001129687081 	1.067760649e-08 	0.002467204627 	1.925869346e-08 	4.703177742e-06
0.8320013671 	0.002449889296 	0.001151854421 	1.11403197e-08 	0.002507726022 	2.124759269e-08 	4.780422785e-06
0.8373808978 	0.002497169969 	0.001173975825 	1.130121552e-08 	0.002551250899 	2.346878912e-08 	4.863393296e-06
0.8426411579 	0.00254853712 	0.001196923645 	1.253749034e-08 	0.002598280038 	2.602185091e-08 	4.953043907e-06
0.8477847917 	0.002604256193 	0.00122182476 	1.390453945e-08 	0.002649388003 	2.889007693e-08 	5.050469894e-06
0.8528143849 	0.002664579281 	0.001248841279 	1.540475281e-08 	0.002705033907 	3.207536775e-08 	5.156546453e-06
0.857732466 	0.002729757656 	0.001278112951 	1.704443051e-08 	0.002765568399 	3.557373344e-08 	5.271942019e-06
0.8625415073 	0.002800037717 	0.001309764219 	1.883087454e-08 	0.002831275871 	3.938626047e-08 	5.397198722e-06
0.8672439263 	0.00287566717 	0.001343911257 	2.07719052e-08 	0.002902403537 	4.352207111e-08 	5.532787823e-06
0.8718420871 	0.002956907174 	0.001380669714 	2.287560037e-08 	0.002979183613 	4.799771176e-08 	5.679151987e-06
0.8763383011 	0.003044043958 	0.001420162729 	2.514920992e-08 	0.00306185649 	5.283190958e-08 	5.83674947e-06
0.8807348287 	0.003137397324 	0.001462527869 	2.759728081e-08 	0.003150692237 	5.803872693e-08 	6.006095093e-06
0.8850338799 	0.003237323974 	0.001507921257 	3.021940399e-08 	0.003246004855 	6.362158709e-08 	6.187787434e-06
0.889237616 	0.00334421338 	0.001556517418 	3.300787266e-08 	0.003348155341 	6.95683425e-08 	6.382514651e-06
0.8933481502 	0.003458474565 	0.001608504114 	3.594550068e-08 	0.003457542236 	7.58468915e-08 	6.591036476e-06
0.8973675489 	0.003580513631 	0.001664072361 	3.90039875e-08 	0.003574580679 	8.24016725e-08 	6.814144277e-06
0.9012978327 	0.003710703374 	0.001723402451 	4.214308202e-08 	0.003699672303 	8.915160417e-08 	7.052603681e-06
0.9051409774 	0.003849346947 	0.001786646994 	4.531018766e-08 	0.003833168376 	9.598880987e-08 	7.307084299e-06
0.9088989149 	0.003996636972 	0.001853911576 	4.843965704e-08 	0.003975327353 	1.027764966e-07 	7.57807882e-06
0.9125735344 	0.004152610713 	0.001925233175 	5.145164729e-08 	0.004126266919 	1.093457164e-07 	7.865811584e-06
0.9161666832 	0.004317102752 	0.002000556931 	5.425178518e-08 	0.004285911608 	1.154938968e-07 	8.170138732e-06
0.9196801676 	0.004489700293 	0.00207971374 	5.673420411e-08 	0.004453941543 	1.209910046e-07 	8.490450489e-06
0.9231157538 	0.004669712501 	0.002162404286 	5.879060887e-08 	0.004629754881 	1.255992862e-07 	8.825599577e-06
0.9264751689 	0.004856167821 	0.002248196333 	6.032422565e-08 	0.004812459336 	1.291040201e-07 	9.173885048e-06
0.9297601017 	0.005047842237 	0.002336536893 	6.126163854e-08 	0.005000896531 	1.313398759e-07 	9.533098715e-06
0.9329722036 	0.005243306135 	0.002426773487 	6.155765178e-08 	0.005193686768 	1.32202104e-07 	9.90061049e-06
0.9361130893 	0.005440977941 	0.002518178903 	6.119610137e-08 	0.005389281908 	1.316487341e-07 	1.027346919e-05
0.9391843379 	0.005639182446 	0.002609978345 	6.018955158e-08 	0.005586023808 	1.297001799e-07 	1.064851393e-05
0.9421874931 	0.00583621192 	0.002701378068 	5.85769138e-08 	0.005782206196 	1.264342872e-07 	1.102249209e-05
0.9451240648 	0.006030382317 	0.002791591834 	5.641860326e-08 	0.005976132089 	1.219760214e-07 	1.139216874e-05
0.9479955291 	0.006220077161 	0.002879861699 	5.379044052e-08 	0.006166159126 	1.164843936e-07 	1.175441309e-05
0.9508033297 	0.006403775494 	0.002965471393 	5.077746557e-08 	0.006350728998 	1.101391573e-07 	1.210625456e-05
0.9535488779 	0.006580062552 	0.003047751614 	4.746840591e-08 	0.006528379394 	1.03128899e-07 	1.244490559e-05
0.956233554 	0.006747624167 	0.003126077619 	4.395124707e-08 	0.006697738929 	9.564150468e-08 	1.276775194e-05
0.9588587076 	0.006905228639 	0.003199860875 	4.031012616e-08 	0.006857509034 	8.785756775e-08 	1.307231817e-05
0.9614256584 	0.007051702991 	0.003268539344 	3.662363155e-08 	0.007006448309 	7.994648507e-08 	1.335623782e-05
0.9639356968 	0.007175400806 	0.003326626384 	3.326342567e-08 	0.007132603525 	7.271196992e-08 	1.359672472e-05
0.9655695775 	0.007267725355 	0.003370045478 	3.058609144e-08 	0.007227038677 	6.693082222e-08 	1.377674437e-05
0.9671427194 	0.007341996087 	0.003405022887 	2.831442352e-08 	0.0073032172 	6.201281397e-08 	1.392196181e-05
0.9686573803 	0.007408797047 	0.003436524555 	2.616096e-08 	0.00737191407 	5.73405882e-08 	1.405291714e-05
0.9701157342 	0.007468233978 	0.003464594212 	2.413074545e-08 	0.007433212994 	5.292641053e-08 	1.416976992e-05
0.9715198744 	0.007520377296 	0.003489260151 	2.222613034e-08 	0.007487165243 	4.877678774e-08 	1.42726179e-05
0.9728718162 	0.007565267016 	0.003510537713 	2.044724139e-08 	0.007533796798 	4.489338317e-08 	1.436151061e-05
0.9741735001 	0.007602910232 	0.00352842782 	1.879241434e-08 	0.007573104617 	4.127391117e-08 	1.443644224e-05
0.9754267944 	0.007633273931 	0.003542913413 	1.725857642e-08 	0.007605048417 	3.791294535e-08 	1.4497336e-05
0.9766334979 	0.007656275241 	0.003553954806 	1.584157492e-08 	0.007629540424 	3.480262127e-08 	1.454402457e-05
0.9777953427 	0.007671770206 	0.003561484399 	1.453645499e-08 	0.007646433871 	3.193322853e-08 	1.457622817e-05
0.9789139964 	0.007679541355 	0.003565400847 	1.333769267e-08 	0.007655510357 	2.929370737e-08 	1.459353048e-05
0.9799910645 	0.007679283817 	0.003565562557 	1.223938924e-08 	0.007656465779 	2.687206556e-08 	1.459535178e-05
0.981028093 	0.007670589454 	0.003561780277 	1.123543224e-08 	0.007648894296 	2.465572715e-08 	1.458091843e-05
0.9820265703 	0.007652928304 	0.003553808422 	1.031962751e-08 	0.007632269608 	2.263182161e-08 	1.454922715e-05
0.9829879297 	0.007625626466 	0.003541334761 	9.485805237e-09 	0.007605922696 	2.078741989e-08 	1.449900262e-05
0.9839135509 	0.007587839433 	0.003523967985 	8.727902471e-09 	0.007569015012 	1.910972172e-08 	1.442864631e-05
0.9848047624 	0.007538519575 	0.003501222565 	8.040034799e-09 	0.007520505863 	1.758622082e-08 	1.433617439e-05
0.9856628435 	0.007476376573 	0.00347250034 	7.416543087e-09 	0.007459112757 	1.620481796e-08 	1.421914207e-05
0.9864890258 	0.007399830018 	0.003437068481 	6.851982801e-09 	0.007383263955 	1.495381189e-08 	1.407455317e-05
0.987284495 	0.007306952439 	0.003394033035 	6.341106152e-09 	0.007291041479 	1.382187725e-08 	1.38987515e-05
0.988050393 	0.007195401059 	0.003342307291 	5.878859987e-09 	0.007180112897 	1.279808126e-08 	1.368729079e-05
0.988787819 	0.007062339276 	0.003280575529 	5.460336197e-09 	0.007047652867 	1.187181039e-08 	1.343478516e-05
0.9894978315 	0.006904350539 	0.003207253664 	5.080660067e-09 	0.006890257103 	1.103259142e-08 	1.313474509e-05
0.9901814495 	0.006717350915 	0.003120450409 	4.734813982e-09 	0.006703855065 	1.026983688e-08 	1.277941099e-05
0.9908396543 	0.006496514589 	0.003017937683 	4.417362683e-09 	0.006483635567 	9.572520236e-09 	1.235961142e-05
0.9914733905 	0.006236236546 	0.002897065189 	4.125386218e-09 	0.006224009526 	8.928946964e-09 	1.186469203e-05
0.9920835679 	0.005930193934 	0.002754884555 	3.852618278e-09 	0.005918671128 	8.326054942e-09 	1.128263218e-05
0.9926710621 	0.005571590849 	0.002588294467 	3.589423084e-09 	0.005560842171 	7.748368939e-09 	1.060051073e-05
0.9932367165 	0.00515368543 	0.002394164601 	3.327724549e-09 	0.005143798221 	7.176762859e-09 	9.805509055e-06
0.9937813429 	0.004712515863 	0.002189225242 	3.078302426e-09 	0.004703510674 	6.633956608e-09 	8.966198617e-06
0.9941324681 	0.004306461721 	0.001999271179 	2.715175294e-09 	0.004298252272 	6.14913547e-09 	8.193663467e-06
0.9944835934 	0.003905973561 	0.001800149808 	2.379690167e-09 	0.00389853886 	5.665828929e-09 	7.43169861e-06
0.9948347186 	0.003462399845 	0.001568150253 	2.163850306e-09 	0.003455816524 	5.129899371e-09 	6.587746789e-06
0.9951858439 	0.00297840227 	0.001312080099 	1.892617365e-09 	0.002972743178 	4.534382173e-09 	5.666874728e-06
0.9955369691 	0.002463668727 	0.001038133509 	1.579596376e-09 	0.002458989369 	3.873137096e-09 	4.687517178e-06
0.9958880943 	0.001937412536 	0.0007614656963 	1.228538264e-09 	0.001933732978 	3.153193241e-09 	3.686232509e-06
0.9962392196 	0.001428939791 	0.0005051425917 	8.636003205e-10 	0.001426225475 	2.40509571e-09 	2.718782154e-06
0.9965903448 	0.0009732635617 	0.0002944291949 	5.295833117e-10 	0.0009714142195 	1.685763672e-09 	1.851785493e-06
0.9969414701 	0.0006012185182 	0.0001459128645 	2.72780579e-10 	0.0006000756793 	1.063489271e-09 	1.143911027e-06
0.9972925953 	0.0003288685554 	5.91042385e-05 	1.132391784e-10 	0.0003282431978 	5.893265306e-10 	6.257227655e-07
0.9976437206 	0.0001533128288 	1.851001371e-05 	3.589075746e-11 	0.0001530212193 	2.765409823e-10 	2.91700974e-07
0.9979948458 	5.68035482e-05 	4.081109601e-06 	7.937140796e-12 	5.669548606e-05 	1.027301171e-10 	1.080773541e-07
0.9983459711 	1.460887119e-05 	5.285921665e-07 	1.025888465e-12 	1.458107696e-05 	2.644113768e-11 	2.779558529e-08
0.9986970963 	1.972833909e-06 	2.64833075e-08 	5.116875787e-14 	1.969080334e-06 	3.571244153e-12 	3.753614394e-09
0.9990482216 	9.649200416e-08 	2.396863047e-10 	4.606400232e-16 	9.630841367e-08 	1.746732094e-13 	1.83590604e-10
0.9990482216 	9.649200416e-08 	2.396863047e-10 	4.606400232e-16 	9.630841367e-08 	1.746732094e-13 	1.83590604e-10
