0.4709558481 	1.527143716e-07 	-4.903693791e-10 	6.812226678e-15 	1.524237985e-07 	-1.449937455e-12 	2.90562124e-10
0.4713069734 	3.746620119e-06 	-6.495426331e-08 	9.015212393e-13 	3.739487517e-06 	-3.557096829e-11 	7.128502544e-09
0.4716580986 	2.771229681e-05 	-1.291618486e-06 	1.785596765e-11 	2.76594355e-05 	-2.629214282e-10 	5.27265716e-08
0.4720092239 	0.0001074909794 	-9.879008004e-06 	1.348360452e-10 	0.0001072850369 	-1.016064236e-09 	2.045150986e-07
0.4723603491 	0.000288437652 	-4.391269745e-05 	5.820221775e-10 	0.0002878807326 	-2.695997839e-09 	5.487806887e-07
0.4727114744 	0.0006113427143 	-0.0001353470539 	1.701233514e-09 	0.0006101486876 	-5.573314884e-09 	1.163112981e-06
0.4730625996 	0.001094954318 	-0.0003173373333 	3.682454153e-09 	0.001092783837 	-9.5551085e-09 	2.083149716e-06
0.4734137249 	0.001721737235 	-0.0006006321784 	6.282396108e-09 	0.001718265082 	-1.410484486e-08 	3.275490814e-06
0.4737648501 	0.002440772226 	-0.0009616327844 	8.926331044e-09 	0.00243575714 	-1.849265663e-08 	4.643230093e-06
0.4741159754 	0.003189021967 	-0.001356087883 	1.111933586e-08 	0.00318233966 	-2.2178102e-08 	6.066423877e-06
0.4744671006 	0.003914042826 	-0.001742899306 	1.268437388e-08 	0.003905673469 	-2.497162067e-08 	7.445299157e-06
0.4748182259 	0.004583840546 	-0.002098153795 	1.377109834e-08 	0.004573832515 	-2.693904562e-08 	8.718996005e-06
0.4751693511 	0.005185059756 	-0.002402932946 	1.383172421e-08 	0.005173501472 	-2.826060115e-08 	9.862131707e-06
0.4755204764 	0.005717222816 	-0.002655480399 	1.360691547e-08 	0.005704212231 	-2.915851728e-08 	1.087381392e-05
0.4758716016 	0.006185497743 	-0.002872909476 	1.388451466e-08 	0.006171117505 	-2.973806271e-08 	1.176386514e-05
0.4762227269 	0.006648616329 	-0.003087917572 	1.403326703e-08 	0.006632757823 	-3.003615107e-08 	1.264387989e-05
0.4767673536 	0.007137064545 	-0.003314654641 	1.40212373e-08 	0.007119457375 	-2.99784068e-08 	1.357166451e-05
0.4773330083 	0.007584129125 	-0.003522182838 	1.380672824e-08 	0.007564665106 	-2.946856667e-08 	1.442035418e-05
0.4779205028 	0.007954259918 	-0.003693917195 	1.340642417e-08 	0.007932958516 	-2.856381601e-08 	1.512242378e-05
0.4785306805 	0.008258493055 	-0.003834905015 	1.284087563e-08 	0.008235348177 	-2.731390482e-08 	1.569886252e-05
0.479164417 	0.008506622473 	-0.003949790155 	1.21318943e-08 	0.008481605429 	-2.574689175e-08 	1.616829729e-05
0.4798226221 	0.008706992223 	-0.004042487689 	1.128395543e-08 	0.008680054643 	-2.387391698e-08 	1.654659665e-05
0.4805062404 	0.008866544758 	-0.004116202391 	1.029624689e-08 	0.008837621397 	-2.169427064e-08 	1.684696267e-05
0.4812162531 	0.008990972103 	-0.00417357003 	9.164063214e-09 	0.008959983427 	-1.919833447e-08 	1.708021871e-05
0.4819536793 	0.009084892394 	-0.004216732055 	7.879494129e-09 	0.009051746925 	-1.636933568e-08 	1.725514544e-05
0.4827195775 	0.009152021975 	-0.004247412851 	6.431825809e-09 	0.009116618442 	-1.318436952e-08 	1.737880858e-05
0.483515047 	0.009195329724 	-0.004266990417 	4.807903359e-09 	0.009157559075 	-9.615275507e-09 	1.745685281e-05
0.4843412294 	0.009217171037 	-0.00427655825 	2.992565606e-09 	0.009176918421 	-5.629638003e-09 	1.74937571e-05
0.4851993106 	0.009219394778 	-0.004276974916 	9.686392259e-10 	0.009176541594 	-1.190827544e-09 	1.749303877e-05
0.4860905223 	0.009203426218 	-0.004268902588 	-1.283252786e-09 	0.009157852347 	3.742361054e-09 	1.745741187e-05
0.4870161436 	0.009170337134 	-0.004252839669 	-3.784572645e-09 	0.009121923423 	9.215405648e-09 	1.738892135e-05
0.487977503 	0.009120902761 	-0.004229147337 	-6.558699573e-09 	0.009069533825 	1.527764471e-08 	1.728905222e-05
0.4889759804 	0.009055646375 	-0.004198070361 	-9.630737129e-09 	0.009001213793 	2.198180669e-08 	1.715881525e-05
0.4900130089 	0.008974874885 	-0.004159753763 	-1.302725431e-08 	0.00891728086 	2.938338715e-08 	1.699881575e-05
0.491090077 	0.008878707397 	-0.004114256224 	-1.677596002e-08 	0.008817868913 	3.753987297e-08 	1.680930895e-05
0.4922087306 	0.008767098287 	-0.004061560936 	-2.090533622e-08 	0.008702951775 	4.650988027e-08 	1.659024494e-05
0.4933705753 	0.008639855984 	-0.004001584461 	-2.544429007e-08 	0.008572362442 	5.635236964e-08 	1.634130538e-05
0.4945772787 	0.008496658323 	-0.003934183976 	-3.042191887e-08 	0.008425808801 	6.712620188e-08 	1.606193341e-05
0.4958305727 	0.008337065023 	-0.003859163162 	-3.586748795e-08 	0.008262886364 	7.889032168e-08 	1.575135796e-05
0.4971322564 	0.008160527495 	-0.003776276864 	-4.181065714e-08 	0.008083088322 	9.170466537e-08 	1.540861292e-05
0.4984841978 	0.007966395845 	-0.003685234531 	-4.828180387e-08 	0.007885813076 	1.056313159e-07 	1.503255147e-05
0.4998883377 	0.007753922558 	-0.003585702324 	-5.531193856e-08 	0.007670369302 	1.207344192e-07 	1.462185576e-05
0.5013466912 	0.007522262402 	-0.003477303819 	-6.293115814e-08 	0.007435978619 	1.370761584e-07 	1.417504197e-05
0.5028613516 	0.007270469806 	-0.003359619827 	-7.116368442e-08 	0.00718177671 	1.547045116e-07 	1.369046248e-05
0.5044344929 	0.006997502878 	-0.00323219044 	-8.001556707e-08 	0.006906815398 	1.736244235e-07 	1.31663098e-05
0.506068373 	0.006664910287 	-0.003077135526 	-9.062692852e-08 	0.006572647317 	1.962429988e-07 	1.252929256e-05
0.5085784129 	0.006227877506 	-0.002873704481 	-1.039666331e-07 	0.006134810686 	2.245695178e-07 	1.169465425e-05
0.5111453651 	0.005723512657 	-0.002639318535 	-1.165832784e-07 	0.005631059338 	2.512489808e-07 	1.073436417e-05
0.5137705202 	0.005205810389 	-0.002399155987 	-1.24005143e-07 	0.005115604997 	2.668741413e-07 	9.751764933e-06
0.5164551977 	0.004696262101 	-0.002163212576 	-1.257216092e-07 	0.004609856176 	2.704223887e-07 	8.787667115e-06
0.5192007473 	0.004212366278 	-0.001939548862 	-1.227101991e-07 	0.004130922223 	2.638264227e-07 	7.874685888e-06
0.5220085492 	0.003764121939 	-0.001721755327 	-1.366872933e-07 	0.003688391079 	2.51561005e-07 	7.031098532e-06
0.5248800149 	0.003353235851 	-0.00149465922 	-1.451207831e-07 	0.003284246941 	2.377501305e-07 	6.260687478e-06
0.5278165879 	0.002980723488 	-0.001272859588 	-1.336145861e-07 	0.002919326313 	2.193336221e-07 	5.565047338e-06
0.5308197445 	0.002653031404 	-0.001072319647 	-1.252833067e-07 	0.002599654289 	1.933582615e-07 	4.955663612e-06
0.5338909942 	0.002377492981 	-0.0008906315256 	-1.140889544e-07 	0.002332423887 	1.611747181e-07 	4.446248192e-06
0.5370318812 	0.002157621865 	-0.000730081398 	-1.012774217e-07 	0.002120768769 	1.260146102e-07 	4.042774711e-06
0.5402439843 	0.00199157652 	-0.0005905742766 	-8.83927559e-08 	0.001962651143 	9.194275285e-08 	3.74135857e-06
0.5435289183 	0.001872768652 	-0.0004700934554 	-7.677194675e-08 	0.001851431189 	6.223974212e-08 	3.529342425e-06
0.5468883345 	0.001791846128 	-0.0003661864448 	-6.57647424e-08 	0.001777859082 	3.864240581e-08 	3.38909354e-06
0.5503239217 	0.001739420606 	-0.0002775803201 	-5.588649267e-08 	0.001732664131 	2.037216967e-08 	3.302939402e-06
0.5538374071 	0.001708318688 	-0.0002010189578 	-4.945770537e-08 	0.001708718494 	6.256450451e-09 	3.257292363e-06
0.5574305568 	0.001692804354 	-0.0001318273214 	-4.505721762e-08 	0.001700189922 	-3.609899867e-09 	3.241034536e-06
0.5611051773 	0.001687710089 	-6.834200421e-05 	-4.108445811e-08 	0.001701778364 	-9.988640917e-09 	3.244062546e-06
0.5648631156 	0.001689355739 	-9.869698736e-06 	-3.792807096e-08 	0.001709795247 	-1.418042555e-08 	3.259344953e-06
0.5687062611 	0.001695471153 	4.469022713e-05 	-3.546060308e-08 	0.001722000196 	-1.699866929e-08 	3.282610978e-06
0.5726365456 	0.001704612341 	9.61024351e-05 	-3.347937518e-08 	0.001736971744 	-1.891519598e-08 	3.311150911e-06
0.576655945 	0.001715827745 	0.0001448954419 	-3.184140521e-08 	0.00175377357 	-2.021984245e-08 	3.34317986e-06
0.5807664798 	0.001728468595 	0.0001914362662 	-3.044493281e-08 	0.00177176818 	-2.109451539e-08 	3.377482588e-06
0.5849702164 	0.001742078044 	0.0002359799251 	-2.921767594e-08 	0.001790507389 	-2.165638923e-08 	3.413204729e-06
0.5892692681 	0.001756324102 	0.0002787023963 	-2.810764596e-08 	0.00180966594 	-2.198307815e-08 	3.449726252e-06
0.593665796 	0.001770957867 	0.0003197230118 	-2.707659373e-08 	0.001829000125 	-2.212708967e-08 	3.486582583e-06
0.5981620103 	0.0017857869 	0.0003591201311 	-2.609571306e-08 	0.001848321325 	-2.212440315e-08 	3.523414161e-06
0.6027601713 	0.00180065797 	0.0003969424786 	-2.514291001e-08 	0.001867478776 	-2.199986941e-08 	3.559933586e-06
0.6074625904 	0.00181544574 	0.0004332176179 	-2.420104935e-08 	0.001886348233 	-2.17707651e-08 	3.595904015e-06
0.6122716317 	0.001830045346 	0.0004679584979 	-2.325680075e-08 	0.001904824516 	-2.14491922e-08 	3.631124946e-06
0.6171897127 	0.001844367579 	0.0005011686736 	-2.229986591e-08 	0.001922816684 	-2.104372597e-08 	3.665423018e-06
0.6222193057 	0.001858335868 	0.000532846598 	-2.132245417e-08 	0.001940245023 	-2.056056722e-08 	3.698646278e-06
0.6273629392 	0.00187188452 	0.0005629892457 	-2.031891705e-08 	0.001957039352 	-2.000436302e-08 	3.730660937e-06
0.6326231989 	0.001884957872 	0.0005915952347 	-1.928547669e-08 	0.001973138272 	-1.937880015e-08 	3.761349951e-06
0.6380027291 	0.001897510106 	0.0006186675505 	-1.822000156e-08 	0.001988489136 	-1.868703542e-08 	3.790612964e-06
0.6435042341 	0.001909505568 	0.0006442159348 	-1.712179952e-08 	0.002003048567 	-1.793200254e-08 	3.818367287e-06
0.6491304798 	0.001920919461 	0.0006682589683 	-1.599141206e-08 	0.002016783388 	-1.711661988e-08 	3.844549673e-06
0.6548842942 	0.001931738831 	0.000690825865 	-1.483040579e-08 	0.002029671878 	-1.624391546e-08 	3.869118717e-06
0.6607685701 	0.001941963792 	0.0007119579812 	-1.364116711e-08 	0.002041705277 	-1.531708105e-08 	3.892057721e-06
0.6667862654 	0.001951608935 	0.000731710046 	-1.24267136e-08 	0.002052889484 	-1.433946564e-08 	3.913377929e-06
0.6729404052 	0.001960704903 	0.00075015112 	-1.119054116e-08 	0.002063246909 	-1.331451852e-08 	3.933122059e-06
0.6792340834 	0.00196930012 	0.000767365303 	-9.936526431e-09 	0.002072818447 	-1.224569348e-08 	3.951368069e-06
0.6856704637 	0.001977462674 	0.0007834522176 	-8.668900745e-09 	0.002081665573 	-1.113632714e-08 	3.96823315e-06
0.6922527818 	0.001985282364 	0.0007985273092 	-7.392301027e-09 	0.002089872559 	-9.989505362e-09 	3.983877948e-06
0.6989843466 	0.001992872952 	0.0008127220071 	-6.111888465e-09 	0.002097548839 	-8.807931754e-09 	3.998511071e-06
0.7058685423 	0.002000374656 	0.0008261837955 	-4.833506779e-09 	0.002104831556 	-7.593810534e-09 	4.012393953e-06
0.7129088294 	0.002007956933 	0.0008390762386 	-3.563833888e-09 	0.002111888376 	-6.348753811e-09 	4.025846214e-06
0.7201087472 	0.00201582165 	0.0008515789937 	-2.310467657e-09 	0.002118920635 	-5.073717822e-09 	4.039251654e-06
0.7274719152 	0.002024206795 	0.0008638879453 	-1.081915704e-09 	0.002126166732 	-3.768952299e-09 	4.053064729e-06
0.7350020349 	0.002033339061 	0.00087614174 	1.063942515e-10 	0.002133863167 	-2.4411768e-09 	4.067736273e-06
0.7425321576 	0.002043340776 	0.0008883429898 	1.227358188e-09 	0.002142170321 	-1.112261755e-09 	4.083572017e-06
0.7498953284 	0.002054285051 	0.0009004987943 	2.25953848e-09 	0.00215121601 	1.965363866e-10 	4.100815615e-06
0.7570952489 	0.002066311756 	0.000912730479 	3.199402712e-09 	0.002161180996 	1.480193986e-09 	4.119811647e-06
0.7641355384 	0.002079590647 	0.0009251824086 	4.051291295e-09 	0.002172262854 	2.741093333e-09 	4.140936749e-06
0.7710197363 	0.002094272244 	0.0009379689339 	4.820787246e-09 	0.002184635564 	3.981840081e-09 	4.164522572e-06
0.7777513032 	0.002110489864 	0.0009511790329 	5.514440374e-09 	0.002198452079 	5.205344389e-09 	4.190860691e-06
0.7843336232 	0.002128361749 	0.0009648805103 	6.139418352e-09 	0.002213846828 	6.414991589e-09 	4.220207361e-06
0.7907700052 	0.002147993243 	0.0009791237644 	6.703111806e-09 	0.002230938293 	7.614884599e-09 	4.252788445e-06
0.7970636849 	0.002169479037 	0.000993945108 	7.212652698e-09 	0.002249831708 	8.810138366e-09 	4.288804543e-06
0.8032178261 	0.002192905513 	0.001009369621 	7.674326526e-09 	0.002270621873 	1.000717833e-08 	4.328436377e-06
0.8092355226 	0.002218353206 	0.001025413492 	8.092961605e-09 	0.002293396129 	1.121394076e-08 	4.371850439e-06
0.8151197995 	0.002245899466 	0.001042085784 	8.471589053e-09 	0.002318237375 	1.243987541e-08 	4.419204757e-06
0.8208736149 	0.002275621173 	0.001059389577 	8.811959455e-09 	0.002345227493 	1.369603937e-08 	4.470655423e-06
0.8264998613 	0.002307596569 	0.001077322528 	9.116689891e-09 	0.002374453178 	1.499596365e-08 	4.526367703e-06
0.8320013671 	0.002341906829 	0.001095877139 	9.393651675e-09 	0.002406013114 	1.635123941e-08 	4.586529712e-06
0.8373808978 	0.002378657753 	0.001115207976 	1.009746291e-08 	0.002439986229 	1.776600968e-08 	4.651291911e-06
0.8426411579 	0.002418046984 	0.001136248242 	1.013620316e-08 	0.002476415193 	1.922324709e-08 	4.720735642e-06
0.8477847917 	0.002460483509 	0.001157222263 	1.003865896e-08 	0.002515358658 	2.082650353e-08 	4.79497271e-06
0.8528143849 	0.002506323545 	0.001177657582 	1.095500602e-08 	0.002557152756 	2.269726361e-08 	4.874643877e-06
0.857732466 	0.002555688322 	0.001199681657 	1.197079583e-08 	0.002602285667 	2.483865321e-08 	4.960679749e-06
0.8625415073 	0.002608641603 	0.00122337803 	1.309308814e-08 	0.002651060222 	2.72369029e-08 	5.053657608e-06
0.8672439263 	0.0026652338 	0.001248794635 	1.433425162e-08 	0.002703631479 	2.987954082e-08 	5.153873034e-06
0.8718420871 	0.002725534479 	0.001275964805 	1.571131548e-08 	0.002760066914 	3.279290532e-08 	5.261454659e-06
0.8763383011 	0.002789653857 	0.001304927207 	1.724456777e-08 	0.002820417196 	3.602844654e-08 	5.376499071e-06
0.8807348287 	0.002857760292 	0.001335742977 	1.895465628e-08 	0.002884773658 	3.963930522e-08 	5.499180374e-06
0.8850338799 	0.002930092083 	0.001368507349 	2.086030976e-08 	0.002953306273 	4.366823753e-08 	5.629822586e-06
0.889237616 	0.003006963232 	0.001403354657 	2.297786885e-08 	0.003026278802 	4.814825487e-08 	5.768928507e-06
0.8933481502 	0.003088763436 	0.001440457821 	2.532203684e-08 	0.003104045924 	5.310818367e-08 	5.917174255e-06
0.8973675489 	0.003175953617 	0.001480024711 	2.790656296e-08 	0.003187041573 	5.857665504e-08 	6.075387031e-06
0.9012978327 	0.003269058797 	0.001522293634 	3.07439042e-08 	0.003275766495 	6.458220444e-08 	6.244521391e-06
0.9051409774 	0.00336865937 	0.001567529117 	3.384349657e-08 	0.00337077883 	7.114959719e-08 	6.42564131e-06
0.9088989149 	0.003475380155 	0.001616017733 	3.720864193e-08 	0.003472687112 	7.829294597e-08 	6.61990682e-06
0.9125735344 	0.00358987497 	0.001668062558 	4.083217618e-08 	0.003582141671 	8.60059759e-08 	6.828557629e-06
0.9161666832 	0.003712803423 	0.001723974167 	4.46912042e-08 	0.003699818767 	9.424986975e-08 	7.052882882e-06
0.9196801676 	0.003844796675 	0.001784056091 	4.874143706e-08 	0.003826391823 	1.02939814e-07 	7.294166306e-06
0.9231157538 	0.003986410088 	0.001848583324 	5.291212322e-08 	0.003962485935 	1.119325973e-07 	7.553599508e-06
0.9264751689 	0.004138063148 	0.001917773871 	5.710299813e-08 	0.00410861536 	1.210186979e-07 	7.832162808e-06
0.9297601017 	0.004299970211 	0.001991755073 	6.118461744e-08 	0.004265108022 	1.299221304e-07 	8.130481316e-06
0.9329722036 	0.004472068864 	0.002070528167 	6.500292002e-08 	0.004432025166 	1.383100304e-07 	8.448671784e-06
0.9361130893 	0.004653955398 	0.002153935955 	6.838857205e-08 	0.004609087459 	1.458131187e-07 	8.786201727e-06
0.9391843379 	0.004844838928 	0.002241639338 	7.117109686e-08 	0.004795620654 	1.520568638e-07 	9.14178584e-06
0.9421874931 	0.005043524938 	0.002333107993 	7.319591174e-08 	0.004990532598 	1.566990518e-07 	9.513342178e-06
0.9451240648 	0.005248433007 	0.002427627525 	7.434040904e-08 	0.005192326679 	1.594652429e-07 	9.898017783e-06
0.9479955291 	0.005457645553 	0.002524321543 	7.452580198e-08 	0.005399148224 	1.601749448e-07 	1.029227713e-05
0.9508033297 	0.005668979235 	0.002622184641 	7.37233857e-08 	0.005608854942 	1.587555869e-07 	1.069203642e-05
0.9535488779 	0.005880066863 	0.002720120464 	7.19547266e-08 	0.005819098606 	1.552432954e-07 	1.109281928e-05
0.956233554 	0.006088436061 	0.002816978289 	6.928646891e-08 	0.006027403338 	1.497719945e-07 	1.148990599e-05
0.9588587076 	0.006291574282 	0.002911583018 	6.582174779e-08 	0.00623122888 	1.425553554e-07 	1.187845413e-05
0.9614256584 	0.006486973539 	0.003002757416 	6.169052577e-08 	0.006428024394 	1.338661832e-07 	1.225360107e-05
0.9639356968 	0.006657393828 	0.003082421614 	5.744227608e-08 	0.006600274696 	1.248728074e-07 	1.258195802e-05
0.9655695775 	0.00678827041 	0.003143708484 	5.374835032e-08 	0.006733013985 	1.170155006e-07 	1.2834996e-05
0.9671427194 	0.006896067331 	0.003194271224 	5.041682448e-08 	0.006842704007 	1.09902057e-07 	1.304409567e-05
0.9686573803 	0.006995308207 	0.003240891861 	4.709698772e-08 	0.006943989663 	1.027921378e-07 	1.323717428e-05
0.9701157342 	0.007085884131 	0.003283510022 	4.38277247e-08 	0.007036722908 	9.577060939e-08 	1.341394962e-05
0.9715198744 	0.007167706888 	0.003322075708 	4.064103072e-08 	0.007120777672 	8.890792923e-08 	1.357418136e-05
0.9728718162 	0.007240706471 	0.003356548504 	3.7562519e-08 	0.007196050606 	8.226109739e-08 	1.371767249e-05
0.9741735001 	0.007304821521 	0.003386892981 	3.46120159e-08 	0.007262451079 	7.587479866e-08 	1.384425025e-05
0.9754267944 	0.007359985646 	0.003413072199 	3.180420093e-08 	0.007319886911 	6.978268979e-08 	1.395373891e-05
0.9766334979 	0.007406111795 	0.003435040377 	2.914925197e-08 	0.007368248469 	6.40087483e-08 	1.404592948e-05
0.9777953427 	0.007443075746 	0.003452735199 	2.665346848e-08 	0.007407392096 	5.856858019e-08 	1.412054811e-05
0.9789139964 	0.007470698963 	0.003466069834 	2.431985628e-08 	0.007437122949 	5.347064624e-08 	1.417722338e-05
0.9799910645 	0.007488730563 	0.00347492454 	2.214866545e-08 	0.007457176936 	4.871739037e-08 	1.421545186e-05
0.981028093 	0.007496827825 	0.003479137587 	2.013787775e-08 	0.007467201167 	4.430626283e-08 	1.423456083e-05
0.9820265703 	0.007494534502 	0.003478495145 	1.828364307e-08 	0.007466732163 	4.023063687e-08 	1.423366677e-05
0.9829879297 	0.007481256033 	0.003472719728 	1.658066586e-08 	0.007455170951 	3.648062162e-08 	1.421162789e-05
0.9839135509 	0.007456230639 	0.003461456722 	1.502254365e-08 	0.007431754006 	3.304377583e-08 	1.416698868e-05
0.9848047624 	0.007418494703 	0.003444258257 	1.36021011e-08 	0.007395518484 	2.99058171e-08 	1.409791371e-05
0.9856628435 	0.007366841671 	0.003420564066 	1.231164453e-08 	0.007345260963 	2.705116707e-08 	1.400210891e-05
0.9864890258 	0.00729977447 	0.00338967935 	1.114301605e-08 	0.007279489701 	2.446307502e-08 	1.38767306e-05
0.987284495 	0.007215448189 	0.003350748152 	1.008770191e-08 	0.007196367183 	2.212386938e-08 	1.371827598e-05
0.988050393 	0.007111600883 	0.003302721296 	9.137041708e-09 	0.007093640818 	2.001544438e-08 	1.352245097e-05
0.988787819 	0.006985475013 	0.003244320183 	8.282286574e-09 	0.006968564311 	1.811945627e-08 	1.328402039e-05
0.9894978315 	0.006833732159 	0.003173997985 	7.514516376e-09 	0.006817812323 	1.641728331e-08 	1.29966452e-05
0.9901814495 	0.006652366871 	0.003089901837 	6.824441616e-09 	0.006637394321 	1.488987414e-08 	1.265271834e-05
0.9908396543 	0.00643663379 	0.002989844927 	6.202046006e-09 	0.0064225817 	1.35175366e-08 	1.224322578e-05
0.9914733905 	0.006181010717 	0.002871194685 	5.644151409e-09 	0.00616787082 	1.228010983e-08 	1.175767605e-05
0.9920835679 	0.005879264244 	0.002731047531 	5.140116406e-09 	0.005867048216 	1.115612588e-08 	1.118422456e-05
0.9926710621 	0.005524701184 	0.00256637328 	4.672315075e-09 	0.005513441498 	1.012133251e-08 	1.051015188e-05
0.9932367165 	0.005110703341 	0.002374093806 	4.229291544e-09 	0.005100453307 	9.146988396e-09 	9.722881602e-06
0.9937813429 	0.004673158285 	0.002170865179 	3.828558185e-09 	0.00466390003 	8.269525341e-09 	8.89068972e-06
0.9941324681 	0.004270298256 	0.001983610486 	3.160481758e-09 	0.004261907557 	7.514310845e-09 	8.124380339e-06
0.9944835934 	0.003872963749 	0.001786942805 	2.559714953e-09 	0.003865400162 	6.782050096e-09 	7.368527042e-06
0.9948347186 	0.00343281652 	0.001556282345 	2.270776683e-09 	0.003426148204 	6.004770597e-09 	6.531190725e-06
0.9951858439 	0.002952532829 	0.001301879702 	1.913946728e-09 	0.002946823481 	5.184861395e-09 	5.617464581e-06
0.9955369691 	0.002441814966 	0.001029777117 	1.534613682e-09 	0.002437111183 	4.323462948e-09 	4.645811275e-06
0.9958880943 	0.001919815696 	0.0007550922209 	1.143415424e-09 	0.001916129042 	3.43652557e-09 	3.652674514e-06
0.9962392196 	0.001415656159 	0.000500750575 	7.686983406e-10 	0.001412944527 	2.562582263e-09 	2.693464977e-06
0.9965903448 	0.0009640362588 	0.0002917872202 	4.510410264e-10 	0.000962193409 	1.761014022e-09 	1.834208065e-06
0.9969414701 	0.0005954378645 	0.0001445754277 	2.230725227e-10 	0.0005943014254 	1.093897645e-09 	1.132903694e-06
0.9972925953 	0.0003256802553 	5.855689956e-05 	8.950231545e-11 	0.0003250594157 	5.998214188e-10 	6.196535919e-07
0.9976437206 	0.0001518206585 	1.83383512e-05 	2.765533083e-11 	0.0001515314934 	2.797754354e-10 	2.888611424e-07
0.9979948458 	5.624987856e-05 	4.043406773e-06 	6.014659438e-12 	5.614280177e-05 	1.036457078e-10 	1.070237843e-07
0.9983459711 	1.446641622e-05 	5.237389009e-07 	7.697601005e-13 	1.443888665e-05 	2.66523317e-11 	2.752453104e-08
0.9986970963 	1.953594208e-06 	2.624185127e-08 	3.816318921e-14 	1.949877045e-06 	3.599181899e-12 	3.717007588e-09
0.9990482216 	9.555096293e-08 	2.375170095e-10 	3.419351414e-16 	9.536916229e-08 	1.760391561e-13 	1.818001298e-10
