0.4709558481 	0.02652778934 	-2.912217113e-08 	2.705929024e-11
0.4709558481 	0.02652778934 	-2.912217113e-08 	2.705929024e-11
0.471614208 	0.09799412714 	-5.267569117e-07 	-1.542675904e-09
0.4722725678 	0.1954594503 	-1.812626018e-06 	-5.636568389e-09
0.4729309277 	0.2915870627 	-3.724918117e-06 	-1.145865928e-08
0.4735892875 	0.3836619838 	-6.121324362e-06 	-1.877807956e-08
0.4742476473 	0.4673392938 	-8.828964241e-06 	-2.735488038e-08
0.4749060072 	0.5394474011 	-1.170521825e-05 	-3.70337975e-08
0.475564367 	0.5998524075 	-1.465973228e-05 	-4.767018591e-08
0.4762227269 	0.6579199311 	-1.811734628e-05 	-6.100686759e-08
0.4773080319 	0.7194386363 	-2.254645819e-05 	-7.929969207e-08
0.4784819342 	0.776802504 	-2.749543419e-05 	-1.009973441e-07
0.479751666 	0.8263221644 	-3.244914902e-05 	-1.238899168e-07
0.4811250504 	0.8697935522 	-3.731169229e-05 	-1.476226374e-07
0.4826105488 	0.9085747019 	-4.200559832e-05 	-1.720837304e-07
0.4842173135 	0.9436862291 	-4.646446441e-05 	-1.97376602e-07
0.4859552439 	0.9758969204 	-5.061785907e-05 	-2.236996158e-07
0.4878350474 	1.005790442 	-5.437960452e-05 	-2.512396573e-07
0.4898683057 	1.033814743 	-5.764423406e-05 	-2.80157977e-07
0.4920675457 	1.060317717 	-6.028563028e-05 	-3.106126895e-07
0.4944463172 	1.085573054 	-6.215373332e-05 	-3.427709285e-07
0.497019276 	1.109799922 	-6.306892489e-05 	-3.767795482e-07
0.4998022741 	1.133180012 	-6.28228412e-05 	-4.127176411e-07
0.5028124578 	1.15587566 	-6.118305448e-05 	-4.506508346e-07
0.506068373 	1.180795967 	-5.725523487e-05 	-4.957794862e-07
0.5112857627 	1.209663895 	-4.887976677e-05 	-5.525186045e-07
0.5167584128 	1.238786765 	-3.507710316e-05 	-6.147961898e-07
0.5224988119 	1.265893527 	-1.588299468e-05 	-6.774182525e-07
0.5285200595 	1.291384306 	9.432057524e-06 	-7.403380834e-07
0.5348358961 	1.31556033 	4.159331762e-05 	-8.035293456e-07
0.5414607345 	1.338621443 	8.118896656e-05 	-8.6695266e-07
0.5484096926 	1.360644736 	0.0001283666499 	-9.302983394e-07
0.5556986279 	1.381532001 	0.0001822346664 	-9.924199481e-07
0.5633441738 	1.400964162 	0.0002403196329 	-1.050788231e-06
0.5713637774 	1.418514416 	0.000299427039 	-1.103361927e-06
0.5797757394 	1.434077916 	0.0003574175736 	-1.149508844e-06
0.588599256 	1.447825867 	0.0004128227513 	-1.189054551e-06
0.5978544624 	1.459602486 	0.0004613439847 	-1.22058295e-06
0.607562479 	1.468974892 	0.0004956477777 	-1.241702716e-06
0.6177454595 	1.475658537 	0.0005088692462 	-1.252037176e-06
0.6284266415 	1.479683388 	0.0004976606988 	-1.254080663e-06
0.6396303994 	1.481418044 	0.0004641001587 	-1.251432637e-06
0.6513823003 	1.481407599 	0.0004135689209 	-1.246443418e-06
0.6637091619 	1.480107609 	0.0003510626357 	-1.239741338e-06
0.6766391143 	1.477778544 	0.0002800948408 	-1.230827931e-06
0.6902016635 	1.47453505 	0.0002031095008 	-1.218824657e-06
0.7044277593 	1.470397728 	0.0001218712665 	-1.202807577e-06
0.7193498657 	1.465319284 	3.787743492e-05 	-1.181938631e-06
0.7350020349 	1.459328651 	-4.543801624e-05 	-1.1559991e-06
0.7500308009 	1.452657489 	-0.0001223801523 	-1.125754675e-06
0.7643871251 	1.445446029 	-0.0001897299109 	-1.09180939e-06
0.7781010947 	1.437684764 	-0.0002466556893 	-1.054909954e-06
0.7912014512 	1.429307418 	-0.0002921325353 	-1.014250151e-06
0.8037156498 	1.420116732 	-0.0003252849842 	-9.691864495e-07
0.8156699174 	1.409842159 	-0.0003452989709 	-9.200327288e-07
0.8270893073 	1.398346513 	-0.0003515471233 	-8.685603815e-07
0.837997752 	1.385675361 	-0.0003449383045 	-8.180284564e-07
0.8484181129 	1.371962678 	-0.0003275130125 	-7.697044067e-07
0.8583722288 	1.357361159 	-0.0003019822818 	-7.239382044e-07
0.8678809611 	1.34200151 	-0.0002712140435 	-6.808593483e-07
0.8769642379 	1.325979077 	-0.0002377678541 	-6.40394118e-07
0.8856410957 	1.309359908 	-0.000203696573 	-6.022799534e-07
0.8939297192 	1.292190835 	-0.000170563801 	-5.661702054e-07
0.9018474793 	1.274503559 	-0.000139515736 	-5.317124765e-07
0.9094109698 	1.256313316 	-0.0001113403483 	-4.985895579e-07
0.9166360422 	1.237615355 	-8.652261784e-05 	-4.665366435e-07
0.9235378383 	1.218380725 	-6.529896131e-05 	-4.353386835e-07
0.9301308229 	1.198551425 	-4.770821014e-05 	-4.048092553e-07
0.9364288132 	1.178034112 	-3.363622411e-05 	-3.747597437e-07
0.9424450084 	1.156690955 	-2.285345724e-05 	-3.449981646e-07
0.948192017 	1.134325627 	-1.504850519e-05 	-3.15410059e-07
0.9536818834 	1.110661783 	-9.85817998e-06 	-2.86105105e-07
0.9589261131 	1.085310594 	-6.869186131e-06 	-2.574198401e-07
0.9639356968 	1.059973002 	-5.545143098e-06 	-2.315527958e-07
0.9671916133 	1.037559849 	-5.135649726e-06 	-2.10745635e-07
0.9702017979 	1.016755597 	-5.048587343e-06 	-1.929529837e-07
0.9729847967 	0.9952677906 	-5.091458245e-06 	-1.759201688e-07
0.9755577559 	0.9729595716 	-5.193835592e-06 	-1.596064205e-07
0.9779365277 	0.9496680959 	-5.297442808e-06 	-1.439771354e-07
0.9801357679 	0.9251961982 	-5.355925664e-06 	-1.289898662e-07
0.9821690261 	0.8993009836 	-5.333981328e-06 	-1.146073245e-07
0.9840488294 	0.8716676957 	-5.223048289e-06 	-1.008559756e-07
0.9857867595 	0.8418557332 	-5.030906722e-06 	-8.779768466e-08
0.9873935238 	0.8092638903 	-4.769699092e-06 	-7.548308721e-08
0.9888790217 	0.7731338893 	-4.44877939e-06 	-6.393502299e-08
0.9902524056 	0.7325135187 	-4.065669692e-06 	-5.313408403e-08
0.9915221368 	0.6861764205 	-3.624880408e-06 	-4.307820244e-08
0.9926960384 	0.632542132 	-3.141818975e-06 	-3.382428496e-08
0.9937813429 	0.5751288286 	-2.675763098e-06 	-2.615039974e-08
0.9944397027 	0.5210937722 	-2.287912559e-06 	-2.054899243e-08
0.9950980625 	0.4654303249 	-1.937286518e-06 	-1.601061657e-08
0.9957564224 	0.4002352139 	-1.567151175e-06 	-1.179997447e-08
0.9964147822 	0.3264518033 	-1.17447327e-06 	-8.015731341e-09
0.9970731421 	0.247054631 	-7.73733479e-07 	-4.798997231e-09
0.9977315019 	0.165230226 	-4.066741445e-07 	-2.304733391e-09
0.9983898617 	0.08271525674 	-1.29130387e-07 	-6.561842415e-10
0.9990482216 	0.02575366624 	-1.223845393e-08 	-3.398599057e-11
