0.4709558481 	2.243022068e-07 	-1.209107885e-09 	9.119704457e-14 	2.23875408e-07 	-1.157105846e-11 	4.267687506e-10
0.4709558481 	2.243022068e-07 	-1.209107885e-09 	9.119704457e-14 	2.23875408e-07 	-1.157105846e-11 	4.267687506e-10
0.471614208 	1.127381515e-05 	-4.381401231e-07 	3.293051896e-11 	1.125233417e-05 	-5.815160202e-10 	2.145007636e-08
0.4722725678 	0.0001078378917 	-1.251807439e-05 	9.184960952e-10 	0.0001076312398 	-5.53616525e-09 	2.051750577e-07
0.4729309277 	0.0004647425471 	-0.0001028433021 	6.983062354e-09 	0.0004638412272 	-2.316013873e-08 	8.84210297e-07
0.4735892875 	0.001238285585 	-0.0004011076169 	2.364447631e-08 	0.001235841508 	-5.704121281e-08 	2.355857398e-06
0.4742476473 	0.002361936036 	-0.0009426042169 	4.616993404e-08 	0.002357174646 	-9.602282188e-08 	4.493430017e-06
0.4749060072 	0.003571558331 	-0.001578500528 	6.363382382e-08 	0.003564188264 	-1.254328139e-07 	6.794333447e-06
0.475564367 	0.004649264363 	-0.002139700146 	6.93904509e-08 	0.004639427421 	-1.419552032e-07 	8.844038127e-06
0.4762227269 	0.00565597079 	-0.002627170317 	7.051495229e-08 	0.005643624515 	-1.51059616e-07 	1.075831689e-05
0.4773080319 	0.00661803802 	-0.003074104519 	7.19266053e-08 	0.00660293833 	-1.536701723e-07 	1.258703565e-05
0.4784819342 	0.007372564759 	-0.00342439562 	6.933727546e-08 	0.007354764169 	-1.477248013e-07 	1.402022466e-05
0.479751666 	0.007892836246 	-0.003665523254 	6.351534724e-08 	0.007872478301 	-1.349414906e-07 	1.500713168e-05
0.4811250504 	0.008241100802 	-0.003826786496 	5.510206655e-08 	0.008218183964 	-1.163859533e-07 	1.566614276e-05
0.4826105488 	0.00846265935 	-0.003929168259 	4.411104e-08 	0.008437073093 	-9.216764458e-08 	1.608340628e-05
0.4842173135 	0.008588592028 	-0.003987048456 	3.033824321e-08 	0.00856014519 	-6.187111528e-08 	1.63180159e-05
0.4859552439 	0.008639566207 	-0.004010013926 	1.34324149e-08 	0.008608008403 	-2.475259066e-08 	1.640925649e-05
0.4878350474 	0.008628968119 	-0.004004277138 	-7.081623611e-09 	0.008594007644 	2.019715307e-08 	1.638256715e-05
0.4898683057 	0.008565119786 	-0.003973700912 	-3.180805864e-08 	0.00852644046 	7.425947261e-08 	1.625376532e-05
0.4920675457 	0.008452775946 	-0.003920493696 	-6.149383427e-08 	0.008410055074 	1.3901535e-07 	1.603190242e-05
0.4944463172 	0.008294105247 	-0.003845666577 	-9.705150169e-08 	0.008247035673 	2.163914284e-07 	1.572114214e-05
0.497019276 	0.008089307876 	-0.003749322842 	-1.395876954e-07 	0.008037630492 	3.087138344e-07 	1.532195766e-05
0.4998022741 	0.00783694412 	-0.003630815894 	-1.904227083e-07 	0.007780502812 	4.187364594e-07 	1.483180084e-05
0.5028124578 	0.007533936857 	-0.003488756557 	-2.510667328e-07 	0.007472752045 	5.495802929e-07 	1.424514234e-05
0.506068373 	0.0071265245 	-0.003298093724 	-3.327965111e-07 	0.007060423573 	7.252499705e-07 	1.345912967e-05
0.5112857627 	0.006538751173 	-0.003023584849 	-4.488731146e-07 	0.00646791656 	9.736990285e-07 	1.232964663e-05
0.5167584128 	0.005801602633 	-0.002680073704 	-5.830439681e-07 	0.005728025288 	1.259741412e-06 	1.091920822e-05
0.5224988119 	0.004995031279 	-0.00230512963 	-6.849358982e-07 	0.004922291239 	1.475841648e-06 	9.383255181e-06
0.5285200595 	0.004189392351 	-0.001931544975 	-7.089620574e-07 	0.004121131558 	1.524920385e-06 	7.856022158e-06
0.5348358961 	0.003451457217 	-0.0015654794 	-8.002403231e-07 	0.003390758653 	1.439718915e-06 	6.463728406e-06
0.5414607345 	0.002815751064 	-0.001195817473 	-8.339247953e-07 	0.0027655808 	1.263462639e-06 	5.271965659e-06
0.5484096926 	0.00231189269 	-0.0008617609102 	-7.024337124e-07 	0.002274146616 	9.683356699e-07 	4.335155516e-06
0.5556986279 	0.001963687244 	-0.0005930642454 	-5.813902535e-07 	0.00193885682 	6.064945025e-07 	3.695999976e-06
0.5633441738 	0.00176036964 	-0.0003811149771 	-4.564548199e-07 	0.001748299996 	2.943837186e-07 	3.332745707e-06
0.5713637774 	0.001662638887 	-0.0002145258622 	-3.578193927e-07 	0.001662955787 	8.059423923e-08 	3.170055925e-06
0.5797757394 	0.001629435769 	-7.627535016e-05 	-3.051796157e-07 	0.001641785342 	-4.634761258e-08 	3.129699172e-06
0.588599256 	0.001630603058 	4.354352178e-05 	-2.65406556e-07 	0.00165423853 	-1.095193338e-07 	3.153438409e-06
0.5978544624 	0.001648797161 	0.0001490595785 	-2.326119971e-07 	0.001682710773 	-1.393390951e-07 	3.207714418e-06
0.607562479 	0.001675682579 	0.0002440391186 	-2.076213643e-07 	0.00171888525 	-1.52487125e-07 	3.276673026e-06
0.6177454595 	0.001707152664 	0.0003309570876 	-1.866077306e-07 	0.00175867287 	-1.561811976e-07 	3.352519288e-06
0.6284266415 	0.001740982388 	0.0004111491379 	-1.674740715e-07 	0.001799861784 	-1.538092704e-07 	3.431036806e-06
0.6396303994 	0.001775868532 	0.0004853569349 	-1.48981779e-07 	0.001841157035 	-1.470183427e-07 	3.509757032e-06
0.6513823003 	0.001811022722 	0.0005540297527 	-1.304153798e-07 	0.001881767743 	-1.366213332e-07 	3.587172328e-06
0.6637091619 	0.001846007084 	0.0006175091087 	-1.114166393e-07 	0.001921240539 	-1.230445555e-07 	3.662418448e-06
0.6766391143 	0.001880689155 	0.0006761509223 	-9.186698736e-08 	0.001959416081 	-1.065502135e-07 	3.735191641e-06
0.6902016635 	0.001915263908 	0.0007304119883 	-7.18167091e-08 	0.001996454251 	-8.734718606e-08 	3.805796687e-06
0.7044277593 	0.001950319714 	0.0007809151537 	-5.144163409e-08 	0.002032904262 	-6.563810005e-08 	3.875280541e-06
0.7193498657 	0.001986940921 	0.0008285030791 	-3.100978051e-08 	0.002069807698 	-4.16200977e-08 	3.945628745e-06
0.7350020349 	0.002025976246 	0.0008732624251 	-1.124752914e-08 	0.002108003105 	-1.600204485e-08 	4.018439807e-06
0.7500308009 	0.00206744128 	0.0009145801762 	6.761616874e-09 	0.002147643648 	9.871127947e-09 	4.094005699e-06
0.7643871251 	0.002112065636 	0.000953140348 	2.270605588e-08 	0.002189679263 	3.546504189e-08 	4.174137265e-06
0.7781010947 	0.002161234685 	0.0009901943201 	3.691509923e-08 	0.002235673368 	6.113673865e-08 	4.261814812e-06
0.7912014512 	0.002216258677 	0.001026696097 	4.994168372e-08 	0.002287084134 	8.753889319e-08 	4.359818022e-06
0.8037156498 	0.002278462102 	0.001064385308 	6.698249876e-08 	0.002345251588 	1.155978797e-07 	4.470701356e-06
0.8156699174 	0.002349581498 	0.001103908106 	7.810680415e-08 	0.002411425864 	1.4636622e-07 	4.596847917e-06
0.8270893073 	0.002431904469 	0.001143770769 	8.801718107e-08 	0.002487282906 	1.824675079e-07 	4.741452524e-06
0.837997752 	0.002527743824 	0.001186690416 	1.088820445e-07 	0.002575415641 	2.263766182e-07 	4.909458011e-06
0.8484181129 	0.002639221656 	0.001236730238 	1.337163919e-07 	0.002678661171 	2.790054226e-07 	5.106272688e-06
0.8583722288 	0.002768527089 	0.001294977204 	1.630801813e-07 	0.002799522091 	3.413703124e-07 	5.336667192e-06
0.8678809611 	0.002918075519 	0.00136255762 	1.97486084e-07 	0.002940417349 	4.144142782e-07 	5.605252714e-06
0.8769642379 	0.003090560374 	0.001440697659 	2.372283333e-07 	0.003103914298 	4.988829676e-07 	5.91692334e-06
0.8856410957 	0.003288871016 	0.001530722331 	2.820096832e-07 	0.003292815177 	5.944603284e-07 	6.277020918e-06
0.8939297192 	0.003515767251 	0.001633935764 	3.304004581e-07 	0.003509961759 	6.984357212e-07 	6.690962655e-06
0.9018474793 	0.003773282153 	0.001751358567 	3.79571118e-07 	0.003757695025 	8.049772285e-07 	7.163211115e-06
0.9094109698 	0.004061948705 	0.001883359865 	4.254141675e-07 	0.004037041905 	9.053167696e-07 	7.695723909e-06
0.9166360422 	0.00437988601 	0.00202920567 	4.626871063e-07 	0.004346690116 	9.880526359e-07 	8.285999461e-06
0.9235378383 	0.004722002129 	0.00218665653 	4.858735814e-07 	0.004682064435 	1.041047588e-06 	8.925316126e-06
0.9301308229 	0.005080006639 	0.002351949676 	4.91091163e-07 	0.005035245953 	1.055600477e-06 	9.598578261e-06
0.9364288132 	0.005443396148 	0.002520246503 	4.773730047e-07 	0.005395914047 	1.029273212e-06 	1.028611189e-05
0.9424450084 	0.005800800677 	0.002686258094 	4.465822348e-07 	0.005752688987 	9.657617193e-07 	1.096622409e-05
0.948192017 	0.006141179379 	0.002844806143 	4.026315896e-07 	0.006094344739 	8.732514809e-07 	1.161751491e-05
0.9536818834 	0.006454534736 	0.002991162614 	3.504098173e-07 	0.006410550432 	7.621313119e-07 	1.222029084e-05
0.9589261131 	0.006731968217 	0.003121089462 	2.948018825e-07 	0.006691990452 	6.428840374e-07 	1.275679374e-05
0.9639356968 	0.006949122497 	0.003223061349 	2.442722544e-07 	0.006913455271 	5.338741378e-07 	1.317896724e-05
0.9671916133 	0.007095573245 	0.003292026213 	2.054985631e-07 	0.007063645788 	4.497962969e-07 	1.346527211e-05
0.9702017979 	0.007198066044 	0.003340429956 	1.749499308e-07 	0.007169354641 	3.832629765e-07 	1.366678257e-05
0.9729847967 	0.007273339463 	0.00337611196 	1.485805927e-07 	0.007247560357 	3.256330088e-07 	1.38158644e-05
0.9755577559 	0.007321401049 	0.003399062428 	1.2613417e-07 	0.007298217096 	2.764211354e-07 	1.391243022e-05
0.9779365277 	0.007341359298 	0.003408862711 	1.072323432e-07 	0.007320415608 	2.348657151e-07 	1.395474675e-05
0.9801357679 	0.007331173682 	0.003404567065 	9.144926089e-08 	0.007312128717 	2.000872339e-07 	1.393894964e-05
0.9821690261 	0.007287227173 	0.00338450158 	7.835799945e-08 	0.007269774021 	1.711899657e-07 	1.385820981e-05
0.9840488294 	0.007203702104 	0.0033459725 	6.75566808e-08 	0.007187582999 	1.473207131e-07 	1.370153088e-05
0.9857867595 	0.007071685915 	0.003284849889 	5.86802815e-08 	0.007056703348 	1.276971691e-07 	1.345203789e-05
0.9873935238 	0.006877912415 	0.003194983556 	5.139901901e-08 	0.00686393905 	1.116083796e-07 	1.308457556e-05
0.9888790217 	0.006603069261 	0.003067425671 	4.540398509e-08 	0.006590058487 	9.839256806e-08 	1.256248309e-05
0.9902524056 	0.006219799674 	0.002889565994 	4.037220766e-08 	0.006207798267 	8.73931919e-08 	1.183378886e-05
0.9915221368 	0.005691144997 	0.002644017346 	3.604512833e-08 	0.005680307785 	7.788347728e-08 	1.08282454e-05
0.9926960384 	0.004971869652 	0.002309760415 	3.193549534e-08 	0.004962470734 	6.882473334e-08 	9.459848467e-06
0.9937813429 	0.004104060712 	0.001894547228 	2.660588898e-08 	0.004096324725 	5.921704076e-08 	7.808733441e-06
0.9944397027 	0.003240032613 	0.00145660457 	2.134994548e-08 	0.003233925751 	4.94465669e-08 	6.164761305e-06
0.9950980625 	0.00237490903 	0.001000485016 	1.635085035e-08 	0.002370427106 	3.873758399e-08 	4.51869289e-06
0.9957564224 	0.001486962964 	0.0005464978135 	1.00135926e-08 	0.001484151262 	2.606460521e-08 	2.829204804e-06
0.9964147822 	0.000740853774 	0.0002112393444 	4.282341391e-09 	0.0007394497745 	1.377201121e-08 	1.40959679e-06
0.9970731421 	0.0002688205869 	4.991248945e-05 	1.083063724e-09 	0.0002683101399 	5.165334006e-09 	5.114736996e-07
0.9977315019 	6.152793906e-05 	5.791439013e-06 	1.293804142e-10 	6.141095671e-05 	1.195429318e-09 	1.170663518e-07
0.9983898617 	6.409524276e-06 	1.993666583e-07 	4.466289434e-12 	6.39733087e-06 	1.247494864e-10 	1.219509068e-08
0.9990482216 	1.466220192e-07 	6.308570927e-10 	1.404881071e-14 	1.463430505e-07 	2.85397505e-12 	2.789705281e-10
0.9990482216 	1.466220192e-07 	6.308570927e-10 	1.404881071e-14 	1.463430505e-07 	2.85397505e-12 	2.789705281e-10
