0.2638980281 	4.07041245e-07 	1.908505768e-09 	3.077753495e-11 	4.025702859e-07 	5.703159692e-09 	7.674108536e-10
0.2638980281 	4.07041245e-07 	1.908505768e-09 	3.077753495e-11 	4.025702859e-07 	5.703159692e-09 	7.674108536e-10
0.2654533431 	5.004941643e-05 	2.529324076e-06 	4.471483947e-08 	4.613214286e-05 	6.824249095e-07 	8.794068606e-08
0.2670087167 	0.0006632951018 	9.266753931e-05 	1.618388104e-06 	0.0005715605588 	8.494573901e-06 	1.089553282e-06
0.2685638061 	0.002588039673 	0.0003806111045 	5.50043617e-06 	0.002187574741 	2.997040024e-05 	4.170125461e-06
0.2701182719 	0.005383624252 	0.0005106313527 	5.24954391e-06 	0.004633083276 	5.838732389e-05 	8.831944423e-06
0.2716717782 	0.008272654396 	0.000149531844 	-1.438120219e-06 	0.007563485989 	8.904537559e-05 	1.441810646e-05
0.2740607069 	0.0109492386 	-0.0005893421491 	-9.912084205e-06 	0.01106473467 	0.0001248132246 	2.109245956e-05
0.2767546051 	0.01312558796 	-0.00145031053 	-1.789306714e-05 	0.01486477813 	0.0001626272914 	2.833639857e-05
0.2797895793 	0.01479468191 	-0.002229590989 	-2.433955057e-05 	0.01875410333 	0.0001998462974 	3.575053337e-05
0.2832304115 	0.01603739143 	-0.002915137696 	-2.929955788e-05 	0.02279287815 	0.0002352750503 	4.34495607e-05
0.287111948 	0.01687387737 	-0.003516874942 	-3.218756813e-05 	0.02706111905 	0.0002659898842 	5.158601416e-05
0.2914829797 	0.01738642916 	-0.00402712235 	-3.309169367e-05 	0.03162389684 	0.0002895724642 	6.028393678e-05
0.2964036899 	0.01782185697 	-0.004504386643 	-3.207285338e-05 	0.03650262777 	0.0003052643317 	6.958415391e-05
0.3019811527 	0.01820324724 	-0.005092072074 	-2.657808935e-05 	0.04210286166 	0.0003042411398 	8.02597562e-05
0.3082566829 	0.01893000369 	-0.005890258068 	-1.418032951e-05 	0.04856965069 	0.0002754586 	9.258725345e-05
0.3153299793 	0.02057300696 	-0.007145241094 	1.041098296e-05 	0.05700476644 	0.0002220644842 	0.0001086669285
0.3259983069 	0.02374049205 	-0.009601665662 	4.457237233e-05 	0.06868026409 	0.0001384013235 	0.000130923672
0.3373926531 	0.02796628009 	-0.01367338124 	7.039497109e-05 	0.08210436524 	0.0001175200147 	0.0001565137399
0.3495488673 	0.03140180994 	-0.01870194791 	6.579900302e-05 	0.09280617943 	0.0002391900616 	0.0001769143721
0.3625213994 	0.03237578838 	-0.0227158932 	-1.331114526e-05 	0.09529418415 	0.000489397349 	0.0001816572006
0.3763660986 	0.02961207643 	-0.02276846702 	-0.0001426810175 	0.08569655018 	0.0007484429647 	0.0001633614428
0.391140701 	0.02283206068 	-0.01816629722 	-0.0002187121917 	0.06475901613 	0.0008507958996 	0.0001234486836
0.4069054432 	0.01484179209 	-0.01197604871 	-0.0002024476535 	0.04124857191 	0.000724631909 	7.863124252e-05
0.423723814 	0.008537395541 	-0.005739666614 	-0.0001350217144 	0.02024808444 	0.0004662560198 	3.85984766e-05
0.4416634491 	0.00522708332 	-0.001312699985 	-5.937520011e-05 	0.007431448691 	0.0001648683998 	1.416640667e-05
0.4607971748 	0.005212179379 	0.0003543965446 	-4.740114214e-06 	0.006980820309 	-1.905993013e-05 	1.330738373e-05
0.4812051392 	0.006435830171 	-0.0005668715035 	2.010397819e-05 	0.008527868795 	-2.770141523e-05 	1.625648812e-05
0.5029838614 	0.007071045374 	-0.001727298143 	1.435027152e-05 	0.007743057925 	-4.962876946e-07 	1.476042048e-05
0.5262183068 	0.006879452974 	-0.001231751172 	-2.250790741e-07 	0.00758066725 	2.721159703e-06 	1.445085872e-05
0.5510200772 	0.0060559957 	-0.0008990256803 	-2.788754554e-06 	0.00880433238 	4.726190867e-06 	1.678350455e-05
0.5775021918 	0.00627934333 	0.0001054817252 	3.812143935e-06 	0.009575827217 	1.468681118e-05 	1.825418814e-05
0.6057914839 	0.007307626195 	0.002366428724 	-2.00566925e-05 	0.009619092115 	6.287181468e-06 	1.833666306e-05
0.636028988 	0.008008233274 	0.00192953264 	-2.630162994e-05 	0.009875885781 	3.23551873e-07 	1.882618316e-05
0.6662252001 	0.008817075547 	0.0002410615887 	1.270605946e-06 	0.01026235049 	-3.681836084e-06 	1.95628923e-05
0.6943993079 	0.00946766779 	0.00142994911 	1.319273155e-05 	0.01040947063 	-6.39711512e-06 	1.984334418e-05
0.7207016499 	0.009756398444 	0.003342770083 	1.239355856e-05 	0.01055855627 	3.122435182e-06 	2.012754285e-05
0.7452665078 	0.009332542854 	0.004657437544 	7.324490162e-06 	0.01148106906 	6.107762495e-06 	2.188610862e-05
0.768215059 	0.00889428038 	0.005185602943 	4.184769806e-06 	0.01236129198 	5.036930037e-06 	2.356405815e-05
0.7896577441 	0.008716667313 	0.005260330302 	2.939099954e-06 	0.01287344066 	3.712943161e-06 	2.454035588e-05
0.8096954208 	0.008719030194 	0.005161673064 	2.282501928e-06 	0.0131750434 	2.6074128e-06 	2.511529454e-05
0.8284213407 	0.008708785608 	0.005080270405 	1.534628761e-06 	0.01358804077 	1.19124029e-06 	2.590258231e-05
0.8459217018 	0.008562249431 	0.005132390714 	6.010049986e-07 	0.01434827542 	-7.737185001e-07 	2.735180084e-05
0.8622766275 	0.008359111715 	0.005257011854 	1.013167448e-07 	0.01546457126 	-2.421969784e-06 	2.947977098e-05
0.8775607399 	0.008376698758 	0.005335182619 	-1.363072413e-08 	0.01672890064 	-3.262349467e-06 	3.188993417e-05
0.8918436525 	0.008701904394 	0.005447902428 	-3.278822928e-07 	0.01812522893 	-3.780552175e-06 	3.455172398e-05
0.9051903915 	0.009234873446 	0.005697516346 	-5.876263212e-07 	0.01977247026 	-3.906746252e-06 	3.769182378e-05
0.9176617495 	0.009927244712 	0.006055556585 	-6.251251871e-07 	0.02165098176 	-3.506593789e-06 	4.127278882e-05
0.929314591 	0.01072892591 	0.00648633486 	-4.149925404e-07 	0.02371728547 	-2.396061309e-06 	4.521173798e-05
0.9402021232 	0.01159940398 	0.006963248708 	3.850656498e-08 	0.02590955738 	-4.981716286e-07 	4.939081756e-05
0.950374142 	0.01242409075 	0.007417902136 	6.390894897e-07 	0.02796833346 	1.880669724e-06 	5.331541697e-05
0.957108839 	0.01307990563 	0.007777999653 	1.213515202e-06 	0.02961229159 	4.122947303e-06 	5.644925808e-05
0.963072106 	0.01356540283 	0.008040203928 	1.673943652e-06 	0.03085662842 	5.956289853e-06 	5.882130992e-05
0.9683520561 	0.01386366661 	0.008192373176 	1.969569238e-06 	0.0316725551 	7.184301273e-06 	6.037669296e-05
0.9730267922 	0.01389753486 	0.008188858497 	2.026693676e-06 	0.03188245635 	7.517549061e-06 	6.077682308e-05
0.9771655318 	0.01361038604 	0.007996864307 	1.8475068e-06 	0.03135167748 	6.94079843e-06 	5.976501102e-05
0.98082961 	0.01297640257 	0.00760192635 	1.522191958e-06 	0.03001372101 	5.765242599e-06 	5.721449413e-05
0.9840733699 	0.01199261249 	0.00700378412 	1.184612093e-06 	0.02785197808 	4.515754274e-06 	5.309361128e-05
0.9869449531 	0.01065471826 	0.006203645424 	9.576397814e-07 	0.02484239831 	3.734424917e-06 	4.735651577e-05
0.9894870034 	0.008920992106 	0.005184217251 	9.510608334e-07 	0.02086896146 	3.849251911e-06 	3.978204077e-05
0.9917372914 	0.006863126532 	0.004013390588 	1.152108369e-06 	0.01605521598 	4.634340531e-06 	3.060570397e-05
0.9931992005 	0.004704517244 	0.002768457776 	1.379431954e-06 	0.01099689362 	5.26393055e-06 	2.096313568e-05
0.9946612482 	0.002626053836 	0.001331474733 	1.117046452e-06 	0.005449931225 	4.185343734e-06 	1.038908364e-05
0.9961234342 	0.0008955066346 	0.0002762535988 	3.929993863e-07 	0.001286277544 	1.547292417e-06 	2.452002501e-06
0.9975857587 	8.467992072e-05 	7.651703347e-06 	1.085411213e-08 	8.768276686e-05 	7.533321566e-08 	1.671477238e-07
0.9990482216 	8.240059445e-07 	5.99876238e-09 	1.520685466e-13 	8.224260462e-07 	-3.62254802e-11 	1.567772625e-09
