0.2739420079 	8.536577471e-06 	-3.661370868e-07 	-9.463829347e-10 	8.228039553e-06 	2.899397531e-08 	1.568493025e-08
0.275272557 	0.0008033425771 	-0.0003033604701 	-3.816388997e-07 	0.000915874449 	2.370012032e-06 	1.745911254e-06
0.2766031854 	0.005862801385 	-0.003703552891 	-6.451120013e-06 	0.007866868506 	2.267284586e-05 	1.499643785e-05
0.2779335901 	0.01123492434 	-0.007630650556 	-2.065526583e-05 	0.01525308403 	5.422809117e-05 	2.907661754e-05
0.2792634708 	0.01106870478 	-0.007322293232 	-2.623219086e-05 	0.0155563087 	6.039585299e-05 	2.965464803e-05
0.2805925299 	0.008805840534 	-0.005379354814 	-1.573905791e-05 	0.01332528336 	3.332692159e-05 	2.540169365e-05
0.2826362867 	0.007633729686 	-0.003948441895 	-1.144527166e-05 	0.01162572445 	2.828974952e-06 	2.2161862e-05
0.2849408702 	0.007849347547 	-0.00252582731 	-1.458567962e-05 	0.01097699059 	-1.415550133e-05 	2.092519496e-05
0.2875370716 	0.008516765554 	-0.001203717175 	-1.086204603e-05 	0.01101659203 	-1.986473567e-05 	2.100068631e-05
0.2904580691 	0.008964256328 	-0.0004156231337 	-4.498697405e-06 	0.01136966953 	-1.753380379e-05 	2.167375016e-05
0.2938196317 	0.009175685027 	-7.11161453e-05 	-2.599504493e-07 	0.0116015002 	-1.449097242e-05 	2.211568385e-05
0.2976320779 	0.009171804941 	2.378632211e-06 	9.690929569e-07 	0.01169492386 	-1.190815757e-05 	2.229377532e-05
0.3019179803 	0.009100646059 	-7.694249414e-06 	8.206199861e-07 	0.01172056006 	-9.260729861e-06 	2.234264503e-05
0.3067337774 	0.009039293534 	-1.322994291e-05 	7.187257985e-07 	0.0117012525 	-6.820020017e-06 	2.230583946e-05
0.3122569715 	0.008963866616 	-1.944491094e-05 	6.343805549e-07 	0.01165421294 	-4.883574223e-06 	2.221616898e-05
0.3185112727 	0.008863538568 	-3.25935135e-05 	5.045334287e-07 	0.01161102098 	-3.253105354e-06 	2.21338331e-05
0.3279565291 	0.008770299843 	-4.855094741e-05 	2.433672631e-07 	0.01160324504 	-1.32546752e-06 	2.211901001e-05
0.3358853299 	0.008733829429 	-5.934432456e-05 	-1.880564303e-07 	0.01164014326 	-2.607477318e-06 	2.218934827e-05
0.3381259885 	0.008721921318 	-6.283756378e-05 	5.407732379e-08 	0.01165027847 	-3.228996738e-07 	2.22086688e-05
0.3489508731 	0.008712451914 	-7.890594691e-05 	3.341116593e-07 	0.01174634568 	-1.680315594e-06 	2.23917996e-05
0.3605981766 	0.008734329473 	-9.731746095e-05 	6.803695765e-07 	0.01189319901 	-2.87326335e-06 	2.267174286e-05
0.3731708885 	0.008780605979 	-0.0001176813403 	1.10491035e-06 	0.01208805848 	-3.903725737e-06 	2.304319917e-05
0.3867969958 	0.008848034939 	-0.0001405470355 	1.623105432e-06 	0.0123325968 	-4.773048713e-06 	2.350935717e-05
0.4014972221 	0.008931381168 	-0.0001660443242 	2.248806279e-06 	0.01262676264 	-5.468662015e-06 	2.407011902e-05
0.4173643717 	0.009025702442 	-0.0001942964593 	3.00149479e-06 	0.01297309425 	-5.982776904e-06 	2.473032333e-05
0.4344885207 	0.009125569658 	-0.0002251438317 	3.901864934e-06 	0.01337488746 	-6.326041881e-06 	2.549625286e-05
0.4530046648 	0.009223827587 	-0.0002577064701 	3.924201688e-06 	0.01383512016 	-5.1276806e-06 	2.63735843e-05
0.4729699124 	0.009315014276 	-0.0002901569742 	3.798712846e-06 	0.01435828564 	-4.008311034e-06 	2.73708831e-05
0.4944634565 	0.009391882317 	-0.0003197301348 	3.615912755e-06 	0.01494541684 	-3.111295455e-06 	2.849011837e-05
0.5176484568 	0.009450682308 	-0.0003423957181 	3.371669515e-06 	0.01560250227 	-2.447487329e-06 	2.974270581e-05
0.542569778 	0.009484027888 	-0.000351946792 	3.073436516e-06 	0.0163309347 	-1.990440387e-06 	3.113130048e-05
0.5693462178 	0.009485973944 	-0.0003398260025 	2.735881214e-06 	0.0171339323 	-1.72322205e-06 	3.266203709e-05
0.5980874262 	0.009449021603 	-0.0002938938656 	2.382633487e-06 	0.01800674617 	-1.610736458e-06 	3.432586291e-05
0.6289040372 	0.009368019543 	-0.0001998747314 	2.046470341e-06 	0.01892038417 	-1.617232484e-06 	3.606751088e-05
0.6597287896 	0.009249754058 	-5.376503733e-05 	1.769555153e-06 	0.01980081801 	-1.734355877e-06 	3.774586248e-05
0.6885070106 	0.009110899861 	0.0001350884024 	1.54682717e-06 	0.02057718681 	-1.93406974e-06 	3.922583718e-05
0.7153735372 	0.008962687524 	0.0003580262275 	1.34477871e-06 	0.02122653615 	-2.180573584e-06 	4.046367752e-05
0.7404577418 	0.008810884992 	0.0006086975562 	1.132839968e-06 	0.02174728769 	-2.451388176e-06 	4.145637468e-05
0.763881608 	0.008661069394 	0.0008778488606 	8.959361207e-07 	0.02213859973 	-2.715043054e-06 	4.220232418e-05
0.7857594625 	0.008516726875 	0.001155142834 	6.372731174e-07 	0.02240199121 	-2.943396021e-06 	4.270442155e-05
0.8061955834 	0.008378415619 	0.001431563446 	3.671450108e-07 	0.0225416372 	-3.119843608e-06 	4.297062563e-05
0.8252873287 	0.008244915555 	0.001699520494 	9.948402041e-08 	0.02256330989 	-3.235943911e-06 	4.30119398e-05
0.8431242394 	0.008114048748 	0.00195292145 	-1.499929885e-07 	0.02247395603 	-3.289120705e-06 	4.284160651e-05
0.8597896056 	0.007983321681 	0.00218777388 	-3.672298795e-07 	0.02228158459 	-3.281062565e-06 	4.247489307e-05
0.8753606451 	0.007850761589 	0.002402624703 	-5.421177486e-07 	0.02199523228 	-3.214454675e-06 	4.192902598e-05
0.8899091601 	0.007715700326 	0.002598415952 	-6.685921537e-07 	0.0216249769 	-3.092027663e-06 	4.122321632e-05
0.9035021065 	0.007579177973 	0.002778189031 	-7.432421651e-07 	0.0211818639 	-2.917784249e-06 	4.037851978e-05
0.9162019423 	0.00744421908 	0.002946856458 	-7.655614149e-07 	0.02067747876 	-2.698318879e-06 	3.941702152e-05
0.9280669907 	0.007315694037 	0.003109800689 	-7.414026802e-07 	0.02012322852 	-2.447417217e-06 	3.836046651e-05
0.939151752 	0.007198614982 	0.003269124763 	-6.845529429e-07 	0.01953000712 	-2.190966308e-06 	3.722962165e-05
0.9495071738 	0.007100526155 	0.003408435467 	-6.218717934e-07 	0.0189558249 	-1.98130373e-06 	3.613507076e-05
0.9563628554 	0.00703195414 	0.00351923721 	-5.77542313e-07 	0.01847497661 	-1.86488957e-06 	3.521844027e-05
0.962432965 	0.006985574033 	0.003612357291 	-5.525877445e-07 	0.01806665847 	-1.830388081e-06 	3.444007241e-05
0.9678072944 	0.006943743336 	0.003687104526 	-5.398747956e-07 	0.01768564684 	-1.870213644e-06 	3.371375835e-05
0.9725654226 	0.0068948754 	0.003737634625 	-5.327212137e-07 	0.01731650633 	-1.968566674e-06 	3.301007393e-05
0.9767778614 	0.006825361645 	0.003759138154 	-5.212584708e-07 	0.01693094436 	-2.082414451e-06 	3.227508566e-05
0.9805070848 	0.006716543699 	0.003743693741 	-4.945531651e-07 	0.0164838835 	-2.145829078e-06 	3.142286341e-05
0.9838084378 	0.0065378763 	0.003675928536 	-4.484346844e-07 	0.0159008723 	-2.095710601e-06 	3.031148202e-05
0.9867309446 	0.006233457319 	0.003529600551 	-3.840688375e-07 	0.01504379237 	-1.931289152e-06 	2.867764945e-05
0.9893180269 	0.005694393668 	0.003257354121 	-2.697981973e-07 	0.01364823226 	-1.682873314e-06 	2.601732402e-05
0.9916081409 	0.004807869228 	0.002822859519 	-2.971758465e-07 	0.01145135212 	-1.590609445e-06 	2.182945988e-05
0.9930959046 	0.003585092916 	0.002132204337 	-4.181124775e-07 	0.00850187955 	-1.67643888e-06 	1.62069454e-05
0.9945837944 	0.002062985156 	0.001173569278 	-3.234298249e-07 	0.00476614457 	-1.310961787e-06 	9.085596232e-06
0.9960718106 	0.0006915084725 	0.0003381521278 	-1.092428525e-07 	0.00142128589 	-4.735438452e-07 	2.709365933e-06
0.9975599529 	8.04911123e-05 	1.491982197e-05 	-2.36173436e-09 	9.256817144e-05 	-1.710397359e-08 	1.764606627e-07
0.9990482216 	8.025703701e-07 	1.651345964e-08 	7.942551353e-12 	8.024076384e-07 	2.122307503e-10 	1.529611976e-09
0.9990482216 	8.025703701e-07 	1.651345964e-08 	7.942551353e-12 	8.024076384e-07 	2.122307503e-10 	1.529611976e-09
