0.4709558481 	2.90142094e-06 	-5.999610705e-08 	1.011728192e-11 	2.900650907e-06 	-3.491659516e-10 	5.529446823e-09
0.4709558481 	2.90142094e-06 	-5.999610705e-08 	1.011728192e-11 	2.900650907e-06 	-3.491659516e-10 	5.529446823e-09
0.4720092239 	0.0002234747334 	-3.915570416e-05 	6.196512977e-09 	0.0002534514285 	-3.171346597e-08 	4.831488659e-07
0.4730625996 	0.001685027309 	-0.0007804694492 	9.449039529e-08 	0.003286602113 	-3.908519418e-07 	6.265177092e-06
0.4741159754 	0.004733163246 	-0.002650202347 	2.418388164e-07 	0.0107327574 	-9.632693676e-07 	2.045961861e-05
0.4751693511 	0.008092247238 	-0.004800086475 	3.59626258e-07 	0.01904999716 	-1.33551269e-06 	3.631458926e-05
0.4762227269 	0.01095074319 	-0.006457603496 	3.881068381e-07 	0.0258108557 	-1.462390407e-06 	4.920266472e-05
0.4778443634 	0.01310556446 	-0.0075998845 	3.419561722e-07 	0.03092865146 	-1.369839706e-06 	5.895860586e-05
0.4796765386 	0.01430842045 	-0.00826653151 	2.712596e-07 	0.03376735006 	-1.071872619e-06 	6.436995436e-05
0.4817465869 	0.01467016262 	-0.00847510024 	1.500205738e-07 	0.03460182261 	-5.626725908e-07 	6.596069098e-05
0.4840853915 	0.01442448092 	-0.008341654562 	-2.030720997e-08 	0.03399171186 	1.487316527e-07 	6.479765032e-05
0.4867278453 	0.01367889475 	-0.007921209503 	-2.407762587e-07 	0.03220040713 	1.072867276e-06 	6.138292563e-05
0.4897133715 	0.01247660701 	-0.007236622063 	-5.081804546e-07 	0.02933453586 	2.17367495e-06 	5.591977845e-05
0.4930865115 	0.01085435033 	-0.006298061641 	-8.004621276e-07 	0.02549737227 	3.288949283e-06 	4.860507817e-05
0.4968975894 	0.008970275733 	-0.00520124488 	-9.743675928e-07 	0.02105439366 	3.973234549e-06 	4.013552608e-05
0.5012034633 	0.007201299182 	-0.004187087947 	-8.684672281e-07 	0.0168604136 	3.660380308e-06 	3.214063443e-05
0.506068373 	0.006180958161 	-0.003262168433 	-7.751488419e-07 	0.0130780341 	3.032356064e-06 	2.493036785e-05
0.5134203412 	0.006290025038 	-0.002306357344 	-7.599304621e-07 	0.009975769229 	2.000947437e-06 	1.901658877e-05
0.5212948542 	0.007016460779 	-0.001417999299 	-6.811256597e-07 	0.008351734336 	6.725659044e-07 	1.592072689e-05
0.529729052 	0.007703663794 	-0.0006459482948 	-6.294525493e-07 	0.007959733146 	-8.212010707e-08 	1.517346367e-05
0.5387627144 	0.008202877283 	3.299336944e-05 	-5.806649335e-07 	0.00820839501 	-5.120443745e-07 	1.564748229e-05
0.5484384488 	0.008541108911 	0.0006403363375 	-5.522929479e-07 	0.008772240457 	-7.301013857e-07 	1.672232843e-05
0.5588018907 	0.008746507133 	0.001209167476 	-5.434100035e-07 	0.009517735888 	-8.857732301e-07 	1.814344992e-05
0.5699019192 	0.008827081334 	0.001750912275 	-5.383866884e-07 	0.010404171 	-1.024856074e-06 	1.983324162e-05
0.5817908876 	0.008786643005 	0.00226624121 	-5.292487998e-07 	0.01141740335 	-1.162458396e-06 	2.176474408e-05
0.5945248701 	0.008626853858 	0.002751175959 	-5.056105182e-07 	0.01255192836 	-1.304124601e-06 	2.392746407e-05
0.6081639266 	0.008350651275 	0.003189246987 	-4.506913176e-07 	0.01380521151 	-1.440799321e-06 	2.63165701e-05
0.6227723857 	0.007984868628 	0.003576128559 	-4.006868435e-07 	0.01513510659 	-1.541611966e-06 	2.885171975e-05
0.638419148 	0.00754282104 	0.003921753368 	-3.559588374e-07 	0.01651077153 	-1.628837195e-06 	3.147411946e-05
0.6551780116 	0.007366251015 	0.004134375434 	-1.916099943e-07 	0.01753841031 	-1.144933834e-06 	3.34330846e-05
0.6731280194 	0.007528858606 	0.004232665817 	-7.022348832e-08 	0.01812466282 	-5.725055143e-07 	3.455064483e-05
0.6923538328 	0.007714030755 	0.004341282686 	-1.013766473e-07 	0.01859366895 	-4.996033191e-07 	3.544470086e-05
0.7129461301 	0.007873001225 	0.00444474721 	-1.108948109e-07 	0.01896941212 	-4.600248281e-07 	3.616097178e-05
0.7350020349 	0.007991181713 	0.004518270157 	-9.924141932e-08 	0.0192545007 	-4.646040411e-07 	3.670442984e-05
0.7570579485 	0.008064927327 	0.004566017107 	-1.02662079e-07 	0.01943500315 	-4.876900316e-07 	3.704851768e-05
0.7776502527 	0.008096222717 	0.004589394855 	-1.111816848e-07 	0.0195121259 	-5.201281145e-07 	3.719553508e-05
0.7968760713 	0.008090842328 	0.004591708143 	-1.203602015e-07 	0.01949791439 	-5.552930359e-07 	3.7168444e-05
0.814826083 	0.008053567541 	0.004575264494 	-1.331642084e-07 	0.01940445594 	-5.876008432e-07 	3.699028621e-05
0.831584949 	0.007987632782 	0.004540102382 	-1.401623151e-07 	0.01924311075 	-6.187142581e-07 	3.668271744e-05
0.8472317127 	0.007897510323 	0.004493284656 	-1.394118645e-07 	0.019021872 	-6.426220133e-07 	3.62609749e-05
0.8618401721 	0.007806582096 	0.004436558195 	-1.666329069e-07 	0.01873033232 	-7.646320603e-07 	3.570521923e-05
0.8754792281 	0.007782750008 	0.004350909352 	-1.856419156e-07 	0.01830942557 	-8.517453722e-07 	3.490285398e-05
0.8882132094 	0.007800019293 	0.004247811678 	-1.626559617e-07 	0.01780820712 	-7.795737239e-07 	3.394739231e-05
0.9001021759 	0.007789640328 	0.004155368301 	-1.289555523e-07 	0.01733142796 	-6.481867606e-07 	3.303851872e-05
0.9112022019 	0.007745312475 	0.004078934311 	-9.42407927e-08 	0.01692596762 	-4.340248553e-07 	3.226559861e-05
0.9215656407 	0.007652486194 	0.004024703087 	-3.131037893e-08 	0.0166652561 	-1.604933685e-07 	3.176860999e-05
0.9312413717 	0.007500444063 	0.004028112095 	8.885742967e-08 	0.01663203915 	2.558089889e-07 	3.170528926e-05
0.9402750304 	0.007318459476 	0.004118628301 	1.454994173e-07 	0.01689755729 	5.162481115e-07 	3.221144063e-05
0.9487092242 	0.007342886441 	0.004248551505 	1.933264803e-07 	0.01735708253 	7.740417332e-07 	3.308742345e-05
0.9565837329 	0.007691118607 	0.004447131556 	3.451363188e-07 	0.01813813292 	1.377228074e-06 	3.457632257e-05
0.9639356968 	0.008261878424 	0.004780057981 	4.880236932e-07 	0.01945138512 	1.963067518e-06 	3.707974626e-05
0.9688006083 	0.008942539546 	0.005177576984 	5.588857784e-07 	0.02103843332 	2.287755418e-06 	4.010510123e-05
0.9731064834 	0.009647099861 	0.005585329729 	5.511294158e-07 	0.02269921525 	2.275840225e-06 	4.32710132e-05
0.976917562 	0.01032809925 	0.005977920194 	4.760591682e-07 	0.02431378523 	1.983249794e-06 	4.634883232e-05
0.9802907021 	0.01088723687 	0.006298725749 	3.605918651e-07 	0.02564686974 	1.519777852e-06 	4.88900619e-05
0.9832762282 	0.01124696452 	0.006502781475 	2.358843807e-07 	0.02651315495 	1.01046773e-06 	5.054144228e-05
0.9859186816 	0.01134487559 	0.006554783247 	1.235548694e-07 	0.02676272198 	5.459069904e-07 	5.10171864e-05
0.9882574856 	0.01110886001 	0.006414676176 	3.431907665e-08 	0.02622276508 	1.73792604e-07 	4.998787848e-05
0.990327533 	0.01041936755 	0.006022952411 	-2.876013058e-08 	0.02460221775 	-8.743459786e-08 	4.689866486e-05
0.9921597073 	0.00912526409 	0.005313668385 	-6.941434328e-08 	0.02153986062 	-2.414777061e-07 	4.106096104e-05
0.9937813429 	0.007191815389 	0.004217049922 	-8.15824715e-08 	0.01695409905 	-2.920453502e-07 	3.231922494e-05
0.9948347186 	0.004919566611 	0.002872591348 	-6.753175179e-08 	0.01158989013 	-2.594809391e-07 	2.209355184e-05
0.9958880943 	0.002680951727 	0.001421380721 	-4.3743549e-08 	0.0058159154 	-1.728393772e-07 	1.10867512e-05
0.9969414701 	0.0009017776258 	0.0003437073017 	-1.611866488e-08 	0.001488387027 	-6.313151545e-08 	2.837279348e-06
0.9979948458 	0.0001040774896 	1.392579486e-05 	-8.485668362e-10 	0.0001121222795 	-4.604449256e-09 	2.137362275e-07
0.9990482216 	1.441626715e-06 	2.216122191e-08 	-1.419262704e-12 	1.44012832e-06 	-5.674884651e-11 	2.74528484e-09
