0.3673995292 	0.05757377496 	0.008349003618 	-2.119303724e-05
0.3673995292 	0.05757377496 	0.008349003618 	-2.119303724e-05
0.3684829761 	0.2222521375 	0.03163177828 	-8.291223691e-05
0.3695665877 	0.4350687907 	0.06153990506 	-0.0001638917897
0.3706502347 	0.6252850139 	0.0884391972 	-0.0002375559074
0.3717337888 	0.7771095751 	0.1097360409 	-0.0002967607093
0.3728171224 	0.9022348664 	0.1270587064 	-0.0003466194527
0.3744841553 	1.014177194 	0.1424091045 	-0.0003960601501
0.3763660564 	1.106658685 	0.1549268484 	-0.0004396501459
0.3784895005 	1.17996342 	0.1645903164 	-0.0004755614609
0.3808839529 	1.238204536 	0.1719004939 	-0.0005021594236
0.3836378911 	1.282320571 	0.1769294586 	-0.0005174519499
0.3867652482 	1.312013884 	0.1795493493 	-0.000522526205
0.390290462 	1.329116313 	0.1800017115 	-0.0005156967565
0.3942632783 	1.337844096 	0.1789532735 	-0.0004753768676
0.3988211095 	1.342177275 	0.1769896594 	-0.000436276125
0.4039948728 	1.344441643 	0.1741383601 	-0.0003951092356
0.4118367251 	1.34534312 	0.170232312 	-0.0003412995466
0.420339507 	1.344870185 	0.1656747038 	-0.0002874256051
0.429540511 	1.343168679 	0.1607342756 	-0.0002336119668
0.4394675757 	1.340276666 	0.1553683633 	-0.0001827843814
0.450208819 	1.336388715 	0.1496597329 	-0.0001361253071
0.4618721886 	1.331813396 	0.1437104689 	-9.298110981e-05
0.4744877587 	1.326744919 	0.1375515394 	-5.392578156e-05
0.488139843 	1.321238826 	0.131200206 	-1.942078959e-05
0.4975745988 	1.317438042 	0.1270211027 	-0.0001504821329
0.5028917562 	1.315271632 	0.1246724361 	-9.718700097e-06
0.5188499572 	1.308811026 	0.1179745312 	-3.331746509e-05
0.5361130653 	1.301864919 	0.111114928 	-5.201991182e-05
0.5547594807 	1.294413958 	0.1041149997 	-6.57588319e-05
0.574931013 	1.286426429 	0.09698853601 	-7.469610827e-05
0.596680164 	1.277858713 	0.08975674945 	-7.906480401e-05
0.6201143357 	1.268637124 	0.08243942257 	-7.932517432e-05
0.645332846 	1.258644806 	0.07504361965 	-7.60658864e-05
0.6724342449 	1.247907173 	0.06769831698 	-7.014041019e-05
0.6995933348 	1.236822752 	0.06077519954 	-6.27548947e-05
0.7249828856 	1.225808703 	0.0545520761 	-5.519607988e-05
0.7487060318 	1.214896596 	0.04900506442 	-4.809243157e-05
0.7708663551 	1.203935026 	0.0440260173 	-4.165608901e-05
0.7915646598 	1.19278037 	0.03953149334 	-3.594418221e-05
0.8108975394 	1.181297605 	0.03545440824 	-3.09369567e-05
0.8289546918 	1.169360363 	0.03174040638 	-2.657917387e-05
0.8458208373 	1.156854038 	0.02834517994 	-2.280067157e-05
0.861574609 	1.14368608 	0.02523194965 	-1.953650781e-05
0.8762895743 	1.129809006 	0.02236750212 	-1.673026481e-05
0.8900342399 	1.115255331 	0.01972175761 	-1.431951577e-05
0.9028724742 	1.100120128 	0.01727163198 	-1.223046376e-05
0.9148639184 	1.084365348 	0.01499419104 	-1.043240934e-05
0.9260642485 	1.067710132 	0.01286368806 	-8.867903142e-06
0.9365254628 	1.049788363 	0.01086755132 	-7.468663161e-06
0.9462961394 	1.030140894 	0.008997359394 	-6.217922853e-06
0.9554216696 	1.009581862 	0.007363859594 	-5.146343919e-06
0.9614619036 	0.9901371444 	0.006091640073 	-4.34535769e-06
0.9668091954 	0.9709086408 	0.005065309165 	-3.682928787e-06
0.9715429241 	0.9497788994 	0.004163519568 	-3.089695503e-06
0.9757334019 	0.92595103 	0.00337721149 	-2.554899439e-06
0.9794429011 	0.8983654123 	0.002697079056 	-2.072669099e-06
0.9827265717 	0.8655959201 	0.002115117637 	-1.640494582e-06
0.9856332522 	0.8256705521 	0.001626096677 	-1.257974657e-06
0.9882061891 	0.7757292571 	0.001230565765 	-9.272356156e-07
0.9904836754 	0.7113705485 	0.0008857674904 	-6.553418573e-07
0.9924996163 	0.6312399005 	0.0005638444978 	-4.50275706e-07
0.9938092065 	0.5403756835 	0.0003273864049 	-2.992881592e-07
0.9951188621 	0.4321947007 	0.0002079540803 	-1.757924437e-07
0.9964285831 	0.3008969869 	0.0001294667704 	-7.753133819e-08
0.9977383696 	0.1551823132 	-1.547735111e-06 	8.694935618e-09
0.9990482216 	0.04458095261 	-4.918882136e-05 	2.970322668e-08
0.9990482216 	0.04458095261 	-4.918882136e-05 	2.970322668e-08
