0.2472849305 	2.902359695e-07 	-4.590192784e-09 	3.779708944e-12 	2.838049275e-07 	1.738869931e-10 	5.410110713e-10
0.2487094669 	3.438785378e-05 	-4.37757718e-06 	6.391305884e-09 	2.828262691e-05 	-2.482855808e-09 	5.391454765e-08
0.2501340182 	0.0004773517502 	-0.0001196519511 	3.45181514e-08 	0.0002934695554 	3.699247136e-08 	5.594345381e-07
0.2515582136 	0.001732323361 	-0.0005104891631 	-5.807756502e-07 	0.0009275808852 	8.906384889e-07 	1.768226975e-06
0.2529816857 	0.002991762342 	-0.0009357281036 	-1.911781148e-06 	0.001528200641 	2.175324563e-06 	2.913175162e-06
0.2544040707 	0.003493347423 	-0.001119440913 	-2.662559357e-06 	0.001803964694 	1.702995015e-06 	3.438858093e-06
0.2565908305 	0.003375222701 	-0.001073223933 	-2.379774478e-06 	0.001922619476 	-2.663109241e-06 	3.665047085e-06
0.2590557457 	0.002976645338 	-0.0008837475325 	-1.698499801e-06 	0.002137689907 	-8.515748479e-06 	4.075031103e-06
0.2618311143 	0.002660784304 	-0.0006952296802 	-9.705225628e-07 	0.002540880059 	-1.166878716e-05 	4.843623593e-06
0.2649514479 	0.00244755889 	-0.0005425548587 	-4.84597713e-07 	0.002988685073 	-1.133019685e-05 	5.69726441e-06
0.2685402304 	0.002278881008 	-0.0004175548445 	-3.094552938e-07 	0.003366275012 	-8.725164243e-06 	6.417055781e-06
0.2726074998 	0.002130551909 	-0.0003042832162 	-2.001122748e-07 	0.003601087205 	-5.630761163e-06 	6.864673082e-06
0.2771758575 	0.001996800543 	-0.0001963057744 	2.83335309e-08 	0.003684325115 	-3.112099172e-06 	7.023347675e-06
0.2823040561 	0.001878588393 	-0.0001029566196 	3.054207095e-07 	0.003650242159 	-1.646279978e-06 	6.958376088e-06
0.28818069 	0.001777277809 	-3.408128644e-05 	4.258304451e-07 	0.003544159479 	-9.142259233e-07 	6.756153016e-06
0.2948278042 	0.001683325687 	5.597556973e-06 	3.166863765e-07 	0.003414825998 	-4.411482915e-07 	6.509607453e-06
0.3039520189 	0.001606048336 	2.587472763e-05 	5.301701623e-08 	0.003295299721 	-9.019008744e-07 	6.281757149e-06
0.3048289965 	0.001598301365 	2.768936164e-05 	2.279913821e-08 	0.003283250789 	-3.668254096e-08 	6.258788537e-06
0.3153909723 	0.00152977692 	4.038452414e-05 	3.407195837e-07 	0.003174265639 	-4.059690925e-07 	6.05103255e-06
0.3267808322 	0.001477611137 	5.058683722e-05 	6.961464356e-07 	0.003095373275 	-7.098497979e-07 	5.900641776e-06
0.3390183242 	0.001437248268 	6.047966699e-05 	1.075705504e-06 	0.003040310883 	-9.594352127e-07 	5.795677554e-06
0.3522090375 	0.001406105282 	7.173484661e-05 	1.489492859e-06 	0.003003943704 	-1.168349733e-06 	5.726351602e-06
0.3664845753 	0.001382538064 	8.518102873e-05 	1.940112805e-06 	0.002983719219 	-1.35110231e-06 	5.687798113e-06
0.3818620373 	0.001365400433 	0.0001016208831 	2.42127027e-06 	0.002977512846 	-1.520593224e-06 	5.675967041e-06
0.3984348019 	0.001353475436 	0.0001216778197 	2.806721888e-06 	0.002982954588 	-1.614298392e-06 	5.686340514e-06
0.4162929946 	0.00134622204 	0.0001458906868 	2.477654713e-06 	0.002998805386 	-1.339454896e-06 	5.716556541e-06
0.4355739439 	0.001342777946 	0.000174821759 	2.118342713e-06 	0.003022823135 	-1.105526468e-06 	5.762341046e-06
0.4563323823 	0.001342721311 	0.0002088599634 	1.741351497e-06 	0.003053286218 	-9.071994705e-07 	5.820412148e-06
0.4786466123 	0.001345531575 	0.0002484060003 	1.362873426e-06 	0.003087774392 	-7.334207362e-07 	5.886156194e-06
0.5026835755 	0.00135097589 	0.0002942562762 	1.000743902e-06 	0.00312363877 	-5.757498724e-07 	5.954523666e-06
0.5284859607 	0.001359331437 	0.00034800299 	6.743150813e-07 	0.003157501928 	-4.311060794e-07 	6.019076256e-06
0.5561749938 	0.001371338291 	0.0004115965132 	4.005163729e-07 	0.003184860231 	-2.972478792e-07 	6.071228786e-06
0.5858631148 	0.001388091212 	0.000486017988 	1.969469639e-07 	0.003199827124 	-1.786185158e-07 	6.099759844e-06
0.6176648077 	0.00141036126 	0.0005691947036 	7.346017815e-08 	0.003195087499 	-8.565990907e-08 	6.090724802e-06
0.6494508416 	0.001438279253 	0.0006544114238 	2.08917714e-08 	0.003166453644 	-3.295797278e-08 	6.036140716e-06
0.6791106475 	0.00147157079 	0.0007348756441 	9.549366713e-09 	0.003116513298 	-1.389288694e-08 	5.940940537e-06
0.7067905922 	0.00151175754 	0.0008063583353 	1.566445578e-08 	0.003049429713 	-9.346246884e-09 	5.813060578e-06
0.7326288344 	0.001562278125 	0.0008641479289 	3.439509972e-08 	0.002968512105 	-1.070118108e-09 	5.658809127e-06
0.7567541468 	0.00162223942 	0.0009141631739 	6.358380925e-08 	0.002888254723 	1.637840042e-08 	5.505816252e-06
0.7792862258 	0.001691247238 	0.0009658600992 	9.593055788e-08 	0.002823731434 	4.159082198e-08 	5.382816929e-06
0.8003336001 	0.001773626087 	0.001022408264 	1.233307916e-07 	0.00278120458 	7.417464673e-08 	5.301748925e-06
0.8199971472 	0.001873975398 	0.001086426724 	1.400438934e-07 	0.002766060073 	1.150083417e-07 	5.272879285e-06
0.8383693647 	0.001996138254 	0.001158874314 	1.441562923e-07 	0.002781892613 	1.643248427e-07 	5.303060507e-06
0.8555361083 	0.002142347959 	0.001240006999 	1.395415617e-07 	0.002829889127 	2.195879461e-07 	5.394555204e-06
0.8715768547 	0.002312326409 	0.00132669155 	1.33983753e-07 	0.002907740049 	2.756760793e-07 	5.542960698e-06
0.8865654396 	0.002502153302 	0.001417604039 	1.348400809e-07 	0.003011514291 	3.270155817e-07 	5.740783245e-06
0.9005706783 	0.002704735883 	0.001512201067 	1.454796663e-07 	0.003134088564 	3.637835288e-07 	5.974443877e-06
0.913656745 	0.002910738046 	0.001597231859 	1.380134722e-07 	0.003262811403 	3.687283384e-07 	6.219825385e-06
0.9258835601 	0.003110546148 	0.001665601146 	9.988886815e-08 	0.003385452968 	3.351245681e-07 	6.453614294e-06
0.9373071183 	0.003295203118 	0.001721913797 	5.57990401e-08 	0.003491110578 	2.715106265e-07 	6.655027066e-06
0.9479797699 	0.003442299711 	0.001753424165 	1.566346883e-08 	0.003563849874 	1.977352164e-07 	6.793688381e-06
0.9550458569 	0.003543180345 	0.001766441628 	-9.602198389e-09 	0.003600709355 	1.336162823e-07 	6.863952796e-06
0.9613025204 	0.003615640971 	0.00177639606 	-1.691673771e-08 	0.003613530613 	9.001492945e-08 	6.888393677e-06
0.9668422226 	0.003668696975 	0.001780601358 	-9.926355789e-09 	0.003607827861 	6.561297638e-08 	6.877522648e-06
0.9717469214 	0.003702886032 	0.001780914823 	1.219281295e-08 	0.003584602411 	6.416313245e-08 	6.833248483e-06
0.9760892456 	0.003715635496 	0.001776586399 	4.852378763e-08 	0.003542593744 	8.753389982e-08 	6.753168289e-06
0.9799335525 	0.003698623546 	0.001763719344 	9.551916573e-08 	0.003475488415 	1.339248243e-07 	6.625246882e-06
0.9833368611 	0.003632024247 	0.001732376853 	1.450621456e-07 	0.003366697167 	1.943745454e-07 	6.417860525e-06
0.9863496834 	0.003471991489 	0.001660475 	1.81216531e-07 	0.003180142996 	2.457343737e-07 	6.062236426e-06
0.9890167622 	0.003130569414 	0.001506788929 	1.733459807e-07 	0.002838762363 	2.425437161e-07 	5.411470056e-06
0.9913777266 	0.002473181558 	0.001177215552 	9.960937139e-08 	0.002235094698 	1.480055904e-07 	4.260711708e-06
0.9929115363 	0.001573662283 	0.000704338169 	1.051669949e-08 	0.001435450072 	2.586220361e-08 	2.736366799e-06
0.9944454907 	0.0006909967772 	0.0002665911063 	-1.513792788e-08 	0.0006443720209 	-1.456233674e-08 	1.228352166e-06
0.9959795897 	0.0001514168928 	3.894803199e-05 	-2.756218156e-09 	0.0001467949682 	-1.313345444e-09 	2.798320089e-07
0.9975138333 	1.099212021e-05 	9.566030101e-07 	1.14497491e-10 	1.093971257e-05 	1.420878468e-09 	2.085413269e-08
0.9990482216 	9.904227029e-08 	8.696531432e-10 	5.210251624e-13 	9.8851331e-08 	4.450621704e-11 	1.884381112e-10
0.9990482216 	9.904227029e-08 	8.696531432e-10 	5.210251624e-13 	9.8851331e-08 	4.450621704e-11 	1.884381112e-10
