0.3982523954 	2.234448896e-07 	-1.359182532e-09 	4.110005994e-12 	2.239545423e-07 	-2.712958737e-10 	4.269196025e-10
0.3982523954 	2.234448896e-07 	-1.359182532e-09 	4.110005994e-12 	2.239545423e-07 	-2.712958737e-10 	4.269196025e-10
0.3994377339 	2.027021263e-05 	-1.295079227e-06 	2.711546727e-09 	2.108308788e-05 	-1.827457317e-08 	4.019022523e-08
0.4006231409 	0.0002367337687 	-5.27087425e-05 	7.539867297e-08 	0.0002665033537 	-1.659963997e-07 	5.080294629e-07
0.4018085007 	0.001021925871 	-0.0003967938297 	3.568703638e-07 	0.001217136341 	-4.119059644e-07 	2.320200151e-06
0.4029936986 	0.002360460688 	-0.001145053692 	6.282163296e-07 	0.002878441397 	-2.657027973e-07 	5.487109324e-06
0.4041786207 	0.003885339291 	-0.002068956749 	5.927597193e-07 	0.004758328154 	5.166397045e-07 	9.07069597e-06
0.4060019699 	0.005227405133 	-0.002836070131 	2.758098797e-07 	0.006350695137 	1.626658555e-06 	1.210619002e-05
0.4080604285 	0.006156187855 	-0.003316774951 	-1.846898596e-07 	0.00737997781 	2.718217521e-06 	1.406828886e-05
0.4103833753 	0.006742892779 	-0.003606648079 	-6.319783073e-07 	0.007966280484 	3.590354175e-06 	1.518594472e-05
0.4130209671 	0.007097179274 	-0.003763109619 	-1.003290921e-06 	0.008251407902 	4.201959842e-06 	1.572947682e-05
0.4160013668 	0.007288349956 	-0.003824168118 	-1.284778118e-06 	0.008325142261 	4.568288934e-06 	1.5870035e-05
0.4193641481 	0.007363121158 	-0.003817695469 	-1.49754138e-06 	0.008249161318 	4.724596806e-06 	1.572519421e-05
0.423157894 	0.007353464618 	-0.003760361363 	-1.644346752e-06 	0.008064055069 	4.695975672e-06 	1.537233025e-05
0.4274660238 	0.007281869403 	-0.003663600693 	-1.736906031e-06 	0.007798330019 	4.514188855e-06 	1.486578445e-05
0.432326175 	0.007164870377 	-0.003535290462 	-1.789758979e-06 	0.007473511862 	4.218706682e-06 	1.424659076e-05
0.4378190673 	0.006999836788 	-0.003384507515 	-1.823875765e-06 	0.007076066167 	3.835345593e-06 	1.34889488e-05
0.4461325613 	0.006771122796 	-0.003186602369 	-1.87291692e-06 	0.006584858822 	3.398192181e-06 	1.255257108e-05
0.455048941 	0.006495141017 	-0.002954735941 	-1.945639672e-06 	0.006049546326 	2.946081489e-06 	1.153211668e-05
0.46460301 	0.006193226377 	-0.002727680573 	-2.047577052e-06 	0.005517414313 	2.525862322e-06 	1.051772517e-05
0.4748437118 	0.005863233078 	-0.002499477562 	-2.15517374e-06 	0.004988108708 	2.109673681e-06 	9.50872157e-06
0.4858216947 	0.005503342107 	-0.002267233531 	-2.252707193e-06 	0.00446028844 	1.711483353e-06 	8.502549441e-06
0.497589651 	0.005112821514 	-0.002028516199 	-2.358153356e-06 	0.003934747104 	1.398835309e-06 	7.500721586e-06
0.5102027201 	0.004693123328 	-0.001781975527 	-2.523123464e-06 	0.003414291404 	1.236139767e-06 	6.508588369e-06
0.5237189542 	0.00425062595 	-0.001523490048 	-2.777665187e-06 	0.002909290622 	1.202488804e-06 	5.545916521e-06
0.5381998521 	0.003802850152 	-0.001248782283 	-3.055134042e-06 	0.002437067883 	1.15372238e-06 	4.645728733e-06
0.5537109596 	0.003382323055 	-0.0009611987216 	-3.220047357e-06 	0.002011243016 	9.123328244e-07 	3.833988185e-06
0.570323245 	0.003035635214 	-0.0006710320681 	-3.240788852e-06 	0.001646476334 	5.062917107e-07 	3.138641508e-06
0.588119929 	0.002815343721 	-0.0003926140176 	-3.224593806e-06 	0.00135736457 	1.246179094e-07 	2.587514131e-06
0.6071750317 	0.002748598854 	-0.0001285117158 	-3.279030308e-06 	0.001181831202 	-2.325320926e-07 	2.252898743e-06
0.6275820376 	0.00282625671 	0.0001229277393 	-3.160735467e-06 	0.001145778327 	-8.372880698e-07 	2.184171944e-06
0.6494344704 	0.003048835035 	0.0003757248013 	-2.851865674e-06 	0.001188517574 	-1.432308012e-06 	2.265644827e-06
0.6728352312 	0.003359889426 	0.0006252779699 	-2.388622239e-06 	0.001321761853 	-1.59678821e-06 	2.519645456e-06
0.6978966025 	0.003698176017 	0.0008463722564 	-1.824066243e-06 	0.001619310648 	-1.679632072e-06 	3.086856159e-06
0.7229590561 	0.004108431444 	0.001081268595 	-1.470856565e-06 	0.00200859518 	-1.742700603e-06 	3.828940673e-06
0.7463631701 	0.00459063253 	0.001354788105 	-1.242170752e-06 	0.002401247933 	-1.737718457e-06 	4.577445952e-06
0.7682214995 	0.00509181281 	0.001636345432 	-1.072662519e-06 	0.002794022765 	-1.70908848e-06 	5.326183948e-06
0.7886381734 	0.005584391511 	0.00191017831 	-9.149905696e-07 	0.00319004598 	-1.630605907e-06 	6.081114266e-06
0.8077096611 	0.006048234365 	0.002168726573 	-7.559367441e-07 	0.003586492999 	-1.500265514e-06 	6.836852469e-06
0.8255255342 	0.006474787057 	0.002409291448 	-6.01072064e-07 	0.003980133182 	-1.336941709e-06 	7.587240065e-06
0.8421687484 	0.006862670413 	0.0026310724 	-5.090061082e-07 	0.004370479694 	-1.126356442e-06 	8.331349008e-06
0.8577166818 	0.00721186107 	0.002829521238 	-5.475782426e-07 	0.004758541604 	-8.59800348e-07 	9.071102866e-06
0.8722413334 	0.007530711046 	0.003010626967 	-5.257380402e-07 	0.005138705538 	-6.511738631e-07 	9.795800985e-06
0.8858098685 	0.00782740989 	0.003183337502 	-4.013084567e-07 	0.005503449556 	-5.235370494e-07 	1.049110446e-05
0.8984849828 	0.008101024596 	0.003345654491 	-2.78497453e-07 	0.005850936446 	-4.066478483e-07 	1.115351105e-05
0.9103252262 	0.00835110168 	0.003496996177 	-1.33867197e-07 	0.006180200922 	-2.917715896e-07 	1.178118066e-05
0.9213853035 	0.008577712696 	0.003638060913 	1.723827799e-08 	0.006490917462 	-1.716155953e-07 	1.237349274e-05
0.9317163424 	0.008780098594 	0.003768900382 	1.630643597e-07 	0.00678228231 	-4.55798603e-08 	1.292891512e-05
0.9413661361 	0.008954525732 	0.003888037241 	2.914383714e-07 	0.007052162789 	8.412196738e-08 	1.344338232e-05
0.9503793651 	0.009093590963 	0.00399588135 	3.841065103e-07 	0.007292717149 	2.067627311e-07 	1.390194579e-05
0.9587978034 	0.009165217958 	0.004058187763 	4.258754962e-07 	0.007475926798 	2.87289732e-07 	1.42511943e-05
0.9643701856 	0.009167900175 	0.004078068658 	4.145523712e-07 	0.007584490594 	3.126514382e-07 	1.445814707e-05
0.9693034113 	0.009119025912 	0.004078923653 	3.452704355e-07 	0.007631056522 	2.746674759e-07 	1.454691467e-05
0.9736706736 	0.009005306666 	0.004045158294 	2.313162044e-07 	0.007617721818 	1.741561744e-07 	1.452149502e-05
0.9775368093 	0.008815349702 	0.003974112356 	7.960289087e-08 	0.007532092276 	1.351863819e-08 	1.435826131e-05
0.9809592473 	0.008533300659 	0.003859731735 	-9.704317965e-08 	0.007358696533 	-1.949492965e-07 	1.402772083e-05
0.983988851 	0.008136575298 	0.003693078627 	-2.789591283e-07 	0.007075102556 	-4.269998831e-07 	1.34871119e-05
0.9866706657 	0.007588682004 	0.003458413447 	-4.398178593e-07 	0.006646240281 	-6.44468389e-07 	1.26695812e-05
0.9890445811 	0.006824569896 	0.00312503923 	-5.429631718e-07 	0.006014905492 	-7.900360222e-07 	1.146608162e-05
0.9911459193 	0.005731733194 	0.002639377959 	-5.308794384e-07 	0.005079950568 	-7.80715348e-07 	9.683797682e-06
0.9930059564 	0.004215992106 	0.001908486168 	-3.70527541e-07 	0.003770929549 	-5.678769807e-07 	7.188439796e-06
0.9942142764 	0.002513225816 	0.001046962094 	-1.706749635e-07 	0.002292502195 	-2.906600295e-07 	4.370146352e-06
0.995422663 	0.001052316312 	0.0003599191512 	-5.481595675e-08 	0.0009887390099 	-1.171176309e-07 	1.884811359e-06
0.996631116 	0.0002307035857 	4.752792268e-05 	-1.188422636e-08 	0.0002254009022 	-3.793993877e-08 	4.296767666e-07
0.9978396355 	1.855204945e-05 	1.165130207e-06 	-6.842281856e-10 	1.848070098e-05 	-6.146811677e-09 	3.522935252e-08
0.9990482216 	2.132679495e-07 	1.311509703e-09 	-1.687086547e-12 	2.128560253e-07 	-1.518954698e-10 	4.057627444e-10
