0 	0.007468887029 	-5.072487785e-16 	-1.843715052e-22 	3.444975434e-29 	1.252157389e-35 	4.551260691e-42
0.001897455474 	0.007460610607 	-5.690310784e-05 	-4.696157937e-10 	0.008750614445 	-2.932364282e-06 	1.668110324e-05
0.003794892374 	0.007459915678 	-0.0001471269134 	6.635149496e-08 	0.008797189504 	-2.945848842e-06 	1.676988825e-05
0.005692310628 	0.007469202716 	-0.000220393143 	1.006434655e-07 	0.008807020722 	-2.910852222e-06 	1.678862928e-05
0.007589710222 	0.007474819944 	-0.0002935001215 	1.330252467e-07 	0.008819132096 	-2.877538148e-06 	1.681171693e-05
0.009487091198 	0.007485243006 	-0.0003767249714 	1.683171741e-07 	0.008829820957 	-2.840531e-06 	1.683209287e-05
0.01240800929 	0.007502657394 	-0.0004832689845 	2.108783241e-07 	0.008846462935 	-2.78304157e-06 	1.68638171e-05
0.01570810102 	0.007529123124 	-0.0006105158317 	2.594752906e-07 	0.008872203846 	-2.723419381e-06 	1.691288643e-05
0.01943658229 	0.00756634216 	-0.0007541809432 	3.109872628e-07 	0.008907933413 	-2.6608088e-06 	1.698099692e-05
0.02367094077 	0.007617596134 	-0.0009161869835 	3.644112579e-07 	0.008956724935 	-2.592941213e-06 	1.707400712e-05
0.02846027043 	0.007686860792 	-0.001098346883 	4.187729668e-07 	0.00902213392 	-2.521910805e-06 	1.719869482e-05
0.03387129226 	0.007778802986 	-0.001302608032 	4.728248227e-07 	0.009108370492 	-2.447562205e-06 	1.73630857e-05
0.03998469373 	0.007899138489 	-0.001531212472 	5.247520978e-07 	0.009220489455 	-2.368499908e-06 	1.75768156e-05
0.04692959072 	0.008054426848 	-0.001786526654 	5.716264713e-07 	0.009364101244 	-2.279631912e-06 	1.785057959e-05
0.05477825357 	0.008251307248 	-0.002069809196 	6.101059461e-07 	0.00954468688 	-2.179565678e-06 	1.8194826e-05
0.06366252918 	0.008521565083 	-0.002411047512 	6.434651812e-07 	0.009789486916 	-2.069579734e-06 	1.866148291e-05
0.07713370694 	0.008897040715 	-0.002832224386 	6.39232994e-07 	0.01012423794 	-1.857827343e-06 	1.92996114e-05
0.09161486344 	0.009345120264 	-0.003286801254 	6.012074242e-07 	0.01051423137 	-1.603467415e-06 	2.004304727e-05
0.1071709409 	0.009816715399 	-0.003731811557 	5.181124083e-07 	0.01090841933 	-1.287627762e-06 	2.079447908e-05
0.1238870721 	0.01027447636 	-0.004150632116 	3.905594206e-07 	0.01126585192 	-9.122010706e-07 	2.147584495e-05
0.1418521582 	0.01066662564 	-0.004519808206 	2.261499491e-07 	0.01153190244 	-4.981673344e-07 	2.198301118e-05
0.1611593353 	0.01092514976 	-0.004807348652 	4.420514956e-08 	0.0116380123 	-9.182430584e-08 	2.218528606e-05
0.1663236545 	0.01093550306 	-0.004848263308 	4.985241101e-06 	0.01160497155 	-1.782017373e-05 	2.212230121e-05
0.1819064892 	0.01096601555 	-0.004971448962 	1.214197248e-07 	0.01150446934 	-2.413542522e-07 	2.193071607e-05
0.2041968131 	0.01069539589 	-0.004961530811 	2.053828582e-07 	0.01104799388 	-3.852028441e-07 	2.106054697e-05
0.2281394077 	0.01003028178 	-0.004726294894 	1.441625466e-07 	0.01020408943 	-2.662908071e-07 	1.945183052e-05
0.2538499191 	0.008943805818 	-0.004235453482 	-7.066475578e-08 	0.008972529905 	6.672449216e-08 	1.710413578e-05
0.2814521981 	0.007536506017 	-0.003527259795 	-3.178641941e-07 	0.007478031205 	3.850171737e-07 	1.425520589e-05
0.3110878587 	0.006062249844 	-0.002738310521 	-4.073617929e-07 	0.005975893227 	4.10821232e-07 	1.13917134e-05
0.3428858929 	0.004796510241 	-0.002031759538 	-2.86978329e-07 	0.00471769804 	1.268793894e-07 	8.993243681e-06
0.3770024796 	0.003846628036 	-0.001482375336 	-7.581566205e-08 	0.003781647582 	-2.04946483e-07 	7.208871345e-06
0.4135933852 	0.003154990992 	-0.001060582484 	1.013841743e-07 	0.003093798307 	-3.724218614e-07 	5.897639449e-06
0.4528269635 	0.00266094719 	-0.0007003095022 	2.034623534e-07 	0.002590757112 	-3.58224456e-07 	4.93870312e-06
0.4948837842 	0.002385451985 	-0.0003498391399 	2.514807764e-07 	0.002295822314 	-2.489701671e-07 	4.376475421e-06
0.5369652409 	0.002356220995 	9.683229473e-06 	2.685683388e-07 	0.002241651957 	-1.219603565e-07 	4.273211665e-06
0.5762689992 	0.002527978413 	0.0003663761262 	2.662857525e-07 	0.002389462166 	-9.259516727e-09 	4.554979005e-06
0.6129728545 	0.00283176746 	0.0007059719628 	2.623729606e-07 	0.002673641748 	8.531197155e-08 	5.096704271e-06
0.647245611 	0.003218540189 	0.001026249888 	2.731570409e-07 	0.003045099418 	1.715744791e-07 	5.804805833e-06
0.6792465651 	0.003657066783 	0.001330837585 	3.048388827e-07 	0.003471406695 	2.654589046e-07 	6.617465988e-06
0.7091254687 	0.004129400672 	0.001625112766 	3.522271934e-07 	0.00393365242 	3.785741273e-07 	7.498634814e-06
0.7370223283 	0.004625678746 	0.001912964285 	4.009700652e-07 	0.004421934666 	5.097853176e-07 	8.429436487e-06
0.7630684005 	0.005138554578 	0.002194805017 	4.317690551e-07 	0.004929849914 	6.417700107e-07 	9.397664117e-06
0.7873862966 	0.005658503208 	0.002466890379 	4.248793783e-07 	0.005449496003 	7.422934921e-07 	1.038825399e-05
0.8100905866 	0.006170660792 	0.002721586423 	3.647867189e-07 	0.005967865711 	7.7088282e-07 	1.137641073e-05
0.8312882979 	0.006653635746 	0.002948319581 	2.441650535e-07 	0.006465169557 	6.901139946e-07 	1.232441008e-05
0.8510793781 	0.007080468451 	0.003134954592 	6.619138287e-08 	0.006915341889 	4.78299179e-07 	1.318256366e-05
0.8695571553 	0.007421519765 	0.003269400619 	-1.550208694e-07 	0.007288551705 	1.392350391e-07 	1.38940053e-05
0.8868087717 	0.007648631397 	0.003341302168 	-3.956833292e-07 	0.00755498156 	-2.94576632e-07 	1.440189465e-05
0.9029155904 	0.007739269979 	0.003343602815 	-6.252593868e-07 	0.007689080829 	-7.66713154e-07 	1.465752513e-05
0.9179535776 	0.007679466416 	0.003275554055 	-8.108989789e-07 	0.007672513537 	-1.209019893e-06 	1.462594327e-05
0.931993659 	0.00748317169 	0.003144076996 	-9.227932372e-07 	0.007511493932 	-1.535567332e-06 	1.431899515e-05
0.9412842046 	0.007220297184 	0.002990214083 	-9.553983446e-07 	0.007270833617 	-1.712767708e-06 	1.38602297e-05
0.9495071555 	0.006928486142 	0.002836482309 	-9.305400831e-07 	0.006990663676 	-1.782520686e-06 	1.332614792e-05
0.9567851912 	0.006601852299 	0.002675256148 	-8.666862316e-07 	0.006667713762 	-1.774048994e-06 	1.271051563e-05
0.9632268937 	0.00624919909 	0.002513192232 	-7.741174614e-07 	0.00631200772 	-1.700013366e-06 	1.203244105e-05
0.9689283675 	0.005874523216 	0.002353671719 	-6.630066306e-07 	0.005929219655 	-1.571756193e-06 	1.13027406e-05
0.973974674 	0.005476460593 	0.002197080044 	-5.429051542e-07 	0.005519732605 	-1.398577183e-06 	1.052214448e-05
0.9784410995 	0.005046389042 	0.002039481864 	-4.226668226e-07 	0.005076126024 	-1.188164336e-06 	9.676507037e-06
0.9823942794 	0.004561814271 	0.001868700515 	-3.101734268e-07 	0.004578742668 	-9.489757194e-07 	8.72835612e-06
0.9858931917 	0.003971855819 	0.001667100964 	-2.135130341e-07 	0.003980273492 	-6.946773325e-07 	7.587507536e-06
0.9889900372 	0.003188501287 	0.001353500229 	-1.358594458e-07 	0.003192117839 	-4.625230903e-07 	6.085063804e-06
0.991001674 	0.002209962954 	0.0009074298439 	-7.598262017e-08 	0.002210065748 	-2.782293876e-07 	4.212999572e-06
0.9930133109 	0.001083754911 	0.0003959031903 	-2.869757606e-08 	0.001082523682 	-1.263732919e-07 	2.063591009e-06
0.9950249478 	0.0002586767024 	6.518709465e-05 	-3.48236273e-09 	0.0002581765051 	-2.9699833e-08 	4.921561751e-07
0.9970365847 	1.734653549e-05 	1.394001591e-06 	-3.150713531e-11 	1.731402508e-05 	-2.006173764e-09 	3.300534399e-08
0.9990482216 	1.230843769e-07 	8.232474562e-10 	8.933208524e-15 	1.228511472e-07 	-1.399918636e-11 	2.341884313e-10
0.9990482216 	1.230843769e-07 	8.232474562e-10 	8.933208524e-15 	1.228511472e-07 	-1.399918636e-11 	2.341884313e-10
