1.218267812e-35 	0.007071255226 	-4.918280981e-16 	5.056133244e-19 	1.496985703e-15 	-6.535980732e-17 	2.853670816e-18
0.00190503019 	0.007064356767 	-6.340695286e-05 	1.4619467e-08 	0.00819089882 	-1.809316208e-06 	1.561412969e-05
0.003810043283 	0.00706430072 	-0.0001513223185 	6.019011621e-08 	0.008232615294 	-1.811025572e-06 	1.569365289e-05
0.005715039211 	0.007073108389 	-0.0002262110041 	8.983449472e-08 	0.008240635142 	-1.789877021e-06 	1.570894095e-05
0.007620017961 	0.007079092786 	-0.0003010933698 	1.182433039e-07 	0.008250189772 	-1.769655334e-06 	1.572715473e-05
0.009524979574 	0.007089790316 	-0.0003864303861 	1.495394601e-07 	0.008257816499 	-1.748192197e-06 	1.574169339e-05
0.01245757067 	0.007107585436 	-0.0004956801123 	1.873431569e-07 	0.008269548332 	-1.715016284e-06 	1.576405752e-05
0.01577085506 	0.007134540677 	-0.0006261040091 	2.303923246e-07 	0.00828785055 	-1.680920846e-06 	1.579894664e-05
0.01951424692 	0.007172393873 	-0.0007732921135 	2.759900872e-07 	0.008313206561 	-1.645512896e-06 	1.584728224e-05
0.02376371923 	0.007224437669 	-0.0009392243897 	3.233302821e-07 	0.008347824071 	-1.606957622e-06 	1.591327284e-05
0.02856971015 	0.0072946595 	-0.001125766358 	3.715737542e-07 	0.008394267089 	-1.567263105e-06 	1.600180614e-05
0.03399956521 	0.00738775714 	-0.001334869609 	4.195337519e-07 	0.008455600825 	-1.526521921e-06 	1.611872529e-05
0.04013425608 	0.007509445788 	-0.00156878083 	4.656271078e-07 	0.008535538241 	-1.48394419e-06 	1.627110822e-05
0.04710020392 	0.007666300542 	-0.001829856852 	5.07242939e-07 	0.008638256348 	-1.436074434e-06 	1.646691748e-05
0.05497248355 	0.007865037372 	-0.002119439825 	5.41617451e-07 	0.008767987974 	-1.382522661e-06 	1.671422201e-05
0.06388212204 	0.008137896442 	-0.002468102551 	5.715328953e-07 	0.008944862717 	-1.324926902e-06 	1.705139443e-05
0.07738804933 	0.008518099468 	-0.002898550484 	5.694668414e-07 	0.009189189034 	-1.206653534e-06 	1.75171483e-05
0.09190225286 	0.00897533698 	-0.003364064504 	5.392068887e-07 	0.009478054494 	-1.061917452e-06 	1.806780616e-05
0.1074900975 	0.009464851866 	-0.003822313659 	4.711785437e-07 	0.009776297875 	-8.761124969e-07 	1.863634093e-05
0.1242359314 	0.009956565221 	-0.004259092924 	3.656104287e-07 	0.01005619296 	-6.471706114e-07 	1.916989876e-05
0.1422279963 	0.01040896676 	-0.004654911856 	2.270900912e-07 	0.01027990493 	-3.835398738e-07 	1.959635595e-05
0.1615588878 	0.0107671427 	-0.004983621073 	6.734430192e-08 	0.01039878883 	-1.08194229e-07 	1.98229817e-05
0.1701363888 	0.01084745167 	-0.00507752584 	7.523238233e-06 	0.01038030614 	-2.502583578e-05 	1.978774855e-05
0.1823260612 	0.01096141497 	-0.005210903514 	9.243783509e-08 	0.01035377364 	-1.417803089e-07 	1.973717024e-05
0.2046323802 	0.01090735052 	-0.005293318754 	2.111271271e-07 	0.01007873271 	-2.994491525e-07 	1.921286579e-05
0.2285867053 	0.01051345797 	-0.005181114415 	2.349221227e-07 	0.009508830915 	-2.942115888e-07 	1.812647457e-05
0.254304522 	0.009693155465 	-0.004822257806 	1.124686138e-07 	0.008606187919 	-9.506211589e-08 	1.640578614e-05
0.2819095097 	0.008444012575 	-0.00419910686 	-1.390181358e-07 	0.007392596971 	2.316925347e-07 	1.409234449e-05
0.3115423872 	0.00691638628 	-0.003380341495 	-3.782664638e-07 	0.006005518551 	4.62543206e-07 	1.144818751e-05
0.3433329903 	0.0053877471 	-0.002524305136 	-4.282994982e-07 	0.004695974017 	3.887462888e-07 	8.951831655e-06
0.37743697 	0.004128344159 	-0.001788135822 	-2.77729153e-07 	0.003661579804 	1.007747088e-07 	6.979988791e-06
0.414010442 	0.003224831637 	-0.001216568903 	-8.205978162e-08 	0.00292982787 	-1.478156285e-07 	5.585066223e-06
0.4532220137 	0.002628673403 	-0.0007566727381 	5.271795335e-08 	0.002448374942 	-2.345720779e-07 	4.66728313e-06
0.4952525067 	0.002320039038 	-0.0003376486379 	1.173765277e-07 	0.002201832272 	-2.051147862e-07 	4.197304279e-06
0.5373056793 	0.002304087075 	7.702783274e-05 	1.413089051e-07 	0.002186872093 	-1.343713173e-07 	4.168786018e-06
0.5765818555 	0.002527103921 	0.0004832949124 	1.510542049e-07 	0.002352231808 	-5.91612706e-08 	4.484007596e-06
0.6132593029 	0.00290668983 	0.0008722617637 	1.667219295e-07 	0.002638274485 	1.652506887e-08 	5.029284439e-06
0.6475070436 	0.003381583882 	0.00124540534 	1.976574384e-07 	0.00300613529 	9.929431068e-08 	5.730529375e-06
0.679484443 	0.00391488406 	0.001606785133 	2.406425629e-07 	0.003430909472 	1.953449819e-07 	6.540267025e-06
0.7093412355 	0.004485021455 	0.001959098244 	2.823127439e-07 	0.003896580244 	3.02260934e-07 	7.427964943e-06
0.7372173963 	0.005076071403 	0.0023012506 	3.042231304e-07 	0.004391243148 	4.045206082e-07 	8.370929922e-06
0.7632441099 	0.005671013018 	0.002627702682 	2.890449908e-07 	0.004902314781 	4.754440309e-07 	9.345174501e-06
0.7875439148 	0.00624855611 	0.002929220638 	2.257022339e-07 	0.005413221191 	4.847448949e-07 	1.031910412e-05
0.8102313055 	0.006782980815 	0.003194368431 	1.120968912e-07 	0.005902405474 	4.086246466e-07 	1.125162532e-05
0.8314132346 	0.007246180951 	0.003411224357 	-4.46185212e-08 	0.006344590133 	2.383650488e-07 	1.209455218e-05
0.8511895776 	0.007611004541 	0.003569021317 	-2.293793509e-07 	0.006713607161 	-1.553129826e-08 	1.27980012e-05
0.8696535944 	0.007854948362 	0.003659613609 	-4.214162697e-07 	0.006985819996 	-3.246949792e-07 	1.331691452e-05
0.8868923629 	0.007963280622 	0.003678675297 	-5.971561997e-07 	0.007143039462 	-6.489718667e-07 	1.361661852e-05
0.9029871861 	0.007930496075 	0.003626449889 	-7.337232409e-07 	0.007174453922 	-9.44951058e-07 	1.367650321e-05
0.9180139737 	0.007760459415 	0.003509976143 	-8.120625059e-07 	0.007076020561 	-1.174628405e-06 	1.348886187e-05
0.9320435986 	0.007483423748 	0.003341931174 	-8.269122162e-07 	0.006869051628 	-1.304281749e-06 	1.309432156e-05
0.941327225 	0.007175853549 	0.003167650189 	-7.918124677e-07 	0.006616772778 	-1.340678734e-06 	1.261340795e-05
0.9495440518 	0.006866000975 	0.003006856859 	-7.248191882e-07 	0.006346180295 	-1.318083279e-06 	1.209758347e-05
0.9568166671 	0.006538627005 	0.002846086502 	-6.380219539e-07 	0.006049202264 	-1.251299051e-06 	1.15314608e-05
0.963253572 	0.006199603975 	0.002690093398 	-5.398867303e-07 	0.005732290412 	-1.149159217e-06 	1.092733873e-05
0.9689507996 	0.005850105241 	0.002540053499 	-4.380100136e-07 	0.005398401677 	-1.018826888e-06 	1.0290854e-05
0.9739933478 	0.005486248559 	0.002393967601 	-3.388828739e-07 	0.00504591888 	-8.663184728e-07 	9.618923825e-06
0.9784564469 	0.005096609482 	0.002245097118 	-2.47882303e-07 	0.004665937071 	-6.975986747e-07 	8.894572888e-06
0.9824066826 	0.004653991727 	0.002077788909 	-1.689516711e-07 	0.004237740658 	-5.207571932e-07 	8.078311514e-06
0.985902989 	0.004101722472 	0.001870246005 	-1.057687505e-07 	0.003711386415 	-3.484021582e-07 	7.074934033e-06
0.9889975281 	0.003322929699 	0.001528540261 	-5.837887588e-08 	0.002998324815 	-2.070620806e-07 	5.715640439e-06
0.9910076668 	0.002305012749 	0.001029317936 	-2.529323062e-08 	0.002091553303 	-1.09313622e-07 	3.987081912e-06
0.9930178055 	0.001119966482 	0.0004505573696 	-6.020239868e-09 	0.001033793928 	-4.328151227e-08 	1.970698554e-06
0.9950279442 	0.0002604945223 	7.457789244e-05 	2.472646239e-10 	0.0002501377458 	-8.980458336e-09 	4.768320658e-07
0.9970380829 	1.705857069e-05 	1.605583694e-06 	3.252272661e-11 	1.696014926e-05 	-5.782768184e-10 	3.233075832e-08
0.9990482216 	1.207858288e-07 	9.542278306e-10 	3.274328446e-14 	1.205537024e-07 	-3.850789832e-12 	2.298088629e-10
0.9990482216 	1.207858288e-07 	9.542278306e-10 	3.274328446e-14 	1.205537024e-07 	-3.850789832e-12 	2.298088629e-10
