0.4327753378 	3.017458621e-07 	-2.450671866e-09 	5.803559691e-12 	3.022053747e-07 	-3.124592224e-10 	5.760874378e-10
0.4327753378 	3.017458621e-07 	-2.450671866e-09 	5.803559691e-12 	3.022053747e-07 	-3.124592224e-10 	5.760874378e-10
0.4338772721 	2.568375459e-05 	-1.97896108e-06 	2.936779835e-09 	2.640518795e-05 	-1.529700485e-08 	5.033562718e-08
0.4349792558 	0.0002949837908 	-7.16540879e-05 	6.413638915e-08 	0.0003165846809 	-8.257123027e-08 	6.034983919e-07
0.4360812236 	0.001252980865 	-0.0004935869628 	2.45085917e-07 	0.001370014602 	2.362694731e-08 	2.611628607e-06
0.4371831111 	0.002829639903 	-0.001346166031 	3.58837024e-07 	0.003105247549 	6.444105082e-07 	5.919464888e-06
0.438284854 	0.004541899984 	-0.00233443599 	2.553400361e-07 	0.004968994764 	1.678322537e-06 	9.47228508e-06
0.439980521 	0.005961149787 	-0.003105920529 	-8.828747704e-09 	0.006483298537 	2.707290073e-06 	1.235896895e-05
0.4418954567 	0.006866469445 	-0.003546339919 	-3.336974886e-07 	0.007413141609 	3.467461833e-06 	1.413150828e-05
0.4440574903 	0.007391749388 	-0.003786856572 	-6.068570221e-07 	0.007916042349 	3.904235514e-06 	1.509017687e-05
0.4465121601 	0.007676640088 	-0.003899261967 	-7.92681971e-07 	0.008147380817 	4.042138036e-06 	1.553117228e-05
0.4492868824 	0.00780336211 	-0.00392655196 	-8.838433837e-07 	0.008197959739 	3.930759064e-06 	1.562758977e-05
0.4524193417 	0.00782232224 	-0.003895332489 	-8.962811338e-07 	0.008125238723 	3.629897018e-06 	1.54889633e-05
0.4559554006 	0.007765273099 	-0.003821841781 	-8.460474846e-07 	0.007965038339 	3.196376588e-06 	1.518357684e-05
0.4599707967 	0.007652105715 	-0.003715781221 	-7.498852535e-07 	0.007739888716 	2.683144093e-06 	1.475437908e-05
0.464503981 	0.007495559764 	-0.003582400706 	-6.296949476e-07 	0.007464464288 	2.142596128e-06 	1.422934357e-05
0.4696303012 	0.007287023733 	-0.003428675598 	-5.00897411e-07 	0.007120621188 	1.595010247e-06 	1.357388306e-05
0.477393966 	0.007002452724 	-0.00322566303 	-3.696148349e-07 	0.006683622769 	1.034815608e-06 	1.274084261e-05
0.4857273663 	0.006660521606 	-0.002983234356 	-2.795608247e-07 	0.006192356192 	5.777636388e-07 	1.180435198e-05
0.494665021 	0.00628994558 	-0.002740861703 	-2.352639673e-07 	0.005687611951 	2.448822164e-07 	1.084216917e-05
0.5042536707 	0.005890262635 	-0.002493232977 	-2.195331678e-07 	0.00517156747 	-9.207687702e-10 	9.858444961e-06
0.5145418952 	0.005461510496 	-0.002238606404 	-2.162696357e-07 	0.004645623284 	-1.842782111e-07 	8.855849164e-06
0.5255804116 	0.00500529069 	-0.001975594113 	-2.200083178e-07 	0.00411316902 	-3.094711803e-07 	7.840843347e-06
0.5374224194 	0.004526599669 	-0.001703281332 	-2.362643776e-07 	0.003580802823 	-3.701828726e-07 	6.826005413e-06
0.5501239917 	0.00403666865 	-0.001418774814 	-2.709795828e-07 	0.003063002343 	-3.720227608e-07 	5.838933784e-06
0.5637445137 	0.003557465397 	-0.00112043343 	-3.182846544e-07 	0.002580934868 	-3.524635901e-07 	4.919979193e-06
0.5783471685 	0.003123401137 	-0.0008126328015 	-3.554654667e-07 	0.002153783651 	-3.569847992e-07 	4.105710253e-06
0.5940000683 	0.002780955564 	-0.0005034817698 	-3.74260603e-07 	0.001797289006 	-3.989206213e-07 	3.426132376e-06
0.6107820558 	0.00258074009 	-0.0002012228921 	-4.171393934e-07 	0.00152562083 	-4.480257721e-07 	2.908257326e-06
0.6287644862 	0.002559344384 	9.913119898e-05 	-5.075093576e-07 	0.001349421173 	-4.799855409e-07 	2.572371807e-06
0.6480354667 	0.002673671507 	0.0003682771112 	-5.648868548e-07 	0.001322645415 	-5.745308332e-07 	2.521329771e-06
0.6686833505 	0.00290145345 	0.0006161836989 	-5.416239774e-07 	0.001411373571 	-7.707036308e-07 	2.690470298e-06
0.6908046552 	0.003234597953 	0.0008805186756 	-5.699936208e-07 	0.00156223074 	-7.702583133e-07 	2.97804599e-06
0.7145040182 	0.003591106383 	0.001103161149 	-5.523207829e-07 	0.001848837466 	-6.601422831e-07 	3.524398068e-06
0.7382093303 	0.003984547825 	0.001306722035 	-4.34383614e-07 	0.002234499871 	-6.665118494e-07 	4.259577801e-06
0.7603476902 	0.004441043293 	0.001547149635 	-3.717911728e-07 	0.002629258718 	-6.822160386e-07 	5.012097882e-06
0.7810231972 	0.004919506671 	0.001801014285 	-3.407449398e-07 	0.00302346391 	-7.167936399e-07 	5.76356254e-06
0.8003330468 	0.00539463853 	0.002053290687 	-3.156022371e-07 	0.003415918732 	-7.481529951e-07 	6.51169051e-06
0.8183678884 	0.005846705619 	0.002294027665 	-2.872538224e-07 	0.003804352938 	-7.662154943e-07 	7.252154065e-06
0.8352122747 	0.006267684401 	0.002519087461 	-2.544115285e-07 	0.004186680466 	-7.688480066e-07 	7.980976595e-06
0.8509448023 	0.006656502893 	0.002728596623 	-2.172213973e-07 	0.004562127554 	-7.548834228e-07 	8.696683096e-06
0.8656389188 	0.007011895798 	0.002919359456 	-1.902319288e-07 	0.004931109905 	-7.160214332e-07 	9.400066009e-06
0.8793630728 	0.007334577815 	0.003088797239 	-1.621060598e-07 	0.005292023567 	-6.604381456e-07 	1.008806776e-05
0.8921811598 	0.007630165474 	0.003243306598 	-1.195280867e-07 	0.005638685377 	-6.044762585e-07 	1.074890152e-05
0.9041528421 	0.007900921104 	0.003386243785 	-7.055307896e-08 	0.005966477212 	-5.465376016e-07 	1.137376386e-05
0.9153338379 	0.008146090345 	0.003516930029 	-8.395261956e-09 	0.00627410973 	-4.810107429e-07 	1.196019694e-05
0.9257761958 	0.008366151259 	0.003637028465 	6.699965141e-08 	0.006561094094 	-4.010480755e-07 	1.25072689e-05
0.9355285441 	0.008561114077 	0.00374750534 	1.52798799e-07 	0.006826876894 	-3.013349862e-07 	1.301392479e-05
0.9446363202 	0.008728932013 	0.003848206736 	2.421902036e-07 	0.007070193559 	-1.802934372e-07 	1.347775398e-05
0.9531419822 	0.008865491668 	0.003941861638 	3.218745438e-07 	0.007285227496 	-4.457787738e-08 	1.388766843e-05
0.9610852055 	0.008943258137 	0.00399628825 	3.750503401e-07 	0.007449279606 	7.487775043e-08 	1.420039735e-05
0.9663424224 	0.008961718182 	0.004016253807 	3.891825415e-07 	0.007548885264 	1.537710008e-07 	1.439027342e-05
0.9709962279 	0.008938314169 	0.004025140003 	3.587768458e-07 	0.007596305443 	1.804787757e-07 	1.448066946e-05
0.9751158091 	0.00886113728 	0.004006068181 	2.889229687e-07 	0.007593561353 	1.535916863e-07 	1.447543846e-05
0.9787624354 	0.008718153885 	0.003955760361 	1.80454408e-07 	0.007528243454 	6.718517343e-08 	1.435092439e-05
0.9819903612 	0.008491262121 	0.003866682187 	3.943692603e-08 	0.007383529385 	-7.653371472e-08 	1.407505915e-05
0.9848476266 	0.008153607108 	0.003727356463 	-1.218529648e-07 	0.007133883176 	-2.647207153e-07 	1.359916409e-05
0.9873767673 	0.007661864742 	0.003518328085 	-2.835405965e-07 	0.006738884886 	-4.703594594e-07 	1.284618757e-05
0.9896154434 	0.00694050178 	0.003203370526 	-4.143939441e-07 	0.006132746781 	-6.458558251e-07 	1.169071987e-05
0.9915969973 	0.005861476769 	0.002719979425 	-4.640020907e-07 	0.005201263971 	-7.145377138e-07 	9.915054745e-06
0.9933509477 	0.004318931745 	0.001968576131 	-3.829394935e-07 	0.003864448274 	-6.036452755e-07 	7.366712478e-06
0.9944903227 	0.002571171459 	0.001078033539 	-2.29551207e-07 	0.002345311314 	-3.877012644e-07 	4.47081521e-06
0.9956297375 	0.001077571696 	0.0003714172262 	-9.634874402e-08 	0.001012271134 	-1.905906547e-07 	1.929670127e-06
0.9967691923 	0.0002384823151 	5.001562154e-05 	-2.018144554e-08 	0.0002328895146 	-5.853446545e-08 	4.439521431e-07
0.997908687 	1.966174618e-05 	1.295450325e-06 	-9.344927473e-10 	1.958313317e-05 	-7.600655855e-09 	3.733089468e-08
0.9990482216 	2.393067016e-07 	1.623985191e-09 	-2.111948135e-12 	2.388442142e-07 	-1.645570429e-10 	4.553034556e-10
