0.4709558481 	4.311617434e-07 	-4.41444607e-09 	3.540792673e-13 	4.303239678e-07 	-2.405757008e-11 	8.20317085e-10
0.4720092239 	3.549039865e-05 	-3.190880088e-06 	2.520825692e-10 	3.52964575e-05 	-1.970476089e-09 	6.728485814e-08
0.4730625996 	0.000411680984 	-0.0001049699719 	7.491097522e-09 	0.0003984368782 	-2.154404879e-08 	7.595314296e-07
0.4741159754 	0.001726375913 	-0.0006564096125 	3.713836468e-08 	0.001605828782 	-7.569379833e-08 	3.061155976e-06
0.4751693511 	0.003780387829 	-0.001667821524 	7.276270729e-08 	0.003431982376 	-1.32958082e-07 	6.542312278e-06
0.4762227269 	0.005858182953 	-0.002741041818 	9.009272708e-08 	0.005250191069 	-1.613653448e-07 	1.000832339e-05
0.4778443634 	0.007461839937 	-0.003525681695 	9.117230393e-08 	0.006667211988 	-1.634791873e-07 	1.270955911e-05
0.4796765386 	0.008399979058 	-0.003942815601 	8.261163702e-08 	0.007511133523 	-1.457278988e-07 	1.431830811e-05
0.4817465869 	0.008895508956 	-0.004161187057 	6.98454655e-08 	0.007957609905 	-1.157491227e-07 	1.516941618e-05
0.4840853915 	0.009116352534 	-0.004256484292 	5.235693254e-08 	0.008156241892 	-7.453812175e-08 	1.554806396e-05
0.4867278453 	0.009153225368 	-0.004271688677 	2.945297284e-08 	0.00818511237 	-2.135956481e-08 	1.560309911e-05
0.4897133715 	0.009052380784 	-0.004227834899 	2.340978763e-10 	0.00808678457 	4.524763068e-08 	1.5415659e-05
0.4930865115 	0.008837207417 	-0.004134819697 	-3.652287529e-08 	0.007883121263 	1.272000523e-07 	1.502742013e-05
0.4968975894 	0.008518437255 	-0.003996495648 	-8.229068553e-08 	0.007584270015 	2.26484537e-07 	1.445772659e-05
0.5012034633 	0.00809899609 	-0.003811925264 	-1.382407064e-07 	0.007194191806 	3.44748784e-07 	1.37141291e-05
0.506068373 	0.007532025438 	-0.003569275147 	-2.142858613e-07 	0.006666062159 	4.949906308e-07 	1.270736721e-05
0.5134203412 	0.006750602489 	-0.003223138555 	-3.116960187e-07 	0.005947283868 	6.82808916e-07 	1.133717602e-05
0.5212948542 	0.005819802407 	-0.002792916185 	-4.23335631e-07 	0.005104233442 	8.710964587e-07 	9.730087589e-06
0.529729052 	0.004847288824 	-0.002319806053 	-5.579731691e-07 	0.004240636348 	9.909237631e-07 	8.083831503e-06
0.5387627144 	0.003903497503 	-0.001810433153 	-6.617102366e-07 	0.003432813332 	9.862339474e-07 	6.543896312e-06
0.5484384488 	0.003083628898 	-0.001316980257 	-6.635783586e-07 	0.002759212712 	8.345633073e-07 	5.259826312e-06
0.5588018907 	0.002471928402 	-0.0008891184857 	-5.832935449e-07 	0.002281033016 	5.593468118e-07 	4.348282908e-06
0.5699019192 	0.002098096595 	-0.0005493839805 	-4.691171783e-07 	0.002009434707 	2.705882522e-07 	3.830541045e-06
0.5817908876 	0.001918887492 	-0.0002798781461 	-3.787178444e-07 	0.001897064041 	6.581407644e-08 	3.616331324e-06
0.5945248701 	0.001862367202 	-5.058062304e-05 	-3.206501402e-07 	0.001877913196 	-4.657139775e-08 	3.579824491e-06
0.6081639266 	0.001872775209 	0.0001474642374 	-2.681646127e-07 	0.001902308729 	-9.639207198e-08 	3.626329157e-06
0.6227723857 	0.001918468033 	0.0003206554319 	-2.246420627e-07 	0.001945873332 	-1.156369765e-07 	3.709375399e-06
0.638419148 	0.001983647519 	0.0004753623623 	-1.87351079e-07 	0.001998310424 	-1.183246926e-07 	3.809335071e-06
0.6551780116 	0.002060004013 	0.0006151181885 	-1.523573956e-07 	0.002054961992 	-1.100416758e-07 	3.917328704e-06
0.6731280194 	0.002143105256 	0.0007421954972 	-1.176512122e-07 	0.002113743494 	-9.311147406e-08 	4.029382583e-06
0.6923538328 	0.002231240165 	0.0008587004132 	-8.210805545e-08 	0.002174302966 	-6.862235851e-08 	4.14482577e-06
0.7129461301 	0.002325358016 	0.0009673140675 	-4.499387591e-08 	0.002238079444 	-3.708354401e-08 	4.266401463e-06
0.7350020349 	0.002427757372 	0.001070071361 	-6.249117471e-09 	0.002307663839 	9.634731749e-10 	4.399048659e-06
0.7570579485 	0.002539462296 	0.001166999218 	3.285565314e-08 	0.002385130527 	4.416796423e-08 	4.546721696e-06
0.7776502527 	0.002661696902 	0.001259437619 	7.102595211e-08 	0.002472594424 	9.177027318e-08 	4.713452193e-06
0.7968760713 	0.002798553769 	0.001351405754 	1.077610657e-07 	0.002573951834 	1.449723729e-07 	4.906667588e-06
0.814826083 	0.002955259995 	0.001446728127 	1.406796565e-07 	0.002694114763 	2.056170375e-07 	5.135731529e-06
0.831584949 	0.003137486154 	0.001550059663 	1.806710458e-07 	0.002837653674 	2.725455684e-07 	5.409356588e-06
0.8472317127 	0.003350826095 	0.001662084933 	2.14260428e-07 	0.003009594911 	3.48539535e-07 	5.737124373e-06
0.8618401721 	0.003602208231 	0.001784315401 	2.500039323e-07 	0.003216058167 	4.383062936e-07 	6.130700724e-06
0.8754792281 	0.00389957822 	0.00192568303 	3.051496202e-07 	0.003463060282 	5.37940639e-07 	6.601555405e-06
0.8882132094 	0.004245701896 	0.00209129819 	3.566971965e-07 	0.003754083578 	6.332840717e-07 	7.156326693e-06
0.9001021759 	0.004635648412 	0.002279463582 	3.945802772e-07 	0.004086961039 	7.054658201e-07 	7.790883652e-06
0.9112022019 	0.005058657128 	0.002485246154 	4.123673601e-07 	0.004453229975 	7.415836752e-07 	8.489094044e-06
0.9215656407 	0.005500226225 	0.002695039352 	3.759018815e-07 	0.004842302095 	7.456381691e-07 	9.230773642e-06
0.9312413717 	0.005946662413 	0.002892814972 	3.270914964e-07 	0.005245130729 	7.210465168e-07 	9.998676978e-06
0.9402750304 	0.006389492863 	0.003080884877 	2.957496877e-07 	0.005650841043 	6.659377186e-07 	1.07720736e-05
0.9487092242 	0.006815898391 	0.003260508334 	2.489703406e-07 	0.006044985907 	5.85749931e-07 	1.152342326e-05
0.9565837329 	0.007208177751 	0.003426603519 	1.999992515e-07 	0.006409523134 	4.881281869e-07 	1.221833253e-05
0.9639356968 	0.007516821195 	0.003544520812 	1.542353628e-07 	0.006703460791 	3.907161524e-07 	1.27786594e-05
0.9688006083 	0.007720585085 	0.00361488547 	1.186515851e-07 	0.006902009692 	3.104965527e-07 	1.315714879e-05
0.9731064834 	0.007852875081 	0.003666105314 	9.219934144e-08 	0.007029289355 	2.458231968e-07 	1.33997792e-05
0.976917562 	0.00792407084 	0.003690683896 	7.05285078e-08 	0.007100197187 	1.907086767e-07 	1.353494924e-05
0.9802907021 	0.00792734494 	0.003687658506 	5.318044206e-08 	0.007107566581 	1.448998265e-07 	1.354899735e-05
0.9832762282 	0.007848797591 	0.003651169368 	3.946122225e-08 	0.007038786594 	1.076419583e-07 	1.341788358e-05
0.9859186816 	0.007663174912 	0.003569812071 	2.874847426e-08 	0.006870754578 	7.795541247e-08 	1.309756785e-05
0.9882574856 	0.007324453302 	0.003421848431 	2.05194585e-08 	0.006562118539 	5.482866378e-08 	1.250922178e-05
0.990327533 	0.006747494879 	0.003165152772 	1.423921537e-08 	0.006040322989 	3.729676832e-08 	1.151453444e-05
0.9921597073 	0.005784307707 	0.002725098634 	9.583958423e-09 	0.005175756732 	2.440575136e-08 	9.866430858e-06
0.9937813429 	0.004303527346 	0.001989017299 	6.001389234e-09 	0.003869248868 	1.532453595e-08 	7.375863744e-06
0.9948347186 	0.002576628139 	0.001096641686 	3.077095814e-09 	0.002355720075 	8.765739906e-09 	4.490657202e-06
0.9958880943 	0.001089805931 	0.0003840406503 	1.027346961e-09 	0.001024218615 	3.735473693e-09 	1.952445347e-06
0.9969414701 	0.0002459971347 	5.419407574e-05 	1.323826361e-10 	0.0002400116929 	8.701175238e-10 	4.575289945e-07
0.9979948458 	2.101873007e-05 	1.54705914e-06 	3.407281786e-12 	2.092906154e-05 	7.579455808e-11 	3.989660823e-08
0.9990482216 	2.799913554e-07 	2.32152803e-09 	4.652400998e-15 	2.794511807e-07 	1.012707771e-12 	5.327116197e-10
0.9990482216 	2.799913554e-07 	2.32152803e-09 	4.652400998e-15 	2.794511807e-07 	1.012707771e-12 	5.327116197e-10
