0.4641652576 	3.684578048e-07 	-3.077531603e-09 	7.589182665e-13 	3.681211042e-07 	-3.469608404e-11 	7.017411385e-10
0.4651990941 	2.978083135e-05 	-2.186986119e-06 	2.933911416e-10 	2.998039908e-05 	-7.319850266e-10 	5.715097326e-08
0.4662329504 	0.000335358507 	-7.283775812e-05 	4.784101072e-09 	0.0003431437887 	1.283349717e-08 	6.541274331e-07
0.467266816 	0.001386486773 	-0.0004761917434 	1.126174687e-08 	0.001438736868 	1.288931998e-07 	2.742632347e-06
0.4683006803 	0.003059822484 	-0.001263173034 	4.137394356e-10 	0.003200099335 	3.892857222e-07 	6.100278754e-06
0.4693345329 	0.004822178694 	-0.002152666307 	-3.019959798e-08 	0.005061051656 	7.080109805e-07 	9.647771103e-06
0.4709260673 	0.006247607628 	-0.002830694939 	-6.379864209e-08 	0.006555193763 	9.578085604e-07 	1.249602123e-05
0.4727241214 	0.007127204311 	-0.003203063004 	-8.366209566e-08 	0.007464612852 	1.074014851e-06 	1.422962678e-05
0.4747554116 	0.007617750968 	-0.003401354588 	-7.898111245e-08 	0.007966728149 	1.082613791e-06 	1.518679809e-05
0.4770589516 	0.007873472709 	-0.003495104835 	-4.979515028e-08 	0.008222627276 	1.011472534e-06 	1.567461295e-05
0.4796634245 	0.007980763525 	-0.003524441278 	1.809737783e-09 	0.008321156916 	8.8566875e-07 	1.586243783e-05
0.4826056984 	0.00798804492 	-0.003511174395 	6.966775372e-08 	0.008313766512 	7.277632179e-07 	1.584834966e-05
0.4859295513 	0.007922869951 	-0.003467298989 	1.47227949e-07 	0.008229584157 	5.555912114e-07 	1.56878747e-05
0.4896996368 	0.00780069814 	-0.003399053876 	2.295258519e-07 	0.00808450795 	3.82026389e-07 	1.541131913e-05
0.4939594095 	0.007630170022 	-0.003308074002 	3.108318833e-07 	0.007886948044 	2.165967106e-07 	1.503471503e-05
0.4987781099 	0.007394347738 	-0.003199792019 	3.892830042e-07 	0.007619209388 	5.860381211e-08 	1.452433074e-05
0.5060766604 	0.007065721073 	-0.003045667649 	4.67853563e-07 	0.007250219753 	-9.659795337e-08 	1.382093394e-05
0.5139128031 	0.006666742928 	-0.00284823684 	5.288519614e-07 	0.00680531313 	-2.236594319e-07 	1.297281827e-05
0.5223216845 	0.006229817929 	-0.002640565552 	5.665375176e-07 	0.006322919846 	-3.130690954e-07 	1.205324259e-05
0.5313471393 	0.005760198734 	-0.002419128862 	5.821125023e-07 	0.005808520232 	-3.706884243e-07 	1.107265396e-05
0.5410351781 	0.005262611597 	-0.002183971211 	5.76972841e-07 	0.005267333126 	-4.034297052e-07 	1.004100092e-05
0.5514342349 	0.004743222993 	-0.001935662066 	5.559468412e-07 	0.004706506373 	-4.228406004e-07 	8.971909252e-06
0.5625954391 	0.004212200104 	-0.00167456038 	5.206550429e-07 	0.004137021439 	-4.460010258e-07 	7.886312688e-06
0.5745729139 	0.003687271132 	-0.001399036835 	4.797279362e-07 	0.003577226279 	-4.866243419e-07 	6.819187527e-06
0.5874240993 	0.003194528617 	-0.001109637458 	4.540559613e-07 	0.003052769443 	-5.529496822e-07 	5.819427032e-06
0.6012101002 	0.002765585911 	-0.0008118357826 	4.600413797e-07 	0.002592507494 	-6.700703019e-07 	4.942039834e-06
0.6159964431 	0.002434695565 	-0.0005142755632 	5.164163767e-07 	0.002224921689 	-8.798485417e-07 	4.241319124e-06
0.6318568963 	0.00223352281 	-0.0002205396461 	6.450908041e-07 	0.001974102353 	-1.201950836e-06 	3.763187758e-06
0.6488617476 	0.002175877014 	7.474964262e-05 	8.609693455e-07 	0.00185258806 	-1.551283434e-06 	3.531547742e-06
0.6670934663 	0.002244634364 	0.0003679302357 	1.100540652e-06 	0.001853649352 	-1.75162978e-06 	3.533570861e-06
0.6866360874 	0.002410755589 	0.0006456187067 	1.15994802e-06 	0.001960721287 	-1.701530204e-06 	3.737679728e-06
0.7075804079 	0.002655463284 	0.0009039048625 	9.015563531e-07 	0.002161500822 	-1.481770226e-06 	4.120421324e-06
0.7300239977 	0.002962373024 	0.001135007565 	5.014991484e-07 	0.002447704071 	-1.274494739e-06 	4.666004264e-06
0.7524754674 	0.003312372675 	0.001324676889 	2.772481928e-07 	0.002798977302 	-1.165705588e-06 	5.335628673e-06
0.7734422652 	0.003694826365 	0.001504754033 	2.703092099e-07 	0.00318217055 	-1.074135354e-06 	6.066101506e-06
0.7930211359 	0.004099380491 	0.001704236095 	3.177823129e-07 	0.003577992763 	-9.56214012e-07 	6.820648658e-06
0.8113031807 	0.004508112881 	0.00190800166 	3.301408115e-07 	0.00397779126 	-8.535713613e-07 	7.582775712e-06
0.8283739048 	0.004906916207 	0.002104404282 	3.214808118e-07 	0.004372614589 	-7.757201193e-07 	8.335418712e-06
0.844313407 	0.0052887269 	0.002289403652 	2.975357965e-07 	0.004758027055 	-7.125995544e-07 	9.070121991e-06
0.8591964582 	0.005650703337 	0.002460926616 	2.699726878e-07 	0.005132439553 	-6.583598126e-07 	9.783856275e-06
0.8730930293 	0.005991427149 	0.002611168056 	2.575146795e-07 	0.005494446162 	-6.049390017e-07 	1.047394149e-05
0.8860684419 	0.006311219066 	0.002743264369 	2.515426635e-07 	0.005840696769 	-5.446446464e-07 	1.113399138e-05
0.8981837067 	0.006609563112 	0.00286423875 	2.414066764e-07 	0.006167059034 	-4.796354876e-07 	1.175612856e-05
0.9094958036 	0.00688463053 	0.002972895345 	2.270359643e-07 	0.006471203794 	-4.161540486e-07 	1.233591301e-05
0.9200579402 	0.007135572573 	0.003070918677 	2.144195498e-07 	0.006752243855 	-3.546126501e-07 	1.287165348e-05
0.9299198015 	0.007361921182 	0.003159384279 	2.061524459e-07 	0.007009757721 	-2.929323713e-07 	1.336254648e-05
0.9391277838 	0.007563130289 	0.003239011494 	2.035074252e-07 	0.007242903762 	-2.290982732e-07 	1.380698763e-05
0.9477252122 	0.007737427898 	0.003309972585 	2.06862117e-07 	0.007450342461 	-1.604834988e-07 	1.420242345e-05
0.9557525438 	0.007880868035 	0.003375971861 	2.154104663e-07 	0.007627994111 	-8.567653972e-08 	1.454107687e-05
0.9632475577 	0.007975923533 	0.003411447076 	2.245438872e-07 	0.007755380372 	-1.098181511e-08 	1.478391049e-05
0.968207324 	0.008019686447 	0.003423121188 	2.296965368e-07 	0.007826643181 	5.049696592e-08 	1.491975721e-05
0.9725972846 	0.008025718271 	0.003431815664 	2.287324465e-07 	0.007856977838 	9.842474462e-08 	1.497758349e-05
0.9764828888 	0.007991439468 	0.003422620073 	2.183159255e-07 	0.007845803006 	1.318114953e-07 	1.495628116e-05
0.9799220711 	0.00790645492 	0.003393198813 	1.957800174e-07 	0.007782645765 	1.442898453e-07 	1.48358859e-05
0.9829661133 	0.007754092628 	0.00333675093 	1.593681403e-07 	0.007650999451 	1.305805589e-07 	1.458493144e-05
0.9856604081 	0.007507498061 	0.003242104657 	1.089472747e-07 	0.007423683041 	8.754538031e-08 	1.415160318e-05
0.9880451351 	0.007121547217 	0.003089722229 	4.708477178e-08 	0.007055215414 	1.66854438e-08 	1.344920148e-05
0.9901558588 	0.006517108543 	0.002842956573 	-1.900956063e-08 	0.006468474501 	-7.17031617e-08 	1.233071022e-05
0.9920240589 	0.005559353223 	0.00243880382 	-7.495739153e-08 	0.005528899359 	-1.521821147e-07 	1.053961886e-05
0.9936775992 	0.004143360548 	0.001779796835 	-9.54481463e-08 	0.00412644128 	-1.804987449e-07 	7.866143964e-06
0.9947517089 	0.002512170394 	0.0009837222984 	-7.967708982e-08 	0.002503173969 	-1.516804892e-07 	4.771745306e-06
0.995825826 	0.001082945625 	0.0003445889114 	-4.286163517e-08 	0.001079423207 	-8.968232472e-08 	2.057680642e-06
0.9968999504 	0.0002498022619 	4.818196117e-05 	-1.004984353e-08 	0.0002491723614 	-2.881921968e-08 	4.749917747e-07
0.9979740823 	2.144059714e-05 	1.339209632e-06 	-4.653333082e-10 	2.139807557e-05 	-3.470305484e-09 	4.079067933e-08
0.9990482216 	2.769050616e-07 	1.893278242e-09 	-1.071288487e-12 	2.763776515e-07 	-7.127437153e-11 	5.26852619e-10
