0.3982523954 	0.02524650243 	-0.004244161496 	-1.574531788e-06
0.3982523954 	0.02524650243 	-0.004244161496 	-1.574531788e-06
0.3994377339 	0.1039515571 	-0.01765019552 	-1.115310625e-05
0.4006231409 	0.2176509791 	-0.0368969761 	-3.103306318e-05
0.4018085007 	0.3338044633 	-0.05616797937 	-5.735084352e-05
0.4029936986 	0.4381745535 	-0.0732379989 	-8.533140753e-05
0.4041786207 	0.5313576361 	-0.08825241513 	-0.0001131926083
0.4060019699 	0.6189479157 	-0.1019053859 	-0.000142022107
0.4080604285 	0.6954992421 	-0.1132199324 	-0.0001691669105
0.4103833753 	0.7609603114 	-0.1223038973 	-0.0001940210851
0.4130209671 	0.8188519285 	-0.1297772917 	-0.0002173749049
0.4160013668 	0.8711343099 	-0.1359578721 	-0.000239624801
0.4193641481 	0.9189727771 	-0.1410376221 	-0.0002609136633
0.423157894 	0.963220049 	-0.1451424749 	-0.0002812588371
0.4274660238 	1.00446325 	-0.1483495096 	-0.0003006311788
0.432326175 	1.04304947 	-0.1506973389 	-0.0003187409205
0.4378190673 	1.082407118 	-0.1523256534 	-0.000335754592
0.4461325613 	1.12365431 	-0.1530191199 	-0.0003548257944
0.455048941 	1.16200166 	-0.1525897979 	-0.0003697501242
0.46460301 	1.195802369 	-0.151188025 	-0.000380541896
0.4748437118 	1.226083952 	-0.1489986424 	-0.0003873891402
0.4858216947 	1.25350235 	-0.1461388235 	-0.0003902537865
0.497589651 	1.278458055 	-0.1426918144 	-0.0003891195604
0.5102027201 	1.301171418 	-0.1387213939 	-0.0003842030299
0.5237189542 	1.321725112 	-0.1342786586 	-0.000375961259
0.5381998521 	1.340052255 	-0.1293907026 	-0.0003647810403
0.5537109596 	1.355832173 	-0.1240604653 	-0.0003506366519
0.570323245 	1.368456273 	-0.1182678768 	-0.000333202669
0.588119929 	1.377279655 	-0.1120207417 	-0.0003055281159
0.6071750317 	1.38210491 	-0.105422409 	-0.0002765823033
0.6275820376 	1.383146137 	-0.09849031094 	-0.0002499176394
0.6494344704 	1.380766982 	-0.09124315108 	-0.0002240795164
0.6728352312 	1.375520804 	-0.08390340948 	-0.0001988281987
0.6978966025 	1.367336777 	-0.07658113011 	-0.0001755902061
0.7229590561 	1.355854981 	-0.06947481807 	-0.0001547907072
0.7463631701 	1.34172597 	-0.06294061749 	-0.0001322221998
0.7682214995 	1.325914985 	-0.05704513045 	-0.0001134421342
0.7886381734 	1.308979202 	-0.05169723683 	-9.76262409e-05
0.8077096611 	1.291188494 	-0.04683377951 	-8.423043289e-05
0.8255255342 	1.272622641 	-0.04239459587 	-7.283220386e-05
0.8421687484 	1.253257243 	-0.03832880496 	-6.312483602e-05
0.8577166818 	1.232969017 	-0.03458636293 	-5.470849826e-05
0.8722413334 	1.211559668 	-0.0311181043 	-4.726825808e-05
0.8858098685 	1.188856182 	-0.0278887844 	-4.070562458e-05
0.8984849828 	1.164715991 	-0.02487197819 	-3.487190942e-05
0.9103252262 	1.138949054 	-0.02204255084 	-2.962623585e-05
0.9213853035 	1.111275439 	-0.01937759023 	-2.489472658e-05
0.9317163424 	1.081293964 	-0.01685680099 	-2.060556356e-05
0.9413661361 	1.048437873 	-0.01446063565 	-1.670268766e-05
0.9503793651 	1.011905191 	-0.01217986776 	-1.314719474e-05
0.9587978034 	0.9735538862 	-0.01015087407 	-1.012947645e-05
0.9643701856 	0.9377127432 	-0.008530961286 	-7.867651268e-06
0.9693034113 	0.903360617 	-0.007199318348 	-6.113992779e-06
0.9736706736 	0.8674145085 	-0.006009665954 	-4.649984909e-06
0.9775368093 	0.8295244738 	-0.004950059062 	-3.45224014e-06
0.9809592473 	0.7891687803 	-0.004012552209 	-2.494068622e-06
0.983988851 	0.7455392421 	-0.003188622488 	-1.748007294e-06
0.9866706657 	0.6973419229 	-0.002467042228 	-1.186977938e-06
0.9890445811 	0.6424339805 	-0.001830572636 	-7.772561818e-07
0.9911459193 	0.5771662714 	-0.001303906012 	-4.686332091e-07
0.9930059564 	0.5005389983 	-0.0009388605712 	-2.566982984e-07
0.9942142764 	0.4166268557 	-0.0006633406359 	-1.444064194e-07
0.995422663 	0.320344799 	-0.0003656810709 	-6.459972334e-08
0.996631116 	0.2112331699 	-0.0001250852344 	-8.42089356e-09
0.9978396355 	0.1022597799 	-6.030571857e-05 	-5.441302613e-08
0.9990482216 	0.02774155186 	-4.285507067e-05 	-6.377341505e-08
