0.4709558481 	0.04553348325 	-1.074942217e-05 	7.310466768e-10
0.4720092239 	0.1745664422 	-4.537588769e-05 	1.350752454e-09
0.4730625996 	0.3461243497 	-3.028727424e-05 	-4.377000374e-09
0.4741159754 	0.504535739 	7.012661829e-05 	-1.355184793e-08
0.4751693511 	0.6344642693 	0.0001240133997 	-1.794468945e-08
0.4762227269 	0.7422481486 	8.34124758e-05 	-2.347446157e-08
0.4778443634 	0.8381772896 	5.977579265e-05 	-3.598856607e-08
0.4796765386 	0.9179867395 	0.0001140837015 	-5.304740082e-08
0.4817465869 	0.98352741 	0.0001916249276 	-7.280844026e-08
0.4840853915 	1.039722045 	0.000260678498 	-9.629974799e-08
0.4867278453 	1.0895565 	0.0003385672816 	-1.25012215e-07
0.4897133715 	1.134915183 	0.0004318076353 	-1.600006872e-07
0.4930865115 	1.177023527 	0.0005438147822 	-2.023257e-07
0.4968975894 	1.216681973 	0.000677431456 	-2.531336946e-07
0.5012034633 	1.25438254 	0.0008382410602 	-3.153833514e-07
0.506068373 	1.29347202 	0.00104732097 	-3.915914575e-07
0.5134203412 	1.334602119 	0.001315688395 	-4.7997406e-07
0.5212948542 	1.37230661 	0.001621411893 	-5.770618407e-07
0.529729052 	1.403366293 	0.00193209765 	-6.431983205e-07
0.5387627144 	1.426560511 	0.002196076927 	-6.168029435e-07
0.5484384488 	1.44114 	0.002355893758 	-5.069952984e-07
0.5588018907 	1.448542221 	0.002403547312 	-3.921182788e-07
0.5699019192 	1.451440396 	0.002374453906 	-3.201462149e-07
0.5817908876 	1.45187225 	0.002300303008 	-2.770550999e-07
0.5945248701 	1.450820702 	0.002196146202 	-2.43672753e-07
0.6081639266 	1.448677274 	0.002067681594 	-2.145600892e-07
0.6227723857 	1.445590973 	0.001917085193 	-1.86460175e-07
0.638419148 	1.441606921 	0.00174513528 	-1.579870443e-07
0.6551780116 	1.43671805 	0.001552223343 	-1.28532197e-07
0.6731280194 	1.430883443 	0.001338835066 	-9.789994167e-08
0.6923538328 	1.424030096 	0.001105865515 	-6.622805481e-08
0.7129461301 	1.41604355 	0.0008548266539 	-3.392852926e-08
0.7350020349 	1.406912181 	0.0005925668165 	-2.070398134e-09
0.7570579485 	1.396984205 	0.0003360325962 	2.76382982e-08
0.7776502527 	1.38670627 	0.0001006445244 	5.456864716e-08
0.7968760713 	1.376209888 	-0.000109457531 	7.9768558e-08
0.814826083 	1.365440543 	-0.0002947700393 	1.046645457e-07
0.831584949 	1.354321437 	-0.0004556094966 	1.301660409e-07
0.8472317127 	1.342750989 	-0.0005919822076 	1.55513201e-07
0.8618401721 	1.330597659 	-0.0007037391179 	1.823726733e-07
0.8754792281 	1.317689827 	-0.0007908044607 	2.100079022e-07
0.8882132094 	1.303786507 	-0.0008513944447 	2.389777364e-07
0.9001021759 	1.288533601 	-0.0008815195269 	2.779121923e-07
0.9112022019 	1.271485662 	-0.000876547506 	3.21047217e-07
0.9215656407 	1.252212796 	-0.0008352461428 	3.550255751e-07
0.9312413717 	1.230362223 	-0.0007643823734 	3.666570175e-07
0.9402750304 	1.205543871 	-0.0006733205106 	3.533128946e-07
0.9487092242 	1.177154766 	-0.0005666045106 	3.250217961e-07
0.9565837329 	1.144382001 	-0.0004541342302 	2.813894532e-07
0.9639356968 	1.108993521 	-0.0003523921643 	2.306412954e-07
0.9688006083 	1.075300441 	-0.0002713072185 	1.86621819e-07
0.9731064834 	1.04256535 	-0.0002091141104 	1.494065329e-07
0.976917562 	1.007848055 	-0.0001590843287 	1.167402512e-07
0.9802907021 	0.9706613616 	-0.0001184018471 	8.908587066e-08
0.9832762282 	0.9302521339 	-8.615525692e-05 	6.642229265e-08
0.9859186816 	0.8854747328 	-5.998979098e-05 	4.835109562e-08
0.9882574856 	0.8345645634 	-3.430320351e-05 	3.422461441e-08
0.990327533 	0.7747315926 	7.265885826e-07 	2.333023204e-08
0.9921597073 	0.7014456637 	7.918786904e-06 	1.522069919e-08
0.9937813429 	0.6135634958 	-4.222352894e-05 	9.758954219e-09
0.9948347186 	0.516621955 	-6.900932732e-05 	6.3824357e-09
0.9958880943 	0.4049278496 	-1.609439211e-05 	3.798743771e-09
0.9969414701 	0.2751400752 	3.559129154e-05 	1.539116564e-09
0.9979948458 	0.1382742434 	2.639153659e-05 	2.626905324e-10
0.9990482216 	0.03957068763 	5.250232325e-06 	-2.086703152e-11
0.9990482216 	0.03957068763 	5.250232325e-06 	-2.086703152e-11
