0.3524915403 	5.199753543e-07 	-6.853564528e-09 	5.74244607e-12 	5.14525911e-07 	-2.187005636e-10 	9.808293914e-10
0.3536068642 	4.721032185e-05 	-5.168536292e-06 	8.026582533e-09 	4.350072529e-05 	-3.865888207e-08 	8.292447281e-08
0.3547223496 	0.0005834658929 	-0.0001537855589 	2.320542362e-07 	0.0004583655641 	-4.068782721e-07 	8.737721614e-07
0.3558378442 	0.002340072917 	-0.0008070140167 	8.208351873e-07 	0.001636738126 	-9.647301381e-07 	3.120077777e-06
0.3569531967 	0.004678828637 	-0.001770615116 	9.492561102e-07 	0.003096801173 	-6.062220382e-07 	5.903363746e-06
0.3580682569 	0.006455291908 	-0.00253051285 	2.331994464e-08 	0.004176327322 	1.201229294e-06 	7.961240627e-06
0.35978394 	0.007138714421 	-0.002835895229 	-1.610982275e-06 	0.004588389592 	4.228645036e-06 	8.74674584e-06
0.361720438 	0.006665660615 	-0.002661277284 	-3.86892967e-06 	0.004291372543 	7.528717442e-06 	8.180548793e-06
0.3639049575 	0.005593157974 	-0.002228833653 	-5.837403822e-06 	0.003634722703 	9.240958666e-06 	6.92879169e-06
0.3663674413 	0.00438012361 	-0.001704504907 	-6.136391331e-06 	0.002943507817 	7.764337654e-06 	5.611144004e-06
0.36920096 	0.003367640535 	-0.001229045358 	-4.70103873e-06 	0.002451046511 	3.376305029e-06 	4.672375883e-06
0.3724184949 	0.002715525682 	-0.0008739864557 	-2.972226514e-06 	0.002262090872 	-1.396090691e-06 	4.312173918e-06
0.3760438857 	0.002364063305 	-0.0006220996879 	-1.97086129e-06 	0.002340559945 	-4.699070831e-06 	4.461757781e-06
0.3801277765 	0.002172813298 	-0.0004259660314 	-1.480268997e-06 	0.002570679908 	-6.053681977e-06 	4.900430388e-06
0.3848143963 	0.002047403077 	-0.0002570212031 	-1.090646181e-06 	0.002845110565 	-6.040909904e-06 	5.423571495e-06
0.3901331779 	0.001940655815 	-9.432935133e-05 	-9.158663106e-07 	0.003125647715 	-5.458955442e-06 	5.958353273e-06
0.3981914987 	0.001834745494 	8.575878697e-05 	-7.544459283e-07 	0.003365120996 	-3.728336809e-06 	6.414855906e-06
0.4069277984 	0.001749364912 	0.0002587787076 	-3.557670424e-07 	0.003467474204 	-1.672002506e-06 	6.609969567e-06
0.4163791821 	0.001696643706 	0.0003831711894 	4.159085981e-08 	0.003436504381 	-7.677101998e-07 	6.550932477e-06
0.4265723647 	0.001660167755 	0.000458384204 	2.333709721e-07 	0.003367328776 	-4.988212521e-07 	6.419064547e-06
0.4375983103 	0.001630737381 	0.0004988281012 	2.319446853e-07 	0.003307742241 	-3.182251393e-07 	6.305476051e-06
0.4495688352 	0.001606580767 	0.0005219368672 	1.207696001e-07 	0.003264221393 	-1.454833163e-07 	6.222513219e-06
0.4609124074 	0.001589989991 	0.0005386961023 	4.525714254e-09 	0.003237727186 	-6.330618506e-07 	6.172007897e-06
0.4625033521 	0.001587639078 	0.0005410304211 	1.619262955e-08 	0.003233890288 	-2.021965055e-08 	6.164693703e-06
0.4764361663 	0.001573607863 	0.0005609596354 	1.458398371e-07 	0.003212873844 	-1.775119298e-07 	6.124630519e-06
0.4915177733 	0.001563793957 	0.0005827290299 	2.67932552e-07 	0.003199583517 	-3.227715087e-07 	6.099295461e-06
0.5078705597 	0.001557410784 	0.0006061767562 	3.804025321e-07 	0.003192367645 	-4.580219816e-07 	6.085540004e-06
0.5255559403 	0.001553812321 	0.0006311971109 	4.798381712e-07 	0.003189515593 	-5.840868246e-07 	6.0801032e-06
0.5446528007 	0.001552465332 	0.0006577915298 	5.619535087e-07 	0.00318924957 	-6.999709256e-07 	6.079596086e-06
0.5653073198 	0.001553084544 	0.0006862392902 	6.230993443e-07 	0.003189473251 	-8.026309371e-07 	6.080022484e-06
0.5875706324 	0.001555756138 	0.0007171088195 	6.59450078e-07 	0.003187528782 	-8.880425296e-07 	6.076315786e-06
0.6115522574 	0.001560712419 	0.0007507762607 	6.676552337e-07 	0.003180455238 	-9.52397044e-07 	6.062831645e-06
0.6373531822 	0.001568305511 	0.0007874248522 	6.450424081e-07 	0.003164677561 	-9.900035711e-07 	6.032755008e-06
0.6650736862 	0.001579297426 	0.0008268229593 	5.941693601e-07 	0.003136372093 	-9.904216005e-07 	5.978796919e-06
0.6928473989 	0.001594729843 	0.0008672439912 	5.259359179e-07 	0.00309517379 	-9.471286008e-07 	5.900261504e-06
0.7188076063 	0.001616185432 	0.0009071654658 	4.567917181e-07 	0.003045431899 	-8.641471151e-07 	5.805439633e-06
0.7430616173 	0.001646265602 	0.0009471824095 	3.980625355e-07 	0.002992477088 	-7.471855234e-07 	5.704493046e-06
0.7657166274 	0.001688053547 	0.0009887253644 	3.549547001e-07 	0.002941924797 	-6.040579919e-07 	5.608126329e-06
0.7868765632 	0.00174466286 	0.001033236122 	3.294182773e-07 	0.00290043506 	-4.442899393e-07 	5.529035359e-06
0.8066407466 	0.001819246694 	0.00108239007 	3.200209231e-07 	0.002874810196 	-2.778386641e-07 	5.480187245e-06
0.825101173 	0.001914704908 	0.001137985099 	3.225178695e-07 	0.002870998912 	-1.148177484e-07 	5.472921879e-06
0.8423446134 	0.002032975968 	0.001201505584 	3.306083722e-07 	0.00289329569 	3.419319752e-08 	5.515425734e-06
0.8584514973 	0.002174016535 	0.001273554495 	3.358852487e-07 	0.002943660489 	1.600019765e-07 	5.611435039e-06
0.8734970175 	0.00233461102 	0.001353293823 	3.284957809e-07 	0.00302113019 	2.543603537e-07 	5.759113822e-06
0.8875511498 	0.002507984265 	0.001438192066 	3.009213566e-07 	0.003120905405 	3.027232396e-07 	5.949313113e-06
0.900679109 	0.002686558293 	0.001524470498 	2.454749533e-07 	0.003232881919 	2.841556253e-07 	6.16277147e-06
0.9129417823 	0.002865004418 	0.001597060215 	1.017134275e-07 	0.003342114085 	1.939158114e-07 	6.370998338e-06
0.9243960038 	0.003039606542 	0.001649416971 	-2.071983109e-08 	0.003438436286 	8.602440742e-08 	6.554615225e-06
0.9350948531 	0.00320598326 	0.001691749402 	-5.447786614e-08 	0.003519180024 	6.196586046e-10 	6.708535232e-06
0.9450879208 	0.003360874607 	0.001729869138 	-5.851483429e-08 	0.003581304517 	-5.537325287e-08 	6.826961782e-06
0.954421548 	0.003491082245 	0.001752496221 	-1.881780859e-08 	0.003620103578 	-5.502809175e-08 	6.900923575e-06
0.9605997311 	0.003592591529 	0.001768474455 	5.25206267e-08 	0.003640226573 	1.405279002e-10 	6.939283597e-06
0.9660692856 	0.003682181679 	0.001793272487 	1.534530875e-07 	0.003653169047 	1.0628244e-07 	6.963955549e-06
0.9709113578 	0.003768952123 	0.001821720402 	2.743122751e-07 	0.003664734025 	2.667609399e-07 	6.986001612e-06
0.9751978312 	0.003853228854 	0.001854618987 	4.071364186e-07 	0.003676858874 	4.764785185e-07 	7.009114944e-06
0.9789923751 	0.00392998144 	0.001888625225 	5.400158364e-07 	0.003687160019 	7.204577669e-07 	7.028751789e-06
0.9823513805 	0.003984717785 	0.001915505347 	6.576991202e-07 	0.003684268355 	9.692729201e-07 	7.023239475e-06
0.9853247881 	0.003985342818 	0.001918674374 	7.411914438e-07 	0.003640338064 	1.17696377e-06 	6.939496129e-06
0.987956823 	0.00386686872 	0.001866036797 	7.65958768e-07 	0.00349933376 	1.282358075e-06 	6.670702735e-06
0.9902866465 	0.003509732937 	0.001700710205 	6.980779841e-07 	0.003154513784 	1.213973119e-06 	6.013380024e-06
0.9923489342 	0.002757731137 	0.001317109149 	5.129523056e-07 	0.002477969671 	9.388415081e-07 	4.723698909e-06
0.993688642 	0.00172910863 	0.0007728495589 	2.760018748e-07 	0.001572651435 	5.67670335e-07 	2.997910731e-06
0.9950284246 	0.0007514323489 	0.000287170467 	9.461917471e-08 	0.0007003846751 	2.481102981e-07 	1.335127853e-06
0.9963682821 	0.0001665682306 	4.208305773e-05 	1.432027059e-08 	0.0001615266943 	6.259279583e-08 	3.079147734e-07
0.9977082144 	1.281835813e-05 	1.112141121e-06 	5.338758918e-10 	1.275526317e-05 	6.502694495e-09 	2.431507674e-08
0.9990482216 	1.319777484e-07 	1.221990121e-09 	1.054139255e-12 	1.317221457e-07 	1.044139541e-10 	2.5109902e-10
0.9990482216 	1.319777484e-07 	1.221990121e-09 	1.054139255e-12 	1.317221457e-07 	1.044139541e-10 	2.5109902e-10
