0.4709558481 	4.406650743e-07 	-4.55476654e-09 	3.658099078e-13 	4.398084622e-07 	-2.455883948e-11 	8.383971674e-10
0.4720092239 	3.627396039e-05 	-3.290746863e-06 	2.602340047e-10 	3.607328177e-05 	-2.011430367e-09 	6.87657011e-08
0.4730625996 	0.000420626875 	-0.0001079318341 	7.698530635e-09 	0.0004069253353 	-2.196288163e-08 	7.757127881e-07
0.4741159754 	0.00175923299 	-0.0006710405626 	3.785243595e-08 	0.001635589163 	-7.67880982e-08 	3.117887534e-06
0.4751693511 	0.003839198696 	-0.001696399438 	7.364174034e-08 	0.00348412712 	-1.341039342e-07 	6.641714653e-06
0.4762227269 	0.005929915922 	-0.00277631728 	9.053471287e-08 	0.005313289894 	-1.616388423e-07 	1.012860729e-05
0.4778443634 	0.007534654629 	-0.003561258927 	9.09045265e-08 	0.006730874888 	-1.621733807e-07 	1.283091829e-05
0.4796765386 	0.008465274815 	-0.003974875223 	8.131754435e-08 	0.007567474171 	-1.420587003e-07 	1.442570904e-05
0.4817465869 	0.008948256922 	-0.004188023816 	6.714062916e-08 	0.008001727354 	-1.089049464e-07 	1.52535163e-05
0.4840853915 	0.009151830703 	-0.004276178266 	4.776992299e-08 	0.008183609769 	-6.358689243e-08 	1.560023474e-05
0.4867278453 	0.009166310526 	-0.004282033947 	2.240515547e-08 	0.008190901539 	-5.239624288e-09 	1.561413488e-05
0.4897133715 	0.009037232892 	-0.004226267281 	-9.922037333e-09 	0.008065582024 	6.771530457e-08 	1.537524105e-05
0.4930865115 	0.008787067754 	-0.004118292541 	-5.049157464e-08 	0.007828762651 	1.572488835e-07 	1.492379751e-05
0.4968975894 	0.008425550704 	-0.003961389543 	-1.007789894e-07 	0.007489837123 	2.652534933e-07 	1.427771125e-05
0.5012034633 	0.00795484444 	-0.003754175302 	-1.618529139e-07 	0.007052170955 	3.931085218e-07 	1.344339789e-05
0.506068373 	0.007321792622 	-0.003480773992 	-2.445124012e-07 	0.006464022242 	5.533869855e-07 	1.232222298e-05
0.5134203412 	0.006458000758 	-0.003096786364 	-3.439346652e-07 	0.005671382753 	7.483286876e-07 	1.081123181e-05
0.5212948542 	0.005443880735 	-0.002619152001 	-4.756438209e-07 	0.00475950534 	9.189295054e-07 	9.072940014e-06
0.529729052 	0.004415364086 	-0.00209351298 	-6.115735103e-07 	0.003861771949 	9.82331104e-07 	7.361610658e-06
0.5387627144 	0.003473711939 	-0.001556784796 	-6.57661949e-07 	0.003073078842 	8.962418993e-07 	5.85814239e-06
0.5484384488 	0.002728447974 	-0.001076513887 	-6.00989538e-07 	0.002476168704 	6.612289818e-07 	4.720265766e-06
0.5588018907 	0.002241871461 	-0.0006903483845 	-4.806952408e-07 	0.002110346091 	3.640798647e-07 	4.02290619e-06
0.5699019192 	0.001989728621 	-0.0003913562262 	-3.770422474e-07 	0.001941882759 	1.231249988e-07 	3.701768257e-06
0.5817908876 	0.001892968923 	-0.0001476244739 	-3.186240709e-07 	0.00189538406 	-1.830800461e-08 	3.613128813e-06
0.5945248701 	0.001881525886 	6.073789836e-05 	-2.677387226e-07 	0.001908067045 	-8.231070099e-08 	3.637306108e-06
0.6081639266 	0.001913556331 	0.0002407815124 	-2.251193292e-07 	0.001945543461 	-1.084407669e-07 	3.708746573e-06
0.6227723857 	0.001968074856 	0.0003995604272 	-1.910443412e-07 	0.001993350294 	-1.163939595e-07 	3.799879683e-06
0.638419148 	0.002034447074 	0.0005415784124 	-1.603588883e-07 	0.002045094541 	-1.134953071e-07 	3.8985186e-06
0.6551780116 	0.002106741194 	0.0006691953157 	-1.306733768e-07 	0.002097638936 	-1.02702838e-07 	3.99868282e-06
0.6731280194 	0.002181767199 	0.0007841025837 	-1.008488395e-07 	0.002149583814 	-8.54732914e-08 	4.097704195e-06
0.6923538328 	0.002258574435 	0.0008881214318 	-7.035123745e-08 	0.00220096441 	-6.274560544e-08 	4.195649891e-06
0.7129461301 	0.002338596006 	0.0009837593863 	-3.888809937e-08 	0.002253469112 	-3.526418292e-08 	4.295738447e-06
0.7350020349 	0.002424594281 	0.001073096602 	-6.654308473e-09 	0.002309980741 	-3.980679451e-09 	4.403465318e-06
0.7570579485 	0.002518342587 	0.00115663327 	2.526412621e-08 	0.002373079374 	2.968186341e-08 	4.523748849e-06
0.7776502527 	0.002621546921 	0.001236133032 	5.607015011e-08 	0.002445091633 	6.521720868e-08 	4.66102423e-06
0.7968760713 	0.002737952356 	0.001315622067 	8.603878957e-08 	0.002529401321 	1.042024249e-07 	4.821741928e-06
0.814826083 	0.002872140011 	0.001398873394 	1.154748856e-07 	0.0026300321 	1.489534468e-07 	5.013572161e-06
0.831584949 	0.003028577425 	0.001488838152 	1.432548169e-07 	0.002751102173 	2.01701525e-07 	5.244365371e-06
0.8472317127 	0.003212350215 	0.001588591787 	1.804242946e-07 	0.002896910035 	2.620239108e-07 	5.522315682e-06
0.8618401721 	0.003429314074 	0.001699430058 	2.086792113e-07 	0.003072456148 	3.334695612e-07 	5.856955363e-06
0.8754792281 	0.003686720645 	0.001823826631 	2.388674853e-07 	0.003283980963 	4.193132038e-07 	6.260180451e-06
0.8882132094 	0.003992224539 	0.001969091648 	2.913187269e-07 	0.003537946064 	5.140076517e-07 	6.74430852e-06
0.9001021759 	0.004348855651 	0.002139846872 	3.401234968e-07 	0.003838230574 	6.040580617e-07 	7.316734255e-06
0.9112022019 	0.004752052664 	0.002334580719 	3.757620832e-07 	0.004183018567 	6.716804465e-07 	7.973995998e-06
0.9215656407 	0.005191305436 	0.002548454764 	3.920361965e-07 	0.004563983243 	7.047993076e-07 	8.700220555e-06
0.9312413717 	0.005650055873 	0.002762105081 	3.575959421e-07 	0.004971037643 	7.053378722e-07 	9.476179376e-06
0.9402750304 	0.006114706046 	0.002964534694 	3.077174586e-07 	0.005392875708 	6.744236443e-07 	1.028031997e-05
0.9487092242 	0.006573113512 	0.003159793631 	2.697601035e-07 	0.005814287676 	6.101010231e-07 	1.108364831e-05
0.9565837329 	0.007006035113 	0.003345354685 	2.179472909e-07 	0.006214909561 	5.193626588e-07 	1.184734497e-05
0.9639356968 	0.007355851333 	0.003481930293 	1.682839386e-07 	0.006546751078 	4.207207473e-07 	1.247992713e-05
0.9688006083 	0.007593662828 	0.003567008861 	1.288021723e-07 	0.006777376292 	3.356092894e-07 	1.291956289e-05
0.9731064834 	0.007753263876 	0.003629283732 	9.885955e-08 	0.006930920234 	2.650830679e-07 	1.321226032e-05
0.976917562 	0.00784767748 	0.003662942724 	7.415354422e-08 	0.007024431833 	2.039020044e-07 	1.339051941e-05
0.9802907021 	0.007870177869 	0.003667190582 	5.430882936e-08 	0.007050706093 	1.52465101e-07 	1.344060546e-05
0.9832762282 	0.007807213224 	0.003636442145 	3.863421756e-08 	0.006997354686 	1.10360163e-07 	1.333890285e-05
0.9859186816 	0.007633957915 	0.003559547305 	2.646679764e-08 	0.006841625489 	7.675048751e-08 	1.304203971e-05
0.9882574856 	0.007304818742 	0.003414986046 	1.722301421e-08 	0.006542551329 	5.065283474e-08 	1.247192124e-05
0.990327533 	0.006735082907 	0.00316085914 	1.028012768e-08 	0.006027952107 	3.107658939e-08 	1.14909521e-05
0.9921597073 	0.005777115699 	0.002722676585 	5.260029351e-09 	0.005168569834 	1.709014638e-08 	9.852730633e-06
0.9937813429 	0.004299762272 	0.001987894371 	1.901805008e-09 	0.003865444171 	8.214901687e-09 	7.368610935e-06
0.9948347186 	0.002574919958 	0.00109632157 	7.132577163e-11 	0.002353942685 	3.286636985e-09 	4.487269002e-06
0.9958880943 	0.001089237421 	0.0003840312411 	-3.207289299e-10 	0.001023609167 	8.773392754e-10 	1.95128357e-06
0.9969414701 	0.000245884604 	5.420922323e-05 	-9.914720523e-11 	0.0002398926815 	1.233070028e-10 	4.573021256e-07
0.9979948458 	2.100887777e-05 	1.547782372e-06 	-3.726284906e-12 	2.091914023e-05 	9.174459441e-12 	3.987769545e-08
0.9990482216 	2.79858674e-07 	2.32282007e-09 	-6.156728861e-15 	2.793187295e-07 	1.222389352e-13 	5.32459131e-10
0.9990482216 	2.79858674e-07 	2.32282007e-09 	-6.156728861e-15 	2.793187295e-07 	1.222389352e-13 	5.32459131e-10
