0.4709558481 	3.842560064e-07 	-3.257929476e-09 	2.05910916e-14 	3.835265194e-07 	-1.848116878e-12 	7.311081417e-10
0.4720092239 	3.155382566e-05 	-2.360288096e-06 	1.52191019e-11 	3.149375602e-05 	-1.518063947e-10 	6.003585222e-08
0.4730625996 	0.0003603202721 	-7.882089536e-05 	4.772989963e-10 	0.0003595552591 	-1.700237395e-09 	6.854122571e-07
0.4741159754 	0.001491222272 	-0.0005076873537 	2.538506103e-09 	0.001487982024 	-6.296263244e-09 	2.836507301e-06
0.4751693511 	0.003267793257 	-0.001324267477 	5.291485775e-09 	0.003262008422 	-1.163594931e-08 	6.21829468e-06
0.4762227269 	0.005103263447 	-0.002224622771 	6.988699443e-09 	0.005095854319 	-1.483503754e-08 	9.714114652e-06
0.4778443634 	0.006569893153 	-0.002902518178 	7.544588952e-09 	0.006558281287 	-1.56878674e-08 	1.250190691e-05
0.4796765386 	0.007473798822 	-0.003277283078 	7.339500828e-09 	0.007456844435 	-1.450683696e-08 	1.421481802e-05
0.4817465869 	0.007985245382 	-0.003485102006 	6.705040017e-09 	0.007966468643 	-1.185551414e-08 	1.51863034e-05
0.4840853915 	0.008258214317 	-0.003592476711 	5.576224818e-09 	0.008239351791 	-7.827998086e-09 	1.570649452e-05
0.4867278453 	0.008377452556 	-0.003637763995 	3.884912242e-09 	0.008357723327 	-2.44784953e-09 	1.593214357e-05
0.4897133715 	0.008388649243 	-0.003640353627 	1.577615458e-09 	0.008367737867 	4.266220166e-09 	1.595123407e-05
0.4930865115 	0.008317289495 	-0.003610448003 	-1.3838529e-09 	0.008295123237 	1.231745869e-08 	1.58128104e-05
0.4968975894 	0.008177769396 	-0.003553456368 	-5.025542521e-09 	0.008154102788 	2.176026479e-08 	1.554398623e-05
0.5012034633 	0.007977867354 	-0.003470312901 	-9.325976585e-09 	0.007952412343 	3.273336942e-08 	1.515950818e-05
0.506068373 	0.007696918363 	-0.003365320885 	-1.497110876e-08 	0.007669709198 	4.673172054e-08 	1.462059742e-05
0.5134203412 	0.007301135713 	-0.003208512598 	-2.23859938e-08 	0.007271677281 	6.557809648e-08 	1.386183796e-05
0.5212948542 	0.006817875616 	-0.00300149479 	-3.104607848e-08 	0.006785620292 	8.836578669e-08 	1.293527824e-05
0.529729052 	0.006288522898 	-0.002777733461 	-4.067209311e-08 	0.006254015365 	1.135434476e-07 	1.19218915e-05
0.5387627144 	0.005721285061 	-0.002534498819 	-5.11573043e-08 	0.005685160282 	1.401874039e-07 	1.083749561e-05
0.5484384488 	0.005124578396 	-0.002273123651 	-6.168346875e-08 	0.00508745382 	1.66528088e-07 	9.698100965e-06
0.5588018907 	0.004510064123 	-0.001995052379 	-7.323411953e-08 	0.004473056055 	1.890376543e-07 	8.526888062e-06
0.5699019192 	0.003897839386 	-0.001698445351 	-8.632772415e-08 	0.003862173828 	2.019653511e-07 	7.362376752e-06
0.5817908876 	0.00331758195 	-0.001384909342 	-9.660046286e-08 	0.003284711196 	2.002251684e-07 	6.261572478e-06
0.5945248701 	0.00280307347 	-0.001066501322 	-9.927211433e-08 	0.002774924764 	1.806706953e-07 	5.28977785e-06
0.6081639266 	0.002389094501 	-0.0007578166671 	-9.23737568e-08 	0.002367852651 	1.426275405e-07 	4.513785263e-06
0.6227723857 	0.00210259519 	-0.0004739849551 	-7.742079227e-08 	0.002090013769 	9.428728988e-08 	3.984147133e-06
0.638419148 	0.001952234963 	-0.0002142034249 	-6.109683672e-08 	0.001949151541 	5.193080944e-08 	3.715624576e-06
0.6551780116 	0.001922503203 	3.330665982e-05 	-4.557266619e-08 	0.001928626886 	2.916307357e-08 	3.676498878e-06
0.6731280194 	0.001983876701 	0.000270826265 	-2.998732727e-08 	0.001997803053 	2.654518515e-08 	3.80836788e-06
0.6923538328 	0.002115228473 	0.0005013609256 	-1.680544143e-08 	0.002134787062 	3.624325076e-08 	4.069497474e-06
0.7129461301 	0.00230895822 	0.0007310626492 	-6.522924632e-09 	0.002331589382 	5.287386942e-08 	4.444657393e-06
0.7350020349 	0.002562341451 	0.0009620382984 	8.924858562e-10 	0.002585324766 	7.324772774e-08 	4.928347558e-06
0.7570579485 	0.002864027045 	0.001187910231 	5.184184207e-09 	0.002884804146 	9.403267502e-08 	5.499238492e-06
0.7776502527 	0.003196669399 	0.001402699548 	6.269726646e-09 	0.003213500692 	1.121165045e-07 	6.125825465e-06
0.7968760713 	0.003550280358 	0.001606838482 	4.235081651e-09 	0.003562545543 	1.256050009e-07 	6.791201964e-06
0.814826083 	0.0039191899 	0.001800451173 	1.450977327e-09 	0.003927308044 	1.335552394e-07 	7.48654067e-06
0.831584949 	0.004296427793 	0.001983221959 	3.40863076e-09 	0.004301377819 	1.370511021e-07 	8.19962163e-06
0.8472317127 	0.004674840911 	0.002154433297 	1.183394704e-08 	0.004677230302 	1.389875967e-07 	8.916100924e-06
0.8618401721 	0.005048310936 	0.002314028159 	2.168542666e-08 	0.005048189293 	1.405082408e-07 	9.623251865e-06
0.8754792281 	0.005411811936 	0.002463484724 	2.833155708e-08 	0.005409314738 	1.398209369e-07 	1.031165733e-05
0.8882132094 	0.005761180643 	0.002603012581 	3.129529393e-08 	0.005756723989 	1.353339591e-07 	1.097391592e-05
0.9001021759 	0.006093064763 	0.002732547382 	3.155688677e-08 	0.006087125962 	1.27202439e-07 	1.160375391e-05
0.9112022019 	0.006404771034 	0.002851959343 	2.999374734e-08 	0.006397780067 	1.163578525e-07 	1.219594698e-05
0.9215656407 	0.006694130683 	0.002961133373 	2.739315111e-08 	0.006686429454 	1.03892092e-07 	1.274619294e-05
0.9312413717 	0.006959294559 	0.003060014637 	2.438209261e-08 	0.006951110049 	9.085610858e-08 	1.325074771e-05
0.9402750304 	0.007198426949 	0.003148576256 	2.141583173e-08 	0.007189662357 	7.812371485e-08 	1.370549472e-05
0.9487092242 	0.007408765175 	0.003226554597 	1.879466694e-08 	0.007399590055 	6.636547243e-08 	1.410567525e-05
0.9565837329 	0.007585615754 	0.003297422279 	1.674781113e-08 	0.0075762361 	5.60584728e-08 	1.444241171e-05
0.9639356968 	0.007709631781 	0.00333622473 	1.524890888e-08 	0.007699458996 	4.803522333e-08 	1.46773088e-05
0.9688006083 	0.007776157972 	0.003350104524 	1.435332287e-08 	0.007765172186 	4.263863079e-08 	1.48025764e-05
0.9731064834 	0.007801318988 	0.003360642253 	1.39464028e-08 	0.00778998825 	3.894839312e-08 	1.484988272e-05
0.976917562 	0.007785974683 	0.003354273692 	1.370164202e-08 	0.007774210068 	3.624404117e-08 	1.481980512e-05
0.9802907021 	0.007721138407 	0.003329365661 	1.35626904e-08 	0.007708908258 	3.430021494e-08 	1.469532172e-05
0.9832762282 	0.007591612489 	0.003279781975 	1.345967352e-08 	0.007579032746 	3.28975099e-08 	1.44477429e-05
0.9859186816 	0.007371744405 	0.00319478902 	1.333868261e-08 	0.007358706235 	3.18219601e-08 	1.402773933e-05
0.9882574856 	0.00701687969 	0.003054815337 	1.315491847e-08 	0.007003116389 	3.085345071e-08 	1.334988625e-05
0.990327533 	0.006446755707 	0.002822265544 	1.285006601e-08 	0.006434307493 	2.973346088e-08 	1.22655784e-05
0.9921597073 	0.005522519844 	0.002431665112 	1.236741205e-08 	0.005514116307 	2.799154118e-08 	1.051143825e-05
0.9937813429 	0.00413099208 	0.001781218803 	1.08692535e-08 	0.004125251908 	2.425697814e-08 	7.863876691e-06
0.9948347186 	0.002512913269 	0.0009886044512 	7.61224053e-09 	0.002508352069 	1.760939823e-08 	4.781616204e-06
0.9958880943 	0.00108800551 	0.0003489107832 	3.323543168e-09 	0.001085655044 	8.843003794e-09 	2.069560256e-06
0.9969414701 	0.0002527079108 	4.960004652e-05 	5.593832913e-10 	0.0002521916801 	2.244137225e-09 	4.807474352e-07
0.9979948458 	2.19084687e-05 	1.420054085e-06 	1.696685267e-11 	2.186703053e-05 	1.974504493e-10 	4.168463782e-08
0.9990482216 	2.923263681e-07 	2.130904082e-09 	2.53238431e-14 	2.917710484e-07 	2.634366773e-12 	5.561967117e-10
0.9990482216 	2.923263681e-07 	2.130904082e-09 	2.53238431e-14 	2.917710484e-07 	2.634366773e-12 	5.561967117e-10
