0.4709558481 	3.855104936e-07 	-3.272707618e-09 	1.213977414e-13 	3.8477862e-07 	-1.012233296e-11 	7.334949933e-10
0.4720092239 	3.165685125e-05 	-2.370950768e-06 	8.711920639e-11 	3.159656243e-05 	-8.310374601e-10 	6.02318298e-08
0.4730625996 	0.0003614717502 	-7.914785172e-05 	2.656189863e-09 	0.0003607030218 	-9.269343822e-09 	6.876002118e-07
0.4741159754 	0.001495451919 	-0.0005093905393 	1.375150188e-08 	0.001492193587 	-3.390752265e-08 	2.844535711e-06
0.4751693511 	0.003275533407 	-0.001327747748 	2.792995615e-08 	0.003269705073 	-6.171006912e-08 	6.232966637e-06
0.4762227269 	0.005113051499 	-0.002229109725 	3.573670667e-08 	0.005105550761 	-7.73318567e-08 	9.732598765e-06
0.4778443634 	0.006580290519 	-0.002907231309 	3.718340299e-08 	0.006568506349 	-8.109360184e-08 	1.252139872e-05
0.4796765386 	0.007483741634 	-0.003281764255 	3.494421833e-08 	0.00746652074 	-7.641831185e-08 	1.423326374e-05
0.4817465869 	0.0079941472 	-0.0034891808 	3.139994042e-08 	0.007975003406 	-6.741713318e-08 	1.520257303e-05
0.4840853915 	0.008265591112 	-0.003595979515 	2.657056648e-08 	0.008246245698 	-5.499873322e-08 	1.571963623e-05
0.4867278453 	0.008382817559 	-0.003640508458 	2.045586162e-08 	0.008362473139 	-3.928325695e-08 	1.594119803e-05
0.4897133715 	0.008391466847 	-0.003642136235 	1.296528495e-08 	0.008369793516 	-2.002310648e-08 	1.595515271e-05
0.4930865115 	0.008316945854 	-0.003611031383 	3.910623999e-09 	0.008293855418 	3.33132581e-09 	1.581039358e-05
0.4968975894 	0.008173547904 	-0.003552556324 	-7.010923515e-09 	0.008148779366 	3.157947031e-08 	1.553383831e-05
0.5012034633 	0.007968928619 	-0.003467603754 	-2.011394562e-08 	0.007942180622 	6.573436259e-08 	1.514000368e-05
0.506068373 	0.007681734182 	-0.003360115869 	-3.799834545e-08 	0.007653009401 	1.109739995e-07 	1.458876296e-05
0.5134203412 	0.007277387528 	-0.003199840981 	-6.290515641e-08 	0.007246167672 	1.731222625e-07 	1.381320955e-05
0.5212948542 	0.00678376347 	-0.002988580597 	-9.372418299e-08 	0.006749534135 	2.483861298e-07 	1.2866488e-05
0.529729052 	0.006243062992 	-0.002759980085 	-1.293394853e-07 	0.006206432571 	3.307371344e-07 	1.183118547e-05
0.5387627144 	0.005663886491 	-0.002511406003 	-1.692030412e-07 	0.005625582092 	4.169555291e-07 	1.072392302e-05
0.5484384488 	0.005055306949 	-0.002244558812 	-2.106787404e-07 	0.005016079251 	5.018565865e-07 	9.5620412e-06
0.5588018907 	0.004430413491 	-0.001960482614 	-2.566796628e-07 	0.004391503122 	5.750723359e-07 	8.371425506e-06
0.5699019192 	0.003811708132 	-0.00165707185 	-3.087949742e-07 	0.003774462256 	6.19438146e-07 	7.195174118e-06
0.5817908876 	0.0032309144 	-0.001337848337 	-3.524386546e-07 	0.003196968945 	6.206636354e-07 	6.094311362e-06
0.5945248701 	0.002723032753 	-0.001017009249 	-3.723498752e-07 	0.002694534848 	5.708944224e-07 	5.136532328e-06
0.6081639266 	0.002323161656 	-0.0007101866564 	-3.609908556e-07 	0.00230244213 	4.693790225e-07 	4.389094631e-06
0.6227723857 	0.002055511112 	-0.0004315607409 	-3.263644084e-07 	0.002044289681 	3.349294974e-07 	3.896984313e-06
0.638419148 	0.001922935227 	-0.0001780042667 	-2.831987063e-07 	0.001921887355 	2.048902961e-07 	3.66365146e-06
0.6551780116 	0.001904808998 	6.241987917e-05 	-2.30031706e-07 	0.001913446511 	1.129395249e-07 	3.647560865e-06
0.6731280194 	0.001970504691 	0.0002917369371 	-1.658116679e-07 	0.001987254892 	6.971793088e-08 	3.788260154e-06
0.6923538328 	0.002100386574 	0.0005137194292 	-9.542804418e-08 	0.002122998611 	7.001700925e-08 	4.047025409e-06
0.7129461301 	0.002288140427 	0.0007346976484 	-2.025554642e-08 	0.002314008638 	1.078118089e-07 	4.41114361e-06
0.7350020349 	0.002532108976 	0.0009571007587 	5.664339174e-08 	0.002558410459 	1.768923121e-07 	4.877041409e-06
0.7570579485 	0.002822689068 	0.001175378913 	1.281619695e-07 	0.002846604229 	2.654344267e-07 	5.426418834e-06
0.7776502527 	0.003144683718 	0.001384363946 	1.877438827e-07 	0.003164017348 	3.57835142e-07 	6.031496459e-06
0.7968760713 	0.003489554294 	0.001585774159 	2.189199417e-07 	0.003503294093 	4.41602076e-07 	6.678252231e-06
0.814826083 	0.003852449158 	0.001778977812 	2.347810356e-07 	0.003861169456 	5.041939609e-07 	7.36046214e-06
0.831584949 	0.004226546695 	0.001961455836 	2.475516173e-07 	0.004232052433 	5.331726612e-07 	8.067468176e-06
0.8472317127 	0.004603969982 	0.002133326857 	2.215444142e-07 	0.004607439422 	5.340671107e-07 	8.78306011e-06
0.8618401721 	0.004977880612 	0.002292808445 	2.029078252e-07 	0.004978930554 	5.273458433e-07 	9.491225458e-06
0.8754792281 	0.005343252619 	0.002441368318 	2.064411542e-07 	0.005341475193 	5.160131727e-07 	1.01823363e-05
0.8882132094 	0.005695961788 	0.002581505297 	1.932157183e-07 	0.005691781866 	4.930797788e-07 	1.085011819e-05
0.9001021759 	0.006032370626 	0.002712339714 	1.767464798e-07 	0.006026414919 	4.604677216e-07 	1.148802179e-05
0.9112022019 	0.006349440565 	0.002833494979 	1.586724133e-07 	0.006342250266 	4.216271221e-07 	1.209009174e-05
0.9215656407 	0.006644613418 	0.002944613611 	1.404319211e-07 	0.006636634709 	3.793318175e-07 	1.265127031e-05
0.9312413717 	0.006915694422 	0.003045459608 	1.228902383e-07 	0.006907227966 	3.359929418e-07 	1.316709627e-05
0.9402750304 	0.007160571031 	0.003135886623 	1.065041355e-07 	0.007151567639 	2.933886079e-07 	1.36328756e-05
0.9487092242 	0.00737628118 	0.003215561766 	9.147967449e-08 	0.007366934043 	2.527532449e-07 	1.404342382e-05
0.9565837329 	0.00755800011 	0.003287900391 	7.805750772e-08 	0.007548522607 	2.148618926e-07 	1.438958209e-05
0.9639356968 	0.007686029278 	0.003327930348 	6.652893084e-08 	0.007675827739 	1.824431634e-07 	1.463226106e-05
0.9688006083 	0.00775548311 	0.003342704695 	5.782858917e-08 	0.007744517892 	1.57858563e-07 	1.476320358e-05
0.9731064834 	0.007782857544 	0.003353865204 	5.142592646e-08 	0.007771577648 	1.386287602e-07 	1.4814787e-05
0.976917562 	0.00776933919 	0.003348013848 	4.598431854e-08 	0.007757645123 	1.22243191e-07 	1.478822773e-05
0.9802907021 	0.007706007561 	0.003323530893 	4.142981214e-08 	0.007693858806 	1.083467223e-07 	1.466663328e-05
0.9832762282 	0.007577726576 	0.003274301921 	3.762065783e-08 	0.007565230969 	9.66142097e-08 	1.442143287e-05
0.9859186816 	0.007358900912 	0.003189611034 	3.443717495e-08 	0.007345943551 	8.673093409e-08 	1.400341011e-05
0.9882574856 	0.007004934152 	0.003049902949 	3.176726922e-08 	0.006991246396 	7.835470853e-08 	1.332725875e-05
0.990327533 	0.00643564397 	0.002817605709 	2.944771047e-08 	0.006423261907 	7.103631138e-08 	1.224452245e-05
0.9921597073 	0.005512342035 	0.002427266694 	2.733440901e-08 	0.005503984 	6.38291936e-08 	1.049212326e-05
0.9937813429 	0.004122317226 	0.001777393021 	2.354354862e-08 	0.004116601781 	5.37996498e-08 	7.847387144e-06
0.9948347186 	0.002506659415 	0.0009859374976 	1.633223683e-08 	0.002502113713 	3.856446032e-08 	4.769724163e-06
0.9958880943 	0.001084872246 	0.0003477479509 	7.107804569e-09 	0.001082530299 	1.926703632e-08 	2.063603623e-06
0.9969414701 	0.0002519130944 	4.940423266e-05 	1.196525476e-09 	0.0002513988107 	4.886806032e-09 	4.792360059e-07
0.9979948458 	2.183851362e-05 	1.414094624e-06 	3.648006778e-11 	2.179721255e-05 	4.305644248e-10 	4.155154534e-08
0.9990482216 	2.913927831e-07 	2.121965062e-09 	5.487149839e-14 	2.908392363e-07 	5.747910602e-12 	5.544204189e-10
0.9990482216 	2.913927831e-07 	2.121965062e-09 	5.487149839e-14 	2.908392363e-07 	5.747910602e-12 	5.544204189e-10
