0.3524915403 	0.0591384685 	0.009473570647 	-3.023700805e-05
0.3536068642 	0.2285305865 	0.03595745208 	-0.000118310039
0.3547223496 	0.4468227554 	0.06988520339 	-0.0002331097459
0.3558378442 	0.640895444 	0.1002122295 	-0.0003363823775
0.3569531967 	0.79477868 	0.1240499345 	-0.000418381068
0.3580682569 	0.9210183861 	0.1433526718 	-0.0004867066803
0.35978394 	1.033333867 	0.160356111 	-0.0005527589491
0.361720438 	1.124965732 	0.1740087334 	-0.0006073996694
0.3639049575 	1.195746081 	0.1842016878 	-0.000646974122
0.3663674413 	1.249257926 	0.1913913539 	-0.0006540171466
0.36920096 	1.286657285 	0.1956829109 	-0.0006115151166
0.3724184949 	1.309376445 	0.1972563018 	-0.0005607511876
0.3760438857 	1.321356684 	0.1967841706 	-0.0005131296564
0.3801277765 	1.327330732 	0.195070955 	-0.0004691503842
0.3848143963 	1.330411369 	0.1925696992 	-0.0004242099993
0.3901331779 	1.332042903 	0.1891737223 	-0.0003769077585
0.3981914987 	1.332516854 	0.1846560333 	-0.0003140012617
0.4069277984 	1.331627243 	0.179395712 	-0.0002504077933
0.4163791821 	1.329446188 	0.1736544633 	-0.0001895063435
0.4265723647 	1.326163348 	0.1675116251 	-0.0001337760981
0.4375983103 	1.322113524 	0.1611006408 	-8.26572345e-05
0.4495688352 	1.31754299 	0.1544615503 	-3.620212487e-05
0.4609124074 	1.313159581 	0.1484582906 	-5.43389678e-05
0.4625033521 	1.312533838 	0.1476193912 	-4.474123341e-06
0.4764361663 	1.307054567 	0.1406068853 	-3.781053961e-05
0.4915177733 	1.301126612 	0.1334072687 	-6.562987455e-05
0.5078705597 	1.294724682 	0.1260333045 	-8.77127998e-05
0.5255559403 	1.287833424 	0.118510268 	-0.0001038625397
0.5446528007 	1.280432696 	0.1108633663 	-0.0001141552123
0.5653073198 	1.272488978 	0.1031087593 	-0.0001189218852
0.5875706324 	1.263957041 	0.0952712001 	-0.0001186120348
0.6115522574 	1.254761813 	0.08737353777 	-0.0001139440474
0.6373531822 	1.244785158 	0.07942461375 	-0.0001057659098
0.6650736862 	1.234051704 	0.07156300313 	-9.52119386e-05
0.6928473989 	1.222959513 	0.06418280441 	-8.382869111e-05
0.7188076063 	1.211926985 	0.05757161347 	-7.303648132e-05
0.7430616173 	1.200988333 	0.05169529396 	-6.334716907e-05
0.7657166274 	1.189994817 	0.04643310423 	-5.483094267e-05
0.7868765632 	1.178804957 	0.04169212282 	-4.742726796e-05
0.8066407466 	1.167285771 	0.03739823244 	-4.10269431e-05
0.825101173 	1.155311227 	0.03349166736 	-3.550592587e-05
0.8423446134 	1.142763914 	0.02992385812 	-3.073989556e-05
0.8584514973 	1.129543581 	0.02665502296 	-2.662260674e-05
0.8734970175 	1.115583143 	0.02365023185 	-2.307186738e-05
0.8875511498 	1.100877957 	0.02087774591 	-2.001205835e-05
0.900679109 	1.085494919 	0.01831105165 	-1.734155481e-05
0.9129417823 	1.069434281 	0.01592713596 	-1.502092881e-05
0.9243960038 	1.052472092 	0.01369928127 	-1.300939759e-05
0.9350948531 	1.034240954 	0.01160941422 	-1.119060859e-05
0.9450879208 	1.014292416 	0.009647586853 	-9.51690999e-06
0.954421548 	0.99352015 	0.007930214467 	-8.057459889e-06
0.9605997311 	0.9740058909 	0.006588245428 	-6.935746598e-06
0.9660692856 	0.9548624824 	0.005501373284 	-5.992232131e-06
0.9709113578 	0.9340020143 	0.004541993168 	-5.128190783e-06
0.9751978312 	0.9106696152 	0.003700603648 	-4.329079048e-06
0.9789923751 	0.8838426654 	0.002967856601 	-3.587260787e-06
0.9823513805 	0.8521190766 	0.002336023017 	-2.900553303e-06
0.9853247881 	0.8135306829 	0.001800393614 	-2.270980713e-06
0.987956823 	0.7652003585 	0.001362459416 	-1.70694275e-06
0.9902866465 	0.7026983637 	0.0009812449432 	-1.228222984e-06
0.9923489342 	0.6244998028 	0.0006307931328 	-8.562705001e-07
0.993688642 	0.5353991045 	0.0003724756033 	-5.744688121e-07
0.9950284246 	0.4288295319 	0.0002348276797 	-3.412278386e-07
0.9963682821 	0.2989884923 	0.0001416808314 	-1.549844545e-07
0.9977082144 	0.1544199811 	-1.949050103e-06 	2.982848721e-09
0.9990482216 	0.04442478694 	-5.299804193e-05 	4.588458888e-08
0.9990482216 	0.04442478694 	-5.299804193e-05 	4.588458888e-08
