0.4709558481 	0.0447391229 	-1.02177894e-05 	7.26088295e-10
0.4720092239 	0.1715274261 	-4.432032073e-05 	1.501252583e-09
0.4730625996 	0.3401750704 	-3.318114386e-05 	-3.760067658e-09
0.4741159754 	0.4962010534 	6.083879378e-05 	-1.235452381e-08
0.4751693511 	0.6245764752 	0.0001118756844 	-1.599866509e-08
0.4762227269 	0.7313056283 	6.7765121e-05 	-2.035287561e-08
0.4778443634 	0.8262671097 	3.56865282e-05 	-3.13365456e-08
0.4796765386 	0.9051244675 	7.837763677e-05 	-4.650884037e-08
0.4817465869 	0.9697076701 	0.0001424915602 	-6.391293549e-08
0.4840853915 	1.024907397 	0.0001955702197 	-8.452783829e-08
0.4867278453 	1.073693122 	0.0002538946893 	-1.097105562e-07
0.4897133715 	1.117945967 	0.0003232737955 	-1.403282301e-07
0.4930865115 	1.15890438 	0.0004064054646 	-1.772678708e-07
0.4968975894 	1.197402933 	0.0005053735781 	-2.214875432e-07
0.5012034633 	1.233997546 	0.0006246351708 	-2.736812549e-07
0.506068373 	1.272063127 	0.0007808323994 	-3.432271522e-07
0.5134203412 	1.312464692 	0.0009865858864 	-4.292971666e-07
0.5212948542 	1.350132336 	0.001226575802 	-5.174953095e-07
0.529729052 	1.38259692 	0.001479857593 	-6.078745552e-07
0.5387627144 	1.409667626 	0.001731607933 	-6.67929479e-07
0.5484384488 	1.430200979 	0.001946174622 	-6.435318885e-07
0.5588018907 	1.443432917 	0.002076936255 	-5.405304055e-07
0.5699019192 	1.450341483 	0.00211342277 	-4.259595439e-07
0.5817908876 	1.453057087 	0.002080810295 	-3.486558769e-07
0.5945248701 	1.453348862 	0.002005373222 	-2.991542898e-07
0.6081639266 	1.452121501 	0.001900700616 	-2.597690465e-07
0.6227723857 	1.449741361 	0.00177222269 	-2.248134063e-07
0.638419148 	1.446340801 	0.00162223677 	-1.908341284e-07
0.6551780116 	1.441946209 	0.001451771185 	-1.564905444e-07
0.6731280194 	1.436525723 	0.001261559684 	-1.212577497e-07
0.6923538328 	1.430003954 	0.001052509505 	-8.495014836e-08
0.7129461301 	1.422258337 	0.0008260060761 	-4.75019751e-08
0.7350020349 	1.413263578 	0.0005883456755 	-9.402933043e-09
0.7570579485 	1.403357297 	0.0003553596895 	2.783413153e-08
0.7776502527 	1.3929906 	0.0001419056515 	6.306325311e-08
0.7968760713 	1.382302884 	-4.73949546e-05 	9.654069823e-08
0.814826083 	1.371239622 	-0.0002124337223 	1.276866516e-07
0.831584949 	1.359718775 	-0.0003533724803 	1.573340538e-07
0.8472317127 	1.34762929 	-0.0004707251347 	1.863701979e-07
0.8618401721 	1.334800577 	-0.0005635950853 	2.173251004e-07
0.8754792281 	1.320955664 	-0.0006284852297 	2.591463465e-07
0.8882132094 	1.305736983 	-0.0006608590005 	3.074799046e-07
0.9001021759 	1.288808137 	-0.000659062877 	3.485026486e-07
0.9112022019 	1.269933483 	-0.0006263889896 	3.745722312e-07
0.9215656407 	1.248974416 	-0.0005721920575 	3.746984949e-07
0.9312413717 	1.225722262 	-0.0005054358666 	3.523575815e-07
0.9402750304 	1.199742327 	-0.0004297635569 	3.21011705e-07
0.9487092242 	1.170467607 	-0.0003475633716 	2.780174685e-07
0.9565837329 	1.137240496 	-0.0002683591218 	2.26851489e-07
0.9639356968 	1.10188668 	-0.0002022116962 	1.795933324e-07
0.9688006083 	1.068546383 	-0.0001512010142 	1.41593534e-07
0.9731064834 	1.036309789 	-0.0001136609435 	1.116757702e-07
0.976917562 	1.002187092 	-8.480612425e-05 	8.663221911e-08
0.9802907021 	0.9656360495 	-6.175887551e-05 	6.613796064e-08
0.9832762282 	0.9258626237 	-4.381344211e-05 	4.967679714e-08
0.9859186816 	0.8816935592 	-2.899115805e-05 	3.665382661e-08
0.9882574856 	0.8313487102 	-1.217258977e-05 	2.643291747e-08
0.990327533 	0.7720314769 	1.598253629e-05 	1.845647781e-08
0.9921597073 	0.6992113287 	1.800810114e-05 	1.241541948e-08
0.9937813429 	0.6117250696 	-3.568246177e-05 	8.137661662e-09
0.9948347186 	0.5151043868 	-6.472871616e-05 	5.258119168e-09
0.9958880943 	0.403725242 	-1.355177747e-05 	3.096645694e-09
0.9969414701 	0.2743026854 	3.663736118e-05 	1.354156199e-09
0.9979948458 	0.1378432308 	2.658314946e-05 	3.138101083e-10
0.9990482216 	0.0394447008 	5.239592959e-06 	7.342978243e-12
0.9990482216 	0.0394447008 	5.239592959e-06 	7.342978243e-12
