1.640171017e-35 	0.006805261752 	-4.728419426e-16 	-4.657339636e-19 	1.407999261e-15 	6.147457536e-17 	2.684037925e-18
0.001912604907 	0.006799340654 	-5.898262581e-05 	1.593398736e-08 	0.007758878729 	-1.355653673e-06 	1.479057933e-05
0.003825194192 	0.006799177274 	-0.0001353850503 	4.934743916e-08 	0.007794293822 	-1.352780437e-06 	1.485809034e-05
0.005737767794 	0.006806506227 	-0.0002021374209 	7.325111121e-08 	0.007800948549 	-1.336938498e-06 	1.48707761e-05
0.007650325701 	0.006811364172 	-0.000268954908 	9.627898523e-08 	0.007808846594 	-1.321787971e-06 	1.488583197e-05
0.00956286795 	0.006820120351 	-0.0003451693432 	1.217621411e-07 	0.007815007819 	-1.306182641e-06 	1.489757697e-05
0.01250713205 	0.006834692264 	-0.0004427501048 	1.525854645e-07 	0.007824454356 	-1.282151809e-06 	1.49155847e-05
0.01583360909 	0.00685676625 	-0.0005592223054 	1.876734814e-07 	0.007839214365 	-1.257411626e-06 	1.494372138e-05
0.01959191156 	0.00688776937 	-0.0006906432718 	2.248550532e-07 	0.00785964937 	-1.23174702e-06 	1.498267618e-05
0.02385649769 	0.006930408124 	-0.0008387895226 	2.63507217e-07 	0.007887542797 	-1.203563601e-06 	1.50358488e-05
0.02867914987 	0.006987980018 	-0.001005354887 	3.029747558e-07 	0.007924977401 	-1.174661157e-06 	1.510720956e-05
0.03412783817 	0.007064394465 	-0.001192092491 	3.422902793e-07 	0.00797446202 	-1.145202352e-06 	1.5201541e-05
0.04028381842 	0.007164423348 	-0.001401008302 	3.801897441e-07 	0.00803904747 	-1.114665684e-06 	1.532465882e-05
0.04727081711 	0.007293607681 	-0.00163421724 	4.145800868e-07 	0.008122201919 	-1.080423851e-06 	1.548317431e-05
0.05516671354 	0.007457736327 	-0.001893016925 	4.433102606e-07 	0.008227522819 	-1.042552555e-06 	1.568394522e-05
0.0641017149 	0.007683944373 	-0.002204883104 	4.686819389e-07 	0.008371707765 	-1.002619984e-06 	1.59588018e-05
0.07764239172 	0.008000996039 	-0.00259042684 	4.691102539e-07 	0.008572390159 	-9.198427603e-07 	1.634135822e-05
0.09218964228 	0.008385483671 	-0.003008480177 	4.476566298e-07 	0.008812492413 	-8.191405108e-07 	1.679905985e-05
0.1078092542 	0.008802137465 	-0.003422223442 	3.966661426e-07 	0.009065112512 	-6.890050614e-07 	1.728062397e-05
0.1245847907 	0.009228330863 	-0.003820504391 	3.161504299e-07 	0.009309844287 	-5.263159942e-07 	1.774715075e-05
0.1426038343 	0.009632581546 	-0.00418832939 	2.088292349e-07 	0.009518343188 	-3.343729669e-07 	1.81446076e-05
0.1619584402 	0.009973051892 	-0.004505906968 	8.167898878e-08 	0.009653536681 	-1.255560429e-07 	1.840232398e-05
0.17459936 	0.01010879467 	-0.004652820694 	5.156525096e-06 	0.009663209387 	-1.862440172e-05 	1.842076284e-05
0.1827456333 	0.01019627241 	-0.004747502859 	5.282791392e-08 	0.00966937204 	-7.763483748e-08 	1.843251057e-05
0.2050679472 	0.0102364011 	-0.004880321035 	1.713495616e-07 	0.009511741184 	-2.358598322e-07 	1.813202235e-05
0.229034003 	0.01001707008 	-0.004864623351 	2.390419907e-07 	0.009122816615 	-2.972096052e-07 	1.739062402e-05
0.2547591248 	0.009460228338 	-0.004656654816 	2.12791332e-07 	0.008450767847 	-2.205478509e-07 	1.610951229e-05
0.2823668212 	0.008505398498 	-0.004215294319 	6.664754041e-08 	0.0074763815 	1.077470346e-09 	1.425206109e-05
0.3119969157 	0.007191253377 	-0.003543866126 	-1.526055538e-07 	0.006247249517 	2.814304984e-07 	1.190899391e-05
0.3437800877 	0.005696114793 	-0.002731027375 	-3.119031332e-07 	0.004931079874 	4.102398238e-07 	9.400008762e-06
0.3778714604 	0.004303029861 	-0.001934640615 	-2.967799242e-07 	0.003769515228 	2.771554923e-07 	7.185743707e-06
0.4144274988 	0.003243614571 	-0.001275261763 	-1.582909019e-07 	0.002915211662 	3.610998035e-08 	5.557203669e-06
0.4536170638 	0.002567480643 	-0.0007552226782 	-2.584826896e-08 	0.002382137825 	-1.164718194e-07 	4.541016775e-06
0.4956212291 	0.002248466954 	-0.0003083106226 	5.172943416e-08 	0.002137864307 	-1.433507843e-07 	4.075363557e-06
0.5376461177 	0.002253223827 	0.0001165805975 	8.855811144e-08 	0.002144693673 	-1.042680079e-07 	4.088382228e-06
0.5768947117 	0.002504473053 	0.0005276134738 	1.103973199e-07 	0.00233482985 	-4.362093677e-08 	4.450834627e-06
0.6135457513 	0.002914099043 	0.0009230436649 	1.351555501e-07 	0.002646551808 	2.792570568e-08 	5.045063318e-06
0.6477684763 	0.003421425659 	0.001306271953 	1.659330892e-07 	0.003042490639 	1.097696236e-07 	5.799832775e-06
0.6797223209 	0.003988502341 	0.001679035569 	1.937797492e-07 	0.003498135812 	1.972381882e-07 	6.668419115e-06
0.7095570023 	0.004588694322 	0.002039279835 	2.045590338e-07 	0.003994617099 	2.765836709e-07 	7.614850437e-06
0.7374124644 	0.005197970237 	0.002380745976 	1.855840335e-07 	0.004513638427 	3.262147121e-07 	8.604249342e-06
0.7634198193 	0.005790803772 	0.002694109344 	1.30184073e-07 	0.005034389379 	3.237667537e-07 	9.596945393e-06
0.7877015329 	0.006339864786 	0.002968756277 	3.910553643e-08 	0.005533003672 	2.543620106e-07 	1.054744282e-05
0.8103720244 	0.006817957923 	0.003194477655 	-8.023575302e-08 	0.005984150442 	1.158824305e-07 	1.140745395e-05
0.8315381713 	0.007200912468 	0.003362823011 	-2.1564988e-07 	0.006363769392 	-7.983157138e-08 	1.213111318e-05
0.851299777 	0.007470421345 	0.003468132975 	-3.521663053e-07 	0.006651899461 	-3.09693268e-07 	1.268036917e-05
0.8697500334 	0.007616061018 	0.00350827972 	-4.741010484e-07 	0.006834785058 	-5.446334026e-07 	1.302899995e-05
0.8869759541 	0.007635999353 	0.003485021956 	-5.672261265e-07 	0.00690566452 	-7.556315599e-07 	1.316411591e-05
0.9030587819 	0.007535936789 	0.003403862938 	-6.207489777e-07 	0.006864483464 	-9.186638984e-07 	1.308561337e-05
0.9180743698 	0.007327460713 	0.003275668153 	-6.28192399e-07 	0.00671550203 	-1.017671674e-06 	1.280161335e-05
0.9320935383 	0.007043332652 	0.003112412529 	-5.960107343e-07 	0.0064859291 	-1.045070313e-06 	1.236398353e-05
0.9413702454 	0.00675103084 	0.002954081194 	-5.412964479e-07 	0.006234250275 	-1.019153699e-06 	1.188421374e-05
0.9495809481 	0.006468603392 	0.002815812168 	-4.747122893e-07 	0.005978218851 	-9.627184545e-07 	1.139614669e-05
0.9568481429 	0.006177576529 	0.002681449695 	-4.016160496e-07 	0.005706542594 	-8.819582052e-07 	1.087825623e-05
0.9632802503 	0.005881021845 	0.002553587452 	-3.271040813e-07 	0.005423310839 	-7.827335818e-07 	1.033833779e-05
0.9689732317 	0.005578036229 	0.002431530272 	-2.554430576e-07 	0.005129563034 	-6.698423898e-07 	9.778372831e-06
0.9740120216 	0.005263138659 	0.002311754851 	-1.899351551e-07 	0.004821994444 	-5.477115291e-07 	9.192061615e-06
0.9784717943 	0.004923366612 	0.002186345466 	-1.329234227e-07 	0.004489910358 	-4.212748924e-07 	8.559017048e-06
0.9824190858 	0.004529568091 	0.002038892697 	-8.565233747e-08 	0.004110155482 	-2.972128252e-07 	7.835098708e-06
0.9859127864 	0.004022080448 	0.00184689768 	-4.932086789e-08 	0.003629234471 	-1.846735487e-07 	6.918329596e-06
0.9890050191 	0.003278195712 	0.001516582766 	-2.325939737e-08 	0.002951880474 	-9.946340874e-08 	5.627104616e-06
0.9910136596 	0.002283257765 	0.001025019119 	-6.342965585e-09 	0.002068572772 	-4.597198034e-08 	3.943274634e-06
0.9930223001 	0.001112260202 	0.0004500882466 	8.341746899e-10 	0.001025433917 	-1.507492508e-08 	1.95476205e-06
0.9950309406 	0.00025907506 	7.484331297e-05 	1.008406151e-09 	0.0002485713149 	-2.413412711e-09 	4.73846013e-07
0.9970395811 	1.696416059e-05 	1.618186692e-06 	3.830099707e-11 	1.68642258e-05 	-1.334512156e-10 	3.214790154e-08
0.9990482216 	1.201850347e-07 	9.649296608e-10 	3.030530534e-14 	1.19953897e-07 	-7.077650775e-13 	2.286654671e-10
0.9990482216 	1.201850347e-07 	9.649296608e-10 	3.030530534e-14 	1.19953897e-07 	-7.077650775e-13 	2.286654671e-10
