0.4709558481 	4.520216114e-07 	-4.10858982e-09 	3.253841197e-13 	4.511635718e-07 	-2.478644587e-11 	8.600431623e-10
0.4709558481 	4.520216114e-07 	-4.10858982e-09 	3.253841197e-13 	4.511635718e-07 	-2.478644587e-11 	8.600431623e-10
0.4720092239 	3.711624242e-05 	-2.966718719e-06 	2.312793952e-10 	3.704486112e-05 	-2.034160596e-09 	7.061780138e-08
0.4730625996 	0.0004221172219 	-9.696426738e-05 	6.807171278e-09 	0.0004211802571 	-2.248909378e-08 	8.02886631e-07
0.4741159754 	0.001713380983 	-0.0005987489036 	3.315358139e-08 	0.001709443326 	-7.939959988e-08 	3.258674095e-06
0.4751693511 	0.003664311301 	-0.001504551582 	6.399250424e-08 	0.003657114514 	-1.387503459e-07 	6.971476705e-06
0.4762227269 	0.005591071049 	-0.00245011551 	7.8089789e-08 	0.005580823316 	-1.663068513e-07 	1.063860035e-05
0.4778443634 	0.007072456132 	-0.003132954649 	7.781978467e-08 	0.007055393159 	-1.651801056e-07 	1.344954031e-05
0.4796765386 	0.007934682176 	-0.003489101194 	6.871946548e-08 	0.007909229055 	-1.421611301e-07 	1.507718883e-05
0.4817465869 	0.008371818793 	-0.00366874605 	5.529775868e-08 	0.00834116071 	-1.051259873e-07 	1.590057062e-05
0.4840853915 	0.008541531772 	-0.003737439897 	3.693332537e-08 	0.008506595529 	-5.461339778e-08 	1.621593536e-05
0.4867278453 	0.008526888674 	-0.003732177626 	1.277714997e-08 	0.008486095144 	1.05799916e-08 	1.617685593e-05
0.4897133715 	0.008369641281 	-0.003670449666 	-1.816309577e-08 	0.008322098553 	9.237919366e-08 	1.586423285e-05
0.4930865115 	0.00809002884 	-0.003559860541 	-5.718846367e-08 	0.008035256234 	1.930293844e-07 	1.531743166e-05
0.4968975894 	0.007696545382 	-0.003402655222 	-1.057389673e-07 	0.007634227639 	3.143948593e-07 	1.45529597e-05
0.5012034633 	0.007191546895 	-0.003197261989 	-1.646633139e-07 	0.007121747432 	4.565794541e-07 	1.357602999e-05
0.506068373 	0.00651657895 	-0.002926448566 	-2.390664266e-07 	0.006440152885 	6.30749835e-07 	1.227672135e-05
0.5134203412 	0.005612743918 	-0.002550941669 	-3.387117773e-07 	0.005532129012 	8.308198213e-07 	1.054577547e-05
0.5212948542 	0.00459309447 	-0.002080792933 	-4.639081705e-07 	0.004513204934 	9.767506689e-07 	8.603422985e-06
0.529729052 	0.003631754916 	-0.001578012663 	-5.446542455e-07 	0.003559675373 	9.739692654e-07 	6.785730622e-06
0.5387627144 	0.002845995125 	-0.001109329722 	-5.199531445e-07 	0.002788835049 	7.907183431e-07 	5.31629472e-06
0.5484384488 	0.002315938401 	-0.0007254886324 	-4.218701841e-07 	0.002278056182 	4.879939681e-07 	4.342608236e-06
0.5588018907 	0.002034680024 	-0.0004345688669 	-3.292244862e-07 	0.002016850165 	2.02738106e-07 	3.844676969e-06
0.5699019192 	0.001922719239 	-0.000207804694 	-2.724712828e-07 	0.001924030579 	2.342255256e-08 	3.66773704e-06
0.5817908876 	0.001899641873 	-1.67965068e-05 	-2.258946826e-07 	0.001918702963 	-6.310816295e-08 	3.657581124e-06
0.5945248701 	0.001916596767 	0.0001460841503 	-1.883914714e-07 	0.001951576798 	-1.003156037e-07 	3.720247789e-06
0.6081639266 	0.001951576858 	0.000287684023 	-1.604786992e-07 	0.002000643427 	-1.147997061e-07 	3.813782421e-06
0.6227723857 	0.00199484382 	0.0004132230274 	-1.371364589e-07 	0.002056139181 	-1.170382162e-07 	3.919572753e-06
0.638419148 	0.002041382614 	0.0005251512923 	-1.153951407e-07 	0.002113041036 	-1.10968586e-07 	4.028043504e-06
0.6551780116 	0.002088448834 	0.0006248389314 	-9.379852275e-08 	0.002168507152 	-9.839306414e-08 	4.133777337e-06
0.6731280194 	0.00213485445 	0.0007134610593 	-7.177339633e-08 	0.00222119014 	-8.04620985e-08 	4.234205755e-06
0.6923538328 	0.002180950009 	0.0007925250086 	-4.923359911e-08 	0.002271250194 	-5.818293189e-08 	4.329634132e-06
0.7129461301 	0.002228915496 	0.0008642383858 	-2.636370797e-08 	0.002320671237 	-3.257505161e-08 	4.423844375e-06
0.7350020349 	0.002282239131 	0.0009306098172 	-3.745017765e-09 	0.002372800594 	-5.027862771e-09 	4.523217419e-06
0.7570579485 	0.002343815282 	0.0009924835335 	1.768706444e-08 	0.002430730077 	2.266586575e-08 	4.633647113e-06
0.7776502527 	0.002415547585 	0.001051511835 	3.779767636e-08 	0.002496946932 	4.994466807e-08 	4.759874843e-06
0.7968760713 	0.002499826235 	0.001110863773 	5.758890596e-08 	0.002574336755 	7.842849183e-08 	4.907401355e-06
0.814826083 	0.002599520278 	0.00117355183 	7.803168015e-08 	0.002666012952 	1.109141005e-07 	5.082161667e-06
0.831584949 	0.002717681471 	0.001242002454 	9.919173102e-08 	0.002775157155 	1.501252185e-07 	5.290220852e-06
0.8472317127 	0.00285794301 	0.001318206281 	1.191046731e-07 	0.002905581813 	1.978750127e-07 	5.538846501e-06
0.8618401721 	0.003024785489 	0.001404703371 	1.453615781e-07 	0.003061868811 	2.548724732e-07 	5.836772956e-06
0.8754792281 	0.003224153875 	0.001502599422 	1.683687274e-07 	0.003249278544 	3.21722245e-07 	6.194027995e-06
0.8882132094 	0.003463463669 	0.001613398193 	1.936842768e-07 	0.003474416026 	4.026357496e-07 	6.623202609e-06
0.9001021759 	0.003749685307 	0.001743032936 	2.351357719e-07 	0.003745109914 	4.959883514e-07 	7.139220396e-06
0.9112022019 	0.004086184967 	0.001896019695 	2.760052316e-07 	0.004066913764 	5.868159064e-07 	7.752667974e-06
0.9215656407 	0.004469986564 	0.002071691712 	3.059657075e-07 	0.004439091637 	6.554693951e-07 	8.462142441e-06
0.9312413717 	0.004891943287 	0.002265302485 	3.031519865e-07 	0.004853476251 	6.875386914e-07 	9.252074687e-06
0.9402750304 	0.005339466907 	0.002457255572 	2.74618724e-07 	0.005296609692 	6.809914704e-07 	1.009681019e-05
0.9487092242 	0.005797752571 	0.002640288848 	2.450273219e-07 	0.005753450917 	6.391223183e-07 	1.096767654e-05
0.9565837329 	0.006245792538 	0.002820084789 	2.076241696e-07 	0.006203253825 	5.631025755e-07 	1.182512589e-05
0.9639356968 	0.00662540814 	0.002958161983 	1.639589798e-07 	0.006586454051 	4.673880873e-07 	1.255561203e-05
0.9688006083 	0.006895551679 	0.0030482044 	1.266592133e-07 	0.006860673483 	3.775194857e-07 	1.307835048e-05
0.9731064834 	0.007082058364 	0.00311488699 	9.695340233e-08 	0.00705136855 	2.996687353e-07 	1.344186828e-05
0.976917562 	0.007203083981 	0.003154649355 	7.190966931e-08 	0.007176237448 	2.301299288e-07 	1.367990311e-05
0.9802907021 	0.007251244464 	0.003166852098 	5.154280129e-08 	0.007227728535 	1.705398412e-07 	1.377805943e-05
0.9832762282 	0.007213812555 	0.003146862486 	3.538849733e-08 	0.007193140176 	1.211819931e-07 	1.371212441e-05
0.9859186816 	0.007067873155 	0.003085261589 	2.289292949e-08 	0.007049328735 	8.156259772e-08 	1.343797983e-05
0.9882574856 	0.006771504806 	0.002963593839 	1.35040218e-08 	0.006754286859 	5.081420862e-08 	1.287554801e-05
0.990327533 	0.006247364702 	0.002745495981 	6.5679299e-09 	0.006232965715 	2.790436955e-08 	1.188176502e-05
0.9921597073 	0.005360350085 	0.002366327488 	1.673130034e-09 	0.005350921727 	1.187148461e-08 	1.020034402e-05
0.9937813429 	0.00400419348 	0.001728660738 	-1.236862032e-09 	0.003997998607 	2.501093617e-09 	7.621296531e-06
0.9948347186 	0.002426311671 	0.0009540061799 	-2.112388952e-09 	0.002421665913 	-1.334888591e-09 	4.616368297e-06
0.9958880943 	0.001046040697 	0.0003344144941 	-1.268558503e-09 	0.001043728627 	-1.560402727e-09 	1.989636852e-06
0.9969414701 	0.0002422368367 	4.723547608e-05 	-2.579622938e-10 	0.0002417385045 	-5.028531605e-10 	4.608207773e-07
0.9979948458 	2.098827738e-05 	1.349101355e-06 	-8.548170943e-12 	2.094850792e-05 	-4.557098447e-11 	3.993367843e-08
0.9990482216 	2.800407143e-07 	2.024899555e-09 	-1.339209881e-14 	2.795086577e-07 	-6.072732596e-13 	5.328211869e-10
0.9990482216 	2.800407143e-07 	2.024899555e-09 	-1.339209881e-14 	2.795086577e-07 	-6.072732596e-13 	5.328211869e-10
