0.4709558481 	4.406509786e-07 	-3.960662509e-09 	3.180951196e-13 	4.398145128e-07 	-2.455947867e-11 	8.384087014e-10
0.4720092239 	3.618292313e-05 	-2.861526332e-06 	2.262944013e-10 	3.611346694e-05 	-2.015565914e-09 	6.88423052e-08
0.4730625996 	0.0004117827786 	-9.385972141e-05 	6.695348193e-09 	0.0004108758873 	-2.231306179e-08 	7.832436383e-07
0.4741159754 	0.001676768334 	-0.000583553019 	3.292047662e-08 	0.001672954612 	-7.92231312e-08 	3.189116465e-06
0.4751693511 	0.003600062881 	-0.001475098379 	6.404736226e-08 	0.003593129011 	-1.39350451e-07 	6.849502553e-06
0.4762227269 	0.005513520704 	-0.002414026397 	7.876593974e-08 	0.005503816395 	-1.683064582e-07 	1.049180376e-05
0.4778443634 	0.00699449185 	-0.003096832294 	7.915084811e-08 	0.006978467586 	-1.689553823e-07 	1.330289878e-05
0.4796765386 	0.00786613408 	-0.003456966324 	7.088475804e-08 	0.007842306457 	-1.483205867e-07 	1.494961576e-05
0.4817465869 	0.008318853325 	-0.003642508321 	5.86322707e-08 	0.008290488625 	-1.144929874e-07 	1.580397554e-05
0.4840853915 	0.008509948601 	-0.003719270862 	4.188277281e-08 	0.008478118419 	-6.824503847e-08 	1.616165008e-05
0.4867278453 	0.008522997707 	-0.003724605568 	1.993901514e-08 	0.008486246737 	-8.633318756e-09 	1.617714491e-05
0.4897133715 	0.008400626437 	-0.003676424989 	-8.049067151e-09 	0.008358125643 	6.600255491e-08 	1.59329105e-05
0.4930865115 	0.008164115866 	-0.003582882596 	-4.320085734e-08 	0.00811537689 	1.577430926e-07 	1.54701639e-05
0.4968975894 	0.007822924209 	-0.003446831214 	-8.681149858e-08 	0.007767514308 	2.68625877e-07 	1.480704114e-05
0.5012034633 	0.007379856485 	-0.003267056992 	-1.398048103e-07 	0.007317586247 	4.001257389e-07 	1.39493532e-05
0.506068373 	0.006782504311 	-0.003029728866 	-2.116185681e-07 	0.006713541783 	5.658726183e-07 	1.279787657e-05
0.5134203412 	0.005971464669 	-0.002696178135 	-2.981498818e-07 	0.0058971329 	7.674553086e-07 	1.124157433e-05
0.5212948542 	0.005028770872 	-0.002280997137 	-4.129420438e-07 	0.004952637535 	9.504234123e-07 	9.441103655e-06
0.529729052 	0.004087147401 	-0.001823699014 	-5.316929977e-07 	0.004014687052 	1.030808599e-06 	7.653109346e-06
0.5387627144 	0.003242920625 	-0.001356298942 	-5.725576604e-07 	0.003180450551 	9.531946873e-07 	6.062822711e-06
0.5484384488 	0.002588071664 	-0.0009376505958 	-5.238453069e-07 	0.002541109399 	7.137891776e-07 	4.844060779e-06
0.5588018907 	0.002171094304 	-0.0006008337555 	-4.191644897e-07 	0.002142607504 	4.02086309e-07 	4.08440541e-06
0.5699019192 	0.001962953225 	-0.0003402028724 	-3.284086459e-07 	0.001953367819 	1.448216604e-07 	3.723661974e-06
0.5817908876 	0.001887753169 	-0.000128180755 	-2.768335102e-07 	0.00189631457 	-8.97997647e-09 	3.614902623e-06
0.5945248701 	0.001880910931 	5.25911119e-05 	-2.319867717e-07 	0.001906084844 	-8.19450876e-08 	3.633527481e-06
0.6081639266 	0.001906046077 	0.0002084385285 	-1.94608138e-07 	0.001945877083 	-1.133278676e-07 	3.70938255e-06
0.6227723857 	0.001946705914 	0.0003456737262 	-1.64848147e-07 	0.001999261709 	-1.239277922e-07 	3.811148483e-06
0.638419148 	0.001995224872 	0.0004683327978 	-1.381526441e-07 	0.002058567511 	-1.219209038e-07 	3.924201826e-06
0.6551780116 	0.002047649582 	0.0005785470763 	-1.123981862e-07 	0.002119793429 	-1.107744652e-07 	4.040915442e-06
0.6731280194 	0.00210210227 	0.0006778393358 	-8.656545725e-08 	0.002180951856 	-9.228449998e-08 	4.157500402e-06
0.6923538328 	0.002158412302 	0.0007678267494 	-6.017120522e-08 	0.002241715304 	-6.763460499e-08 	4.273332422e-06
0.7129461301 	0.002218314535 	0.0008507115275 	-3.294676014e-08 	0.002303620251 	-3.773849142e-08 	4.391340457e-06
0.7350020349 	0.002284777792 	0.0009283171937 	-5.045430379e-09 	0.002369432119 	-3.692672997e-09 	4.516796169e-06
0.7570579485 	0.002360039039 	0.001001071326 	2.260713614e-08 	0.002441471286 	3.287928646e-08 	4.654122842e-06
0.7776502527 	0.002445842455 	0.001070466714 	4.93295047e-08 	0.002521989977 	7.128908643e-08 	4.807613847e-06
0.7968760713 	0.002545305893 	0.001139960592 	7.534783613e-08 	0.002614624733 	1.130044655e-07 	4.984201439e-06
0.814826083 	0.002662383142 	0.001212805323 	1.009259103e-07 	0.00272366893 	1.602439103e-07 	5.192069985e-06
0.831584949 	0.002801094454 	0.001291544268 	1.250961643e-07 	0.002853430707 	2.149491676e-07 	5.439431998e-06
0.8472317127 	0.002966008393 	0.001378852012 	1.574739258e-07 	0.003008450256 	2.783311386e-07 	5.734942344e-06
0.8618401721 	0.003162989429 	0.001475899638 	1.822962295e-07 	0.003193745432 	3.513082916e-07 	6.08816645e-06
0.8754792281 	0.00339903119 	0.001584861332 	2.088149224e-07 	0.003415686129 	4.383834824e-07 	6.511247103e-06
0.8882132094 	0.003680173597 	0.001712023466 	2.54369689e-07 	0.003681455059 	5.36828374e-07 	7.017876549e-06
0.9001021759 	0.004008483621 	0.001861284388 	2.965151669e-07 	0.003995310355 	6.300189495e-07 	7.616171976e-06
0.9112022019 	0.004379816133 	0.002031210536 	3.270480142e-07 	0.004355162921 	6.995963951e-07 	8.302150983e-06
0.9215656407 	0.004784508663 	0.002217547228 	3.406942733e-07 	0.004752265227 	7.332071144e-07 	9.059138346e-06
0.9312413717 	0.005210986619 	0.002403507612 	3.103981028e-07 	0.005174202009 	7.284205388e-07 	9.863467125e-06
0.9402750304 	0.005647962373 	0.002579592218 	2.668192134e-07 	0.005608628783 	6.913917641e-07 	1.06916053e-05
0.9487092242 	0.006080841775 	0.002749289251 	2.336881806e-07 	0.006041508947 	6.241005274e-07 	1.15167952e-05
0.9565837329 	0.006489572078 	0.00291040531 	1.886367789e-07 	0.006452895742 	5.295528956e-07 	1.230101277e-05
0.9639356968 	0.006824341288 	0.003028909261 	1.455513518e-07 	0.006791248408 	4.278116674e-07 	1.2946007e-05
0.9688006083 	0.007054560768 	0.003102660213 	1.113362203e-07 	0.007025003215 	3.405226446e-07 	1.339160863e-05
0.9731064834 	0.007207481231 	0.00315659157 	8.541696475e-08 	0.007181355455 	2.685646674e-07 	1.368965945e-05
0.976917562 	0.007299085675 	0.003185679454 	6.404943709e-08 	0.007275946988 	2.063238071e-07 	1.38699772e-05
0.9802907021 	0.00732236895 	0.00318923431 	4.68985422e-08 	0.007301715734 	1.541235807e-07 	1.39190996e-05
0.9832762282 	0.007264508097 	0.003162390928 	3.335851565e-08 	0.007245936693 	1.114702485e-07 	1.381276924e-05
0.9859186816 	0.00710224692 	0.003095476863 	2.285162272e-08 	0.007085161431 	7.746813194e-08 	1.350628691e-05
0.9882574856 	0.006793225284 	0.002969796179 	1.487094387e-08 	0.00677695631 	5.10924615e-08 	1.291876228e-05
0.990327533 	0.006259629167 	0.002748712555 	8.875392346e-09 	0.006245803374 	3.130530125e-08 	1.190623716e-05
0.9921597073 	0.005365948805 	0.002367417543 	4.538607739e-09 	0.005356833102 	1.71599145e-08 	1.021161275e-05
0.9937813429 	0.004005824072 	0.001728445594 	1.637791541e-09 	0.003999770878 	8.171040372e-09 	7.624674973e-06
0.9948347186 	0.002426187468 	0.0009533146798 	5.695546649e-11 	0.002421591946 	3.197503464e-09 	4.616227295e-06
0.9958880943 	0.00104560526 	0.0003339622307 	-2.799244091e-10 	0.00104330634 	8.275598542e-10 	1.988831857e-06
0.9969414701 	0.0002420818177 	4.714007827e-05 	-8.628084961e-11 	0.0002415850443 	1.161250008e-10 	4.605282395e-07
0.9979948458 	2.097415541e-05 	1.345894881e-06 	-3.240572178e-12 	2.093443305e-05 	9.090961634e-12 	3.990684781e-08
0.9990482216 	2.798529023e-07 	2.019842294e-09 	-5.3536907e-15 	2.793212113e-07 	1.222227926e-13 	5.32463862e-10
0.9990482216 	2.798529023e-07 	2.019842294e-09 	-5.3536907e-15 	2.793212113e-07 	1.222227926e-13 	5.32463862e-10
