0.29896907 	0.0002350221 	-2.8870431e-05 	-1.7577779e-08 	0.00020863055 	5.7475717e-08 	0.00020894406
0.30927835 	0.0044740249 	-0.0012294782 	-5.5103233e-07 	0.003504973 	4.6444982e-07 	0.0022463943
0.31958763 	0.0032067872 	-0.00060575968 	-1.4564727e-06 	0.0034317789 	-6.2276727e-06 	2.2947516e-05
0.32989691 	0.0029936912 	-0.0003083865 	5.1404986e-07 	0.0040351492 	7.7426518e-07 	0.00092655595
0.34020619 	0.0028178991 	-9.703363e-05 	-2.4263902e-07 	0.0043868245 	-1.0405232e-06 	0.00031972129
0.35051546 	0.0026804796 	3.9047242e-05 	5.7109555e-07 	0.0044771391 	-6.0540821e-07 	0.00035197392
0.36082474 	0.0025594376 	0.00013552774 	6.3666896e-07 	0.0044486338 	-1.9596839e-06 	0.00012949136
0.37113402 	0.002463305 	0.00019672182 	2.8056137e-07 	0.0043720865 	-1.9756803e-06 	0.00010275589
0.3814433 	0.0023846652 	0.00023441553 	3.0402162e-08 	0.0042876726 	-5.7677225e-07 	0.00031122369
0.39175258 	0.002318064 	0.00025359444 	4.1366749e-07 	0.0042040024 	-2.9939732e-08 	3.2654587e-05
0.40206186 	0.0022602594 	0.00027207487 	6.6176233e-09 	0.0041337311 	-3.4297911e-07 	0.00069094499
0.41237113 	0.0022063834 	0.00028675679 	3.2834297e-08 	0.0040637164 	-2.369966e-06 	0.00085573134
0.42268041 	0.0021573932 	0.00030058519 	1.8228071e-07 	0.0039988409 	2.2216176e-09 	0.00085560106
0.43298969 	0.002115391 	0.00031354066 	1.0151226e-06 	0.0039420779 	3.6161298e-08 	0.00032388513
0.44329897 	0.002079889 	0.00032888332 	2.0091549e-08 	0.0039024039 	-8.4924946e-07 	0.001300576
0.45360825 	0.0020486423 	0.0003417145 	1.0731597e-06 	0.0038609944 	4.6021845e-08 	0.00055553351
0.46391753 	0.0020230987 	0.00035631016 	7.2888381e-07 	0.0038343684 	2.6051618e-08 	0.00096206834
0.4742268 	0.0020010204 	0.00037051642 	8.0831755e-07 	0.0038113061 	2.8890723e-08 	0.0010202341
0.48453608 	0.0019825839 	0.00038415186 	1.2941544e-06 	0.0037920246 	2.4579269e-08 	0.00064572573
0.49484536 	0.0019669877 	0.00039944961 	5.6608523e-07 	0.0037813336 	1.0751392e-08 	0.0011830183
0.50515464 	0.0019538334 	0.00041326272 	1.0679802e-06 	0.0037690453 	-4.0179764e-09 	0.00063293238
0.51546392 	0.0019429448 	0.00042895922 	4.7414289e-07 	0.0037648373 	-1.7838298e-09 	0.001084708
0.5257732 	0.0019337463 	0.00044407469 	5.8152948e-07 	0.0037593866 	-1.7499679e-08 	0.00089218019
0.53608247 	0.001926698 	0.00045985304 	6.6641901e-07 	0.0037573856 	-2.0054217e-08 	0.00075101624
0.54639175 	0.001920523 	0.00047705726 	1.2383897e-08 	0.0037585621 	-1.7231194e-07 	0.0013035649
0.55670103 	0.001917071 	0.00049306976 	1.0710457e-06 	0.0037560626 	-6.2385911e-08 	0.00020472108
0.56701031 	0.0019142191 	0.00051245558 	1.0715378e-07 	0.0037626114 	-9.7218046e-07 	0.001209096
0.57731959 	0.0019133434 	0.00053076004 	5.3437913e-07 	0.0037633374 	-4.5064158e-08 	0.00059594386
0.58762887 	0.0019137522 	0.00055117188 	2.3272967e-07 	0.0037693927 	-1.9626078e-08 	0.00088983741
0.59793814 	0.0019157608 	0.00057231134 	1.4736481e-07 	0.0037745692 	-9.0654374e-07 	0.0010966919
0.60824742 	0.0019200471 	0.00059389746 	7.8654254e-07 	0.0037769923 	-7.8511961e-08 	0.00014274964
0.6185567 	0.0019247668 	0.00061793917 	8.3563257e-08 	0.0037863559 	-3.8024425e-07 	0.0010645964
0.62886598 	0.0019319353 	0.00064167776 	1.4464214e-07 	0.0037920095 	-6.5817617e-07 	0.0010352901
0.63917526 	0.0019414883 	0.00066659463 	7.3623906e-07 	0.003795426 	-6.0817877e-08 	1.3250092e-05
0.64948454 	0.0019518296 	0.00069441514 	2.0570361e-07 	0.0038056208 	-7.0998301e-07 	0.0010367678
0.65979381 	0.00196463 	0.00072139442 	1.4386081e-07 	0.003812525 	-4.9653349e-07 	0.0010208337
0.67010309 	0.0019801313 	0.0007499999 	5.0957732e-07 	0.0038171392 	1.7374119e-09 	0.00016929777
0.68041237 	0.0019978543 	0.00078172192 	3.8880262e-07 	0.0038275819 	-1.0256691e-06 	0.0010524642
0.69072165 	0.0020176683 	0.00081269826 	6.3848074e-09 	0.0038356658 	1.4996724e-09 	0.001035514
0.70103093 	0.0020411526 	0.00084636281 	1.7738395e-07 	0.0038421664 	4.1664188e-08 	0.0007217881
0.71134021 	0.0020702619 	0.00087775806 	4.1918124e-07 	0.0038487124 	-1.2401511e-06 	0.0011092038
0.72164948 	0.0021050153 	0.00090515098 	3.6317819e-07 	0.0038471691 	2.1677151e-07 	0.00028935704
0.73195876 	0.0021444549 	0.0009330611 	1.5219319e-07 	0.0038497794 	-6.7338498e-07 	0.0011913462
0.74226804 	0.0021883584 	0.00095793674 	4.1645852e-08 	0.0038505155 	3.6984775e-08 	0.0011056065
0.75257732 	0.0022372052 	0.00098120332 	5.2663371e-08 	0.003851709 	4.6769194e-08 	0.0011559262
0.7628866 	0.002289672 	0.0010031741 	6.3804602e-08 	0.003857228 	-3.6795711e-07 	0.0013148358
0.77319588 	0.0023460473 	0.0010228814 	2.3449901e-07 	0.0038621692 	2.5725861e-07 	0.00073863729
0.78350515 	0.0024044635 	0.001043295 	6.0739728e-08 	0.0038755727 	-4.4101314e-07 	0.0014380905
0.79381443 	0.0024670269 	0.001061036 	2.7579895e-07 	0.0038865729 	3.5827967e-07 	0.00063516612
0.80412371 	0.002530989 	0.0010797753 	2.8721479e-08 	0.003906834 	-2.8083189e-07 	0.0015759532
0.81443299 	0.0025986357 	0.001096308 	1.8763326e-07 	0.0039243117 	2.8508403e-07 	0.0009503728
0.82474227 	0.0026672758 	0.00111281 	7.2372433e-10 	0.0039482187 	-1.4170571e-08 	0.0017267083
0.83505155 	0.0027383641 	0.0011284084 	8.3378386e-09 	0.00397187 	1.4669282e-08 	0.0018004116
0.84536082 	0.0028105788 	0.0011408161 	1.9208292e-07 	0.0039912587 	3.8789994e-07 	0.00077196714
0.8556701 	0.0028826154 	0.0011543734 	-3.8684703e-08 	0.0040182027 	-3.4996945e-07 	0.0020040264
0.86597938 	0.0029550594 	0.0011645555 	1.4089313e-07 	0.0040359979 	3.2413429e-07 	0.0010349267
0.87628866 	0.0030261591 	0.0011736053 	1.0702873e-07 	0.0040536812 	2.7876866e-07 	0.001130445
0.88659794 	0.0030958122 	0.0011818092 	-5.6832251e-08 	0.0040706516 	-2.722424e-07 	0.0022826264
0.89690722 	0.0031637776 	0.001187429 	2.1061496e-08 	0.0040776476 	6.1804712e-08 	0.002111634
0.90721649 	0.0032296308 	0.0011902965 	1.0865347e-07 	0.0040724328 	3.5777049e-07 	0.00061315889
0.91752577 	0.0032932595 	0.0011927242 	8.9004094e-08 	0.0040633563 	3.2537761e-07 	0.00058497912
0.92783505 	0.0033550951 	0.0011943031 	4.5283681e-08 	0.0040469358 	1.7907588e-07 	0.001405402
0.93814433 	0.0034161977 	0.0011957134 	3.1094674e-08 	0.0040193487 	1.1836469e-07 	0.0018346573
0.94845361 	0.0034756226 	0.0011969005 	3.9622879e-08 	0.0039816386 	1.3128281e-07 	0.0017979779
0.95876289 	0.0035414679 	0.0011942256 	6.5775367e-08 	0.0039304044 	1.8515148e-07 	0.0015152399
0.96907216 	0.0036145016 	0.0012019926 	1.9035301e-07 	0.0038794263 	4.1661498e-07 	0.00062972469
0.97938144 	0.0036881283 	0.0012165142 	4.6055693e-09 	0.0038307213 	-6.9161687e-08 	0.0030342238
0.98969072 	0.003451446 	0.0011497807 	5.9031456e-07 	0.0034806109 	1.6043699e-06 	0.00030091414
