0.43820225 	0.74647449 	-0.077658139 	-1.3272308e-05
0.4494382 	1.0515149 	-0.10476603 	-0.00026632834
0.46067416 	1.1456301 	-0.10934472 	-0.00024392762
0.47191011 	1.2007789 	-0.10980384 	-4.2037934e-05
0.48314607 	1.2361977 	-0.10875382 	8.5054282e-06
0.49438202 	1.2628808 	-0.1069358 	-0.00018105137
0.50561798 	1.2840389 	-0.10460078 	-0.00012650653
0.51685393 	1.3010727 	-0.10200068 	-3.3077113e-05
0.52808989 	1.3147672 	-0.099257868 	-1.4461659e-05
0.53932584 	1.3258206 	-0.096428549 	-5.4381604e-05
0.5505618 	1.3347443 	-0.093548963 	-0.0001376334
0.56179775 	1.3424071 	-0.09066908 	-2.6097103e-06
0.57303371 	1.3482284 	-0.087705586 	5.4967112e-05
0.58426966 	1.3529131 	-0.084745687 	5.5220809e-05
0.59550562 	1.3565007 	-0.081817138 	-4.94323e-05
0.60674157 	1.3592117 	-0.079001947 	3.1169441e-05
0.61797753 	1.3610299 	-0.076119321 	7.1293521e-05
0.62921348 	1.3620922 	-0.07329033 	-7.3132345e-05
0.64044944 	1.362675 	-0.070584757 	7.8515559e-05
0.65168539 	1.3627161 	-0.067817966 	1.0645294e-05
0.66292135 	1.3620766 	-0.065221817 	4.6831191e-05
0.6741573 	1.3610663 	-0.062550523 	3.2834352e-05
0.68539326 	1.3595563 	-0.060041567 	3.6493831e-05
0.69662921 	1.3576784 	-0.0574688 	3.1744653e-05
0.70786517 	1.3553652 	-0.055090902 	4.5334678e-05
0.71910112 	1.3527351 	-0.052606725 	1.3443377e-05
0.73033708 	1.3495952 	-0.050314214 	5.5286874e-05
0.74157303 	1.3461974 	-0.047911225 	-1.2476308e-06
0.75280899 	1.3421652 	-0.045655332 	4.9388302e-05
0.76404494 	1.3378812 	-0.043317732 	3.1392537e-06
0.7752809 	1.3329906 	-0.041130541 	2.7415353e-05
0.78651685 	1.3277081 	-0.038872035 	2.2096183e-05
0.79775281 	1.3218934 	-0.036734388 	-8.7992707e-06
0.80898876 	1.3154935 	-0.034555631 	5.3226356e-05
0.82022472 	1.3085497 	-0.032413107 	-1.9713152e-05
0.83146067 	1.3009735 	-0.030350229 	5.5334459e-06
0.84269663 	1.2925902 	-0.028245221 	3.9438251e-05
0.85393258 	1.2835002 	-0.026164785 	-2.5259538e-06
0.86516854 	1.2732819 	-0.024149154 	-2.9620426e-05
0.87640449 	1.2622159 	-0.022139382 	-5.1448411e-07
0.88764045 	1.2497175 	-0.020114009 	1.3952557e-05
0.8988764 	1.235704 	-0.018100509 	2.0672569e-05
0.91011236 	1.2197913 	-0.016095706 	2.067785e-05
0.92134831 	1.2014442 	-0.014094948 	1.4699385e-05
0.93258427 	1.1799019 	-0.012092087 	3.2756586e-06
0.94382022 	1.1536738 	-0.010060212 	-1.1418285e-05
0.95505618 	1.1209856 	-0.0079989014 	-2.3530566e-06
0.96629213 	1.0765378 	-0.0059332831 	-1.0025114e-05
0.97752809 	1.0088298 	-0.0037981548 	1.3333488e-06
0.98876404 	0.86789554 	-0.0016290789 	1.4647063e-06
