4.1667976e-36 	0.38285568 	-2.6001608e-14 	-9.4508963e-21
0.010869565 	0.39228178 	-0.00433178 	3.1142596e-07
0.02173913 	0.39787193 	-0.0087766804 	1.3810145e-07
0.032608696 	0.40606379 	-0.013653664 	4.7897137e-05
0.043478261 	0.42308313 	-0.017361544 	2.9217799e-06
0.054347826 	0.43746855 	-0.022509421 	0.00011305495
0.065217391 	0.46091987 	-0.025823424 	4.9415294e-05
0.076086957 	0.4818455 	-0.029384915 	8.5262406e-05
0.086956522 	0.50800869 	-0.031804008 	8.9487031e-06
0.097826087 	0.53357107 	-0.034589383 	3.5143053e-05
0.10869565 	0.56028762 	-0.037141485 	1.6979386e-06
0.11956522 	0.58887349 	-0.039261691 	1.551893e-05
0.13043478 	0.61734218 	-0.041079668 	5.7513431e-05
0.14130435 	0.64621937 	-0.04277881 	1.8197343e-05
0.15217391 	0.67541631 	-0.04385905 	7.0672151e-05
0.16304348 	0.70426756 	-0.044900485 	2.6940945e-05
0.17391304 	0.73233635 	-0.045633606 	6.1217424e-05
0.18478261 	0.76011482 	-0.046203618 	2.6460368e-05
0.19565217 	0.78646515 	-0.046573256 	5.6929299e-05
0.20652174 	0.81265045 	-0.04677347 	8.3309393e-06
0.2173913 	0.83660532 	-0.04685291 	6.6185996e-05
0.22826087 	0.85978132 	-0.046867593 	5.3032584e-05
0.23913043 	0.88211225 	-0.046647567 	7.8252699e-05
0.25 	0.90284239 	-0.046555428 	3.1742692e-05
0.26086957 	0.92292261 	-0.046100758 	2.369146e-05
0.27173913 	0.94100571 	-0.045803412 	2.6522899e-05
0.2826087 	0.95788316 	-0.045676758 	8.266898e-05
0.29347826 	0.97445455 	-0.044913246 	5.0374862e-05
0.30434783 	0.98928651 	-0.044622608 	2.9236259e-05
0.31521739 	1.0033021 	-0.044205581 	5.9005656e-05
0.32608696 	1.0165528 	-0.043418373 	5.2559415e-05
0.33695652 	1.0283602 	-0.043252324 	6.767815e-05
0.34782609 	1.0397928 	-0.042668061 	7.0044679e-05
0.35869565 	1.0505896 	-0.04173377 	4.2510521e-05
0.36956522 	1.0600162 	-0.041524649 	6.4877029e-05
0.38043478 	1.0689946 	-0.041137748 	0.00010777242
0.39130435 	1.0779265 	-0.039920431 	1.4528225e-05
0.40217391 	1.0853948 	-0.03950006 	3.0627223e-05
0.41304348 	1.0922403 	-0.039588064 	0.00016344187
0.42391304 	1.0992054 	-0.038266243 	4.4590886e-05
0.43478261 	1.1053442 	-0.037388387 	1.3530532e-05
0.44565217 	1.1104701 	-0.037235368 	9.6156247e-05
0.45652174 	1.1154359 	-0.036697745 	0.00012432307
0.4673913 	1.1203629 	-0.035444714 	2.0472526e-05
0.47826087 	1.1242893 	-0.034740381 	1.2150324e-05
0.48913043 	1.1274509 	-0.03456284 	0.00011537887
0.5 	1.130633 	-0.033814494 	0.0001112927
0.51086957 	1.1338326 	-0.032577035 	1.5250327e-05
0.52173913 	1.1360056 	-0.031947027 	3.0140038e-05
0.5326087 	1.137645 	-0.031675814 	0.00012337255
0.54347826 	1.1392954 	-0.030756869 	9.2546895e-05
0.55434783 	1.1409374 	-0.029516671 	9.8326821e-07
0.56521739 	1.1415426 	-0.029050849 	5.8416996e-05
0.57608696 	1.1420018 	-0.028674578 	0.0001406615
0.58695652 	1.1423122 	-0.027446464 	4.8916673e-05
0.59782609 	1.1423017 	-0.026522453 	1.7531799e-05
0.60869565 	1.1417825 	-0.026125364 	0.00010361962
0.61956522 	1.1410593 	-0.025199788 	7.4327908e-05
0.63043478 	1.1401601 	-0.024078832 	1.3871554e-06
0.64130435 	1.138755 	-0.023624574 	8.02214e-05
0.65217391 	1.1371173 	-0.022815981 	7.8291927e-05
0.66304348 	1.1352234 	-0.021686121 	2.5744933e-06
0.67391304 	1.1329532 	-0.02118333 	7.4803497e-05
0.68478261 	1.1303468 	-0.020333871 	6.4358406e-05
0.69565217 	1.1274124 	-0.019306587 	8.4017505e-06
0.70652174 	1.1242542 	-0.018779423 	8.4477994e-05
0.7173913 	1.1204978 	-0.017782282 	3.5732607e-05
0.72826087 	1.1164911 	-0.016956475 	3.3649458e-05
0.73913043 	1.1121971 	-0.016273194 	7.2155611e-05
0.75 	1.1071982 	-0.015204141 	6.0137346e-07
0.76086957 	1.1021178 	-0.014607828 	6.8810462e-05
0.77173913 	1.096148 	-0.013622311 	1.9438567e-05
0.7826087 	1.0899863 	-0.012873677 	4.4824108e-05
0.79347826 	1.0830884 	-0.012003968 	3.0581399e-05
0.80434783 	1.0757097 	-0.0111782 	3.2444328e-05
0.81521739 	1.0676435 	-0.010346425 	3.0852639e-05
0.82608696 	1.058917 	-0.0095119176 	2.9639114e-05
0.83695652 	1.0493482 	-0.0086684444 	2.2260382e-05
0.84782609 	1.0391446 	-0.0078701459 	3.4440651e-05
0.85869565 	1.0276281 	-0.0069923091 	6.7760525e-06
0.86956522 	1.0157657 	-0.0062503371 	4.2826271e-05
0.88043478 	1.0018351 	-0.0053908468 	9.8622976e-06
0.89130435 	0.98706387 	-0.004617939 	1.5457858e-05
0.90217391 	0.97108216 	-0.0038603575 	2.9461589e-05
0.91304348 	0.95254748 	-0.0031105108 	9.0857579e-06
0.92391304 	0.93224524 	-0.0024221932 	3.0461297e-06
0.93478261 	0.91015179 	-0.0017966038 	7.7407359e-06
0.94565217 	0.88297246 	-0.0012035725 	8.3912974e-07
0.95652174 	0.85313033 	-0.00067794959 	1.1282615e-05
0.9673913 	0.81436638 	-0.00032482019 	3.6718499e-06
0.97826087 	0.7609247 	-9.6426785e-05 	4.7589219e-06
0.98913043 	0.64516253 	4.9421808e-06 	2.2193745e-06
