0.47777778 	0.91630804 	-3.0275982e-05 	-3.7740519e-09
0.48888889 	1.1297485 	3.6230145e-05 	5.102211e-08
0.5 	1.2084653 	6.5996207e-05 	8.5950367e-08
0.51111111 	1.256271 	9.8601933e-05 	1.4875099e-07
0.52222222 	1.2898402 	0.0001314464 	-1.8044366e-09
0.53333333 	1.3152602 	0.00016604354 	3.0855267e-07
0.54444444 	1.3355743 	0.00019997938 	3.372473e-07
0.55555556 	1.3519837 	0.00023270616 	2.2323868e-07
0.56666667 	1.3652987 	0.0002634253 	1.9260354e-07
0.57777778 	1.3761073 	0.00029129969 	2.2265548e-07
0.58888889 	1.3848637 	0.00031591932 	2.8284424e-07
0.6 	1.3919347 	0.00033713116 	1.9966676e-07
0.61111111 	1.3976233 	0.00035506134 	4.1684805e-08
0.62222222 	1.4020466 	0.00036942821 	-7.343111e-08
0.63333333 	1.4052332 	0.00038046963 	4.8498132e-08
0.64444444 	1.4076211 	0.00038871017 	-5.4259169e-09
0.65555556 	1.4093349 	0.00039444157 	-9.4318792e-08
0.66666667 	1.4101467 	0.00039761656 	-6.9344398e-08
0.67777778 	1.4104888 	0.00039882088 	-7.1719781e-08
0.68888889 	1.4102603 	0.00039798723 	-3.6569578e-08
0.7 	1.4094235 	0.00039499744 	-2.1741088e-07
0.71111111 	1.4082705 	0.00039079274 	-2.4604775e-08
0.72222222 	1.406463 	0.0003845421 	-3.4619947e-07
0.73333333 	1.4044484 	0.00037736376 	-3.7191188e-08
0.74444444 	1.4017571 	0.00036841378 	-4.148182e-07
0.75555556 	1.3988776 	0.00035863978 	-4.2896274e-08
0.76666667 	1.3952496 	0.00034735417 	-4.8632577e-07
0.77777778 	1.3914043 	0.00033514114 	-9.6289482e-08
0.78888889 	1.3868104 	0.00032225145 	-4.0430279e-07
0.8 	1.3818986 	0.00030866298 	-7.9341094e-08
0.81111111 	1.3763393 	0.00029418743 	-1.2153408e-07
0.82222222 	1.370142 	0.00027924432 	-4.1513146e-07
0.83333333 	1.3634647 	0.00026392529 	-1.9160011e-09
0.84444444 	1.3559276 	0.00024799263 	-7.6009006e-08
0.85555556 	1.3475515 	0.00023177664 	-3.5130993e-07
0.86666667 	1.3383578 	0.00021524177 	-2.5401579e-07
0.87777778 	1.3281759 	0.00019836285 	-6.5975957e-08
0.88888889 	1.3167653 	0.00018100606 	-3.1169589e-08
0.9 	1.30386 	0.00016325175 	-5.2451428e-08
0.91111111 	1.2891475 	0.00014518852 	-4.7853911e-08
0.92222222 	1.2721414 	0.00012663284 	-1.8873636e-08
0.93333333 	1.2520357 	0.00010781404 	-8.9053577e-08
0.94444444 	1.2277203 	8.8093683e-05 	-2.4603346e-07
0.95555556 	1.197516 	6.9625552e-05 	-1.0647021e-08
0.96666667 	1.1568229 	4.8603759e-05 	-1.2241157e-07
0.97777778 	1.0927624 	2.987397e-05 	-3.2925461e-08
0.98888889 	0.95528035 	1.6138151e-05 	1.251984e-07
