0.4742268 	0.0028903592 	-0.0008959059 	1.6799877e-08 	0.0028867317 	-5.0576418e-08 	0.00081527047
0.48453608 	0.0079840468 	-0.0025705451 	8.7106508e-09 	0.0079649109 	-2.3354945e-08 	0.0027291258
0.49484536 	0.0075461522 	-0.0024470201 	8.207567e-07 	0.0075183832 	-2.8648736e-06 	0.0036649408
0.50515464 	0.0068266501 	-0.0022427079 	-9.7838247e-09 	0.0067870035 	4.7633259e-08 	0.0026230092
0.51546392 	0.0061135482 	-0.00203592 	1.4433572e-07 	0.0060673442 	-4.6291708e-07 	0.0029024929
0.5257732 	0.0054053494 	-0.0018145927 	2.046227e-06 	0.0053537352 	-6.3388063e-06 	0.0026289041
0.53608247 	0.0047690325 	-0.0015990246 	5.0790142e-07 	0.0047151312 	-1.4500952e-06 	0.0023609288
0.54639175 	0.0042308338 	-0.0013921933 	-2.0966265e-08 	0.0041764429 	5.6524783e-08 	0.0018465306
0.55670103 	0.0037986087 	-0.0011965335 	-2.9489723e-08 	0.0037465109 	6.3660346e-08 	0.0015857387
0.56701031 	0.0034652609 	-0.0010142572 	1.7193818e-07 	0.0034179436 	-3.1814019e-07 	0.0017081405
0.57731959 	0.0032193353 	-0.00084470146 	1.2103717e-06 	0.0031777141 	-1.803478e-06 	0.0015647579
0.58762887 	0.0030422652 	-0.00068696612 	1.9122413e-06 	0.0030072586 	-2.2062286e-06 	0.0014604584
0.59793814 	0.0029181628 	-0.00053985556 	5.6507615e-08 	0.0028903204 	-4.8230273e-08 	0.0013914579
0.60824742 	0.0028417003 	-0.00040214881 	-1.8750567e-07 	0.0028189024 	2.3059092e-08 	3.6980888e-05
0.6185567 	0.0027969119 	-0.0002764595 	3.7392467e-07 	0.002784024 	-2.2049128e-07 	0.0013529004
0.62886598 	0.0027788408 	-0.00015734329 	1.1397693e-06 	0.0027731888 	-4.094007e-07 	0.0013403672
0.63917526 	0.0027810094 	-4.3687044e-05 	-1.4276454e-07 	0.0027803663 	-9.1080275e-08 	0.00025412926
0.64948454 	0.0027983846 	6.1173942e-05 	7.1444593e-07 	0.0028064183 	-1.1326218e-07 	0.0013498193
0.65979381 	0.0028282047 	0.00016223375 	9.5238162e-08 	0.0028425192 	1.4832185e-09 	0.0013779238
0.67010309 	0.0028694934 	0.00025816213 	-4.4328484e-08 	0.0028888191 	-5.4253624e-08 	0.00096271486
0.68041237 	0.0029181278 	0.00034910439 	9.215017e-07 	0.0029435461 	1.5363182e-07 	0.0014221576
0.69072165 	0.0029740818 	0.00043736933 	-8.2127625e-08 	0.0030025464 	-1.1983622e-07 	0.00050350605
0.70103093 	0.0030340983 	0.0005204282 	1.1565739e-06 	0.0030685621 	3.4762411e-07 	0.0014804164
0.71134021 	0.0031000916 	0.00060196354 	-6.9444773e-08 	0.0031363218 	-1.1494531e-07 	0.00048207251
0.72164948 	0.0031680472 	0.00067865339 	9.2194879e-07 	0.0032093085 	3.8296359e-07 	0.0015514554
0.73195876 	0.0032396197 	0.00075288227 	-3.2049145e-08 	0.0032820662 	-5.7403707e-08 	0.00088919698
0.74226804 	0.0033157061 	0.00082597823 	4.7107709e-07 	0.0033614391 	2.5734888e-07 	0.0016323478
0.75257732 	0.0033932898 	0.00089560544 	-7.2104887e-09 	0.0034398305 	-1.2778906e-08 	0.0013741132
0.7628866 	0.0034772992 	0.00096535006 	1.8847347e-07 	0.0035251885 	1.3403736e-07 	0.0017176491
0.77319588 	0.0035637881 	0.0010328558 	-1.7732678e-09 	0.0036114774 	-1.6226143e-09 	0.0015384733
0.78350515 	0.0036565415 	0.001099855 	2.5499143e-07 	0.0037042748 	2.2926217e-07 	0.0018048787
0.79381443 	0.003752784 	0.001164915 	3.1507932e-09 	0.0037983307 	1.9001479e-08 	0.0011915558
0.80412371 	0.003857132 	0.0012305451 	5.9806805e-07 	0.003902425 	6.7632122e-07 	0.001895035
0.81443299 	0.0039660949 	0.0012938073 	2.9569148e-08 	0.0040059888 	1.1772308e-07 	0.00017857374
0.82474227 	0.0040859227 	0.0013595034 	5.5277089e-07 	0.0041265432 	7.784664e-07 	0.0019892683
0.83505155 	0.0042138916 	0.0014239998 	4.7329925e-09 	0.0042511325 	1.824298e-08 	0.0019010092
0.84536082 	0.0043524382 	0.0014881631 	3.4981533e-08 	0.004384216 	1.3757241e-07 	0.0010363069
0.8556701 	0.0045055965 	0.0015544825 	5.201811e-07 	0.0045352687 	1.0787849e-06 	0.0021935343
0.86597938 	0.0046718718 	0.0016209888 	1.6726574e-07 	0.0046970816 	4.0770668e-07 	0.0023046413
0.87628866 	0.0048531967 	0.0016875412 	6.772673e-08 	0.0048702502 	2.8619674e-07 	0.00063956237
0.88659794 	0.0050537464 	0.001757019 	4.6404578e-08 	0.0050668502 	2.0358477e-07 	0.0012734871
0.89690722 	0.0052740915 	0.0018284784 	6.6718884e-08 	0.0052845342 	2.1065944e-07 	0.0025449838
0.90721649 	0.0055144925 	0.0019009303 	2.8105094e-07 	0.0055204885 	9.8176983e-07 	0.0026720708
0.91752577 	0.0057744323 	0.0019748124 	3.3714719e-07 	0.0057766144 	1.282156e-06 	0.0028017281
0.92783505 	0.0060524208 	0.0020496869 	2.3503999e-07 	0.0060516347 	9.609052e-07 	0.0029317083
0.93814433 	0.0063442983 	0.0021247222 	2.0663635e-09 	0.0063414497 	1.0342174e-08 	0.0029778797
0.94845361 	0.0066402615 	0.0021965122 	5.8735671e-08 	0.00663125 	2.9571696e-07 	0.00040891577
0.95876289 	0.0069310102 	0.0022722401 	5.1615091e-08 	0.0069276292 	2.9666767e-07 	0.0033970489
0.96907216 	0.0071776455 	0.0023187666 	2.9706919e-08 	0.0071690238 	1.417477e-07 	0.00092273992
0.97938144 	0.0073200999 	0.0023490041 	-8.2877701e-09 	0.0073159119 	-1.182436e-08 	0.0035636149
0.98969072 	0.0068361707 	0.0022053288 	-2.7478264e-07 	0.0068291251 	-9.3083985e-07 	0.0033668175
