1.4101108e-19 	0.0039035388 	-2.6511794e-16 	-3.9551559e-22 	1.9236142e-18 	4.1949104e-20 	9.7350632e-19
0.010869565 	0.003932066 	-0.00018450166 	1.3825238e-08 	0.0043916244 	-4.2139296e-06 	0.00325001
0.02173913 	0.0040317892 	-0.00036620499 	8.8797285e-09 	0.0044905441 	-4.936701e-06 	0.0030393666
0.032608696 	0.0041900759 	-0.00054517799 	3.648273e-08 	0.0046463252 	-8.6245153e-08 	0.0024437149
0.043478261 	0.004393121 	-0.00071782547 	6.5540193e-08 	0.0048470615 	-5.8525232e-06 	0.0027053338
0.054347826 	0.0046326438 	-0.00088593367 	2.1523093e-07 	0.0050782575 	-5.0330305e-07 	0.00082329244
0.065217391 	0.0049043718 	-0.0010529505 	1.8520033e-07 	0.0053424186 	-4.4052856e-07 	0.0010536185
0.076086957 	0.0051492647 	-0.0011909636 	1.6115525e-07 	0.0055776656 	-3.9065489e-07 	0.0010941052
0.086956522 	0.0054041551 	-0.0013276269 	3.1518681e-07 	0.0058210205 	-4.7446199e-06 	0.0019731045
0.097826087 	0.0056482642 	-0.0014538475 	6.8190739e-07 	0.0060484023 	-7.0952479e-06 	0.0017800933
0.10869565 	0.0058782852 	-0.001570485 	1.0376172e-07 	0.0062575882 	-2.5583668e-07 	0.00091024925
0.11956522 	0.0060762279 	-0.001671115 	6.2861912e-07 	0.006433444 	-4.9104764e-06 	0.0012617187
0.13043478 	0.0062469157 	-0.0017595538 	1.3925657e-06 	0.0065785973 	-8.6961468e-06 	0.0010134758
0.14130435 	0.0063958704 	-0.0018385834 	2.1681674e-09 	0.0067000545 	-5.232553e-09 	0.00071000813
0.15217391 	0.006492406 	-0.001896237 	2.6796044e-06 	0.0067667251 	-1.40542e-05 	0.00046058107
0.16304348 	0.0065746592 	-0.0019481636 	4.9872156e-07 	0.0068185732 	-2.2758727e-06 	0.00018516018
0.17391304 	0.0066016783 	-0.001977978 	2.9990672e-06 	0.0068145268 	-1.3685984e-05 	0.00010621384
0.18478261 	0.0066153106 	-0.0020023482 	8.8326951e-07 	0.0067978885 	-3.5911039e-06 	0.00036667543
0.19565217 	0.0065779664 	-0.0020057441 	3.3692397e-06 	0.0067309063 	-1.3698299e-05 	0.00061246733
0.20652174 	0.0065292298 	-0.0020042689 	2.1425733e-07 	0.006652736 	-7.8784984e-07 	0.00082937329
0.2173913 	0.0064306965 	-0.0019807793 	4.4243004e-06 	0.0065274869 	-1.6268682e-05 	0.0010479316
0.22826087 	0.0063254747 	-0.0019540295 	1.0892754e-07 	0.0063936626 	-2.5051654e-07 	0.000198383
0.23913043 	0.0061838525 	-0.0019094578 	4.3794395e-06 	0.0062315545 	-1.4705875e-05 	0.0013901191
0.25 	0.0060364891 	-0.0018617156 	6.1045144e-07 	0.0060624102 	-2.0498565e-06 	0.0015782884
0.26086957 	0.0058667979 	-0.0018009209 	1.5887346e-06 	0.0058742292 	-4.9081824e-06 	0.0016282524
0.27173913 	0.005689764 	-0.0017344586 	3.2120258e-06 	0.0056815179 	-9.9231225e-06 	0.0017850399
0.2826087 	0.0055043705 	-0.0016619362 	8.7208389e-08 	0.0054787367 	-2.829097e-07 	0.00025958897
0.29347826 	0.0053220194 	-0.0015873013 	3.5837488e-06 	0.0052886141 	-1.0263305e-05 	0.0018939425
0.30434783 	0.005137337 	-0.0015098483 	8.9573558e-07 	0.0050941983 	-2.565249e-06 	0.0020205722
0.31521739 	0.0049519587 	-0.0014277281 	3.3447152e-08 	0.0048996298 	-1.6032035e-07 	0.0011061666
0.32608696 	0.0047781794 	-0.0013480837 	4.1155871e-06 	0.0047217893 	-1.1008159e-05 	0.0020252224
0.33695652 	0.0046049137 	-0.0012671977 	4.7596294e-09 	0.0045431048 	-3.0677283e-08 	0.0019740251
0.34782609 	0.0044399335 	-0.0011854164 	3.0322265e-08 	0.0043730225 	-1.9543638e-07 	0.0011249553
0.35869565 	0.0042880929 	-0.0011078115 	3.336459e-06 	0.004219869 	-8.3636789e-06 	0.0020593647
0.36956522 	0.0041386692 	-0.001029481 	4.0020572e-09 	0.0040675641 	-2.6194922e-08 	0.0020264129
0.38043478 	0.0040001164 	-0.00095143788 	5.5104521e-08 	0.003924302 	-3.6067916e-07 	0.00062861213
0.39130435 	0.0038740629 	-0.00087882426 	1.6644951e-06 	0.0037987817 	-3.8712691e-06 	0.0020337594
0.40217391 	0.0037540744 	-0.0008054327 	7.723674e-07 	0.0036768331 	-1.7963658e-06 	0.0020914525
0.41304348 	0.0036428854 	-0.0007312271 	9.1310964e-08 	0.0035599934 	-5.1460953e-07 	0.00021337546
0.42391304 	0.0035419291 	-0.00066328505 	1.3086039e-08 	0.0034597686 	-7.3750184e-08 	0.001732524
0.43478261 	0.0034529176 	-0.00059478738 	2.3167e-06 	0.0033689493 	-4.8197336e-06 	0.0020256047
0.44565217 	0.0033702442 	-0.0005256804 	4.0549447e-08 	0.0032824588 	-1.9007878e-07 	0.0013658131
0.45652174 	0.0032978452 	-0.00045768821 	9.0379105e-08 	0.0032055606 	-4.2365929e-07 	0.00049944018
0.4673913 	0.0032311548 	-0.00039394368 	3.1351523e-07 	0.0031388295 	-5.4483885e-07 	0.0019710738
0.47826087 	0.0031789072 	-0.00032926749 	1.1257289e-06 	0.0030835758 	-1.9563351e-06 	0.0020026305
0.48913043 	0.0031366123 	-0.00026392835 	6.927142e-08 	0.0030358908 	-2.7103458e-07 	0.00094841739
0.5 	0.0031003371 	-0.00019903654 	8.5936282e-08 	0.0029955207 	-3.362383e-07 	0.00068132191
0.51086957 	0.0030671974 	-0.00013524027 	4.677904e-07 	0.0029612565 	-6.011688e-07 	0.0019864339
0.52173913 	0.0030483533 	-7.1608026e-05 	4.7198674e-07 	0.0029388836 	-6.0656162e-07 	0.0020098551
0.5326087 	0.0030430137 	-8.0535476e-06 	8.5146726e-08 	0.0029273256 	-2.7993138e-07 	0.00069234373
0.54347826 	0.0030402335 	5.6823497e-05 	7.0233428e-08 	0.0029211352 	-2.3090189e-07 	0.00093982368
0.55434783 	0.0030423456 	0.00012235534 	9.0551844e-07 	0.0029215182 	-7.0233871e-07 	0.0020546895
0.56521739 	0.0030574368 	0.00018696684 	1.7651982e-08 	0.0029325442 	-4.8821723e-08 	0.0017664729
0.57608696 	0.003084291 	0.0002508112 	1.1580199e-07 	0.0029528924 	-3.202843e-07 	8.2311836e-05
0.58695652 	0.0031119189 	0.00031745331 	2.3931371e-08 	0.0029801447 	-6.6189211e-08 	0.0017351642
0.59782609 	0.0031496877 	0.00038308012 	6.1206424e-07 	0.0030157769 	-1.7594372e-07 	0.002175549
0.60869565 	0.003199697 	0.00044741877 	6.7722835e-08 	0.0030607812 	-1.5770911e-07 	0.00078236933
0.61956522 	0.0032538286 	0.00051348256 	5.1437203e-08 	0.0031133814 	-1.1978405e-07 	0.0011931575
0.63043478 	0.0033136994 	0.00058006202 	1.0719276e-06 	0.0031734297 	1.8775653e-07 	0.0023304621
0.64130435 	0.0033850038 	0.00064451343 	4.1168557e-08 	0.0032415004 	-8.3458098e-08 	0.0011952731
0.65217391 	0.0034621551 	0.00070991201 	5.0404925e-08 	0.0033175326 	-1.0218233e-07 	0.0010141714
0.66304348 	0.003544219 	0.00077657266 	8.2942625e-07 	0.003401984 	5.0818402e-07 	0.0025254453
0.67391304 	0.0036359481 	0.00084009098 	2.8099346e-08 	0.0034918093 	-5.8854879e-08 	0.0012293033
0.68478261 	0.003733353 	0.00090476246 	2.8188827e-08 	0.0035903285 	-5.9042299e-08 	0.0013293406
0.69565217 	0.0038358148 	0.00096991016 	5.409769e-07 	0.003696883 	5.5933358e-07 	0.0027489441
0.70652174 	0.0039452483 	0.0010307893 	1.1170257e-08 	0.0038049316 	-6.2113159e-08 	0.00072118765
0.7173913 	0.0040602752 	0.0010945602 	3.3008432e-09 	0.003925803 	-1.8354617e-08 	0.0023336588
0.72826087 	0.0041790241 	0.0011552906 	-4.1172123e-09 	0.0040487554 	-1.0579438e-08 	0.0026292637
0.73913043 	0.0043019158 	0.0012125596 	-2.7382194e-08 	0.004172417 	-7.0360281e-08 	0.00064597574
0.75 	0.0044298776 	0.001272503 	4.7651075e-07 	0.0043103217 	8.9622859e-07 	0.0032298826
0.76086957 	0.0045567492 	0.0013251968 	-6.8639393e-08 	0.0044386533 	-9.9139682e-08 	0.00080960674
0.77173913 	0.0046893377 	0.0013806655 	-5.4843322e-09 	0.0045825667 	-7.9213252e-09 	0.0032582272
0.7826087 	0.0048168937 	0.0014288539 	-6.8762199e-08 	0.0047151732 	-9.8252163e-08 	0.0019166096
0.79347826 	0.0049462875 	0.0014764267 	-4.5655805e-08 	0.0048542116 	-6.5236156e-08 	0.0025905267
0.80434783 	0.0050698104 	0.0015192813 	-6.4272454e-08 	0.0049868076 	-1.0300978e-07 	0.0025929865
0.81521739 	0.0051893108 	0.0015583143 	-7.9651053e-08 	0.0051159246 	-1.2765714e-07 	0.0024510851
0.82608696 	0.0052998688 	0.0015927534 	-8.8075767e-08 	0.0052373097 	-1.6153977e-07 	0.0026404091
0.83695652 	0.005402249 	0.0016226304 	-6.843957e-08 	0.0053516489 	-1.2552502e-07 	0.0030315361
0.84782609 	0.0054877035 	0.001645326 	-1.7670699e-07 	0.0054463281 	-3.6816927e-07 	0.0018580508
0.85869565 	0.0055639457 	0.0016648977 	-2.0334834e-08 	0.0055391121 	-9.1004604e-10 	0.0041418899
0.86956522 	0.0056115013 	0.0016730958 	-3.6234051e-07 	0.0055906284 	-8.4607597e-07 	6.4032534e-05
0.88043478 	0.0056462979 	0.0016791993 	-5.163848e-09 	0.0056456873 	-9.7451699e-09 	0.0042039946
0.89130435 	0.0056488887 	0.001674156 	-1.0413998e-07 	0.005657641 	-2.6901814e-07 	0.0030992577
0.90217391 	0.0056213049 	0.0016602324 	-3.4586434e-07 	0.0056355224 	-9.7816207e-07 	0.00058347238
0.91304348 	0.0055655894 	0.0016407043 	-4.2178255e-08 	0.0055953353 	-1.2994576e-07 	0.0037231048
0.92391304 	0.0054713717 	0.0016131084 	-1.4110486e-07 	0.005508946 	-4.5458295e-07 	0.0040872318
0.93478261 	0.0053363112 	0.0015691476 	-7.5185252e-08 	0.0053753856 	-2.4985597e-07 	0.0031454966
0.94565217 	0.0051505848 	0.0015192631 	-2.2854982e-07 	0.0051907813 	-8.8032911e-07 	0.0038599693
0.95652174 	0.0049229862 	0.0014617845 	-2.1700703e-07 	0.0049511275 	-8.7140066e-07 	0.00041658916
0.9673913 	0.004630488 	0.0013960736 	-4.2098387e-08 	0.0046524709 	-1.9136658e-07 	0.0025725109
0.97826087 	0.0042381737 	0.0013114724 	-7.7457024e-08 	0.0042428574 	-3.8863608e-07 	0.00038757082
0.98913043 	0.0032914342 	0.0010655236 	-1.4350223e-08 	0.003288294 	-7.5941361e-08 	0.00040965021
