0.4742268 	0.65429113 	0.00013953776 	-5.7194945e-09
0.48453608 	1.1120027 	0.00016608909 	-1.1177788e-08
0.49484536 	1.2154967 	0.0003370222 	7.1228659e-07
0.50515464 	1.2750015 	0.00052861243 	-1.9924764e-08
0.51546392 	1.3126263 	0.00070849153 	3.0340609e-07
0.5257732 	1.3405322 	0.00089127296 	1.4778942e-06
0.53608247 	1.361237 	0.0010538549 	4.6925228e-07
0.54639175 	1.3765239 	0.0011940182 	2.6359252e-08
0.55670103 	1.3877179 	0.0013078364 	-6.6895654e-09
0.56701031 	1.3958586 	0.0013956322 	1.451577e-07
0.57731959 	1.4017565 	0.001459673 	2.6086261e-07
0.58762887 	1.4060324 	0.0015039994 	1.0732773e-07
0.59793814 	1.4091162 	0.0015321802 	-2.9278569e-08
0.60824742 	1.4111645 	0.0015444478 	-4.2267491e-07
0.6185567 	1.4124261 	0.0015454254 	-1.4159394e-07
0.62886598 	1.4130662 	0.0015355336 	-5.0778663e-07
0.63917526 	1.4131973 	0.0015164721 	-3.0473194e-07
0.64948454 	1.4128306 	0.0014898647 	-4.9884658e-07
0.65979381 	1.4120947 	0.0014566129 	-2.4083101e-07
0.67010309 	1.4109423 	0.0014159132 	-5.7857047e-08
0.68041237 	1.4094352 	0.0013701404 	-9.999881e-07
0.69072165 	1.4076155 	0.0013187475 	-1.6340408e-07
0.70103093 	1.4054911 	0.0012642605 	-1.4519639e-06
0.71134021 	1.4030649 	0.0012046734 	-1.415054e-07
0.72164948 	1.4003883 	0.0011439514 	-1.4137951e-06
0.73195876 	1.3974663 	0.0010799524 	-5.6299339e-08
0.74226804 	1.3942042 	0.0010138733 	-9.4158124e-07
0.75257732 	1.3907474 	0.00094621171 	-1.205599e-09
0.7628866 	1.3868904 	0.00087711532 	-5.5048238e-07
0.77319588 	1.3827756 	0.00080632143 	-7.6902337e-08
0.78350515 	1.3783079 	0.00073647183 	-6.4270252e-07
0.79381443 	1.3735646 	0.00066596736 	-3.7115147e-10
0.80412371 	1.3683962 	0.00059703159 	-1.1579128e-06
0.81443299 	1.3629652 	0.00052919707 	4.2229863e-08
0.82474227 	1.3569788 	0.00046278671 	-1.0228978e-06
0.83505155 	1.350644 	0.00039921682 	-6.4193193e-08
0.84536082 	1.3437649 	0.00033846081 	5.3811177e-08
0.8556701 	1.336212 	0.00028194077 	-7.8408431e-07
0.86597938 	1.3280476 	0.00022983534 	-2.8724909e-07
0.87628866 	1.3191007 	0.00018307626 	1.2780696e-07
0.88659794 	1.3090935 	0.0001424559 	7.7499799e-08
0.89690722 	1.2978453 	0.00010925744 	-1.0388829e-07
0.90721649 	1.2850808 	8.4034461e-05 	-1.6910452e-07
0.91752577 	1.2704141 	6.6819545e-05 	-1.1882586e-07
0.92783505 	1.2532718 	5.7431527e-05 	-4.0481549e-08
0.93814433 	1.2328688 	5.485854e-05 	-1.7912284e-09
0.94845361 	1.2078781 	5.7164922e-05 	1.2629326e-07
0.95876289 	1.176079 	5.9395282e-05 	-3.5836449e-09
0.96907216 	1.1329536 	5.8233723e-05 	5.1445578e-08
0.97938144 	1.0663717 	4.7504263e-05 	-1.308616e-08
0.98969072 	0.92284272 	3.300129e-05 	5.4874118e-08
