0.27835052 	0.89391542 	0.22067695 	-0.00020994504
0.28865979 	1.2185265 	0.29036087 	-3.1094524e-07
0.29896907 	1.2441581 	0.28477616 	-1.7624037e-05
0.30927835 	1.2501252 	0.27456734 	-0.00010564022
0.31958763 	1.25144 	0.26314724 	-5.9955637e-06
0.32989691 	1.2507811 	0.25278548 	-0.00010510307
0.34020619 	1.2492378 	0.24224804 	-0.0001196692
0.35051546 	1.2472535 	0.23216872 	-3.5962533e-05
0.36082474 	1.244882 	0.22245298 	-0.00016023246
0.37113402 	1.2428957 	0.21340001 	-3.883891e-05
0.3814433 	1.240672 	0.20495742 	-0.00010933429
0.39175258 	1.2382695 	0.19697639 	-2.8470141e-05
0.40206186 	1.2354099 	0.18878808 	-0.0002798482
0.41237113 	1.2332984 	0.18176535 	-5.8016728e-05
0.42268041 	1.2305936 	0.17482853 	-9.8404826e-05
0.43298969 	1.2276651 	0.16774267 	-0.00025713808
0.44329897 	1.2253698 	0.16199355 	-9.1540729e-06
0.45360825 	1.2221056 	0.15517359 	-0.00022414285
0.46391753 	1.2196544 	0.15004178 	-2.6899824e-05
0.4742268 	1.2164894 	0.14383418 	-0.00014461968
0.48453608 	1.2138369 	0.13904945 	-7.3753856e-05
0.49484536 	1.2106818 	0.1333107 	-0.00011182037
0.50515464 	1.2079558 	0.12893599 	-0.0001084084
0.51546392 	1.2048458 	0.12387009 	-5.2629418e-05
0.5257732 	1.2020125 	0.11959936 	-4.3715273e-05
0.53608247 	1.1989037 	0.11525549 	-1.4194378e-05
0.54639175 	1.1959188 	0.11083922 	-1.7651158e-05
0.55670103 	1.1928441 	0.10695783 	-0.00017324655
0.56701031 	1.1897038 	0.10282964 	-1.6777793e-05
0.57731959 	1.1866689 	0.099206345 	-6.3663878e-05
0.58762887 	1.1834375 	0.095576675 	-0.00012420232
0.59793814 	1.1802281 	0.09175002 	-1.7629194e-05
0.60824742 	1.1770367 	0.088621564 	-0.00011292549
0.6185567 	1.1737273 	0.085362209 	-0.00011728343
0.62886598 	1.1704527 	0.08197584 	-1.0741875e-05
0.63917526 	1.1669928 	0.07906928 	-0.00011445203
0.64948454 	1.1634789 	0.07608262 	-0.00011205637
0.65979381 	1.160022 	0.073030714 	-6.5721361e-06
0.67010309 	1.1561743 	0.070280847 	-0.00011549185
0.68041237 	1.1523053 	0.067467034 	-7.5464613e-05
0.69072165 	1.1484219 	0.064682612 	-1.3085254e-06
0.70103093 	1.1441605 	0.062051584 	-0.00014290653
0.71134021 	1.1398939 	0.059400181 	-1.2118657e-05
0.72164948 	1.135387 	0.05683356 	-4.5471543e-05
0.73195876 	1.1306443 	0.054302065 	-7.4058236e-05
0.74226804 	1.1258662 	0.051777035 	-6.3550435e-07
0.75257732 	1.1206299 	0.049377435 	-0.0001061664
0.7628866 	1.1154527 	0.046920621 	-6.0195163e-07
0.77319588 	1.1097818 	0.044632796 	-7.7441826e-05
0.78350515 	1.1040925 	0.042289207 	-1.1803166e-07
0.79381443 	1.0980075 	0.040055436 	-5.7948627e-05
0.80412371 	1.0918247 	0.037787857 	-2.5977202e-08
0.81443299 	1.0851944 	0.035626376 	-5.6739528e-05
0.82474227 	1.0785396 	0.033405108 	1.016998e-07
0.83505155 	1.0712121 	0.03132555 	-5.116602e-05
0.84536082 	1.0638385 	0.029205879 	6.1975133e-08
0.8556701 	1.0559057 	0.027132074 	-8.5696556e-06
0.86597938 	1.0476412 	0.025084475 	-3.0029346e-05
0.87628866 	1.0391093 	0.023012255 	9.7473856e-08
0.88659794 	1.029734 	0.021020061 	-9.2152965e-07
0.89690722 	1.0198708 	0.019025039 	-3.2628485e-05
0.90721649 	1.0093454 	0.0170411 	-6.3631001e-06
0.91752577 	0.99797502 	0.015042288 	-1.9275884e-07
0.92783505 	0.98533513 	0.013062562 	-5.2314306e-07
0.93814433 	0.97083485 	0.01110882 	-5.1773413e-07
0.94845361 	0.95487274 	0.0092554671 	-6.2454706e-07
0.95876289 	0.93256536 	0.0071980633 	-6.0985293e-06
0.96907216 	0.90371751 	0.0052204624 	-1.1212198e-07
0.97938144 	0.85613597 	0.0032380691 	-1.235095e-07
0.98969072 	0.73462706 	0.001330529 	-3.57752e-07
