0.47916667 	0.0075780091 	-0.0024511709 	-9.3607073e-08 	0.0075660529 	3.5132772e-07 	0.0039229155
0.48958333 	0.0078298599 	-0.0025248128 	1.2089101e-08 	0.0078028591 	-1.67808e-08 	0.00070142542
0.5 	0.0072285949 	-0.0023548147 	8.4147404e-08 	0.0071980507 	-2.8688253e-07 	0.0038087502
0.51041667 	0.006515164 	-0.0021559221 	1.085796e-06 	0.0064760367 	-3.6954401e-06 	0.0034283487
0.52083333 	0.0057998495 	-0.0019344385 	-6.9714201e-08 	0.0057495071 	2.8448018e-07 	0.00071785346
0.53125 	0.0051338114 	-0.0017213313 	-4.1263361e-08 	0.0050820648 	1.5333193e-07 	0.0016642246
0.54166667 	0.0045477441 	-0.0015140732 	3.6303978e-07 	0.0044964285 	-9.4947062e-07 	0.0023134864
0.55208333 	0.0040585426 	-0.0013149591 	8.5406283e-07 	0.004008232 	-1.9525752e-06 	0.0020737793
0.5625 	0.0036670575 	-0.0011269942 	6.7052574e-07 	0.0036196825 	-1.2992491e-06 	0.0018703899
0.57291667 	0.0033652764 	-0.00095101559 	-5.9150754e-09 	0.0033223527 	1.0278809e-08 	0.0016542251
0.58333333 	0.0031444693 	-0.00078631036 	-1.0425666e-07 	0.0031058475 	1.2513206e-07 	0.00073696881
0.59375 	0.0029865051 	-0.00063332249 	-1.4932409e-07 	0.0029538704 	1.032878e-07 	0.00037554363
0.60416667 	0.00287822 	-0.0004924174 	2.7911931e-07 	0.0028546478 	-2.6064955e-07 	0.001502974
0.61458333 	0.0028111156 	-0.00035988968 	1.468423e-06 	0.0027944911 	-9.6696242e-07 	0.0014537867
0.625 	0.0027739575 	-0.00023443753 	-8.4453908e-08 	0.0027630398 	-1.6374432e-08 	0.00078156174
0.63541667 	0.0027615684 	-0.00011756417 	-4.5854935e-08 	0.0027579014 	-2.6055831e-08 	0.001060273
0.64583333 	0.0027689039 	-7.395421e-06 	1.3739404e-06 	0.0027723056 	-2.7355457e-07 	0.0014389876
0.65625 	0.0027921449 	9.8972145e-05 	-1.2568286e-07 	0.002799529 	-1.1297888e-07 	0.00033815346
0.66666667 	0.0028263073 	0.00019786018 	7.1332812e-07 	0.0028414001 	-6.0269073e-09 	0.0014659814
0.67708333 	0.0028715135 	0.00029401503 	-3.1583662e-08 	0.0028912248 	-3.7522476e-08 	0.001187781
0.6875 	0.0029245124 	0.00038526545 	-3.5298821e-09 	0.0029494383 	-5.0674493e-09 	0.0014701479
0.69791667 	0.0029850049 	0.00047341851 	5.3657194e-08 	0.0030142551 	1.6891006e-08 	0.0015749316
0.70833333 	0.0030514157 	0.00055803982 	-1.4129183e-08 	0.0030838705 	-2.310185e-08 	0.0013597304
0.71875 	0.0031226124 	0.00064001236 	5.7954712e-09 	0.003158702 	2.6161438e-09 	0.0016537145
0.72916667 	0.0031968155 	0.00071766037 	3.0818883e-08 	0.0032353869 	1.3912006e-08 	0.0016538607
0.73958333 	0.0032776541 	0.000794671 	-1.5653709e-08 	0.0033176327 	-2.7433905e-08 	0.0013837719
0.75 	0.0033601792 	0.00086830524 	3.379064e-07 	0.0034022502 	2.0393118e-07 	0.0017452288
0.76041667 	0.0034487591 	0.00094074807 	-1.7491767e-08 	0.0034905162 	-2.8961565e-08 	0.0011492531
0.77083333 	0.0035419122 	0.0010127577 	3.5001622e-07 	0.0035853358 	2.7516882e-07 	0.0018427498
0.78125 	0.0036404016 	0.0010827272 	-5.2705379e-09 	0.0036827316 	-2.6693712e-09 	0.001390627
0.79166667 	0.0037439262 	0.001152212 	4.777755e-08 	0.0037865708 	4.7203109e-08 	0.0019430997
0.80208333 	0.0038551863 	0.0012207638 	1.1060794e-07 	0.0038967291 	1.3581985e-07 	0.0020467418
0.8125 	0.0039722017 	0.0012875995 	1.457591e-08 	0.0040099318 	6.9719322e-08 	0.0010242919
0.82291667 	0.0040996488 	0.0013558876 	7.8336219e-07 	0.0041371588 	1.181072e-06 	0.0021549839
0.83333333 	0.0042347555 	0.0014223571 	2.7553499e-08 	0.0042671421 	1.2159937e-07 	0.00097304437
0.84375 	0.0043815865 	0.0014904203 	9.2004171e-09 	0.0044124231 	4.0477928e-08 	0.0019418985
0.85416667 	0.0045421921 	0.001558655 	6.4534922e-07 	0.0045700153 	1.3952814e-06 	0.0023872745
0.86458333 	0.0047149196 	0.0016268606 	1.7507749e-08 	0.0047376771 	7.8554179e-08 	0.001933363
0.875 	0.0049026632 	0.0016952685 	7.2927666e-08 	0.0049179147 	3.3593117e-07 	0.00034731825
0.88541667 	0.0051091919 	0.0017669341 	1.3961541e-08 	0.0051233953 	6.6124845e-08 	0.0022309889
0.89583333 	0.0053334956 	0.001838996 	2.4869179e-07 	0.0053442364 	7.9761579e-07 	0.0027769385
0.90625 	0.0055756417 	0.0019119762 	4.4286668e-07 	0.0055824834 	1.5627538e-06 	0.0029146622
0.91666667 	0.0058352963 	0.0019859201 	4.7550689e-07 	0.0058388147 	1.8184531e-06 	0.0030535387
0.92708333 	0.0061105873 	0.0020603656 	3.5162897e-07 	0.0061115135 	1.440301e-06 	0.0031912203
0.9375 	0.0063972161 	0.0021345091 	8.8954531e-08 	0.0063964756 	3.8341005e-07 	0.0033249869
0.94791667 	0.0066859451 	0.0022054217 	3.8621765e-08 	0.0066799567 	2.0095034e-07 	0.0012533249
0.95833333 	0.0069678481 	0.0022795551 	4.5780288e-09 	0.0069655989 	2.3395098e-08 	0.0033476453
0.96875 	0.0072043341 	0.0023239306 	3.5713145e-08 	0.0071950816 	1.7120783e-07 	0.00016264564
0.97916667 	0.0073407595 	0.002354313 	-2.4189564e-08 	0.0073374802 	-4.4032155e-08 	0.0038407406
0.98958333 	0.0068667528 	0.00221451 	-4.1833683e-07 	0.0068602478 	-1.4193233e-06 	0.0036247043
