2.7909061e-19 	0.0038400417 	-2.6080178e-16 	-2.9870389e-22 	1.6029825e-18 	2.3218084e-20 	1.0936966e-18
0.010869565 	0.0039102786 	-0.00028162158 	9.5833401e-08 	0.0049037053 	-2.1471633e-05 	0.00067424193
0.02173913 	0.0041377574 	-0.00055380493 	3.3672805e-08 	0.005136566 	-1.147314e-05 	0.0011038663
0.032608696 	0.0044891675 	-0.00081988749 	1.4004752e-08 	0.0054919779 	-1.8063457e-06 	0.0015776915
0.043478261 	0.0049295262 	-0.0010744 	1.6133527e-07 	0.0059352999 	-7.5959053e-06 	0.0021540312
0.054347826 	0.0054161375 	-0.0013177984 	3.3223826e-07 	0.0064195694 	-1.6472192e-06 	0.00024330834
0.065217391 	0.0059313298 	-0.0015523075 	2.2126044e-07 	0.006929988 	-1.0959273e-06 	0.0019778047
0.076086957 	0.0063672958 	-0.0017458339 	5.4009419e-07 	0.0073486236 	-2.5421452e-06 	0.00075324359
0.086956522 	0.00678168 	-0.0019277986 	2.7138146e-08 	0.007743964 	-1.1723982e-07 	0.004702865
0.097826087 	0.0071506503 	-0.0020910443 	4.4035709e-07 	0.0080769574 	-3.1550755e-06 	0.0056584844
0.10869565 	0.0074551388 	-0.0022314817 	7.5956635e-07 	0.0083260214 	-2.9957578e-06 	0.0020368795
0.11956522 	0.0076904378 	-0.0023426535 	5.0772186e-07 	0.0085105482 	-1.8518795e-06 	0.0040370476
0.13043478 	0.0078639105 	-0.0024293357 	1.2564033e-07 	0.0086287938 	-4.582642e-07 	0.0068158297
0.14130435 	0.0079560686 	-0.0024870054 	1.315977e-06 	0.0086414565 	-4.5364548e-06 	3.0783737e-05
0.15217391 	0.0080063568 	-0.0025211683 	8.856203e-08 	0.0086461038 	-2.9599422e-07 	0.0078680007
0.16304348 	0.0079716783 	-0.0025243236 	9.8590319e-07 	0.0085355747 	-3.2951102e-06 	0.0020526533
0.17391304 	0.007912573 	-0.0025121244 	2.4922359e-07 	0.0084271371 	-8.2255815e-07 	0.0063021832
0.18478261 	0.0077950816 	-0.002476121 	6.673407e-07 	0.0082471544 	-2.2025464e-06 	0.0025914305
0.19565217 	0.0076632135 	-0.0024298653 	1.3550124e-07 	0.008072977 	-4.3780243e-07 	0.006040511
0.20652174 	0.007493006 	-0.0023672479 	5.7266659e-07 	0.0078498149 	-1.8502769e-06 	0.0019446283
0.2173913 	0.0073218468 	-0.0023002661 	6.9446331e-07 	0.0076481571 	-2.2541198e-06 	0.006138747
0.22826087 	0.0071280874 	-0.0022244318 	6.544173e-07 	0.0074064331 	-1.9754738e-06 	0.00046155534
0.23913043 	0.0069406399 	-0.0021470335 	1.8701141e-06 	0.0072000195 	-5.8438129e-06 	0.0051858123
0.25 	0.0067461042 	-0.0020682156 	4.2248699e-07 	0.0069689653 	-1.1202149e-06 	0.0018666769
0.26086957 	0.0065558532 	-0.0019885145 	8.3952558e-08 	0.0067602554 	-2.2259835e-07 	0.0037728388
0.27173913 	0.0063687472 	-0.0019112212 	5.5017882e-07 	0.006550409 	-1.6892804e-06 	0.004111879
0.2826087 	0.0061826842 	-0.0018348217 	5.0332483e-07 	0.0063355149 	-1.118838e-06 	0.00078501721
0.29347826 	0.0060055714 	-0.0017605721 	2.6875324e-06 	0.006147491 	-8.2432255e-06 	0.00340983
0.30434783 	0.0058295166 	-0.0016886644 	1.1752006e-07 	0.0059501993 	-2.1251405e-07 	0.0026387693
0.31521739 	0.0056588798 	-0.0016185175 	2.3229532e-07 	0.005761327 	-4.2006463e-07 	0.0017364212
0.32608696 	0.0054946012 	-0.0015513021 	4.1115014e-06 	0.0055834219 	-1.2691877e-05 	0.002654932
0.33695652 	0.0053309314 	-0.0014849752 	1.3160289e-07 	0.0054008154 	-1.8803022e-07 	0.0019581319
0.34782609 	0.0051739634 	-0.001420505 	1.1644019e-07 	0.0052288976 	-1.6636621e-07 	0.0017183811
0.35869565 	0.0050231958 	-0.0013581233 	4.3088612e-06 	0.0050632776 	-1.3255376e-05 	0.0020459779
0.36956522 	0.0048726641 	-0.0012958947 	2.6871949e-07 	0.0048961104 	-8.266634e-07 	0.0019305089
0.38043478 	0.0047289162 	-0.0012344053 	1.8487589e-07 	0.004734795 	-1.9977185e-07 	0.0010580676
0.39130435 	0.0045947926 	-0.0011739911 	3.5017049e-06 	0.0045863074 	-1.0349997e-05 	0.0015614561
0.40217391 	0.0044616623 	-0.0011133809 	1.8856285e-06 	0.0044361767 	-5.5733565e-06 	0.0014732695
0.41304348 	0.0043321611 	-0.0010517975 	4.46834e-07 	0.004285118 	-3.39886e-07 	2.4522417e-05
0.42391304 	0.0042186952 	-0.00099157091 	1.9892011e-06 	0.0041595272 	-5.2979843e-06 	0.0011850157
0.43478261 	0.0041102634 	-0.00092993958 	4.1163456e-06 	0.004033022 	-1.0963363e-05 	0.001119463
0.44565217 	0.0040018316 	-0.00086830825 	6.2220898e-07 	0.0039065169 	-1.6571745e-06 	0.0010539102
0.45652174 	0.0039055122 	-0.00080576775 	4.560515e-08 	0.003792164 	-2.1520229e-08 	0.00079204466
0.4673913 	0.0038297067 	-0.00074217657 	3.562663e-06 	0.0036980844 	-7.8742799e-06 	0.00085535622
0.47826087 	0.0037547646 	-0.00067840531 	3.6617317e-06 	0.0036043244 	-8.0932437e-06 	0.00080772586
0.48913043 	0.0036798225 	-0.00061463406 	3.7301334e-07 	0.0035105644 	-8.2444268e-07 	0.0007600955
0.5 	0.003622961 	-0.000548305 	5.8190207e-07 	0.0034353126 	-9.6549486e-07 	0.00066799172
0.51086957 	0.0035834958 	-0.00048036583 	4.1936668e-06 	0.0033771557 	-6.9581532e-06 	0.00063352535
0.52173913 	0.0035440306 	-0.00041242667 	3.4049205e-06 	0.0033189988 	-5.6494613e-06 	0.00059905897
0.5326087 	0.0035045655 	-0.00034448751 	1.9649386e-07 	0.0032608419 	-3.260236e-07 	0.0005645926
0.54347826 	0.0034882356 	-0.00027331414 	1.3161113e-06 	0.0032272443 	-1.4588174e-06 	0.0005162389
0.55434783 	0.0034830084 	-0.00020071722 	4.8304374e-06 	0.003205084 	-5.3542023e-06 	0.00049076005
0.56521739 	0.0034777813 	-0.0001281203 	2.388034e-06 	0.0031829238 	-2.6469688e-06 	0.00046528121
0.57608696 	0.0034770052 	-5.5766494e-05 	1.4851749e-07 	0.0031645392 	2.3119576e-08 	6.0115017e-05
0.58695652 	0.0035000065 	1.8812505e-05 	2.7278519e-06 	0.0031751982 	-1.7095143e-06 	0.00041971956
0.59782609 	0.0035257011 	9.3263824e-05 	3.6248181e-06 	0.0031874788 	-2.271633e-06 	0.00040035053
0.60869565 	0.0035513957 	0.00016771514 	5.4290688e-07 	0.0031997593 	-3.4023368e-07 	0.0003809815
0.61956522 	0.0035948824 	0.00024230059 	1.5127657e-06 	0.0032325435 	-2.998461e-07 	0.00037379077
0.63043478 	0.0036470903 	0.00031734639 	4.0267395e-06 	0.0032751966 	-7.9814221e-07 	0.00035877089
0.64130435 	0.0036992983 	0.00039239219 	1.0781533e-06 	0.0033178497 	-2.1370135e-07 	0.00034375102
0.65217391 	0.0037631349 	0.00046732693 	1.0574087e-06 	0.0033739632 	1.9916942e-07 	0.00034518615
0.66304348 	0.0038381645 	0.00054263536 	3.7744035e-06 	0.0034429158 	7.1093207e-07 	0.00033342157
0.67391304 	0.003913194 	0.00061794379 	9.5021809e-07 	0.0035118685 	1.7897941e-07 	0.00032165698
0.68478261 	0.0039994402 	0.00069322135 	1.2234925e-06 	0.0035937217 	6.6175363e-07 	0.00032911803
0.69565217 	0.004094519 	0.00076883561 	3.0072304e-06 	0.0036857257 	1.6265288e-06 	0.00031987345
0.70652174 	0.0041895977 	0.00084444987 	2.868434e-07 	0.0037777298 	1.5514576e-07 	0.00031062887
0.7173913 	0.0042990156 	0.00092012614 	1.9009674e-06 	0.0038862728 	1.6459417e-06 	0.00032252291
0.72826087 	0.0044118653 	0.00099602119 	1.8088355e-06 	0.0039988161 	1.5661698e-06 	0.00031529964
0.73913043 	0.0045284089 	0.0010717714 	3.5531883e-07 	0.0041156631 	4.1569245e-07 	0.00032890059
0.75 	0.0046567731 	0.001147641 	2.7856726e-06 	0.0042465264 	3.2589972e-06 	0.00032330793
0.76086957 	0.0047851374 	0.0012235106 	2.4459186e-07 	0.0043773897 	2.8615143e-07 	0.00031771528
0.77173913 	0.0049243742 	0.0012986582 	1.8742592e-06 	0.0045216055 	2.7403845e-06 	0.00033409619
0.7826087 	0.0050656705 	0.0013738108 	8.3639949e-07 	0.0046684425 	1.2229132e-06 	0.00032985031
0.79347826 	0.0052128157 	0.0014477343 	1.2071101e-06 	0.0048230852 	2.1193489e-06 	0.00034706848
0.80434783 	0.0053637912 	0.0015210139 	1.0086703e-06 	0.0049830042 	1.7709438e-06 	0.00034391764
0.81521739 	0.0055175501 	0.0015923928 	9.1170836e-07 	0.0051475561 	1.8879717e-06 	0.00036152235
0.82608696 	0.0056738421 	0.0016621169 	8.2860404e-07 	0.0053166144 	1.7158788e-06 	0.00035925453
0.83695652 	0.0058298611 	0.0017285258 	8.7567441e-07 	0.0054876392 	2.1396298e-06 	0.00037662961
0.84782609 	0.0059854362 	0.0017924269 	4.0321115e-07 	0.0056601953 	9.8520934e-07 	0.00037506156
0.85869565 	0.0061345337 	0.0018498616 	9.2584484e-07 	0.0058294762 	2.7479237e-06 	0.00039140793
0.86956522 	0.0062801402 	0.0019042709 	-5.2011827e-09 	0.0059960784 	3.2469214e-09 	0.00012156604
0.88043478 	0.0064066834 	0.0019475022 	4.2922582e-07 	0.0061492415 	1.7350513e-06 	0.00040469796
0.89130435 	0.0065174638 	0.001983036 	3.2467495e-08 	0.006287872 	7.3629567e-07 	0.00041556761
0.90217391 	0.0066080464 	0.0020091733 	1.011552e-09 	0.0064088676 	2.2939909e-08 	0.00041518544
0.91304348 	0.0066472452 	0.0020159888 	-3.1322031e-07 	0.0064819414 	-1.1514676e-07 	0.00042165043
0.92391304 	0.0066426799 	0.0020071975 	-9.968491e-07 	0.0065115403 	-1.7821503e-06 	0.00042229993
0.93478261 	0.0065786505 	0.0019768523 	-8.128184e-07 	0.0064832341 	-1.7727657e-06 	0.00041658057
0.94565217 	0.0064117786 	0.0019141168 	-1.3535536e-06 	0.0063543242 	-3.5297698e-06 	0.00040816732
0.95652174 	0.0061411084 	0.0018237988 	-3.1136388e-09 	0.0061157642 	-8.3468281e-09 	0.00037766995
0.9673913 	0.0056992589 	0.001691143 	-8.889826e-07 	0.0056964323 	-2.9566862e-06 	0.00036685149
0.97826087 	0.0050205698 	0.0015088193 	-1.5565742e-08 	0.0050252534 	-5.9535097e-08 	0.00032933049
0.98913043 	0.0035922583 	0.0011411049 	-4.3320575e-07 	0.0035901299 	-1.4374156e-06 	0.0002115904
