0 	0.0039359985 	-2.6731297e-16 	-9.7161191e-23 	1.8154536e-29 	6.5986934e-36 	2.3984504e-42
0.010869565 	0.0039769361 	-0.00021767517 	1.3753878e-08 	0.0045121336 	-3.6196178e-06 	0.003566783
0.02173913 	0.0041152133 	-0.0004322081 	8.1252014e-09 	0.0046507514 	-3.6044591e-06 	0.003354581
0.032608696 	0.0043324345 	-0.00064311614 	8.3098331e-08 	0.0048662201 	-2.112289e-07 	0.0023276998
0.043478261 	0.0046048102 	-0.00084522471 	7.8549439e-08 	0.0051382038 	-5.3761225e-06 	0.0030408456
0.054347826 	0.0049211255 	-0.0010415644 	3.0396231e-07 	0.0054458836 	-7.9640737e-07 	0.00061075707
0.065217391 	0.0052690436 	-0.0012339811 	2.0420832e-07 	0.0057861486 	-5.4639655e-07 	0.0013338257
0.076086957 	0.0055785726 	-0.0013931327 	2.3672574e-07 	0.006082963 	-6.4471731e-07 	0.00096062584
0.086956522 	0.0058906253 	-0.001548186 	3.4915034e-07 	0.0063803584 	-4.1955688e-06 	0.0022535263
0.097826087 	0.0061820221 	-0.001689305 	9.4279921e-07 	0.0066497179 	-8.0727091e-06 	0.0020281855
0.10869565 	0.0064494002 	-0.0018177275 	7.8755964e-08 	0.0068902116 	-2.1555415e-07 	0.0012666265
0.11956522 	0.0066700133 	-0.0019254658 	7.2518999e-07 	0.0070806712 	-4.8094453e-06 	0.0014054197
0.13043478 	0.0068503819 	-0.0020165149 	1.9630712e-06 	0.0072272606 	-1.0694268e-05 	0.0011024901
0.14130435 	0.0070013777 	-0.0020955185 	4.462985e-08 	0.007341689 	-1.185959e-07 	0.0004693354
0.15217391 	0.0070819087 	-0.0021464128 	3.3776713e-06 	0.0073845588 	-1.5776291e-05 	0.00043692636
0.16304348 	0.0071429236 	-0.0021893277 	9.2883064e-07 	0.0074070925 	-3.8281851e-06 	0.0001080593
0.17391304 	0.0071395728 	-0.002205987 	3.6173755e-06 	0.0073663229 	-1.4909051e-05 	0.00023499072
0.18478261 	0.0071168644 	-0.0022143369 	1.2484349e-06 	0.0073071983 	-4.6278074e-06 	0.00053429834
0.19565217 	0.0070392508 	-0.0021988723 	3.931986e-06 	0.0071956215 	-1.457543e-05 	0.00082082187
0.20652174 	0.0069466299 	-0.0021764233 	3.5050944e-07 	0.0070698847 	-1.1846028e-06 	0.0010569793
0.2173913 	0.0068078713 	-0.0021316812 	5.0152003e-06 	0.0069029977 	-1.6949673e-05 	0.0013086953
0.22826087 	0.0066600404 	-0.0020819479 	8.9455361e-08 	0.0067250105 	-3.210159e-07 	7.4849491e-05
0.23913043 	0.006486956 	-0.0020179223 	5.1827268e-06 	0.00653296 	-1.616272e-05 	0.0016799133
0.25 	0.0063091023 	-0.00195083 	1.76077e-07 	0.0063344219 	-5.4910928e-07 	0.0018944732
0.26086957 	0.0061171326 	-0.0018729513 	1.7254913e-06 	0.0061263411 	-5.0313781e-06 	0.0019343906
0.27173913 	0.00592487 	-0.0017929159 	2.9993876e-06 	0.0059207054 	-8.7459452e-06 	0.0021123128
0.2826087 	0.0057286651 	-0.0017083251 	4.5423632e-08 	0.0057096883 	-3.7289471e-07 	0.0004422068
0.29347826 	0.0055430999 	-0.0016264273 	3.6627267e-06 	0.0055185338 	-1.0139108e-05 	0.0022321059
0.30434783 	0.0053568198 	-0.0015426922 	3.2931033e-07 	0.0053245093 	-9.1159217e-07 	0.0023761227
0.31521739 	0.005176071 	-0.00145806 	2.8286121e-08 	0.005135964 	-2.5443705e-07 	0.0013100809
0.32608696 	0.0050069719 	-0.0013776805 	3.9746625e-06 	0.0049638513 	-1.0595812e-05 	0.0023919773
0.33695652 	0.0048391787 	-0.0012964007 	2.2642158e-08 	0.0047907114 	-1.5718299e-07 	0.0019373388
0.34782609 	0.0046811417 	-0.0012176517 	4.5958689e-08 	0.0046278028 	-3.1904751e-07 	0.0013173427
0.35869565 	0.0045337064 	-0.0011425819 	3.05811e-06 	0.0044788965 	-7.8956604e-06 	0.0024480155
0.36956522 	0.0043889802 	-0.0010668814 	2.9889135e-08 	0.0043300275 	-1.5110223e-07 	0.0020410968
0.38043478 	0.0042527763 	-0.00099307679 	1.0647949e-07 	0.0041880652 	-5.3829888e-07 	0.00077207748
0.39130435 	0.0041270557 	-0.00092370263 	1.369215e-06 	0.0040619496 	-3.373679e-06 	0.0024308882
0.40217391 	0.0040064121 	-0.00085325364 	2.0799397e-07 	0.0039379779 	-5.12487e-07 	0.0024982563
0.41304348 	0.0038928023 	-0.00078203905 	1.9974392e-07 	0.003815962 	-7.6185975e-07 	0.00013351205
0.42391304 	0.0037885767 	-0.00071677495 	3.8781404e-08 	0.0037111314 	-1.4791935e-07 	0.0019451786
0.43478261 	0.00369352 	-0.00065029725 	1.783379e-06 	0.0036128554 	-4.0122818e-06 	0.0024225364
0.44565217 	0.00360599 	-0.00058258345 	1.0767187e-07 	0.0035188371 	-3.2059718e-07 	0.0013953083
0.45652174 	0.0035259336 	-0.00051598412 	1.8644689e-07 	0.0034323851 	-5.5515289e-07 	0.00059970468
0.4673913 	0.0034503904 	-0.00045313509 	1.7524338e-10 	0.0033553561 	-5.21794e-10 	0.0023445647
0.47826087 	0.0033900122 	-0.00038880137 	6.3818555e-07 	0.0032902264 	-1.221036e-06 	0.002382978
0.48913043 	0.0033410572 	-0.00032323217 	1.6038672e-07 	0.003233185 	-3.808346e-07 	0.00095744163
0.5 	0.0032955538 	-0.00025803803 	1.782374e-07 	0.0031818285 	-4.2322063e-07 	0.00078084075
0.51086957 	0.0032515809 	-0.00019362171 	1.6191804e-07 	0.0031353206 	-2.3597225e-07 	0.0023403586
0.52173913 	0.0032237588 	-0.00012926306 	1.2800516e-08 	0.0031023756 	-1.865491e-08 	0.0023674173
0.5326087 	0.0032120307 	-6.4722686e-05 	1.8740657e-07 	0.0030820189 	-3.5982449e-07 	0.00068373584
0.54347826 	0.0032000411 	1.5146234e-06 	1.4835819e-07 	0.0030651605 	-2.8485077e-07 	0.0010425514
0.55434783 	0.0031913715 	6.8606061e-05 	6.4459928e-07 	0.0030535751 	-6.0968891e-07 	0.0023904121
0.56521739 	0.0032000077 	0.00013441291 	6.1490892e-08 	0.0030562225 	-9.5462468e-08 	0.0018067504
0.57608696 	0.0032184791 	0.0001996086 	2.4386865e-07 	0.0030665708 	-3.7859759e-07 	3.5510657e-05
0.58695652 	0.0032374088 	0.00026816293 	6.2810313e-08 	0.0030841452 	-9.7510823e-08 	0.0018573389
0.59782609 	0.0032654913 	0.00033566565 	2.4889487e-07 	0.0031091927 	-1.1398233e-07 	0.0024995372
0.60869565 	0.0033096932 	0.00040142585 	1.5845753e-07 	0.0031465186 	-1.9338886e-07 	0.00076233289
0.61956522 	0.0033560602 	0.00046947187 	1.1737466e-07 	0.003190404 	-1.4324943e-07 	0.0012821621
0.63043478 	0.0034071656 	0.0005383369 	7.7552155e-07 	0.0032409737 	2.1800475e-09 	0.0026482069
0.64130435 	0.0034731371 	0.00060464371 	1.1492599e-07 	0.0033019015 	-1.0339056e-07 	0.0011773469
0.65217391 	0.0035436454 	0.00067246273 	1.2728522e-07 	0.0033702785 	-1.1450927e-07 	0.0010912167
0.66304348 	0.0036182366 	0.00074204911 	6.6336301e-07 	0.0034465934 	2.8840395e-07 	0.0028442732
0.67391304 	0.0037058053 	0.0008082434 	1.0480591e-07 	0.0035302863 	-6.147337e-08 	0.0011997247
0.68478261 	0.0037981393 	0.00087632638 	9.8191762e-08 	0.0036226375 	-5.7593875e-08 	0.0014065866
0.69565217 	0.0038953554 	0.00094557235 	3.1136589e-07 	0.0037231671 	2.6272663e-07 	0.0030761194
0.70652174 	0.0040029828 	0.0010104314 	1.1459645e-07 	0.0038271621 	-3.29793e-08 	0.00067510078
0.7173913 	0.0041153599 	0.0010791856 	4.0126689e-08 	0.0039443276 	-1.1547915e-08 	0.0024182095
0.72826087 	0.0042336129 	0.0011454212 	2.2046277e-08 	0.0040651728 	-4.7445083e-10 	0.0025960324
0.73913043 	0.0043580748 	0.0012089982 	7.9961321e-08 	0.0041890005 	-1.7208219e-09 	0.00071706507
0.75 	0.0044878943 	0.0012763335 	4.1995275e-07 	0.0043280763 	6.884349e-07 	0.0035980969
0.76086957 	0.0046209531 	0.0013362114 	3.039512e-08 	0.0044604127 	2.1810479e-09 	0.00075670539
0.77173913 	0.00476021 	0.0014003293 	5.0553867e-09 	0.0046102563 	3.6275693e-10 	0.0033606623
0.7826087 	0.0048990114 	0.0014575673 	-1.90549e-08 	0.0047528717 	-2.0137038e-08 	0.0018753579
0.79347826 	0.0050417248 	0.0015151947 	-1.2816112e-08 	0.0049048363 	-1.3543946e-08 	0.0026996942
0.80434783 	0.0051822277 	0.0015683673 	-4.6839815e-08 	0.0050538377 	-5.161461e-08 	0.0025698984
0.81521739 	0.0053222344 	0.0016185208 	-5.0933988e-08 	0.0052037577 	-5.6126137e-08 	0.0025759391
0.82608696 	0.0054566179 	0.0016641003 	-8.6450878e-08 	0.0053492501 	-1.1631425e-07 	0.0026360282
0.83695652 	0.0055865093 	0.0017056786 	-6.6009658e-08 	0.0054924513 	-8.8811867e-08 	0.003195356
0.84782609 	0.0057022733 	0.0017393617 	-1.8563503e-07 	0.0056187091 	-2.992189e-07 	0.001853074
0.85869565 	0.0058130949 	0.0017710517 	9.0745954e-12 	0.0057496542 	7.0996374e-10 	0.0047604054
0.86956522 	0.0058932579 	0.0017880537 	-3.9771322e-07 	0.0058352553 	-7.4793602e-07 	1.6645337e-05
0.88043478 	0.0059636163 	0.0018037393 	-4.5918923e-08 	0.005930315 	-9.849316e-08 	0.0044055448
0.89130435 	0.0059995819 	0.0018058314 	-1.5231087e-07 	0.0059802609 	-3.2669709e-07 	0.0033482165
0.90217391 	0.0060001488 	0.0017961831 	-4.6733812e-07 	0.005990888 	-1.1227251e-06 	0.00056523892
0.91304348 	0.0059679998 	0.0017787259 	-1.1226305e-07 	0.0059808947 	-2.9834241e-07 	0.0039297165
0.92391304 	0.0058882699 	0.0017493882 	-4.2266504e-08 	0.0059169121 	-1.1812808e-07 	0.0048486547
0.93478261 	0.0057498096 	0.0016981179 	-1.490022e-07 	0.0057855107 	-4.3091642e-07 	0.0034466955
0.94565217 	0.0055453602 	0.0016351375 	-1.64749e-07 	0.0055897593 	-5.6079382e-07 	0.0045861181
0.95652174 	0.0052764933 	0.0015580721 	-3.9722951e-07 	0.0053118267 	-1.3928663e-06 	0.00040051714
0.9673913 	0.0049139344 	0.0014660012 	-1.0865453e-07 	0.0049452045 	-4.3096559e-07 	0.0026956303
0.97826087 	0.0044156596 	0.0013505966 	-1.7793061e-07 	0.0044265792 	-7.8453372e-07 	0.00037439924
0.98913043 	0.0033332018 	0.0010742655 	-5.0799728e-08 	0.0033313537 	-2.2464193e-07 	0.00043660125
