0.43820225 	0.0047056574 	-0.0016222916 	-7.3146815e-07 	0.0053680899 	2.2988396e-06 	0.0035729748
0.4494382 	0.0068910552 	-0.0022846307 	-1.3155032e-07 	0.0075824577 	1.6989994e-06 	0.001068901
0.46067416 	0.0065760703 	-0.0021201626 	-1.4912824e-07 	0.0069841931 	1.0105322e-06 	0.001112303
0.47191011 	0.0061731622 	-0.0019275856 	-2.5001244e-08 	0.0063246931 	9.5656538e-08 	0.0032648952
0.48314607 	0.0057980203 	-0.0017392862 	6.0869445e-07 	0.0057359572 	-1.8777356e-06 	0.0033581198
0.49438202 	0.0054369518 	-0.0015598559 	-1.2003885e-07 	0.005176491 	-1.3977001e-07 	0.00081597585
0.50561798 	0.0050998079 	-0.0013919208 	-9.3822037e-08 	0.0046718128 	-2.0031879e-07 	0.0010864896
0.51685393 	0.0047853249 	-0.001232982 	-2.8329658e-08 	0.0042107525 	-7.6720453e-08 	0.0018114898
0.52808989 	0.0044956335 	-0.0010816409 	-1.4590844e-08 	0.0037883423 	-4.3607042e-08 	0.0017419706
0.53932584 	0.0042339459 	-0.00093694783 	-6.5195684e-08 	0.0034046154 	-2.0170186e-07 	0.001107186
0.5505618 	0.0040030888 	-0.00079811749 	-1.963182e-07 	0.0030598612 	-6.1117957e-07 	9.5358074e-05
0.56179775 	0.0038039634 	-0.00066225598 	-4.4099732e-09 	0.0027588168 	-1.3703416e-08 	0.0013432644
0.57303371 	0.0036453537 	-0.00053313806 	1.7595961e-06 	0.0024991673 	-3.7763046e-06 	0.0012172506
0.58426966 	0.0035188647 	-0.00040778912 	1.6890346e-06 	0.0022757304 	-3.1015623e-06 	0.0010936134
0.59550562 	0.0034228997 	-0.00028615726 	-1.1340837e-07 	0.0020864407 	-3.5826518e-07 	0.0005103329
0.60674157 	0.0033624556 	-0.00016682333 	9.1521897e-07 	0.0019415279 	-1.3526062e-06 	0.00096399024
0.61797753 	0.0033334946 	-5.2223457e-05 	2.0170304e-06 	0.0018311846 	-2.1677164e-06 	0.00090577012
0.62921348 	0.0033261233 	5.9183391e-05 	-2.109048e-07 	0.0017477366 	-7.1585777e-07 	7.4500389e-05
0.64044944 	0.0033479787 	0.00016898199 	2.1425924e-06 	0.0017066389 	-1.3511686e-06 	0.00085825451
0.65168539 	0.0033852755 	0.00027523091 	2.7943593e-07 	0.0016854863 	-4.0901735e-08 	0.00085155086
0.66292135 	0.003445074 	0.00037809619 	1.2293054e-06 	0.0017006488 	-1.799365e-07 	0.00085046225
0.6741573 	0.0035185172 	0.0004778467 	8.2391991e-07 	0.0017376472 	3.1404998e-07 	0.00087105209
0.68539326 	0.0036066406 	0.00057469848 	9.1574804e-07 	0.0018006528 	3.4905171e-07 	0.00087974816
0.69662921 	0.0037059723 	0.0006678376 	7.5162386e-07 	0.0018848663 	7.1080494e-07 	0.00092735692
0.70786517 	0.0038160097 	0.000756969 	1.0733973e-06 	0.0019892852 	1.0151037e-06 	0.00094590935
0.71910112 	0.0039344687 	0.00084435206 	3.0188312e-07 	0.0021105402 	4.6484234e-07 	0.0010204377
0.73033708 	0.0040641384 	0.00092780658 	1.2415165e-06 	0.0022514475 	1.9116982e-06 	0.0010489014
0.74157303 	0.0041990585 	0.0010102114 	-3.9268528e-09 	0.0024046313 	-1.9581953e-08 	0.0011208853
0.75280899 	0.0043472363 	0.001090351 	1.0659317e-06 	0.0025782766 	2.2648193e-06 	0.0011856019
0.76404494 	0.0044982678 	0.0011689058 	6.5250722e-08 	0.002761505 	1.7341443e-07 	0.0013055326
0.7752809 	0.0046594797 	0.0012452732 	5.6983976e-07 	0.0029590172 	1.514442e-06 	0.0013524614
0.78651685 	0.0048239117 	0.0013200733 	4.4699598e-07 	0.0031670728 	1.3961263e-06 	0.0014922202
0.79775281 	0.004995059 	0.0013931457 	-2.3500528e-08 	0.0033829133 	-1.4602156e-07 	0.0012475354
0.80898876 	0.0051709446 	0.0014657384 	1.0583358e-06 	0.0036115688 	3.7221752e-06 	0.0017054896
0.82022472 	0.0053490943 	0.0015359363 	-4.7469598e-08 	0.0038436542 	-3.2825587e-07 	0.0010279914
0.83146067 	0.0055344507 	0.0016076094 	1.0901547e-07 	0.0040872411 	4.1885601e-07 	0.001942921
0.84269663 	0.0057202595 	0.001677447 	7.7477063e-07 	0.0043365405 	3.1799398e-06 	0.0021248003
0.85393258 	0.0059080871 	0.0017467628 	-4.3228009e-09 	0.0045905844 	-4.1896603e-08 	0.0021633849
0.86516854 	0.00609784 	0.0018141652 	-3.7376024e-08 	0.0048463225 	-4.8766871e-07 	0.00042596423
0.87640449 	0.0062917824 	0.0018850305 	-3.7628765e-10 	0.0051160589 	-8.3653508e-09 	0.002556331
0.88764045 	0.0064837123 	0.0019540496 	2.7809618e-07 	0.0053865041 	1.2783207e-06 	0.0028007897
0.8988764 	0.0066755821 	0.0020230983 	4.1487841e-07 	0.0056611515 	1.9485808e-06 	0.0030084373
0.91011236 	0.0068667211 	0.0020922277 	4.1682067e-07 	0.0059399239 	1.9932701e-06 	0.0032187088
0.92134831 	0.0070560871 	0.0021613211 	2.9520102e-07 	0.0062223653 	1.4394781e-06 	0.0034307759
0.93258427 	0.0072418672 	0.0022300145 	6.5092788e-08 	0.0065074857 	3.2266824e-07 	0.0036435752
0.94382022 	0.007418006 	0.0022954541 	4.7043504e-08 	0.0067866853 	-1.32874e-07 	0.0013292599
0.95505618 	0.0075785856 	0.002363951 	1.0584434e-08 	0.0070685191 	-2.5703524e-08 	0.0034945267
0.96629213 	0.0076844402 	0.002398938 	2.6008235e-08 	0.0072958524 	-1.5221683e-07 	0.00021628172
0.97752809 	0.0076587107 	0.0024064573 	-3.8011463e-08 	0.0074209138 	-5.7059716e-08 	0.0044884813
0.98876404 	0.0069117399 	0.0022013838 	-3.9153877e-07 	0.0068274327 	-1.2551414e-06 	0.0042272265
