0.47777778 	0.0069110636 	-0.0022611691 	1.2644817e-09 	0.0068980234 	-3.875523e-09 	0.00055462492
0.48888889 	0.0077528864 	-0.0024919392 	3.110602e-07 	0.0077368735 	-1.0097092e-06 	0.0010784371
0.5 	0.0073174497 	-0.0023623003 	7.4267242e-07 	0.0072990454 	-2.4111603e-06 	0.0010214248
0.51111111 	0.0067724442 	-0.0022049251 	1.418301e-06 	0.0067521712 	-4.6882018e-06 	0.00094981873
0.52222222 	0.0062227413 	-0.0020317149 	2.952159e-07 	0.0062004074 	-9.2964744e-07 	0.00084064459
0.53333333 	0.0056837317 	-0.001859423 	2.4869649e-06 	0.0056602454 	-7.5932197e-06 	0.00078181132
0.54444444 	0.0051743258 	-0.0016887632 	2.6511909e-06 	0.0051500686 	-7.8016281e-06 	0.00072189861
0.55555556 	0.0047043395 	-0.0015212678 	1.9517132e-06 	0.0046798548 	-5.4471493e-06 	0.00066208654
0.56666667 	0.0042814875 	-0.0013576389 	1.830206e-06 	0.004257323 	-4.7582654e-06 	0.00060383704
0.57777778 	0.0039108596 	-0.0011984324 	2.2597099e-06 	0.0038875239 	-5.3472449e-06 	0.00054879748
0.58888889 	0.0035942481 	-0.00104401 	3.1935567e-06 	0.0035721526 	-6.6875239e-06 	0.00049871616
0.6 	0.0033300766 	-0.00089454515 	2.9307927e-06 	0.0033095328 	-5.2449155e-06 	0.00045525125
0.61111111 	0.0031142125 	-0.00074992537 	1.1761761e-06 	0.0030954367 	-1.7182461e-06 	0.00041980829
0.62222222 	0.0029454482 	-0.00061006836 	-6.1252914e-09 	0.0029282886 	8.1781427e-09 	0.00023398749
0.63333333 	0.002830775 	-0.00047687699 	2.2131935e-06 	0.0028159365 	-2.4731163e-06 	0.00039320132
0.64444444 	0.002749449 	-0.0003475147 	2.5565269e-06 	0.0027365887 	-1.9617965e-06 	0.00037654107
0.65555556 	0.0026963849 	-0.00022126916 	-9.5070976e-09 	0.002685026 	4.3622527e-09 	0.00011655512
0.66666667 	0.0026866257 	-0.00010120691 	2.4840524e-06 	0.0026776566 	-1.0341692e-06 	0.00036976015
0.67777778 	0.0026962932 	1.6736136e-05 	1.5070895e-06 	0.0026891845 	-1.0247395e-07 	0.00037306236
0.68888889 	0.0027308401 	0.00013153268 	9.4876748e-07 	0.0027255133 	-6.4511067e-08 	0.00037313161
0.7 	0.0027910164 	0.00024306161 	2.6269736e-06 	0.0027873843 	7.2572309e-07 	0.00038657132
0.71111111 	0.0028630007 	0.00035309198 	1.7652102e-07 	0.0028609882 	4.8765386e-08 	0.00038671162
0.72222222 	0.0029610841 	0.00045829765 	2.9912219e-06 	0.0029605355 	1.8176295e-06 	0.00041043195
0.73333333 	0.0030641505 	0.00056222304 	6.1769788e-08 	0.0030649733 	3.753469e-08 	0.00041063103
0.74444444 	0.0031916204 	0.00066324501 	2.8395505e-06 	0.0031936278 	2.6556173e-06 	0.00044370026
0.75555556 	0.0033224412 	0.00076318089 	-9.5378808e-12 	0.0033255159 	-6.6441996e-12 	0.00044354666
0.76666667 	0.0034763018 	0.00086161179 	2.7865764e-06 	0.0034802208 	3.4823054e-06 	0.00048285306
0.77777778 	0.0036338068 	0.00095893479 	-8.3951463e-09 	0.003637607 	-5.7597239e-09 	5.6818872e-05
0.78888889 	0.0038091685 	0.0010543046 	2.0758464e-06 	0.0038142426 	3.1774665e-06 	0.00052466986
0.8 	0.0039896034 	0.001148295 	5.670596e-07 	0.0039950215 	1.0138829e-06 	0.00056736517
0.81111111 	0.0041810721 	0.0012403152 	7.3072257e-07 	0.0041865202 	1.3065066e-06 	0.00056773022
0.82222222 	0.0043814505 	0.0013307264 	1.7737108e-06 	0.0043868175 	3.5901332e-06 	0.00061065802
0.83333333 	0.0045878463 	0.0014200085 	1.817589e-07 	0.004593002 	4.0720151e-07 	0.00065310058
0.84444444 	0.0048032111 	0.0015075256 	4.5557451e-07 	0.0048078865 	1.0206412e-06 	0.00065351021
0.85555556 	0.0050253815 	0.0015936434 	1.3396331e-06 	0.0050295241 	3.2651994e-06 	0.00069498766
0.86666667 	0.0052528885 	0.0016785592 	9.5967003e-07 	0.0052563974 	2.5105956e-06 	0.00073511868
0.87777778 	0.0054856156 	0.0017621867 	3.369298e-07 	0.0054883934 	9.358228e-07 	0.00077364109
0.88888889 	0.0057229773 	0.0018443695 	-6.8107613e-10 	0.0057246724 	-1.008931e-11 	0.00067255534
0.9 	0.0059639987 	0.0019248504 	-2.9927793e-09 	0.0059636398 	-1.2553105e-10 	0.00011186598
0.91111111 	0.0062080965 	0.0020041624 	-2.5656412e-09 	0.0062066667 	-2.6731532e-10 	0.00011189959
0.92222222 	0.0064540686 	0.0020822506 	-2.7423885e-11 	0.0064529167 	-4.9825627e-12 	0.00089852801
0.93333333 	0.0066991724 	0.0021580053 	2.8291332e-07 	0.0066967756 	9.4060597e-07 	0.00093729847
0.94444444 	0.0069410151 	0.0022313812 	6.3759844e-07 	0.0069369616 	2.2030222e-06 	0.00096371777
0.95555556 	0.0071743208 	0.0023038258 	9.0379343e-08 	0.0071687586 	2.7854524e-07 	0.00098769528
0.96666667 	0.0073736421 	0.002357573 	1.369478e-07 	0.0073659393 	7.789825e-07 	0.0010232273
0.97777778 	0.0075004514 	0.0023950668 	-5.9616478e-08 	0.0074907654 	-2.052268e-07 	0.0010414355
0.98888889 	0.0071019032 	0.002284356 	-1.0023714e-06 	0.0070898588 	-3.4287999e-06 	0.00098185858
