0.12903226 	0.94868315 	0.62571111 	2.8216237e-06
0.13978495 	0.93161753 	0.5244007 	-0.0025322275
0.15053763 	0.96786279 	0.4903216 	-0.00010803701
0.16129032 	0.98542634 	0.44239678 	-0.00014324236
0.17204301 	1.0047882 	0.40855038 	-0.00026070918
0.1827957 	1.0215105 	0.37546365 	-6.9786866e-05
0.19354839 	1.039112 	0.34867342 	-0.00011782332
0.20430108 	1.0534046 	0.32492824 	-2.6708919e-05
0.21505376 	1.0660622 	0.30334844 	-0.00028947881
0.22580645 	1.0766967 	0.28452588 	-0.00049642503
0.23655914 	1.0855945 	0.26690796 	-0.00010640014
0.24731183 	1.0943144 	0.25009047 	-0.0002513084
0.25806452 	1.1020826 	0.23899935 	-0.00012006156
0.2688172 	1.1077149 	0.22427504 	-0.0001898013
0.27956989 	1.1135093 	0.21311685 	-0.00011211453
0.29032258 	1.1180818 	0.20384114 	-3.2869684e-05
0.30107527 	1.1224643 	0.19167598 	-4.9522982e-05
0.31182796 	1.1255282 	0.18504014 	-0.0001425116
0.32258065 	1.1291356 	0.17440803 	1.0256513e-05
0.33333333 	1.1310114 	0.16840763 	-0.00024049087
0.34408602 	1.1337274 	0.15975413 	3.4071181e-05
0.35483871 	1.1348836 	0.15406294 	-0.00032200861
0.3655914 	1.1364902 	0.14704311 	2.3494931e-05
0.37634409 	1.1373177 	0.14152456 	-0.00028901036
0.38709677 	1.1379841 	0.13568863 	-9.5806505e-05
0.39784946 	1.1385139 	0.13038746 	-0.00020554351
0.40860215 	1.1386746 	0.12531413 	-0.00029440065
0.41935484 	1.1386912 	0.12024066 	-4.5748537e-05
0.43010753 	1.1384045 	0.11574842 	-0.00036259922
0.44086022 	1.1381177 	0.11125619 	-4.3377793e-05
0.4516129 	1.1373521 	0.10701453 	-0.00010761557
0.46236559 	1.1366579 	0.10311822 	-0.0001977119
0.47311828 	1.1360713 	0.098790078 	3.1709702e-05
0.48387097 	1.1346341 	0.095552189 	-0.00010967863
0.49462366 	1.1335705 	0.092179778 	-0.00010141713
0.50537634 	1.1326477 	0.08822788 	5.0546294e-05
0.51612903 	1.1307475 	0.085518053 	-7.2458369e-05
0.52688172 	1.129289 	0.082574903 	-7.2303166e-05
0.53763441 	1.1279776 	0.079065773 	5.6586789e-05
0.5483871 	1.1257187 	0.076602435 	-1.0802069e-05
0.55913978 	1.123831 	0.074022571 	-8.883323e-05
0.56989247 	1.1220133 	0.071106898 	3.8666986e-05
0.58064516 	1.1195995 	0.0684812 	2.532916e-05
0.59139785 	1.1170617 	0.066188506 	-0.00010140784
0.60215054 	1.1147387 	0.063723789 	1.9154214e-05
0.61290323 	1.1121713 	0.061101292 	4.7590305e-05
0.62365591 	1.1089222 	0.058958445 	-5.0452759e-05
0.6344086 	1.1060734 	0.056735216 	1.0984924e-05
0.64516129 	1.1031582 	0.054303176 	4.9798558e-05
0.65591398 	1.0994012 	0.052325499 	-4.1437921e-05
0.66666667 	1.0961047 	0.050245965 	1.5840723e-05
0.67741935 	1.0925488 	0.048062698 	3.4729624e-05
0.68817204 	1.0884119 	0.046210684 	-5.5772048e-05
0.69892473 	1.0847103 	0.044177346 	3.228406e-05
0.70967742 	1.080198 	0.042286277 	5.7972431e-06
0.72043011 	1.0757795 	0.040529481 	-8.2909316e-06
0.7311828 	1.0714451 	0.038544122 	3.4966511e-05
0.74193548 	1.066208 	0.036880321 	-4.5074479e-05
0.75268817 	1.0614714 	0.035042575 	3.1411136e-05
0.76344086 	1.0557109 	0.033389106 	-2.1074427e-05
0.77419355 	1.0503096 	0.031699505 	1.5552383e-05
0.78494624 	1.0441433 	0.030038168 	-1.0138517e-05
0.79569892 	1.0380873 	0.028433744 	9.2640116e-06
0.80645161 	1.0313489 	0.026808455 	-1.1717491e-05
0.8172043 	1.0246587 	0.025236639 	1.0882097e-05
0.82795699 	1.0171583 	0.023679898 	-2.3295086e-05
0.83870968 	1.009866 	0.022096473 	1.8755897e-05
0.84946237 	1.0013798 	0.020632551 	-2.4201534e-05
0.86021505 	0.99287441 	0.019086677 	2.4701037e-06
0.87096774 	0.9838212 	0.017629033 	3.1232397e-06
0.88172043 	0.97399242 	0.016134339 	-2.8692603e-05
0.89247312 	0.96367201 	0.014636637 	-1.6605831e-06
0.90322581 	0.95274613 	0.013168764 	7.0847803e-06
0.91397849 	0.94031861 	0.011730504 	-6.7589155e-06
0.92473118 	0.9267609 	0.010254597 	-2.0503019e-05
0.93548387 	0.91181852 	0.0088102061 	-1.9007461e-05
0.94623656 	0.8940757 	0.0073479539 	-1.6958992e-05
0.95698925 	0.87197573 	0.0058265606 	2.7102631e-06
0.96774194 	0.84170243 	0.0043405356 	-6.3087562e-07
0.97849462 	0.79311354 	0.0028106522 	-1.5343837e-06
0.98924731 	0.67441545 	0.0012387955 	-5.8355125e-06
