0.46067416 	0.0064874642 	-0.0021871752 	-2.0409075e-07 	0.006957582 	7.7523462e-07 	9.921742e-05
0.47191011 	0.0071776164 	-0.0023389436 	3.6965681e-07 	0.0075552192 	-1.1449405e-06 	0.00044396983
0.48314607 	0.0067499617 	-0.0021469059 	6.7085625e-07 	0.006973878 	-2.020543e-06 	0.00071298318
0.49438202 	0.0062837772 	-0.0019503644 	1.3016303e-06 	0.0063707253 	-3.9841555e-06 	0.00091846742
0.50561798 	0.0058370351 	-0.0017526491 	4.8465557e-07 	0.0058042103 	-1.4322997e-06 	0.001033693
0.51685393 	0.0054123921 	-0.0015667163 	2.5475008e-06 	0.0052722319 	-7.4249376e-06 	0.0011495588
0.52808989 	0.0050144385 	-0.0013897602 	2.153479e-06 	0.0047776256 	-6.1662921e-06 	0.0012262308
0.53932584 	0.0046466871 	-0.0012209366 	1.4012426e-06 	0.0043221125 	-3.895799e-06 	0.0012675161
0.5505618 	0.0043130064 	-0.0010592576 	1.2610528e-06 	0.0039076628 	-3.3575719e-06 	0.0012785058
0.56179775 	0.0040168561 	-0.00090395953 	1.6734175e-06 	0.0035361173 	-4.1887012e-06 	0.0012655311
0.57303371 	0.0037603994 	-0.0007544288 	2.5758736e-06 	0.0032083193 	-5.9193267e-06 	0.0012360702
0.58426966 	0.0035438131 	-0.00061013882 	1.5997362e-06 	0.0029235456 	-3.2728781e-06 	0.0011983468
0.59550562 	0.0033664388 	-0.00047071697 	3.8974282e-08 	0.0026796305 	-1.3270184e-07 	0.00098420224
0.60674157 	0.0032346948 	-0.00033715599 	9.9250348e-08 	0.0024818315 	-3.6532975e-07 	0.00073502178
0.61797753 	0.0031411507 	-0.00020833053 	1.8290417e-06 	0.0023302602 	-2.5780555e-06 	0.0011566912
0.62921348 	0.0030781685 	-8.3242467e-05 	6.8884148e-07 	0.0022108942 	-7.1170624e-07 	0.0011314077
0.64044944 	0.0030510719 	3.6849828e-05 	1.4399769e-07 	0.0021266381 	-6.0791327e-07 	0.00050786008
0.65168539 	0.0030523293 	0.00015253647 	2.2456082e-06 	0.0020838902 	-1.3984435e-06 	0.0011340344
0.66292135 	0.003075691 	0.00026508642 	9.0987276e-08 	0.0020627763 	-4.0295826e-07 	0.00073731207
0.6741573 	0.0031243846 	0.00037263406 	9.510516e-07 	0.0020773624 	-1.6895367e-07 	0.0011437457
0.68539326 	0.0031899592 	0.00047744773 	3.3398272e-07 	0.0021137344 	1.0206277e-07 	0.0011703286
0.69662921 	0.0032751956 	0.0005777331 	3.8487043e-07 	0.002176148 	1.176137e-07 	0.001163037
0.70786517 	0.003374969 	0.00067494109 	5.7997039e-07 	0.0022602254 	4.7562109e-07 	0.0012078381
0.71910112 	0.0034865717 	0.00076705409 	4.0594487e-07 	0.0023622086 	3.3290655e-07 	0.0011926899
0.73033708 	0.0036125663 	0.00085786072 	4.3686824e-07 	0.0024838545 	5.9565565e-07 	0.0012531551
0.74157303 	0.003747508 	0.0009440161 	5.1831361e-07 	0.0026207392 	7.0670376e-07 	0.0012298709
0.75280899 	0.0038953353 	0.001029379 	4.0624784e-07 	0.0027742104 	7.7320728e-07 	0.001295388
0.76404494 	0.0040518282 	0.0011119723 	3.1057984e-07 	0.002942638 	5.9112338e-07 	0.0012640614
0.7752809 	0.004218798 	0.001192734 	7.3786443e-07 	0.003124711 	1.7701833e-06 	0.0013242159
0.78651685 	0.0043910599 	0.0012709452 	3.806591e-08 	0.0033158283 	-1.994506e-07 	0.00093901822
0.79775281 	0.0045731812 	0.0013482264 	1.3363739e-06 	0.0035226314 	3.7958269e-06 	0.001334907
0.80898876 	0.0047594734 	0.0014232673 	4.9889885e-08 	0.0037332954 	-2.7035431e-07 	0.00078898789
0.82022472 	0.0049520571 	0.0014977556 	4.4556374e-07 	0.0039589376 	1.4357127e-06 	0.0013246079
0.83146067 	0.005150133 	0.0015708191 	8.579537e-07 	0.0041900307 	3.0417745e-06 	0.0013517939
0.84269663 	0.0053515006 	0.0016427344 	1.8658998e-08 	0.004426481 	-1.0744752e-07 	0.0010499317
0.85393258 	0.0055561543 	0.001714129 	9.3817662e-08 	0.0046727647 	3.5773957e-07 	0.001302557
0.86516854 	0.0057646441 	0.0017848315 	6.6570688e-07 	0.0049240533 	2.6831481e-06 	0.0013023152
0.87640449 	0.0059749652 	0.0018551102 	7.9399768e-07 	0.0051802781 	3.3377962e-06 	0.0012909355
0.88764045 	0.0061866921 	0.0019250631 	4.5678294e-07 	0.0054413132 	1.9823927e-06 	0.0012685359
0.8988764 	0.006399213 	0.0019948081 	2.8290504e-07 	0.0057068463 	1.257915e-06 	0.0012355007
0.91011236 	0.0066117626 	0.0020644456 	2.5254162e-07 	0.0059764602 	1.1439239e-06 	0.0011923651
0.92134831 	0.0068233716 	0.0021340013 	3.4926245e-07 	0.0062495298 	1.6090736e-06 	0.0011397523
0.93258427 	0.0070325361 	0.0022033548 	5.6032476e-07 	0.006525047 	2.6038496e-06 	0.0010782711
0.94382022 	0.0072365057 	0.0022716892 	3.4521525e-07 	0.0068006617 	1.6733302e-06 	0.0010085585
0.95505618 	0.0074293737 	0.0023410749 	1.0609213e-08 	0.00707016 	-2.7682259e-08 	0.00040701778
0.96629213 	0.0075805388 	0.0023882276 	5.3099472e-08 	0.0073083577 	6.0600088e-07 	0.00085822742
0.97752809 	0.0076305569 	0.0024128054 	-2.2310854e-07 	0.0074554622 	-3.377563e-07 	0.0007638761
0.98876404 	0.0070483635 	0.0022535898 	-1.8865011e-06 	0.0069784841 	-6.1392305e-06 	0.00061168451
