1.905786303e-20 	0.0008380464824 	-5.69158501e-17 	-2.068740507e-23 	3.865434747e-30 	1.404983221e-36 	5.106742139e-43
5.911525573e-18 	0.0008380464824 	-5.640621319e-17 	-9.242199372e-23 	1.462415603e-18 	-2.058441606e-22 	2.787770597e-21
0.003981987539 	0.001194204159 	0.0001275552707 	-5.566427812e-06 	0.0003728489704 	-1.57968755e-05 	7.107537656e-07
0.007949179987 	0.002078659336 	-0.0004438317637 	1.642362158e-05 	0.001318912837 	-5.11716365e-05 	2.51421444e-06
0.01189912993 	0.002700373947 	-0.0009640715132 	3.231664451e-05 	0.002088464197 	-7.181097772e-05 	3.981193218e-06
0.01582944772 	0.002544904595 	-0.0008562023262 	2.147439618e-05 	0.002015433301 	-5.427052982e-05 	3.841976032e-06
0.0197378005 	0.00249645027 	-0.0008033161544 	1.193889043e-05 	0.002017146797 	-3.871593138e-05 	3.845242432e-06
0.02570640847 	0.002629738407 	-0.0008428317275 	6.839446622e-06 	0.002157187467 	-2.877755024e-05 	4.112198872e-06
0.03237071847 	0.002714164463 	-0.0008418522167 	4.688134344e-06 	0.002202116039 	-2.298389693e-05 	4.197845217e-06
0.03978568909 	0.002679988633 	-0.0008114631447 	3.152645715e-06 	0.002113459206 	-1.860303534e-05 	4.028840652e-06
0.04799854963 	0.00265022306 	-0.0008303276546 	2.396339179e-06 	0.002030354633 	-1.482581454e-05 	3.870420238e-06
0.05725865866 	0.002662571246 	-0.0009141965689 	2.482921641e-06 	0.002027799239 	-1.139232921e-05 	3.865548947e-06
0.06756258972 	0.002613295531 	-0.0009831561462 	2.57725085e-06 	0.00202077538 	-8.148012163e-06 	3.852159519e-06
0.07891282918 	0.002560163281 	-0.00105492815 	2.973474192e-06 	0.00203579316 	-5.906469082e-06 	3.880787582e-06
0.0913817957 	0.002453219495 	-0.001101308749 	3.028433312e-06 	0.002034487766 	-4.13798198e-06 	3.878299138e-06
0.1053091069 	0.002299170755 	-0.001126991671 	2.439724434e-06 	0.002028113844 	-2.403073989e-06 	3.866148671e-06
0.1206301975 	0.002126417055 	-0.001135577943 	1.650318937e-06 	0.002016081894 	-1.207734387e-06 	3.843212431e-06
0.1429220515 	0.002041508363 	-0.001230238335 	2.031543773e-07 	0.002198790963 	-3.624782006e-08 	4.191506697e-06
0.1465637075 	0.002013969626 	-0.001233208808 	1.030592943e-06 	0.002207236226 	-2.040214631e-06 	4.207605716e-06
0.1605773678 	0.001895387513 	-0.001178251846 	1.870392307e-06 	0.002210630905 	2.172837605e-06 	4.214076919e-06
0.1781825226 	0.001854468709 	-0.001191745303 	3.801941416e-06 	0.002365823955 	4.891997611e-06 	4.509918006e-06
0.1967503729 	0.001769139836 	-0.00117247662 	5.467328963e-06 	0.002434008589 	7.300731133e-06 	4.639896869e-06
0.2163810895 	0.001694552455 	-0.001172161284 	6.525925618e-06 	0.002554324207 	1.087290132e-05 	4.869251877e-06
0.2372043321 	0.001656139525 	-0.001192747387 	6.695911802e-06 	0.002702951225 	1.112525847e-05 	5.152576281e-06
0.2591793737 	0.001549008768 	-0.001166323784 	4.904834251e-06 	0.002760792877 	9.149900619e-06 	5.262838546e-06
0.2823715889 	0.001515724934 	-0.001193989614 	3.708833841e-06 	0.002951654762 	6.903257952e-06 	5.626674347e-06
0.3068383465 	0.001401838895 	-0.001154218665 	2.418844371e-06 	0.003006542689 	4.576732746e-06 	5.73130599e-06
0.3326983097 	0.001349867196 	-0.001163469831 	1.220644855e-06 	0.003234332212 	2.458395332e-06 	6.165536131e-06
0.359958224 	0.00124378403 	-0.00111810476 	5.084932989e-08 	0.00337357568 	9.496601249e-08 	6.430972882e-06
0.3611857636 	0.001239938426 	-0.001116424601 	1.888134294e-07 	0.003384448436 	-1.228794693e-07 	6.451699377e-06
0.3874849937 	0.001196058811 	-0.001064036406 	1.565956186e-06 	0.003582284059 	6.574550684e-07 	6.828829061e-06
0.4167953141 	0.001125702786 	-0.0009747147093 	2.996495766e-06 	0.003783743424 	9.921226988e-07 	7.212866603e-06
0.4479749189 	0.001044370851 	-0.0008500870543 	4.004092809e-06 	0.004027010746 	9.016713223e-07 	7.676601732e-06
0.4811563471 	0.0009956124666 	-0.0006093960163 	3.57258914e-06 	0.004218296308 	1.917295238e-06 	8.041245178e-06
0.5164683896 	0.001047661311 	-0.0002386506769 	1.949571971e-06 	0.004232055199 	4.906871472e-06 	8.067473448e-06
0.5540504391 	0.001194544376 	0.0001442930498 	9.900064689e-07 	0.004112092311 	7.002299392e-06 	7.838790842e-06
0.591419292 	0.001364931478 	0.0004458521158 	7.862181685e-07 	0.003957990869 	6.843769529e-06 	7.545030663e-06
0.626157779 	0.001524935057 	0.0006682553373 	7.652198496e-07 	0.003822422929 	5.873738805e-06 	7.286600491e-06
0.6584952642 	0.001663864172 	0.0008392592274 	7.492597159e-07 	0.003721738315 	4.972751316e-06 	7.094667632e-06
0.6886312233 	0.001787447027 	0.0009802755032 	7.525004453e-07 	0.003653764863 	4.299243335e-06 	6.96509134e-06
0.7167404184 	0.001903001514 	0.001106232042 	7.698613015e-07 	0.003617004765 	3.836384523e-06 	6.895016376e-06
0.7429778671 	0.002017316077 	0.001225844111 	7.928450379e-07 	0.00361208302 	3.533422524e-06 	6.885634162e-06
0.7674795692 	0.002136656559 	0.001344339247 	8.093357581e-07 	0.003639901764 	3.341780577e-06 	6.938664421e-06
0.7903685635 	0.002266114553 	0.001463971144 	8.063820271e-07 	0.003700403732 	3.20283462e-06 	7.053997987e-06
0.8117556941 	0.002409280243 	0.001584611229 	7.754422399e-07 	0.003790993042 	3.06627771e-06 	7.226686389e-06
0.8317424657 	0.002567553879 	0.001704358851 	7.138373112e-07 	0.003906316878 	2.895518247e-06 	7.446525673e-06
0.850421967 	0.0027397565 	0.001820196469 	6.246677956e-07 	0.004038635519 	2.671646773e-06 	7.698761779e-06
0.8678801688 	0.002922180564 	0.001928732736 	5.149472685e-07 	0.00417879294 	2.393781364e-06 	7.965940779e-06
0.8841968874 	0.003109194398 	0.002026739256 	3.931057801e-07 	0.004317119495 	2.072382648e-06 	8.229629639e-06
0.8994463817 	0.003293711817 	0.002111710317 	2.676006912e-07 	0.004445051733 	1.722777107e-06 	8.473504041e-06
0.9136979056 	0.003468840981 	0.002181270988 	1.462989568e-07 	0.004553164157 	1.358888294e-06 	8.67959637e-06
0.9270161484 	0.003627262606 	0.002237043987 	4.10650084e-08 	0.004636154559 	9.975651258e-07 	8.837799141e-06
0.9394615884 	0.003750899869 	0.002265771611 	-3.111823275e-08 	0.004677850038 	6.798481128e-07 	8.917282314e-06
0.9477028058 	0.003832502278 	0.002273410813 	-6.263516261e-08 	0.00468274402 	4.458022086e-07 	8.926611603e-06
0.95500093 	0.003886114035 	0.002276387145 	-5.628333939e-08 	0.004668833332 	2.896644657e-07 	8.900093965e-06
0.9614634858 	0.003918828076 	0.002271351042 	-2.500101318e-08 	0.004635694463 	1.903291705e-07 	8.836922071e-06
0.9671858302 	0.003930921687 	0.002260919821 	2.710207203e-08 	0.004585929419 	1.505051368e-07 	8.742056065e-06
0.9722524981 	0.003921487442 	0.00224501174 	9.19340477e-08 	0.004519180583 	1.662495805e-07 	8.614814233e-06
0.9767384256 	0.003886431176 	0.002221385752 	1.583700615e-07 	0.004432183418 	2.252855305e-07 	8.448973457e-06
0.9807100262 	0.003813765149 	0.002184628419 	2.118466661e-07 	0.004317949969 	3.012522801e-07 	8.231212754e-06
0.9842261508 	0.003679974733 	0.002117330606 	2.339582926e-07 	0.004144276866 	3.475466295e-07 	7.90014355e-06
0.9873389416 	0.003433783075 	0.00200044988 	1.915787357e-07 	0.003853239489 	2.880650502e-07 	7.345345418e-06
0.9900945924 	0.002943636913 	0.001723053155 	4.543571646e-08 	0.00328431977 	5.136303873e-08 	6.260826312e-06
0.9918848773 	0.002170756274 	0.001244147564 	-1.816756505e-07 	0.002396091669 	-3.063605616e-07 	4.56761668e-06
0.9936753828 	0.001127669705 	0.0005948795497 	-2.202564245e-07 	0.00121967192 	-3.646819082e-07 	2.32503367e-06
0.9954661087 	0.0002830897439 	0.0001124517512 	-6.894058316e-08 	0.0002916275127 	-1.205716414e-07 	5.559230929e-07
0.997257055 	1.935567375e-05 	2.847722418e-06 	-1.171137154e-09 	1.934960458e-05 	-2.910436177e-09 	3.688572428e-08
0.9990482216 	1.485230695e-07 	2.056385063e-09 	8.669223447e-13 	1.482361403e-07 	6.017539137e-11 	2.825792835e-10
0.9990482216 	1.485230695e-07 	2.056385063e-09 	8.669223447e-13 	1.482361403e-07 	6.017539137e-11 	2.825792835e-10
