0.3440231802 	2.311485361e-07 	-1.660956902e-09 	7.098351528e-12 	2.324811727e-07 	-4.571597536e-10 	4.4317373e-10
0.3453619003 	2.268712072e-05 	-1.948346378e-06 	6.30089841e-09 	2.473097004e-05 	-4.022340393e-08 	4.714410251e-08
0.346700708 	0.0002628039406 	-8.158906138e-05 	1.946611427e-07 	0.0003529057569 	-4.938772899e-07 	6.727364577e-07
0.348039379 	0.001056314937 	-0.0005431449205 	8.740578815e-07 	0.001709093663 	-1.623613778e-06 	3.258007539e-06
0.3493776909 	0.002240164208 	-0.001378695111 	1.469425479e-06 	0.003941995309 	-2.009832377e-06 	7.514538681e-06
0.3507154234 	0.003433728815 	-0.002243329246 	1.442950982e-06 	0.006189952538 	-9.087590237e-07 	1.179976995e-05
0.3527731822 	0.004456295766 	-0.002918903465 	9.891465968e-07 	0.007927067892 	8.050570545e-07 	1.511119462e-05
0.3550948411 	0.005189340523 	-0.003368147393 	3.560889399e-07 	0.009004005406 	2.492347479e-06 	1.716413684e-05
0.3577124116 	0.005688074019 	-0.003679212084 	-2.397999185e-07 	0.00962099422 	3.776958532e-06 	1.8340289e-05
0.3606824659 	0.006021211646 	-0.003867956824 	-7.241162938e-07 	0.009891811445 	4.583369089e-06 	1.88565419e-05
0.3640355815 	0.006229757867 	-0.003962941118 	-1.064086727e-06 	0.009921068296 	4.953300298e-06 	1.891231359e-05
0.3678149006 	0.006346573166 	-0.003991543521 	-1.267204962e-06 	0.00977742533 	4.969824679e-06 	1.863849017e-05
0.3720736319 	0.006394577065 	-0.003962650583 	-1.340497218e-06 	0.009496143465 	4.690444949e-06 	1.810228876e-05
0.3769056112 	0.006390008787 	-0.003887362138 	-1.30206502e-06 	0.009112085991 	4.189182595e-06 	1.737016847e-05
0.3823489685 	0.00634694249 	-0.003773109589 	-1.180940002e-06 	0.008651589375 	3.553769196e-06 	1.649233393e-05
0.3884922639 	0.006263693934 	-0.003625917233 	-1.003003678e-06 	0.008109701608 	2.855120478e-06 	1.545934524e-05
0.3977735322 	0.006137574644 	-0.003425626018 	-7.235776804e-07 	0.007458312872 	1.949102556e-06 	1.421761727e-05
0.4077064413 	0.005979910639 	-0.003192109461 	-4.476526988e-07 	0.00677936344 	1.138102653e-06 	1.292335094e-05
0.4183256322 	0.005799865652 	-0.002964143565 	-1.777973532e-07 	0.006156517505 	4.299950428e-07 	1.173603348e-05
0.4261058455 	0.0056617779 	-0.00280998754 	4.017318912e-06 	0.005764184339 	-9.729211568e-06 	1.098813742e-05
0.4296566751 	0.005598190357 	-0.002739230122 	-6.091364981e-08 	0.005584551473 	1.298699087e-07 	1.064570725e-05
0.441725473 	0.005371446003 	-0.002517552663 	-2.60371271e-07 	0.005058000122 	5.373790722e-07 	9.64195403e-06
0.4546437824 	0.005118500716 	-0.002296445242 	-4.710327397e-07 	0.004565897115 	9.482311966e-07 	8.703868926e-06
0.4684694852 	0.004842434006 	-0.002072983123 	-6.830767201e-07 	0.004102568445 	1.34946511e-06 	7.820635705e-06
0.483263504 	0.004551938428 	-0.001846031223 	-8.805651648e-07 	0.003668792198 	1.7212964e-06 	6.993737618e-06
0.4990904661 	0.00426631459 	-0.00160846668 	-1.019713484e-06 	0.003259755469 	2.005087181e-06 	6.213999927e-06
0.5160194649 	0.004003590231 	-0.001361629076 	-1.099069692e-06 	0.002881760507 	2.159684225e-06 	5.493436471e-06
0.534125736 	0.003782136802 	-0.001111271263 	-1.209475752e-06 	0.002546933766 	2.215955365e-06 	4.855163642e-06
0.5534985534 	0.003621584012 	-0.0008558086414 	-1.334550337e-06 	0.002262574643 	2.086780892e-06 	4.31309612e-06
0.5742165405 	0.003543789544 	-0.000589872769 	-1.325606076e-06 	0.002039520208 	1.629388139e-06 	3.887892372e-06
0.5963809076 	0.003575690601 	-0.0003102046347 	-1.131028382e-06 	0.001893361261 	8.692214356e-07 	3.609272795e-06
0.6200931186 	0.003743163812 	-2.160665433e-05 	-9.335887466e-07 	0.001843643521 	1.589055564e-07 	3.514496966e-06
0.6454657031 	0.004054224873 	0.0002864322463 	-8.641365512e-07 	0.001914605669 	-2.749579691e-07 	3.649770543e-06
0.6726223762 	0.004497206551 	0.0006373845361 	-8.821426921e-07 	0.002121429711 	-5.477401593e-07 	4.04403465e-06
0.6997690552 	0.005036540162 	0.001033927643 	-9.088643646e-07 	0.00243199333 	-7.389405625e-07 	4.636055225e-06
0.7251139532 	0.005603355796 	0.001448680323 	-8.538802591e-07 	0.002801864979 	-8.315791066e-07 	5.341133387e-06
0.7487832758 	0.006133992234 	0.001841826788 	-8.760777133e-07 	0.003203124404 	-8.873416637e-07 	6.106045376e-06
0.7708923052 	0.006593749941 	0.002190093598 	-8.816339944e-07 	0.003628913982 	-8.483001946e-07 	6.917718654e-06
0.7915468462 	0.006997305088 	0.002519667423 	-7.474098574e-07 	0.004090036934 	-7.139594293e-07 	7.796747164e-06
0.8108444999 	0.007366003629 	0.002843333277 	-6.060369559e-07 	0.00457751394 	-5.884832398e-07 	8.726013824e-06
0.8288752071 	0.007699973089 	0.00314704184 	-4.617012202e-07 	0.005071419655 	-4.608656477e-07 	9.66753539e-06
0.8457226162 	0.00800232386 	0.00343002807 	-3.330254297e-07 	0.00556155414 	-3.458730952e-07 	1.060186795e-05
0.8614643852 	0.00827631581 	0.003692496597 	-2.274473589e-07 	0.006041168204 	-2.479919001e-07 	1.151614565e-05
0.8761728768 	0.008524366726 	0.003935701615 	-1.462852647e-07 	0.006507188526 	-1.691648906e-07 	1.240450991e-05
0.8899155937 	0.008748453391 	0.004160647712 	-8.729029176e-08 	0.006957721738 	-1.087088539e-07 	1.326335143e-05
0.9027555604 	0.008949769396 	0.004367905067 	-4.693728822e-08 	0.007391319135 	-6.466711074e-08 	1.408990858e-05
0.9147516662 	0.009128373756 	0.00455697341 	-2.149936485e-08 	0.007805708649 	-3.449406939e-08 	1.487985017e-05
0.9259589634 	0.009281813018 	0.004726665486 	-7.449093613e-09 	0.008198421281 	-1.539028617e-08 	1.56284696e-05
0.9364289334 	0.009405473608 	0.004871949618 	-1.319082719e-09 	0.008560880944 	-4.145494689e-09 	1.631941845e-05
0.9418620584 	0.009452799974 	0.004939995505 	1.376082113e-06 	0.008741395064 	4.526161243e-06 	1.666352854e-05
0.9462086608 	0.00949068311 	0.004994506095 	2.186388519e-09 	0.008885956947 	3.346397347e-09 	1.693910367e-05
0.9553436498 	0.009511758279 	0.005057634686 	4.208597635e-09 	0.009124650092 	8.269973734e-09 	1.739411914e-05
0.961391458 	0.009472512336 	0.005067035805 	-1.001055985e-10 	0.009259946813 	4.374359861e-09 	1.765203229e-05
0.9667463238 	0.009388114059 	0.005052291439 	-1.082854819e-08 	0.009323456938 	-9.324644921e-09 	1.777310024e-05
0.971487438 	0.009247132336 	0.004998049088 	-2.765870914e-08 	0.009313978675 	-3.379945224e-08 	1.775503204e-05
0.9756849854 	0.009042985397 	0.00490597552 	-4.956941403e-08 	0.009226219869 	-6.817604144e-08 	1.758773937e-05
0.9794011587 	0.008766468456 	0.004772658413 	-7.442538696e-08 	0.009049702653 	-1.095878688e-07 	1.725124849e-05
0.9826910629 	0.008403090359 	0.004592730164 	-9.948119303e-08 	0.008769862593 	-1.53534179e-07 	1.671779556e-05
0.9856035161 	0.007926080887 	0.004356546061 	-1.207055095e-07 	0.008365472864 	-1.92961734e-07 	1.594691634e-05
0.9881817623 	0.007291721097 	0.004036230683 	-1.323618304e-07 	0.007776710132 	-2.166423431e-07 	1.482457094e-05
0.9904641044 	0.006419176244 	0.003601836385 	-1.254241657e-07 	0.006906617514 	-2.078748672e-07 	1.316593258e-05
0.9924844658 	0.005158036269 	0.002909453053 	-8.753962065e-08 	0.005570579799 	-1.477612543e-07 	1.061907336e-05
0.993796989 	0.00354358576 	0.001938653847 	-2.486010263e-08 	0.00380573801 	-4.936837566e-08 	7.254794397e-06
0.9951096262 	0.00173238388 	0.0008482409927 	9.725511418e-09 	0.001827519024 	7.858456262e-09 	3.483759193e-06
0.9964223774 	0.0004249901471 	0.0001458964457 	5.197817102e-09 	0.0004307188485 	5.789943112e-09 	8.210698373e-07
0.9977352425 	3.323116454e-05 	3.914861837e-06 	1.110914274e-11 	3.316836138e-05 	-6.070485917e-10 	6.322811546e-08
0.9990482216 	3.514412914e-07 	3.997595169e-09 	-4.719857643e-13 	3.50745958e-07 	-3.399937835e-11 	6.686192807e-10
0.9990482216 	3.514412914e-07 	3.997595169e-09 	-4.719857643e-13 	3.50745958e-07 	-3.399937835e-11 	6.686192807e-10
