0.4709558481 	6.790136896e-07 	-1.151665192e-08 	4.154653199e-13 	6.776820527e-07 	-1.766116815e-11 	1.291850344e-09
0.4720092239 	5.610096134e-05 	-8.169328397e-06 	2.880884633e-10 	5.603389068e-05 	-1.466938432e-09 	1.068161695e-07
0.4730625996 	0.0006447480448 	-0.0002411191131 	7.41950854e-09 	0.0006587713406 	-1.696053141e-08 	1.255801271e-06
0.4741159754 	0.002437404157 	-0.001241108099 	2.909779879e-08 	0.002602541701 	-5.615002887e-08 	4.961167821e-06
0.4751693511 	0.004753972311 	-0.002675267428 	4.814559854e-08 	0.005183292388 	-8.989851165e-08 	9.880795913e-06
0.4762227269 	0.006667236493 	-0.003861237797 	5.407430072e-08 	0.007336345967 	-1.021555073e-07 	1.398511445e-05
0.4778443634 	0.007990879061 	-0.004616474945 	5.478185178e-08 	0.008806563383 	-1.045041807e-07 	1.678775747e-05
0.4796765386 	0.00871143862 	-0.004978543011 	5.274078953e-08 	0.009581732874 	-1.008406596e-07 	1.826544596e-05
0.4817465869 	0.009092773713 	-0.005174098012 	5.014964223e-08 	0.009979437143 	-9.491126001e-08 	1.902358084e-05
0.4840853915 	0.009269425631 	-0.005259278002 	4.658516613e-08 	0.01015276372 	-8.677248679e-08 	1.935398946e-05
0.4867278453 	0.00931192402 	-0.005278902573 	4.203761816e-08 	0.01019407819 	-7.630122146e-08 	1.943274633e-05
0.4897133715 	0.00926191119 	-0.005251432634 	3.631237729e-08 	0.01013811349 	-6.297919984e-08 	1.932606206e-05
0.4930865115 	0.009140863071 	-0.005187643326 	2.914919728e-08 	0.0100064319 	-4.624269316e-08 	1.907504034e-05
0.4968975894 	0.008959916253 	-0.005093291266 	2.019795692e-08 	0.009811621794 	-2.536597359e-08 	1.870367814e-05
0.5012034633 	0.008724563116 	-0.004967077503 	9.165457631e-09 	0.009557308206 	3.829602433e-10 	1.821888576e-05
0.506068373 	0.008413611275 	-0.004814147523 	-6.237478935e-09 	0.009227367904 	3.513158859e-08 	1.758992784e-05
0.5134203412 	0.007992829436 	-0.004595475765 	-2.778357729e-08 	0.008774391309 	8.302117824e-08 	1.672642855e-05
0.5212948542 	0.007494204761 	-0.004317590318 	-5.418677644e-08 	0.008229481877 	1.406074374e-07 	1.568767972e-05
0.529729052 	0.006964909098 	-0.004025317761 	-8.408723644e-08 	0.00765102845 	2.027093243e-07 	1.458498672e-05
0.5387627144 	0.006413301591 	-0.003711734784 	-1.165546527e-07 	0.007041734492 	2.660704916e-07 	1.342350309e-05
0.5484384488 	0.00584903175 	-0.003379294782 	-1.504263989e-07 	0.006412543709 	3.266152496e-07 	1.222409058e-05
0.5588018907 	0.005285654384 	-0.003029324807 	-1.835543194e-07 	0.005772745116 	3.787872242e-07 	1.100445664e-05
0.5699019192 	0.004738890554 	-0.002663416441 	-2.165850381e-07 	0.005136307109 	4.171350434e-07 	9.791228913e-06
0.5817908876 	0.004226252897 	-0.002281924206 	-2.485304927e-07 	0.004520915957 	4.346818493e-07 	8.618122338e-06
0.5945248701 	0.003764026938 	-0.00188782013 	-2.727594018e-07 	0.003950484415 	4.229753622e-07 	7.530721276e-06
0.6081639266 	0.00336569112 	-0.001487753386 	-2.859958074e-07 	0.003454671896 	3.774877881e-07 	6.58556481e-06
0.6227723857 	0.003044068109 	-0.001084375126 	-2.902483879e-07 	0.003064201138 	3.010837404e-07 	5.841219019e-06
0.638419148 	0.002814818208 	-0.0006773675096 	-2.86060077e-07 	0.002803313233 	2.072509404e-07 	5.343894163e-06
0.6551780116 	0.002696240039 	-0.0002685426323 	-2.7280123e-07 	0.002681495001 	1.157869065e-07 	5.111674756e-06
0.6731280194 	0.002701498761 	0.000141484525 	-2.518928924e-07 	0.002694967233 	4.093659641e-08 	5.137356574e-06
0.6923538328 	0.002828291555 	0.0005535727249 	-2.248265611e-07 	0.002837310363 	-1.183920405e-08 	5.408702142e-06
0.7129461301 	0.003059673171 	0.0009687675707 	-1.929207684e-07 	0.003104060789 	-4.005278061e-08 	5.917202592e-06
0.7350020349 	0.003371286614 	0.001381519388 	-1.584218946e-07 	0.003482423274 	-4.235823071e-08 	6.63846665e-06
0.7570579485 	0.003730983986 	0.001773187888 	-1.2483058e-07 	0.003933979107 	-2.306873758e-08 	7.499257571e-06
0.7776502527 	0.004109465431 	0.002129085525 	-9.509025132e-08 	0.004411426306 	7.523682913e-09 	8.409404631e-06
0.7968760713 	0.004493771152 	0.00245031578 	-7.02130887e-08 	0.004888428866 	3.994852724e-08 	9.318704088e-06
0.814826083 	0.004879359298 	0.002742608208 	-5.024053549e-08 	0.005354891329 	6.845764985e-08 	1.020791119e-05
0.831584949 	0.005262264091 	0.00301011527 	-3.497160109e-08 	0.005805764678 	9.00020053e-08 	1.10674011e-05
0.8472317127 	0.005638766629 	0.003255821576 	-2.397925685e-08 	0.006238348511 	1.033765017e-07 	1.189202612e-05
0.8618401721 	0.006005437045 	0.003481875557 	-1.665181257e-08 	0.006650942062 	1.086406323e-07 	1.26785441e-05
0.8754792281 	0.006359227838 	0.003689852749 	-1.222358433e-08 	0.007042276297 	1.067496008e-07 	1.342453592e-05
0.8882132094 	0.006697551872 	0.003880959641 	-9.847772818e-09 	0.007411328711 	9.924508179e-08 	1.412805239e-05
0.9001021759 	0.007018315132 	0.004056189521 	-8.672641048e-09 	0.007757309544 	8.798447978e-08 	1.478758802e-05
0.9112022019 	0.007319927305 	0.004216394969 	-7.914446888e-09 	0.008079599638 	7.49000016e-08 	1.540196252e-05
0.9215656407 	0.007601156258 	0.004362405795 	-6.916661437e-09 	0.008377883619 	6.180005281e-08 	1.597057469e-05
0.9312413717 	0.007861134734 	0.004494779997 	-5.192349951e-09 	0.008651543811 	5.021815094e-08 	1.649224708e-05
0.9402750304 	0.008098204116 	0.004614585751 	-2.431176318e-09 	0.008901612587 	4.134444596e-08 	1.696894767e-05
0.9487092242 	0.008311589652 	0.004720639834 	1.458360708e-09 	0.009124361241 	3.591711002e-08 	1.739356851e-05
0.9565837329 	0.008499440176 	0.004821588427 	6.584328032e-09 	0.009322613298 	3.439003485e-08 	1.777149203e-05
0.9639356968 	0.008639209083 	0.004883964256 	1.194192567e-08 	0.009464386631 	3.634728661e-08 	1.804175141e-05
0.9688006083 	0.00872522946 	0.004914250932 	1.67002356e-08 	0.009546813568 	4.025277706e-08 	1.819888006e-05
0.9731064834 	0.008775697059 	0.004941903119 	2.109367e-08 	0.009598763626 	4.501723219e-08 	1.829791131e-05
0.976917562 	0.00879127781 	0.004949225292 	2.506685798e-08 	0.009613243886 	5.026335779e-08 	1.832551471e-05
0.9802907021 	0.008765223559 	0.00493669578 	2.8595329e-08 	0.009585199581 	5.56011297e-08 	1.827205447e-05
0.9832762282 	0.008685320706 	0.004897600082 	3.161091995e-08 	0.009500696317 	6.066644623e-08 	1.811096776e-05
0.9859186816 	0.008529293894 	0.004820428721 	3.408416548e-08 	0.00933733649 	6.517448806e-08 	1.779955853e-05
0.9882574856 	0.00825601454 	0.004685999603 	3.602142641e-08 	0.009058913 	6.896857008e-08 	1.726880597e-05
0.990327533 	0.007796799552 	0.004450273938 	3.73460353e-08 	0.008574865347 	7.173419501e-08 	1.634607661e-05
0.9921597073 	0.007021988518 	0.004053553249 	3.82721339e-08 	0.007736188741 	7.301896711e-08 	1.47473259e-05
0.9937813429 	0.005704220267 	0.003295531978 	3.709636126e-08 	0.006271832632 	6.986232544e-08 	1.195585616e-05
0.9948347186 	0.003904971938 	0.002171283324 	3.155268716e-08 	0.004244651041 	5.897308056e-08 	8.091484624e-06
0.9958880943 	0.001906984734 	0.0009420282807 	1.771428601e-08 	0.002024273691 	3.46116294e-08 	3.858828273e-06
0.9969414701 	0.0004802575581 	0.0001675548376 	4.047324575e-09 	0.0004880919534 	9.691951143e-09 	9.304389214e-07
0.9979948458 	4.130283476e-05 	5.371613069e-06 	1.458205204e-10 	4.124134297e-05 	8.2605448e-10 	7.861746214e-08
0.9990482216 	5.483924111e-07 	8.203930358e-09 	2.266074098e-13 	5.473241125e-07 	1.091992392e-11 	1.043351879e-09
0.9990482216 	5.483924111e-07 	8.203930358e-09 	2.266074098e-13 	5.473241125e-07 	1.091992392e-11 	1.043351879e-09
