0.4709460472 	0.05105740614 	6.937801261e-05 	-3.852829862e-07
0.4709460472 	0.05105740614 	6.937801261e-05 	-3.852829862e-07
0.4719924022 	0.1963871191 	0.0002649593206 	-1.375935648e-06
0.4730387601 	0.3873293294 	2.350512458e-05 	-2.533100924e-06
0.4740851209 	0.5564234652 	-0.0005804927153 	-3.615941118e-06
0.4751314845 	0.6853595479 	-0.0006143313387 	-4.61089309e-06
0.4761778509 	0.784791485 	-0.0002388247468 	-5.358726926e-06
0.4777887022 	0.8691314214 	-8.541173592e-05 	-5.961113844e-06
0.4796086996 	0.9367811197 	-0.0002409866934 	-6.518436305e-06
0.4816649984 	0.9908486501 	-0.0003988779664 	-7.026051135e-06
0.4839898925 	1.036030274 	-0.0004472653899 	-7.489595182e-06
0.4866170339 	1.075111837 	-0.0004871840267 	-7.92678329e-06
0.4895852754 	1.109811656 	-0.000524751365 	-8.352674708e-06
0.492938906 	1.141267479 	-0.0005638176231 	-8.775620677e-06
0.4967307534 	1.170250195 	-0.0005998223695 	-9.201958074e-06
0.5010150927 	1.197296413 	-0.0006419140883 	-9.635732396e-06
0.5058569357 	1.224958812 	-0.0006900500949 	-1.011190672e-05
0.5131774231 	1.254007049 	-0.0007250254096 	-1.066376428e-05
0.5210221424 	1.281178056 	-0.0007669072995 	-1.12177017e-05
0.5294278369 	1.305182772 	-0.000811891462 	-1.173800539e-05
0.5384349972 	1.326604238 	-0.0008423995013 	-1.222119322e-05
0.5480868191 	1.345804716 	-0.0008685982816 	-1.266313076e-05
0.5584294125 	1.362989425 	-0.0008883637703 	-1.305773647e-05
0.5695120252 	1.378259407 	-0.0009016876318 	-1.339746354e-05
0.5813872839 	1.391647063 	-0.0009075145665 	-1.367379779e-05
0.5941114518 	1.40314041 	-0.0009069699781 	-1.387371955e-05
0.6077447052 	1.412681698 	-0.0009023026929 	-1.398252141e-05
0.6223514991 	1.420182675 	-0.0008948341275 	-1.398804578e-05
0.6380015177 	1.425576173 	-0.0008851896533 	-1.387825997e-05
0.6547677711 	1.428837415 	-0.0008716052686 	-1.364260535e-05
0.6727297628 	1.429959527 	-0.0008522392224 	-1.327430882e-05
0.6919718284 	1.428920705 	-0.0008289985378 	-1.277269946e-05
0.7125844168 	1.425646273 	-0.0008031683856 	-1.214061058e-05
0.7346644336 	1.420075463 	-0.0007718651049 	-1.13892172e-05
0.756746148 	1.412465526 	-0.0007334252293 	-1.056716064e-05
0.7773635624 	1.403347867 	-0.0006907764709 	-9.741020736e-06
0.7966134053 	1.393078887 	-0.0006469399093 	-8.946055603e-06
0.814586177 	1.381811574 	-0.0006029414215 	-8.192684359e-06
0.8313664872 	1.369642626 	-0.0005591824272 	-7.484076303e-06
0.8470333997 	1.356629749 	-0.0005160432777 	-6.820055278e-06
0.8616607424 	1.342799965 	-0.0004739692291 	-6.198812694e-06
0.8753174814 	1.328152676 	-0.0004333761849 	-5.617785152e-06
0.8880680093 	1.312659242 	-0.0003945982175 	-5.074122138e-06
0.8999724522 	1.296259678 	-0.0003578399276 	-4.56497255e-06
0.9110869503 	1.27885626 	-0.0003232511179 	-4.087593717e-06
0.9214639198 	1.260303271 	-0.0002905799243 	-3.639413662e-06
0.9311522995 	1.24039029 	-0.0002600603081 	-3.217961239e-06
0.9401977815 	1.218817305 	-0.0002296742922 	-2.821061559e-06
0.9486430259 	1.195146941 	-0.0002089195979 	-2.446860897e-06
0.9565278625 	1.168743756 	-0.000182131548 	-2.093442016e-06
0.9638894781 	1.140789016 	-0.0001490351111 	-1.780192906e-06
0.9687607812 	1.114295378 	-0.0001358141998 	-1.530616924e-06
0.9730723166 	1.088430339 	-0.0001232950297 	-1.324523798e-06
0.9768884077 	1.060730488 	-0.0001063093744 	-1.138667922e-06
0.9802659863 	1.03065128 	-9.391937144e-05 	-9.703540216e-07
0.9832554423 	0.9974347818 	-8.137489027e-05 	-8.172831984e-07
0.9859013753 	0.9599728647 	-7.254204352e-05 	-6.775903325e-07
0.98824326 	0.9165838594 	-7.566529995e-05 	-5.500617814e-07
0.990316035 	0.8645498774 	-0.0001830683377 	-4.339222044e-07
0.9921506239 	0.7993228124 	-0.0002724454326 	-3.29603638e-07
0.9937743971 	0.7180245459 	-3.622489061e-05 	-2.404211744e-07
0.9948291616 	0.6226450905 	0.0003458636175 	-1.601151504e-07
0.9958839263 	0.5012549461 	0.0002825011241 	-9.168746038e-08
0.9969386912 	0.3462759419 	-0.0001787257363 	-5.194276951e-08
0.9979934563 	0.1747356751 	-0.00027173515 	-2.086926373e-08
0.9990482216 	0.04933755921 	-7.072095984e-05 	-7.034206421e-10
