0.3524915403 	0.06702248998 	0.01088665106 	-3.409390814e-05
0.3536068642 	0.2591806086 	0.04127918439 	-0.0001328611299
0.3547223496 	0.5034820713 	0.07877028601 	-0.0002570366114
0.3558378442 	0.7080120063 	0.1099341511 	-0.0003605716732
0.3569531967 	0.8545907097 	0.1328884924 	-0.0004354419547
0.3580682569 	0.9643335419 	0.1500941495 	-0.0004914700633
0.35978394 	1.056941008 	0.1640523904 	-0.0005431581873
0.361720438 	1.129950662 	0.1745307064 	-0.0005865339677
0.3639049575 	1.185716542 	0.1821702428 	-0.0006214050747
0.3663674413 	1.228836399 	0.1877286217 	-0.0006322951431
0.36920096 	1.261515571 	0.191309566 	-0.0006001803533
0.3724184949 	1.284455577 	0.1929841201 	-0.0005581044749
0.3760438857 	1.299071841 	0.1930240281 	-0.0005136864124
0.3801277765 	1.30792291 	0.1918833562 	-0.0004700594314
0.3848143963 	1.313440714 	0.1899035669 	-0.0004253773309
0.3901331779 	1.317299522 	0.1870112828 	-0.0003779544616
0.3981914987 	1.319971325 	0.1829603807 	-0.000314594356
0.4069277984 	1.321236753 	0.1781285717 	-0.0002522706099
0.4163791821 	1.321305793 	0.1729007572 	-0.000192905081
0.4265723647 	1.320328405 	0.1673446004 	-0.0001364978653
0.4375983103 	1.318238955 	0.1614264927 	-8.34819121e-05
0.4495688352 	1.314851107 	0.1550410913 	-3.607824867e-05
0.4609124074 	1.310779743 	0.1490484187 	-5.438066399e-05
0.4625033521 	1.310198679 	0.1482110257 	-4.455450235e-06
0.4764361663 	1.304634089 	0.141128429 	-3.748069526e-05
0.4915177733 	1.298523023 	0.1338592736 	-6.505750098e-05
0.5078705597 	1.291939533 	0.1264180494 	-8.687338912e-05
0.5255559403 	1.284894363 	0.1188291552 	-0.0001027650302
0.5446528007 	1.277380684 	0.1111207377 	-0.0001128367438
0.5653073198 	1.269378358 	0.1033099664 	-0.0001174313111
0.5875706324 	1.260850386 	0.09542225684 	-0.0001170210765
0.6115522574 	1.251725626 	0.08748317023 	-0.0001123636521
0.6373531822 	1.241865418 	0.07950185347 	-0.0001042659814
0.6650736862 	1.231233067 	0.07161736084 	-9.38341182e-05
0.6928473989 	1.220142494 	0.06421963904 	-8.257018908e-05
0.7188076063 	1.208956483 	0.05758988578 	-7.194947192e-05
0.7430616173 	1.19771477 	0.05169359776 	-6.232973147e-05
0.7657166274 	1.186307501 	0.0464268605 	-5.379810712e-05
0.7868765632 	1.17462271 	0.04168261921 	-4.653537609e-05
0.8066407466 	1.162585645 	0.03736481663 	-4.019436618e-05
0.825101173 	1.150210181 	0.03343192299 	-3.462729128e-05
0.8423446134 	1.137539011 	0.02984158784 	-2.988729156e-05
0.8584514973 	1.124591943 	0.02654729495 	-2.582217592e-05
0.8734970175 	1.111369247 	0.02351546132 	-2.23272474e-05
0.8875511498 	1.097847279 	0.02071623808 	-1.930366632e-05
0.900679109 	1.083970665 	0.01812504451 	-1.667140546e-05
0.9129417823 	1.069638881 	0.01572029493 	-1.436303972e-05
0.9243960038 	1.054685441 	0.01348563524 	-1.232085449e-05
0.9350948531 	1.038838489 	0.01139888776 	-1.050069146e-05
0.9450879208 	1.021662471 	0.009459897879 	-8.855670402e-06
0.954421548 	1.003796595 	0.007782055558 	-7.430184591e-06
0.9605997311 	0.9869337231 	0.006468505346 	-6.35032259e-06
0.9660692856 	0.9702966719 	0.005413090358 	-5.450555377e-06
0.9709113578 	0.9520855845 	0.004491118702 	-4.63429718e-06
0.9751978312 	0.9316561978 	0.003682269474 	-3.892904181e-06
0.9789923751 	0.9081509472 	0.002979579487 	-3.215282062e-06
0.9823513805 	0.8803887153 	0.002370445038 	-2.599458134e-06
0.9853247881 	0.8466851822 	0.001839974139 	-2.052580682e-06
0.987956823 	0.804468079 	0.001292298322 	-1.59130607e-06
0.9902866465 	0.7495858385 	0.0008172007683 	-1.170482539e-06
0.9923489342 	0.6792740101 	0.0006878756885 	-7.605785134e-07
0.993688642 	0.5952317993 	0.0007863326929 	-4.612832297e-07
0.9950284246 	0.4860826089 	0.0005757348425 	-3.12915071e-07
0.9963682821 	0.3425038547 	8.842813201e-06 	-1.957335056e-07
0.9977082144 	0.176941363 	-0.00025564757 	-2.586992264e-08
0.9990482216 	0.05073593443 	-0.0001212953341 	3.941668147e-08
0.9990482216 	0.05073593443 	-0.0001212953341 	3.941668147e-08
