4.166797561e-36 	0.253089862 	-1.705703986e-14 	5.736691792e-18
0.001882306041 	0.2531461889 	-0.0008252449265 	5.149260801e-06
0.003764590556 	0.2533659529 	-0.001662929219 	1.07284703e-05
0.005646853463 	0.2537718261 	-0.002420855166 	1.530184905e-05
0.007529094743 	0.2543282138 	-0.003200090061 	1.988924503e-05
0.009411314447 	0.2551462056 	-0.004100034983 	2.502034403e-05
0.01230888652 	0.2564620871 	-0.005257574531 	3.11996027e-05
0.01558259296 	0.2584102889 	-0.006634369133 	3.81425475e-05
0.01928125303 	0.2611099041 	-0.008183427951 	4.538791793e-05
0.02348538385 	0.2647891158 	-0.009927810366 	5.284537842e-05
0.02824139099 	0.2697225895 	-0.01188501115 	6.035292864e-05
0.03361474634 	0.2762363285 	-0.01407154961 	6.768997957e-05
0.03968556905 	0.2847401908 	-0.01650917154 	7.456884344e-05
0.04658836433 	0.2957310617 	-0.0192148032 	8.049434252e-05
0.0543897936 	0.3097690547 	-0.02218541818 	8.479984172e-05
0.06322334345 	0.3293913805 	-0.02572403212 	8.76853577e-05
0.07662502217 	0.3577106981 	-0.02996301901 	8.367620039e-05
0.0910400846 	0.3938426022 	-0.03437906719 	7.518653956e-05
0.1065326275 	0.4362603637 	-0.03858530684 	6.181980781e-05
0.1231893535 	0.4850935035 	-0.04248264625 	4.420649567e-05
0.1411004821 	0.5402582233 	-0.04595123485 	2.316319717e-05
0.1601313758 	0.6005721324 	-0.04884918815 	1.802533807e-06
0.1603602305 	0.6012891677 	-0.048883707 	2.641034364e-07
0.181067345 	0.6664329346 	-0.05117008841 	2.425465592e-05
0.2033256789 	0.7351515737 	-0.05280884679 	5.090964484e-05
0.2272448124 	0.8051729206 	-0.0537416346 	7.878661341e-05
0.2529407134 	0.8736229307 	-0.05393188272 	0.0001060362873
0.280537575 	0.9374170741 	-0.05337707633 	0.0001305810438
0.3101788018 	0.9940130853 	-0.05213394109 	0.0001506147428
0.341991698 	1.042311392 	-0.05031921278 	0.0001651387625
0.3761334987 	1.082798654 	-0.04805530441 	0.0001739829563
0.4127592716 	1.116394478 	-0.04539692801 	0.0001773459951
0.4520368631 	1.1431711 	-0.04233087441 	0.0001754187689
0.4941463394 	1.162031616 	-0.0389214445 	0.0001688170035
0.5362843642 	1.172041553 	-0.03540999943 	0.0001587914637
0.5756432866 	1.174349843 	-0.03202248665 	0.0001470898427
0.6123999578 	1.171178888 	-0.02883727585 	0.000134912694
0.6467227457 	1.16425677 	-0.02587612614 	0.0001229181394
0.6787708094 	1.154616383 	-0.02313429807 	0.0001115376958
0.708693935 	1.142798444 	-0.02059176264 	0.00010094586
0.7366321921 	1.129067891 	-0.01822672063 	9.116829724e-05
0.7627169818 	1.113546852 	-0.0160198908 	8.216930247e-05
0.7870710604 	1.096281271 	-0.01395611558 	7.388235377e-05
0.8098091487 	1.077271397 	-0.0120241546 	6.622601949e-05
0.8310384246 	1.056484435 	-0.0102165867 	5.911215626e-05
0.8508589793 	1.033859414 	-0.008529489576 	5.245025995e-05
0.8693642773 	1.00930877 	-0.006963286686 	4.615440747e-05
0.8866415892 	0.9827203582 	-0.005520879848 	4.014355263e-05
0.902772399 	0.9539533405 	-0.004215550941 	3.436377176e-05
0.9178327855 	0.9228367716 	-0.003050094332 	2.875974202e-05
0.9318937798 	0.8915108018 	-0.002106620391 	2.367919511e-05
0.9411981638 	0.8636940008 	-0.001456715011 	1.961666342e-05
0.949433363 	0.8383694847 	-0.0009970221205 	1.629569373e-05
0.9567222395 	0.813231018 	-0.00064747709 	1.338927154e-05
0.963173537 	0.7880753156 	-0.000395237527 	1.090365299e-05
0.9688835034 	0.7625332271 	-0.0002207722658 	8.816722989e-06
0.9739373264 	0.735993202 	-0.0001089747469 	7.092429414e-06
0.9784104047 	0.7074699271 	-3.91208686e-05 	5.679032267e-06
0.982369473 	0.6752935542 	-6.386178078e-05 	4.514552301e-06
0.985873597 	0.6365627268 	-0.0001288356531 	3.531462926e-06
0.9889750553 	0.5884152408 	-0.0001425969393 	2.814629342e-06
0.9909896885 	0.5293388649 	0.0001456882009 	2.177735824e-06
0.9930043218 	0.443207389 	0.000529248718 	1.19070796e-06
0.9950189551 	0.3132830012 	4.666917657e-05 	5.050109893e-07
0.9970335883 	0.1569999716 	-0.0003996024694 	2.733906779e-07
0.9990482216 	0.0439177906 	-0.0001540872012 	6.599922524e-08
0.9990482216 	0.0439177906 	-0.0001540872012 	6.599922524e-08
