0.2472849305 	0.08588900334 	0.02574097222 	-0.0001745642865
0.2487094669 	0.3306439105 	0.09729235061 	-0.0006305944828
0.2501340182 	0.6255981158 	0.1818381942 	-0.001100923911
0.2515582136 	0.8504867518 	0.245917613 	-0.001362933808
0.2529816857 	0.9939212795 	0.2864455955 	-0.00143379999
0.2544040707 	1.086629966 	0.3112015147 	-0.001390536193
0.2565908305 	1.148717196 	0.3256636114 	-0.001269662197
0.2590557457 	1.183015277 	0.3311923342 	-0.001137510297
0.2618311143 	1.200903866 	0.3315682603 	-0.001018355821
0.2649514479 	1.211092885 	0.329422237 	-0.0009042426375
0.2685402304 	1.217898559 	0.3257092646 	-0.0007857659005
0.2726074998 	1.222970115 	0.3208406419 	-0.0006624520758
0.2771758575 	1.22688664 	0.3150050586 	-0.0005349695555
0.2823040561 	1.229876358 	0.3082661023 	-0.0004038760354
0.28818069 	1.23201432 	0.3006138019 	-0.0002708341341
0.2948278042 	1.23319604 	0.2911681311 	-0.0001413616185
0.3039520189 	1.233345628 	0.2801252181 	-7.019001711e-05
0.3048289965 	1.233294914 	0.2790589302 	-1.145074553e-05
0.3153909723 	1.231642446 	0.2657115627 	-0.0001293579414
0.3267808322 	1.229612053 	0.2523532709 	-0.0002257287874
0.3390183242 	1.227390801 	0.2389755668 	-0.0002997938431
0.3522090375 	1.224934809 	0.2256441178 	-0.0003513749496
0.3664845753 	1.222211842 	0.2124074979 	-0.0003818788498
0.3818620373 	1.219152066 	0.1992145377 	-0.0003902513291
0.3984348019 	1.215680917 	0.1863004006 	-0.0003658987193
0.4162929946 	1.211788793 	0.1735152389 	-0.0002561513668
0.4355739439 	1.207358994 	0.1610274895 	-0.000170748545
0.4563323823 	1.202410669 	0.1488019884 	-0.0001072648289
0.4786466123 	1.196882544 	0.1368593562 	-6.211850773e-05
0.5026835755 	1.190764472 	0.1252839618 	-3.27058621e-05
0.5284859607 	1.184054183 	0.1139889216 	-1.475801937e-05
0.5561749938 	1.17666231 	0.1030875893 	-5.324722685e-06
0.5858631148 	1.168463094 	0.09250349084 	-1.175391794e-06
0.6176648077 	1.159346904 	0.08241403424 	6.861069967e-08
0.6494508416 	1.149541618 	0.07323818747 	1.91599759e-07
0.6791106475 	1.13932662 	0.06522661716 	1.764625879e-07
0.7067905922 	1.128702514 	0.05821904652 	3.328794001e-07
0.7326288344 	1.117609204 	0.05200950253 	6.820530746e-07
0.7567541468 	1.106063419 	0.04649019663 	1.13307253e-06
0.7792862258 	1.094068957 	0.04156703279 	1.601829491e-06
0.8003336001 	1.081600861 	0.03714925964 	2.024266591e-06
0.8199971472 	1.068637296 	0.03316079984 	2.357780013e-06
0.8383693647 	1.055167587 	0.02953993212 	2.578550534e-06
0.8555361083 	1.041186597 	0.02623559348 	2.678780233e-06
0.8715768547 	1.026683959 	0.02320534663 	2.661414e-06
0.8865654396 	1.011630893 	0.02041401994 	2.536844202e-06
0.9005706783 	0.9959643294 	0.01783154586 	2.319693404e-06
0.913656745 	0.9795669279 	0.01543418947 	2.027295321e-06
0.9258835601 	0.9622336103 	0.01319462208 	1.676341844e-06
0.9373071183 	0.9436254445 	0.0111063908 	1.284560492e-06
0.9479797699 	0.9246219221 	0.009286026485 	9.071356541e-07
0.9550458569 	0.907117511 	0.007848858196 	5.868507755e-07
0.9613025204 	0.8903252309 	0.006679239889 	3.248609816e-07
0.9668422226 	0.872494728 	0.005641876498 	9.288947807e-08
0.9717469214 	0.8531264987 	0.004716404532 	-1.071364315e-07
0.9760892456 	0.8315322604 	0.003894363279 	-2.712588889e-07
0.9799335525 	0.8067219765 	0.003163529494 	-3.975336218e-07
0.9833368611 	0.777219057 	0.002512781217 	-4.893624211e-07
0.9863496834 	0.7406793998 	0.001854594403 	-5.553507043e-07
0.9890167622 	0.6932287194 	0.001259621005 	-5.460929277e-07
0.9913777266 	0.631835262 	0.0009863250255 	-4.005835078e-07
0.9929115363 	0.5571921317 	0.0009820540553 	-3.153650538e-07
0.9944454907 	0.4578540901 	0.0007303598215 	-3.488836588e-07
0.9959795897 	0.3242762401 	0.0001005937874 	-1.976874231e-07
0.9975138333 	0.1681546001 	-0.0002395583485 	-3.226437768e-08
0.9990482216 	0.04838045846 	-0.0001272429036 	-1.590419932e-08
0.9990482216 	0.04838045846 	-0.0001272429036 	-1.590419932e-08
