0.4709558481 	6.720438945e-07 	-6.921182982e-09 	5.360380804e-14 	6.707415005e-07 	-4.957649968e-12 	1.278619723e-09
0.4709558481 	6.720438945e-07 	-6.921182982e-09 	5.360380804e-14 	6.707415005e-07 	-4.957649968e-12 	1.278619723e-09
0.4720092239 	5.515062041e-05 	-4.899263098e-06 	4.178706118e-11 	5.505513657e-05 	-4.076791038e-10 	1.049503921e-07
0.4730625996 	0.0006145077708 	-0.0001427867819 	1.182636032e-09 	0.0006142340528 	-4.46464972e-09 	1.170900822e-06
0.4741159754 	0.002288511882 	-0.0007283135805 	5.120984453e-09 	0.002284749952 	-1.485312076e-08 	4.355368422e-06
0.4751693511 	0.004445615469 	-0.001566948716 	9.427244747e-09 	0.004428485524 	-2.530556894e-08 	8.441924243e-06
0.4762227269 	0.006237835758 	-0.002261280409 	1.198130951e-08 	0.006210966311 	-3.151526766e-08 	1.183982804e-05
0.4778443634 	0.007485916825 	-0.002704278871 	1.366781466e-08 	0.007469429704 	-3.474978943e-08 	1.423880904e-05
0.4796765386 	0.008169837292 	-0.002918298895 	1.454030213e-08 	0.008165196701 	-3.494154242e-08 	1.556513431e-05
0.4817465869 	0.008531252087 	-0.003035589732 	1.467205915e-08 	0.008521740983 	-3.28968474e-08 	1.624480681e-05
0.4840853915 	0.008700252112 	-0.003088293615 	1.400707587e-08 	0.008683398909 	-2.940912851e-08 	1.655297175e-05
0.4867278453 	0.008745005022 	-0.003101565932 	1.268114582e-08 	0.008726907661 	-2.526464172e-08 	1.663591152e-05
0.4897133715 	0.008703817706 	-0.003087180249 	1.093235844e-08 	0.008685119686 	-2.104237239e-08 	1.655625203e-05
0.4930865115 	0.008596997669 	-0.003051681257 	9.023901996e-09 	0.008577536415 	-1.693458483e-08 	1.635116841e-05
0.4968975894 	0.008435428637 	-0.002998478507 	7.185233162e-09 	0.008415562264 	-1.26175257e-08 	1.604240066e-05
0.5012034633 	0.008224820269 	-0.002926985698 	5.572073055e-09 	0.00820525463 	-7.293194716e-09 	1.564149586e-05
0.506068373 	0.007945645286 	-0.00284054988 	3.978450673e-09 	0.007923998302 	1.024001198e-09 	1.510534313e-05
0.5134203412 	0.007568542315 	-0.002717042198 	2.125391471e-09 	0.007544862573 	1.573631009e-08 	1.438260505e-05
0.5212948542 	0.00712308269 	-0.002560076706 	-3.69162199e-10 	0.007099923287 	3.769077129e-08 	1.353442711e-05
0.529729052 	0.00664995329 	-0.002395531898 	-4.053385621e-09 	0.006625732259 	6.487328952e-08 	1.263048721e-05
0.5387627144 	0.006156194502 	-0.002219421802 	-9.180933875e-09 	0.0061303139 	9.491730919e-08 	1.168608213e-05
0.5484384488 	0.00564941199 	-0.002032860452 	-1.573524874e-08 	0.00562303512 	1.247203767e-07 	1.071906778e-05
0.5588018907 	0.00513991317 	-0.001836455931 	-2.319832095e-08 	0.005113159771 	1.508540904e-07 	9.747103653e-06
0.5699019192 	0.004640317973 	-0.001631199488 	-3.128084944e-08 	0.004613492136 	1.697278774e-07 	8.794598266e-06
0.5817908876 	0.004166285558 	-0.001417468057 	-4.012589416e-08 	0.004139924025 	1.78230638e-07 	7.891845825e-06
0.5945248701 	0.003735363816 	-0.001195527783 	-4.881896339e-08 	0.003710420752 	1.754709188e-07 	7.073093212e-06
0.6081639266 	0.003364870205 	-0.0009670967496 	-5.621120562e-08 	0.003342238315 	1.626042612e-07 	6.371235156e-06
0.6227723857 	0.003071062464 	-0.0007325483279 	-6.285813005e-08 	0.003051463155 	1.412246366e-07 	5.816936884e-06
0.638419148 	0.002867286613 	-0.0004904207141 	-6.93063739e-08 	0.002851121454 	1.140180464e-07 	5.43502992e-06
0.6551780116 	0.002760256698 	-0.0002407404541 	-7.486542397e-08 	0.002747531138 	8.468485464e-08 	5.237557986e-06
0.6731280194 	0.002750219816 	1.475218894e-05 	-7.875885342e-08 	0.002741196787 	5.629277547e-08 	5.225482953e-06
0.6923538328 	0.002834500865 	0.0002732790107 	-8.054401763e-08 	0.002829574228 	3.156338407e-08 	5.393954919e-06
0.7129461301 	0.003010337387 	0.0005323669821 	-8.025472222e-08 	0.003009046689 	1.341497286e-08 	5.736079311e-06
0.7350020349 	0.003270935426 	0.000787153474 	-7.815640393e-08 	0.003272019308 	4.151754659e-09 	6.237378212e-06
0.7570579485 	0.003593701214 	0.001026455985 	-7.451885961e-08 	0.003596026335 	3.461358265e-09 	6.855025658e-06
0.7776502527 	0.003947867148 	0.001242310764 	-6.99201329e-08 	0.003950750554 	7.92568832e-09 	7.53122861e-06
0.7968760713 	0.004314280097 	0.001436222092 	-6.498026073e-08 	0.004317181515 	1.375046518e-08 	8.229747867e-06
0.814826083 	0.004683511458 	0.001612066428 	-6.003421519e-08 	0.004685939161 	1.851754428e-08 	8.93270243e-06
0.831584949 	0.005048922331 	0.001772494998 	-5.529518725e-08 	0.005050540658 	2.10417428e-08 	9.62773422e-06
0.8472317127 	0.005405680933 	0.00191937307 	-5.088577945e-08 	0.005406334404 	2.098093528e-08 	1.030597599e-05
0.8618401721 	0.005750227836 	0.00205406814 	-4.684558312e-08 	0.005749891851 	1.851453829e-08 	1.096089197e-05
0.8754792281 	0.006079961972 	0.002177633151 	-4.314007539e-08 	0.006078679198 	1.41407965e-08 	1.158765203e-05
0.8882132094 	0.006393037694 	0.002290922279 	-3.967954862e-08 	0.0063908653 	8.542265718e-09 	1.218276551e-05
0.9001021759 	0.006688206074 	0.002394665407 	-3.634305839e-08 	0.006685191135 	2.480765169e-09 	1.274383236e-05
0.9112022019 	0.006964685023 	0.00248950205 	-3.300020796e-08 	0.006960806348 	-3.291071469e-09 	1.326923156e-05
0.9215656407 	0.00722196138 	0.002576019025 	-2.952671036e-08 	0.007217202468 	-8.102201543e-09 	1.375799382e-05
0.9312413717 	0.007459690804 	0.002654650944 	-2.581329074e-08 	0.007453785005 	-1.141090682e-08 	1.420898589e-05
0.9402750304 	0.007676899479 	0.002725883834 	-2.176794263e-08 	0.00767072789 	-1.282309606e-08 	1.462253933e-05
0.9487092242 	0.00787278377 	0.002789297705 	-1.732510091e-08 	0.007865517482 	-1.208667866e-08 	1.499386243e-05
0.9565837329 	0.008045149817 	0.002849799328 	-1.23896335e-08 	0.008034955833 	-9.060276516e-09 	1.531685902e-05
0.9639356968 	0.008174701249 	0.00288769691 	-7.466300407e-09 	0.008164217675 	-4.109615067e-09 	1.556326802e-05
0.9688006083 	0.00825508998 	0.002906663662 	-3.141833486e-09 	0.008244846701 	1.5912743e-09 	1.571696935e-05
0.9731064834 	0.008301630986 	0.002923724844 	7.651199449e-10 	0.008289618176 	7.605032276e-09 	1.580231622e-05
0.976917562 	0.008315966674 	0.002928680708 	4.416571773e-09 	0.008303048418 	1.411068555e-08 	1.5827918e-05
0.9802907021 	0.008291354623 	0.002921700097 	7.743404618e-09 	0.008278091232 	2.083814264e-08 	1.578034267e-05
0.9832762282 	0.00821604234 	0.002898860947 	1.065641524e-08 	0.008202501521 	2.748164027e-08 	1.563624767e-05
0.9859186816 	0.008069095516 	0.002853212026 	1.307614223e-08 	0.008056283208 	3.368148285e-08 	1.535751492e-05
0.9882574856 	0.007812489329 	0.002772731435 	1.493170087e-08 	0.007805918765 	3.905409011e-08 	1.488025071e-05
0.990327533 	0.007379665189 	0.002632708729 	1.614985574e-08 	0.007376207858 	4.310795901e-08 	1.406110229e-05
0.9921597073 	0.006645385616 	0.002398999761 	1.678459723e-08 	0.006629712005 	4.510608874e-08 	1.263807371e-05
0.9937813429 	0.005400391824 	0.001953378278 	1.619158977e-08 	0.005377082108 	4.325722022e-08 	1.025021298e-05
0.9948347186 	0.003706395083 	0.001291849243 	1.356716036e-08 	0.003693696688 	3.621428459e-08 	7.041212497e-06
0.9958880943 	0.00182486501 	0.0005643745881 	7.508910093e-09 	0.001822552178 	2.14915432e-08 	3.474291003e-06
0.9969414701 	0.0004689264358 	0.0001019611503 	1.704061304e-09 	0.0004686310932 	6.364037367e-09 	8.933411129e-07
0.9979948458 	4.152608057e-05 	3.315863216e-06 	6.092543822e-11 	4.145078807e-05 	5.775400977e-10 	7.901672272e-08
0.9990482216 	5.543678194e-07 	5.074301062e-09 	9.207825964e-14 	5.532975206e-07 	7.701382471e-12 	1.054738855e-09
0.9990482216 	5.543678194e-07 	5.074301062e-09 	9.207825964e-14 	5.532975206e-07 	7.701382471e-12 	1.054738855e-09
