0.4709558481 	0.05367778347 	0.0001031245996 	-5.693775605e-09
0.4720092239 	0.2057261593 	0.0003694727689 	-1.410804899e-08
0.4730625996 	0.4056017493 	0.0001459282644 	3.072674494e-09
0.4741159754 	0.5811657269 	-0.0004212482948 	1.187787116e-08
0.4751693511 	0.7132853688 	-0.0003292521317 	-1.566498908e-08
0.4762227269 	0.8143360011 	0.0001274315364 	-2.965845268e-08
0.4778443634 	0.9000954918 	0.0003231952633 	-3.164397785e-08
0.4796765386 	0.9691987119 	0.0002283551633 	-4.109101572e-08
0.4817465869 	1.024787288 	0.0001416302744 	-5.475422751e-08
0.4840853915 	1.071581372 	0.0001710267308 	-7.216050185e-08
0.4867278453 	1.112393239 	0.0002133781692 	-9.219779239e-08
0.4897133715 	1.148949021 	0.0002658081864 	-1.15962092e-07
0.4930865115 	1.182369048 	0.0003265510655 	-1.441709035e-07
0.4968975894 	1.213392836 	0.0004018119177 	-1.773856349e-07
0.5012034633 	1.242509346 	0.0004841257587 	-2.161463315e-07
0.506068373 	1.272358585 	0.0005879467654 	-2.65853893e-07
0.5134203412 	1.303518099 	0.0007425360339 	-3.245652252e-07
0.5212948542 	1.332078892 	0.0009064083389 	-3.867182829e-07
0.529729052 	1.356324481 	0.0010695507 	-4.559719828e-07
0.5387627144 	1.376700295 	0.001247018125 	-5.165724982e-07
0.5484384488 	1.393509393 	0.001410505789 	-5.430124123e-07
0.5588018907 	1.406860423 	0.001543546083 	-5.37404757e-07
0.5699019192 	1.416807457 	0.00163916781 	-5.173997296e-07
0.5817908876 	1.423650852 	0.001697811021 	-4.848195107e-07
0.5945248701 	1.427961793 	0.001720233142 	-4.464611707e-07
0.6081639266 	1.430290928 	0.001711079383 	-4.105137973e-07
0.6227723857 	1.430999765 	0.001673876314 	-3.71085257e-07
0.638419148 	1.430288648 	0.001608734358 	-3.286625826e-07
0.6551780116 	1.428248959 	0.001516854231 	-2.852123364e-07
0.6731280194 	1.424894959 	0.001400084782 	-2.404031977e-07
0.6923538328 	1.420179315 	0.00126018091 	-1.930875754e-07
0.7129461301 	1.413993801 	0.001098885341 	-1.422430269e-07
0.7350020349 	1.406298763 	0.0009217714642 	-8.795722021e-08
0.7570579485 	1.397399355 	0.0007423199324 	-3.252143866e-08
0.7776502527 	1.38776398 	0.0005739927819 	2.12560157e-08
0.7968760713 	1.377601101 	0.0004224536625 	7.209974406e-08
0.814826083 	1.36692763 	0.0002892629449 	1.194358459e-07
0.831584949 	1.355721257 	0.0001752295401 	1.625801601e-07
0.8472317127 	1.343925745 	8.072756418e-05 	2.007703889e-07
0.8618401721 	1.331453347 	5.744938123e-06 	2.33156893e-07
0.8754792281 	1.318186682 	-5.010752842e-05 	2.587816429e-07
0.8882132094 	1.30398104 	-8.768070249e-05 	2.765996598e-07
0.9001021759 	1.288667075 	-0.0001083617412 	2.855941647e-07
0.9112022019 	1.272052637 	-0.0001142435211 	2.85006278e-07
0.9215656407 	1.253921596 	-0.000107734771 	2.746020068e-07
0.9312413717 	1.234025223 	-9.237564604e-05 	2.549433533e-07
0.9402750304 	1.212062728 	-6.958782342e-05 	2.273483304e-07
0.9487092242 	1.187634685 	-5.293583265e-05 	1.94338214e-07
0.9565837329 	1.160179045 	-2.981415849e-05 	1.583416208e-07
0.9639356968 	1.1310709 	-2.049154522e-06 	1.244782277e-07
0.9688006083 	1.103570813 	3.557975349e-06 	9.81309186e-08
0.9731064834 	1.07686872 	6.811047647e-06 	7.76880653e-08
0.976917562 	1.048449096 	1.291383736e-05 	6.063082739e-08
0.9802907021 	1.017786669 	1.323549096e-05 	4.674680495e-08
0.9832762282 	0.9841323082 	1.286489938e-05 	3.559223597e-08
0.9859186816 	0.946379348 	8.326337152e-06 	2.670475403e-08
0.9882574856 	0.9028416987 	-8.782116666e-06 	1.987245294e-08
0.990327533 	0.8507963343 	-0.0001284528811 	1.45443284e-08
0.9921597073 	0.7856970405 	-0.0002243954936 	9.147462591e-09
0.9937813429 	0.704713856 	7.378416307e-06 	4.44355094e-09
0.9948347186 	0.6099753759 	0.0003636105823 	4.71186245e-09
0.9958880943 	0.4901523673 	0.0002709809761 	6.306690589e-09
0.9969414701 	0.3382421844 	-0.0001738873239 	1.444043491e-09
0.9979948458 	0.1706973125 	-0.0002525259077 	-2.306825516e-09
0.9990482216 	0.04885212372 	-6.541638761e-05 	-9.161764463e-10
0.9990482216 	0.04885212372 	-6.541638761e-05 	-9.161764463e-10
