0.3176601022 	9.478257703e-07 	-2.10385259e-08 	3.267469054e-11 	9.289177459e-07 	-8.926254754e-10 	1.770775403e-09
0.3188608126 	9.598968539e-05 	-1.699210397e-05 	4.366945751e-08 	8.235488707e-05 	-1.299607775e-07 	1.569913041e-07
0.3200616632 	0.001203952217 	-0.0004434526202 	1.009449266e-06 	0.0008981074032 	-1.346487113e-06 	1.712042326e-06
0.3212624417 	0.00399757465 	-0.00176600199 	2.379361289e-06 	0.002904141939 	-2.318071836e-06 	5.536101701e-06
0.3224629377 	0.006646795928 	-0.003107844541 	1.811952141e-06 	0.004805566788 	-4.670198087e-07 	9.160745936e-06
0.3236629424 	0.007870470838 	-0.00375182161 	-4.524995725e-07 	0.005711745158 	3.482202273e-06 	1.088817377e-05
0.3255088723 	0.007890757365 	-0.003816364142 	-3.113870501e-06 	0.00576254706 	7.528803823e-06 	1.098501631e-05
0.327591533 	0.006999724222 	-0.003404350203 	-5.639662211e-06 	0.005159907734 	9.607719228e-06 	9.836218264e-06
0.3299395659 	0.00588911812 	-0.002837411533 	-6.522261294e-06 	0.004423803688 	8.002395506e-06 	8.432999361e-06
0.3325842128 	0.004901700571 	-0.002274309689 	-5.27928861e-06 	0.003851125728 	3.152153315e-06 	7.341316002e-06
0.3356287836 	0.004162915154 	-0.001819797554 	-3.50083484e-06 	0.003601770202 	-2.687988322e-06 	6.865975065e-06
0.3390846671 	0.003635269039 	-0.001467957904 	-2.362937255e-06 	0.003677570125 	-7.043848348e-06 	7.010470785e-06
0.3429748198 	0.003234264988 	-0.001179688613 	-1.691470264e-06 	0.00397231458 	-8.915135739e-06 	7.572335637e-06
0.3473522547 	0.002900496085 	-0.0009250167807 	-1.241892001e-06 	0.004361425424 	-9.052744785e-06 	8.314089054e-06
0.3523763078 	0.002599534541 	-0.000684819459 	-9.65128672e-07 	0.004772160344 	-8.324880651e-06 	9.09706397e-06
0.3580735657 	0.002285245678 	-0.0004309437577 	-8.261229145e-07 	0.005210792702 	-7.225591672e-06 	9.933219156e-06
0.3666947432 	0.00194159773 	-0.0001358324781 	-7.15114279e-07 	0.005657989247 	-4.919987951e-06 	1.078570006e-05
0.3760330498 	0.001635786975 	0.0001767241041 	-4.17736438e-07 	0.006003227872 	-2.166263813e-06 	1.144382083e-05
0.3861248366 	0.001442855031 	0.0004557548645 	-2.464154625e-08 	0.006153288611 	-4.540968241e-07 	1.172987831e-05
0.3969939915 	0.001361947239 	0.0006612071737 	9.857030951e-10 	0.006108875881 	-4.968537358e-10 	1.16452153e-05
0.3970449088 	0.001361798067 	0.0006616998104 	1.682051014e-08 	0.00610824977 	-6.104831102e-08 	1.164402176e-05
0.40862673 	0.001327063007 	0.0007743284966 	1.965556309e-07 	0.005962389755 	-7.233633851e-08 	1.136597203e-05
0.4212554461 	0.001295251683 	0.0008283129853 	7.402535103e-07 	0.005803716474 	4.178963543e-08 	1.106349666e-05
0.4349065359 	0.001267266041 	0.0008559211173 	1.344820255e-06 	0.005662783372 	1.267031791e-07 	1.0794839e-05
0.4496703284 	0.001244580293 	0.0008765370373 	1.84284859e-06 	0.005546133183 	1.889349149e-07 	1.057247131e-05
0.465635286 	0.001229176957 	0.0008982099578 	2.250758021e-06 	0.005457233494 	2.305375046e-07 	1.04030038e-05
0.4829304922 	0.00122078861 	0.0009221237372 	2.60602873e-06 	0.005391894591 	2.376840642e-07 	1.027844969e-05
0.5016158678 	0.001218146412 	0.0009476733272 	2.914675314e-06 	0.005343594744 	2.393804659e-07 	1.018637676e-05
0.5217709233 	0.001221800827 	0.000975515794 	3.150485449e-06 	0.00531201759 	1.583590764e-07 	1.012618192e-05
0.5435505126 	0.001230632276 	0.001005244817 	3.006670494e-06 	0.005288831628 	6.794691441e-08 	1.008198304e-05
0.5670029 	0.001246357342 	0.001039946762 	2.595187565e-06 	0.005272523371 	-5.14894117e-08 	1.005089497e-05
0.592242101 	0.00127051851 	0.001082444988 	2.221030902e-06 	0.005257888675 	-1.507935458e-07 	1.002299717e-05
0.6193729967 	0.001305607031 	0.001136499695 	1.882186269e-06 	0.005239377664 	-2.283625637e-07 	9.987710037e-06
0.6485002409 	0.001354340655 	0.001205279127 	1.575226291e-06 	0.005211105324 	-2.666553407e-07 	9.9338151e-06
0.6776651358 	0.001416435884 	0.001286417338 	1.321629961e-06 	0.005173024902 	-2.495499711e-07 	9.861223231e-06
0.7049135212 	0.001490416161 	0.001375941734 	1.115817816e-06 	0.005131680651 	-1.565029819e-07 	9.782409598e-06
0.7303637708 	0.001577014314 	0.001472705199 	9.573509894e-07 	0.005094612968 	1.594135731e-08 	9.711748292e-06
0.7541322613 	0.001681092558 	0.001572320302 	9.147366569e-07 	0.005058567067 	4.071071123e-07 	9.643034785e-06
0.7763305871 	0.001809037009 	0.001665171486 	9.327485276e-07 	0.005013225212 	8.436937949e-07 	9.556600609e-06
0.7970645851 	0.001957155366 	0.001752197625 	9.295734927e-07 	0.004975282842 	1.12378036e-06 	9.484271905e-06
0.8164316561 	0.002118669406 	0.001837864907 	9.081358543e-07 	0.004963170492 	1.304667111e-06 	9.4611824e-06
0.8345233061 	0.002291565033 	0.001920421816 	8.463175807e-07 	0.004973045333 	1.366735089e-06 	9.480006591e-06
0.8514240754 	0.002472532102 	0.00199828816 	7.536873324e-07 	0.004998683696 	1.344369439e-06 	9.528880436e-06
0.8672128418 	0.00265758484 	0.002069027864 	6.398090883e-07 	0.005031156453 	1.24916409e-06 	9.590782538e-06
0.8819628947 	0.002841915219 	0.002130683786 	5.15693965e-07 	0.005062620083 	1.102044837e-06 	9.650760961e-06
0.8957424737 	0.003020862738 	0.002182184645 	3.927960781e-07 	0.005086566683 	9.213566679e-07 	9.696409836e-06
0.9086152595 	0.003190681808 	0.002223408242 	2.829688216e-07 	0.005097876186 	7.270744401e-07 	9.717968892e-06
0.9206406786 	0.003348550928 	0.002255514376 	1.989958858e-07 	0.005094197305 	5.423931057e-07 	9.710955922e-06
0.9318742292 	0.003494084531 	0.002279992513 	1.543784383e-07 	0.005072727568 	3.92787954e-07 	9.670028637e-06
0.942367767 	0.003628423447 	0.002304028052 	1.70516075e-07 	0.005037110221 	3.138600442e-07 	9.602132074e-06
0.952169758 	0.003743506055 	0.002317200948 	2.456777508e-07 	0.004985602666 	3.360300274e-07 	9.503944358e-06
0.9586584556 	0.003834581513 	0.002326815815 	3.671088299e-07 	0.004934988204 	4.54736531e-07 	9.407459125e-06
0.9644032374 	0.003913576186 	0.002347080338 	5.357149301e-07 	0.004899007418 	6.696560779e-07 	9.338869747e-06
0.9694892196 	0.003988727528 	0.002370078136 	7.34697207e-07 	0.004870104029 	9.707590869e-07 	9.283771855e-06
0.9739918181 	0.004060055386 	0.002397026867 	9.607267586e-07 	0.004850429712 	1.356192459e-06 	9.246267139e-06
0.9779778424 	0.004124582795 	0.002425095026 	1.199656124e-06 	0.004836685264 	1.806595545e-06 	9.2200664e-06
0.9815064743 	0.004172942499 	0.002447872433 	1.431522131e-06 	0.004819303927 	2.286020881e-06 	9.186932742e-06
0.9846301336 	0.00418276835 	0.002453656263 	1.627853797e-06 	0.004778831535 	2.7323888e-06 	9.109781114e-06
0.9873952463 	0.004111541705 	0.002414721722 	1.74556249e-06 	0.004659243889 	3.042266167e-06 	8.881813822e-06
0.9898429272 	0.003872954926 	0.002292387416 	1.719105949e-06 	0.004362255245 	3.06579979e-06 	8.315670922e-06
0.9920095855 	0.003285836409 	0.001943069131 	1.430952341e-06 	0.0036737781 	2.602886251e-06 	7.003242131e-06
0.9934171184 	0.002335938602 	0.001335432802 	9.118026056e-07 	0.002575053529 	1.732210914e-06 	4.908767726e-06
0.9948247484 	0.001164746374 	0.0006000536813 	3.763714878e-07 	0.001252122953 	8.034259181e-07 	2.386894357e-06
0.9962324756 	0.0002878660647 	0.0001078364873 	6.861406916e-08 	0.0002945835432 	2.026734593e-07 	5.615581087e-07
0.9976403 	2.185245577e-05 	3.06605334e-06 	2.901945717e-09 	2.183457968e-05 	2.081146432e-08 	4.162277748e-08
0.9990482216 	2.136221154e-07 	3.176758362e-09 	5.628656059e-12 	2.13208069e-07 	3.286287693e-10 	4.064338376e-10
0.9990482216 	2.136221154e-07 	3.176758362e-09 	5.628656059e-12 	2.13208069e-07 	3.286287693e-10 	4.064338376e-10
