0.4709558481 	7.533508226e-07 	-8.119786417e-09 	5.546125368e-13 	7.518881158e-07 	-3.643829567e-11 	1.433307725e-09
0.4720092239 	6.181632586e-05 	-5.725044943e-06 	3.803377787e-10 	6.171110876e-05 	-2.988557904e-09 	1.17638525e-07
0.4730625996 	0.0006854510877 	-0.0001633467458 	9.313985441e-09 	0.0006851585066 	-3.168851833e-08 	1.306102544e-06
0.4741159754 	0.002507108208 	-0.0008063471228 	3.452684305e-08 	0.002502304667 	-9.563543084e-08 	4.770088175e-06
0.4751693511 	0.004785341768 	-0.001693457715 	5.495620745e-08 	0.004765343747 	-1.45718782e-07 	9.08406964e-06
0.4762227269 	0.006617580055 	-0.002400637069 	5.952198653e-08 	0.006587615668 	-1.601844546e-07 	1.25578264e-05
0.4778443634 	0.007864178407 	-0.002841985464 	5.773824673e-08 	0.007844339402 	-1.557912907e-07 	1.495349112e-05
0.4796765386 	0.008519365848 	-0.003045790244 	5.193080006e-08 	0.008509204538 	-1.375683408e-07 	1.622090886e-05
0.4817465869 	0.008836406652 	-0.003149579137 	4.429523439e-08 	0.008818456809 	-1.109638625e-07 	1.681042964e-05
0.4840853915 	0.008945887359 	-0.003184250431 	3.421457738e-08 	0.008917519743 	-7.613809152e-08 	1.699927113e-05
0.4867278453 	0.008914921249 	-0.003174682763 	2.146658204e-08 	0.008882010287 	-3.232603296e-08 	1.693158023e-05
0.4897133715 	0.008779809296 	-0.003132005562 	5.679367564e-09 	0.008742426671 	2.173227801e-08 	1.666549507e-05
0.4930865115 	0.008558135574 	-0.003061819776 	-1.367232595e-08 	0.008515698804 	8.72860621e-08 	1.623328874e-05
0.4968975894 	0.008257924037 	-0.002966438785 	-3.712346647e-08 	0.008210409327 	1.653899566e-07 	1.565132214e-05
0.5012034633 	0.007882384333 	-0.002844502728 	-6.498475902e-08 	0.007830184301 	2.563602589e-07 	1.492650756e-05
0.506068373 	0.007392379351 	-0.002690814116 	-1.01338786e-07 	0.007332958043 	3.678926845e-07 	1.397865612e-05
0.5134203412 	0.006746068643 	-0.002478651401 	-1.475746461e-07 	0.006679818479 	4.991084358e-07 	1.273359058e-05
0.5212948542 	0.006011967474 	-0.002221970352 	-1.940415106e-07 	0.00594253597 	6.203096531e-07 	1.13281252e-05
0.529729052 	0.005279373625 	-0.001956197083 	-2.387624513e-07 	0.005207016731 	6.969600289e-07 	9.926021105e-06
0.5387627144 	0.004590066413 	-0.00168019676 	-2.816517349e-07 	0.004517481195 	7.054253937e-07 	8.611574726e-06
0.5484384488 	0.003984641409 	-0.001400234715 	-3.117113932e-07 	0.003917520706 	6.40026557e-07 	7.467883284e-06
0.5588018907 	0.003493131082 	-0.001128229464 	-3.165362254e-07 	0.003435264775 	5.15841298e-07 	6.548569444e-06
0.5699019192 	0.003128028507 	-0.0008745758171 	-3.049748722e-07 	0.003081660008 	3.559640165e-07 	5.874500479e-06
0.5817908876 	0.002884784749 	-0.0006378794215 	-2.931839874e-07 	0.002851709395 	1.918375277e-07 	5.436150698e-06
0.5945248701 	0.002744073545 	-0.0004128081751 	-2.774265642e-07 	0.002725736344 	5.504216379e-08 	5.196011051e-06
0.6081639266 	0.00268003488 	-0.000200254379 	-2.555733703e-07 	0.002676860844 	-4.44454235e-08 	5.102840763e-06
0.6227723857 	0.002670742632 	-6.958354576e-07 	-2.305764373e-07 	0.002682752625 	-1.118812719e-07 	5.114072135e-06
0.638419148 	0.00270114126 	0.0001862856238 	-2.033202071e-07 	0.002727840542 	-1.527166885e-07 	5.200022237e-06
0.6551780116 	0.002761049284 	0.0003611431214 	-1.745094565e-07 	0.002801061273 	-1.713898434e-07 	5.3396013e-06
0.6731280194 	0.002843379738 	0.0005248002213 	-1.444748265e-07 	0.002894779724 	-1.710483087e-07 	5.518254717e-06
0.6923538328 	0.002943474814 	0.0006786918849 	-1.130486281e-07 	0.00300400427 	-1.536234899e-07 	5.726467058e-06
0.7129461301 	0.003059173859 	0.0008248176245 	-7.96659591e-08 	0.003126202088 	-1.202400715e-07 	5.959410063e-06
0.7350020349 	0.00318904322 	0.0009635868754 	-4.411268137e-08 	0.00325945907 	-7.213141516e-08 	6.213434907e-06
0.7570579485 	0.003329297746 	0.001091947795 	-7.669269972e-09 	0.003399761472 	-1.248684531e-08 	6.48089028e-06
0.7776502527 	0.003477003681 	0.00120859017 	2.786505371e-08 	0.003544528137 	5.465977211e-08 	6.756855779e-06
0.7968760713 	0.003634254176 	0.001316645158 	6.162433342e-08 	0.003696447165 	1.272102153e-07 	7.046455671e-06
0.814826083 	0.003805381893 	0.001419855423 	9.315335383e-08 	0.003860371567 	2.04141854e-07 	7.358941141e-06
0.831584949 	0.003994361269 	0.001520931751 	1.219230822e-07 	0.004040705786 	2.840009511e-07 	7.702708283e-06
0.8472317127 	0.004204581563 	0.001621834663 	1.473745271e-07 	0.004241238484 	3.64602965e-07 	8.084979342e-06
0.8618401721 	0.004438617493 	0.001723936109 	1.689018568e-07 	0.004464978355 	4.429051444e-07 	8.511489721e-06
0.8754792281 	0.004697965542 	0.001828078413 	1.858268501e-07 	0.004713916473 	5.150058175e-07 	8.986034963e-06
0.8882132094 	0.004982736803 	0.001934566784 	1.974176432e-07 	0.004988708169 	5.762989069e-07 	9.50986431e-06
0.9001021759 	0.00529133191 	0.002043139212 	2.029827528e-07 	0.005288311797 	6.218592837e-07 	1.008099209e-05
0.9112022019 	0.005620187421 	0.002152944802 	2.02034474e-07 	0.005609615587 	6.471101511e-07 	1.069348642e-05
0.9215656407 	0.005963619701 	0.002262600414 	1.944784792e-07 	0.005947318934 	6.48708754e-07 	1.133724286e-05
0.9312413717 	0.006314025519 	0.002370205386 	1.807637439e-07 	0.006293758122 	6.254316995e-07 	1.199765224e-05
0.9402750304 	0.006661737881 	0.002473708485 	1.619376819e-07 	0.006640282178 	5.787540764e-07 	1.26582234e-05
0.9487092242 	0.006996562738 	0.002570286761 	1.395293672e-07 	0.006974892704 	5.127828478e-07 	1.329608407e-05
0.9565837329 	0.007307296353 	0.002662123 	1.15551885e-07 	0.00728499447 	4.33714066e-07 	1.388722422e-05
0.9639356968 	0.007558259751 	0.002727471778 	9.287855809e-08 	0.007538315235 	3.548246562e-07 	1.4370124e-05
0.9688006083 	0.007730133647 	0.002766792308 	7.501637351e-08 	0.007712821161 	2.896297295e-07 	1.47027808e-05
0.9731064834 	0.007846137756 	0.002797936546 	6.156983695e-08 	0.007829143489 	2.368476413e-07 	1.492452349e-05
0.976917562 	0.007917116795 	0.002814245026 	5.039121774e-08 	0.007900893452 	1.916823016e-07 	1.506129886e-05
0.9802907021 	0.007937896973 	0.002816156819 	4.133108577e-08 	0.007922620862 	1.540064262e-07 	1.510271734e-05
0.9832762282 	0.007898451022 	0.002800306149 	3.406364131e-08 	0.007883870305 	1.232546284e-07 	1.502884801e-05
0.9859186816 	0.00777957377 	0.002760195436 	2.82895559e-08 	0.00776641508 	9.866060917e-08 	1.480494571e-05
0.9882574856 	0.007544996723 	0.002684148908 	2.377020771e-08 	0.007538284345 	7.942974077e-08 	1.437006512e-05
0.990327533 	0.007129984347 	0.002547976844 	2.020417911e-08 	0.007126267669 	6.463289454e-08 	1.358464682e-05
0.9921597073 	0.006411619696 	0.002317241268 	1.754935823e-08 	0.006396047646 	5.318314865e-08 	1.21926445e-05
0.9937813429 	0.005188538209 	0.001877221827 	1.507008889e-08 	0.005166173914 	4.35185383e-08 	9.848163344e-06
0.9948347186 	0.003533180539 	0.001228835683 	1.171976622e-08 	0.003521449153 	3.329420042e-08 	6.712860822e-06
0.9958880943 	0.00172326995 	0.0005295620485 	6.199579787e-09 	0.001721217307 	1.878658766e-08 	3.281118575e-06
0.9969414701 	0.0004389505117 	9.40438386e-05 	1.357025926e-09 	0.0004386529896 	5.415806872e-09 	8.361945155e-07
0.9979948458 	3.879015727e-05 	3.028241318e-06 	4.829742041e-11 	3.871920722e-05 	4.912558766e-10 	7.380957042e-08
0.9990482216 	5.178139211e-07 	4.627489803e-09 	7.451655438e-14 	5.168150264e-07 	6.56261156e-12 	9.851930816e-10
0.9990482216 	5.178139211e-07 	4.627489803e-09 	7.451655438e-14 	5.168150264e-07 	6.56261156e-12 	9.851930816e-10
