0.4709558481 	6.751252051e-07 	-1.14251536e-08 	2.485371581e-13 	6.738013923e-07 	-1.048136523e-11 	1.284452727e-09
0.4720092239 	5.577848048e-05 	-8.105796935e-06 	1.73085912e-10 	5.571147398e-05 	-8.713790499e-10 	1.062015536e-07
0.4730625996 	0.0006411637449 	-0.0002394823527 	4.46156301e-09 	0.0006550409935 	-1.009789336e-08 	1.248690193e-06
0.4741159754 	0.002426086681 	-0.001234697216 	1.741655955e-08 	0.002590203012 	-3.332044613e-08 	4.937646851e-06
0.4751693511 	0.00473610147 	-0.002664681628 	2.859841513e-08 	0.005163590715 	-5.284074292e-08 	9.843239048e-06
0.4762227269 	0.006646996324 	-0.0038494051 	3.155955695e-08 	0.007314101906 	-5.871127585e-08 	1.394271108e-05
0.4778443634 	0.007970367838 	-0.004604601879 	3.086689724e-08 	0.008784113872 	-5.735380913e-08 	1.674496246e-05
0.4796765386 	0.008691954436 	-0.004967312242 	2.786520851e-08 	0.009560597077 	-5.090828108e-08 	1.822515526e-05
0.4817465869 	0.009074999718 	-0.0051637155 	2.387336279e-08 	0.009960302057 	-4.184436225e-08 	1.898710404e-05
0.4840853915 	0.0092540079 	-0.005250043544 	1.87047996e-08 	0.01013630656 	-3.033511797e-08 	1.932261754e-05
0.4867278453 	0.009299538628 	-0.005271123503 	1.239238493e-08 	0.01018100637 	-1.64187796e-08 	1.94078278e-05
0.4897133715 	0.009253308856 	-0.005245458649 	4.895439972e-09 	0.0101292429 	8.857247656e-11 	1.930915224e-05
0.4930865115 	0.009136916609 	-0.005183880728 	-3.878064084e-09 	0.0100026974 	1.9463658e-08 	1.906792136e-05
0.4968975894 	0.008961643949 	-0.005092221158 	-1.409213269e-08 	0.009814114215 	4.215882348e-08 	1.870842939e-05
0.5012034633 	0.008733144963 	-0.004969234586 	-2.586326715e-08 	0.009567275724 	6.869150421e-08 	1.823788662e-05
0.506068373 	0.008431209874 	-0.004820667065 	-4.119632913e-08 	0.009247155324 	1.028354186e-07 	1.762764816e-05
0.5134203412 	0.008022596796 	-0.004607906613 	-6.13942296e-08 	0.008807365673 	1.478877926e-07 	1.678928685e-05
0.5212948542 	0.007538329992 	-0.004337059936 	-8.49551365e-08 	0.008277973533 	2.001308003e-07 	1.57801183e-05
0.529729052 	0.007024221019 	-0.004052583633 	-1.10683419e-07 	0.007716015042 	2.550573688e-07 	1.470886923e-05
0.5387627144 	0.00648780077 	-0.003747325451 	-1.378492452e-07 	0.007123424113 	3.102176219e-07 	1.357922621e-05
0.5484384488 	0.005937554342 	-0.003423489764 	-1.656261479e-07 	0.006510161668 	3.624428641e-07 	1.241017754e-05
0.5588018907 	0.005385560001 	-0.003081853577 	-1.922605383e-07 	0.005884137441 	4.074153292e-07 	1.121680137e-05
0.5699019192 	0.004845940917 	-0.002723977164 	-2.166996321e-07 	0.00525786546 	4.402398644e-07 	1.002295292e-05
0.5817908876 	0.004335016224 	-0.002350170983 	-2.390001016e-07 	0.004647295408 	4.554702342e-07 	8.859036697e-06
0.5945248701 	0.00386890073 	-0.001961954209 	-2.555765888e-07 	0.004074185801 	4.464349264e-07 	7.766530498e-06
0.6081639266 	0.00346162609 	-0.001564745051 	-2.613790193e-07 	0.003566848491 	4.083848071e-07 	6.799404579e-06
0.6227723857 	0.003126526257 	-0.001161495606 	-2.564784967e-07 	0.003156585648 	3.429228958e-07 	6.017329572e-06
0.638419148 	0.002879852031 	-0.0007521813281 	-2.422739708e-07 	0.0028709707 	2.606606327e-07 	5.472868099e-06
0.6551780116 	0.002741718081 	-0.0003385323249 	-2.18880077e-07 	0.00272474652 	1.793372113e-07 	5.194124172e-06
0.6731280194 	0.002729272844 	7.845682823e-05 	-1.876720969e-07 	0.002718264437 	1.140162868e-07 	5.18176752e-06
0.6923538328 	0.002844735338 	0.0004991856411 	-1.504935872e-07 	0.002846793284 	7.121238604e-08 	5.426779225e-06
0.7129461301 	0.003073130597 	0.0009242684469 	-1.092859522e-07 	0.003106431624 	5.229554072e-08 	5.921722064e-06
0.7350020349 	0.003388832911 	0.001347451853 	-6.71792523e-08 	0.003484500172 	5.618061552e-08 	6.642425795e-06
0.7570579485 	0.00375667265 	0.00174904002 	-2.860362928e-08 	0.003941323464 	7.743727063e-08 	7.513257956e-06
0.7776502527 	0.004144396319 	0.002113548223 	3.600903048e-09 	0.004426966724 	1.072298309e-07 	8.439028989e-06
0.7968760713 	0.004537252023 	0.002441889276 	2.926163497e-08 	0.004912723871 	1.382565229e-07 	9.36501712e-06
0.814826083 	0.004929762268 	0.002739840728 	4.893782427e-08 	0.005387034584 	1.660367006e-07 	1.026918517e-05
0.831584949 	0.005317454975 	0.003011642892 	6.321551922e-08 	0.005844037429 	1.880119118e-07 	1.114035961e-05
0.8472317127 	0.005696437566 	0.003260413495 	7.276758398e-08 	0.006280679945 	2.030389383e-07 	1.19727216e-05
0.8618401721 	0.006063376938 	0.003488475423 	7.835129497e-08 	0.006695235133 	2.11019609e-07 	1.276297901e-05
0.8754792281 	0.006415522666 	0.003697609561 	8.076245761e-08 	0.007086638411 	2.125928198e-07 	1.350910244e-05
0.8882132094 	0.006750709241 	0.003889240817 	8.077245785e-08 	0.007454220633 	2.088473743e-07 	1.420981632e-05
0.9001021759 	0.007067317139 	0.00406457525 	7.907222338e-08 	0.00779762135 	2.010651343e-07 	1.486443353e-05
0.9112022019 	0.007364223797 	0.004224656371 	7.62350782e-08 	0.00811666474 	1.905151637e-07 	1.54726189e-05
0.9215656407 	0.007640614699 	0.004370471804 	7.270326711e-08 	0.008411445857 	1.783153949e-07 	1.603455364e-05
0.9312413717 	0.007895964703 	0.004502697459 	6.87901251e-08 	0.008681692211 	1.653514794e-07 	1.654971831e-05
0.9402750304 	0.008128868347 	0.004622481964 	6.471291309e-08 	0.008928707391 	1.52286856e-07 	1.702059789e-05
0.9487092242 	0.008338724992 	0.004728675487 	6.057640338e-08 	0.009148934157 	1.394936331e-07 	1.744041132e-05
0.9565837329 	0.008523786578 	0.004829980137 	5.66248943e-08 	0.009345318038 	1.272584542e-07 	1.781477358e-05
0.9639356968 	0.008661625654 	0.004892762166 	5.281489442e-08 	0.009485933666 	1.16336635e-07 	1.808282605e-05
0.9688006083 	0.008746532089 	0.004923442489 	4.968077652e-08 	0.009567825601 	1.077392553e-07 	1.823893483e-05
0.9731064834 	0.008796389968 	0.004951537732 	4.736881683e-08 	0.009619630976 	1.009569716e-07 	1.833769028e-05
0.976917562 	0.008811644337 	0.004959269221 	4.530231775e-08 	0.009634175631 	9.506032788e-08 	1.836541643e-05
0.9802907021 	0.00878546676 	0.004947118117 	4.35383445e-08 	0.009606335816 	9.000268365e-08 	1.831234601e-05
0.9832762282 	0.008705570307 	0.004908352417 	4.203637092e-08 	0.00952210467 	8.568948571e-08 	1.815177803e-05
0.9859186816 	0.008549613047 	0.004831451277 	4.075655924e-08 	0.009359023608 	8.202846481e-08 	1.78409002e-05
0.9882574856 	0.008276389239 	0.004697229551 	3.967673856e-08 	0.009080852738 	7.898711401e-08 	1.731062921e-05
0.990327533 	0.007817128245 	0.004461615456 	3.865489694e-08 	0.008596937841 	7.628093556e-08 	1.638815292e-05
0.9921597073 	0.007042040537 	0.004064968728 	3.786758949e-08 	0.007758138383 	7.34860417e-08 	1.478916802e-05
0.9937813429 	0.005723065832 	0.00330647943 	3.568262957e-08 	0.006292546759 	6.793322956e-08 	1.199534305e-05
0.9948347186 	0.003920758437 	0.002180546424 	2.98913683e-08 	0.004262024864 	5.634804813e-08 	8.124603959e-06
0.9958880943 	0.001916364807 	0.0009472214864 	1.668408341e-08 	0.002034451241 	3.285501942e-08 	3.878229512e-06
0.9969414701 	0.0004830203814 	0.0001687420087 	3.806776128e-09 	0.0004909436326 	9.197801603e-09 	9.358750145e-07
0.9979948458 	4.154627572e-05 	5.414426075e-06 	1.372234359e-10 	4.148460013e-05 	7.853253695e-10 	7.908117789e-08
0.9990482216 	5.51615165e-07 	8.270470843e-09 	2.13139334e-13 	5.505404539e-07 	1.038653764e-11 	1.04948312e-09
0.9990482216 	5.51615165e-07 	8.270470843e-09 	2.13139334e-13 	5.505404539e-07 	1.038653764e-11 	1.04948312e-09
