0.3673995292 	9.541583577e-07 	-1.997195294e-08 	1.753885702e-11 	9.406685737e-07 	-5.812672981e-10 	1.793175747e-09
0.3673995292 	9.541583577e-07 	-1.997195294e-08 	1.753885702e-11 	9.406685737e-07 	-5.812672981e-10 	1.793175747e-09
0.3684829761 	8.574050517e-05 	-1.430795915e-05 	2.022095579e-08 	7.745527894e-05 	-7.379464123e-08 	1.476512892e-07
0.3695665877 	0.001032919768 	-0.0003819412244 	5.254579859e-07 	0.0008465599027 	-8.230260712e-07 	1.613778464e-06
0.3706502347 	0.003640164046 	-0.001678542454 	1.668672756e-06 	0.002942778986 	-2.044083317e-06 	5.609754651e-06
0.3717337888 	0.006488400094 	-0.003203262147 	2.129465206e-06 	0.005240264448 	-2.084492555e-06 	9.989400494e-06
0.3728171224 	0.008270199275 	-0.004166497079 	1.515920636e-06 	0.006705685014 	-6.668942832e-07 	1.278289939e-05
0.3744841553 	0.008956853379 	-0.004546674408 	3.53968263e-07 	0.007299843955 	1.589338674e-06 	1.391553146e-05
0.3763660564 	0.008652396455 	-0.004418813177 	-1.146318277e-06 	0.007085579181 	4.285932707e-06 	1.350708325e-05
0.3784895005 	0.007846812196 	-0.004066256422 	-2.84467227e-06 	0.006456423851 	6.839314036e-06 	1.230773833e-05
0.3808839529 	0.006789035793 	-0.003547976021 	-4.732022885e-06 	0.005622185574 	8.593219932e-06 	1.071744831e-05
0.3836378911 	0.005689594651 	-0.00294427522 	-5.954932316e-06 	0.004774525438 	8.469558444e-06 	9.101572495e-06
0.3867652482 	0.004731265167 	-0.002354001711 	-5.883281105e-06 	0.004089617015 	5.810356964e-06 	7.795946682e-06
0.390290462 	0.00400782565 	-0.001858561963 	-4.729229186e-06 	0.003699801287 	1.026816733e-06 	7.05284956e-06
0.3942632783 	0.003495200792 	-0.001465108341 	-3.482832523e-06 	0.003634457143 	-3.773775054e-06 	6.92828546e-06
0.3988211095 	0.00311573209 	-0.00112528353 	-2.776361371e-06 	0.003820932126 	-6.718812689e-06 	7.283758605e-06
0.4039948728 	0.002797104709 	-0.0008006518812 	-2.251743233e-06 	0.004181163601 	-7.905689548e-06 	7.970459918e-06
0.4118367251 	0.002504243521 	-0.000451260457 	-1.810308967e-06 	0.004641614453 	-7.802288779e-06 	8.848207218e-06
0.420339507 	0.002244878904 	-9.449647489e-05 	-1.430169588e-06 	0.005104450069 	-7.094550998e-06 	9.730500539e-06
0.429540511 	0.002016089984 	0.0002337991253 	-1.17471663e-06 	0.005520697694 	-6.065827457e-06 	1.05239842e-05
0.4394675757 	0.001809676587 	0.0005467402814 	-1.012396427e-06 	0.005878911671 	-4.585103828e-06 	1.12068396e-05
0.450208819 	0.001641364378 	0.0008450338053 	-6.418870953e-07 	0.006151582495 	-2.454518367e-06 	1.172662598e-05
0.4618721886 	0.001548305819 	0.001100933765 	-4.943723626e-08 	0.006273273495 	-5.935939613e-07 	1.195860285e-05
0.4744877587 	0.001535463374 	0.001267869516 	2.392183393e-07 	0.006215732225 	1.562629845e-08 	1.184891319e-05
0.488139843 	0.001542527557 	0.001348867348 	1.539972953e-07 	0.006078172848 	2.858677206e-08 	1.158668679e-05
0.4975745988 	0.001538822671 	0.001367542353 	-2.641483947e-07 	0.005994354255 	-4.853779136e-06 	1.142690525e-05
0.5028917562 	0.001536750662 	0.001377934893 	8.266848941e-08 	0.005946396035 	1.497577317e-08 	1.133548356e-05
0.5188499572 	0.001525887229 	0.001384001715 	3.408415265e-07 	0.005836956329 	3.894470866e-08 	1.112686106e-05
0.5361130653 	0.001517309365 	0.00138595034 	5.667225118e-07 	0.005747798482 	4.161403324e-08 	1.095690143e-05
0.5547594807 	0.001513480798 	0.001389016209 	7.41712186e-07 	0.005673113186 	3.719006295e-08 	1.081453049e-05
0.574931013 	0.001514975386 	0.001394483434 	8.785134725e-07 	0.005608474802 	1.885628338e-08 	1.069131177e-05
0.596680164 	0.001522890226 	0.001404111205 	9.774170084e-07 	0.005549960075 	-1.126729782e-08 	1.057976643e-05
0.6201143357 	0.001538988874 	0.001420373876 	1.037677723e-06 	0.005494288885 	-4.853075064e-08 	1.047364167e-05
0.645332846 	0.001565808643 	0.001446664322 	1.057900098e-06 	0.005437801867 	-8.033663921e-08 	1.036596172e-05
0.6724342449 	0.001606391537 	0.001486645446 	1.042975701e-06 	0.005378485583 	-8.498043124e-08 	1.025288839e-05
0.6995933348 	0.001661460056 	0.001540758191 	1.001331765e-06 	0.005321142938 	-4.44469231e-08 	1.014357738e-05
0.7249828856 	0.001729863419 	0.00160676376 	9.467268954e-07 	0.005274584699 	3.704846317e-08 	1.005482443e-05
0.7487060318 	0.001812709765 	0.001683181844 	8.586514295e-07 	0.005242843994 	5.363521063e-08 	9.994317826e-06
0.7708663551 	0.001918183248 	0.00176180878 	7.149444544e-07 	0.00520850346 	-5.109577875e-08 	9.928855223e-06
0.7915646598 	0.002047507702 	0.00183824358 	6.021120332e-07 	0.005170636327 	-6.130080017e-08 	9.856669943e-06
0.8108975394 	0.002192492112 	0.001914974709 	5.298757908e-07 	0.005149457201 	2.089917083e-08 	9.816296643e-06
0.8289546918 	0.002349074181 	0.001988566106 	4.520255573e-07 	0.005145787474 	7.490174599e-08 	9.809301122e-06
0.8458208373 	0.002514040215 	0.002055853354 	3.761273184e-07 	0.005153986821 	1.011112628e-07 	9.824931357e-06
0.861574609 	0.00268373089 	0.002115547091 	3.005685582e-07 	0.005167502095 	8.919311062e-08 	9.850695227e-06
0.8762895743 	0.00285383902 	0.00216676605 	2.304814837e-07 	0.005180319487 	5.703684344e-08 	9.875128737e-06
0.8900342399 	0.003020116245 	0.002209265538 	1.712911931e-07 	0.005187730792 	1.636501406e-08 	9.889256745e-06
0.9028724742 	0.00317933692 	0.002243632629 	1.277737587e-07 	0.005186197893 	-2.067864513e-08 	9.886334613e-06
0.9148639184 	0.003329870357 	0.002271295768 	1.03605771e-07 	0.005173462587 	-4.407024371e-08 	9.862057581e-06
0.9260642485 	0.003471420291 	0.002295002364 	1.020242335e-07 	0.005150371672 	-4.36198917e-08 	9.818039878e-06
0.9365254628 	0.003606641251 	0.002317781782 	1.252913362e-07 	0.005117428789 	-1.042005834e-08 	9.755241588e-06
0.9462961394 	0.003740230422 	0.00234940268 	1.786206802e-07 	0.005082962046 	6.787871321e-08 	9.689538396e-06
0.9554216696 	0.003866594112 	0.002377564569 	2.48688407e-07 	0.005047236484 	1.871185606e-07 	9.621435544e-06
0.9614619036 	0.003978763885 	0.002407318616 	3.253756881e-07 	0.005024821902 	3.282539431e-07 	9.578707122e-06
0.9668091954 	0.004086933821 	0.002453041044 	4.091095407e-07 	0.005028650902 	4.893849673e-07 	9.586006261e-06
0.9715429241 	0.004200216303 	0.00250519771 	4.947567495e-07 	0.005051060862 	6.698503969e-07 	9.628725872e-06
0.9757334019 	0.004317616038 	0.002563763629 	5.778155457e-07 	0.005092393578 	8.596216614e-07 	9.707517518e-06
0.9794429011 	0.00443360692 	0.002623693124 	6.518268715e-07 	0.005145442622 	1.043430022e-06 	9.808643739e-06
0.9827265717 	0.00453386542 	0.002675685394 	7.097329737e-07 	0.005194452846 	1.202227588e-06 	9.902070847e-06
0.9856332522 	0.004587956784 	0.002704235635 	7.433916332e-07 	0.005210812557 	1.313333049e-06 	9.933257004e-06
0.9882061891 	0.004541660196 	0.002676109898 	7.416882263e-07 	0.005124860541 	1.347853833e-06 	9.769408573e-06
0.9904836754 	0.004291984147 	0.002544815277 	6.901820916e-07 	0.004820069184 	1.271198508e-06 	9.188391533e-06
0.9924996163 	0.003637375644 	0.002152109732 	5.584268088e-07 	0.004058867597 	1.040977858e-06 	7.737329744e-06
0.9938092065 	0.002575038614 	0.001470692708 	3.602891955e-07 	0.002834167243 	6.964808501e-07 	5.402710481e-06
0.9951188621 	0.00128098685 	0.0006574063426 	1.536980452e-07 	0.001374722657 	3.304706825e-07 	2.620603468e-06
0.9964285831 	0.0003185971255 	0.0001184503108 	2.838729461e-08 	0.000325677407 	8.348172713e-08 	6.208316551e-07
0.9977383696 	2.494884576e-05 	3.49360537e-06 	1.103023009e-09 	2.492478711e-05 	8.101535748e-09 	4.751357172e-08
0.9990482216 	2.617122694e-07 	3.989705691e-09 	2.089179244e-12 	2.612041715e-07 	1.248868187e-10 	4.979277489e-10
0.9990482216 	2.617122694e-07 	3.989705691e-09 	2.089179244e-12 	2.612041715e-07 	1.248868187e-10 	4.979277489e-10
