0.4709558481 	6.72112438e-07 	-1.135777114e-08 	8.796371587e-14 	6.707947528e-07 	-4.957958651e-12 	1.278721236e-09
0.4709558481 	6.72112438e-07 	-1.135777114e-08 	8.796371587e-14 	6.707947528e-07 	-4.957958651e-12 	1.278721236e-09
0.4720092239 	5.552846242e-05 	-8.058002608e-06 	6.877990566e-11 	5.546163479e-05 	-4.115611366e-10 	1.057252907e-07
0.4730625996 	0.0006383677453 	-0.0002382244953 	1.981821502e-09 	0.0006521399808 	-4.826581069e-09 	1.243160056e-06
0.4741159754 	0.002417112359 	-0.00122966073 	8.680010885e-09 	0.002580471085 	-1.709722839e-08 	4.919095093e-06
0.4751693511 	0.004721639188 	-0.002656174225 	1.604044916e-08 	0.005147774068 	-2.979471488e-08 	9.813088123e-06
0.4762227269 	0.006630191534 	-0.003839633965 	2.045477891e-08 	0.00729586291 	-3.730544163e-08 	1.390794249e-05
0.4778443634 	0.00795285409 	-0.004594519791 	2.344474163e-08 	0.008765321697 	-4.143563743e-08 	1.670913935e-05
0.4796765386 	0.008674820216 	-0.004957500917 	2.507095282e-08 	0.009542559284 	-4.211334235e-08 	1.819077021e-05
0.4817465869 	0.009058866455 	-0.005154399904 	2.545569312e-08 	0.009943686119 	-4.011978316e-08 	1.895542945e-05
0.4840853915 	0.009239439214 	-0.005241508381 	2.447601481e-08 	0.01012173203 	-3.604648906e-08 	1.929483444e-05
0.4867278453 	0.009287094462 	-0.005263641221 	2.233823012e-08 	0.01016907875 	-3.0689469e-08 	1.938509045e-05
0.4897133715 	0.009243590619 	-0.005239314269 	1.943701087e-08 	0.0101206225 	-2.480471587e-08 	1.929271937e-05
0.4930865115 	0.009130617601 	-0.005179385589 	1.623610034e-08 	0.009998122378 	-1.888219102e-08 	1.905920009e-05
0.4968975894 	0.008959581574 	-0.005089731504 	1.31621997e-08 	0.009814444126 	-1.296103848e-08 	1.870905829e-05
0.5012034633 	0.008736287568 	-0.004969140864 	1.054533502e-08 	0.009573503015 	-6.65820508e-09 	1.824975756e-05
0.506068373 	0.008441322076 	-0.004823815201 	8.131777359e-09 	0.009261162469 	1.761265879e-09 	1.765434967e-05
0.5134203412 	0.008042307909 	-0.004615473918 	5.514450383e-09 	0.008831921482 	1.529167138e-08 	1.683609705e-05
0.5212948542 	0.007569609149 	-0.004349949594 	2.000496591e-09 	0.008315102185 	3.503659883e-08 	1.585089583e-05
0.529729052 	0.007068002966 	-0.004071460412 	-3.437551469e-09 	0.00776670039 	6.002225559e-08 	1.480548959e-05
0.5387627144 	0.006544396108 	-0.00377270782 	-1.135496826e-08 	0.00718808394 	8.880502473e-08 	1.370248581e-05
0.5484384488 	0.006006382112 	-0.00345573932 	-2.189825837e-08 	0.006588473612 	1.192351679e-07 	1.255946188e-05
0.5588018907 	0.005464884733 	-0.00312095003 	-3.435447436e-08 	0.005974738506 	1.484103664e-07 	1.138951219e-05
0.5699019192 	0.004932714171 	-0.002769702584 	-4.837171944e-08 	0.005358210829 	1.734294902e-07 	1.021423908e-05
0.5817908876 	0.004425066101 	-0.002402389207 	-6.42150513e-08 	0.004753522486 	1.915963744e-07 	9.061535032e-06
0.5945248701 	0.003957638978 	-0.002019736016 	-8.006139027e-08 	0.004180741245 	1.996224871e-07 	7.969654789e-06
0.6081639266 	0.003544745207 	-0.001625902926 	-9.341987513e-08 	0.00366673747 	1.944849684e-07 	6.989820735e-06
0.6227723857 	0.003200063929 	-0.001223797075 	-1.046820176e-07 	0.003242655025 	1.749214269e-07 	6.181401727e-06
0.638419148 	0.002940099952 	-0.0008137030582 	-1.146171338e-07 	0.0029379468 	1.425831903e-07 	5.600543162e-06
0.6551780116 	0.00278600294 	-0.0003972590329 	-1.228618226e-07 	0.00277120076 	1.026678566e-07 	5.282678864e-06
0.6731280194 	0.002757852915 	2.430027889e-05 	-1.297381069e-07 	0.002746453647 	6.084605999e-08 	5.235503988e-06
0.6923538328 	0.002861907671 	0.0004510051056 	-1.355350079e-07 	0.002860850172 	2.047212287e-08 	5.45357556e-06
0.7129461301 	0.003085600075 	0.0008831586926 	-1.396647456e-07 	0.003111308581 	-1.55746026e-08 	5.931018899e-06
0.7350020349 	0.003402789956 	0.001314010683 	-1.408863716e-07 	0.003485657951 	-4.301563626e-08 	6.644632842e-06
0.7570579485 	0.00377588665 	0.001723068102 	-1.382722361e-07 	0.003943676102 	-5.882557566e-08 	7.517742738e-06
0.7776502527 	0.004170056321 	0.002094189233 	-1.324327895e-07 	0.004433509673 	-6.472026655e-08 	8.451501667e-06
0.7968760713 	0.004568943113 	0.002428079557 	-1.247286263e-07 	0.004924454665 	-6.486776891e-08 	9.387379273e-06
0.814826083 	0.004966260399 	0.00273052011 	-1.161277477e-07 	0.005403635217 	-6.253771924e-08 	1.030083059e-05
0.831584949 	0.005357134091 	0.003005806112 	-1.073055235e-07 	0.005864455875 	-5.970011556e-08 	1.117928284e-05
0.8472317127 	0.005737560412 	0.003257158875 	-9.869603734e-08 	0.006303551576 	-5.737904991e-08 	1.201632129e-05
0.8618401721 	0.006104317322 	0.003487043998 	-9.052616131e-08 	0.006719172168 	-5.597041921e-08 	1.280860965e-05
0.8754792281 	0.006454919842 	0.003697409468 	-8.284866547e-08 	0.007110421621 	-5.543952237e-08 	1.355443985e-05
0.8882132094 	0.006787554969 	0.003889854146 	-7.558799533e-08 	0.007476912883 	-5.546137682e-08 	1.425307406e-05
0.9001021759 	0.007100983384 	0.004065748362 	-6.859103478e-08 	0.007818616938 	-5.554082726e-08 	1.490445696e-05
0.9112022019 	0.007394444373 	0.004226277403 	-6.167085014e-08 	0.00813568864 	-5.511670317e-08 	1.550888375e-05
0.9215656407 	0.007667436129 	0.004372540478 	-5.463807914e-08 	0.008428517765 	-5.364935686e-08 	1.606709745e-05
0.9312413717 	0.007919680816 	0.004505291417 	-4.731815576e-08 	0.008697069131 	-5.067424946e-08 	1.657903099e-05
0.9402750304 	0.008149947802 	0.004625726857 	-3.955682763e-08 	0.008942822225 	-4.583492512e-08 	1.704750469e-05
0.9487092242 	0.008357747912 	0.004732709377 	-3.123855241e-08 	0.009162319774 	-3.887532264e-08 	1.746592802e-05
0.9565837329 	0.008541390821 	0.004834972515 	-2.219182695e-08 	0.009358566449 	-2.96251126e-08 	1.784002873e-05
0.9639356968 	0.008678460018 	0.00489869364 	-1.331279362e-08 	0.0094995497 	-1.893083561e-08 	1.810878199e-05
0.9688006083 	0.008763117175 	0.004930180562 	-5.615915277e-09 	0.009582089279 	-8.530171806e-09 	1.826612537e-05
0.9731064834 	0.008813026871 	0.004959029813 	1.262569949e-09 	0.009634683523 	1.404526194e-09 	1.836638462e-05
0.976917562 	0.008828503971 	0.004967438954 	7.630337772e-09 	0.009650097578 	1.136905276e-08 	1.839576809e-05
0.9802907021 	0.008802651295 	0.004955889824 	1.337921965e-08 	0.009623146193 	2.106719805e-08 	1.834439126e-05
0.9832762282 	0.008723116795 	0.00491763449 	1.836722885e-08 	0.009539758998 	3.016671533e-08 	1.818543209e-05
0.9859186816 	0.008567496561 	0.004841139573 	2.246967616e-08 	0.009377419555 	3.829644963e-08 	1.787596799e-05
0.9882574856 	0.00829451021 	0.004707212406 	2.559007275e-08 	0.009099849216 	4.510174494e-08 	1.734684178e-05
0.990327533 	0.007835299782 	0.004471749111 	2.761851358e-08 	0.008616301707 	5.012234372e-08 	1.642506583e-05
0.9921597073 	0.007059951373 	0.004075153991 	2.865184228e-08 	0.007777504507 	5.280076388e-08 	1.482608524e-05
0.9937813429 	0.005739805532 	0.003316188584 	2.75805526e-08 	0.006310809275 	5.096718509e-08 	1.203015648e-05
0.9948347186 	0.003934674374 	0.002188695638 	2.307307383e-08 	0.004277272926 	4.274131711e-08 	8.153671004e-06
0.9958880943 	0.001924579032 	0.0009517562485 	1.272681474e-08 	0.002043339892 	2.481865316e-08 	3.895173752e-06
0.9969414701 	0.0004854262848 	0.000169770846 	2.852846619e-09 	0.0004934235894 	6.875386715e-09 	9.406025013e-07
0.9979948458 	4.17576913e-05 	5.451189997e-06 	1.002546605e-10 	4.169579823e-05 	5.831283347e-10 	7.948378017e-08
0.9990482216 	5.54412493e-07 	8.326990488e-09 	1.511014413e-13 	5.533321796e-07 	7.702068867e-12 	1.054804925e-09
0.9990482216 	5.54412493e-07 	8.326990488e-09 	1.511014413e-13 	5.533321796e-07 	7.702068867e-12 	1.054804925e-09
