0.3809068052 	9.505190285e-07 	-1.198366175e-08 	7.53763036e-12 	9.423833838e-07 	-4.255619015e-10 	1.796444651e-09
0.3809068052 	9.505190285e-07 	-1.198366175e-08 	7.53763036e-12 	9.423833838e-07 	-4.255619015e-10 	1.796444651e-09
0.3819639198 	8.096377428e-05 	-8.292894614e-06 	8.349871344e-09 	7.651587785e-05 	-5.423335941e-08 	1.458605297e-07
0.3830211992 	0.000912951793 	-0.0002161706197 	2.090205993e-07 	0.0007998555707 	-5.820014708e-07 	1.524747026e-06
0.3840785339 	0.003183531293 	-0.0009514531307 	6.65467974e-07 	0.002681468048 	-1.498279497e-06 	5.111623374e-06
0.385135815 	0.005716398602 	-0.001834632464 	8.584042966e-07 	0.004742266862 	-1.755365971e-06 	9.040078684e-06
0.3861929345 	0.007387201265 	-0.002413523288 	6.191335363e-07 	0.006115000287 	-1.074854904e-06 	1.165689012e-05
0.3878197712 	0.008124812572 	-0.002660773379 	1.634558177e-07 	0.006750188328 	2.32188507e-07 	1.286773507e-05
0.3896565669 	0.00798908872 	-0.002614734659 	-4.80382018e-07 	0.006666159731 	1.977055122e-06 	1.270755321e-05
0.3917295634 	0.007380194468 	-0.002433998696 	-1.166341176e-06 	0.006166631616 	3.791212163e-06 	1.175531379e-05
0.394067843 	0.00650800394 	-0.002159001073 	-1.938010536e-06 	0.005453707159 	5.220998684e-06 	1.039628163e-05
0.396755554 	0.005538964134 	-0.001824044916 	-2.671594808e-06 	0.004689815704 	5.654650159e-06 	8.940092199e-06
0.3998076713 	0.00463694202 	-0.001472291354 	-3.012494576e-06 	0.004019326811 	4.67532957e-06 	7.661954017e-06
0.4032493224 	0.003929451126 	-0.001150932151 	-2.841081944e-06 	0.003554427966 	2.348986495e-06 	6.775727605e-06
0.4071295106 	0.003457338921 	-0.0008837521288 	-2.432475648e-06 	0.003337712771 	-6.754553649e-07 	6.362608212e-06
0.4115792059 	0.003179881769 	-0.0006610417383 	-2.10987495e-06 	0.003337235691 	-3.375078406e-06 	6.361698764e-06
0.4166308648 	0.003021493325 	-0.0004639788102 	-1.708300039e-06 	0.003486084577 	-4.917349856e-06 	6.645446112e-06
0.4242899957 	0.002927368807 	-0.0002735526644 	-1.230160688e-06 	0.003715881464 	-5.130489354e-06 	7.083502846e-06
0.4325944199 	0.002868627149 	-9.56304642e-05 	-8.970520568e-07 	0.003955214652 	-4.72410803e-06 	7.539738422e-06
0.4415815424 	0.00281956049 	5.94122069e-05 	-6.877235342e-07 	0.00416156072 	-4.071052345e-06 	7.933091379e-06
0.4512802035 	0.002764079507 	0.0002046419307 	-5.460336057e-07 	0.004328131187 	-3.303529149e-06 	8.250620984e-06
0.4617756613 	0.002696498261 	0.0003459507759 	-4.99096934e-07 	0.004449622068 	-2.387782592e-06 	8.482216371e-06
0.4731719825 	0.002617491319 	0.0004869132927 	-3.685817988e-07 	0.00451108363 	-1.220919555e-06 	8.59937919e-06
0.485500853 	0.002534022799 	0.0006157087213 	-4.291002086e-08 	0.004495287516 	-2.194752582e-07 	8.569267406e-06
0.4988448325 	0.002457760617 	0.0007058821704 	1.81083551e-07 	0.004407079444 	8.565335567e-08 	8.401118305e-06
0.5132858996 	0.00239215252 	0.0007525078392 	1.94713829e-07 	0.004296180907 	5.306002691e-08 	8.18971487e-06
0.5289386969 	0.002334998514 	0.0007728937027 	9.50124202e-08 	0.004202044997 	1.546960071e-08 	8.010265663e-06
0.5418282751 	0.00229681787 	0.0007805730555 	-1.776507621e-07 	0.00414449663 	-2.127808537e-06 	7.90056248e-06
0.5458547894 	0.002284806528 	0.000782943285 	2.919294716e-08 	0.00412624777 	2.13668177e-09 	7.865775081e-06
0.5640944687 	0.002240203691 	0.000792663121 	1.402478553e-07 	0.004062832045 	6.478284952e-09 	7.744887084e-06
0.5838275065 	0.002201209441 	0.0008049677891 	2.313863413e-07 	0.004007817568 	8.570051377e-09 	7.640014201e-06
0.605107761 	0.002168041361 	0.0008210170615 	3.031940572e-07 	0.003958640093 	6.442072107e-09 	7.546268265e-06
0.6280406075 	0.002141742184 	0.0008422777658 	3.552106102e-07 	0.003913232288 	1.806622339e-09 	7.459708367e-06
0.6527238598 	0.002124445486 	0.0008706269629 	3.88046728e-07 	0.003869530247 	-2.03847229e-09 	7.37640013e-06
0.6792545965 	0.002119897342 	0.0009077581276 	4.003654648e-07 	0.003826939382 	5.588547355e-09 	7.295210104e-06
0.7058458787 	0.00213205242 	0.0009527979005 	3.946106915e-07 	0.003789366476 	2.931912011e-08 	7.223585703e-06
0.7307074168 	0.002162688132 	0.001003399007 	3.756350702e-07 	0.003762409985 	6.107055665e-08 	7.172199139e-06
0.7539388743 	0.002213974498 	0.001055802919 	3.014719947e-07 	0.003747360239 	6.657388571e-08 	7.14351014e-06
0.7756407309 	0.002289154078 	0.001103218523 	2.241683338e-07 	0.003742395541 	7.67491968e-08 	7.134046045e-06
0.7959110465 	0.002385229393 	0.001147440037 	1.909077672e-07 	0.003752195467 	1.123343269e-07 	7.152727429e-06
0.8148439719 	0.002496538358 	0.001191741789 	1.585423541e-07 	0.003781331898 	1.396888442e-07 	7.208269564e-06
0.8325271295 	0.002619650233 	0.001232726496 	1.281696312e-07 	0.003827650931 	1.535414158e-07 	7.296566515e-06
0.8490433661 	0.002750817528 	0.001268936309 	1.004426691e-07 	0.003886395371 	1.478050435e-07 	7.408549744e-06
0.8644696653 	0.002886139521 	0.001299876855 	7.577722666e-08 	0.003950992112 	1.283748747e-07 	7.531689086e-06
0.878878094 	0.003021348985 	0.001325487647 	5.512833544e-08 	0.004015543835 	1.015162286e-07 	7.654742612e-06
0.8923357983 	0.003152687659 	0.001346038642 	3.957282476e-08 	0.004074918307 	7.30598462e-08 	7.767926858e-06
0.9049053983 	0.003277424962 	0.001362216466 	2.984201028e-08 	0.004125252288 	4.815317997e-08 	7.863877416e-06
0.9166453775 	0.003394337983 	0.001375159683 	2.626365917e-08 	0.004164135734 	3.089130346e-08 	7.938000071e-06
0.9276103354 	0.003503673235 	0.001386662553 	2.88448979e-08 	0.004191659653 	2.462114008e-08 	7.990468309e-06
0.9378512652 	0.003608180438 	0.00139888138 	3.72086663e-08 	0.004208878258 	3.16091311e-08 	8.023291756e-06
0.9474158034 	0.003712850257 	0.001418028407 	5.147448105e-08 	0.004220191581 	5.374671974e-08 	8.044858095e-06
0.9563484579 	0.003815283492 	0.001436194686 	6.698499884e-08 	0.004232278838 	8.907268748e-08 	8.067899766e-06
0.9622608402 	0.003910440678 	0.001456237002 	8.236767284e-08 	0.004250761346 	1.305616251e-07 	8.103132564e-06
0.9674948231 	0.004006679295 	0.001486779684 	9.709167354e-08 	0.004281543859 	1.740077019e-07 	8.161812588e-06
0.9721281468 	0.004112060675 	0.0015215352 	1.103604094e-07 	0.004328463028 	2.200965504e-07 	8.251253566e-06
0.9762296655 	0.004225189582 	0.001560260419 	1.215124204e-07 	0.00439075034 	2.650191334e-07 	8.369990494e-06
0.9798603561 	0.004339630538 	0.001599618132 	1.296591805e-07 	0.004461957892 	3.041554741e-07 	8.50573188e-06
0.9830742178 	0.004439902129 	0.001633510321 	1.339345349e-07 	0.004527064141 	3.325595761e-07 	8.629842485e-06
0.9859190669 	0.00449493287 	0.001651605886 	1.334395117e-07 	0.004557568868 	3.45408771e-07 	8.687992973e-06
0.988437243 	0.004448758047 	0.001634082533 	1.270483096e-07 	0.00449122446 	3.376827521e-07 	8.561522092e-06
0.990666234 	0.004197808568 	0.001552770546 	1.133151171e-07 	0.00421537818 	3.038615369e-07 	8.035682414e-06
0.992639231 	0.003550205795 	0.001312114254 	8.844553636e-08 	0.00354980609 	2.398286755e-07 	6.766917025e-06
0.9939209151 	0.002510720493 	0.0008966884242 	5.585157193e-08 	0.002508589034 	1.591382013e-07 	4.782067924e-06
0.9952026562 	0.001254928926 	0.0004020297089 	2.341610317e-08 	0.0012552607 	7.659981598e-08 	2.392875775e-06
0.9964844543 	0.0003180825299 	7.342965191e-05 	4.271418238e-09 	0.0003181489975 	2.015822135e-08 	6.064804141e-07
0.9977663094 	2.593830259e-05 	2.219703763e-06 	1.641706396e-10 	2.589745665e-05 	2.003431584e-09 	4.936775021e-08
0.9990482216 	2.795925232e-07 	2.613330733e-09 	3.113281451e-13 	2.790537992e-07 	3.082290929e-11 	5.319541003e-10
