0.2472849305 	7.394938244e-07 	-1.100767237e-08 	1.557294945e-12 	7.241530983e-07 	5.353864988e-10 	1.380437073e-09
0.2487094669 	8.606304446e-05 	-1.029808409e-05 	9.046876276e-09 	7.296042761e-05 	-1.258675935e-09 	1.390828533e-07
0.2501340182 	0.001056555952 	-0.0002392797371 	-4.242325036e-10 	0.0007552611934 	7.299505191e-08 	1.439737749e-06
0.2515582136 	0.003090902409 	-0.0007954545497 	-9.019131828e-07 	0.002096365319 	1.766271406e-06 	3.996254953e-06
0.2529816857 	0.004539651737 	-0.001210039125 	-2.34338116e-06 	0.003051956786 	3.844463444e-06 	5.817877881e-06
0.2544040707 	0.004823504636 	-0.001287973189 	-2.950213056e-06 	0.003312258552 	2.83247892e-06 	6.314085394e-06
0.2565908305 	0.004533434604 	-0.001167762446 	-2.688360742e-06 	0.003321896666 	-2.432869889e-06 	6.33245832e-06
0.2590557457 	0.004072937518 	-0.0009430357778 	-1.902079302e-06 	0.003374605791 	-8.716409971e-06 	6.432936561e-06
0.2618311143 	0.003783561549 	-0.0007591536788 	-9.598415281e-07 	0.003595008407 	-1.207146647e-05 	6.853085204e-06
0.2649514479 	0.003608070541 	-0.0006204312621 	-2.02401373e-07 	0.003886808504 	-1.243514112e-05 	7.409337291e-06
0.2685402304 	0.003466276114 	-0.0005158549055 	2.233412473e-07 	0.004157603439 	-1.094284753e-05 	7.9255477e-06
0.2726074998 	0.003318179749 	-0.0004278547608 	2.872978389e-07 	0.004357881676 	-8.489078845e-06 	8.307333685e-06
0.2771758575 	0.003153614713 	-0.0003456910084 	1.439766491e-07 	0.004483911758 	-5.557446791e-06 	8.547582049e-06
0.2823040561 	0.0029766333 	-0.0002619516958 	3.259644531e-08 	0.00454020642 	-2.897249486e-06 	8.654895321e-06
0.28818069 	0.002795181525 	-0.000173452905 	6.877842044e-08 	0.004526779369 	-1.081770748e-06 	8.629299631e-06
0.2948278042 	0.002605717414 	-8.316676215e-05 	1.451413954e-07 	0.004421530849 	-2.41305376e-07 	8.428666699e-06
0.3039520189 	0.002437383739 	-1.470025463e-05 	2.839064923e-07 	0.00425628956 	-1.244491378e-06 	8.113670876e-06
0.3048289965 	0.002420343261 	-8.122952185e-06 	4.297424405e-09 	0.004239302509 	-2.976506026e-08 	8.081288835e-06
0.3153909723 	0.002271210294 	2.925976382e-05 	2.299298262e-07 	0.004046665111 	-9.678993724e-08 	7.714068413e-06
0.3267808322 	0.002170229511 	4.42095319e-05 	6.792878597e-07 	0.003905384399 	-1.006698964e-07 	7.444748109e-06
0.3390183242 	0.002084316452 	5.279212234e-05 	1.149007528e-06 	0.00378354416 	-6.128878835e-08 	7.212486751e-06
0.3522090375 	0.002017926426 	6.224723473e-05 	1.581028593e-06 	0.00369528035 	-1.614795699e-07 	7.044231398e-06
0.3664845753 	0.001943311981 	7.331630979e-05 	2.016823037e-06 	0.003592179162 	-1.239365515e-08 	6.847691878e-06
0.3818620373 	0.001884637477 	8.825813176e-05 	2.46404852e-06 	0.003518582218 	5.925761955e-08 	6.707395648e-06
0.3984348019 	0.001834801188 	0.0001053301041 	2.804834181e-06 	0.00346027764 	8.842149049e-08 	6.596250916e-06
0.4162929946 	0.001793041414 	0.0001259970035 	2.43673932e-06 	0.003418299848 	2.216878587e-07 	6.516229578e-06
0.4355739439 	0.001768377868 	0.000150592067 	2.056792152e-06 	0.003408067331 	4.07648689e-08 	6.496723556e-06
0.4563323823 	0.001740280389 	0.0001773938157 	1.679058519e-06 	0.003392178052 	1.24415556e-07 	6.466434174e-06
0.4786466123 	0.001728451474 	0.0002093671721 	1.309309539e-06 	0.003406885036 	-1.115950435e-09 	6.494469773e-06
0.5026835755 	0.001714540367 	0.0002440718468 	9.647572001e-07 	0.003417042776 	-9.026798376e-09 	6.51383325e-06
0.5284859607 	0.001708131869 	0.0002849084643 	6.64039594e-07 	0.003439127746 	-4.201166779e-08 	6.55593334e-06
0.5561749938 	0.001705536939 	0.0003351326018 	4.095692085e-07 	0.003461999601 	-5.066917428e-08 	6.599533453e-06
0.5858631148 	0.00170802214 	0.0003978723116 	2.131485744e-07 	0.003481733326 	-4.136194881e-08 	6.637151418e-06
0.6176648077 	0.001717772727 	0.0004762667663 	8.444306767e-08 	0.003491574297 	-2.315742012e-08 	6.655911043e-06
0.6494508416 	0.001736516863 	0.0005652987397 	2.844458541e-08 	0.003485121313 	-3.957250858e-09 	6.643609861e-06
0.6791106475 	0.001770731823 	0.0006532129676 	1.584900772e-08 	0.00345818266 	4.630179141e-09 	6.592257302e-06
0.7067905922 	0.001826507058 	0.000727998238 	2.478891176e-08 	0.003414212618 	1.574695175e-08 	6.508438181e-06
0.7326288344 	0.001902229732 	0.0007902784873 	4.584946157e-08 	0.00337149785 	3.794936331e-08 	6.427011962e-06
0.7567541468 	0.001993062806 	0.0008486493956 	7.117539578e-08 	0.003347956184 	7.042232472e-08 	6.382135004e-06
0.7792862258 	0.002097598334 	0.000908185594 	9.644350202e-08 	0.0033510169 	1.131164895e-07 	6.387969578e-06
0.8003336001 	0.002216694433 	0.000969625182 	1.187124952e-07 	0.003381220864 	1.650490808e-07 	6.445546729e-06
0.8199971472 	0.00235051797 	0.001031840614 	1.358455398e-07 	0.003436234499 	2.225954886e-07 	6.550418008e-06
0.8383693647 	0.002497544945 	0.001092837282 	1.457908095e-07 	0.003511756446 	2.793912509e-07 	6.694383829e-06
0.8555361083 	0.002654449498 	0.001150497989 	1.472460628e-07 	0.003601907599 	3.278650496e-07 	6.866236983e-06
0.8715768547 	0.002816549422 	0.001202927811 	1.399570477e-07 	0.003699695921 	3.609471619e-07 	7.052648703e-06
0.8865654396 	0.002978426089 	0.001248673001 	1.248384002e-07 	0.00379775522 	3.735053683e-07 	7.239576981e-06
0.9005706783 	0.003134651531 	0.001286799775 	1.038906097e-07 	0.003888874613 	3.633466421e-07 	7.413275868e-06
0.913656745 	0.003280143733 	0.001317010521 	8.005302681e-08 	0.00396700548 	3.319328947e-07 	7.562215017e-06
0.9258835601 	0.003411104006 	0.001339393211 	5.690508912e-08 	0.004026249943 	2.843508413e-07 	7.67515143e-06
0.9373071183 	0.003524741581 	0.001356870645 	3.921192788e-08 	0.004062627505 	2.295209348e-07 	7.744497173e-06
0.9479797699 	0.003611927918 	0.001363251575 	3.028433213e-08 	0.004073334446 	1.850331832e-07 	7.764907579e-06
0.9550458569 	0.003670792337 	0.001363508362 	3.08571991e-08 	0.004064982488 	1.589315624e-07 	7.748986425e-06
0.9613025204 	0.003713320185 	0.001366418302 	4.169698917e-08 	0.004047232646 	1.560276406e-07 	7.715150293e-06
0.9668422226 	0.003745814359 	0.00136801014 	6.009083867e-08 	0.004022450322 	1.747720733e-07 	7.667908295e-06
0.9717469214 	0.003768669051 	0.00136932587 	8.591102752e-08 	0.0039919103 	2.161058036e-07 	7.609690527e-06
0.9760892456 	0.003780075529 	0.001369479001 	1.182417134e-07 	0.003954360325 	2.793520764e-07 	7.538109837e-06
0.9799335525 	0.003773679968 	0.001365832065 	1.550973012e-07 	0.003904503971 	3.612020884e-07 	7.44306977e-06
0.9833368611 	0.003733772413 	0.001352937418 	1.925700585e-07 	0.003830091974 	4.523158154e-07 	7.301219821e-06
0.9863496834 	0.003628168649 	0.001318200301 	2.229579237e-07 	0.003695051704 	5.299450222e-07 	7.043795535e-06
0.9890167622 	0.003389383695 	0.001244606848 	2.298031296e-07 	0.00342460917 	5.49868245e-07 	6.528256899e-06
0.9913777266 	0.002871449763 	0.001057112646 	1.83565421e-07 	0.002882223955 	4.491248334e-07 	5.49431993e-06
0.9929115363 	0.002055730874 	0.0007349376841 	8.946947312e-08 	0.00205849156 	2.461800815e-07 	3.924057042e-06
0.9944454907 	0.001036978332 	0.0003354191503 	1.909637924e-08 	0.001038672562 	8.206932212e-08 	1.979998587e-06
0.9959795897 	0.0002596300947 	6.122766106e-05 	1.005723597e-09 	0.0002599161488 	1.931240636e-08 	4.954724195e-07
0.9975138333 	1.961504387e-05 	1.688659949e-06 	3.070006716e-10 	1.958849779e-05 	4.140332889e-09 	3.734112113e-08
0.9990482216 	1.7721205e-07 	1.550628118e-09 	1.016735411e-12 	1.768714923e-07 	9.389101034e-11 	3.371662232e-10
0.9990482216 	1.7721205e-07 	1.550628118e-09 	1.016735411e-12 	1.768714923e-07 	9.389101034e-11 	3.371662232e-10
