0.4327753378 	5.310690611e-07 	-4.715485423e-09 	9.49676112e-12 	5.320527976e-07 	-5.26277867e-10 	1.014240509e-09
0.4327753378 	5.310690611e-07 	-4.715485423e-09 	9.49676112e-12 	5.320527976e-07 	-5.26277867e-10 	1.014240509e-09
0.4338772721 	4.505411978e-05 	-3.682503888e-06 	4.446328776e-09 	4.654351327e-05 	-2.45251537e-08 	8.872487239e-08
0.4349792558 	0.0004995295014 	-0.0001149802222 	8.250797466e-08 	0.0005480068777 	-1.180256165e-07 	1.04465342e-06
0.4360812236 	0.001880703493 	-0.0006186177111 	2.703720268e-07 	0.002137946776 	2.380191835e-08 	4.075520767e-06
0.4371831111 	0.003713527654 	-0.001376154758 	3.947304403e-07 	0.004271099074 	6.011854757e-07 	8.141901925e-06
0.438284854 	0.005295907616 	-0.002030410177 	3.800925658e-07 	0.006099394359 	1.335542692e-06 	1.162714089e-05
0.439980521 	0.006433581866 	-0.002457387221 	2.77388124e-07 	0.007390890858 	1.964641321e-06 	1.408909217e-05
0.4418954567 	0.007075728003 	-0.002668917653 	1.209888951e-07 	0.008086594983 	2.392017694e-06 	1.541529759e-05
0.4440574903 	0.007413427892 	-0.002781819004 	-2.548218598e-08 	0.008412170407 	2.608093974e-06 	1.603593484e-05
0.4465121601 	0.007566035206 	-0.002825092992 	-1.36017993e-07 	0.008514086536 	2.621861023e-06 	1.623021531e-05
0.4492868824 	0.007598347055 	-0.002822054138 	-2.058746298e-07 	0.00847692961 	2.470125409e-06 	1.615938388e-05
0.4524193417 	0.007551284489 	-0.002787401632 	-2.464842717e-07 	0.00834355263 	2.196342406e-06 	1.590513028e-05
0.4559554006 	0.00744913897 	-0.002729311492 	-2.612987278e-07 	0.00814108795 	1.837567294e-06 	1.551917633e-05
0.4599707967 	0.007306607926 	-0.002652416749 	-2.565798986e-07 	0.007887255929 	1.429693062e-06 	1.503530195e-05
0.464503981 	0.007133577027 	-0.002558161196 	-2.412651679e-07 	0.007593288627 	1.007232902e-06 	1.447491857e-05
0.4696303012 	0.006917273449 	-0.002449662032 	-2.214305776e-07 	0.007237521573 	5.769455233e-07 	1.379672768e-05
0.477393966 	0.006641867542 	-0.002307228682 	-1.988611282e-07 	0.006797721896 	1.392823351e-07 	1.295834726e-05
0.4857273663 	0.006331402462 	-0.002139395342 	-1.897515156e-07 	0.006316958522 	-2.16527225e-07 	1.204187865e-05
0.494665021 	0.006010030544 	-0.00197278887 	-1.95747006e-07 	0.005833397905 	-4.622438554e-07 	1.112007772e-05
0.5042536707 	0.005678723655 	-0.001802602082 	-2.148887559e-07 	0.005347885901 	-6.162107003e-07 	1.01945569e-05
0.5145418952 	0.005338636116 	-0.001628484616 	-2.441000344e-07 	0.004862797742 	-6.986570585e-07 	9.269844041e-06
0.5255804116 	0.004994050128 	-0.001449875439 	-2.808115313e-07 	0.004380702096 	-7.310391182e-07 	8.350835748e-06
0.5374224194 	0.004651827573 	-0.001266372247 	-3.215601521e-07 	0.003907578414 	-7.35662144e-07 	7.448930512e-06
0.5501239917 	0.004322143016 	-0.001077469041 	-3.627319232e-07 	0.003452315927 	-7.310125446e-07 	6.581073678e-06
0.5637445137 	0.004018466536 	-0.0008820352016 	-4.006354751e-07 	0.003026612119 	-7.261950084e-07 	5.769563903e-06
0.5783471685 	0.003757278144 	-0.0006779332519 	-4.339778976e-07 	0.002643105854 	-7.225432472e-07 	5.038494371e-06
0.5940000683 	0.003557170159 	-0.0004604777057 	-4.633915869e-07 	0.002314541898 	-7.164410849e-07 	4.412160151e-06
0.6107820558 	0.003436055955 	-0.0002227010583 	-4.854516833e-07 	0.002054395903 	-7.166170881e-07 	3.916249581e-06
0.6287644862 	0.003404631755 	3.678441917e-05 	-4.87116865e-07 	0.0018782581 	-7.66786471e-07 	3.580481974e-06
0.6480354667 	0.003462202913 	0.0003063798521 	-4.541593963e-07 	0.001806745318 	-9.420945113e-07 	3.444158735e-06
0.6686833505 	0.003604367641 	0.0005686945748 	-3.902126193e-07 	0.001853206071 	-1.159389992e-06 	3.532725844e-06
0.6908046552 	0.003823775601 	0.0008123358924 	-4.949019162e-07 	0.002021586856 	-9.564371481e-07 	3.853706418e-06
0.7145040182 	0.004104088187 	0.001022979992 	-5.931217468e-07 	0.002317081603 	-6.923588215e-07 	4.417001535e-06
0.7382093303 	0.004445043362 	0.001218867565 	-5.277360042e-07 	0.002685987984 	-7.760965621e-07 	5.12023963e-06
0.7603476902 	0.004832057338 	0.001425300412 	-5.1357052e-07 	0.003062966465 	-8.834634917e-07 	5.83886539e-06
0.7810231972 	0.005216070424 	0.001617115845 	-3.465235925e-07 	0.003459149444 	-1.112644991e-06 	6.594100262e-06
0.8003330468 	0.00557566335 	0.001777313106 	-1.937858584e-07 	0.003882772626 	-1.234064642e-06 	7.401643786e-06
0.8183678884 	0.005918363815 	0.001917038794 	-1.886125651e-07 	0.00430975741 	-1.124473854e-06 	8.215595458e-06
0.8352122747 	0.006246708016 	0.002044384525 	-1.490761605e-07 	0.004724342223 	-1.034509451e-06 	9.00590934e-06
0.8509448023 	0.006557081561 	0.002161080771 	-1.291421488e-07 	0.005123409932 	-9.592682648e-07 	9.766643309e-06
0.8656389188 	0.006848151758 	0.002269328502 	-1.114941821e-07 	0.005504858083 	-8.864868385e-07 	1.04937895e-05
0.8793630728 	0.007119451037 	0.00237020187 	-9.279812902e-08 	0.005867610289 	-8.210879746e-07 	1.118529603e-05
0.8921811598 	0.007371064497 	0.002464507735 	-6.9775133e-08 	0.006211381916 	-7.572708779e-07 	1.18406203e-05
0.9041528421 	0.007603445407 	0.002552855636 	-4.15783466e-08 	0.00653628287 	-6.913007604e-07 	1.245997182e-05
0.9153338379 	0.007817133113 	0.0026357102 	-8.401994122e-09 	0.006842667309 	-6.195644326e-07 	1.304402571e-05
0.9257761958 	0.008012548342 	0.002713244955 	2.836203893e-08 	0.007130627591 	-5.389363472e-07 	1.359295804e-05
0.9355285441 	0.008189061491 	0.002785487688 	6.599197408e-08 	0.007400689556 	-4.479836227e-07 	1.410777121e-05
0.9446363202 	0.00834548711 	0.002851215086 	9.999050862e-08 	0.007650265555 	-3.48397626e-07 	1.458353243e-05
0.9531419822 	0.008478422288 	0.002913990661 	1.224922251e-07 	0.007874679841 	-2.488971269e-07 	1.501132843e-05
0.9610852055 	0.008567662758 	0.002952814617 	1.276962419e-07 	0.00805256898 	-1.757965837e-07 	1.535043457e-05
0.9663424224 	0.008608878604 	0.002969820845 	1.145658116e-07 	0.008168481821 	-1.394482291e-07 	1.557139666e-05
0.9709962279 	0.008614673072 	0.002981007034 	7.889753275e-08 	0.008235936632 	-1.498780751e-07 	1.569998428e-05
0.9751158091 	0.008580866618 	0.00297581314 	2.397442082e-08 	0.008260480197 	-2.071884205e-07 	1.574677114e-05
0.9787624354 	0.008498812342 	0.002953835093 	-4.950201021e-08 	0.008232978917 	-3.144309377e-07 	1.569434605e-05
0.9819903612 	0.008355493732 	0.002910945666 	-1.386829491e-07 	0.008139934982 	-4.690258453e-07 	1.551697845e-05
0.9848476266 	0.008130245943 	0.002840756966 	-2.370438388e-07 	0.007961336794 	-6.610444705e-07 	1.517652067e-05
0.9873767673 	0.007787832233 	0.002732575247 	-3.355405259e-07 	0.007666015197 	-8.696694399e-07 	1.461355562e-05
0.9896154434 	0.007269161513 	0.002564703089 	-4.200240181e-07 	0.007186576934 	-1.053683855e-06 	1.369961304e-05
0.9915969973 	0.006466247326 	0.002309530038 	-4.632359783e-07 	0.006401973734 	-1.14210315e-06 	1.220394127e-05
0.9933509477 	0.005203893139 	0.001864353718 	-4.120492684e-07 	0.005154440791 	-1.025559093e-06 	9.825796751e-06
0.9944903227 	0.003546685181 	0.00122535174 	-2.755237986e-07 	0.003522255738 	-7.236156788e-07 	6.714398397e-06
0.9956297375 	0.00172972821 	0.0005291290733 	-1.270136708e-07 	0.001723892964 	-3.767679801e-07 	3.286219122e-06
0.9967691923 	0.0004358200016 	9.240452589e-05 	-2.991897728e-08 	0.0004351436497 	-1.172408306e-07 	8.295047383e-07
0.997908687 	3.717443573e-05 	2.76046292e-06 	-1.64574922e-09 	3.70998949e-05 	-1.502812204e-08 	7.072271107e-08
0.9990482216 	4.53312119e-07 	3.569900658e-09 	-4.086485777e-12 	4.524311927e-07 	-3.194811778e-10 	8.624596001e-10
