0.2638980281 	8.160692091e-08 	-8.008812743e-11 	2.18993232e-12 	8.156902033e-08 	-5.062693144e-10 	1.554932237e-10
0.2638980281 	8.160692091e-08 	-8.008812743e-11 	2.18993232e-12 	8.156902033e-08 	-5.062693144e-10 	1.554932237e-10
0.2654533431 	9.266252504e-06 	-1.876774273e-07 	3.022943154e-09 	9.534372864e-06 	-5.276705392e-08 	1.817516462e-08
0.2670087167 	0.000118020952 	-1.198938173e-05 	1.381878783e-07 	0.0001363897294 	-7.250481723e-07 	2.599967318e-07
0.2685638061 	0.0005314660607 	-0.0001168369312 	9.280421459e-07 	0.0007116876876 	-3.119317564e-06 	1.356674536e-06
0.2701182719 	0.001286266185 	-0.0003923247364 	2.072354141e-06 	0.001879321342 	-5.582330611e-06 	3.582508809e-06
0.2716717782 	0.002243911287 	-0.000794230479 	2.565112741e-06 	0.003395864862 	-5.484929301e-06 	6.473462259e-06
0.2740607069 	0.003242650418 	-0.00120545584 	2.181075228e-06 	0.004894894296 	-2.795337834e-06 	9.331028993e-06
0.2767546051 	0.004113301672 	-0.001564813229 	1.218579705e-06 	0.006115899097 	1.517444303e-06 	1.16586035e-05
0.2797895793 	0.004813741666 	-0.001880772542 	-8.201885248e-08 	0.007035000458 	6.504578643e-06 	1.341066615e-05
0.2832304115 	0.005366030257 	-0.002145032763 	-1.684682409e-06 	0.007690008384 	1.177658564e-05 	1.465929331e-05
0.287111948 	0.005786632136 	-0.002356303154 	-3.459646943e-06 	0.008122981908 	1.701962491e-05 	1.548466118e-05
0.2914829797 	0.006087823436 	-0.002521212461 	-5.297578567e-06 	0.008363109827 	2.195913664e-05 	1.594241174e-05
0.2964036899 	0.006277486533 	-0.002636763622 	-7.086955037e-06 	0.008423518368 	2.626699445e-05 	1.605756721e-05
0.3019811527 	0.006363612278 	-0.002702986858 	-8.687461009e-06 	0.0083208936 	2.959705802e-05 	1.586193587e-05
0.3082566829 	0.006358716235 	-0.00272204761 	-9.969677794e-06 	0.008077028118 	3.162646251e-05 	1.539706049e-05
0.3153299793 	0.006270014916 	-0.002697951146 	-1.071388028e-05 	0.007689815656 	3.194915032e-05 	1.465892591e-05
0.3259983069 	0.00610809206 	-0.002621809828 	-9.886466045e-06 	0.007154342728 	2.79486487e-05 	1.363816569e-05
0.3373926531 	0.005920659013 	-0.002518382387 	-8.284108033e-06 	0.006577226273 	2.250289892e-05 	1.253802132e-05
0.3495488673 	0.005745264202 	-0.002422660426 	-6.704223541e-06 	0.00604767076 	1.795172516e-05 	1.152854133e-05
0.3625213994 	0.005581317672 	-0.002337189809 	-5.488165081e-06 	0.005566664495 	1.484053405e-05 	1.06116097e-05
0.3763660986 	0.005413039321 	-0.002257500654 	-4.711148669e-06 	0.005114769849 	1.29595863e-05 	9.750172908e-06
0.391140701 	0.005226804647 	-0.002174437894 	-4.242661583e-06 	0.004669154577 	1.167566068e-05 	8.900706348e-06
0.4069054432 	0.005019586372 	-0.002079197681 	-3.884723788e-06 	0.004217902509 	1.035337659e-05 	8.040494488e-06
0.423723814 	0.004795386659 	-0.001954176724 	-3.488766168e-06 	0.003775270948 	8.725278879e-06 	7.19671571e-06
0.4416634491 	0.004554859701 	-0.001792645161 	-3.171243577e-06 	0.003367650149 	6.917857318e-06 	6.419677173e-06
0.4607971748 	0.004302300753 	-0.001610326852 	-2.892362678e-06 	0.002997427274 	5.510639078e-06 	5.713929475e-06
0.4812051392 	0.00405135009 	-0.001416925947 	-2.786804272e-06 	0.002644905101 	4.905335007e-06 	5.041924236e-06
0.5029838614 	0.003824694644 	-0.001209983688 	-3.09121663e-06 	0.002301766529 	4.88219203e-06 	4.387806747e-06
0.5262183068 	0.003660744019 	-0.0009975648965 	-3.472715144e-06 	0.00198434607 	4.894887281e-06 	3.782715131e-06
0.5510200772 	0.003597922331 	-0.0007827991952 	-3.359860679e-06 	0.001724197761 	4.441918582e-06 	3.286800149e-06
0.5775021918 	0.003637813754 	-0.0005340468841 	-2.763714276e-06 	0.001597349817 	3.194995039e-06 	3.044992711e-06
0.6057914839 	0.003782931858 	-0.0002454098421 	-2.087371242e-06 	0.001627217198 	1.725821577e-06 	3.101928242e-06
0.636028988 	0.0040547066 	6.036783103e-05 	-1.544846682e-06 	0.00176368859 	8.477685585e-07 	3.362080645e-06
0.6662252001 	0.00442303999 	0.0003727233389 	-1.282431934e-06 	0.001993229235 	4.285601834e-07 	3.79964891e-06
0.6943993079 	0.004804828723 	0.0006528127715 	-1.159574471e-06 	0.002330872542 	1.663567101e-07 	4.443290897e-06
0.7207016499 	0.005160322827 	0.0008845053277 	-1.027934783e-06 	0.002756705959 	1.010775569e-09 	5.255047745e-06
0.7452665078 	0.00550793182 	0.001096032637 	-9.10067608e-07 	0.003206667547 	-8.732873087e-08 	6.112799592e-06
0.768215059 	0.005852987694 	0.001303568129 	-8.398065536e-07 	0.003655872638 	-1.305041786e-07 	6.969109345e-06
0.7896577441 	0.00618913896 	0.001504477386 	-7.905448173e-07 	0.00410383314 	-1.573495275e-07 	7.823046566e-06
0.8096954208 	0.006513418298 	0.001695531521 	-7.324666178e-07 	0.004545421194 	-1.775126351e-07 	8.66483613e-06
0.8284213407 	0.00682421556 	0.001875661472 	-6.569824391e-07 	0.004975472216 	-1.826361983e-07 	9.484632905e-06
0.8459217018 	0.007120299579 	0.002044963409 	-5.650620054e-07 	0.005391471763 	-1.687600052e-07 	1.027764366e-05
0.8622766275 	0.007400935243 	0.002203734682 	-4.601004656e-07 	0.005792464426 	-1.362037899e-07 	1.104204713e-05
0.8775607399 	0.007665611296 	0.002352119642 	-3.462587037e-07 	0.006178031686 	-8.487273853e-08 	1.177704549e-05
0.8918436525 	0.007913328019 	0.002489840774 	-2.288666081e-07 	0.006547581795 	-1.471403879e-08 	1.248151071e-05
0.9051903915 	0.008141818913 	0.002615818994 	-1.154000087e-07 	0.0068992125 	7.260066734e-08 	1.315181656e-05
0.9176617495 	0.008346081718 	0.002728087875 	-1.682640391e-08 	0.007229415997 	1.698057145e-07 	1.37812762e-05
0.929314591 	0.008517764536 	0.00282255913 	5.169720654e-08 	0.007529413331 	2.601456262e-07 	1.43531545e-05
0.9402021232 	0.00864308426 	0.002897664635 	6.723946751e-08 	0.007785124972 	3.118631171e-07 	1.484061196e-05
0.950374142 	0.008692879715 	0.002932856398 	2.516831998e-08 	0.007963067169 	2.732495938e-07 	1.517981924e-05
0.957108839 	0.008668140328 	0.002932116651 	-5.705321604e-08 	0.008048316304 	1.557298793e-07 	1.534232779e-05
0.963072106 	0.00858654526 	0.002912570237 	-1.783658212e-07 	0.00806006703 	-4.637497261e-08 	1.536472794e-05
0.9683520561 	0.008442501051 	0.002867421701 	-3.23053205e-07 	0.008004218529 	-3.264832777e-07 	1.525826517e-05
0.9730267922 	0.008232516328 	0.002798527407 	-4.787513827e-07 	0.007876313698 	-6.622967895e-07 	1.501444302e-05
0.9771655318 	0.007951811812 	0.002705589695 	-6.284467681e-07 	0.007670415063 	-1.020433375e-06 	1.462194299e-05
0.98082961 	0.007591807634 	0.00258715392 	-7.538806052e-07 	0.007377524385 	-1.357298895e-06 	1.406361195e-05
0.9840733699 	0.007134812486 	0.002439495353 	-8.322431431e-07 	0.006983529798 	-1.612619678e-06 	1.331254877e-05
0.9869449531 	0.006548261326 	0.002250825171 	-8.35539876e-07 	0.006449826428 	-1.696548467e-06 	1.229516181e-05
0.9894870034 	0.005768494074 	0.002010808 	-7.147005457e-07 	0.005699904232 	-1.475276279e-06 	1.086560167e-05
0.9917372914 	0.004676940377 	0.001643765301 	-4.115340901e-07 	0.004625744048 	-8.375743711e-07 	8.817953814e-06
0.9931992005 	0.003287881627 	0.001129802634 	3.028066238e-08 	0.003259693319 	4.992217291e-08 	6.213881451e-06
0.9946612482 	0.001660181676 	0.0005160168125 	2.163648257e-07 	0.00165259689 	4.503246242e-07 	3.150308988e-06
0.9961234342 	0.0004219578737 	9.357362596e-05 	8.418882544e-08 	0.000421341384 	2.050322092e-07 	8.031937837e-07
0.9975857587 	3.271114213e-05 	2.452294746e-06 	1.796236437e-09 	3.264874248e-05 	6.395762378e-09 	6.223757742e-08
0.9990482216 	3.129811208e-07 	2.143808029e-09 	-1.080425638e-12 	3.123709276e-07 	-2.082170239e-10 	5.95465807e-10
