0 	0.5068056304 	-2.265711548e-14 	2.92522029e-22
0.0006324872147 	0.5068060502 	-7.17145583e-05 	4.439065029e-08
0.001264972374 	0.5068119304 	-0.0001347849461 	8.223658943e-08
0.001897455474 	0.5068262312 	-0.000197921189 	1.190339434e-07
0.002529936509 	0.5068469996 	-0.0002627376613 	1.55734881e-07
0.003162415477 	0.5068739756 	-0.0003278576239 	1.914875198e-07
0.003794892374 	0.5069070799 	-0.00039302383 	2.261355564e-07
0.004427367199 	0.5069462799 	-0.0004582195615 	2.596687454e-07
0.005059839951 	0.5069915601 	-0.0005234396097 	2.920841788e-07
0.005692310628 	0.5070429128 	-0.0005886721585 	3.233758825e-07
0.006324779232 	0.5071003345 	-0.0006539080721 	3.535401586e-07
0.006957245763 	0.5071638237 	-0.0007191415644 	3.82575821e-07
0.007589710222 	0.5072333806 	-0.0007843687254 	4.104832717e-07
0.008222172612 	0.5073090062 	-0.0008495866137 	4.372639565e-07
0.008854632936 	0.507390702 	-0.0009147906363 	4.629190165e-07
0.009487091198 	0.5074914559 	-0.0009891992637 	4.920381537e-07
0.01046808653 	0.5076291334 	-0.00108253377 	5.240077829e-07
0.01148695276 	0.5077987232 	-0.001187523474 	5.584054194e-07
0.01254515172 	0.5079915611 	-0.001296502009 	5.910933078e-07
0.01364420163 	0.5082098552 	-0.001409615161 	6.217963317e-07
0.01478567932 	0.5084559985 	-0.001527008145 	6.502173827e-07
0.01597122248 	0.5087325837 	-0.001648830423 	6.7603972e-07
0.017202532 	0.5090424174 	-0.001775235562 	6.98927167e-07
0.01848137446 	0.5093885364 	-0.00190638082 	7.185246153e-07
0.01980958461 	0.5097747141 	-0.002042593517 	7.345299655e-07
0.02119542707 	0.5102053218 	-0.002184266657 	7.463358442e-07
0.02263720448 	0.5106841429 	-0.002331474956 	7.534380613e-07
0.02413463968 	0.5112147796 	-0.002484176867 	7.552976414e-07
0.02568988094 	0.5118015653 	-0.002642487666 	7.513200099e-07
0.02730515946 	0.5124493682 	-0.002806582921 	7.408908325e-07
0.02898279254 	0.513163433 	-0.00297663986 	7.233503183e-07
0.03072518688 	0.5139494055 	-0.003152836859 	6.979907122e-07
0.03253484206 	0.5148133597 	-0.003335352821 	6.640536767e-07
0.03441435412 	0.5157618254 	-0.003524366446 	6.207276067e-07
0.03636641927 	0.5168018177 	-0.003720055414 	5.671448966e-07
0.03839383774 	0.5179410074 	-0.003922619685 	5.023828474e-07
0.04050047369 	0.5191894416 	-0.004132550006 	4.254317665e-07
0.04270009338 	0.520557879 	-0.00435028423 	3.345833734e-07
0.04498462369 	0.5220542075 	-0.004575682478 	2.293402421e-07
0.04735734192 	0.5236867983 	-0.004808627684 	1.084875324e-07
0.04931810952 	0.5251026581 	-0.005000069629 	1.091425159e-07
0.04982165179 	0.5254654731 	-0.005049311511 	3.126232326e-08
0.0523810884 	0.5273989557 	-0.005298023555 	1.980262831e-07
0.05503932325 	0.5295030713 	-0.005554713349 	3.857460426e-07
0.05780016952 	0.531791143 	-0.005819511633 	5.960011785e-07
0.06066867474 	0.5342806944 	-0.006092870152 	8.306015422e-07
0.06366252918 	0.5373392746 	-0.006410441392 	1.098651317e-06
0.06826178029 	0.5413974262 	-0.006805458724 	1.527447011e-06
0.07296526226 	0.5461766459 	-0.007237983067 	2.010905254e-06
0.07777533715 	0.551358536 	-0.0076734463 	2.543978905e-06
0.0827046656 	0.5569670494 	-0.008111701092 	3.128623838e-06
0.08775946093 	0.5630216953 	-0.00855201964 	3.765526331e-06
0.09292882181 	0.5695336692 	-0.008992982045 	4.453351152e-06
0.09821534485 	0.5765210861 	-0.009433598563 	5.192103969e-06
0.1036346616 	0.5840111171 	-0.009873258431 	5.983130807e-06
0.1091877003 	0.5920231401 	-0.01031065972 	6.825015619e-06
0.114866609 	0.6005684752 	-0.01074395997 	7.417423997e-06
0.1206742409 	0.6096718476 	-0.01117188212 	7.075916429e-06
0.1266367979 	0.6193642792 	-0.01159317758 	6.677455503e-06
0.1327346979 	0.6296574104 	-0.01200552662 	6.2255316e-06
0.1389708306 	0.6405696536 	-0.01240679173 	5.720544556e-06
0.1453646177 	0.6521329427 	-0.01279510325 	5.161550349e-06
0.1519098968 	0.6643643836 	-0.01316783698 	4.552269228e-06
0.1586035627 	0.6772812065 	-0.01352222893 	3.895641953e-06
0.1654637981 	0.6909120805 	-0.01385562573 	3.192618835e-06
0.1724867579 	0.7052724284 	-0.01416483456 	2.448869009e-06
0.1796689462 	0.7203771546 	-0.0144465357 	1.669530603e-06
0.1870316149 	0.7362497155 	-0.01469742585 	8.577141598e-07
0.1945646115 	0.7528948589 	-0.01491380334 	2.228030902e-08
0.1947682095 	0.7533548458 	-0.01491850531 	4.98394044e-07
0.2022720323 	0.7703138568 	-0.01509343302 	8.923307123e-07
0.2101705242 	0.78851743 	-0.01523138218 	1.820632772e-06
0.2182481181 	0.8074905571 	-0.01532403845 	2.7502464e-06
0.2265216312 	0.8272148571 	-0.01536820126 	3.674516015e-06
0.2349887439 	0.8476526307 	-0.01536116777 	4.583142291e-06
0.243653446 	0.8687481751 	-0.01530105537 	5.469490405e-06
0.252526549 	0.8904256866 	-0.01518711956 	6.32750122e-06
0.2616022231 	0.9125783843 	-0.01502017115 	7.153405647e-06
0.270898576 	0.9350751023 	-0.01480292694 	7.948334611e-06
0.2804057543 	0.9577475525 	-0.01454040975 	8.714934332e-06
0.2901428285 	0.9804063058 	-0.01423996381 	9.462129832e-06
0.3001013626 	1.002838771 	-0.01391109718 	1.019798451e-05
0.3102984489 	1.024834691 	-0.01356462467 	1.093234638e-05
0.3207277339 	1.046198952 	-0.01321148168 	1.033449382e-05
0.3314058959 	1.066780378 	-0.0128610924 	9.594125952e-06
0.3423278755 	1.086476654 	-0.01252014936 	8.877470416e-06
0.3535071185 	1.10524507 	-0.01219182043 	8.174830698e-06
0.3649435699 	1.123084463 	-0.01187602671 	7.480989723e-06
0.3766457282 	1.140019053 	-0.0115702425 	6.796165653e-06
0.3886191613 	1.156073356 	-0.01127062293 	6.122875255e-06
0.4008673302 	1.171252145 	-0.01097296446 	5.466983498e-06
0.4134009696 	1.185526992 	-0.01067330554 	4.833428859e-06
0.4262218659 	1.198820878 	-0.01036832065 	4.226963427e-06
0.4393374153 	1.211006751 	-0.01005535561 	3.65181345e-06
0.4527558672 	1.221908497 	-0.009732453463 	3.110254216e-06
0.4664814098 	1.231315577 	-0.009398470177 	2.6044393e-06
0.4805211978 	1.239022505 	-0.009053119407 	2.136159594e-06
0.4948837842 	1.244857907 	-0.00869870357 	1.706493015e-06
0.5092486917 	1.248749054 	-0.008342885659 	1.323981795e-06
0.5232971457 	1.250849556 	-0.007993300202 	9.931392465e-07
0.5370364197 	1.251458564 	-0.0076521691 	7.085672031e-07
0.5504728302 	1.250860188 	-0.007319244311 	4.645337774e-07
0.5636123631 	1.24927696 	-0.006993779377 	2.562642921e-07
0.5764618893 	1.246870187 	-0.006674745348 	7.94135891e-08
0.5830351996 	1.245238494 	-0.006510668053 	9.427637334e-06
0.589027499 	1.243751199 	-0.006361175159 	7.595434385e-08
0.6013150258 	1.239994296 	-0.006052028782 	2.119298668e-07
0.6133310506 	1.235648024 	-0.005746298129 	3.255331405e-07
0.62508101 	1.230745257 	-0.005443338346 	4.198591792e-07
0.6365709012 	1.225312658 	-0.005142826053 	4.970928262e-07
0.6478064476 	1.219377439 	-0.004844830866 	5.597013953e-07
0.6587930674 	1.212968708 	-0.004549737044 	6.092761585e-07
0.6695364676 	1.206116826 	-0.004258172316 	6.476042672e-07
0.6800417297 	1.198853327 	-0.003970980089 	6.759987546e-07
0.6903143639 	1.191210439 	-0.003689153318 	6.957672197e-07
0.7003592593 	1.18322057 	-0.003413769021 	7.080132238e-07
0.7101816389 	1.174915681 	-0.003145955973 	7.133665181e-07
0.7197862503 	1.166325602 	-0.002886962278 	7.136638347e-07
0.7291780529 	1.157439465 	-0.002636364711 	7.103071017e-07
0.7383616323 	1.148189582 	-0.002391281872 	7.043739113e-07
0.7473416782 	1.138518811 	-0.002148927708 	6.963467279e-07
0.7561226421 	1.128412044 	-0.001908272477 	6.85462365e-07
0.7647089568 	1.117876808 	-0.001669645817 	6.725159582e-07
0.7731049278 	1.106936868 	-0.001433855 	6.577057281e-07
0.781314759 	1.095627272 	-0.001201743675 	6.413905044e-07
0.7893425971 	1.083988018 	-0.0009740099583 	6.237762881e-07
0.7971924499 	1.072057658 	-0.0007511442288 	6.05147178e-07
0.8048682771 	1.059868443 	-0.0005334536989 	5.857261646e-07
0.8123739293 	1.04744401 	-0.0003211276662 	5.655411655e-07
0.8197131732 	1.034799595 	-0.0001143336915 	5.447208003e-07
0.826889709 	1.021944023 	8.669616569e-05 	5.232744093e-07
0.833907133 	1.008882493 	0.0002816185649 	5.011989377e-07
0.8407689739 	0.9956192096 	0.0004699502994 	4.785446623e-07
0.8474786847 	0.9821593112 	0.0006510690165 	4.552741212e-07
0.8540396335 	0.9685098576 	0.0008242358435 	4.313951254e-07
0.860455119 	0.9546798323 	0.0009886273925 	4.069685883e-07
0.8667283681 	0.9406794188 	0.00114338716 	3.820375934e-07
0.8728625319 	0.9265191518 	0.001287675028 	3.56696138e-07
0.8788606941 	0.9122099493 	0.001420677938 	3.310646708e-07
0.8847258711 	0.8977654131 	0.001541549057 	3.052045737e-07
0.8904610103 	0.8832075919 	0.001649239303 	2.790660593e-07
0.8960689947 	0.8685759667 	0.00174221402 	2.524050085e-07
0.9015526436 	0.8539360732 	0.00181814598 	2.246535842e-07
0.9069147137 	0.8393789615 	0.00187391488 	1.951416491e-07
0.9121579003 	0.824998177 	0.001906659946 	1.643418696e-07
0.9172848392 	0.8108329159 	0.001916512132 	1.358649022e-07
0.9222981079 	0.7968074304 	0.001905887857 	1.114622116e-07
0.9272002264 	0.7827901017 	0.001877957053 	9.116915312e-08
0.931993659 	0.7698597915 	0.001839187025 	7.505272493e-08
0.9351138892 	0.7593300666 	0.001798778412 	6.227789393e-08
0.9381181259 	0.7501008267 	0.001757320825 	5.160617233e-08
0.9410106813 	0.7410227463 	0.001711414583 	4.173993997e-08
0.9437957071 	0.7320831204 	0.001661627051 	3.270019081e-08
0.9464772006 	0.7232684035 	0.001608496342 	2.447770252e-08
0.9490590105 	0.7145641873 	0.001552533692 	1.705499088e-08
0.9515448427 	0.7059551625 	0.001494218452 	1.040686559e-08
0.953938265 	0.6974250574 	0.001433998083 	4.501277884e-09
0.9562427127 	0.6889565507 	0.001372289414 	-6.98499306e-10
0.9584614934 	0.6805311541 	0.001309479802 	-5.231883015e-09
0.9605977918 	0.6721290612 	0.001245928291 	-9.139502427e-09
0.9626546741 	0.6637289552 	0.001181966948 	-1.246212607e-08
0.9646350926 	0.6553077687 	0.001117902235 	-1.523999481e-08
0.9665418898 	0.6468403847 	0.001054016427 	-1.751231084e-08
0.9683778025 	0.6382992668 	0.0009905691918 	-1.931692904e-08
0.9701454658 	0.6296539991 	0.0009277991649 	-2.0690183e-08
0.971847417 	0.6208707178 	0.0008659255577 	-2.166681687e-08
0.9734860987 	0.6119114007 	0.0008051497729 	-2.227999778e-08
0.975063863 	0.6027329807 	0.0007456570136 	-2.256138942e-08
0.9765829746 	0.5932862297 	0.0006876178644 	-2.254127375e-08
0.9780456138 	0.5835143447 	0.0006311898277 	-2.224871195e-08
0.9794538799 	0.5733511464 	0.0005765187723 	-2.171173502e-08
0.9808097942 	0.5627187612 	0.000523740309 	-2.095755439e-08
0.9821153029 	0.5515246177 	0.000472981056 	-2.001284756e-08
0.9833722798 	0.53965752 	0.0004243598373 	-1.890402354e-08
0.9845825291 	0.526982473 	0.0003779886415 	-1.765749925e-08
0.9857477879 	0.5133338132 	0.0003339715257 	-1.629996966e-08
0.9868697285 	0.4985060504 	0.0002923990715 	-1.485868371e-08
0.9879499615 	0.482241663 	0.0002533666581 	-1.336207958e-08
0.9889900372 	0.4657380273 	0.0002198134932 	-1.196265456e-08
0.9896605828 	0.4508192325 	0.0001939457669 	-1.080999572e-08
0.9903311284 	0.4361112607 	0.0001719395206 	-9.781667991e-09
0.991001674 	0.4195948368 	0.0001506988906 	-8.748374456e-09
0.9916722197 	0.4008870393 	0.0001303094771 	-7.719819148e-09
0.9923427653 	0.3795182349 	0.0001108747678 	-6.707597892e-09
0.9930133109 	0.3549385074 	9.24982002e-05 	-5.723571488e-09
0.9936838566 	0.3265741575 	7.528457557e-05 	-4.77833532e-09
0.9943544022 	0.2939907398 	5.934856329e-05 	-3.879808426e-09
0.9950249478 	0.2571896418 	4.484015104e-05 	-3.03384314e-09
0.9956954934 	0.2168736116 	3.196821406e-05 	-2.248203267e-09
0.9963660391 	0.174314361 	2.09761077e-05 	-1.537176959e-09
0.9970365847 	0.130777459 	1.209592404e-05 	-9.242498752e-10
0.9977071303 	0.08704802282 	5.562855767e-06 	-4.437424201e-10
0.998377676 	0.04343161109 	1.557245022e-06 	-1.305028765e-10
0.9990482216 	0.01601146711 	1.477228367e-07 	-1.433352418e-11
0.9990482216 	0.01601146711 	1.477228367e-07 	-1.433352418e-11
