0 	0.008287184686 	-3.704846379e-16 	4.783261932e-24 	1.656278605e-29 	-2.138392146e-37 	2.760840452e-45
0.0006375366988 	0.00828103287 	-6.711885705e-06 	-2.803259433e-09 	0.009383186169 	-7.365979649e-07 	1.788696076e-05
0.001275071669 	0.008278851507 	-4.53414995e-05 	5.656666482e-09 	0.009426150187 	-7.363537737e-07 	1.796886212e-05
0.001912604907 	0.008282081518 	-7.00031992e-05 	9.185574867e-09 	0.009431207445 	-7.280371498e-07 	1.797850266e-05
0.002550136408 	0.008281506186 	-9.376884394e-05 	1.230103532e-08 	0.009435728443 	-7.195592074e-07 	1.798712094e-05
0.003187666171 	0.008282062182 	-0.0001173358508 	1.525685558e-08 	0.009437204223 	-7.104234986e-07 	1.798993419e-05
0.003825194192 	0.008282896653 	-0.0001408363029 	1.810354039e-08 	0.009438255631 	-7.011764981e-07 	1.799193846e-05
0.00446272047 	0.00828383931 	-0.0001643084744 	2.085652472e-08 	0.009439366517 	-6.919186573e-07 	1.799405612e-05
0.005100245004 	0.008284909476 	-0.0001877661266 	2.352173283e-08 	0.009440558041 	-6.826560698e-07 	1.799632749e-05
0.005737767794 	0.008286124439 	-0.000211214829 	2.610179945e-08 	0.009441833376 	-6.733912222e-07 	1.799875864e-05
0.006375288839 	0.008287485969 	-0.0002346569509 	2.859803761e-08 	0.009443210021 	-6.641292817e-07 	1.800138291e-05
0.007012808141 	0.008288993381 	-0.000258093461 	3.101117314e-08 	0.009444700976 	-6.548744179e-07 	1.800422508e-05
0.007650325701 	0.008290646653 	-0.0002815246612 	3.334165518e-08 	0.009446313246 	-6.456295229e-07 	1.800729851e-05
0.008287841521 	0.008292448394 	-0.0003049505144 	3.55898004e-08 	0.009448046147 	-6.363959193e-07 	1.80106019e-05
0.008925355602 	0.008294399403 	-0.0003283644378 	3.775395689e-08 	0.009449902116 	-6.271759256e-07 	1.80141399e-05
0.00956286795 	0.008296801461 	-0.0003550524379 	4.020341925e-08 	0.009452089209 	-6.179868886e-07 	1.80183091e-05
0.01055170326 	0.008300088949 	-0.0003885470385 	4.295238268e-08 	0.00945509736 	-6.037253883e-07 	1.802404348e-05
0.01157871302 	0.008304154291 	-0.0004262588715 	4.593781548e-08 	0.009458891805 	-5.890289069e-07 	1.803127674e-05
0.0126453708 	0.008308781086 	-0.0004654006544 	4.881584278e-08 	0.009463181016 	-5.738488731e-07 	1.803945317e-05
0.01375320709 	0.008314020217 	-0.0005060284677 	5.156754013e-08 	0.009468013553 	-5.581761422e-07 	1.804866533e-05
0.01490381141 	0.008319930591 	-0.0005481954534 	5.417162979e-08 	0.009473434525 	-5.420009139e-07 	1.805899921e-05
0.01609883468 	0.008326572378 	-0.0005919561398 	5.660525122e-08 	0.009479498295 	-5.253151466e-07 	1.807055844e-05
0.0173399915 	0.008334010398 	-0.0006373664241 	5.884403267e-08 	0.00948626261 	-5.081117228e-07 	1.80834531e-05
0.0186290627 	0.008342314453 	-0.0006845159929 	6.086527002e-08 	0.009493788811 	-4.903845876e-07 	1.809780014e-05
0.01996789784 	0.008351568907 	-0.0007334759891 	6.265124277e-08 	0.00950215106 	-4.721306569e-07 	1.811374091e-05
0.02136376633 	0.008361869912 	-0.0007843317766 	6.413789521e-08 	0.00951143518 	-4.530470563e-07 	1.813143902e-05
0.02281557106 	0.008373301891 	-0.0008371794534 	6.529724405e-08 	0.009521716075 	-4.332636308e-07 	1.815103726e-05
0.02432342218 	0.008385945039 	-0.0008920204621 	6.609860837e-08 	0.009533064097 	-4.128491825e-07 	1.817266975e-05
0.02588948306 	0.008399893613 	-0.0009488747447 	6.649275354e-08 	0.009545562559 	-3.917632242e-07 	1.819649529e-05
0.02751600062 	0.008415251885 	-0.001007813595 	6.643458385e-08 	0.009559303631 	-3.699622577e-07 	1.822268959e-05
0.02920530844 	0.008432130511 	-0.001068901197 	6.58754895e-08 	0.009574385193 	-3.473985807e-07 	1.825143924e-05
0.03095983019 	0.008450646727 	-0.00113220202 	6.476332572e-08 	0.009590910829 	-3.240196105e-07 	1.82829417e-05
0.03278208306 	0.008470924454 	-0.00119778055 	6.304225497e-08 	0.009608989835 	-2.997672188e-07 	1.831740531e-05
0.03467468139 	0.008493094331 	-0.001265700988 	6.065259501e-08 	0.00962873716 	-2.74577049e-07 	1.83550492e-05
0.03664034039 	0.008517293696 	-0.001336028588 	5.753067774e-08 	0.009650273215 	-2.483778185e-07 	1.83961029e-05
0.03868188008 	0.008543669269 	-0.001408843409 	5.360886918e-08 	0.009673725718 	-2.210908436e-07 	1.844080989e-05
0.04080303322 	0.008572408517 	-0.001484243837 	4.881573719e-08 	0.009699258691 	-1.926097704e-07 	1.848948283e-05
0.0430158797 	0.008603707115 	-0.001562432664 	4.302327044e-08 	0.009727041591 	-1.62619108e-07 	1.854244476e-05
0.04531415011 	0.008637698869 	-0.001643402892 	3.620148667e-08 	0.009757187527 	-1.31287229e-07 	1.85999113e-05
0.04770114172 	0.008674518814 	-0.001727052557 	2.826009938e-08 	0.009789809611 	-9.849566631e-08 	1.866209806e-05
0.05018027906 	0.008714338094 	-0.001813458853 	1.911091149e-08 	0.009825050199 	-6.411804255e-08 	1.872927641e-05
0.0527551188 	0.008757329958 	-0.001902665301 	8.661072773e-09 	0.009863051777 	-2.801742477e-08 	1.880171798e-05
0.0547339378 	0.008791616246 	-0.001970772456 	5.062612922e-08 	0.009893316061 	-4.97044339e-06 	1.885941012e-05
0.05542935489 	0.008803670373 	-0.001994711429 	3.220555466e-09 	0.009903957847 	-1.010453859e-08 	1.887969632e-05
0.05820682381 	0.008853541926 	-0.002089644585 	1.670957735e-08 	0.009947911769 	-5.071427176e-08 	1.896348471e-05
0.06109242457 	0.008907169722 	-0.002187495704 	3.182541533e-08 	0.009995093368 	-9.35807658e-08 	1.905342595e-05
0.0641017149 	0.00897211094 	-0.002300873875 	4.900922987e-08 	0.01005205031 	-1.393168696e-07 	1.916200171e-05
0.06872468605 	0.00905678371 	-0.002441964646 	7.692846292e-08 	0.0101261337 	-2.104715992e-07 	1.930322525e-05
0.07345243417 	0.009154261215 	-0.00259652787 	1.083116317e-07 	0.01021118423 	-2.854213568e-07 	1.946535519e-05
0.07828733389 	0.009257226384 	-0.002751888981 	1.429012934e-07 	0.01030062398 	-3.641203992e-07 	1.963585222e-05
0.08324043056 	0.009365458356 	-0.002907988018 	1.807660492e-07 	0.01039415047 	-4.46831092e-07 	1.981413971e-05
0.08831735584 	0.009478567942 	-0.003064577167 	2.218737095e-07 	0.01049128658 	-5.335665906e-07 	1.999930812e-05
0.09350935581 	0.009595937254 	-0.00322113772 	2.66056685e-07 	0.01059134895 	-6.240895911e-07 	2.019005481e-05
0.09881903879 	0.009716958319 	-0.003377251355 	3.132164718e-07 	0.01069364833 	-7.182677391e-07 	2.038506586e-05
0.1042599861 	0.009841039446 	-0.003532685405 	3.633164644e-07 	0.0107974885 	-8.159953762e-07 	2.058301409e-05
0.1098334224 	0.009967350931 	-0.003686996083 	4.161266807e-07 	0.01090195166 	-9.167650207e-07 	2.07821499e-05
0.1155331973 	0.01009484161 	-0.003839513914 	4.713158673e-07 	0.01100591862 	-1.019903054e-06 	2.098033982e-05
0.1213621748 	0.01022250977 	-0.003989727923 	5.286092898e-07 	0.01110829189 	-1.124744601e-06 	2.117549174e-05
0.1273428676 	0.01034927639 	-0.004137212857 	5.877666815e-07 	0.01120788273 	-1.230579196e-06 	2.136533955e-05
0.133459291 	0.01047369844 	-0.004281180366 	6.481477094e-07 	0.01130318977 	-1.336036973e-06 	2.154702126e-05
0.1397143719 	0.01059427823 	-0.004420806143 	6.310038089e-07 	0.01139265251 	-1.281105526e-06 	2.17175621e-05
0.1461249533 	0.0107094888 	-0.004555444769 	5.965743882e-07 	0.01147465547 	-1.193101642e-06 	2.187388254e-05
0.1526863712 	0.01081750545 	-0.004684179943 	5.58458366e-07 	0.01154733526 	-1.100133594e-06 	2.201243042e-05
0.1593965452 	0.01091635976 	-0.004805967707 	5.169207474e-07 	0.01160870469 	-1.002842558e-06 	2.212941762e-05
0.1662713112 	0.01100399496 	-0.004919848596 	4.721058314e-07 	0.01165667753 	-9.015940919e-07 	2.222086718e-05
0.1733079906 	0.01107810375 	-0.005024652813 	4.245293851e-07 	0.01168897439 	-7.975818636e-07 	2.228243396e-05
0.1805042111 	0.01113622606 	-0.005119075437 	3.747167003e-07 	0.0117031965 	-6.920169789e-07 	2.230954526e-05
0.187878428 	0.01117576402 	-0.005201828611 	3.231079442e-07 	0.01169681565 	-5.85913824e-07 	2.229738159e-05
0.1954226962 	0.01119391046 	-0.005271409585 	2.706074672e-07 	0.01166717983 	-4.811886875e-07 	2.224088747e-05
0.2031410687 	0.01118773158 	-0.005326218546 	2.180388631e-07 	0.01161155185 	-3.795448366e-07 	2.213484508e-05
0.211048168 	0.01115415301 	-0.005364607661 	1.663666416e-07 	0.0115270969 	-2.828746009e-07 	2.197385048e-05
0.2191345625 	0.01109000909 	-0.005384762284 	1.168932688e-07 	0.0114109924 	-1.935931875e-07 	2.175252303e-05
0.2274150465 	0.01099207173 	-0.005384820488 	7.085087144e-08 	0.01126041098 	-1.138563449e-07 	2.1465473e-05
0.2358883336 	0.01085714047 	-0.005362860288 	2.981402597e-08 	0.01107265111 	-4.623940918e-08 	2.110755049e-05
0.2432725292 	0.01070810293 	-0.005323753652 	1.523148297e-06 	0.01087896982 	-3.970444196e-06 	2.073834013e-05
0.2445584589 	0.0106821246 	-0.005316930737 	4.634765461e-09 	0.01084521422 	-6.8713128e-09 	2.067399258e-05
0.2534352109 	0.01046413942 	-0.005245131124 	3.057468034e-08 	0.01057589717 	-4.275389397e-08 	2.016059943e-05
0.2625143968 	0.0102007437 	-0.005145679892 	4.631744531e-08 	0.01026304652 	-5.950342344e-08 	1.956421914e-05
0.2718119737 	0.009890056139 	-0.005017025052 	5.037210412e-08 	0.009905644051 	-5.58573672e-08 	1.888291069e-05
0.2813203971 	0.009531146433 	-0.004858017706 	4.15584985e-08 	0.009503703489 	-3.145638255e-08 	1.811670027e-05
0.2910564672 	0.009124211918 	-0.00466805578 	1.934424837e-08 	0.009058388906 	1.270748263e-08 	1.72678069e-05
0.3010138659 	0.008671090559 	-0.004447379787 	-1.589148317e-08 	0.008572493942 	7.391702316e-08 	1.634155605e-05
0.3112077643 	0.008175501824 	-0.00419727156 	-6.249823912e-08 	0.008050593326 	1.474655488e-07 	1.534666843e-05
0.3216336315 	0.007643643532 	-0.003920423095 	-1.171767213e-07 	0.007499548789 	2.262471951e-07 	1.429622438e-05
0.332306327 	0.007084235566 	-0.003621061496 	-1.749875395e-07 	0.006928428096 	3.014028595e-07 	1.320750961e-05
0.3432224456 	0.006508323581 	-0.003305140308 	-2.294014981e-07 	0.006348196235 	3.633183565e-07 	1.210142641e-05
0.354394166 	0.005928678766 	-0.002980144014 	-2.730465647e-07 	0.005771020455 	4.025853289e-07 	1.100116896e-05
0.3658223312 	0.005359260907 	-0.002654675203 	-2.991578843e-07 	0.005209704959 	4.119536345e-07 	9.931145614e-06
0.3775149986 	0.00481364935 	-0.002337465169 	-3.033697012e-07 	0.004676201126 	3.891255774e-07 	8.914139028e-06
0.3894777814 	0.00430337374 	-0.002036221675 	-2.852775203e-07 	0.004180148644 	3.379603244e-07 	7.968525127e-06
0.4017145419 	0.003836565073 	-0.001756473366 	-2.487698656e-07 	0.003727833518 	2.677154354e-07 	7.106286783e-06
0.4142352814 	0.003417460769 	-0.00150084419 	-2.009921876e-07 	0.003321999701 	1.905804589e-07 	6.332654733e-06
0.4270424973 	0.003047220896 	-0.001269143354 	-1.500760519e-07 	0.002962849316 	1.181452853e-07 	5.648014278e-06
0.4401434278 	0.002725384822 	-0.00105899789 	-1.028569158e-07 	0.002649514545 	5.859794178e-08 	5.050711117e-06
0.4535460519 	0.002451628721 	-0.0008669094414 	-5.918805716e-08 	0.002381678187 	1.453165891e-08 	4.540140578e-06
0.4672549561 	0.002226863544 	-0.0006891986488 	-2.85661397e-08 	0.002160471223 	-9.759700485e-09 	4.118458624e-06
0.4812772462 	0.002053032866 	-0.0005224027933 	-8.373890534e-09 	0.001988104374 	-1.99593281e-08 	3.789879503e-06
0.4956212291 	0.001932193006 	-0.0003641420014 	5.033630272e-09 	0.001866848857 	-2.136687521e-08 	3.558732784e-06
0.5099671649 	0.001864663038 	-0.0002139473128 	1.454254887e-08 	0.001797257752 	-1.762241662e-08 	3.426072797e-06
0.5239967448 	0.001845859125 	-7.124089243e-05 	2.214508802e-08 	0.001775083827 	-1.08029367e-08 	3.383803133e-06
0.5377171989 	0.001868014668 	6.58660456e-05 	2.898780943e-08 	0.001792872151 	-1.90784136e-09 	3.417712623e-06
0.5511349284 	0.001923901366 	0.0001993680539 	3.556708712e-08 	0.001843627711 	8.571517402e-09 	3.514466828e-06
0.5642560315 	0.002007867937 	0.0003308875317 	4.19792753e-08 	0.001921890908 	2.027690754e-08 	3.663658232e-06
0.5770873282 	0.002115720978 	0.0004616956729 	4.810455761e-08 	0.002023643287 	3.283187409e-08 	3.857626547e-06
0.5896349577 	0.002244362805 	0.0005926858388 	5.372200398e-08 	0.002145965249 	4.580861115e-08 	4.090806205e-06
0.6019048218 	0.002391418431 	0.0007242905744 	5.857227823e-08 	0.002286668174 	5.88332841e-08 	4.359025085e-06
0.6139034281 	0.002553731591 	0.0008565469649 	6.247839352e-08 	0.002442766675 	7.093749226e-08 	4.656592215e-06
0.6256363004 	0.002727554411 	0.0009894123722 	6.543471016e-08 	0.002610634915 	8.137083703e-08 	4.976595736e-06
0.6371094131 	0.002910965619 	0.001122478032 	6.736534259e-08 	0.002788479691 	9.081142271e-08 	5.31561731e-06
0.6483284893 	0.003103111135 	0.001254966515 	6.828583846e-08 	0.002975589916 	9.970151591e-08 	5.672301402e-06
0.6592989758 	0.003302892076 	0.001386116831 	6.840179187e-08 	0.003170977786 	1.079163216e-07 	6.044764987e-06
0.670026542 	0.003509313661 	0.001515155494 	6.791899598e-08 	0.003373729172 	1.155077657e-07 	6.431265481e-06
0.6805163122 	0.003721513906 	0.001641371048 	6.71624752e-08 	0.003583063202 	1.226269024e-07 	6.830314325e-06
0.6907737526 	0.003938847673 	0.001765508133 	7.065044085e-08 	0.00379827769 	1.2932359e-07 	7.240572953e-06
0.7008037881 	0.004161163127 	0.001890327596 	6.867175414e-08 	0.004018869737 	1.366694589e-07 	7.661082706e-06
0.7106116068 	0.004389180095 	0.002006926269 	6.52661392e-08 	0.004245947291 	1.45568035e-07 	8.093955637e-06
0.7202019792 	0.00462502388 	0.002116282556 	7.015713487e-08 	0.004481358561 	1.555808256e-07 	8.542714947e-06
0.7295798368 	0.004869987515 	0.002229771069 	7.520407146e-08 	0.004725343552 	1.661583369e-07 	9.007818151e-06
0.7387497797 	0.005122911839 	0.002346817698 	7.998017987e-08 	0.00497664702 	1.764087627e-07 	9.486872407e-06
0.7477164791 	0.005381552883 	0.002466452929 	8.405119994e-08 	0.005233325708 	1.852495567e-07 	9.976173328e-06
0.7564843897 	0.005642862537 	0.002587378168 	8.698009845e-08 	0.005492829876 	1.916721119e-07 	1.04708604e-05
0.765057935 	0.005903149965 	0.002707976856 	8.841472558e-08 	0.005751887769 	1.949618787e-07 	1.096469674e-05
0.7734414156 	0.006159129896 	0.002826781255 	8.824999547e-08 	0.00600746444 	1.949432695e-07 	1.145189691e-05
0.781639032 	0.006408520846 	0.002942756053 	8.648635514e-08 	0.006257384659 	1.916328575e-07 	1.192831431e-05
0.7896549216 	0.006649500683 	0.003055063446 	8.311169719e-08 	0.006499866682 	1.849995744e-07 	1.239055244e-05
0.7974930904 	0.006880335096 	0.00316290449 	7.810997356e-08 	0.006733208995 	1.749962175e-07 	1.283536774e-05
0.8051574904 	0.00709936817 	0.003265519632 	7.147129612e-08 	0.006955800843 	1.615807253e-07 	1.325968967e-05
0.8126519675 	0.007305033565 	0.003362192414 	6.321025265e-08 	0.007166127197 	1.447479228e-07 	1.366063016e-05
0.8199802839 	0.00749587006 	0.003452251642 	5.337202223e-08 	0.007362763501 	1.245391923e-07 	1.403547361e-05
0.8271461326 	0.007670532624 	0.003535070855 	4.204286675e-08 	0.007544362944 	1.010755507e-07 	1.438165262e-05
0.8341531064 	0.007827786724 	0.003610063382 	2.933781683e-08 	0.007709641271 	7.454972225e-08 	1.469671905e-05
0.8410047285 	0.007966473998 	0.00367667134 	1.538166673e-08 	0.007857363556 	4.520905697e-08 	1.497831878e-05
0.8477044463 	0.00808544711 	0.003734349585 	2.996935014e-10 	0.007986339888 	1.337409598e-08 	1.522418351e-05
0.8542556236 	0.008183498484 	0.003782555058 	-1.576475083e-08 	0.008095451417 	-2.046131101e-08 	1.543218041e-05
0.860661554 	0.008259347132 	0.003820764772 	-3.257714532e-08 	0.008183743385 	-5.542592132e-08 	1.560048945e-05
0.8669254595 	0.00831178003 	0.003848552386 	-4.968879467e-08 	0.008250618439 	-9.013557259e-08 	1.572797189e-05
0.8730504868 	0.008340045167 	0.003865737551 	-6.631989711e-08 	0.008296088043 	-1.229507777e-07 	1.581464959e-05
0.8790397151 	0.008344525097 	0.003872567047 	-8.139994792e-08 	0.008320842904 	-1.528203144e-07 	1.586183923e-05
0.884896156 	0.008327493569 	0.003869801675 	-9.396705466e-08 	0.008325768682 	-1.800818551e-07 	1.587122913e-05
0.8906227528 	0.008292966703 	0.003853971627 	-1.430224275e-07 	0.008311569462 	-2.060382369e-07 	1.584416148e-05
0.8962223841 	0.008244250477 	0.003813777156 	-1.725829183e-07 	0.008278977458 	-2.290998922e-07 	1.578203206e-05
0.9016978651 	0.008182125557 	0.003760749445 	-1.602071775e-07 	0.008229448128 	-2.468489851e-07 	1.568761539e-05
0.9070519484 	0.008106469283 	0.003707239186 	-1.624395035e-07 	0.008164613255 	-2.598235676e-07 	1.55640221e-05
0.9122873252 	0.008017669542 	0.003647096373 	-1.63227799e-07 	0.008085309984 	-2.694641498e-07 	1.541284802e-05
0.9174066275 	0.007916340659 	0.003580983173 	-1.627003948e-07 	0.007992008718 	-2.76583978e-07 	1.523498988e-05
0.9224124288 	0.007803075025 	0.003509550122 	-1.608149983e-07 	0.007885167363 	-2.811746016e-07 	1.503132056e-05
0.9273072455 	0.007678399252 	0.003433620682 	-1.574786306e-07 	0.007765246148 	-2.832131105e-07 	1.48027174e-05
0.9320935383 	0.00755423875 	0.003358908851 	-1.532246112e-07 	0.007643975431 	-2.828288297e-07 	1.457154171e-05
0.9352091208 	0.007447040752 	0.003295721583 	-1.48862864e-07 	0.007538022278 	-2.809112073e-07 	1.436956555e-05
0.9382088827 	0.007349049632 	0.003240353333 	-1.442770873e-07 	0.007440280169 	-2.780647372e-07 	1.418324192e-05
0.9410971295 	0.007249211716 	0.003185027839 	-1.392137484e-07 	0.007339964052 	-2.742225622e-07 	1.399201152e-05
0.9438780069 	0.007147807476 	0.00313005684 	-1.337263794e-07 	0.007237414863 	-2.694616017e-07 	1.379652426e-05
0.9465555063 	0.007045077435 	0.003075606094 	-1.27877779e-07 	0.007132927493 	-2.638540537e-07 	1.35973423e-05
0.9491334706 	0.00694122039 	0.00302181391 	-1.217299567e-07 	0.00702675999 	-2.574696095e-07 	1.339495753e-05
0.9516156 	0.006836395998 	0.002968791816 	-1.15342903e-07 	0.006919133529 	-2.503750366e-07 	1.318979158e-05
0.9540054573 	0.00673072691 	0.002916625529 	-1.0877381e-07 	0.006810232331 	-2.426334021e-07 	1.298219563e-05
0.9563064725 	0.006624299968 	0.002865375694 	-1.02076617e-07 	0.006700204212 	-2.343037822e-07 	1.277245145e-05
0.9585219483 	0.006517166815 	0.002815078326 	-9.530179866e-08 	0.006589160769 	-2.254412698e-07 	1.256077179e-05
0.9606550646 	0.006409343859 	0.002765744875 	-8.849634923e-08 	0.0064771769 	-2.160972353e-07 	1.234729941e-05
0.9627088831 	0.006300811447 	0.00271736193 	-8.170389418e-08 	0.006364289565 	-2.063197304e-07 	1.213210477e-05
0.9646863518 	0.006191512038 	0.002669890346 	-7.496471054e-08 	0.006250495617 	-1.961536477e-07 	1.191518188e-05
0.9665903087 	0.006081347159 	0.002623263696 	-6.831601029e-08 	0.006135748452 	-1.856415325e-07 	1.169644189e-05
0.9684234868 	0.00597017282 	0.00257738602 	-6.179217662e-08 	0.006019953181 	-1.748243197e-07 	1.147570392e-05
0.9701885171 	0.005857792997 	0.002532128526 	-5.542497993e-08 	0.005902959913 	-1.637421614e-07 	1.125268224e-05
0.9718879332 	0.005743950619 	0.002487325048 	-4.924377466e-08 	0.00578455459 	-1.524353538e-07 	1.102696878e-05
0.9735241741 	0.005628315355 	0.002442765868 	-4.327566146e-08 	0.005664446651 	-1.409453662e-07 	1.079800967e-05
0.9750995883 	0.005510467169 	0.002398189412 	-3.754560194e-08 	0.005542252511 	-1.29315974e-07 	1.056507368e-05
0.9766164371 	0.005389874319 	0.002353271109 	-3.20764745e-08 	0.005417473514 	-1.175944898e-07 	1.032721023e-05
0.9780768976 	0.005265863919 	0.002307608455 	-2.688906186e-08 	0.005289466485 	-1.058330874e-07 	1.008319325e-05
0.9794830661 	0.005137582509 	0.002260700865 	-2.200196093e-08 	0.005157404336 	-9.409019439e-08 	9.831446091e-06
0.9808369607 	0.005003943122 	0.002211922373 	-1.743141954e-08 	0.0050202232 	-8.243192932e-08 	9.569940718e-06
0.9821405249 	0.004863554002 	0.00216048429 	-1.31910885e-08 	0.004876551255 	-7.093346136e-08 	9.29606206e-06
0.9833956295 	0.004714622363 	0.00210538368 	-9.291730613e-09 	0.004724612682 	-5.968030131e-08 	9.00642491e-06
0.9846040761 	0.00455482438 	0.002045331661 	-5.740925795e-09 	0.004562098094 	-4.876940075e-08 	8.696626936e-06
0.9857675991 	0.004381130283 	0.001978652894 	-2.542859467e-09 	0.00438599042 	-3.830994757e-08 	8.360916763e-06
0.9868878687 	0.004189572989 	0.001903144332 	3.016312607e-10 	0.004192332399 	-2.842337113e-08 	7.991750752e-06
0.9879664926 	0.003974950289 	0.001816791274 	2.775947183e-09 	0.00397592946 	-1.924327922e-08 	7.579226604e-06
0.9890050191 	0.003751259362 	0.001720539316 	4.768997311e-09 	0.003750874336 	-1.15426533e-08 	7.150208986e-06
0.9896745659 	0.003543878077 	0.00162812428 	6.192031556e-09 	0.003542585871 	-5.810111838e-09 	6.75315328e-06
0.9903441127 	0.003334906707 	0.001535506127 	7.275611236e-09 	0.003332984483 	-1.159291843e-09 	6.35359478e-06
0.9910136596 	0.003095079228 	0.001425260342 	8.222413855e-09 	0.003092683125 	3.026220562e-09 	5.895513603e-06
0.9916832064 	0.002817941702 	0.001293655671 	8.989898387e-09 	0.002815243839 	6.632435464e-09 	5.366637213e-06
0.9923527532 	0.002496952762 	0.001136009085 	9.512662757e-09 	0.002494142514 	9.509392919e-09 	4.754528842e-06
0.9930223001 	0.002127651868 	0.000948691664 	9.660649711e-09 	0.002124932782 	1.145053372e-08 	4.050712477e-06
0.9936918469 	0.001712528056 	0.0007330628921 	9.200608612e-09 	0.001710104861 	1.217862651e-08 	3.259935164e-06
0.9943613937 	0.001269234621 	0.0005027313592 	7.84230595e-09 	0.00126728378 	1.140756744e-08 	2.415795108e-06
0.9950309406 	0.0008377439736 	0.0002889646246 	5.557261798e-09 	0.0008363663657 	9.114026979e-09 	1.594346749e-06
0.9957004874 	0.000473185708 	0.0001297894436 	2.988855452e-09 	0.0004723642602 	5.924227036e-09 	9.004575668e-07
0.9963700342 	0.0002177741336 	4.194151206e-05 	1.106208076e-09 	0.0002173803089 	2.974299498e-09 	4.143872865e-07
0.9970395811 	7.561101489e-05 	8.711912384e-06 	2.508704272e-10 	7.547049296e-05 	1.078758476e-09 	1.438677355e-07
0.9977091279 	1.700569789e-05 	9.443058148e-07 	2.861321254e-11 	1.697360613e-05 	2.476957532e-10 	3.235641085e-08
0.9983786747 	1.755208122e-06 	3.152451081e-08 	9.899604119e-13 	1.751873961e-06 	2.606411566e-11 	3.339558678e-09
0.9990482216 	4.692170649e-08 	1.150370967e-10 	3.772770752e-15 	4.683243792e-08 	7.245227534e-13 	8.927564308e-11
0.9990482216 	4.692170649e-08 	1.150370967e-10 	3.772770752e-15 	4.683243792e-08 	7.245227534e-13 	8.927564308e-11
