0 	0.008696675917 	-3.879765783e-16 	3.55740087e-20 	-2.353933233e-15 	-1.027749445e-16 	-4.487250983e-18
0.0006350119567 	0.008689190447 	-3.275726176e-06 	-6.210308339e-09 	0.0100357728 	-9.954773099e-07 	1.913097225e-05
0.001270022022 	0.008686573563 	-5.023355609e-05 	6.723827291e-09 	0.01008815605 	-9.978625501e-07 	1.923082928e-05
0.00190503019 	0.008690578051 	-7.821341321e-05 	1.135306942e-08 	0.0100942911 	-9.863062253e-07 	1.92425244e-05
0.002540036458 	0.008689966921 	-0.0001049498409 	1.530813478e-08 	0.01009975447 	-9.744701496e-07 	1.925293911e-05
0.003175040824 	0.008690760366 	-0.0001314043963 	1.902077499e-08 	0.01010148909 	-9.615045798e-07 	1.925624576e-05
0.003810043283 	0.008691917489 	-0.0001577622416 	2.257774457e-08 	0.01010269262 	-9.483541005e-07 	1.925854003e-05
0.004445043835 	0.008693230232 	-0.0001840780452 	2.600586202e-08 	0.01010395558 	-9.351914082e-07 	1.926094759e-05
0.005080042477 	0.00869472176 	-0.0002103719062 	2.931553663e-08 	0.01010530419 	-9.220263081e-07 	1.926351842e-05
0.005715039211 	0.008696412674 	-0.0002366522032 	3.251145061e-08 	0.01010674281 	-9.088624417e-07 	1.926626082e-05
0.006350034036 	0.00869830457 	-0.0002629226664 	3.559596578e-08 	0.01010829333 	-8.957080517e-07 	1.926921654e-05
0.006985026952 	0.008700395988 	-0.0002891849576 	3.857039987e-08 	0.01010997222 	-8.825696331e-07 	1.927241697e-05
0.007620017961 	0.008702686245 	-0.0003154397355 	4.143556766e-08 	0.0101117886 	-8.694514848e-07 	1.92758795e-05
0.008255007066 	0.008705177879 	-0.0003416871386 	4.41920344e-08 	0.01011374215 	-8.56355266e-07 	1.927960351e-05
0.008889994269 	0.008707870925 	-0.0003679183482 	4.683719953e-08 	0.01011583688 	-8.432842231e-07 	1.928359665e-05
0.009524979574 	0.008711178335 	-0.0003978104934 	4.982590264e-08 	0.0101183037 	-8.302743629e-07 	1.928829908e-05
0.01050989489 	0.008715667412 	-0.0004353283001 	5.315085045e-08 	0.01012172225 	-8.10052614e-07 	1.929481579e-05
0.01153283289 	0.008721156972 	-0.0004775738159 	5.675343737e-08 	0.01012607951 	-7.892365041e-07 	1.930312195e-05
0.01259526126 	0.008727341847 	-0.0005214172855 	6.020144415e-08 	0.01013104406 	-7.677375224e-07 	1.931258576e-05
0.01369870436 	0.008734285016 	-0.0005669217838 	6.347009771e-08 	0.01013667705 	-7.455415087e-07 	1.93233238e-05
0.01484474537 	0.008742058958 	-0.0006141463957 	6.653100369e-08 	0.01014303541 	-7.226325897e-07 	1.93354446e-05
0.01603502858 	0.008750737585 	-0.0006631516278 	6.935371993e-08 	0.01015018771 	-6.989971425e-07 	1.934907888e-05
0.01727126175 	0.008760400385 	-0.0007139994373 	7.19058341e-08 	0.01015820701 	-6.746222527e-07 	1.936436589e-05
0.01855521858 	0.008771132861 	-0.0007667901351 	7.415748815e-08 	0.01016717105 	-6.494960535e-07 	1.938145384e-05
0.01988874122 	0.00878304009 	-0.0008216169715 	7.608656168e-08 	0.01017717427 	-6.236106611e-07 	1.940052276e-05
0.0212795967 	0.008796242574 	-0.000878566973 	7.760589751e-08 	0.01018832629 	-5.965861749e-07 	1.942178161e-05
0.02272638777 	0.00881084315 	-0.0009377395713 	7.867683519e-08 	0.01020072208 	-5.68555785e-07 	1.944541143e-05
0.02422903093 	0.008826937804 	-0.0009991436529 	7.926229944e-08 	0.01021445018 	-5.39589181e-07 	1.9471581e-05
0.025789682 	0.008844641291 	-0.001062793595 	7.929626301e-08 	0.01022961567 	-5.096224242e-07 	1.950049064e-05
0.02741058004 	0.00886408132 	-0.001128767071 	7.871924084e-08 	0.0102463346 	-4.785861553e-07 	1.953236158e-05
0.02909405049 	0.008885393263 	-0.001197134462 	7.746730423e-08 	0.01026473 	-4.464040574e-07 	1.956742832e-05
0.03084250853 	0.008908720373 	-0.001267966324 	7.54719392e-08 	0.01028493166 	-4.129918336e-07 	1.96059383e-05
0.03265846256 	0.008934213842 	-0.001341333085 	7.265983312e-08 	0.01030707604 	-3.782562935e-07 	1.964815164e-05
0.03454451775 	0.008962032758 	-0.001417304698 	6.895266335e-08 	0.01033130606 	-3.420944437e-07 	1.969434078e-05
0.03650337983 	0.00899234396 	-0.001495951896 	6.426687285e-08 	0.01035777072 	-3.043925982e-07 	1.974478979e-05
0.03853785891 	0.009025325521 	-0.001577359962 	5.85134067e-08 	0.01038662763 	-2.65025848e-07 	1.979979908e-05
0.04065175345 	0.009061209819 	-0.001661654308 	5.159798113e-08 	0.01041808168 	-2.238312314e-07 	1.985975924e-05
0.04285798654 	0.009100238432 	-0.001749065723 	4.335382059e-08 	0.01045234331 	-1.803654942e-07 	1.992507142e-05
0.0451493869 	0.00914256594 	-0.001839567559 	3.373875445e-08 	0.01048954538 	-1.34823962e-07 	1.999598891e-05
0.04752924182 	0.009188346895 	-0.00193303891 	2.263519588e-08 	0.01052981825 	-8.702489347e-08 	2.00727602e-05
0.05000096542 	0.009237783212 	-0.00202956186 	9.926374116e-09 	0.01057332938 	-3.677573082e-08 	2.01557045e-05
0.05179152348 	0.009274951938 	-0.002099042559 	6.185749237e-08 	0.01060604918 	-6.246136589e-06 	2.021807753e-05
0.0525681036 	0.009291079932 	-0.002129183054 	4.57279518e-09 	0.010620253 	-1.651121284e-08 	2.024515396e-05
0.05523433907 	0.00934844263 	-0.002231944233 	2.109202258e-08 	0.01067076134 	-7.36161892e-08 	2.03414369e-05
0.05800349666 	0.00941007018 	-0.002337887404 	3.963286196e-08 	0.01072498632 	-1.339094677e-07 	2.044480477e-05
0.06088054966 	0.009476234008 	-0.002447054011 	6.034772756e-08 	0.01078314938 	-1.976697458e-07 	2.055567974e-05
0.06388212204 	0.009556222852 	-0.002573513513 	8.393401984e-08 	0.01085329687 	-2.65924792e-07 	2.068940036e-05
0.06849323317 	0.009660274701 	-0.002730828019 	1.219353684e-07 	0.01094436347 	-3.719251226e-07 	2.08629986e-05
0.07320884822 	0.009779735052 	-0.002903072593 	1.646811315e-07 	0.01104862718 	-4.83788441e-07 	2.106175422e-05
0.07803133552 	0.009905530096 	-0.003076074309 	2.117449515e-07 	0.01115790652 	-6.012002931e-07 	2.127007101e-05
0.08297254808 	0.0100373227 	-0.003249783927 	2.632476098e-07 	0.01127174129 	-7.24425445e-07 	2.148707171e-05
0.08803840839 	0.01017455239 	-0.003423903083 	3.191689195e-07 	0.01138943832 	-8.533398943e-07 	2.171143496e-05
0.09321908881 	0.01031635801 	-0.003597804046 	3.792980327e-07 	0.01151003244 	-9.874064101e-07 	2.194132087e-05
0.09851719182 	0.01046189638 	-0.003770988977 	4.435106481e-07 	0.01163255341 	-1.126230185e-06 	2.217487989e-05
0.1039473239 	0.01061034744 	-0.003943174112 	5.117595582e-07 	0.01175602154 	-1.269449991e-06 	2.241024446e-05
0.1095105614 	0.01076057806 	-0.004113804903 	5.837162865e-07 	0.01187916706 	-1.416066019e-06 	2.264499406e-05
0.1151999032 	0.01091116796 	-0.004282047729 	6.588838366e-07 	0.01200046108 	-1.564787573e-06 	2.287621417e-05
0.1210182079 	0.01106076218 	-0.004447264019 	7.368200709e-07 	0.01211840116 	-1.714314478e-06 	2.310104075e-05
0.1269898328 	0.01120789944 	-0.004608890673 	7.371930397e-07 	0.01223136076 	-1.681070473e-06 	2.331637313e-05
0.1330969944 	0.011350647 	-0.004765908235 	6.972149131e-07 	0.01233731668 	-1.558802927e-06 	2.351835456e-05
0.1393426013 	0.01148699875 	-0.004917253665 	6.5209135e-07 	0.01243416835 	-1.429644448e-06 	2.370298077e-05
0.1457447855 	0.01161489846 	-0.00506204801 	6.018270989e-07 	0.01251973241 	-1.293776848e-06 	2.386608964e-05
0.152298134 	0.01173190519 	-0.005199061741 	5.46928089e-07 	0.01259151841 	-1.152661857e-06 	2.400293373e-05
0.159000054 	0.01183538911 	-0.00532689801 	4.878961017e-07 	0.01264688167 	-1.007726666e-06 	2.410847149e-05
0.1658675547 	0.01192259127 	-0.005444230174 	4.251525618e-07 	0.01268304101 	-8.601395979e-07 	2.417740123e-05
0.1728973743 	0.01199043846 	-0.005549451901 	3.596624906e-07 	0.01269699571 	-7.122344442e-07 	2.420400277e-05
0.1800865787 	0.01203566611 	-0.005640778562 	2.924830125e-07 	0.01268561387 	-5.664298498e-07 	2.418230582e-05
0.1874550215 	0.01205483057 	-0.005716413633 	2.246717234e-07 	0.01264561131 	-4.250041549e-07 	2.410604983e-05
0.1949936538 	0.0120442693 	-0.005774295707 	1.579570158e-07 	0.01257362696 	-2.914301248e-07 	2.396882765e-05
0.2027065505 	0.01200020173 	-0.005812244144 	9.406393667e-08 	0.01246625977 	-1.689376099e-07 	2.376415593e-05
0.2106093461 	0.01191873598 	-0.005828018615 	3.49925662e-08 	0.01232008064 	-6.101552513e-08 	2.348549788e-05
0.2159255018 	0.01183805391 	-0.005822257529 	3.362164697e-06 	0.01219632714 	-9.541564021e-06 	2.324958932e-05
0.2186913403 	0.01179601503 	-0.005819230349 	1.688935785e-08 	0.01213186918 	-2.853604299e-08 	2.312671454e-05
0.2269683389 	0.01162826303 	-0.005783485555 	5.898136014e-08 	0.01189858471 	-9.583240362e-08 	2.26820095e-05
0.2354385387 	0.01141202037 	-0.00571843504 	8.819117836e-08 	0.01161764774 	-1.365796748e-07 	2.214646556e-05
0.2441059525 	0.01114434389 	-0.005621879863 	1.019095457e-07 	0.01128714096 	-1.479996239e-07 	2.151642777e-05
0.2529808799 	0.01082305376 	-0.005491944808 	9.776636527e-08 	0.01090602591 	-1.283139641e-07 	2.078991655e-05
0.26205831 	0.01044717105 	-0.00532726563 	7.405358644e-08 	0.01047457842 	-7.746157208e-08 	1.996745772e-05
0.2713552748 	0.01001720482 	-0.005127233907 	3.017116989e-08 	0.009994595037 	2.316703392e-09 	1.905247599e-05
0.2808630757 	0.009535803272 	-0.004892363478 	-3.281686466e-08 	0.009470000863 	1.057688238e-07 	1.805245369e-05
0.2905996478 	0.009007996733 	-0.004624551453 	-1.116345036e-07 	0.008906952896 	2.243073759e-07 	1.697912778e-05
0.3005576142 	0.008441848726 	-0.004327528974 	-2.002281481e-07 	0.008314371288 	3.456517592e-07 	1.584950254e-05
0.3107531066 	0.007848336779 	-0.004006957318 	-2.899416374e-07 	0.007703643169 	4.551137077e-07 	1.4685285e-05
0.3211806827 	0.007240969521 	-0.003670516298 	-3.699310431e-07 	0.007088097697 	5.373950127e-07 	1.351188424e-05
0.3318561114 	0.006634741296 	-0.003327456564 	-4.28961374e-07 	0.006481860529 	5.792299386e-07 	1.235622771e-05
0.3427751605 	0.006044999618 	-0.002987873949 	-4.578503569e-07 	0.005898732476 	5.725733215e-07 	1.124462357e-05
0.3539506423 	0.005485214266 	-0.002661284919 	-4.523074434e-07 	0.005350126008 	5.18185011e-07 	1.019882716e-05
0.3653829505 	0.004965233228 	-0.002355342443 	-3.990348417e-07 	0.004843636603 	4.100741536e-07 	9.233317585e-06
0.3770803634 	0.004490041808 	-0.002074685519 	-3.035822359e-07 	0.004382192024 	2.689809957e-07 	8.353675966e-06
0.3890484713 	0.004059923902 	-0.001820597554 	-2.143291632e-07 	0.003964532306 	1.508054088e-07 	7.557500461e-06
0.401290936 	0.003671759874 	-0.001591412482 	-1.39457906e-07 	0.003586651418 	6.25720726e-08 	6.837154462e-06
0.4138181255 	0.003320998381 	-0.001383469776 	-8.221454227e-08 	0.003243718845 	4.244104478e-09 	6.183429663e-06
0.4266321816 	0.003003844851 	-0.001192357862 	-4.196208961e-08 	0.002932075313 	-2.879556348e-08 	5.589350475e-06
0.4397404215 	0.002718752226 	-0.001013888928 	-1.579207211e-08 	0.002650500087 	-4.311430745e-08 	5.052589835e-06
0.4531509595 	0.002467205361 	-0.0008447822886 	-9.456941478e-12 	0.002400809423 	-4.525853635e-08 	4.57661003e-06
0.4668681829 	0.002253462726 	-0.000682883035 	8.875529431e-09 	0.002187489786 	-4.067114634e-08 	4.169963514e-06
0.480899222 	0.002083092433 	-0.0005268132761 	1.369004789e-08 	0.002016209139 	-3.325226962e-08 	3.843454996e-06
0.4952525067 	0.001961161541 	-0.0003761944621 	1.637409711e-08 	0.001892039712 	-2.542153288e-08 	3.606753556e-06
0.5096079283 	0.001889858069 	-0.0002321259943 	1.819988117e-08 	0.001817234838 	-1.818938432e-08 	3.464154675e-06
0.5236469452 	0.001865412294 	-9.511582882e-05 	1.992067645e-08 	0.001788243505 	-1.157346233e-08 	3.408889138e-06
0.5373768093 	0.001880271316 	3.610280494e-05 	2.180200163e-08 	0.001797750157 	-5.313418614e-09 	3.427011457e-06
0.5508038793 	0.001927192487 	0.000163272169 	2.389825506e-08 	0.001838697129 	8.629789943e-10 	3.505067767e-06
0.5639341973 	0.002000554531 	0.0002880285311 	2.615615435e-08 	0.001905609506 	7.119122445e-09 	3.632621354e-06
0.5767746087 	0.002096352042 	0.0004118340928 	2.84550248e-08 	0.001994606471 	1.347834268e-08 	3.802274305e-06
0.5893312283 	0.002211836277 	0.0005358805276 	3.064572169e-08 	0.002103061588 	1.985997517e-08 	4.009019903e-06
0.6016099238 	0.002345097881 	0.0006609902425 	3.255756918e-08 	0.002229198081 	2.611800709e-08 	4.249471116e-06
0.6136172393 	0.002494158919 	0.0007875456503 	3.405296006e-08 	0.002371183276 	3.172866898e-08 	4.52013436e-06
0.6253586552 	0.002656182884 	0.0009156902767 	3.506979802e-08 	0.00252630622 	3.634511707e-08 	4.815841806e-06
0.6368401571 	0.002828674697 	0.001045308605 	3.546952023e-08 	0.00269219611 	4.037224374e-08 	5.132074042e-06
0.6480674684 	0.00301044785 	0.001175744319 	3.51813927e-08 	0.002867842083 	4.399358086e-08 	5.466904085e-06
0.6590460216 	0.003200606647 	0.001306052847 	3.428963282e-08 	0.003052542301 	4.709785017e-08 	5.818994037e-06
0.6697815048 	0.003398062353 	0.001435231635 	3.289628318e-08 	0.003245375629 	4.970581076e-08 	6.186587954e-06
0.680279021 	0.003601785368 	0.001562226953 	3.119670253e-08 	0.003445431197 	5.187027028e-08 	6.56794947e-06
0.6905440583 	0.003810849576 	0.001686045309 	2.945461139e-08 	0.00365190486 	5.371501702e-08 	6.961545657e-06
0.7005815237 	0.004024556201 	0.001807819113 	3.008518808e-08 	0.003863986679 	5.534030735e-08 	7.36583255e-06
0.7103966229 	0.004242788475 	0.001927474838 	2.79185304e-08 	0.004081189276 	5.739767474e-08 	7.779881068e-06
0.7199941148 	0.004466457427 	0.002038915128 	2.522476686e-08 	0.004304331419 	6.02986522e-08 	8.205252013e-06
0.7293789448 	0.004697303055 	0.002145883922 	2.697647806e-08 	0.004534637167 	6.372111098e-08 	8.644278777e-06
0.738555706 	0.004936019154 	0.002256391149 	2.884081681e-08 	0.004772213519 	6.744507614e-08 	9.097165335e-06
0.7475290786 	0.005181578061 	0.002369976583 	3.06643145e-08 	0.005016141549 	7.118907812e-08 	9.562159957e-06
0.7563035159 	0.005431870724 	0.002485741107 	3.233673322e-08 	0.00526464318 	7.466839491e-08 	1.003587313e-05
0.7648834459 	0.005683962325 	0.002602423632 	3.375583734e-08 	0.005515217942 	7.762044795e-08 	1.051353827e-05
0.7732731717 	0.005935176759 	0.002718843794 	3.481137047e-08 	0.005765461477 	7.982121983e-08 	1.0990572e-05
0.7814768955 	0.006183544929 	0.002834102944 	3.544529386e-08 	0.006013481974 	8.117353764e-08 	1.1463368e-05
0.7894987593 	0.006427393772 	0.002947420046 	3.56530242e-08 	0.006257599382 	8.168165969e-08 	1.192872363e-05
0.7973427702 	0.006665163029 	0.003058070605 	3.540910548e-08 	0.006496260633 	8.129015555e-08 	1.238367831e-05
0.8050128838 	0.006895396765 	0.00316539117 	3.466807482e-08 	0.006728066896 	7.989562826e-08 	1.282556547e-05
0.8125129484 	0.007116716494 	0.003268765574 	3.337697571e-08 	0.006951742608 	7.73795519e-08 	1.325195355e-05
0.8198467286 	0.00732777758 	0.003367600068 	3.147576016e-08 	0.007166074157 	7.360633661e-08 	1.366052905e-05
0.8270179208 	0.007527227985 	0.003461298189 	2.891692346e-08 	0.007369844405 	6.84633631e-08 	1.404897178e-05
0.8340301197 	0.007713684557 	0.003549243593 	2.567065398e-08 	0.007561784011 	6.186785443e-08 	1.441486201e-05
0.8408868512 	0.007885733441 	0.003630794327 	2.17279233e-08 	0.007740547234 	5.377255633e-08 	1.47556344e-05
0.8475915655 	0.008041944826 	0.003705285526 	1.71047275e-08 	0.007904708684 	4.418378359e-08 	1.506857175e-05
0.8541476286 	0.008180879119 	0.00377203383 	1.183083233e-08 	0.008052775938 	3.315349234e-08 	1.535082909e-05
0.8605583365 	0.008301063585 	0.003830337592 	5.94217953e-09 	0.0081832129 	2.078133208e-08 	1.559947819e-05
0.8668269138 	0.008400939202 	0.003879474205 	-5.171130689e-10 	0.008294480426 	7.220309022e-09 	1.581158502e-05
0.8729565094 	0.008478825334 	0.00391871092 	-7.472928228e-09 	0.008385118614 	-7.301687324e-09 	1.59843666e-05
0.8789502046 	0.00853300733 	0.00394736143 	-1.476914049e-08 	0.008453905795 	-2.238812895e-08 	1.611549409e-05
0.8848110136 	0.008562066698 	0.003964920543 	-2.211204321e-08 	0.008500113879 	-3.734964664e-08 	1.620357954e-05
0.8905418816 	0.008565490814 	0.003971268896 	-2.906510771e-08 	0.008523777028 	-5.132981065e-08 	1.624868808e-05
0.8961456894 	0.008544402491 	0.003966848955 	-3.515103611e-08 	0.008525670234 	-6.406432891e-08 	1.625229705e-05
0.9016252544 	0.008501902284 	0.003952558215 	-4.258003347e-08 	0.008506709546 	-7.573088084e-08 	1.621615271e-05
0.9069833311 	0.008441907394 	0.003913146092 	-5.905008168e-08 	0.008467224718 	-8.628148721e-08 	1.614088366e-05
0.9122226128 	0.00836666812 	0.003852787398 	-6.702942424e-08 	0.008407836826 	-9.501194956e-08 	1.602767383e-05
0.9173457334 	0.008276150105 	0.003789462809 	-6.461427946e-08 	0.008329997597 	-1.017240941e-07 	1.587929062e-05
0.9223552683 	0.008170061109 	0.003719908752 	-6.694940747e-08 	0.008234947061 	-1.072005502e-07 	1.569809788e-05
0.9272537359 	0.008048796316 	0.003643280491 	-6.828321858e-08 	0.008123263961 	-1.116673912e-07 	1.548519885e-05
0.9320435986 	0.00792452593 	0.003565878762 	-6.865268134e-08 	0.008006307948 	-1.147042008e-07 	1.526224819e-05
0.935161505 	0.007814991083 	0.003498989793 	-6.831018485e-08 	0.007901496447 	-1.163408783e-07 	1.506244834e-05
0.9381635043 	0.007713389754 	0.003439135522 	-6.748600933e-08 	0.007803033983 	-1.171448961e-07 	1.487475151e-05
0.9410539054 	0.007608623798 	0.003378481608 	-6.628401756e-08 	0.007700464514 	-1.173657579e-07 	1.46792256e-05
0.943836857 	0.007501097875 	0.003317430124 	-6.474746218e-08 	0.007594240419 	-1.170436821e-07 	1.447673295e-05
0.9465163534 	0.007391170703 	0.003256243315 	-6.29187429e-08 	0.007484761436 	-1.16217022e-07 	1.426803558e-05
0.9490962406 	0.007279150622 	0.003195152086 	-6.083716566e-08 	0.007372386321 	-1.149231928e-07 	1.405381738e-05
0.9515802214 	0.00716529754 	0.003134356093 	-5.853892109e-08 	0.007257432313 	-1.131981127e-07 	1.383468309e-05
0.9539718611 	0.00704982514 	0.003074024482 	-5.605727708e-08 	0.007140174077 	-1.110755457e-07 	1.36111563e-05
0.9562745926 	0.006932902236 	0.003014296587 	-5.342285254e-08 	0.007020843926 	-1.085868439e-07 	1.338367987e-05
0.9584917209 	0.006814653693 	0.002955282424 	-5.066390994e-08 	0.006899632038 	-1.057609139e-07 	1.315261632e-05
0.9606264282 	0.006695160908 	0.002897062908 	-4.780667745e-08 	0.006776686215 	-1.026243895e-07 	1.291824741e-05
0.9626817786 	0.006574461667 	0.002839689782 	-4.487563676e-08 	0.006652111048 	-9.920186452e-08 	1.268077252e-05
0.9646607222 	0.006452549147 	0.002783185002 	-4.189352744e-08 	0.006525966326 	-9.551562816e-08 	1.244030562e-05
0.9665660993 	0.00632936985 	0.002727539467 	-3.888168349e-08 	0.006398264413 	-9.158619773e-08 	1.219687028e-05
0.9684006446 	0.006204820143 	0.002672711068 	-3.586022604e-08 	0.00626896629 	-8.743264057e-08 	1.195039212e-05
0.9701669915 	0.006078740997 	0.002618621694 	-3.284822276e-08 	0.006137975868 	-8.307292228e-08 	1.170068797e-05
0.9718676751 	0.005950910413 	0.002565152959 	-2.98638295e-08 	0.006005132026 	-7.852430674e-08 	1.144745068e-05
0.9735051364 	0.005821032798 	0.002512140273 	-2.692441359e-08 	0.005870197652 	-7.380381991e-08 	1.119022826e-05
0.9750817257 	0.005688724335 	0.002459364728 	-2.404665617e-08 	0.005732844706 	-6.89287904e-08 	1.092839537e-05
0.9765997058 	0.005553492987 	0.00240654208 	-2.124662843e-08 	0.005592633981 	-6.391748124e-08 	1.066111476e-05
0.9780612557 	0.005414711312 	0.002353307837 	-1.853983398e-08 	0.00544898769 	-5.87898279e-08 	1.0387285e-05
0.979468473 	0.005271579522 	0.002299197014 	-1.594120576e-08 	0.005301152349 	-5.356829531e-08 	1.010546976e-05
0.9808233775 	0.005123075247 	0.002243616597 	-1.346505253e-08 	0.005148148399 	-4.827888262e-08 	9.813801702e-06
0.9821279139 	0.004967885116 	0.002185807794 	-1.112490641e-08 	0.004988701665 	-4.29521642e-08 	9.509851911e-06
0.9833839547 	0.004804311451 	0.002124793933 	-8.933303251e-09 	0.004821150007 	-3.762449433e-08 	9.190451883e-06
0.9845933026 	0.004630145036 	0.002059308032 	-6.901463032e-09 	0.004643316354 	-3.233926148e-08 	8.851451513e-06
0.9857576935 	0.004442492615 	0.001987691485 	-5.038869594e-09 	0.004452336872 	-2.714808132e-08 	8.487391542e-06
0.9868787986 	0.004237547539 	0.001907752102 	-3.352790897e-09 	0.004244429543 	-2.211159195e-08 	8.091062386e-06
0.987958227 	0.004010292888 	0.001817504524 	-1.855795593e-09 	0.00401459761 	-1.729999959e-08 	7.652938844e-06
0.9889975281 	0.003775830094 	0.001718078823 	-6.231474483e-10 	0.003778097345 	-1.313956344e-08 	7.202103607e-06
0.9896675743 	0.003560290866 	0.001623370108 	2.770148618e-10 	0.003561149632 	-9.946317893e-09 	6.788540969e-06
0.9903376206 	0.003344579865 	0.001528980003 	9.813454031e-10 	0.003344407181 	-7.274854745e-09 	6.375369617e-06
0.9910076668 	0.003098559807 	0.001417151566 	1.620963357e-09 	0.003097546944 	-4.778595576e-09 	5.904785393e-06
0.991677713 	0.002815928598 	0.001284202323 	2.182486686e-09 	0.00281428633 	-2.509599026e-09 	5.364811936e-06
0.9923477593 	0.002490340154 	0.0011255243 	2.645459865e-09 	0.002488300122 	-5.327959228e-10 	4.743391621e-06
0.9930178055 	0.002117599505 	0.0009376460951 	2.963855174e-09 	0.002115410843 	1.065681955e-09 	4.032561015e-06
0.9936878517 	0.001700556386 	0.0007222252978 	3.044545027e-09 	0.001698471684 	2.168672881e-09 	3.237759095e-06
0.994357898 	0.001257258592 	0.0004932662269 	2.754320516e-09 	0.001255502791 	2.640805608e-09 	2.393337269e-06
0.9950279442 	0.0008277796887 	0.0002821270156 	2.043690224e-09 	0.0008265000719 	2.423829321e-09 	1.575538851e-06
0.9956979904 	0.0004665494233 	0.000126057986 	1.137607675e-09 	0.0004657691442 	1.701999623e-09 	8.878854428e-07
0.9963680367 	0.0002143988294 	4.054556822e-05 	4.317683112e-10 	0.0002140188582 	8.897679573e-10 	4.079794273e-07
0.9970380829 	7.438005299e-05 	8.392840092e-06 	9.973657214e-11 	7.424309543e-05 	3.285753948e-10 	1.415279747e-07
0.9977081291 	1.67225997e-05 	9.07700674e-07 	1.153345675e-11 	1.669114506e-05 	7.593266888e-11 	3.181796154e-08
0.9983781754 	1.725402098e-06 	3.02525667e-08 	4.032738647e-13 	1.722126703e-06 	8.01564931e-12 	3.282852136e-09
0.9990482216 	4.609208957e-08 	1.101781968e-10 	1.547409162e-15 	4.600440225e-08 	2.24065502e-13 	8.769717695e-11
0.9990482216 	4.609208957e-08 	1.101781968e-10 	1.547409162e-15 	4.600440225e-08 	2.24065502e-13 	8.769717695e-11
