0.4690716797 	0.01684134626 	-0.0001924818638 	-5.435479274e-07
0.4690716797 	0.01684134626 	-0.0001924818638 	-5.435479274e-07
0.4694153175 	0.05527215645 	-0.0006283696428 	-1.786167893e-06
0.469758957 	0.1103584388 	-0.001251585099 	-3.567075011e-06
0.4701025979 	0.1652284572 	-0.001872415137 	-5.341373881e-06
0.4704462403 	0.2197512603 	-0.002488659507 	-7.102175438e-06
0.470789884 	0.2735887914 	-0.003096343096 	-8.836234541e-06
0.4711335288 	0.3261146943 	-0.003688434326 	-1.052168943e-05
0.4714771746 	0.3764735249 	-0.004255325257 	-1.212976465e-05
0.4718208214 	0.4238087055 	-0.004787392539 	-1.3632031e-05
0.4721644689 	0.4675220602 	-0.00527794488 	-1.500874734e-05
0.4725081171 	0.5073918692 	-0.005724555496 	-1.625264551e-05
0.4728517659 	0.5435200955 	-0.006128459453 	-1.736716968e-05
0.4731954152 	0.5762070897 	-0.006493147166 	-1.836220673e-05
0.4735390647 	0.6058738117 	-0.006823487593 	-1.925161744e-05
0.4738827145 	0.6329598375 	-0.007124565515 	-2.004990903e-05
0.4742263643 	0.6610787201 	-0.007436512393 	-2.087132358e-05
0.4747593958 	0.6928311229 	-0.007787819443 	-2.175581657e-05
0.475313007 	0.7246507226 	-0.008138991469 	-2.261970833e-05
0.4758879919 	0.7539482363 	-0.008461589286 	-2.33828467e-05
0.4764851751 	0.7810316705 	-0.008759090783 	-2.405628825e-05
0.4771054127 	0.8061743748 	-0.009034593256 	-2.465010343e-05
0.4777495939 	0.8296151444 	-0.009290806468 	-2.517324726e-05
0.4784186421 	0.8515606953 	-0.009530053448 	-2.563355663e-05
0.4791135159 	0.8721892504 	-0.009754301316 	-2.603784232e-05
0.4798352111 	0.8916659513 	-0.009965363657 	-2.639248118e-05
0.480586618 	0.9101349273 	-0.01016480991 	-2.670134975e-05
0.481367742 	0.9276980735 	-0.01035370244 	-2.696820234e-05
0.4821790195 	0.9444395706 	-0.01053290396 	-2.719635401e-05
0.4830216143 	0.9604487861 	-0.010703375 	-2.738888648e-05
0.4838967353 	0.9758168613 	-0.01086613286 	-2.754832238e-05
0.4848056377 	0.9906249081 	-0.0110220981 	-2.767654106e-05
0.4857496254 	1.004933783 	-0.01117196172 	-2.777470793e-05
0.4867300527 	1.018791001 	-0.01131623298 	-2.784364477e-05
0.4877483258 	1.032238767 	-0.01145533722 	-2.788450548e-05
0.4888059054 	1.045314738 	-0.01158964408 	-2.789827515e-05
0.4899043087 	1.058053441 	-0.01171947545 	-2.788581535e-05
0.4910453892 	1.070494813 	-0.01184522155 	-2.784794159e-05
0.4922339067 	1.082672643 	-0.01196719325 	-2.778306116e-05
0.4934682984 	1.094600885 	-0.01208547133 	-2.769404299e-05
0.4947503344 	1.106293908 	-0.01220014542 	-2.758112726e-05
0.4960818535 	1.117772706 	-0.01231136617 	-2.744473731e-05
0.497464765 	1.129056558 	-0.01241925572 	-2.728522695e-05
0.4989010523 	1.140163227 	-0.01252390924 	-2.710287756e-05
0.500392775 	1.151109694 	-0.01262541663 	-2.689796815e-05
0.5019423876 	1.161918836 	-0.01272396958 	-2.667091429e-05
0.5035560461 	1.173903852 	-0.01283113895 	-2.643650793e-05
0.506034969 	1.188069924 	-0.01295392832 	-2.601287814e-05
0.5085700355 	1.202835762 	-0.01307763068 	-2.557590952e-05
0.5111625179 	1.216993044 	-0.01319154437 	-2.511269943e-05
0.513816679 	1.230624292 	-0.01329610631 	-2.462714942e-05
0.5165349202 	1.243792951 	-0.0133914212 	-2.412543684e-05
0.5193147158 	1.256545195 	-0.01347747204 	-2.361266166e-05
0.5221574604 	1.268926601 	-0.01355449064 	-2.308648599e-05
0.525068322 	1.280978515 	-0.013622975 	-2.254086829e-05
0.5280482312 	1.292726191 	-0.01368346624 	-2.197529159e-05
0.5310956115 	1.304187193 	-0.01373639627 	-2.139476888e-05
0.5342119921 	1.315388941 	-0.01378208349 	-2.08041532e-05
0.5374056303 	1.32636036 	-0.0138206494 	-2.020399168e-05
0.5406716214 	1.337116703 	-0.01385210668 	-1.960172162e-05
0.5440115543 	1.347675309 	-0.01387655694 	-1.899791467e-05
0.5474317788 	1.358055676 	-0.01389410105 	-1.839065491e-05
0.5509313062 	1.368259794 	-0.0139046576 	-1.778373755e-05
0.554510056 	1.378270112 	-0.01390777079 	-1.717807594e-05
0.5581740681 	1.388041298 	-0.01390221814 	-1.656944984e-05
0.5619230782 	1.397487868 	-0.01388605445 	-1.595907355e-05
0.5657569542 	1.406520214 	-0.01385825682 	-1.535432071e-05
0.5696826622 	1.415128413 	-0.01381977458 	-1.475709781e-05
0.5736981981 	1.423376927 	-0.01377267077 	-1.417326934e-05
0.5778056658 	1.431305568 	-0.01371920367 	-1.360218564e-05
0.5820107643 	1.438907543 	-0.01366016812 	-1.304012139e-05
0.5863110474 	1.446160213 	-0.01359512379 	-1.249196016e-05
0.5907123103 	1.45303191 	-0.01352381724 	-1.195776967e-05
0.5952149033 	1.459480034 	-0.01344609835 	-1.144068073e-05
0.5998210106 	1.465453144 	-0.01336187181 	-1.094088106e-05
0.6045347726 	1.47089438 	-0.01327110238 	-1.045947892e-05
0.6093556248 	1.475746059 	-0.01317387068 	-9.997919663e-06
0.6142898344 	1.479957513 	-0.01307034283 	-9.556134614e-06
0.6193357439 	1.483492345 	-0.01296079348 	-9.13648799e-06
0.6244999453 	1.486335706 	-0.01284555576 	-8.738650707e-06
0.62978124 	1.488496848 	-0.0127249316 	-8.365165987e-06
0.6351857106 	1.490007513 	-0.01259909714 	-8.015766444e-06
0.6407128096 	1.490920072 	-0.0124683504 	-7.692554372e-06
0.6463685563 	1.491306724 	-0.01233310467 	-7.395657729e-06
0.6521528335 	1.491246858 	-0.01219349661 	-7.126547309e-06
0.6580708008 	1.490809185 	-0.01204946892 	-6.885248157e-06
0.6641238257 	1.490045549 	-0.01190103179 	-6.671773042e-06
0.6703157267 	1.488993141 	-0.01174814833 	-6.486428444e-06
0.6766495315 	1.48767728 	-0.01159069016 	-6.328180182e-06
0.6831276993 	1.486113685 	-0.01142848049 	-6.196956357e-06
0.6897547862 	1.484310091 	-0.01126129611 	-6.091504963e-06
0.6965328513 	1.482267595 	-0.01108887776 	-6.010728479e-06
0.7034655747 	1.479981169 	-0.0109109047 	-5.953654433e-06
0.7105569188 	1.477439887 	-0.01072699287 	-5.918367928e-06
0.7178097328 	1.474626958 	-0.01053669991 	-5.903260931e-06
0.7252277431 	1.47151926 	-0.0103394954 	-5.90664409e-06
0.7328151134 	1.468107964 	-0.0101358891 	-5.927160835e-06
0.740403062 	1.46443381 	-0.009928989039 	-5.960922981e-06
0.7478232906 	1.460555982 	-0.009722262465 	-6.003428979e-06
0.7550796078 	1.456500319 	-0.009517041502 	-6.053223295e-06
0.7621755119 	1.452274321 	-0.00931387205 	-6.10909405e-06
0.7691143653 	1.447887228 	-0.009113546988 	-6.167722391e-06
0.7758997423 	1.44334224 	-0.00891611636 	-6.224065911e-06
0.7825349602 	1.438625728 	-0.008720452093 	-6.273001147e-06
0.7890232247 	1.433709513 	-0.008524732467 	-6.313279146e-06
0.7953679181 	1.428556953 	-0.008327433749 	-6.346966702e-06
0.8015720647 	1.4231254 	-0.008127847462 	-6.373681627e-06
0.8076388118 	1.417372652 	-0.007925652388 	-6.392975994e-06
0.8135711984 	1.411266673 	-0.007720899796 	-6.404130878e-06
0.8193721427 	1.404793833 	-0.007514007145 	-6.407001692e-06
0.8250446152 	1.397962612 	-0.007305667093 	-6.401327534e-06
0.8305913774 	1.390801815 	-0.007096726264 	-6.38724877e-06
0.8360152831 	1.383354181 	-0.006888068728 	-6.364977116e-06
0.8413189807 	1.375667775 	-0.006680532621 	-6.334836824e-06
0.8465051852 	1.367787599 	-0.006474847304 	-6.297188489e-06
0.8515764489 	1.359749441 	-0.006271592408 	-6.25232081e-06
0.8565353573 	1.35157734 	-0.006071185244 	-6.200485442e-06
0.8613843635 	1.343284985 	-0.005873907096 	-6.141932835e-06
0.8661259247 	1.334879348 	-0.005679952203 	-6.076853845e-06
0.8707624045 	1.326364185 	-0.005489464931 	-6.005577421e-06
0.8752961379 	1.317742169 	-0.005302559592 	-5.928288036e-06
0.8797293987 	1.309015804 	-0.005119326529 	-5.845362946e-06
0.8840644095 	1.30018759 	-0.004939834263 	-5.757007668e-06
0.8883033527 	1.29125982 	-0.004764130775 	-5.663570027e-06
0.8924483497 	1.282234255 	-0.004592241799 	-5.565317453e-06
0.8965014864 	1.273111798 	-0.004424173994 	-5.462500872e-06
0.9004647957 	1.263892238 	-0.004259913524 	-5.35544553e-06
0.9043402667 	1.254574074 	-0.004099428779 	-5.24436258e-06
0.9081298488 	1.245154394 	-0.003942672932 	-5.12952179e-06
0.9118354417 	1.235628814 	-0.003789584053 	-5.011173364e-06
0.9154589071 	1.22599144 	-0.003640089263 	-4.889509475e-06
0.9190020657 	1.216234832 	-0.003494105766 	-4.76477004e-06
0.9224666954 	1.20634996 	-0.003351541476 	-4.637150743e-06
0.9258545367 	1.196326114 	-0.00321229742 	-4.506812203e-06
0.9291672913 	1.186150738 	-0.003076266373 	-4.373936056e-06
0.9324066224 	1.175809166 	-0.002943330732 	-4.23866363e-06
0.9355741569 	1.165284193 	-0.002813360686 	-4.101094795e-06
0.9386714862 	1.154555459 	-0.002686209584 	-3.961315308e-06
0.9417001653 	1.143598602 	-0.002561708184 	-3.819373249e-06
0.9446617156 	1.132384138 	-0.00243966107 	-3.675251768e-06
0.9475576245 	1.120876052 	-0.002319850277 	-3.5289054e-06
0.9503893467 	1.109030037 	-0.002202063212 	-3.380317079e-06
0.9531583042 	1.096791197 	-0.002086147806 	-3.229663083e-06
0.955865888 	1.084095119 	-0.001971974892 	-3.077164023e-06
0.9585134581 	1.070873397 	-0.001859454972 	-2.922929599e-06
0.9611023443 	1.057053761 	-0.001748515737 	-2.767102558e-06
0.963633847 	1.043775623 	-0.001647901106 	-2.62446316e-06
0.9652817078 	1.032521469 	-0.001566923864 	-2.504292302e-06
0.9668683161 	1.022344751 	-0.001496952384 	-2.400518654e-06
0.9683959484 	1.012022938 	-0.001429043613 	-2.298518634e-06
0.9698667968 	1.001543411 	-0.001363092845 	-2.198286985e-06
0.9712829717 	0.9908925356 	-0.001299019776 	-2.099840648e-06
0.9726465054 	0.9800555175 	-0.001236756814 	-2.003206361e-06
0.9739593543 	0.9690162366 	-0.001176241383 	-1.908411951e-06
0.9752234025 	0.957757065 	-0.00111741527 	-1.815485486e-06
0.9764404637 	0.9462586481 	-0.001060224921 	-1.724456163e-06
0.9776122844 	0.9344996448 	-0.001004621362 	-1.635356087e-06
0.9787405463 	0.9224564355 	-0.0009505600783 	-1.548221062e-06
0.9798268682 	0.9101027839 	-0.0008980009388 	-1.463090186e-06
0.9808728092 	0.897409435 	-0.0008469080431 	-1.380006451e-06
0.9818798702 	0.8843436378 	-0.0007972498817 	-1.299025812e-06
0.9828494963 	0.8708685774 	-0.0007490003223 	-1.220225422e-06
0.983783079 	0.8569425925 	-0.000702136893 	-1.143450215e-06
0.9846819581 	0.8425131692 	-0.0006566129754 	-1.068506351e-06
0.9855474236 	0.8275118623 	-0.0006123589824 	-9.952318506e-07
0.9863807173 	0.8118610186 	-0.0005693191428 	-9.236413572e-07
0.9871830353 	0.7954786049 	-0.0005274750232 	-8.53980598e-07
0.9879555288 	0.7782745678 	-0.0004868413025 	-7.863497765e-07
0.9886993065 	0.7601469577 	-0.0004474425686 	-7.208263316e-07
0.9894154357 	0.7409787849 	-0.0004093066181 	-6.574967116e-07
0.9901049443 	0.7206351707 	-0.0003724639579 	-5.964556688e-07
0.9907688218 	0.6989606484 	-0.0003369488271 	-5.378015436e-07
0.9914080208 	0.6757766434 	-0.0003028004296 	-4.816339374e-07
0.9920234588 	0.6508795498 	-0.0002700636203 	-4.280517724e-07
0.9926160189 	0.6240403347 	-0.0002387887963 	-3.771501512e-07
0.9931865516 	0.5950055117 	-0.0002090333726 	-3.290230819e-07
0.9937358757 	0.5661530299 	-0.0001830933084 	-2.873813408e-07
0.99409003 	0.5406836539 	-0.0001628153264 	-2.549450692e-07
0.9944441846 	0.5161621414 	-0.0001453172704 	-2.270891401e-07
0.9947983395 	0.4893052007 	-0.0001281568933 	-1.998537558e-07
0.9951524947 	0.459811691 	-0.0001114023715 	-1.733393983e-07
0.9955066502 	0.4274359895 	-9.515906308e-05 	-1.477109645e-07
0.995860806 	0.3920425853 	-7.955533944e-05 	-1.231726164e-07
0.9962149621 	0.3536985315 	-6.475664084e-05 	-9.998382072e-08
0.9965691185 	0.3127453139 	-5.096666007e-05 	-7.846107771e-08
0.9969232752 	0.2697803297 	-3.841357259e-05 	-5.895436044e-08
0.9972774322 	0.2255152082 	-2.732200684e-05 	-4.179863555e-08
0.9976315895 	0.1805811444 	-1.788695829e-05 	-2.726561275e-08
0.997985747 	0.1354042612 	-1.028179768e-05 	-1.558884972e-08
0.9983399049 	0.09020313266 	-4.729034978e-06 	-7.172686182e-09
0.9986940631 	0.04506063648 	-1.508779477e-06 	-2.791745552e-09
0.9990482216 	0.0164473002 	-3.782060941e-07 	-1.266485915e-09
0.9990482216 	0.0164473002 	-3.782060941e-07 	-1.266485915e-09
