0.3810353131 	0.02151654421 	0.002782339706 	-1.63403882e-06
0.3813884705 	0.07376559671 	0.009475285621 	-5.665958417e-06
0.3817416543 	0.1468599653 	0.01881304989 	-1.093288084e-05
0.3820948603 	0.2192063447 	0.02806724715 	-1.58260568e-05
0.3824480844 	0.2905496458 	0.03718851792 	-2.031621825e-05
0.3828013223 	0.3602919054 	0.04609633205 	-2.435197126e-05
0.3831545698 	0.4274548958 	0.05466594813 	-2.78641918e-05
0.3835078228 	0.4909127175 	0.06275397071 	-3.079731157e-05
0.3838610772 	0.5497864981 	0.07024846695 	-3.31408919e-05
0.3842143287 	0.6037039397 	0.0771025981 	-3.494284496e-05
0.3845675733 	0.6528943435 	0.08334665667 	-3.62836759e-05
0.3849208068 	0.6979423355 	0.08905622656 	-3.722687797e-05
0.3852740251 	0.739345864 	0.09429570849 	-3.781025313e-05
0.385627224 	0.7774613216 	0.09911118334 	-3.806703629e-05
0.3859803996 	0.8126085358 	0.1035437382 	-3.802994269e-05
0.3863335476 	0.8493639798 	0.1081706834 	-3.7906143e-05
0.3868812478 	0.8911090804 	0.1134115539 	-3.680784864e-05
0.3874499978 	0.93314914 	0.118673067 	-3.533167659e-05
0.3880405847 	0.9721488382 	0.1235352212 	-3.337459906e-05
0.3886538221 	1.008703585 	0.1280738935 	-3.097747437e-05
0.38929055 	1.043208487 	0.1323394558 	-2.815869458e-05
0.3899516357 	1.075867351 	0.1363577064 	-2.492870318e-05
0.3906379739 	1.106819495 	0.1401459559 	-2.129723269e-05
0.3913504871 	1.136160567 	0.1437157141 	-1.727464483e-05
0.3920901257 	1.163934025 	0.1470713805 	-1.287418649e-05
0.3928578679 	1.190111225 	0.1502074707 	-8.119834113e-06
0.3936547198 	1.214589859 	0.1531082308 	-3.053826255e-06
0.3941306705 	1.227652798 	0.1546342897 	4.535341105e-05
0.3944807552 	1.237292277 	0.1557613693 	-2.181311343e-06
0.3953475702 	1.258158213 	0.158154185 	-7.584875996e-06
0.3962595561 	1.276969318 	0.1602517207 	-1.32363081e-05
0.3972062093 	1.293513807 	0.1620265136 	-1.899541439e-05
0.3981888309 	1.307869516 	0.1634877442 	-2.483914388e-05
0.3992087697 	1.320222478 	0.1646563528 	-3.07306323e-05
0.4002674244 	1.330651554 	0.1655413281 	-3.661989961e-05
0.4013662449 	1.339226473 	0.1661506437 	-4.248636251e-05
0.4025067345 	1.34610038 	0.1665036087 	-4.83507106e-05
0.4036904516 	1.351489186 	0.1666285165 	-5.424661155e-05
0.4049190122 	1.355631014 	0.1665561865 	-6.020242998e-05
0.4061940912 	1.358754411 	0.1663178139 	-6.625879289e-05
0.4075174253 	1.361079415 	0.1659447251 	-7.246126649e-05
0.4088974251 	1.362817017 	0.1654620672 	-7.886223944e-05
0.4103585888 	1.364128587 	0.1648871858 	-8.559409825e-05
0.411874817 	1.365115832 	0.1642381681 	-9.24637823e-05
0.4134481514 	1.365852436 	0.1635292191 	-9.945580464e-05
0.415080708 	1.366392099 	0.1627674935 	-0.0001065524676
0.4167746803 	1.36680583 	0.1618597781 	-0.0001136349263
0.4193738901 	1.367092926 	0.1606913385 	-0.0001244156193
0.4220281845 	1.367174932 	0.1593698293 	-0.0001345598666
0.4247994043 	1.367065266 	0.1579911719 	-0.0001206847033
0.4276328339 	1.366794472 	0.1565676178 	-0.0001070883111
0.4305258756 	1.366382871 	0.1551159626 	-9.378853477e-05
0.4334798118 	1.365826032 	0.1536329458 	-8.060573935e-05
0.4365157626 	1.365099323 	0.1520971054 	-6.753373455e-05
0.4396642916 	1.364193341 	0.1505038738 	-5.462032624e-05
0.4428786391 	1.363130337 	0.1488719224 	-4.210157178e-05
0.4461602362 	1.361940776 	0.1472102856 	-2.995220885e-05
0.4495231813 	1.360642741 	0.1455136818 	-1.812042464e-05
0.4530154029 	1.35925241 	0.1437791113 	-6.422494e-06
0.4550276535 	1.358428195 	0.1427848708 	-4.967660494e-05
0.4565776114 	1.357790552 	0.1420203779 	-4.767916018e-06
0.4602107055 	1.356271356 	0.140244026 	-1.543480927e-05
0.4639559416 	1.354697524 	0.1384408901 	-2.584341657e-05
0.4678163894 	1.353073238 	0.1366113345 	-3.596325083e-05
0.4717570908 	1.351407102 	0.1347640607 	-4.564922345e-05
0.4757919202 	1.34969638 	0.1328966116 	-5.493802584e-05
0.4799729276 	1.347936336 	0.1310024678 	-6.396142514e-05
0.4842405501 	1.346132987 	0.1290897973 	-7.250436893e-05
0.488605864 	1.344284705 	0.1271592708 	-8.05944061e-05
0.4931269537 	1.342385443 	0.1252036919 	-8.835964743e-05
0.4977415191 	1.340439184 	0.1232296174 	-8.691766472e-05
0.5024756562 	1.338444652 	0.1212375561 	-7.622561994e-05
0.5073571758 	1.336398753 	0.1192240524 	-6.591785797e-05
0.512339608 	1.334302473 	0.1171931092 	-5.613349753e-05
0.5174781532 	1.332153261 	0.1151424213 	-4.674962044e-05
0.5227415229 	1.32995133 	0.1130736703 	-3.786935574e-05
0.5281366949 	1.327696222 	0.1109884059 	-2.948051432e-05
0.5336897591 	1.325386331 	0.1088852457 	-2.15537231e-05
0.5393628973 	1.323020821 	0.106766276 	-1.416682577e-05
0.5452145328 	1.320598126 	0.1046299979 	-7.22844778e-06
0.5511874012 	1.31811751 	0.1024786648 	-8.432231128e-07
0.552041361 	1.31776535 	0.1021778332 	-1.92221596e-05
0.5573406867 	1.31557547 	0.1003122024 	-5.034410712e-06
0.5636240519 	1.312972866 	0.09813151311 	-1.037242559e-05
0.5700946173 	1.310308836 	0.0959363342 	-1.525557989e-05
0.5767061473 	1.307581904 	0.09372791125 	-1.96251036e-05
0.5835069224 	1.304790054 	0.09150612541 	-2.353838637e-05
0.5904632679 	1.301931944 	0.08927210634 	-2.696650965e-05
0.5976026856 	1.299005425 	0.08702646541 	-2.993951084e-05
0.6049171433 	1.296008364 	0.08476961641 	-3.2464427e-05
0.6124068726 	1.292938173 	0.0825024397 	-3.454840528e-05
0.6200921811 	1.289790663 	0.08022440119 	-3.622199742e-05
0.6279566857 	1.286563782 	0.07793681955 	-3.748940035e-05
0.6360136361 	1.283253341 	0.07564020047 	-3.837335717e-05
0.6442692243 	1.279854238 	0.07333432375 	-3.889849824e-05
0.6527181401 	1.276362544 	0.07102018563 	-3.90816548e-05
0.6613675425 	1.27277189 	0.06869800208 	-3.894578405e-05
0.6702274725 	1.269074561 	0.06636723461 	-3.851791988e-05
0.6792935168 	1.265284573 	0.06404077111 	-3.782808464e-05
0.6883649462 	1.261460622 	0.06175810268 	-3.634810206e-05
0.6972413332 	1.257661985 	0.05955502009 	-3.430159956e-05
0.7059277796 	1.253904158 	0.05743810654 	-3.254362685e-05
0.7144237362 	1.250182613 	0.05540253997 	-3.102871596e-05
0.7227332366 	1.24649218 	0.05344376948 	-2.971814288e-05
0.7308633074 	1.242827275 	0.0515573556 	-2.857720251e-05
0.7388142626 	1.239183092 	0.04973941791 	-2.757736098e-05
0.7465897049 	1.235554435 	0.0479863105 	-2.669613517e-05
0.7541959686 	1.231935643 	0.04629455006 	-2.591255365e-05
0.7616339741 	1.228321533 	0.04466091705 	-2.520937489e-05
0.7689081397 	1.224706629 	0.04308251841 	-2.396785948e-05
0.7760226514 	1.221085267 	0.04155655841 	-2.27033073e-05
0.7829796733 	1.217451887 	0.0400803817 	-2.14780062e-05
0.7897841164 	1.213800745 	0.03865165333 	-2.029483182e-05
0.796438081 	1.210126196 	0.03726805882 	-1.915618265e-05
0.80294561 	1.20642252 	0.03592754608 	-1.806229216e-05
0.8093095587 	1.202683965 	0.0346281241 	-1.70146919e-05
0.8155332585 	1.198904773 	0.03336796975 	-1.601233185e-05
0.8216197627 	1.195079123 	0.03214537132 	-1.505585296e-05
0.827572097 	1.191201127 	0.03095872863 	-1.414361653e-05
0.8333932385 	1.18726476 	0.02980655195 	-1.327559966e-05
0.8390860938 	1.183263823 	0.02868743474 	-1.244987264e-05
0.8446534567 	1.179191888 	0.02760007529 	-1.166596624e-05
0.8500981786 	1.175042249 	0.0265432175 	-1.092186519e-05
0.8554228511 	1.170807894 	0.02551572916 	-1.021673395e-05
0.8606302747 	1.166481451 	0.02451645871 	-9.548725619e-06
0.8657228796 	1.162055173 	0.02354442612 	-8.916567803e-06
0.8707033347 	1.157520843 	0.02259857967 	-8.318882799e-06
0.8755740165 	1.152869692 	0.02167801333 	-7.753934881e-06
0.8803373791 	1.14809225 	0.02078181616 	-7.220688173e-06
0.8849957983 	1.143178149 	0.01990908073 	-6.717374475e-06
0.8895515478 	1.138115977 	0.01905902416 	-6.242852121e-06
0.8940069298 	1.13289312 	0.01823075137 	-5.795842055e-06
0.8983641218 	1.127495778 	0.01742346016 	-5.374838286e-06
0.9026252846 	1.121909196 	0.01663635054 	-4.978819211e-06
0.9067925517 	1.116118103 	0.01586853532 	-4.60645346e-06
0.9108679623 	1.110107473 	0.01511921234 	-4.256476954e-06
0.9148535424 	1.103863407 	0.01438753421 	-3.927860519e-06
0.9187512738 	1.097373992 	0.0136726136 	-3.61934841e-06
0.9225630747 	1.090629991 	0.01297364954 	-3.329769642e-06
0.9262908367 	1.083625075 	0.0122898467 	-3.058113479e-06
0.9299364098 	1.076355522 	0.01162041585 	-2.803297282e-06
0.933501593 	1.068819596 	0.01096467586 	-2.564318355e-06
0.9369881536 	1.061016881 	0.01032200351 	-2.340465493e-06
0.9403978207 	1.052947994 	0.009691739904 	-2.131131321e-06
0.9437322807 	1.04461473 	0.009073225173 	-1.935630937e-06
0.9469931854 	1.036019613 	0.008465776353 	-1.753092355e-06
0.9501821516 	1.027162167 	0.007868746845 	-1.582034553e-06
0.9533007598 	1.018027831 	0.007281953593 	-1.420504981e-06
0.9563505546 	1.009360224 	0.006753149783 	-1.275281849e-06
0.9583359594 	1.002069367 	0.006331246056 	-1.174575037e-06
0.9602476889 	0.9954802668 	0.005969293643 	-1.085486355e-06
0.9620884727 	0.9887835478 	0.005620871895 	-1.001820628e-06
0.9638609394 	0.9819623119 	0.005285707867 	-9.237088366e-07
0.9655676202 	0.9749975406 	0.004963399729 	-8.506980946e-07
0.967210953 	0.9678679917 	0.004653649412 	-7.824656607e-07
0.968793286 	0.9605500849 	0.004356186325 	-7.187406866e-07
0.9703168801 	0.9530177671 	0.004070747468 	-6.592612747e-07
0.9717839131 	0.9452423525 	0.003797077139 	-6.037846444e-07
0.9731964818 	0.9371923336 	0.003534917533 	-5.521269496e-07
0.9745566058 	0.9288331613 	0.003283980323 	-5.041003122e-07
0.9758662299 	0.920126859 	0.003044038803 	-4.590947471e-07
0.9771272267 	0.9110246644 	0.002815051839 	-4.168630152e-07
0.9783413998 	0.9014568624 	0.002596953552 	-3.773399076e-07
0.979510486 	0.8913399151 	0.002389717595 	-3.401573648e-07
0.9806361577 	0.8805911543 	0.002193405624 	-3.053650443e-07
0.9817200256 	0.8691305412 	0.002007906452 	-2.730758067e-07
0.9827636406 	0.8568764061 	0.001832983547 	-2.432239434e-07
0.9837684963 	0.8437428349 	0.001668357924 	-2.157127126e-07
0.9847360307 	0.8296376478 	0.00151372225 	-1.904492654e-07
0.985667629 	0.8144604979 	0.001368741156 	-1.673403177e-07
0.9865646246 	0.7981008831 	0.001233053989 	-1.462885611e-07
0.9874283018 	0.7804360019 	0.001106278696 	-1.271922971e-07
0.9882598972 	0.7613284037 	0.0009880178172 	-1.099457951e-07
0.9890606017 	0.7406231008 	0.0008778671616 	-9.444042773e-08
0.9898315618 	0.7181420227 	0.0007754187184 	-8.056662341e-08
0.9905738817 	0.6936807144 	0.0006802670137 	-6.821381548e-08
0.9912886248 	0.6670122031 	0.0005920324718 	-5.726879345e-08
0.9919768147 	0.6378888238 	0.0005103662681 	-4.761987397e-08
0.9926394374 	0.608736444 	0.0004408548403 	-3.969268138e-08
0.9930666442 	0.5828875519 	0.0003875768566 	-3.409696029e-08
0.9934938574 	0.5579976347 	0.0003423367046 	-2.943110459e-08
0.9939210772 	0.5308341923 	0.0002987006204 	-2.510507364e-08
0.9943483034 	0.50114352 	0.000256837609 	-2.112163365e-08
0.9947755362 	0.4685901348 	0.0002168820287 	-1.747713895e-08
0.9952027755 	0.4328126208 	0.0001789970739 	-1.41579043e-08
0.9956300212 	0.393633892 	0.0001435410704 	-1.116224877e-08
0.9960572735 	0.3511672247 	0.0001110211183 	-8.502582059e-09
0.9964845323 	0.3058004963 	8.199178217e-05 	-6.193043798e-09
0.9969117976 	0.2581164764 	5.69832187e-05 	-4.248761026e-09
0.9973390694 	0.208710865 	3.647238523e-05 	-2.682822978e-09
0.9977663477 	0.1580252635 	2.074037076e-05 	-1.497858921e-09
0.9981936325 	0.1062970909 	8.885165301e-06 	-6.435093638e-10
0.9986209238 	0.05361470757 	-3.192294055e-06 	6.557411645e-11
0.9990482216 	0.01951436597 	-7.269378869e-06 	2.916606469e-10
