0 	0.5918996298 	-2.644974001e-14 	5.052718535e-19
0.0006350119567 	0.5919003969 	-4.970091034e-05 	1.801459683e-08
0.001270022022 	0.5919057534 	-9.3420844e-05 	3.340437366e-08
0.00190503019 	0.5919176586 	-0.0001371844955 	4.838890448e-08
0.002540036458 	0.5919348364 	-0.0001821115723 	6.335622574e-08
0.003175040824 	0.591957115 	-0.0002272492683 	7.796120988e-08
0.003810043283 	0.591984441 	-0.0002724194921 	9.21402181e-08
0.004445043835 	0.5920167921 	-0.0003176106997 	1.058888647e-07
0.005080042477 	0.5920541575 	-0.0003628193489 	1.19205756e-07
0.005715039211 	0.5920965317 	-0.0004080373265 	1.320882349e-07
0.006350034036 	0.5921439117 	-0.0004532583693 	1.445345508e-07
0.006985026952 	0.5921962963 	-0.000498478527 	1.565439619e-07
0.007620017961 	0.5922536853 	-0.0005436951437 	1.681163611e-07
0.008255007066 	0.5923160791 	-0.0005889062385 	1.792520364e-07
0.008889994269 	0.5923834787 	-0.0006341086956 	1.899510915e-07
0.009524979574 	0.5924665759 	-0.0006856926866 	2.020979386e-07
0.01050989489 	0.5925801128 	-0.0007503994132 	2.155693308e-07
0.01153283289 	0.5927200069 	-0.0008231892142 	2.30113927e-07
0.01259526126 	0.5928790744 	-0.0008987474769 	2.440383045e-07
0.01369870436 	0.5930591383 	-0.0009771755921 	2.572360907e-07
0.01484474537 	0.593262176 	-0.001058574586 	2.695921169e-07
0.01603502858 	0.5934903312 	-0.001143048431 	2.809833544e-07
0.01727126175 	0.5937459268 	-0.001230703927 	2.912790201e-07
0.01855521858 	0.5940314785 	-0.001321650428 	3.003407762e-07
0.01988874122 	0.5943500796 	-0.00141610536 	3.080534676e-07
0.0212795967 	0.594705298 	-0.001514327979 	3.141720973e-07
0.02272638777 	0.5951002827 	-0.001616375545 	3.185058829e-07
0.02422903093 	0.5955380715 	-0.001722231252 	3.208450189e-07
0.025789682 	0.5960222851 	-0.001831977683 	3.209559166e-07
0.02741058004 	0.596556981 	-0.001945735687 	3.185981458e-07
0.02909405049 	0.5971465363 	-0.0020636269 	3.135134919e-07
0.03084250853 	0.5977956697 	-0.002185773293 	3.054250496e-07
0.03265846256 	0.5985094643 	-0.002312296657 	2.940363077e-07
0.03454451775 	0.5992933924 	-0.00244331801 	2.790302377e-07
0.03650337983 	0.6001533402 	-0.002578956918 	2.600683951e-07
0.03853785891 	0.6010957409 	-0.002719346102 	2.367918097e-07
0.04065175345 	0.6021288844 	-0.002864801736 	2.088115809e-07
0.04285798654 	0.6032616585 	-0.003015605529 	1.754600672e-07
0.0451493869 	0.6045008325 	-0.003171669698 	1.365536035e-07
0.04752924182 	0.6058535976 	-0.00333291899 	9.162118746e-08
0.05000096542 	0.6073290031 	-0.003499443118 	4.018355026e-08
0.05179152348 	0.6084502899 	-0.003619314073 	1.152558081e-07
0.0525681036 	0.6089361962 	-0.003671342621 	1.915259864e-08
0.05523433907 	0.6106847847 	-0.003848719172 	8.835173125e-08
0.05800349666 	0.6125872137 	-0.004031599907 	1.660411454e-07
0.06088054966 	0.6146579709 	-0.00422025711 	2.528827975e-07
0.06388212204 	0.6172023459 	-0.004439222205 	3.518875633e-07
0.06849323317 	0.6205807491 	-0.004711288476 	5.11353233e-07
0.07320884822 	0.6245613574 	-0.00500883564 	6.908607685e-07
0.07803133552 	0.6288790728 	-0.005307972142 	8.887771119e-07
0.08297254808 	0.6335529918 	-0.005608527176 	1.105706038e-06
0.08803840839 	0.6385986741 	-0.005909962789 	1.341761673e-06
0.09321908881 	0.6440251544 	-0.006211308474 	1.596312644e-06
0.09851719182 	0.6498466124 	-0.006511869683 	1.869214572e-06
0.1039473239 	0.6560840048 	-0.00681119597 	2.160792049e-06
0.1095105614 	0.6627521519 	-0.007108408499 	2.470338084e-06
0.1151999032 	0.6698595593 	-0.007402297381 	2.796673041e-06
0.1210182079 	0.6774248436 	-0.007692015641 	3.139070618e-06
0.1269898328 	0.685471316 	-0.007976742511 	3.155402481e-06
0.1330969944 	0.6940073713 	-0.00825499858 	3.00175812e-06
0.1393426013 	0.7030465553 	-0.008525425649 	2.827969954e-06
0.1457447855 	0.7126127265 	-0.008786843554 	2.633686355e-06
0.152298134 	0.7227185229 	-0.009037608268 	2.420351453e-06
0.159000054 	0.7333768862 	-0.009275992193 	2.189109147e-06
0.1658675547 	0.7446097724 	-0.009500341318 	1.940342482e-06
0.1728973743 	0.7564295655 	-0.009708660098 	1.676245792e-06
0.1800865787 	0.768848982 	-0.009898860916 	1.39884141e-06
0.1874550215 	0.781888213 	-0.01006884801 	1.109420756e-06
0.1949936538 	0.7955546359 	-0.01021623669 	8.114983928e-07
0.2027065505 	0.8098581164 	-0.01033861646 	5.076981005e-07
0.2106093461 	0.824811003 	-0.0104335327 	2.009538949e-07
0.2159255018 	0.8350720543 	-0.01047621702 	4.930736752e-06
0.2186913403 	0.8404125093 	-0.01049855336 	1.101620636e-07
0.2269683389 	0.8566636149 	-0.01053130026 	4.277946103e-07
0.2354385387 	0.8735564542 	-0.01052910143 	7.361085743e-07
0.2441059525 	0.8910745516 	-0.01048975324 	1.03124042e-06
0.2529808799 	0.909192879 	-0.01041139667 	1.309176948e-06
0.26205831 	0.9278698423 	-0.01029271659 	1.566394309e-06
0.2713552748 	0.9470517093 	-0.01013313726 	1.800859081e-06
0.2808630757 	0.966659951 	-0.009933146384 	2.011278501e-06
0.2905996478 	0.98659815 	-0.009694516289 	2.19926982e-06
0.3005576142 	1.006740737 	-0.00942066072 	2.368003059e-06
0.3107531066 	1.026940803 	-0.00911674305 	2.523995314e-06
0.3211806827 	1.04702691 	-0.008789745805 	2.675076354e-06
0.3318561114 	1.066817564 	-0.008448067203 	2.830379674e-06
0.3427751605 	1.086125867 	-0.008100923657 	2.997158286e-06
0.3539506423 	1.104783402 	-0.007757125478 	3.179019372e-06
0.3653829505 	1.122649698 	-0.00742391233 	3.248826405e-06
0.3770803634 	1.139624646 	-0.007105866693 	3.081858061e-06
0.3890484713 	1.155644079 	-0.006804537039 	2.918864836e-06
0.401290936 	1.17066614 	-0.006518756532 	2.753394278e-06
0.4138181255 	1.184651973 	-0.006245458667 	2.582862696e-06
0.4266321816 	1.197539304 	-0.005980787844 	2.408115072e-06
0.4397404215 	1.209229516 	-0.005720910804 	2.231927793e-06
0.4531509595 	1.219581139 	-0.005462633175 	2.05728345e-06
0.4668681829 	1.22842024 	-0.005203764281 	1.88708026e-06
0.480899222 	1.235575233 	-0.004943128061 	1.723703209e-06
0.4952525067 	1.240901033 	-0.004681623134 	1.569008225e-06
0.5096079283 	1.244339332 	-0.004423905582 	1.427069191e-06
0.5236469452 	1.246038576 	-0.004174259555 	1.300457824e-06
0.5373768093 	1.246277167 	-0.003933051791 	1.188118437e-06
0.5508038793 	1.245317668 	-0.003699131861 	1.088510779e-06
0.5639341973 	1.243367474 	-0.003471222073 	1.000238197e-06
0.5767746087 	1.240579769 	-0.003248066199 	9.219438204e-07
0.5893312283 	1.237063619 	-0.003028577657 	8.522195966e-07
0.6016099238 	1.23289571 	-0.002811915109 	7.899453458e-07
0.6136172393 	1.228130951 	-0.00259750893 	7.340417505e-07
0.6253586552 	1.222812751 	-0.002385132135 	6.834927392e-07
0.6368401571 	1.216981496 	-0.002174927114 	6.375641571e-07
0.6480674684 	1.210677975 	-0.00196734118 	5.955149657e-07
0.6590460216 	1.20394277 	-0.00176301078 	5.568969613e-07
0.6697815048 	1.196815494 	-0.001562680639 	5.212671954e-07
0.680279021 	1.189334332 	-0.001367127334 	4.883986624e-07
0.6905440583 	1.181535156 	-0.001177051317 	4.581966653e-07
0.7005815237 	1.17345085 	-0.0009933387547 	4.304483626e-07
0.7103966229 	1.165093313 	-0.0008159688843 	4.052543685e-07
0.7199941148 	1.156413723 	-0.0006434235146 	3.828878938e-07
0.7293789448 	1.147323277 	-0.0004733481299 	3.629282011e-07
0.738555706 	1.137772789 	-0.0003041259183 	3.447442947e-07
0.7475290786 	1.127768821 	-0.0001355054512 	3.277823721e-07
0.7563035159 	1.117341595 	3.236728599e-05 	3.11638508e-07
0.7648834459 	1.106527706 	0.0001989036973 	2.960999765e-07
0.7732731717 	1.095363459 	0.0003632659752 	2.811251591e-07
0.7814768955 	1.083884205 	0.0005245894102 	2.665960564e-07
0.7894987593 	1.072124308 	0.0006821174407 	2.52412854e-07
0.7973427702 	1.060115841 	0.0008352328017 	2.38435601e-07
0.8050128838 	1.047887046 	0.0009834093789 	2.245217526e-07
0.8125129484 	1.03546174 	0.001126150855 	2.105622606e-07
0.8198467286 	1.022859795 	0.001262934229 	1.96419175e-07
0.8270179208 	1.010098305 	0.001393172304 	1.819954124e-07
0.8340301197 	0.9971928467 	0.00151620709 	1.67227284e-07
0.8408868512 	0.9841582599 	0.001631328922 	1.52092706e-07
0.8475915655 	0.9710087409 	0.001737823887 	1.366543899e-07
0.8541476286 	0.9577575237 	0.001835029799 	1.210116429e-07
0.8605583365 	0.944416981 	0.001922360183 	1.05241243e-07
0.8668269138 	0.9310005263 	0.001999254903 	8.933085228e-08
0.8729565094 	0.9175276119 	0.002065022033 	7.312692687e-08
0.8789502046 	0.9040318635 	0.00211859038 	5.637984789e-08
0.8848110136 	0.8905695142 	0.002158286762 	3.88026992e-08
0.8905418816 	0.8772211133 	0.002181842616 	2.012422467e-08
0.8961456894 	0.8640762302 	0.002186929328 	7.153245784e-10
0.9016252544 	0.8511924921 	0.002172560977 	-1.657755775e-08
0.9069833311 	0.838528979 	0.00214059791 	-3.08423088e-08
0.9122226128 	0.8259671206 	0.002094021824 	-4.215618503e-08
0.9173457334 	0.81342415 	0.002035689199 	-5.111863877e-08
0.9223552683 	0.8008697762 	0.00196731271 	-5.937770048e-08
0.9272537359 	0.7882780889 	0.001889186599 	-6.639277448e-08
0.9320435986 	0.7766517173 	0.001809340686 	-7.149303611e-08
0.935161505 	0.7671685446 	0.001739269342 	-7.464413256e-08
0.9381635043 	0.7588398115 	0.001674664142 	-7.669900792e-08
0.9410539054 	0.7506278912 	0.001608580895 	-7.80995498e-08
0.943836857 	0.7425182032 	0.001541412266 	-7.89031798e-08
0.9465163534 	0.734495569 	0.001473528818 	-7.916442929e-08
0.9490962406 	0.7265441515 	0.001405276267 	-7.893528662e-08
0.9515802214 	0.7186473787 	0.001336971339 	-7.826434596e-08
0.9539718611 	0.710787847 	0.001268902561 	-7.719670764e-08
0.9562745926 	0.7029472 	0.001201331982 	-7.577420153e-08
0.9584917209 	0.6951059779 	0.001134496767 	-7.403566583e-08
0.9606264282 	0.6872434343 	0.001068610754 	-7.201728907e-08
0.9626817786 	0.6793373122 	0.001003866075 	-6.975293659e-08
0.9646607222 	0.6713635721 	0.0009404347501 	-6.727405648e-08
0.9665660993 	0.6632960625 	0.0008784702447 	-6.461008756e-08
0.9684006446 	0.6551061188 	0.0008181090123 	-6.178867999e-08
0.9701669915 	0.6467620742 	0.0007594719604 	-5.883587973e-08
0.9718676751 	0.638228662 	0.0007026658389 	-5.577630141e-08
0.9735051364 	0.629466279 	0.0006477845418 	-5.263329366e-08
0.9750817257 	0.6204300742 	0.0005949103105 	-4.942909976e-08
0.9765997058 	0.611068813 	0.0005441148279 	-4.618501511e-08
0.9780612557 	0.6013234497 	0.0004954601926 	-4.292154194e-08
0.979468473 	0.5911253209 	0.0004489997501 	-3.965853935e-08
0.9808233775 	0.5803938359 	0.0004047787836 	-3.641538696e-08
0.9821279139 	0.5690334996 	0.0003628350584 	-3.32110775e-08
0.9833839547 	0.5569300371 	0.0003231992899 	-3.006434661e-08
0.9845933026 	0.5439453036 	0.0002858954098 	-2.69937724e-08
0.9857576935 	0.5299105433 	0.000250939173 	-2.401769863e-08
0.9868787986 	0.514617411 	0.0002183330581 	-2.115381373e-08
0.987958227 	0.4978060052 	0.0001880808372 	-1.842029821e-08
0.9889975281 	0.480726292 	0.0001623533106 	-1.603871787e-08
0.9896675743 	0.4652802316 	0.0001426956281 	-1.418423167e-08
0.9903376206 	0.4500555825 	0.0001260833993 	-1.25963887e-08
0.9910076668 	0.4329694396 	0.00011014161 	-1.10563115e-08
0.991677713 	0.4136360062 	9.491944008e-05 	-9.572652787e-09
0.9923477593 	0.3915826431 	8.047734121e-05 	-8.155495992e-09
0.9930178055 	0.3662554711 	6.687583317e-05 	-6.814623574e-09
0.9936878517 	0.3370737701 	5.418037844e-05 	-5.55911277e-09
0.994357898 	0.3035893537 	4.247194342e-05 	-4.397395792e-09
0.9950279442 	0.2657810817 	3.18676259e-05 	-3.338809585e-09
0.9956979904 	0.2243282197 	2.253224352e-05 	-2.395881287e-09
0.9963680367 	0.1804950249 	1.464666836e-05 	-1.58424959e-09
0.9970380829 	0.135560518 	8.361164942e-06 	-9.212409953e-10
0.9977081291 	0.09032884875 	3.803126772e-06 	-4.274777808e-10
0.9983781754 	0.0451168019 	1.050354617e-06 	-1.20939531e-10
0.9990482216 	0.01665051854 	9.512511191e-08 	-1.187134838e-11
0.9990482216 	0.01665051854 	9.512511191e-08 	-1.187134838e-11
