0.3984765942 	0.009890627644 	-0.001695667843 	-1.847238472e-07
0.3984765942 	0.009890627644 	-0.001695667843 	-1.847238472e-07
0.3988724267 	0.03432401882 	-0.005900081664 	-1.337689291e-06
0.3992682762 	0.06989827357 	-0.01200466428 	-3.323303997e-06
0.3996641379 	0.1066988713 	-0.01827564274 	-5.931039252e-06
0.4000600075 	0.1446145922 	-0.0247030531 	-9.174959654e-06
0.4004558803 	0.1833715534 	-0.03124335019 	-1.304864198e-05
0.400851752 	0.2224400723 	-0.03780667725 	-1.750466011e-05
0.4012476179 	0.2610352215 	-0.04425979971 	-2.243197268e-05
0.4016434738 	0.2982795285 	-0.05045454147 	-2.765447723e-05
0.402039315 	0.3334502445 	-0.05626981721 	-3.297047329e-05
0.4024351373 	0.3661401237 	-0.06163874569 	-3.820883123e-05
0.4028309361 	0.396254862 	-0.06654791672 	-4.326059648e-05
0.403226707 	0.4239118905 	-0.07101993081 	-4.807615373e-05
0.4036224457 	0.4493324573 	-0.07509495283 	-5.264592268e-05
0.4040181477 	0.4727684352 	-0.07881823758 	-5.698023687e-05
0.4044138088 	0.4973501 	-0.08268599461 	-6.15640994e-05
0.4050274231 	0.5255830043 	-0.08707084655 	-6.701467221e-05
0.4056645961 	0.5545016999 	-0.09149710179 	-7.271572074e-05
0.4063262077 	0.5817852254 	-0.09560548743 	-7.834733789e-05
0.4070131674 	0.607629247 	-0.09943012561 	-8.39502994e-05
0.4077264146 	0.6321999016 	-0.1030000269 	-8.840491259e-05
0.4084669192 	0.6556387574 	-0.1063400375 	-9.162165569e-05
0.4092356819 	0.6780660777 	-0.1094712798 	-9.455787245e-05
0.4100337347 	0.6995834363 	-0.1124116201 	-9.721723484e-05
0.410862141 	0.7203059923 	-0.1151799266 	-9.960816364e-05
0.4117269603 	0.7403402011 	-0.1177927899 	-0.000101724151
0.4126266713 	0.7597210208 	-0.1202571313 	-0.0001035579544
0.4135607233 	0.7784603008 	-0.1225767178 	-0.0001050999517
0.4145304149 	0.7965935048 	-0.124758077 	-0.0001063399032
0.4155370933 	0.8141642317 	-0.1268086971 	-0.0001072648189
0.4165821558 	0.8312223682 	-0.1287367503 	-0.0001078575196
0.417667052 	0.8478230596 	-0.1305507933 	-0.0001081188754
0.4187932853 	0.8640110717 	-0.1322577541 	-0.0001080733054
0.4199624155 	0.8798152599 	-0.1338622351 	-0.0001077384508
0.4211760603 	0.8952571395 	-0.1353675963 	-0.0001071176194
0.4224358976 	0.9103580001 	-0.136776902 	-0.000106212497
0.4237443998 	0.9251612338 	-0.1380949103 	-0.0001050270738
0.4251115666 	0.9397006181 	-0.1393248912 	-0.0001035428786
0.4265306573 	0.953960328 	-0.140466096 	-0.0001017859885
0.4280036224 	0.9679315594 	-0.1415183312 	-9.975864289e-05
0.429532485 	0.9816280252 	-0.1424833952 	-9.746698957e-05
0.4311193434 	0.9950627836 	-0.1433629314 	-9.491787073e-05
0.4327663743 	1.00824837 	-0.1441584666 	-9.211887894e-05
0.4344758352 	1.021198412 	-0.1448715121 	-8.907834499e-05
0.4362508946 	1.033945098 	-0.1455042087 	-8.580326067e-05
0.438104245 	1.048015118 	-0.1461255517 	-8.233750315e-05
0.4409487314 	1.064583925 	-0.1467267959 	-7.672824095e-05
0.443854405 	1.081694249 	-0.1472140084 	-7.096278561e-05
0.4468226093 	1.097960724 	-0.1475383111 	-6.503627155e-05
0.4498624333 	1.113500769 	-0.1477159884 	-5.897867835e-05
0.4529779152 	1.12839527 	-0.1477601546 	-5.283552369e-05
0.4561603109 	1.142691089 	-0.1476822429 	-4.667529696e-05
0.4594111038 	1.156449326 	-0.1474922966 	-4.053147834e-05
0.4627415071 	1.169741184 	-0.1471987198 	-3.441088598e-05
0.4661515159 	1.18260866 	-0.1468089956 	-2.835442034e-05
0.4696347154 	1.195074039 	-0.1463301034 	-2.240627776e-05
0.4731927477 	1.207179802 	-0.1457674266 	-1.658536e-05
0.4768445041 	1.21896952 	-0.1451250583 	-1.087731474e-05
0.4805747108 	1.230451624 	-0.1444081858 	-5.343156001e-06
0.4843811158 	1.241631357 	-0.1436212714 	8.016987797e-08
0.4843850066 	1.241642784 	-0.1436204609 	-5.58308346e-09
0.4882838661 	1.252557043 	-0.1427584917 	-5.362594798e-06
0.4922714507 	1.263216721 	-0.1418312534 	-1.051271102e-05
0.4963449371 	1.273626888 	-0.1408412058 	-1.543912321e-05
0.5005171354 	1.283800978 	-0.1397896179 	-2.015267372e-05
0.5047844462 	1.293737465 	-0.1386785891 	-2.46259262e-05
0.5091437605 	1.303433767 	-0.137509467 	-2.884708595e-05
0.5136100229 	1.312892388 	-0.1362825606 	-3.282926987e-05
0.5181750356 	1.322101749 	-0.1349993611 	-3.654350198e-05
0.5228412668 	1.331053057 	-0.1336605678 	-3.99911984e-05
0.5276201081 	1.339741152 	-0.1322665262 	-4.317490929e-05
0.532502178 	1.348152981 	-0.130818195 	-4.607668208e-05
0.5374991182 	1.356274807 	-0.1293155599 	-4.871022682e-05
0.5426084424 	1.364082285 	-0.1277584752 	-5.106270234e-05
0.5478325013 	1.371541275 	-0.1261458111 	-5.314122068e-05
0.5531783339 	1.378607562 	-0.1244756816 	-5.494436684e-05
0.5586411292 	1.385224958 	-0.1227457447 	-5.646949618e-05
0.5642332431 	1.391330237 	-0.1209530939 	-5.772378414e-05
0.5699469036 	1.396853937 	-0.1190952339 	-5.869975116e-05
0.5757951898 	1.401729756 	-0.1171698159 	-5.940623507e-05
0.5817713301 	1.405900274 	-0.1151761722 	-5.98332382e-05
0.5878869742 	1.409327831 	-0.1131152535 	-5.999000533e-05
0.5941368702 	1.412000466 	-0.1109893879 	-5.98737299e-05
0.6005323315 	1.413937275 	-0.1088022755 	-5.948859261e-05
0.6070690901 	1.415190721 	-0.1065635706 	-5.883777274e-05
0.6137560854 	1.415843876 	-0.1042838556 	-5.794209156e-05
0.6205927022 	1.415990711 	-0.1019710646 	-5.681937512e-05
0.627584302 	1.41571932 	-0.09963060018 	-5.547546504e-05
0.6347343213 	1.41510398 	-0.09727679316 	-5.39492244e-05
0.6420445571 	1.414180131 	-0.09491549587 	-5.224506802e-05
0.6495220731 	1.412931791 	-0.09253165084 	-5.033966682e-05
0.6571675809 	1.411335473 	-0.0901263259 	-4.828853167e-05
0.664985713 	1.409382474 	-0.08770685171 	-4.612739614e-05
0.6729818115 	1.40706259 	-0.08527030769 	-4.385158749e-05
0.6811582993 	1.404361788 	-0.08281629366 	-4.148276791e-05
0.6895196864 	1.401263349 	-0.08034541106 	-3.903970622e-05
0.6980715346 	1.397766061 	-0.07787089431 	-3.65475137e-05
0.7066231767 	1.393916415 	-0.07543387515 	-3.40715358e-05
0.7149852586 	1.389778407 	-0.0730723282 	-3.167283566e-05
0.7231625788 	1.385380563 	-0.07079374411 	-2.936622066e-05
0.7311592505 	1.380728168 	-0.06859304762 	-2.715811165e-05
0.7389790548 	1.375821678 	-0.06646512978 	-2.505070487e-05
0.7466263646 	1.370655309 	-0.06440477245 	-2.304453006e-05
0.7541050199 	1.365216704 	-0.06240696072 	-2.114067743e-05
0.7614185963 	1.359487577 	-0.06046685147 	-1.933716935e-05
0.7685712025 	1.353445845 	-0.05857977205 	-1.763205862e-05
0.7755661418 	1.347069585 	-0.05674168846 	-1.602350616e-05
0.7824070552 	1.340341763 	-0.05494918602 	-1.450761001e-05
0.7890974401 	1.333255235 	-0.05319971639 	-1.30822383e-05
0.7956405195 	1.325816667 	-0.05149167682 	-1.174339252e-05
0.8020397589 	1.318047869 	-0.04982425313 	-1.048847379e-05
0.8082981556 	1.309983937 	-0.04819731054 	-9.314103428e-06
0.8144190238 	1.301668024 	-0.04661098307 	-8.21733967e-06
0.8204052398 	1.29314411 	-0.04506540437 	-7.195171375e-06
0.8262599175 	1.28444986 	-0.04356034104 	-6.244408289e-06
0.8319858447 	1.275612579 	-0.04209506802 	-5.361896229e-06
0.8375859638 	1.266649523 	-0.04066849897 	-4.544365269e-06
0.8430629577 	1.257570754 	-0.03927936128 	-3.788470638e-06
0.8484196004 	1.248381889 	-0.03792634646 	-3.091243876e-06
0.85365849 	1.239085984 	-0.03660812795 	-2.449288397e-06
0.8587822426 	1.229684672 	-0.03532342929 	-1.860020546e-06
0.863793369 	1.220178755 	-0.03407102045 	-1.320204503e-06
0.8686943417 	1.210568419 	-0.03284970811 	-8.274926361e-07
0.8734875843 	1.200853195 	-0.0316583645 	-3.79080393e-07
0.8778468165 	1.191720277 	-0.03057736408 	4.084388257e-06
0.8781753908 	1.191031823 	-0.03049580678 	-2.534967786e-08
0.8827594981 	1.181102088 	-0.02936040455 	-3.64384845e-07
0.8872428535 	1.171060421 	-0.02825174611 	-6.683380051e-07
0.891627664 	1.160901957 	-0.02716876356 	-9.389595889e-07
0.8959160904 	1.150620287 	-0.02611042657 	-1.178141143e-06
0.9001102307 	1.140207322 	-0.02507568334 	-1.387640821e-06
0.9042121522 	1.129653136 	-0.02406350953 	-1.568925214e-06
0.9082238701 	1.118945787 	-0.02307289262 	-1.723581723e-06
0.9121473531 	1.10807113 	-0.02210280165 	-1.85299157e-06
0.9159845336 	1.097012584 	-0.02115223046 	-1.958363545e-06
0.9197372974 	1.085750867 	-0.02022017805 	-2.040963472e-06
0.9234074881 	1.074263726 	-0.0193056319 	-2.10191368e-06
0.9269969133 	1.062525659 	-0.01840760137 	-2.142207996e-06
0.9305073394 	1.050507616 	-0.01752511992 	-2.162848748e-06
0.9339404922 	1.038176723 	-0.01665723315 	-2.164807528e-06
0.9372980631 	1.025496006 	-0.01580302247 	-2.148952818e-06
0.9405817066 	1.012424093 	-0.0149616329 	-2.116151369e-06
0.943793039 	0.9989149257 	-0.01413226598 	-2.067315969e-06
0.946933643 	0.984917484 	-0.01331419566 	-2.00333189e-06
0.9500050675 	0.9703756171 	-0.01250680687 	-1.925117697e-06
0.9530088273 	0.9552281494 	-0.01170963407 	-1.833663609e-06
0.9559464037 	0.9394096558 	-0.01092232536 	-1.730074418e-06
0.9588192463 	0.9242483073 	-0.01020832126 	-1.629850027e-06
0.9606895011 	0.9114450183 	-0.009634869389 	-1.534843451e-06
0.9624903871 	0.8999054363 	-0.009140118488 	-1.452108414e-06
0.9642244716 	0.8882388731 	-0.008660797254 	-1.36833403e-06
0.9658942272 	0.8764372383 	-0.008196592024 	-1.284192124e-06
0.9675020356 	0.864493693 	-0.007747225832 	-1.200298807e-06
0.9690501906 	0.8524017791 	-0.007312466483 	-1.117219676e-06
0.9705409013 	0.8401547959 	-0.006892106942 	-1.035492351e-06
0.9719762954 	0.8277453646 	-0.006485958314 	-9.55665128e-07
0.973358422 	0.8151651467 	-0.006093850627 	-8.783558214e-07
0.9746892545 	0.8024046996 	-0.005715639552 	-8.043178677e-07
0.9759706936 	0.7894534421 	-0.00535121831 	-7.344809922e-07
0.9772045696 	0.7762996361 	-0.005000530241 	-6.699133219e-07
0.9783926452 	0.7629301609 	-0.004663575226 	-6.116228252e-07
0.9795366182 	0.7493296288 	-0.004340390038 	-5.600525456e-07
0.9806381232 	0.7354780804 	-0.004030963092 	-5.140270776e-07
0.9816987349 	0.721346915 	-0.00373509976 	-4.710562942e-07
0.9827199694 	0.7068974155 	-0.00345240343 	-4.292204923e-07
0.9837032868 	0.6920848231 	-0.003182414842 	-3.886317659e-07
0.9846500934 	0.6768616965 	-0.002924750563 	-3.503785183e-07
0.9855617431 	0.6611763226 	-0.002679123202 	-3.148851231e-07
0.9864395401 	0.6449689177 	-0.002445286759 	-2.820747858e-07
0.98728474 	0.6281685651 	-0.002222999593 	-2.517178638e-07
0.9880985521 	0.6106907043 	-0.002012013898 	-2.236292932e-07
0.9888821408 	0.592433973 	-0.001812079384 	-1.97653642e-07
0.9896366276 	0.5732762557 	-0.001622946861 	-1.73652325e-07
0.9903630922 	0.5530697944 	-0.001444371273 	-1.515036542e-07
0.9910625746 	0.5316352873 	-0.001276111756 	-1.311026099e-07
0.991736076 	0.5087551627 	-0.001117923136 	-1.123523526e-07
0.9923845607 	0.4841669269 	-0.0009695954896 	-9.515244769e-08
0.9930089572 	0.4597857303 	-0.0008418143426 	-8.067323725e-08
0.9934115207 	0.4382440362 	-0.000742836562 	-6.961979187e-08
0.993814092 	0.417494988 	-0.0006581342876 	-6.03178424e-08
0.994216671 	0.3947953251 	-0.000575832779 	-5.138411896e-08
0.9946192577 	0.3698966726 	-0.0004962488242 	-4.284672526e-08
0.9950218521 	0.3425861373 	-0.0004198357723 	-3.474796371e-08
0.9954244543 	0.3127589219 	-0.0003471975431 	-2.716231001e-08
0.9958270642 	0.2805174844 	-0.0002791353894 	-2.021971077e-08
0.9962296818 	0.2462517803 	-0.0002166408566 	-1.411186587e-08
0.9966323072 	0.2106190704 	-0.0001607808815 	-9.054070952e-09
0.9970349403 	0.174384775 	-0.0001124798403 	-5.193152069e-09
0.9974375811 	0.138210119 	-7.230698163e-05 	-2.507354274e-09
0.9978402296 	0.1025280406 	-4.060514231e-05 	-8.342066499e-10
0.9982428859 	0.06755450407 	-1.854779966e-05 	-2.545144005e-10
0.9986455499 	0.03337068808 	-9.581716468e-06 	-1.794005573e-09
0.9990482216 	0.01204249894 	-6.562970575e-06 	-2.421891976e-09
0.9990482216 	0.01204249894 	-6.562970575e-06 	-2.421891976e-09
