0.1257148005 	1.527115303e-07 	-7.04361915e-10 	-7.678697963e-13 	1.487044858e-07 	-4.333467614e-10 	2.834720802e-10
0.1257148005 	1.527115303e-07 	-7.04361915e-10 	-7.678697963e-13 	1.487044858e-07 	-4.333467614e-10 	2.834720802e-10
0.1264479954 	7.80204067e-06 	-2.08674322e-07 	-1.831354115e-10 	6.699421703e-06 	-1.963832044e-08 	1.277095977e-08
0.127181118 	7.719717442e-05 	-4.689285043e-06 	-4.130020497e-09 	5.316560937e-05 	-1.39150741e-07 	1.013484281e-07
0.1279141299 	0.0003327776663 	-3.000895333e-05 	-2.608785169e-08 	0.0001847546726 	-4.117496986e-07 	3.521937559e-07
0.1286469925 	0.0008403568642 	-9.399747591e-05 	-6.960233133e-08 	0.0003977734633 	-7.487332936e-07 	7.582667764e-07
0.1293796675 	0.001469959928 	-0.0001870433086 	-8.100609039e-08 	0.000643395521 	-1.076311048e-06 	1.226490686e-06
0.1301121169 	0.002012772484 	-0.0002798507776 	1.726075869e-08 	0.0008930742926 	-1.444981407e-06 	1.702447819e-06
0.1308443026 	0.00237638758 	-0.0003614322294 	2.078757921e-07 	0.001153279617 	-1.850990537e-06 	2.198471488e-06
0.1315761869 	0.002565685092 	-0.0004311786172 	4.08407554e-07 	0.001453609102 	-2.057487151e-06 	2.770982959e-06
0.1323077322 	0.002619889451 	-0.0004890569487 	4.68400684e-07 	0.001806191817 	-1.843606757e-06 	3.443103608e-06
0.1330389009 	0.002598657229 	-0.0005426534316 	3.499327512e-07 	0.002180488982 	-1.278199715e-06 	4.156618036e-06
0.1337696558 	0.002541111151 	-0.0005922428032 	1.730250785e-07 	0.002537931541 	-6.083957291e-07 	4.838002899e-06
0.1344999598 	0.002465531292 	-0.000613435064 	4.300403066e-09 	0.00282597839 	-1.437794715e-08 	5.387100252e-06
0.1345200977 	0.002463348748 	-0.0006133224614 	4.625377907e-09 	0.002831732028 	2.471156189e-07 	5.398068284e-06
0.1351794786 	0.002387601865 	-0.0006104475197 	9.344487851e-08 	0.003031805927 	-5.97086675e-07 	5.779464743e-06
0.1358571581 	0.002314138513 	-0.0006064330985 	1.749102259e-07 	0.003187957591 	-1.11354027e-06 	6.077133215e-06
0.1365343963 	0.002238002778 	-0.000583659246 	2.294390805e-07 	0.003280480545 	-1.462406981e-06 	6.253507682e-06
0.1375839092 	0.002154079279 	-0.0005426783361 	2.918354435e-07 	0.0033094307 	-1.773496006e-06 	6.308694723e-06
0.1386726222 	0.0020726338 	-0.0005056898014 	3.808076755e-07 	0.003297356398 	-1.821047722e-06 	6.285677747e-06
0.1398018122 	0.002003664287 	-0.0004775203244 	5.567778441e-07 	0.003252190749 	-1.804440401e-06 	6.199579468e-06
0.1409727722 	0.001945628321 	-0.0004576810379 	7.923638463e-07 	0.003189222959 	-1.777633798e-06 	6.079545359e-06
0.1421868073 	0.001896279955 	-0.0004438834013 	1.041410327e-06 	0.003120198626 	-1.756813057e-06 	5.947965796e-06
0.1434452303 	0.001853527525 	-0.000433958602 	1.276979115e-06 	0.003051329262 	-1.77946925e-06 	5.816681647e-06
0.1447493568 	0.001815660951 	-0.0004263683217 	1.486843528e-06 	0.00298567967 	-1.852484296e-06 	5.691535277e-06
0.1461004994 	0.001781446494 	-0.0004200707161 	1.672106539e-06 	0.002924400066 	-1.962873928e-06 	5.574719322e-06
0.1474999607 	0.001750069781 	-0.0004144882142 	1.839241579e-06 	0.002867630603 	-2.09126438e-06 	5.466500947e-06
0.1489490255 	0.001721012432 	-0.0004093396967 	1.996552373e-06 	0.002815087052 	-2.220844369e-06 	5.366338334e-06
0.1504489522 	0.001693956986 	-0.0004045550866 	2.151434186e-06 	0.002766322968 	-2.340944034e-06 	5.273380437e-06
0.1520009618 	0.001668548824 	-0.0004000797962 	2.308109664e-06 	0.002720725324 	-2.446981725e-06 	5.186458654e-06
0.1536313482 	0.001644440829 	-0.00039583084 	2.470393347e-06 	0.002677644547 	-2.541005969e-06 	5.10433472e-06
0.1553470763 	0.001621531146 	-0.0003918041739 	2.638625038e-06 	0.002636859968 	-2.624991261e-06 	5.026587976e-06
0.1571234066 	0.001599872014 	-0.0003880309359 	2.809467355e-06 	0.002598462513 	-2.698085834e-06 	4.953391754e-06
0.1589622923 	0.001579433181 	-0.0003845094511 	2.637498394e-06 	0.002562398142 	-2.44184552e-06 	4.88464304e-06
0.160865738 	0.001560076311 	-0.0003811939798 	2.396921531e-06 	0.002528499127 	-2.137254353e-06 	4.820022096e-06
0.1628358007 	0.001541690711 	-0.0003780524752 	2.157753414e-06 	0.002496620278 	-1.850539418e-06 	4.75925215e-06
0.1648745902 	0.001524190352 	-0.0003750728135 	1.920088385e-06 	0.002466623762 	-1.580546114e-06 	4.702070454e-06
0.1669842701 	0.001507502926 	-0.0003722379168 	1.683378834e-06 	0.002438395096 	-1.326805152e-06 	4.648258771e-06
0.1691670586 	0.001491575734 	-0.0003695401432 	1.447074506e-06 	0.002411837942 	-1.089250317e-06 	4.597633454e-06
0.1714252293 	0.001476366125 	-0.0003669716029 	1.210758454e-06 	0.002386872666 	-8.679581245e-07 	4.550042697e-06
0.1737611123 	0.00146182979 	-0.0003645228704 	9.740745352e-07 	0.002363436022 	-6.630780571e-07 	4.505365941e-06
0.1761770948 	0.001447900438 	-0.0003622156796 	7.366532624e-07 	0.002341417842 	-4.747673136e-07 	4.46339317e-06
0.1786903121 	0.001434414366 	-0.0003600310923 	4.968897159e-07 	0.002320604106 	-3.022894625e-07 	4.423716405e-06
0.1813531012 	0.001421279869 	-0.0003578669941 	2.505500147e-07 	0.002301005837 	-1.433445861e-07 	4.386356656e-06
0.1841053553 	0.001408634863 	-0.000355747993 	3.809948219e-09 	0.002282709082 	-2.042304566e-09 	4.351477957e-06
0.1841486501 	0.001408452781 	-0.0003557160807 	1.235104286e-09 	0.002282453249 	-3.256474157e-08 	4.350990268e-06
0.1868405432 	0.001398131854 	-0.0003539514053 	2.237497268e-07 	0.002263666625 	-1.590348856e-07 	4.315177741e-06
0.1896666473 	0.001388321143 	-0.000352383856 	4.544696262e-07 	0.002245873729 	-3.046066721e-07 	4.281259536e-06
0.1925881489 	0.00137796557 	-0.0003510851291 	6.870394153e-07 	0.002226884844 	-4.329864653e-07 	4.245061443e-06
0.1970496048 	0.00136653297 	-0.0003486941029 	1.033642661e-06 	0.002207437616 	-5.955968623e-07 	4.207989622e-06
0.2015795707 	0.001355549995 	-0.0003466000496 	1.375481963e-06 	0.002188695467 	-7.183043132e-07 	4.172261876e-06
0.2063049395 	0.001345856975 	-0.0003447049872 	1.719862268e-06 	0.002172832005 	-8.071684057e-07 	4.142021709e-06
0.2111085057 	0.001337365177 	-0.0003430076184 	1.844339665e-06 	0.00215968633 	-7.72048296e-07 	4.116962399e-06
0.2159832257 	0.001330048138 	-0.0003414925734 	1.493299531e-06 	0.002149174438 	-5.523870384e-07 	4.09692381e-06
0.2209301555 	0.001323746593 	-0.0003401538747 	1.148094298e-06 	0.002141060748 	-3.710226416e-07 	4.081456863e-06
0.2259909222 	0.001318318058 	-0.0003389599792 	8.066064626e-07 	0.002135135691 	-2.241566021e-07 	4.070162057e-06
0.2312248134 	0.001313678142 	-0.0003378407046 	4.659655515e-07 	0.002131334257 	-1.088617416e-07 	4.062915467e-06
0.2365335821 	0.001309830501 	-0.0003368576211 	1.332207885e-07 	0.00212948097 	-2.543429353e-08 	4.059382587e-06
0.2387261044 	0.001308598756 	-0.0003364903334 	1.791023013e-08 	0.002129485238 	-8.35966544e-07 	4.059390724e-06
0.2418408168 	0.001307295162 	-0.0003360889606 	1.831869817e-07 	0.002128289696 	-5.075677185e-08 	4.057111688e-06
0.2471985656 	0.001305798084 	-0.0003353846745 	4.91565009e-07 	0.00212806043 	-1.156180734e-07 	4.056674644e-06
0.252751663 	0.001304877984 	-0.0003345784884 	8.031989544e-07 	0.002129629904 	-1.562434671e-07 	4.059666497e-06
0.2583863298 	0.001304526344 	-0.0003337276346 	1.110907919e-06 	0.002132847417 	-1.729846013e-07 	4.065799972e-06
0.2641041347 	0.001304675492 	-0.00033284091 	1.414250886e-06 	0.002137643616 	-1.679647379e-07 	4.07494286e-06
0.2699765616 	0.001305245734 	-0.0003318486428 	1.539296946e-06 	0.002144037435 	-1.281915202e-07 	4.087131256e-06
0.2760058924 	0.001306229375 	-0.0003307156451 	1.23437862e-06 	0.00215198873 	-6.075178534e-08 	4.102288633e-06
0.2821223304 	0.001307604054 	-0.0003294823061 	9.337879911e-07 	0.002161367008 	-1.584608896e-08 	4.120166238e-06
0.288350839 	0.001309300712 	-0.0003281175664 	6.364891099e-07 	0.002172171239 	8.59141031e-09 	4.140762105e-06
0.2947875082 	0.001311285466 	-0.0003265171524 	3.387046181e-07 	0.002184485338 	1.445501762e-08 	4.1642362e-06
0.3013157613 	0.001313572409 	-0.0003247308122 	4.653030713e-08 	0.002198120689 	3.254791753e-09 	4.190228969e-06
0.3023855599 	0.001313996263 	-0.0003244053255 	1.785364155e-08 	0.002200532985 	-2.386845424e-07 	4.194827477e-06
0.3078740341 	0.001316980192 	-0.0003226726494 	2.396347026e-07 	0.002211796402 	-7.471213856e-09 	4.216298679e-06
0.314634899 	0.001320741095 	-0.0003202074316 	5.272638732e-07 	0.002226688838 	-4.092875642e-09 	4.244687801e-06
0.3214957431 	0.001324694938 	-0.0003174003872 	8.109137557e-07 	0.002242874526 	1.089863707e-08 	4.275542221e-06
0.3285030854 	0.001328773644 	-0.0003141910565 	1.092069251e-06 	0.00226037877 	3.54429082e-08 	4.308910175e-06
0.3357045597 	0.001332945281 	-0.0003104737112 	1.371882202e-06 	0.002279237386 	6.773688038e-08 	4.344859939e-06
0.3430127746 	0.001337219933 	-0.0003062949513 	1.371716676e-06 	0.00229931005 	8.749519776e-08 	4.383124015e-06
0.3505261332 	0.001341513727 	-0.0003015165585 	1.102499629e-06 	0.002320681959 	8.3595856e-08 	4.423864814e-06
0.3581843273 	0.001345830764 	-0.0002961179027 	8.375824067e-07 	0.00234324242 	7.136098782e-08 	4.466871323e-06
0.3659982987 	0.001350135257 	-0.0002900549646 	5.768192285e-07 	0.002366947573 	5.294639234e-08 	4.512059933e-06
0.3740116628 	0.001354374439 	-0.0002832053165 	3.198369311e-07 	0.002391801134 	3.056324095e-08 	4.559437729e-06
0.3821545194 	0.001358559231 	-0.000275570249 	6.976606993e-08 	0.002417671143 	6.711328097e-09 	4.608753156e-06
0.3845271748 	0.001359721612 	-0.0002731403569 	1.105922441e-07 	0.002425321664 	-3.280932076e-07 	4.623337174e-06
0.3904859425 	0.001363172085 	-0.0002670153976 	1.732508006e-07 	0.002443860111 	-3.902309557e-09 	4.658676608e-06
0.3989303884 	0.001367863622 	-0.0002575064066 	4.066890768e-07 	0.002470713123 	-1.083285203e-08 	4.709865912e-06
0.4076131031 	0.0013723601 	-0.0002468752199 	6.335435144e-07 	0.002498523086 	-2.139583956e-08 	4.76287943e-06
0.4164376814 	0.001376645958 	-0.0002350611769 	8.493907648e-07 	0.00252715563 	-3.771984945e-08 	4.817461017e-06
0.4255010193 	0.001380685083 	-0.0002219057375 	1.055276455e-06 	0.002556567169 	-6.17512682e-08 	4.873527586e-06
0.4347201748 	0.001384455127 	-0.0002073053108 	1.247031979e-06 	0.002586610046 	-9.558752964e-08 	4.93079766e-06
0.4441769475 	0.001387940137 	-0.0001910981896 	1.321139019e-06 	0.002617190943 	-1.307424984e-07 	4.989093348e-06
0.4538111071 	0.001391114502 	-0.0001731383692 	1.119489197e-06 	0.002648128515 	-1.411515862e-07 	5.048068959e-06
0.4636679151 	0.0013939837 	-0.0001532755149 	9.27479349e-07 	0.002679247364 	-1.469336663e-07 	5.107390134e-06
0.4737321125 	0.001396534398 	-0.0001313397834 	7.466515382e-07 	0.002710321762 	-1.469182146e-07 	5.166626574e-06
0.4840019775 	0.001398788132 	-0.0001071728856 	5.787406038e-07 	0.002741084618 	-1.401253407e-07 	5.225269126e-06
0.4945108999 	0.001400766061 	-8.061460524e-05 	4.247267024e-07 	0.002771247919 	-1.256056796e-07 	5.282768762e-06
0.5052293535 	0.001402504781 	-5.152613977e-05 	2.873083714e-07 	0.002800428023 	-1.031444947e-07 	5.33839415e-06
0.5161783022 	0.001404089581 	-1.979908912e-05 	1.681485785e-07 	0.002828218061 	-7.288761899e-08 	5.391369686e-06
0.5273672771 	0.001405605886 	1.470378257e-05 	6.811501555e-08 	0.002854169066 	-3.569902745e-08 	5.440839514e-06
0.5370906172 	0.001406910065 	4.653986854e-05 	2.236455146e-07 	0.002874272582 	-2.364139806e-07 	5.479162405e-06
0.538783225 	0.001407178333 	5.206971285e-05 	1.068425535e-08 	0.002877734259 	-7.18575599e-09 	5.485761322e-06
0.5504260783 	0.001408914602 	9.237851343e-05 	6.772199169e-08 	0.002898283876 	-5.401758388e-08 	5.524934605e-06
0.5623285568 	0.001410947152 	0.0001356375611 	1.033153562e-07 	0.002914287633 	-9.598433487e-08 	5.555442213e-06
0.5744824636 	0.001417519602 	0.0001796411062 	1.276302488e-07 	0.002916616023 	-8.236941424e-08 	5.559880772e-06
0.5866203858 	0.001431487699 	0.0002206380624 	1.556718351e-07 	0.002901311686 	6.432749295e-09 	5.53070645e-06
0.5984775113 	0.001450792751 	0.0002567465568 	1.875685346e-07 	0.002874978853 	1.08379392e-07 	5.480508753e-06
0.610064553 	0.001472060261 	0.0002885877655 	2.073657059e-07 	0.00284482992 	1.651914132e-07 	5.423036507e-06
0.6213822585 	0.001493092302 	0.0003173712654 	2.07982247e-07 	0.002814471931 	1.721860706e-07 	5.365165743e-06
0.6324385534 	0.001512802779 	0.0003439735212 	1.995712507e-07 	0.002785205119 	1.663261289e-07 	5.309375065e-06
0.6432461221 	0.001530966176 	0.0003687196886 	1.871668054e-07 	0.002757075002 	1.547166573e-07 	5.255751243e-06
0.6538062991 	0.001547627018 	0.0003918270784 	1.743114871e-07 	0.002729932051 	1.425271802e-07 	5.204009234e-06
0.6641254075 	0.001562894763 	0.0004134970677 	1.610199516e-07 	0.002703588517 	1.297965039e-07 	5.153791137e-06
0.6742142328 	0.001576848481 	0.0004339113428 	1.474305049e-07 	0.002677954119 	1.168991441e-07 	5.104924849e-06
0.6840744496 	0.001589566999 	0.0004532534383 	1.341764859e-07 	0.002652971013 	1.042935802e-07 	5.057300106e-06
0.6937131598 	0.00160116088 	0.0004716835333 	1.215116032e-07 	0.002628563802 	9.235804636e-08 	5.010773178e-06
0.7031371978 	0.001611720328 	0.0004893527845 	1.095677892e-07 	0.002604734803 	8.133858304e-08 	4.965348484e-06
0.7123497451 	0.00162135637 	0.0005064214806 	9.841766026e-08 	0.002581478548 	7.132408389e-08 	4.921015597e-06
0.7213584794 	0.001630191912 	0.0005230252686 	8.809315561e-08 	0.002558810975 	6.23910942e-08 	4.877804904e-06
0.7301664266 	0.001638345853 	0.0005393125923 	7.859751931e-08 	0.002536794353 	5.455791855e-08 	4.835835102e-06
0.738779591 	0.001645964764 	0.0005554194583 	6.985380045e-08 	0.002515484271 	4.776630957e-08 	4.795212164e-06
0.7472021575 	0.001653196689 	0.0005714852081 	6.181445351e-08 	0.00249498181 	4.194405507e-08 	4.756128775e-06
0.7554388368 	0.001660212042 	0.0005876459629 	5.436691e-08 	0.002475397415 	3.69507022e-08 	4.718795475e-06
0.7634940479 	0.001667195342 	0.0006040361179 	4.742818188e-08 	0.00245687112 	3.264567263e-08 	4.683479206e-06
0.7713719384 	0.001674350012 	0.0006207889133 	4.086100844e-08 	0.002439565317 	2.882681179e-08 	4.650489537e-06
0.7790767337 	0.001681899556 	0.0006380332999 	3.45646457e-08 	0.002423665332 	2.529502293e-08 	4.620179746e-06
0.7866123546 	0.001690086742 	0.0006558953039 	2.840392874e-08 	0.00240938029 	2.180131333e-08 	4.592948485e-06
0.7939826806 	0.001699174757 	0.0006744922818 	2.228918032e-08 	0.00239694082 	1.81113546e-08 	4.569235397e-06
0.801191535 	0.001709446304 	0.0006939371895 	1.610869804e-08 	0.00238659574 	1.395586923e-08 	4.5495148e-06
0.8082424299 	0.001721201369 	0.0007143270872 	9.794152254e-09 	0.002378613218 	9.092020612e-09 	4.534297895e-06
0.8151391276 	0.001734756429 	0.0007357557404 	3.271313683e-09 	0.002373271643 	3.263399e-09 	4.524115368e-06
0.8184328857 	0.001742421358 	0.0007467616213 	3.540080722e-07 	0.002372095917 	-4.667543511e-07 	4.521874108e-06
0.8218836387 	0.001750450413 	0.0007582960982 	3.291041032e-09 	0.002370859882 	3.554220248e-09 	4.519517881e-06
0.8284797622 	0.001768616388 	0.00078201114 	9.993221996e-09 	0.002371677217 	1.158522001e-08 	4.521075949e-06
0.8349317613 	0.001789592468 	0.0008069360202 	1.706131654e-08 	0.002376006936 	2.123060864e-08 	4.529329597e-06
0.841242923 	0.001813715501 	0.0008330927709 	2.444360617e-08 	0.002384147671 	3.263022209e-08 	4.544848101e-06
0.8474163316 	0.001841325249 	0.0008604834865 	3.207039858e-08 	0.002396370448 	4.590562066e-08 	4.56814811e-06
0.8534549725 	0.001872743982 	0.0008890702874 	3.978200677e-08 	0.002412944389 	6.10978628e-08 	4.59974265e-06
0.8593618757 	0.001908269661 	0.0009187834907 	4.731619732e-08 	0.00243412905 	7.81958284e-08 	4.6401265e-06
0.8651398453 	0.001948162992 	0.0009494749519 	5.419776293e-08 	0.002460173657 	9.726516946e-08 	4.68977476e-06
0.8707917195 	0.001992614669 	0.0009808375442 	5.930239452e-08 	0.002491338099 	1.182553875e-07 	4.749182848e-06
0.8763202709 	0.002041835494 	0.001012651101 	6.247706327e-08 	0.00252775992 	1.404683896e-07 	4.818612962e-06
0.8817281316 	0.002096412951 	0.001044516935 	6.162695009e-08 	0.002569180342 	1.610397723e-07 	4.897571798e-06
0.8870179495 	0.002157338046 	0.00107595194 	5.390068576e-08 	0.00261515207 	1.776297791e-07 	4.985206689e-06
0.8921922892 	0.002225377213 	0.001107741448 	4.991927305e-08 	0.002665814309 	1.944834925e-07 	5.081782998e-06
0.8972536287 	0.002300803845 	0.001141562231 	5.785104838e-08 	0.002722025976 	2.166678436e-07 	5.188938058e-06
0.9022044311 	0.002383657884 	0.001178408749 	7.082455103e-08 	0.002784823971 	2.437869936e-07 	5.308648491e-06
0.9070470928 	0.002473850289 	0.001218454682 	8.379385168e-08 	0.002855005064 	2.731734209e-07 	5.442433159e-06
0.9117839358 	0.002571002033 	0.001261641665 	9.613855617e-08 	0.002932967088 	3.022729403e-07 	5.591050446e-06
0.9164172573 	0.002674329786 	0.001307723646 	1.070104563e-07 	0.003018567199 	3.287483688e-07 	5.754228048e-06
0.9209493017 	0.002782633687 	0.001356237126 	1.155205278e-07 	0.003111008094 	3.503987315e-07 	5.930446087e-06
0.9253822478 	0.00289434973 	0.001406508634 	1.209079229e-07 	0.003208837443 	3.652714641e-07 	6.116936017e-06
0.9297182395 	0.003007636665 	0.001457694494 	1.226290385e-07 	0.003310086157 	3.719239455e-07 	6.309944205e-06
0.9339593777 	0.00312049088 	0.00150884292 	1.204177017e-07 	0.003412463691 	3.695769284e-07 	6.50510424e-06
0.9381077132 	0.003230839704 	0.001558956788 	1.142999214e-07 	0.003513600412 	3.58077945e-07 	6.697898939e-06
0.9421652477 	0.003328170784 	0.001603209258 	1.058808506e-07 	0.003603373394 	3.410228437e-07 	6.869031195e-06
0.9448070788 	0.003403399393 	0.001637393939 	9.636584554e-08 	0.003672809633 	3.202160986e-07 	7.001395965e-06
0.9473511684 	0.003465715772 	0.001665639212 	8.721049187e-08 	0.003730024753 	3.000280764e-07 	7.110463886e-06
0.9498011167 	0.00352328457 	0.001691654326 	7.738616289e-08 	0.003782520498 	2.779215922e-07 	7.210535366e-06
0.9521603921 	0.003576019242 	0.00171538766 	6.714444605e-08 	0.00383015093 	2.544135902e-07 	7.301332209e-06
0.9544323351 	0.003623911364 	0.001736819692 	5.671979396e-08 	0.003872810281 	2.300217976e-07 	7.382652787e-06
0.9566201651 	0.003667002363 	0.001755955935 	4.632666908e-08 	0.003910459118 	2.052139551e-07 	7.454421934e-06
0.9587269844 	0.003705373145 	0.001772822035 	3.615730065e-08 	0.003943112055 	1.804067857e-07 	7.516667509e-06
0.9607557814 	0.00373913421 	0.00178745871 	2.637906534e-08 	0.003970822063 	1.55977244e-07 	7.569490485e-06
0.9627094349 	0.003768412511 	0.001799916237 	1.713249731e-08 	0.003993670173 	1.322795144e-07 	7.613045333e-06
0.9645907186 	0.003793338324 	0.001810249084 	8.532381006e-09 	0.004011755856 	1.096619142e-07 	7.647521671e-06
0.966402304 	0.003814033924 	0.001818511012 	6.756019279e-10 	0.0040251872 	8.846815762e-08 	7.673125546e-06
0.968146765 	0.003830607043 	0.001824750948 	-6.34168013e-09 	0.004034067884 	6.898558948e-08 	7.690054597e-06
0.9698265803 	0.003843151723 	0.001829009481 	-1.240281322e-08 	0.004038476762 	5.129029709e-08 	7.698459145e-06
0.9714441384 	0.003851751865 	0.001831314361 	-1.73762524e-08 	0.00403844328 	3.516614038e-08 	7.698395319e-06
0.9730017398 	0.003856466864 	0.001831481745 	-2.546695791e-08 	0.004033928325 	2.01779176e-08 	7.68978856e-06
0.9745016008 	0.003857249861 	0.001829293963 	-3.577453181e-08 	0.00402485185 	6.646561198e-09 	7.672486276e-06
0.975945856 	0.003853869009 	0.001825050111 	-3.942320113e-08 	0.004011125821 	-4.41192042e-09 	7.64632065e-06
0.9773365614 	0.003845954331 	0.001819073998 	-3.802289589e-08 	0.003992586915 	-1.293171594e-08 	7.610980342e-06
0.9786756976 	0.003833049462 	0.001811535783 	-3.368722278e-08 	0.003968927186 	-1.934220988e-08 	7.565878322e-06
0.9799651721 	0.003814605596 	0.001801342946 	-2.855170151e-08 	0.003939584281 	-2.416313144e-08 	7.509942591e-06
0.9812068225 	0.003789840028 	0.001787537359 	-2.666642317e-08 	0.003903764492 	-2.796314582e-08 	7.441660116e-06
0.9824024183 	0.003757621266 	0.001770183024 	-2.589988411e-08 	0.003860447766 	-3.114123155e-08 	7.359086398e-06
0.9835536641 	0.003716453268 	0.001748661596 	-2.537955892e-08 	0.003808247165 	-3.443887267e-08 	7.259577544e-06
0.9846622016 	0.003664389698 	0.001722096212 	-2.558483309e-08 	0.003745339652 	-3.886103518e-08 	7.139658339e-06
0.9857296119 	0.003598934438 	0.001689355859 	-2.704551408e-08 	0.003669352134 	-4.553955083e-08 	6.994805011e-06
0.9867574179 	0.003516917894 	0.0016489986 	-3.032416415e-08 	0.003577231318 	-5.570630903e-08 	6.819197132e-06
0.9877470863 	0.003414362341 	0.001599215692 	-3.597231909e-08 	0.003465107259 	-7.064198007e-08 	6.605457512e-06
0.9887000298 	0.00328635777 	0.0015377091 	-4.478683512e-08 	0.003328167149 	-9.157682632e-08 	6.344411602e-06
0.9896176087 	0.003127006325 	0.001461736247 	-5.702779858e-08 	0.00316059394 	-1.194058144e-07 	6.024970491e-06
0.9905011333 	0.002947216814 	0.001376562728 	-7.116574434e-08 	0.002973933153 	-1.511912224e-07 	5.669143151e-06
0.9910707784 	0.002771767237 	0.001293815728 	-8.479406153e-08 	0.00279337587 	-1.81334043e-07 	5.324950788e-06
0.9916404465 	0.002589628451 	0.001208175778 	-9.804610173e-08 	0.002607085739 	-2.103771852e-07 	4.969830021e-06
0.9922101375 	0.002377371839 	0.001108610925 	-1.117015359e-07 	0.002391034736 	-2.401449612e-07 	4.557976761e-06
0.9927798515 	0.00213182924 	0.0009936564399 	-1.244559422e-07 	0.002142090805 	-2.678494333e-07 	4.083420438e-06
0.9933495885 	0.001850467835 	0.0008521342552 	-1.440646201e-07 	0.001857646135 	-2.899108953e-07 	3.541189839e-06
0.9939193485 	0.001534550348 	0.0006826143763 	-1.587498314e-07 	0.001539032002 	-2.988322973e-07 	2.933822748e-06
0.9944891314 	0.001194667781 	0.0005002646074 	-1.505934257e-07 	0.001197047299 	-2.839741943e-07 	2.281904854e-06
0.9950589373 	0.0008538809785 	0.0003228437983 	-1.21431334e-07 	0.0008548193322 	-2.395854163e-07 	1.629523232e-06
0.9956287662 	0.0005454953631 	0.0001750025869 	-7.788871584e-08 	0.0005456374341 	-1.721293553e-07 	1.040136602e-06
0.996198618 	0.0003016625577 	7.533558847e-05 	-3.713513479e-08 	0.0003015157709 	-1.009226358e-07 	5.747728613e-07
0.9967684928 	0.000138191703 	2.400265695e-05 	-1.217115704e-08 	0.0001380408633 	-4.597222633e-08 	2.63144252e-07
0.9973383906 	4.860382576e-05 	5.086774486e-06 	-2.439795635e-09 	4.853016758e-05 	-1.494327252e-08 	9.251198767e-08
0.9979083113 	1.12907848e-05 	5.843944378e-07 	-2.336646513e-10 	1.127090794e-05 	-2.852031473e-09 	2.148548312e-08
0.9984782549 	1.246901069e-06 	2.201552038e-08 	-4.868413252e-12 	1.244570041e-06 	-1.742553788e-10 	2.372496409e-09
0.9990482216 	3.79519379e-08 	1.006404218e-10 	1.728887463e-14 	3.787976603e-08 	4.44000001e-12 	7.220936219e-11
