/*--------------------------------*- C++ -*----------------------------------*\
| =========                 |                                                 |
| \\      /  F ield         | OpenFOAM: The Open Source CFD Toolbox           |
|  \\    /   O peration     | Version:  2.4.0                                 |
|   \\  /    A nd           | Web:      www.OpenFOAM.org                      |
|    \\/     M anipulation  |                                                 |
\*---------------------------------------------------------------------------*/
FoamFile
{
    version     2.0;
    format      ascii;
    class       volSymmTensorField;
    location    "2000";
    object      Ax;
}
// * * * * * * * * * * * * * * * * * * * * * * * * * * * * * * * * * * * * * //

dimensions      [0 0 0 0 0 0 0];

internalField   nonuniform List<symmTensor> 
15296
(
(-0.22508246 0.0041813502 -4.432385e-13 -0.35424735 -2.5975013e-10 0.57932981)
(-0.25455274 -0.00069178407 -2.1194192e-12 -0.35468684 -2.6941114e-10 0.60923959)
(-0.023431358 -0.00012013696 -1.8091831e-12 0.37101016 2.0019626e-10 -0.34757881)
(-0.023327803 0.0033609255 6.3683065e-13 0.37090431 1.9643015e-10 -0.34757651)
(-0.023702865 0.0033142137 6.2091603e-13 0.37128442 1.9623761e-10 -0.34758156)
(-0.023799862 0.006680683 3.0407982e-12 0.37145657 1.9580735e-10 -0.3476567)
(-0.25239715 0.002437613 7.6115351e-13 -0.35443915 -2.6864422e-10 0.6068363)
(-0.251399 -0.00074332183 -2.0589965e-12 -0.35493364 -2.6718705e-10 0.60633264)
(-0.020017841 4.9926807e-05 -7.3186497e-13 0.36735807 1.966933e-10 -0.34734023)
(-0.019859753 0.0035684315 6.6513059e-13 0.36727016 1.9388968e-10 -0.34741041)
(-0.019076232 0.0036837517 -4.6434968e-13 0.36645078 1.9351722e-10 -0.34737454)
(-0.0195959 0.0070673958 2.0044506e-12 0.36713111 1.927562e-10 -0.34753521)
(-0.24928365 0.0025367333 4.7042981e-12 -0.35427433 -2.6454628e-10 0.60355798)
(-0.24850554 0.0009961886 3.3898904e-12 -0.35469876 -2.6291448e-10 0.6032043)
(-0.24809628 0.0010201363 -4.9974991e-12 -0.3547049 -2.6593594e-10 0.60280118)
(-0.24713952 -0.00044863822 -2.1148286e-12 -0.35523422 -2.6254854e-10 0.60237374)
(-0.013578831 0.0011107852 -5.0137851e-13 0.36052826 1.9077685e-10 -0.34694943)
(-0.014432757 0.0044386076 8.0212418e-13 0.36158401 1.8914915e-10 -0.34715125)
(-0.01355029 0.0044941375 8.0640433e-13 0.36062506 1.8769098e-10 -0.34707477)
(-0.014622364 0.0076511556 4.539717e-12 0.36192684 1.845773e-10 -0.34730447)
(-0.24574744 0.0026744451 4.8279375e-12 -0.35398383 -2.5961455e-10 0.59973127)
(-0.2447671 0.001204064 -9.0887497e-13 -0.35440552 -2.5429013e-10 0.59917262)
(-0.24285645 -0.00017791201 2.3687794e-12 -0.35507123 -2.5049412e-10 0.59792768)
(-0.0045320553 0.0020699102 -2.9873901e-13 0.35105167 1.8480848e-10 -0.34651961)
(-0.0037434912 0.0055110903 -3.961077e-13 0.35048654 1.8271505e-10 -0.34674305)
(-0.0020291706 0.0088689106 2.1719803e-12 0.34902474 1.7979048e-10 -0.34699557)
(-0.2295765 0.0031754687 -5.0813319e-12 -0.35370843 -2.5524535e-10 0.58328493)
(-0.21926094 0.0019802754 -1.4928126e-12 -0.35431263 -2.4707786e-10 0.57357357)
(-0.20300931 0.00096430526 -2.8432182e-12 -0.35459133 -2.3874673e-10 0.55760064)
(0.055638073 0.0092116623 1.235502e-12 0.28923986 1.468056e-10 -0.34487794)
(0.051577176 0.0084117422 -6.8660435e-13 -0.22609967 -1.1771237e-10 0.17452249)
(0.25057259 0.015485467 -4.9734256e-13 -0.11885008 -4.9728465e-12 -0.13172251)
(0.39517902 0.025249141 9.3028735e-12 -0.1860645 -4.0582959e-12 -0.20911452)
(0.65796027 0.041180631 -3.381536e-13 -0.3153284 -4.187148e-12 -0.34263187)
(0.70164087 0.044679206 -6.4119418e-12 -0.33936699 -3.475946e-12 -0.36227387)
(0.7025807 0.044080848 -1.8647792e-12 -0.34215785 -2.6681395e-12 -0.36042285)
(0.70204115 0.047947719 3.9783552e-13 -0.34142281 -2.1059631e-12 -0.36061834)
(0.51265943 -0.030092624 1.0618937e-13 -0.34679782 5.0544192e-13 -0.16586161)
(0.11848692 0.011204651 -6.4314058e-13 -0.1250675 -3.2916266e-11 0.0065805779)
(0.077405092 0.0060052626 2.388352e-14 -0.11439953 -3.8041205e-11 0.036994443)
(-0.068973196 0.0069881932 5.7197443e-13 0.11605401 3.8145407e-11 -0.047080815)
(-0.069062881 0.0059962178 -5.9134418e-13 0.11657193 3.7328981e-11 -0.047509044)
(-0.069682345 0.0058457496 -6.0743362e-13 0.11719041 3.7338323e-11 -0.047508064)
(-0.068975689 0.0049592984 -6.0109288e-14 0.11628155 3.6995033e-11 -0.047305866)
(0.081809936 0.0045984321 -6.2520158e-13 -0.11647462 -3.813261e-11 0.034664683)
(0.083461828 0.0049538797 -1.1196574e-12 -0.11655544 -3.7698301e-11 0.033093616)
(-0.065839685 0.0064397196 2.3368162e-12 0.1149093 3.7600893e-11 -0.049069617)
(-0.065004092 0.0056765331 -6.8365975e-13 0.11435124 3.6485576e-11 -0.049347147)
(-0.064128898 0.0057133196 -6.9771311e-13 0.11393067 3.638164e-11 -0.049801768)
(-0.06316068 0.0050118676 -5.0001355e-14 0.11245796 3.5898966e-11 -0.049297284)
(0.088243844 0.0046805961 -6.0897029e-13 -0.11961256 -3.7767536e-11 0.031368713)
(0.089648331 0.0048848 -2.7356299e-13 -0.11982331 -3.7341178e-11 0.030174976)
(0.090595402 0.004887785 -1.5928662e-12 -0.12032869 -3.809586e-11 0.029733292)
(0.091983118 0.0050629836 3.6953365e-14 -0.11994053 -3.7116275e-11 0.02795741)
(-0.059396191 0.0065933453 5.1254001e-13 0.11202518 3.6179352e-11 -0.052628991)
(-0.058721101 0.0058145165 1.2432884e-12 0.11100805 3.5421507e-11 -0.052286949)
(-0.058525538 0.0057857722 1.2545947e-12 0.11209352 3.5803651e-11 -0.053567986)
(-0.058113674 0.005029503 -1.0665043e-12 0.11171697 3.5078062e-11 -0.0536033)
(0.096353005 0.0045139972 -5.6229379e-13 -0.12434217 -3.7879231e-11 0.027989164)
(0.099098372 0.004579034 -2.6515727e-13 -0.12672037 -3.7780598e-11 0.027621998)
(0.10205117 0.0046453749 3.4697857e-14 -0.12686691 -3.6794713e-11 0.024815743)
(-0.049268751 0.0060491826 4.6545206e-13 0.10621666 3.4842388e-11 -0.056947907)
(-0.045634205 0.0052454046 2.0364863e-13 0.10300388 3.3599888e-11 -0.057369674)
(-0.039626224 0.0043762134 -5.9370038e-14 0.096891008 3.1832673e-11 -0.057264784)
(0.12216839 0.0037086581 -5.0114687e-13 -0.13239321 -3.5525734e-11 0.010224822)
(0.13591178 0.0035708954 -1.7071901e-12 -0.13503644 -3.2905384e-11 -0.00087533908)
(0.15697409 0.0033682398 1.1976378e-13 -0.14013769 -3.018616e-11 -0.016836398)
(0.029038136 0.0030514368 9.5912927e-14 0.058301544 2.5828742e-11 -0.08733968)
(0.21134297 0.0004374173 -1.8509227e-13 -0.1272922 -1.2508173e-11 -0.084050768)
(0.26008109 -0.00030415248 1.4003889e-13 -0.12673525 -2.0752078e-12 -0.13334583)
(0.40884094 -0.0040302739 1.7628561e-12 -0.20055494 -2.22126e-12 -0.208286)
(0.67752757 -0.010036936 3.3001376e-13 -0.33514545 -2.1952781e-12 -0.34238213)
(0.70665937 -0.013126792 3.0781626e-13 -0.35036838 -1.7538093e-12 -0.35629099)
(0.7065247 -0.020124672 3.6723985e-13 -0.35092373 -1.460787e-12 -0.35560098)
(0.70658229 -0.010364224 -4.1809556e-14 -0.34905164 -1.2903087e-12 -0.35753065)
(0.37498226 -0.28397742 -6.0031028e-13 -0.25380261 1.2106665e-12 -0.12117965)
(0.053990068 0.017746465 -5.101711e-13 -0.0066114114 6.963664e-12 -0.047378657)
(0.015953487 0.011471489 3.0467526e-13 0.012840218 8.0139848e-12 -0.028793705)
(0.022711365 0.0093463797 7.0397492e-15 -0.040123593 -1.686003e-11 0.017412228)
(0.022718494 0.0085355065 -1.9140666e-13 -0.040229048 -1.6661503e-11 0.017510553)
(0.022044219 0.0083191926 -1.881438e-13 -0.039937413 -1.6702001e-11 0.017893194)
(0.022862967 0.0076389724 -1.0090625e-12 -0.040531461 -1.6740209e-11 0.017668494)
(0.020405926 0.0081004246 4.8302057e-13 0.0099978628 7.7343788e-12 -0.030403789)
(0.020998546 0.0095272865 8.9625518e-13 0.010400234 7.844698e-12 -0.03139878)
(0.025721199 0.0086175162 -6.4017773e-13 -0.041080484 -1.6589701e-11 0.015359285)
(0.026864298 0.0080930744 -1.8361955e-13 -0.041955834 -1.6632458e-11 0.015091535)
(0.027818505 0.0081238492 -1.8582175e-13 -0.042395607 -1.669476e-11 0.014577101)
(0.029074274 0.0076615117 -3.6607732e-13 -0.043452063 -1.6631384e-11 0.014377789)
(0.026490091 0.0082928487 -1.0612526e-13 0.0064945985 7.1838555e-12 -0.03298469)
(0.026893815 0.0090707692 8.8071377e-14 0.0069308528 7.3330575e-12 -0.033824668)
(0.027642776 0.0091143657 8.6687189e-14 0.0065829957 7.2246597e-12 -0.034225771)
(0.027722577 0.0098081357 2.6940771e-13 0.0073074467 7.4027478e-12 -0.035030024)
(0.032078947 0.0088471785 -5.6570512e-15 -0.043355229 -1.6272652e-11 0.011276282)
(0.033224179 0.0083082249 -1.8483365e-13 -0.044574028 -1.6297378e-11 0.011349849)
(0.033972797 0.0082721589 -1.8088579e-13 -0.044838553 -1.6131444e-11 0.010865756)
(0.035474755 0.0077288667 -1.109354e-12 -0.046282876 -1.6177916e-11 0.010808121)
(0.033940983 0.0082796132 -9.9338499e-14 0.0021546474 6.4834259e-12 -0.036095631)
(0.035390034 0.0089075883 -6.5526684e-13 0.002056036 6.3107567e-12 -0.03744607)
(0.036724425 0.009479647 1.7226443e-12 0.0023552707 6.5668744e-12 -0.039079696)
(0.042558336 0.0084558565 -4.355897e-15 -0.047663964 -1.5846091e-11 0.0051056279)
(0.047265431 0.0078607752 6.3129312e-13 -0.05078853 -1.5859803e-11 0.0035230988)
(0.054078111 0.0072904974 -1.1390148e-12 -0.054969101 -1.5970317e-11 0.00089098948)
(0.05915934 0.0078528633 6.9151279e-13 -0.01154002 5.7714001e-12 -0.04761932)
(0.070973413 0.0084272578 8.449155e-14 -0.016690654 5.6547899e-12 -0.054282759)
(0.089404184 0.0089197642 1.0226573e-12 -0.025411654 5.443682e-12 -0.06399253)
(0.12544774 0.0071976059 -9.5136684e-13 -0.085006843 -1.2863012e-11 -0.040440898)
(0.16752 0.0075584852 -5.8468773e-15 -0.07313335 3.0198753e-12 -0.094386648)
(0.25223379 0.0077971322 -8.0788504e-13 -0.12388835 -1.9180646e-12 -0.12834543)
(0.3973895 0.0069507882 1.1212647e-12 -0.19644249 -2.0662545e-12 -0.20094701)
(0.65862089 0.0076694909 3.1185211e-13 -0.32733871 -2.2470469e-12 -0.33128218)
(0.70703285 0.0051952665 -3.3244045e-13 -0.35145133 -1.8919519e-12 -0.35558151)
(0.70706467 -0.0052431443 4.0816484e-13 -0.35167418 -1.6246766e-12 -0.3553905)
(0.70624225 0.0086656032 -3.9725731e-14 -0.34795277 -1.5184575e-12 -0.35828948)
(0.13964051 -0.17043505 -4.3308933e-14 -0.099860282 3.4297321e-13 -0.039780228)
(0.039337823 0.025376578 2.1380823e-13 -0.0043014258 2.9038769e-12 -0.035036397)
(0.0032651822 0.014875339 6.0070054e-14 0.01364981 3.6804152e-12 -0.016914992)
(0.027139172 0.012620178 3.118264e-13 -0.028319607 -6.4591577e-12 0.0011804345)
(0.027402896 0.012219281 -1.0228649e-13 -0.028653566 -6.5012156e-12 0.0012506699)
(0.026844182 0.011912843 -5.4094403e-13 -0.028473462 -6.5621845e-12 0.0016292798)
(0.027492775 0.011670413 7.9670329e-13 -0.028699166 -6.4262031e-12 0.0012063914)
(0.0078141724 0.012140694 6.2995928e-14 0.011043674 3.5975138e-12 -0.018857847)
(0.0087441249 0.012016993 4.8397528e-14 0.010589209 3.5532298e-12 -0.019333334)
(0.030504754 0.011559533 -1.0337682e-13 -0.030021157 -6.578737e-12 -0.00048359756)
(0.031690576 0.011541463 -1.0253004e-13 -0.030704807 -6.561551e-12 -0.00098576837)
(0.032709452 0.01157248 -1.0347043e-13 -0.031229448 -6.5740114e-12 -0.0014800045)
(0.033641853 0.011604696 -8.6671249e-14 -0.031548715 -6.4223807e-12 -0.0020931381)
(0.013666007 0.012265158 6.3169397e-14 0.0080322222 3.3137604e-12 -0.021698229)
(0.014313313 0.01229233 -4.1800342e-13 0.007783843 3.2222898e-12 -0.022097156)
(0.015024198 0.012333423 5.2758734e-14 0.0074622965 3.2549106e-12 -0.022486494)
(0.015745463 0.012304194 -4.4614734e-13 0.0069452931 3.068741e-12 -0.022690756)
(0.037332728 0.011813576 -1.1251036e-13 -0.033340635 -6.5660608e-12 -0.0039920932)
(0.038301296 0.011749101 -1.1480765e-12 -0.033855022 -6.4944868e-12 -0.0044462735)
(0.03926571 0.011692068 -1.0075905e-13 -0.034457787 -6.4685493e-12 -0.0048079234)
(0.040422903 0.011591818 -9.0162273e-14 -0.0349719 -6.4383486e-12 -0.0054510026)
(0.020640564 0.012110329 5.7361977e-13 0.0045488071 3.1324801e-12 -0.025189371)
(0.021958638 0.011990415 4.7686119e-14 0.0041296547 2.9879131e-12 -0.026088293)
(0.02398648 0.011823553 4.3149246e-14 0.0029466523 2.9186396e-12 -0.026933132)
(0.047987793 0.01121449 4.6066772e-13 -0.038370989 -6.4008438e-12 -0.0096168043)
(0.05225199 0.011023966 -9.3998826e-14 -0.040374487 -6.2527819e-12 -0.011877504)
(0.058184704 0.010831664 4.95174e-13 -0.042889816 -6.1027941e-12 -0.015294889)
(0.045968519 0.011183798 1.1659033e-12 -0.0091244363 2.6039277e-12 -0.036844083)
(0.058818916 0.01088162 4.7483982e-14 -0.016160441 2.1409592e-12 -0.042658475)
(0.078684124 0.010487429 -5.3405186e-13 -0.027067547 1.6684922e-12 -0.051616577)
(0.12981843 0.0093953816 -1.2901234e-12 -0.076549073 -5.3089501e-12 -0.053269352)
(0.16482777 0.0089427559 3.317414e-14 -0.077314599 6.4165496e-14 -0.087513167)
(0.25259277 0.0078881112 7.6222926e-14 -0.12576554 -1.6969584e-12 -0.12682723)
(0.39728714 0.0049491136 2.0461107e-13 -0.19807655 -1.8074065e-12 -0.19921059)
(0.65722871 0.0019173539 1.152661e-12 -0.32813315 -1.9577908e-12 -0.32909556)
(0.70719026 -0.0025772941 4.0071005e-13 -0.35310632 -1.7433515e-12 -0.35408394)
(0.70691565 -0.017433794 5.3486821e-13 -0.35296059 -1.5237737e-12 -0.35395506)
(0.70642116 0.0030798186 2.5676606e-14 -0.3481899 -1.4923242e-12 -0.35823127)
(0.35583547 -0.3933824 1.9335526e-13 -0.15570522 -1.7011008e-13 -0.20013025)
(0.046904784 0.030952051 5.2377044e-14 -0.02160008 -1.6669736e-12 -0.025304704)
(0.013390022 0.018706742 -3.8008636e-13 -0.007087942 -1.7453919e-12 -0.0063020803)
(0.01916132 0.016390093 -3.6714576e-13 -0.0095651047 -1.1913619e-12 -0.0095962157)
(0.019378901 0.016039198 -2.3898201e-14 -0.0097251188 -1.241339e-12 -0.0096537824)
(0.018793899 0.015647217 -2.4873643e-14 -0.0094556894 -1.2879432e-12 -0.0093382095)
(0.019373685 0.015499218 -3.333524e-13 -0.0096528662 -1.211533e-12 -0.0097208189)
(0.018034151 0.015280679 -1.0072665e-14 -0.0095036585 -1.7079566e-12 -0.008530492)
(0.019141341 0.014970922 -5.6645873e-14 -0.010216705 -1.7420935e-12 -0.0089246354)
(0.022602258 0.01499091 3.0882104e-13 -0.01144245 -1.2752795e-12 -0.011159808)
(0.023634745 0.015144771 -2.7720757e-14 -0.011882818 -1.3203247e-12 -0.011751927)
(0.024627305 0.015184647 -2.6625491e-14 -0.012381904 -1.3340113e-12 -0.012245401)
(0.025406026 0.015382245 5.8499851e-15 -0.012582149 -1.2281369e-12 -0.012823877)
(0.023828364 0.015397493 -3.8145595e-13 -0.012276284 -1.8082784e-12 -0.011552079)
(0.024646957 0.015350281 3.4687442e-13 -0.012803165 -1.7775945e-12 -0.011843792)
(0.025377383 0.015399387 -4.1951107e-13 -0.013156443 -1.9088858e-12 -0.01222094)
(0.026242785 0.015297178 -6.4891803e-14 -0.013808998 -1.9531595e-12 -0.012433786)
(0.029464236 0.015319685 -5.1842575e-14 -0.014989734 -1.4400446e-12 -0.014474502)
(0.030169395 0.015413213 -2.8143622e-14 -0.015145118 -1.420938e-12 -0.015024278)
(0.031116917 0.01534681 3.7600293e-13 -0.015672086 -1.3531133e-12 -0.015444831)
(0.032007706 0.015387519 1.22111e-12 -0.015870516 -1.3072659e-12 -0.01613719)
(0.030713014 0.015226314 -8.3063016e-13 -0.015521598 -1.7819939e-12 -0.015191416)
(0.03237619 0.014990473 -3.5269066e-14 -0.016511948 -1.8378644e-12 -0.015864242)
(0.034671477 0.014724768 -5.1254252e-14 -0.017966416 -1.8564013e-12 -0.016705061)
(0.040129183 0.014593162 -4.5102449e-14 -0.020412278 -1.4984388e-12 -0.019716905)
(0.044019353 0.014537703 4.0517139e-13 -0.022063166 -1.4083634e-12 -0.021956187)
(0.049575602 0.014440737 -4.3370942e-16 -0.024443146 -1.3975264e-12 -0.025132456)
(0.05580624 0.014119217 -1.6445302e-15 -0.028029917 -1.806702e-12 -0.027776323)
(0.068832804 0.013693231 -1.9767232e-14 -0.034862616 -1.9605773e-12 -0.033970188)
(0.088702985 0.013203866 -2.7115282e-14 -0.045100215 -2.0708488e-12 -0.04360277)
(0.1212013 0.012683839 -1.4412296e-14 -0.060638768 -1.8496219e-12 -0.060562537)
(0.16829549 0.011927121 -4.5515516e-13 -0.084058379 -1.4654362e-12 -0.084237109)
(0.25075399 0.010820213 8.4336958e-14 -0.12495499 -1.5083646e-12 -0.125799)
(0.39380093 0.0076269047 2.2461176e-13 -0.19637512 -1.6827135e-12 -0.19742581)
(0.65030579 0.0048273772 -7.0298897e-13 -0.32466773 -1.8586734e-12 -0.32563806)
(0.70719179 -0.00064365478 4.3441234e-13 -0.35311595 -1.6467704e-12 -0.35407584)
(0.70684226 -0.019503243 4.0519481e-13 -0.35287431 -1.477102e-12 -0.35396796)
(0.70623879 0.0030132255 3.4458957e-14 -0.34747256 -1.4833177e-12 -0.35876623)
(0.38268261 -0.39825266 4.9816288e-13 -0.16063879 -5.2501679e-13 -0.22204383)
(0.045204018 0.037931938 -2.888034e-13 -0.020769649 -1.3715099e-12 -0.024434369)
(0.014725427 0.024284055 -3.7289503e-13 -0.008672903 -1.4902862e-12 -0.0060525236)
(0.016184037 0.021286353 3.115613e-13 -0.0056606413 -4.771617e-13 -0.010523396)
(0.016393153 0.020660234 -1.1404654e-14 -0.0057789933 -4.9902104e-13 -0.010614159)
(0.015796256 0.020161518 3.2346654e-13 -0.0054876332 -4.6309988e-13 -0.010308623)
(0.016431329 0.019823935 -3.0981016e-16 -0.0058199024 -4.9996965e-13 -0.010611427)
(0.019668935 0.019495525 -3.7722418e-13 -0.011364402 -1.4447947e-12 -0.0083045329)
(0.020762698 0.01932965 -4.0883038e-14 -0.011966849 -1.4029814e-12 -0.0087958488)
(0.01964507 0.019444817 -1.1983779e-14 -0.0075172136 -4.7526086e-13 -0.012127856)
(0.020665748 0.019480101 -1.7357964e-14 -0.0079810688 -5.4195315e-13 -0.012684679)
(0.021645651 0.019514633 1.0851339e-12 -0.0084633561 -4.5426603e-13 -0.013182294)
(0.022518573 0.019599885 2.043429e-15 -0.0088912656 -5.39142e-13 -0.013627307)
(0.02552532 0.019551106 -2.5384883e-14 -0.014255025 -1.4614144e-12 -0.011270295)
(0.026346607 0.019590222 -7.9953074e-13 -0.014718012 -1.4924472e-12 -0.011628595)
(0.027094092 0.019641772 -4.0001243e-14 -0.015097088 -1.5179981e-12 -0.011997004)
(0.02787666 0.019625631 -4.9197316e-14 -0.01550976 -1.51261e-12 -0.0123669)
(0.026440118 0.019757991 -2.3043801e-14 -0.010935748 -6.13073e-13 -0.01550437)
(0.027190871 0.019734815 7.8783524e-13 -0.011254695 -5.8197783e-13 -0.015936176)
(0.028075943 0.019656979 -1.2515714e-14 -0.011681925 -5.9437866e-13 -0.016394017)
(0.029053581 0.019576592 4.0923484e-13 -0.012137326 -5.401236e-13 -0.016916254)
(0.032488672 0.019322569 -4.4554582e-13 -0.017692001 -1.5580402e-12 -0.014796671)
(0.034146237 0.019135502 -3.7219787e-14 -0.018598667 -1.5107694e-12 -0.01554757)
(0.03631973 0.018922457 -3.7112416e-14 -0.01972502 -1.476771e-12 -0.01659471)
(0.037010884 0.018864183 -8.7825471e-13 -0.016283339 -7.5436506e-13 -0.020727545)
(0.04097028 0.018660453 -1.5793875e-14 -0.01821076 -6.8210229e-13 -0.022759519)
(0.046698314 0.018405596 4.3655201e-13 -0.021071332 -7.0282646e-13 -0.025626982)
(0.057351247 0.017965384 -4.6416994e-13 -0.029946375 -1.5459921e-12 -0.027404872)
(0.070126571 0.017539557 -4.7558783e-13 -0.03631064 -1.6096649e-12 -0.033815931)
(0.089623053 0.017027777 -1.2934706e-14 -0.045953276 -1.5558267e-12 -0.043669777)
(0.11771463 0.016386894 4.4527736e-16 -0.056950734 -1.2041693e-12 -0.060763899)
(0.16807745 0.015282677 2.9380269e-14 -0.084166083 -1.2868078e-12 -0.083911369)
(0.24896248 0.013850443 9.8546955e-14 -0.12395386 -1.3342157e-12 -0.12500862)
(0.39051336 0.0096628476 -2.9632524e-13 -0.19466693 -1.5678895e-12 -0.19584643)
(0.64338914 0.005660532 4.9245248e-13 -0.32111187 -1.7656423e-12 -0.32227728)
(0.70717887 -0.0014440222 4.7874764e-13 -0.35288337 -1.5771038e-12 -0.3542955)
(0.70657872 -0.025682045 6.7615967e-13 -0.35259449 -1.4100059e-12 -0.35398422)
(0.70485938 0.0052843216 7.6231744e-14 -0.3437465 -1.4616081e-12 -0.36111288)
(0.3620603 -0.35273879 4.517783e-13 -0.1957947 -4.7363141e-13 -0.1662656)
(0.04129834 0.046235638 3.3277373e-14 -0.016632248 -7.8715853e-13 -0.024666091)
(0.013850126 0.031434021 1.8996739e-13 -0.006397438 -8.2906486e-13 -0.0074526885)
(0.017149764 0.027309481 2.1333684e-13 -0.0077279184 -5.8241675e-13 -0.0094218453)
(0.017442651 0.026414002 -1.8839816e-14 -0.007951201 -6.4927146e-13 -0.00949145)
(0.016857014 0.025780885 -2.0542903e-14 -0.0076902112 -6.6706396e-13 -0.0091668023)
(0.017518049 0.025300403 -1.7483695e-14 -0.0080641622 -7.207914e-13 -0.0094538865)
(0.019266267 0.025016848 -2.6205712e-14 -0.009576635 -8.3048474e-13 -0.0096896319)
(0.020308386 0.02492948 -2.4026372e-14 -0.010078875 -8.0474948e-13 -0.010229511)
(0.020687774 0.024897945 -2.6319252e-13 -0.0096508482 -7.4142871e-13 -0.011036926)
(0.021731593 0.02486892 -2.7411149e-14 -0.010174376 -7.3224202e-13 -0.011557217)
(0.02271191 0.024889101 4.8742312e-13 -0.010660363 -5.3969646e-13 -0.012051547)
(0.02363412 0.024914554 -1.3137599e-14 -0.011161292 -7.3477932e-13 -0.012472828)
(0.025157615 0.024960591 -2.0865875e-14 -0.012546119 -8.4191792e-13 -0.012611496)
(0.025930039 0.025053382 -2.3983001e-14 -0.012913671 -9.2385273e-13 -0.013016368)
(0.026673032 0.025104041 -2.8281302e-14 -0.013285309 -8.5362768e-13 -0.013387723)
(0.027374225 0.025141864 -3.5226536e-14 -0.013580677 -8.7918716e-13 -0.013793547)
(0.027424772 0.025141685 -2.7653686e-14 -0.012976174 -7.9463164e-13 -0.014448598)
(0.028227935 0.025059453 -2.3242594e-14 -0.01340415 -7.5416444e-13 -0.014823786)
(0.029106294 0.024964079 -2.1804582e-14 -0.013834045 -7.7441257e-13 -0.015272248)
(0.030160299 0.024814732 -1.5305216e-14 -0.01441825 -7.1199975e-13 -0.015742048)
(0.032125552 0.024637149 -2.3668427e-14 -0.016054037 -9.2637751e-13 -0.016071515)
(0.033706865 0.02447636 -2.5962909e-14 -0.016825343 -9.0057898e-13 -0.016881522)
(0.035757536 0.02428131 -2.3707138e-14 -0.017785551 -8.8982101e-13 -0.017971984)
(0.037880732 0.024055215 -6.1864293e-13 -0.018201662 -9.370989e-13 -0.01967907)
(0.041895592 0.023747189 -2.4223122e-14 -0.020260472 -8.3141933e-13 -0.021635121)
(0.047679072 0.023385691 -1.6337383e-14 -0.023236197 -8.2737083e-13 -0.024442876)
(0.056792859 0.02296747 -1.3083677e-14 -0.028364233 -1.0024637e-12 -0.028428627)
(0.069326648 0.022502661 -9.412084e-15 -0.034544939 -1.0645668e-12 -0.034781709)
(0.088493516 0.021907063 -5.2459863e-16 -0.044011995 -1.0255125e-12 -0.044481521)
(0.11774005 0.020989555 2.1277986e-15 -0.058193823 -1.1341557e-12 -0.059546226)
(0.16625934 0.019663499 3.8461443e-14 -0.082719965 -1.0466929e-12 -0.083539378)
(0.24626463 0.017812003 1.0810168e-13 -0.12256722 -1.1926383e-12 -0.12369741)
(0.38570751 0.012597162 2.6062607e-13 -0.19229809 -1.4414401e-12 -0.19340943)
(0.63388785 0.007462799 5.2653545e-13 -0.31642763 -1.6469971e-12 -0.31746022)
(0.70717268 -0.0016649134 5.1510703e-13 -0.35291386 -1.4957591e-12 -0.35425882)
(0.70622365 -0.032255258 6.1299189e-13 -0.35250967 -1.3291336e-12 -0.35371399)
(0.70486986 -0.0019011147 6.5570843e-14 -0.34347667 -1.4509521e-12 -0.36139319)
(0.4421553 -0.28353535 3.6313769e-13 -0.26635887 -3.4800293e-13 -0.17579643)
(0.037427615 0.054806212 -1.1825103e-13 -0.013228802 -5.5296961e-13 -0.024198813)
(0.012824378 0.039289681 -2.3096664e-14 -0.0047995183 -5.4413951e-13 -0.0080248596)
(0.017442334 0.034090985 -3.2968322e-13 -0.0080187091 -5.2660598e-13 -0.0094236252)
(0.017879612 0.032940789 -2.3700116e-14 -0.0083941288 -5.7744449e-13 -0.0094854827)
(0.01731955 0.032155999 1.4025508e-13 -0.0081754228 -5.506188e-13 -0.0091441276)
(0.017978544 0.031579199 -1.4027652e-14 -0.0085406163 -5.7676146e-13 -0.0094379281)
(0.018831355 0.031280176 -1.8904616e-13 -0.0085415869 -5.9158137e-13 -0.010289768)
(0.019872259 0.03112387 -2.2951093e-14 -0.0090564308 -5.4222098e-13 -0.010815829)
(0.021146775 0.031019615 -2.106467e-14 -0.010137732 -6.6397452e-13 -0.011009043)
(0.022206206 0.030984308 -2.03027e-13 -0.010683545 -6.7544332e-13 -0.011522662)
(0.023192009 0.030991479 -2.0269782e-14 -0.01117946 -4.8819346e-13 -0.012012549)
(0.024104863 0.031015334 -1.2886953e-14 -0.011646829 -5.8641025e-13 -0.012458035)
(0.024723302 0.031103348 -3.8415919e-13 -0.011517272 -6.1418917e-13 -0.01320603)
(0.025484269 0.031177812 -1.6486398e-14 -0.011877948 -5.9634051e-13 -0.013606321)
(0.026218922 0.03122613 -2.1443067e-13 -0.012239821 -6.4190128e-13 -0.013979101)
(0.026930997 0.031248327 -3.6432043e-14 -0.012579629 -6.1635457e-13 -0.014351368)
(0.027880798 0.031193271 1.638143e-13 -0.01348603 -6.3567548e-13 -0.014394769)
(0.028686992 0.031108242 -2.3816856e-14 -0.013911429 -6.4851419e-13 -0.014775564)
(0.029565414 0.030993194 -2.1432029e-14 -0.014354366 -6.6244247e-13 -0.015211048)
(0.030601214 0.03082858 -1.3318147e-14 -0.014895624 -6.073807e-13 -0.015705589)
(0.031631227 0.030672658 -4.2551788e-13 -0.014986411 -6.8777583e-13 -0.016644816)
(0.033180445 0.030463415 -2.3010132e-13 -0.015742016 -7.0153729e-13 -0.017438429)
(0.035224266 0.030210838 -2.3751166e-14 -0.016748571 -6.247425e-13 -0.018475695)
(0.038244199 0.029883742 1.8290492e-13 -0.01868738 -7.6389683e-13 -0.019556819)
(0.042220724 0.02952252 -2.4431807e-14 -0.020709229 -7.3228256e-13 -0.021511494)
(0.047922324 0.029102585 2.0021138e-13 -0.023588858 -6.8179675e-13 -0.024333466)
(0.056050817 0.028647392 -6.9121096e-15 -0.027257684 -7.1648578e-13 -0.028793133)
(0.068452541 0.028063302 -2.385424e-15 -0.033445162 -7.5478157e-13 -0.035007379)
(0.087422549 0.027313519 -2.2441763e-13 -0.042925293 -8.3749903e-13 -0.044497256)
(0.1170669 0.026189118 3.7994763e-15 -0.058087856 -9.6079524e-13 -0.058979042)
(0.16441249 0.024597262 4.3941757e-14 -0.081581039 -9.343202e-13 -0.082831447)
(0.2432778 0.02227805 1.1473796e-13 -0.12103784 -1.0724857e-12 -0.12223996)
(0.38033221 0.015983765 2.6888859e-13 -0.18963046 -1.341123e-12 -0.19070176)
(0.62341433 0.0094535207 2.633926e-13 -0.31125344 -1.5742247e-12 -0.31216089)
(0.70716 -0.002094013 5.3637295e-13 -0.35286908 -1.4134895e-12 -0.35429092)
(0.70579056 -0.038716182 8.091194e-13 -0.3521854 -1.2398421e-12 -0.35360516)
(0.70582091 -0.0029885885 9.3089292e-14 -0.34619364 -1.4154059e-12 -0.35962727)
(0.58737163 -0.13082914 3.1990153e-13 -0.35105787 -2.8101284e-13 -0.23631376)
(0.034173279 0.063345965 2.6519187e-14 -0.010816339 -4.9206618e-13 -0.02335694)
(0.012385084 0.047945589 -2.2471138e-14 -0.0041652028 -4.724858e-13 -0.0082198816)
(0.017402829 0.041754543 -9.9454172e-15 -0.0074905802 -4.2533119e-13 -0.0099122485)
(0.018013432 0.040312314 -2.0990831e-14 -0.0080227871 -4.4188909e-13 -0.0099906448)
(0.017482426 0.03935755 2.1727e-13 -0.0078457274 -4.0195616e-13 -0.0096366987)
(0.018142236 0.038674112 -2.547377e-13 -0.0082181523 -4.7997325e-13 -0.0099240832)
(0.019082608 0.038279898 -2.0914323e-14 -0.0085529806 -4.973314e-13 -0.010529628)
(0.020137941 0.038047774 -2.6044415e-14 -0.0091008162 -4.9646927e-13 -0.011037125)
(0.021336198 0.037925136 -1.9216759e-14 -0.0098737794 -4.6572496e-13 -0.011462419)
(0.022392694 0.037883716 -2.2513146e-14 -0.010410738 -5.252173e-13 -0.011981956)
(0.023378731 0.037876123 2.4238648e-13 -0.010908139 -3.673909e-13 -0.012470592)
(0.024277879 0.037897277 -2.7608443e-13 -0.011352304 -5.1109417e-13 -0.012925575)
(0.024974196 0.037952003 -1.5910067e-14 -0.011536223 -5.1687029e-13 -0.013437973)
(0.025739643 0.038002468 -1.7219637e-14 -0.011914939 -5.1326849e-13 -0.013824705)
(0.0264696 0.038042415 -2.8947401e-14 -0.012275442 -5.6805199e-13 -0.014194158)
(0.027191703 0.038045619 1.0186103e-13 -0.012642445 -4.9111925e-13 -0.014549258)
(0.028060467 0.037995903 1.1185414e-13 -0.013241793 -4.6188695e-13 -0.014818674)
(0.028845356 0.037909164 -2.2941334e-14 -0.013635511 -4.9388614e-13 -0.015209845)
(0.029716704 0.037771507 1.2491843e-13 -0.014078123 -5.0585554e-13 -0.015638581)
(0.030721095 0.037590301 -1.1085733e-14 -0.014578486 -4.6919761e-13 -0.016142609)
(0.031807143 0.037379127 -2.267837e-14 -0.014961601 -5.9101106e-13 -0.016845541)
(0.033352114 0.037112442 1.2700507e-13 -0.015743406 -5.4845697e-13 -0.017608707)
(0.035394798 0.036796202 -2.2228203e-14 -0.016785739 -5.0002909e-13 -0.018609059)
(0.038311796 0.036423311 -2.7060368e-14 -0.018423044 -5.8631822e-13 -0.019888752)
(0.042217662 0.036006824 -2.1713051e-14 -0.020385017 -5.7949617e-13 -0.021832645)
(0.047816547 0.035518852 -1.179907e-14 -0.023185871 -5.4076719e-13 -0.024630676)
(0.055911555 0.034949725 -1.6409306e-13 -0.027097887 -6.3455226e-13 -0.028813668)
(0.06816283 0.034232795 -3.2346548e-13 -0.033249736 -7.0041605e-13 -0.034913095)
(0.086878425 0.033317297 -1.6407617e-13 -0.042638537 -7.6368469e-13 -0.044239889)
(0.11596878 0.032012369 4.2070159e-15 -0.05731635 -8.5813313e-13 -0.058652431)
(0.16251396 0.030095603 2.2163258e-13 -0.080529097 -8.052253e-13 -0.081984865)
(0.23984178 0.027281022 -6.1483264e-14 -0.11920755 -1.0092183e-12 -0.12063423)
(0.37418369 0.019898366 2.6743694e-13 -0.18650858 -1.2429198e-12 -0.18767512)
(0.61167392 0.011893977 5.550562e-13 -0.30540186 -1.4790013e-12 -0.30627206)
(0.70714211 -0.0025007681 5.5202593e-13 -0.35279015 -1.3320469e-12 -0.35435197)
(0.70530808 -0.044822668 9.1272367e-13 -0.35169629 -1.1262021e-12 -0.35361179)
(0.70646016 -0.014873893 1.6806726e-13 -0.34909798 -1.3549394e-12 -0.35736218)
(0.57805214 -0.084094152 2.2573772e-13 -0.35915775 -2.6240893e-13 -0.21889439)
(0.031275672 0.071849734 1.8361272e-14 -0.0084819534 -4.0719743e-13 -0.022793718)
(0.011875402 0.057466807 1.495187e-13 -0.003229433 -3.4200213e-13 -0.0086459688)
(0.017249858 0.050364043 -2.1679105e-15 -0.006728159 -3.0806475e-13 -0.010521699)
(0.018079964 0.048590806 -1.9069289e-13 -0.0074563971 -3.6796056e-13 -0.010623567)
(0.017590104 0.047450414 1.5328822e-13 -0.0073355488 -2.9228443e-13 -0.010254556)
(0.018262599 0.046637814 -1.4726685e-14 -0.0077383647 -3.9909155e-13 -0.010524234)
(0.019354088 0.046146575 -1.992338e-13 -0.0083637197 -4.2975621e-13 -0.010990368)
(0.020421193 0.045857989 -2.7213955e-14 -0.0089311218 -4.5241714e-13 -0.011490071)
(0.021482862 0.045714097 -1.6667521e-14 -0.0094437035 -3.7914523e-13 -0.012039159)
(0.022535852 0.045652874 -1.816014e-14 -0.009977007 -4.0117736e-13 -0.012558845)
(0.023520133 0.045631354 -1.6956678e-14 -0.010474166 -3.1155587e-13 -0.013045967)
(0.024419229 0.045637049 -1.6705056e-14 -0.01092387 -4.2952497e-13 -0.013495358)
(0.025255825 0.045660662 -2.0895009e-13 -0.011378761 -4.6663693e-13 -0.013877064)
(0.02602343 0.045696647 -1.5143752e-14 -0.01176537 -4.0239172e-13 -0.01425806)
(0.026749936 0.045725963 -2.5549983e-14 -0.012127049 -4.4393312e-13 -0.014622887)
(0.027465661 0.045720652 -3.5954758e-14 -0.012488577 -4.0831145e-13 -0.014977084)
(0.028181929 0.045675378 -2.8602969e-14 -0.012812222 -3.8003813e-13 -0.015369707)
(0.028951892 0.045572385 -2.2786169e-14 -0.013196164 -3.983066e-13 -0.015755729)
(0.02980889 0.045410603 1.9417016e-13 -0.01363126 -3.6163725e-13 -0.01617763)