/*--------------------------------*- C++ -*----------------------------------*\
| =========                 |                                                 |
| \\      /  F ield         | OpenFOAM: The Open Source CFD Toolbox           |
|  \\    /   O peration     | Version:  2.4.0                                 |
|   \\  /    A nd           | Web:      www.OpenFOAM.org                      |
|    \\/     M anipulation  |                                                 |
\*---------------------------------------------------------------------------*/
FoamFile
{
    version     2.0;
    format      ascii;
    class       volScalarField;
    location    "2000";
    object      omega;
}
// * * * * * * * * * * * * * * * * * * * * * * * * * * * * * * * * * * * * * //

dimensions      [0 0 -1 0 0 0 0];

internalField   nonuniform List<scalar> 
15296
(
0.85792413
0.8557286
0.85367958
0.85160535
0.84973754
0.84809976
0.8465079
0.84536545
0.84464886
0.84401698
0.84365024
0.84355771
0.84357253
0.84406552
0.84486581
0.8459976
0.84760967
0.84942933
0.85164085
0.85424508
0.85698788
0.86037061
0.86413294
0.86831288
0.8728313
0.87774954
0.88295017
0.88876584
0.89514395
0.90248105
0.90883956
0.91684182
0.92501887
0.94827638
1.0291756
1.3090755
1.9907388
2.3800617
0.85735608
0.8552075
0.85299013
0.85093023
0.84907853
0.84745499
0.84604941
0.8449139
0.84404395
0.84342184
0.84306595
0.84298408
0.8431654
0.84366373
0.8444708
0.84560565
0.84708596
0.84891122
0.85111737
0.85371261
0.85662021
0.85998394
0.86373755
0.86782143
0.87233287
0.87724864
0.8825671
0.88836201
0.89470253
0.90181172
0.90864638
0.91681348
0.92491638
0.94772728
1.0272799
1.3033888
2.0038157
1.8926601
0.85705947
0.85490139
0.85268481
0.85063657
0.84879658
0.84718411
0.84580521
0.84467858
0.8438038
0.84319018
0.84284299
0.84276988
0.84297405
0.84347945
0.84429374
0.84543495
0.8469106
0.84874143
0.85094839
0.85354258
0.85647453
0.85983112
0.86358206
0.8676711
0.87218036
0.87709388
0.8824171
0.88820067
0.89452135
0.90155986
0.90858593
0.91685007
0.92487547
0.94712816
1.0252504
1.2964026
1.7944209
39.437545
0.85692568
0.85474418
0.85254168
0.85050555
0.84867724
0.84707587
0.84570987
0.84459303
0.84372728
0.84312297
0.84278515
0.84272126
0.84293678
0.84345053
0.84427324
0.84542228
0.84690544
0.8487432
0.85095403
0.85355008
0.85649394
0.85984848
0.86359888
0.8676985
0.87220743
0.87711899
0.88243943
0.88821332
0.89451717
0.90150661
0.90864058
0.91696068
0.92492085
0.94658663
1.0234423
1.2881901
1.7678762
14.800693
0.85689316
0.85468713
0.85249821
0.85047528
0.84865973
0.84707066
0.84571751
0.84461205
0.84375768
0.84316429
0.84283734
0.84278423
0.84301149
0.84353548
0.8443684
0.84552725
0.84702034
0.84886714
0.85108461
0.85368541
0.8566404
0.85999668
0.86374883
0.86785795
0.87236849
0.87727926
0.88259738
0.88836287
0.89465146
0.9015985
0.9087966
0.9171467
0.92505129
0.94609489
1.0218577
1.2773948
1.8569878
6.0598389
0.85694355
0.85471299
0.85254022
0.850536
0.84873886
0.84716773
0.84583273
0.84474428
0.84390709
0.84333019
0.84301958
0.84298272
0.84322693
0.84376677
0.84461551
0.84578981
0.8472987
0.84916012
0.85138966
0.85400012
0.85697011
0.86033275
0.86409002
0.86821143
0.87272637
0.87763783
0.88295359
0.88870954
0.89497964
0.90187835
0.9091233
0.91748956
0.9253378
0.94554713
1.0201426
1.2607902
1.940514
3.2825631
0.85714315
0.85490118
0.85274842
0.85077178
0.84900263
0.84745903
0.84615154
0.84508978
0.84427939
0.8437285
0.84344364
0.8434324
0.84370274
0.84426814
0.8451425
0.84634216
0.84787694
0.84976291
0.85201444
0.85464385
0.85763622
0.86101392
0.86478339
0.86892219
0.87344706
0.87836302
0.88367828
0.88942515
0.89567472
0.90252263
0.90978844
0.91814985
0.92596474
0.94508065
1.0186026
1.2374072
2.0319193
6.2178662
0.85751321
0.85527451
0.85314984
0.85121006
0.8494789
0.84797294
0.84670296
0.84567807
0.84490447
0.84438965
0.84414049
0.84416483
0.84447123
0.8450726
0.84598319
0.84721907
0.84879059
0.850712
0.85299658
0.85565564
0.85867889
0.8620816
0.86587199
0.87003399
0.8745753
0.87950097
0.88481931
0.89055952
0.89678851
0.90358884
0.91085089
0.91918344
0.92700341
0.9448619
1.0175948
1.2100899
2.1071433
5.4542832
0.85809325
0.85587167
0.8537921
0.85190246
0.85022287
0.84876825
0.8475494
0.846575
0.84585155
0.84538617
0.84518599
0.84525918
0.84561507
0.84626626
0.84722731
0.84851391
0.85013671
0.85210802
0.85444016
0.85714291
0.86020905
0.86364947
0.86747241
0.87166626
0.87623249
0.8811749
0.88650151
0.89223842
0.89844729
0.90520274
0.91244092
0.9207181
0.9285813
0.94501673
1.0172282
1.1800405
2.1761477
3.8333899
0.85890242
0.85675339
0.85473995
0.85291897
0.85130977
0.84992527
0.84877611
0.84787071
0.84721568
0.84681794
0.84668476
0.8468249
0.84724861
0.84796854
0.8489996
0.8503569
0.85205112
0.85409215
0.85649165
0.85925723
0.86238329
0.8658787
0.86975038
0.87398921
0.87859241
0.88356181
0.88890454
0.8946436
0.90083487
0.90754771
0.91474611
0.92293895
0.93088204
0.94572338
1.0175498
1.1494073
2.2264316
3.2904054
0.85999439
0.85799195
0.85607587
0.85435045
0.85283772
0.85154889
0.85049446
0.84968286
0.84912079
0.84881502
0.84877304
0.84900438
0.84952053
0.85033463
0.85146202
0.85291692
0.85470984
0.85684711
0.85934042
0.86219432
0.86540342
0.86897694
0.8729192
0.87722152
0.88187815
0.88688871
0.89225882
0.89800815
0.90418574
0.91085968
0.91800615
0.92608399
0.93413777
0.94722951
1.0185103
1.1216249
2.2300182
3.0151916
0.86149453
0.85966689
0.85790059
0.85631035
0.85492946
0.85377013
0.85284322
0.85215754
0.85172004
0.85153754
0.85161777
0.85197144
0.85261162
0.8535524
0.85480982
0.85639665
0.8583215
0.86058973
0.86321004
0.86618369
0.86950458
0.87318488
0.87722455
0.88161331
0.88634334
0.89141219
0.89682336
0.90259275
0.90876136
0.91539989
0.92248548
0.930418
0.93859929
0.94984529
1.0200131
1.1005191
2.1584455
2.8282427
0.86348062
0.86190066
0.86034426
0.85894147
0.85774021
0.8567553
0.85599885
0.85548066
0.85520842
0.85518931
0.85543161
0.85594768
0.85675264
0.85786191
0.85929262
0.86105508
0.86315313
0.86559701
0.86838553
0.87151742
0.87498543
0.87880824
0.88297792
0.88748105
0.8923086
0.8974563
0.90292498
0.90872616
0.91489147
0.92149734
0.92851654
0.93627712
0.94458332
0.95395991
1.0221186
1.0855695
2.0868692
2.8774774
0.86607468
0.86484883
0.86357255
0.86242586
0.8614691
0.86071919
0.86019057
0.85989504
0.85984172
0.86003901
0.86049632
0.86122861
0.8622533
0.86358734
0.86524944
0.86724528
0.8695729
0.87225027
0.87525983
0.87859946
0.88226046
0.88627382
0.89061548
0.89526924
0.90022616
0.90548033
0.91102924
0.91687904
0.92305062
0.929628
0.93658221
0.94415431
0.95256219
0.96011652
1.0250944
1.0771729
1.9967527
3.1093502
0.86955459
0.86869092
0.86778949
0.86699198
0.86636538
0.86593017
0.86570466
0.86570378
0.8659391
0.86642161
0.86716329
0.86818349
0.86950154
0.87113557
0.87310618
0.87540967
0.87803865
0.88102194
0.88432057
0.88792932
0.89184127
0.89607205
0.90060452
0.90542783
0.91053345
0.91591291
0.92155913
0.92747158
0.93365982
0.94021045
0.94717289
0.95465589
0.96311716
0.96900864
1.0293051
1.0781541
1.8541985
3.2917708
0.87491307
0.87462317
0.87429675
0.87404443
0.87393675
0.87399552
0.8742439
0.87470153
0.87538436
0.87630909
0.87749413
0.87896807
0.88074966
0.88285726
0.88531295
0.88808918
0.89117011
0.89456528
0.89825526
0.90222804
0.90648339
0.91099392
0.9157716
0.92081714
0.92612161
0.93167189
0.93745405
0.94345805
0.94968089
0.95618977
0.96317796
0.97065338
0.97946885
0.98380005
1.0365092
1.090123
1.6347891
3.2675575
0.88281735
0.88336176
0.88386471
0.88440577
0.88506108
0.88585041
0.88679973
0.88793371
0.88927586
0.89085524
0.89270519
0.89487406
0.89736464
0.90015463
0.90323845
0.90660444
0.91024492
0.91413019
0.91828118
0.92269485
0.92736931
0.93229283
0.93745703
0.94285366
0.94846991
0.95428783
0.96028584
0.96644191
0.97273933
0.97918953
0.98596943
0.99314046
1.0023084
1.0062028
1.0491722
1.1046272
1.4933103
2.6433696
0.8928797
0.89438964
0.89587341
0.89737173
0.89896081
0.90065241
0.90247028
0.90444317
0.90661013
0.90902476
0.91174859
0.9147606
0.91803998
0.92155919
0.92529722
0.92927978
0.93352048
0.93801093
0.94274575
0.94772011
0.95292273
0.95834489
0.9639741
0.96979614
0.97579286
0.9819404
0.98820908
0.99456423
1.0009738
1.0074051
1.0139786
1.0206441
1.0291785
1.0332711
1.0662105
1.1164595
1.4288663
2.0193129
0.90546379
0.90810438
0.91073324
0.91335441
0.91604802
0.91881548
0.92167271
0.92465669
0.9278502
0.93130322
0.93500761
0.93891112
0.94300346
0.94730488
0.951822
0.956562
0.96153083
0.9667256
0.97213762
0.97775569
0.9835677
0.98955933
0.99571509
1.0020182
1.0084464
1.0149702
1.021552
1.0281445
1.0346981
1.041149
1.0475551
1.0537761
1.0613307
1.0655936
1.0886304
1.1305035
1.4022092
1.5340683
0.92091542
0.92491288
0.92888452
0.93280874
0.93678293
0.94080189
0.94487028
0.94907116
0.9534723
0.95805372
0.96277083
0.96764623
0.97269284
0.97791939
0.98333155
0.98893359
0.99472765
1.0007107
1.0068736
1.0132024
1.0196822
1.0262954
1.0330242
1.0398485
1.0467438
1.0536763
1.0606012
1.0674597
1.074184
1.0806821
1.0869549
1.0928136
1.0993423
1.1037322
1.118001
1.1562269
1.3460995
1.5378075
0.9397082
0.94528133
0.95080507
0.95622823
0.96167124
0.96712293
0.97259355
0.97819806
0.98389417
0.98966251
0.995532
1.0015253
1.0076535
1.0139211
1.0203306
1.0268841
1.0335824
1.0404221
1.0473941
1.0544842
1.0616749
1.0689473
1.0762822
1.0836572
1.0910446
1.0984086
1.1056988
1.112846
1.1197653
1.1263374
1.1325069
1.1380611
1.1436465
1.1480163
1.1552252
1.1908386
1.2969244
1.5945228
0.96234895
0.96970513
0.97700135
0.9841368
0.99125059
0.99832309
1.0054117
1.0125097
1.0195904
1.0266908
1.0338459
1.0410769
1.0483927
1.0557947
1.063283
1.0708575
1.0785181
1.0862619
1.0940809
1.1019617
1.1098871
1.1178374
1.1257922
1.1337295
1.1416201
1.1494261
1.1570921
1.1645413
1.1716735
1.1783427
1.184439
1.1897272
1.194495
1.1985304
1.200781
1.2277246
1.2764107
1.6190243
0.98930764
0.99869414
1.0080203
1.0171077
1.0261064
1.0350052
1.0438395
1.0525413
1.0611507
1.0697146
1.0782693
1.0868359
1.095422
1.1040281
1.1126523
1.1212934
1.1299511
1.1386234
1.1473045
1.1559835
1.1646452
1.1732715
1.1818429
1.1903372
1.1987271
1.2069726
1.2150163
1.2227738
1.2301315
1.2369165
1.2429741
1.2480251
1.2521259
1.2553391
1.2557076
1.2722707
1.2853915
1.5951607
1.0211932
1.0329289
1.0445532
1.0558269
1.0669172
1.0778423
1.0885269
1.0989771
1.1092471
1.1193874
1.1294362
1.1394157
1.1493343
1.1591925
1.1689885
1.1787212
1.1883909
1.1979975
1.2075382
1.2170062
1.2263906
1.2356776
1.2448505
1.2538895
1.2627683
1.2714477
1.2798696
1.287942
1.2955393
1.3024651
1.3085246
1.3133641
1.3169441
1.3190637
1.3187164
1.3259965
1.3199739
1.5525519
1.059017
1.0732834
1.0874118
1.1010793
1.1144571
1.1275868
1.1402875
1.1526292
1.1646781
1.1764914
1.1881107
1.199562
1.2108567
1.2219976
1.2329844
1.2438177
1.2544994
1.2650324
1.2754184
1.2856568
1.2957437
1.3056717
1.3154301
1.3250033
1.3343676
1.3434843
1.3522934
1.3606976
1.3685604
1.3756633
1.3817751
1.3864497
1.3896253
1.3907093
1.3893757
1.3918634
1.3749649
1.5221742
1.1034035
1.1205181
1.1374257
1.1537229
1.1695959
1.1850863
1.2000934
1.214481
1.2284138
1.2419855
1.2552376
1.2682042
1.2809047
1.2933462
1.305531
1.3174616
1.3291434
1.3405839
1.3517931
1.3627797
1.3735497
1.3841049
1.3944419
1.4045508
1.414411
1.4239846
1.4332092
1.4419815
1.4501546
1.4574846
1.4637103
1.4683078
1.4711307
1.4713923
1.4688345
1.4680559
1.4568389
1.5297658
1.1556738
1.1758083
1.1956887
1.2148123
1.2333659
1.2513871
1.2688397
1.2856323
1.3017112
1.3171537
1.3320603
1.3465747
1.3607168
1.374483
1.3878724
1.4008914
1.4135533
1.4258764
1.4378878
1.4496108
1.4610619
1.4722515
1.4831834
1.4938528
1.5042426
1.5143147
1.5240039
1.5332015
1.54175
1.5493808
1.5557943
1.5604072
1.562904
1.5625457
1.5589983
1.5537554
1.5517789
1.5642295
1.2169631
1.2403766
1.2634781
1.2856553
1.3070864
1.3278211
1.3478197
1.367098
1.3855927
1.4033276
1.4203732
1.4367118
1.4524045
1.4675115
1.4820794
1.4961469
1.5097469
1.5229271
1.5357613
1.5482677
1.5604575
1.5723427
1.5839328
1.595229
1.6062179
1.6168599
1.6270909
1.6368019
1.6458223
1.653853
1.6605474
1.6652592
1.6675313
1.6664839
1.6621931
1.6530216
1.6549027
1.6216415
1.2892701
1.3162025
1.3427244
1.3681292
1.392593
1.4161852
1.438865
1.4606412
1.4815528
1.5016452
1.5209691
1.5394695
1.5571721
1.5741187
1.5903563
1.6059347
1.6209086
1.6353251
1.6492118
1.662624
1.6756171
1.6882361
1.7005128
1.7124622
1.7240788
1.7353177
1.746154
1.7565014
1.7661353
1.7746944
1.781769
1.7866427
1.7887598
1.7868795
1.781653
1.7704405
1.7670497
1.7310066
1.3750402
1.4057129
1.4358486
1.4646544
1.4923082
1.5189044
1.544403
1.5688032
1.5921582
1.6145413
1.6360206
1.6566337
1.6764037
1.695355
1.7135226
1.7309527
1.7477036
1.7638237
1.7793268
1.7942763
1.8087393
1.8227734
1.8364206
1.8497017
1.862608
1.8750998
1.8870762
1.8983667
1.9087504
1.9178685
1.9252891
1.9302513
1.9320926
1.9294651
1.9224202
1.9097591
1.9010059
1.8572242
1.4775888
1.5122103
1.5461708
1.5785885
1.6096342
1.6394255
1.6679198
1.6951035
1.7210369
1.7458181
1.7695387
1.7922643
1.8140447
1.834931
1.854983
1.8742702
1.8928692
1.9108589
1.9283109
1.945291
1.9618571
1.9780554
1.9939145
2.0094371
2.0245904
2.0393073
2.0534059
2.06662
2.0786861
2.0892037
2.0976867
2.103318
2.1053078
2.1022798
2.0934288
2.0780172
2.0652187
2.0105508
1.6017362
1.6406302
1.678722
1.7150439
1.7497495
1.7829791
1.814685
1.844837
1.8735119
1.9008517
1.9269892
1.9520217
1.9760297
1.9990989
2.0213263
2.0428165
2.063676
2.0840071
2.1039016
2.123436
2.1426675
2.1616294
2.1803254
2.1987228
2.2167456
2.2342673
2.2511002
2.2669708
2.2815296
2.2942822
2.3046458
2.3117243
2.3146078
2.311795
2.3024107
2.2835247
2.2663477
2.2009246
1.7494304
1.7931346
1.8357537
1.8762567
1.9148089
1.9516055
1.9866124
2.0197954
2.0512768
2.081282
2.1100175
2.1376323
2.164251
2.1900042
2.2150314
2.2394719
2.2634543
2.2870892
2.3104622
2.3336296
2.3566137
2.3793996
2.4019301
2.4241024
2.4457655
2.4667157
2.4866966
2.5053788
2.5223625
2.5371072
2.5489847
2.5570624
2.5603863
2.5573789
2.5471572
2.5261608
2.5049122
2.4291044
1.9164285
1.9655049
2.0128819
2.0575374
2.0997697
2.1399347
2.1780671
2.2141553
2.2484082
2.2811834
2.3127941
2.3434553
2.3733407
2.4026248
2.4314789
2.4600532
2.4884636
2.5167839
2.5450418
2.5732161
2.6012367
2.6289837
2.65629
2.6829441
2.7086961
2.7332583
2.7563087
2.777471
2.7963176
2.812295
2.8247769
2.8328426
2.8355663
2.8313632
2.8194555
2.7957766
2.7719595
2.6865291
2.0997499
2.1546269
2.2066667
2.2551081
2.3006278
2.3439055
2.3850929
2.4241973
2.4615301
2.4976134
2.5328837
2.5676178
2.6020229
2.6362905
2.6705808
2.7049943
2.7395598
2.7742341
2.8089062
2.8434032
2.8774974
2.9109163
2.9433551
2.9744889
3.0039854
3.0315067
3.0567114
3.0792271
3.0986517
3.1144701
3.1261119
3.1327164
3.1334451
3.1267614
3.1120672
3.0849544
3.0581519
2.9657311
2.301575
2.361399
2.4174164
2.4692672
2.5180832
2.5648947
2.6098916
2.6530015
2.6946152
2.7354462
2.7760675
2.8167998
2.8578416
2.8993358
2.9413404
2.9837951
3.0265239
3.0692574
3.1116555
3.1533286
3.1938574
3.2328147
3.269787
3.3043908
3.336283
3.3651544
3.3907209
3.4126852
3.430734
3.4444443
3.453351
3.4566925
3.4537591
3.4430992
3.4243248
3.3928583
3.3622393
3.2640481
2.5254294
2.5889845
2.6482493
2.7034941
2.7562824
2.8079075
2.8584039
2.9074436
2.9554594
3.0033974
3.0519768
3.1015058
3.1520672
3.2036136
3.2559351
3.3086434
3.3612146
3.4130529
3.4635407
3.5120732
3.5580864
3.6010819
3.6406455
3.6764532
3.7082655
3.735902
3.7592192
3.77806
3.7922502
3.8014969
3.805471
3.8035295
3.7951122
3.7788677
3.7546203
3.717754
3.6823172
3.5789521
2.7737623
2.8398895
2.9033107
2.9639523
3.023232
3.0824826
3.1413969
3.1992801
3.2566743
3.3148803
3.3747702
3.4365005
3.4998142
3.5642248
3.6290226
3.6933136
3.7561304
3.8165432
3.8737249
3.9269802
3.975759
4.0196636
4.0584455
4.0919852
4.1202622
4.1433088
4.1611787
4.1738904
4.1814315
4.1836506
4.1803624
4.1710407
4.1552765
4.1318141
4.1006777
4.057306
4.0159608
3.9076548
3.0545042
3.1276853
3.1988081
3.267697
3.3360435
3.4056107
3.4758166
3.5455585
3.6155737
3.6875864
3.7624621
3.839837
3.918698
3.9977773
4.0756541
4.1508625
4.2220612
4.2881601
4.3483554
4.4021124
4.4491349
4.4893344
4.5227925
4.5497103
4.570357
4.5850137
4.5939439
4.5973409
4.5953471
4.5879407
4.5750687
4.556304
4.5313794
4.4991175
4.4597258
4.4087564
4.3604314
4.2471487
3.3828321
3.4701399
3.5531161
3.6327581
3.7122862
3.7947418
3.8793984
3.9645811
4.0511469
4.1410746
4.2347334
4.3305817
4.4263268
4.5196795
4.6085324
4.6910662
4.7659003
4.8321603
4.8894251
4.9376269
4.9769619
5.0078183
5.0307084
5.0461995
5.0548567
5.0571925
5.0536534
5.0445787
5.0302395
5.0107183
4.9860729
4.9559506
4.9202106
4.8777291
4.8288838
4.7693608
4.7131754
4.5946864
3.7570454
3.8676081
3.9698077
4.0660453
4.1620161
4.2629391
4.3679982
4.4745812
4.5833545
4.696077
4.8118322
4.9271773
5.0382756
5.1420307
5.2361429
5.3190266
5.3898278
5.4483685
5.4949767
5.5303037
5.55519
5.5705715
5.5774022
5.5765857
5.5689327
5.5551326
5.5357663
5.511279
5.4820374
5.448198
5.4099036
5.3668454
5.318991
5.2652354
5.2061186
5.1374288
5.0729379
4.9489135
4.1991004
4.3381882
4.4648231
4.5829986
4.7017051
4.8289049
4.9629671
5.0990694
5.236642
5.3762592
5.5148386
5.6467288
5.7670141
5.8727113
5.9623032
6.0352595
6.091866
6.1330534
6.1601418
6.1746165
6.1779895
6.1717118
6.15711
6.1353387
6.1073709
6.0740026
6.0358943
5.9935536
5.9474051
5.8976414
5.8444541
5.7875375
5.726938
5.6615188
5.5919738
5.5140956
5.4415403
5.3116486
4.7121662
4.8895762
5.050146
5.199997
5.3525166
5.5186489
5.6941378
5.8695426
6.041403
6.2082365
6.3646973
6.50379
6.6210398
6.7151275
6.7865106
6.8364875
6.8669231
6.8800581
6.8782542
6.8637935
6.8387723
6.8050429
6.764178
6.7174627
6.6659303
6.6104033
6.5515577
6.4899065
6.4258751
6.3596325
6.2913603
6.2206948
6.1477152
6.0711809
5.9919314
5.9055944
5.8260279
5.6899679
5.3161571
5.5444616
5.7520063
5.9481184
6.1512369
6.3738787
6.6052797
6.8277883
7.0335904
7.2195913
7.3799005
7.508587
7.6039573
7.6680705
7.7043518
7.7163778
7.7077051
7.681821
7.6419913
7.5911313
7.5317447
7.4658969
7.3952235
7.3209781
7.2441225
7.1653982
7.0854021
7.0045602
6.9232065
6.8413966
6.7592209
6.6761815
6.5923339
6.5062508
6.4189199
6.3255721
6.2407915
6.0982146
6.0397185
6.3390054
6.6142765
6.8798713
7.1577937
7.4574153
7.7557557
8.0239916
8.2507844
8.4346907
8.5732477
8.6650768
8.7136719
8.7257488
8.7081395
8.6666469
8.6062521
8.531378
8.4459012
8.3530838
8.2555364
8.1552353
8.053604
7.9516389
7.8500507
7.7493507
7.649922
7.5519772
7.4556443
7.3607658
7.2672604
7.1744266
7.0822498
6.9890382
6.8959563
6.7975525
6.709885
6.5602038
6.9356682
7.3332355
7.7079086
8.0785769
8.4617092
8.8538657
9.2157239
9.5092544
9.7249887
9.8693884
9.9487034
9.969597
9.9424613
9.8790554
9.7892345
9.6803569
9.5581794
9.4275237
9.2923919
9.1558904
9.0202253
8.8868231
8.7565314
8.6298226
8.5069564
8.3880514
8.2731352
8.1620868
8.0547313
7.9506256
7.8494668
7.7503082
7.6530451
7.5556559
7.4595514
7.3582478
7.2702986
7.1123406
8.0671444
8.6087965
9.1388857
9.668932
10.185884
10.664281
11.056251
11.326487
11.476743
11.528387
11.501397
11.413195
11.281546
11.122188
10.946389
10.761661
10.57354
10.386455
10.203734
10.027509
9.8588602
9.6981419
9.5452906
9.4000449
9.2620662
9.1309622
9.0063115
8.8875915
8.7742845
8.6656425
8.5611359
8.4595663
8.3607483
8.2622777
8.1659286
8.063743
7.9781672
7.809566
9.5269853
10.290014
11.072233
11.830983
12.483486
12.992586
13.335681
13.502407
13.513104
13.40762
13.223709
12.991627
12.734793
12.469034
12.203643
11.94439
11.695539
11.460095
11.239531
11.033954
10.842637
10.66452
10.498495
10.343506
10.198576
10.062778
9.935232
9.8150298
9.7013412
9.5931517
9.489741
9.3896841
9.2927428
9.1960934
9.1020162
9.0005411
8.9198858
8.7360747
11.449711
12.599938
13.796753
14.836651
15.542273
15.938363
16.100192
16.060212
15.84726
15.517959
15.134786
14.741391
14.358529
13.993358
13.649244
13.32952
13.036565
12.770473
12.529306
12.310254
12.110563
11.927857
11.760127
11.605637
11.462858
11.330409
11.207049
11.091578
10.982946
10.879954
10.781747
10.686723
10.594604
10.502148
10.412242
10.31233
10.238677
10.032213
13.732824
15.486696
17.203749
18.42613
18.963173
19.049177
18.921817
18.625288
18.158363
17.594783
17.030928
16.514606
16.04714
15.619499
15.230508
14.88308
14.576873
14.307227
14.068051
13.854109
13.661486
13.487168
13.328669
13.183858
13.050899
12.928185
12.814312
12.707973
12.608028
12.513211
12.422591
12.334475
12.248518
12.161169
12.075825
11.977206
11.910788
11.677661
16.200359
18.672028
20.816401
22.010099
22.182555
21.85879
21.443333
20.935632
20.262036
19.511909
18.819779
18.230524
17.719958
17.264159
16.860277
16.510945
16.212025
15.954119
15.728171
15.527824
15.348821
15.187935
15.042463
14.91011
14.788944
14.677312
14.573791
14.47707
14.38601
14.299335
14.216084
14.134508
14.054232
13.971405
13.890033
13.791809
13.732768
13.468695
19.326609
22.717875
25.149335
26.076661
25.676481
24.836202
24.141997
23.476467
22.635209
21.725911
20.936864
20.308771
19.786104
19.329446
18.935174
18.604842
18.329519
18.095474
17.891935
17.712452
17.552935
17.410166
17.281416
17.164417
17.057306
16.958509
16.866681
16.780583
16.699123
16.621047
16.545387
16.470335
16.39551
16.316678
16.238689
16.139185
16.088706
15.781025
23.383178
27.766506
30.168342
30.587253
29.485594
28.096929
27.191863
26.458681
25.503464
24.464567
23.60939
22.977182
22.475236
22.046396
21.685776
21.393069
21.154664
20.953854
20.779678
20.626466
20.490631
20.369148
20.259456
20.159503
20.067643
19.982484
19.902834
19.827573
19.755699
19.685993
19.6175
19.548333
19.478143
19.402184
19.326468
19.223228
19.183099
18.812943
28.631425
33.902672
35.806341
35.600816
33.837051
31.9378
30.912628
30.216855
29.207469
28.066906
27.174933
26.575162
26.129657
25.758396
25.453853
25.214181
25.022688
24.861772
24.721755
24.598364
24.488711
24.390136
24.300452
24.218
24.141463
24.069706
24.001746
23.936624
23.873451
23.81105
23.748498
23.683792
23.616669
23.541694
23.466447
23.356093
23.328884
22.867574
35.556119
41.161168
42.057025
41.435386
39.299089
36.933327
35.829702
35.266198
34.27091
33.063054
32.169014
31.643951
31.294285
31.010312
30.781231
30.605944
30.467716
30.350474
30.247027
30.154849
30.071869
29.995973
29.925556
29.859496
29.796884
29.736896
29.678799
29.621823
29.565212
29.507829
29.448801
29.38595
29.31919
29.242161
29.164502
29.042501
29.031353
28.435347
44.494388
49.527476
49.187114
48.89871
46.993502
44.09275
42.806188
42.441244
41.556405
40.345837
39.504918
39.106904
38.894155
38.723746
38.584034
38.479055
38.395936
38.322454
38.254731
38.192112
38.133431
38.077315
38.022923
37.969767
37.9174
37.86534
37.813136
37.76022
37.705987
37.649323
37.589441
37.523897
37.452939
37.368958
37.284245
37.144634
37.151988
36.357675
55.562137
59.115948
58.17915
59.670704
58.994725
55.235424
53.406941
53.265163
52.649776
51.574041
50.886211
50.678591
50.636381
50.594246
50.547542
50.510464
50.477397
50.441721
50.403297
50.363302
50.321547
50.277579
50.231448
50.183351
50.133314
50.081209
50.026884
49.969975
49.910042
49.845965
49.777099
49.700621
49.617358
49.518041
49.418298
49.252983
49.276409
48.1988
68.066547
70.784382
71.620657
76.924157
79.079007
73.834244
70.7735
70.83569
70.762198
70.097291
69.736348
69.780263
69.911214
69.984772
70.016028
70.030491
70.030522
70.015876
69.990213
69.956355
69.915094
69.867002
69.813061
69.754114
69.690624
69.622808
69.5508
69.474432
69.393438
69.306678
69.213749
69.111331
69.001249
68.872093
68.743673
68.541777
68.56467
67.117618
78.736467
87.94164
96.50895
107.48292
114.57198
107.17957
102.23694
102.48869
103.31325
103.49485
103.68324
103.96277
104.17538
104.28968
104.34499
104.36487
104.35488
104.32089
104.2699
104.20567
104.12967
104.04338
103.94853
103.8464
103.73775
103.62306
103.5027
103.37666
103.24493
103.10636
102.96107
102.80524
102.64258
102.459
102.28035
102.02865
102.0036
100.2188
82.634199
119.5986
145.60863
160.0777
172.73235
165.25431
159.76524
160.34366
162.54699
164.25317
165.11067
165.40787
165.49436
165.50645
165.46798
165.3825
165.25727
165.10358
164.92997
164.74017
164.53615
164.32009
164.09413
163.85973
163.61782
163.36908
163.1141
162.85306
162.58619
162.31262
162.03306
161.74386
161.45047
161.13808
160.83632
160.47769
160.27284
158.49001
85.836267
180.63956
237.13844
247.0395
260.5184
256.29643
259.18766
260.79289
264.03291
267.85831
269.29505
269.2867
269.03149
268.79341
268.52458
268.19854
267.82673
267.42586
267.00457
266.56589
266.11211
265.64593
265.16966
264.68481
264.19246
263.69353
263.18882
262.67885
262.16416
261.64464
261.12153
260.59271
260.06448
259.52517
259.00406
258.45489
257.95467
256.47605
197.71753
376.97029
512.22535
498.28518
464.94046
456.86943
537.11093
549.13778
551.65452
559.71548
561.6705
561.02066
560.23107
559.57875
558.89972
558.1282
557.28398
556.39584
555.4749
554.5237
553.54573
552.54557
551.52671
550.49156
549.44208
548.38038
547.30837
546.22821
545.14173
544.05215
542.96167
541.87618
540.79889
539.74033
538.70628
537.72915
536.62566
536.21523
1251.9757
1114.2528
1528.3755
1511.4791
1351.7536
899.27309
1440.4943
1561.3423
1547.0934
1566.614
1567.6473
1567.159
1566.6824
1566.1694
1565.492
1564.6038
1563.5489
1562.3743
1561.0982
1559.7291
1558.2782
1556.7573
1555.175
1553.5386
1551.8553
1550.1339
1548.3825
1546.6146
1544.8398
1543.0864
1541.3592
1539.7313
1538.1645
1536.8806
1535.6219
1535.1575
1534.0841
1536.2706
14954.15
14570.384
14484.762
14462.524
14452.103
14465.217
14396.804
14360.275
14337.764
14311.427
14287.843
14264.54
14241.241
14217.952
14194.676
14171.409
14148.163
14124.946
14101.765
14078.622
14055.519
14032.461
14009.449
13986.487
13963.575
13940.719
13917.921
13895.189
13872.525
13849.95
13827.456
13805.104
13782.835
13760.855
13738.856
13717.621
13695.727
13676.032
15124.184
16380.138
18293.726
19917.098
21333.039
22589.238
23706.964
24704.983
25596.845
26390.409
27089.291
27695.392
28210.146
28634.956
28972.293
29223.867
29391.455
29477.782
29486.025
29419.805
29283.142
29080.413
28816.168
28495.207
28121.757
27701.434
1169.8635
1739.7474
2317.3764
2648.4388
2883.8085
3077.2713
3279.564
3491.5762
3699.5567
3891.6365
4062.3166
4209.7445
4332.7345
4431.7239
4504.5937
4555.2564
4589.0677
4607.4606
4611.1986
4600.8344
4576.886
4539.9689
4490.6256
4429.6616
4356.7486
4273.1601
396.37338
445.5754
646.46959
855.43053
998.20357
1105.7019
1202.2167
1297.2864
1390.7329
1480.3022
1564.304
1641.3724
1709.9766
1768.5182
1814.7235
1848.6191
1871.2671
1883.767
1887.3141
1882.9716
1871.5531
1853.699
1829.8922
1800.6965
1766.2631
1727.2544
261.44825
231.95177
275.37086
368.46325
462.75344
540.60919
603.05904
655.98064
703.97166
748.93641
791.64391
831.53488
867.77403
899.4843
925.55113
945.44386
959.18725
967.1246
969.807
967.8345
961.73263
951.94362
938.81587
922.74222
903.94777
882.81141
210.67316
166.41698
168.26311
207.20154
260.90742
316.66131
366.12409
406.05362
438.9459
467.65409
494.6687
519.59674
542.12453
561.93043
578.5521
591.61514
600.97616
606.71647
609.07747
608.38247
604.95614
599.09768
591.05293
581.10373
569.45466
556.33977
173.36973
128.12881
114.0937
126.52553
151.33137
183.27484
217.27733
247.80447
273.08266
293.90613
312.26633
328.49081
342.7527
355.12263
365.55961
373.93115
380.13461
384.1721
386.12958
386.15046
384.4026
381.06232
376.28762
370.26981
363.19025
355.18
141.04736
103.06614
86.104737
88.152867
98.719872
114.20297
133.03837
153.08768
172.13472
188.99289
203.26299
215.41377
225.7263
234.38933
241.55978
247.29577
251.60459
254.51886
256.09871
256.42497
255.59129
253.7024
250.85834
247.18574
242.84074
237.88929
113.90231
84.106329
69.788054
68.118283
72.249873
79.602372
89.491666
101.1719
113.5439
125.65787
136.7701
146.62655
155.14592
162.33664
168.28692
173.06953
176.72427
179.30064
180.86342
181.48703
181.25022
180.23654
178.52503
176.20996
173.43089
170.21265
83.229518
67.591633
58.665301
55.996477
56.999318
60.201164
65.181951
71.667861
79.185097
87.193455
95.137481
102.63307
109.42819
115.37591
120.44085
124.63144
127.95822
130.44631
132.13797
133.08688
133.3527
133.00057
132.09491
130.70912
128.96906
126.88053
53.097753
53.378201
50.146187
47.687075
47.131838
48.093309
50.329013
53.706048
58.018549
63.001199
68.328982
73.699426
78.856072
83.600886
87.821053
91.460753
94.486738
96.887145
98.671711
99.86683
100.50986
100.64702
100.3285
99.610916
98.605817
97.306673
38.988151
42.661876
43.171091
41.461058
40.230895
39.979581
40.663328
42.204941
44.498916
47.412698
50.773675
54.393547
58.084154
61.671768
65.02614
68.058902
70.705943
72.924636
74.694403
76.014068
76.897423
77.37052
77.467925
77.230352
76.753711
76.021134
32.017988
35.144935
37.420585
36.48989
35.097548
34.234982
34.050333
34.516502
35.571093
37.139169
39.126366
41.42358
43.911721
46.467393
48.981822
51.36762
53.552859
55.480542
57.110819
58.421301
59.405196
60.069479
60.432718
60.520263
60.411454
60.079426
25.481283
30.052753
32.663513
32.298282
31.027322
29.923502
29.277171
29.11994
29.420103
30.131425
31.19757
32.553679
34.127259
35.838783
37.610965
39.37465
41.067391
42.633921
44.028906
45.219185
46.184354
46.916569
47.420332
47.707104
47.839732
47.781742
20.001829
26.085864
28.528288
28.564532
27.566998
26.458607
25.606573
25.103318
24.949497
25.120001
25.579846
26.288419
27.20066
28.266573
29.43512
30.657634
31.887386
33.079723
34.194012
35.196079
36.060047
36.7694
37.318528
37.70787
37.985163
38.1059
15.448896
22.462554
24.750242
25.125365
24.481957
23.527275
22.646445
21.983927
21.575413
21.41679
21.488855
21.765918
22.218895
22.815688
23.523037
24.308354
25.139461
25.984244
26.811424
27.592166
28.301876
28.921636
29.440742
29.852676
30.192765
30.411532
11.262196
18.508715
20.606213
21.336548
21.143457
20.48451
19.714099
19.018036
18.471724
18.097081
17.892306
17.8452
17.938962
18.154293
18.470911
18.868731
19.327884
19.828282
20.349537
20.871496
21.3753
21.844424
22.267375
22.634293
22.969919
23.223345
7.8564897
14.82603
16.708534
17.585448
17.840745
17.568396
17.039465
16.451018
15.909237
15.462223
15.1268
14.903986
14.787051
14.765436
14.826952
14.959115
15.149625
15.386264
15.656697
15.948463
16.249386
16.547986
16.835623
17.103496
17.369747
17.588468
5.841469
11.630866
13.51435