/*--------------------------------*- C++ -*----------------------------------*\
| =========                 |                                                 |
| \\      /  F ield         | OpenFOAM: The Open Source CFD Toolbox           |
|  \\    /   O peration     | Version:  2.4.0                                 |
|   \\  /    A nd           | Web:      www.OpenFOAM.org                      |
|    \\/     M anipulation  |                                                 |
\*---------------------------------------------------------------------------*/
FoamFile
{
    version     2.0;
    format      ascii;
    class       volScalarField;
    location    "2000";
    object      p;
}
// * * * * * * * * * * * * * * * * * * * * * * * * * * * * * * * * * * * * * //

dimensions      [0 2 -2 0 0 0 0];

internalField   nonuniform List<scalar> 
15296
(
0.76138679
0.75842784
0.75689692
0.75592701
0.75486026
0.75381702
0.75319446
0.75223386
0.75092626
0.75001813
0.74912642
0.74825017
0.74775551
0.74689096
0.74602913
0.74516675
0.74391101
0.74305093
0.74218435
0.74132788
0.74089393
0.74006947
0.73927688
0.73811729
0.73746853
0.73695104
0.73705295
0.73702146
0.73745812
0.7381743
0.74106086
0.74505142
0.75185505
0.76339094
0.78373553
0.82236676
0.89888647
1.0403471
0.76143945
0.75846313
0.75738391
0.75641242
0.75534476
0.75430037
0.75322804
0.75226696
0.75141522
0.75050623
0.74961601
0.74873933
0.74778762
0.74692187
0.74605936
0.74519584
0.74442064
0.74356066
0.74270218
0.74185046
0.74092139
0.74009827
0.73930873
0.73866986
0.73802398
0.737507
0.73709242
0.7370683
0.7375067
0.73875053
0.74092259
0.74490809
0.75163557
0.76304403
0.78318166
0.82140996
0.89692154
1.0354809
0.76146149
0.75849785
0.75736428
0.756393
0.7553256
0.75428126
0.75326277
0.75230341
0.75139795
0.75048856
0.74959848
0.74872142
0.74782407
0.74696004
0.74609809
0.7452367
0.74440528
0.74354432
0.74268602
0.7418334
0.74096106
0.74013994
0.73935347
0.73865458
0.73800645
0.73748673
0.73713167
0.73710886
0.73754634
0.73871683
0.74091935
0.74484766
0.75152916
0.76284376
0.7828108
0.82063687
0.89525877
1.0304359
0.76146628
0.75851974
0.7573468
0.75637597
0.75530893
0.75426501
0.75328517
0.75232619
0.75138257
0.75047323
0.7495833
0.74870662
0.74784868
0.74698522
0.7461238
0.74526268
0.74439125
0.74353034
0.74267203
0.7418196
0.74098967
0.74016957
0.73938325
0.73863963
0.73799048
0.7374695
0.7371563
0.73712925
0.73755931
0.73867496
0.74089375
0.74478159
0.75141328
0.76262386
0.7824162
0.81984308
0.89359313
1.0258563
0.76144457
0.75851445
0.75734321
0.75637329
0.75530678
0.75426328
0.75328036
0.75232158
0.7513815
0.75047259
0.74958297
0.74870679
0.74784568
0.74698244
0.74612133
0.74526038
0.7443925
0.74353221
0.74267409
0.74182215
0.74098891
0.74016861
0.73938182
0.73864118
0.73799158
0.7374696
0.73714974
0.73711804
0.73754099
0.73864927
0.74085408
0.74471548
0.75129785
0.76240522
0.78201683
0.81904817
0.89191356
1.0215229
0.76142259
0.75851385
0.75734622
0.75637763
0.75531183
0.75426869
0.75327955
0.75232114
0.75138804
0.75047956
0.74959034
0.74871452
0.74784712
0.74698423
0.7461235
0.74526298
0.74440246
0.74354264
0.74268499
0.74183338
0.74099318
0.7401729
0.73938597
0.73865228
0.73800166
0.73747767
0.73714709
0.73710995
0.73752415
0.73862506
0.74080174
0.74462702
0.75114484
0.76211886
0.78149935
0.81802589
0.88973393
1.0161315
0.76139887
0.75851647
0.75734539
0.75637862
0.75531369
0.754271
0.75328155
0.75232374
0.75139193
0.7504839
0.74959517
0.74871976
0.74785202
0.74698972
0.74612952
0.74526968
0.74441054
0.74355119
0.74269403
0.74184272
0.74100189
0.74018181
0.73939489
0.73866159
0.73800953
0.73748294
0.73714729
0.73710353
0.73750689
0.7385905
0.74073801
0.74451573
0.75095274
0.76176028
0.78084874
0.81674694
0.88699255
1.0102151
0.76137464
0.75852135
0.75734417
0.75637967
0.75531573
0.75427357
0.75328533
0.75232817
0.75139627
0.75048874
0.74960054
0.74872567
0.74785917
0.7469975
0.74613792
0.74527872
0.74441954
0.74356073
0.74270413
0.74185325
0.74101348
0.74019363
0.73940661
0.73867194
0.73801834
0.73748902
0.73714953
0.73709823
0.73748926
0.73855202
0.74066722
0.74439118
0.75073843
0.76136164
0.78012473
0.81533302
0.88411014
1.0057143
0.76134742
0.7585265
0.75734205
0.75638044
0.75531766
0.75427608
0.7532887
0.75233222
0.75140075
0.75049381
0.74960622
0.74873199
0.74786634
0.74700535
0.74614645
0.74528795
0.74442923
0.74357107
0.74271509
0.74186475
0.7410256
0.74020595
0.73941876
0.7386831
0.73802787
0.73749557
0.73715119
0.73709142
0.73746865
0.73850877
0.74058798
0.74425221
0.75050024
0.76092066
0.77932238
0.81377347
0.88090863
1.00153
0.7613183
0.7585324
0.75733893
0.756381
0.75531959
0.75427863
0.75329194
0.75233625
0.75140555
0.75049929
0.7496124
0.74873888
0.74787389
0.74701366
0.74615552
0.74529779
0.74443992
0.7435825
0.74272721
0.74187747
0.74103871
0.74021925
0.73943186
0.73869543
0.73803838
0.73750272
0.73715254
0.73708326
0.73744504
0.73846009
0.74049875
0.74409624
0.75023403
0.76043068
0.77843027
0.81204516
0.87730593
0.99531029
0.76128709
0.75853927
0.75733425
0.75638092
0.75532116
0.75428086
0.75329498
0.75234019
0.75141035
0.75050485
0.74961875
0.74874604
0.74788184
0.74702246
0.74616519
0.74530833
0.74445136
0.74359477
0.74274027
0.74189119
0.74105288
0.74023365
0.73944603
0.7387087
0.73804958
0.73751013
0.73715343
0.73707345
0.73741785
0.73840468
0.74039786
0.7439204
0.74993531
0.75988465
0.77743645
0.81011651
0.87335331
0.98713974
0.76125243
0.7585472
0.75732767
0.75637998
0.7553222
0.75428259
0.75329768
0.75234393
0.75141499
0.75051037
0.74962515
0.74875335
0.74789009
0.74703166
0.74617535
0.74531948
0.74446346
0.7436078
0.74275416
0.74190583
0.74106807
0.74024908
0.7394612
0.7387228
0.73806137
0.73751768
0.73715375
0.73706183
0.73738685
0.73834222
0.74028482
0.743724
0.74960335
0.75928258
0.77634355
0.80797602
0.8691373
0.9773005
0.76121487
0.75855628
0.75731865
0.75637779
0.75532242
0.75428351
0.75329971
0.75234713
0.75141922
0.75051558
0.74963137
0.74876059
0.74789838
0.74704102
0.74618579
0.745331
0.74447604
0.74362141
0.74276873
0.74192122
0.74108408
0.74026535
0.73947716
0.73873756
0.73807355
0.73752515
0.7371532
0.73704801
0.73735152
0.73827202
0.74015866
0.74350563
0.74923618
0.75862234
0.77515225
0.80560445
0.86470844
0.96609446
0.76117309
0.75856691
0.75730665
0.75637388
0.75532153
0.75428334
0.75330077
0.75234954
0.75142282
0.7505203
0.74963722
0.7487676
0.74790657
0.74705042
0.7461964
0.74534282
0.74448906
0.74363558
0.74278397
0.74193738
0.74110092
0.74028247
0.73949392
0.73875297
0.73808607
0.73753238
0.73715143
0.73703138
0.73731084
0.7381924
0.74001659
0.74326078
0.7488266
0.75789272
0.77384938
0.80295202
0.86001789
0.95367681
0.76112274
0.75857972
0.75729116
0.75636755
0.75531913
0.75428163
0.75330042
0.75235076
0.75142539
0.75052414
0.74964236
0.74877405
0.74791436
0.74705956
0.74620692
0.7453547
0.74450229
0.74365009
0.74279967
0.74195411
0.74111839
0.74030024
0.73951128
0.7387688
0.73809863
0.73753899
0.73714793
0.73701122
0.73726372
0.73810177
0.73985618
0.74298578
0.74836869
0.7570861
0.77243091
0.79998566
0.8550043
0.9402925
0.76105413
0.75859592
0.75726815
0.75635589
0.75531348
0.7542768
0.75329734
0.75234978
0.75142624
0.75052671
0.74964667
0.74878011
0.74792221
0.74706922
0.74621839
0.74536798
0.74451734
0.74366683
0.74281798
0.74197375
0.741139
0.74032122
0.73953168
0.73878715
0.73811265
0.73754514
0.73714072
0.73698205
0.7371991
0.73798005
0.73964301
0.74262276
0.74776723
0.7560405
0.77062887
0.79611088
0.84858759
0.92381047
0.76098104
0.75860617
0.7572379
0.75633742
0.75530268
0.754267
0.75328964
0.7523447
0.75142344
0.75052606
0.74964819
0.74878383
0.74792813
0.74707737
0.74622878
0.74538058
0.7445321
0.74368366
0.74283671
0.7419941
0.74116051
0.74034316
0.73955292
0.7388059
0.73812615
0.73754913
0.73712862
0.73694355
0.73711811
0.73783071
0.73938477
0.74218587
0.74704991
0.75481109
0.76855029
0.79155897
0.84107532
0.9055055
0.76090591
0.75860803
0.75720354
0.7563129
0.75528675
0.7542522
0.75327697
0.75233483
0.75141603
0.75052099
0.74964549
0.74878351
0.74793019
0.74708182
0.74623561
0.74538978
0.7445436
0.74369734
0.7428524
0.74201149
0.74117911
0.7403622
0.73957119
0.73882152
0.73813624
0.73754923
0.73711185
0.73689918
0.73702945
0.73767094
0.73911224
0.74172841
0.74630398
0.75355135
0.7663996
0.78698474
0.83326115
0.88848099
0.76082309
0.75860191
0.75716435
0.75628141
0.75526488
0.75423163
0.75325848
0.75231933
0.7514032
0.7505107
0.74963778
0.74877839
0.74792764
0.74708183
0.74623818
0.74539487
0.74455113
0.7437072
0.74286437
0.74202524
0.74119413
0.74037766
0.73958582
0.73883335
0.73814224
0.73754475
0.73708974
0.7368483
0.73693257
0.73750041
0.73882532
0.74125124
0.74552995
0.75226186
0.7641771
0.78251198
0.82512358
0.87303119
0.76073052
0.75858735
0.75711955
0.75624216
0.75523626
0.75420456
0.75323342
0.75229743
0.7513842
0.75049444
0.74962434
0.74876777
0.74791981
0.74707678
0.74623588
0.74539527
0.74455414
0.74371267
0.74287208
0.74203483
0.74120504
0.74038901
0.73959627
0.73884083
0.73814359
0.73753513
0.73706172
0.73679038
0.73682697
0.73731873
0.73852383
0.74075484
0.74472872
0.75094401
0.76194316
0.77825193
0.81681972
0.85897597
0.76062643
0.75856328
0.75706836
0.75619442
0.75520005
0.75417026
0.75320103
0.75226839
0.7513583
0.75047153
0.74960451
0.74875103
0.74790613
0.74706612
0.74622819
0.74539048
0.74455215
0.74371331
0.74287509
0.74203983
0.7412114
0.74039582
0.73960209
0.73884349
0.73813978
0.7375198
0.73702715
0.73672466
0.73671177
0.73712489
0.73820654
0.74023798
0.74389871
0.74959377
0.75972303
0.77413273
0.80852252
0.84576675
0.76050979
0.75852856
0.75701001
0.75613739
0.75515528
0.75412789
0.7531605
0.75223135
0.75132466
0.75044117
0.74957753
0.74872747
0.74788591
0.74704918
0.74621447
0.74537989
0.74454455
0.7437085
0.7428728
0.74203961
0.7412126
0.74039745
0.73960263
0.73884067
0.73813012
0.73749805
0.73698533
0.73665046
0.73658635
0.73691844
0.73787326
0.73970118
0.74304195
0.74821013
0.75749396
0.77002705
0.8003482
0.83303248
0.76038104
0.75848205
0.75694358
0.75607025
0.75510091
0.75407653
0.7531109
0.75218538
0.75128239
0.75040248
0.74954258
0.74869627
0.74785837
0.74702521
0.74619397
0.74536275
0.74453059
0.74369751
0.74286444
0.74203341
0.74120786
0.74039309
0.73959707
0.7388315
0.73811374
0.73746901
0.73693536
0.73656694
0.73644998
0.73669892
0.73752393
0.73914548
0.74216105
0.7468014
0.75523348
0.76605027
0.79245528
0.82082718
0.76023937
0.75842281
0.75686835
0.75599228
0.75503593
0.75401523
0.75305131
0.75212955
0.7512306
0.75035463
0.74949883
0.74865665
0.74782277
0.74699348
0.74616598
0.74533833
0.74450956
0.7436796
0.74284927
0.74202046
0.74119636
0.7403819
0.73958451
0.73881505
0.73808965
0.73743162
0.73687618
0.73647302
0.73630158
0.73646539
0.73715779
0.73857085
0.74125646
0.74537372
0.75294129
0.76234167
0.78483882
0.80921906
0.76008038
0.75834915
0.75678337
0.75590278
0.75495937
0.75394305
0.75298082
0.75206293
0.75116837
0.75029674
0.74944546
0.74860781
0.7477783
0.7469532
0.74612971
0.74530586
0.74448064
0.74365391
0.74282641
0.74199983
0.74117712
0.74036285
0.73956385
0.73879016
0.73805662
0.73738461
0.73680642
0.73636728
0.73613971
0.73621648
0.73677356
0.73797669
0.74032757
0.74393193
0.75060659
0.75883805
0.77739888
0.7982682
0.75990524
0.7582615
0.75668835
0.75580131
0.75487036
0.7538591
0.75289859
0.75198464
0.7510948
0.75022793
0.7493816
0.74854892
0.74772416
0.74690355
0.74608431
0.74526445
0.74444291
0.7436195
0.74279483
0.74197044
0.74114901
0.74033471
0.73953381
0.73875545
0.73801318
0.73732642
0.73672448
0.73624811
0.73596278
0.73595079
0.73637013
0.73736288
0.73937514
0.74248106
0.74824338
0.75543961
0.77038311
0.78808279
0.75971243
0.75815891
0.75658257
0.75568744
0.75476815
0.75376249
0.75280382
0.75189386
0.75100904
0.75014735
0.74930644
0.74847916
0.74765951
0.7468437
0.74602891
0.74521317
0.74439538
0.74357527
0.74275337
0.74193102
0.74111064
0.74029601
0.73949279
0.73870924
0.73795756
0.73725522
0.73662848
0.73611365
0.73576903
0.73566687
0.7359465
0.7367295
0.73840116
0.74102438
0.74587468
0.7520951
0.76402621
0.77865963
0.75950536
0.75804279
0.75646625
0.75556119
0.75465225
0.75365249
0.75269574
0.75178985
0.75091042
0.75005441
0.74921941
0.74839794
0.74758372
0.74677289
0.74596271
0.74515113
0.74433705
0.74352015
0.74270084
0.74188027
0.74106058
0.74024515
0.73943903
0.7386496
0.73788769
0.73716878
0.73651609
0.7359615
0.73555604
0.73536238
0.73550058
0.73607485
0.73740581
0.73956046
0.7435155
0.74878148
0.75810689
0.77013059
0.7592843
0.75791375
0.75633949
0.75542276
0.75452247
0.75352858
0.75257375
0.75167191
0.75079823
0.74994855
0.7491201
0.74830489
0.74749638
0.74669072
0.74588517
0.7450777
0.74426715
0.74345317
0.74263603
0.74181674
0.74099715
0.74018024
0.73937045
0.73857425
0.73780112
0.73706455
0.73638467
0.73578901
0.73532124
0.73503494
0.73503055
0.7353976
0.73639042
0.73808974
0.7411807
0.74551417
0.7524759
0.76246791
0.75905151
0.75777398
0.7562033
0.75527287
0.75437891
0.75339037
0.75243739
0.75153945
0.75067175
0.74982902
0.74900782
0.74819946
0.74739705
0.74659672
0.74579576
0.74499218
0.7441848
0.74337321
0.7425576
0.74173882
0.74091849
0.74009917
0.73928471
0.73848068
0.73769518
0.73693972
0.73623134
0.7355933
0.73506191
0.73468211
0.73453473
0.7346967
0.73535717
0.73661379
0.73888513
0.74230805
0.74716928
0.75531578
0.75881513
0.7576272
0.75605924
0.75511271
0.75422202
0.75323779
0.75228653
0.75139224
0.75053063
0.7496955
0.74888227
0.74808124
0.74728511
0.74649004
0.74569342
0.74489327
0.74408844
0.74327849
0.74246355
0.74164432
0.74082219
0.73999933
0.73917902
0.73836594
0.73756685
0.73679128
0.73605314
0.73537151
0.73477542
0.73430167
0.73401178
0.73397137
0.73430822
0.73513483
0.73663905
0.73918123
0.74219268
0.74860129
0.75858838
0.75747752
0.75590883
0.75494366
0.75405215
0.7530706
0.75212103
0.75123011
0.75037464
0.74954786
0.7487434
0.74795003
0.74716004
0.7463698
0.74557682
0.74477917
0.74397579
0.74316626
0.74235068
0.74152965
0.74070434
0.73987659
0.73904912
0.73822578
0.73741199
0.73661533
0.73584663
0.73512085
0.73445986
0.7338926
0.73346213
0.73322336
0.73324845
0.73365975
0.7344549
0.73615585
0.73756307
0.74235743
0.75839424
0.7573348
0.75575884
0.75477401
0.75387695
0.75289578
0.75194796
0.75105981
0.75021003
0.74939206
0.74859678
0.74781078
0.74702609
0.74623948
0.7454487
0.74465195
0.74384827
0.74303739
0.74221946
0.741395
0.74056504
0.73973116
0.73889559
0.73806141
0.73723276
0.73641538
0.73561714
0.73484912
0.73412641
0.7334707
0.73290826
0.73248408
0.73222287
0.73225196
0.73242081
0.73336301
0.7334336
0.736837
0.75824792
0.75721281
0.75561934
0.75461516
0.75370868
0.75272596
0.75178018
0.7508938
0.75004861
0.74923918
0.74845263
0.74767273
0.74689154
0.74610655
0.74531588
0.74451791
0.74371194
0.74289789
0.74207605
0.74124696
0.74041158
0.73957128
0.73872789
0.73788378
0.73704192
0.73620637
0.73538232
0.7345774
0.73380073
0.73306779
0.73239058
0.73180575
0.73129987
0.73100302
0.73065468
0.73096627
0.72998965
0.73229005
0.75814399
0.75711869
0.75549683
0.75447364
0.75355422
0.75256811
0.75162407
0.75073753
0.74989508
0.74909332
0.74831436
0.74753865
0.74675865
0.74597299
0.7451803
0.74437924
0.74356942
0.74275109
0.74192469
0.74109084
0.74025042
0.73940465
0.73855496
0.73770305
0.73685081
0.73600074
0.73515569
0.73432032
0.73349865
0.73270106
0.7319277
0.7312087
0.73050038
0.72993506
0.72917136
0.72897586
0.72720148
0.72864043
0.75808691
0.75705097
0.75538839
0.75434678
0.75341065
0.75241996
0.75147741
0.75058827
0.74974648
0.74895147
0.74817889
0.7474053
0.74662417
0.7458358
0.74503948
0.74423419
0.74341993
0.74259727
0.74176682
0.74092921
0.74008524
0.73923588
0.73838215
0.73752507
0.73666549
0.73580454
0.73494294
0.73408289
0.73322404
0.73237267
0.731519
0.73068829
0.72981238
0.7290264
0.7279276
0.72732456
0.72493891
0.72569669
0.75810677
0.75701293
0.75529601
0.75423504
0.75327552
0.75227874
0.75133713
0.75044237
0.74959902
0.74880994
0.74804254
0.74726911
0.74648489
0.74569243
0.74489184
0.74408236
0.74326432
0.74243856
0.74160573
0.74076637
0.73992107
0.73907052
0.73821527
0.73735566
0.73649157
0.73562289
0.73474855
0.7338687
0.73297929
0.73208339
0.73116282
0.73023946
0.72922482
0.72825812
0.72688798
0.7259582
0.72310121
0.72331628
0.75822022
0.75698419
0.75520527
0.7541292
0.75314133
0.75213946
0.75119926
0.75029591
0.74944894
0.74866522
0.74790207
0.74712721
0.74633868
0.74554193
0.74473779
0.74392556
0.74310571
0.74227914
0.74144639
0.74060776
0.73976357
0.73891417
0.73805963
0.73719966
0.73633326
0.73545933
0.73457526
0.73367958
0.7327651
0.73183245
0.73085625
0.72985637
0.72872698
0.72761296
0.72602253
0.72483184
0.72160924
0.72138981
0.7584516
0.75696724
0.75511576
0.75402627
0.75300432
0.75199957
0.75106134
0.75014601
0.74929327
0.74851459
0.7477552
0.74697817
0.74618538
0.74538561
0.74458014
0.74376787
0.74294907
0.74212449
0.74129441
0.74045884
0.73961782
0.73877138
0.73791914
0.73706028
0.73619308
0.73531564
0.73442409
0.7335157
0.73258065
0.73161775
0.73059539
0.72953265
0.72830844
0.72707506
0.72530535
0.72390759
0.72039966
0.7198314
0.75869179
0.75692339
0.75501447
0.7539186
0.7528597
0.75185661
0.75092101
0.74998996
0.74912942
0.74835606
0.74760099
0.74682244
0.74602708
0.74522715
0.74442377
0.74361484
0.74280011
0.74198009
0.74115479
0.74032397
0.73948745
0.738645
0.73779593
0.73693895
0.73607181
0.73519197
0.73429457
0.73337593
0.73242397
0.73143624
0.7303757
0.72926161
0.7279592
0.72662983
0.72471392
0.72315333
0.71942117
0.71857303
0.75893598
0.75686043
0.75490806
0.75380637
0.75270564
0.7517088
0.75077581
0.74982514
0.74895542
0.74818895
0.74744046
0.74666287
0.74586823
0.74507207
0.7442746
0.7434722
0.74266399
0.74185029
0.741031
0.74020575
0.73937427
0.73853616
0.73769046
0.73683559
0.73596885
0.73508728
0.73418521
0.73325825
0.73229239
0.73128439
0.73019238
0.72903665
0.72766996
0.72626414
0.72422886
0.72254192
0.71863218
0.71756099
0.75918544
0.7567694
0.75479443
0.75368593
0.7525383
0.75155291
0.75062255
0.74964922
0.74877052
0.74801461
0.74727703
0.74650449
0.74571474
0.7449264
0.74413817
0.74334461
0.74254429
0.74173763
0.74092465
0.74010503
0.73927846
0.73844447
0.73760192
0.73674901
0.73588273
0.73499982
0.73409396
0.73316027
0.73218306
0.73115865
0.73004089
0.72885178
0.72743251
0.72596664
0.72383393
0.72205093
0.71799932
0.7167534
0.75945823
0.75664639
0.75467569
0.75355532
0.75235447
0.75138588
0.75045871
0.74946159
0.74857652
0.74783707
0.74711634
0.7463536
0.74557268
0.74479535
0.74401849
0.74323481
0.74244264
0.74164281
0.74083571
0.74002119
0.73919899
0.7383686
0.73752875
0.7366775
0.73581164
0.73492768
0.73401881
0.73307976
0.73209344
0.73105597
0.72991742
0.72870198
0.72724011
0.72572796
0.72351596
0.72166217
0.7174962
0.71611803
0.75976158
0.75648281
0.75455173
0.75341072
0.75215035
0.75120505
0.75028366
0.74926465
0.74837822
0.74766261
0.74696506
0.74621623
0.74544683
0.74468225
0.74391751
0.74314356
0.74235884
0.74156498
0.74076291
0.73995271
0.73913419
0.73830681
0.73746921
0.73661937
0.73575393
0.73486929
0.73395817
0.73301506
0.73202164
0.73097409
0.72981909
0.72858337
0.72708745
0.72554059
0.72326452
0.72136108
0.71710215
0.7156301
0.7600986
0.75627176
0.75442253
0.7532476
0.75192324
0.75101024
0.75010023
0.74906425
0.74818294
0.74749857
0.74682941
0.74609691
0.74533998
0.74458841
0.74383533
0.74307011
0.74229161
0.74150257
0.74070459
0.73989799
0.73908257
0.73825775
0.73742213
0.73657363
0.73570878
0.7348239
0.73391134
0.73296542
0.73196676
0.73091174
0.72974409
0.72849328
0.7269707
0.72539885
0.72307164
0.72113618
0.71680118
0.71527055
0.76046534
0.75600505
0.75428587
0.75306023
0.75167208
0.75080421
0.74991451
0.74886855
0.74799853
0.74735118
0.74671355
0.74599782
0.7452528
0.74451338
0.74377078
0.74301282
0.74223918
0.74145394
0.74065937
0.73985588
0.73904323
0.73822078
0.73738709
0.73654004
0.7356761
0.7347915
0.7338783
0.7329307
0.73192842
0.7308682
0.72969119
0.72842968
0.72688681
0.72529803
0.72293083
0.72097788
0.71658038
0.7150237
0.76085786
0.75567387
0.75413755
0.75284414
0.75140152
0.75059553
0.74973584
0.74868621
0.74783193
0.74722511
0.74661979
0.74591959
0.74518496
0.74445635
0.74372273
0.74297058
0.74220073
0.74141868
0.74062721
0.73982669
0.73901673
0.73819665
0.73736498
0.73651959
0.73565689
0.73477306
0.7338599
0.73291154
0.73190701
0.73084345
0.72965988
0.72839129
0.72683363
0.72523453
0.72283708
0.72087849
0.71642941
0.71487746
0.7612739
0.75526601
0.753973
0.75259973
0.7511216
0.75039441
0.74957253
0.74852415
0.74768779
0.74712242
0.74654843
0.74586195
0.74513613
0.74441683
0.74369073
0.74294326
0.74217662
0.74139759
0.74060921
0.73981163
0.73900433
0.73818661
0.737357
0.73651338
0.7356521
0.73476931
0.7338566
0.73290813
0.73190236
0.73083692
0.72964902
0.72837634
0.72680841
0.7252046
0.72278472
0.72083116
0.71633677
0.71482274
0.76171279
0.75476731
0.75379171
0.75233684
0.7508502
0.75021398
0.74943187
0.74838709
0.74756941
0.7470449
0.74650039
0.74582593
0.74510758
0.7443962
0.74367631
0.74293278
0.74216918
0.74139319
0.74060783
0.73981303
0.73900818
0.73819261
0.73736489
0.73652291
0.73566296
0.73478119
0.73386906
0.73292081
0.73191445
0.73084822
0.72965765
0.72838343
0.72680857
0.72520537
0.72276809
0.72083158
0.71628948
0.71485763
0.76209994
0.75425424
0.75363458
0.75211965
0.75063455
0.75007094
0.74932842
0.74829671
0.7474929
0.74699863
0.74647835
0.74581503
0.74510256
0.74439626
0.7436804
0.74293989
0.74217889
0.74140536
0.74062224
0.73982936
0.73902615
0.738212
0.73738548
0.73654452
0.73568537
0.73480423
0.73389246
0.73294444
0.73193782
0.73087154
0.72967959
0.72840585
0.72682681
0.72522851
0.7227778
0.72086765
0.71627491
0.71495673
0.76238042
0.75380297
0.75351231
0.75197054
0.75048512
0.74996297
0.74925656
0.74824775
0.74745369
0.74697755
0.74647483
0.74582121
0.74511299
0.74440918
0.74369535
0.74295675
0.74219751
0.74142545
0.74064351
0.73985157
0.73904913
0.73823559
0.73740956
0.73656897
0.73571009
0.73482914
0.73391743
0.73296947
0.73196271
0.73089652
0.7297041
0.72843109
0.72685065
0.72525621
0.7228001
0.72090759
0.71628737
0.71505003
0.76260786
0.75335858
0.75340439
0.75185593
0.75036887
0.74987107
0.74920054
0.74822256
0.74743795
0.74697466
0.74648615
0.74584108
0.74513588
0.74443302
0.74372001
0.74298247
0.74222416
0.74145271
0.7406711
0.73987937
0.73907704
0.73826355
0.73743748
0.7365968
0.73573779
0.7348567
0.73394483
0.73299676
0.73198987
0.73092377
0.72973134
0.72845913
0.72687879
0.72528755
0.72283057
0.72095074
0.71631602
0.71514274
0.76278139
0.75293411
0.75331562
0.75177537
0.75028388
0.74979684
0.74916161
0.74821979
0.74744414
0.74698899
0.74651088
0.74587243
0.74516877
0.74446547
0.74375211
0.74301459
0.74225626
0.74148452
0.7407025
0.73991033
0.73910756
0.73829361
0.73746709
0.73662596
0.73576653
0.73488506
0.73397286
0.73302455
0.73201753
0.73095153
0.72975935
0.72848803
0.72690865
0.72532032
0.72286502
0.72099511
0.71635293
0.71523414
0.762907
0.7525432
0.75324901
0.75172718
0.75022904
0.74974226
0.74914048
0.74823778
0.7474703
0.74701877
0.74654683
0.74591254
0.7452089
0.74450389
0.74378899
0.74305043
0.74229114
0.74151837
0.74073534
0.73994224
0.73913861
0.73832387
0.7374966
0.73665479
0.73579475
0.73491274
0.73400012
0.73305151
0.73204435
0.73097846
0.7297867
0.72851631
0.72693841
0.72535279
0.72290061
0.7210388
0.71639344
0.71532197
0.76297722
0.75219441
0.75320691
0.75171164
0.75020492
0.74970938
0.74913655
0.74827348
0.74751331
0.74706111
0.74659081
0.74595797
0.74525289
0.74454507
0.7438276
0.74308707
0.74232613
0.74155182
0.74076739
0.73997305
0.73916832
0.73835258
0.73752441
0.7366818
0.73582106
0.73493845
0.73402536
0.73307643
0.73206915
0.73100339
0.72981215
0.7285427
0.72696656
0.72538344
0.72293527
0.72107989
0.71643467
0.7154031
0.76300172
0.75190006
0.75319221
0.75172726
0.75021055
0.74969936
0.7491473
0.74832217
0.74756919
0.74711279
0.74663952
0.74600536
0.74529765
0.74458629
0.74386558
0.74312253
0.74235955
0.74158349
0.74079752
0.74000184
0.73919594
0.73837917
0.73755008
0.73670666
0.73584522
0.73496203
0.73404849
0.73309927
0.73209192
0.73102632
0.72983566
0.72856715
0.72699291
0.72541202
0.72296837
0.72111789
0.71647554
0.71547586
0.76297484
0.75166607
0.75320727
0.75177276
0.75024329
0.74971056
0.74916832
0.7483774
0.74763187
0.74716847
0.74668797
0.74604995
0.74533884
0.74462376
0.74389961
0.74315385
0.74238877
0.74161098
0.74082352
0.74002655
0.73921953
0.73840177
0.73757183
0.73672766
0.73586557
0.73498186
0.73406792
0.73311844
0.73211106
0.73104563
0.72985559
0.72858795
0.72701564
0.72543672
0.72299773
0.72115077
0.71651357
0.71553685
0.7629068
0.75151752
0.75325257
0.75183537
0.7502916
0.74974166
0.74919641
0.74843377
0.74769661
0.74722457
0.74673345
0.74608983
0.74537528
0.74465691
0.74392966
0.74318143
0.74241449
0.74163521
0.74084648
0.74004841
0.73924045
0.73842188
0.73759122
0.73674643
0.73588383
0.7349997
0.73408546
0.73313581
0.73212845
0.73106324
0.72987383
0.72860703
0.72703657
0.72545938
0.72302493
0.72118041
0.71655011
0.71558666
0.76271533
0.75145892
0.75331313
0.75189955
0.75034918
0.74978822
0.74922519
0.74848263
0.7477536
0.74727192
0.74676833
0.7461185
0.74540099
0.74468007
0.74395029
0.74319999
0.74243149
0.74165098
0.74086119
0.7400622
0.73925344
0.73843418
0.73760293
0.73675762
0.73589457
0.73501008
0.73409559
0.7331458
0.73213848
0.73107347
0.72988463
0.72861859
0.72704978
0.72547413
0.72304378
0.72120095
0.7165787
0.71561731
0.76246456
0.7515176
0.75337352
0.7519396
0.7503886
0.74985114
0.74925998
0.74852363
0.7478026
0.74731418
0.74679983
0.74614508
0.74542581
0.74470348
0.74397212
0.74322048
0.74245098
0.74166966
0.74087919
0.7400796
0.73927033
0.73845062
0.73761897
0.73677331
0.73590998
0.73502525
0.7341106
0.73316074
0.73215348
0.73108864
0.72990026
0.72863481
0.72706726
0.72549278
0.72306551
0.72122377
0.71660904
0.71563981
0.7620517
0.75159526
0.75340224
0.75194003
0.75041836
0.74991883
0.74928987
0.74854777
0.74783261
0.74734022
0.74681823
0.74616039
0.7454402
0.74471705
0.74398469
0.74323214
0.74246194
0.74168005
0.74088907
0.74008904
0.73927936
0.73845929
0.73762732
0.73678138
0.7359178
0.73503286
0.73411805
0.73316807
0.7321608
0.73109602
0.7299079
0.72864277
0.72707608
0.72550221
0.72307722
0.72123548
0.71662788
0.71564064
0.7619138
0.75170238
0.753441
0.7519266
0.75044637
0.75002728
0.74936137
0.74860146
0.74789117
0.74739827
0.74687168
0.74621228
0.74549162
0.74476799
0.74403499
0.74328183
0.74251115
0.74172887
0.74093754
0.74013717
0.7393272
0.73850686
0.73767463
0.73682846
0.73596466
0.73507954
0.73416457
0.73321448
0.73220716
0.73114237
0.72995442
0.72868946
0.7271234
0.72554987
0.7231267
0.72128457
0.71668329
0.71567107
0.76283854
0.75181128
0.75350776
0.75192266
0.75055218
0.75022897
0.74948781
0.74870122
0.74799468
0.74750121
0.74697275
0.74631362
0.74559343
0.74487022
0.74413751
0.74338461
0.74261423
0.74183228
0.74104126
0.74024122
0.73943156
0.73861153
0.73777962
0.73693375
0.73607027
0.73518546
0.73427082
0.73332107
0.73231413
0.73124975
0.73006231
0.72879788
0.72723264
0.72565978
0.7232382
0.72139645
0.71679977
0.71575594
0.76361791
0.7518324
0.75355845
0.75194474
0.75070784
0.75038502
0.74956925
0.7487659
0.74805844
0.74756303
0.74703492
0.74637671
0.74565709
0.74493443
0.74420223
0.74344982
0.74267993
0.74189847
0.74110794
0.74030836
0.73949918
0.73867962
0.73784817
0.73700276
0.73613974
0.73525538
0.73434122
0.73339194
0.73238549
0.73132164
0.73013476
0.72887095
0.72730644
0.72573437
0.72331387
0.72147312
0.71687848
0.71581575
1.5216791
0.92124546
0.81065245
0.72913423
0.67684658
0.63719468
0.60472202
0.57674059
0.55131179
0.52745208
0.5045421
0.48225539
0.46046343
0.43914553
0.41834432
0.39813393
0.37861256
0.35989423
0.34209565
0.32533966
0.30974179
0.29545003
0.28257098
0.27142646
0.26211392
0.25641237
1.5119813
0.92392341
0.8118798
0.72959022
0.67707921
0.63730559
0.60476769
0.57675469
0.55131156
0.52744389
0.50452798
0.48223523
0.46043627
0.43911014
0.41829912
0.39807769
0.37854462
0.35981438
0.34200405
0.32523684
0.30962853
0.2953274
0.2824402
0.27128921
0.26197184
0.25626746
1.4836395
0.92443166
0.81333017
0.73020326
0.67743754
0.63749911
0.60485264
0.57677147
0.55128694
0.52739285
0.50445883
0.48215217
0.46034137
0.43900439
0.41818264
0.3979502
0.37840601
0.35966485
0.34184416
0.32506746
0.30945081
0.29514276
0.28225019
0.27109591
0.26177702
0.2560706
1.4434191
0.91996323
0.81356133
0.73059235
0.6778732
0.6378548
0.605121
0.57696871
0.55143234
0.52750049
0.50453831
0.48220925
0.46037979
0.4390269
0.4181913
0.39794634
0.37839069
0.35963915
0.34180923
0.3250246
0.30940147
0.2950886
0.28219292
0.27103785
0.26171987
0.25601198
1.4107362
0.91313203
0.81193937
0.73015862
0.67800813
0.638133
0.60540729
0.57722574
0.55165707
0.52769737
0.50471298
0.48236558
0.46052034
0.43915369
0.41830594
0.39804996
0.37848425
0.35972363
0.34188567
0.32509417
0.30946546
0.29514852
0.28225035
0.27109506
0.26177855
0.25606882
1.3874685
0.90586808
0.80842537
0.72849976
0.67757433
0.6381847
0.60562448
0.57748162
0.55190809
0.52793044
0.50492631
0.48256081
0.46069914
0.43931769
0.4184566
0.39818833
0.37861121
0.35984019
0.34199294
0.32519351
0.30955838
0.29523691
0.28233618
0.27118131
0.26186744
0.25615543
1.3790327
0.90003043
0.80368298
0.72557924
0.67637437
0.63784688
0.60567779
0.5776965
0.55218153
0.5282176
0.50520753
0.48282896
0.4609516
0.43955398
0.41867725
0.39839407
0.37880293
0.36001904
0.34216035
0.32535121
0.30970837
0.29538162
0.28247814
0.27132432
0.26201427
0.25629847
1.3830791
0.89576873
0.79881436
0.72203621
0.67455303
0.63704899
0.60543801
0.57774094
0.55236283
0.52846073
0.50547421
0.48309992
0.46121702
0.439809
0.41891977
0.39862327
0.37901872
0.36022199
0.34235158
0.32553237
0.30988152
0.29554938
0.28264325
0.27149091
0.26218527
0.25646371
1.3879509
0.89081104
0.79401943
0.71826497
0.67232353
0.63585324
0.6048873
0.57757213
0.55241035
0.52862648
0.50570191
0.48335687
0.46148431
0.44007584
0.41918026
0.39887426
0.37925866
0.36045051
0.34256926
0.32574058
0.3100822
0.2957452
0.28283711
0.27168711
0.26238684
0.25665748
1.3837037
0.88318053
0.78928492
0.71453374
0.66990647
0.63438424
0.60406852
0.57718425
0.55229842
0.52868638
0.50586615