/*--------------------------------*- C++ -*----------------------------------*\
| =========                 |                                                 |
| \\      /  F ield         | OpenFOAM: The Open Source CFD Toolbox           |
|  \\    /   O peration     | Version:  2.4.0                                 |
|   \\  /    A nd           | Web:      www.OpenFOAM.org                      |
|    \\/     M anipulation  |                                                 |
\*---------------------------------------------------------------------------*/
FoamFile
{
    version     2.0;
    format      ascii;
    class       surfaceScalarField;
    location    "2000";
    object      phi;
}
// * * * * * * * * * * * * * * * * * * * * * * * * * * * * * * * * * * * * * //

dimensions      [0 3 -1 0 0 0 0];

internalField   nonuniform List<scalar> 
30289
(
2.0783806e-07
2.8877252e-09
2.0517644e-07
2.6616215e-09
2.0252092e-07
2.6555199e-09
1.9988203e-07
2.6388921e-09
1.9726427e-07
2.6177591e-09
1.9465701e-07
2.6072619e-09
1.9206285e-07
2.5941542e-09
1.8949365e-07
2.5692044e-09
1.8693915e-07
2.5544959e-09
1.8439308e-07
2.5460732e-09
1.8186166e-07
2.5314215e-09
1.7933643e-07
2.5252274e-09
1.7682614e-07
2.5102884e-09
1.7433982e-07
2.486318e-09
1.7186948e-07
2.4703491e-09
1.6942677e-07
2.442702e-09
1.6700035e-07
2.4264237e-09
1.6457908e-07
2.421271e-09
1.6217341e-07
2.405673e-09
1.5976919e-07
2.4042183e-09
1.5737873e-07
2.3904553e-09
1.5501432e-07
2.3644103e-09
1.526771e-07
2.3372191e-09
1.5034902e-07
2.3280876e-09
1.4801158e-07
2.3374331e-09
1.4565772e-07
2.3538672e-09
1.4329487e-07
2.3628438e-09
1.4092593e-07
2.3689389e-09
1.3853257e-07
2.3933667e-09
1.360528e-07
2.4797644e-09
1.3343756e-07
2.6152454e-09
1.3063048e-07
2.8070726e-09
1.2748058e-07
3.149901e-09
1.2374672e-07
3.7338587e-09
1.1872873e-07
5.0179918e-09
1.1108208e-07
7.6466485e-09
9.6372394e-08
1.470969e-08
1.6786134e-08
7.9586261e-08
6.2351431e-07
1.1504418e-08
6.155245e-07
1.0651434e-08
6.0755212e-07
1.0627895e-08
5.9963324e-07
1.0557774e-08
5.9177772e-07
1.0473279e-08
5.8396959e-07
1.0415389e-08
5.7620214e-07
1.0361603e-08
5.6847619e-07
1.0295161e-08
5.6079333e-07
1.0237353e-08
5.5315322e-07
1.0186182e-08
5.4555712e-07
1.0127523e-08
5.3800733e-07
1.0075015e-08
5.3050317e-07
1.0014445e-08
5.2304651e-07
9.9429815e-09
5.1563774e-07
9.8791202e-09
5.0827586e-07
9.8045813e-09
5.0096261e-07
9.7396745e-09
4.9369715e-07
9.6867286e-09
4.8647836e-07
9.6244684e-09
4.7930575e-07
9.5768214e-09
4.7217544e-07
9.5207694e-09
4.6508522e-07
9.4546296e-09
4.5802863e-07
9.3938075e-09
4.5099977e-07
9.3569514e-09
4.439869e-07
9.3503045e-09
4.3697487e-07
9.3658938e-09
4.2993664e-07
9.4010721e-09
4.2283463e-07
9.4709533e-09
4.1560685e-07
9.6211496e-09
4.0816745e-07
9.9191611e-09
4.0036433e-07
1.0418365e-08
3.9195225e-07
1.1219148e-08
3.8253715e-07
1.256501e-08
3.7140662e-07
1.4864385e-08
3.5650515e-07
1.9919458e-08
3.3394074e-07
3.021106e-08
2.9047265e-07
5.8177786e-08
3.8730059e-08
2.6852872e-07
1.0391823e-06
2.5791026e-08
1.0258687e-06
2.3965003e-08
1.0125804e-06
2.3916212e-08
9.9938248e-07
2.3755715e-08
9.8629009e-07
2.3565669e-08
9.7327973e-07
2.3425751e-08
9.6033896e-07
2.3302366e-08
9.4745956e-07
2.3174561e-08
9.3465032e-07
2.3046594e-08
9.2191694e-07
2.291957e-08
9.0925699e-07
2.2787468e-08
8.9668011e-07
2.2651892e-08
8.8418097e-07
2.2513585e-08
8.71754e-07
2.2369954e-08
8.5940672e-07
2.2226399e-08
8.4713046e-07
2.2080849e-08
8.3493397e-07
2.1936161e-08
8.228251e-07
2.1795596e-08
8.1079412e-07
2.1655454e-08
7.9884968e-07
2.1521261e-08
7.8697741e-07
2.1393039e-08
7.7516124e-07
2.1270795e-08
7.6339104e-07
2.1164015e-08
7.5166646e-07
2.1081522e-08
7.3998041e-07
2.1036364e-08
7.2830702e-07
2.103928e-08
7.1659137e-07
2.1116722e-08
7.0475815e-07
2.1304171e-08
6.9270818e-07
2.1671121e-08
6.8031365e-07
2.2313689e-08
6.6732866e-07
2.3403355e-08
6.5333413e-07
2.5213678e-08
6.3768925e-07
2.8209893e-08
6.192327e-07
3.3320937e-08
5.9459959e-07
4.4552569e-08
5.5748374e-07
6.7326905e-08
4.8848869e-07
1.2717283e-07
7.0692116e-08
4.5652664e-07
1.4548321e-06
4.5698531e-08
1.4362023e-06
4.259482e-08
1.4176022e-06
4.2516321e-08
1.3991269e-06
4.2230976e-08
1.3807993e-06
4.1893324e-08
1.3625804e-06
4.1644645e-08
1.3444589e-06
4.1423897e-08
1.3264347e-06
4.119868e-08
1.3085089e-06
4.0972444e-08
1.2906836e-06
4.0744817e-08
1.2729612e-06
4.0509953e-08
1.255345e-06
4.0268055e-08
1.2378376e-06
4.0020953e-08
1.2204398e-06
3.9767767e-08
1.2031536e-06
3.9512577e-08
1.1859789e-06
3.925556e-08
1.168916e-06
3.8999106e-08
1.1519651e-06
3.8746449e-08
1.1351233e-06
3.849725e-08
1.1183884e-06
3.825623e-08
1.1017544e-06
3.8026969e-08
1.0852121e-06
3.7813098e-08
1.0687503e-06
3.7625814e-08
1.0523529e-06
3.7478979e-08
1.0359959e-06
3.7393382e-08
1.0196402e-06
3.7394916e-08
1.003227e-06
3.7529965e-08
9.866672e-07
3.786395e-08
9.6982508e-07
3.8513239e-08
9.5249408e-07
3.9644694e-08
9.3433471e-07
4.1562722e-08
9.1478981e-07
4.4758583e-08
8.9295944e-07
5.0040262e-08
8.672626e-07
5.9017777e-08
8.3308135e-07
7.8733815e-08
7.8181214e-07
1.1859612e-07
6.8858243e-07
2.2040254e-07
1.0769692e-07
6.5157762e-07
1.8704622e-06
7.1178022e-08
1.8465206e-06
6.6536496e-08
1.8226102e-06
6.6426701e-08
1.7988581e-06
6.5983004e-08
1.7752956e-06
6.5455908e-08
1.7518713e-06
6.506895e-08
1.7285716e-06
6.4723577e-08
1.7054007e-06
6.4369579e-08
1.6823565e-06
6.401658e-08
1.6594396e-06
6.3661772e-08
1.6366547e-06
6.3294875e-08
1.6140036e-06
6.2919075e-08
1.5914921e-06
6.2532482e-08
1.5691243e-06
6.2135572e-08
1.5469001e-06
6.1736755e-08
1.524823e-06
6.1332734e-08
1.5028898e-06
6.0932246e-08
1.4810972e-06
6.0539093e-08
1.4594448e-06
6.0149642e-08
1.4379255e-06
5.9775547e-08
1.4165359e-06
5.9416527e-08
1.3952689e-06
5.9080112e-08
1.3741106e-06
5.8784115e-08
1.3530356e-06
5.8553939e-08
1.3320082e-06
5.8420792e-08
1.310979e-06
5.8424174e-08
1.2898776e-06
5.8631361e-08
1.2685959e-06
5.9145605e-08
1.2469605e-06
6.0148607e-08
1.2246997e-06
6.190551e-08
1.2013819e-06
6.4880566e-08
1.1763079e-06
6.9832519e-08
1.1483299e-06
7.8018319e-08
1.1154685e-06
9.1879155e-08
1.0719058e-06
1.2229653e-07
1.0068127e-06
1.8368927e-07
8.9055587e-07
3.3665932e-07
1.5232376e-07
8.4592903e-07
3.6919083e-06
1.2116056e-07
3.6446624e-06
1.1378241e-07
3.5974791e-06
1.1361005e-07
3.5506018e-06
1.1286029e-07
3.5040963e-06
1.1196142e-07
3.4578653e-06
1.1129998e-07
3.4118799e-06
1.1070892e-07
3.3661453e-06
1.1010418e-07
3.3206609e-06
1.0950101e-07
3.2754289e-06
1.088938e-07
3.2304573e-06
1.0826642e-07
3.1857527e-06
1.0762369e-07
3.1413232e-06
1.0696199e-07
3.0971754e-06
1.0628333e-07
3.0533113e-06
1.0560087e-07
3.0097341e-06
1.0490998e-07
2.9664414e-06
1.0422495e-07
2.9234288e-06
1.0355162e-07
2.8806933e-06
1.0288521e-07
2.8382244e-06
1.0224441e-07
2.796012e-06
1.0162894e-07
2.7540392e-06
1.0105288e-07
2.7122775e-06
1.0054583e-07
2.6706815e-06
1.0014992e-07
2.6291846e-06
9.9917697e-08
2.5876917e-06
9.9917132e-08
2.5460612e-06
1.0026188e-07
2.5040788e-06
1.0112797e-07
2.4614053e-06
1.0282215e-07
2.41752e-06
1.0579072e-07
2.3715829e-06
1.108177e-07
2.3222304e-06
1.1918504e-07
2.2672374e-06
1.3301129e-07
2.2028343e-06
1.5628233e-07
2.1178664e-06
2.0726438e-07
1.9914375e-06
3.101182e-07
1.7709616e-06
5.5713518e-07
2.5601664e-07
1.6672687e-06
5.3561813e-06
1.9320004e-07
5.2876885e-06
1.8227528e-07
5.2192567e-06
1.8204183e-07
5.1512563e-06
1.8086071e-07
5.0837919e-06
1.7942581e-07
5.0167269e-06
1.7836501e-07
4.9500176e-06
1.774182e-07
4.8836676e-06
1.7645411e-07
4.8176803e-06
1.7548833e-07
4.7520608e-06
1.7451329e-07
4.6868191e-06
1.7350811e-07
4.6219676e-06
1.7247521e-07
4.5575151e-06
1.7141449e-07
4.4934686e-06
1.7032982e-07
4.4298337e-06
1.6923579e-07
4.3666114e-06
1.6813227e-07
4.3038022e-06
1.6703416e-07
4.2414032e-06
1.6595061e-07
4.1794066e-06
1.6488187e-07
4.1178019e-06
1.6384906e-07
4.05657e-06
1.6286088e-07
3.9956824e-06
1.6194042e-07
3.9350976e-06
1.6113065e-07
3.8747557e-06
1.6049186e-07
3.8145659e-06
1.6010748e-07
3.7543926e-06
1.6009044e-07
3.6940279e-06
1.606266e-07
3.6331609e-06
1.6199497e-07
3.5713079e-06
1.6467513e-07
3.5077348e-06
1.6936375e-07
3.4412453e-06
1.7730723e-07
3.3698963e-06
1.9053407e-07
3.2905255e-06
2.1238201e-07
3.1978965e-06
2.4891135e-07
3.076429e-06
3.2873191e-07
2.8964451e-06
4.9010206e-07
2.5988294e-06
8.5475096e-07
3.8277749e-07
2.4720685e-06
7.5639254e-06
2.9425892e-07
7.4673019e-06
2.7889876e-07
7.3707058e-06
2.7863795e-07
7.2746934e-06
2.7687308e-07
7.1794315e-06
2.7468767e-07
7.0847314e-06
2.7306519e-07
6.9905323e-06
2.7161727e-07
6.89684e-06
2.7014642e-07
6.8036588e-06
2.6866954e-07
6.7109966e-06
2.6717551e-07
6.6188675e-06
2.6563719e-07
6.5272885e-06
2.640542e-07
6.4362729e-06
2.6243011e-07
6.3458308e-06
2.6077188e-07
6.2559701e-06
2.5909649e-07
6.166693e-06
2.5740939e-07
6.0779997e-06
2.557275e-07
5.9898859e-06
2.5406438e-07
5.9023409e-06
2.5242682e-07
5.8153498e-06
2.5084025e-07
5.7288861e-06
2.4932455e-07
5.6429105e-06
2.47916e-07
5.5573656e-06
2.4667554e-07
5.4721675e-06
2.4568996e-07
5.3871899e-06
2.4508512e-07
5.3022432e-06
2.450371e-07
5.2170394e-06
2.458304e-07
5.1311475e-06
2.4788692e-07
5.0438976e-06
2.5192501e-07
4.9542725e-06
2.5898883e-07
4.8606174e-06
2.7096231e-07
4.7602538e-06
2.9089769e-07
4.6488078e-06
3.2382804e-07
4.5192301e-06
3.7848905e-07
4.3504989e-06
4.9746314e-07
4.1013751e-06
7.3922583e-07
3.6805525e-06
1.2755735e-06
5.3317507e-07
3.5301549e-06
1.0476042e-05
4.332328e-07
1.034239e-05
4.1255104e-07
1.0208684e-05
4.123437e-07
1.0075739e-05
4.0981809e-07
9.9438207e-06
4.0660621e-07
9.8126756e-06
4.0421032e-07
9.6822217e-06
4.0207112e-07
9.5524686e-06
3.998995e-07
9.4234218e-06
3.9771633e-07
9.2950923e-06
3.9550502e-07
9.1675005e-06
3.9322901e-07
9.0406686e-06
3.9088608e-07
8.9146166e-06
3.8848216e-07
8.7893597e-06
3.8602873e-07
8.6649083e-06
3.8354792e-07
8.5412672e-06
3.810505e-07
8.4184352e-06
3.7855953e-07
8.2964055e-06
3.7609403e-07
8.1751646e-06
3.7366771e-07
8.0546902e-06
3.7131463e-07
7.9349481e-06
3.6906665e-07
7.8158861e-06
3.6697799e-07
7.6974264e-06
3.6513531e-07
7.5794526e-06
3.6366377e-07
7.461791e-06
3.6274667e-07
7.3441835e-06
3.626446e-07
7.2262403e-06
3.6377362e-07
7.1073776e-06
3.6674963e-07
6.9866867e-06
3.7261592e-07
6.8627863e-06
3.8288925e-07
6.7334376e-06
4.0031093e-07
6.5950339e-06
4.2930148e-07
6.4416473e-06
4.7721459e-07
6.2640119e-06
5.5612446e-07
6.0345577e-06
7.2691729e-07
5.6980899e-06
1.0756937e-06
5.1064211e-06
1.8672423e-06
7.5313161e-07
4.8864646e-06
1.4305942e-05
6.1490225e-07
1.4130458e-05
5.8803489e-07
1.3954687e-05
5.8811416e-07
1.3779781e-05
5.8472449e-07
1.3606162e-05
5.8022529e-07
1.3433502e-05
5.7687062e-07
1.326169e-05
5.7388325e-07
1.3090739e-05
5.7085001e-07
1.2920659e-05
5.6779642e-07
1.2751465e-05
5.6469899e-07
1.2583185e-05
5.615085e-07
1.2415851e-05
5.5822088e-07
1.2249488e-05
5.5484493e-07
1.2084119e-05
5.5139793e-07
1.1919757e-05
5.4790915e-07
1.1756411e-05
5.4439668e-07
1.1594079e-05
5.4089212e-07
1.143275e-05
5.3742258e-07
1.1272407e-05
5.3401057e-07
1.1113019e-05
5.3070266e-07
1.095454e-05
5.2754635e-07
1.0796897e-05
5.2462039e-07
1.0639986e-05
5.2204676e-07
1.0483646e-05
5.2000331e-07
1.0327641e-05
5.1875146e-07
1.0171619e-05
5.1866665e-07
1.0015049e-05
5.2034399e-07
9.8571352e-06
5.2466339e-07
9.6966405e-06
5.3311062e-07
9.5316862e-06
5.4784356e-07
9.3592301e-06
5.7276705e-07
9.1743935e-06
6.1413808e-07
8.9690905e-06
6.8251759e-07
8.731085e-06
7.9412992e-07
8.4242641e-06
1.0337382e-06
7.9759125e-06
1.5240454e-06
7.1569234e-06
2.6862314e-06
1.1108046e-06
6.7992503e-06
1.9312115e-05
8.5407854e-07
1.9080142e-05
8.2000837e-07
1.8847578e-05
8.2067824e-07
1.861598e-05
8.1632254e-07
1.8386015e-05
8.1019032e-07
1.8157272e-05
8.0561348e-07
1.7929606e-05
8.0154962e-07
1.7703034e-05
7.9742112e-07
1.7477573e-05
7.9325744e-07
1.7253246e-05
7.8902633e-07
1.7030091e-05
7.8466308e-07
1.6808151e-05
7.8016137e-07
1.6587461e-05
7.7553476e-07
1.6368051e-05
7.7080759e-07
1.6149943e-05
7.6601805e-07
1.5933144e-05
7.6119494e-07
1.5717656e-05
7.5638062e-07
1.5503465e-05
7.5161337e-07
1.5290547e-05
7.4692875e-07
1.5078861e-05
7.4238894e-07
1.4868343e-05
7.3806367e-07
1.46589e-05
7.3406386e-07
1.4450388e-05
7.3055875e-07
1.4242596e-05
7.2779512e-07
1.4035209e-05
7.2613872e-07
1.3827757e-05
7.2611791e-07
1.3619535e-05
7.2856693e-07
1.3409483e-05
7.3471518e-07
1.3195959e-05
7.4663467e-07
1.2976474e-05
7.6732852e-07
1.2746999e-05
8.0224138e-07
1.2501119e-05
8.6001869e-07
1.2228076e-05
9.5556022e-07
1.1912173e-05
1.1100333e-06
1.1507592e-05
1.4383187e-06
1.0923943e-05
2.1076947e-06
9.8183851e-06
3.7917892e-06
1.6799235e-06
9.2492662e-06
2.5833882e-05
1.1699375e-06
2.5526038e-05
1.1278525e-06
2.5217225e-05
1.1294913e-06
2.4909461e-05
1.1240864e-06
2.4603775e-05
1.115876e-06
2.4299675e-05
1.1097132e-06
2.3996975e-05
1.1042498e-06
2.3695702e-05
1.0986942e-06
2.339588e-05
1.0930792e-06
2.3097545e-05
1.0873612e-06
2.2800752e-05
1.0814566e-06
2.2505556e-05
1.0753574e-06
2.2212007e-05
1.0690842e-06
2.1920144e-05
1.0626702e-06
2.1629997e-05
1.056165e-06
2.134158e-05
1.0496116e-06
2.1054894e-05
1.0430666e-06
2.0769924e-05
1.0365838e-06
2.0486636e-05
1.0302166e-06
2.0204977e-05
1.0240477e-06
1.9924864e-05
1.0181766e-06
1.9646172e-05
1.012756e-06
1.9368714e-05
1.0080167e-06
1.9092214e-05
1.0042957e-06
1.8816257e-05
1.002095e-06
1.8540233e-05
1.0021425e-06
1.8263215e-05
1.0055849e-06
1.7983824e-05
1.0141057e-06
1.7699921e-05
1.0305382e-06
1.7408271e-05
1.058978e-06
1.7103646e-05
1.1068669e-06
1.6777789e-05
1.1858753e-06
1.6416658e-05
1.3166916e-06
1.6000547e-05
1.5261444e-06
1.5472598e-05
1.9662673e-06
1.4727925e-05
2.8523674e-06
1.3269317e-05
5.2503973e-06
2.5438751e-06
1.2405366e-05
3.4308962e-05
1.5848191e-06
3.3902928e-05
1.5338859e-06
3.3495482e-05
1.5369372e-06
3.3089083e-05
1.5304857e-06
3.2685276e-05
1.5196832e-06
3.2283503e-05
1.5114855e-06
3.1883535e-05
1.5042178e-06
3.1485413e-05
1.4968168e-06
3.1089175e-05
1.4893175e-06
3.0694874e-05
1.4816618e-06
3.0302588e-05
1.4737426e-06
2.9912393e-05
1.4655523e-06
2.9524355e-05
1.4571221e-06
2.9138529e-05
1.4484968e-06
2.8754953e-05
1.4397401e-06
2.8373652e-05
1.4309134e-06
2.7994626e-05
1.4220925e-06
2.7617857e-05
1.4133523e-06
2.7243304e-05
1.4047698e-06
2.6870896e-05
1.3964559e-06
2.6500525e-05
1.3885478e-06
2.6132027e-05
1.3812531e-06
2.5765162e-05
1.374882e-06
2.539957e-05
1.3698881e-06
2.5034715e-05
1.3669495e-06
2.4669806e-05
1.3670522e-06
2.4303646e-05
1.3717447e-06
2.3934457e-05
1.3832941e-06
2.3559484e-05
1.405512e-06
2.3174574e-05
1.4438876e-06
2.2773016e-05
1.5084248e-06
2.2344341e-05
1.6145506e-06
2.1870394e-05
1.7906389e-06
2.1326775e-05
2.0697635e-06
2.0643531e-05
2.6495105e-06
1.9708468e-05
3.7874309e-06
1.7819375e-05
7.1394897e-06
3.8101387e-06
1.6553112e-05
4.5314285e-05
2.1082889e-06
4.4800658e-05
2.047513e-06
4.4284967e-05
2.0526285e-06
4.376995e-05
2.045503e-06
4.3257848e-05
2.0317846e-06
4.2748081e-05
2.0212524e-06
4.2240372e-05
2.011927e-06
4.1734782e-05
2.0024064e-06
4.1231373e-05
1.9927271e-06
4.0730223e-05
1.9828114e-06
4.0231442e-05
1.9725235e-06
3.9735135e-05
1.9618599e-06
3.9241389e-05
1.9508681e-06
3.8750277e-05
1.9396086e-06
3.8261855e-05
1.9281625e-06
3.7776154e-05
1.9166143e-06
3.729318e-05
1.9050657e-06
3.6812913e-05
1.8936197e-06
3.6335297e-05
1.8823857e-06
3.5860241e-05
1.871512e-06
3.5387602e-05
1.8611865e-06
3.4917168e-05
1.8516873e-06
3.4448622e-05
1.8434284e-06
3.3981495e-05
1.8370152e-06
3.3515089e-05
1.8333549e-06
3.3048373e-05
1.8337687e-06
3.257979e-05
1.840327e-06
3.2107031e-05
1.856053e-06
3.162652e-05
1.8860239e-06
3.1132886e-05
1.9375216e-06
3.0617442e-05
2.0238686e-06
3.0066829e-05
2.1651629e-06
2.9457324e-05
2.400144e-06
2.875851e-05
2.7685776e-06
2.7882775e-05
3.5252453e-06
2.6721623e-05
4.9485827e-06
2.4293809e-05
9.5673047e-06
5.6507883e-06
2.2453159e-05
5.9544102e-05
2.7742621e-06
5.888693e-05
2.704685e-06
5.8227449e-05
2.7121097e-06
5.7568155e-05
2.7047973e-06
5.6912092e-05
2.6878478e-06
5.6258763e-05
2.6745815e-06
5.5607856e-05
2.662834e-06
5.495946e-05
2.6508016e-06
5.4313671e-05
2.6385161e-06
5.3670609e-05
2.6258742e-06
5.3030428e-05
2.6127043e-06
5.2393275e-05
2.599013e-06
5.1759268e-05
2.5848748e-06
5.1128505e-05
2.570372e-06
5.050106e-05
2.5556077e-06
4.9876979e-05
2.5406946e-06
4.9256278e-05
2.5257674e-06
4.8638931e-05
2.5109668e-06
4.8024871e-05
2.4964455e-06
4.741398e-05
2.4824027e-06
4.6806075e-05
2.4690919e-06
4.6200879e-05
2.4568826e-06
4.5597986e-05
2.4463212e-06
4.4996794e-05
2.4382075e-06
4.4396408e-05
2.4337409e-06
4.3795506e-05
2.434671e-06
4.3192099e-05
2.4437335e-06
4.2583239e-05
2.4649132e-06
4.1964371e-05
2.5048922e-06
4.1328679e-05
2.5732129e-06
4.0665137e-05
2.687411e-06
3.9957068e-05
2.8732317e-06
3.917407e-05
3.1831422e-06
3.8279154e-05
3.6634938e-06
3.7163465e-05
4.6409345e-06
3.5742179e-05
6.3698684e-06
3.2716909e-05
1.2592575e-05
8.2795227e-06
3.0088175e-05
0.0001067665
3.9223466e-06
0.00010561802
3.8531715e-06
0.0001044697
3.860423e-06
0.00010332084
3.85366e-06
0.00010217611
3.832579e-06
0.00010103558
3.815111e-06
9.9898872e-05
3.7995437e-06
9.8766121e-05
3.7835527e-06
9.7637531e-05
3.767106e-06
9.651336e-05
3.7500451e-06
9.5393921e-05
3.732143e-06
9.42795e-05
3.7134345e-06
9.317032e-05
3.6940546e-06
9.2066559e-05
3.674133e-06
9.0968356e-05
3.6538108e-06
8.9875804e-05
3.6332464e-06
8.878894e-05
3.6126306e-06
8.7707736e-05
3.5921711e-06
8.6632081e-05
3.5721003e-06
8.5561774e-05
3.5527101e-06
8.4496493e-05
3.5343732e-06
8.3435757e-05
3.5176184e-06
8.2378857e-05
3.5032212e-06
8.1324749e-05
3.4923155e-06
8.0271886e-05
3.4866033e-06
7.9217986e-05
3.488571e-06
7.815963e-05
3.5020903e-06
7.7091744e-05
3.532799e-06
7.600655e-05
3.590086e-06
7.48924e-05
3.6873625e-06
7.3730589e-05
3.8492221e-06
7.2493143e-05
4.1106781e-06
7.1128386e-05
4.547899e-06
6.9576007e-05
5.2158728e-06
6.7656511e-05
6.5604303e-06
6.5314911e-05
8.7114686e-06
6.0449914e-05
1.7457572e-05
1.3715247e-05
5.5014189e-05
0.0001367443
5.3104587e-06
0.00013535258
5.2448822e-06
0.00013396151
5.2514971e-06
0.00013256858
5.2465954e-06
0.00013117892
5.2222363e-06
0.00012979321
5.2008143e-06
0.00012841117
5.1815925e-06
0.00012703301
5.161713e-06
0.00012565905
5.1410586e-06
0.00012428969
5.1194072e-06
0.00012292537
5.0964651e-06
0.00012156649
5.0723115e-06
0.00012021337
5.0471745e-06
0.00011886625
5.0212569e-06
0.00011752531
4.9947517e-06
0.00011619068
4.9678712e-06
0.00011486244
4.9408733e-06
0.00011354056
4.9140508e-06
0.00011222492
4.88774e-06
0.00011091527
4.8623556e-06
0.00010961123
4.8384229e-06
0.00010831217
4.8166723e-06
0.00010701723
4.798163e-06
0.00010572511
4.7844399e-06
0.00010443389
4.7778207e-06
0.00010314076
4.7816951e-06
0.00010184153
4.8013221e-06
0.00010052998
4.844352e-06
9.9196602e-05
4.9234629e-06
9.7827277e-05
5.0566871e-06
9.6399213e-05
5.2772868e-06
9.4879504e-05
5.6303872e-06
9.3204033e-05
6.2233692e-06
9.130427e-05
7.115636e-06
8.8960507e-05
8.9041933e-06
8.6217693e-05
1.1454283e-05
8.0771943e-05
2.2903322e-05
2.073267e-05
7.375452e-05
0.00017209068
6.9589643e-06
0.00017043664
6.8989244e-06
0.00016878335
6.9047876e-06
0.00016712687
6.9030736e-06
0.00016547249
6.8766184e-06
0.00016382142
6.8518801e-06
0.00016217346
6.8295533e-06
0.00016052896
6.8062116e-06
0.0001588884
6.7816179e-06
0.00015725233
6.755483e-06
0.00015562136
6.7274305e-06
0.00015399607
6.6975989e-06
0.0001523769
6.6663502e-06
0.00015076416
6.6339969e-06
0.0001491581
6.6008063e-06
0.00014755892
6.5670582e-06
0.0001459667
6.5330891e-06
0.00014438145
6.4992954e-06
0.00014280305
6.466144e-06
0.0001412312
6.4342102e-06
0.00013966541
6.4042091e-06
0.00013810496
6.3771227e-06
0.00013654877
6.354355e-06
0.00013499526
6.3379465e-06
0.00013344213
6.3309534e-06
0.00013188598
6.3378453e-06
0.00013032176
6.3655404e-06
0.00012874204
6.4240751e-06
0.00012713545
6.5300476e-06
0.00012548531
6.7068303e-06
0.0001237644
6.9982004e-06
0.00012193517
7.4596171e-06
0.00011992011
8.238422e-06
0.00011764447
9.3912754e-06
0.00011483871
1.170996e-05
0.00011165087
1.4642115e-05
0.00010581694
2.8737259e-05
2.9158012e-05
9.7391595e-05
0.00021362617
8.8931406e-06
0.00021168305
8.8420428e-06
0.00020974073
8.8471098e-06
0.00020779404
8.8497638e-06
0.00020584798
8.8226724e-06
0.00020390429
8.7955701e-06
0.00020196283
8.7710188e-06
0.00020002406
8.7449752e-06
0.00019808867
8.7170156e-06
0.00019615738
8.6867647e-06
0.00019423107
8.6537435e-06
0.00019231051
8.6181573e-06
0.00019039631
8.5805579e-06
0.00018848889
8.5414145e-06
0.00018658859
8.5011031e-06
0.00018469566
8.4599939e-06
0.00018281023
8.4185128e-06
0.00018093235
8.3771781e-06
0.00017906187
8.3366213e-06
0.00017719847
8.297607e-06
0.00017534159
8.261097e-06
0.00017349033
8.2283799e-06
0.00017164341
8.2012705e-06
0.00016979896
8.1823965e-06
0.00016795423
8.1756856e-06
0.00016610521
8.1868693e-06
0.00016424594
8.2248076e-06
0.00016236771
8.3023088e-06
0.00016045721
8.440547e-06
0.00015849514
8.6689004e-06
0.00015644967
9.0436698e-06
0.00015427891
9.6303786e-06
0.00015189218
1.0625146e-05
0.00014921243
1.207103e-05
0.00014591072
1.5011671e-05
0.00014221356
1.8339275e-05
0.00013615439
3.4796421e-05
3.8660928e-05
0.00012665148
0.00026232286
1.1107265e-05
0.00026009552
1.1069392e-05
0.00025786846
1.1074165e-05
0.00025563559
1.1082629e-05
0.00025340128
1.1056986e-05
0.00025116771
1.1029138e-05
0.0002489348
1.1003934e-05
0.00024670309
1.0976684e-05
0.00024447345
1.094665e-05
0.00024224689
1.0913326e-05
0.00024002455
1.0876088e-05
0.00023780747
1.0835234e-05
0.00023559648
1.0791553e-05
0.00023339215
1.0745743e-05
0.00023119491
1.0698335e-05
0.0002290051
1.0649811e-05
0.0002268229
1.0600707e-05
0.00022464839
1.0551688e-05
0.00022248144
1.0503571e-05
0.00022032169
1.0457364e-05
0.00021816846
1.0414328e-05
0.00021602072
1.0376117e-05
0.00021387694
1.0345045e-05
0.00021173492
1.0324424e-05
0.00020959141
1.0319192e-05
0.00020744173
1.0336546e-05
0.00020527895
1.0387588e-05
0.00020309297
1.0488291e-05
0.00020086839
1.0665125e-05
0.0001985832
1.0954088e-05
0.00019620068
1.1426195e-05
0.00019367455
1.2156506e-05
0.00019090092
1.3398783e-05
0.00018780139
1.5170554e-05
0.00018399118
1.8821877e-05
0.00017973138
2.2599084e-05
0.00017343766
4.1090137e-05
4.8916524e-05
0.00016318206
0.00031927315
1.3566803e-05
0.00031679443
1.3548112e-05
0.00031431421
1.3554389e-05
0.00031182607
1.3570764e-05
0.00030933349
1.3549566e-05
0.00030683911
1.3523524e-05
0.00030434286
1.3500177e-05
0.00030184532
1.3474222e-05
0.00029934756
1.3444414e-05
0.00029685087
1.3410016e-05
0.00029435673
1.3370228e-05
0.00029186652
1.3325444e-05
0.00028938132
1.3276755e-05
0.0002869019
1.3225161e-05
0.00028442883
1.3171408e-05
0.00028196251
1.3116126e-05
0.00027950322
1.3059998e-05
0.00027705106
1.3003849e-05
0.00027460592
1.2948715e-05
0.00027216738
1.2895898e-05
0.00026973469
1.2847017e-05
0.00026730664
1.280417e-05
0.00026488143
1.277026e-05
0.00026245645
1.2749402e-05
0.00026002795
1.2747691e-05
0.00025759049
1.2774003e-05
0.00025513608
1.2842006e-05
0.00025265312
1.2971251e-05
0.00025012399
1.3194257e-05
0.00024752384
1.3554237e-05
0.00024481081
1.413922e-05
0.00024193413
1.5033185e-05
0.00023877724
1.6555675e-05
0.00023525792
1.8689875e-05
0.00023093573
2.3144066e-05
0.00022608359
2.7451222e-05
0.00021947297
4.7700759e-05
5.973747e-05
0.00020865202
0.00038563874
1.6277101e-05
0.00038290138
1.6285469e-05
0.00038015944
1.629633e-05
0.00037740711
1.6323089e-05
0.00037464687
1.6309809e-05
0.00037188177
1.6288626e-05
0.00036911181
1.6270135e-05
0.00036633752
1.6248511e-05
0.00036356017
1.6221765e-05
0.00036078138
1.6188807e-05
0.00035800301
1.6148594e-05
0.00035522684
1.6101614e-05
0.00035245427
1.6049332e-05
0.0003496863
1.5993126e-05
0.00034692367
1.5934036e-05
0.0003441669
1.5872902e-05
0.00034141632
1.5810577e-05
0.00033867209
1.5748077e-05
0.00033593411
1.5686701e-05
0.00033320192
1.5628082e-05
0.00033047467
1.557427e-05
0.00032775094
1.5527893e-05
0.00032502867
1.5492537e-05
0.00032230483
1.5473238e-05
0.0003195751
1.5477419e-05
0.00031683328
1.551583e-05
0.00031407025
1.5605036e-05
0.00031127294
1.5768551e-05
0.00030842149
1.6045712e-05
0.0003054883
1.6487423e-05
0.00030242659
1.720093e-05
0.00029918146
1.8278314e-05
0.00029562487
2.0112268e-05
0.00029167653
2.2638211e-05
0.00028685624
2.7964363e-05
0.00028136504
3.2942419e-05
0.00027444821
5.4617587e-05
7.0944951e-05
0.00026324073
0.00046281913
1.9202462e-05
0.00045985873
1.9245869e-05
0.0004568898
1.9265256e-05
0.00045390736
1.9305528e-05
0.00045091265
1.9304526e-05
0.00044790902
1.9292257e-05
0.00044489661
1.9282543e-05
0.00044187588
1.9269237e-05
0.00043884827
1.9249373e-05
0.00043581576
1.9221325e-05
0.00043278065
1.91837e-05
0.00042974517
1.913709e-05
0.00042671111
1.9083395e-05
0.00042367976
1.9024474e-05
0.00042065205
1.8961748e-05
0.00041762861
1.8896337e-05
0.00041460988
1.8829309e-05
0.00041159604
1.8761918e-05
0.00040858699
1.8695751e-05
0.00040558224
1.8632829e-05
0.00040258081
1.8575703e-05
0.00039958108
1.8527626e-05
0.00039658065
1.8492965e-05
0.00039357608
1.8477812e-05
0.00039056242
1.8491076e-05
0.00038753264
1.8545606e-05
0.00038447651
1.8661171e-05
0.00038137943
1.8865635e-05
0.00037821924
1.9205893e-05
0.00037496568
1.9740987e-05
0.00037156719
2.059942e-05
0.00036796495
2.188055e-05
0.00036402066
2.4056564e-05
0.00035965446
2.7004414e-05
0.00035439467
3.3224148e-05
0.00034827037
3.9066721e-05
0.00034110193
6.1786027e-05
8.2382363e-05
0.00032966452
0.00055235084
2.2298376e-05
0.00054921486
2.2381853e-05
0.00054606715
2.2412961e-05
0.00054290269
2.2469989e-05
0.00053972084
2.2486371e-05
0.00053652499
2.2488114e-05
0.00053331543
2.2492105e-05
0.00053009251
2.2492156e-05
0.00052685781
2.2484071e-05
0.0005236137
2.2465429e-05
0.00052036303
2.2434373e-05
0.00051710854
2.2391579e-05
0.00051385245
2.2339483e-05
0.0005105964
2.228053e-05
0.00050734152
2.2216631e-05
0.00050408859
2.214926e-05
0.00050083812
2.2079785e-05
0.00049759031
2.2009722e-05
0.00049434507
2.1940996e-05
0.00049110181
2.1876083e-05
0.00048785942
2.1818093e-05
0.00048461605
2.1770999e-05
0.00048136895
2.1740069e-05
0.00047811419
2.1732569e-05
0.0004748462
2.1759067e-05
0.0004715571
2.1834705e-05
0.00046823548
2.1982788e-05
0.00046486525
2.2235868e-05
0.00046142205
2.2649097e-05
0.00045787297
2.3290063e-05
0.00045416218
2.4310214e-05
0.00045022704
2.5815692e-05
0.00044592199
2.8361606e-05
0.00044116047
3.176594e-05
0.00043550876
3.8875853e-05
0.00042875862
4.5816867e-05
0.00042138724
6.9157404e-05
9.3808023e-05
0.00040996158
0.00065597766
2.5452825e-05
0.00065277442
2.5585088e-05
0.00064955337
2.5634016e-05
0.00064631062
2.5712741e-05
0.00064304398
2.5753004e-05
0.00063975673
2.5775372e-05
0.00063644939
2.5799436e-05
0.00063312222
2.5819334e-05
0.00062977686
2.5829429e-05
0.00062641616
2.5826126e-05
0.0006230436
2.5806939e-05
0.00061966251
2.5772668e-05
0.00061627561
2.5726383e-05
0.00061288488
2.567126e-05
0.00060949171
2.5609799e-05
0.00060609701
2.554396e-05
0.00060270133
2.5475459e-05
0.0005993049
2.5406154e-05
0.00059590754
2.5338359e-05
0.00059250857
2.5275047e-05
0.00058910668
2.521998e-05
0.00058569975
2.5177934e-05
0.00058228464
2.5155183e-05
0.0005788569
2.5160301e-05
0.00057541031
2.520566e-05
0.00057193611
2.5308906e-05
0.00056842175
2.5497151e-05
0.00056484963
2.5807985e-05
0.0005611933
2.6305428e-05
0.00055741734
2.706602e-05
0.00055346229
2.826526e-05
0.00054926124
3.0016745e-05
0.0005446674
3.2955448e-05
0.00053957361
3.6859732e-05
0.0005336393
4.4810161e-05
0.00052636734
5.3088822e-05
0.00051879392
7.6730832e-05
0.00010496017
0.00050764177
0.00077555036
2.8607344e-05
0.00077234285
2.8792598e-05
0.00076911275
2.8864113e-05
0.00076585613
2.8969363e-05
0.00076256864
2.9040488e-05
0.00075925294
2.9091078e-05
0.00075590982
2.9142551e-05
0.0007525394
2.9189755e-05
0.00074914334
2.9225488e-05
0.00074572501
2.9244465e-05
0.00074228863
2.9243311e-05
0.0007388383
2.9223004e-05
0.00073537724
2.9187436e-05
0.00073190782
2.9140681e-05
0.00072843164
2.9085982e-05
0.00072494973
2.9025876e-05
0.00072146263
2.896255e-05
0.00071797053
2.8898258e-05
0.00071447312
2.8835769e-05
0.00071096955
2.877862e-05
0.00070745824
2.8731288e-05
0.00070393675
2.8699425e-05
0.00070040153
2.8690404e-05
0.00069684762
2.8714208e-05
0.00069326813
2.8785147e-05
0.00068965352
2.892352e-05
0.00068599017
2.9160497e-05
0.00068225921
2.9538953e-05
0.00067843241
3.0132228e-05
0.00067447215
3.1026281e-05
0.00067031676
3.2420643e-05
0.00066589445
3.4439061e-05
0.00066106559
3.7784306e-05
0.00065568926
4.2236059e-05
0.00064955232
5.0947099e-05
0.00064194133
6.0699815e-05
0.00063412156
8.4550605e-05
0.00011563994
0.00062344179
0.00091316787
3.1666085e-05
0.00091005165
3.1908818e-05
0.00090690644
3.2009326e-05
0.00090372856
3.2147245e-05
0.00090051176
3.2257279e-05
0.00089725782
3.2345022e-05
0.00089396784
3.2432535e-05
0.00089064187
3.251572e-05
0.00088728163
3.2585726e-05
0.00088389113
3.2634969e-05
0.00088047551
3.2658933e-05
0.00087703959
3.2658925e-05
0.00087358713
3.2639889e-05
0.00087012086
3.2606958e-05
0.00086664257
3.2564274e-05
0.00086315334
3.2515103e-05
0.00085965368
3.2462212e-05
0.00085614358
3.2408353e-05
0.00085262254
3.2356808e-05
0.00084908941
3.231175e-05
0.00084554228
3.2278417e-05
0.00084197832
3.2263394e-05
0.00083839351
3.2275205e-05
0.00083478244
3.2325287e-05
0.00083113762
3.2429965e-05
0.00082744884
3.2612294e-05
0.0008237017
3.2907643e-05
0.00081987625
3.33644e-05
0.0008159431
3.406538e-05
0.00081186284
3.5106541e-05
0.00080757342
3.6710064e-05
0.00080299781
3.9014667e-05
0.00079801107
4.2771048e-05
0.00079243609
4.781104e-05
0.00078617914
5.7204048e-05
0.00077842106
6.8457891e-05
0.00077035864
9.2613032e-05
0.0001257329
0.00076026567
0.0010712391
3.4441267e-05
0.0010684101
3.4737804e-05
0.0010655491
3.4870294e-05
0.0010626501
3.5046262e-05
0.0010597035
3.5203814e-05
0.0010567094
3.5339127e-05
0.0010536688
3.5473146e-05
0.0010505815
3.5603006e-05
0.0010474493
3.5717984e-05
0.001044277
3.5807301e-05
0.0010410709
3.5864946e-05
0.001037837
3.5892876e-05
0.0010345794
3.5897518e-05
0.001031301
3.5885366e-05
0.0010280036
3.5861637e-05
0.0010246882
3.5830482e-05
0.0010213551
3.579535e-05
0.0010180038
3.5759597e-05
0.0010146336
3.5727069e-05
0.0010112427
3.5702593e-05
0.001007829
3.5692173e-05
0.001004389
3.5703327e-05
0.0010009185
3.5745708e-05