0.4709558481 	0.02733237098 	1.119117438e-06 	-5.671352931e-11
0.4709558481 	0.02733237098 	1.119117438e-06 	-5.671352931e-11
0.4720092239 	0.1048069462 	1.027914216e-05 	-4.12241542e-10
0.4730625996 	0.2087603224 	2.562015926e-05 	-9.508632349e-10
0.4741159754 	0.3104131477 	1.160359538e-05 	-1.144387805e-09
0.4751693511 	0.405438697 	-1.70809191e-05 	-1.952549115e-09
0.4762227269 	0.4997387895 	-2.449014121e-06 	-4.018630353e-09
0.4778443634 	0.5988997517 	3.327241534e-05 	-6.011310315e-09
0.4796765386 	0.6928308795 	5.549485204e-05 	-8.251747786e-09
0.4817465869 	0.775718664 	7.364585686e-05 	-1.13832288e-08
0.4840853915 	0.8495358539 	9.526473354e-05 	-1.500258206e-08
0.4867278453 	0.9162353291 	0.000122929868 	-1.925773892e-08
0.4897133715 	0.9774756861 	0.0001580738145 	-2.42736999e-08
0.4930865115 	1.034622037 	0.0002018192663 	-3.020283691e-08
0.4968975894 	1.088742599 	0.0002558281607 	-3.725493541e-08
0.5012034633 	1.140661451 	0.0003219790063 	-4.566989575e-08
0.506068373 	1.195493371 	0.0004113228803 	-5.671361118e-08
0.5134203412 	1.255096422 	0.0005375002009 	-7.148546393e-08
0.5212948542 	1.312030177 	0.0006920175271 	-8.736651527e-08
0.529729052 	1.361459875 	0.0008536768399 	-9.836448872e-08
0.5387627144 	1.401977112 	0.001004635616 	-1.054285241e-07
0.5484384488 	1.432584034 	0.001132468426 	-1.089160392e-07
0.5588018907 	1.453934207 	0.00121758049 	-1.025891215e-07
0.5699019192 	1.467216028 	0.001249213957 	-9.273168661e-08
0.5817908876 	1.473961262 	0.001236033436 	-8.505953209e-08
0.5945248701 	1.476339033 	0.001187583304 	-7.869904077e-08
0.6081639266 	1.4761772 	0.001115863143 	-7.527947e-08
0.6227723857 	1.474460748 	0.001028920732 	-7.427912271e-08
0.638419148 	1.471623458 	0.0009292759487 	-7.571103594e-08
0.6551780116 	1.467834236 	0.0008181567463 	-7.959354708e-08
0.6731280194 	1.463130623 	0.0006959941574 	-8.660029167e-08
0.6923538328 	1.457476886 	0.0005621513235 	-9.476852153e-08
0.7129461301 	1.450776437 	0.0004160422165 	-9.407906516e-08
0.7350020349 	1.443022465 	0.0002594442919 	-7.459045652e-08
0.7570579485 	1.434562726 	0.0001023822678 	-4.104330282e-08
0.7776502527 	1.425833273 	-4.628890833e-05 	-7.002916168e-09
0.7968760713 	1.416935484 	-0.0001852281289 	1.977555514e-08
0.814826083 	1.407700644 	-0.0003119019909 	3.677985736e-08
0.831584949 	1.397833252 	-0.0004221996339 	4.599997687e-08
0.8472317127 	1.387009332 	-0.0005123548736 	5.086279862e-08
0.8618401721 	1.374841941 	-0.0005791948305 	5.395592849e-08
0.8754792281 	1.360655782 	-0.0006201296439 	5.811263294e-08
0.8882132094 	1.343395487 	-0.0006338517718 	6.389775699e-08
0.9001021759 	1.32195531 	-0.0006168991037 	6.97793409e-08
0.9112022019 	1.295576393 	-0.0005685883485 	7.315466129e-08
0.9215656407 	1.263988365 	-0.0004962092073 	7.189191114e-08
0.9312413717 	1.227324097 	-0.0004107382487 	6.577601291e-08
0.9402750304 	1.185835707 	-0.0003234200413 	5.62687176e-08
0.9487092242 	1.139597103 	-0.0002427030692 	4.529695742e-08
0.9565837329 	1.088262345 	-0.0001727036413 	3.433288473e-08
0.9639356968 	1.03514457 	-0.0001191272218 	2.510909091e-08
0.9688006083 	0.9863840079 	-8.43593429e-05 	1.866407371e-08
0.9731064834 	0.9401387897 	-6.11699069e-05 	1.409297337e-08
0.976917562 	0.8918256163 	-4.420981283e-05 	1.05246152e-08
0.9802907021 	0.8406660959 	-3.218654873e-05 	7.755160608e-09
0.9832762282 	0.7856839395 	-2.399378986e-05 	5.619798275e-09
0.9859186816 	0.7256781603 	-1.885297657e-05 	3.994984648e-09
0.9882574856 	0.6592613144 	-1.592558809e-05 	2.761979329e-09
0.990327533 	0.5849345137 	-1.432153342e-05 	1.807299881e-09
0.9921597073 	0.5014629299 	1.731401075e-06 	1.180167292e-09
0.9937813429 	0.4145064526 	2.376057163e-05 	8.057480782e-10
0.9948347186 	0.3332726053 	1.485486174e-05 	4.845598662e-10
0.9958880943 	0.2535349136 	-1.097181321e-05 	2.653016772e-10
0.9969414701 	0.1699546271 	-1.491439827e-05 	1.518848066e-10
0.9979948458 	0.0851815474 	-4.493568932e-06 	6.445171635e-11
0.9990482216 	0.02437378516 	-2.962851144e-07 	1.479097579e-11
