4.166797561e-36 	0.015205352 	-1.069081176e-15 	-1.59011773e-18 	-4.569509184e-15 	-1.995090796e-16 	-8.710754534e-18
0.001882306041 	0.01516817572 	0.0001816966304 	4.54166443e-07 	0.02367863818 	2.176897501e-05 	4.51380655e-05
0.003764590556 	0.01516284195 	-0.0001697839674 	1.845491614e-06 	0.02418668735 	2.309545553e-05 	4.610654842e-05
0.005646853463 	0.01520510669 	-0.0004234805711 	5.953763572e-06 	0.02423275397 	2.365477149e-05 	4.619436422e-05
0.007529094743 	0.01522964227 	-0.0006537165768 	1.026719702e-05 	0.0242821336 	2.335023588e-05 	4.628849551e-05
0.009411314447 	0.01526330721 	-0.0008462001479 	1.28007046e-05 	0.02429344905 	2.253741322e-05 	4.63100659e-05
0.01230888652 	0.01530988107 	-0.001026596175 	1.339226357e-05 	0.02429766599 	2.153678275e-05 	4.631810456e-05
0.01558259296 	0.01537092476 	-0.001215023491 	1.292850502e-05 	0.02431225688 	2.067999194e-05 	4.634591885e-05
0.01928125303 	0.01544725645 	-0.001415593829 	1.183076021e-05 	0.02433503117 	1.979236893e-05 	4.638933297e-05
0.02348538385 	0.01554130845 	-0.001630022302 	1.017869729e-05 	0.02437499868 	1.876489476e-05 	4.646552217e-05
0.02824139099 	0.01565600399 	-0.001860911139 	8.057634859e-06 	0.02444107176 	1.754800459e-05 	4.659147582e-05
0.03361474634 	0.01579667293 	-0.002120001434 	5.743251073e-06 	0.02454246636 	1.61419367e-05 	4.678476212e-05
0.03968556905 	0.01597138238 	-0.00241911089 	3.488233818e-06 	0.0246894955 	1.454986071e-05 	4.706504051e-05
0.04658836433 	0.01619036801 	-0.002768346516 	1.431530834e-06 	0.02489339085 	1.279688154e-05 	4.745372172e-05
0.0543897936 	0.01646458738 	-0.003173638212 	-3.253046383e-07 	0.02516746306 	1.096997203e-05 	4.797617952e-05
0.06322334345 	0.01684147791 	-0.003692557891 	-1.821109034e-06 	0.0255619482 	9.089855442e-06 	4.872817785e-05
0.07662502217 	0.01738186859 	-0.0043779968 	-2.915389412e-06 	0.02612497732 	6.915918631e-06 	4.980146784e-05
0.0910400846 	0.01805478859 	-0.005204422439 	-3.375100458e-06 	0.02680786932 	5.228630275e-06 	5.110324979e-05
0.1065326275 	0.01891094701 	-0.00604880887 	-3.343529795e-06 	0.02748477847 	3.983818702e-06 	5.239362677e-05
0.1231893535 	0.01995114875 	-0.006862685681 	-2.86982837e-06 	0.02810815214 	2.825914312e-06 	5.358195023e-05
0.1411004821 	0.0210110653 	-0.007712621913 	-1.736253424e-06 	0.02868964984 	1.453778967e-06 	5.469044647e-05
0.1601313758 	0.02196799661 	-0.008628494463 	3.660480089e-08 	0.02914831675 	-1.558271851e-06 	5.556479309e-05
0.1603602305 	0.02197967198 	-0.008639576379 	-1.790396574e-08 	0.02915338015 	3.724954904e-08 	5.557444532e-05
0.181067345 	0.02285573914 	-0.0097029957 	-1.861464918e-06 	0.02936166205 	2.146112829e-06 	5.597148853e-05
0.2033256789 	0.02360565269 	-0.01075174068 	-4.587109888e-06 	0.02919787199 	2.332551637e-06 	5.565925914e-05
0.2272448124 	0.02399167663 	-0.01153425722 	-6.394511232e-06 	0.02847152169 	8.803574031e-07 	5.427463358e-05
0.2529407134 	0.02360146715 	-0.01175248635 	-4.181187607e-06 	0.02698261115 	-2.726176695e-06 	5.143635628e-05
0.280537575 	0.02200794506 	-0.01118671162 	5.676042381e-07 	0.02442913987 	-8.959845551e-06 	4.656873032e-05
0.3101788018 	0.01879493251 	-0.009679876025 	5.007658707e-06 	0.02034137681 	-1.696775224e-05 	3.877631779e-05
0.341991698 	0.01363635909 	-0.006968158793 	8.406539531e-06 	0.01431743936 	-2.121431264e-05 	2.729301875e-05
0.3761334987 	0.007895759858 	-0.003806677579 	7.934685589e-06 	0.00791959543 	-1.767785223e-05 	1.509695003e-05
0.4127592716 	0.003968732147 	-0.001628764308 	4.839208937e-06 	0.003692273035 	-1.05697781e-05 	7.038498618e-06
0.4520368631 	0.002146038147 	-0.0006283992741 	1.823721834e-06 	0.001783516889 	-4.358182972e-06 	3.399878893e-06
0.4941463394 	0.001469742655 	-0.0002330190611 	3.654888921e-07 	0.001073095738 	-1.174689048e-06 	2.045618729e-06
0.5362843642 	0.001344165633 	-5.301989488e-05 	-1.329309363e-07 	0.0008946973361 	-3.357013382e-08 	1.705541791e-06
0.5756432866 	0.001412303486 	6.717538278e-05 	-3.229846102e-07 	0.0009051664119 	3.030942842e-07 	1.725498759e-06
0.6123999578 	0.0015332544 	0.0001571917717 	-4.009600664e-07 	0.000977514952 	4.03456275e-07 	1.863415185e-06
0.6467227457 	0.00165972754 	0.0002382592115 	-3.804579433e-07 	0.001070570151 	4.634747059e-07 	2.040804258e-06
0.6787708094 	0.001789464477 	0.000329855434 	-3.06001326e-07 	0.001183137925 	5.399269676e-07 	2.255389721e-06
0.708693935 	0.001929238348 	0.0004335444649 	-1.631765595e-07 	0.001324967942 	5.916866146e-07 	2.525757154e-06
0.7366321921 	0.002086604227 	0.0005398556432 	3.29693218e-08 	0.001502872083 	6.548021848e-07 	2.864891893e-06
0.7627169818 	0.002275511483 	0.0006486475442 	2.648636019e-07 	0.001722697722 	7.992484488e-07 	3.283940658e-06
0.7870710604 	0.002516195425 	0.000767750175 	4.525690482e-07 	0.001998946122 	1.031901966e-06 	3.810546886e-06
0.8098091487 	0.002836910175 	0.0009077707659 	5.493911107e-07 	0.002352063502 	1.331616281e-06 	4.483686756e-06
0.8310384246 	0.003262796404 	0.001078502054 	6.473398733e-07 	0.002796590838 	1.641806175e-06 	5.33107941e-06
0.8508589793 	0.003793873947 	0.001280947255 	7.490506709e-07 	0.00332967716 	1.938466229e-06 	6.347290104e-06
0.8693642773 	0.004401337134 	0.001506772583 	8.471437233e-07 	0.003927352867 	2.218482959e-06 	7.486626117e-06
0.8866415892 	0.005046758212 	0.001743690803 	9.411139738e-07 	0.00455835856 	2.49315362e-06 	8.689498346e-06
0.902772399 	0.005698697417 	0.001981598178 	1.012285094e-06 	0.005196762071 	2.714127677e-06 	9.906472873e-06
0.9178327855 	0.0063135068 	0.002206265169 	9.967235981e-07 	0.00580437253 	2.708204921e-06 	1.106474728e-05
0.9318937798 	0.006775356065 	0.002377077837 	8.224935785e-07 	0.006271603646 	2.27884969e-06 	1.195541965e-05
0.9411981638 	0.007004660715 	0.002465371065 	5.196766065e-07 	0.006519606656 	1.494878393e-06 	1.242818232e-05
0.949433363 	0.007029125386 	0.002481022155 	1.606164982e-07 	0.006574085076 	5.461125179e-07 	1.253203333e-05
0.9567222395 	0.006871805289 	0.002432199249 	-1.986041111e-07 	0.006456808206 	-4.124632565e-07 	1.230847102e-05
0.963173537 	0.006550128369 	0.002324512382 	-4.92938244e-07 	0.006181980353 	-1.205332794e-06 	1.178457274e-05
0.9688835034 	0.006092203317 	0.002167475955 	-6.890808083e-07 	0.005774337539 	-1.741478764e-06 	1.100749224e-05
0.9739373264 	0.005524619128 	0.001970279676 	-7.846394661e-07 	0.005257899352 	-2.011429872e-06 	1.002301752e-05
0.9784104047 	0.004862127303 	0.001738030611 	-7.954715254e-07 	0.004645879461 	-2.054926027e-06 	8.856337508e-06
0.982369473 	0.004100605491 	0.001468928668 	-7.395643129e-07 	0.003932805502 	-1.919879011e-06 	7.497020353e-06
0.985873597 	0.003213257047 	0.001153101995 	-6.275631922e-07 	0.003091251422 	-1.633534716e-06 	5.892784379e-06
0.9889750553 	0.002214239382 	0.0007785811387 	-5.25407791e-07 	0.002139148471 	-1.261681247e-06 	4.077811531e-06
0.9909896885 	0.001236944728 	0.0003884330839 	-3.614244993e-07 	0.001205884696 	-8.335798473e-07 	2.29875139e-06
0.9930043218 	0.0004757176667 	0.0001112752352 	-1.296371345e-07 	0.0004695138361 	-3.702834664e-07 	8.950238662e-07
0.9950189551 	9.232478552e-05 	1.072130426e-05 	-1.468815812e-08 	9.193648785e-05 	-7.612623646e-08 	1.752564983e-07
0.9970335883 	5.936847838e-06 	1.605938468e-07 	-2.229489288e-10 	5.924455454e-06 	-4.810314396e-09 	1.129365871e-08
0.9990482216 	4.200286288e-08 	7.616155348e-11 	-9.795749856e-14 	4.192278896e-08 	-3.364667993e-11 	7.99164876e-11
0.9990482216 	4.200286288e-08 	7.616155348e-11 	-9.795749856e-14 	4.192278896e-08 	-3.364667993e-11 	7.99164876e-11
