0.2739420079 	0.06692549387 	0.01713845912 	-0.0001112112442
0.275272557 	0.2584863933 	0.06516177512 	-0.0004133607345
0.2766031854 	0.5003552344 	0.1253413855 	-0.0007609354498
0.2779335901 	0.7144335768 	0.1786521863 	-0.001015850526
0.2792634708 	0.888607815 	0.2215608181 	-0.001155547527
0.2805925299 	1.032943782 	0.256473396 	-0.001194959026
0.2826362867 	1.146689946 	0.2827359288 	-0.001124294978
0.2849408702 	1.213134642 	0.2961838171 	-0.001000876179
0.2875370716 	1.242892778 	0.2999998627 	-0.0008909432246
0.2904580691 	1.255407756 	0.29918472 	-0.0007992306898
0.2938196317 	1.261242287 	0.2962780968 	-0.0007113179852
0.2976320779 	1.264327114 	0.2922185009 	-0.0006199716368
0.3019179803 	1.26603044 	0.2873401078 	-0.0005240268424
0.3067337774 	1.266799215 	0.2816703477 	-0.000425225135
0.3122569715 	1.266771381 	0.2751762303 	-0.0003238291703
0.3185112727 	1.265941494 	0.2672814816 	-0.0002209109847
0.3279565291 	1.264471943 	0.2573850365 	-9.081873698e-05
0.3358853299 	1.262875625 	0.248983624 	-0.000153278779
0.3381259885 	1.262337531 	0.2466146223 	-2.1650016e-05
0.3489508731 	1.259617032 	0.2357492181 	-0.0001117493665
0.3605981766 	1.256609222 	0.2247134746 	-0.0001872085322
0.3731708885 	1.253309605 	0.2135404291 	-0.0002474386618
0.3867969958 	1.249697421 	0.2022564793 	-0.0002921541226
0.4014972221 	1.245744673 	0.1909198862 	-0.0003209255407
0.4173643717 	1.241413634 	0.179580301 	-0.0003343130359
0.4344885207 	1.236656221 	0.1682676414 	-0.0003333219286
0.4530046648 	1.231422551 	0.1570130545 	-0.0002523232563
0.4729699124 	1.225671768 	0.1458629068 	-0.0001803561671
0.4944634565 	1.219364101 	0.1348552804 	-0.0001244941829
0.5176484568 	1.212454499 	0.1240093616 	-8.273397729e-05
0.542569778 	1.204888591 	0.1133554421 	-5.295527808e-05
0.5693462178 	1.196574297 	0.1029147024 	-3.274542893e-05
0.5980874262 	1.187373198 	0.09268418411 	-1.972147023e-05
0.6289040372 	1.177293898 	0.08282608808 	-1.180833379e-05
0.6597287896 	1.166729516 	0.07379016582 	-7.367378347e-06
0.6885070106 	1.156129821 	0.06586038094 	-4.905121444e-06
0.7153735372 	1.145595998 	0.05893522727 	-3.43482337e-06
0.7404577418 	1.135048444 	0.05282813858 	-2.48151251e-06
0.763881608 	1.124396991 	0.04739801412 	-1.828473719e-06
0.7857594625 	1.113548605 	0.04253305804 	-1.365653294e-06
0.8061955834 	1.102424267 	0.03814777496 	-1.067596047e-06
0.8252873287 	1.090956503 	0.03417388318 	-9.277095619e-07
0.8431242394 	1.079074174 	0.0305549805 	-9.122956561e-07
0.8597896056 	1.066697163 	0.02724333409 	-9.781151351e-07
0.8753606451 	1.0537302 	0.0242006882 	-1.096444132e-06
0.8899091601 	1.040011695 	0.0213969168 	-1.270117148e-06
0.9035021065 	1.025202012 	0.01880426336 	-1.494031074e-06
0.9162019423 	1.008670283 	0.01639572812 	-1.761218364e-06
0.9280669907 	0.989408829 	0.0141441522 	-2.063709189e-06
0.939151752 	0.9660085852 	0.01202197436 	-2.390119342e-06
0.9495071738 	0.9390611546 	0.01014116199 	-2.702186933e-06
0.9563628554 	0.9120396305 	0.008640853392 	-2.934385657e-06
0.962432965 	0.8848378902 	0.007390185985 	-3.104499812e-06
0.9678072944 	0.8553427663 	0.00624589264 	-3.217328974e-06
0.9725654226 	0.8233133231 	0.005198345657 	-3.256134518e-06
0.9767778614 	0.7880108843 	0.004241525256 	-3.207937337e-06
0.9805070848 	0.7480210104 	0.003372828805 	-3.061521252e-06
0.9838084378 	0.7011830007 	0.002593976687 	-2.802690768e-06
0.9867309446 	0.644569804 	0.001911770982 	-2.42635731e-06
0.9893180269 	0.5747991773 	0.001332530091 	-1.956341555e-06
0.9916081409 	0.4950776406 	0.000897961775 	-1.479284876e-06
0.9930959046 	0.4143225841 	0.0005962479184 	-1.062693601e-06
0.9945837944 	0.327938048 	0.0003447385944 	-6.720704613e-07
0.9960718106 	0.2288833224 	0.0001416503457 	-3.274178861e-07
0.9975599529 	0.1193613561 	-2.868339129e-05 	-1.134019891e-07
0.9990482216 	0.03472988424 	-6.529764527e-05 	-2.528175485e-08
0.9990482216 	0.03472988424 	-6.529764527e-05 	-2.528175485e-08
