0.3359950097 	1.560837638e-07 	-1.237561223e-09 	-1.318812226e-12 	1.548994641e-07 	2.767927876e-10 	2.952814307e-10
0.3359950097 	1.560837638e-07 	-1.237561223e-09 	-1.318812226e-12 	1.548994641e-07 	2.767927876e-10 	2.952814307e-10
0.3371488821 	1.444628697e-05 	-9.98188502e-07 	-1.152285265e-10 	1.369734806e-05 	1.607560853e-08 	2.611095238e-08
0.3383029084 	0.0001828749576 	-3.499086869e-05 	-8.620755134e-10 	0.0001560857271 	1.663890165e-07 	2.975427776e-07
0.339456909 	0.0008326758739 	-0.0002344578191 	-1.953557968e-07 	0.0006452083441 	8.249627757e-07 	1.22994643e-06
0.3406107058 	0.001878168174 	-0.0005822620575 	-6.579355571e-07 	0.001411026627 	2.284978967e-06 	2.689808925e-06
0.3417641219 	0.002970322268 	-0.0009784374378 	-1.42737946e-06 	0.00219199748 	4.689893951e-06 	4.178556432e-06
0.3435386191 	0.003626279597 	-0.001267183266 	-3.349380115e-06 	0.0026311982 	7.567399106e-06 	5.015795073e-06
0.345541121 	0.003438925339 	-0.001195383989 	-4.413093904e-06 	0.002513142034 	8.332080466e-06 	4.790747208e-06
0.3477994817 	0.002831321836 	-0.0009228461656 	-2.858978256e-06 	0.0021385288 	5.524788944e-06 	4.076630266e-06
0.3503442295 	0.002337509443 	-0.0007219213401 	-1.515819898e-06 	0.001862078127 	1.272355524e-06 	3.549638447e-06
0.3532733514 	0.00202953235 	-0.0005538096003 	-1.209561078e-06 	0.001804291898 	-2.200778001e-06 	3.439481835e-06
0.356598976 	0.001844424751 	-0.0003872694845 	-9.140125936e-07 	0.001916850796 	-4.156578788e-06 	3.654050379e-06
0.3603444458 	0.001736255072 	-0.0002556667242 	-6.669155095e-07 	0.002110447952 	-4.861725268e-06 	4.023100365e-06
0.3645614832 	0.001654050134 	-0.0001459735801 	-5.022401156e-07 	0.002323923615 	-4.839086709e-06 	4.430044311e-06
0.3694015871 	0.001581714931 	-4.540098066e-05 	-4.723388231e-07 	0.002515913456 	-3.909683845e-06 	4.79603031e-06
0.3748927519 	0.001526654734 	5.940090096e-05 	-3.411070141e-07 	0.002639951275 	-2.297302279e-06 	5.032480867e-06
0.3832077724 	0.001495728438 	0.0001568275764 	-5.591956357e-08 	0.002669893595 	-1.206362405e-06 	5.089559251e-06
0.3922194226 	0.001476513609 	0.0002226321892 	1.488486198e-07 	0.002645896974 	-7.575976891e-07 	5.043815022e-06
0.4019645111 	0.00145952128 	0.0002563349862 	1.938450449e-07 	0.002615789146 	-4.766786473e-07 	4.986421134e-06
0.41246846 	0.001445409037 	0.0002732778047 	1.31530719e-07 	0.002592650461 	-2.583743741e-07 	4.942312368e-06
0.4238250473 	0.001435564203 	0.0002855749465 	3.592693119e-08 	0.002578845902 	-6.423527183e-08 	4.915997043e-06
0.4281449265 	0.001433750908 	0.0002899703431 	2.852789451e-08 	0.002576899157 	-1.167740963e-06 	4.912286006e-06
0.4360921644 	0.001430306671 	0.0002979116302 	5.920296876e-08 	0.002573049988 	-1.067002237e-07 	4.90494842e-06
0.4493258187 	0.001429340657 	0.0003114282659 	1.516948652e-07 	0.002574053126 	-2.618386016e-07 	4.906860679e-06
0.4636467224 	0.001432275804 	0.0003263501856 	2.436363512e-07 	0.002580887773 	-4.075206646e-07 	4.919889416e-06
0.479142112 	0.001438599314 	0.000342574342 	3.324702276e-07 	0.002592483679 	-5.45376195e-07 	4.941994435e-06
0.495937783 	0.001447823002 	0.0003599359396 	4.150351378e-07 	0.002607797027 	-6.76610698e-07 	4.971185933e-06
0.5140945125 	0.001459378416 	0.0003782709583 	4.873777277e-07 	0.002625470022 	-8.008921823e-07 	5.004875573e-06
0.5336915725 	0.001472723974 	0.0003974507133 	5.454483984e-07 	0.00264407915 	-9.173726181e-07 	5.040349743e-06
0.5548794993 	0.00148737988 	0.0004175539304 	5.848477122e-07 	0.002661839752 	-1.02440103e-06 	5.074206387e-06
0.577708027 	0.001502940006 	0.0004388871886 	5.997047061e-07 	0.0026763282 	-1.118165882e-06 	5.101825396e-06
0.6022888803 	0.00151889843 	0.0004615181654 	5.848114998e-07 	0.002684799585 	-1.194003301e-06 	5.11797421e-06
0.6287248958 	0.001534289913 	0.0004851160303 	5.029222283e-07 	0.0026836168 	-1.162360198e-06 	5.115719493e-06
0.6571183725 	0.001547833946 	0.0005089193976 	4.035881407e-07 	0.002668683098 	-1.092931623e-06 	5.087251706e-06
0.6855585609 	0.001558212083 	0.000531213708 	3.142190328e-07 	0.002638460691 	-1.02919033e-06 	5.029639399e-06
0.7121365164 	0.001565342689 	0.0005506861847 	2.381686193e-07 	0.002595729272 	-9.684528009e-07 	4.948181438e-06
0.7369645634 	0.001570473523 	0.000567531027 	1.752232001e-07 	0.002544069838 	-9.038593483e-07 	4.8497042e-06
0.7601541182 	0.001575206114 	0.0005824113189 	1.238680713e-07 	0.002486554365 	-8.316448062e-07 	4.740063722e-06
0.781812674 	0.001580976401 	0.0005957630627 	8.309672317e-08 	0.002426528506 	-7.507648757e-07 	4.625637751e-06
0.8020426129 	0.00158893898 	0.0006078758885 	5.263701952e-08 	0.002367380431 	-6.630555958e-07 	4.512885081e-06
0.8209384831 	0.001600095863 	0.0006190916548 	3.203442309e-08 	0.002312166859 	-5.718479155e-07 	4.407632666e-06
0.8385893071 	0.001615453569 	0.0006299034287 	1.945365499e-08 	0.002263370977 	-4.581194177e-07 	4.314614153e-06
0.8550774756 	0.001636179722 	0.0006409588751 	1.556269905e-08 	0.002223014973 	-3.516195649e-07 	4.237684393e-06
0.8704799455 	0.001663990589 	0.0006531445773 	1.976589597e-08 	0.002192825792 	-2.534030284e-07 	4.180135425e-06
0.8848682824 	0.001701772274 	0.0006677318389 	3.1312056e-08 	0.002174415157 	-1.61865349e-07 	4.145039637e-06
0.898309154 	0.001753863712 	0.0006863463169 	4.812437155e-08 	0.002169754004 	-7.437015176e-08 	4.136154184e-06
0.9108647908 	0.00182545057 	0.0007106863519 	6.654209287e-08 	0.002182004532 	1.020201224e-08 	4.159507095e-06
0.922593274 	0.001921031567 	0.0007421598418 	8.145310622e-08 	0.002215972563 	8.594298831e-08 	4.224259603e-06
0.9335488469 	0.00204213955 	0.0007814378193 	8.572208748e-08 	0.002276438799 	1.336918142e-07 	4.339525054e-06
0.9437821903 	0.002183981915 	0.0008273537397 	7.009274495e-08 	0.002362836403 	1.220988202e-07 	4.5042229e-06
0.9533406678 	0.002320708036 	0.0008716616286 	3.293958239e-08 	0.002455065398 	3.964488433e-08 	4.680036999e-06
0.9596679154 	0.00242501597 	0.0009051399701 	-1.183625284e-08 	0.002526938466 	-7.628081376e-08 	4.817047043e-06
0.9652695907 	0.002497246672 	0.0009274114737 	-4.855920623e-08 	0.00257243324 	-1.780268983e-07 	4.903772727e-06
0.9702287469 	0.002541412109 	0.0009394193321 	-7.043493239e-08 	0.002591260137 	-2.434170992e-07 	4.939662024e-06
0.9746189643 	0.002553456103 	0.0009396085839 	-7.20910466e-08 	0.002578605059 	-2.531160278e-07 	4.915537929e-06
0.9785054204 	0.002526273266 	0.0009256071297 	-5.509439687e-08 	0.002528113797 	-2.085088341e-07 	4.81928755e-06
0.9819458465 	0.002444683219 	0.0008929170925 	-2.352014621e-08 	0.002426600551 	-1.336347843e-07 	4.625775088e-06
0.9849913737 	0.00228128982 	0.0008338316494 	-3.599092469e-10 	0.002249106108 	-7.499779163e-08 	4.287421348e-06
0.9876872839 	0.001993077866 	0.0007270025427 	-1.175436604e-08 	0.001954666749 	-7.90659834e-08 	3.726138095e-06
0.9900736765 	0.001547454741 	0.0005608362246 	-4.244934889e-08 	0.001511869282 	-1.327618968e-07 	2.882043055e-06
0.9921860593 	0.001013305362 	0.0003662616389 	-5.507798231e-08 	0.0009875729644 	-1.547870482e-07 	1.882588552e-06
0.9935583211 	0.0005309031186 	0.0001803102754 	-4.006046213e-08 	0.0005186757286 	-1.122298188e-07 	9.887400973e-07
0.9949306682 	0.0001959807106 	5.189177184e-05 	-1.530505126e-08 	0.0001934038994 	-4.663779358e-08 	3.686815861e-07
0.9963031006 	3.956013336e-05 	5.911319717e-06 	-1.626481792e-09 	3.938483499e-05 	-7.254749267e-09 	7.507844195e-08
0.9976756184 	2.99386241e-06 	1.40874383e-07 	-7.624026987e-12 	2.987823471e-06 	1.26502806e-11 	5.695621958e-09
0.9990482216 	3.012241146e-08 	1.502846552e-10 	7.938672033e-14 	3.006496202e-08 	1.303667556e-11 	5.731217372e-11
