0.2638980281 	-0.00639112157 	0.002431174655 	9.854637555e-06
0.2638980281 	-0.00639112157 	0.002431174655 	9.854637555e-06
0.2654533431 	-0.02408148991 	0.009159085211 	4.066617555e-05
0.2670087167 	-0.04564571555 	0.0173524141 	8.308760298e-05
0.2685638061 	-0.06448066196 	0.02449874951 	0.0001256824009
0.2701182719 	-0.07998928197 	0.03037153667 	0.0001647847853
0.2716717782 	-0.09254185524 	0.03511347275 	0.0001987668692
0.2740607069 	-0.1008855411 	0.03825669397 	0.0002273574295
0.2767546051 	-0.1034641675 	0.03926574606 	0.0002488088958
0.2797895793 	-0.1017834932 	0.0387728461 	0.0002659315071
0.2832304115 	-0.09734610092 	0.03741742219 	0.0002808221823
0.287111948 	-0.09065066052 	0.03547780479 	0.0002947580014
0.2914829797 	-0.0815499482 	0.03303297995 	0.0003091285425
0.2964036899 	-0.06919320316 	0.03001576974 	0.0003275669929
0.3019811527 	-0.0517382261 	0.02620181321 	0.0003579571938
0.3082566829 	-0.02640212847 	0.02124808984 	0.0004084533213
0.3153299793 	0.01466815441 	0.01401428127 	0.0004882378218
0.3259983069 	0.08743818442 	0.002435592123 	0.0005559906879
0.3373926531 	0.1971883913 	-0.01331469834 	0.0005849804251
0.3495488673 	0.338705859 	-0.0314392255 	0.0005462681913
0.3625213994 	0.502143757 	-0.04955865718 	0.0004352124608
0.3763660986 	0.6710099762 	-0.06496739281 	0.0002909419621
0.391140701 	0.8319976799 	-0.07623204999 	0.0001631492214
0.4069054432 	0.9787615446 	-0.08358968181 	7.229303183e-05
0.423723814 	1.104500043 	-0.08777393602 	1.27643934e-05
0.4416634491 	1.20366903 	-0.08940868158 	-2.876260263e-05
0.4607971748 	1.270795774 	-0.08878240239 	-5.747615689e-05
0.4812051392 	1.311526407 	-0.0866226859 	-6.112827955e-05
0.5029838614 	1.342670908 	-0.08375639571 	-5.231947068e-05
0.5262183068 	1.362921076 	-0.07978907647 	-4.974701479e-05
0.5510200772 	1.369703158 	-0.07513124196 	-4.46878372e-05
0.5775021918 	1.374084503 	-0.07059172395 	-3.540573233e-05
0.6057914839 	1.372755645 	-0.06525718445 	-3.322994679e-05
0.636028988 	1.362613668 	-0.05947304392 	-3.631874863e-05
0.6662252001 	1.35173965 	-0.05477725643 	-3.436392805e-05
0.6943993079 	1.34297453 	-0.05070670219 	-2.834027178e-05
0.7207016499 	1.33488986 	-0.04671018351 	-2.326317878e-05
0.7452665078 	1.324778909 	-0.04299694843 	-1.989726101e-05
0.768215059 	1.312240534 	-0.03960166488 	-1.719584406e-05
0.7896577441 	1.297930948 	-0.03648401804 	-1.482344872e-05
0.8096954208 	1.281952678 	-0.03359799198 	-1.276328324e-05
0.8284213407 	1.263352309 	-0.03086300103 	-1.105718779e-05
0.8459217018 	1.240517835 	-0.02820340643 	-9.639790504e-06
0.8622766275 	1.212073452 	-0.02558506379 	-8.377608496e-06
0.8775607399 	1.177536359 	-0.02300750527 	-7.155086449e-06
0.8918436525 	1.137172398 	-0.02048257343 	-5.917607389e-06
0.9051903915 	1.091378936 	-0.01801966863 	-4.667028095e-06
0.9176617495 	1.040200375 	-0.01561858636 	-3.432662321e-06
0.929314591 	0.9831006128 	-0.01326899807 	-2.239573483e-06
0.9402021232 	0.918938827 	-0.01095551437 	-1.106174117e-06
0.950374142 	0.851645778 	-0.00883468059 	-1.159424184e-07
0.957108839 	0.7896830213 	-0.007119595096 	5.141910524e-07
0.963072106 	0.7319116352 	-0.005712572612 	9.257973624e-07
0.9683520561 	0.6739327389 	-0.004479343577 	1.115447525e-06
0.9730267922 	0.6163396693 	-0.003428267406 	1.093468136e-06
0.9771655318 	0.5594742271 	-0.002558312539 	9.019903869e-07
0.98082961 	0.5032501363 	-0.001859113659 	6.066955089e-07
0.9840733699 	0.4470538344 	-0.001315364692 	2.814675678e-07
0.9869449531 	0.3897208288 	-0.0009095780073 	-1.134603904e-08
0.9894870034 	0.3295484082 	-0.0005884127758 	-2.488824817e-07
0.9917372914 	0.2681858239 	-0.0003396186216 	-2.993468155e-07
0.9931992005 	0.2099786895 	-0.0002059196683 	-1.843424711e-07
0.9946612482 	0.1528592866 	-0.0001428725387 	-1.536219218e-07
0.9961234342 	0.09636764338 	-8.149603529e-05 	-1.453209736e-07
0.9975857587 	0.04498022677 	-5.295973893e-05 	-3.274200213e-08
0.9990482216 	0.011757653 	-3.274200123e-05 	2.325672502e-08
