0.3982523954 	-0.0001223335494 	0.0001929108526 	9.148997671e-06
0.3982523954 	-0.0001223335494 	0.0001929108526 	9.148997671e-06
0.3994377339 	0.004773639307 	-0.0002895406506 	3.446157865e-05
0.4006231409 	0.02009834109 	-0.002336759664 	6.60609765e-05
0.4018085007 	0.04578201204 	-0.005821756354 	9.411103362e-05
0.4029936986 	0.08061401934 	-0.01062363319 	0.0001173924536
0.4041786207 	0.1272527403 	-0.01704118232 	0.000135906256
0.4060019699 	0.1902447837 	-0.02543620359 	0.0001505089575
0.4080604285 	0.2651918722 	-0.03498676785 	0.0001585983321
0.4103833753 	0.3465374739 	-0.04484387666 	0.0001586337315
0.4130209671 	0.4332504553 	-0.05475588047 	0.0001499888683
0.4160013668 	0.5236118788 	-0.06443418938 	0.0001332754767
0.4193641481 	0.6152584534 	-0.07357447224 	0.0001094408671
0.423157894 	0.7058239847 	-0.08189893303 	8.02140999e-05
0.4274660238 	0.7927721108 	-0.08915199023 	4.852142248e-05
0.432326175 	0.8734495925 	-0.09511747775 	1.833732797e-05
0.4378190673 	0.9524029004 	-0.1000989682 	-8.512005346e-06
0.4461325613 	1.03098165 	-0.1041136485 	-2.843019148e-05
0.455048941 	1.101462365 	-0.1067675015 	-3.968551366e-05
0.46460301 	1.163666985 	-0.1082839936 	-4.793343104e-05
0.4748437118 	1.220699354 	-0.1089492371 	-5.875909847e-05
0.4858216947 	1.272408689 	-0.1087512453 	-7.233364915e-05
0.497589651 	1.316500084 	-0.1075699279 	-8.467701822e-05
0.5102027201 	1.351855923 	-0.1054765464 	-9.182546295e-05
0.5237189542 	1.37860874 	-0.1025416764 	-9.246837021e-05
0.5381998521 	1.39743022 	-0.09888548067 	-9.150781196e-05
0.5537109596 	1.409289191 	-0.09466412131 	-9.338771217e-05
0.570323245 	1.414993238 	-0.08996185583 	-9.196798036e-05
0.588119929 	1.416361334 	-0.08499921011 	-8.396871721e-05
0.6071750317 	1.415507956 	-0.07989988213 	-7.551792991e-05
0.6275820376 	1.41361769 	-0.07477073663 	-6.829482355e-05
0.6494344704 	1.411618968 	-0.06975079457 	-6.337129379e-05
0.6728352312 	1.404863952 	-0.06444272463 	-5.932912398e-05
0.6978966025 	1.392718304 	-0.05883172288 	-5.188880306e-05
0.7229590561 	1.383483547 	-0.05381833503 	-4.32209772e-05
0.7463631701 	1.377137596 	-0.04962748871 	-3.567697279e-05
0.7682214995 	1.36809388 	-0.04574923303 	-3.046908809e-05
0.7886381734 	1.355420428 	-0.04206696128 	-2.647615593e-05
0.8077096611 	1.34122884 	-0.03870935618 	-2.31960392e-05
0.8255255342 	1.326267144 	-0.03564803205 	-2.045569715e-05
0.8421687484 	1.309659102 	-0.03282047112 	-1.795845756e-05
0.8577166818 	1.289834282 	-0.03013704362 	-1.566288279e-05
0.8722413334 	1.265336784 	-0.02753997064 	-1.351803529e-05
0.8858098685 	1.235591732 	-0.02501501148 	-1.15053805e-05
0.8984849828 	1.200866891 	-0.02256538982 	-9.616927064e-06
0.9103252262 	1.161676182 	-0.02019719549 	-7.837249518e-06
0.9213853035 	1.118346252 	-0.01791315772 	-6.160655129e-06
0.9317163424 	1.070825056 	-0.01570873734 	-4.578300712e-06
0.9413661361 	1.018565442 	-0.01357200238 	-3.072962324e-06
0.9503793651 	0.9604156827 	-0.01148428398 	-1.62506653e-06
0.9587978034 	0.8995204792 	-0.009568843695 	-3.433392772e-07
0.9643701856 	0.8429155911 	-0.007997077127 	6.73889992e-07
0.9693034113 	0.7889693985 	-0.006670209204 	1.428735664e-06
0.9736706736 	0.7330437652 	-0.005458671711 	1.992516751e-06
0.9775368093 	0.6751926946 	-0.00436962501 	2.335001108e-06
0.9809592473 	0.6154507804 	-0.003409864044 	2.449175845e-06
0.983988851 	0.5536934927 	-0.002583577117 	2.35468137e-06
0.9866706657 	0.4895682205 	-0.001892105931 	2.088755089e-06
0.9890445811 	0.4225063361 	-0.001333118806 	1.699231303e-06
0.9911459193 	0.3518983398 	-0.0008705034793 	1.273320881e-06
0.9930059564 	0.2817810616 	-0.0005251043523 	9.04733401e-07
0.9942142764 	0.2184135508 	-0.0003332341165 	6.070574351e-07
0.995422663 	0.1591186328 	-0.000211823931 	3.593357549e-07
0.996631116 	0.1014175397 	-0.0001050519688 	1.694697032e-07
0.9978396355 	0.04812051194 	-5.7485645e-05 	2.34361488e-08
0.9990482216 	0.01282183375 	-3.235479799e-05 	-2.435896622e-08
