6.483489025e-34 	0.01013739331 	-6.884801385e-16 	-2.502443078e-22 	4.675806555e-29 	1.699531924e-35 	6.177348716e-42
0.001935329056 	0.01013510885 	-4.923289294e-05 	7.483565781e-09 	0.01095983142 	-1.902424353e-06 	2.089248482e-05
0.003870646918 	0.01013575505 	-0.0001112347667 	2.727312297e-08 	0.01100202138 	-1.891973699e-06 	2.09729106e-05
0.005805953543 	0.01013972912 	-0.0001676057976 	4.175126322e-08 	0.01100842021 	-1.869299747e-06 	2.098510855e-05
0.00774124892 	0.01014276378 	-0.0002231863424 	5.512613431e-08 	0.0110139045 	-1.846359119e-06 	2.099556313e-05
0.009676533077 	0.01014807753 	-0.0002865248046 	6.986360694e-08 	0.01101816997 	-1.823091419e-06 	2.100369431e-05
0.0126558162 	0.01015680993 	-0.000367633774 	8.777234557e-08 	0.01102482644 	-1.787356009e-06 	2.101638339e-05
0.0160218712 	0.01016985544 	-0.0004645074665 	1.082980359e-07 	0.01103554182 	-1.748421565e-06 	2.103680988e-05
0.01982490545 	0.01018805694 	-0.0005738870806 	1.302217469e-07 	0.01105047631 	-1.705971922e-06 	2.106527916e-05
0.02413483307 	0.01021301728 	-0.0006973032037 	1.532409721e-07 	0.01107103371 	-1.657881474e-06 	2.110446728e-05
0.02900746903 	0.01024674141 	-0.0008363384173 	1.771055137e-07 	0.011098906 	-1.605794889e-06 	2.115759961e-05
0.03451265705 	0.01029170423 	-0.0009926639813 	2.013904243e-07 	0.01113616658 	-1.54975029e-06 	2.122862864e-05
0.04073250544 	0.0103510323 	-0.001168192864 	2.255155176e-07 	0.01118536153 	-1.489215626e-06 	2.132240789e-05
0.0477826567 	0.01042856847 	-0.001365072302 	2.484744405e-07 	0.01124953175 	-1.421719029e-06 	2.144473416e-05
0.05574940349 	0.01052867015 	-0.001585001001 	2.692674976e-07 	0.01133223836 	-1.348470573e-06 	2.160239595e-05
0.06476049349 	0.01066979951 	-0.001852871498 	2.899953996e-07 	0.01144807994 	-1.27034657e-06 	2.18232222e-05
0.07840541888 	0.01087466094 	-0.002189224629 	2.997327753e-07 	0.01161461095 	-1.146062047e-06 	2.214067658e-05
0.09305181054 	0.01113518294 	-0.002562412335 	2.99254279e-07 	0.01182337732 	-1.014553649e-06 	2.25386433e-05
0.1087667242 	0.01143554065 	-0.002944560739 	2.831613785e-07 	0.01205901598 	-8.69693437e-07 	2.298783609e-05
0.1256313686 	0.01176823225 	-0.00333025426 	2.50150431e-07 	0.01231285786 	-7.08107937e-07 	2.347172926e-05
0.1437313485 	0.01212015444 	-0.003712134367 	1.99494137e-07 	0.01257102617 	-5.275931004e-07 	2.396386981e-05
0.1631570974 	0.01247095704 	-0.004080126622 	1.313238369e-07 	0.01281285242 	-3.278226257e-07 	2.442485786e-05
0.1840043494 	0.01279098295 	-0.004419438718 	4.711003416e-08 	0.01300857354 	-1.121134676e-07 	2.479795671e-05
0.1952923877 	0.01290911501 	-0.004567686547 	4.739639408e-06 	0.01306195549 	-2.856342092e-05 	2.489971754e-05
0.2063746485 	0.01302518978 	-0.004713324184 	5.024664849e-08 	0.01311444297 	-1.132915152e-07 	2.499977326e-05
0.2303758959 	0.01309674332 	-0.004942146428 	1.548938743e-07 	0.01307292262 	-3.31111182e-07 	2.492062394e-05
0.2561229333 	0.01294979297 	-0.005070706038 	2.522660759e-07 	0.01282133584 	-5.150260572e-07 	2.444102962e-05
0.2837387559 	0.01251465301 	-0.005053155946 	3.249706889e-07 	0.01227923531 	-6.266417538e-07 	2.340763533e-05
0.3133605011 	0.01166910307 	-0.004833990409 	3.447518792e-07 	0.01133684437 	-6.128432527e-07 	2.161117628e-05
0.3451213801 	0.01025973321 	-0.004336259651 	2.712479876e-07 	0.009861393524 	-4.020539122e-07 	1.879855689e-05
0.3791749318 	0.00812035002 	-0.003448712348 	3.166425401e-08 	0.007711358943 	7.657098747e-08 	1.469999341e-05
0.4156786692 	0.005217314407 	-0.002069396941 	-3.014008367e-07 	0.004900516016 	6.86115675e-07 	9.341745554e-06
0.4548022144 	0.002519985376 	-0.0007768234661 	-3.285989746e-07 	0.002372133607 	7.125900192e-07 	4.521945956e-06
0.4967273963 	0.001248862742 	-0.0001313849203 	-1.265493068e-07 	0.00120561805 	2.325351817e-07 	2.298243088e-06
0.5386674328 	0.00107757718 	0.000129742459 	-3.848930915e-08 	0.001046477039 	1.569869013e-08 	1.99487609e-06
0.5778332805 	0.001176399462 	0.0002725862988 	-8.09670463e-10 	0.001136263925 	-1.149592983e-08 	2.16603485e-06
0.6144050965 	0.001327396967 	0.0003788810784 	1.020375673e-08 	0.001276039537 	-2.085609215e-09 	2.432486014e-06
0.6485527742 	0.001507404827 	0.0004781699733 	1.414996854e-08 	0.001444285381 	1.710377915e-08 	2.753209355e-06
0.6804359545 	0.001720499406 	0.0005800618078 	2.266937134e-08 	0.001645501581 	4.291263473e-08 	3.136783357e-06
0.7102043027 	0.001981269561 	0.0006965739634 	3.36627309e-08 	0.001892476859 	7.992480499e-08 	3.607586881e-06
0.7379976686 	0.002313534171 	0.0008279908726 	5.066629318e-08 	0.002210403223 	1.372751308e-07 	4.213642893e-06
0.7639469474 	0.002756910855 	0.0009879791809 	8.039794854e-08 	0.002637462135 	2.166902396e-07 	5.027735873e-06
0.7881743872 	0.003342341795 	0.001198770774 	1.10993186e-07 	0.003200943511 	2.999862544e-07 	6.101887989e-06
0.8107941812 	0.004056858801 	0.001455647592 	1.306785702e-07 	0.00389007291 	3.549913188e-07 	7.415560156e-06
0.8319129813 	0.004835133046 	0.00173567352 	1.241590153e-07 	0.004644199802 	3.39494745e-07 	8.853135612e-06
0.8516303754 	0.00556454958 	0.001998978411 	8.234476813e-08 	0.00535646101 	2.286591048e-07 	1.021090344e-05
0.8700393505 	0.006134043296 	0.002205939694 	1.595467325e-08 	0.005919947118 	5.065068584e-08 	1.128506457e-05
0.8872267278 	0.006477383856 	0.002332696514 	-5.56686028e-08 	0.006269337851 	-1.425662037e-07 	1.195110042e-05
0.903273569 	0.006573875265 	0.002371242548 	-1.168245245e-07 	0.006382163237 	-3.084242329e-07 	1.216617696e-05
0.9182555581 	0.006437218691 	0.002325755588 	-1.568010174e-07 	0.006268756778 	-4.182079932e-07 	1.194999273e-05
0.9322433571 	0.006133009481 	0.002219055804 	-1.708699812e-07 	0.005988898634 	-4.588623857e-07 	1.141650532e-05
0.9414993065 	0.0057806643 	0.002093720852 	-1.654547037e-07 	0.005655967215 	-4.469287015e-07 	1.078184551e-05
0.9496916368 	0.005431070602 	0.001968269129 	-1.504325611e-07 	0.005320102553 	-4.0873697e-07 	1.014159411e-05
0.9569425705 	0.005077474051 	0.001840459545 	-1.303352197e-07 	0.004975662041 	-3.563807368e-07 	9.484994763e-06
0.9633602853 	0.004728209374 	0.001713406982 	-1.087091377e-07 	0.004631251666 	-2.990913256e-07 	8.828452865e-06
0.969040528 	0.004380527845 	0.001586354678 	-8.783948614e-08 	0.004285413274 	-2.42827743e-07 	8.169188769e-06
0.974068043 	0.004021141804 	0.001454859451 	-6.89666991e-08 	0.003927053974 	-1.910329373e-07 	7.486056342e-06
0.9785178364 	0.003625049935 	0.001310269588 	-5.275474035e-08 	0.003533770832 	-1.459036026e-07 	6.736349366e-06
0.9824562955 	0.003152042114 	0.001138316939 	-3.960367914e-08 	0.003067707956 	-1.090363395e-07 	5.847903989e-06
0.9859421785 	0.002545105481 	0.0009184538641 	-2.935687916e-08 	0.002473444411 	-8.040450522e-08 	4.715072506e-06
0.9890274919 	0.00180437945 	0.0006507631502 	-2.106746799e-08 	0.001751692451 	-5.734440016e-08 	3.339212669e-06
0.9910316378 	0.001036480762 	0.0003515555692 	-9.672200825e-09 	0.001009941639 	-3.426392708e-08 	1.925229462e-06
0.9930357838 	0.000406736975 	0.0001092631061 	-1.119003538e-09 	0.0004006316526 	-1.34045259e-08 	7.637152797e-07
0.9950399297 	7.97786645e-05 	1.189682017e-05 	-7.352097101e-11 	7.939027293e-05 	-2.668921806e-09 	1.513399256e-07
0.9970440756 	5.14241595e-06 	2.099807553e-07 	-2.591085337e-13 	5.131620834e-06 	-1.718985746e-10 	9.78229557e-09
0.9990482216 	3.656608583e-08 	1.220389793e-10 	4.997710812e-16 	3.649642623e-08 	-1.176752644e-12 	6.957233204e-11
0.9990482216 	3.656608583e-08 	1.220389793e-10 	4.997710812e-16 	3.649642623e-08 	-1.176752644e-12 	6.957233204e-11
