0.3359950097 	0.05329092479 	0.009521295633 	-3.982118524e-05
0.3359950097 	0.05329092479 	0.009521295633 	-3.982118524e-05
0.3371488821 	0.2058841225 	0.03609046109 	-0.0001553988918
0.3383029084 	0.4033342882 	0.07012557785 	-0.0003064423809
0.339456909 	0.5867978049 	0.1018431153 	-0.0004495839477
0.3406107058 	0.7480907842 	0.1296545464 	-0.0005760705049
0.3417641219 	0.8980590964 	0.1553969174 	-0.000680523819
0.3435386191 	1.040225392 	0.1796118312 	-0.0007473648833
0.345541121 	1.154400043 	0.1986317053 	-0.0007675802862
0.3477994817 	1.232724877 	0.2109125598 	-0.000734597346
0.3503442295 	1.279153662 	0.2171717398 	-0.0006737405599
0.3532733514 	1.302447749 	0.2190270636 	-0.000613967146
0.356598976 	1.313183827 	0.2183560188 	-0.0005622016247
0.3603444458 	1.3182222 	0.21638449 	-0.0005135914844
0.3645614832 	1.32072606 	0.2136506549 	-0.0004644913598
0.3694015871 	1.32192859 	0.2103488006 	-0.0004125499933
0.3748927519 	1.322176019 	0.2061722588 	-0.0003552760577
0.3832077724 	1.321224695 	0.2006074138 	-0.0002785310151
0.3922194226 	1.318923516 	0.1941509158 	-0.0002054069375
0.4019645111 	1.315750373 	0.1873813277 	-0.0001373442883
0.41246846 	1.312059652 	0.180380213 	-7.480075397e-05
0.4238250473 	1.30797592 	0.1731568592 	-1.836572168e-05
0.4281449265 	1.306411973 	0.1705391491 	-0.000172796787
0.4360921644 	1.303457198 	0.1657448915 	-2.942016168e-05
0.4493258187 	1.298510903 	0.1581381461 	-6.965364265e-05
0.4636467224 	1.293140539 	0.1503419273 	-0.0001031852798
0.479142112 	1.287313606 	0.1423707625 	-0.0001296441554
0.495937783 	1.280999562 	0.1342411865 	-0.000148914884
0.5140945125 	1.274178426 	0.1259840331 	-0.0001609672785
0.5336915725 	1.266827653 	0.1176295667 	-0.0001661256011
0.5548794993 	1.258914084 	0.1091975828 	-0.0001650284686
0.577708027 	1.25039278 	0.1007174231 	-0.000158482359
0.6022888803 	1.24118729 	0.09221503476 	-0.0001475493934
0.6287248958 	1.231181235 	0.08369945115 	-0.0001246782329
0.6571183725 	1.22041349 	0.07531838535 	-0.0001022399197
0.6855585609 	1.209312574 	0.06748769314 	-8.54253514e-05
0.7121365164 	1.198337126 	0.06050282579 	-7.317794405e-05
0.7369645634 	1.187564048 	0.05431778884 	-6.401123671e-05
0.7601541182 	1.176885293 	0.0487983018 	-5.688894377e-05
0.781812674 	1.166194507 	0.04384084836 	-5.116104965e-05
0.8020426129 	1.155392078 	0.03936188233 	-4.640584795e-05
0.8209384831 	1.144391467 	0.03529431459 	-4.234990922e-05
0.8385893071 	1.133116418 	0.03158399321 	-3.710492541e-05
0.8550774756 	1.121492282 	0.02818665669 	-3.251865125e-05
0.8704799455 	1.109435631 	0.0250649307 	-2.85714838e-05
0.8848682824 	1.096828592 	0.02218787853 	-2.515257553e-05
0.898309154 	1.083460246 	0.01952935191 	-2.217534903e-05
0.9108647908 	1.068940697 	0.01706540115 	-1.95679334e-05
0.922593274 	1.052619968 	0.01477247004 	-1.726602528e-05
0.9335488469 	1.033547408 	0.01262687302 	-1.521001131e-05
0.9437821903 	1.010505678 	0.01060447061 	-1.33472724e-05
0.9533406678 	0.9843386484 	0.008815448402 	-1.172063699e-05
0.9596679154 	0.9584777083 	0.007394134749 	-1.046698109e-05
0.9652695907 	0.9326736586 	0.006216931731 	-9.394919237e-06
0.9702287469 	0.9046273511 	0.005149971513 	-8.379533518e-06
0.9746189643 	0.8736581843 	0.004187095404 	-7.390136691e-06
0.9785054204 	0.8384783756 	0.003324826325 	-6.404164419e-06
0.9819458465 	0.7971053109 	0.002562467974 	-5.406577477e-06
0.9849913737 	0.7469199974 	0.001903473312 	-4.394674625e-06
0.9876872839 	0.6847875773 	0.001353117633 	-3.390941043e-06
0.9900736765 	0.6076155529 	0.0009102240355 	-2.447551235e-06
0.9921860593 	0.5201923231 	0.0005962957165 	-1.677903168e-06
0.9935583211 	0.4330775895 	0.0003881618716 	-1.122848305e-06
0.9949306682 	0.3414390281 	0.000216516372 	-6.777920639e-07
0.9963031006 	0.2375443264 	8.096680276e-05 	-3.118246014e-07
0.9976756184 	0.1235043301 	-4.231748989e-05 	-3.303567166e-08
0.9990482216 	0.03582695927 	-6.263417176e-05 	4.996464316e-08
