0.3673995292 	1.836455709e-07 	-1.378242607e-09 	9.743691971e-13 	1.824933615e-07 	-5.366444103e-11 	3.478830684e-10
0.3673995292 	1.836455709e-07 	-1.378242607e-09 	9.743691971e-13 	1.824933615e-07 	-5.366444103e-11 	3.478830684e-10
0.3684829761 	1.595173435e-05 	-1.02768406e-06 	1.307934243e-09 	1.531855894e-05 	-1.016638718e-08 	2.92014309e-08
0.3695665877 	0.0001949084512 	-3.5647012e-05 	4.888648388e-08 	0.0001726396122 	-1.285832225e-07 	3.290990836e-07
0.3706502347 	0.0008896834 	-0.0002506067602 	2.720990703e-07 	0.000724376091 	-4.458886461e-07 	1.380862159e-06
0.3717337888 	0.002058187382 	-0.0006454347095 	4.322942487e-07 	0.001628615061 	-5.729591776e-07 	3.104592956e-06
0.3728171224 	0.003366464397 	-0.001110126338 	5.041972337e-07 	0.002631170787 	-3.281803178e-08 	5.015742817e-06
0.3744841553 	0.004370067599 	-0.00154556692 	7.050696321e-08 	0.003358575339 	1.709440118e-06 	6.402378064e-06
0.3763660564 	0.004459163119 	-0.001600344447 	-1.285218208e-06 	0.003420909017 	4.21390183e-06 	6.521203379e-06
0.3784895005 	0.00378278953 	-0.001290551126 	-2.359997675e-06 	0.002953059627 	5.696560462e-06 	5.629352409e-06
0.3808839529 	0.002978781517 	-0.0009782181717 	-2.107806456e-06 	0.002371235378 	4.845636168e-06 	4.520233682e-06
0.3836378911 	0.002366683587 	-0.0007412494071 	-1.711019419e-06 	0.001962622859 	2.092241082e-06 	3.741304653e-06
0.3867652482 	0.001993039641 	-0.0005385752077 	-1.490988106e-06 	0.001811669293 	-9.463393545e-07 	3.4535452e-06
0.390290462 	0.001797500412 	-0.0003677280619 	-1.047144723e-06 	0.001858555961 	-3.237353004e-06 	3.542924221e-06
0.3942632783 	0.001696237808 	-0.0002321092826 	-8.148178136e-07 	0.002011593088 	-4.265602366e-06 	3.83465552e-06
0.3988211095 	0.001627527415 	-0.0001149494706 	-6.060321016e-07 	0.002203899741 	-4.471895385e-06 	4.201245449e-06
0.4039948728 	0.001564698337 	-4.224341967e-07 	-5.622906182e-07 	0.00241389021 	-4.100223443e-06 	4.601545647e-06
0.4118367251 	0.001510402568 	0.0001269111688 	-4.135339897e-07 	0.002591816625 	-2.597373126e-06 	4.940722846e-06
0.420339507 	0.001489720525 	0.0002375069366 	-1.123521582e-07 	0.002658205959 	-1.320969268e-06 	5.067279369e-06
0.429540511 	0.001491196933 	0.0003066075721 	1.182203611e-07 	0.002646618833 	-9.417955716e-07 	5.045191085e-06
0.4394675757 	0.001489928361 	0.000345773603 	2.447440488e-07 	0.002627866952 	-7.028431243e-07 	5.009444789e-06
0.450208819 	0.001486685848 	0.0003661599287 	2.451920101e-07 	0.002613327852 	-5.216898729e-07 	4.981729222e-06
0.4618721886 	0.001484329883 	0.0003796147081 	1.856952492e-07 	0.002605803962 	-3.599715334e-07 	4.967386597e-06
0.4744877587 	0.001485061173 	0.0003925193188 	1.148488555e-07 	0.002604237082 	-2.140091554e-07 	4.964399689e-06
0.488139843 	0.001489134282 	0.0004063276256 	4.393535579e-08 	0.00260761468 	-8.009408659e-08 	4.97083833e-06
0.4975745988 	0.001493577873 	0.0004157166909 	1.22528735e-08 	0.002612343629 	-1.052662018e-06 	4.979853021e-06
0.5028917562 	0.001496077326 	0.0004209559192 	2.240596661e-08 	0.002614898706 	-4.336645959e-08 	4.984723708e-06
0.5188499572 	0.001505317794 	0.000436108187 	8.024781769e-08 	0.002625041457 	-1.574484312e-07 	5.00405861e-06
0.5361130653 	0.001516314118 	0.0004517079827 	1.309616799e-07 	0.002636940806 	-2.632126206e-07 	5.026742075e-06
0.5547594807 	0.001528505498 	0.0004676118328 	1.729193532e-07 	0.002649238363 	-3.601027501e-07 	5.050184638e-06
0.574931013 	0.00154138181 	0.0004838278989 	2.045681748e-07 	0.002660224778 	-4.470983548e-07 	5.071127798e-06
0.596680164 	0.00155451538 	0.0005005381092 	2.238204023e-07 	0.002667642447 	-5.219596217e-07 	5.085267938e-06
0.6201143357 	0.001567300941 	0.0005176948288 	2.29183274e-07 	0.0026689242 	-5.820565967e-07 	5.087711314e-06
0.645332846 	0.001578772956 	0.0005349742014 	2.204142651e-07 	0.002660848952 	-6.232129361e-07 	5.072317647e-06
0.6724342449 	0.001587825552 	0.0005518409709 	1.993868423e-07 	0.002639913139 	-6.400971562e-07 	5.032408169e-06
0.6995933348 	0.001593589646 	0.0005671949967 	1.706352968e-07 	0.002605317318 	-6.30441121e-07 	4.966458919e-06
0.7249828856 	0.001596445165 	0.000580331118 	1.404813532e-07 	0.002560186119 	-5.993973341e-07 	4.880426309e-06
0.7487060318 	0.001597914285 	0.0005916668647 	1.128908548e-07 	0.002508037944 	-5.526397136e-07 	4.781017395e-06
0.7708663551 	0.001599685299 	0.0006018775359 	8.920481098e-08 	0.002451742236 	-4.954654302e-07 	4.673702129e-06
0.7915646598 	0.001603175887 	0.0006113783005 	6.98973824e-08 	0.002394342496 	-4.327631525e-07 	4.564282271e-06
0.8108975394 	0.001609514349 	0.0006204470285 	5.50629315e-08 	0.002338830384 	-3.688233008e-07 	4.458460757e-06
0.8289546918 	0.001619677361 	0.0006293870095 	4.44491766e-08 	0.002287870719 	-3.068186947e-07 	4.361317471e-06
0.8458208373 	0.001634672685 	0.0006386235673 	3.762062443e-08 	0.002243705225 	-2.483939532e-07 	4.277125764e-06
0.861574609 	0.001655785926 	0.0006487672771 	3.426282906e-08 	0.002208251297 	-1.94159939e-07 	4.209540724e-06
0.8762895743 	0.001685003312 	0.0006607152171 	3.410662363e-08 	0.002183201839 	-1.441936436e-07 	4.161789495e-06
0.8900342399 	0.0017254363 	0.0006757102845 	3.64646036e-08 	0.002170201512 	-9.822605758e-08 	4.137007258e-06
0.9028724742 	0.001781272627 	0.0006952139757 	3.993893284e-08 	0.002171303618 	-5.595181463e-08 	4.139108179e-06
0.9148639184 	0.001856912428 	0.0007205979544 	4.258286812e-08 	0.002189572425 	-1.825560159e-08 	4.173933603e-06
0.9260642485 	0.001955330423 	0.0007527812206 	4.21487866e-08 	0.002229009872 	1.051914503e-08 	4.249112338e-06
0.9365254628 	0.002075841775 	0.0007917270213 	3.606641698e-08 	0.002292312248 	2.139743152e-08 	4.369784259e-06
0.9462961394 	0.002211249316 	0.0008353798961 	2.214986747e-08 	0.002375795337 	4.895879984e-09 	4.52892623e-06
0.9554216696 	0.002336039888 	0.0008754494088 	3.431415461e-09 	0.002458480667 	-3.322486695e-08 	4.686547451e-06
0.9614619036 	0.002427828468 	0.0009043594889 	-1.261291404e-08 	0.002518609625 	-7.178678958e-08 	4.801169956e-06
0.9668091954 	0.002490950137 	0.0009231590053 	-2.069774874e-08 	0.002554549828 	-9.22259585e-08 	4.869681972e-06
0.9715429241 	0.002531093098 	0.0009334550334 	-1.96941956e-08 	0.00256828391 	-8.863435465e-08 	4.89586295e-06
0.9757334019 	0.002545045772 	0.0009341482863 	-9.667873209e-09 	0.002556742728 	-5.921738683e-08 	4.873862249e-06
0.9794429011 	0.002524284728 	0.0009226178816 	6.945265094e-09 	0.002513004356 	-1.194965297e-08 	4.790484756e-06
0.9827265717 	0.002450365069 	0.0008941105247 	2.978193874e-08 	0.002420892655 	3.754046965e-08 	4.614894252e-06
0.9856332522 	0.002290729583 	0.0008377159022 	4.16095886e-08 	0.002249841015 	6.463081408e-08 	4.288822285e-06
0.9882061891 	0.001997639105 	0.0007287469402 	2.77971622e-08 	0.001953567792 	4.962047672e-08 	3.724043178e-06
0.9904836754 	0.001541247528 	0.0005582046926 	5.147373848e-09 	0.001502806433 	7.031602102e-09 	2.864766746e-06
0.9924996163 	0.001000821602 	0.0003614886095 	-7.639169961e-09 	0.0009740751115 	-2.24846664e-08 	1.856857893e-06
0.9938092065 	0.0005205900485 	0.0001764628397 	-9.537294771e-09 	0.0005081575118 	-2.402002038e-08 	9.686894525e-07
0.9951188621 	0.0001914593484 	5.028794099e-05 	-4.985781054e-09 	0.0001888831644 	-1.132738672e-08 	3.600638087e-07
0.9964285831 	3.88659149e-05 	5.732717352e-06 	-5.938334518e-10 	3.86883495e-05 	-1.591293315e-09 	7.375074701e-08
0.9977383696 	3.000622241e-06 	1.397235634e-07 	-4.867163061e-12 	2.994445457e-06 	7.602968056e-11 	5.708245303e-09
0.9990482216 	3.160281402e-08 	1.584593154e-10 	2.595549757e-14 	3.154251388e-08 	5.578505754e-12 	6.012879823e-11
0.9990482216 	3.160281402e-08 	1.584593154e-10 	2.595549757e-14 	3.154251388e-08 	5.578505754e-12 	6.012879823e-11
