0.4709558481 	9.210240345e-08 	-3.907575972e-10 	2.979209902e-14 	9.192688165e-08 	-4.880935868e-12 	1.752381862e-10
0.4720092239 	7.571362734e-06 	-2.877604723e-07 	2.194395824e-11 	7.555501891e-06 	-4.013430236e-10 	1.440288655e-08
0.4730625996 	8.876772555e-05 	-1.097939699e-05 	8.149000515e-10 	8.840973386e-05 	-4.681816791e-09 	1.68533525e-07
0.4741159754 	0.0004192531203 	-9.747297441e-05 	6.515202762e-09 	0.0004145184951 	-2.103079805e-08 	7.901874611e-07
0.4751693511 	0.001133424188 	-0.0003637533098 	2.028346975e-08 	0.00110725528 	-5.001765575e-08 	2.110736309e-06
0.4762227269 	0.002199064317 	-0.0007828752313 	3.175207369e-08 	0.002134918347 	-7.943917846e-08 	4.069747739e-06
0.4778443634 	0.003424989874 	-0.001235182682 	3.779947932e-08 	0.003321726365 	-1.009496748e-07 	6.332133677e-06
0.4796765386 	0.004515331496 	-0.001631389874 	4.207977772e-08 	0.004379239847 	-1.113523899e-07 	8.348048295e-06
0.4817465869 	0.005315106877 	-0.001919771097 	4.151275081e-08 	0.005154537474 	-1.097050897e-07 	9.825981055e-06
0.4840853915 	0.0058522122 	-0.002110286151 	3.71068132e-08 	0.005674627806 	-9.835355024e-08 	1.081741778e-05
0.4867278453 	0.00617766553 	-0.002226605102 	2.940807294e-08 	0.005989066525 	-7.766195583e-08 	1.141682537e-05
0.4897133715 	0.006333407197 	-0.002282230295 	1.804604655e-08 	0.006138584787 	-4.688359853e-08 	1.170184874e-05
0.4930865115 	0.00635254774 	-0.002288705169 	2.56850601e-09 	0.00615532834 	-4.930071957e-09 	1.17337666e-05
0.4968975894 	0.00625628532 	-0.002253580869 	-1.775116024e-08 	0.006059888556 	5.010633839e-08 	1.155183185e-05
0.5012034633 	0.006054484597 	-0.002180405611 	-4.391243632e-08 	0.005861879867 	1.208938285e-07 	1.117437225e-05
0.506068373 	0.005716023922 	-0.002057950013 	-8.024256492e-08 	0.005531019552 	2.190690242e-07 	1.054366053e-05
0.5134203412 	0.005177030043 	-0.001863297893 	-1.303724607e-07 	0.005005593585 	3.543645733e-07 	9.542052605e-06
0.5212948542 	0.004460794476 	-0.001605072731 	-1.85476874e-07 	0.004309205478 	5.027012436e-07 	8.214543323e-06
0.529729052 	0.003662068972 	-0.00131761106 	-2.227473004e-07 	0.003534592264 	6.02873886e-07 	6.737915243e-06
0.5387627144 	0.00288770145 	-0.001039278405 	-2.199753098e-07 	0.002785189721 	5.946461089e-07 	5.309345713e-06
0.5484384488 	0.00223169741 	-0.0007857736593 	-2.373753061e-07 	0.002155363572 	5.019466559e-07 	4.108722021e-06
0.5588018907 	0.001734157437 	-0.0005441761872 	-2.345244092e-07 	0.001687910588 	3.585575164e-07 	3.217626711e-06
0.5699019192 	0.001416362594 	-0.0003405505817 	-1.731493002e-07 	0.001395850484 	1.846308433e-07 	2.660878978e-06
0.5817908876 	0.001262954329 	-0.0001904616089 	-1.349117302e-07 	0.0012581542 	3.777804804e-08 	2.39839159e-06
0.5945248701 	0.001218619722 	-6.741503639e-05 	-1.153848107e-07 	0.001223856033 	-4.935793866e-08 	2.333009753e-06
0.6081639266 	0.001233589877 	4.013033048e-05 	-9.670500474e-08 	0.001245393612 	-8.189537419e-08 	2.374066364e-06
0.6227723857 	0.001277157821 	0.0001345069508 	-8.326273862e-08 	0.001292880771 	-8.343096384e-08 	2.464590087e-06
0.638419148 	0.001334445032 	0.0002184528526 	-8.390031278e-08 	0.00135181456 	-7.129404151e-08 	2.57693427e-06
0.6551780116 	0.001398272593 	0.0002943270534 	-1.029572303e-07 	0.00141512536 	-5.623046061e-08 	2.69762225e-06
0.6731280194 	0.001464551092 	0.0003630487162 	-1.484926626e-07 	0.001478974632 	-4.822029947e-08 	2.819336708e-06
0.6923538328 	0.001530432619 	0.0004248037772 	-2.112987128e-07 	0.00154084809 	-5.775155931e-08 	2.937284715e-06
0.7129461301 	0.001592181747 	0.0004740493383 	-2.374943085e-07 	0.001598312315 	-8.450939952e-08 	3.046827501e-06
0.7350020349 	0.001650866858 	0.0005200223591 	-1.910835483e-07 	0.001652263232 	-1.06688172e-07 	3.149672943e-06
0.7570579485 	0.001707408354 	0.0005685567825 	-1.082843315e-07 	0.001703716635 	-1.0427706e-07 	3.247757431e-06
0.7776502527 	0.001760097828 	0.0006067407277 	-1.869897766e-08 	0.001751997495 	-7.809054159e-08 	3.339794168e-06
0.7968760713 	0.001812604386 	0.0006310951526 	1.184747776e-08 	0.001800248059 	-4.201306569e-08 	3.431773154e-06
0.814826083 	0.001872973837 	0.000649132137 	5.199856938e-09 	0.001855217285 	5.335807294e-09 	3.536559775e-06
0.831584949 	0.001952240272 	0.0006763539701 	2.641279668e-08 	0.001926138238 	6.566672244e-08 	3.671754823e-06
0.8472317127 	0.002059878353 	0.0007214849276 	4.875039576e-08 	0.002022369821 	1.275933751e-07 	3.855198967e-06
0.8618401721 	0.002205770093 	0.0007878273626 	7.252736164e-08 	0.002154019928 	1.922317684e-07 	4.106160662e-06
0.8754792281 	0.002398117931 	0.0008654517015 	9.955686711e-08 	0.002332032168 	2.650229016e-07 	4.445501468e-06
0.8882132094 	0.002650071228 	0.0009551053694 	1.303585141e-07 	0.002570419629 	3.481113257e-07 	4.899934225e-06
0.9001021759 	0.002975314668 	0.001071339779 	1.624322585e-07 	0.00288077517 	4.351413416e-07 	5.491558144e-06
0.9112022019 	0.003370442188 	0.001213024683 	1.880797977e-07 	0.003260235195 	5.052471498e-07 	6.214914417e-06
0.9215656407 	0.003812310798 	0.001371891671 	1.974424826e-07 	0.003686653249 	5.315489656e-07 	7.027785745e-06
0.9312413717 	0.004263522666 	0.001534448884 	1.877139816e-07 	0.004123715428 	5.062742531e-07 	7.860947733e-06
0.9402750304 	0.004689174731 	0.001688052032 	1.643663621e-07 	0.004537317468 	4.440187937e-07 	8.649388176e-06
0.9487092242 	0.005063592766 	0.00182335597 	1.344028006e-07 	0.004902133776 	3.635811085e-07 	9.344829454e-06
0.9565837329 	0.005365135926 	0.001932482476 	1.032130092e-07 	0.005196751227 	2.795248595e-07 	9.906452201e-06
0.9639356968 	0.005559675467 	0.002003041787 	7.640319037e-08 	0.00538757897 	2.070770657e-07 	1.027022292e-05
0.9688006083 	0.005646586794 	0.002034721048 	5.714316612e-08 	0.005473577736 	1.549272145e-07 	1.043416047e-05
0.9731064834 	0.005657490489 	0.002038916491 	4.324679546e-08 	0.005485419628 	1.172568469e-07 	1.04567344e-05
0.976917562 	0.005596379048 	0.002017104443 	3.2423137e-08 	0.005427122256 	8.790715521e-08 	1.034560341e-05
0.9802907021 	0.005450982161 	0.00196488964 	2.412582796e-08 	0.005286819356 	6.542541036e-08 	1.007814709e-05
0.9832762282 	0.005199894518 	0.001874653623 	1.796947098e-08 	0.005043778715 	4.883026764e-08 	9.614844076e-06
0.9859186816 	0.004813581142 	0.001736148828 	1.346550434e-08 	0.004669379035 	3.696404302e-08 	8.901134227e-06
0.9882574856 	0.004258291053 	0.001538037344 	1.002879559e-08 	0.004130903739 	2.81036173e-08 	7.874650651e-06
0.990327533 	0.003500097578 	0.001264024222 	7.566559745e-09 	0.003395267779 	2.10332197e-08 	6.472324053e-06
0.9921597073 	0.002540671619 	0.0009158993587 	5.487128587e-09 	0.002464385285 	1.479848407e-08 	4.697803293e-06
0.9937813429 	0.001532753616 	0.0005320083309 	2.750995577e-09 	0.001490865266 	8.743216125e-09 	2.842003562e-06
0.9948347186 	0.0007358950602 	0.0002160774378 	6.979390088e-10 	0.0007222158577 	4.006551546e-09 	1.376744154e-06
0.9958880943 	0.0002603132652 	5.26771739e-05 	1.377953661e-10 	0.0002580854779 	1.395068896e-09 	4.91982652e-07
0.9969414701 	5.418088698e-05 	5.577787115e-06 	1.119022703e-11 	5.399966531e-05 	2.898312624e-10 	1.029383705e-07
0.9979948458 	4.605301086e-06 	1.431137097e-07 	2.249099211e-13 	4.595951458e-06 	2.471265335e-11 	8.761160858e-09
0.9990482216 	6.140181676e-08 	2.121845576e-10 	2.555124588e-16 	6.128487816e-08 	3.297427928e-13 	1.16826011e-10
0.9990482216 	6.140181676e-08 	2.121845576e-10 	2.555124588e-16 	6.128487816e-08 	3.297427928e-13 	1.16826011e-10
