1.640171017e-35 	0.5892194153 	-4.004087934e-14 	-1.066630439e-18
0.001912604907 	0.5892313201 	-0.0001362180399 	1.107036144e-07
0.003825194192 	0.5892796519 	-0.000254305146 	2.039750111e-07
0.005737767794 	0.5893730161 	-0.0003743204306 	2.955659499e-07
0.007650325701 	0.5895059461 	-0.0004968837993 	3.86417271e-07
0.00956286795 	0.5897058915 	-0.0006377319811 	4.884127137e-07
0.01250713205 	0.5900351869 	-0.0008181883475 	6.117833017e-07
0.01583360909 	0.5905343856 	-0.00103335365 	7.517215488e-07
0.01959191156 	0.591239541 	-0.001276389057 	8.998848098e-07
0.02385649769 	0.5922175093 	-0.001551014911 	1.05461286e-06
0.02867914987 	0.5935524139 	-0.001860671005 	1.213415087e-06
0.03412783817 	0.5953508914 	-0.002208973002 	1.372565948e-06
0.04028381842 	0.597753199 	-0.00260055599 	1.527564738e-06
0.04727081711 	0.6009393315 	-0.003040222717 	1.671026516e-06
0.05516671354 	0.6051316643 	-0.003531902893 	1.794962334e-06
0.0641017149 	0.6111936269 	-0.004134273977 	1.913489669e-06
0.07764239172 	0.6203366467 	-0.004891546747 	1.93916587e-06
0.09218964228 	0.6326134703 	-0.005729932959 	1.882471987e-06
0.1078092542 	0.6478503317 	-0.006588372889 	1.707985236e-06
0.1245847907 	0.6664613086 	-0.007455390827 	1.406681744e-06
0.1426038343 	0.6889033963 	-0.008315872437 	9.730995558e-07
0.1619584402 	0.715679398 	-0.009146440922 	4.06088235e-07
0.17459936 	0.7349164869 	-0.009610790683 	6.472384497e-06
0.1827456333 	0.7473183023 	-0.009911484024 	3.249105626e-07
0.2050679472 	0.7843762323 	-0.01057360941 	1.232288153e-06
0.229034003 	0.8274939651 	-0.01108767088 	2.217212156e-06
0.2547591248 	0.877416941 	-0.01138114269 	3.206730669e-06
0.2823668212 	0.934955146 	-0.01136002163 	4.100747703e-06
0.3119969157 	1.000844086 	-0.01091774426 	4.770107456e-06
0.3437800877 	1.075356533 	-0.009925579197 	4.98582475e-06
0.3778714604 	1.156169147 	-0.008197854446 	4.895145624e-06
0.4144274988 	1.224304526 	-0.006251035112 	5.239235634e-06
0.4536170638 	1.25710475 	-0.005000359344 	5.730278517e-06
0.4956212291 	1.262117471 	-0.004251003492 	5.662988097e-06
0.5376461177 	1.257357644 	-0.003573402998 	5.308384018e-06
0.5768947117 	1.248808226 	-0.002989775464 	4.907523677e-06
0.6135457513 	1.238329714 	-0.002471316549 	4.488760638e-06
0.6477684763 	1.226418321 	-0.002005007327 	4.065950469e-06
0.6797223209 	1.2129781 	-0.001574567487 	3.647191527e-06
0.7095570023 	1.197614399 	-0.001174419602 	3.240638995e-06
0.7374124644 	1.179663646 	-0.0007957177832 	2.85894661e-06
0.7634198193 	1.157959156 	-0.0004230049441 	2.508928411e-06
0.7877015329 	1.130854672 	-3.674813867e-05 	2.189587181e-06
0.8103720244 	1.096819587 	0.0003769407261 	1.893084432e-06
0.8315381713 	1.055055527 	0.0008155040103 	1.606481576e-06
0.851299777 	1.005745592 	0.001262425848 	1.30848697e-06
0.8697500334 	0.9499343793 	0.001686872355 	9.697940335e-07
0.8869759541 	0.8892511071 	0.002046039454 	5.762634067e-07
0.9030587819 	0.8256859329 	0.002294750106 	1.466757539e-07
0.9180743698 	0.7613154927 	0.002398045984 	-2.743497037e-07
0.9320935383 	0.7023080281 	0.002343953399 	-6.069499776e-07
0.9413702454 	0.6550882431 	0.002185156072 	-8.063573771e-07
0.9495809481 	0.6163475712 	0.001975435437 	-9.079837406e-07
0.9568481429 	0.5816496651 	0.001729239632 	-9.410938043e-07
0.9632802503 	0.5501997734 	0.001466345076 	-9.168431475e-07
0.9689732317 	0.5208937243 	0.001203140335 	-8.483172639e-07
0.9740120216 	0.4922998347 	0.0009523100145 	-7.490778787e-07
0.9784717943 	0.4625592934 	0.0007218102417 	-6.302212662e-07
0.9824190858 	0.4291737642 	0.000514343716 	-4.987636187e-07
0.9859127864 	0.3886677102 	0.0003421209287 	-3.764022803e-07
0.9890050191 	0.3397919384 	0.0002447302021 	-2.703897606e-07
0.9910136596 	0.2853576491 	0.0001908433126 	-1.709990041e-07
0.9930223001 	0.2220101968 	9.656873497e-05 	-9.635318383e-08
0.9950309406 	0.1490622234 	1.116633672e-05 	-4.982276942e-08
0.9970395811 	0.0740119963 	-7.317287764e-06 	-1.68642896e-08
0.9990482216 	0.02093877619 	-2.229341328e-06 	-1.883015321e-09
0.9990482216 	0.02093877619 	-2.229341328e-06 	-1.883015321e-09
