0.2739420079 	1.104621146e-07 	-1.042210286e-09 	3.041845987e-12 	1.091296498e-07 	-1.380786578e-10 	2.080314436e-10
0.275272557 	1.190658914e-05 	-9.880351483e-07 	3.87889848e-09 	1.080415393e-05 	-2.217341282e-08 	2.059572025e-08
0.2766031854 	0.0001633406354 	-3.355920575e-05 	1.071449775e-07 	0.0001246991342 	-2.509338247e-07 	2.37711208e-07
0.2779335901 	0.0006964574379 	-0.0001834773258 	2.363833272e-07 	0.0004826296378 	-5.862893781e-07 	9.200262296e-07
0.2792634708 	0.00145072503 	-0.0004128407845 	6.400749736e-09 	0.000972896087 	-4.567672208e-07 	1.854610344e-06
0.2805925299 	0.002064077567 	-0.0006015851956 	-6.299594987e-07 	0.001379885174 	-8.212546243e-08 	2.630444662e-06
0.2826362867 	0.002328376366 	-0.0006757731366 	-3.833371045e-07 	0.001590384509 	-7.330651736e-07 	3.031714898e-06
0.2849408702 	0.002279970647 	-0.0006472514076 	-1.309857487e-07 	0.001671177635 	-2.915446929e-06 	3.185729052e-06
0.2875370716 	0.002133824157 	-0.0005578013749 	-8.209687334e-07 	0.00181882089 	-5.475083585e-06 	3.467178131e-06
0.2904580691 	0.001970931475 	-0.0004222622341 	-8.753262556e-07 	0.002068669687 	-7.001491068e-06 	3.94345938e-06
0.2938196317 	0.001836340707 	-0.0002969053049 	-5.762606194e-07 	0.002344648058 	-6.70660023e-06 	4.46955086e-06
0.2976320779 	0.001726858985 	-0.0001970058568 	-4.72129228e-07 	0.002576915323 	-5.049213006e-06 	4.912316822e-06
0.3019179803 	0.001638098927 	-0.0001103334953 	-3.104493024e-07 	0.002717982989 	-3.155562109e-06 	5.181231002e-06
0.3067337774 	0.001575579594 	-3.316024948e-05 	-4.321833801e-08 	0.002749281489 	-1.864247698e-06 	5.24089464e-06
0.3122569715 	0.001527041613 	2.543636102e-05 	1.856914596e-07 	0.002716562171 	-1.16882683e-06 	5.178522527e-06
0.3185112727 	0.001478736821 	6.104022062e-05 	2.485784971e-07 	0.002660702329 	-7.073894337e-07 	5.072038143e-06
0.3279565291 	0.001432614221 	8.139333321e-05 	1.357409677e-07 	0.002597887689 	-2.766553543e-07 	4.95229598e-06
0.3358853299 	0.001404078222 	9.129155588e-05 	5.822985104e-08 	0.002558042988 	-1.179771957e-06 	4.876340906e-06
0.3381259885 	0.001395768208 	9.401884528e-05 	3.386833983e-08 	0.002546323221 	-6.910427796e-08 	4.853999773e-06
0.3489508731 	0.001368986003 	0.0001029251762 	2.041500982e-07 	0.002510761539 	-3.579718007e-07 	4.786209324e-06
0.3605981766 	0.001350019828 	0.0001112171339 	3.916130019e-07 	0.002489059098 	-6.113915867e-07 	4.744838439e-06
0.3731708885 	0.0013374544 	0.0001202538482 	5.95894725e-07 	0.002478602512 	-8.356714734e-07 	4.724905279e-06
0.3867969958 	0.001330366778 	0.0001306339912 	8.175169999e-07 	0.002477944145 	-1.037780665e-06 	4.723650248e-06
0.4014972221 	0.001328154686 	0.0001428795472 	1.053061805e-06 	0.002485894571 	-1.223744838e-06 	4.73880597e-06
0.4173643717 	0.00133027319 	0.0001573172963 	1.298117831e-06 	0.002501267588 	-1.39794006e-06 	4.768111214e-06
0.4344885207 	0.001336305745 	0.0001741783283 	1.544276961e-06 	0.002522997241 	-1.567268707e-06 	4.809533972e-06
0.4530046648 	0.001345852088 	0.0001936448265 	1.404586836e-06 	0.002549905001 	-1.370288801e-06 	4.860827641e-06
0.4729699124 	0.001358459908 	0.00021574774 	1.213610149e-06 	0.002580538562 	-1.164957617e-06 	4.919223723e-06
0.4944634565 	0.001373691776 	0.0002405206398 	1.017681114e-06 	0.002613288923 	-9.870036568e-07 	4.981655013e-06
0.5176484568 	0.001391165798 	0.0002682330138 	8.249721039e-07 	0.002646179976 	-8.315321733e-07 	5.044354502e-06
0.542569778 	0.001410623119 	0.0002995802144 	6.435075782e-07 	0.002676473557 	-6.981728699e-07 	5.102102487e-06
0.5693462178 	0.001431928097 	0.0003351505497 	4.793341296e-07 	0.002700898111 	-5.847856454e-07 	5.148662476e-06
0.5980874262 	0.001454515235 	0.0003747956568 	3.387229031e-07 	0.002714886822 	-4.912701843e-07 	5.175328846e-06
0.6289040372 	0.001477067337 	0.0004170137314 	2.273674459e-07 	0.002712927943 	-4.175091563e-07 	5.17159468e-06
0.6597287896 	0.001497540049 	0.0004581314267 	1.472561965e-07 	0.002691733789 	-3.671088182e-07 	5.13119273e-06
0.6885070106 	0.001514907891 	0.00049493948 	9.027451132e-08 	0.002653369559 	-3.354861365e-07 	5.058059845e-06
0.7153735372 	0.001529605213 	0.0005267163597 	4.732747797e-08 	0.002601799816 	-3.129203036e-07 	4.959753583e-06
0.7404577418 	0.001542790007 	0.0005537488368 	1.826502308e-08 	0.002540640073 	-2.862367732e-07 	4.843166113e-06
0.763881608 	0.001555765385 	0.0005762255336 	1.290782089e-08 	0.002473724351 	-2.389274424e-07 	4.715606148e-06
0.7857594625 	0.001569408088 	0.0005949004676 	1.590395849e-08 	0.002405802333 	-1.870286421e-07 	4.586127906e-06
0.8061955834 	0.001584548114 	0.0006108854697 	4.421330542e-09 	0.002341494545 	-1.525549961e-07 	4.463539387e-06
0.8252873287 	0.001602290674 	0.0006250543161 	-2.249041437e-08 	0.002283882874 	-1.320858964e-07 	4.353715531e-06
0.8431242394 	0.001623840001 	0.0006380657333 	-5.091593102e-08 	0.002234974756 	-1.135362998e-07 	4.260483063e-06
0.8597896056 	0.001650569859 	0.0006504368295 	-5.82853407e-08 	0.002196187468 	-8.188412628e-08 	4.186543713e-06
0.8753606451 	0.001684764007 	0.0006635978656 	-4.837471703e-08 	0.002169102742 	-4.137535448e-08 	4.134912697e-06
0.8899091601 	0.001730479036 	0.0006796106763 	-3.247576543e-08 	0.002155405238 	2.462482365e-09 	4.108801447e-06
0.9035021065 	0.001793451562 	0.0007005454135 	-1.065919586e-08 	0.002157800201 	5.325790838e-08 	4.113366913e-06
0.9162019423 	0.00187996491 	0.0007284839262 	1.523393633e-08 	0.002181520276 	1.120309911e-07 	4.158583968e-06
0.9280669907 	0.001994897035 	0.0007652286396 	4.070152496e-08 	0.002233802113 	1.718213402e-07 	4.258247681e-06
0.939151752 	0.002138421871 	0.0008113960864 	5.681148647e-08 	0.002319371365 	2.094931264e-07 	4.421366458e-06
0.9495071738 	0.002288044564 	0.0008601285878 	5.200827733e-08 	0.002422838576 	1.915506717e-07 	4.618603718e-06
0.9563628554 	0.002411894214 	0.0009006772319 	2.651030968e-08 	0.002514159046 	1.164050725e-07 	4.792685916e-06
0.962432965 	0.002503902572 	0.0009303556945 	-9.236670163e-09 	0.002580861981 	1.127123473e-08 	4.919840249e-06
0.9678072944 	0.002564002661 	0.0009486248149 	-4.721191853e-08 	0.002618473456 	-1.031560988e-07 	4.991538175e-06
0.9725654226 	0.002584390371 	0.0009524424115 	-7.774075693e-08 	0.002617628091 	-1.995808584e-07 	4.989926674e-06
0.9767778614 	0.002557426834 	0.0009389741642 	-9.498146062e-08 	0.002570134251 	-2.597562535e-07 	4.899390214e-06
0.9805070848 	0.002470794374 	0.0009040932894 	-9.811539667e-08 	0.002464538584 	-2.80590893e-07 	4.698095524e-06
0.9838084378 	0.002302886296 	0.0008419728798 	-8.579617383e-08 	0.00228135353 	-2.756959694e-07 	4.348893898e-06
0.9867309446 	0.002017953784 	0.0007362819832 	-8.97986167e-08 	0.001987339776 	-2.809270928e-07 	3.788421966e-06
0.9893180269 	0.001581964298 	0.0005742155876 	-1.074576008e-07 	0.001550637828 	-2.988836927e-07 	2.955946677e-06
0.9916081409 	0.001049906728 	0.0003799767247 	-9.851049664e-08 	0.001025712051 	-2.713102967e-07 	1.955292251e-06
0.9930959046 	0.0005564985059 	0.0001893353851 	-6.206498954e-08 	0.0005446049803 	-1.788671494e-07 	1.038168458e-06
0.9945837944 	0.0002064453189 	5.500460056e-05 	-2.067840995e-08 	0.0002039123535 	-7.205533702e-08 	3.887136202e-07
0.9960718106 	4.124661961e-05 	6.214148211e-06 	-1.901634887e-09 	4.107989606e-05 	-1.197818397e-08 	7.830969945e-08
0.9975599529 	3.015494737e-06 	1.414548672e-07 	-2.314243235e-12 	3.009675128e-06 	-2.824425351e-10 	5.73727729e-09
0.9990482216 	2.80234283e-08 	1.349768323e-10 	8.590439018e-14 	2.797005727e-08 	9.922889676e-12 	5.331870303e-11
0.9990482216 	2.80234283e-08 	1.349768323e-10 	8.590439018e-14 	2.797005727e-08 	9.922889676e-12 	5.331870303e-11
