0.4709558481 	9.358083287e-08 	-3.998843833e-10 	3.426257565e-14 	9.340248659e-08 	-5.494394156e-12 	1.780510993e-10
0.4720092239 	7.692964229e-06 	-2.944669873e-07 	2.514057629e-11 	7.676823675e-06 	-4.517056471e-10 	1.463415959e-08
0.4730625996 	9.019100419e-05 	-1.12277127e-05 	9.289171878e-10 	8.982434882e-05 	-5.265013767e-09 	1.712301742e-07
0.4741159754 	0.000425720022 	-9.944924541e-05 	7.365903083e-09 	0.0004208611205 	-2.357112917e-08 	8.02278268e-07
0.4751693511 	0.001149029262 	-0.0003698724526 	2.270632477e-08 	0.001122286599 	-5.57107748e-08 	2.139390181e-06
0.4762227269 	0.002223738851 	-0.0007923841616 	3.513899966e-08 	0.002158672091 	-8.77513443e-08 	4.115028977e-06
0.4778443634 	0.003456067367 	-0.001246428593 	4.141878429e-08 	0.003351772076 	-1.106850001e-07 	6.389409153e-06
0.4796765386 	0.004549564573 	-0.001643871229 	4.588400863e-08 	0.004412261954 	-1.214367127e-07 	8.410997608e-06
0.4817465869 	0.005348815652 	-0.001932029595 	4.500553878e-08 	0.005186932945 	-1.19023256e-07 	9.887735827e-06
0.4840853915 	0.005882372706 	-0.002121146464 	3.981294737e-08 	0.005703444071 	-1.057692327e-07 	1.087234959e-05
0.4867278453 	0.006201275742 	-0.002235033357 	3.073721099e-08 	0.00601136423 	-8.148544157e-08 	1.145933099e-05
0.4897133715 	0.006347126595 	-0.00228704329 	1.711435781e-08 	0.006151102365 	-4.466612021e-08 	1.172571072e-05
0.4930865115 	0.006352628242 	-0.002288559149 	-1.796192808e-09 	0.00615441596 	6.521105205e-09 	1.173202735e-05
0.4968975894 	0.006238313818 	-0.002246890616 	-2.70906777e-08 	0.006041263121 	7.49697947e-08 	1.151632659e-05
0.5012034633 	0.006013089852 	-0.002165246846 	-6.028960508e-08 	0.00582035078 	1.647653139e-07 	1.109520627e-05
0.506068373 	0.005641770454 	-0.002030948076 	-1.07345455e-07 	0.005457491206 	2.919394434e-07 	1.040349507e-05
0.5134203412 	0.005056798684 	-0.001819790496 	-1.73610779e-07 	0.004887519945 	4.707484549e-07 	9.316971432e-06
0.5212948542 	0.004290733282 	-0.001543767408 	-2.421112265e-07 	0.004143196776 	6.552390333e-07 	7.898084597e-06
0.529729052 	0.003461164764 	-0.001245360269 	-2.781322549e-07 	0.003339148025 	7.520037188e-07 	6.365344204e-06
0.5387627144 	0.002694220459 	-0.0009696642474 	-2.611881126e-07 	0.002597188458 	7.045578771e-07 	4.950963052e-06
0.5484384488 	0.002070415626 	-0.0007114374468 	-2.732588489e-07 	0.002002362922 	5.553445574e-07 	3.817060258e-06
0.5588018907 	0.001621698143 	-0.0004713503243 	-2.636093555e-07 	0.00158485834 	3.519695433e-07 	3.021180485e-06
0.5699019192 	0.00136268651 	-0.0002879129425 	-1.908397988e-07 	0.001347920658 	1.421397475e-07 	2.569511409e-06
0.5817908876 	0.001254578977 	-0.0001492562745 	-1.530555508e-07 	0.001253298289 	-1.275426516e-08 	2.389134874e-06
0.5945248701 	0.001237076882 	-3.088162159e-05 	-1.3543193e-07 	0.001244712573 	-1.067091651e-07 	2.372768115e-06
0.6081639266 	0.001265022453 	7.249469296e-05 	-1.180213618e-07 	0.001278398628 	-1.566407463e-07 	2.436983098e-06
0.6227723857 	0.001314118897 	0.0001630896252 	-9.866687981e-08 	0.001330843393 	-1.824504579e-07 	2.536957395e-06
0.638419148 	0.001373012366 	0.0002442645751 	-7.427138926e-08 	0.001390989767 	-1.927242593e-07 	2.651613101e-06
0.6551780116 	0.001436103644 	0.0003181208068 	-4.150042059e-08 	0.001453352379 	-1.895813481e-07 	2.770493572e-06
0.6731280194 	0.001500140999 	0.0003855944983 	-4.188604181e-10 	0.001514948007 	-1.730730985e-07 	2.88791196e-06
0.6923538328 	0.001562892222 	0.0004468996547 	4.389424385e-08 	0.001573993235 	-1.434531037e-07 	3.000468574e-06
0.7129461301 	0.001622760212 	0.0005018157342 	7.538851434e-08 	0.00162945023 	-1.039332579e-07 	3.106185021e-06
0.7350020349 	0.00167815755 	0.0005489264146 	5.958407784e-08 	0.001680209734 	-6.734522632e-08 	3.202946744e-06
0.7570579485 	0.001728042245 	0.0005872373067 	1.220838323e-08 	0.001725428959 	-4.313625806e-08 	3.289147154e-06
0.7776502527 	0.001773818937 	0.0006174687802 	-3.626171196e-08 	0.001766533731 	-2.997943654e-08 	3.367504274e-06
0.7968760713 	0.001820140146 	0.0006430999497 	-7.81481973e-08 	0.001807640001 	-2.092758374e-08 	3.44586425e-06
0.814826083 	0.001871652487 	0.0006631094044 	-9.238401695e-08 	0.001853545909 	-6.047447903e-09 	3.533373669e-06
0.831584949 	0.001936478671 	0.0006840862794 	-7.299164853e-08 	0.001911470691 	2.404768343e-08 	3.643794403e-06
0.8472317127 	0.002025430639 	0.0007185090992 	-2.765051366e-08 	0.001990719473 	7.674992493e-08 	3.794864608e-06
0.8618401721 	0.002148359469 	0.0007709912193 	3.835575357e-08 	0.002101104141 	1.547845878e-07 	4.005288464e-06
0.8754792281 	0.002314687307 	0.0008359696926 	9.637691124e-08 	0.002254067765 	2.527370949e-07 	4.296879646e-06
0.8882132094 	0.002538455048 	0.0009153226751 	1.371723732e-07 	0.002464416563 	3.642124107e-07 	4.697862918e-06
0.9001021759 	0.00283475452 	0.001020972175 	1.7989629e-07 	0.002745944069 	4.808543895e-07 	5.23453259e-06
0.9112022019 	0.003206848656 	0.00115420219 	2.15346212e-07 	0.003102309386 	5.776059017e-07 	5.913863933e-06
0.9215656407 	0.003640160959 	0.001309840964 	2.309479121e-07 	0.003519719086 	6.20750113e-07 	6.709562833e-06
0.9312413717 	0.004100108234 	0.001475434749 	2.2149393e-07 	0.003964677247 	5.963417877e-07 	7.557776759e-06
0.9402750304 	0.004546535589 	0.001636459573 	1.943036585e-07 	0.00439805971 	5.239613615e-07 	8.383924185e-06
0.9487092242 	0.004947195482 	0.001781196265 	1.591281822e-07 	0.004788181295 	4.296904959e-07 	9.127604354e-06
0.9565837329 	0.005275872679 	0.001900110007 	1.223284848e-07 	0.005109155304 	3.306818271e-07 	9.739470025e-06
0.9639356968 	0.005493574552 	0.00197904707 	9.074400409e-08 	0.00532259975 	2.455044111e-07 	1.014635446e-05
0.9688006083 	0.005596993795 	0.002016711609 	6.820628528e-08 	0.005424785442 	1.846233386e-07 	1.034114879e-05
0.9731064834 	0.00561972263 	0.002025202383 	5.208339192e-08 	0.005448257552 	1.410181331e-07 	1.038589316e-05
0.976917562 	0.005567768776 	0.002006721692 	3.961886229e-08 	0.005398983878 	1.072920738e-07 	1.029196384e-05
0.9802907021 	0.005429356908 	0.001957052987 	3.011837692e-08 	0.005265572812 	8.160400884e-08 	1.003764527e-05
0.9832762282 	0.005183414612 	0.001868704412 	2.308224994e-08 	0.005027614782 	6.267969262e-08 	9.584031127e-06
0.9859186816 	0.004800791658 	0.001731585904 	1.789814973e-08 	0.004656863 	4.905689068e-08 	8.877275186e-06
0.9882574856 	0.004248293864 	0.001534537516 	1.391204277e-08 	0.004121143099 	3.868591643e-08 	7.85604416e-06
0.990327533 	0.00349239358 	0.00126131005 	1.090920632e-08 	0.00338776422 	3.006247066e-08 	6.458020183e-06
0.9921597073 	0.002535095017 	0.000913889988 	8.129916211e-09 	0.00245896533 	2.192432805e-08 	4.687471353e-06
0.9937813429 	0.001529365009 	0.0005309201826 	4.53621429e-09 	0.001487550337 	1.358127926e-08 	2.835684386e-06
0.9948347186 	0.0007342947998 	0.0002157271295 	1.578021944e-09 	0.000720625828 	6.624454821e-09 	1.373713116e-06
0.9958880943 	0.0002597422079 	5.259579765e-05 	3.810837834e-10 	0.0002575163249 	2.393313626e-09 	4.908976882e-07
0.9969414701 	5.406129536e-05 	5.569788346e-06 	3.884036826e-11 	5.388033754e-05 	5.030531885e-10 	1.027108986e-07
0.9979948458 	4.595108597e-06 	1.429221024e-07 	9.550232181e-13 	4.585778659e-06 	4.286384428e-11 	8.741768675e-09
0.9990482216 	6.126587294e-08 	2.119184584e-10 	1.358932838e-15 	6.114919306e-08 	5.715479134e-13 	1.165673575e-10
0.9990482216 	6.126587294e-08 	2.119184584e-10 	1.358932838e-15 	6.114919306e-08 	5.715479134e-13 	1.165673575e-10
