0 	0.95667781 	-6.4972686e-14 	-2.3615852e-20
0.010309278 	0.95510229 	0.0029265194 	2.4004239e-07
0.020618557 	0.95662749 	0.0076332474 	3.8227547e-06
0.030927835 	0.96095452 	0.012728841 	3.4548985e-07
0.041237113 	0.96812462 	0.017906329 	-6.5334038e-07
0.051546392 	0.97009773 	0.063715688 	0.0017603983
0.06185567 	0.97979531 	0.064120829 	0.0012019219
0.072164948 	0.99131808 	0.057928682 	0.00020504894
0.082474227 	0.99944676 	0.06716741 	-0.00022823603
0.092783505 	1.0077222 	0.077236462 	-4.1342638e-05
0.10309278 	1.0176623 	0.086238982 	0.00019581332
0.11340206 	1.0261442 	0.087890372 	-0.00026460996
0.12371134 	1.0330534 	0.091465212 	-9.1887005e-05
0.13402062 	1.0364526 	0.094622066 	-0.00031094361
0.1443299 	1.0398518 	0.09777892 	-4.2861183e-05
0.15463918 	1.0472471 	0.098438783 	4.4540778e-05
0.16494845 	1.0481963 	0.10090011 	-0.00016069139
0.17525773 	1.0560446 	0.10225855 	9.1739163e-05
0.18556701 	1.0663389 	0.10176716 	0.00021101952
0.19587629 	1.0603072 	0.10363412 	-2.681745e-05
0.20618557 	1.0723172 	0.10310539 	0.00017748935
0.21649485 	1.0828036 	0.10212961 	0.00021816648
0.22680412 	1.0771364 	0.10352212 	1.5291427e-05
0.2371134 	1.0854516 	0.10175004 	5.7925507e-05
0.24742268 	1.0965378 	0.10018594 	0.00014575271
0.25773196 	1.0940249 	0.10059898 	-6.3458981e-05
0.26804124 	1.0984075 	0.098681171 	-8.5506235e-05
0.27835052 	1.1067275 	0.096696563 	7.7674199e-05
0.28865979 	1.1070035 	0.096154218 	-0.00011414929
0.29896907 	1.1102054 	0.094308758 	-0.00024279096
0.30927835 	1.1134073 	0.092463298 	-4.5438347e-05
0.31958763 	1.1160836 	0.090854106 	-0.00013438055
0.32989691 	1.1184396 	0.088739473 	-0.00031002789
0.34020619 	1.1208309 	0.086560806 	-6.2996097e-05
0.35051546 	1.1223814 	0.084149266 	-5.65487e-05
0.36082474 	1.1237743 	0.082168874 	-0.00024451755
0.37113402 	1.1251672 	0.080188481 	-3.3634711e-05
0.3814433 	1.1258098 	0.077675975 	2.5110221e-05
0.39175258 	1.1262333 	0.07581464 	-0.00013060707
0.40206186 	1.126766 	0.074003904 	-4.0414063e-05
0.41237113 	1.1271076 	0.071625292 	9.2590459e-05
0.42268041 	1.1264072 	0.069730334 	-1.6309353e-05
0.43298969 	1.126209 	0.068083448 	-7.1639589e-05
0.44329897 	1.1260368 	0.066147065 	6.0353731e-05
0.45360825 	1.1252343 	0.064180506 	6.670122e-05
0.46391753 	1.1239931 	0.062489333 	-3.355845e-05
0.4742268 	1.1231996 	0.060955752 	8.8643209e-06
0.48453608 	1.1225909 	0.059050853 	0.0001047742
0.49484536 	1.1209381 	0.057387973 	5.936099e-05
0.50515464 	1.11918 	0.055847772 	-2.7058e-05
0.51546392 	1.1179831 	0.054377735 	3.4768767e-05
0.5257732 	1.116957 	0.052742246 	0.00011555317
0.53608247 	1.1146819 	0.051207662 	6.0441977e-05
0.54639175 	1.1123538 	0.049734894 	-1.6920794e-05
0.55670103 	1.1108602 	0.048358464 	4.8795212e-05
0.56701031 	1.1095107 	0.046919884 	0.00012122197
0.57731959 	1.1064924 	0.045471225 	4.863167e-05
0.58762887 	1.1037577 	0.044101162 	2.9342111e-06
0.59793814 	1.1021174 	0.042759846 	7.261691e-05
0.60824742 	1.099724 	0.041414929 	8.4853827e-05
0.6185567 	1.0962318 	0.040064758 	1.3263474e-05
0.62886598 	1.0938949 	0.038807866 	4.2675371e-05
0.63917526 	1.0918322 	0.037541077 	0.00010032339
0.64948454 	1.0878908 	0.0362728 	2.9765378e-05
0.65979381 	1.0848453 	0.035057071 	2.859382e-05
0.67010309 	1.0826445 	0.033846577 	9.4203287e-05
0.68041237 	1.078319 	0.032646858 	2.8955197e-05
0.69072165 	1.0749086 	0.031485384 	2.830581e-05
0.70103093 	1.0722157 	0.030320825 	8.1752165e-05
0.71134021 	1.0673449 	0.02917937 	1.3579498e-05
0.72164948 	1.0639528 	0.028067125 	4.0026984e-05
0.73195876 	1.0601267 	0.026950246 	5.2757777e-05
0.74226804 	1.0550087 	0.025880541 	1.5467647e-06
0.75257732 	1.0517651 	0.024776758 	6.2092987e-05
0.7628866 	1.0461374 	0.02371694 	1.3503682e-05
0.77319588 	1.0417478 	0.022672094 	3.4046103e-05
0.78350515 	1.0365043 	0.021622289 	2.9489421e-05
0.79381443 	1.0308791 	0.020614191 	1.6703708e-05
0.80412371 	1.0255955 	0.019573505 	3.5366064e-05
0.81443299 	1.018939 	0.018594623 	8.7028619e-06
0.82474227 	1.0131181 	0.017567023 	3.2549139e-05
0.83505155 	1.0056605 	0.016605176 	8.6642331e-06
0.84536082 	0.99871721 	0.015595951 	2.2465859e-05
0.8556701 	0.99073295 	0.014638679 	1.5134854e-05
0.86597938 	0.98197595 	0.013645324 	6.6201431e-06
0.87628866 	0.97379027 	0.012685719 	2.6586201e-05
0.88659794 	0.96290666 	0.011722914 	-2.5222278e-06
0.89690722 	0.95269554 	0.010739117 	1.1979109e-05
0.90721649 	0.94120935 	0.0097947661 	1.7152847e-05
0.91752577 	0.92692218 	0.0088136701 	3.6104664e-07
0.92783505 	0.91091521 	0.0077904932 	-3.9616359e-07
0.93814433 	0.89257863 	0.0068800701 	4.8259248e-06
0.94845361 	0.8658425 	0.0058268393 	-4.0548878e-06
0.95876289 	0.83050967 	0.0048480369 	7.3141217e-06
0.96907216 	0.77312846 	0.0036721461 	1.0054353e-06
0.97938144 	0.67761013 	0.0024008601 	3.7656502e-06
0.98969072 	0.46603265 	0.0010024904 	2.1671072e-06
