0 	0.0017237834 	-1.1707059e-16 	-4.2552062e-23 	7.9508387e-30 	2.8899194e-36 	1.0504092e-42
0.010309278 	0.0016457362 	-0.00013429133 	1.4335318e-08 	0.00071054204 	-9.8523464e-08 	0.00020678357
0.020618557 	0.0016435166 	-0.00017238366 	2.0057466e-07 	0.00072454867 	-1.2413418e-06 	0.00041314507
0.030927835 	0.0016263905 	-0.00020909615 	3.1496924e-08 	0.0007357842 	-1.7849451e-07 	0.000603204
0.041237113 	0.0016184301 	-0.00024496414 	8.0808018e-08 	0.00074809708 	-4.5110217e-07 	0.00078212925
0.051546392 	0.0016231994 	-0.00025289136 	-3.1673954e-06 	0.00087151122 	3.5160743e-06 	0.00017282129
0.06185567 	0.0016231816 	-0.00027847258 	-2.4745176e-06 	0.0008765102 	2.5539464e-06 	0.00030092589
0.072164948 	0.0016209239 	-0.00031204875 	-4.7354541e-07 	0.00086336019 	4.7043441e-07 	0.00060866704
0.082474227 	0.0016213171 	-0.00033322164 	4.9145342e-07 	0.0009001339 	-1.4669667e-06 	0.00055123409
0.092783505 	0.0016224347 	-0.00034780787 	9.6636347e-08 	0.00094370906 	-2.8090596e-07 	0.00038603347
0.10309278 	0.0016301273 	-0.00035620218 	-5.4728972e-07 	0.0009962839 	5.1959556e-07 	9.1250847e-05
0.11340206 	0.0016309475 	-0.00037366049 	6.5278368e-07 	0.0010189193 	-1.8549744e-06 	8.9516599e-05
0.12371134 	0.0016361344 	-0.00038467263 	2.3619601e-07 	0.0010514917 	-6.5417905e-07 	4.0052653e-05
0.13402062 	0.0016406293 	-0.0003933204 	7.992821e-07 	0.0010780701 	-2.2137276e-06 	0.00013986901
0.1443299 	0.0016451242 	-0.00040196817 	1.1017489e-07 	0.0011046484 	-3.0514531e-07 	0.00023968536
0.15463918 	0.0016419709 	-0.00040899422 	2.9173758e-07 	0.001135034 	-2.8234134e-07 	0.00026587783
0.16494845 	0.0016550022 	-0.0004189302 	4.2448291e-07 	0.0011563805 	-1.1381652e-06 	0.00044088919
0.17525773 	0.0016438955 	-0.00042448149 	5.5585153e-07 	0.0011959693 	-3.7849916e-07 	0.00036611712
0.18556701 	0.001627814 	-0.00042909148 	1.2785763e-06 	0.0012387983 	-8.7062829e-07 	0.0002416756
0.19587629 	0.0016721026 	-0.00044499326 	7.2336188e-08 	0.0012371133 	-1.8527765e-07 	0.00074010953
0.20618557 	0.0016394749 	-0.00044538713 	1.0370468e-06 	0.0012958035 	-3.7299492e-07 	0.0004130315
0.21649485 	0.0016156165 	-0.00044779592 	1.2747179e-06 	0.001347776 	-4.5847814e-07 	0.00018361652
0.22680412 	0.0016649635 	-0.00046607771 	8.934579e-08 	0.0013439075 	-3.2135025e-08 	0.00074441035
0.2371134 	0.0016418251 	-0.00046624817 	3.3772557e-07 	0.0013976154 	-2.4490333e-09 	0.00049562236
0.24742268 	0.001605076 	-0.00046378569 	8.4978826e-07 	0.0014630621 	-6.1622806e-09 	9.3715898e-05
0.25773196 	0.001641271 	-0.00048016148 	1.022567e-07 	0.0014718465 	-2.2732699e-07 	0.00051763683
0.26804124 	0.0016334631 	-0.00048222366 	1.3778326e-07 	0.00151625 	-3.0630614e-07 	0.00042861543
0.27835052 	0.0016008263 	-0.00047692648 	4.6576114e-07 	0.0015815945 	1.7051451e-07 	3.8408062e-05
0.28865979 	0.0016187016 	-0.00048822811 	2.2371927e-07 	0.0016078024 	-3.7884453e-07 	0.00025761668
0.29896907 	0.001612308 	-0.00048852823 	4.7584191e-07 	0.0016544822 	-8.057871e-07 	0.00017520645
0.30927835 	0.0016059145 	-0.00048882835 	8.9053848e-08 	0.0017011621 	-1.5080312e-07 	9.2796215e-05
0.31958763 	0.0015999574 	-0.00048822373 	3.4027803e-07 	0.0017497142 	-3.8037154e-07 	1.5229728e-05
0.32989691 	0.0015960037 	-0.00048611357 	7.8505173e-07 	0.0018000016 	-8.7755102e-07 	5.8660581e-05
0.34020619 	0.0015923719 	-0.00048407062 	1.5951854e-07 	0.0018504407 	-1.7831392e-07 	0.00012438812
0.35051546 	0.0015882038 	-0.00047695478 	2.0005888e-07 	0.001902222 	-1.1656451e-07 	0.00018818554
0.36082474 	0.0015840652 	-0.00047049193 	8.6505801e-07 	0.0019560659 	-5.0402694e-07 	0.00024681631
0.37113402 	0.0015799265 	-0.00046402907 	1.1899341e-07 	0.0020099098 	-6.9331632e-08 	0.00030544707
0.3814433 	0.001582987 	-0.00044704459 	4.8859417e-07 	0.0020540825 	3.7371013e-07 	0.00024327743
0.39175258 	0.0015697498 	-0.00043416838 	6.9971743e-07 	0.0021192677 	-1.3229941e-07 	0.00041608457
0.40206186 	0.0015643964 	-0.00042077605 	2.1651526e-07 	0.0021764478 	-4.0937729e-08 	0.00046704517
0.41237113 	0.0015902463 	-0.00039788981 	2.1060463e-06 	0.0021945945 	1.2318924e-06 	3.0101671e-05
0.42268041 	0.0015529736 	-0.00037002506 	1.8605712e-07 	0.0022815223 	-7.3197062e-08 	0.00056712601
0.43298969 	0.0015442742 	-0.0003370567 	8.1726452e-07 	0.002325827 	-3.2152149e-07 	0.00061007056
0.44329897 	0.0015587477 	-0.00030120874 	1.305369e-06 	0.0023368765 	8.2367586e-07 	0.00029992465
0.45360825 	0.0015625031 	-0.000259583 	1.4426565e-06 	0.002359071 	9.1030303e-07 	0.00032464899
0.46391753 	0.0015430892 	-0.00021452538 	5.6489214e-07 	0.0024076927 	-4.0205692e-07 	0.00078268861
0.4742268 	0.0015405517 	-0.0001687056 	1.487083e-07 	0.0024236758 	1.4091294e-07 	0.00075786522
0.48453608 	0.0015664395 	-0.00012775849 	1.7576974e-06 	0.0023954262 	1.665558e-06 	0.00012619483
0.49484536 	0.0015717817 	-8.2151637e-05 	9.9584301e-07 	0.0024004054 	9.4364042e-07 	0.00053715982
0.50515464 	0.0015724498 	-3.6690172e-05 	4.5085157e-07 	0.0024120944 	-4.4996036e-07 	0.0010399889
0.51546392 	0.0015784293 	6.8245383e-07 	4.4695793e-07 	0.0024123388 	4.9616437e-07 	0.00076536487
0.5257732 	0.0015905402 	3.2347001e-05 	1.4854541e-06 	0.0024022682 	1.6489905e-06 	8.5304261e-05
0.53608247 	0.0016022257 	7.1741827e-05 	7.7699106e-07 	0.0024020155 	8.6253146e-07 	0.00065597016
0.54639175 	0.00161257 	0.00011110532 	2.4938346e-07 	0.0024038165 	-3.1064733e-07 	0.0012688212
0.55670103 	0.0016175004 	0.00013922857 	4.9021276e-07 	0.0024009815 	4.5367572e-07 	0.00076475793
0.56701031 	0.0016227056 	0.00016432816 	1.2178358e-06 	0.0023942514 	1.1270668e-06 	4.6970697e-06
0.57731959 	0.0016391976 	0.00019945342 	4.8856976e-07 	0.0023910745 	4.5215518e-07 	0.00086621776
0.58762887 	0.0016518452 	0.00023224463 	2.3591911e-08 	0.0023891943 	1.5101401e-08 	0.0014110692
0.59793814 	0.0016517197 	0.00025317829 	5.8386108e-07 	0.0023828943 	3.737349e-07 	0.00052832797
0.60824742 	0.0016591476 	0.00027769074 	6.8224945e-07 	0.0023761617 	4.3671422e-07 	0.00040318096
0.6185567 	0.0016775977 	0.0003074255 	1.0664219e-07 	0.0023687975 	6.8262658e-08 	0.0013835468
0.62886598 	0.0016790229 	0.0003289366 	2.8093377e-07 	0.0023625113 	7.3889159e-08 	0.00093407579
0.63917526 	0.0016760132 	0.00034765559 	6.6043312e-07 	0.0023549725 	1.7370232e-07 	8.2610569e-05
0.64948454 	0.001694521 	0.00037329325 	1.9594674e-07 	0.0023433901 	5.1536488e-08 	0.0011775702
0.65979381 	0.0016991864 	0.00039430326 	1.6038408e-07 	0.0023338336 	-3.0716524e-08 	0.001154013
0.67010309 	0.0016906946 	0.00041069378 	5.2839068e-07 	0.0023249783 	-1.0119661e-07 	3.8905794e-05
0.68041237 	0.0017071723 	0.00043325536 	1.6241106e-07 	0.0023096018 	-3.1104729e-08 	0.0011729412
0.69072165 	0.0017094788 	0.00045226422 	1.4411479e-07 	0.0022969748 	-9.5393611e-08 	0.0011327838
0.70103093 	0.0016999135 	0.00046811423 	4.162289e-07 	0.0022854369 	-2.7551356e-07 	0.00010823327
0.71134021 	0.0017151925 	0.0004891075 	6.9137981e-08 	0.0022661605 	-4.5764365e-08 	0.0014215604
0.72164948 	0.0017090018 	0.000505772 	1.9858475e-07 	0.0022519872 	-2.0717879e-07 	0.00082535408
0.73195876 	0.0017051432 	0.00052279156 	2.6174568e-07 	0.0022353739 	-2.730731e-07 	0.00054852543
0.74226804 	0.00171454 	0.00054237539 	7.9502429e-09 	0.0022142664 	-1.0047631e-08 	0.0016308699
0.75257732 	0.0016981977 	0.00055743292 	3.1915282e-07 	0.0021994877 	-4.0334992e-07 	0.00019415079
0.7628866 	0.0017053007 	0.00057708546 	6.9407808e-08 	0.0021756818 	-8.7718585e-08 	0.0013253444
0.77319588 	0.0016963571 	0.000593912 	1.8754029e-07 	0.0021571278 	-2.492411e-07 	0.00074623397
0.78350515 	0.0016923613 	0.00061221578 	1.6244017e-07 	0.0021352902 	-2.1588303e-07 	0.00084696567
0.79381443 	0.0016896553 	0.00063090428 	9.8453513e-08 	0.0021127626 	-1.2826316e-07 	0.0011170767
0.80412371 	0.001679569 	0.00064850567 	2.0845152e-07 	0.0020920505 	-2.7156625e-07 	0.0005636843
0.81443299 	0.001679144 	0.00066850153 	5.3064541e-08 	0.0020673999 	-6.6558948e-08 	0.0012788261
0.82474227 	0.0016674371 	0.00068572437 	1.9846404e-07 	0.00204673 	-2.489338e-07 	0.00050449762
0.83505155 	0.0016661087 	0.00070575908 	5.1300927e-08 	0.0020219477 	-6.3545574e-08 	0.0012052704
0.84536082 	0.001656516 	0.00072275582 	1.3302036e-07 	0.0020003369 	-1.6477003e-07 	0.00069811224
0.8556701 	0.001651586 	0.00074047069 	8.0451705e-08 	0.001976985 	-1.0548617e-07 	0.0008691334
0.86597938 	0.0016471222 	0.00075729803 	3.5190416e-08 	0.0019536341 	-4.6140753e-08 	0.0011747857
0.87628866 	0.0016367526 	0.00076969913 	1.0304272e-07 	0.0019318984 	-1.8708849e-07 	0.00024073693
0.88659794 	0.0016369088 	0.00078666746 	9.405299e-09 	0.0019072162 	-1.1532849e-07 	0.001385378
0.89690722 	0.0016312314 	0.00079285185 	-7.032314e-09 	0.0018827965 	-9.5198554e-08 	0.00076061426
0.90721649 	0.0016295153 	0.00079596985 	-1.2666089e-07 	0.0018566867 	-1.5762876e-07 	0.00033954921
0.91752577 	0.0016348342 	0.00079614617 	-3.694902e-09 	0.0018297457 	-3.4216823e-09 	0.0012877516
0.92783505 	0.0016416538 	0.00079447644 	-4.5712265e-09 	0.0018041573 	-1.8114546e-08 	0.0012897567
0.93814433 	0.0016520093 	0.0007946386 	-4.0372099e-08 	0.0017850131 	-3.8634191e-08 	0.00086513123
0.94845361 	0.0016739767 	0.00079885802 	-1.4854973e-08 	0.001773494 	-1.047287e-07 	0.0012620427
0.95876289 	0.0016956908 	0.00080416492 	-4.4454079e-08 	0.00176899 	-5.1335567e-08 	0.00025019448
0.96907216 	0.0016925538 	0.00079803506 	-2.2356423e-08 	0.0017421174 	-4.3671451e-08 	0.0010385982
0.97938144 	0.0015227054 	0.00072140348 	-2.1639795e-07 	0.0015507827 	-4.9880138e-07 	0.00019130895
0.98969072 	0.0006880605 	0.00032140636 	-3.2434551e-07 	0.00069234388 	-6.8926691e-07 	7.1508367e-05
