0.4742268 	0.36537858 	2.6136616e-05 	-1.7604723e-09
0.48453608 	1.0053876 	0.00049737132 	1.9520475e-09
0.49484536 	1.2357141 	0.0010530576 	2.964488e-06
0.50515464 	1.3629542 	0.0016213702 	1.5088188e-07
0.51546392 	1.4170641 	0.001956514 	6.7603336e-07
0.5257732 	1.4380651 	0.0021174025 	-1.572817e-07
0.53608247 	1.4465908 	0.0020959877 	-2.7839698e-07
0.54639175 	1.4499987 	0.0021002678 	-7.7390578e-08
0.55670103 	1.4510813 	0.0020655873 	-1.0988896e-07
0.56701031 	1.4509235 	0.0020212587 	-3.5940112e-07
0.57731959 	1.449996 	0.0019661404 	-9.6394234e-07
0.58762887 	1.4485366 	0.0019039665 	-1.5587439e-06
0.59793814 	1.4466819 	0.0018361841 	-4.8329248e-07
0.60824742 	1.4444486 	0.0017618108 	-1.5855851e-07
0.6185567 	1.4419613 	0.0016848678 	-7.8475698e-07
0.62886598 	1.4392189 	0.0016030389 	-1.6250959e-06
0.63917526 	1.4362571 	0.0015168195 	-9.0019203e-08
0.64948454 	1.433117 	0.0014284803 	-1.3516569e-06
0.65979381 	1.4298111 	0.0013369294 	-7.6459555e-07
0.67010309 	1.4263352 	0.0012421914 	-3.1576948e-10
0.68041237 	1.4226966 	0.001145226 	-1.9870679e-06
0.69072165 	1.4189249 	0.0010456804 	-2.4701903e-08
0.70103093 	1.4150454 	0.00094583164 	-2.5578912e-06
0.71134021 	1.411021 	0.00084320141 	-1.3059312e-08
0.72164948 	1.4069408 	0.0007420509 	-2.3784578e-06
0.73195876 	1.4027794 	0.00064004254 	3.6294088e-11
0.74226804 	1.398432 	0.00053687847 	-1.6496069e-06
0.75257732 	1.3940404 	0.00043407327 	-3.4319882e-07
0.7628866 	1.3894358 	0.00032989146 	-1.0705646e-06
0.77319588 	1.3847088 	0.00022587177 	-4.3690834e-07
0.78350515 	1.3798277 	0.00012292744 	-1.1612892e-06
0.79381443 	1.3748236 	1.8813566e-05 	3.2256018e-09
0.80412371 	1.3696127 	-8.5944174e-05 	-1.840206e-06
0.81443299 	1.3643113 	-0.00018847655 	5.920185e-08
0.82474227 	1.3586829 	-0.00029063643 	-1.6386843e-06
0.83505155 	1.3528916 	-0.0003905047 	-3.2539613e-07
0.84536082 	1.3467792 	-0.00049096147 	2.8370054e-08
0.8556701 	1.3402138 	-0.00059164481 	-1.4350172e-06
0.86597938 	1.3332606 	-0.00068899118 	-6.7715924e-07
0.87628866 	1.3258139 	-0.00078378285 	7.6396528e-08
0.88659794 	1.3176649 	-0.00087758901 	3.3569625e-08
0.89690722 	1.3087085 	-0.00096866569 	-3.9468829e-07
0.90721649 	1.2987304 	-0.0010558619 	-6.542216e-07
0.91752577 	1.2872379 	-0.0011360353 	-6.1168735e-07
0.92783505 	1.2731862 	-0.0012008208 	-3.223521e-07
0.93814433 	1.2543188 	-0.0012324907 	-1.237426e-08
0.94845361 	1.2252367 	-0.0011960689 	2.4290626e-07
0.95876289 	1.1748258 	-0.0010458418 	9.4114312e-07
0.96907216 	1.087613 	-0.00074271059 	2.1410061e-07
0.97938144 	0.94070181 	-0.00037957954 	4.8929552e-07
0.98969072 	0.65442973 	-8.7931549e-05 	3.9235106e-07
