0.29896907 	1.7130465e-05 	-1.8557465e-06 	-1.7115245e-09 	1.5433798e-05 	4.6474151e-09 	1.5321322e-05
0.30927835 	0.0019055893 	-0.00067231778 	-1.9741471e-07 	0.0014073756 	-8.1742314e-07 	0.00089225487
0.31958763 	0.0016882101 	-0.00013219647 	-1.9892465e-06 	0.0023584234 	-6.0244568e-06 	1.2515992e-05
0.32989691 	0.0015738606 	0.00011843271 	1.8245064e-07 	0.0027068788 	2.9139269e-10 	0.00051966722
0.34020619 	0.0015300989 	0.0001327151 	1.4484242e-07 	0.0026855139 	-4.4973242e-07 	0.00019718434
0.35051546 	0.001497705 	0.00012566252 	-4.7956836e-08 	0.0026426373 	-5.4818244e-07 	0.00021145852
0.36082474 	0.0014671951 	0.00012479668 	-2.9521935e-08 	0.0026044474 	-9.6637352e-07 	7.7180196e-05
0.37113402 	0.0014417256 	0.00012916622 	4.2677399e-09 	0.0025774021 	-8.1824895e-07 	6.0443752e-05
0.3814433 	0.0014212993 	0.0001364561 	6.429965e-09 	0.0025602625 	-2.1911443e-07 	0.00018448399
0.39175258 	0.0014054474 	0.00014482965 	2.8319919e-07 	0.0025496991 	-4.6878278e-07 	1.9463739e-05
0.40206186 	0.0013944188 	0.00015503255 	6.0295217e-09 	0.002549304 	-1.2169278e-07 	0.00041721674
0.41237113 	0.0013859573 	0.00016596185 	5.797467e-08 	0.0025516675 	-8.0863529e-07 	0.00052946405
0.42268041 	0.0013794649 	0.0001774508 	1.0358531e-07 	0.0025565199 	-1.4142841e-07 	0.000543782
0.43298969 	0.001374769 	0.00018866883 	5.8877582e-07 	0.0025626145 	-7.4442769e-07 	0.00020594535
0.44329897 	0.0013721455 	0.00020255665 	3.8638996e-08 	0.0025758814 	-3.0544464e-07 	0.00084902775
0.45360825 	0.0013699946 	0.0002151433 	6.4236254e-07 	0.002584244 	-7.6447397e-07 	0.00037187722
0.46391753 	0.0013691948 	0.00022952214 	4.4950562e-07 	0.0025977295 	-5.1347189e-07 	0.00064407404
0.4742268 	0.0013689436 	0.00024421273 	4.9849273e-07 	0.0026102297 	-5.6943004e-07 	0.00069881707
0.48453608 	0.0013692358 	0.00025856836 	8.1547036e-07 	0.0026214655 	-9.1489774e-07 	0.00044234109
0.49484536 	0.0013701037 	0.00027458576 	3.5670066e-07 	0.0026357975 	-4.0019189e-07 	0.00082703285
0.50515464 	0.0013711359 	0.00028916111 	6.7924594e-07 	0.0026458686 	-7.6728926e-07 	0.00044250359
0.51546392 	0.0013725445 	0.0003052869 	3.0155954e-07 	0.0026591603 	-3.4064745e-07 	0.0007716575
0.5257732 	0.0013739603 	0.00032039045 	3.6821944e-07 	0.0026691043 	-4.2937049e-07 	0.00063471371
0.53608247 	0.001375513 	0.00033559639 	4.2197075e-07 	0.0026789563 	-4.9204841e-07 	0.00054166071
0.54639175 	0.0013770449 	0.00035157136 	1.6599168e-08 	0.0026895463 	-9.7425108e-08 	0.00094024173
0.55670103 	0.0013784586 	0.00036531259 	6.6622187e-07 	0.0026942118 	-8.227253e-07 	0.0001489432
0.56701031 	0.0013799585 	0.00038176667 	9.7722707e-08 	0.002704226 	-6.2276137e-07 	0.00088005118
0.57731959 	0.0013811066 	0.00039587373 	3.2228233e-07 	0.0027074051 	-4.3329594e-07 	0.00043373455
0.58762887 	0.0013823778 	0.00041136449 	1.4035851e-07 	0.0027127869 	-1.8870651e-07 	0.00064967144
0.59793814 	0.0013832147 	0.00042613459 	9.4349299e-08 	0.0027151585 	-6.6312338e-07 	0.00080071101
0.60824742 	0.0013839911 	0.00044004219 	4.5345852e-07 	0.0027131084 	-6.8600514e-07 	0.0001041484
0.6185567 	0.0013847877 	0.00045583932 	3.9117318e-08 	0.0027150812 	-3.1851424e-07 	0.00077376815
0.62886598 	0.0013850601 	0.00046975168 	6.7709337e-08 	0.0027114066 	-5.5132584e-07 	0.00075245106
0.63917526 	0.0013854614 	0.00048343573 	4.0051508e-07 	0.0027039329 	-7.0738976e-07 	9.4674931e-06
0.64948454 	0.0013857645 	0.00049910093 	7.379664e-08 	0.0026998457 	-6.8341209e-07 	0.00074336281
0.65979381 	0.0013857017 	0.00051279283 	5.1610395e-08 	0.0026906792 	-4.7795086e-07 	0.0007319103
0.67010309 	0.0013859544 	0.00052650701 	2.5836975e-07 	0.0026778099 	-5.5458346e-07 	0.00011870842
0.68041237 	0.0013859872 	0.00054169524 	1.0934611e-07 	0.0026662487 	-1.1379867e-06 	0.00073791864
0.69072165 	0.001385835 	0.00055530699 	2.8220478e-09 	0.0026509733 	-7.6976011e-09 	0.00072599376
0.70103093 	0.0013862603 	0.0005695841 	7.8402677e-08 	0.0026324835 	-2.1385623e-07 	0.00049118382
0.71134021 	0.0013863496 	0.00058333861 	1.1429515e-07 	0.0026127378 	-1.4249711e-06 	0.00075475941
0.72164948 	0.0013868981 	0.00059646877 	1.1662814e-07 	0.0025891056 	-4.281543e-07 	0.0001968417
0.73195876 	0.0013875029 	0.00061052292 	5.0932172e-08 	0.0025659123 	-7.9430062e-07 	0.00078020738
0.74226804 	0.0013881991 	0.00062313298 	8.1920368e-09 	0.0025391691 	-4.483415e-08 	0.00072401104
0.75257732 	0.0013897425 	0.00063636819 	1.0359262e-08 	0.0025100979 	-5.6695142e-08 	0.0007265892
0.7628866 	0.0013911713 	0.00064828226 	2.3787845e-08 	0.0024793664 	-5.0704768e-07 	0.00082638748
0.77319588 	0.0013936263 	0.00066022903 	2.2947649e-08 	0.0024455941 	-2.3482631e-07 	0.00044524092
0.78350515 	0.0013958904 	0.00067144035 	2.1212498e-08 	0.0024122985 	-7.4723486e-07 	0.00086656907
0.79381443 	0.001399365 	0.0006821224 	4.3272334e-09 	0.0023753513 	-2.6078923e-07 	0.00036710798
0.80412371 	0.0014025324 	0.00069209253 	4.7858341e-09 	0.0023399212 	-5.8033865e-07 	0.00091039778
0.81443299 	0.0014069317 	0.00070134549 	-1.1099778e-08 	0.0023013869 	-1.7103424e-07 	0.00052694864
0.82474227 	0.0014109644 	0.00070969175 	-4.4807196e-10 	0.0022644139 	-3.3819493e-08 	0.00095710693
0.83505155 	0.0014159676 	0.00071736213 	-1.0902891e-09 	0.0022259547 	-7.4604235e-09 	0.00095955837
0.84536082 	0.0014214804 	0.00072381316 	-3.8326051e-08 	0.0021862593 	-1.7311569e-07 	0.00041145625
0.8556701 	0.0014266281 	0.00072977195 	-4.394295e-08 	0.0021492238 	-8.2549364e-07 	0.0010299205
0.86597938 	0.0014330811 	0.00073482234 	-3.7458149e-08 	0.0021096578 	-1.316276e-07 	0.00051496861
0.87628866 	0.0014400492 	0.00073941947 	-3.490014e-08 	0.002071385 	-1.0624367e-07 	0.00056238979
0.88659794 	0.0014479538 	0.00074377323 	-3.0838935e-08 	0.0020341732 	-4.4690403e-07 	0.0011041129
0.89690722 	0.001458622 	0.00074806752 	-7.8315614e-09 	0.0019953342 	-2.2389879e-08 	0.00099830635
0.90721649 	0.0014738445 	0.00075285268 	-4.2605793e-08 	0.0019551899 	-1.2077496e-07 	0.0002850309
0.91752577 	0.0014934479 	0.00075857897 	-3.3175711e-08 	0.0019171217 	-9.6025717e-08 	0.00027187233
0.92783505 	0.0015191475 	0.00076559482 	-1.398254e-08 	0.0018814539 	-4.1495332e-08 	0.00064588002
0.93814433 	0.0015517014 	0.00077381871 	-6.9716748e-09 	0.0018489217 	-2.0151299e-08 	0.00083887665
0.94845361 	0.0015875667 	0.00078225341 	-8.79713e-09 	0.0018219431 	-2.1739919e-08 	0.00082202839
0.95876289 	0.0016250248 	0.00078977057 	-2.0019501e-08 	0.0017958669 	-4.4606015e-08 	0.00069467289
0.96907216 	0.0016356763 	0.00078416654 	-7.8382593e-08 	0.0017477563 	-1.7749271e-07 	0.00028329394
0.97938144 	0.001527583 	0.00072453584 	-9.3787664e-08 	0.0015848838 	-2.4516e-07 	0.0012645577
0.98969072 	0.00081737582 	0.00038221863 	-1.5322859e-07 	0.00082441401 	-3.4050115e-07 	6.0826195e-05
