0.4742268 	0.00027057477 	-9.2554315e-05 	3.4640822e-09 	0.00027042241 	-7.621194e-09 	8.1169583e-05
0.48453608 	0.0035463951 	-0.0016820222 	1.4103333e-09 	0.0035323059 	-2.0245811e-09 	0.001231759
0.49484536 	0.003244474 	-0.0015120826 	2.0299434e-06 	0.0032183023 	-4.3359052e-06 	0.0011679099
0.50515464 	0.002268968 	-0.0010522496 	9.1205117e-08 	0.0022445995 	-1.9235722e-07 	0.00087156037
0.51546392 	0.0016894216 	-0.00076596795 	7.0400561e-07 	0.0016634688 	-8.7815129e-07 	0.00057472159
0.5257732 	0.0014753246 	-0.00051673613 	2.419066e-06 	0.001461304 	-1.2689158e-06 	0.00052111948
0.53608247 	0.0014304268 	-0.00033103668 	7.8639269e-07 	0.0014243886 	-1.5542763e-07 	0.00050746317
0.54639175 	0.0014475764 	-0.00018024391 	1.9762908e-07 	0.0014448595 	2.8228711e-09 	0.00051240636
0.55670103 	0.0014808546 	-5.4946937e-05 	1.2924712e-07 	0.0014869273 	1.6647125e-08 	0.00052365
0.56701031 	0.0015189205 	5.3495258e-05 	4.0048556e-07 	0.0015315391 	6.5300059e-08 	0.00053855193
0.57731959 	0.0015562366 	0.00014983939 	8.899245e-07 	0.0015757162 	1.5105624e-07 	0.00055457978
0.58762887 	0.0015914307 	0.00023642247 	1.1771725e-06 	0.0016172983 	1.736313e-07 	0.00057091796
0.59793814 	0.001623947 	0.00031482763 	2.6978962e-07 	0.0016558525 	2.7605706e-08 	0.00058686938
0.60824742 	0.001653348 	0.00038548619 	-9.8780533e-08 	0.0016898297 	-1.1029973e-07 	2.225296e-05
0.6185567 	0.0016787986 	0.0004475999 	3.6448966e-07 	0.001721557 	9.992709e-09 	0.00060197414
0.62886598 	0.0017012216 	0.00050338418 	6.064268e-07 	0.0017487712 	-5.6263385e-08 	0.00061561681
0.63917526 	0.0017208196 	0.00055362739 	-6.8783943e-08 	0.0017718816 	-7.6931556e-08 	0.00015990397
0.64948454 	0.001736501 	0.00059649621 	3.6913873e-07 	0.0017922615 	-1.082501e-07 	0.00062742716
0.65979381 	0.00174976 	0.00063477414 	1.3606107e-07 	0.0018089232 	-8.9498106e-08 	0.00063687501
0.67010309 	0.0017599842 	0.00066765066 	-3.910609e-09 	0.0018219528 	-4.6642596e-09 	0.00060220687
0.68041237 	0.0017672154 	0.00069510141 	2.3050372e-07 	0.0018315363 	-3.3124463e-07 	0.00064364104
0.69072165 	0.001772469 	0.00071914084 	-3.0556621e-08 	0.0018380282 	-3.9325543e-08 	0.00030838821
0.70103093 	0.0017749783 	0.00073847516 	1.3752994e-07 	0.001842468 	-5.2814845e-07 	0.00064741799
0.71134021 	0.0017759409 	0.00075518029 	-2.5155714e-08 	0.0018436525 	-3.6537682e-08 	0.00028528493
0.72164948 	0.0017746884 	0.00076814764 	3.0748922e-09 	0.00184348 	-5.7834569e-07 	0.00064809199
0.73195876 	0.0017722519 	0.00077902788 	-7.2396596e-09 	0.0018408586 	-1.2538656e-08 	0.00050265616
0.74226804 	0.0017680386 	0.00078733282 	-6.0665905e-08 	0.0018365545 	-4.4117779e-07 	0.0006457788
0.75257732 	0.0017629108 	0.00079395908 	-9.8281513e-09 	0.0018307618 	-7.14728e-08 	0.00064576775
0.7628866 	0.0017564748 	0.00079874932 	-6.6143646e-08 	0.0018232496 	-3.0059708e-07 	0.0006413609
0.77319588 	0.0017491572 	0.00080224214 	-2.3734155e-08 	0.0018147239 	-1.0786248e-07 	0.00064134465
0.78350515 	0.0017409857 	0.00080435704 	-9.7052299e-08 	0.0018051976 	-3.4825415e-07 	0.00063574101
0.79381443 	0.0017322476 	0.00080538395 	-1.1847023e-09 	0.0017947631 	-3.8400794e-09 	0.00056795494
0.80412371 	0.001722982 	0.00080547787 	-1.7692032e-07 	0.0017836686 	-5.9298034e-07 	0.00062964554
0.81443299 	0.0017136098 	0.00080526404 	-8.993837e-09 	0.0017709385 	-2.783938e-08 	8.0238869e-05
0.82474227 	0.0017038909 	0.00080392463 	-2.0128823e-07 	0.001759477 	-5.5871535e-07 	0.00062353549
0.83505155 	0.0016942169 	0.00079981402 	-4.2099544e-08 	0.0017467691 	-9.7115714e-08 	0.00061735347
0.84536082 	0.0016844349 	0.00079450824 	-3.4406448e-09 	0.0017331236 	-8.3482116e-09 	0.00041453509
0.8556701 	0.001674528 	0.00078915984 	-2.246409e-07 	0.0017196315 	-5.2040599e-07 	0.00061129305
0.86597938 	0.0016644806 	0.00078361063 	-1.078505e-07 	0.0017054148 	-2.4967752e-07 	0.00060544652
0.87628866 	0.0016542603 	0.00077780938 	-4.9099013e-09 	0.0016903837 	-1.1909944e-08 	0.00021447105
0.88659794 	0.0016441914 	0.00077232076 	-1.5663457e-09 	0.0016766442 	-3.9254151e-09 	0.00042679011
0.89690722 	0.0016356191 	0.00076742993 	-6.1408106e-08 	0.001664015 	-1.4323494e-07 	0.00059490605
0.90721649 	0.0016311166 	0.00076416645 	-9.4315788e-08 	0.0016543559 	-2.2758224e-07 	0.00059153626
0.91752577 	0.0016355354 	0.00076470402 	-5.5053366e-08 	0.0016521902 	-1.5263622e-07 	0.0005911986
0.92783505 	0.0016586524 	0.00077347466 	3.1514327e-08 	0.0016668701 	3.6013196e-08 	0.00059643104
0.93814433 	0.0017199996 	0.00079969329 	5.3149994e-08 	0.0017185876 	1.0417388e-07 	0.00061161487
0.94845361 	0.0018625244 	0.00086361584 	8.0922591e-08 	0.0018514148 	1.7189573e-07 	0.00011206437
0.95876289 	0.0021467224 	0.00099540608 	5.6778622e-07 	0.0021306957 	1.197355e-06 	0.00079148185
0.96907216 	0.0025666742 	0.001193239 	9.6055645e-08 	0.0025479004 	2.0857786e-07 	0.0003393575
0.97938144 	0.002833391 	0.0013258868 	2.1322578e-08 	0.0028215541 	8.6989844e-09 	0.0010242679
0.98969072 	0.0018925272 	0.00088696339 	-1.3523624e-06 	0.0018883107 	-2.6375438e-06 	0.00071888856
