0.47777778 	0.0022171858 	-0.0010478358 	2.9191228e-08 	0.0022602014 	1.9267191e-08 	0.00044371571
0.48888889 	0.0034660926 	-0.001630491 	-9.229483e-08 	0.0035345709 	2.2217051e-07 	0.0018749479
0.5 	0.0033631323 	-0.0015802775 	1.7325063e-08 	0.0034242855 	-3.7988318e-08 	0.0017222905
0.51111111 	0.0029929354 	-0.0014052852 	-2.45275e-08 	0.0030384029 	1.2040695e-07 	0.00022534322
0.52222222 	0.0025215633 	-0.0011838374 	1.7046347e-06 	0.0025550429 	-3.7018612e-06 	0.0011902612
0.53333333 	0.0020284279 	-0.00095202382 	5.6178666e-07 	0.0020514234 	-1.2190871e-06 	0.00096602743
0.54444444 	0.0016226675 	-0.00076032477 	-2.6160862e-08 	0.0016304489 	3.6609623e-08 	0.00041148089
0.55555556 	0.001355667 	-0.00058625732 	-3.9131743e-09 	0.0013519488 	-2.0571185e-09 	9.5603202e-05
0.56666667 	0.0011971316 	-0.00041543432 	4.8022598e-08 	0.0011876341 	-7.0651731e-08 	6.9039836e-05
0.57777778 	0.0011169991 	-0.00028657789 	5.1019447e-08 	0.0010965991 	-8.7125803e-08 	0.00021068786
0.58888889 	0.0010865974 	-0.00017328862 	1.0678648e-07 	0.0010542342 	-5.1628927e-08 	0.00043567017
0.6 	0.0010857798 	-7.1613157e-05 	1.0284296e-06 	0.0010424094 	-2.6104039e-07 	0.00042465993
0.61111111 	0.0010998911 	1.9012937e-05 	1.0432649e-06 	0.0010440355 	-1.2630444e-07 	0.00042438787
0.62222222 	0.0011223755 	0.00010067525 	3.1920412e-08 	0.0010544701 	-6.2402342e-08 	0.00034776268
0.63333333 	0.0011494125 	0.00017318487 	3.3859844e-08 	0.0010718518 	-6.8746191e-08 	0.00034346817
0.64444444 	0.0011792834 	0.0002379907 	1.1404538e-06 	0.0010927714 	5.6852268e-08 	0.00043484889
0.65555556 	0.0012102162 	0.00029806761 	6.0752905e-09 	0.0011150816 	-1.2795575e-08 	0.00043217489
0.66666667 	0.0012410054 	0.00035181752 	1.2675035e-07 	0.001139228 	1.3118374e-08 	0.00044546588
0.67777778 	0.0012718301 	0.0004003243 	6.0128736e-07 	0.00116379 	8.5958859e-08 	0.00046087424
0.68888889 	0.0013026704 	0.00044557737 	1.2348835e-07 	0.0011875171 	-2.7813719e-07 	0.00013400797
0.7 	0.0013308138 	0.00048536544 	8.0044731e-07 	0.00121341 	1.3593029e-07 	0.0004788054
0.71111111 	0.0013598794 	0.00052294395 	1.4273071e-07 	0.0012367426 	-3.3446834e-07 	6.6136867e-05
0.72222222 	0.0013851806 	0.0005555011 	5.9785456e-07 	0.0012619711 	1.0318561e-07 	0.00050061045
0.73333333 	0.0014112926 	0.00058562927 	1.2549181e-07 	0.00128409 	-3.2357548e-07 	6.8399154e-05
0.74444444 	0.0014346558 	0.00061260106 	4.2494765e-07 	0.0013087528 	7.9683522e-08 	0.00052549768
0.75555556 	0.0014582033 	0.00063555959 	7.0466819e-08 	0.0013301977 	-2.9883201e-07 	7.4438434e-05
0.76666667 	0.0014803811 	0.00065704974 	2.0084118e-07 	0.0013550661 	7.2031592e-08 	0.00055244435
0.77777778 	0.0015022356 	0.00067104327 	6.5147446e-13 	0.0013784682 	-1.4478665e-07 	0.0003082641
0.78888889 	0.0015240041 	0.00068432006 	3.4221523e-08 	0.0014039412 	4.812033e-08 	0.000581
0.8 	0.0015465732 	0.00069586821 	1.0004146e-08 	0.0014301049 	3.844382e-08 	0.00060319635
0.81111111 	0.0015712135 	0.00070747082 	-8.3315533e-09 	0.0014572548 	-1.0173291e-07 	0.00037246611
0.82222222 	0.0015991967 	0.00072133019 	8.267053e-08 	0.0014903091 	2.4154333e-07 	0.00063850327
0.83333333 	0.0016313317 	0.00073711559 	-2.9047785e-10 	0.001527749 	-6.0652557e-09 	0.00065062123
0.84444444 	0.0016725316 	0.00075686108 	1.3559875e-09 	0.0015733332 	-9.2681203e-08 	0.00031352925
0.85555556 	0.0017253879 	0.00078292597 	1.356068e-07 	0.0016340466 	3.2600658e-07 	0.00071938445
0.86666667 	0.0017952761 	0.00081669556 	3.4056687e-07 	0.0017109478 	7.8149713e-07 	0.00076988424
0.87777778 	0.0018870725 	0.00086052479 	8.7167547e-08 	0.0018090866 	1.9443534e-07 	0.00083524134
0.88888889 	0.0020093591 	0.00091805734 	2.0347622e-08 	0.001935507 	-4.5102464e-09 	0.00055199648
0.9 	0.0021655979 	0.00099123109 	4.6228088e-08 	0.0020949616 	2.226933e-08 	0.00029627793
0.91111111 	0.0023559493 	0.001080335 	5.4098327e-08 	0.0022884534 	4.337991e-08 	0.00030772797
0.92222222 	0.0025739695 	0.0011825606 	3.3018639e-08 	0.0025102847 	3.0584845e-08 	0.00071159946
0.93333333 	0.0028050126 	0.0012911159 	1.7221503e-07 	0.0027460985 	3.7468334e-07 	0.0013615725
0.94444444 	0.0030265656 	0.0013951985 	5.6674357e-07 	0.002972357 	1.2384977e-06 	0.0014715719
0.95555556 	0.0032100614 	0.00148139 	3.0644528e-08 	0.0031598062 	1.7557014e-08 	0.00053171269
0.96666667 	0.0033048601 	0.0015280265 	1.22524e-08 	0.0032653895 	3.8709693e-08 	0.0016682209
0.97777778 	0.0031915697 	0.0014794909 	-1.3361301e-07 	0.0031641069 	-2.9250005e-07 	0.001631109
0.98888889 	0.0020764071 	0.00097228177 	-9.2359151e-07 	0.0020661025 	-1.860658e-06 	0.0010511819
