0 	0.0075275362 	-5.1123193e-16 	-1.8581928e-22 	3.472027e-29 	1.2619899e-35 	4.5869993e-42
0.010869565 	0.0075405591 	-0.0004493139 	2.8547229e-08 	0.0097055191 	-8.0286618e-06 	0.0076469793
0.02173913 	0.0076120318 	-0.00089474628 	1.2505432e-08 	0.0097668572 	-8.1860517e-06 	0.0070181366
0.032608696 	0.0077287347 	-0.0013365573 	2.1212061e-07 	0.0098634084 	-1.4011622e-06 	0.0047189439
0.043478261 	0.0078861311 	-0.0017655873 	1.0647121e-07 	0.0099951297 	-1.2921683e-05 	0.0058819999
0.054347826 	0.0080835163 	-0.0021921337 	7.851358e-07 	0.010154627 	-3.4138679e-06 	0.0011473383
0.065217391 	0.0083234182 	-0.0026217185 	5.3289147e-07 	0.010351697 	-2.0383417e-06 	0.0023347864
0.076086957 	0.0085611381 	-0.0029894393 	6.2858602e-07 	0.010541837 	-2.1158579e-06 	0.0016810135
0.086956522 	0.0088286316 	-0.0033603076 	4.48308e-07 	0.010754369 	-9.467311e-06 	0.0037902265
0.097826087 	0.009107697 	-0.0037160515 	1.1996802e-06 	0.010969471 	-1.6668975e-05 	0.0033066753
0.10869565 	0.0093908193 	-0.0040567899 	2.2416988e-07 	0.011183753 	-6.1574341e-07 	0.0020219638
0.11956522 	0.0096677779 	-0.0043680863 	9.5337321e-07 	0.011381234 	-8.9339206e-06 	0.0022432827
0.13043478 	0.0099309466 	-0.0046543273 	2.6816298e-06 	0.011553149 	-1.7982259e-05 	0.0017424847
0.14130435 	0.010184507 	-0.0049239984 	1.458275e-07 	0.011704312 	-3.4639718e-07 	0.00074187227
0.15217391 	0.010389563 	-0.0051496404 	4.7658836e-06 	0.011801318 	-2.4329382e-05 	0.00069123434
0.16304348 	0.010575864 	-0.0053620924 	1.4109799e-06 	0.011877881 	-5.6754935e-06 	0.00017248743
0.17391304 	0.010691378 	-0.0055257488 	5.495129e-06 	0.011882179 	-2.2103482e-05 	0.00038157959
0.18478261 	0.01077612 	-0.0056693368 	2.1809161e-06 	0.011852636 	-7.1459944e-06 	0.00087853343
0.19565217 	0.010765201 	-0.0057509035 	6.8688659e-06 	0.011718849 	-2.2506541e-05 	0.0013499222
0.20652174 	0.010720498 	-0.0058111188 	7.455176e-07 	0.011546551 	-2.0471843e-06 	0.0017461892
0.2173913 	0.01052959 	-0.0057807092 	1.0667103e-05 	0.011227343 	-2.9291762e-05 	0.0021620167
0.22826087 	0.010306865 	-0.0057312419 	6.9247227e-07 	0.010870385 	-1.3022544e-06 	0.00012073952
0.23913043 	0.0099165302 	-0.0055747219 	1.4145824e-05 	0.010364072 	-3.309619e-05 	0.0027083895
0.25 	0.0094927708 	-0.0053969589 	4.8058764e-07 	0.0098240755 	-1.1244039e-06 	0.0030539295
0.26086957 	0.0088992194 	-0.0051053655 	6.1617544e-06 	0.0091252288 	-1.2440664e-05 	0.0028533108
0.27173913 	0.0082261257 	-0.0047553726 	1.0710856e-05 	0.0083677281 	-2.1625361e-05 	0.0031148724
0.2826087 	0.0074615806 	-0.0043395063 	1.6228551e-07 	0.0075237843 	-3.4786876e-07 	0.00053062824
0.29347826 	0.0066563363 	-0.0038828225 	1.5769435e-05 	0.0066730819 	-2.8287967e-05 	0.0026719217
0.30434783 	0.0058294768 	-0.00340716 	1.4178065e-06 	0.0058082928 	-2.5433292e-06 	0.0028431017
0.31521739 	0.0049580979 	-0.0028861082 	-9.2798146e-08 	0.0049168748 	8.4116394e-08 	0.001070747
0.32608696 	0.004191174 	-0.0024242575 	1.6556036e-05 	0.0041439483 	-2.7647477e-05 	0.0019526494
0.33695652 	0.0034638271 	-0.0019832071 	-5.3789294e-08 	0.0034129138 	6.4319694e-08 	0.0015804223
0.34782609 	0.0028421481 	-0.0015996464 	-1.0918064e-07 	0.0027924664 	1.3055508e-07 	0.00063925822
0.35869565 	0.0023366189 	-0.0012845963 	8.9814157e-06 	0.00229082 	-1.4399182e-05 	0.0011862129
0.36956522 	0.0019091476 	-0.0010143331 	-7.5892031e-09 	0.0018655832 	1.7045868e-08 	0.0009884012
0.38043478 	0.0016251442 	-0.00082737475 	-2.7036394e-08 	0.0015801821 	6.0725585e-08 	0.00024226838
0.39130435 	0.001386476 	-0.00066554135 	2.1421857e-06 	0.0013419183 	-3.0813733e-06 	0.00076130287
0.40217391 	0.001209012 	-0.00053365849 	3.2541398e-07 	0.0011628946 	-4.6808358e-07 	0.00078213018
0.41304348 	0.0011288525 	-0.00045075132 	9.6581999e-08 	0.0010761127 	2.1068678e-08 	4.1579442e-05
0.42391304 	0.0010596145 	-0.00037646411 	1.8751937e-08 	0.0010029557 	4.0906022e-09 	0.00054089391
0.43478261 	0.0010176111 	-0.00031125273 	1.5157012e-06 	0.00095550187 	-1.3861955e-06 	0.0006736076
0.44565217 	0.0010019632 	-0.00025519061 	7.8435595e-08 	0.00093192478 	2.8581735e-08 	0.00038794286
0.45652174 	0.0010051943 	-0.00020708526 	1.3582074e-07 	0.00092631421 	4.9492739e-08 	0.00018370033
0.4673913 	0.001008219 	-0.00016131876 	1.2765934e-10 	0.00092263961 	4.651875e-11 	0.00071892178
0.47826087 	0.0010190967 	-0.00012079209 	3.7784862e-07 	0.00092640963 	-1.5156063e-07 	0.0007307492
0.48913043 	0.0010373879 	-8.5292788e-05 	1.3895753e-07 	0.00093606479 	6.4410163e-08 	0.00029356046
0.5 	0.0010572735 	-5.1143087e-05 	1.5442319e-07 	0.00094833567 	7.1578868e-08 	0.00027016408
0.51086957 	0.00107682 	-1.7295182e-05 	7.1754576e-08 	0.00096188327 	-1.5776663e-08 	0.00081038551
0.52173913 	0.001096108 	1.2651629e-05 	5.6725956e-09 	0.00097571062 	-1.2472324e-09 	0.00081980585
0.5326087 	0.0011159388 	3.8017456e-05 	1.8189436e-07 	0.00098955962 	9.2675888e-08 	0.00023667467
0.54347826 	0.0011360692 	6.445402e-05 	1.439945e-07 	0.0010055464 	7.3365764e-08 	0.00038791913
0.55434783 	0.0011560762 	9.1180837e-05 	2.3281747e-07 	0.0010225498 	-4.4679175e-08 	0.0008898148
0.56521739 	0.0011746637 	0.00011568122 	6.5665263e-08 	0.0010374402 	3.4508882e-08 	0.00067252393
0.57608696 	0.0011926598 	0.00013880565 	2.6042392e-07 	0.0010509971 	1.3685986e-07 	1.3048766e-05
0.58695652 	0.0012110368 	0.000163853 	6.7074254e-08 	0.0010684454 	3.5249345e-08 	0.00070850517
0.59782609 	0.0012288512 	0.00018838201 	8.5012829e-08 	0.0010846919 	-1.6878589e-08 	0.00095356392
0.60869565 	0.001245893 	0.00021199541 	1.813785e-07 	0.0010985294 	9.7731562e-08 	0.00029069159
0.61956522 	0.0012630731 	0.00023683949 	1.3435296e-07 	0.0011147944 	7.2392953e-08 	0.00048508132
0.63043478 	0.0012804047 	0.00026241882 	2.7708211e-07 	0.0011322673 	-3.9485315e-08 	0.0010020831
0.64130435 	0.0012979401 	0.00028776883 	1.3920276e-07 	0.0011478606 	7.9536004e-08 	0.00044539466
0.65217391 	0.0013156861 	0.00031418159 	1.5417275e-07 	0.0011651504 	8.8089373e-08 	0.00040205754
0.66304348 	0.0013339451 	0.00034193287 	2.6517315e-07 	0.0011848262 	-3.7493299e-09 	0.0010481891
0.67391304 	0.0013539451 	0.0003701103 	1.3669792e-07 	0.0012034241 	8.5166426e-08 	0.00044201232
0.68478261 	0.0013745504 	0.00039981241 	1.2807111e-07 	0.001224441 	7.9791697e-08 	0.00050176588
0.69565217 	0.0013963588 	0.00043106043 	1.471758e-07 	0.001248344 	2.8598889e-08 	0.001097463
0.70652174 	0.0014215936 	0.00046348303 	1.7103927e-07 	0.0012732296 	1.2331746e-07 	0.00024071224
0.7173913 	0.0014476687 	0.00049840743 	5.9890507e-08 	0.0013027922 	4.3180405e-08 	0.00083797264
0.72826087 	0.0014779884 	0.00053457991 	4.2352868e-08 	0.0013358061 	3.8350519e-08 	0.00089958501
0.73913043 	0.0015128239 	0.00057233214 	1.5361284e-07 	0.0013723054 	1.3909642e-07 	0.00024433166
0.75 	0.0015502167 	0.00061396931 	3.4223467e-07 	0.0014154231 	2.4183182e-07 	0.0012264282
0.76086957 	0.0015983461 	0.00066340089 	1.3321387e-07 	0.0014645348 	1.5095845e-07 	0.00025784395
0.77173913 	0.0016496497 	0.0007177417 	2.2156439e-08 	0.0015214549 	2.5107759e-08 	0.0011506379
0.7826087 	0.001713592 	0.00076154179 	5.3841569e-08 	0.0015923749 	1.1320853e-07 	0.000642087
0.79347826 	0.0017848661 	0.00080250537 	3.6213234e-08 	0.0016753138 	7.6142783e-08 	0.00095167376
0.80434783 	0.0018748683 	0.00084906625 	2.6146105e-08 	0.0017746459 	1.0242029e-07 	0.00090600351
0.81521739 	0.0019830414 	0.00090187975 	2.8431483e-08 	0.0018912124 	1.1137264e-07 	0.00096567197
0.82608696 	0.002115447 	0.00096597516 	5.0120504e-08 	0.0020294837 	1.4558233e-07 	0.00098836051
0.83695652 	0.0022727878 	0.0010419116 	3.8269564e-08 	0.0021909643 	1.1115954e-07 	0.0013133032
0.84782609 	0.0024597188 	0.0011313408 	1.1985416e-07 	0.0023786811 	3.0872136e-07 	0.00076182584
0.85869565 	0.0026699462 	0.0012328064 	2.0652262e-09 	0.0025928855 	4.3656582e-09 	0.0021873291
0.86956522 	0.002914571 	0.0013472343 	2.7960597e-07 	0.002833323 	6.926273e-07 	8.2688621e-06
0.88043478 	0.0031833619 	0.0014744961 	3.2317047e-08 	0.0031072097 	7.9896513e-08 	0.0022881166
0.89130435 	0.0034742239 	0.0016090247 	1.071941e-07 	0.0033990572 	2.6501291e-07 	0.0019690162
0.90217391 	0.0037587688 	0.0017392694 	2.8079002e-07 	0.0036845369 	7.1154163e-07 	0.00033275019
0.91304348 	0.0040286483 	0.0018644878 	4.1623471e-08 	0.0039661867 	1.1435213e-07 	0.0025868084
0.92391304 	0.00423304 	0.0019598268 	2.2548568e-08 	0.0041850079 	5.7667837e-08 	0.0034754293
0.93478261 	0.0042858159 	0.0019866418 	9.1988032e-09 	0.0042553285 	5.0248582e-08 	0.0025690124
0.94565217 	0.0041836957 	0.0019443884 	-2.1878597e-07 	0.004179881 	-4.4500853e-07 	0.0034447914
0.95652174 	0.0038621258 	0.0017987995 	-2.8106557e-07 	0.003875973 	-5.3348516e-07 	0.00029664596
0.9673913 	0.0033156639 	0.0015497679 	-1.122879e-07 	0.0033514757 	-2.2532868e-07 	0.0018467002
0.97826087 	0.0024988166 	0.001168844 	-2.1157436e-07 	0.0025296306 	-4.4376416e-07 	0.00022263124
0.98913043 	0.0010007386 	0.00046396898 	-3.6775305e-08 	0.0010022562 	-1.130199e-07 	0.00010956239
