1.4101108e-19 	0.0069598928 	-4.7269277e-16 	-6.7206839e-22 	3.6199868e-18 	7.8670584e-20 	1.8637429e-18
0.010869565 	0.0069700699 	-0.00037684755 	2.8927653e-08 	0.0083213618 	-8.1434853e-06 	0.0061414433
0.02173913 	0.0070269819 	-0.00074865366 	1.3944313e-08 	0.008371705 	-9.6970225e-06 	0.005648969
0.032608696 	0.0071195105 	-0.0011181154 	7.0348099e-08 	0.0084510577 	-4.2904557e-07 	0.0044437175
0.043478261 	0.0072440267 	-0.0014794264 	8.2632778e-08 	0.0085596075 	-1.1995726e-05 	0.0047567884
0.054347826 	0.0074007906 	-0.0018382348 	4.2243815e-07 	0.0086898401 	-1.6909189e-06 	0.001416722
0.065217391 	0.0075919716 	-0.0022041919 	3.6789706e-07 	0.0088539543 	-1.2941777e-06 	0.0017172877
0.076086957 	0.0077797752 	-0.0025153441 	3.2585898e-07 	0.0090123572 	-1.0078874e-06 	0.0017828372
0.086956522 	0.0079935727 	-0.0028329877 	3.927101e-07 	0.0091918829 	-9.4780444e-06 	0.0031136099
0.097826087 	0.0082179223 	-0.0031387367 	8.5432006e-07 	0.0093744441 	-1.3355427e-05 	0.0027358605
0.10869565 	0.0084478456 	-0.0034331381 	2.2210313e-07 	0.0095570549 	-5.6110231e-07 	0.0013728434
0.11956522 	0.0086727569 	-0.0037043155 	8.162171e-07 	0.009733058 	-8.5198565e-06 	0.0019026728
0.13043478 	0.0088892743 	-0.0039569177 	1.9152732e-06 	0.009893388 	-1.3888159e-05 	0.0015122861
0.14130435 	0.0090987593 	-0.0041951863 	5.0878301e-09 	0.010039464 	-1.1165781e-08 	0.0010594358
0.15217391 	0.0092773241 	-0.0043987831 	3.8523302e-06 	0.010144104 	-2.086342e-05 	0.00068632541
0.16304348 	0.0094443764 	-0.0045933759 	7.4707821e-07 	0.010236012 	-3.2008878e-06 	0.00027753837
0.17391304 	0.0095587804 	-0.0047509122 	4.4925625e-06 	0.010275705 	-1.9248572e-05 	0.00016059496
0.18478261 	0.0096551017 	-0.0048969069 	1.4602446e-06 	0.010297731 	-5.0745601e-06 	0.00056038761
0.19565217 	0.0096803346 	-0.004997098 	5.5701165e-06 	0.01024598 	-1.9356956e-05 	0.00093624741
0.20652174 	0.0096862478 	-0.0050848789 	4.1580095e-07 	0.01017236 	-1.2009435e-06 	0.001279206
0.2173913 	0.0095835153 	-0.0051034123 	8.5860695e-06 	0.0099853204 	-2.4798848e-05 	0.0016163622
0.22826087 	0.009465076 	-0.0051123761 	3.9072085e-07 	0.0097782619 	-6.6991337e-07 	0.0003058613
0.23913043 	0.0092142983 	-0.0050394519 	1.0371254e-05 	0.0094486145 	-2.55989e-05 	0.002130141
0.25 	0.0089383255 	-0.0049510141 	1.4456523e-06 	0.0090925588 	-3.5682387e-06 	0.0024183225
0.26086957 	0.0085358513 	-0.0047834383 	4.7739633e-06 	0.0086161767 	-1.0221523e-05 	0.0023786066
0.27173913 	0.0080485423 	-0.0045585943 	9.6517648e-06 	0.0080656707 	-2.0665375e-05 	0.0026071278
0.2826087 	0.0074893262 	-0.0042858392 	1.2292958e-07 	0.0074429414 	-1.3917157e-07 	0.00033143193
0.29347826 	0.0068419413 	-0.0039441644 	1.3665604e-05 	0.0067604146 	-2.5469776e-05 	0.0024116626
0.30434783 	0.006154729 	-0.003571318 	3.4156322e-06 	0.0060426845 	-6.3660111e-06 	0.0025720077
0.31521739 	0.0053746193 	-0.0031239156 	-1.4779155e-07 	0.0052479148 	2.2786201e-07 	0.0010382918
0.32608696 	0.0046368812 	-0.0026898775 	1.7182695e-05 	0.0045123314 	-2.8800281e-05 	0.0018988331
0.33695652 	0.0039039235 	-0.0022543028 	-3.8348719e-08 	0.0037836854 	5.4226722e-08 	0.0018497654
0.34782609 	0.003208668 	-0.0018262714 	-2.4430895e-07 	0.0031029081 	3.4546326e-07 	0.00063213396
0.35869565 	0.0026432848 	-0.0014746446 	1.1056705e-05 	0.0025528205 	-1.7399446e-05 	0.0011552817
0.36956522 	0.0021289392 	-0.0011517003 	-1.6947186e-08 	0.0020520616 	2.2636432e-08 	0.0011360101
0.38043478 	0.0017804127 	-0.00092347971 	-2.3334662e-07 	0.0017120281 	3.1168214e-07 	0.00021433815
0.39130435 	0.0014949151 	-0.00073073254 	3.0674184e-06 	0.0014355501 	-4.310335e-06 	0.00069139344
0.40217391 	0.0012754025 	-0.00057074282 	1.423359e-06 	0.0012220659 	-2.0001034e-06 	0.00071067091
0.41304348 	0.0011598632 	-0.00046353412 	-8.7471321e-08 	0.001107191 	9.6481225e-08 	7.2314299e-05
0.42391304 	0.0010748808 	-0.0003757928 	-1.2535769e-08 	0.0010238314 	1.3827004e-08 	0.00050038635
0.43478261 	0.0010233208 	-0.0003010936 	2.2287409e-06 	0.00097179563 	-1.9890161e-06 	0.00058497657
0.44565217 	0.00099247647 	-0.00023458709 	1.8933613e-09 	0.0009388206 	-1.6840887e-09 	0.0003944187
0.45652174 	0.00099035051 	-0.00018096484 	4.2200402e-09 	0.00093289108 	-3.7536007e-09 	0.00015519382
0.4673913 	0.00098911842 	-0.00013108144 	2.0005155e-07 	0.00092938632 	-7.7778648e-08 	0.00061287493
0.47826087 	0.00099560683 	-8.7089779e-05 	7.1831857e-07 	0.00093275531 	-2.7927726e-07 	0.0006227276
0.48913043 	0.0010085556 	-4.8029543e-05 	2.4163091e-08 	0.00094159373 	-1.5207051e-08 	0.00029493381
0.5 	0.0010249834 	-1.2088567e-05 	2.9976089e-08 	0.00095429298 	-1.8865464e-08 	0.00023535935
0.51086957 	0.001041203 	2.2783719e-05 	2.1708115e-07 	0.00096802383 	-4.5429777e-08 	0.00068654912
0.52173913 	0.0010577335 	5.4078393e-05 	2.1902848e-07 	0.00098216316 	-4.5837308e-08 	0.00069468688
0.5326087 	0.001074965 	8.138728e-05 	4.1655083e-08 	0.00099677455 	-2.1625063e-08 	0.0002392952
0.54347826 	0.0010926539 	0.00010865683 	3.4359269e-08 	0.0010130869 	-1.7837472e-08 	0.00034566764
0.55434783 	0.0011103444 	0.00013587105 	3.3740116e-07 	0.0010301076 	-6.1120534e-08 	0.00075588751
0.56521739 	0.0011274427 	0.00016135915 	1.0958705e-08 	0.0010457592 	-4.4894866e-09 	0.00064986735
0.57608696 	0.001144086 	0.00018501407 	7.1892203e-08 	0.0010600097 	-2.9452301e-08 	3.023424e-05
0.58695652 	0.0011612636 	0.00021009056 	1.4857076e-08 	0.0010773011 	-6.0865444e-09 	0.00065039565
0.59782609 	0.0011781611 	0.00023468664 	2.1155435e-07 	0.0010937294 	-3.9310404e-08 	0.00081549126
0.60869565 	0.001194677 	0.000258468 	5.2457462e-08 	0.001108704 	-1.5427167e-08 	0.00029321781
0.61956522 	0.0012114297 	0.0002830225 	3.9842767e-08 	0.001125379 	-1.1717323e-08 	0.00044218681
0.63043478 	0.0012286437 	0.00030824378 	3.8369265e-07 	0.0011432061 	-4.4388474e-08 	0.00086371788
0.64130435 	0.0012463509 	0.00033333037 	4.1547098e-08 	0.0011600505 	-6.7817039e-09 	0.00044294651
0.65217391 	0.0012645143 	0.00035919146 	5.0868394e-08 	0.0011781699 	-8.3032125e-09 	0.00036591036
0.66304348 	0.001283637 	0.00038627813 	3.3318674e-07 	0.0011985796 	1.180701e-08 	0.0009112085
0.67391304 	0.0013046038 	0.00041374488 	4.3320201e-08 	0.0012187696 	4.0098488e-10 	0.00044349454
0.68478261 	0.0013266306 	0.00044248718 	4.3458152e-08 	0.0012410609 	4.022618e-10 	0.00046563867
0.69565217 	0.0013504423 	0.00047262652 	2.5876591e-07 	0.0012664567 	7.1856324e-08 	0.00096290559
0.70652174 	0.0013775561 	0.00050349449 	5.615644e-08 	0.0012934706 	1.40049e-08 	0.00025255821
0.7173913 	0.0014061925 	0.00053654128 	1.659439e-08 	0.0013248732 	4.1384882e-09 	0.0007987589
0.72826087 	0.0014394344 	0.00057074457 	8.0042526e-09 	0.001360091 	4.726164e-09 	0.00089992926
0.73913043 	0.0014777797 	0.00060623277 	5.3233592e-08 	0.0013990291 	3.1432127e-08 	0.00021948707
0.75 	0.0015198118 	0.00064499816 	3.9662934e-07 	0.0014449411 	3.632678e-07 	0.0010975789
0.76086957 	0.0015720276 	0.00068758284 	2.8093842e-08 	0.0014972992 	5.0032375e-08 	0.00027510894
0.77173913 	0.0016287451 	0.00073416615 	2.2447163e-09 	0.001557697 	3.9976194e-09 	0.0011253347
0.7826087 	0.0017007252 	0.00077493027 	1.1327151e-08 	0.0016329903 	4.6739276e-08 	0.00066199992
0.79347826 	0.0017819159 	0.00081431948 	7.5208501e-09 	0.0017205823 	3.1033319e-08 	0.00093616367
0.80434783 	0.0018850114 	0.00086370981 	1.8523485e-08 	0.001828019 	5.0419424e-08 	0.00093716611
0.81521739 	0.0020099573 	0.0009232846 	2.2955637e-08 	0.0019561104 	6.2483381e-08 	0.00096276122
0.82608696 	0.0021620073 	0.00099566972 	3.7237155e-08 	0.0021100975 	8.9021286e-08 	0.0010373363
0.83695652 	0.002342526 	0.0010816461 	2.8935256e-08 	0.002291682 	6.9174288e-08 	0.0013362247
0.84782609 	0.0025553041 	0.0011823272 	9.6652223e-08 	0.0025034839 	2.2361555e-07 	0.00081925637
0.85869565 	0.0027949963 	0.0012964489 	2.6330214e-07 	0.0027454634 	5.6085798e-07 	0.0020863393
0.86956522 	0.003062333 	0.0014205456 	2.2372905e-07 	0.0030088024 	5.1968521e-07 	3.2622718e-05
0.88043478 	0.0033499513 	0.0015555113 	2.9986772e-08 	0.003301813 	6.530075e-08 	0.002429949
0.89130435 	0.0036400137 	0.001689031 	5.9725104e-08 	0.0035942711 	1.4203403e-07 	0.0020328039
0.90217391 	0.0038958572 	0.0018064068 	1.2927881e-07 	0.0038533879 	3.2614201e-07 	0.00038304026
0.91304348 	0.0041128732 	0.0019082304 	1.1487282e-09 	0.0040847463 	8.0050511e-09 	0.0027010975
0.92391304 	0.0042301092 	0.001964733 	-1.3748662e-08 	0.0042177249 	-1.4791803e-09 	0.0031586366
0.93478261 	0.0041986778 	0.0019534098 	-2.8382378e-08 	0.0042037372 	-5.2080034e-08 	0.0024730669
0.94565217 	0.0040119399 	0.001871483 	-4.773322e-07 	0.0040393896 	-9.9390599e-07 	0.0030075176
0.95652174 	0.0036518809 	0.0017066901 	-2.758471e-07 	0.0036907364 	-5.7548791e-07 	0.00031556766
0.9673913 	0.003117212 	0.0014603833 	-6.993351e-08 	0.0031658915 	-1.49894e-07 	0.001766484
0.97826087 	0.0023718929 	0.0011096716 	-1.5294892e-07 	0.0024019637 	-3.3732517e-07 	0.00022851547
0.98913043 	0.00096711542 	0.00044992175 	-4.6552673e-08 	0.00096714412 	-1.0192202e-07 	0.00010039452
