0.4742268 	0.36329636 	2.5508254e-05 	-1.8300901e-09
0.48453608 	1.0003966 	0.00047618798 	-7.2127406e-09
0.49484536 	1.2296904 	0.0010053213 	2.7349708e-06
0.50515464 	1.3579894 	0.0015656117 	7.2472624e-08
0.51546392 	1.4145352 	0.0018947993 	6.9068651e-07
0.5257732 	1.4369234 	0.0020818638 	-5.414577e-08
0.53608247 	1.4461177 	0.0020546895 	-2.6516222e-07
0.54639175 	1.4498407 	0.0020669442 	-5.1850554e-08
0.55670103 	1.4510993 	0.0020331672 	-7.7667043e-08
0.56701031 	1.4510608 	0.0019914963 	-3.1221499e-07
0.57731959 	1.4502256 	0.0019383821 	-8.9734649e-07
0.58762887 	1.4488441 	0.0018781559 	-1.473343e-06
0.59793814 	1.447059 	0.0018122785 	-4.1846124e-07
0.60824742 	1.4448857 	0.0017396865 	-1.6042605e-07
0.6185567 	1.4424599 	0.0016647705 	-7.0997939e-07
0.62886598 	1.4397725 	0.0015848733 	-1.5261266e-06
0.63917526 	1.4368589 	0.0015004686 	-9.2000736e-08
0.64948454 	1.4337701 	0.0014141798 	-1.2554745e-06
0.65979381 	1.4305096 	0.0013245637 	-6.7143905e-07
0.67010309 	1.4270707 	0.001231619 	-4.0103445e-09
0.68041237 	1.4234738 	0.0011366206 	-1.8678664e-06
0.69072165 	1.4197323 	0.0010387888 	-2.4508482e-08
0.70103093 	1.4158879 	0.00094080662 	-2.4265371e-06
0.71134021 	1.4118866 	0.000839779 	-1.1295927e-08
0.72164948 	1.4078341 	0.00074030498 	-2.2495465e-06
0.73195876 	1.40369 	0.0006397757 	1.2406824e-09
0.74226804 	1.3993626 	0.00053805552 	-1.5356091e-06
0.75257732 	1.3949872 	0.00043660988 	-2.4877562e-07
0.7628866 	1.3903954 	0.00033370207 	-9.7232491e-07
0.77319588 	1.3856811 	0.00023096503 	-3.4889685e-07
0.78350515 	1.3808112 	0.00012920841 	-1.0729454e-06
0.79381443 	1.3758175 	2.6097202e-05 	6.7331247e-09
0.80412371 	1.3706162 	-7.7808246e-05 	-1.7517185e-06
0.81443299 	1.3653236 	-0.00017913451 	6.8441077e-08
0.82474227 	1.3597021 	-0.00027995864 	-1.5565195e-06
0.83505155 	1.3539148 	-0.00037863056 	-2.6471358e-07
0.84536082 	1.3477994 	-0.00047799469 	3.4407704e-08
0.8556701 	1.3412291 	-0.00057757745 	-1.3685603e-06
0.86597938 	1.3342684 	-0.00067363293 	-6.2240356e-07
0.87628866 	1.3268115 	-0.00076711211 	8.3164128e-08
0.88659794 	1.318651 	-0.00085968212 	4.0175609e-08
0.89690722 	1.309678 	-0.00094955238 	-3.5359793e-07
0.90721649 	1.2996601 	-0.0010353024 	-6.1120679e-07
0.91752577 	1.2880751 	-0.0011133996 	-5.6564562e-07
0.92783505 	1.2738071 	-0.0011747319 	-2.7873962e-07
0.93814433 	1.2544626 	-0.0012007464 	2.5930198e-09
0.94845361 	1.2243808 	-0.0011562775 	2.5067592e-07
0.95876289 	1.1725703 	-0.00099909029 	8.8479895e-07
0.96907216 	1.084262 	-0.00069737429 	2.1558724e-07
0.97938144 	0.93768696 	-0.00035313012 	4.1643189e-07
0.98969072 	0.65264363 	-8.1600228e-05 	3.4634721e-07
