0.47916667 	0.0024267038 	-0.0011368634 	-3.9289103e-07 	0.002421522 	8.0498362e-07 	0.0011527795
0.48958333 	0.0036420695 	-0.0016980028 	-1.3622532e-08 	0.0036232974 	3.8318394e-08 	0.00032532049
0.5 	0.0030712032 	-0.0014279928 	2.0681562e-07 	0.0030472569 	-4.4398248e-07 	0.0015907556
0.51041667 	0.0022198138 	-0.0010288448 	1.6800228e-06 	0.0021974318 	-3.571036e-06 	0.0011382356
0.52083333 	0.0016695245 	-0.00074932037 	-1.2833e-07 	0.0016469209 	1.6198364e-07 	0.00021217041
0.53125 	0.0014388851 	-0.00052988314 	-5.6098745e-08 	0.0014248914 	2.1209833e-08 	0.00046828861
0.54166667 	0.0013750684 	-0.00035514036 	3.010342e-07 	0.0013684305 	-6.1199888e-08 	0.00068500792
0.55208333 	0.0013784397 	-0.0002135437 	5.6745425e-07 	0.0013758391 	1.0661544e-09 	0.00069083183
0.5625 	0.001403681 	-9.3619399e-05 	4.1469651e-07 	0.0014075721 	4.471379e-08 	0.00070595499
0.57291667 	0.0014366942 	1.0471304e-05 	4.2020669e-09 	0.0014465567 	6.3235545e-10 	0.00072592157
0.58333333 	0.001471648 	0.00010284371 	-6.3727122e-08 	0.0014866355 	-7.3551078e-08 	0.00035990199
0.59375 	0.0015056925 	0.00018583187 	-9.170769e-08 	0.0015258837 	-1.0946154e-07 	0.00018358634
0.60416667 	0.0015376213 	0.0002603664 	1.6465798e-07 	0.0015640422 	2.3277683e-08 	0.00077049203
0.61458333 	0.0015674076 	0.00032810984 	6.7524683e-07 	0.0015986385 	6.6123579e-08 	0.00079277805
0.625 	0.0015948743 	0.00039010323 	-5.0823239e-08 	0.001629923 	-6.224884e-08 	0.00045967763
0.63541667 	0.0016192852 	0.0004457021 	-2.6180528e-08 	0.0016587266 	-3.2329698e-08 	0.00062365978
0.64583333 	0.0016408751 	0.00049560953 	5.2432309e-07 	0.0016844061 	-5.048092e-08 	0.00083354513
0.65625 	0.0016600381 	0.00054098879 	-7.9741536e-08 	0.0017057368 	-9.9659656e-08 	0.00020329727
0.66666667 	0.0016760415 	0.0005809145 	2.4209625e-07 	0.0017259361 	-7.1270858e-08 	0.00085060072
0.67708333 	0.0016898259 	0.00061688904 	-1.7699724e-08 	0.0017420498 	-2.2574944e-08 	0.00070358114
0.6875 	0.0017007219 	0.00064824988 	3.1049677e-09 	0.0017554606 	-2.0057447e-09 	0.00086450643
0.69791667 	0.0017094039 	0.00067584363 	2.03762e-08 	0.0017659817 	-2.7837139e-08 	0.00087464525
0.70833333 	0.0017155054 	0.00069947979 	-7.2932513e-09 	0.0017733314 	-1.0118326e-08 	0.00078223448
0.71875 	0.0017197998 	0.00072012859 	6.1124994e-09 	0.001778906 	-2.1621272e-08 	0.00088058956
0.72916667 	0.0017218098 	0.00073708764 	8.2810007e-09 	0.0017815831 	-2.9291744e-08 	0.00088059467
0.73958333 	0.0017222315 	0.00075160034 	-9.7514632e-09 	0.0017820273 	-1.4533629e-08 	0.00072460014
0.75 	0.0017209698 	0.00076343051 	5.6476283e-09 	0.0017810758 	-1.6651019e-07 	0.00088204503
0.76041667 	0.0017183575 	0.00077290582 	-1.4789736e-08 	0.0017775815 	-2.4075084e-08 	0.00056847909
0.77083333 	0.0017144128 	0.00078061938 	-2.3390194e-08 	0.0017737173 	-1.972565e-07 	0.0008797251
0.78125 	0.0017094406 	0.00078605796 	-8.2138204e-09 	0.0017675707 	-1.4703628e-08 	0.00064882479
0.79166667 	0.0017035195 	0.00079027338 	-1.0427611e-08 	0.0017609603 	-4.8987333e-08 	0.00087498284
0.80208333 	0.0016969622 	0.00079311109 	-2.5483045e-08 	0.0017528162 	-8.9867428e-08 	0.00086901328
0.8125 	0.0016898668 	0.00079390277 	-9.008157e-09 	0.0017429097 	-1.9942984e-08 	0.00045046091
0.82291667 	0.0016823525 	0.00079317369 	-1.9979444e-07 	0.0017337857 	-5.2580685e-07 	0.00086233948
0.83333333 	0.0016746021 	0.00078962544 	-8.5096782e-09 	0.0017224385 	-1.9869903e-08 	0.00038016894
0.84375 	0.0016665171 	0.00078540281 	-1.5114541e-09 	0.0017120123 	-3.4707918e-09 	0.00075846691
0.85416667 	0.0016583647 	0.00078093753 	-1.9299854e-07 	0.0017005865 	-4.4530868e-07 	0.00084825541
0.86458333 	0.0016503275 	0.00077637087 	-2.2319955e-09 	0.0016886128 	-5.09871e-09 	0.00067117727
0.875 	0.0016431153 	0.00077197551 	-6.3778944e-09 	0.0016766254 	-1.5012419e-08 	0.00012050025
0.88541667 	0.001637743 	0.0007688483 	-2.0381658e-10 	0.0016683314 	-6.9756862e-10 	0.00073158105
0.89583333 	0.0016373283 	0.00076758458 	-4.9981572e-08 	0.0016631215 	-1.2303121e-07 	0.00083375581
0.90625 	0.0016463891 	0.00077033637 	-3.2797999e-08 	0.001665751 	-1.0395033e-07 	0.00083607956
0.91666667 	0.0016731947 	0.00078091372 	6.7549618e-08 	0.001684423 	1.0318745e-07 	0.00084699854
0.92708333 	0.001733378 	0.00080671258 	1.8899198e-07 	0.0017354002 	3.7399394e-07 	0.00087238057
0.9375 	0.0018546515 	0.00086100771 	1.2183629e-07 	0.0018480213 	2.5392178e-07 	0.00092109301
0.94791667 	0.0020814789 	0.00096482819 	9.6654482e-08 	0.0020674286 	2.0660348e-07 	0.00037738256
0.95833333 	0.0024348539 	0.0011297436 	9.6562879e-09 	0.0024187882 	2.0724319e-08 	0.0011964982
0.96875 	0.002820549 	0.0013103459 	1.2289249e-07 	0.0028035807 	2.6945387e-07 	6.2466791e-05
0.97916667 	0.00296612 	0.0013837168 	-6.7230481e-08 	0.002957673 	-1.6736843e-07 	0.0015054322
0.98958333 	0.0019392307 	0.00090742225 	-1.1390624e-06 	0.0019360819 	-2.2611959e-06 	0.0010188318
