0.27835052 	0.00075796019 	-0.00025694026 	2.0413015e-07 	0.00048246268 	-3.6884682e-07 	0.00044245149
0.28865979 	0.0018469244 	-0.0004445673 	5.502159e-07 	0.0018056255 	9.678404e-07 	0.00084363733
0.29896907 	0.0016098982 	5.3580198e-05 	2.9882304e-07 	0.0026793752 	2.9932763e-07 	0.00055193469
0.30927835 	0.0015478428 	0.00010535142 	-1.4678357e-07 	0.0027213709 	-8.4819455e-07 	0.00038616398
0.31958763 	0.0015072209 	7.8456426e-05 	-6.9245176e-09 	0.0026535622 	-4.9124188e-08 	0.0002233239
0.32989691 	0.0014721397 	6.9523396e-05 	-5.2560879e-08 	0.0026025919 	-7.6021438e-07 	8.2227249e-05
0.34020619 	0.0014405126 	6.8542775e-05 	-2.3267878e-08 	0.0025625423 	-7.7197271e-07 	6.0431962e-05
0.35051546 	0.0014146778 	7.1728614e-05 	-1.578455e-09 	0.0025351311 	-2.0901326e-07 	0.00018822625
0.36082474 	0.0013942446 	7.6416618e-05 	3.3030954e-07 	0.0025166225 	-5.3597282e-07 	4.3340084e-05
0.37113402 	0.0013797222 	8.3619006e-05 	9.3672395e-08 	0.0025100347 	-1.3440244e-07 	0.00035566442
0.3814433 	0.0013686791 	9.1894054e-05 	1.6789878e-08 	0.0025090036 	-5.3285319e-07 	0.00054210231
0.39175258 	0.0013601096 	0.00010107498 	7.0003111e-09 	0.0025118343 	-1.2987609e-07 	0.000655474
0.40206186 	0.0013533761 	0.00010878452 	9.4980351e-07 	0.0025143216 	-1.0980662e-06 	8.2713766e-05
0.41237113 	0.0013497348 	0.00012058174 	2.3692467e-07 	0.0025275723 	-2.5065308e-07 	0.00070396842
0.42268041 	0.0013467238 	0.00013183025 	4.0185877e-07 	0.0025386136 	-4.2514415e-07 	0.00069588725
0.43298969 	0.0013447812 	0.00014219427 	1.2750442e-06 	0.0025484366 	-1.2559758e-06 	0.0002026651
0.44329897 	0.001344228 	0.0001573118 	4.5391362e-08 	0.0025677775 	-4.4712532e-08 	0.0010860894
0.45360825 	0.0013438522 	0.00016786151 	1.3601532e-06 	0.00257621 	-1.2749115e-06 	7.5313841e-05
0.46391753 	0.0013444691 	0.00018466163 	2.4740905e-08 	0.0025965882 	-1.3118927e-07 	0.00098663783
0.4742268 	0.0013453385 	0.0001968785 	1.0796637e-06 	0.0026066838 	-9.8901569e-07 	0.00014505754
0.48453608 	0.001346617 	0.00021425674 	7.9726622e-08 	0.002625642 	-3.7830732e-07 	0.00086989273
0.49484536 	0.0013481974 	0.00022737183 	1.0297371e-06 	0.0026354586 	-9.4994959e-07 	4.5750485e-05
0.50515464 	0.0013498711 	0.0002453524 	1.3265935e-07 	0.002653342 	-6.0172933e-07 	0.00076773834
0.51546392 	0.0013517441 	0.00025984412 	5.9849462e-07 	0.002663425 	-5.7348568e-07 	0.0002420858
0.5257732 	0.0013536368 	0.00027733004 	5.9552765e-08 	0.0026783367 	-2.6914449e-07 	0.000678837
0.53608247 	0.0013554282 	0.00029325504 	1.9336821e-08 	0.0026886098 	-8.7391391e-08 	0.00062767414
0.54639175 	0.0013574852 	0.0003091519 	2.4782589e-07 	0.0026980983 	-2.5451002e-07 	0.0003840216
0.55670103 	0.0013591821 	0.0003258701 	2.6171189e-07 	0.0027070945 	-1.2166336e-06 	0.00056002062
0.56701031 	0.0013609823 	0.00034150695 	2.8999909e-07 	0.0027131746 	-3.298318e-07 	0.00024089687
0.57731959 	0.0013626514 	0.00035888414 	1.0716892e-07 	0.0027204379 	-5.2363317e-07 	0.00050329115
0.58762887 	0.0013640484 	0.000375088 	2.0907663e-07 	0.0027237865 	-1.0215597e-06 	0.00047129677
0.59793814 	0.0013656648 	0.00039102394 	3.707437e-07 	0.0027250467 	-4.8545833e-07 	1.9776055e-05
0.60824742 	0.0013668612 	0.00040846563 	2.072619e-07 	0.0027268964 	-1.1226308e-06 	0.00043401571
0.6185567 	0.0013679219 	0.00042454057 	2.1526042e-07 	0.0027251649 	-1.1659546e-06 	0.00041211924
0.62886598 	0.0013692244 	0.00044057043 	2.6758041e-07 	0.002721339 	-4.2177786e-07 	8.7913373e-06
0.63917526 	0.001370175 	0.00045795884 	2.2841827e-07 	0.0027167558 	-1.3693456e-06 	0.00039209508
0.64948454 	0.0013710421 	0.00047404493 	2.236371e-07 	0.0027091794 	-1.340683e-06 	0.00038001069
0.65979381 	0.0013722235 	0.00049013396 	1.8427001e-07 	0.0026995546 	-3.677075e-07 	1.2088021e-05
0.67010309 	0.0013731725 	0.00050742491 	2.4591378e-07 	0.0026878523 	-1.6370093e-06 	0.0003757974
0.68041237 	0.0013740924 	0.00052359032 	1.6068484e-07 	0.0026738033 	-1.0696536e-06 	0.00037239642
0.69072165 	0.0013754411 	0.00054032079 	3.9137649e-08 	0.0026578996 	-1.0529695e-07 	0.0002650157
0.70103093 	0.0013766581 	0.00055632265 	3.018141e-07 	0.002638175 	-2.3705301e-06 	0.00038335305
0.71134021 	0.001377889 	0.00057203812 	2.5594223e-08 	0.0026178211 	-2.01024e-07 	0.00038720455
0.72164948 	0.0013798452 	0.00058815542 	8.9447633e-08 	0.0025938025 	-8.6127436e-07 	0.00040182
0.73195876 	0.0013816819 	0.00060312568 	1.4568087e-07 	0.002567602 	-1.4027336e-06 	0.00041160656
0.74226804 	0.0013841415 	0.00061840392 	1.6752836e-08 	0.002539589 	-1.2301009e-07 	0.00025728778
0.75257732 	0.0013867054 	0.00063253392 	1.7769264e-07 	0.0025090983 	-2.2466097e-06 	0.00044239177
0.7628866 	0.0013899331 	0.00064623075 	1.3415409e-08 	0.0024765149 	-1.8681652e-07 	0.00014492282
0.77319588 	0.0013931907 	0.0006595498 	9.5963479e-08 	0.0024430432 	-1.7899353e-06 	0.00047894724
0.78350515 	0.0013971047 	0.00067179198 	2.2809601e-09 	0.0024074692 	-7.0779792e-08 	0.00034785111
0.79381443 	0.0014014481 	0.00068363392 	4.0136653e-08 	0.0023709548 	-1.4264249e-06 	0.00052048148
0.80412371 	0.0014063586 	0.00069424528 	-7.0706115e-09 	0.0023329066 	-7.733858e-08 	0.00034413495
0.81443299 	0.0014114507 	0.00070424969 	2.4118615e-09 	0.0022950403 	-1.4538215e-06 	0.00056603773
0.82474227 	0.0014174201 	0.00071306293 	-4.4036891e-08 	0.0022552167 	-1.6070143e-07 	0.00010024295
0.83505155 	0.0014226738 	0.00072092404 	-3.3266665e-08 	0.0022177767 	-1.3414682e-06 	0.00061457378
0.84536082 	0.0014287971 	0.00072789321 	-2.1480847e-08 	0.0021787066 	-5.0081836e-08 	0.00045223243
0.8556701 	0.0014347112 	0.00073373114 	-1.105553e-08 	0.002140753 	-2.2773298e-07 	0.00066520432
0.86597938 	0.0014412546 	0.00073876187 	-5.3517593e-08 	0.0021025698 	-8.0669026e-07 	0.00069016323
0.87628866 	0.0014488565 	0.00074319417 	-5.5697397e-08 	0.0020632537 	-8.6919633e-08 	0.00021601768
0.88659794 	0.0014568551 	0.00074729942 	-1.8643519e-09 	0.0020262667 	-2.5058151e-08 	0.00074252482
0.89690722 	0.0014675967 	0.00075130488 	-6.3180972e-08 	0.0019880014 	-8.9732623e-07 	0.00076797683
0.90721649 	0.0014814659 	0.00075568213 	-9.7070592e-09 	0.0019496295 	-1.7502113e-07 	0.00079436388
0.91752577 	0.0015011003 	0.00076094536 	-2.8397969e-08 	0.0019107878 	-3.7038101e-08 	0.00037334742
0.92783505 	0.0015267391 	0.00076733498 	-3.4438408e-08 	0.0018741901 	-4.0423398e-08 	6.8608122e-05
0.93814433 	0.0015584385 	0.00077508931 	-1.6281231e-08 	0.0018427013 	-1.4897569e-08 	0.00030679604
0.94845361 	0.0015928522 	0.00078316454 	-1.2847059e-08 	0.0018178795 	-1.0362822e-08 	0.00034503027
0.95876289 	0.0016323797 	0.00079197059 	-1.3876147e-08 	0.0017961521 	-1.4079017e-07 	0.00095603957
0.96907216 	0.0016444318 	0.00078770093 	-5.5458199e-09 	0.0017534958 	-1.0842399e-08 	0.00089598316
0.97938144 	0.001527353 	0.00072465547 	-7.4339142e-09 	0.001583446 	-1.9033771e-08 	0.00093818056
0.98969072 	0.0007966523 	0.00037261341 	-6.9782634e-08 	0.00080424981 	-1.5331899e-07 	0.00022478719
