0.4 	1.2354859e-06 	-1.4840944e-08 	2.127889e-10 	1.2416864e-06 	-4.4806607e-09 	9.4942381e-08
0.41111111 	0.0021647081 	-0.0012145366 	2.8909297e-07 	0.002779142 	-6.4877593e-08 	0.0004308733
0.42222222 	0.0033517883 	-0.0017757785 	-1.1957485e-07 	0.0040689875 	1.6223524e-07 	0.0022585121
0.43333333 	0.003278837 	-0.0016973725 	-2.4372331e-06 	0.003817304 	4.8896311e-06 	0.00064028769
0.44444444 	0.0030136625 	-0.0015249377 	-5.9568351e-07 	0.0033897932 	1.2037615e-06 	0.0017825164
0.45555556 	0.0027673359 	-0.0013878749 	-2.1390924e-06 	0.0030260797 	4.4555652e-06 	1.5133505e-05
0.46666667 	0.0024772517 	-0.0012286409 	-1.3589397e-06 	0.0026297997 	2.858937e-06 	0.00080866417
0.47777778 	0.0021559826 	-0.0010552516 	-1.094233e-06 	0.0022098193 	2.290955e-06 	0.001012427
0.48888889 	0.0018401625 	-0.00088125229 	-1.1467353e-06 	0.0017972786 	2.4068086e-06 	0.00084242169
0.5 	0.0015805663 	-0.00072860598 	-1.343412e-06 	0.001438792 	2.8412791e-06 	0.00050266827
0.51111111 	0.0013965155 	-0.00059239178 	-1.8227805e-06 	0.0011570801 	3.0977979e-06 	0.00010025269
0.52222222 	0.0012815431 	-0.00046922633 	-1.4492535e-06 	0.00094018158 	1.656152e-06 	0.00040963329
0.53333333 	0.0012281865 	-0.00035933334 	-5.1350711e-07 	0.00077807141 	4.44024e-07 	0.00096914821
0.54444444 	0.0012333717 	-0.00027324558 	-4.8713134e-07 	0.00065868139 	4.2121716e-07 	0.00097963397
0.55555556 	0.001265668 	-0.0001983023 	-1.5638916e-06 	0.00057676637 	1.0165375e-06 	0.00023431516
0.56666667 	0.0013057441 	-0.00013475043 	-8.9022919e-07 	0.00051932239 	3.5363253e-07 	0.00066123826
0.57777778 	0.0013412491 	-7.8039994e-05 	-2.9600818e-07 	0.00050693518 	1.1758558e-07 	0.001088095
0.58888889 	0.0013744291 	-2.9383854e-05 	-1.5882466e-06 	0.00051217309 	2.5341799e-07 	5.9639379e-05
0.6 	0.001413491 	1.2096138e-05 	-2.223715e-07 	0.00051796201 	-5.0427584e-09 	0.0011213125
0.61111111 	0.0014483839 	5.4392147e-05 	-9.5848874e-07 	0.00053376673 	-2.1735821e-08 	0.00050645609
0.62222222 	0.0014848948 	9.3520971e-05 	-5.5490111e-07 	0.00055074013 	-1.0481202e-07 	0.00081349424
0.63333333 	0.0015194722 	0.00013202861 	-6.5740186e-07 	0.0005716589 	-1.2417279e-07 	0.00073308254
0.64444444 	0.0015526061 	0.00016930628 	-5.9920957e-07 	0.00059533422 	-2.1157192e-07 	0.00072639906
0.65555556 	0.0015843272 	0.00020592336 	-5.9282811e-07 	0.00062102492 	-2.0931872e-07 	0.00075128066
0.66666667 	0.0016142146 	0.00024128213 	-4.4257044e-07 	0.00064886757 	-2.3250734e-07 	0.00084608194
0.67777778 	0.0016412016 	0.00027668839 	-6.7736004e-07 	0.00067930417 	-3.5585563e-07 	0.00057374406
0.68888889 	0.0016683146 	0.00030940467 	-1.8280556e-07 	0.00070915566 	-1.3024241e-07 	0.0011579181
0.7 	0.0016891275 	0.00034286142 	-8.0722838e-07 	0.00074334013 	-5.7512129e-07 	0.00023102356
0.71111111 	0.0017148035 	0.00037442463 	4.0470223e-08 	0.00077598926 	3.889969e-08 	0.0014785393
0.72222222 	0.00173048 	0.00040476212 	-7.1331663e-07 	0.00081195328 	-6.5242752e-07 	0.0001264762
0.73333333 	0.0017527445 	0.00043546386 	-7.5582605e-08 	0.00084871249 	-6.913083e-08 	0.0013804754
0.74444444 	0.0017673259 	0.00046418187 	-4.9840786e-07 	0.00088715229 	-5.6404262e-07 	0.00029699957
0.75555556 	0.0017863071 	0.00049318913 	-1.0047044e-07 	0.00092716722 	-1.1370128e-07 	0.0013261292
0.76666667 	0.0018002117 	0.00052156662 	-4.0237771e-07 	0.00096996713 	-5.532176e-07 	0.00026468072
0.77777778 	0.0018186895 	0.00055065883 	-4.1738999e-08 	0.0010155585 	-5.7385756e-08 	0.001501179
0.78888889 	0.0018324855 	0.00058102969 	-3.6075403e-07 	0.0010676055 	-6.0376327e-07 	1.2734702e-05
0.8 	0.001852376 	0.00061358183 	-3.8127887e-08 	0.0011259874 	-7.919821e-08 	0.0013891636
0.81111111 	0.0018712821 	0.00064898789 	-1.5854318e-07 	0.0011953389 	-3.2932158e-07 	0.00062031924
0.82222222 	0.0018967466 	0.00068745372 	-9.9005632e-08 	0.0012752189 	-2.6178552e-07 	0.00066916254
0.83333333 	0.0019293829 	0.00072980572 	-2.0831126e-09 	0.0013681503 	-5.5080574e-09 	0.0016254076
0.84444444 	0.0019784665 	0.00077629148 	-7.1698447e-08 	0.0014759718 	-2.4477671e-07 	0.0005122843
0.85555556 	0.0020468888 	0.00082892461 	-4.0685556e-08 	0.0015993814 	-1.7930019e-07 	0.00055242659
0.86666667 	0.002139646 	0.00088944874 	-3.5376825e-09 	0.0017418309 	-2.1247194e-08 	0.0015653525
0.87777778 	0.0022634743 	0.00095951194 	-2.4633152e-09 	0.0019037978 	-1.4794582e-08 	0.0017208211
0.88888889 	0.0024159892 	0.0010394653 	-4.3224113e-09 	0.0020845405 	-6.0351439e-08 	0.001104147
0.9 	0.002591685 	0.0011282417 	1.0186771e-08 	0.0022823951 	-5.5608527e-08 	0.0006180002
0.91111111 	0.0027848818 	0.0012238784 	3.5383818e-08 	0.002493804 	-1.4692847e-08 	0.00035702911
0.92222222 	0.0029863577 	0.0013227344 	6.0629634e-08 	0.0027123246 	4.3562988e-08 	0.00044431247
0.93333333 	0.0031853084 	0.0014205037 	6.7579008e-08 	0.0029302354 	8.4150037e-08 	0.0010176004
0.94444444 	0.0033715694 	0.0015132537 	2.0028976e-08 	0.0031399546 	3.1184099e-08 	0.0022185843
0.95555556 	0.0035266287 	0.0015925264 	3.0739059e-08 	0.0033223687 	7.4173599e-08 	0.0025513011
0.96666667 	0.0036074334 	0.0016400272 	-8.5305358e-09 	0.0034397745 	1.8535396e-08 	0.0025679156
0.97777778 	0.0033862353 	0.0015535691 	3.4370468e-07 	0.0032723637 	7.1612581e-07 	0.00042780297
0.98888889 	0.0018390711 	0.00085353839 	1.750139e-07 	0.0018092366 	3.6292067e-07 	0.00029217724
