0.4742268 	0.0002541128 	-8.4971176e-05 	4.7374468e-09 	0.00025399067 	-1.0735982e-08 	7.6355577e-05
0.48453608 	0.0035077534 	-0.0016584883 	1.2018167e-08 	0.0034961922 	-2.0696645e-08 	0.0012231715
0.49484536 	0.0034200234 	-0.001591608 	1.2031995e-06 	0.0033986633 	-2.5881531e-06 	0.0016637386
0.50515464 	0.0025759572 	-0.0011959873 	-4.3045487e-08 	0.002551517 	9.2249413e-08 	0.0010323677
0.51546392 	0.0018719626 	-0.00086508722 	1.4839669e-07 	0.0018491429 	-2.6785355e-07 	0.00085435752
0.5257732 	0.0015213199 	-0.0006300199 	1.8541023e-06 	0.0015026763 	-1.9190889e-06 	0.00072961555
0.53608247 	0.0013969859 	-0.00042846969 	3.9762417e-07 	0.0013879121 	-1.9301897e-07 	0.00067566323
0.54639175 	0.0013791767 	-0.00027529685 	-1.6529876e-08 	0.0013743716 	-1.1471154e-08 	0.0005802921
0.55670103 	0.0013982549 	-0.00014559662 	-2.0278143e-08 	0.001398631 	-1.9254255e-08 	0.00056226286
0.56701031 	0.0014290733 	-3.5154319e-05 	9.3393151e-08 	0.0014361817 	1.0907179e-08 	0.00068608833
0.57731959 	0.0014636558 	6.1836118e-05 	6.181872e-07 	0.0014766435 	9.5938849e-08 	0.00070573403
0.58762887 	0.0014981372 	0.00014884919 	9.3085725e-07 	0.0015169193 	1.4929134e-07 	0.00072706549
0.59793814 	0.0015313133 	0.0002278579 	2.6266284e-08 	0.0015555345 	3.6394698e-09 	0.0007488843
0.60824742 	0.0015624286 	0.0002994506 	-1.1516928e-07 	0.0015903217 	-1.3852119e-07 	2.1027578e-05
0.6185567 	0.0015904444 	0.00036349798 	1.6430287e-07 	0.0016244224 	1.506201e-08 	0.00077036503
0.62886598 	0.0016160291 	0.00042179238 	4.6356261e-07 	0.0016543564 	5.9784426e-09 	0.00079065952
0.63917526 	0.0016391176 	0.00047496411 	-8.9586502e-08 	0.0016802261 	-1.0937852e-07 	0.00015236522
0.64948454 	0.0016589157 	0.00052201008 	2.6031742e-07 	0.001704864 	-2.9752075e-08 	0.00080920098
0.65979381 	0.0016764522 	0.00056476781 	2.963149e-08 	0.0017256784 	-9.6555739e-09 	0.00082522236
0.67010309 	0.0016908957 	0.00060228447 	-2.8014989e-08 	0.0017424829 	-3.5424657e-08 	0.00057655125
0.68041237 	0.00170282 	0.00063544192 	2.2750896e-07 	0.0017573411 	-1.6082068e-07 	0.00083815613
0.69072165 	0.001712343 	0.00066469112 	-5.2004845e-08 	0.0017678865 	-6.8253249e-08 	0.00029672565
0.70103093 	0.0017194182 	0.00068998138 	1.99458e-07 	0.0017776675 	-3.0111506e-07 	0.00084739463
0.71134021 	0.0017243909 	0.00071190274 	-4.4712489e-08 	0.0017828291 	-6.2159925e-08 	0.00027590299
0.72164948 	0.0017273217 	0.00073053841 	8.1421867e-08 	0.0017877741 	-3.3462334e-07 	0.00085251878
0.73195876 	0.0017283873 	0.00074601494 	-2.2114035e-08 	0.0017886639 	-3.3364315e-08 	0.00048855565
0.74226804 	0.0017278912 	0.00075935469 	2.1431346e-09 	0.0017890651 	-2.1664018e-07 	0.00085333166
0.75257732 	0.0017258602 	0.00076990938 	-6.1792476e-09 	0.0017866535 	-1.030856e-08 	0.00071826297
0.7628866 	0.0017224776 	0.00077855964 	-1.3469994e-08 	0.0017831196 	-1.0097621e-07 	0.00085059574
0.77319588 	0.0017178713 	0.00078502812 	-3.0602071e-09 	0.0017777006 	-5.6676674e-09 	0.0007617819
0.78350515 	0.0017122809 	0.000789736 	-3.4236121e-08 	0.0017714088 	-1.5382537e-07 	0.00084562758
0.79381443 	0.0017059154 	0.00079296741 	-7.4720557e-09 	0.0017632183 	-1.5598119e-08 	0.0005581953
0.80412371 	0.0016989388 	0.00079522053 	-1.1284292e-07 	0.0017550805 	-3.9035225e-07 	0.00083954949
0.81443299 	0.0016916286 	0.00079535384 	-1.5442826e-08 	0.0017442084 	-3.5627756e-08 	7.9050025e-05
0.82474227 	0.0016838418 	0.00079420654 	-1.4354042e-07 	0.0017353537 	-3.7675385e-07 	0.00083288071
0.83505155 	0.0016759053 	0.00079041181 	-1.2973422e-09 	0.0017244766 	-3.042585e-09 	0.00075179537
0.84536082 	0.0016677246 	0.00078579985 	-6.3742868e-09 	0.0017124373 	-1.4704384e-08 	0.00040974449
0.8556701 	0.0016593696 	0.00078136815 	-1.5566151e-07 	0.0017013494 	-3.5930271e-07 	0.00081893103
0.86597938 	0.0016511239 	0.00077676892 	-4.786737e-08 	0.0016894641 	-1.106549e-07 	0.000812385
0.87628866 	0.0016435971 	0.00077220775 	-5.4422798e-09 	0.0016770967 	-1.2719267e-08 	0.0002131523
0.88659794 	0.0016379261 	0.00076876673 	-1.036523e-09 	0.001667758 	-3.0984301e-09 	0.00042417961
0.89690722 	0.0016365382 	0.00076719514 	-1.3223308e-08 	0.0016622075 	-3.2159693e-08 	0.00080364212
0.90721649 	0.0016445228 	0.00076946428 	-2.5986235e-08 	0.001663854 	-7.5404276e-08 	0.00080482711
0.91752577 	0.0016695975 	0.00077925987 	3.2794656e-08 	0.0016808896 	4.2722588e-08 	0.00081371257
0.92783505 	0.0017268521 	0.00080370685 	1.0293803e-07 	0.0017289706 	2.0114054e-07 	0.00083568819
0.93814433 	0.0018435573 	0.00085585159 	2.9311229e-09 	0.0018369211 	6.2305666e-09 	0.00085571913
0.94845361 	0.0020663131 	0.00095767282 	1.3027767e-07 	0.0020518292 	2.7832585e-07 	0.00012273024
0.95876289 	0.0024157017 	0.0011208675 	2.7019295e-07 	0.0023995731 	5.7445845e-07 	0.0012050638
0.96907216 	0.0028051696 	0.0013034772 	9.7403255e-08 	0.0027885936 	2.1341131e-07 	0.00036694632
0.97938144 	0.0029519238 	0.001377673 	-1.9446129e-08 	0.0029432525 	-4.9634107e-08 	0.0014454386
0.98969072 	0.0019126855 	0.00089436839 	-6.866464e-07 	0.0019095009 	-1.3608205e-06 	0.00098149813
