0.21649485 	2.0845488e-06 	-2.6030454e-07 	-1.0982663e-08 	1.6841458e-06 	5.001368e-08 	4.8598837e-07
0.22680412 	0.0018688089 	-0.00042508856 	1.2522675e-08 	0.0018099948 	3.4247515e-08 	0.00074415462
0.2371134 	0.0015351721 	4.1771055e-05 	5.1656686e-07 	0.0027756197 	4.313875e-07 	0.00054174569
0.24742268 	0.0014995781 	-1.5594322e-05 	-6.0213661e-08 	0.0026932877 	-1.5171228e-07 	0.00034238199
0.25773196 	0.0014626363 	-6.0357306e-05 	-3.2507024e-07 	0.0025895638 	-1.4937298e-06 	0.00017618278
0.26804124 	0.0014237235 	-8.0460857e-05 	-1.786244e-08 	0.0025119835 	-2.4553399e-07 	3.1453058e-05
0.27835052 	0.0013923369 	-8.6017018e-05 	8.0659605e-08 	0.0024627448 	-1.2613864e-07 	7.5007492e-05
0.28865979 	0.0013654288 	-8.8101499e-05 	2.9787917e-07 	0.0024239781 	-4.0340972e-07 	0.00010819736
0.29896907 	0.0013443937 	-8.7387459e-05 	-3.694229e-09 	0.0024006213 	-1.0847733e-07 	0.00036264198
0.30927835 	0.0013277816 	-8.5753147e-05 	-1.5282021e-08 	0.0023855509 	-7.362637e-07 	0.00047879882
0.31958763 	0.0013145568 	-8.2591139e-05 	-1.9164514e-09 	0.0023780173 	-3.9102844e-07 	0.00059238493
0.32989691 	0.0013069418 	-8.1165522e-05 	1.218263e-06 	0.0023710456 	-1.0367983e-06 	0.00022187603
0.34020619 	0.0013001874 	-7.6007301e-05 	9.9300429e-07 	0.0023770044 	-7.2363203e-07 	0.00043105725
0.35051546 	0.0012932185 	-6.8331831e-05 	5.5976091e-08 	0.0023904225 	-4.0791458e-08 	0.00089860409
0.36082474 	0.0012945995 	-6.6028246e-05 	2.168168e-06 	0.0023919455 	-1.3611823e-06 	0.00015213329
0.37113402 	0.0012902523 	-5.627373e-05 	6.1191275e-07 	0.0024128964 	-3.3474176e-07 	0.00070453967
0.3814433 	0.0012911464 	-4.9554591e-05 	9.322601e-07 	0.0024263788 	-5.0998511e-07 	0.00049530796
0.39175258 	0.0012916547 	-4.0586487e-05 	8.4242578e-07 	0.0024435507 	-4.099297e-07 	0.00045492029
0.40206186 	0.0012915102 	-3.0091793e-05 	1.236895e-07 	0.0024657018 	-6.018809e-08 	0.00066349359
0.41237113 	0.0012943815 	-1.9929244e-05 	6.3811192e-07 	0.0024820536 	-2.856398e-07 	0.00038618424
0.42268041 	0.0012951451 	-7.3250608e-06 	3.8759856e-08 	0.0025057614 	-1.7057867e-07 	0.00056900671
0.43298969 	0.0012972731 	5.8636217e-06 	4.376638e-08 	0.0025253449 	-1.8939535e-08 	0.00047803092
0.44329897 	0.0013000038 	1.963235e-05 	4.9826721e-08 	0.0025470999 	-1.6904449e-07 	0.00043739994
0.45360825 	0.0013024435 	3.4935196e-05 	1.5589666e-07 	0.0025671656 	-5.2890238e-07 	0.00037067756
0.46391753 	0.0013055351 	5.0462474e-05 	9.8625686e-08 	0.0025878619 	-4.392081e-08 	0.00027586268
0.4742268 	0.0013079156 	6.7797891e-05 	4.6353048e-07 	0.0026076766 	-1.3122044e-06 	0.00025724772
0.48453608 	0.0013109763 	8.4773238e-05 	1.4188259e-07 	0.0026263997 	-6.9404506e-08 	0.00013907223
0.49484536 	0.0013133639 	0.0001037499 	4.3640489e-07 	0.002645528 	-1.1038524e-06 	0.00015309555
0.50515464 	0.0013160385 	0.00012261782 	3.7942766e-07 	0.00266289 	-9.5973293e-07 	0.00010252509
0.51546392 	0.0013187301 	0.00014198595 	1.3725426e-07 	0.0026797946 	-3.2989938e-07 	5.655479e-05
0.5257732 	0.0013213466 	0.0001623588 	8.5663705e-07 	0.0026940343 	-2.058982e-06 	1.4813827e-05
0.53608247 	0.0013239627 	0.00018266295 	3.2086691e-07 	0.0027086576 	-7.7122416e-07 	3.8426932e-05
0.54639175 	0.0013265312 	0.00020349642 	2.9532613e-07 	0.0027210062 	-7.0493528e-07 	7.9493766e-05
0.55670103 	0.0013291017 	0.00022533914 	9.810038e-07 	0.0027311377 	-2.3416289e-06 	0.00011316346
0.56701031 	0.0013316722 	0.00024718187 	2.4789203e-07 	0.0027412692 	-5.917114e-07 	0.00014683316
0.57731959 	0.0013341631 	0.00026890527 	2.346948e-07 	0.0027478275 	-5.9605403e-07 	0.00018232
0.58762887 	0.0013367537 	0.00029183492 	9.8902533e-07 	0.0027517599 	-2.5118262e-06 	0.00020598369
0.59793814 	0.0013393443 	0.00031476457 	3.2573561e-07 	0.0027556923 	-8.2727025e-07 	0.00022964738
0.60824742 	0.0013418047 	0.00033686708 	3.1331632e-08 	0.00275671 	-8.7412896e-08 	0.00026024291
0.6185567 	0.0013446573 	0.00036066652 	8.0539765e-07 	0.002753286 	-2.2469988e-06 	0.00027409991
0.62886598 	0.0013475098 	0.00038446596 	4.3174595e-07 	0.0027498621 	-1.2045387e-06 	0.00028795692
0.63917526 	0.0013504152 	0.00040700665 	1.0836368e-07 	0.0027436878 	-2.0220527e-07 	0.0001359126
0.64948454 	0.0013541703 	0.0004305826 	6.1538898e-07 	0.0027322198 	-2.0613977e-06 	0.00031652021
0.65979381 	0.0013583572 	0.00045415878 	3.9014197e-07 	0.0027195132 	-1.306877e-06 	0.00032160572
0.67010309 	0.0013622824 	0.00047646307 	6.2311848e-08 	0.0027046905 	-1.5375488e-07 	0.00018070616
0.68041237 	0.0013683702 	0.00049708752 	4.9366993e-07 	0.0026828591 	-2.4746845e-06 	0.00033280374
0.69072165 	0.0013752035 	0.00051733154 	1.875392e-07 	0.0026594493 	-9.4010252e-07 	0.00033047743
0.70103093 	0.0013804535 	0.00053717556 	4.9580151e-08 	0.0026352761 	-3.6057452e-07 	0.00033340215
0.71134021 	0.0013883471 	0.0005544323 	3.875644e-07 	0.0026047719 	-2.8185845e-06 	0.00032494766
0.72164948 	0.0013963918 	0.00057147817 	1.2933939e-08 	0.0025738834 	-1.8318536e-08 	0.0002765107
0.73195876 	0.0014024071 	0.00058848595 	1.8461967e-07 	0.0025421364 	-1.7508475e-06 	0.00030953636
0.74226804 	0.0014099256 	0.00060386369 	1.3233284e-07 	0.0025080296 	-1.2549835e-06 	0.00029611616
0.75257732 	0.0014173788 	0.00061797841 	4.7250553e-08 	0.0024721745 	-5.6462158e-07 	0.00028490527
0.7628866 	0.0014242094 	0.00063204358 	1.7817954e-07 	0.0024359148 	-2.1291606e-06 	0.00026752754
0.77319588 	0.0014312541 	0.00064545167 	1.6809522e-08 	0.0023987005 	-1.3272605e-08 	0.00018640053
0.78350515 	0.0014362989 	0.00066040129 	2.2923665e-07 	0.0023629587 	-2.4850614e-06 	0.00023120308
0.79381443 	0.0014425943 	0.00067382916 	3.8540489e-08 	0.0023251886 	-3.2903025e-08 	9.6672268e-06
0.80412371 	0.0014463851 	0.00068946 	2.2193829e-07 	0.0022903095 	-2.430673e-06 	0.00018876427
0.81443299 	0.0014516134 	0.00070306868 	9.7829859e-09 	0.0022533237 	-1.5088126e-08 	6.5092574e-05
0.82474227 	0.0014560294 	0.00071637026 	1.2928952e-07 	0.0022176269 	-2.0290697e-06 	0.00014166151
0.83505155 	0.0014610875 	0.0007282213 	1.1469214e-08 	0.002181122 	-3.7180443e-07 	0.0001168686
0.84536082 	0.0014660109 	0.00073911514 	4.0305145e-08 	0.0021452112 	-1.3065963e-06 	9.1141711e-05
0.8556701 	0.0014714045 	0.00074777845 	-4.5439196e-08 	0.0021090362 	-1.1977503e-06 	6.483536e-05
0.86597938 	0.0014770848 	0.00075451836 	-1.207522e-08 	0.0020728869 	-3.1829564e-07 	3.8210492e-05
0.87628866 	0.0014839188 	0.00075786748 	-1.692913e-07 	0.0020362339 	-1.6682121e-06 	1.0955569e-05
0.88659794 	0.0014916307 	0.00076060235 	-1.0012393e-07 	0.0019995487 	-9.3286797e-07 	2.3928943e-05
0.89690722 	0.0015006362 	0.00076310732 	-5.6554605e-09 	0.0019627851 	-5.269268e-08 	5.1315023e-05
0.90721649 	0.001513542 	0.00076595117 	-8.2474524e-08 	0.0019259467 	-8.2237378e-07 	7.8738499e-05
0.91752577 	0.0015304511 	0.00076944669 	-1.1194607e-07 	0.0018899506 	-1.3260696e-06 	0.0001062532
0.92783505 	0.0015523417 	0.00077391038 	-5.3903201e-08 	0.0018561554 	-8.6356612e-07 	0.00013411069
0.93814433 	0.001579445 	0.00077960843 	-1.9108963e-08 	0.0018271833 	-4.2586299e-07 	0.00016264414
0.94845361 	0.0016118823 	0.00078692484 	8.2794174e-09 	0.0018057087 	-2.8378241e-07 	0.00019203516
0.95876289 	0.0016502436 	0.00079567431 	-3.483751e-09 	0.001789057 	-1.2830657e-07 	0.00022198348
0.96907216 	0.0016580257 	0.00079081295 	-1.6167924e-07 	0.0017509732 	-5.0389325e-07 	0.00025058706
0.97938144 	0.0015305134 	0.00072536034 	-2.7033736e-08 	0.001579786 	-5.6829915e-08 	7.3784842e-05
0.98969072 	0.00076044122 	0.00035583309 	-2.1862165e-06 	0.00076825619 	-4.7246169e-06 	0.00013349843
