1.4213861e-19 	-0.0092599005 	6.2888529e-16 	2.2858316e-22 	-4.2710687e-29 	-1.5524204e-35 	-5.6426374e-42
0.010869565 	-8.5351901 	-11298.505 	0.85295556 	6.013806 	2.3091313 	0.0085437109
0.02173913 	-5.3674344e+08 	-2.1963484e+10 	1.0039356e+08 	2.6371144e+08 	1705351.2 	729401.84
0.032608696 	0.0031923104 	0.00027851179 	-3.0485382e-07 	0.0030941695 	0.00015118159 	0.0003443407
0.043478261 	0.029275913 	0.0031186107 	9.0377548e-05 	0.028018344 	0.0022351424 	0.0045261464
0.054347826 	0.42742992 	0.15638154 	0.0019462325 	0.42642073 	0.014727885 	0.024823641
0.065217391 	2.1802049 	0.49085091 	-0.033720664 	2.6958113 	0.24165648 	0.57462719
0.076086957 	2.4292509 	0.23275947 	-0.073110702 	3.1591127 	0.50227585 	1.23157
0.086956522 	0.88683773 	-0.10439999 	-0.002765958 	1.0906121 	0.048093967 	0.19960616
0.097826087 	0.31114839 	-0.1020365 	0.0019099095 	0.37525195 	-0.0032073916 	0.0099254168
0.10869565 	0.038646498 	-0.0080566198 	2.372081e-05 	0.046856006 	0.00024260696 	0.00080813586
0.11956522 	0.1797228 	0.057203746 	0.00095630296 	0.26885515 	0.0040322181 	0.0025873967
0.13043478 	0.62707341 	0.24771833 	0.0051174706 	0.97955572 	0.058865469 	0.15846171
0.14130435 	1.3800368 	0.57772638 	0.00064970569 	2.1711918 	0.033244528 	0.12380722
0.15217391 	2.3472286 	1.034629 	0.012734019 	3.8739807 	0.10944298 	0.35136986
0.16304348 	3.2662283 	1.467606 	-0.0014002828 	5.5030209 	0.038206813 	0.31711286
0.17391304 	3.5494489 	1.6300956 	0.0012604299 	6.0474707 	0.020300825 	0.12061653
0.18478261 	3.7533756 	1.7527957 	-0.0021949478 	6.4110681 	0.010120647 	0.11444834
0.19565217 	3.4462721 	1.6250034 	-0.010691364 	5.560352 	0.011784488 	0.32949258
0.20652174 	3.0655025 	1.4569792 	0.00016349571 	4.5957607 	0.051771052 	0.30640067
0.2173913 	3.5635481 	1.551901 	0.001136022 	4.1123164 	0.043120865 	0.41633058
0.22826087 	4.0707855 	1.6472765 	0.00042084299 	3.6300758 	0.074948033 	0.4338374
0.23913043 	6.8045822 	2.2515134 	0.029074991 	4.5785979 	0.085234637 	0.36169965
0.25 	10.681079 	3.1657866 	0.011763559 	6.2546052 	0.059022626 	0.42214757
0.26086957 	15.242022 	3.8861577 	0.014977093 	8.1013669 	0.10328356 	1.3716323
0.27173913 	24.157273 	4.7446198 	0.029058308 	11.45338 	0.16746173 	1.5283718
0.2826087 	33.936211 	5.7310176 	0.022580955 	15.195847 	0.064221664 	0.13726794
0.29347826 	40.965602 	4.6034317 	-0.031937808 	17.523877 	0.25945532 	5.2913313
0.30434783 	49.779321 	2.7200588 	-0.0035334958 	20.50201 	0.24270516 	5.6891059
0.31521739 	56.865122 	0.59254726 	0.026841888 	22.90801 	0.18818091 	4.7878867
0.32608696 	59.134119 	-2.4912721 	-0.070570899 	24.433462 	0.30411819 	8.866095
0.33695652 	61.6673 	-5.8772985 	0.024553248 	26.31855 	0.28642963 	9.3447242
0.34782609 	62.734951 	-8.1594334 	0.010099802 	27.829937 	0.19629669 	6.0221383
0.35869565 	60.310237 	-9.6744135 	0.0040348854 	28.274849 	0.23408298 	10.587968
0.36956522 	57.890512 	-11.34397 	0.040985725 	28.991121 	0.24609356 	11.013397
0.38043478 	56.117748 	-12.437436 	-0.044168866 	29.69552 	0.18321559 	2.923777
0.39130435 	52.232629 	-12.349513 	0.050327319 	28.682116 	0.15375559 	10.265852
0.40217391 	48.365455 	-12.402356 	0.050754652 	28.039573 	0.16400287 	10.576227
0.41304348 	45.585693 	-12.580734 	-0.05800016 	27.918275 	0.19723189 	2.5542645
0.42391304 	41.726415 	-11.88302 	0.033069773 	26.17175 	0.13475332 	8.4790015
0.43478261 	37.94087 	-11.23537 	0.070471706 	24.733796 	0.056721652 	8.6711973
0.44565217 	34.283419 	-10.618377 	0.025502283 	23.370947 	0.14639544 	8.2622892
0.45652174 	32.185192 	-10.272073 	-0.061607478 	22.696339 	0.17067688 	1.5135241
0.4673913 	28.24713 	-9.181177 	0.031002257 	20.307074 	0.069098513 	6.0684057
0.47826087 	24.951163 	-8.3354412 	0.048338791 	18.582147 	0.035357529 	6.1677913
0.48913043 	22.488761 	-7.736256 	-0.013374413 	17.421412 	0.12509466 	4.1715447
0.5 	20.582014 	-7.1995628 	-0.047670633 	16.327811 	0.13451561 	1.2874854
0.51086957 	16.966478 	-6.0218541 	0.01749172 	13.699974 	0.030303521 	3.4522568
0.52173913 	14.115562 	-5.1368224 	0.022196983 	11.849303 	0.021172079 	3.4914782
0.5326087 	12.777502 	-4.7622644 	-0.028196835 	11.188245 	0.10217804 	1.7523301
0.54347826 	11.059972 	-4.1621048 	-0.030579479 	9.8505245 	0.084505776 	0.71011357
0.55434783 	8.1617896 	-3.1080511 	0.014884831 	7.3906335 	-0.011828996 	1.3562176
0.56521739 	5.8472509 	-2.2865454 	-0.0012911857 	5.5468677 	0.024900461 	1.3650068
0.57608696 	6.197723 	-2.4649212 	-0.028729139 	6.1345171 	0.075347662 	0.15610288
0.58695652 	4.1532843 	-1.6554172 	-0.004609415 	4.12306 	0.014191711 	0.32177863
0.59782609 	2.5264296 	-1.0188225 	0.01181612 	2.5624876 	-0.026073151 	0.33546865
0.60869565 	3.2424575 	-1.3861867 	0.019209916 	3.5705372 	-0.04767836 	0.17562313
0.61956522 	2.713826 	-1.1623614 	0.017476356 	3.0132525 	-0.044569277 	0.0057440968
0.63043478 	1.3761656 	-0.57090819 	-0.0026883493 	1.5329965 	0.0087915392 	0.0029223173
0.64130435 	8.6751212 	-3.8790286 	0.12954743 	11.153264 	-0.37756494 	0.021261221
0.65217391 	17.881476 	-7.933738 	0.23057466 	22.713522 	-0.69643845 	2.6343785
0.66304348 	100.86883 	-38.709052 	-1.542274 	141.37898 	5.7140145 	6.0309238
0.67391304 	791.42808 	-312.88308 	8.3199529 	1321.0961 	-37.838204 	6.360436
0.68478261 	1617.9347 	-631.23982 	18.791792 	2565.9002 	-71.728963 	520.67469
0.69565217 	1745.1289 	-586.67734 	12.031439 	2668.7 	-16.090309 	933.6482
0.70652174 	6762.4526 	-1732.5663 	58.202388 	13893.214 	-468.13531 	379.20329
0.7173913 	4667.4993 	-868.89377 	77.829041 	8957.2835 	-200.72254 	2892.1264
0.72826087 	6345.4896 	-376.6328 	79.543767 	12557.916 	-141.90867 	3102.5788
0.73913043 	23055.383 	-40.72338 	85.973032 	52967.27 	-1530.005 	2885.7591
0.75 	18186.112 	2812.6278 	252.64796 	38260.06 	-137.49959 	14041.075
0.76086957 	34924.272 	5355.2146 	20.965776 	81119.486 	-1967.1342 	5197.1776
0.77173913 	33769.796 	9639.2514 	254.09715 	70402.428 	28.778297 	30288.134
0.7826087 	43971.918 	11773.694 	147.37102 	95937.734 	-975.40538 	22566.306
0.79347826 	52924.338 	16688.834 	146.98086 	111804.3 	-257.44583 	39915.941
0.80434783 	-1.5132454e+08 	1.4537301e+08 	369.31505 	2.3068043e+08 	366.19778 	483713.72
0.81521739 	-7.7678507e+08 	7.4648225e+08 	4242378 	1.1850462e+09 	21878677 	-3.1013563e+08
0.82608696 	-1.2162845e+09 	8.4745637e+08 	6621418.4 	1.7226399e+09 	10720803 	-3.7017198e+08
0.83695652 	-5.8274164e+08 	3.2027078e+08 	1983194 	7.7369571e+08 	-9432896.5 	-58253569
0.84782609 	-1.5177525e+09 	1.9033264e+08 	643582.72 	1.7239856e+09 	-63477312 	-37470065
0.85869565 	-47095353 	96969539 	-391258.96 	74811830 	686688.46 	-12103573
0.86956522 	-5.0691892e+08 	4.6050205e+08 	-18343160 	5.2046248e+08 	-21393331 	355658.65
0.88043478 	-6612474.7 	15047242 	-114826.69 	9644061.7 	121981.65 	-1698365
0.89130435 	-8914688.1 	28967912 	-1062396.1 	7985157 	-164634.52 	-186304.34
0.90217391 	-19843852 	99740486 	-4301993.5 	12303206 	-484050.37 	-22228.36
0.91304348 	-209043.67 	252635.67 	-1463.7948 	264916.12 	4268.6535 	-23909.031
0.92391304 	-53383.523 	53364.073 	-499.70939 	68010.768 	56.666118 	-1623.8787
0.93478261 	-13709.723 	24137.674 	-699.46321 	15934.431 	-100.44564 	82.378468
0.94565217 	-677.27721 	544.37235 	-14.907136 	1037.2138 	-20.048705 	44.912511
0.95652174 	-534.55205 	890.21242 	-37.232452 	926.17836 	-32.423359 	6.7389656
0.9673913 	0.93371076 	1.4876204 	-0.17632933 	92.527616 	-1.0519108 	16.166383
0.97826087 	131.10397 	9.504184 	-0.42328991 	155.61225 	-6.3659804 	2.3919036
0.98913043 	8.0455338 	0.59882662 	-0.035701627 	8.6240042 	-0.35675675 	0.076387546
