0 	-0.00027965246 	1.8992571e-17 	6.903297e-24 	-1.2898787e-30 	-4.6883678e-37 	-1.7040976e-43
0.010869565 	1.6162795e-06 	-0.46537149 	-0.0051234331 	-0.0046176396 	-0.00065622549 	3.8528554e-06
0.02173913 	-2622.5636 	-76615.126 	-1712.4609 	2824.039 	64.717478 	5.4111548
0.032608696 	-2580184.8 	-69341877 	611844.15 	1552909.4 	-13702.232 	2960.2769
0.043478261 	0.0014633026 	0.00042640583 	6.3779561e-06 	0.0014654662 	0.00023491159 	0.00086903956
0.054347826 	0.0020568894 	3.0954638e-05 	1.1055038e-06 	0.0020015553 	0.00013100953 	0.00031799945
0.065217391 	0.0016387166 	0.00012967981 	-3.7769114e-06 	0.0016842772 	0.0002033438 	0.00048974129
0.076086957 	0.001410498 	2.7178449e-05 	-2.3038542e-06 	0.0014828747 	0.0001443559 	0.00035188455
0.086956522 	0.0013329414 	-8.8291861e-05 	-3.0062226e-06 	0.0014271247 	0.00022384186 	0.00057498217
0.097826087 	0.0013665995 	-0.00026559611 	7.2043806e-06 	0.0013828139 	0.00017546948 	0.00053020822
0.10869565 	0.0013023386 	-0.00036061916 	3.8376026e-06 	0.0013540753 	9.1064223e-05 	0.00029544546
0.11956522 	0.0011899574 	-0.00036502669 	4.4481149e-06 	0.0012427909 	9.8975248e-05 	0.00032757596
0.13043478 	0.0011119263 	-0.00036144791 	2.9088002e-06 	0.0011204105 	5.8138794e-05 	0.00020146081
0.14130435 	0.0010718718 	-0.00037079683 	1.0356896e-06 	0.0010278632 	2.6100904e-05 	8.5324494e-05
0.15217391 	0.0011008209 	-0.00040581539 	-2.772372e-07 	0.0010226733 	1.4516203e-05 	6.7401179e-05
0.16304348 	0.0011546931 	-0.00044674312 	-5.1153504e-07 	0.0010512581 	2.9445525e-06 	1.3236688e-05
0.17391304 	0.0013112113 	-0.00053143081 	-2.1676892e-06 	0.0012364976 	1.1790544e-05 	4.4865205e-05
0.18478261 	0.0014640678 	-0.0006203803 	-1.2393884e-06 	0.0014555731 	2.7331242e-05 	0.0001570102
0.19565217 	0.0015595051 	-0.00068775285 	-2.2363196e-06 	0.0016799073 	4.4006165e-05 	0.00024242546
0.20652174 	0.0015161883 	-0.00068822705 	1.7603954e-06 	0.0017754042 	4.2397376e-05 	0.00026102029
0.2173913 	0.0012842879 	-0.00058875875 	6.0653559e-06 	0.0015872692 	4.4364353e-05 	0.00032288773
0.22826087 	0.0010402419 	-0.00047486025 	-5.8146307e-07 	0.001310563 	1.9809608e-06 	6.6984998e-06
0.23913043 	0.00067220576 	-0.00030005625 	4.1857994e-06 	0.0008427186 	1.3831735e-05 	0.00011451466
0.25 	0.00034502222 	-0.00014677155 	-1.0991708e-06 	0.00043893728 	3.1055072e-05 	0.00012829901
0.26086957 	0.00021019776 	-8.9411306e-05 	4.9092118e-07 	0.00026619372 	2.0662512e-06 	1.7209008e-05
0.27173913 	8.4483681e-05 	-3.6017301e-05 	9.320494e-07 	0.0001075776 	1.0823188e-06 	1.8455562e-05
0.2826087 	2.5087649e-05 	-1.1001755e-05 	1.2891372e-07 	3.3246084e-05 	-3.8755445e-07 	2.3508179e-07
0.29347826 	9.1096134e-06 	-3.9248058e-06 	9.1094809e-08 	1.1658316e-05 	-1.5989444e-07 	9.0661679e-07
0.30434783 	1.8033687e-06 	-8.8805346e-07 	1.9201994e-08 	2.6387864e-06 	6.0858559e-08 	9.4690207e-07
0.31521739 	2.7387413e-06 	-1.3840465e-06 	3.5979898e-08 	4.4309038e-06 	-1.4252452e-07 	2.7737784e-07
0.32608696 	7.2814168e-07 	-3.6168531e-07 	9.8360359e-09 	1.2078231e-06 	-7.0390792e-08 	4.9506381e-07
0.33695652 	5.1475453e-07 	-2.4219513e-07 	5.8236333e-09 	1.011106e-06 	-5.764161e-08 	4.007269e-07
0.34782609 	5.0758344e-07 	-2.2735706e-07 	7.1822599e-09 	1.0119176e-06 	-3.3274914e-08 	1.9289962e-09
0.35869565 	3.6060332e-07 	-7.6540537e-08 	-1.4695225e-09 	8.4226118e-07 	2.9333183e-08 	1.605584e-09
0.36956522 	8.8367284e-07 	-1.4361746e-07 	-3.1231642e-10 	2.1304976e-06 	7.8962865e-10 	4.0613206e-09
0.38043478 	2.1150564e-06 	-2.6799878e-07 	-1.8654148e-08 	5.2106566e-06 	-2.9691467e-07 	1.9460082e-06
0.39130435 	5.5558625e-06 	-9.4785096e-08 	-4.468158e-08 	1.4169709e-05 	-6.9814001e-07 	6.166821e-06
0.40217391 	1.2479583e-05 	6.708885e-07 	-5.5517893e-08 	3.2276422e-05 	-9.3869737e-07 	6.3726349e-06
0.41304348 	2.4793041e-05 	4.4550897e-06 	-9.6868778e-08 	6.1794097e-05 	6.6705393e-08 	4.3766031e-07
0.42391304 	3.5144632e-05 	8.329693e-06 	-4.8254968e-07 	8.9619303e-05 	-4.8468825e-06 	5.2146544e-05
0.43478261 	7.4432576e-05 	2.2650853e-05 	-2.2358398e-07 	0.00018838854 	-3.6447983e-06 	6.5141541e-05
0.44565217 	0.00015061383 	5.51302e-05 	-7.3260651e-07 	0.00036005453 	-3.630119e-06 	3.7925582e-05
0.45652174 	0.00024770242 	9.9757284e-05 	-1.7447896e-06 	0.0005785864 	-3.4188006e-06 	0.00014176009
0.4673913 	0.00032920188 	0.0001382778 	-4.148438e-06 	0.000784342 	-1.2512302e-05 	0.00055594795
0.47826087 	0.00043468332 	0.00017823863 	-3.901436e-06 	0.0010490203 	-1.0620293e-05 	0.00056559095
0.48913043 	0.00076543373 	0.00033419505 	-7.290786e-06 	0.0017369297 	-2.1573901e-05 	0.00022888887
0.5 	0.00098886446 	0.00042132154 	-8.2167676e-06 	0.0022842684 	2.8813025e-06 	0.00061246191
0.51086957 	0.0010298976 	0.0004010104 	-5.9294766e-06 	0.0025497533 	6.427194e-05 	0.0018370756
0.52173913 	0.0011185181 	0.00043612872 	-6.0598728e-06 	0.0027657052 	6.4646568e-05 	0.0018587745
0.5326087 	0.0023331644 	0.0010088309 	-2.9462369e-05 	0.0054266259 	-0.00011106736 	0.00054238553
0.54347826 	0.0023248605 	0.00097701143 	-2.1788366e-05 	0.0054785982 	-2.4398307e-05 	0.0013830101
0.55434783 	0.0016782683 	0.0006400498 	3.9708872e-07 	0.004138249 	0.00017840785 	0.0031650058
0.56521739 	0.0029213209 	0.0012498133 	-2.8806747e-05 	0.006834134 	-7.6199331e-06 	0.0023973901
0.57608696 	0.006629354 	0.0030324882 	-0.00011532244 	0.015006811 	-0.0005668038 	6.7882493e-05
0.58695652 	0.0026615597 	0.0012691002 	-3.1942528e-05 	0.0057540484 	-7.4709614e-05 	0.001530521
0.59782609 	0.0014374489 	0.00075398412 	-2.4727057e-06 	0.0026495707 	9.7203695e-05 	0.0020516364
0.60869565 	0.01092378 	0.0056604696 	-0.00021120362 	0.020628402 	-0.00076179652 	0.00066007158
0.61956522 	0.009848872 	0.0051442136 	-0.00017039193 	0.017555603 	-0.00050141342 	0.0028342028
0.63043478 	0.0044572239 	0.0023969564 	-2.7825988e-05 	0.0060725118 	0.00017932494 	0.0058102921
0.64130435 	0.016400352 	0.0087971947 	-0.00031286821 	0.024215321 	-0.00077281024 	0.0026163835
0.65217391 	0.018180536 	0.009687834 	-0.00035456317 	0.026348044 	-0.00088561974 	0.0026395095
0.66304348 	0.0059952204 	0.0030385831 	-5.9039239e-05 	0.0067280222 	0.00014777779 	0.0067861198
0.67391304 	0.023749876 	0.01198764 	-0.00044603742 	0.027083105 	-0.00089812563 	0.0028991796
0.68478261 	0.023207166 	0.011626305 	-0.00043266929 	0.026034677 	-0.00082934662 	0.0035804604
0.69565217 	0.0074996014 	0.0035721237 	-8.3508455e-05 	0.0073622328 	0.00015457616 	0.007755941
0.70652174 	0.043038334 	0.018990199 	-0.00073750013 	0.037484388 	-0.001380605 	0.0017560591
0.7173913 	0.021682387 	0.0096034615 	-0.00032577161 	0.018930852 	-0.00033380518 	0.007139869
0.72826087 	0.024451593 	0.0095964351 	-0.00031845772 	0.018187017 	-0.00026821533 	0.0076617776
0.73913043 	0.062416375 	0.023023426 	-0.00088671005 	0.042746383 	-0.0015421172 	0.0023411752
0.75 	0.01239956 	0.0051286505 	-0.00010129933 	0.0097405844 	0.00029431969 	0.011458658
0.76086957 	0.059232782 	0.018719346 	-0.00071354982 	0.034821885 	-0.0012232658 	0.0024507455
0.77173913 	0.016579164 	0.0056602236 	-0.00015493469 	0.010522995 	-4.7908594e-05 	0.0059655692
0.7826087 	0.35876001 	0.090541928 	-0.0034492779 	0.1790929 	-0.0067560812 	0.0036518149
0.79347826 	0.34602843 	0.097122729 	-0.0026975865 	0.18730912 	-0.002045078 	0.094453739
0.80434783 	3.0884013 	0.7743544 	-0.028686154 	1.539543 	-0.054620115 	0.092481839
0.81521739 	4.242341 	1.1276665 	-0.032180022 	2.2033058 	-0.042759374 	0.87995067
0.82608696 	28.531473 	8.0084815 	-0.19441093 	15.37042 	-0.36076024 	0.92546385
0.83695652 	66.152973 	20.382974 	-0.14019585 	38.232315 	0.16019828 	38.29566
0.84782609 	224.70918 	67.785531 	-1.4004944 	127.97091 	-2.4372474 	22.354706
0.85869565 	326.72359 	107.76182 	0.1793915 	200.35738 	0.049927674 	262.38844
0.86956522 	1740.5665 	557.87029 	-9.1800889 	1045.8469 	-17.382826 	4.8086685
0.88043478 	4540.6101 	1527.9887 	-0.065260823 	2859.552 	-18.543266 	2245.6517
0.89130435 	12199.76 	4025.2295 	-0.59903692 	7547.6336 	-64.757294 	7354.7915
0.90217391 	27144.821 	8802.8602 	19.378153 	16607.951 	25.61868 	1249.962
0.91304348 	56327.633 	17009.066 	42.051316 	32355.252 	3.1908648 	24841.218
0.92391304 	95955.564 	25879.497 	28.891842 	50636.672 	516.99524 	63519.184
0.93478261 	143593.15 	31470.846 	79.621062 	67514.169 	1450.9298 	66390.909
0.94565217 	180428.93 	18603.275 	-89.078679 	71014.789 	2873.9664 	101530.33
0.95652174 	148314.88 	-15543.263 	-434.67439 	61673.441 	893.25823 	8065.8832
0.9673913 	68572.405 	-17188.39 	-84.903103 	35596.321 	602.06572 	29422.259
0.97826087 	19962.623 	-6438.336 	-76.044444 	12726.224 	150.67807 	1569.3892
0.98913043 	854.28528 	-29.671392 	-4.23036 	615.80341 	9.6620428 	10.237072
