0.34020619 	0.13870417 	-0.37856975 	0.0031266527 	-0.13940122 	0.0089312464 	-0.00013993594
0.35051546 	0.00047665937 	-0.0041855243 	-3.6705438e-05 	-0.00026537302 	0.00010844442 	4.4007568e-05
0.36082474 	1.2321915e-15 	3.5215177e-16 	-5.0695653e-18 	1.1312845e-15 	-3.1542111e-17 	3.5677278e-16
0.37113402 	1.2734835e-14 	4.231587e-15 	1.4800434e-16 	1.1994668e-14 	-2.5581485e-15 	1.0172975e-14
0.3814433 	4.9298817e-14 	1.503621e-14 	5.089296e-16 	6.1772038e-14 	-5.701046e-15 	1.95544e-14
0.39175258 	9.8610569e-14 	3.3056036e-14 	3.0337733e-16 	1.4401952e-13 	-2.6897247e-15 	1.0753326e-14
0.40206186 	1.5556773e-13 	5.9860695e-14 	7.4969515e-17 	2.5236349e-13 	-5.6305332e-16 	5.4805594e-15
0.41237113 	1.9775296e-13 	8.436839e-14 	6.7236279e-17 	3.6062068e-13 	-7.7075102e-16 	5.7369579e-15
0.42268041 	2.1243164e-13 	9.3589754e-14 	1.8093644e-16 	4.327102e-13 	-1.8551688e-15 	1.9263486e-14
0.43298969 	1.9810581e-13 	8.2630013e-14 	2.0249098e-16 	4.4484563e-13 	-8.0995447e-16 	1.7052555e-14
0.44329897 	1.7481797e-13 	6.7253876e-14 	2.0709128e-16 	4.1866847e-13 	-1.3052965e-15 	4.5596039e-14
0.45360825 	1.4913806e-13 	5.3167089e-14 	3.6141946e-16 	3.7156817e-13 	-7.0210236e-16 	6.0739629e-14
0.46391753 	1.2518772e-13 	4.2696112e-14 	-9.3121159e-17 	3.1782285e-13 	-7.1825734e-16 	7.7164249e-15
0.4742268 	1.0253196e-13 	3.2211811e-14 	5.0348128e-16 	2.672001e-13 	-1.001694e-15 	7.8256624e-14
0.48453608 	8.4371896e-14 	2.5894436e-14 	4.9668909e-16 	2.2111933e-13 	-1.4183718e-15 	6.7258301e-14
0.49484536 	7.1861531e-14 	2.1121184e-14 	4.0371441e-17 	1.8959295e-13 	-1.2730712e-15 	1.9752608e-14
0.50515464 	5.8285276e-14 	1.6020094e-14 	5.7680307e-16 	1.5566397e-13 	-2.1522458e-15 	6.2634398e-14
0.51546392 	5.2909211e-14 	1.3713619e-14 	4.5046005e-17 	1.4176415e-13 	-1.7075514e-15 	1.195195e-14
0.5257732 	4.407215e-14 	9.8311127e-15 	8.1926236e-16 	1.1993285e-13 	-2.5314381e-15 	5.8523246e-14
0.53608247 	4.4213261e-14 	8.4536698e-15 	2.643383e-16 	1.2089615e-13 	-2.401659e-15 	1.8107959e-14
0.54639175 	4.0307526e-14 	4.9413871e-15 	1.2684482e-15 	1.1158355e-13 	-3.8060304e-15 	6.3082882e-14
0.55670103 	-0.65289269 	0.034338995 	0.0014992729 	0.37145137 	0.016217917 	0.00070808955
0.56701031 	-2.1705614 	-0.74162832 	-0.012510599 	1.255649 	0.021181663 	0.0023936159
0.57731959 	-118.59196 	-26.409511 	-0.81428515 	62.755039 	2.1663584 	0.11962855
0.58762887 	-92.948645 	-29.637173 	5.6118239 	52.961972 	-16.503114 	31.012831
0.59793814 	-701.15146 	-567.70556 	1.5071574 	341.65474 	-5.8536359 	14.412975
0.60824742 	-2147.1535 	-1923.3459 	120.72074 	1034.5525 	-364.76594 	814.68606
0.6185567 	-3923.9477 	-4441.3532 	210.85783 	1772.9609 	-634.79782 	1411.6272
0.62886598 	-5471.7986 	-8842.7767 	6.2250212 	2102.2738 	-25.387008 	113.41434
0.63917526 	-14267.588 	-24855.038 	440.69065 	5264.561 	-1811.2146 	8114.0301
0.64948454 	-13496.735 	-25126.643 	328.79228 	4833.5387 	-1345.3888 	6021.2841
0.65979381 	-10185.174 	-22653.979 	-138.42057 	3336.9964 	76.634702 	2160.3569
0.67010309 	-15919.289 	-39208.061 	-688.81949 	4912.4874 	388.68247 	10463.35
0.68041237 	-12618.047 	-33495.535 	-274.44816 	3719.4492 	153.47132 	4211.0922
0.69072165 	-15581.515 	-45879.456 	-890.91922 	4298.9514 	1034.1944 	6752.963
0.70103093 	-21585.13 	-66150.109 	-1946.0233 	5752.4344 	2258.9821 	14706.478
0.71134021 	-9789.9514 	-33672.262 	-133.74992 	2102.7211 	158.58288 	1057.7288
0.72164948 	-10786.767 	-45954.308 	-972.6666 	1134.1467 	716.0832 	7968.6471
0.73195876 	-8603.474 	-52255.735 	-531.56253 	-1403.9883 	379.06024 	4237.4715
0.74226804 	-10641.624 	-102037.04 	-1172.3579 	-7332.5926 	-142.45041 	12684.492
0.75257732 	-11275.325 	-126913.5 	-1676.1829 	-10594.143 	-203.80969 	18307.066
0.7628866 	-2290.6174 	-69176.553 	-259.4531 	-8716.6757 	-198.82871 	3249.2374
0.77319588 	1185.451 	-75518.888 	-813.02912 	-12345.826 	-621.97243 	10369.636
0.78350515 	1033.0563 	-25760.247 	-32.930772 	-4694.9624 	-33.109054 	390.34526
0.79381443 	1702.593 	-16114.352 	-142.65337 	-3772.3067 	-155.74767 	1950.0346
0.80412371 	521.8111 	-4399.9024 	-0.90794829 	-1074.1865 	-3.7604101 	42.595037
0.81443299 	278.92906 	-1453.4188 	-6.8454476 	-442.62716 	-12.005506 	139.7486
0.82474227 	121.24223 	-493.81067 	5.1163486 	-173.915 	1.7131967 	7.9780542
0.83505155 	79.384111 	-250.01787 	5.2112046 	-104.24229 	1.830823 	7.581917
0.84536082 	30.215832 	-90.554082 	1.2719044 	-38.92753 	0.30574858 	2.9037592
0.8556701 	9.8181498 	-26.977513 	0.54777809 	-12.213217 	0.26050723 	0.058798753
0.86597938 	5.7675177 	-15.33152 	0.16029481 	-7.0136956 	0.00029710894 	0.61346114
0.87628866 	2.6861388 	-6.6814338 	0.053571562 	-3.209743 	-0.0031758363 	0.17680485
0.88659794 	3.9334299 	-9.7161526 	0.29050645 	-4.6619538 	0.13287326 	0.01409073
0.89690722 	0.65874162 	-1.4990198 	0.030262629 	-0.76244326 	0.010516922 	0.01725801
0.90721649 	0.23726097 	-0.4928559 	0.0078818275 	-0.26923781 	0.0020986572 	0.0061548093
0.91752577 	0.080349491 	-0.14063454 	-0.00035127843 	-0.089388794 	-0.0016009706 	0.0032454148
0.92783505 	0.069566248 	-0.10973198 	0.00066353496 	-0.076541716 	-0.0012079026 	0.0024253622
0.93814433 	0.078924788 	-0.089526265 	-0.00099034135 	-0.084450406 	-0.0041364208 	0.003763247
0.94845361 	0.2066677 	-0.20829748 	-0.0037692472 	-0.21691612 	-0.014680458 	0.0079861735
0.95876289 	2.3849513 	-4.0586615 	-0.13493202 	-2.4432645 	-0.08368182 	0.0032500139
0.96907216 	7.908615 	-10.816283 	-0.10617933 	-8.1453469 	-0.39896873 	0.099450206
0.97938144 	10.675648 	-11.835616 	0.0032346874 	-10.939224 	-0.42673672 	0.042153622
0.98969072 	1.0757473 	-10.237563 	-0.33858662 	-1.056023 	-0.10962585 	0.0023673107
