0.36082474 	-0.033174374 	0.10000628 	0.004985775 	0.032980681 	-0.034293 	-8.9792083e-05
0.37113402 	3.7829084e-16 	1.93732e-16 	-2.3810246e-18 	7.1682203e-16 	-1.6754725e-17 	5.0999171e-16
0.3814433 	1.7125125e-15 	3.7046083e-16 	2.5815558e-17 	4.0753261e-15 	-3.5596475e-16 	2.4401832e-15
0.39175258 	1.9354238e-14 	2.6891251e-15 	6.8952974e-16 	3.6475836e-14 	-5.3392524e-15 	1.7570177e-14
0.40206186 	5.6943136e-14 	8.560929e-15 	2.8161215e-15 	1.0721397e-13 	-1.7982936e-14 	5.8401056e-14
0.41237113 	1.0514665e-13 	2.3747214e-14 	4.2189339e-15 	2.0549213e-13 	-2.3902841e-14 	8.5513321e-14
0.42268041 	1.3973026e-13 	4.0042084e-14 	4.3253105e-15 	3.0082691e-13 	-2.0948445e-14 	9.7177253e-14
0.43298969 	1.5047875e-13 	4.692058e-14 	2.840808e-15 	3.5905393e-13 	-1.0564117e-14 	8.5321476e-14
0.44329897 	1.4432933e-13 	4.3622717e-14 	1.0086487e-15 	3.6822067e-13 	-2.9097556e-15 	5.5112439e-14
0.45360825 	1.2916549e-13 	3.6667065e-14 	1.3197306e-16 	3.4114712e-13 	-8.9039351e-16 	2.0721882e-14
0.46391753 	1.0974156e-13 	2.9622611e-14 	9.5179251e-17 	2.9425769e-13 	-4.7588534e-16 	5.1158642e-15
0.4742268 	8.8996813e-14 	2.3854283e-14 	5.0503472e-16 	2.3920411e-13 	-1.0947471e-15 	1.9998041e-14
0.48453608 	7.033601e-14 	1.9173222e-14 	4.0303816e-16 	1.8869047e-13 	-2.0195759e-15 	2.4177896e-14
0.49484536 	5.3759888e-14 	1.4974005e-14 	3.3530962e-16 	1.4375415e-13 	-9.2634928e-16 	2.1287426e-14
0.50515464 	3.9949555e-14 	1.1141237e-14 	4.4827333e-16 	1.0665658e-13 	-9.3857487e-16 	2.6779005e-14
0.51546392 	2.9802931e-14 	8.1322526e-15 	2.0195365e-16 	7.9680829e-14 	-1.0437297e-15 	1.7448001e-14
0.5257732 	2.4116589e-14 	6.4801641e-15 	-1.4103769e-17 	6.3861751e-14 	-4.3229802e-16 	5.8276608e-16
0.53608247 	1.5918387e-14 	3.6814149e-15 	1.1872722e-16 	4.3029488e-14 	-5.9850783e-16 	9.9092401e-15
0.54639175 	1.4534787e-14 	2.9876444e-15 	5.164908e-18 	3.9309549e-14 	-4.1690996e-16 	1.3503728e-15
0.55670103 	-0.5664289 	0.029791417 	0.00056153707 	0.32225937 	0.0060742522 	0.00061431593
0.56701031 	-2.7826358 	0.14641126 	0.071456709 	1.5843872 	-0.20436006 	0.50026115
0.57731959 	-56.576461 	-10.448763 	0.013019826 	29.856861 	-0.1452392 	2.185286
0.58762887 	-237.91497 	-48.665363 	0.53717643 	123.99277 	-1.364059 	2.2518908
0.59793814 	-757.79746 	-199.87637 	55.918023 	389.93874 	-160.65852 	298.59652
0.60824742 	-891.58549 	-521.36004 	31.150611 	438.32902 	-67.561519 	116.87326
0.6185567 	-615.40238 	-473.76146 	30.253584 	278.22966 	-73.912431 	106.59529
0.62886598 	-1698.1987 	-2581.5127 	54.757522 	645.51455 	-93.615414 	131.63952
0.63917526 	-2933.1847 	-4766.2738 	132.25332 	1102.7529 	-47.133026 	25.749899
0.64948454 	-1216.5805 	-2278.7854 	26.466621 	388.38159 	-105.17738 	148.16827
0.65979381 	-3467.9886 	-7509.3106 	194.3853 	1107.7952 	-78.246824 	71.65824
0.67010309 	-3486.8271 	-7753.7344 	201.23312 	1085.562 	-66.030731 	68.53527
0.68041237 	-1585.2663 	-4909.8435 	14.015753 	327.52048 	-83.660646 	156.30003
0.69072165 	-5094.2841 	-14768.367 	442.77015 	1360.0066 	-59.800404 	31.080673
0.70103093 	-2658.4653 	-8254.1983 	139.71715 	617.28381 	-27.383421 	114.99583
0.71134021 	-2496.3538 	-9512.8958 	182.74421 	383.12123 	-23.018238 	105.88067
0.72164948 	-4027.3006 	-14685.093 	410.86325 	738.82698 	-16.400209 	43.20141
0.73195876 	-1105.4633 	-8220.8739 	-57.496192 	-414.76787 	23.780631 	151.42773
0.74226804 	-3661.7147 	-29965.928 	908.47974 	-1751.9477 	53.054249 	8.4595977
0.75257732 	-1116.7881 	-11359.682 	-67.066892 	-853.25409 	68.450328 	395.36246
0.7628866 	-1538.5316 	-30370.901 	764.04505 	-3403.212 	105.83942 	112.74332
0.77319588 	-594.9827 	-18317.632 	100.61613 	-2279.1642 	29.393896 	428.27027
0.78350515 	488.81089 	-13663.774 	256.20545 	-2420.5783 	55.207774 	192.11875
0.79381443 	255.27105 	-7060.6447 	57.151387 	-1259.0737 	9.8362794 	26.998854
0.80412371 	287.75138 	-2535.1961 	57.537497 	-606.60846 	13.792181 	9.5944198
0.81443299 	114.54726 	-988.12437 	5.5676632 	-238.55105 	1.2347614 	2.3081451
0.82474227 	56.535094 	-298.63762 	7.7341109 	-89.762662 	2.3269003 	-0.033399389
0.83505155 	7.787507 	-36.347017 	0.82737752 	-11.627218 	0.23223877 	0.22222126
0.84536082 	6.6435855 	-25.766863 	0.45134488 	-9.1796928 	0.15951107 	0.0037881103
0.8556701 	1.9912746 	-6.310377 	0.10320837 	-2.5491375 	0.040653204 	0.014887254
0.86597938 	0.8432579 	-2.5571933 	0.055303886 	-1.06404 	0.020029065 	0.0089987496
0.87628866 	0.66200871 	-1.794953 	0.02438859 	-0.80866369 	0.010531341 	0.00073769436
0.88659794 	0.27737707 	-0.63612626 	0.011545625 	-0.32519198 	0.0057844904 	0.00016220334
0.89690722 	0.080625068 	-0.16181641 	0.00025787781 	-0.091767638 	-0.0003423654 	0.0014351738
0.90721649 	0.046008904 	-0.08527331 	0.0014332878 	-0.051588452 	0.00021976977 	0.0010390604
0.91752577 	0.028172711 	-0.043025353 	-0.00022916691 	-0.030555652 	-0.00085364045 	0.00089625732
0.92783505 	0.037364438 	-0.049593187 	-0.00057543567 	-0.039616944 	-0.0018522613 	0.0012521869
0.93814433 	0.13313942 	-0.16821167 	-0.0023641744 	-0.13875268 	-0.0090903847 	0.0039628235
0.94845361 	0.94314051 	-1.3226525 	-0.024941023 	-0.96948821 	-0.074570375 	0.017857432
0.95876289 	7.3546928 	-13.210648 	-0.10606518 	-7.5048529 	-0.45782077 	0.089237861
0.96907216 	10.345959 	-20.782306 	-0.12845428 	-10.50731 	-0.77110894 	0.074152014
0.97938144 	7.9845426 	-22.012154 	-0.51148858 	-8.039707 	-0.36757974 	-0.0069772123
0.98969072 	5.9642561 	-57.759147 	-0.062573257 	-5.770369 	-2.0744761 	-0.1318677
