0.47777778 	-1.6152272e-10 	-1.209918e-09 	5.282616e-11 	3.135427e-10 	-1.3689568e-11 	5.9771123e-13
0.48888889 	-0.35052039 	-0.13749452 	-0.0039620043 	0.6597236 	0.019010413 	0.0012576165
0.5 	2.0655701e-13 	-4.9833542e-14 	9.4055831e-16 	1.7474334e-13 	1.1879507e-14 	2.6541798e-14
0.51111111 	2.0870688e-13 	-7.8224396e-14 	9.505487e-15 	1.9039191e-13 	8.3363769e-15 	6.9501604e-14
0.52222222 	5.3910848e-13 	-1.9554395e-13 	6.182702e-15 	5.1119088e-13 	-3.4913117e-14 	9.6463387e-14
0.53333333 	9.1590909e-13 	-3.4445146e-13 	1.0058519e-15 	8.6968758e-13 	-1.9052916e-13 	7.5789955e-13
0.54444444 	2.0516222e-12 	-9.4927582e-13 	-2.7818934e-14 	2.3985768e-12 	-2.1471346e-13 	1.697435e-12
0.55555556 	3.2311419e-12 	-1.3650075e-12 	-5.1464656e-14 	3.4685579e-12 	4.2182409e-13 	2.1147472e-12
0.56666667 	3.7139823e-12 	-1.5023406e-12 	-5.8404113e-14 	4.2744025e-12 	6.1079325e-13 	2.2369423e-12
0.57777778 	4.2380145e-12 	-1.8347137e-12 	-8.5493972e-14 	4.6121715e-12 	6.1079146e-13 	2.9938784e-12
0.58888889 	4.5333103e-12 	-1.9926044e-12 	-1.2743822e-13 	5.031346e-12 	8.1958873e-13 	4.2132762e-12
0.6 	4.6558799e-12 	-2.0604914e-12 	-1.1084221e-13 	4.9368127e-12 	6.4512075e-13 	3.8508036e-12
0.61111111 	4.4323017e-12 	-1.9768789e-12 	-4.3387448e-14 	4.5076308e-12 	2.0423531e-13 	1.7644961e-12
0.62222222 	3.9425653e-12 	-1.7638757e-12 	-1.3666042e-14 	3.8744427e-12 	4.9718046e-14 	3.3777138e-13
0.63333333 	3.3066915e-12 	-1.5049224e-12 	-3.7189618e-14 	3.2125335e-12 	8.4257459e-14 	2.2424161e-12
0.64444444 	2.4576206e-12 	-1.0993678e-12 	-1.1383927e-14 	2.3172952e-12 	-6.4815903e-14 	1.5455755e-12
0.65555556 	1.7352706e-12 	-7.5778472e-13 	-7.0891869e-15 	1.5818287e-12 	9.7162824e-15 	4.4592298e-14
0.66666667 	9.9591523e-13 	-4.2698634e-13 	-7.235447e-16 	9.0099228e-13 	-7.0014152e-14 	7.1971104e-13
0.67777778 	5.7829683e-13 	-2.4282958e-13 	-1.7451376e-15 	5.1048585e-13 	-1.3574263e-14 	1.4125759e-13
0.68888889 	2.7305406e-13 	-1.1201175e-13 	-7.7765396e-16 	2.3746149e-13 	-1.1221573e-14 	1.0597684e-13
0.7 	9.4993731e-14 	-3.837183e-14 	-3.0558934e-16 	8.1139685e-14 	-2.2519765e-15 	2.1749252e-14
0.71111111 	4.1909201e-14 	-1.6313936e-14 	-3.1541275e-16 	3.4745138e-14 	-2.9339381e-17 	5.2996356e-15
0.72222222 	1.2365116e-14 	-4.7573076e-15 	-4.1464921e-17 	1.0100703e-14 	-3.4464551e-16 	2.8755397e-15
0.73333333 	5.9513299e-15 	-2.1740418e-15 	-5.0501545e-17 	4.6706492e-15 	3.0324909e-17 	5.2797297e-16
0.74444444 	2.1368776e-15 	-7.5352001e-16 	-1.0523455e-17 	1.6234895e-15 	-1.3201708e-16 	7.4546957e-16
0.75555556 	7.8033641e-16 	-2.3459124e-16 	-3.6016331e-18 	5.64771e-16 	-1.6572848e-17 	1.2036654e-16
0.76666667 	2.586792e-16 	-3.1553254e-17 	-2.7655645e-18 	1.5666055e-16 	-4.8389138e-17 	1.2805304e-16
0.77777778 	1.6842014e-16 	2.7879266e-17 	9.705223e-20 	1.302831e-16 	-5.4600685e-19 	2.159626e-18
0.78888889 	1.5911115e-16 	6.3810428e-17 	-9.3236143e-19 	1.3987226e-16 	-2.0113519e-17 	1.2095222e-16
0.8 	1.4975924e-16 	6.6163075e-17 	-4.8115138e-20 	1.4751648e-16 	-4.6944253e-18 	5.1119282e-17
0.81111111 	1.4505104e-16 	6.7502978e-17 	-5.2403926e-20 	1.5163926e-16 	-5.5712147e-18 	6.1196192e-17
0.82222222 	1.4143259e-16 	6.7681743e-17 	2.6462682e-19 	1.5504711e-16 	-8.8904727e-18 	1.2993054e-16
0.83333333 	1.3922262e-16 	6.7598905e-17 	1.0410548e-19 	1.5666308e-16 	-1.7467293e-18 	3.3202467e-17
0.84444444 	1.3725344e-16 	6.7527866e-17 	1.6762278e-19 	1.5853213e-16 	-2.8142849e-18 	5.3084309e-17
0.85555556 	1.3518329e-16 	6.7378188e-17 	4.0382451e-19 	1.6074898e-16 	-5.0196142e-18 	1.2782779e-16
0.86666667 	1.3517695e-16 	6.7516806e-17 	2.590566e-19 	1.603168e-16 	-2.5237457e-18 	1.0496118e-16
0.87777778 	5.6806724e-16 	2.8743367e-16 	5.7223022e-18 	7.0409869e-16 	1.3773391e-17 	9.9910388e-17
0.88888889 	5.3535735e-15 	2.664177e-15 	3.8170134e-17 	6.4909611e-15 	1.2042451e-16 	8.5394379e-16
0.9 	1.7234432e-14 	8.33259e-15 	5.3506455e-17 	1.9627224e-14 	1.3858427e-16 	1.6524198e-16
0.91111111 	2.8917659e-14 	1.3642315e-14 	-1.8729849e-18 	3.0892119e-14 	2.4830486e-17 	5.0979872e-16
0.92222222 	2.9802967e-14 	1.3720122e-14 	-3.4213492e-17 	2.9763056e-14 	3.6383955e-17 	3.8379044e-15
0.93333333 	2.4388383e-14 	1.1032539e-14 	4.6628629e-17 	2.3209503e-14 	1.2135635e-16 	1.0225687e-14
0.94444444 	2.4099101e-14 	1.0779634e-14 	1.5905054e-16 	2.2393375e-14 	-2.1934026e-16 	2.1045277e-14
0.95555556 	8.4572659 	91.838541 	-1.078959 	-8.8143035 	0.11578951 	-0.016802512
0.96666667 	8.3282776 	94.225029 	0.36862578 	-8.5024984 	-18.453705 	0.16739623
0.97777778 	9.202782 	-8.3312881 	-0.38249291 	-9.2104616 	5.9989825 	-0.0038794278
0.98888889 	4.552332e-06 	-0.00021464633 	1.2963937e-06 	-4.4698018e-06 	2.1298911e-06 	-2.8418685e-08
