0.3814433 	0.01015185 	-0.041326648 	-0.0016770725 	-0.009471978 	-0.00038444221 	-1.8025069e-05
0.39175258 	1.5399769e-11 	-5.11726e-11 	1.2888363e-12 	-2.571679e-11 	6.4770907e-13 	-4.9020415e-14
0.40206186 	-0.0045338949 	0.0023065537 	0.00010068147 	0.0040563358 	0.00017701993 	7.7325034e-06
0.41237113 	-0.13289075 	0.042967352 	0.0018828823 	0.123946 	0.005148849 	0.00042851653
0.42268041 	-0.011630955 	0.0029722823 	0.00012812556 	0.010474662 	9.9191999e-05 	0.0001380801
0.43298969 	-0.027597701 	0.0091897389 	0.00029660674 	0.023899536 	0.00043891451 	0.00012773577
0.44329897 	-0.022647065 	0.0085752149 	0.00013625164 	0.019411455 	0.0003050463 	3.7003628e-05
0.45360825 	-0.0046263337 	0.002254736 	1.7474396e-05 	0.0038859481 	3.0116429e-05 	7.4076972e-06
0.46391753 	-0.00010782321 	7.4125716e-05 	4.2639435e-07 	8.7284528e-05 	5.0208794e-07 	1.6638861e-07
0.4742268 	4.2715195e-14 	1.6269197e-14 	8.6453773e-16 	9.7306387e-14 	-3.0367654e-15 	1.891657e-14
0.48453608 	3.6403178e-14 	1.4974961e-14 	8.2673295e-16 	8.0844101e-14 	-2.5553453e-15 	1.745973e-14
0.49484536 	3.0071277e-14 	1.3911413e-14 	1.1335455e-15 	6.225679e-14 	-2.7736378e-15 	2.5491956e-14
0.50515464 	2.4045969e-14 	1.1679671e-14 	5.5399777e-16 	4.7196332e-14 	-1.5394844e-15 	1.4509199e-14
0.51546392 	1.9674024e-14 	9.8708835e-15 	2.5120017e-16 	3.6366312e-14 	-6.389681e-16 	7.275843e-15
0.5257732 	1.6996967e-14 	8.6025163e-15 	1.3835347e-16 	2.9656062e-14 	-4.2244542e-16 	4.2818795e-15
0.53608247 	1.3748783e-14 	6.9039571e-15 	-1.5976971e-17 	2.2716959e-14 	-2.5142481e-16 	1.0038545e-15
0.54639175 	1.0930717e-14 	5.3616515e-15 	8.3291616e-18 	1.6870901e-14 	-3.77166e-17 	3.134034e-16
0.55670103 	8.4210354e-15 	3.9183283e-15 	-1.1816677e-17 	1.2044477e-14 	-2.3112373e-16 	8.6526953e-16
0.56701031 	6.3319769e-15 	2.6653707e-15 	3.7932204e-17 	8.0610682e-15 	-1.7887442e-16 	1.0611116e-15
0.57731959 	4.706974e-15 	1.6992307e-15 	4.0166734e-17 	5.1124418e-15 	-2.7268828e-16 	1.4161426e-15
0.58762887 	-0.14069855 	-0.18631857 	-0.0081348445 	-0.11148932 	-0.0048677288 	-0.00021252963
0.59793814 	-0.92520299 	-1.2251903 	-0.021295083 	-0.73312944 	-0.012742553 	-0.0013975485
0.60824742 	-0.8397494 	-3.3595433 	0.24652739 	-3.1089507 	-1.2190168 	1.6921915
0.6185567 	-0.81689912 	-3.5523113 	0.26991288 	-3.2757865 	-1.3393334 	1.8606033
0.62886598 	-1.2136353 	-2.4517065 	-0.0049098559 	-1.626339 	-0.028757247 	0.015433231
0.63917526 	-0.93587967 	-1.521729 	0.024946369 	-0.55344411 	-0.037473413 	0.08711527
0.64948454 	-0.46904347 	-1.1763963 	0.006271231 	-0.060171864 	-0.051794159 	0.0736112
0.65979381 	-0.5829505 	-1.4031881 	-0.015408045 	0.052240016 	-0.021707163 	0.030997789
0.67010309 	-0.8341863 	-3.2591107 	-0.029754233 	-0.097488134 	-0.023542429 	0.031725653
0.68041237 	-1.1234692 	-5.0253044 	0.039412813 	-0.22234359 	-0.026000572 	0.023309494
0.69072165 	-0.69096755 	-6.7683438 	-0.077293915 	-0.7171947 	-0.13567459 	0.10143096
0.70103093 	-0.16854739 	-10.662092 	0.031582647 	-1.6473558 	-0.10629117 	0.096851321
0.71134021 	-0.12101844 	-11.059605 	0.062175158 	-1.6915791 	-0.26977715 	0.12335491
0.72164948 	0.69454971 	-13.52247 	0.029514569 	-2.5215078 	-0.28186845 	0.12198806
0.73195876 	1.4339862 	-17.755997 	0.17128811 	-3.6247153 	-0.1484757 	0.055962112
0.74226804 	1.2429872 	-14.547286 	0.24329249 	-2.9134277 	-0.6121024 	0.21783125
0.75257732 	1.5387922 	-14.26366 	0.13449646 	-3.0749037 	-0.17429933 	0.063252605
0.7628866 	1.3758304 	-11.297474 	0.19863343 	-2.5309989 	-0.31276591 	0.17137529
0.77319588 	1.0406326 	-8.0038605 	0.086946076 	-1.8388712 	-0.19736761 	0.10373906
0.78350515 	0.88039945 	-5.9473243 	0.058147845 	-1.4598081 	0.014310831 	0.081730522
0.79381443 	0.60904546 	-3.6755175 	0.0093189765 	-0.94133879 	0.0033079884 	0.04726988
0.80412371 	0.41230175 	-2.4527397 	0.013082618 	-0.63459665 	0.037841818 	0.035332747
0.81443299 	0.28152963 	-1.6071569 	-0.0030741293 	-0.40479924 	0.0045788414 	0.0039204862
0.82474227 	0.17059208 	-0.91406307 	0.0054443767 	-0.24019387 	0.0094469516 	0.013496639
0.83505155 	0.1091041 	-0.54489628 	-0.0021625361 	-0.14578545 	0.00040481011 	0.0049241573
0.84536082 	0.067712316 	-0.31773269 	-0.00082016085 	-0.086362055 	0.00071760029 	0.0048317164
0.8556701 	0.04758689 	-0.20624761 	0.0010167161 	-0.058721005 	3.1844243e-05 	0.0020955697
0.86597938 	0.034770688 	-0.14335004 	-0.00089862747 	-0.041322266 	-0.00048199528 	0.00087121629
0.87628866 	0.025126035 	-0.092270564 	-0.00024719905 	-0.029122511 	-0.00044936882 	0.0010878632
0.88659794 	0.022657243 	-0.076004081 	-2.737345e-05 	-0.025674565 	-0.00043129498 	0.00072473768
0.89690722 	0.024671223 	-0.075713659 	-0.00042059548 	-0.027367509 	-0.00068770138 	0.00065616395
0.90721649 	0.044324766 	-0.128444 	-0.0017905514 	-0.048223467 	-0.001727328 	0.00095283583
0.91752577 	0.19874326 	-0.5885192 	-0.0038983064 	-0.21385264 	-0.009974515 	0.0056190764
0.92783505 	0.45467928 	-1.3945574 	-0.0040476723 	-0.48403175 	-0.0074086194 	0.0021832568
0.93814433 	6.467475 	-22.493052 	-0.050774396 	-6.7892807 	-0.22290741 	0.052897136
0.94845361 	110.3042 	-459.24921 	-1.8244123 	-115.13255 	-9.0273768 	1.7796744
0.95876289 	87.282366 	-340.10189 	0.88334112 	-89.885659 	0.38061401 	-0.17134705
0.96907216 	44.86347 	-230.83999 	2.8859484 	-45.962321 	-0.042670232 	0.034046795
0.97938144 	16.810932 	-69.194654 	-0.14968753 	-16.802623 	-0.058071658 	-0.029119393
0.98969072 	4.3417133 	-40.562898 	1.3439966 	-4.2984745 	0.16080225 	-0.0081828904
