/*--------------------------------*- C++ -*----------------------------------*\
  =========                 |
  \\      /  F ield         | OpenFOAM: The Open Source CFD Toolbox
   \\    /   O peration     | Website:  https://openfoam.org
    \\  /    A nd           | Version:  7
     \\/     M anipulation  |
\*---------------------------------------------------------------------------*/
FoamFile
{
    version     2.0;
    format      ascii;
    class       surfaceScalarField;
    location    "2000";
    object      phi;
}
// * * * * * * * * * * * * * * * * * * * * * * * * * * * * * * * * * * * * * //

dimensions      [0 3 -1 0 0 0 0];

internalField   nonuniform List<scalar> 
30289
(
7.1735125e+11
-7.1735125e+11
1.0147497e+12
-2.9739847e+11
1.1340699e+12
-1.1932016e+11
1.2080761e+12
-7.4006236e+10
1.2676628e+12
-5.9586679e+10
1.3201873e+12
-5.2524517e+10
1.3046474e+12
1.5539899e+10
1.150537e+12
1.5411039e+11
1.0263273e+12
1.2420975e+11
1.1390631e+12
-1.1273582e+11
1.4175025e+12
-2.7843945e+11
1.4207767e+12
-3.2742111e+09
7.2680859e+11
6.9396816e+11
1.7278204e+11
5.5402654e+11
1.1332704e+11
5.9454996e+10
6.499545e+10
4.8331591e+10
3.6243077e+10
2.875237e+10
4.1550235e+10
-5.3071599e+09
4.870768e+10
-7.1574465e+09
8.2506992e+10
-3.3799313e+10
1.7563632e+11
-9.3129328e+10
1.4023927e+11
3.5397046e+10
1.0800727e+11
3.2232003e+10
1.8121693e+11
-7.3209663e+10
2.2629098e+11
-4.5074052e+10
2.0916631e+11
1.712467e+10
2.1930305e+11
-1.0136744e+10
1.9209055e+11
2.7212503e+10
7.6095513e+10
1.1599504e+11
1.1069491e+10
6.5026022e+10
2.9678174e+08
1.0772708e+10
-1.5830146e+10
1.6126928e+10
-1.0893659e+11
9.3106445e+10
-6.9486452e+10
-3.945014e+10
-1.2124232e+11
5.1755868e+10
-5.5528958e+11
4.3404726e+11
-5.8233161e+11
2.7042035e+10
-6.7285789e+11
9.0526282e+10
2.2049482e+12
-2.9222994e+12
2.964277e+12
-1.0567273e+12
3.2107743e+12
-3.6581747e+11
3.4455388e+12
-3.0877075e+11
3.7363494e+12
-3.5039725e+11
4.0426114e+12
-3.5878655e+11
4.291551e+12
-2.3339972e+11
4.1405226e+12
3.051388e+11
3.2756657e+12
9.8906672e+11
2.6831329e+12
4.7979693e+11
3.0448737e+12
-6.401802e+11
3.4754807e+12
-4.3388125e+11
3.3609418e+12
8.0850704e+11
3.0375326e+12
8.7743578e+11
2.7533496e+12
3.43638e+11
2.5837447e+12
2.1793643e+11
2.5978401e+12
1.465695e+10
1.985423e+12
6.0711e+11
9.1997675e+11
1.0582888e+12
7.0145814e+11
1.847193e+11
9.2835627e+11
-3.2002746e+11
7.0016873e+11
2.6358458e+11
4.4871176e+11
2.8368897e+11
-8.9818909e+10
4.6532101e+11
-1.5345917e+12
1.3996987e+12
-2.6224176e+12
1.1049506e+12
-2.9152219e+12
2.8266759e+11
-2.9446702e+12
5.666078e+10
-2.9616932e+12
1.3301804e+11
-2.9380609e+12
4.1393676e+10
-2.8546063e+12
-7.268186e+10
-2.7607215e+12
-7.7757885e+10
-2.6910382e+12
2.3423137e+10
-2.5933736e+12
-1.3711468e+11
-2.4896373e+12
-5.1980503e+10
-2.4218867e+12
3.6629671e+11
-1.6659658e+12
-7.2887889e+11
-2.1903144e+12
-1.4850935e+11
3.6712695e+12
-6.5935689e+12
4.9005122e+12
-2.2859701e+12
5.1707148e+12
-6.3602002e+11
5.4392142e+12
-5.7727022e+11
5.9240772e+12
-8.3526023e+11
6.549859e+12
-9.8456839e+11
7.2016314e+12
-8.8517213e+11
7.3035371e+12
2.0323309e+11
5.9832734e+12
2.3093304e+12
4.5225133e+12
1.9405571e+12
4.5088531e+12
-6.2652006e+11
5.2278384e+12
-1.1528666e+12
5.6805319e+12
3.5581356e+11
5.6796762e+12
8.7829145e+11
5.6402044e+12
3.8310985e+11
5.9792548e+12
-1.2111394e+11
6.4567079e+12
-4.6279618e+11
6.278914e+12
7.8490385e+11
5.3815356e+12
1.9556672e+12
4.7058614e+12
8.6039344e+11
4.4272972e+12
-4.1463191e+10
2.8823813e+12
1.8085004e+12
-4.5923688e+11
3.6253072e+12
-3.3791215e+12
3.3852057e+12
-5.2262337e+12
3.2468109e+12
-5.9624792e+12
1.841196e+12
-5.8032857e+12
1.2347416e+11
-5.635559e+12
-1.1106597e+11
-5.5019133e+12
-6.2763257e+08
-5.3498696e+12
-1.1065003e+11
-5.1858392e+12
-2.3671228e+11
-5.0131825e+12
-2.5041454e+11
-4.8291642e+12
-1.6059521e+11
-4.6187112e+12
-3.475677e+11
-4.3872332e+12
-2.8345846e+11
-4.1020667e+12
8.1130206e+10
-2.8155447e+12
-2.015401e+12
-4.3740374e+12
-6.3182157e+11
5.0354624e+12
-1.1629031e+13
6.7413189e+12
-3.9918265e+12
7.0466915e+12
-9.4139267e+11
7.3302595e+12
-8.6083825e+11
7.9984865e+12
-1.5034871e+12
8.9409914e+12
-1.9270733e+12
9.9618459e+12
-1.9060267e+12
1.0323039e+13
-1.5795965e+11
8.6971665e+12
3.9352026e+12
6.3850729e+12
4.2526506e+12
5.9854964e+12
-2.2694358e+11
6.9501694e+12
-2.1175396e+12
7.6759362e+12
-3.6995321e+11
7.8694403e+12
6.847873e+11
7.8325039e+12
4.2004625e+11
7.8841512e+12
-1.7276123e+11
8.4503557e+12
-1.0290007e+12
9.3576862e+12
-1.2242671e+11
9.664832e+12
1.6485214e+12
9.4163317e+12
1.1088937e+12
9.2382777e+12
1.3659081e+11
6.1676195e+12
4.8791586e+12
-1.6207363e+12
1.1413663e+13
-7.2095538e+12
8.9740232e+12
-8.0668261e+12
4.1040832e+12
-7.8024902e+12
1.57686e+12
-7.4703758e+12
-2.0864022e+11
-7.3835951e+12
-1.9784671e+11
-7.2647172e+12
-1.195055e+11
-7.1104616e+12
-2.649056e+11
-6.9412599e+12
-4.0591403e+11
-6.7443227e+12
-4.4735176e+11
-6.5103605e+12
-3.9455739e+11
-6.2669167e+12
-5.9101151e+11
-6.1144124e+12
-4.359627e+11
-5.9143521e+12
-1.1893012e+11
-4.2040297e+12
-3.7257233e+12
-6.9686611e+12
-1.6094061e+12
6.2541801e+12
-1.7883211e+13
8.4285052e+12
-6.1661516e+12
8.7719814e+12
-1.2848689e+12
9.0341358e+12
-1.1229926e+12
9.8025709e+12
-2.2719223e+12
1.1034222e+13
-3.1587246e+12
1.2508989e+13
-3.3807932e+12
1.3201053e+13
-8.5002428e+11
1.1252089e+13
5.884167e+12
7.8212445e+12
7.683495e+12
6.5473026e+12
1.0469983e+12
7.6649143e+12
-3.2351512e+12
8.9440007e+12
-1.6490397e+12
9.2453246e+12
3.8346337e+11
8.4762295e+12
1.1891414e+12
7.0061349e+12
1.2973333e+12
5.6157627e+12
3.6137159e+11
5.7808436e+12
-2.8750763e+11
7.1980442e+12
2.3132078e+11
8.2566028e+12
5.0335183e+10
1.0450226e+13
-2.0570328e+12
8.9130717e+12
6.4163133e+12
-2.1604004e+12
2.2487135e+13
-1.0302215e+13
1.7115838e+13
-1.0474593e+13
4.2764613e+12
-1.015226e+13
1.2545273e+12
-1.0011934e+13
-3.4896672e+11
-9.8249839e+12
-3.8479679e+11
-9.575222e+12
-3.6926739e+11
-9.2485774e+12
-5.9155019e+11
-8.7926044e+12
-8.6188708e+11
-8.3533587e+12
-8.8659743e+11
-8.172603e+12
-5.753131e+11
-8.2051607e+12
-5.5845384e+11
-8.2517049e+12
-3.894185e+11
-7.9296998e+12
-4.4093521e+11
-5.6109175e+12
-6.0445056e+12
-9.3378682e+12
-3.2417104e+12
1.1646801e+13
-2.9530013e+13
1.5922845e+13
-1.0442195e+13
1.6263111e+13
-1.6251353e+12
1.5531901e+13
-3.9178291e+11
1.5061479e+13
-1.8015004e+12
1.6400396e+13
-4.4976411e+12
2.0610824e+13
-7.5912217e+12
2.4443819e+13
-4.6830188e+12
2.2252212e+13
8.0757733e+12
1.493125e+13
1.5004457e+13
9.8693681e+12
6.1088804e+12
9.9273909e+12
-3.2931739e+12
1.1641785e+13
-3.3634341e+12
1.2386981e+13
-3.6173263e+11
1.1694873e+13
1.8812497e+12
7.9785298e+12
5.0136764e+12
4.0465833e+12
4.2933181e+12
4.022783e+12
-2.6370734e+11
6.579755e+12
-2.3256513e+12
6.1140157e+12
5.1607451e+11
9.6647045e+12
-5.6077217e+12
1.2943169e+13
3.1378492e+12
-4.8413361e+12
4.027164e+13
-2.0705752e+13
3.2980254e+13
-2.0506508e+13
4.0772171e+12
-1.9987519e+13
7.3553807e+11
-1.9609135e+13
-7.2735072e+11
-1.9076215e+13
-9.1771643e+11
-1.8562679e+13
-8.8280385e+11
-1.8059589e+13
-1.09464e+12
-1.7638463e+13
-1.2830135e+12
-1.7386349e+13
-1.1387106e+12
-1.7216019e+13
-7.4564351e+11
-1.710488e+13
-6.6959275e+11
-1.7031149e+13
-4.6314979e+11
-1.6198347e+13
-1.2737369e+12
-1.1760834e+13
-1.0482019e+13
-1.1238666e+13
-9.8600363e+12
1.517302e+13
-4.4703033e+13
2.1629331e+13
-1.6898506e+13
2.111605e+13
-1.1118536e+12
1.5536767e+13
5.1874994e+12
7.9177249e+12
5.817542e+12
5.251141e+12
-1.8310572e+12
1.2980152e+13
-1.5320233e+13
2.5758405e+13
-1.7461272e+13
2.9683155e+13
4.151023e+12
2.1492549e+13
2.3195063e+13
1.1642563e+13
1.5958867e+13
6.7728232e+12
1.5765657e+12
7.3226749e+12
-3.9132858e+12
1.1130309e+13
-4.1693672e+12
9.19257e+12
3.8189891e+12
-1.1488587e+12
1.5355105e+13
-9.9170641e+12
1.3061524e+13
-1.1218781e+13
1.0380092e+12
-8.5094963e+12
-5.0349356e+12
-8.0773316e+12
8.3909767e+10
-1.4841258e+12
-1.2200927e+13
8.7773417e+12
-7.1236183e+12
-1.003692e+13
5.9085901e+13
-3.2764474e+13
5.5707808e+13
-3.3287648e+13
4.6003908e+12
-3.2936365e+13
3.8425528e+11
-3.2390572e+13
-1.2731438e+12
-3.1585223e+13
-1.7230654e+12
-3.0794696e+13
-1.6733309e+12
-2.9947213e+13
-1.9421226e+12
-2.8987379e+13
-2.2428472e+12
-2.7984346e+13
-2.1417435e+12
-2.7291842e+13
-1.4381483e+12
-2.699117e+13
-9.7026424e+11
-2.6687269e+13
-7.6705079e+11
-2.5124756e+13
-2.8362498e+12
-1.9298561e+13
-1.6308215e+13
-9.7929168e+12
-2.074431e+13
1.7666754e+13
-6.2369787e+13
2.7442349e+13
-2.6674101e+13
2.4608193e+13
1.7223027e+12
6.1165056e+12
2.3679187e+13
-1.0972318e+13
2.2906366e+13
-1.3612293e+13
8.0891733e+11
-4.7979601e+12
-2.4134566e+13
1.6415495e+13
-3.8674726e+13
3.217038e+13
-1.1603863e+13
2.9681901e+13
2.5683542e+13
1.9541304e+13
2.6099464e+13
3.8711916e+12
1.7246678e+13
-7.0821199e+12
7.0400257e+12
-3.9240685e+12
-7.3274186e+12
-8.9448685e+12
8.8397891e+12
-2.2956425e+13
2.9366662e+13
-3.1118217e+13
2.1223315e+13
-3.1814138e+13
1.7339305e+12
-2.8299718e+13
-8.5493556e+12
-2.2448003e+13
-5.7678048e+12
-1.1167654e+13
-2.3481277e+13
3.0564332e+12
-2.1347706e+13
-2.0131582e+13
8.2273917e+13
-5.1597563e+13
8.7173789e+13
-5.2980008e+13
5.9828352e+12
-5.1972735e+13
-6.2301775e+11
-5.0865697e+13
-2.3801813e+12
-4.9517109e+13
-3.0716539e+12
-4.8170931e+13
-3.0195084e+12
-4.6775238e+13
-3.3378157e+12
-4.5278677e+13
-3.7394088e+12
-4.3630709e+13
-3.7897117e+12
-4.2062332e+13
-3.0065252e+12
-4.1514401e+13
-1.5181949e+12
-4.1419662e+13
-8.6178976e+11
-3.8798414e+13
-5.4574983e+12
-3.2424757e+13
-2.2681871e+13
-3.9585122e+12
-3.8259161e+13
1.5823943e+13
-7.819373e+13
2.7780992e+13
-3.863115e+13
1.7155444e+13
1.2347851e+13
-1.486456e+13
5.5699191e+13
-3.6088877e+13
4.4130683e+13
-3.793235e+13
2.6523897e+12
-2.8954617e+13
-3.3112298e+13
-4.1509497e+12
-6.3478393e+13
2.4347193e+13
-4.0102005e+13
3.5502536e+13
1.4528199e+13
8.705069e+12
5.289693e+13
-3.1245416e+13
5.7197164e+13
-4.7640413e+13
2.3435023e+13
-4.826629e+13
-6.7015423e+12
-5.2095925e+13
1.2669424e+13
-6.0235927e+13
3.7506664e+13
-6.4800291e+13
2.5787679e+13
-6.430031e+13
1.2339491e+12
-5.8963665e+13
-1.3886001e+13
-4.7633028e+13
-1.7098442e+13
-2.6514083e+13
-4.4600221e+13
-8.8488605e+12
-3.9012928e+13
-4.0716879e+13
1.1414194e+14
-7.8830433e+13
1.2528734e+14
-7.9454844e+13
6.6072469e+12
-7.7358295e+13
-2.7195669e+12
-7.5787396e+13
-3.9510806e+12
-7.3778297e+13
-5.0807525e+12
-7.1777595e+13
-5.020211e+12
-6.9729938e+13
-5.3854718e+12
-6.7618016e+13
-5.8513318e+12
-6.5435357e+13
-5.9723702e+12
-6.3252946e+13
-5.188936e+12
-6.1490176e+13
-3.280965e+12
-6.1342335e+13
-1.0096308e+12
-5.7825219e+13
-8.9746144e+12
-5.6282947e+13
-2.4224144e+13
5.2895619e+12
-6.5531021e+13
-3.2118147e+11
-7.7872549e+13
-9.1894995e+11
-3.8033382e+13
-2.2117226e+13
3.3546126e+13
-5.9216358e+13
9.2798323e+13
-8.0212959e+13
6.5127284e+13
-8.2409934e+13
4.8493647e+12
-7.0833037e+13
-4.4689196e+13
-4.3013365e+13
-9.1298065e+13
9.4546693e+12
-9.257004e+13
2.0427956e+13
3.5549129e+12
-4.5833371e+13
1.1915826e+14
-1.0092726e+14
1.1229106e+14
-1.1258394e+14
3.5091699e+13
-1.1325617e+14
-6.0293094e+12
-1.1437591e+14
1.378916e+13
-1.1713532e+14
4.0266077e+13
-1.1817494e+14
2.6827303e+13
-1.1537109e+14
-1.5699024e+12
-1.0642317e+14
-2.2833926e+13
-8.7320694e+13
-3.6200917e+13
-5.460979e+13
-7.7311125e+13
-3.4490273e+13
-5.9132444e+13
-7.4142571e+13
1.5379423e+14
-1.1599711e+14
1.6714188e+14
-1.1491617e+14
5.5263087e+12
-1.1144163e+14
-6.194112e+12
-1.0951503e+14
-5.8776805e+12
-1.0681962e+14
-7.7761573e+12
-1.041293e+14
-7.7105364e+12
-1.013873e+14
-8.1274645e+12
-9.8658725e+13
-8.5799114e+12
-9.6052784e+13
-8.5783108e+12
-9.3745528e+13
-7.4961919e+12
-9.1963953e+13
-5.0625401e+12
-9.116875e+13
-1.8048342e+12
-8.8230256e+13
-1.1913109e+13
-9.3606238e+13
-1.8848161e+13
2.2506995e+13
-1.1082367e+14
-5.5061832e+13
-2.2810716e+13
-8.5568129e+13
-7.5270857e+12
-1.0883928e+14
5.6817279e+13
-1.3787969e+14
1.2183873e+14
-1.5532118e+14
8.2568778e+13
-1.5746027e+14
6.9884513e+12
-1.4659536e+14
-5.5554106e+13
-1.1842015e+14
-1.1947327e+14
-7.3971944e+13
-1.3701825e+14
-8.6053853e+13
1.5636822e+13
-1.4999938e+14
1.8310378e+14
-1.8184718e+14
1.4413886e+14
-1.8472658e+14
3.7971092e+13
-1.8324577e+14
-7.5101205e+12
-1.8096525e+14
1.1508648e+13
-1.7839434e+14
3.7695164e+13
-1.7507307e+14
2.3506028e+13
-1.6983067e+14
-6.8123028e+12
-1.5976982e+14
-3.2894771e+13
-1.3937048e+14
-5.660026e+13
-1.0151801e+14
-1.151636e+14
-6.8921484e+13
-9.1728967e+13
-1.0914123e+14
1.9401398e+14
-1.5791194e+14
2.1591259e+14
-1.5427006e+14
1.8844266e+12
-1.5027751e+14
-1.0186663e+13
-1.4853142e+14
-7.6237692e+12
-1.4568031e+14
-1.0627268e+13
-1.4286216e+14
-1.0528685e+13
-1.3996078e+14
-1.1028849e+13
-1.3715169e+14
-1.1388998e+13
-1.3467013e+14
-1.1059868e+13
-1.3280275e+14
-9.3635766e+12
-1.3183486e+14
-6.0304289e+12
-1.3226682e+14
-1.3728715e+12
-1.3099701e+14
-1.3182918e+13
-1.2923058e+14
-2.0614593e+13
5.1871057e+13
-1.5859464e+14
-1.5878264e+14
1.3597192e+14
-2.1613771e+14
4.9827992e+13
-2.3379489e+14
7.4474452e+13
-2.4946896e+14
1.3751281e+14
-2.5883213e+14
9.193195e+13
-2.5932045e+14
7.4767676e+12
-2.5454091e+14
-6.0333645e+13
-2.4368842e+14
-1.3032576e+14
-2.2945185e+14
-1.5125482e+14
-2.3497429e+14
2.1159262e+13
-2.4773143e+14
1.9586093e+14
-2.4494572e+14
1.4135315e+14
-2.3949284e+14
3.251821e+13
-2.3500644e+14
-1.1996525e+13
-2.2901608e+14
5.5182968e+12
-2.2159222e+14
3.0271304e+13
-2.1540579e+14
1.7319596e+13
-2.1092871e+14
-1.1289387e+13
-2.0586933e+14
-3.7954151e+13
-1.9574665e+14
-6.6722938e+13
-1.7043483e+14
-1.4047542e+14
-1.3033869e+14
-1.3182511e+14
-1.5704321e+14
2.207185e+14
-1.9952747e+14
2.5839686e+14
-1.9131531e+14
-6.3277389e+12
-1.8938316e+14
-1.2118806e+13
-1.8878897e+14
-8.2179664e+12
-1.8706613e+14
-1.2350107e+13
-1.8552804e+14
-1.2066775e+13
-1.8392447e+14
-1.2632411e+13
-1.8250106e+14
-1.2812415e+13
-1.8149518e+14
-1.2065746e+13
-1.8117036e+14
-9.6883951e+12
-1.818336e+14
-5.3671929e+12
-1.8435496e+14
1.1484884e+12
-1.8613399e+14
-1.1403887e+13
-1.8416791e+14
-2.2580673e+13
8.8733029e+13
-2.2102988e+14
-2.9551338e+14
4.314853e+14
-3.6343458e+14
1.1774919e+14
-3.6356208e+14
7.4601951e+13
-3.5848212e+14
1.3243285e+14
-3.4875031e+14
8.2200132e+13
-3.384053e+14
-2.868239e+12
-3.3205843e+14
-6.6680514e+13
-3.3034923e+14
-1.3203496e+14
-3.2843653e+14
-1.5316752e+14
-3.1780433e+14
1.0527061e+13
-2.9758815e+14
1.7564474e+14
-2.790416e+14
1.228066e+14
-2.6936957e+14
2.2846181e+13
-2.64129e+14
-1.7237092e+13
-2.5826936e+14
-3.4134464e+11
-2.5092009e+14
2.2922031e+13
-2.453683e+14
1.1767807e+13
-2.4263095e+14
-1.4026732e+13
-2.4276671e+14
-3.7818395e+13
-2.4702744e+14
-6.2462211e+13
-2.5138086e+14
-1.3612199e+14
-2.371188e+14
-1.4608717e+14
-2.3537373e+14
2.1897343e+14
-2.358784e+14
2.5890153e+14
-2.2404023e+14
-1.8165911e+13
-2.2605172e+14
-1.0107317e+13
-2.2693575e+14
-7.3339328e+12
-2.2760631e+14
-1.1679543e+13
-2.290461e+14
-1.0626993e+13
-2.3096847e+14
-1.0710035e+13
-2.3354407e+14
-1.0236823e+13
-2.3666238e+14
-8.947431e+12
-2.401133e+14
-6.2374713e+12
-2.4394182e+14
-1.5386807e+12
-2.4951792e+14
6.7245889e+12
-2.5509299e+14
-5.8288103e+12
-2.5546415e+14
-2.2209518e+13
1.3064017e+14
-2.9737129e+14
-4.1095735e+14
8.4244265e+14
-4.4672783e+14
1.5351967e+14
-4.1979314e+14
4.7667267e+13
-3.9399261e+14
1.0663232e+14
-3.642186e+14
5.2426121e+13
-3.4524667e+14
-2.1840164e+13
-3.3817342e+14
-7.3753769e+13
-3.4215056e+14
-1.2805782e+14
-3.5107677e+14
-1.442413e+14
-3.4631871e+14
5.7689935e+12
-3.2505962e+14
1.5438565e+14
-3.0412901e+14
1.0187598e+14
-2.9405802e+14
1.2775199e+13
-2.9128191e+14
-2.0013208e+13
-2.8796869e+14
-3.6545634e+12
-2.829898e+14
1.7943141e+13
-2.7924366e+14
8.0216698e+12
-2.7790834e+14
-1.5362057e+13
-2.8016323e+14
-3.5563501e+13
-2.9093514e+14
-5.1690298e+13
-3.1512955e+14
-1.1192758e+14
-3.3283174e+14
-1.2838499e+14
-3.1128662e+14
1.9742832e+14
-2.7243216e+14
2.2004707e+14
-2.6090003e+14
-2.9698041e+13
-2.6594533e+14
-5.0620226e+12
-2.6796693e+14
-5.3123277e+12
-2.714192e+14
-8.227274e+12
-2.7677966e+14
-5.2665316e+12
-2.8398464e+14
-3.5050562e+12
-2.9301124e+14
-1.2102198e+12
-3.0310849e+14
1.1498163e+12
-3.1320654e+14
3.8605755e+12
-3.227791e+14
8.0338805e+12
-3.3365188e+14
1.7597369e+13
-3.4497691e+14
5.4962167e+12
-3.4942334e+14
-1.7763087e+13
1.7523879e+14
-3.9402196e+14
-4.5705353e+14
1.2994962e+15
-4.2345701e+14
1.1992315e+14
-3.932684e+14
1.7478651e+13
-3.7005159e+14
8.3415514e+13
-3.4688778e+14
2.926231e+13
-3.4246188e+14
-2.6266063e+13
-3.4972684e+14
-6.6488814e+13
-3.6532017e+14
-1.1246449e+14
-3.8136216e+14
-1.2819931e+14
-3.7868974e+14
3.0965694e+12
-3.5559158e+14
1.3128749e+14
-3.3547594e+14
8.1760344e+13
-3.290902e+14
6.3894667e+12
-3.2874465e+14
-2.0358758e+13
-3.2681613e+14
-5.5830863e+12
-3.228776e+14
1.4004612e+13
-3.1985691e+14
5.0009796e+12
-3.1895126e+14
-1.6267709e+13
-3.2121862e+14
-3.3296138e+13
-3.3140804e+14
-4.1500883e+13
-3.5650426e+14
-8.6831355e+13
-3.8213121e+14
-1.0275804e+14
-3.5779515e+14
1.7309225e+14
-3.124352e+14
1.7468712e+14
-3.0443841e+14
-3.7694829e+13
-3.1031271e+14
8.1227591e+11
-3.1322019e+14
-2.4048408e+12
-3.1849022e+14
-2.9572495e+12
-3.2639244e+14
2.6356845e+12
-3.372665e+14
7.3690061e+12
-3.5133864e+14
1.2861927e+13
-3.6800151e+14
1.7812685e+13
-3.8615196e+14
2.2011019e+13
-4.0497544e+14
2.6857367e+13
-4.2584104e+14
3.8462963e+13
-4.4704831e+14
2.6703492e+13
-4.5799284e+14
-6.8185549e+12
2.1720345e+14
-4.9995751e+14
-5.8041022e+14
1.8799064e+15
-4.786753e+14
1.8188224e+13
-5.1146392e+14
5.0267269e+13
-5.1139028e+14
8.3341879e+13
-5.2072936e+14
3.8601386e+13
-5.3920998e+14
-7.7854365e+12
-5.5639394e+14
-4.9304858e+13
-5.6924878e+14
-9.9609649e+13
-5.7540402e+14
-1.2204407e+14
-5.6032021e+14
-1.1987237e+13
-5.2643332e+14
9.74006e+13
-5.0396852e+14
5.9295548e+13
-4.9953006e+14
1.9510041e+12
-4.997616e+14
-2.012722e+13
-4.9754848e+14
-7.7962035e+12
-4.9271217e+14
9.1682949e+12
-4.8938258e+14
1.6713886e+12
-4.8896004e+14
-1.6690247e+13
-4.9212969e+14
-3.0126487e+13
-5.0326412e+14
-3.0366454e+13
-5.291657e+14
-6.0929775e+13
-5.5501944e+14
-7.6904295e+13
-5.2632839e+14
1.444012e+14
-4.8060168e+14
1.2896041e+14
-4.7860865e+14
-3.9687856e+13
-4.8845932e+14
1.0662951e+13
-4.9562583e+14
4.7616641e+12
-5.0589356e+14
7.3104841e+12
-5.1900388e+14
1.5746002e+13
-5.3564935e+14
2.4014479e+13
-5.5705977e+14
3.4272342e+13
-5.8453278e+14
4.5285698e+13
-6.1926723e+14
5.6745466e+13
-6.6147115e+14
6.9061287e+13
-7.1082824e+14
8.7820057e+13
-7.5985767e+14
7.5732918e+13
-7.8790241e+14
2.1226191e+13
2.6177693e+14
-8.324759e+14
-5.2039389e+14
2.4003003e+15
-4.4747581e+14
-5.4729859e+13
-5.703428e+14
1.7313426e+14
-5.7404203e+14
8.7041109e+13
-5.8374989e+14
4.830925e+13
-5.8892744e+14
-2.6078892e+12
-5.9440658e+14
-4.3825717e+13
-5.9771798e+14
-9.6298252e+13
-5.9706556e+14
-1.2269649e+14
-5.798982e+14
-2.9154601e+13
-5.5048514e+14
6.7987547e+13
-5.3322951e+14
4.2039911e+13
-5.3009279e+14
-1.1857113e+12
-5.3061946e+14
-1.9600556e+13
-5.2897666e+14
-9.4390037e+12
-5.251947e+14
5.3863347e+12
-5.2319474e+14
-3.285659e+11
-5.2413473e+14
-1.5750259e+13
-5.2824832e+14
-2.6012898e+13
-5.3809815e+14
-2.0516626e+13
-5.5808545e+14
-4.0942471e+13
-5.772472e+14
-5.774255e+13
-5.5574833e+14
1.2290233e+14
-5.2858784e+14
1.0179992e+14
-5.3611813e+14
-3.2157569e+13
-5.4803693e+14
2.2581752e+13
-5.5864207e+14
1.5366802e+13
-5.7203775e+14
2.0706159e+13
-5.8769343e+14
3.1401687e+13
-6.0658184e+14
4.2902886e+13
-6.3060484e+14
5.8295348e+13
-6.6279967e+14
7.7480526e+13
-7.0682425e+14
1.0077004e+14
-7.6452555e+14
1.2676259e+14
-8.3387665e+14
1.5717116e+14
-9.0205075e+14
1.4390702e+14
-9.4148062e+14
6.065606e+13
2.8314733e+14
-9.6285102e+14
-5.4510039e+14
2.9454007e+15
-5.0892156e+14
-9.0908682e+13
-6.1594208e+14
2.8015478e+14
-6.0468453e+14
7.578356e+13
-6.1126073e+14
5.4885448e+13
-6.1322863e+14
-6.3999189e+11
-6.1606875e+14
-4.0985597e+13
-6.1605175e+14
-9.6315244e+13
-6.1345348e+14
-1.2529476e+14
-5.9740373e+14
-4.5204352e+13
-5.7176002e+14
4.2343834e+13
-5.5713428e+14
2.741417e+13
-5.5441462e+14
-3.9053696e+12
-5.5542071e+14
-1.8594467e+13
-5.5503092e+14
-9.8287907e+12
-5.5341264e+14
3.7680485e+12
-5.5405881e+14
3.1760732e+11
-5.5787423e+14
-1.1934844e+13
-5.6484964e+14
-1.9037482e+13
-5.7620775e+14
-9.1585228e+12
-5.9460202e+14
-2.2548198e+13
-6.1252587e+14
-3.9818698e+13
-5.9932753e+14
1.0970399e+14
-5.866062e+14
8.90786e+13
-6.0069914e+14
-1.806463e+13
-6.1369419e+14
3.5576795e+13
-6.2659547e+14
2.8268085e+13
-6.4208779e+14
3.6198479e+13
-6.5998844e+14
4.9302336e+13
-6.8176259e+14
6.4677034e+13
-7.095118e+14
8.6044563e+13
-7.4621782e+14
1.1418654e+14
-7.9509297e+14
1.4964519e+14
-8.5774688e+14
1.8941651e+14
-9.3299605e+14
2.3242033e+14
-1.0109323e+15
2.2184332e+14
-1.0626313e+15
1.1235505e+14
2.854132e+14
-1.0648972e+15
-5.7505263e+14
3.5204533e+15
-5.4956022e+14
-1.1640109e+14
-6.3105067e+14
3.6164523e+14
-6.1875955e+14
6.3492443e+13
-6.3334507e+14
6.9470962e+13
-6.372533e+14
3.2682401e+12
-6.400248e+14
-3.8214099e+13
-6.3765626e+14
-9.8683779e+13
-6.3301398e+14
-1.2993704e+14
-6.1712265e+14
-6.1095675e+13
-5.9368344e+14
1.8904622e+13
-5.8094823e+14
1.4678964e+13
-5.7915763e+14
-5.6959737e+12
-5.8165296e+14
-1.6099133e+13
-5.839918e+14
-7.4899502e+12
-5.860819e+14
5.8581474e+12
-5.907138e+14
4.9495059e+12
-5.9844086e+14
-4.2077865e+12
-6.0906885e+14
-8.409489e+12
-6.2281038e+14
4.5830083e+12
-6.4122848e+14
-4.1300977e+12
-6.5978203e+14
-2.1265149e+13
-6.5314558e+14
1.0306753e+14
-6.4886786e+14
8.4800882e+13
-6.659967e+14
-9.3578596e+11
-6.7997447e+14
4.955456e+13
-6.9520347e+14
4.349709e+13
-7.132982e+14
5.4293206e+13
-7.3443965e+14
7.0443782e+13
-7.6031022e+14
9.054761e+13
-7.9273394e+14
1.1846827e+14
-8.3362942e+14
1.5508203e+14
-8.8417371e+14
2.0018948e+14
-9.4403942e+14
2.4928221e+14
-1.0127227e+15
3.0110364e+14
-1.0877064e+15
2.9682701e+14
-1.1464444e+15
1.7109298e+14
2.7012649e+14
-1.1311576e+15
-5.7786241e+14
4.0983157e+15
-5.525119e+14
-1.417516e+14
-6.3486042e+14
4.4399375e+14
-6.3673179e+14
6.5363807e+13
-6.6300423e+14
9.5743404e+13
-6.732587e+14
1.3522713e+13
-6.7919301e+14
-3.2279794e+13
-6.7585012e+14
-1.0202667e+14
-6.6851291e+14
-1.3727425e+14
-6.5073175e+14
-7.8876838e+13
-6.2758741e+14
-4.2397167e+12
-6.1558904e+14
2.6805957e+12
-6.1451749e+14
-6.767524e+12
-6.1890831e+14
-1.1708315e+13
-6.2451147e+14
-1.8867869e+12
-6.3064968e+14
1.1996355e+13
-6.3929555e+14
1.3595374e+13
-6.5066374e+14
7.1604066e+12
-6.6443052e+14
5.3572969e+12
-6.8003943e+14
2.0191911e+13
-6.9847588e+14
1.4306352e+13
-7.1758405e+14
-2.1569762e+12
-7.1526038e+14
1.0074386e+14
-7.1593969e+14
8.5480192e+13
-7.3488331e+14
1.8007832e+13
-7.5023253e+14
6.4903774e+13
-7.6822445e+14
6.1489012e+13
-7.8966116e+14
7.572992e+13
-8.149474e+14
9.5730016e+13
-8.4564203e+14
1.2124224e+14
-8.8285625e+14
1.556825e+14
-9.2698155e+14
1.9920732e+14
-9.7683239e+14
2.5004033e+14
-1.0298893e+15
3.023391e+14
-1.0857296e+15
3.5694398e+14
-1.149439e+15
3.6053635e+14
-1.2090973e+15
2.3075136e+14
2.3242213e+14
-1.171393e+15
-5.6777247e+14
4.6660882e+15
-5.4878411e+14
-1.6073996e+14
-6.4738072e+14
5.4259036e+14
-6.7411595e+14
9.2099037e+13
-7.1565834e+14
1.372858e+14
-7.3776973e+14
3.5634103e+13
-7.4851072e+14
-2.153881e+13
-7.4401944e+14
-1.0651794e+14
-7.3162608e+14
-1.4966762e+14
-7.0825555e+14
-1.0224737e+14
-6.815998e+14
-3.0895468e+13
-6.6733706e+14
-1.1582147e+13
-6.6510404e+14
-9.0005451e+12
-6.6982405e+14
-6.9883004e+12
-6.7698215e+14
5.2713103e+12
-6.8526798e+14
2.0282191e+13
-6.9596967e+14
2.4297061e+13
-7.0912553e+14
2.0316268e+13
-7.244481e+14
2.0679861e+13
-7.4092181e+14
3.6665624e+13
-7.5935061e+14
3.2735156e+13
-7.7913901e+14
1.7631426e+13
-7.8037072e+14
1.0197557e+14
-7.853177e+14
9.0427172e+13
-8.0711469e+14
3.9804822e+13
-8.2556181e+14
8.3350897e+13
-8.4756644e+14
8.3493638e+13
-8.7336282e+14
1.015263e+14
-9.0338981e+14
1.25757e+14
-9.3882632e+14
1.5667876e+14
-9.7981215e+14
1.9666833e+14
-1.0251126e+15
2.4450776e+14
-1.0715226e+15
2.9645033e+14
-1.1149863e+15
3.4580284e+14
-1.1549333e+15
3.9689095e+14
-1.2011583e+15
4.0676139e+14
-1.2501433e+15
2.7973634e+14
1.7061245e+14
-1.1883336e+15
-5.5045365e+14
5.2165418e+15
-5.5601164e+14
-1.5518197e+14
-6.8069391e+14
6.6727263e+14
-7.3763322e+14
1.4903834e+14
-7.9703761e+14
1.9669019e+14
-8.3314946e+14
7.174596e+13
-8.4762485e+14
-7.0634228e+12
-8.3950197e+14
-1.1464082e+14
-8.1762723e+14
-1.7154236e+14
-7.8322114e+14
-1.3665347e+14
-7.4793083e+14
-6.6185775e+13
-7.2721809e+14
-3.2294881e+13
-7.2072411e+14
-1.5494527e+13
-7.231558e+14
-4.556612e+12
-7.2945646e+14
1.157197e+13
-7.3774418e+14
2.8569906e+13
-7.4878497e+14
3.5337852e+13
-7.6267512e+14
3.4206423e+13
-7.7919974e+14
3.7204482e+13
-7.9682386e+14
5.4289737e+13
-8.1633536e+14
5.2246658e+13
-8.3834148e+14
3.9637551e+13
-8.4500535e+14
1.0863944e+14
-8.5604527e+14
1.0146709e+14
-8.8199984e+14
6.5759391e+13
-9.0438792e+14
1.0573897e+14
-9.3058722e+14
1.0969294e+14
-9.6034038e+14
1.3127946e+14
-9.9409425e+14
1.5951087e+14
-1.0324186e+15
1.9500308e+14
-1.0742259e+15
2.3847569e+14
-1.1166456e+15
2.8692738e+14
-1.1550494e+15
3.3485422e+14
-1.1849719e+15
3.7572529e+14
-1.2064514e+15
4.183705e+14
-1.2311562e+15
4.3146615e+14
-1.2546429e+15
3.0322302e+14
9.53845e+13
-1.1794149e+15
-5.3588129e+14
5.7524231e+15
-5.8959654e+14
-1.0146671e+14
-7.3725898e+14
8.1493508e+14
-8.2557916e+14
2.3735852e+14
-9.0404713e+14
2.7515816e+14
-9.5379796e+14
1.2149679e+14
-9.6963273e+14
8.7713492e+12
-9.5388674e+14
-1.3038681e+14
-9.1702369e+14
-2.0840541e+14
-8.6552294e+14
-1.8815422e+14
-8.1589266e+14
-1.1581605e+14
-7.8413803e+14
-6.4049515e+13
-7.7004048e+14
-2.9592072e+13
-7.6767955e+14
-6.9175492e+12
-7.7143719e+14
1.5329608e+13
-7.7913614e+14
3.6268862e+13
-7.9115248e+14
4.7354191e+13
-8.0749042e+14
5.0544362e+13
-8.2767767e+14
5.7391734e+13
-8.4942117e+14
7.6033233e+13
-8.7335698e+14
7.6182467e+13
-9.0070463e+14
6.6985206e+13
-9.1546471e+14
1.2339952e+14
-9.3402523e+14
1.200276e+14
-9.6412891e+14
9.5863071e+13
-9.8982362e+14
1.3143368e+14
-1.0189926e+15
1.3886197e+14
-1.0511835e+15
1.6347032e+14
-1.0867459e+15
1.9507325e+14
-1.1252644e+15
2.3352165e+14
-1.164127e+15
2.7733824e+14
-1.1989881e+15
3.2178846e+14
-1.2246857e+15
3.6055185e+14
-1.2376539e+15
3.8869346e+14
-1.2396696e+15
4.2038623e+14
-1.2439568e+15
4.3575338e+14
-1.2439585e+15
3.0322468e+14
2.6664879e+13
-1.1752389e+15
-5.2962823e+14
6.2820513e+15
-6.6218445e+14
3.1089509e+13
-8.1190018e+14
9.6465081e+14
-9.3086327e+14
3.5632161e+14
-1.0288708e+15
3.7316572e+14
-1.0904668e+15
1.8309272e+14
-1.1041953e+15
2.249991e+13
-1.0750828e+15
-1.5949936e+14
-1.0155511e+15
-2.6793708e+14
-9.3911925e+14
-2.6458607e+14
-8.6883344e+14
-1.8610187e+14
-8.2207251e+14
-1.1081044e+14
-7.9859213e+14
-5.3072452e+13
-7.9146102e+14
-1.4048652e+13
-7.9447263e+14
1.8341217e+13
-8.0513777e+14
4.6933994e+13
-8.2286333e+14
6.5079758e+13
-8.467031e+14
7.4384134e+13
-8.752412e+14
8.5929828e+13
-9.0524049e+14
1.0603253e+14
-9.3703985e+14
1.0798182e+14
-9.7181205e+14
1.017574e+14
-9.9508776e+14
1.4667524e+14
-1.0198136e+15
1.4475346e+14
-1.0518586e+15
1.2790803e+14
-1.0787075e+15
1.5828262e+14
-1.1086108e+15
1.6876526e+14
-1.1410337e+15
1.9589321e+14
-1.1756826e+15
2.297221e+14
-1.2105539e+15
2.6839295e+14
-1.2413458e+15
3.081302e+14
-1.262866e+15
3.4330861e+14
-1.2708482e+15
3.6853406e+14
-1.2641771e+15
3.8202242e+14
-1.2470898e+15
4.0329892e+14
-1.2327002e+15
4.2136379e+14
-1.2133587e+15
2.8388313e+14
-2.4424541e+13
-1.1622693e+15
-5.5092237e+14
6.8329737e+15
-7.4029585e+14
2.2046299e+14
-8.9768129e+14
1.1220362e+15
-1.0492378e+15
5.0787807e+14
-1.1685496e+15
4.9247761e+14
-1.2415324e+15
2.5607545e+14
-1.2503984e+15
3.1365955e+13
-1.2017271e+15
-2.0817065e+14
-1.1095916e+15
-3.6007259e+14
-9.9703733e+14
-3.7714036e+14
-8.9777481e+14
-2.8536439e+14
-8.3283715e+14
-1.7574811e+14
-8.0141252e+14
-8.4497074e+13
-7.9420979e+14
-2.1251388e+13
-8.0320394e+14
2.733537e+13
-8.2437981e+14
6.810986e+13
-8.5469666e+14
9.5396614e+13
-8.91364e+14
1.1105147e+14
-9.3186077e+14
1.2642659e+14
-9.7241975e+14
1.4659151e+14
-1.0131747e+15
1.4873675e+14
-1.0546976e+15
1.4328033e+14
-1.083863e+15
1.758406e+14
-1.1109532e+15
1.7184368e+14
-1.1415263e+15
1.5848111e+14
-1.1669395e+15
1.8369586e+14
-1.1953001e+15
1.9712585e+14
-1.2254681e+15
2.2606125e+14
-1.2555249e+15
2.5977892e+14
-1.2814071e+15
2.9427512e+14
-1.2975972e+15
3.2432024e+14
-1.2995533e+15
3.4526478e+14
-1.2859015e+15
3.5488222e+14
-1.2592504e+15
3.553713e+14
-1.2258467e+15
3.6989527e+14
-1.1953011e+15
3.9081821e+14
-1.1576545e+15
2.4623651e+14
-5.8118878e+13
-1.1239602e+15
-5.8783468e+14
7.4208084e+15
-7.9512571e+14
4.2775403e+14
-9.8965692e+14
1.3165675e+15
-1.1797858e+15
6.9800695e+14
-1.3270336e+15
6.3972539e+14
-1.4171244e+15
3.4616632e+14
-1.4243799e+15
3.8621449e+13
-1.3537514e+15
-2.7879919e+14
-1.2195941e+15
-4.9422989e+14
-1.0570127e+15
-5.397218e+14
-9.1698068e+14
-4.2539636e+14
-8.2923633e+14
-2.6349245e+14
-7.9200411e+14
-1.2172929e+14
-7.9040397e+14
-2.2851537e+13
-8.1157663e+14
4.8508034e+13
-8.4852694e+14
1.0506017e+14
-8.94874e+14
1.4174367e+14
-9.4600348e+14
1.6218095e+14
-9.9875862e+14
1.7918173e+14
-1.0492344e+15
1.9706725e+14
-1.0971887e+15
1.9669111e+14
-1.1421334e+15
1.8822503e+14
-1.1724506e+15
2.0615776e+14
-1.1971058e+15
1.9649891e+14
-1.2226756e+15
1.8405087e+14
-1.2441142e+15
2.0513445e+14
-1.2682633e+15
2.2127503e+14
-1.2922119e+15
2.5000979e+14
-1.3116133e+15
2.7918035e+14
-1.3207529e+15
3.034147e+14
-1.3145532e+15
3.1812054e+14
-1.2915487e+15
3.2226026e+14
-1.255186e+15
3.1851953e+14
-1.2117722e+15
3.1195752e+14
-1.1675383e+15
3.2566142e+14
-1.1255152e+15
3.4879511e+14
-1.0738721e+15
1.9459339e+14
-7.8732979e+13
-1.053258e+15
-6.1585207e+14
8.0366605e+15
-8.4972796e+14
6.6162992e+14
-1.0899767e+15
1.5568162e+15
-1.3291232e+15
9.3715351e+14
-1.5210562e+15
8.3165836e+14
-1.6441396e+15
4.6924971e+14
-1.659725e+15
5.4206872e+13
-1.5680189e+15
-3.7050535e+14
-1.3843125e+15
-6.779363e+14
-1.1573506e+15
-7.6668363e+14
-9.6098371e+14
-6.2176328e+14
-8.4033384e+14
-3.8414233e+14
-7.9366157e+14
-1.6840156e+14
-7.9715736e+14
-1.9355747e+13
-8.3021505e+14
8.1565719e+13
-8.8268732e+14
1.5753244e+14
-9.4452088e+14
2.0357724e+14
-1.0090992e+15
2.267593e+14
-1.0725867e+15
2.426692e+14
-1.1307336e+15