/*--------------------------------*- C++ -*----------------------------------*\
| =========                 |                                                 |
| \\      /  F ield         | OpenFOAM: The Open Source CFD Toolbox           |
|  \\    /   O peration     | Version:  2.4.0                                 |
|   \\  /    A nd           | Web:      www.OpenFOAM.org                      |
|    \\/     M anipulation  |                                                 |
\*---------------------------------------------------------------------------*/
FoamFile
{
    version     2.0;
    format      ascii;
    class       surfaceScalarField;
    location    "2000";
    object      phi;
}
// * * * * * * * * * * * * * * * * * * * * * * * * * * * * * * * * * * * * * //

dimensions      [0 3 -1 0 0 0 0];

internalField   nonuniform List<scalar> 
30289
(
2.0798457e-07
2.7412919e-09
2.0530394e-07
2.6806261e-09
2.0261515e-07
2.68879e-09
1.9997453e-07
2.6406192e-09
1.9738757e-07
2.5869677e-09
1.9483526e-07
2.5523026e-09
1.9230475e-07
2.5305089e-09
1.8979275e-07
2.5120072e-09
1.8729899e-07
2.4937568e-09
1.8482385e-07
2.475139e-09
1.8236638e-07
2.4574692e-09
1.799192e-07
2.4471853e-09
1.7747745e-07
2.441748e-09
1.7505565e-07
2.4218037e-09
1.7267131e-07
2.3843313e-09
1.7032485e-07
2.3464678e-09
1.6800667e-07
2.3181754e-09
1.6570793e-07
2.2987445e-09
1.6342303e-07
2.2849016e-09
1.6114879e-07
2.2742375e-09
1.5888366e-07
2.265129e-09
1.5662749e-07
2.2561741e-09
1.5438161e-07
2.2458772e-09
1.5214812e-07
2.2334916e-09
1.4992532e-07
2.2227936e-09
1.4769881e-07
2.2265175e-09
1.4544532e-07
2.2534831e-09
1.4313216e-07
2.3131616e-09
1.4068061e-07
2.4515546e-09
1.3815818e-07
2.5224312e-09
1.3550628e-07
2.651897e-09
1.3272645e-07
2.7798313e-09
1.2968753e-07
3.0389197e-09
1.2552569e-07
4.161841e-09
1.2037592e-07
5.1497664e-09
1.1205218e-07
8.3237429e-09
9.7721909e-08
1.4330269e-08
1.5895477e-08
8.1826432e-08
6.2394639e-07
1.0925988e-08
6.1590261e-07
1.0724404e-08
6.0783862e-07
1.0752782e-08
5.9991923e-07
1.056001e-08
5.9215905e-07
1.0347148e-08
5.8450267e-07
1.0208682e-08
5.7691154e-07
1.0121646e-08
5.693753e-07
1.0048247e-08
5.6189329e-07
9.9757637e-09
5.5446655e-07
9.9018769e-09
5.4709387e-07
9.83015e-09
5.3975469e-07
9.7863679e-09
5.3243165e-07
9.7647904e-09
5.251666e-07
9.6868516e-09
5.1801316e-07
9.5377711e-09
5.1097337e-07
9.3862615e-09
5.0401874e-07
9.2728032e-09
4.9712259e-07
9.1948918e-09
4.90268e-07
9.1394945e-09
4.8344531e-07
9.096922e-09
4.7664984e-07
9.0606061e-09
4.6988107e-07
9.0249389e-09
4.6314292e-07
8.984026e-09
4.5644155e-07
8.9348657e-09
4.4977246e-07
8.8918848e-09
4.4309405e-07
8.9049221e-09
4.3633875e-07
9.0087867e-09
4.2940261e-07
9.249305e-09
4.2238601e-07
9.4681534e-09
4.1511708e-07
9.7913576e-09
4.0762117e-07
1.0147803e-08
3.9998929e-07
1.0411714e-08
3.9036772e-07
1.2660489e-08
3.7844013e-07
1.6089434e-08
3.632789e-07
2.0310993e-08
3.3609166e-07
3.5510988e-08
2.8913102e-07
6.1290906e-08
1.4217627e-08
2.9080887e-07
1.039878e-06
2.4516905e-08
1.0264665e-06
2.4135872e-08
1.0130323e-06
2.4187031e-08
9.9984399e-07
2.3748285e-08
9.8691601e-07
2.3275131e-08
9.7415787e-07
2.2966822e-08
9.6150693e-07
2.2772589e-08
9.4894651e-07
2.2608663e-08
9.3647577e-07
2.244651e-08
9.2409626e-07
2.2281381e-08
9.1180838e-07
2.2118034e-08
8.9958049e-07
2.2014253e-08
8.8738036e-07
2.1964924e-08
8.7527396e-07
2.1793248e-08
8.6335148e-07
2.1460252e-08
8.5161817e-07
2.1119571e-08
8.4002718e-07
2.0863798e-08
8.2853392e-07
2.0688144e-08
8.1710995e-07
2.0563465e-08
8.0573901e-07
2.0467869e-08
7.9441318e-07
2.0386429e-08
7.8313161e-07
2.0306512e-08
7.7190056e-07
2.0215081e-08
7.6072995e-07
2.0105469e-08
7.4961292e-07
2.0008916e-08
7.3848278e-07
2.003506e-08
7.2723269e-07
2.0258878e-08
7.1566417e-07
2.0817821e-08
7.038167e-07
2.1315624e-08
6.9154939e-07
2.2058669e-08
6.7877951e-07
2.2917686e-08
6.6437036e-07
2.4820864e-08
6.4858081e-07
2.8450035e-08
6.2987328e-07
3.479697e-08
6.0610773e-07
4.407654e-08
5.6002808e-07
8.1590642e-08
4.7909504e-07
1.4222395e-07
9.4937523e-09
4.8381891e-07
1.455775e-06
4.348151e-08
1.4369845e-06
4.2926377e-08
1.4181731e-06
4.2998412e-08
1.3997268e-06
4.2194619e-08
1.3816417e-06
4.1360218e-08
1.3637895e-06
4.0819014e-08
1.3460841e-06
4.0477982e-08
1.3285006e-06
4.0192213e-08
1.3110394e-06
3.9907654e-08
1.2937045e-06
3.9616347e-08
1.2765012e-06
3.9321282e-08
1.2593894e-06
3.9126091e-08
1.2423184e-06
3.9035894e-08
1.2253743e-06
3.8737357e-08
1.2086836e-06
3.8150915e-08
1.1922569e-06
3.7546275e-08
1.1760299e-06
3.709086e-08
1.15994e-06
3.6777986e-08
1.1439472e-06
3.6556295e-08
1.1280283e-06
3.6386736e-08
1.1121723e-06
3.6242491e-08
1.0963777e-06
3.6101046e-08
1.0806531e-06
3.593968e-08
1.0650117e-06
3.5746885e-08
1.0494444e-06
3.5576258e-08
1.0338613e-06
3.5618114e-08
1.0181229e-06
3.5997341e-08
1.0019271e-06
3.701364e-08
9.852996e-07
3.7943072e-08
9.6818271e-07
3.9175567e-08
9.5087692e-07
4.022347e-08
9.3081654e-07
4.488124e-08
9.0837913e-07
5.0887454e-08
8.8135436e-07
6.1821732e-08
8.4796685e-07
7.7464054e-08
7.8565906e-07
1.4389843e-07
6.8410269e-07
2.4378032e-07
2.4614896e-09
6.9113495e-07
1.871654e-06
6.7769206e-08
1.8474922e-06
6.7088178e-08
1.8232816e-06
6.7209054e-08
1.7995623e-06
6.5913846e-08
1.776313e-06
6.4609514e-08
1.7533712e-06
6.3760895e-08
1.7306299e-06
6.3219241e-08
1.7080354e-06
6.2786732e-08
1.685582e-06
6.2361006e-08
1.6632824e-06
6.191601e-08
1.6411564e-06
6.1447273e-08
1.6191674e-06
6.111503e-08
1.5972387e-06
6.0964625e-08
1.5754639e-06
6.0512157e-08
1.5540072e-06
5.9607645e-08
1.5328877e-06
5.8665799e-08
1.5120251e-06
5.7953452e-08
1.4913394e-06
5.7463682e-08
1.4707784e-06
5.7117251e-08
1.4503121e-06
5.6853017e-08
1.429926e-06
5.6628602e-08
1.4096184e-06
5.6408647e-08
1.3893997e-06
5.6158422e-08
1.3692857e-06
5.5860868e-08
1.3492648e-06
5.5597118e-08
1.3292259e-06
5.5657052e-08
1.3090024e-06
5.6220836e-08
1.2881945e-06
5.7821562e-08
1.2666133e-06
5.9524261e-08
1.2444634e-06
6.1325433e-08
1.2219809e-06
6.2705985e-08
1.1967065e-06
7.015561e-08
1.1687912e-06
7.8802783e-08
1.1331525e-06
9.7460479e-08
1.0813639e-06
1.2925259e-07
1.0075109e-06
2.1775145e-07
9.0089924e-07
3.5039199e-07
-8.3291098e-11
9.0344402e-07
3.6942307e-06
1.1542932e-07
3.646638e-06
1.1468089e-07
3.5987673e-06
1.1507979e-07
3.5518812e-06
1.1279994e-07
3.5059205e-06
1.1057023e-07
3.4605908e-06
1.0909061e-07
3.4157656e-06
1.0804443e-07
3.3712731e-06
1.0727918e-07
3.3269801e-06
1.0665403e-07
3.2829161e-06
1.0597998e-07
3.2391848e-06
1.0517864e-07
3.1958065e-06
1.0449326e-07
3.1525993e-06
1.0417189e-07
3.1096647e-06
1.0344675e-07
3.0673257e-06
1.0194667e-07
3.0256425e-06
1.0034896e-07
2.984466e-06
9.9129992e-08
2.9436396e-06
9.8290055e-08
2.9030594e-06
9.7697425e-08
2.8626649e-06
9.7247569e-08
2.8224268e-06
9.6866673e-08
2.7823421e-06
9.6493356e-08
2.7424303e-06
9.6070185e-08
2.7027197e-06
9.5571478e-08
2.6631858e-06
9.5130997e-08
2.6236172e-06
9.522567e-08
2.5837141e-06
9.6123932e-08
2.5427303e-06
9.8805369e-08
2.5005055e-06
1.0174907e-07
2.457121e-06
1.0470995e-07
2.4104625e-06
1.0936445e-07
2.3623696e-06
1.1824855e-07
2.3116598e-06
1.2951259e-07
2.249575e-06
1.5954529e-07
2.1542042e-06
2.2462331e-07
1.9956333e-06
3.7632236e-07
1.7982449e-06
5.4778038e-07
2.7496038e-08
1.7706656e-06
5.3586174e-06
1.8503267e-07
5.289927e-06
1.8337132e-07
5.2210582e-06
1.8394857e-07
5.1530726e-06
1.8078549e-07
5.0862886e-06
1.7735423e-07
5.0203118e-06
1.7506742e-07
4.9550972e-06
1.732591e-07
4.8906951e-06
1.7168125e-07
4.8267002e-06
1.7064892e-07
4.76281e-06
1.6987017e-07
4.699258e-06
1.6873066e-07
4.6362843e-06
1.6746697e-07
4.5737036e-06
1.6675257e-07
4.5115248e-06
1.6562548e-07
4.4501376e-06
1.6333394e-07
4.3896737e-06
1.6081288e-07
4.3299404e-06
1.5886321e-07
4.2707163e-06
1.575142e-07
4.2118495e-06
1.5656425e-07
4.15325e-06
1.5584708e-07
4.0948745e-06
1.5524217e-07
4.0367188e-06
1.5464899e-07
3.9788105e-06
1.5397848e-07
3.9211847e-06
1.531973e-07
3.8638001e-06
1.525156e-07
3.8063537e-06
1.5267208e-07
3.7484347e-06
1.540429e-07
3.6891709e-06
1.5806923e-07
3.628489e-06
1.6243095e-07
3.5660159e-06
1.6718304e-07
3.4977364e-06
1.7764391e-07
3.4318367e-06
1.8414832e-07
3.3562982e-06
2.0505107e-07
3.2678868e-06
2.4795666e-07
3.123651e-06
3.6885909e-07
2.9134378e-06
5.8653563e-07
2.6784822e-06
7.8273597e-07
1.1895367e-07
2.5870245e-06
7.5657506e-06
2.8426619e-07
7.468167e-06
2.809549e-07
7.3719329e-06
2.8018275e-07
7.2769152e-06
2.7580318e-07
7.1829684e-06
2.7130095e-07
7.0897081e-06
2.683278e-07
6.9971412e-06
2.6582595e-07
6.9057783e-06
2.6304422e-07
6.8157209e-06
2.6070623e-07
6.7260055e-06
2.5958565e-07
6.6363524e-06
2.5838373e-07
6.5473027e-06
2.5651663e-07
6.4589081e-06
2.5514721e-07
6.371218e-06
2.5331562e-07
6.2846039e-06
2.4994807e-07
6.1992424e-06
2.4617434e-07
6.1149003e-06
2.4320527e-07
6.031277e-06
2.4113751e-07
5.9481584e-06
2.3968292e-07
5.8654144e-06
2.3859108e-07
5.7829821e-06
2.376744e-07
5.7008565e-06
2.3677457e-07
5.6190763e-06
2.357587e-07
5.5376836e-06
2.3459007e-07
5.4566073e-06
2.3359187e-07
5.375412e-06
2.3386741e-07
5.2935219e-06
2.3593298e-07
5.2100983e-06
2.4149285e-07
5.1250126e-06
2.4751661e-07
5.0373602e-06
2.5483549e-07
4.9414021e-06
2.7360194e-07
4.8458153e-06
2.7973511e-07
4.7345193e-06
3.1634713e-07
4.5903881e-06
3.9208779e-07
4.3772053e-06
5.8204197e-07
4.1365361e-06
8.2720476e-07
3.8181644e-06
1.1011077e-06
3.166926e-07
3.6204255e-06
1.0479389e-05
4.1989342e-07
1.0342599e-05
4.1774447e-07
1.0207378e-05
4.1540412e-07
1.0076378e-05
4.0680323e-07
9.9479819e-06
3.9969682e-07
9.8198527e-06
3.9645697e-07
9.6915775e-06
3.9410118e-07
9.564086e-06
3.9053567e-07
9.4385912e-06
3.8620107e-07
9.3149269e-06
3.8324991e-07
9.1916652e-06
3.8164548e-07
9.0684855e-06
3.7969629e-07
8.9458611e-06
3.7777164e-07
8.8243868e-06
3.7478992e-07
8.7045115e-06
3.6982338e-07
8.5863336e-06
3.6435222e-07
8.469545e-06
3.5999382e-07
8.3537495e-06
3.5693304e-07
8.2386526e-06
3.5477978e-07
8.1240707e-06
3.5317305e-07
8.0099132e-06
3.5183186e-07
7.8961747e-06
3.5051313e-07
7.7829111e-06
3.4902225e-07
7.6701736e-06
3.4732759e-07
7.5578439e-06
3.4592155e-07
7.4453003e-06
3.4641101e-07
7.3317618e-06
3.4947144e-07
7.2163888e-06
3.5686586e-07
7.098775e-06
3.6513047e-07
6.9787077e-06
3.749028e-07
6.8495934e-06
4.0271622e-07
6.72056e-06
4.0876845e-07
6.5536456e-06
4.8326153e-07
6.3525086e-06
5.9322488e-07
6.1136108e-06
8.2093968e-07
5.7861654e-06
1.1546502e-06
5.1701765e-06
1.7170965e-06
6.9302595e-07
4.7938432e-06
1.4312556e-05
5.9494848e-07
1.4132795e-05
5.9750515e-07
1.3952534e-05
5.9566562e-07
1.3777199e-05
5.8213796e-07
1.3607842e-05
5.6905329e-07
1.344201e-05
5.6228982e-07
1.3275434e-05
5.6067702e-07
1.3107357e-05
5.586126e-07
1.2940362e-05
5.5319541e-07
1.2776109e-05
5.4750313e-07
1.2614686e-05
5.4306843e-07
1.2453918e-05
5.4046431e-07
1.2292552e-05
5.3913814e-07
1.2132217e-05
5.3512474e-07
1.1974187e-05
5.2785291e-07
1.1818445e-05
5.2009443e-07
1.1664505e-05
5.1393448e-07
1.1511836e-05
5.0960132e-07
1.1360039e-05
5.0657695e-07
1.1208853e-05
5.043591e-07
1.1058147e-05
5.0253812e-07
1.0907913e-05
5.0074707e-07
1.0758236e-05
4.9869933e-07
1.0609183e-05
4.9638001e-07
1.0460568e-05
4.9453654e-07
1.0311501e-05
4.9547854e-07
1.0160928e-05
5.0004387e-07
1.000792e-05
5.0987386e-07
9.8515285e-06
5.2152231e-07
9.6940302e-06
5.3240111e-07
9.5244805e-06
5.722659e-07
9.3576863e-06
5.7556263e-07
9.1180153e-06
7.2293254e-07
8.8786363e-06
8.3260387e-07
8.5785863e-06
1.1209897e-06
8.1574552e-06
1.5757814e-06
7.3446434e-06
2.5299083e-06
1.3672083e-06
6.6704611e-06
1.9321925e-05
8.2431477e-07
1.9086924e-05
8.3250569e-07
1.8847654e-05
8.3493616e-07
1.8613716e-05
8.1607583e-07
1.8383909e-05
7.9886009e-07
1.8161857e-05
7.8434196e-07
1.7945924e-05
7.766095e-07
1.7727443e-05
7.7709421e-07
1.7505618e-05
7.7502013e-07
1.7284767e-05
7.6835427e-07
1.7068012e-05
7.598229e-07
1.6855985e-05
7.5249155e-07
1.6644537e-05
7.5058678e-07
1.6432971e-05
7.4669035e-07
1.6223665e-05
7.3715856e-07
1.6017287e-05
7.2647267e-07
1.5813254e-05
7.1796778e-07
1.5610881e-05
7.1197359e-07
1.5409636e-05
7.0782257e-07
1.5209153e-05
7.0484151e-07
1.5009243e-05
7.0244854e-07
1.4809893e-05
7.0009676e-07
1.4611233e-05
6.9735987e-07
1.4413364e-05
6.9424866e-07
1.4216017e-05
6.9188407e-07
1.4017935e-05
6.9356027e-07
1.3817571e-05
7.0040737e-07
1.3614398e-05
7.1304754e-07
1.3406774e-05
7.291464e-07
1.3191286e-05
7.4788869e-07
1.2966131e-05
7.9742115e-07
1.2729321e-05
8.1237204e-07
1.2484238e-05
9.6801622e-07
1.2180369e-05
1.1364723e-06
1.1728349e-05
1.5730096e-06
1.1162671e-05
2.1414599e-06
9.9169576e-06
3.7756216e-06
2.4131224e-06
8.8710434e-06
2.5835792e-05
1.1382619e-06
2.5533622e-05
1.1346762e-06
2.5223516e-05
1.1450418e-06
2.4912135e-05
1.1274567e-06
2.4604283e-05
1.1067127e-06
2.4299904e-05
1.0887209e-06
2.4006722e-05
1.0697913e-06
2.3724214e-05
1.0596029e-06
2.3437266e-05
1.0619674e-06
2.3142741e-05
1.0628792e-06
2.284946e-05
1.0531042e-06
2.2562753e-05
1.0391989e-06
2.2282633e-05
1.0307064e-06
2.2004947e-05
1.0243767e-06
2.1728413e-05
1.0136917e-06
2.1454455e-05
1.0004312e-06
2.1183269e-05
9.8915353e-07
2.0914221e-05
9.8102199e-07
2.0646665e-05
9.7537837e-07
2.038011e-05
9.7139668e-07
2.0114274e-05
9.6828439e-07
1.9849134e-05
9.6523706e-07
1.9584881e-05
9.6161264e-07
1.932168e-05
9.5744926e-07
1.9059167e-05
9.5439759e-07
1.8795601e-05
9.5712568e-07
1.8528414e-05
9.6759443e-07
1.8257761e-05
9.8370034e-07
1.7977381e-05
1.0095266e-06
1.7672765e-05
1.0525046e-06
1.7366909e-05
1.1032775e-06
1.705337e-05
1.1259111e-06
1.6747472e-05
1.2739146e-06
1.6315025e-05
1.568919e-06
1.5527367e-05
2.3606676e-06
1.4491131e-05
3.1776963e-06
1.2465812e-05
5.8009404e-06
3.7579582e-06
1.1120976e-05
3.4290939e-05
1.5711631e-06
3.388297e-05
1.5426461e-06
3.3494181e-05
1.5338302e-06
3.3099166e-05
1.5224717e-06
3.2696167e-05
1.5097114e-06
3.2291682e-05
1.4932062e-06
3.1888845e-05
1.4726281e-06
3.1504258e-05
1.4441898e-06
3.1137574e-05
1.4286515e-06
3.0761363e-05
1.4390905e-06
3.0374422e-05
1.4400457e-06
2.998961e-05
1.4240105e-06
2.9613329e-05
1.4069873e-06
2.9246678e-05
1.391028e-06
2.888422e-05
1.3761497e-06
2.8523795e-05
1.3608564e-06
2.8165949e-05
1.3469992e-06
2.7810547e-05
1.336424e-06
2.745704e-05
1.328885e-06
2.7104852e-05
1.3235847e-06
2.6753584e-05
1.3195527e-06
2.6403179e-05
1.3156418e-06
2.6053922e-05
1.3108694e-06
2.5706083e-05
1.3052889e-06
2.5359167e-05
1.3013133e-06
2.5010803e-05
1.3054899e-06
2.4656739e-05
1.3216585e-06
2.4296735e-05
1.3437043e-06
2.3923358e-05
1.3829035e-06
2.3520123e-05
1.4557391e-06
2.3114586e-05
1.5088145e-06
2.2694497e-05
1.5460006e-06
2.220529e-05
1.7631214e-06
2.155121e-05
2.2229986e-06
2.0604903e-05
3.3069744e-06
1.9379775e-05
4.4028251e-06
1.6656769e-05
8.523946e-06
5.6322366e-06
1.4782491e-05
4.5306956e-05
2.101957e-06
4.4758755e-05
2.0908475e-06
4.4238091e-05
2.0544935e-06
4.3754348e-05
2.006215e-06
4.327642e-05
1.9876397e-06
4.2776998e-05
1.9926279e-06
4.2263495e-05
1.9861316e-06
4.1750058e-05
1.9576269e-06
4.126475e-05
1.9139586e-06
4.0807189e-05
1.8966515e-06
4.0338846e-05
1.9083889e-06
3.9852005e-05
1.9108514e-06
3.9366277e-05
1.8927158e-06
3.8893077e-05
1.864228e-06
3.8431614e-05
1.8376125e-06
3.7975762e-05
1.8167085e-06
3.7522476e-05
1.8002853e-06
3.7071339e-05
1.7875605e-06
3.6622123e-05
1.7781015e-06
3.6174348e-05
1.7713594e-06
3.5727531e-05
1.7663703e-06
3.5281563e-05
1.7616099e-06
3.483689e-05
1.7555417e-06
3.4394039e-05
1.7481398e-06
3.3952365e-05
1.742988e-06
3.3508487e-05
1.7493677e-06
3.3055738e-05
1.7744076e-06
3.2592109e-05
1.8073331e-06
3.2118936e-05
1.8560764e-06
3.1620253e-05
1.9544222e-06
3.110874e-05
2.0203275e-06
3.0636062e-05
2.0186783e-06
3.0007196e-05
2.3919878e-06
2.9125824e-05
3.1043707e-06
2.8138829e-05
4.2939693e-06
2.6879588e-05
5.6620656e-06
2.4017188e-05
1.1386346e-05
8.1033337e-06
2.1546091e-05
5.9572392e-05
2.7396325e-06
5.8883858e-05
2.7793821e-06
5.8170053e-05
2.7682981e-06
5.7499841e-05
2.6764274e-06
5.6894564e-05
2.5929165e-06
5.629721e-05
2.5899824e-06
5.5667683e-05
2.6156581e-06
5.500767e-05
2.6176403e-06
5.434617e-05
2.5754584e-06
5.3730755e-05
2.512066e-06
5.3154859e-05
2.4842852e-06
5.2562428e-05
2.5032826e-06
5.1944763e-05
2.5103803e-06
5.132832e-05
2.4806715e-06
5.0728479e-05
2.4374534e-06
5.0141772e-05
2.4034155e-06
4.9561147e-05
2.38091e-06
4.8983314e-05
2.3653939e-06
4.8407342e-05
2.354073e-06
4.7832779e-05
2.3459225e-06
4.7259173e-05
2.3399761e-06
4.6686375e-05
2.3344081e-06
4.6115076e-05
2.3268413e-06
4.5546543e-05
2.3166727e-06
4.4980682e-05
2.308849e-06
4.4412903e-05
2.3171463e-06
4.3832436e-05
2.3548747e-06
4.3234215e-05
2.4055546e-06
4.2626077e-05
2.4642139e-06
4.1997974e-05
2.5825256e-06
4.1325433e-05
2.6928681e-06
4.0669461e-05
2.6746508e-06
3.9979678e-05
3.0817706e-06
3.9108061e-05
3.9759878e-06
3.7739345e-05
5.6626849e-06
3.5995314e-05
7.4060965e-06
3.2567614e-05
1.4814046e-05
1.1313564e-05
2.9357383e-05
0.00010682179
3.8324091e-06
0.00010572842
3.8727482e-06
0.00010452147
3.9752531e-06
0.00010326713
3.9307629e-06
0.00010205839
3.8016599e-06
0.0001009868
3.6615698e-06
0.00010000092
3.6015452e-06
9.8945338e-05
3.6732192e-06
9.7781702e-05
3.7390944e-06
9.6601122e-05
3.6926457e-06
9.5507413e-05
3.5779941e-06
9.4517896e-05
3.4927992e-06
9.3519478e-05
3.5087983e-06
9.2466662e-05
3.5334882e-06
9.1405346e-05
3.4987695e-06
9.0366394e-05
3.4423672e-06
8.9347012e-05
3.4002914e-06
8.8337794e-05
3.3746123e-06
8.7332612e-05
3.3592552e-06
8.6328821e-05
3.3497133e-06
8.5325484e-05
3.3433129e-06
8.4322193e-05
3.3376991e-06
8.3319789e-05
3.3292458e-06
8.2321577e-05
3.3148849e-06
8.1331646e-05
3.2987796e-06
8.0347519e-05
3.3012735e-06
7.9347427e-05
3.3549668e-06
7.8306149e-05
3.4468329e-06
7.723004e-05
3.5403229e-06
7.6128828e-05
3.6837374e-06
7.4944689e-05
3.8770067e-06
7.3568107e-05
4.0512332e-06
7.2475732e-05
4.1741448e-06
7.1508488e-05
4.943232e-06
6.936086e-05
7.8103131e-06
6.6433954e-05
1.0333003e-05
6.1550824e-05
1.9697175e-05
1.7463423e-05
5.5400965e-05
0.00013662444
5.3403329e-06
0.00013535446
5.1427286e-06
0.00013411056
5.2191547e-06
0.00013268975
5.3515681e-06
0.0001311671
5.3243166e-06
0.00012967117
5.1574928e-06
0.00012835147
4.9212511e-06
0.0001272047
4.8199901e-06
0.00012596536
4.9784336e-06
0.00012454685
5.1111577e-06
0.00012309524
5.0295953e-06
0.00012174686
4.8411865e-06
0.00012053612
4.7195342e-06
0.00011935093
4.7186811e-06
0.00011811594
4.7337593e-06
0.00011685735
4.7009553e-06
0.00011560898
4.6486616e-06
0.00011437642
4.6071684e-06
0.00011315355
4.5821304e-06
0.00011193337
4.5698868e-06
0.00011071202
4.5646671e-06
0.00010948776
4.5619574e-06
0.00010825948
4.5575239e-06
0.00010702805
4.5463151e-06
0.00010579879
4.5280476e-06
0.00010458179
4.5182674e-06
0.00010337484
4.5619195e-06
0.00010213543
4.6862427e-06
0.00010082746
4.8482957e-06
9.9449748e-05
5.0614457e-06
9.8000686e-05
5.3260688e-06
9.639671e-05
5.65521e-06
9.5031724e-05
5.5391304e-06
9.3851382e-05
6.1235735e-06
9.1655043e-05
1.0006652e-05
8.8750223e-05
1.3237823e-05
8.3955152e-05
2.4492246e-05
2.4982993e-05
7.6435583e-05
0.00017189669
7.1827464e-06
0.00017007633
6.9630937e-06
0.00016866492
6.6305578e-06
0.00016731733
6.6991607e-06
0.00016572221
6.9194381e-06
0.00016392551
6.954195e-06
0.00016209675
6.7500077e-06
0.00016048239
6.4343456e-06
0.00015915017
6.3106592e-06
0.00015774409
6.5172359e-06
0.0001560915
6.6821896e-06
0.00015436688
6.5658054e-06
0.00015273758
6.3488342e-06
0.00015126956
6.1866953e-06
0.00014986853
6.1347943e-06
0.00014843146
6.1380272e-06
0.00014695964
6.1204792e-06
0.00014548494
6.0818663e-06
0.00014402106
6.0460092e-06
0.00014256521
6.0257385e-06
0.00014111064
6.0192337e-06
0.00013965317
6.0194366e-06
0.00013818873
6.0219584e-06
0.00013671034
6.0247075e-06
0.00013521199
6.0264005e-06
0.00013370266
6.0275932e-06
0.0001322122
6.0523834e-06
0.0001307378
6.1606393e-06
0.00012921677
6.3693244e-06
0.00012759756
6.6806516e-06
0.00012591623
7.0074078e-06
0.00012428096
7.2904743e-06
0.00012205065
7.7694426e-06
0.0001194089
8.7653217e-06
0.00011662901
1.2786542e-05
0.00011404181
1.5825023e-05
0.00011055161
2.7982445e-05
3.3036943e-05
0.00010249766
0.0002137741
8.9689144e-06
0.00021149862
9.2385729e-06
0.00020929562
8.8335542e-06
0.00020759799
8.396789e-06
0.0002061562
8.3612289e-06
0.00020437965
8.7307508e-06
0.00020223499
8.8946673e-06
0.00020002268
8.646657e-06
0.00019807836
8.254979e-06
0.00019656371
8.0318774e-06
0.0001950141
8.2318052e-06
0.00019312672
8.4531837e-06
0.00019110699
8.3685684e-06
0.00018918992
8.1037596e-06
0.00018744381
7.8809026e-06
0.00018578346
7.7983799e-06
0.00018410145
7.8024867e-06
0.00018238114
7.8021803e-06
0.00018065061
7.7765427e-06
0.00017892764
7.7487098e-06
0.00017721313
7.7337366e-06
0.0001755041
7.7284665e-06
0.00017379845
7.7276151e-06
0.00017208476
7.7383982e-06
0.00017033517
7.7759814e-06
0.00016852912
7.8336518e-06
0.00016668809
7.8934109e-06
0.00016486005
7.988681e-06
0.00016304522
8.184151e-06
0.00016118073
8.5451378e-06
0.00015920196
8.9861769e-06
0.00015708222
9.410214e-06
0.00015445395
1.0397718e-05
0.0001512332
1.1986068e-05
0.00014761018
1.6409569e-05
0.00014393259
1.9502607e-05
0.00014086376
3.1051282e-05
4.1271282e-05
0.00013262942
0.00026271693
1.0788869e-05
0.00026051813
1.1437379e-05
0.00025783425
1.1517434e-05
0.00025521816
1.101287e-05
0.00025319332
1.0386074e-05
0.00025165733
1.0266742e-05
0.00024973794
1.081406e-05
0.00024725327
1.1131327e-05
0.00024461868
1.088956e-05
0.00024232253
1.0328029e-05
0.0002406182
9.9361382e-06
0.00023897788
1.00935e-05
0.00023690646
1.0439987e-05
0.00023461791
1.0392312e-05
0.00023242961
1.0069204e-05
0.00023040622
9.8217714e-06
0.00022847372
9.7349855e-06
0.00022653396
9.7419454e-06
0.00022455862
9.7518732e-06
0.00022256682
9.7405178e-06
0.000220576
9.7245486e-06
0.00021859229
9.7121816e-06
0.00021662568
9.69422e-06
0.00021468932
9.6747614e-06
0.00021276333
9.7019777e-06
0.00021077746
9.8195124e-06
0.00020867382
9.9970596e-06
0.00020647202
1.0190476e-05
0.00020424309
1.0413083e-05
0.00020200468
1.0783551e-05
0.00019967385
1.1316999e-05
0.00019679826
1.2285809e-05
0.0001938816
1.3314377e-05
0.00019121993
1.4647737e-05
0.00018907127
1.8558233e-05
0.00018475677
2.3817109e-05
0.00017793343
3.7874616e-05
5.1452952e-05
0.00016775176
0.00031924108
1.3280267e-05
0.00031746792
1.3210541e-05
0.00031510157
1.388379e-05
0.00031203444
1.4079991e-05
0.00030894703
1.3473484e-05
0.00030662951
1.2584271e-05
0.00030510981
1.2333755e-05
0.00030316067
1.3080465e-05
0.00030039579
1.3654445e-05
0.00029733712
1.3386693e-05
0.00029463584
1.2637423e-05
0.00029269104
1.2038295e-05
0.00029097446
1.2156573e-05
0.00028883844
1.2528327e-05
0.00028638045
1.2527193e-05
0.00028395764
1.2244588e-05
0.00028168228
1.2010348e-05
0.00027950258
1.1921645e-05
0.00027732397
1.193048e-05
0.00027510351
1.1960978e-05
0.00027284944
1.1978624e-05
0.00027057426
1.1987358e-05
0.00026829122
1.1977258e-05
0.0002660456
1.1920385e-05
0.00026390014
1.1847437e-05
0.00026184156
1.1878088e-05
0.00025972291
1.2115707e-05
0.00025737691
1.2536481e-05
0.00025479248
1.2997512e-05
0.00025207974
1.3496291e-05
0.00024933902
1.4057719e-05
0.00024625688
1.5367951e-05
0.00024272336
1.6847895e-05
0.00023984993
1.7521166e-05
0.00023766481
2.0743353e-05
0.00023457623
2.690569e-05
0.00022657263
4.5878218e-05
6.4829721e-05
0.00021319586
0.00038479992
1.6829004e-05
0.00038256859
1.544187e-05
0.00038108443
1.5367955e-05
0.00037862596
1.6538461e-05
0.00037521063
1.6888812e-05
0.00037163018
1.6164717e-05
0.00036894627
1.5017671e-05
0.00036744999
1.4576742e-05
0.00036558152
1.5522912e-05
0.00036262006
1.6348158e-05
0.00035912473
1.6132747e-05
0.00035594044
1.5222593e-05
0.00035367667
1.4420334e-05
0.00035184988
1.4355125e-05
0.00034966682
1.4710247e-05
0.00034708741
1.4824005e-05
0.00034444253
1.4655224e-05
0.00034190726
1.4456915e-05
0.00033946317
1.4374573e-05
0.0003370232
1.4400945e-05
0.00033454214
1.4459681e-05
0.0003320119
1.4517603e-05
0.00032941615
1.4573e-05
0.0003267577
1.4578838e-05
0.00032412694
1.4478199e-05
0.00032167229
1.4332735e-05
0.00031941812
1.4369881e-05
0.00031714223
1.4812365e-05
0.0003145464
1.5593348e-05
0.00031156562
1.6477071e-05
0.00030839439
1.7228952e-05
0.00030509126
1.8671078e-05
0.00030125792
2.0681233e-05
0.0002973221
2.1456984e-05
0.00029312438
2.4941078e-05
0.0002900351
2.9994969e-05
0.00028094081
5.4972511e-05
7.9824276e-05
0.00026594625
0.00046256911
2.0003929e-05
0.00045866059
1.9350394e-05
0.00045632231
1.7706234e-05
0.00045512389
1.7736879e-05
0.00045278666
1.9226042e-05
0.00044906044
1.9890937e-05
0.00044493942
1.9138689e-05
0.00044180748
1.7708686e-05
0.00044029851
1.7031881e-05
0.00043867272
1.7973948e-05
0.00043571506
1.9090401e-05
0.00043193768
1.8999977e-05
0.00042839617
1.7961847e-05
0.00042576606
1.6985227e-05
0.00042374695
1.6729364e-05
0.00042148461
1.7086347e-05
0.00041879063
1.7349204e-05
0.00041596043
1.7287111e-05
0.00041320862
1.7126379e-05
0.00041054971
1.7059855e-05
0.00040791876
1.7090636e-05
0.00040526578
1.7170581e-05
0.00040253885
1.7299932e-05
0.00039965839
1.7459294e-05
0.00039659238
1.7544212e-05
0.00039345954
1.7465574e-05
0.00039049728
1.7332141e-05
0.00038783541
1.7474238e-05
0.00038527307
1.8155683e-05
0.00038245909
1.9291056e-05
0.00037923753
2.0450505e-05
0.00037583672
2.2071893e-05
0.00037220118
2.4316774e-05
0.00036782904
2.5829123e-05
0.00036208892
3.06812e-05
0.00035378465
3.8299235e-05
0.00034168942
6.7067739e-05
9.1226147e-05
0.00033028755
0.0005534499
2.2000372e-05
0.00054939171
2.3408586e-05
0.00054487949
2.2218459e-05
0.00054230744
2.0308923e-05
0.00054140166
2.0131827e-05
0.00053933361
2.1958981e-05
0.00053542034
2.3051957e-05
0.00053075489
2.2374143e-05
0.00052704103
2.0745733e-05
0.00052538164
1.9633341e-05
0.00052416909
2.0302956e-05
0.00052149409
2.1674969e-05
0.0005176915
2.1764437e-05
0.00051392447
2.0752266e-05
0.00051093953
1.9714303e-05
0.00050861157
1.9414303e-05
0.00050621442
1.9746351e-05
0.00050345668
2.0044851e-05
0.00050051794
2.006512e-05
0.00049759601
1.9981785e-05
0.000494741
1.9945647e-05
0.00049193168
1.9979905e-05
0.00048915089
2.0080719e-05
0.00048634065
2.0269535e-05
0.00048335923
2.0525635e-05
0.0004800787
2.0746096e-05
0.00047653258
2.0878264e-05
0.00047296736
2.1039462e-05
0.00046967093
2.1452107e-05
0.00046663804
2.2323944e-05
0.00046345655
2.3631998e-05
0.00046004657
2.5481878e-05
0.00045614678
2.8216555e-05
0.00045037452
3.1601383e-05
0.00044179703
3.9258696e-05
0.00043068882
4.9407444e-05
0.00042204824
7.5708319e-05
9.82787e-05
0.00041499568
0.00065739883
2.3733073e-05
0.00065512139
2.5686029e-05
0.00065052072
2.6819131e-05
0.00064538424
2.5445401e-05
0.00064245602
2.3060052e-05
0.00064192087
2.249413e-05
0.00064045897
2.4513851e-05
0.00063666244
2.6170674e-05
0.00063161036
2.579782e-05
0.00062741635
2.3827342e-05
0.00062544566
2.2273648e-05
0.00062462903
2.2491598e-05
0.0006225412
2.3852274e-05
0.00061897675
2.4316707e-05
0.00061513221
2.3558852e-05
0.00061191299
2.2633516e-05
0.00060936008
2.2299266e-05
0.00060685569
2.2549242e-05
0.00060401382
2.2906989e-05
0.00060092691
2.3068688e-05
0.00059779618
2.3076386e-05
0.00059472005
2.3056031e-05
0.00059177074
2.3030029e-05
0.00058904934
2.2990937e-05
0.00058652618
2.3048795e-05
0.00058388384
2.338843e-05
0.00058071126
2.4050845e-05
0.00057688706
2.4863659e-05
0.00057270239
2.5636787e-05
0.00056864724
2.6379094e-05
0.00056480643
2.7472809e-05
0.00056108546
2.9202847e-05
0.00055610844
3.319357e-05
0.00054878815
3.8921673e-05
0.00054064306
4.7403786e-05
0.00053508596
5.4964545e-05
0.0005335466
7.7247683e-05
0.00010783808
0.00052398722
0.0007750479
2.7388919e-05
0.00077449544
2.623849e-05
0.00077271876
2.8595816e-05
0.00076788964
3.0274516e-05
0.00076214063
2.8809062e-05
0.00075865843
2.5976331e-05
0.0007583828
2.4789485e-05
0.00075790232
2.6651157e-05
0.00075477778
2.8922361e-05
0.00074967173
2.8933383e-05
0.0007448419
2.7103485e-05
0.0007424606
2.4872894e-05
0.00074191751
2.4395362e-05
0.00074053807
2.5696152e-05
0.0007374083
2.668862e-05
0.00073358908
2.6452736e-05
0.00073016014
2.5728208e-05
0.00072732695
2.5382428e-05
0.00072463035
2.5603589e-05
0.00072172856
2.5970483e-05
0.00071864031
2.6164627e-05
0.0007154499
2.6246443e-05
0.00071217749
2.630244e-05
0.00070895146
2.6216967e-05
0.00070609305
2.5907212e-05
0.0007037649
2.5716573e-05
0.00070155595
2.6259793e-05
0.00069873403
2.7685587e-05
0.000694957
2.9413809e-05
0.00069053141
3.0804692e-05
0.00068594426
3.2059956e-05
0.00068147837
3.366874e-05
0.00067661672
3.805522e-05
0.00067102962
4.4508767e-05
0.00066584556
5.2587851e-05
0.00066091928
5.9890823e-05
0.00065715035
8.1016614e-05
0.00012049033
0.00064449809
0.00091102458
3.2589238e-05
0.00090876658
2.8496498e-05
0.00090964529
2.7717104e-05
0.00090876021
3.1159598e-05
0.00090432038
3.3248885e-05
0.00089821576
3.2080951e-05
0.00089401538
2.8989869e-05
0.00089369478
2.6971752e-05
0.00089437857
2.8238576e-05
0.00089236939
3.0942566e-05
0.00088779456
3.1678316e-05
0.00088275721
2.9910243e-05
0.00087976544
2.7387129e-05
0.00087898846
2.6473135e-05
0.00087794067
2.7736408e-05
0.0008752549
2.9138503e-05
0.00087170145
2.9281656e-05
0.00086836719
2.8716696e-05
0.00086556123
2.840955e-05
0.00086295658
2.857513e-05
0.00086020119
2.8920015e-05
0.00085717212
2.9275517e-05
0.00085380652
2.9668035e-05
0.00085007244
2.9951047e-05
0.00084622748
2.9752171e-05
0.0008428975
2.9046552e-05
0.00084056966
2.8587634e-05
0.00083890833
2.9346916e-05
0.00083688081
3.1441337e-05
0.00083369059
3.399491e-05
0.00082935118
3.6399363e-05
0.00082426025
3.8759674e-05
0.0008193492
4.296627e-05
0.00081425773
4.960023e-05
0.00080878434
5.8061247e-05
0.00080089016
6.7784999e-05
0.00078984606
9.2060717e-05
0.00013400691
0.00077632949
0.0010711401
3.5461697e-05
0.0010660614
3.3575127e-05
0.0010637556
3.0022953e-05
0.0010657162
2.9198968e-05
0.0010665483
3.2416816e-05
0.0010633934
3.5235824e-05
0.0010574434
3.4939842e-05
0.0010526709
3.1744283e-05
0.0010521218
2.8787705e-05
0.0010537616
2.930275e-05
0.0010532603
3.2179589e-05
0.0010495328
3.3637739e-05
0.0010445339
3.2386041e-05
0.0010410128
2.999421e-05
0.0010398534
2.8895893e-05
0.0010391893
2.9802576e-05
0.0010373912
3.1079782e-05
0.0010345958
3.1512025e-05
0.0010315856
3.1419796e-05
0.0010287487
3.1412049e-05
0.0010260192
3.1649433e-05
0.0010232739
3.2020864e-05
0.001020483