/*--------------------------------*- C++ -*----------------------------------*\
| =========                 |                                                 |
| \\      /  F ield         | OpenFOAM: The Open Source CFD Toolbox           |
|  \\    /   O peration     | Version:  2.4.0                                 |
|   \\  /    A nd           | Web:      www.OpenFOAM.org                      |
|    \\/     M anipulation  |                                                 |
\*---------------------------------------------------------------------------*/
FoamFile
{
    version     2.0;
    format      ascii;
    class       volSymmTensorField;
    location    "2000";
    object      Rx;
}
// * * * * * * * * * * * * * * * * * * * * * * * * * * * * * * * * * * * * * //

dimensions      [0 0 0 0 0 0 0];

internalField   nonuniform List<symmTensor> 
15296
(
(-0.0002122552 -0.00011005484 2.9578302e-14 9.3700954e-05 -2.3895769e-14 0.00011855424)
(-0.00013055097 -8.8472488e-05 2.7355805e-14 4.6410905e-05 -4.8282101e-15 8.4140063e-05)
(-0.00020250701 -9.7272664e-05 5.0809375e-14 8.6589128e-05 -1.3825271e-14 0.00011591788)
(-0.00012258724 -5.4055337e-05 1.8283669e-14 5.405606e-05 -5.2176198e-15 6.8531183e-05)
(-5.7316009e-05 -3.1755602e-05 1.3016379e-14 2.319005e-05 1.279574e-14 3.4125959e-05)
(-3.2447865e-05 -2.5548403e-05 -3.5696376e-15 1.1381402e-05 1.593414e-14 2.1066462e-05)
(-2.4757594e-05 -2.5317105e-05 1.1965474e-14 7.2322308e-06 2.4748913e-14 1.7525363e-05)
(-2.0889709e-05 -2.4065724e-05 1.1624565e-14 5.4596822e-06 2.636492e-14 1.5430027e-05)
(-1.9170643e-05 -2.4115486e-05 1.1628554e-14 4.5191916e-06 2.6852305e-14 1.4651451e-05)
(-1.9921648e-05 -3.1992733e-05 1.6262009e-14 2.0032593e-06 2.8822633e-14 1.7918389e-05)
(-2.3694401e-05 -4.4186611e-05 4.0125579e-14 -1.9456582e-06 4.1578152e-14 2.5640059e-05)
(-3.1192684e-05 -4.3642266e-05 2.1552923e-14 2.9888999e-06 2.5851938e-14 2.8203784e-05)
(-4.1178142e-05 -2.0641423e-05 -2.3791651e-14 1.6676271e-05 1.1079066e-14 2.4501872e-05)
(-3.5153404e-05 -8.8792431e-06 -1.2477844e-14 1.5422278e-05 1.8024406e-14 1.9731126e-05)
(-7.9652617e-06 -6.0153317e-06 1.8088136e-14 2.5991837e-06 3.544133e-14 5.366078e-06)
(1.3146352e-05 -4.0520934e-06 2.7383111e-15 -5.9830325e-06 4.5749291e-14 -7.1633193e-06)
(2.2048359e-05 -2.3466156e-06 1.8285516e-15 -8.5421211e-06 5.3080847e-14 -1.3506238e-05)
(2.4411179e-05 -1.0620584e-06 8.3108685e-16 -8.9277509e-06 5.4155637e-14 -1.5483428e-05)
(2.3633778e-05 -4.2259766e-07 4.4579416e-16 -8.7439886e-06 5.6287939e-14 -1.4889789e-05)
(2.0712018e-05 -8.8483533e-07 -2.5163277e-14 -8.059397e-06 4.1059258e-14 -1.2652621e-05)
(1.5882222e-05 -2.8800612e-06 -6.8852993e-15 -6.7033632e-06 8.8818642e-14 -9.1788587e-06)
(9.5928266e-06 -6.5297866e-06 -3.1221189e-14 -4.8099378e-06 -1.6233138e-13 -4.7828889e-06)
(3.0949932e-06 -1.2043833e-05 2.5841549e-13 -3.1230799e-06 1.0444757e-12 2.8086705e-08)
(-2.8701589e-06 -2.0898935e-05 -2.0594996e-12 -2.9769741e-06 -5.0417373e-12 5.847133e-06)
(-1.4462471e-05 -3.7380295e-05 1.810354e-11 -4.2709849e-06 2.6606487e-11 1.8733456e-05)
(-5.5614978e-05 -6.7728656e-05 -1.5409216e-10 5.7648233e-06 -9.4588029e-11 4.9850155e-05)
(-0.00016880603 -9.8035787e-05 3.8435937e-09 6.9105173e-05 4.5660908e-10 9.9700857e-05)
(-0.00048702828 -7.1246287e-05 4.0197001e-07 0.00027147064 3.1206511e-07 0.00021555764)
(-0.00061075536 -0.00093354591 -0.00039018552 0.00040633298 3.0048991e-05 0.00020442239)
(0.03943437 0.0017142676 0.002647245 0.0078962336 0.022008545 -0.047330604)
(0.039730888 0.001130762 -0.00057922666 0.0096422089 -0.01779816 -0.049373097)
(0.039045601 0.0019070095 -0.0012966981 0.013987838 -0.013573903 -0.05303344)
(0.03955775 0.0022754486 6.028986e-07 0.014858733 0.00089062991 -0.054416482)
(0.034565464 -0.0001813892 0.0004225097 -0.0089772313 -0.018287758 -0.025588233)
(0.028115083 -0.0049835876 -0.011440696 -0.0022873288 0.013640427 -0.025827754)
(0.012943184 0.00010370562 3.9068276e-05 -0.0083133715 0.00093089857 -0.0046298125)
(-0.023021657 -0.035479822 -0.00027099857 0.012769967 -0.00011505378 0.01025169)
(0.010614986 -0.029570135 0.017675989 -0.014539392 0.0035520403 0.0039244058)
(-0.00023476579 -0.00021550634 2.8715372e-14 2.7286607e-05 -8.8701516e-15 0.00020747919)
(-0.00017612838 -0.00022594303 2.9425014e-14 -3.183606e-05 6.3822938e-16 0.00020796444)
(-0.00028386744 -0.00026661633 3.0605504e-14 1.0120892e-05 -7.874521e-15 0.00027374655)
(-0.00016827816 -0.00014732383 2.9057189e-14 2.0949693e-05 2.9383879e-15 0.00014732847)
(-8.0592627e-05 -8.3248061e-05 2.8320535e-14 1.0178039e-05 1.3529571e-14 7.0414588e-05)
(-4.9707016e-05 -6.2656371e-05 1.3118141e-14 4.5167979e-06 8.8038379e-15 4.5190218e-05)
(-3.8099426e-05 -5.7746083e-05 1.2898141e-14 1.9781809e-07 1.0948809e-14 3.7901608e-05)
(-3.1508415e-05 -5.6508174e-05 1.8316678e-14 -3.8674972e-06 1.6273462e-14 3.5375912e-05)
(-2.9496489e-05 -5.6776931e-05 2.4774733e-15 -5.6931462e-06 5.0535115e-15 3.5189636e-05)
(-3.4239795e-05 -6.6081911e-05 2.109561e-14 -1.0193041e-05 1.7755236e-14 4.4432836e-05)
(-4.4458172e-05 -7.9922075e-05 2.6684626e-14 -1.7175217e-05 1.9733794e-14 6.1633389e-05)
(-4.9254882e-05 -7.8498e-05 1.8329107e-14 -1.0314909e-05 1.163798e-14 5.9569791e-05)
(-4.7647946e-05 -4.7437332e-05 9.8637843e-15 1.2480658e-05 8.343553e-15 3.5167288e-05)
(-3.7599576e-05 -2.4890317e-05 5.3152562e-15 1.5235947e-05 9.1583219e-15 2.2363629e-05)
(-9.2110814e-06 -1.7419293e-05 9.7164982e-15 2.2227136e-06 1.7323526e-14 6.9883677e-06)
(1.2554804e-05 -1.3298547e-05 4.1169506e-15 -7.9911751e-06 2.1171246e-14 -4.5636289e-06)
(2.176172e-05 -1.0148737e-05 3.5638576e-15 -1.1814844e-05 2.4650054e-14 -9.9468763e-06)
(2.4374582e-05 -7.9041946e-06 -9.0786414e-16 -1.2510917e-05 2.4157812e-14 -1.1863665e-05)
(2.3781291e-05 -6.731975e-06 -1.1475213e-15 -1.1964007e-05 2.4007231e-14 -1.1817284e-05)
(2.0870726e-05 -7.1251864e-06 5.0543006e-15 -1.064204e-05 2.6596032e-14 -1.0228686e-05)
(1.5812412e-05 -9.5626787e-06 1.1606355e-14 -8.6511054e-06 2.2332605e-14 -7.161307e-06)
(9.0242097e-06 -1.4120843e-05 -4.2984032e-14 -6.317748e-06 1.1612978e-14 -2.7064617e-06)
(1.6512468e-06 -2.111232e-05 2.6923755e-13 -4.623493e-06 1.1915556e-13 2.9722462e-06)
(-6.0657363e-06 -3.2809527e-05 -1.5013823e-12 -5.4986328e-06 -8.6101551e-13 1.1564369e-05)
(-2.1652316e-05 -5.4940556e-05 1.0421323e-11 -1.0355034e-05 8.5606868e-12 3.200735e-05)
(-6.9274131e-05 -9.4852123e-05 -4.2556101e-11 -7.9116372e-06 -2.4547783e-11 7.7185768e-05)
(-0.00018369419 -0.00013412274 6.5512254e-09 4.890151e-05 2.5827421e-09 0.00013479268)
(-0.00050537878 -4.9237693e-05 3.3067503e-07 0.00025578108 2.9586729e-07 0.0002495977)
(-0.0014458767 -0.00077683815 9.9775584e-05 0.00058288715 5.528876e-05 0.00086298957)
(-0.014695123 -0.0034018993 0.0047914109 -0.00070651682 -0.006644928 0.01540164)
(0.01171072 -0.0025007737 -0.00380986 -0.0055432659 0.00034502364 -0.0061674542)
(-0.016328445 -0.0039096137 -0.0035864599 0.0050301956 0.0083688632 0.01129825)
(-0.012047899 -0.023372889 0.013115342 0.0023263946 -0.0046114449 0.0097215044)
(0.0060446973 0.0045029296 0.0034237495 -0.0012939166 0.002284037 -0.0047507807)
(-0.0017923175 0.040066799 -0.012661209 -0.0085830007 0.0012693269 0.010375318)
(-0.018008787 0.046742828 0.014519103 -0.0032719237 0.00021975342 0.021280711)
(-0.037296684 -0.044469565 0.00016160586 0.00064640779 -3.5866395e-05 0.036650277)
(-0.0067889162 -0.0018711522 0.0046045243 -0.0034637995 0.00067644315 0.010252716)
(-0.00026571161 -0.00027183336 4.0184205e-14 -3.9629324e-05 5.2177985e-15 0.00030534094)
(-0.00019317455 -0.00031991078 3.8060345e-14 -0.00013999759 6.4161256e-15 0.00033317214)
(-0.0003393201 -0.00052486856 3.7791078e-14 -0.00020072273 9.4176319e-16 0.00054004283)
(-0.00024740661 -0.00031814631 2.998047e-14 -0.0001033302 1.3320743e-15 0.00035073681)
(-0.00013651479 -0.000170859 2.3855538e-14 -4.819705e-05 4.7642129e-15 0.00018471184)
(-9.7034499e-05 -0.00011747694 2.3134687e-14 -2.6672213e-05 9.9777464e-15 0.00012370671)
(-7.0185172e-05 -9.1824279e-05 1.2015695e-14 -1.4959088e-05 3.5764461e-15 8.5144261e-05)
(-5.2673382e-05 -8.6891496e-05 1.2566303e-14 -1.925141e-05 6.2139341e-15 7.1924792e-05)
(-4.7805979e-05 -9.113207e-05 2.2172959e-14 -2.6877581e-05 1.712543e-14 7.4683559e-05)
(-5.7677317e-05 -0.00010457355 1.8874479e-14 -3.6749646e-05 1.0822573e-14 9.4426963e-05)
(-8.0201162e-05 -0.00012001949 2.2619952e-14 -4.6640113e-05 1.0161768e-14 0.00012684127)
(-8.4634381e-05 -0.00011421909 2.0791449e-14 -3.3621907e-05 8.1519764e-15 0.00011825629)
(-6.2704685e-05 -8.1768334e-05 1.3225313e-14 -1.8590311e-06 6.5774496e-15 6.4563716e-05)
(-4.236396e-05 -4.76625e-05 8.1183606e-15 9.152542e-06 7.462078e-15 3.3211418e-05)
(-1.2426744e-05 -3.1887474e-05 6.563066e-15 -1.1005242e-06 1.2213834e-14 1.3527268e-05)
(9.832749e-06 -2.3573023e-05 5.6374616e-15 -1.0577491e-05 1.644571e-14 7.447421e-07)
(1.9561653e-05 -1.8305352e-05 4.888376e-15 -1.4038616e-05 1.8863657e-14 -5.5230365e-06)
(2.2657497e-05 -1.4985163e-05 3.9543353e-15 -1.4339175e-05 1.9150494e-14 -8.3183218e-06)
(2.2396381e-05 -1.3263036e-05 4.0311574e-15 -1.3408502e-05 1.9167428e-14 -8.9878785e-06)
(1.959852e-05 -1.3421139e-05 5.7959282e-15 -1.1836734e-05 2.0040819e-14 -7.7617854e-06)
(1.4437441e-05 -1.5873926e-05 2.0018947e-14 -9.7882715e-06 2.836605e-14 -4.649169e-06)
(7.3751793e-06 -2.0596948e-05 -8.3704263e-14 -7.5580083e-06 -5.0076152e-14 1.82829e-07)
(-5.0563342e-07 -2.7769552e-05 5.2430664e-13 -6.0802811e-06 4.184201e-13 6.5859145e-06)
(-9.3719333e-06 -4.0006942e-05 -3.1244307e-12 -7.5019708e-06 -2.6032774e-12 1.6873904e-05)
(-2.7948992e-05 -6.4629543e-05 2.1816126e-11 -1.4602728e-05 1.9605791e-11 4.255172e-05)
(-8.2661454e-05 -0.00011353545 -1.2662514e-10 -2.0363175e-05 -6.3237584e-11 0.00010302463)
(-0.00020198522 -0.00017685878 4.0680134e-09 2.1214613e-05 2.5869655e-09 0.00018077061)
(-0.00051535135 -0.00010855346 2.6421635e-07 0.00024293115 5.2900663e-07 0.0002724202)
(-0.0015006715 -0.0010594149 5.8123781e-05 0.00024688248 5.1651799e-05 0.001253789)
(0.037344238 -0.0031536257 -0.0015758108 -0.04079972 -0.020643566 0.0034554817)
(0.027855708 -0.00015762642 0.00036398774 -0.037447217 -0.011597197 0.0095915096)
(0.015417893 -0.00031116397 0.0011164017 0.00042040859 0.014200526 -0.015838302)
(0.012571055 -0.0059726665 0.00092079082 -0.031211367 0.0042644713 0.018640312)
(-0.02262978 -0.0088188652 -0.012904232 0.003746298 0.011290102 0.018883482)
(-0.0067487246 -0.020860995 0.0058856521 -0.018028022 0.0035365805 0.024776746)
(-0.043227922 0.034414163 0.013447364 0.0095060325 0.0049976844 0.033721889)
(-0.051871403 -0.038209943 -6.8907662e-05 0.023712256 -8.6688882e-05 0.028159146)
(0.0060830645 -0.0024326189 -0.00017341278 -0.0053827857 9.1367236e-05 -0.00070027879)
(-0.00034770867 -0.00025380609 2.5758973e-14 -7.7246453e-05 -7.0515957e-15 0.00042495512)
(-0.00019317279 -0.00015357795 3.0784198e-14 -5.0280184e-05 1.6689094e-16 0.00024345297)
(-0.00026613606 -0.00049312526 3.877473e-14 -0.00026645122 -4.4856715e-15 0.00053258728)
(-0.00024380625 -0.00047049653 3.421504e-14 -0.0002767067 7.8365081e-15 0.00052051295)
(-0.00019174149 -0.00031726102 2.8943276e-14 -0.00018787329 1.2631267e-14 0.00037961477)
(-0.00019593963 -0.00024723515 1.7961103e-14 -0.00014404969 -1.1211625e-16 0.00033998931)
(-0.00015598807 -0.00014463738 1.6600149e-14 -6.6912514e-05 3.0493239e-15 0.00022290058)
(-9.279172e-05 -9.9511711e-05 1.576335e-14 -2.6888709e-05 5.1742426e-15 0.00011968043)
(-6.9112979e-05 -0.00010770997 1.607092e-14 -3.8333463e-05 8.0030594e-15 0.00010744644)
(-8.0731569e-05 -0.00014102249 1.8161505e-14 -7.1250916e-05 8.8757245e-15 0.00015198248)
(-0.00012990983 -0.0001888621 2.2092192e-14 -0.00011331538 8.1611562e-15 0.00024322521)
(-0.00015714895 -0.00018545009 2.0988368e-14 -0.00010052043 5.4348534e-15 0.00025766938)
(-9.418859e-05 -0.0001249795 1.5315161e-14 -3.0123951e-05 5.075952e-15 0.00012431254)
(-5.1691556e-05 -7.1826706e-05 1.1834308e-14 -1.0785503e-06 7.7283541e-15 5.2770107e-05)
(-1.7407687e-05 -4.6232775e-05 7.0413221e-15 -6.4417437e-06 9.1318679e-15 2.384943e-05)
(6.128637e-06 -3.3638647e-05 9.7947193e-15 -1.4737677e-05 1.5235034e-14 8.6090404e-06)
(1.6626439e-05 -2.6364954e-05 5.2248368e-15 -1.7674634e-05 1.4129996e-14 1.0481949e-06)
(2.0381676e-05 -2.1987315e-05 7.6029928e-15 -1.7425387e-05 1.7001868e-14 -2.9562889e-06)
(2.0636351e-05 -1.9652442e-05 4.6240271e-15 -1.5952051e-05 1.4721313e-14 -4.6842994e-06)
(1.8090519e-05 -1.951314e-05 -2.1061327e-16 -1.3995675e-05 1.1329948e-14 -4.0948436e-06)
(1.2867765e-05 -2.2011471e-05 2.4091953e-14 -1.1800082e-05 3.115015e-14 -1.0676827e-06)
(5.4691586e-06 -2.7054491e-05 -1.3371558e-13 -9.6384644e-06 -1.0952289e-13 4.1693058e-06)
(-3.0346831e-06 -3.4612187e-05 8.0942088e-13 -8.396642e-06 7.2021074e-13 1.1431325e-05)
(-1.3287155e-05 -4.7689605e-05 -4.8921692e-12 -1.0551466e-05 -4.4327254e-12 2.383862e-05)
(-3.5908761e-05 -7.5907451e-05 3.5000259e-11 -2.0810042e-05 3.200117e-11 5.6718803e-05)
(-0.00010160552 -0.00013658208 -2.6867706e-10 -3.6941882e-05 -1.2184829e-10 0.0001385474)
(-0.00023590924 -0.00022659064 -2.4689965e-09 -1.3827012e-05 -1.9970357e-09 0.00024973626)
(-0.00056108146 -0.00020909791 2.8895553e-07 0.00022129994 3.4666751e-07 0.00033978152)
(-0.0013426139 -0.0006506633 -9.3756626e-06 0.0003640198 3.7648427e-05 0.00097859409)
(0.031043056 0.0050051526 0.0021426981 -0.041137196 -0.01617109 0.010094139)
(0.020108986 -0.0022551054 0.0023275144 -0.015270837 0.0095414646 -0.0048381494)
(-0.017750193 -0.0054221067 0.0069005113 -0.0013919714 -0.0054008874 0.019142164)
(0.032095215 0.0022143104 -0.001456448 0.0020163581 -0.0038099352 -0.034111573)
(-0.047000049 0.006511501 -0.00082039714 0.012765015 -0.0021367192 0.034235034)
(-0.031672839 -0.017333703 -0.00021351791 -0.0048983461 1.2669038e-06 0.036571186)
(-0.014196089 -0.044283015 -0.0014347114 -0.021489286 -0.00057792396 0.035685374)
(-0.010538282 0.043598336 -0.00011457846 -0.023299618 3.1903908e-05 0.0338379)
(-0.024653408 0.010160566 -0.00061985149 -0.0043142782 -8.9259147e-05 0.028967686)
(-0.00057935577 -0.00031707607 2.486848e-14 -0.00022392078 -9.0869388e-15 0.00080327654)
(-0.0001671132 2.1873056e-05 1.8760611e-14 -0.00036807731 -2.6173657e-14 0.00053519051)
(-0.00022078717 -0.0001333164 3.7512381e-14 -3.58178e-05 4.5836457e-16 0.00025660497)
(-0.00017471298 -0.00032141409 3.505373e-14 -0.00020023835 1.0997311e-14 0.00037495133)
(-0.00016674893 -0.00039000047 2.7871645e-14 -0.00031193124 1.1854202e-14 0.00047868017)
(-0.00026418845 -0.00050808663 2.3276684e-14 -0.00043421811 1.8945306e-14 0.00069840656)
(-0.0003759065 -0.00037448648 1.6308933e-14 -0.00030290696 2.9440848e-15 0.00067881345)
(-0.00020913614 -0.00012774707 1.771137e-14 -9.6543044e-05 1.0717716e-15 0.00030567918)
(-9.9070384e-05 -9.7099774e-05 1.1180905e-14 -3.0195036e-05 1.5275697e-15 0.00012926542)
(-9.3070361e-05 -0.00014889645 1.7806568e-14 -8.2050456e-05 8.1614281e-15 0.00017512082)
(-0.00015906669 -0.00027385896 2.1151647e-14 -0.00021278035 8.7173924e-15 0.00037184703)
(-0.00025149234 -0.00035478925 1.9623725e-14 -0.0002770119 5.7085136e-15 0.00052850424)
(-0.00014937468 -0.00019941705 2.2331756e-14 -9.8920736e-05 1.2258128e-14 0.00024829541)
(-6.6320767e-05 -0.00010002521 7.9594214e-15 -1.8524152e-05 2.764448e-15 8.4844919e-05)
(-2.4364588e-05 -6.0903002e-05 1.106951e-14 -1.3805045e-05 1.056697e-14 3.8169633e-05)
(1.1149585e-06 -4.3377911e-05 6.3455986e-15 -1.960908e-05 1.0196725e-14 1.8494122e-05)
(1.2574903e-05 -3.4090269e-05 5.3499253e-15 -2.1538032e-05 1.1207262e-14 8.9631288e-06)
(1.7119496e-05 -2.8728468e-05 4.6446147e-15 -2.0487155e-05 1.1890843e-14 3.3676593e-06)
(1.8042278e-05 -2.580087e-05 3.6231086e-15 -1.8319995e-05 1.0775696e-14 2.777164e-07)
(1.5898337e-05 -2.530992e-05 -4.9514366e-15 -1.5927782e-05 2.7526891e-15 2.9445e-08)
(1.0731753e-05 -2.7757979e-05 3.924928e-14 -1.363596e-05 4.4979256e-14 2.9042075e-06)
(3.1076957e-06 -3.3006297e-05 -1.915182e-13 -1.1642019e-05 -1.8429301e-13 8.5343231e-06)
(-5.8030617e-06 -4.0651077e-05 1.1510815e-12 -1.0620147e-05 1.1074486e-12 1.6423209e-05)
(-1.6931027e-05 -5.3734254e-05 -7.0519057e-12 -1.3117321e-05 -6.6631088e-12 3.0048348e-05)
(-4.2558602e-05 -8.4087955e-05 5.202757e-11 -2.563955e-05 4.6204998e-11 6.8198152e-05)
(-0.00011866727 -0.0001552387 -4.4590517e-10 -5.2214164e-05 -1.7025825e-10 0.00017088143)
(-0.00027478819 -0.00027541013 -1.6805047e-09 -5.4461235e-05 -5.0029527e-09 0.00032924943)
(-0.00062964635 -0.00035309351 2.8851971e-07 0.00016648211 7.3585924e-08 0.00046316424)
(-0.0011693959 -0.00028474032 -2.6070819e-05 0.00050770283 2.9265513e-05 0.00066169311)
(0.00048215086 0.00033881283 -0.0004032809 -0.00016532807 -0.00024008731 -0.00031682279)
(-0.00058214803 0.00065289953 -0.0028354984 -0.0046468631 0.0022795798 0.0052290112)
(0.013375967 -0.039807331 0.0036324434 -0.037350319 0.0032500487 0.023974352)
(-0.00035491617 0.0018440749 0.0012148748 -0.0067807939 -0.00081170496 0.0071357101)
(-0.037097663 0.036690265 -0.0086682076 -0.0029579799 -0.00024140937 0.040055643)
(-0.036342873 0.030795963 -0.0010138965 -0.0053396682 4.4715694e-05 0.041682541)
(-0.010982285 -0.021815657 0.0012877738 -0.01464019 0.00051616742 0.025622476)
(-0.0021630356 0.027697532 -6.1276595e-05 -0.025707131 3.2849636e-05 0.027870167)
(-0.031562399 0.030692908 0.0005456143 -0.0093159364 -8.5959394e-05 0.040878336)
(-0.00093529131 -0.0010856648 4.1517704e-14 -0.00070153005 1.3014656e-14 0.0016368214)
(-0.0017855109 -0.00017069615 6.079918e-14 -0.0013526674 -1.9903329e-14 0.0031381783)
(-0.00040262418 3.6891821e-05 1.1137794e-14 -0.00054822103 -2.6770189e-14 0.00095084521)
(-0.00018546843 -3.99723e-05 2.2896815e-14 -0.00010462785 -6.1761295e-15 0.00029009628)
(-0.00015645585 -0.00017180651 1.7489977e-14 -0.00012781718 5.5136665e-17 0.00028427303)
(-0.00018011366 -0.00045562059 2.8742292e-14 -0.00048193105 1.5400713e-14 0.00066204471)
(-0.00036800681 -0.00090909976 2.7417184e-14 -0.0008967186 1.9611031e-14 0.0012647254)
(-0.00058506614 -0.00057064214 1.4268659e-14 -0.00050169417 2.7198469e-15 0.0010867603)
(-0.00024833939 -0.00012692387 1.5982615e-14 -0.00013135478 1.9137871e-16 0.00037969417)
(-0.00012605398 -0.00011694877 1.6625303e-14 -6.2084984e-05 4.5747442e-15 0.00018813897)
(-0.00015108495 -0.00024245443 1.1700365e-14 -0.00020455291 -6.1797517e-15 0.00035563785)
(-0.00022076724 -0.00046660504 2.3566557e-14 -0.00045079016 1.0631359e-14 0.0006715574)
(-0.0001969876 -0.0003221477 1.8374776e-14 -0.00023652384 6.5216819e-15 0.00043351144)
(-9.1741655e-05 -0.00014356518 1.3548162e-14 -5.5963654e-05 7.5221393e-15 0.00014770531)
(-3.7439211e-05 -8.2799407e-05 8.1430902e-15 -2.8723061e-05 6.2346214e-15 6.6162272e-05)
(-8.0968912e-06 -5.763669e-05 6.4822428e-15 -2.9231984e-05 7.9853207e-15 3.7328875e-05)
(5.1612792e-06 -4.5263997e-05 5.6918826e-15 -2.9247921e-05 9.1076331e-15 2.4086642e-05)
(1.0981137e-05 -3.861568e-05 2.9935493e-15 -2.6965531e-05 6.7369246e-15 1.5984393e-05)
(1.2961646e-05 -3.5106071e-05 5.4516254e-15 -2.3724311e-05 9.9578754e-15 1.0762665e-05)
(1.1557595e-05 -3.4286169e-05 -6.1630001e-15 -2.0488455e-05 -3.3444725e-15 8.9308604e-06)
(6.7090855e-06 -3.6515464e-05 5.2778359e-14 -1.7716996e-05 6.1091362e-14 1.1007911e-05)
(-9.0903897e-07 -4.1541461e-05 -2.6501404e-13 -1.5525592e-05 -2.7320099e-13 1.6434631e-05)
(-9.8834565e-06 -4.8502141e-05 1.5591554e-12 -1.4224804e-05 1.541653e-12 2.4108261e-05)
(-2.1121414e-05 -5.9929017e-05 -9.3664011e-12 -1.5962248e-05 -8.9073366e-12 3.7083662e-05)
(-4.7414713e-05 -8.8625987e-05 6.6803645e-11 -2.7508678e-05 5.7351496e-11 7.4923391e-05)
(-0.00012897481 -0.00016354783 -5.1446649e-10 -5.8070517e-05 -1.4319745e-10 0.00018704533)
(-0.00030791353 -0.00031542297 -1.6459436e-09 -9.0177404e-05 -6.017256e-09 0.00039809093)
(-0.00071105429 -0.0005627699 3.222991e-07 5.554453e-05 6.5402669e-08 0.00065550976)
(-0.0011664244 0.00013240904 -1.4577511e-06 0.00056218131 1.1919175e-05 0.00060424308)
(-0.008721112 0.00039718795 -0.00058036084 -0.0034763989 -0.0017795103 0.012197511)
(-0.013490862 0.0022072099 0.0016051758 0.00079607856 0.003173438 0.012694783)
(0.0079108088 -0.018324004 -0.0026384922 -0.025775065 -0.0026559003 0.017864257)
(-0.030441013 0.015479058 0.0017955371 -0.00080202676 0.00044875188 0.03124304)
(-0.034952359 -0.00091636867 -0.00058382714 0.0057302963 0.0037509603 0.029222063)
(-0.032592775 0.026496125 -0.00011648471 -0.0079770851 6.4280695e-05 0.040569861)
(-0.041804778 -0.0082448991 0.00015899852 0.0053094505 -0.00017372066 0.036495327)
(0.0060713892 -0.00049001443 -1.858061e-05 -0.0056314826 -1.5134847e-06 -0.00043990655)
(-0.0309661 0.030500064 0.00025017921 -0.0099841212 -4.1019768e-05 0.040950221)
(-0.00035963024 -0.0017550568 3.4448781e-14 -0.0015582776 9.1451896e-15 0.0019179078)
(-0.0022868266 -0.008304377 5.7435726e-14 -0.005795801 -1.1758893e-14 0.0080826276)
(-0.0023632807 -0.0011015695 9.4270047e-15 -0.0011239035 -1.2152812e-14 0.0034871842)
(-0.0006913126 3.9361785e-05 2.4049057e-14 -0.00076387337 -1.3712671e-14 0.001455186)
(-0.00016085226 2.7716375e-05 1.6098501e-14 -0.00022161626 -5.6184636e-15 0.00038246852)
(-0.00012110482 -6.5826254e-05 2.1115086e-14 -9.1847885e-05 7.1392953e-15 0.0002129527)
(-0.0001341606 -0.00055273077 3.5143605e-14 -0.00073827391 2.5905997e-14 0.00087243451)
(-0.00033593747 -0.0014546831 2.2175984e-14 -0.0016014205 1.2520143e-14 0.001937358)
(-0.00074243111 -0.00072104489 1.763362e-14 -0.00066907564 8.6694419e-15 0.0014115067)
(-0.00028628671 -0.00011148802 1.7689832e-14 -0.00017667414 -2.8937223e-16 0.00046296085)
(-0.00014980646 -9.6337131e-05 5.1995865e-15 -9.2307515e-05 -5.1024474e-15 0.00024211397)
(-0.00015755788 -0.00022012499 2.4644195e-14 -0.00022707954 1.2685276e-14 0.00038463742)
(-0.00018158063 -0.00033140868 1.9632877e-14 -0.00029487165 9.1278902e-15 0.00047645228)
(-0.00012384428 -0.00019451002 1.2946178e-14 -0.00011371509 5.1334456e-15 0.00023755938)
(-5.9627777e-05 -0.00011240518 8.5597574e-15 -5.5556222e-05 5.2365257e-15 0.000115184)
(-2.4041374e-05 -7.7194704e-05 6.9651513e-15 -4.6568188e-05 6.6631625e-15 7.0609562e-05)
(-7.7340852e-06 -6.0521848e-05 5.8749908e-15 -4.3097953e-05 7.2582209e-15 5.0832038e-05)
(9.4680078e-08 -5.2115224e-05 4.2657693e-15 -3.8766437e-05 6.0337975e-15 3.8671757e-05)
(3.7060922e-06 -4.7942737e-05 6.3367995e-15 -3.3844621e-05 9.4102785e-15 3.0138529e-05)
(3.5734594e-06 -4.6830459e-05 -7.5861209e-15 -2.9182255e-05 -8.6286369e-15 2.5608796e-05)
(-4.8704338e-07 -4.8799436e-05 6.9045707e-14 -2.5379308e-05 8.2807398e-14 2.5866351e-05)
(-7.7010424e-06 -5.3427098e-05 -3.6232459e-13 -2.2511828e-05 -3.9518417e-13 3.021287e-05)
(-1.6292989e-05 -5.9366444e-05 2.0849669e-12 -2.0428887e-05 2.1239788e-12 3.6721875e-05)
(-2.6878942e-05 -6.8193219e-05 -1.2186198e-11 -2.0528494e-05 -1.1686709e-11 4.7407436e-05)
(-5.1990634e-05 -9.2526185e-05 8.1158962e-11 -2.8756332e-05 6.7360246e-11 8.0746966e-05)
(-0.00013426309 -0.00016535478 -5.3761874e-10 -5.6867318e-05 -1.0000951e-10 0.0001911304)
(-0.00032927753 -0.00033953539 -4.1810562e-09 -0.00011248397 -7.3072866e-09 0.00044176151)
(-0.00073540345 -0.00075000701 2.8470387e-07 -9.2869646e-05 8.6491894e-08 0.0008282731)
(-0.00096676555 0.00017389542 1.22998e-06 0.00050518133 4.3209921e-06 0.00046158422)
(-0.0030907936 0.0058641195 -0.000273039 -0.00098799888 -3.2564143e-05 0.0040787924)
(-0.0069833203 0.005143311 -0.0001813403 0.0015223404 -0.00024489328 0.0054609799)
(-0.01060779 0.00050114104 -0.00047570903 -0.0057350741 9.4846866e-05 0.016342864)
(0.0018582897 0.040029811 0.0036744101 -0.032088513 -0.0024297923 0.030230224)
(-0.0068397637 -0.050365752 0.00069745011 -0.011138613 -1.2370564e-05 0.017978377)
(-0.037308814 -0.028225647 3.3915823e-05 -0.0033788536 6.3638056e-06 0.040687668)
(-0.033541688 -0.02520055 0.00037202412 -0.0069929555 3.527243e-05 0.040534643)
(-0.011234313 0.0001867198 -1.4649509e-05 -0.0051887009 -3.7689782e-05 0.016423014)
(-0.037560938 0.025228975 -0.00047750148 -0.0019834207 -5.5635699e-05 0.039544358)
(-0.00024224878 -0.00048693711 1.7173981e-14 -0.00043255201 7.1022143e-15 0.00067480079)
(0.0056532185 -0.0053189291 5.1781436e-14 -0.013770252 8.8468655e-14 0.0081170339)
(-0.00056035775 -0.0062238534 4.2031514e-14 -0.0054424749 2.4708797e-14 0.0060028327)
(-0.0025136305 -0.0023644999 1.6757736e-14 -0.0017031947 1.0915345e-15 0.0042168252)
(-0.00099412188 -9.3835294e-05 1.2597973e-14 -0.00082945562 -8.5401469e-15 0.0018235775)
(-3.2111955e-05 0.0001428075 1.484471e-14 -0.00048296546 -9.1688569e-15 0.00051507741)
(-9.0648908e-06 4.9761719e-05 2.150234e-14 -6.3823926e-05 7.447064e-15 7.2888817e-05)
(-3.2204161e-05 -0.00058324473 3.1157961e-14 -0.00097227599 3.1258922e-14 0.0010044802)
(-0.00029105081 -0.0017958717 2.2228263e-14 -0.0020791254 1.364036e-14 0.0023701762)
(-0.00084312249 -0.0006801892 1.9036689e-14 -0.00069118791 6.7207436e-15 0.0015343104)
(-0.00028469932 -9.6447079e-06 1.3914079e-14 -0.00026763472 -2.2878916e-15 0.00055233404)
(-8.9200929e-05 1.7980887e-05 1.7792966e-14 -0.00011449626 4.039074e-16 0.00020369719)
(-0.00016222652 -0.00014488315 2.0944695e-14 -0.00013138667 8.9784502e-15 0.00029361319)
(-0.00015131465 -0.00020905443 1.2951287e-14 -0.00014418881 4.9607907e-15 0.00029550346)
(-8.9140182e-05 -0.00014285826 1.0900651e-14 -9.0216286e-05 6.9081059e-15 0.00017935647)
(-4.6707151e-05 -9.937267e-05 7.1891863e-15 -7.1087383e-05 5.6443328e-15 0.00011779453)
(-2.6386589e-05 -7.8060639e-05 4.695958e-15 -6.289871e-05 4.1253769e-15 8.9285299e-05)
(-1.592859e-05 -6.7598809e-05 4.4709336e-15 -5.5718e-05 4.7285104e-15 7.164659e-05)
(-1.0154784e-05 -6.2635827e-05 7.3163156e-15 -4.8512038e-05 9.7685653e-15 5.8666823e-05)
(-8.4942526e-06 -6.1245244e-05 -1.1801798e-14 -4.1900927e-05 -1.7379138e-14 5.039518e-05)
(-1.1291796e-05 -6.3058944e-05 9.4804841e-14 -3.6609257e-05 1.1966014e-13 4.7901053e-05)
(-1.7742235e-05 -6.7493932e-05 -4.9749998e-13 -3.275475e-05 -5.7375556e-13 5.0496984e-05)
(-2.5591631e-05 -7.2699999e-05 2.8270046e-12 -2.9652548e-05 2.9864153e-12 5.524418e-05)
(-3.4848329e-05 -7.8949407e-05 -1.6210058e-11 -2.7582765e-05 -1.564876e-11 6.2431095e-05)
(-5.7543325e-05 -9.7786987e-05 1.0138247e-10 -3.117449e-05 7.9469862e-11 8.8717815e-05)
(-0.000137136 -0.00016384498 -5.7862248e-10 -5.1749031e-05 -4.7463042e-11 0.00018888503)
(-0.00033883201 -0.0003337661 -4.7696372e-09 -0.00010967038 -7.4937262e-09 0.00044850238)
(-0.00071812396 -0.00072255397 2.7591087e-07 -0.00015217136 6.878115e-08 0.00087029532)
(-0.00080234683 -0.00018901281 -8.644785e-07 0.00042487876 2.7886754e-06 0.00037746806)
(-0.0013319822 0.00063638762 4.0149759e-06 0.0007011763 8.7421925e-06 0.00063080587)
(-0.010590815 0.002680698 -0.000324274 0.0022349032 -0.00095345837 0.0083559123)
(-0.031627814 0.0082019215 0.0043824034 0.0044620183 0.0050121622 0.027165796)
(2.1316753e-05 0.019296758 0.00085509224 -0.018047607 -0.00063931665 0.018026291)
(-0.014712065 -0.035444252 -0.00024919397 -0.013806572 1.9999601e-05 0.028518637)
(-0.036750298 -0.033049531 -8.8980357e-05 -0.0049862923 -5.2403208e-05 0.04173659)
(-0.035128384 0.0027551531 -9.896692e-05 0.0039067556 -0.00037170169 0.031221629)
(-0.01798929 0.051851293 -0.00012458637 -0.015045796 1.9659367e-05 0.033035086)
(0.01960085 -0.012943709 1.9558184e-05 -0.022201557 3.2997496e-05 0.0026007074)
(-2.1387041e-05 0.00019327624 5.9022584e-15 -0.00064140676 -6.2363646e-15 0.0006627938)
(0.00022526208 -0.00012445952 -8.9082764e-15 0.00017855646 1.6686076e-14 -0.00040381854)
(0.0017048766 -0.0017786197 3.590766e-14 -0.0044162486 5.5185713e-14 0.0027113719)
(0.0013197482 -0.0055472207 4.2283605e-14 -0.007068855 3.2968785e-14 0.0057491068)
(-0.0018506032 -0.0033778655 5.3545337e-15 -0.0027325551 2.7029536e-15 0.0045831582)
(-0.0014384312 -0.0001388077 2.5922184e-14 -0.0011992857 2.1137432e-15 0.002637717)
(0.00023339703 0.00027116316 1.442973e-14 -0.0010720375 -1.4691746e-14 0.00083864043)
(0.00016868378 0.00011608542 1.4030054e-14 -0.00011022717 2.8263559e-15 -5.845661e-05)
(3.4706145e-05 -0.00060281587 2.8318127e-14 -0.001112587 2.5180113e-14 0.0010778809)
(-0.00035536483 -0.0019798355 2.2652115e-14 -0.0022284904 1.3142938e-14 0.0025838552)
(-0.0011067827 -0.00070709606 9.9939294e-15 -0.00082036712 9.164167e-16 0.0019271498)
(-0.00036160036 0.00011309449 2.5814332e-14 -0.00056676121 -2.4589343e-15 0.00092836157)
(-0.00017092991 2.1126727e-05 1.6425802e-14 -0.0002048882 -2.6771147e-15 0.00037581811)
(-0.00019345301 -0.00016280675 1.2726286e-14 -0.0001280384 3.0909833e-15 0.00032149141)
(-0.00012789781 -0.00016522661 1.0218163e-14 -0.00012317723 4.6350182e-15 0.00025107504)
(-7.7781198e-05 -0.00012337429 5.5560834e-15 -0.00010296466 1.9903275e-15 0.00018074586)
(-5.2531865e-05 -9.8376445e-05 4.5698731e-15 -9.0414839e-05 3.2352109e-15 0.0001429467)
(-3.8827225e-05 -8.5775597e-05 4.2043742e-15 -7.9884066e-05 3.2033058e-15 0.00011871129)
(-3.0263123e-05 -7.9844158e-05 7.0931142e-15 -6.9677908e-05 8.6213056e-15 9.9941031e-05)
(-2.614468e-05 -7.8132833e-05 -1.7866469e-14 -6.0420833e-05 -2.9085044e-14 8.6565513e-05)
(-2.7063058e-05 -7.9875618e-05 1.2829408e-13 -5.3032396e-05 1.6932976e-13 8.0095454e-05)
(-3.2306324e-05 -8.4336666e-05 -6.8618377e-13 -4.7796773e-05 -8.2440392e-13 8.0103098e-05)
(-3.9078347e-05 -8.9263382e-05 3.8559996e-12 -4.3539855e-05 4.1760255e-12 8.2618202e-05)
(-4.6361636e-05 -9.3456309e-05 -2.1814146e-11 -3.9008694e-05 -2.087745e-11 8.537033e-05)
(-6.5335194e-05 -0.00010635362 1.2791635e-10 -3.6836124e-05 9.2455475e-11 0.00010217132)
(-0.00013908591 -0.00016101991 -6.2111571e-10 -4.5215338e-05 2.0680194e-11 0.00018430125)
(-0.00034232925 -0.00030365737 -5.0964382e-09 -8.4963062e-05 -7.0588766e-09 0.00042729232)
(-0.00077970161 -0.00057784493 2.311014e-07 -0.00013992693 1.0137653e-08 0.00091962854)
(-0.00090996841 -0.00052681201 -1.8549801e-06 0.0003040379 1.9673488e-06 0.00060593051)
(-0.0024713357 -0.0013127629 -3.2416449e-07 0.00045770621 6.4617886e-07 0.0020136295)
(-0.012583782 0.0018782883 -1.908869e-05 0.00072957447 3.0527165e-05 0.011854208)
(-0.031992388 0.031110639 0.0095426542 -0.0034761491 0.0005002306 0.035468537)