9.334584363e-21 	1.024851417 	-3.458452807e-14 	-1.078785249e-20
9.334584363e-21 	1.024851417 	-3.458112867e-14 	-1.592085387e-19
9.334584363e-21 	1.024851417 	-3.458112867e-14 	-1.592085387e-19
0.00288258783 	1.243887001 	0.3622674206 	-0.01411021012
0.005756609739 	1.292353895 	0.4639302891 	-0.01581101323
0.008621326564 	1.303798639 	0.4799681581 	-0.01428550781
0.01147601185 	1.314187677 	0.4918660646 	-0.01285280709
0.01431995169 	1.325101917 	0.5029869328 	-0.01155814747
0.01715244455 	1.33511581 	0.5143921367 	-0.01041912485
0.0199728011 	1.345041071 	0.525420573 	-0.009385993679
0.02278034407 	1.357396744 	0.5345749603 	-0.008434565662
0.02737883989 	1.373990618 	0.552646034 	-0.007073476307
0.03230812895 	1.394579421 	0.5702896833 	-0.005819149323
0.03758360948 	1.417641567 	0.5879247055 	-0.0046792737
0.04321906213 	1.44327966 	0.6052478775 	-0.003661051972
0.04922584402 	1.471404492 	0.6220213012 	-0.00276911073
0.0556118696 	1.502212936 	0.6378134919 	-0.002007285864
0.0625249857 	1.535924054 	0.6528808703 	-0.001362513657
0.06994199541 	1.572410148 	0.6666621843 	-0.0008418550126
0.07781510268 	1.61130946 	0.6786031811 	-0.0004456350578
0.08616157697 	1.652348773 	0.6884345139 	-0.0001647211843
0.09419472249 	1.691272061 	0.6953974902 	-0.0002254263929
0.0947448843 	1.697700662 	0.6935170898 	-3.269023593e-05
0.1011861289 	1.767689079 	0.6732791087 	-0.0003530616606
0.1081732644 	1.836252577 	0.6527642101 	-0.0005932936628
0.1157117659 	1.902769768 	0.6319577934 	-0.0007557973636
0.1237360428 	1.971004279 	0.6062958712 	-0.0008296532123
0.1363260184 	2.053283803 	0.5796261992 	-0.0008543052522
0.1495480642 	2.128061597 	0.5501798896 	-0.0004711191999
0.1630419479 	2.191445845 	0.52162257 	-0.0002240857521
0.1770783429 	2.245362704 	0.4941952327 	-7.982871781e-05
0.1914745874 	2.290783971 	0.4676104437 	-1.214481427e-05
0.1985754366 	2.309505793 	0.4558490849 	-0.00125805728
0.2055262133 	2.325003547 	0.4401702519 	-5.823751569e-07
0.2191954841 	2.350965322 	0.4133798159 	5.463932268e-05
0.2335514641 	2.373453196 	0.3890147719 	0.000160842768
0.2484118546 	2.392735304 	0.3665798981 	0.0002939973853
0.2638626236 	2.409165596 	0.3457155056 	0.0003932001136
0.2799988512 	2.42301661 	0.3260913968 	0.000334806193
0.2967477446 	2.434463675 	0.3074856102 	0.0002529763168
0.31414986 	2.443645546 	0.2897434223 	0.0001603294326
0.3322401123 	2.450695557 	0.2727234819 	6.61344118e-05
0.3460805351 	2.454406475 	0.2607611156 	-0.0003743278913
0.3508759794 	2.456176027 	0.2561385854 	1.993408474e-05
0.369826429 	2.460696425 	0.2397998804 	9.297336479e-05
0.3896167132 	2.462845717 	0.2242789845 	0.0001600446512
0.4102751536 	2.462746144 	0.2094730756 	0.0002178223333
0.4318308175 	2.460508104 	0.1953116916 	0.0002643545538
0.4543152763 	2.456187115 	0.1817683359 	0.0002981092984
0.4777652562 	2.449756718 	0.168766397 	0.0003011550096
0.5022533496 	2.441126418 	0.1562114733 	0.000251037887
0.5277886558 	2.430174708 	0.1440394535 	0.0002099040535
0.5544485231 	2.417063423 	0.1324292252 	0.0001765782902
0.5799262857 	2.402549275 	0.1218230406 	0.0001516667332
0.6041826508 	2.387195491 	0.1123106435 	0.0001331013077
0.6272842377 	2.371220544 	0.1037317733 	0.0001193752552
0.6493037931 	2.354765288 	0.09595994463 	0.000109264012
0.6703065457 	2.337922404 	0.08887698271 	0.0001016222555
0.6903468215 	2.320750935 	0.08239024542 	9.568045862e-05
0.709477493 	2.303287512 	0.07642353534 	9.088061278e-05
0.727746446 	2.285551991 	0.07091286323 	8.681651786e-05
0.7451974602 	2.267553141 	0.06580498965 	8.321064225e-05
0.7618708751 	2.249290983 	0.06105505122 	7.987158324e-05
0.7778040983 	2.230758114 	0.05662485569 	7.666889984e-05
0.7930320036 	2.211940718 	0.05248160179 	7.351670908e-05
0.8075872462 	2.192818643 	0.04859695948 	7.036138975e-05
0.8215005201 	2.173364645 	0.0449463152 	6.717107566e-05
0.8348007701 	2.153542949 	0.041508132 	6.392804234e-05
0.8475153779 	2.133306967 	0.03826354188 	6.062383536e-05
0.8596703572 	2.112596119 	0.0351958738 	5.725502811e-05
0.8712903329 	2.091331688 	0.03229023739 	5.38228415e-05
0.882398777 	2.069411295 	0.02953341122 	5.033199964e-05
0.893018099 	2.046701805 	0.02691353464 	4.678774268e-05
0.9031696611 	2.023030096 	0.02441956614 	4.319468086e-05
0.9128738454 	1.998170364 	0.02204134246 	3.955724292e-05
0.9221501758 	1.971825926 	0.01976974006 	3.587453334e-05
0.9310172794 	1.943602011 	0.01759707353 	3.202157059e-05
0.939493004 	1.915429549 	0.01566994409 	2.76470528e-05
0.9450045146 	1.890583652 	0.01414744532 	2.434825396e-05
0.9501020447 	1.867570732 	0.01287358073 	2.163671992e-05
0.9548165482 	1.843878752 	0.01168754098 	1.916110448e-05
0.9591766882 	1.819373148 	0.01058115173 	1.689819917e-05
0.9632090006 	1.793895336 	0.009547678744 	1.483118674e-05
0.9669380478 	1.767253347 	0.00858132749 	1.294478947e-05
0.9703865623 	1.739208866 	0.007676982425 	1.122514807e-05
0.9735755846 	1.709458959 	0.006830151598 	9.659619941e-06
0.9765245868 	1.67760976 	0.00603690089 	8.236256311e-06
0.9792515875 	1.643137492 	0.005293818295 	6.943563433e-06
0.9817732592 	1.605328772 	0.004597923109 	5.770339947e-06
0.9841050282 	1.563185369 	0.003946482075 	4.705470126e-06
0.9862611663 	1.515264857 	0.003336941661 	3.741179882e-06
0.9882548776 	1.459315923 	0.002767710051 	2.864567268e-06
0.9900983768 	1.3977208 	0.002279211695 	2.146147362e-06
0.9912167883 	1.337120151 	0.001903636728 	1.635233548e-06
0.992335291 	1.269870012 	0.001578701215 	1.225217369e-06
0.9934538849 	1.180881845 	0.00125188717 	8.398321015e-07
0.99457257 	1.057589387 	0.0009255045502 	4.884834297e-07
0.9956913462 	0.878954266 	0.0006023902684 	2.137137782e-07
0.9968102135 	0.6291170421 	0.0002972496372 	3.006974755e-08
0.997929172 	0.3262115213 	1.419628137e-05 	-2.386570233e-07
0.9990482216 	0.1015531485 	-7.558255075e-05 	-2.645840568e-07
0.9990482216 	0.1015531485 	-7.558255075e-05 	-2.645840568e-07
