0.1782789226 	7.265007787e-06 	-2.421305509e-07 	2.082758836e-11 	6.716492562e-06 	-1.322741238e-10 	1.280350157e-08
0.1793364801 	0.0006820196685 	-0.0001128577449 	9.852564293e-09 	0.0004329882516 	-3.812244659e-08 	8.253959504e-07
0.1803940266 	0.005884026606 	-0.001356851567 	-2.682768079e-07 	0.002954855577 	6.082930251e-08 	5.63277599e-06
0.181451425 	0.01239151334 	-0.003008300534 	-1.384966075e-06 	0.006113375542 	5.077897074e-07 	1.165379291e-05
0.182508539 	0.0145437866 	-0.003538460593 	-2.218441654e-06 	0.007767606693 	-1.347459216e-06 	1.480721725e-05
0.1835652335 	0.01448180636 	-0.003375010025 	-2.130234702e-06 	0.009237933519 	-8.248697842e-06 	1.761006884e-05
0.1846213741 	0.01398881304 	-0.00302206369 	-1.989775304e-06 	0.01115654008 	-1.792996228e-05 	2.126746619e-05
0.1856768272 	0.01354033928 	-0.002727095417 	-1.031340837e-06 	0.01316606738 	-2.666227304e-05 	2.509818374e-05
0.1867314604 	0.01320098606 	-0.002592888658 	6.763132586e-07 	0.01517266858 	-3.373491261e-05 	2.892332333e-05
0.1884678824 	0.01281424393 	-0.002397337185 	1.813689144e-06 	0.01692646607 	-3.884642592e-05 	3.226654879e-05
0.1903424678 	0.01232895177 	-0.00209639531 	2.107488328e-06 	0.01811087639 	-3.873448799e-05 	3.452436406e-05
0.1923650619 	0.0118359769 	-0.00183028835 	2.227650407e-06 	0.01867166809 	-3.578858571e-05 	3.559338891e-05
0.1945458646 	0.01135539002 	-0.00157795808 	2.663703926e-06 	0.01867671671 	-3.044192406e-05 	3.560301297e-05
0.1968953331 	0.01091012717 	-0.001385360391 	4.12072944e-06 	0.01838226423 	-2.563579984e-05 	3.50417047e-05
0.1994240443 	0.01051015372 	-0.001252057794 	6.442236708e-06 	0.01793535996 	-2.293140345e-05 	3.418978096e-05
0.2022039843 	0.01015605266 	-0.001173785513 	8.802867366e-06 	0.01744695967 	-2.12361825e-05 	3.325875426e-05
0.2052282326 	0.00984565756 	-0.001131789143 	1.082342809e-05 	0.01696725323 	-2.060904353e-05 	3.234430047e-05
0.208483227 	0.009573631339 	-0.001109946674 	1.237667851e-05 	0.01652332349 	-2.070413522e-05 	3.1498047e-05
0.2119854449 	0.009333669439 	-0.001097004546 	1.365423707e-05 	0.01612363457 	-2.108053572e-05 	3.073612883e-05
0.2157524015 	0.009120256362 	-0.001087633639 	1.488000681e-05 	0.01576821724 	-2.144652266e-05 	3.005860461e-05
0.2198027044 	0.008928752308 	-0.001078706581 	1.550528437e-05 	0.01545248103 	-2.077197231e-05 	2.945672364e-05
0.2242329319 	0.008756059359 	-0.001067136026 	1.41858214e-05 	0.0151720215 	-1.750513649e-05 	2.892208982e-05
0.2290544863 	0.008601114712 	-0.001057641065 	1.281987731e-05 	0.01492598768 	-1.442609649e-05 	2.845308098e-05
0.2342303556 	0.008445252317 	-0.00105338363 	1.134680484e-05 	0.01468694693 	-1.151761739e-05 	2.799740287e-05
0.2424425672 	0.008289412711 	-0.001039172365 	9.006493215e-06 	0.01446276003 	-7.906232269e-06 	2.757004034e-05
0.2512019007 	0.008160518381 	-0.001023342767 	6.557614313e-06 	0.01429066555 	-4.90018088e-06 	2.724198042e-05
0.260272405 	0.008067373222 	-0.001010784321 	4.015281431e-06 	0.01418735559 	-2.526189148e-06 	2.704504293e-05
0.2698577597 	0.008002834432 	-0.0009987252965 	1.324397882e-06 	0.01414438439 	-6.916443637e-07 	2.696312787e-05
0.2746316674 	0.007984422557 	-0.0009923507541 	-2.981109855e-07 	0.01414882357 	-1.002717099e-05 	2.697159019e-05
0.2797038544 	0.007964869817 	-0.0009906893388 	1.195804636e-06 	0.0141426666 	-8.11828831e-07 	2.695985329e-05
0.2899697441 	0.007951197587 	-0.0009841498938 	3.640788646e-06 	0.01417836038 	-2.110564535e-06 	2.702789556e-05
0.3006706734 	0.007957354418 	-0.0009724616085 	6.237040254e-06 	0.01425796878 	-3.069835844e-06 	2.71796513e-05
0.3120160821 	0.007980884926 	-0.0009537603853 	9.020893103e-06 	0.01437973346 	-3.73642548e-06 	2.741176861e-05
0.3238692139 	0.008019860354 	-0.0009267655414 	1.194233302e-05 	0.01454172362 	-4.138786702e-06 	2.772056689e-05
0.3363117021 	0.008072538152 	-0.0008895211048 	1.479451776e-05 	0.01474272633 	-4.267463585e-06 	2.810373391e-05
0.349433862 	0.008137715822 	-0.0008399397707 	1.251201906e-05 	0.01498273987 	-2.997372378e-06 	2.856126643e-05
0.3631878017 	0.008214085119 	-0.0007757357334 	1.01044266e-05 	0.01526034828 	-2.024920186e-06 	2.909046521e-05
0.3776194784 	0.008300806957 	-0.0006945613643 	7.595462152e-06 	0.01557476707 	-1.299849744e-06 	2.968983482e-05
0.3927703887 	0.008397176209 	-0.0005934123219 	5.019562818e-06 	0.01592503087 	-7.639212334e-07 	3.035753497e-05
0.4086779032 	0.008502834723 	-0.0004689798403 	2.425040426e-06 	0.01630979827 	-3.491820151e-07 	3.109100857e-05
0.4245620446 	0.008612321174 	-0.0003247904826 	2.263732034e-07 	0.01670701191 	-4.93736641e-07 	3.184820817e-05
0.4253688703 	0.008618302936 	-0.0003176693689 	1.110596676e-07 	0.01672661741 	-3.554490062e-08 	3.18855817e-05
0.4427555722 	0.008751449113 	-0.0001399020991 	2.276788796e-06 	0.01716180747 	-7.508089921e-07 	3.271517491e-05
0.4610113432 	0.00889535945 	7.649971046e-05 	4.253175121e-06 	0.01762627369 	-1.497492413e-06 	3.360057662e-05
0.4801671495 	0.009051552757 	0.0003391433015 	5.930914913e-06 	0.01811534829 	-2.310525101e-06 	3.453288874e-05
0.500255019 	0.009222575339 	0.000656384137 	7.178593063e-06 	0.01862151142 	-3.204008717e-06 	3.549777635e-05
0.5213101978 	0.009412110075 	0.00103594822 	7.854084437e-06 	0.01913315594 	-4.149110732e-06 	3.6473113e-05
0.543399157 	0.009625538067 	0.001483401162 	7.838352831e-06 	0.01963418498 	-5.051911349e-06 	3.74282136e-05
0.5665292553 	0.009870340522 	0.002000036801 	7.085794479e-06 	0.02010448125 	-5.754241751e-06 	3.832472901e-05
0.5907678258 	0.01014862261 	0.002566885905 	5.738306441e-06 	0.0205165338 	-6.078144715e-06 	3.91102157e-05
0.6140035486 	0.0104491063 	0.003136801525 	4.122133002e-06 	0.02084307758 	-5.969484187e-06 	3.97326989e-05
0.6361790147 	0.01076370942 	0.003681131394 	2.559693648e-06 	0.021080808 	-5.493327899e-06 	4.018587916e-05
0.6573383331 	0.01110149394 	0.00417517341 	1.801742442e-06 	0.02121773542 	-3.894247372e-06 	4.044690087e-05
0.6775352315 	0.01145263302 	0.004614711424 	1.776546657e-06 	0.02127794676 	-1.690940321e-06 	4.056168043e-05
0.6968200123 	0.01179733333 	0.005010503236 	1.871002121e-06 	0.02129888571 	-3.747551088e-09 	4.060159588e-05
0.715235382 	0.0121370833 	0.005357321047 	2.045426077e-06 	0.02127834639 	1.192215116e-06 	4.056244224e-05
0.7328246144 	0.01247400954 	0.005652786261 	2.237020634e-06 	0.02121519755 	1.964063546e-06 	4.044206299e-05
0.749627871 	0.01279928463 	0.005909149707 	2.391968435e-06 	0.02112478352 	2.44950248e-06 	4.026970871e-05
0.7656826352 	0.01310396014 	0.006137854151 	2.45600785e-06 	0.02102057843 	2.723994346e-06 	4.007106485e-05
0.7810240426 	0.01338645369 	0.006341529123 	2.438664867e-06 	0.02090462028 	2.841931236e-06 	3.985001639e-05
0.7956851394 	0.01364797924 	0.006520604516 	2.285112212e-06 	0.02077589126 	2.778143254e-06 	3.960462311e-05
0.8096970886 	0.01389027889 	0.006675450831 	1.980661889e-06 	0.02063347537 	2.546083493e-06 	3.933313883e-05
0.8230893421 	0.01411298756 	0.006810013755 	1.645201247e-06 	0.02047943237 	2.259273308e-06 	3.903949006e-05
0.8358897869 	0.01431619524 	0.00692712006 	1.340414401e-06 	0.02031523681 	1.985918006e-06 	3.872648769e-05
0.8481248724 	0.01450118214 	0.007027951075 	1.06305563e-06 	0.02014129053 	1.738084331e-06 	3.839489773e-05
0.8598197293 	0.0146696927 	0.007113634104 	8.141583339e-07 	0.0199578742 	1.514069838e-06 	3.804525522e-05
0.8709982994 	0.01482355392 	0.007185333146 	6.006122032e-07 	0.01976543493 	1.310206779e-06 	3.76784125e-05
0.8816833074 	0.01496449415 	0.007244303253 	4.2824951e-07 	0.01956462655 	1.127042883e-06 	3.729561592e-05
0.8918964603 	0.01509415403 	0.00729175889 	2.907095349e-07 	0.01935618275 	9.638722372e-07 	3.68982641e-05
0.9016584956 	0.01521390925 	0.007328898748 	1.766007185e-07 	0.01914097082 	8.164601401e-07 	3.648801034e-05
0.9109891935 	0.01532472638 	0.007356934702 	7.824399198e-08 	0.01891979278 	6.793859781e-07 	3.606638353e-05
0.9199074469 	0.01542704347 	0.007376941759 	-7.900075331e-09 	0.01869309146 	5.486587719e-07 	3.56342278e-05
0.9284313406 	0.01552063535 	0.007389841587 	-8.30171833e-08 	0.01846057775 	4.218988729e-07 	3.519099205e-05
0.9365781401 	0.01560376131 	0.007399527701 	-1.460554271e-07 	0.0182219436 	2.974821531e-07 	3.473608904e-05
0.9443643776 	0.01566934261 	0.007385015895 	-1.904838656e-07 	0.01799289546 	1.872360905e-07 	3.429945961e-05
0.9494270244 	0.01571360369 	0.007362359019 	-2.202481317e-07 	0.01779932149 	9.671510772e-08 	3.393045382e-05
0.9541090463 	0.01574410948 	0.007352753424 	-2.346182061e-07 	0.01762945624 	2.901623389e-08 	3.360664345e-05
0.9584389569 	0.01576610341 	0.007339321498 	-2.394041005e-07 	0.01746247355 	-2.682281047e-08 	3.328832802e-05
0.9624431508 	0.01577924524 	0.007324478388 	-2.339181532e-07 	0.01729795393 	-6.842477822e-08 	3.297470791e-05
0.9661460569 	0.01578349676 	0.007308817321 	-2.176180431e-07 	0.01713505064 	-9.298756619e-08 	3.266416896e-05
0.9695702816 	0.0157786948 	0.007292902925 	-1.900974708e-07 	0.0169730313 	-9.794353328e-08 	3.235531507e-05
0.9727367433 	0.01576443755 	0.007277169341 	-1.511531488e-07 	0.01681100889 	-8.109510282e-08 	3.204645532e-05
0.9756647985 	0.01573978621 	0.007261753825 	-1.008576091e-07 	0.0166476439 	-4.065649421e-08 	3.173503625e-05
0.9783723575 	0.01570274398 	0.007246227924 	-3.965375516e-08 	0.01648064308 	2.463176268e-08 	3.141668627e-05
0.9808759904 	0.01564936127 	0.007229142854 	3.14703272e-08 	0.01630588592 	1.153580836e-07 	3.108355054e-05
0.9831910271 	0.01557216215 	0.007207255879 	1.106610982e-07 	0.01611588059 	2.311217858e-07 	3.072134759e-05
0.9853316493 	0.01545735009 	0.007174262845 	2.002851695e-07 	0.01589681106 	3.696292569e-07 	3.030374017e-05
0.9873109759 	0.01527923668 	0.007132017754 	2.966731349e-07 	0.01562324621 	5.236008847e-07 	2.978224953e-05
0.989141142 	0.01497945987 	0.007017501095 	3.375175172e-07 	0.01523485216 	6.654449596e-07 	2.904186252e-05
0.9908333727 	0.01449076325 	0.006779421624 	3.412069016e-07 	0.01467185721 	7.447652382e-07 	2.796863768e-05
0.9918599917 	0.01385050466 	0.006470204508 	3.454803549e-07 	0.01397826303 	7.440630047e-07 	2.664645439e-05
0.9928866784 	0.01295126879 	0.006047592978 	3.155642401e-07 	0.01303735116 	6.560311755e-07 	2.485281486e-05
0.9939134329 	0.01144696646 	0.005341939846 	2.108877257e-07 	0.01149738692 	4.367453814e-07 	2.191721501e-05
0.9949402552 	0.008895000295 	0.004113929945 	1.998223658e-08 	0.008917530841 	8.27229323e-08 	1.699929228e-05
0.9959671451 	0.004999807252 	0.002137797394 	-9.538068697e-08 	0.005004933772 	-1.49968837e-07 	9.540794819e-06
0.9969941029 	0.001493095766 	0.0004907775992 	-5.102866921e-08 	0.001492605445 	-8.778203618e-08 	2.845320826e-06
0.9980211284 	0.0001401775224 	1.93634639e-05 	-6.052566126e-10 	0.0001399768077 	1.578277564e-09 	2.668347001e-07
0.9990482216 	2.047096778e-06 	3.521299841e-08 	9.381511321e-12 	2.043214534e-06 	4.291301503e-10 	3.894934784e-09
0.9990482216 	2.047096778e-06 	3.521299841e-08 	9.381511321e-12 	2.043214534e-06 	4.291301503e-10 	3.894934784e-09
