0.3809807962 	1.191018642e-05 	-3.061776531e-07 	2.323522901e-10 	1.172724648e-05 	-6.475118409e-09 	2.235539122e-08
0.3809807962 	1.191018642e-05 	-3.061776531e-07 	2.323522901e-10 	1.172724648e-05 	-6.475118409e-09 	2.235539122e-08
0.3816420953 	0.0006324859157 	-0.0001015095312 	1.078860559e-07 	0.0005784236967 	-4.396245891e-07 	1.10263633e-06
0.3823034746 	0.00554443411 	-0.001755725786 	1.672751276e-06 	0.004618254129 	-3.304852909e-06 	8.803675947e-06
0.3829649069 	0.01626900206 	-0.006246925775 	4.300601781e-06 	0.0129845465 	-7.080216788e-06 	2.475215449e-05
0.3836263652 	0.02656961843 	-0.01086554251 	5.923795322e-06 	0.02087082521 	-7.853149483e-06 	3.978559359e-05
0.3842878226 	0.03236206587 	-0.01325848213 	5.188913257e-06 	0.02542470022 	-6.126522135e-06 	4.846654505e-05
0.3849492522 	0.03511644671 	-0.01425336941 	3.187979685e-06 	0.02767582361 	-3.544759342e-06 	5.27578119e-05
0.3856106273 	0.03616196809 	-0.01459961354 	1.548752309e-06 	0.02855674596 	-5.262178386e-07 	5.443709473e-05
0.3862719212 	0.0360986753 	-0.01454476719 	-5.239382289e-07 	0.02853811947 	3.412120836e-06 	5.440158747e-05
0.3873618155 	0.034712397 	-0.01397313478 	-3.440289045e-06 	0.02747029427 	9.007823371e-06 	5.236601585e-05
0.3885402157 	0.03193832529 	-0.01285210516 	-6.930732495e-06 	0.02530741955 	1.565032945e-05 	4.824297549e-05
0.3898140998 	0.02830831369 	-0.01139073207 	-1.008965638e-05 	0.02247467231 	2.153991027e-05 	4.284297193e-05
0.3911909313 	0.02432431396 	-0.009791456317 	-1.183332961e-05 	0.01937581457 	2.455692831e-05 	3.69356878e-05
0.3926786723 	0.02051559848 	-0.008242578987 	-1.293331963e-05 	0.01644978312 	2.360661101e-05 	3.13578586e-05
0.394285793 	0.0171946758 	-0.006696954323 	-1.382389528e-05 	0.01403273023 	1.839125012e-05 	2.675028402e-05
0.396052495 	0.01455277523 	-0.005221684874 	-1.23237956e-05 	0.0122933079 	1.048175169e-05 	2.34344616e-05
0.3979774361 	0.01272111621 	-0.004022287284 	-9.153377691e-06 	0.01129390266 	2.357238412e-06 	2.152931745e-05
0.4000569308 	0.01160692871 	-0.003103662586 	-6.486198465e-06 	0.01098318132 	-4.504455544e-06 	2.093699621e-05
0.4023032174 	0.01098797698 	-0.002389296189 	-4.980111034e-06 	0.01119325041 	-9.074568065e-06 	2.133744629e-05
0.4047294845 	0.01064791579 	-0.001784509401 	-4.004090232e-06 	0.01171598528 	-1.129003424e-05 	2.233392424e-05
0.4073499434 	0.01044979767 	-0.001254752991 	-3.169059024e-06 	0.01238362689 	-1.202286428e-05 	2.360663471e-05
0.4102202398 	0.01032215947 	-0.0007795013664 	-2.564659639e-06 	0.01311101256 	-1.197911438e-05 	2.499323395e-05
0.4133526423 	0.01022590724 	-0.0003364039529 	-2.110590182e-06 	0.0138568797 	-1.150514568e-05 	2.641506403e-05
0.4167342183 	0.01013213343 	0.0001255828733 	-1.771245701e-06 	0.01468797263 	-1.066449173e-05 	2.799935815e-05
0.4221393679 	0.01001789292 	0.0006698580395 	-1.537683407e-06 	0.01562002854 	-8.989979882e-06 	2.977611577e-05
0.4279254142 	0.009886668142 	0.001265415611 	-1.179912445e-06 	0.01645995676 	-6.070776706e-06 	3.137725239e-05
0.4339746204 	0.009791355206 	0.001804425259 	-5.107825572e-07 	0.01693074814 	-2.886372881e-06 	3.227471161e-05
0.4404039377 	0.009759281245 	0.00222604992 	-4.158869808e-08 	0.017030129 	-1.393850067e-06 	3.246415915e-05
0.4471615558 	0.009758509847 	0.00253739422 	1.246142026e-07 	0.01702419699 	-6.92463356e-07 	3.245285109e-05
0.4543359909 	0.00977119425 	0.00275021111 	2.147552857e-08 	0.01702745471 	-5.713536389e-08 	3.245906122e-05
0.4550321254 	0.009772876898 	0.002763064486 	3.557001564e-07 	0.01703013374 	-9.649005224e-07 	3.246416818e-05
0.4618485048 	0.009789763318 	0.002890075773 	2.440200031e-07 	0.01705553127 	-5.50725233e-07 	3.251258294e-05
0.4698471542 	0.009814925352 	0.002995176488 	6.016041353e-07 	0.01710897105 	-1.129222453e-06 	3.261445401e-05
0.4782668542 	0.009849912991 	0.00309048381 	9.691349598e-07 	0.01718408098 	-1.662481666e-06 	3.275763441e-05
0.4871643598 	0.00989625643 	0.003186400725 	1.323577903e-06 	0.01728037567 	-2.163610962e-06 	3.294119886e-05
0.4966022553 	0.009954556828 	0.003287162235 	1.664143264e-06 	0.01739800122 	-2.641807681e-06 	3.316542584e-05
0.506564246 	0.01002530066 	0.003394532723 	1.991114672e-06 	0.01753622458 	-3.096876918e-06 	3.342891799e-05
0.5170884066 	0.01010846379 	0.003508637973 	2.30540578e-06 	0.01769486833 	-3.52882566e-06 	3.373133707e-05
0.5282106724 	0.01020398147 	0.003629695734 	2.604496932e-06 	0.01787374037 	-3.93631534e-06 	3.407231689e-05
0.5399648858 	0.0103119681 	0.003758241919 	2.884224881e-06 	0.01807225296 	-4.318189839e-06 	3.445073706e-05
0.5523830089 	0.01043259301 	0.003894881442 	3.08513003e-06 	0.01828957502 	-4.592282298e-06 	3.48650133e-05
0.5654954852 	0.01056607642 	0.004040303016 	2.775395294e-06 	0.01852448521 	-4.124456697e-06 	3.531281742e-05
0.5793317227 	0.01071267287 	0.004195240638 	2.482448296e-06 	0.0187752333 	-3.700593489e-06 	3.579081297e-05
0.5939206673 	0.01087264677 	0.004360410759 	2.209046728e-06 	0.01903941949 	-3.320961244e-06 	3.629442529e-05
0.609291429 	0.01104630228 	0.004536535227 	1.957806431e-06 	0.0193137982 	-2.985847452e-06 	3.681746736e-05
0.6254744477 	0.01123398271 	0.004724205978 	1.730810154e-06 	0.01959441622 	-2.695356633e-06 	3.735240331e-05
0.642518986 	0.01143590809 	0.0049235578 	1.529534084e-06 	0.01987671561 	-2.44877334e-06 	3.789054439e-05
0.6604368776 	0.01165230577 	0.005134677456 	1.354732218e-06 	0.02015448054 	-2.246788273e-06 	3.842004156e-05
0.6792761744 	0.01187863934 	0.005353139534 	1.207534348e-06 	0.02041439182 	-2.085823847e-06 	3.89155047e-05
0.6973887914 	0.01210312339 	0.005566978699 	1.091645588e-06 	0.02064017911 	-1.977072768e-06 	3.934591803e-05
0.714712801 	0.012319853 	0.005769933387 	1.000908483e-06 	0.0208266105 	-1.906128807e-06 	3.970130807e-05
0.7312718748 	0.0125287423 	0.005961906324 	9.278480253e-07 	0.02097402418 	-1.862490328e-06 	3.998231952e-05
0.7470980302 	0.01272991319 	0.006142931632 	8.667795575e-07 	0.02108380297 	-1.837664884e-06 	4.01915884e-05
0.7622231369 	0.0129233414 	0.006312818325 	8.135995204e-07 	0.0211581424 	-1.825036079e-06 	4.033330002e-05
0.7766755965 	0.01310906749 	0.006471528254 	7.652063966e-07 	0.02119929447 	-1.819363711e-06 	4.041174729e-05
0.7904851631 	0.01328713721 	0.006619090341 	7.194846223e-07 	0.02120957879 	-1.816777952e-06 	4.043135207e-05
0.803680353 	0.01345761539 	0.006755623348 	6.750484764e-07 	0.02119120189 	-1.814721974e-06 	4.039632059e-05
0.8162884795 	0.01362056254 	0.006881293019 	6.310134736e-07 	0.02114621497 	-1.811874212e-06 	4.031056301e-05
0.8283356835 	0.01377600593 	0.006996280159 	5.865889382e-07 	0.02107648067 	-1.807777201e-06 	4.017763006e-05
0.839846964 	0.01392374845 	0.007100666129 	5.400799603e-07 	0.02098381184 	-1.801007949e-06 	4.000097752e-05
0.8508462121 	0.014062803 	0.007194140932 	4.870056345e-07 	0.02087057834 	-1.784436304e-06 	3.978512298e-05
0.8613562475 	0.01419055545 	0.007275679515 	4.197878725e-07 	0.02074063184 	-1.742495994e-06 	3.953740884e-05
0.8713988588 	0.01430325045 	0.007344072545 	3.372595055e-07 	0.02059842032 	-1.672857222e-06 	3.926631416e-05
0.8809948459 	0.01440088021 	0.007400250285 	2.591003049e-07 	0.02044365217 	-1.620665114e-06 	3.897128305e-05
0.8901640682 	0.01449775002 	0.007434852124 	-3.237512421e-08 	0.02026272147 	-1.737446858e-06 	3.862637885e-05
0.8989254986 	0.01461365942 	0.007426879579 	-3.898625973e-07 	0.02003807283 	-1.935322646e-06 	3.819813611e-05
0.9072972099 	0.01474061249 	0.00739745635 	-4.94856309e-07 	0.01978052393 	-2.004960734e-06 	3.770717633e-05
0.9152964949 	0.01486134819 	0.007370815826 	-5.548501094e-07 	0.01950966978 	-2.000299985e-06 	3.719085303e-05
0.9229398795 	0.01497338702 	0.0073397767 	-6.278122145e-07 	0.01922991479 	-1.972709906e-06 	3.665756227e-05
0.9302431369 	0.01507684437 	0.007304974761 	-6.671966324e-07 	0.01894334502 	-1.929856646e-06 	3.611128064e-05
0.9372213443 	0.01517328673 	0.007269192279 	-6.642339539e-07 	0.01865144357 	-1.86268192e-06 	3.555483534e-05
0.9438889161 	0.01526537061 	0.007236800329 	-6.088471809e-07 	0.01835720123 	-1.752840572e-06 	3.499392767e-05
0.9502596205 	0.01535742741 	0.007218138379 	-4.86046581e-07 	0.01806573544 	-1.577764835e-06 	3.443831287e-05
0.9563466241 	0.01544956628 	0.007194206038 	-3.1371481e-07 	0.01780394063 	-1.328722763e-06 	3.393925919e-05
0.9603035045 	0.01553559141 	0.007183251059 	-1.161483352e-07 	0.01760388375 	-1.040154684e-06 	3.355789518e-05
0.9639622487 	0.01562370775 	0.007207334575 	1.199790524e-07 	0.01745277186 	-7.041644901e-07 	3.326983392e-05
0.9673452855 	0.01572772866 	0.007247050133 	3.978177517e-07 	0.01733261237 	-2.852581252e-07 	3.304077653e-05
0.9704733619 	0.01585234648 	0.007306561374 	7.167388671e-07 	0.01724829372 	2.269042912e-07 	3.288004174e-05
0.9733656679 	0.01600240774 	0.007387329391 	1.072984581e-06 	0.01720483716 	8.4159291e-07 	3.279720146e-05
0.9760399527 	0.01618256511 	0.007490084817 	1.460249833e-06 	0.01720715624 	1.565562731e-06 	3.280162228e-05
0.9785126319 	0.01639686048 	0.007614512653 	1.869320501e-06 	0.01725946106 	2.401844902e-06 	3.290132981e-05
0.980798888 	0.01664805218 	0.007758828459 	2.287826606e-06 	0.01736449492 	3.34620673e-06 	3.310155353e-05
0.9829127625 	0.01693680767 	0.007925454048 	2.834478416e-06 	0.01752233245 	4.390135186e-06 	3.340243574e-05
0.9848672412 	0.01725988392 	0.00810554909 	3.1028844e-06 	0.01772735594 	5.481875743e-06 	3.379326749e-05
0.9866743334 	0.01760348317 	0.008266116742 	3.254574034e-06 	0.01796357954 	6.587767925e-06 	3.424357533e-05
0.9883451448 	0.01793256797 	0.00839883616 	3.684611266e-06 	0.01819838566 	7.632851239e-06 	3.469118104e-05
0.9898899457 	0.01817675886 	0.008494927446 	4.031452078e-06 	0.01836437312 	8.452197894e-06 	3.500759928e-05
0.9913182334 	0.01820817745 	0.008495506221 	4.212337959e-06 	0.01833295953 	8.903791373e-06 	3.494771624e-05
0.9926387904 	0.0178600593 	0.008324515161 	4.183378441e-06 	0.01793912932 	8.882281117e-06 	3.419696642e-05
0.9934398881 	0.01716223534 	0.00799888357 	3.990817088e-06 	0.01721169611 	8.482027622e-06 	3.281027652e-05
0.9942410091 	0.01602199171 	0.007469821199 	3.639679703e-06 	0.01605007156 	7.759763906e-06 	3.059589727e-05
0.9950421532 	0.0140118348 	0.006526776883 	3.053911086e-06 	0.01402303831 	6.540302141e-06 	2.673180852e-05
0.9958433205 	0.01064050707 	0.004897603616 	2.118542109e-06 	0.01064060054 	4.686833536e-06 	2.028394204e-05
0.996644511 	0.005826831633 	0.00245851374 	9.621722347e-07 	0.005823083981 	2.445889828e-06 	1.110041651e-05
0.9974457247 	0.001728950755 	0.0005473473408 	2.059199985e-07 	0.001726815432 	7.508888881e-07 	3.291790158e-06
0.9982469615 	0.0001782003108 	2.395995436e-05 	1.217578172e-08 	0.0001779010162 	1.00259964e-07 	3.391287818e-07
0.9990482216 	3.312624051e-06 	6.147011743e-08 	5.707106652e-11 	3.306312684e-06 	2.898195175e-09 	6.302750917e-09
