1.4101108e-19 	0.004759003 	-3.2321081e-16 	-2.2829656e-22 	2.7517718e-18 	5.5467346e-20 	7.0312925e-20
0.010869565 	0.0036866793 	-6.1881202e-05 	1.9129725e-09 	0.0039667026 	-3.6306739e-06 	0.002881897
0.02173913 	0.0037470069 	-0.00012264661 	4.4369726e-09 	0.0039831668 	-4.4703337e-06 	0.0026981507
0.032608696 	0.003862921 	-0.00018260352 	2.6419955e-08 	0.0041148468 	-2.0069678e-07 	0.0021555569
0.043478261 	0.0040287812 	-0.00023976179 	2.7398823e-08 	0.0042793059 	-5.2591385e-06 	0.0023780265
0.054347826 	0.0042288048 	-0.00029536551 	1.5604743e-07 	0.0044767765 	-9.6315617e-07 	0.0007224629
0.065217391 	0.0044567929 	-0.00035015067 	1.3463608e-07 	0.0047050403 	-7.978229e-07 	0.00092161682
0.076086957 	0.0046644767 	-0.00039541544 	1.1777498e-07 	0.0049112878 	-6.7538612e-07 	0.0009570298
0.086956522 	0.0048823265 	-0.00043981053 	1.1718767e-07 	0.0051276073 	-4.1776499e-06 	0.0017242226
0.097826087 	0.0050945336 	-0.00048068516 	2.4503464e-07 	0.0053351194 	-6.1324633e-06 	0.0015564097
0.10869565 	0.0052993065 	-0.00051863967 	7.7641049e-08 	0.0055327864 	-4.2659708e-07 	0.00079827427
0.11956522 	0.0054846708 	-0.00055159317 	2.1754046e-07 	0.0057112216 	-4.1237128e-06 	0.0011065201
0.13043478 	0.0056544095 	-0.00058076942 	4.6412057e-07 	0.0058718644 	-7.0269644e-06 	0.00089475915
0.14130435 	0.0058128211 	-0.00060732702 	1.722862e-09 	0.0060200587 	-9.1849393e-09 	0.00062695412
0.15217391 	0.0059425489 	-0.00062766408 	8.5848354e-07 	0.0061381188 	-1.0854406e-05 	0.00041162722
0.16304348 	0.0060652712 	-0.00064649909 	1.5372436e-07 	0.006248726 	-1.6772862e-06 	0.00016867679
0.17391304 	0.0061598508 	-0.0006593438 	9.2442301e-07 	0.0063303476 	-1.0086378e-05 	9.8635099e-05
0.18478261 	0.0062477205 	-0.00067078276 	2.6300167e-07 	0.0064056818 	-2.5384326e-06 	0.00035059126
0.19565217 	0.0063100286 	-0.00067666493 	1.0032223e-06 	0.0064548041 	-9.6828747e-06 	0.00058594187
0.20652174 	0.0063670266 	-0.00068135347 	6.2249054e-08 	0.0064984225 	-5.4126553e-07 	0.00082671801
0.2173913 	0.0063980569 	-0.00068016055 	1.28541e-06 	0.0065159275 	-1.1176847e-05 	0.0010449158
0.22826087 	0.0064269972 	-0.0006782718 	1.5368692e-07 	0.0065291389 	-7.9503783e-07 	0.00019810295
0.23913043 	0.0064323845 	-0.00067113195 	1.2638965e-06 	0.0065231574 	-1.003906e-05 	0.0014634436
0.25 	0.0064351096 	-0.00066314777 	1.7617493e-07 	0.0065125651 	-1.3993477e-06 	0.0016618671
0.26086957 	0.0064222288 	-0.00065113723 	4.6773872e-07 	0.0064864252 	-3.4302986e-06 	0.00183223
0.27173913 	0.0064008041 	-0.00063688114 	9.456512e-07 	0.0064523778 	-6.9352095e-06 	0.0020090302
0.2826087 	0.0063735846 	-0.00062061338 	2.4007626e-07 	0.0064088748 	-1.2831219e-06 	0.00031474764
0.29347826 	0.0063355724 	-0.00060199123 	1.1119217e-06 	0.0063625963 	-7.5935213e-06 	0.0022996542
0.30434783 	0.0062950349 	-0.00058221167 	2.7791788e-07 	0.0063105166 	-1.8979531e-06 	0.0024537683
0.31521739 	0.0062455698 	-0.00055941127 	1.3157193e-07 	0.0062475481 	-7.269204e-07 	0.0014547478
0.32608696 	0.0061925294 	-0.00053568592 	1.3880739e-06 	0.0061861859 	-8.885156e-06 	0.0026640637
0.33695652 	0.0061380032 	-0.00051111554 	2.1333985e-08 	0.0061210749 	-1.2338264e-07 	0.0025970394
0.34782609 	0.0060758745 	-0.00048363132 	1.3591283e-07 	0.0060470373 	-7.8603635e-07 	0.0015999991
0.35869565 	0.0060144668 	-0.00045637242 	1.2482744e-06 	0.0059789719 	-7.526227e-06 	0.00292955
0.36956522 	0.0059522051 	-0.00042827658 	1.4823793e-08 	0.0059076569 	-9.0989777e-08 	0.0028829508
0.38043478 	0.0058842849 	-0.00039734412 	2.0410951e-07 	0.0058275696 	-1.252843e-06 	0.00095996448
0.39130435 	0.0058195504 	-0.00036791466 	6.9253011e-07 	0.0057590409 	-3.9431219e-06 	0.003106737
0.40217391 	0.0057551781 	-0.00033744834 	3.2135132e-07 	0.0056873548 	-1.8297073e-06 	0.0031950889
0.41304348 	0.0056870944 	-0.00030432235 	2.4167995e-07 	0.0056066602 	-1.6019514e-06 	0.0003262785
0.42391304 	0.0056221253 	-0.00027333097 	3.4635855e-08 	0.0055396982 	-2.2958027e-07 	0.0028061134
0.43478261 	0.0055599728 	-0.00024151706 	1.053647e-06 	0.005472338 	-5.6658776e-06 	0.0032809796
0.44565217 	0.0054974616 	-0.00020857885 	7.6331581e-08 	0.0054019344 	-5.612978e-07 	0.0022124226
0.45652174 	0.0054348581 	-0.00017478019 	1.7013253e-07 	0.005331252 	-1.2510551e-06 	0.00084006007
0.4673913 	0.0053756842 	-0.00014299774 	1.5035663e-07 	0.0052715989 	-7.6872756e-07 	0.0033157972
0.47826087 	0.0053214485 	-0.00011088479 	5.3988065e-07 	0.0052129493 	-2.7602451e-06 	0.0033689484
0.48913043 	0.0052678903 	-7.7739345e-05 	9.3788243e-08 	0.0051518888 	-8.0350195e-07 	0.0015955484
0.5 	0.0052149232 	-4.4372768e-05 	1.163512e-07 	0.005094161 	-9.9680318e-07 	0.0011542908
0.51086957 	0.0051634665 	-1.1623996e-05 	2.2662326e-07 	0.0050431088 	-1.0896404e-06 	0.0033653451
0.52173913 	0.0051186204 	2.0364643e-05 	2.286562e-07 	0.0049952608 	-1.099415e-06 	0.0034050049
0.5326087 	0.0050770658 	5.250079e-05 	8.0244617e-08 	0.0049470198 	-8.7779549e-07 	0.001172903
0.54347826 	0.0050348985 	8.5411049e-05 	6.6189915e-08 	0.0049031578 	-7.2405117e-07 	0.0015518311
0.55434783 	0.0049945751 	0.00011834538 	4.2811223e-07 	0.0048641366 	-1.9039447e-06 	0.0033924337
0.56521739 	0.0049610094 	0.00015003647 	1.005216e-08 	0.0048282326 	-1.7061017e-07 	0.002916476
0.57608696 	0.0049316773 	0.00018117313 	6.5945004e-08 	0.0047928848 	-1.1192511e-06 	0.00013574226
0.58695652 	0.0049005863 	0.00021377752 	1.3628043e-08 	0.0047659034 	-2.3130181e-07 	0.0027238909
0.59782609 	0.0048758094 	0.00024500857 	2.7652012e-07 	0.0047423017 	-1.140674e-06 	0.0034150204
0.60869565 	0.004857134 	0.0002750568 	1.2176984e-08 	0.0047202307 	-6.5557217e-07 	0.0012279406
0.61956522 	0.0048390314 	0.00030586269 	9.2487267e-09 	0.0047041335 	-4.9792361e-07 	0.0017543088
0.63043478 	0.0048238525 	0.00033646572 	4.5822078e-07 	0.0046934857 	-1.7365055e-06 	0.003426077
0.64130435 	0.0048159836 	0.00036525997 	-1.251494e-08 	0.004684687 	-4.4887535e-07 	0.0017570228
0.65217391 	0.004810299 	0.00039429912 	-1.5322728e-08 	0.0046810068 	-5.4958276e-07 	0.0013877671
0.66304348 	0.0048066281 	0.00042361635 	3.3466009e-07 	0.0046842447 	-1.1554137e-06 	0.0034551387
0.67391304 	0.0048101513 	0.00045077082 	-3.3150736e-08 	0.0046880778 	-4.4143382e-07 	0.0016816497
0.68478261 	0.0048160082 	0.00047824176 	-3.3256303e-08 	0.0046980993 	-4.4283954e-07 	0.0016928214
0.69565217 	0.0048243729 	0.00050563501 	2.0692212e-07 	0.004714296 	-6.503741e-07 	0.0035001005
0.70652174 	0.0048389165 	0.00053069329 	-7.1833833e-08 	0.004728798 	-6.1905782e-07 	0.00091802968
0.7173913 	0.0048550167 	0.00055684343 	-2.1227104e-08 	0.0047537281 	-1.8293334e-07 	0.0027770355
0.72826087 	0.0048744569 	0.00058150453 	-1.4935943e-08 	0.0047792349 	-1.0278221e-07 	0.0031285528
0.73913043 	0.0048979589 	0.00060454733 	-9.9333937e-08 	0.004803893 	-6.8357007e-07 	0.00072332162
0.75 	0.0049226357 	0.00062863676 	1.7096141e-07 	0.0048401332 	-4.8738168e-07 	0.003615369
0.76086957 	0.0049498224 	0.00064988199 	-1.0872111e-07 	0.0048681143 	-6.7307606e-07 	0.00090603482
0.77173913 	0.0049786414 	0.00067215514 	-8.6868873e-09 	0.0049082128 	-5.3779189e-08 	0.0034571083
0.7826087 	0.0050072838 	0.00069200472 	-7.1613851e-08 	0.004940287 	-4.29356e-07 	0.0020334278
0.79347826 	0.0050368556 	0.00071168451 	-4.7549207e-08 	0.0049774268 	-2.8507804e-07 	0.002626309
0.80434783 	0.0050645857 	0.00073015368 	-5.0322472e-08 	0.0050114145 	-3.0554249e-07 	0.0026286112
0.81521739 	0.0050911667 	0.00074754793 	-6.2363231e-08 	0.0050438515 	-3.7865027e-07 	0.0023931883
0.82608696 	0.0051142521 	0.00076400185 	-5.5522341e-08 	0.0050734313 	-3.5033899e-07 	0.0025778636
0.83695652 	0.0051340377 	0.00077934499 	-4.3143821e-08 	0.0050999258 	-2.7223208e-07 	0.0028727238
0.84782609 	0.005147601 	0.000793259 	-9.3606169e-08 	0.0051171054 	-6.223706e-07 	0.0017605965
0.85869565 	0.0051565201 	0.00080683842 	5.2953844e-09 	0.0051357772 	-1.4130865e-07 	0.0038382208
0.86956522 	0.0051557607 	0.00081769524 	-1.6631589e-07 	0.0051329375 	-1.1719619e-06 	5.9246691e-05
0.88043478 	0.0051482936 	0.00082911277 	7.1797706e-11 	0.0051378961 	-1.8384918e-08 	0.0038381545
0.89130435 	0.0051293723 	0.0008384476 	-4.240312e-08 	0.0051214422 	-3.1723835e-07 	0.0028085224
0.90217391 	0.0051001837 	0.00084575712 	-1.2745081e-07 	0.0050917257 	-1.0108477e-06 	0.00052871105
0.91304348 	0.0050598049 	0.00085303499 	-1.4313685e-08 	0.0050602279 	-1.202077e-07 	0.003373726
0.92391304 	0.0050068814 	0.00086038473 	-1.4832727e-08 	0.0050105021 	-2.9938197e-07 	0.0037325308
0.93478261 	0.0049418411 	0.00086202075 	-2.3951466e-08 	0.0049450211 	-2.111996e-07 	0.0029122822
0.94565217 	0.004861606 	0.00086589808 	-2.1481787e-08 	0.0048663005 	-4.5568684e-07 	0.0036288201
0.95652174 	0.0047750199 	0.00086711558 	-6.3927863e-08 	0.0047723718 	-6.1422238e-07 	0.00039893997
0.9673913 	0.0046768298 	0.00086782367 	-1.2625215e-08 	0.0046762445 	-1.2179766e-07 	0.0025760299
0.97826087 	0.0045616988 	0.00086321417 	-2.5893849e-08 	0.0045548302 	-2.3061462e-07 	0.00041036726
0.98913043 	0.0042084466 	0.00081242298 	-9.5372851e-09 	0.0041991808 	-6.2394796e-08 	0.00054869099
