0.4742268 	0.0061607319 	-0.001222326 	7.4510837e-09 	0.006156464 	-3.7401806e-08 	0.0015009764
0.48453608 	0.0089819106 	-0.0017321037 	1.9603297e-09 	0.0089655958 	-1.0005097e-08 	0.0030613576
0.49484536 	0.0084504527 	-0.0016373702 	5.8348199e-07 	0.0084312958 	-3.1604755e-06 	0.0034926584
0.50515464 	0.0078604761 	-0.0015241406 	1.3112541e-10 	0.0078376198 	-2.785424e-09 	0.0030012241
0.51546392 	0.007362807 	-0.0014179007 	2.4589067e-07 	0.0073393049 	-1.0718873e-06 	0.0030060031
0.5257732 	0.0069277405 	-0.0013106238 	1.2204372e-06 	0.0069047823 	-4.9552779e-06 	0.0028641389
0.53608247 	0.0065679003 	-0.0012062646 	4.3639619e-07 	0.0065473266 	-1.5808664e-06 	0.0027347353
0.54639175 	0.0062772212 	-0.0011067339 	2.8194486e-08 	0.0062599439 	-9.1530062e-08 	0.002620048
0.55670103 	0.0060450532 	-0.0010107224 	-1.1876384e-10 	0.0060320284 	-4.0156303e-09 	0.0024837567
0.56701031 	0.0058601753 	-0.00091862765 	2.7700521e-07 	0.005851828 	-7.0761115e-07 	0.002435393
0.57731959 	0.005712364 	-0.0008297752 	8.7377142e-07 	0.0057088121 	-1.9858988e-06 	0.0023640442
0.58762887 	0.0055932114 	-0.00074389422 	1.3336713e-06 	0.0055942603 	-2.7156764e-06 	0.0023050244
0.59793814 	0.0054961908 	-0.00066055156 	2.3180632e-07 	0.0055015745 	-4.2625983e-07 	0.0022569115
0.60824742 	0.0054190718 	-0.0005787576 	-7.121131e-09 	0.0054242697 	-4.7246646e-07 	7.1255646e-05
0.6185567 	0.0053577586 	-0.00050119431 	4.4147561e-07 	0.0053704665 	-7.3990193e-07 	0.0022183137
0.62886598 	0.0053083584 	-0.00042461972 	1.0043425e-06 	0.0053239162 	-1.5471156e-06 	0.0021883708
0.63917526 	0.0052686643 	-0.00034888846 	-4.9719751e-09 	0.0052834003 	-4.309774e-07 	0.00047942085
0.64948454 	0.0052387093 	-0.00027651791 	7.2956424e-07 	0.0052585441 	-1.0395323e-06 	0.0021660824
0.65979381 	0.005215466 	-0.00020469575 	2.8126803e-07 	0.005236738 	-3.7150022e-07 	0.0021510991
0.67010309 	0.0051994271 	-0.00013407437 	-9.5275232e-10 	0.005220989 	-1.0397599e-07 	0.0017663308
0.68041237 	0.0051900097 	-6.5183645e-05 	9.7892091e-07 	0.0052128857 	-1.1932372e-06 	0.0021432952
0.69072165 	0.0051855803 	3.5368365e-06 	-2.8120241e-09 	0.0052063677 	-3.3776496e-07 	0.00089169992
0.70103093 	0.0051871409 	6.9881151e-05 	1.2349169e-06 	0.0052102745 	-1.3679629e-06 	0.0021432156
0.71134021 	0.0051934101 	0.00013665574 	-2.6190657e-09 	0.0052137402 	-3.4718675e-07 	0.00082008247
0.72164948 	0.0052053665 	0.00020072453 	1.0733445e-06 	0.0052277088 	-1.0684573e-06 	0.0021520718
0.73195876 	0.0052215644 	0.00026428684 	-1.2016227e-09 	0.0052418698 	-1.7377748e-07 	0.0014495681
0.74226804 	0.0052446558 	0.00032757222 	6.6103511e-07 	0.0052654268 	-5.4811048e-07 	0.0021713712
0.75257732 	0.0052713858 	0.0003895165 	-3.3085373e-11 	0.0052910868 	-5.2235264e-09 	0.0021482839
0.7628866 	0.0053069536 	0.00045172121 	3.7026703e-07 	0.0053255301 	-2.2237802e-07 	0.0022008344
0.77319588 	0.0053469785 	0.00051342133 	5.172627e-08 	0.005364218 	-3.106615e-08 	0.0022009082
0.78350515 	0.0053962649 	0.00057449619 	4.2420429e-07 	0.0054120876 	-1.5077447e-07 	0.002239156
0.79381443 	0.0054509517 	0.00063492683 	-4.1724734e-10 	0.0054642226 	-8.67135e-08 	0.0017373905
0.80412371 	0.0055163179 	0.00069523878 	7.6873191e-07 	0.0055288837 	-5.463893e-08 	0.0022858407
0.81443299 	0.0055880397 	0.0007541813 	-1.0856507e-09 	0.005594882 	-2.9503567e-07 	0.00025302033
0.82474227 	0.0056717798 	0.00081434384 	7.0001483e-07 	0.0056805744 	1.7704218e-07 	0.0023404262
0.83505155 	0.0057646123 	0.00087341779 	4.6485801e-08 	0.0057713886 	2.8638291e-08 	0.0024022601
0.84536082 	0.0058688366 	0.00093180328 	2.6600327e-11 	0.0058714135 	-9.3320459e-08 	0.0014010424
0.8556701 	0.0059877087 	0.00099073952 	6.1945922e-07 	0.0059898716 	6.3014278e-07 	0.0024712271
0.86597938 	0.0061190711 	0.0010491539 	2.5700593e-07 	0.0061188291 	3.736023e-07 	0.0025464118
0.87628866 	0.0062647075 	0.0011068423 	8.4984783e-10 	0.0062585306 	-8.8184079e-08 	0.00081564231
0.88659794 	0.0064280605 	0.0011654051 	6.4821627e-10 	0.0064207463 	-3.3260647e-08 	0.0016238352
0.89690722 	0.0066102582 	0.0012240733 	1.395667e-07 	0.0066023974 	3.3673338e-07 	0.002714135
0.90721649 	0.0068119926 	0.0012824727 	3.1413043e-07 	0.0068018365 	9.1802966e-07 	0.0028050214
0.91752577 	0.0070341891 	0.0013409325 	3.4968837e-07 	0.0070220878 	1.1977328e-06 	0.0028994994
0.92783505 	0.00727788 	0.0013995239 	2.555949e-07 	0.0072641707 	1.0083351e-06 	0.0029965825
0.93814433 	0.0075428147 	0.0014579831 	4.8804948e-08 	0.0075281815 	2.1313138e-07 	0.0030948686
0.94845361 	0.0078267552 	0.001515095 	1.2200116e-10 	0.0078064792 	1.4706459e-08 	0.0004823549
0.95876289 	0.0081272954 	0.0015757511 	9.58652e-08 	0.0081129622 	5.4842198e-07 	0.0033823921
0.96907216 	0.0084269825 	0.001625732 	-1.3748063e-09 	0.0084087079 	7.7230355e-10 	0.0010831907
0.97938144 	0.0086992089 	0.0016737971 	2.0032851e-08 	0.0086869539 	1.3149543e-07 	0.0035937052
0.98969072 	0.0086893392 	0.0016729703 	-1.1379419e-07 	0.0086774258 	-5.6946863e-07 	0.0036112158
