1.4213861e-19 	1.0069307 	-6.8385607e-14 	-2.4856358e-20
0.010869565 	1.0071058 	-0.00013615906 	-3.0701796e-07
0.02173913 	1.0075035 	-0.00047184761 	2.4181853e-07
0.032608696 	1.008157 	-0.00068305124 	-5.5700255e-09
0.043478261 	1.009045 	-0.00090939959 	7.4639323e-08
0.054347826 	1.01015 	-0.0011234407 	2.4849385e-07
0.065217391 	1.01154 	-0.0013447271 	4.2996019e-07
0.076086957 	1.0129104 	-0.0015279813 	1.4265088e-07
0.086956522 	1.0145131 	-0.0017144606 	4.0483661e-07
0.097826087 	1.0162192 	-0.0018918732 	5.7879927e-07
0.10869565 	1.0180299 	-0.0020619539 	3.8597596e-07
0.11956522 	1.0199274 	-0.0022164883 	7.265028e-07
0.13043478 	1.021868 	-0.0023619387 	1.0732932e-06
0.14130435 	1.0238677 	-0.0024991342 	1.4737403e-07
0.15217391 	1.0258929 	-0.0026197665 	2.537402e-06
0.16304348 	1.0279328 	-0.0027363361 	5.769899e-08
0.17391304 	1.029989 	-0.0028338084 	2.8293156e-06
0.18478261 	1.03204 	-0.0029283777 	5.7961059e-07
0.19565217 	1.0340638 	-0.0030050718 	3.3185912e-06
0.20652174 	1.0360936 	-0.0030799524 	5.9847281e-08
0.2173913 	1.0380515 	-0.0031348131 	4.3142792e-06
0.22826087 	1.0400123 	-0.0031894569 	7.6461654e-08
0.23913043 	1.0418952 	-0.003225284 	3.7015636e-06
0.25 	1.0437448 	-0.003258201 	1.2995914e-06
0.26086957 	1.0455511 	-0.0032799259 	1.4876182e-06
0.27173913 	1.0472477 	-0.0032913386 	3.7901094e-06
0.2826087 	1.0489591 	-0.0032992751 	7.3265628e-07
0.29347826 	1.0504946 	-0.0032936532 	3.6819451e-06
0.30434783 	1.0519923 	-0.0032846366 	1.9858247e-06
0.31521739 	1.0534642 	-0.0032678951 	3.9448602e-07
0.32608696 	1.0547431 	-0.0032419598 	4.8530128e-06
0.33695652 	1.0559984 	-0.0032142705 	1.0491605e-06
0.34782609 	1.0571943 	-0.003177169 	4.0089178e-07
0.35869565 	1.0582011 	-0.0031351066 	4.7303393e-06
0.36956522 	1.0591745 	-0.0030911634 	1.2393957e-06
0.38043478 	1.0600788 	-0.0030380666 	6.9504503e-07
0.39130435 	1.0608186 	-0.0029841893 	3.1551819e-06
0.40217391 	1.0614794 	-0.002926965 	2.7052457e-06
0.41304348 	1.0620849 	-0.0028631069 	7.0610483e-07
0.42391304 	1.0625936 	-0.0027999722 	1.328444e-07
0.43478261 	1.0629221 	-0.0027328026 	5.4470673e-06
0.44565217 	1.0632433 	-0.0026650357 	5.495011e-08
0.45652174 	1.0634341 	-0.0025889676 	6.1877312e-07
0.4673913 	1.0635542 	-0.0025184757 	1.6703876e-06
0.47826087 	1.0635452 	-0.0024460533 	3.7467527e-06
0.48913043 	1.0634881 	-0.0023712163 	2.2482415e-07
0.5 	1.0633251 	-0.0022925391 	4.2665674e-07
0.51086957 	1.0631004 	-0.0022166841 	1.994007e-06
0.52173913 	1.062773 	-0.0021415212 	2.5497481e-06
0.5326087 	1.0623737 	-0.0020646719 	2.5752123e-07
0.54347826 	1.0618909 	-0.0019856219 	2.4646237e-07
0.55434783 	1.0613271 	-0.0019078296 	2.6783265e-06
0.56521739 	1.060702 	-0.0018316212 	6.4809483e-07
0.57608696 	1.0599758 	-0.0017548013 	3.1162371e-07
0.58695652 	1.0592 	-0.0016766916 	1.5422942e-08
0.59782609 	1.0583151 	-0.0016022175 	2.4056568e-06
0.60869565 	1.0573789 	-0.001528019 	9.8640777e-08
0.61956522 	1.0563601 	-0.0014531701 	8.2315677e-08
0.63043478 	1.0552543 	-0.0013802753 	2.6910644e-06
0.64130435 	1.0540867 	-0.0013091527 	2.1369616e-08
0.65217391 	1.0528234 	-0.0012380948 	3.9122588e-08
0.66304348 	1.0514687 	-0.0011683806 	2.0710909e-06
0.67391304 	1.0500434 	-0.0011010515 	-1.28674e-08
0.68478261 	1.048513 	-0.0010340488 	-1.7042248e-08
0.69565217 	1.0468769 	-0.00096898506 	1.7241309e-06
0.70652174 	1.0451599 	-0.00090632981 	-7.941688e-08
0.7173913 	1.0433234 	-0.00084360654 	-8.217265e-09
0.72826087 	1.0413681 	-0.0007844521 	3.6261189e-07
0.73913043 	1.0393013 	-0.00072719956 	-1.585894e-07
0.75 	1.0370794 	-0.00067089079 	1.2397234e-06
0.76086957 	1.0347556 	-0.00061793651 	-1.6001975e-07
0.77173913 	1.0322593 	-0.00056588498 	2.3048614e-07
0.7826087 	1.0296189 	-0.00051741265 	-7.3952218e-08
0.79347826 	1.0267998 	-0.00047065516 	-4.5591226e-08
0.80434783 	1.0238034 	-0.00042684386 	-2.1383919e-08
0.81521739 	1.0205982 	-0.00038585339 	-7.5979798e-08
0.82608696 	1.017182 	-0.00034730073 	-3.1676703e-08
0.83695652 	1.0135176 	-0.00031159876 	-2.9416057e-08
0.84782609 	1.0095898 	-0.00027922141 	-1.1989203e-07
0.85869565 	1.005343 	-0.00024981085 	2.3163211e-07
0.86956522 	1.0007994 	-0.00022305199 	-2.8689715e-07
0.88043478 	0.99578538 	-0.00019902032 	1.5889295e-07
0.89130435 	0.99034961 	-0.00017931919 	-3.0064081e-08
0.90217391 	0.98431272 	-0.00016064315 	-2.0310363e-07
0.91304348 	0.97752382 	-0.00014409587 	4.7625655e-08
0.92391304 	0.96989473 	-0.00013195896 	9.1005593e-08
0.93478261 	0.96105627 	-0.00011991727 	-6.6734719e-09
0.94565217 	0.94957917 	-0.00010592545 	9.6988808e-08
0.95652174 	0.93538572 	-9.1965325e-05 	-8.7246096e-08
0.9673913 	0.9152179 	-7.3505984e-05 	-2.7748726e-09
0.97826087 	0.88194067 	-5.0576105e-05 	-3.1759279e-08
0.98913043 	0.79957745 	-1.5360036e-05 	-1.1870092e-08
