0.47916667 	0.0089526412 	-0.0017217274 	-1.483317e-08 	0.0089412367 	1.444327e-07 	0.0045060338
0.48958333 	0.0087179137 	-0.0016849264 	7.1598598e-09 	0.0086967973 	-3.6301241e-08 	0.0007816351
0.5 	0.008141901 	-0.0015810703 	7.2889975e-08 	0.0081242659 	-3.8172258e-07 	0.004133653
0.51041667 	0.0075821175 	-0.0014740166 	6.335446e-07 	0.0075629151 	-3.1293139e-06 	0.0038410444
0.52083333 	0.0070874372 	-0.001361755 	-2.9781562e-09 	0.007062442 	-4.9424594e-08 	0.00086221939
0.53125 	0.0066645533 	-0.001257394 	-1.983628e-09 	0.0066436993 	-3.4012617e-08 	0.0022055139
0.54166667 	0.0063117565 	-0.001156004 	2.3530693e-07 	0.0062952313 	-8.2507618e-07 	0.0031481453
0.55208333 	0.0060215887 	-0.0010578536 	5.0172491e-07 	0.0060083514 	-1.5724234e-06 	0.0030114297
0.5625 	0.0057841063 	-0.00096333028 	4.1490479e-07 	0.005774619 	-1.1601981e-06 	0.0028921945
0.57291667 	0.0055901495 	-0.00087205454 	4.6666288e-09 	0.005584782 	-1.1609593e-08 	0.0027899665
0.58333333 	0.0054337046 	-0.00078332095 	-5.1250665e-09 	0.0054298319 	-2.0689614e-07 	0.0013013015
0.59375 	0.005306391 	-0.00069771537 	-7.1889384e-09 	0.0053054496 	-3.4340751e-07 	0.00066333885
0.60416667 	0.0052032058 	-0.0006158642 	2.2248439e-07 	0.0052098457 	-4.4088071e-07 	0.002632385
0.61458333 	0.0051199722 	-0.00053547221 	1.0192471e-06 	0.0051299141 	-1.8119805e-06 	0.0025747611
0.625 	0.0050522827 	-0.0004564937 	-3.6395792e-09 	0.0050630469 	-2.3702948e-07 	0.0014284972
0.63541667 	0.0049991514 	-0.00038023985 	-1.7814752e-09 	0.0050134013 	-1.3457096e-07 	0.0019378253
0.64583333 	0.004958262 	-0.00030584231 	1.060147e-06 	0.0049755942 	-1.5256336e-06 	0.0024962027
0.65625 	0.0049272864 	-0.00023167448 	-5.2001236e-09 	0.0049425867 	-4.5319737e-07 	0.00059135639
0.66666667 	0.0049056709 	-0.00016081915 	6.0199457e-07 	0.0049257349 	-7.754048e-07 	0.0024742233
0.67708333 	0.0048922456 	-9.0055993e-05 	-1.1272429e-09 	0.0049122085 	-1.1247308e-07 	0.0020053222
0.6875 	0.0048867074 	-2.0954155e-05 	1.0172927e-08 	0.0049079841 	-1.1562905e-08 	0.002463928
0.69791667 	0.0048889289 	4.7238734e-05 	9.8941598e-08 	0.0049103207 	-9.6256962e-08 	0.0024662366
0.70833333 	0.004898267 	0.00011456636 	-4.6818657e-10 	0.0049189958 	-6.1587025e-08 	0.002205629
0.71875 	0.0049144656 	0.00018071647 	5.7790711e-08 	0.0049353255 	-4.6490958e-08 	0.0024829992
0.72916667 	0.0049371255 	0.00024505852 	7.8292837e-08 	0.0049573815 	-6.2984341e-08 	0.0024830413
0.73958333 	0.0049680149 	0.00030966739 	-6.4212143e-10 	0.0049866672 	-9.8322149e-08 	0.0020669142
0.75 	0.0050046235 	0.00037260288 	3.6625068e-07 	0.0050231753 	-2.1393527e-07 	0.002516139
0.76041667 	0.0050498584 	0.00043526433 	-9.6440923e-10 	0.0050656389 	-1.7931036e-07 	0.0016568024
0.77083333 	0.0051022671 	0.00049828273 	3.8361976e-07 	0.005118493 	-1.1824623e-07 	0.0025641556
0.78125 	0.0051634103 	0.00056004971 	-4.947986e-10 	0.0051770283 	-1.1775105e-07 	0.0019457811
0.79166667 	0.0052322928 	0.00062188963 	8.6093254e-08 	0.0052456325 	-1.934567e-09 	0.0026242649
0.80208333 	0.0053117372 	0.0006829377 	1.4659e-07 	0.0053234916 	4.304786e-08 	0.0026950037
0.8125 	0.0053996448 	0.00074301845 	-1.7003066e-10 	0.0054070698 	-1.6623775e-07 	0.0013970939
0.82291667 	0.005499434 	0.00080380924 	8.147353e-07 	0.0055074751 	5.2174406e-07 	0.0027755609
0.83333333 	0.0056086965 	0.00086312324 	2.4257936e-10 	0.0056117558 	-1.6122798e-07 	0.0012731554
0.84375 	0.0057302591 	0.00092327786 	1.2618786e-10 	0.0057334712 	-2.6876682e-08 	0.0025406433
0.85416667 	0.0058662395 	0.00098281859 	6.4943228e-07 	0.0058678758 	9.2299052e-07 	0.0029616449
0.86458333 	0.006014316 	0.0010418494 	3.3696261e-10 	0.0060125377 	-3.8123598e-08 	0.0024441818
0.875 	0.0061771029 	0.001100248 	1.8430921e-09 	0.0061690356 	-1.2270815e-07 	0.00043898437
0.88541667 	0.0063572766 	0.0011601267 	3.080839e-10 	0.0063511927 	-1.2980697e-08 	0.0027773773
0.89583333 	0.0065548044 	0.0012192866 	2.3987797e-07 	0.0065473643 	6.6177684e-07 	0.0032898735
0.90625 	0.0067701008 	0.0012783228 	3.9949353e-07 	0.0067607183 	1.2891368e-06 	0.0034083816
0.91666667 	0.0070040403 	0.0013372906 	4.1975994e-07 	0.0069930914 	1.5437721e-06 	0.0035295233
0.92708333 	0.0072571394 	0.0013963355 	3.1030129e-07 	0.0072448992 	1.2849163e-06 	0.00365207
0.9375 	0.0075286627 	0.0014549923 	9.0458795e-08 	0.007515786 	4.0709885e-07 	0.0037743941
0.94791667 	0.0078162225 	0.0015125975 	1.5766297e-11 	0.0077983532 	7.0173481e-10 	0.0014650634
0.95833333 	0.0081186913 	0.0015735928 	-4.4195106e-11 	0.0081058564 	1.206864e-12 	0.0038940159
0.96875 	0.0084153831 	0.0016225818 	-2.1099877e-09 	0.0083957725 	-6.6746259e-09 	0.00018953588
0.97916667 	0.0086878831 	0.0016716065 	2.5227977e-08 	0.0086772633 	1.6361639e-07 	0.004378246
0.98958333 	0.008686819 	0.0016730665 	-1.2135948e-07 	0.0086763945 	-6.082432e-07 	0.0043976564
