0.4742268 	0.0061286809 	-0.0012160117 	8.6778431e-09 	0.006124467 	-4.3549331e-08 	0.0014943257
0.48453608 	0.008957644 	-0.0017274759 	3.3577475e-09 	0.008942039 	-1.7101257e-08 	0.0030536209
0.49484536 	0.008434973 	-0.0016349148 	4.9307225e-07 	0.0084183876 	-2.6861835e-06 	0.0040981012
0.50515464 	0.0078459903 	-0.0015234136 	2.7909356e-10 	0.0078250026 	-6.7740102e-09 	0.0029965085
0.51546392 	0.0073402947 	-0.0014186971 	7.4854937e-08 	0.0073197819 	-3.3682225e-07 	0.0035224246
0.5257732 	0.0068886628 	-0.0013127868 	1.044685e-06 	0.0068684886 	-4.4261692e-06 	0.0033492954
0.53608247 	0.0065067259 	-0.0012091669 	2.6092406e-07 	0.0064885217 	-9.9730466e-07 	0.0031883428
0.54639175 	0.0061917423 	-0.0011100638 	-1.0902037e-09 	0.0061755353 	-2.6680593e-08 	0.0026610793
0.55670103 	0.0059347107 	-0.001014314 	-1.5171342e-09 	0.0059220221 	-4.4493525e-08 	0.0024429562
0.56701031 	0.0057257892 	-0.0009224595 	9.3847285e-08 	0.0057179797 	-2.5809013e-07 	0.0028017357
0.57731959 	0.0055566963 	-0.00083358634 	6.8873202e-07 	0.0055531411 	-1.6849322e-06 	0.0027060176
0.58762887 	0.0054187639 	-0.00074761294 	1.1421697e-06 	0.0054193531 	-2.4926086e-06 	0.0026256347
0.59793814 	0.0053053832 	-0.00066412685 	3.5634417e-08 	0.0053099459 	-6.9633015e-08 	0.0025592782
0.60824742 	0.0052148895 	-0.00058205676 	-8.4726614e-09 	0.0052184342 	-4.887579e-07 	6.8484317e-05
0.6185567 	0.0051418446 	-0.0005044453 	2.4951034e-07 	0.005153292 	-4.3868524e-07 	0.0025055602
0.62886598 	0.0050832544 	-0.00042770469 	8.0512475e-07 	0.0050974193 	-1.2786004e-06 	0.002463665
0.63917526 	0.0050365831 	-0.00035169841 	-6.0014208e-09 	0.005049274 	-4.6460108e-07 	0.00045806768
0.64948454 	0.0050009586 	-0.00027928546 	5.3415603e-07 	0.0050192791 	-7.6726898e-07 	0.0024325848
0.65979381 	0.0049739916 	-0.0002073061 	7.5373611e-08 	0.0049937302 	-9.756609e-08 	0.0024121019
0.67010309 	0.0049563723 	-0.00013643082 	-1.7780149e-09 	0.0049757351 	-1.8114069e-07 	0.0016850862
0.68041237 	0.0049462446 	-6.7510944e-05 	7.7231304e-07 	0.0049676135 	-8.8998475e-07 	0.0024022933
0.69072165 	0.0049432749 	1.4565515e-06 	-3.3245441e-09 	0.0049619937 	-3.8588648e-07 	0.00085031062
0.70103093 	0.0049469286 	6.7823535e-05 	1.0265515e-06 	0.0049686296 	-1.0249363e-06 	0.0024040659
0.71134021 	0.0049575051 	0.00013484187 	-2.9622869e-09 	0.0049758625 	-3.9114041e-07 	0.0007826287
0.72164948 	0.0049740238 	0.00019901651 	8.6595605e-07 	0.0049950449 	-7.2779096e-07 	0.0024191362
0.73195876 	0.0049969729 	0.00026273484 	-1.5365194e-09 	0.0050153621 	-2.3406558e-07 	0.0013863122
0.74226804 	0.0050270287 	0.00032629231 	4.6434168e-07 	0.0050466007 	-2.9254559e-07 	0.0024492874
0.75257732 	0.0050626715 	0.00038823356 	-4.4498862e-10 	0.005080514 	-7.9849731e-08 	0.0020616556
0.7628866 	0.0051074016 	0.00045077744 	1.922877e-07 	0.0051248951 	-6.974773e-08 	0.0024933753
0.77319588 	0.0051582551 	0.00051247586 	-2.1142674e-10 	0.0051739439 	-4.7335834e-08 	0.0022331361
0.78350515 	0.0052186708 	0.00057382889 	2.6587029e-07 	0.0052334991 	-2.2399751e-08 	0.0025488985
0.79381443 	0.005285922 	0.00063421784 	-4.315561e-10 	0.0052975103 	-1.3555009e-07 	0.0016826177
0.80412371 	0.0053637698 	0.00069487015 	6.2809886e-07 	0.0053753924 	1.4210443e-07 	0.0026147254
0.81443299 	0.0054491335 	0.00075379004 	-4.9118702e-10 	0.0054543877 	-3.1081363e-07 	0.00024625435
0.82474227 	0.0055465654 	0.00081429986 	5.7683355e-07 	0.0055544549 	3.282338e-07 	0.0026898913
0.83505155 	0.0056538033 	0.00087343577 	1.6717953e-11 	0.0056592471 	-2.5850766e-08 	0.0025245153
0.84536082 	0.005772686 	0.00093193209 	4.4811884e-10 	0.0057736782 	-1.186087e-07 	0.0013760953
0.8556701 	0.0059058165 	0.00099121672 	5.1771444e-07 	0.0059072544 	6.974819e-07 	0.0028645637
0.86597938 	0.0060516235 	0.0010498076 	1.6055443e-07 	0.0060508001 	2.8537297e-07 	0.0029623817
0.87628866 	0.0062114721 	0.0011074924 	1.4386731e-09 	0.0062040623 	-1.0365832e-07 	0.00080976341
0.88659794 	0.0063883277 	0.0011661901 	1.0805027e-09 	0.0063799759 	-4.7940552e-08 	0.0016121774
0.89690722 	0.0065827161 	0.001225105 	5.9052471e-08 	0.0065749704 	1.5918173e-07 	0.0031753367
0.90721649 	0.0067953985 	0.0012835258 	2.396301e-07 	0.0067856841 	7.5983398e-07 	0.0032882316
0.91752577 	0.0070266588 	0.0013419164 	2.7999569e-07 	0.0070153473 	1.0165521e-06 	0.0034039696
0.92783505 	0.0072770691 	0.0014003727 	1.9116147e-07 	0.0072644543 	7.8445742e-07 	0.0035213651
0.93814433 	0.0075459769 	0.0014585009 	2.1260613e-11 	0.0075325206 	2.7982632e-11 	0.0035419982
0.94845361 	0.0078308392 	0.0015151418 	4.0687651e-11 	0.007810999 	2.9680402e-09 	0.00048260034
0.95876289 	0.0081304935 	0.0015758684 	5.6256385e-08 	0.0081177296 	3.2088332e-07 	0.0039765534
0.96907216 	0.0084256187 	0.0016248546 	-1.6097094e-09 	0.0084076617 	-4.3686513e-09 	0.0010829077
0.97938144 	0.0086940319 	0.001672683 	8.38053e-09 	0.0086831085 	5.4412206e-08 	0.0042214634
0.98969072 	0.0086826567 	0.0016721062 	-7.3134799e-08 	0.0086719205 	-3.6646818e-07 	0.0042404823
