0.4742268 	0.0061981929 	-0.0012297035 	5.5661538e-09 	0.0061938631 	-2.7953797e-08 	0.0015087381
0.48453608 	0.0090108435 	-0.0017376182 	5.0047226e-10 	0.0089937105 	-2.8703861e-09 	0.0030633506
0.49484536 	0.0084690358 	-0.0016404748 	6.7746608e-07 	0.0084470582 	-3.6506633e-06 	0.0028860443
0.50515464 	0.0078767565 	-0.0015251449 	5.596617e-08 	0.0078511015 	-2.8658381e-07 	0.0027185183
0.51546392 	0.0073893836 	-0.0014173063 	4.2065792e-07 	0.0073624799 	-1.7654858e-06 	0.0024877532
0.5257732 	0.0069740922 	-0.0013085314 	1.3994213e-06 	0.0069480135 	-5.3963873e-06 	0.0023761556
0.53608247 	0.0066402465 	-0.0012033954 	6.138391e-07 	0.0066171026 	-2.0830993e-06 	0.0022768051
0.54639175 	0.0063781201 	-0.0011033098 	2.0578222e-07 	0.0063590029 	-6.1871399e-07 	0.0021909811
0.55670103 	0.0061742414 	-0.0010070705 	1.6575237e-07 	0.0061601755 	-4.3790364e-07 	0.0021182557
0.56701031 	0.0060157877 	-0.00091489156 	4.6005706e-07 	0.0060070051 	-1.0751045e-06 	0.0020577893
0.57731959 	0.0058916747 	-0.00082608005 	1.0583283e-06 	0.0058882339 	-2.2016039e-06 	0.0020081949
0.58762887 	0.0057933859 	-0.00074028962 	1.5247438e-06 	0.0057949749 	-2.857313e-06 	0.0019680684
0.59793814 	0.0057145574 	-0.00065706494 	4.2723672e-07 	0.0057207956 	-7.3063361e-07 	0.0019360049
0.60824742 	0.0056525538 	-0.00057551427 	-5.7073474e-09 	0.0056594219 	-4.4128907e-07 	7.4416479e-05
0.6185567 	0.0056042478 	-0.00049796251 	6.3277786e-07 	0.0056181444 	-1.0017249e-06 	0.0019106971
0.62886598 	0.0055652264 	-0.00042151685 	1.2032627e-06 	0.0055820649 	-1.7869763e-06 	0.0018912847
0.63917526 	0.005533678 	-0.00034600627 	-4.0618269e-09 	0.0055503664 	-3.8092927e-07 	0.00050374598
0.64948454 	0.0055100421 	-0.0002736197 	9.2470134e-07 	0.0055312351 	-1.3031228e-06 	0.0018768066
0.65979381 	0.0054911273 	-0.00020189268 	4.865131e-07 	0.0055137736 	-6.5566798e-07 	0.0018668019
0.67010309 	0.0054772449 	-0.00013146644 	-2.177031e-11 	0.0055009246 	-2.300135e-09 	0.0018589379
0.68041237 	0.0054685358 	-6.256148e-05 	1.1852487e-06 	0.0054927844 	-1.5307434e-06 	0.0018609703
0.69072165 	0.0054628516 	5.961704e-06 	-2.4633413e-09 	0.0054856504 	-2.7029814e-07 	0.00093892598
0.70103093 	0.0054619008 	7.2318985e-05 	1.4429501e-06 	0.0054863735 	-1.7737156e-06 	0.0018595285
0.71134021 	0.0054637022 	0.00013888852 	-2.5235637e-09 	0.0054859933 	-2.8467813e-07 	0.00086287279
0.72164948 	0.0054702993 	0.00020287311 	1.2800042e-06 	0.0054939248 	-1.4973105e-06 	0.0018632289
0.73195876 	0.0054792327 	0.00026630313 	-7.9736186e-10 	0.0055015028 	-9.2255757e-08 	0.0015219449
0.74226804 	0.005494251 	0.00032933031 	8.5672475e-07 	0.0055162363 	-9.0410406e-07 	0.0018732729
0.75257732 	0.0055116127 	0.00039116084 	1.782406e-07 	0.0055325498 	-1.8809778e-07 	0.001873304
0.7628866 	0.00553612 	0.00045316051 	5.4719935e-07 	0.0055558434 	-4.7787671e-07 	0.0018900406
0.77319588 	0.0055642319 	0.00051472323 	2.2331764e-07 	0.0055826086 	-1.9502633e-07 	0.0018900916
0.78350515 	0.0056002809 	0.00057566061 	5.8143307e-07 	0.0056172122 	-3.8942334e-07 	0.0019132003
0.79381443 	0.0056405378 	0.00063612602 	-1.5882434e-10 	0.0056556763 	-2.1708247e-08 	0.0018002096
0.80412371 	0.0056912702 	0.00069608634 	9.080224e-07 	0.0057049462 	-3.8116898e-07 	0.0019427686
0.81443299 	0.0057470657 	0.00075503537 	-1.7954295e-09 	0.0057557264 	-2.7210414e-07 	0.00026076509
0.82474227 	0.0058145554 	0.00081482235 	8.2167977e-07 	0.0058244946 	-1.0046655e-07 	0.0019787044
0.83505155 	0.0058904165 	0.00087369253 	1.6225084e-07 	0.0058983309 	3.6202454e-08 	0.0020207409
0.84536082 	0.0059768802 	0.00093202354 	-1.9258114e-10 	0.005981394 	-6.0909808e-08 	0.0014291959
0.8556701 	0.006078465 	0.00099055779 	7.194538e-07 	0.0060817194 	4.4352971e-07 	0.0020690077
0.86597938 	0.0061921947 	0.0010487414 	3.5221994e-07 	0.0061929381 	3.7209013e-07 	0.002122944
0.87628866 	0.0063202919 	0.0011063618 	4.7993013e-10 	0.0063157918 	-6.8820125e-08 	0.000821631
0.88659794 	0.0064668034 	0.0011647111 	3.4270561e-10 	0.0064609703 	-1.6983713e-08 	0.0016357015
0.89690722 	0.0066337331 	0.0012230494 	2.194242e-07 	0.0066261621 	4.5236428e-07 	0.0022475237
0.90721649 	0.0068216229 	0.0012813461 	3.8797752e-07 	0.0068113723 	1.0145234e-06 	0.002317124
0.91752577 	0.0070323416 	0.0013398068 	4.1908354e-07 	0.0070197101 	1.3306077e-06 	0.0023908866
0.92783505 	0.007267664 	0.0013984841 	3.2033486e-07 	0.0072530086 	1.2047044e-06 	0.0024680741
0.93814433 	0.0075280481 	0.0014572384 	1.0897124e-07 	0.0075120851 	4.6382301e-07 	0.0025475295
0.94845361 	0.0078118046 	0.0015148821 	5.63842e-10 	0.0077910361 	3.4201001e-08 	0.00048144811
0.95876289 	0.0081155483 	0.0015755421 	1.3683733e-07 	0.0080995504 	7.9468979e-07 	0.0027859349
0.96907216 	0.0084231341 	0.0016266209 	-9.5161932e-10 	0.0084044793 	9.7608684e-09 	0.0010829547
0.97938144 	0.0087026094 	0.0016749859 	3.2156342e-08 	0.0086890291 	2.1743596e-07 	0.002964599
0.98969072 	0.0086961166 	0.0016738976 	-1.5434152e-07 	0.0086830492 	-7.7008033e-07 	0.0029807618
