0.47826087 	0.0088591618 	-0.0017098845 	2.2070996e-09 	0.008847743 	-1.142961e-08 	0.0040610757
0.48913043 	0.0087347588 	-0.0016881746 	2.3735723e-09 	0.008719429 	-1.2021514e-08 	0.0034429121
0.5 	0.0081363476 	-0.0015805137 	2.5537007e-08 	0.0081199756 	-1.3425797e-07 	0.0044280898
0.51086957 	0.0075541817 	-0.0014699899 	3.1092484e-07 	0.0075363213 	-1.54941e-06 	0.0041141953
0.52173913 	0.0070351887 	-0.0013534077 	-3.2042931e-09 	0.0070108521 	-4.8842781e-08 	0.0007331707
0.5326087 	0.0065939484 	-0.0012454887 	2.3220793e-07 	0.0065766497 	-9.1823651e-07 	0.0035274233
0.54347826 	0.0062258882 	-0.0011403414 	1.0695731e-06 	0.006210856 	-3.8501695e-06 	0.0033577176
0.55434783 	0.0059225257 	-0.0010387739 	7.9739658e-07 	0.0059108066 	-2.5740907e-06 	0.0032053848
0.56521739 	0.0056753563 	-0.00094112858 	7.7245665e-07 	0.005667358 	-2.2291409e-06 	0.0030714988
0.57608696 	0.0054748243 	-0.00084690154 	1.0819833e-06 	0.0054709048 	-2.7788388e-06 	0.0029559112
0.58695652 	0.0053121245 	-0.00075588348 	7.1685861e-07 	0.0053122486 	-1.6384773e-06 	0.002857951
0.59782609 	0.0051801392 	-0.00066758918 	-1.0691953e-09 	0.0051836113 	-4.841364e-08 	0.002480675
0.60869565 	0.0050749463 	-0.00058120122 	-8.2090165e-09 	0.0050781141 	-4.3588054e-07 	0.00037232566
0.61956522 	0.0049904841 	-0.00049903649 	-1.6169933e-09 	0.0050004241 	-1.0015117e-07 	0.0022142472
0.63043478 	0.004924051 	-0.00041847813 	1.2102162e-06 	0.0049376206 	-1.9624704e-06 	0.0026584556
0.64130435 	0.0048717981 	-0.00033905068 	-2.9357057e-09 	0.004885799 	-2.1072355e-07 	0.0016669417
0.65217391 	0.0048330554 	-0.00026195734 	-2.3978518e-09 	0.0048490393 	-1.9925598e-07 	0.0017501536
0.66304348 	0.0048057395 	-0.00018689939 	9.4625398e-07 	0.0048246968 	-1.2073985e-06 	0.0025952192
0.67391304 	0.0047889433 	-0.00011173963 	-5.3688192e-09 	0.0048046417 	-5.155627e-07 	0.00039671559
0.68478261 	0.0047808815 	-4.008876e-05 	6.9695946e-07 	0.0048013249 	-7.7109801e-07 	0.0025838974
0.69565217 	0.0047823515 	3.1963545e-05 	-2.2253448e-09 	0.0048009907 	-2.4700292e-07 	0.0015311907
0.70652174 	0.0047915271 	0.00010188536 	2.437211e-07 	0.0048121063 	-2.251364e-07 	0.0025873624
0.7173913 	0.0048100424 	0.00017158899 	-1.1603644e-09 	0.0048290146 	-1.505393e-07 	0.0019390185
0.72826087 	0.0048352802 	0.00023876103 	2.0678906e-07 	0.0048549583 	-1.5211995e-07 	0.0026077065
0.73913043 	0.0048704751 	0.00030625506 	-1.0988595e-09 	0.004887854 	-1.714178e-07 	0.0018288013
0.75 	0.0049119229 	0.00037214506 	2.7119762e-07 	0.0049299 	-1.3467505e-07 	0.0026468823
0.76086957 	0.0049638404 	0.00043765963 	-8.2824971e-10 	0.0049791257 	-1.6144041e-07 	0.0018477197
0.77173913 	0.0050233706 	0.00050345587 	8.7318025e-08 	0.0050389625 	-1.7872485e-08 	0.0027029816
0.7826087 	0.0050936523 	0.00056815971 	-8.2410151e-11 	0.0051076226 	-2.2248449e-08 	0.0026379083
0.79347826 	0.0051728978 	0.00063199324 	-2.7280776e-10 	0.0051836623 	-1.3798197e-07 	0.0018255765
0.80434783 	0.0052635749 	0.00069610459 	5.7107908e-07 	0.0052744784 	2.4056335e-07 	0.0028536073
0.81521739 	0.0053636727 	0.00075825939 	2.3752022e-11 	0.0053676873 	-3.1710233e-07 	0.00026317224
0.82608696 	0.0054764992 	0.00082223705 	2.0498522e-07 	0.0054835061 	1.5891802e-07 	0.002945248
0.83695652 	0.0056022061 	0.0008847558 	2.3297666e-07 	0.0056071586 	2.6929604e-07 	0.0030458263
0.84782609 	0.0057399206 	0.000945962 	1.2649739e-09 	0.0057376405 	-2.0379646e-07 	0.00048329144
0.85869565 	0.0058931038 	0.0010087511 	4.2258544e-10 	0.00589225 	-3.8252371e-08 	0.0025244879
0.86956522 	0.006062444 	0.0010708245 	4.3282564e-07 	0.0060605124 	8.5990036e-07 	0.0032703249
0.88043478 	0.00624767 	0.0011325449 	2.9070334e-07 	0.0062434773 	7.0614059e-07 	0.0033918423
0.89130435 	0.0064501324 	0.0011941211 	1.076669e-10 	0.0064435496 	-4.1906796e-09 	0.0033808209
0.90217391 	0.0066714988 	0.0012554096 	8.6447404e-10 	0.0066610424 	-2.2903753e-08 	0.002520533
0.91304348 	0.0069125547 	0.0013168569 	8.9011328e-10 	0.0069001622 	-1.6202346e-08 	0.0024872439
0.92391304 	0.0071739611 	0.001378757 	2.2453149e-10 	0.0071618882 	-2.8008108e-09 	0.0035112828
0.93478261 	0.0074548237 	0.0014398712 	1.9840819e-07 	0.0074428354 	9.0337911e-07 	0.0040450927
0.94565217 	0.0077532341 	0.0015013026 	1.3355884e-07 	0.0077407476 	6.7397008e-07 	0.0041751943
0.95652174 	0.0080634691 	0.0015610796 	-7.6212696e-10 	0.0080435625 	-2.6844705e-09 	0.00014046381
0.9673913 	0.0083772194 	0.0016157954 	1.4735294e-08 	0.0083659128 	9.5372635e-08 	0.0045154949
0.97826087 	0.0086651165 	0.0016676815 	3.9395321e-08 	0.0086550427 	2.5525777e-07 	0.0046916513
0.98913043 	0.0087080768 	0.0016775853 	-1.7126934e-07 	0.0086983136 	-8.5873973e-07 	0.0047118678
