0.47777778 	1.1028029 	-0.012375569 	-5.1132116e-05
0.48888889 	1.2106904 	-0.0131021 	-3.0279417e-07
0.5 	1.2552553 	-0.013298744 	1.2069575e-08
0.51111111 	1.2824198 	-0.013489167 	-5.8642195e-05
0.52222222 	1.3015844 	-0.01321386 	1.9746441e-06
0.53333333 	1.3161235 	-0.013079025 	7.6211364e-07
0.54444444 	1.3274434 	-0.012980742 	-2.7071845e-05
0.55555556 	1.3364604 	-0.012829742 	-4.6610862e-05
0.56666667 	1.3437551 	-0.012594633 	-4.5096573e-05
0.57777778 	1.3496925 	-0.012295528 	-2.6752273e-05
0.58888889 	1.3545323 	-0.011960734 	3.9121691e-07
0.6 	1.3583566 	-0.011683366 	4.4725166e-06
0.61111111 	1.361446 	-0.011394774 	5.4527497e-06
0.62222222 	1.3639111 	-0.011122322 	-7.6365822e-06
0.63333333 	1.3657959 	-0.010844499 	-7.167649e-06
0.64444444 	1.3671404 	-0.010513605 	8.5759924e-06
0.65555556 	1.368133 	-0.0101978 	-1.1773975e-06
0.66666667 	1.3687092 	-0.0099094342 	1.1508402e-06
0.67777778 	1.3688937 	-0.0095789138 	6.6717143e-06
0.68888889 	1.3687734 	-0.0093313474 	-2.1483518e-05
0.7 	1.3684079 	-0.0089500549 	1.1059888e-05
0.71111111 	1.3676913 	-0.0086939073 	-2.4385002e-05
0.72222222 	1.366811 	-0.0083137462 	1.0720045e-05
0.73333333 	1.3655752 	-0.0080539209 	-2.2641594e-05
0.74444444 	1.3641677 	-0.0076730644 	1.0388144e-05
0.75555556 	1.3624188 	-0.0074088068 	-2.085795e-05
0.76666667 	1.3604346 	-0.0070251988 	8.28381e-06
0.77777778 	1.3581262 	-0.0067176924 	-1.0358001e-05
0.78888889 	1.3555294 	-0.0063726176 	3.9806181e-06
0.8 	1.3525938 	-0.0060256412 	1.9669846e-06
0.81111111 	1.3492851 	-0.0057328659 	-7.5214205e-06
0.82222222 	1.3455989 	-0.0053727045 	6.7626973e-06
0.83333333 	1.341536 	-0.0050301125 	-4.8812588e-07
0.84444444 	1.3369246 	-0.0047353487 	-8.826078e-06
0.85555556 	1.3318508 	-0.0043758959 	2.8737191e-06
0.86666667 	1.3261491 	-0.0040339046 	4.3137853e-06
0.87777778 	1.3197976 	-0.0036935014 	7.21678e-07
0.88888889 	1.3125799 	-0.0033744137 	-5.0180107e-06
0.9 	1.3043954 	-0.0030494654 	-8.0712837e-06
0.91111111 	1.2950436 	-0.0027109343 	-7.4538926e-06
0.92222222 	1.2842111 	-0.0023620719 	-3.9268511e-06
0.93333333 	1.2713939 	-0.0020108437 	6.299053e-07
0.94444444 	1.2557434 	-0.001678825 	2.2905844e-06
0.95555556 	1.2359984 	-0.0013483433 	-3.4525878e-06
0.96666667 	1.209402 	-0.00099983606 	8.9407515e-07
0.97777778 	1.1676838 	-0.00064934107 	2.2874812e-07
0.98888889 	1.0769139 	-0.00030605063 	2.901241e-07
