/*--------------------------------*- C++ -*----------------------------------*\
| =========                 |                                                 |
| \\      /  F ield         | OpenFOAM: The Open Source CFD Toolbox           |
|  \\    /   O peration     | Version:  2.4.0                                 |
|   \\  /    A nd           | Web:      www.OpenFOAM.org                      |
|    \\/     M anipulation  |                                                 |
\*---------------------------------------------------------------------------*/
FoamFile
{
    version     2.0;
    format      ascii;
    class       volSymmTensorField;
    location    "2000";
    object      Ax;
}
// * * * * * * * * * * * * * * * * * * * * * * * * * * * * * * * * * * * * * //

dimensions      [0 0 0 0 0 0 0];

internalField   nonuniform List<symmTensor> 
15296
(
(-0.026781275 -0.027171295 -0.0010731774 0.01390036 -0.14272611 0.012880915)
(0.030523662 0.052243608 0.00045702467 0.00051061108 0.13680482 -0.031034273)
(-0.10153455 -0.11011353 -0.0049733865 0.028033859 -0.042162285 0.073500688)
(-0.062486182 0.062574855 -0.0019333208 0.017712888 0.12278904 0.044773294)
(-0.025104349 0.02598596 -0.00066133909 0.015709978 0.13993072 0.0093943706)
(-0.007069088 0.015064109 5.3080694e-06 0.012112138 0.14127398 -0.00504305)
(-0.0010869528 0.011769308 0.0002157246 0.010762304 0.14109413 -0.0096753508)
(0.00036985594 0.010960796 0.0002107589 0.010439101 0.14089827 -0.010808957)
(0.00075635237 0.010861488 0.00016088937 0.010362918 0.14076021 -0.01111927)
(0.00081683918 0.011110455 0.00011685056 0.01035344 0.14070127 -0.011170279)
(0.0007580623 0.011552512 8.4418183e-05 0.010364352 0.14070583 -0.011122415)
(0.00069527024 0.012015965 6.0389648e-05 0.010374358 0.14072201 -0.011069628)
(0.00067118537 0.012430732 4.2490811e-05 0.010374597 0.14073824 -0.011045783)
(0.00068331159 0.012782628 2.8966732e-05 0.010366418 0.14074877 -0.01104973)
(0.00071390816 0.013094851 1.8679272e-05 0.01035294 0.14076396 -0.011066848)
(0.00075553364 0.013383036 1.0479913e-05 0.010335701 0.14078642 -0.011091234)
(0.00079975609 0.013651624 3.395115e-06 0.010317292 0.1408135 -0.011117048)
(0.00082556772 0.013889394 -2.8212847e-06 0.010304857 0.14083043 -0.011130425)
(0.00082860224 0.014116647 -8.2493755e-06 0.010298035 0.14084847 -0.011126637)
(0.00081933727 0.014322831 -1.2967767e-05 0.010295541 0.14085766 -0.011114878)
(0.00080392365 0.014523329 -1.6710078e-05 0.010293657 0.14087471 -0.01109758)
(0.00078643417 0.014712512 -1.9911898e-05 0.010291672 0.14089816 -0.011078107)
(0.00076062855 0.014887962 -2.2786574e-05 0.010291431 0.14092645 -0.01105206)
(0.00072119118 0.015040896 -2.5477429e-05 0.01029539 0.14095213 -0.011016581)
(0.00066340608 0.015166803 -2.792716e-05 0.010305027 0.14097408 -0.010968433)
(0.00059151543 0.015261337 -3.1962718e-05 0.010320589 0.14098711 -0.010912104)
(0.00048387438 0.015246782 -2.3084156e-05 0.010355626 0.14090369 -0.0108395)
(0.00051864969 0.015657589 0.0012956071 0.01021672 0.141579 -0.01073537)
(0.0010153054 0.015724838 0.0020736943 0.010196478 -0.14112204 -0.011211783)
(0.0010106141 0.00963099 0.00073435282 0.0067694514 -0.14676901 -0.0077800655)
(0.00081235062 0.0053586309 0.00075741349 0.0055411232 -0.14915628 -0.0063534738)
(0.00045707413 0.0025857365 0.00043554095 0.0050697584 -0.14983162 -0.0055268325)
(0.0001528973 0.0017773758 -0.0010820142 0.0050756436 -0.14967057 -0.0052285409)
(1.4096809e-05 0.0014953237 -0.0011262123 0.00521123 0.14894918 -0.0052253268)
(-0.0003301884 0.00090762979 -0.00016617737 0.0052703725 0.14844182 -0.0049401841)
(-0.00045014602 0.00077703589 0.0011352226 0.0050670677 0.14839809 -0.0046169217)
(-0.0014507002 -0.0001700326 0.0016209777 0.0049477678 -0.14807489 -0.0034970676)
(0.00014495422 0.00073379408 -8.4628125e-05 0.002809423 -0.14931893 -0.0029543772)
(-0.028416589 -0.062797369 -0.00063320965 0.012621242 -0.069787257 0.015795347)
(0.037005378 0.12738919 0.0017917635 -0.016516732 0.07131192 -0.020488646)
(-0.071790626 -0.13296516 -0.0041431323 0.028800819 -0.019922826 0.042989807)
(-0.065596214 0.12597595 -0.0026536758 0.029728639 0.055969229 0.035867575)
(-0.031817819 0.072694471 -0.0012239734 0.016175132 0.072452505 0.015642687)
(-0.010959964 0.046254419 -0.00012537385 0.0066658619 0.074489044 0.0042941022)
(-0.0035379323 0.03696755 0.00028704017 0.0031125636 0.074865851 0.00042536867)
(-0.0016393766 0.034511161 0.00030104086 0.0021881214 0.075042584 -0.00054874487)
(-0.0011069987 0.03416079 0.00022336719 0.0019292838 0.075106991 -0.00082228511)
(-0.00099081045 0.034837866 0.00015303547 0.0018597067 0.07510995 -0.00086889629)
(-0.0010322259 0.03607793 9.920828e-05 0.001856729 0.075101403 -0.00082450311)
(-0.0010886506 0.037385024 5.6510959e-05 0.0018624835 0.07507814 -0.0007738329)
(-0.0011028411 0.038549311 2.3832532e-05 0.0018505365 0.075049663 -0.00074769541)
(-0.0010748137 0.039530122 -7.9426678e-07 0.0018210536 0.075018865 -0.00074623993)
(-0.0010245736 0.040391391 -1.8582869e-05 0.0017809643 0.074999221 -0.00075639069)
(-0.00096124165 0.041177703 -3.2186767e-05 0.0017339827 0.07499469 -0.00077274109)
(-0.00089565741 0.041903909 -4.4360433e-05 0.0016859157 0.074998243 -0.0007902583)
(-0.00085365072 0.04254996 -5.5493777e-05 0.0016521311 0.0749896 -0.00079848041)
(-0.00083989271 0.043168973 -6.5048323e-05 0.0016322062 0.074976238 -0.00079231349)
(-0.00084214606 0.043735422 -7.3366568e-05 0.0016223863 0.074951235 -0.00078024024)
(-0.00085209297 0.044284709 -7.8873436e-05 0.00161519 0.074936078 -0.00076309698)
(-0.00086532251 0.044802203 -8.3299814e-05 0.0016091727 0.074933663 -0.00074385021)
(-0.00088956685 0.045283642 -8.7380558e-05 0.0016084659 0.07494012 -0.00071889906)
(-0.00093174363 0.04571005 -9.1695731e-05 0.0016180795 0.074945107 -0.00068633589)
(-0.00099779046 0.046072208 -9.6061181e-05 0.0016412927 0.074946697 -0.00064350228)
(-0.0010842036 0.046356725 -0.00010809409 0.0016778316 0.074925626 -0.00059362805)
(-0.001210573 0.046411332 -7.8265532e-05 0.0017528496 0.074883326 -0.00054227656)
(-0.0011421326 0.047380545 0.002180215 0.0016317587 0.076669401 -0.00048962608)
(-0.00043961906 0.047328397 0.0030123896 0.0012135832 -0.073903618 -0.00077396418)
(0.00044993036 0.049110706 0.0010841898 0.0032712063 -0.14010994 -0.0037211366)
(0.00032316526 0.030217739 0.0012655045 0.0021637303 -0.14954758 -0.0024868956)
(-0.00041707182 0.014674015 0.00094679759 0.0019227671 -0.1530962 -0.0015056953)
(-0.0011532208 0.010068568 -0.0026894292 0.0024006516 -0.15327628 -0.0012474308)
(-0.0014531997 0.0087298298 -0.0028497233 0.0031404501 0.15238208 -0.0016872503)
(-0.0022332686 0.0057937708 -0.00057084445 0.0040845574 0.15130108 -0.0018512888)
(-0.0022702287 0.0049821833 0.0030123775 0.0041375574 0.15114729 -0.0018673286)
(-0.004867419 0.0011486194 0.0041816168 0.0057083024 -0.15019262 -0.00084088336)
(0.0026738595 0.0025569115 -0.000320617 0.0043821364 -0.1505476 -0.007055996)
(-0.02299483 -0.081685812 -0.00015801174 0.0084998515 -0.049160717 0.014494979)
(0.029487949 0.1411487 0.0018943573 -0.013123908 0.038628148 -0.01636404)
(-0.057278643 -0.13769443 -0.0030994657 0.019201455 -0.020131737 0.038077188)
(-0.057678216 0.13585373 -0.0022980141 0.025220194 0.035098058 0.032458022)
(-0.030192265 0.10653854 -0.0010469599 0.013961415 0.057117846 0.01623085)
(-0.010218299 0.074038012 7.9624758e-06 0.0050557085 0.061375392 0.0051625904)
(-0.0024083923 0.060833997 0.00045248356 0.0012313552 0.062824793 0.0011770371)
(-0.00020269463 0.057056063 0.00047910189 7.1982711e-05 0.063606117 0.00013071192)
(0.00049052386 0.056435265 0.00040422663 -0.00031698483 0.064012845 -0.00017353902)
(0.00071063386 0.05736533 0.0003393195 -0.00047143255 0.064106354 -0.00023920131)
(0.00073665455 0.059143297 0.00029071914 -0.00053003558 0.064017765 -0.00020661897)
(0.00072150539 0.061037095 0.00025056354 -0.00055946014 0.06387448 -0.00016204524)
(0.00073624181 0.062723842 0.00021960414 -0.00059651408 0.063726734 -0.00013972773)
(0.00078864972 0.064141397 0.00019684327 -0.00064709705 0.063594865 -0.00014155268)
(0.00086202504 0.065376833 0.00018197714 -0.00070678232 0.063477493 -0.00015524272)
(0.00094723002 0.066494777 0.00017154786 -0.00077203184 0.063374181 -0.00017519818)
(0.0010325462 0.067519535 0.00016141498 -0.00083643232 0.063278093 -0.00019611389)
(0.0010921375 0.068434706 0.00015152643 -0.00088481965 0.06318826 -0.00020731787)
(0.0011220653 0.069309415 0.00014327682 -0.00091792607 0.063090232 -0.00020413922)
(0.0011341298 0.07011483 0.00013637945 -0.00093953097 0.062994865 -0.00019459887)
(0.0011376089 0.070890748 0.00013356542 -0.0009575403 0.062900915 -0.00018006855)
(0.0011361358 0.071618094 0.00013180378 -0.00097297216 0.062817495 -0.00016316367)
(0.001121786 0.072292262 0.00012980102 -0.00098150952 0.062741746 -0.00014027645)
(0.0010871685 0.072892038 0.00012669646 -0.00097789318 0.062673084 -0.00010927536)
(0.0010260625 0.073406169 0.00012270817 -0.00095861739 0.062611117 -6.7445131e-05)
(0.00093973664 0.073816292 0.00010517965 -0.00092220051 0.062533685 -1.7536139e-05)
(0.00082173 0.073974921 0.00016022462 -0.00085722114 0.062637025 3.5491136e-05)
(0.00088896245 0.075005947 0.0025130758 -0.00097772852 0.063883223 8.8766074e-05)
(0.0016063031 0.074931997 0.0027499729 -0.0013551871 -0.060680813 -0.000251116)
(0.0024368731 0.07231987 0.00051592678 -0.0012530723 -0.097272764 -0.0011838008)
(0.002979592 0.066629042 0.00094091167 -0.001296004 -0.13742273 -0.0016835879)
(0.0012383319 0.035877952 0.0010673011 -0.00053178949 -0.15004018 -0.00070654244)
(-0.00039206418 0.023939451 -0.0039692009 0.00031940908 -0.15264785 7.2655101e-05)
(-0.001106933 0.020484939 -0.0040040396 0.0012918148 0.15275542 -0.0001848818)
(-0.0025922894 0.013751281 -0.00093429236 0.0027787071 0.15279065 -0.00018641772)
(-0.0028449258 0.011492228 0.004390196 0.003002515 0.15295543 -0.00015758922)
(-0.0080991801 0.0047429398 0.006841535 0.0065702726 -0.15159556 0.0015289075)
(0.0021196576 0.0042672638 -0.00034002516 0.0047916955 -0.11249609 -0.0069113531)
(-0.017922646 -0.088525993 2.0807273e-05 0.0051734661 -0.034263438 0.01274918)
(0.019908995 0.14522259 0.0017620395 -0.0060597528 0.023857618 -0.013849243)
(-0.037281763 -0.14233204 -0.0018680789 0.0079566969 -0.018453224 0.029325066)
(-0.051036 0.13963894 -0.0020065072 0.020225252 0.024763752 0.030810747)
(-0.028890029 0.12693603 -0.00083864803 0.012764931 0.045576356 0.016125098)
(-0.011047136 0.094457456 0.00012804191 0.0056025104 0.050713161 0.0054446259)
(-0.0032452362 0.079547447 0.00056601616 0.0018773847 0.052807822 0.0013678515)
(-0.00075078105 0.074919977 0.00060371932 0.00052318152 0.054034147 0.00022759953)
(0.00013328821 0.074025736 0.00053912961 -8.6416805e-06 0.054726228 -0.00012464653)
(0.00048698864 0.074994586 0.0004847522 -0.0002657743 0.054908829 -0.00022121434)
(0.00060164391 0.076992835 0.00044431428 -0.0003936027 0.054763288 -0.00020804121)
(0.00063894639 0.079161511 0.00040916713 -0.00046549425 0.054531143 -0.00017345214)
(0.00068664297 0.081100887 0.00038167337 -0.00052986573 0.054295006 -0.00015677724)
(0.00076386227 0.082730756 0.00036193113 -0.00060107553 0.054089925 -0.00016278674)
(0.00085921952 0.084142483 0.00035026217 -0.00067849665 0.053898582 -0.00018072287)
(0.0009641057 0.085409852 0.00034265617 -0.00075917873 0.053716337 -0.00020492697)
(0.0010664948 0.086564109 0.00033399841 -0.00083670388 0.053538521 -0.0002297909)
(0.0011423356 0.087599902 0.00032494199 -0.00089791408 0.053386185 -0.00024442154)
(0.0011882831 0.088588075 0.00031733274 -0.00094356677 0.053223798 -0.00024471631)
(0.0012152356 0.089504419 0.00031138795 -0.00097720872 0.053079446 -0.00023802685)
(0.0012326255 0.090381918 0.00031029424 -0.0010061547 0.052926651 -0.00022647075)
(0.0012431993 0.091200623 0.00031008615 -0.00103091 0.052779275 -0.00021228935)
(0.0012393257 0.091956661 0.00030898431 -0.0010474338 0.052636278 -0.0001918919)
(0.0012136624 0.092632081 0.00030615146 -0.0010508007 0.052507886 -0.0001628617)
(0.0011599745 0.093215495 0.00030177165 -0.0010375305 0.05239513 -0.00012244395)
(0.0010773499 0.093687899 0.00028016781 -0.0010046415 0.0522777 -7.270835e-05)
(0.00097418345 0.09394374 0.00035734501 -0.00095579026 0.052512832 -1.8393191e-05)
(0.0010376432 0.0947609 0.0025096716 -0.0010614252 0.052954353 2.378204e-05)
(0.001662694 0.0947127 0.0022716695 -0.0013369736 -0.049855082 -0.00032572042)
(0.0025408238 0.090946065 0.0001142387 -0.0016517873 -0.073868833 -0.0008890365)
(0.0028288192 0.084386731 0.00040624434 -0.0016359498 -0.095879465 -0.0011928695)
(0.0014167289 0.064593483 0.00086832907 -0.00057529007 -0.13937001 -0.0008414388)
(-0.0010298356 0.043481665 -0.0050734077 0.0005620681 -0.1480459 0.00046776755)
(-0.0020903378 0.036468006 -0.0047584987 0.0015292249 0.14999652 0.00056111296)
(-0.0040693246 0.024388582 -0.0011655235 0.0031157679 0.1523349 0.00095355668)
(-0.0043149087 0.019838652 0.0054645311 0.0032118951 0.1530248 0.0011030136)
(-0.011988838 0.010478271 0.0091050834 0.0080352759 -0.15226598 0.0039535619)
(0.0027035119 0.0060633503 -0.00030465865 0.0030233535 -0.095319207 -0.0057268654)
(-0.013165196 -0.086743493 4.8077098e-05 0.002028193 -0.023180649 0.011137003)
(0.0086910334 0.14681822 0.0015327484 0.0035522454 0.016735505 -0.012243279)
(-0.015268249 -0.14506769 -0.00063634399 -0.0046646935 -0.017090166 0.019932942)
(-0.044205479 0.14201723 -0.0016587567 0.015945307 0.018664776 0.028260172)
(-0.027761328 0.13666721 -0.000715493 0.011692423 0.036262703 0.016068906)
(-0.011679302 0.10716888 0.00017332538 0.0057214172 0.041008945 0.0059578851)
(-0.0038638328 0.092245918 0.00059750697 0.0019994031 0.043145344 0.0018644297)
(-0.0010375826 0.087203942 0.00064454014 0.00040838368 0.044530437 0.00062919894)
(7.193658e-05 0.086045772 0.00058951228 -0.00029045575 0.045381345 0.00021851917)
(0.00057733373 0.086887563 0.00054337995 -0.00066005805 0.045639703 8.2724324e-05)
(0.00078637644 0.088863255 0.00050887558 -0.00085744104 0.045488105 7.1064604e-05)
(0.00087506357 0.091070265 0.00047761615 -0.00096791366 0.045230932 9.2850089e-05)
(0.00095209041 0.093061933 0.00045283258 -0.0010548528 0.044966986 0.00010276237)
(0.001050208 0.094740378 0.00043541733 -0.0011424756 0.044740027 9.226755e-05)
(0.0011637427 0.096188786 0.00042590898 -0.0012338337 0.044521621 7.0091077e-05)
(0.0012846808 0.097481795 0.00041990674 -0.0013264532 0.044304724 4.1772438e-05)
(0.0014008206 0.098654441 0.00041168622 -0.0014139704 0.044087955 1.3149813e-05)
(0.0014898774 0.099712304 0.00040266671 -0.0014850238 0.043910046 -4.8536028e-06)
(0.0015486891 0.1007212 0.00039485526 -0.0015400194 0.043721647 -8.669696e-06)
(0.0015874108 0.10166354 0.00038916563 -0.0015825009 0.04356243 -4.9098606e-06)
(0.001615361 0.10256283 0.00038874113 -0.0016189826 0.043386414 3.6216792e-06)
(0.0016347115 0.10339994 0.00038902739 -0.0016497204 0.04320948 1.5008959e-05)
(0.0016381998 0.10417189 0.00038784904 -0.001670971 0.043032567 3.277121e-05)
(0.0016186413 0.10486517 0.00038456476 -0.001678213 0.042874372 5.9571633e-05)
(0.0015697616 0.10546886 0.00037925436 -0.0016679392 0.042736794 9.8177579e-05)
(0.0014892611 0.10596528 0.00035511003 -0.0016365504 0.042604775 0.00014728929)
(0.0013949014 0.10628744 0.00044839827 -0.0015966551 0.042931076 0.00020175376)
(0.001445366 0.10687816 0.0023112273 -0.0016725622 0.042686491 0.00022719619)
(0.0019937059 0.10686424 0.0018409745 -0.0018939749 -0.03983259 -9.9730971e-05)
(0.0026616839 0.10313341 -0.00010105801 -0.0020409111 -0.056750546 -0.00062077282)
(0.0028830587 0.09661346 0.00010690545 -0.0020546682 -0.069429878 -0.00082839045)
(0.0016787341 0.08142713 0.00053499377 -0.0012945418 -0.10593546 -0.00038419227)
(-0.0010768203 0.066384985 -0.0057947046 -6.6298702e-05 -0.1383585 0.001143119)
(-0.0026935351 0.055409785 -0.0051217805 0.0011503889 0.14360693 0.0015431462)
(-0.0053959333 0.037141819 -0.0012637527 0.0031065906 0.14986963 0.0022893427)
(-0.0057599689 0.029752896 0.0063641033 0.0033011399 0.15155394 0.002458829)
(-0.014307916 0.016187985 0.0097511158 0.0082212599 -0.13593626 0.006086656)
(0.0027568574 0.0081591689 -0.00026891281 0.0026615532 -0.085137566 -0.0054184106)
(-0.0084093218 -0.074071786 1.9548388e-05 -0.0007711226 -0.013511396 0.0091804444)
(-0.017328902 0.14623414 0.00063234957 0.024433781 0.012519562 -0.0071048784)
(0.0024270141 -0.14461219 0.00028874827 -0.020616641 -0.015639201 0.018189627)
(-0.041472203 0.12505109 -0.0015163124 0.012706592 0.012433267 0.028765611)
(-0.027086413 0.13604488 -0.00066882985 0.010878935 0.027288398 0.016207478)
(-0.012701943 0.1137027 0.00014511565 0.0061647113 0.030910707 0.0065372321)
(-0.0048892846 0.10068363 0.00055244331 0.0025145396 0.03255319 0.002374745)
(-0.0016313801 0.095701112 0.00060869671 0.00063771723 0.033787673 0.00099366284)
(-0.00020978308 0.094291525 0.00056156948 -0.00028387379 0.034660412 0.00049365687)
(0.00050226453 0.094859991 0.00052131102 -0.00080296872 0.034981098 0.00030070419)
(0.00083338516 0.096606223 0.0004912666 -0.0010885031 0.034873897 0.00025511791)
(0.00098318311 0.098655206 0.00046350935 -0.0012436468 0.034652135 0.00026046369)
(0.0010909345 0.10053793 0.00044141098 -0.0013532686 0.034416699 0.00026233406)
(0.0012088713 0.10213621 0.00042636526 -0.0014555278 0.03421472 0.00024665656)
(0.0013390142 0.10351412 0.00041888917 -0.0015585979 0.034011445 0.00021958371)
(0.0014742882 0.10473989 0.00041422578 -0.0016607871 0.033798716 0.00018649881)
(0.0016024732 0.10584922 0.00040619258 -0.0017560262 0.0335799 0.00015355303)
(0.0017033792 0.10685648 0.000396973 -0.0018350398 0.033407807 0.00013166057)
(0.0017736596 0.10781836 0.00038872105 -0.0018976565 0.033226677 0.00012399694)
(0.0018226154 0.10872437 0.00038315971 -0.0019472658 0.033081941 0.00012465044)
(0.0018592242 0.1095886 0.00038317296 -0.001989381 0.032913437 0.00013015677)
(0.0018852994 0.11039395 0.0003837164 -0.0020241612 0.03273585 0.00013886181)
(0.001894132 0.11113814 0.00038220414 -0.0020483462 0.032552618 0.00015421421)
(0.001878811 0.11181192 0.0003782759 -0.0020579415 0.032389151 0.00017913052)
(0.0018330154 0.11240509 0.00037182564 -0.0020494414 0.03224795 0.00021642595)
(0.0017533935 0.11290204 0.00034631812 -0.002019086 0.032125227 0.00026569241)
(0.0016640537 0.11326426 0.0004526332 -0.0019846384 0.032517735 0.00032058473)
(0.0016978136 0.11368508 0.0019495278 -0.0020290387 0.03165646 0.00033122514)
(0.0021608165 0.1136988 0.0014266717 -0.0021950906 -0.029092242 3.4274112e-05)
(0.0027278046 0.11048946 -0.00020666623 -0.0023247086 -0.040643278 -0.00040309599)
(0.0028185328 0.10460026 -9.5631792e-05 -0.0022000709 -0.047168305 -0.00061846185)
(0.0016684649 0.090971621 0.0002354008 -0.0015184479 -0.071421415 -0.00015001702)
(-0.00088557089 0.07733466 -0.0045888336 -0.00045305002 -0.097120944 0.0013386209)
(-0.0028757161 0.070258901 -0.0044193162 0.0006450365 0.11320622 0.0022306796)
(-0.0070583854 0.054972245 -0.0012417373 0.0031052187 0.14376316 0.0039531667)
(-0.007717273 0.04381905 0.0071999671 0.0035818601 0.14685602 0.004135413)
(-0.015613209 0.021746495 0.0092055932 0.0080161037 -0.10768707 0.007597105)
(0.0027910957 0.011303221 -0.00022003124 0.002425627 -0.075483433 -0.0052167227)
(-0.0043774914 -0.055524532 3.0998034e-06 -0.0026579335 -0.0065731317 0.007035425)
(-0.050193968 0.14031668 -0.00043741444 0.047877908 0.0096511198 0.0023160596)
(0.044125632 -0.13246606 0.002444582 -0.066631019 -0.014137132 0.022505387)
(-0.065692365 0.10434687 -0.0024411617 0.014427744 0.006243751 0.051264621)
(-0.0259601 0.12816441 -0.00062987932 0.0096961482 0.019812742 0.016263952)
(-0.013917079 0.11621689 8.3911578e-05 0.0067745099 0.022337538 0.0071425689)
(-0.0063796783 0.1065605 0.00046882119 0.0034235503 0.023277969 0.002956128)
(-0.0026671989 0.10207788 0.00053545109 0.0012766387 0.024154159 0.0013905602)
(-0.00084583145 0.10048991 0.00049401688 8.5581703e-05 0.024924107 0.00076024975)
(0.00014303355 0.10073612 0.00045582036 -0.00062470189 0.025272934 0.00048166835)
(0.00063939873 0.10215743 0.00042825458 -0.0010249753 0.025231828 0.00038557657)
(0.00087289597 0.10395222 0.00040389915 -0.0012391336 0.025076856 0.00036623768)
(0.0010223957 0.10564771 0.00038499102 -0.0013786149 0.024900134 0.00035621913)
(0.0011661317 0.10710445 0.00037281788 -0.0014993313 0.024747303 0.00033319958)
(0.0013168164 0.10836245 0.00036766552 -0.001616541 0.024582778 0.00029972459)
(0.0014694089 0.1094797 0.0003645968 -0.0017301411 0.024398405 0.00026073223)
(0.0016121978 0.11049054 0.00035722335 -0.0018347557 0.024202121 0.00022255785)
(0.001727334 0.11141521 0.000348196 -0.0019231278 0.024054018 0.00019579381)
(0.001811191 0.1123006 0.00033985377 -0.0019945974 0.023899512 0.00018340642)
(0.001872049 0.11314247 0.00033468519 -0.0020522128 0.023783572 0.00018016381)
(0.001918413 0.1139476 0.00033522737 -0.0021005876 0.023640102 0.00018217459)
(0.0019519795 0.11470134 0.00033619196 -0.0021399395 0.02348044 0.00018796002)
(0.001966781 0.11540181 0.00033460242 -0.0021675906 0.023310288 0.00020080959)
(0.0019562465 0.11604306 0.0003303514 -0.0021800379 0.023158618 0.00022379144)
(0.0019139721 0.11661554 0.00032311108 -0.0021737465 0.023028304 0.00025977443)
(0.0018358754 0.11710555 0.00029845736 -0.002145073 0.022929282 0.0003091976)
(0.0017483019 0.11749162 0.00040972066 -0.0021126942 0.023346107 0.00036439231)
(0.0017649367 0.11781897 0.00152175 -0.0021320504 0.022061571 0.00036711362)
(0.0021387019 0.11785513 0.0010419159 -0.0022456953 -0.019812022 0.00010699336)
(0.0026156881 0.11526993 -0.0002413853 -0.0023418348 -0.027487639 -0.00027385328)
(0.0026044502 0.11022348 -0.00022438153 -0.0021348024 -0.030183033 -0.00046964782)
(0.0015014581 0.098649363 1.0818295e-05 -0.0014338704 -0.045221902 -6.7587708e-05)
(-0.0008253501 0.08562848 -0.003134496 -0.00041115534 -0.06186621 0.0012365054)
(-0.0028665198 0.076295278 -0.0030272346 0.00067754442 0.072615115 0.0021889753)
(-0.0072045081 0.061083844 -0.00096675272 0.0029204833 0.10044767 0.0042840248)
(-0.0080716988 0.049541021 0.0057672257 0.0035693213 0.10524772 0.0045023775)
(-0.017004469 0.028226377 0.0082771159 0.0082502464 -0.081718188 0.0087542224)
(0.0029604518 0.015773674 -0.0001685885 0.0020837013 -0.06616906 -0.0050441531)
(-0.00098512352 -0.038400134 4.5193992e-05 -0.0040457531 -0.0026901329 0.0050308766)
(-0.062718047 0.093948266 -0.0010124059 0.050298664 0.0056911939 0.012419383)
(0.14207454 0.012494198 0.0069711182 -0.16048114 -0.0014263247 0.018406596)
(-0.08766039 -0.01238336 -0.0032464662 0.0087375479 -0.0071179507 0.078922842)
(-0.023658316 0.11448633 -0.00055945713 0.0075231397 0.014256473 0.016135176)
(-0.01489041 0.11467686 1.4685739e-05 0.0071537134 0.01617442 0.0077366964)
(-0.0080442892 0.10954677 0.00037254166 0.0044421186 0.016501088 0.0036021707)
(-0.0039867169 0.10610432 0.00045208084 0.0021328448 0.016938566 0.0018538721)
(-0.0017369529 0.10453367 0.00041589982 0.00066497098 0.017518279 0.0010719819)
(-0.0004277406 0.10451888 0.00037664697 -0.00026159026 0.017854656 0.00068933086)
(0.00026610328 0.10561675 0.00034937812 -0.00079695541 0.017876883 0.00053085213)
(0.00060381337 0.10713743 0.00032774993 -0.0010837838 0.017794788 0.0004799704)
(0.00080716485 0.10862582 0.0003120204 -0.0012614561 0.017684471 0.00045429126)
(0.00098397476 0.10992529 0.00030278516 -0.0014055984 0.017586522 0.00042162361)
(0.0011600023 0.11105215 0.00029995327 -0.0015402182 0.017467943 0.00038021584)
(0.0013335828 0.11205306 0.00029859885 -0.0016678001 0.017321004 0.00033421731)
(0.0014941854 0.11295977 0.00029238029 -0.0017841179 0.01715737 0.00028993248)
(0.0016262745 0.11379533 0.00028401788 -0.0018836755 0.017038862 0.00025740104)
(0.001726054 0.11459836 0.00027604722 -0.0019655826 0.016917146 0.0002395286)
(0.0018007701 0.11536927 0.00027152898 -0.0020324315 0.016832536 0.00023166147)
(0.0018584431 0.11611053 0.0002726768 -0.0020881789 0.016719431 0.00022973581)
(0.0019008693 0.11680992 0.0002742345 -0.0021332222 0.01658479 0.00023235287)
(0.0019228959 0.11746571 0.00027292113 -0.0021654755 0.016436135 0.00024257962)
(0.0019183017 0.11807396 0.00026878422 -0.0021818284 0.016303525 0.00026352674)
(0.0018805722 0.11862559 0.00026134808 -0.0021786936 0.016190345 0.00029812141)
(0.0018051523 0.11910821 0.00023953262 -0.0021526133 0.016119463 0.00034746103)
(0.0017173582 0.1195079 0.0003465113 -0.0021201735 0.016520094 0.00040281535)
(0.0017188212 0.11980983 0.0011261818 -0.0021234133 0.015039419 0.00040459205)
(0.0020135685 0.11986934 0.00072971598 -0.0021947984 -0.013071739 0.00018122992)
(0.0023983702 0.11783462 -0.0002354466 -0.0022393469 -0.01826158 -0.00015902332)
(0.0023182514 0.11359908 -0.0002951272 -0.0019955909 -0.018938783 -0.00032266052)
(0.0012881727 0.10397092 -0.00013097169 -0.0013169529 -0.027864503 2.8780239e-05)
(-0.00084805494 0.092134509 -0.0019190973 -0.00031579769 -0.03781587 0.0011638526)
(-0.0029235 0.081614786 -0.0018561713 0.00082910699 0.044718861 0.002094393)
(-0.0073587524 0.066735073 -0.00071047633 0.0030490041 0.068265757 0.0043097482)
(-0.0083556356 0.055186391 0.0043191682 0.0037869519 0.073336571 0.0045686837)
(-0.018224606 0.034711215 0.0071352823 0.0085416217 -0.060323818 0.0096829846)
(0.0032283899 0.021153701 -0.00012512347 0.0017817579 -0.057777123 -0.0050101479)
(0.0013590211 -0.025310057 0.00010599915 -0.0046530468 -0.00076300861 0.0032940256)
(-0.059403463 0.031603538 -0.0011677661 0.039756734 0.0018085195 0.019646729)
(0.070237589 0.13690856 0.0035034608 -0.063862624 0.0099147228 -0.0063749652)
(-0.064378545 -0.096815334 -0.0021652029 -0.01169132 -0.012697175 0.076069864)
(-0.020356328 0.09576008 -0.00047070909 0.0046029137 0.0099130732 0.015753414)
(-0.015380526 0.10911496 -4.9662253e-05 0.0071103452 0.011703943 0.0082701805)
(-0.0097478486 0.10982271 0.00027400271 0.0054466036 0.011642551 0.0043012449)
(-0.005546927 0.10818824 0.00036981822 0.0031517485 0.011650982 0.0023951785)
(-0.0028705253 0.10698295 0.00034166859 0.0014233669 0.011985035 0.0014471584)
(-0.0012020431 0.10686192 0.00030027397 0.00025933362 0.012268399 0.00094270947)
(-0.00027613817 0.10769751 0.00027152112 -0.00043272265 0.012338271 0.00070886082)
(0.00019045085 0.108963 0.00025159791 -0.00080854991 0.012322332 0.00061809906)
(0.00046358154 0.11025072 0.00023860039 -0.0010353023 0.012275098 0.00057172078)
(0.00068359568 0.11139639 0.00023200806 -0.0012097931 0.012229304 0.00052619747)
(0.00089187121 0.11239551 0.00023123782 -0.0013665125 0.012156127 0.00047464131)
(0.0010917506 0.11328355 0.00023152158 -0.0015117017 0.012048218 0.00041995103)
(0.001274692 0.1140893 0.00022676129 -0.0016428304 0.011919886 0.00036813836)
(0.0014275716 0.11483678 0.00021940019 -0.001756098 0.01183073 0.00032852648)
(0.001546646 0.11555808 0.00021213117 -0.0018506488 0.011741701 0.00030400275)
(0.0016381683 0.11625708 0.00020838432 -0.0019286037 0.011686009 0.00029043538)
(0.0017096765 0.11693432 0.00021010252 -0.0019934266 0.011602908 0.00028375011)
(0.0017632026 0.11757994 0.00021230527 -0.0020457633 0.011494642 0.0002825607)
(0.0017944603 0.1181924 0.00021151094 -0.0020841199 0.011370019 0.00028965965)
(0.0017976079 0.11876897 0.00020781807 -0.002105733 0.011258467 0.00030812508)
(0.0017660169 0.11930097 0.0002007454 -0.0021069631 0.01116421 0.00034094615)
(0.0016947759 0.11977698 0.00018313201 -0.0020844908 0.011120474 0.00038971492)
(0.0016066621 0.12018625 0.00027815058 -0.002051859 0.011473332 0.00044519692)
(0.0015942116 0.12049755 0.00078676097 -0.002044414 0.0099849507 0.00045020245)
(0.0018182758 0.12058558 0.00048020457 -0.0020801683 -0.0082741805 0.00026189256)
(0.0021191419 0.11900914 -0.00021429639 -0.0020825487 -0.011827875 -3.6593212e-05)
(0.0019858033 0.11549526 -0.00033148536 -0.0018192685 -0.01153076 -0.00016653481)
(0.0010338682 0.10754684 -0.00021269082 -0.0011831571 -0.016393896 0.00014928884)
(-0.00094128428 0.097065274 -0.00096816781 -0.00021966037 -0.021670562 0.0011609447)
(-0.0030030051 0.08625145 -0.00091323696 0.00093853117 0.025822214 0.0020644739)
(-0.0074802935 0.071911212 -0.00048029403 0.0031782709 0.044390249 0.0043020226)
(-0.008531381 0.060617945 0.002965828 0.003953434 0.049027796 0.0045779469)
(-0.01919254 0.041077136 0.0058772575 0.0086794131 -0.042681753 0.010513127)
(0.003620809 0.027281109 -9.2126942e-05 0.0014696305 -0.049637818 -0.0050904395)
(0.0017732866 -0.01695611 0.00012766957 -0.0037286746 7.4569312e-05 0.001955388)
(-0.045565474 -0.020824066 -0.00086335691 0.023622867 -0.0010483242 0.021942608)
(0.024986629 0.14910411 0.0016483846 -0.014983975 0.010288653 -0.010002654)
(-0.037240902 -0.11720406 -0.0011166869 -0.033379016 -0.0120351 0.070619918)
(-0.016220046 0.072920814 -0.00036659203 0.0011726758 0.0063985439 0.01504737)
(-0.015138516 0.099049501 -9.9722971e-05 0.006455221 0.0083657393 0.0086832955)
(-0.011303825 0.10700885 0.00017871274 0.006276475 0.0082005882 0.0050273503)
(-0.0072812182 0.10826741 0.00029194386 0.0042670173 0.0078679018 0.0030142009)
(-0.0042331308 0.10800403 0.00027696788 0.0023390497 0.0079341344 0.0018940811)
(-0.0021814701 0.10805971 0.00023467331 0.000929934 0.00812595 0.0012515361)
(-0.00099112087 0.10876312 0.00020333361 6.2429943e-05 0.0082186145 0.00092869093)
(-0.00036867328 0.10982985 0.00018385412 -0.00041989514 0.008253637 0.00078856841)
(-6.692631e-06 0.11094501 0.00017273014 -0.00070874925 0.0082591904 0.00071544188)
(0.00026918661 0.11195447 0.00016812892 -0.00092234241 0.0082576782 0.0006531558)
(0.00051844037 0.11283909 0.00016889076 -0.0011071715 0.0082246465 0.00058873115)
(0.00075128642 0.11362457 0.0001705061 -0.0012745372 0.0081528161 0.00052325075)
(0.00096213789 0.11433714 0.00016726527 -0.0014242705 0.00805781 0.00046213258)
(0.0011405229 0.11500105 0.00016106795 -0.0015543688 0.0079942443 0.00041384589)
(0.0012830534 0.11564356 0.00015466613 -0.0016642878 0.0079338165 0.00038123445)
(0.0013950939 0.11627143 0.00015166343 -0.001755751 0.0079016123 0.00036065708)
(0.0014836963 0.11688499 0.00015379261 -0.001831825 0.0078445093 0.00034812864)
(0.0015512032 0.11747692 0.00015655249 -0.0018934346 0.0077602154 0.0003422314)