0.4330720516 	1.029158714e-07 	-2.568061003e-10 	1.537140385e-13 	1.028302166e-07 	-2.816211205e-11 	1.96022973e-10
0.4334390969 	2.679050687e-06 	-3.729705395e-08 	1.630590188e-11 	2.689923192e-06 	-4.741473104e-10 	5.127741229e-09
0.4338061526 	2.003148402e-05 	-7.696282763e-07 	2.758279268e-10 	2.032176076e-05 	-2.815413987e-09 	3.873892414e-08
0.4341732161 	7.7803441e-05 	-6.052590585e-06 	1.845898009e-09 	8.023047692e-05 	-9.116426706e-09 	1.529415879e-07
0.4345402851 	0.0002081417764 	-2.767810137e-05 	7.21302895e-09 	0.0002194896979 	-2.024710927e-08 	4.184083682e-07
0.4349073572 	0.0004395835644 	-8.814045068e-05 	1.94315006e-08 	0.0004760448586 	-3.379544918e-08 	9.074738102e-07
0.43527443 	0.0007866638067 	-0.0002144787387 	3.941856921e-08 	0.0008756694541 	-4.321940374e-08 	1.669269359e-06
0.435641501 	0.001241509202 	-0.0004222079463 	6.390113752e-08 	0.001416753283 	-4.033866492e-08 	2.700725523e-06
0.4360085679 	0.001774131314 	-0.0007021167206 	8.703562571e-08 	0.002065085944 	-2.027120836e-08 	3.936627771e-06
0.4363756283 	0.002343415973 	-0.001024205441 	1.042041235e-07 	0.002766631025 	1.588012268e-08 	5.273967679e-06
0.4367426799 	0.002911244402 	-0.001354392501 	1.138764078e-07 	0.003468784876 	6.29045962e-08 	6.612468073e-06
0.4371097202 	0.003450870091 	-0.001667817829 	1.167784281e-07 	0.004134368379 	1.149996255e-07 	7.881255218e-06
0.4374767469 	0.003947732456 	-0.001952310871 	1.158024384e-07 	0.004743848713 	1.675800059e-07 	9.043094132e-06
0.4378437577 	0.004397340009 	-0.002201248008 	1.023087804e-07 	0.005290214289 	2.194754187e-07 	1.008461877e-05
0.4382107501 	0.004801511 	-0.002411690301 	8.633586406e-08 	0.005774264396 	2.662450283e-07 	1.100735281e-05
0.438577722 	0.005209751598 	-0.002616103432 	7.757341937e-08 	0.006257840164 	3.126230325e-07 	1.192918263e-05
0.4391468818 	0.005650073673 	-0.002836339711 	6.454673266e-08 	0.006776439158 	3.642067978e-07 	1.291777645e-05
0.439737949 	0.006064130413 	-0.003043201768 	4.849332396e-08 	0.007260427291 	4.160807459e-07 	1.384039235e-05
0.4403517538 	0.006417276439 	-0.003219284819 	3.140010233e-08 	0.007669077118 	4.618943415e-07 	1.46193925e-05
0.440989156 	0.006716989417 	-0.003368219371 	1.403042808e-08 	0.008011494195 	5.010537442e-07 	1.527213461e-05
0.4416510461 	0.006970235607 	-0.003493636955 	-3.075927992e-09 	0.008296359467 	5.332480812e-07 	1.5815167e-05
0.4423383457 	0.007183248229 	-0.003598777968 	-1.934497221e-08 	0.008531425272 	5.582529359e-07 	1.626326776e-05
0.4430520083 	0.007361485416 	-0.003686368711 	-3.435190713e-08 	0.008723413971 	5.75963634e-07 	1.662925158e-05
0.4437930207 	0.007509663127 	-0.003758775619 	-4.776744712e-08 	0.008878116567 	5.864161053e-07 	1.692415772e-05
0.4445624029 	0.007632006505 	-0.003818117487 	-5.938597686e-08 	0.009000649082 	5.898745205e-07 	1.715773875e-05
0.4453653152 	0.007732126625 	-0.003866206045 	-6.904812931e-08 	0.009095389192 	5.865669384e-07 	1.733833973e-05
0.4462005919 	0.00781287047 	-0.003904484111 	-7.665115933e-08 	0.00916596418 	5.769438611e-07 	1.747287528e-05
0.4470679121 	0.00787680606 	-0.003933821001 	-8.214873546e-08 	0.009215624364 	5.61498092e-07 	1.756754139e-05
0.4479684988 	0.007926873348 	-0.003951423886 	-8.737021656e-08 	0.009246732685 	5.407898751e-07 	1.762684249e-05
0.4489036214 	0.007964681498 	-0.003959951715 	-9.079364479e-08 	0.009261976426 	5.1532573e-07 	1.76559013e-05
0.4498745974 	0.00799112055 	-0.00396385006 	-9.108727899e-08 	0.00926368815 	4.859025585e-07 	1.765916432e-05
0.4508827941 	0.008007667712 	-0.003962198479 	-8.971050804e-08 	0.009252964594 	4.534434659e-07 	1.763872225e-05
0.4519296308 	0.008015335395 	-0.00395555346 	-8.669893126e-08 	0.009231046694 	4.186366883e-07 	1.759694064e-05
0.4530165804 	0.008014996256 	-0.003944405545 	-8.23366196e-08 	0.009199048099 	3.821597486e-07 	1.753594242e-05
0.4541451715 	0.008007416053 	-0.003929187285 	-7.688675096e-08 	0.009157939588 	3.446486621e-07 	1.745757817e-05
0.4553169909 	0.007993262996 	-0.00391027118 	-7.058675133e-08 	0.009108562175 	3.066723251e-07 	1.73634511e-05
0.4565342942 	0.007973077111 	-0.003888017416 	-6.365567836e-08 	0.009051553832 	2.687118948e-07 	1.725477735e-05
0.4578056168 	0.00794729583 	-0.003862637433 	-5.621539119e-08 	0.008987466777 	2.310012684e-07 	1.713260961e-05
0.4591255744 	0.007916369148 	-0.003834381139 	-4.849427435e-08 	0.008916935978 	1.942371365e-07 	1.699815831e-05
0.4604960164 	0.007880707693 	-0.003803583063 	-4.064830579e-08 	0.008840534274 	1.587917127e-07 	1.685251543e-05
0.4619188624 	0.007840618927 	-0.003770449724 	-3.279549865e-08 	0.008758701623 	1.249695359e-07 	1.669651965e-05
0.4633961043 	0.007796356362 	-0.00373516892 	-2.503507702e-08 	0.00867180253 	9.302481734e-08 	1.653086583e-05
0.4649298096 	0.00774811593 	-0.0036979006 	-1.744661017e-08 	0.008580148185 	6.316556995e-08 	1.635614717e-05
0.4665221242 	0.007696036861 	-0.003658768176 	-1.009177103e-08 	0.008483985404 	3.555190163e-08 	1.617283418e-05
0.4681759639 	0.007640206691 	-0.003617684298 	-3.011829546e-09 	0.008383244729 	1.029946794e-08 	1.598079446e-05
0.4689223463 	0.007610984684 	-0.003597920561 	1.111698499e-06 	0.008332237995 	-2.800208553e-06 	1.588356144e-05
0.4699006862 	0.007572630748 	-0.003572001548 	-2.04882023e-09 	0.008265271137 	1.20025247e-08 	1.5755904e-05
0.4725471771 	0.007485539511 	-0.003513757487 	-6.741976381e-09 	0.008116787488 	3.966050232e-08 	1.54728529e-05
0.4752520693 	0.007386326656 	-0.003446472988 	-1.041221382e-08 	0.007951297091 	6.106412216e-08 	1.51573822e-05
0.4780166659 	0.007282203373 	-0.003378711997 	-1.330627604e-08 	0.007782678769 	7.703672458e-08 	1.483594882e-05
0.4808487312 	0.007173163091 	-0.003310060274 	-1.568012108e-08 	0.007610781945 	8.833326068e-08 	1.450826569e-05
0.4837518804 	0.007059121365 	-0.003240410103 	-1.77845605e-08 	0.007435584787 	9.56148131e-08 	1.417429122e-05
0.4867190401 	0.006940089026 	-0.003169752941 	-1.988673725e-08 	0.007257208795 	9.952910477e-08 	1.3834257e-05
0.4897516453 	0.006815876634 	-0.003098002301 	-2.227072612e-08 	0.007075498368 	1.008017335e-07 	1.348786642e-05
0.4928592651 	0.006686087995 	-0.003024877179 	-2.518452527e-08 	0.006890056527 	1.001227695e-07 	1.313436273e-05
0.4960421684 	0.006550493399 	-0.002950147681 	-2.885798048e-08 	0.006700663681 	9.808760795e-08 	1.277332733e-05
0.4992952225 	0.006409017631 	-0.002873696344 	-3.354199665e-08 	0.006507275307 	9.53057148e-08 	1.240467534e-05
0.5026200097 	0.006261339945 	-0.002795298154 	-3.947308834e-08 	0.006309554756 	9.236183733e-08 	1.202776501e-05
0.5060325786 	0.006107064859 	-0.002714590278 	-4.68225277e-08 	0.006107111941 	8.975230594e-08 	1.164185274e-05
0.5095204362 	0.005946197726 	-0.00263140212 	-5.576607679e-08 	0.005899961932 	8.791516252e-08 	1.124696725e-05
0.513085178 	0.005778680452 	-0.00254560878 	-6.651145007e-08 	0.005688026678 	8.727227741e-08 	1.084295975e-05
0.5167386142 	0.005604263461 	-0.002456889798 	-7.914363651e-08 	0.005471114432 	8.81140048e-08 	1.042946472e-05
0.5204765886 	0.005423059641 	-0.002365089195 	-9.372254958e-08 	0.005249338228 	9.059176191e-08 	1.000669764e-05
0.5242969617 	0.005235264481 	-0.002270150384 	-1.103118712e-07 	0.005022904489 	9.479670444e-08 	9.575052e-06
0.5282107365 	0.005040970457 	-0.002171902917 	-1.288235419e-07 	0.004792004616 	1.006365943e-07 	9.134892668e-06
0.5322151942 	0.004840610185 	-0.00207032793 	-1.489822512e-07 	0.004557124717 	1.077566751e-07 	8.687146298e-06
0.5363079617 	0.004634718432 	-0.001965585649 	-1.705154733e-07 	0.004318906773 	1.153546657e-07 	8.233036687e-06
0.5405018708 	0.004424054356 	-0.001857652006 	-1.936007379e-07 	0.004078428198 	1.215334484e-07 	7.774617685e-06
0.5447903375 	0.004210297262 	-0.001746422534 	-2.181212517e-07 	0.003837712947 	1.246194773e-07 	7.315747514e-06
0.5491756798 	0.003995348692 	-0.001631906418 	-2.430146672e-07 	0.003598930879 	1.248504993e-07 	6.860562526e-06
0.5536677967 	0.003780935924 	-0.001514279592 	-2.672462079e-07 	0.003363824341 	1.227925872e-07 	6.41238412e-06
0.5582590762 	0.003568926855 	-0.001393951738 	-2.901005853e-07 	0.003133893265 	1.183166284e-07 	5.974071584e-06
0.5629595915 	0.003361145574 	-0.001271357155 	-3.107678705e-07 	0.002910436013 	1.110165169e-07 	5.548099955e-06
0.5677675818 	0.003159530902 	-0.001147066614 	-3.283927885e-07 	0.002694667263 	1.002971736e-07 	5.136784748e-06
0.5726852873 	0.002966110713 	-0.00102179012 	-3.422654589e-07 	0.00248777017 	8.540887591e-08 	4.742381384e-06
0.5777189796 	0.002783087468 	-0.0008963222489 	-3.517873253e-07 	0.002291019557 	6.520026772e-08 	4.367320032e-06
0.5828648808 	0.00261303045 	-0.0007715892186 	-3.566965114e-07 	0.002105935331 	3.821751288e-08 	4.014498055e-06
0.5881337377 	0.002458822843 	-0.0006485205197 	-3.570870842e-07 	0.00193433284 	3.053593986e-09 	3.687376012e-06
0.5935192975 	0.00232352694 	-0.0005280414442 	-3.534862758e-07 	0.001778177647 	-4.101690934e-08 	3.389700814e-06
0.5990329114 	0.002209892833 	-0.0004109111422 	-3.468427386e-07 	0.001639242503 	-9.360598971e-08 	3.124851815e-06
0.6046691848 	0.002119971774 	-0.0002977182882 	-3.383345552e-07 	0.001518519162 	-1.528931059e-07 	2.894719574e-06
0.6104382666 	0.002054831263 	-0.000188878152 	-3.291750644e-07 	0.001415642823 	-2.162414447e-07 	2.698608679e-06
0.6163360465 	0.002014757586 	-8.489227096e-05 	-3.209692772e-07 	0.001327825659 	-2.811929217e-07 	2.531204756e-06
0.622372405 	0.00199998496 	1.441534245e-05 	-3.166981917e-07 	0.001252607995 	-3.511602425e-07 	2.387818982e-06
0.6285440534 	0.002008803835 	0.000109751611 	-3.166455439e-07 	0.001191949541 	-4.294789616e-07 	2.272187111e-06
0.6348588878 	0.002036777159 	0.0002011918628 	-3.151725361e-07 	0.001147958308 	-5.005828468e-07 	2.188327593e-06
0.6413166936 	0.002079315608 	0.00028853544 	-3.198477096e-07 	0.00112000408 	-5.638534736e-07 	2.135039065e-06
0.6479223586 	0.002132688874 	0.0003713800311 	-3.341355637e-07 	0.001106937131 	-6.196152879e-07 	2.11012983e-06
0.6546790927 	0.002193732461 	0.0004487482253 	-3.631725142e-07 	0.00110804589 	-6.604267793e-07 	2.112243431e-06
0.6615887637 	0.002259517497 	0.0005198935575 	-3.888450125e-07 	0.001123386999 	-6.909611912e-07 	2.141487848e-06
0.6686576766 	0.002326473207 	0.0005842683138 	-4.593793205e-07 	0.00115626915 	-6.174176774e-07 	2.204170368e-06
0.6758867539 	0.00239100631 	0.0006393104114 	-4.998638138e-07 	0.001213329184 	-5.262093529e-07 	2.312942651e-06
0.6832802654 	0.002457376639 	0.0006901333328 	-4.56141869e-07 	0.001288876644 	-5.251318051e-07 	2.456957109e-06
0.6908430541 	0.002532009159 	0.0007435485553 	-4.194411396e-07 	0.001372743227 	-5.322936656e-07 	2.616830124e-06
0.6985775027 	0.002616053595 	0.0007989156437 	-3.858444863e-07 	0.001464026776 	-5.379804409e-07 	2.790841941e-06
0.7064877735 	0.002710088204 	0.0008565326367 	-3.499084486e-07 	0.001562952228 	-5.344526306e-07 	2.979421346e-06
0.714578906 	0.002812812418 	0.0009164791127 	-3.142491163e-07 	0.001669271025 	-5.253159658e-07 	3.182094523e-06
0.7226704917 	0.002921660066 	0.0009779375618 	-2.794878797e-07 	0.001781247249 	-5.111631999e-07 	3.395552329e-06
0.7305831978 	0.003035499771 	0.001040410634 	-2.463461141e-07 	0.001897691309 	-4.928919878e-07 	3.617527071e-06
0.7383213657 	0.003154503587 	0.001104095271 	-2.149617812e-07 	0.002018668113 	-4.711888489e-07 	3.848142483e-06
0.7458887541 	0.003278840243 	0.001169358696 	-1.852519372e-07 	0.002144660107 	-4.466827744e-07 	4.088318242e-06
0.7532888669 	0.0034086494 	0.001236622049 	-1.570632613e-07 	0.002276375446 	-4.199310187e-07 	4.339404285e-06
0.7605257178 	0.003544024485 	0.001306300034 	-1.30265955e-07 	0.002414633114 	-3.914566869e-07 	4.602961828e-06
0.7676028589 	0.003685108479 	0.00137876279 	-1.048333269e-07 	0.002560251823 	-3.618129235e-07 	4.88055156e-06
0.7745236402 	0.003832163617 	0.001454272534 	-8.088914361e-08 	0.002713847978 	-3.316205149e-07 	5.173348522e-06
0.7812918599 	0.003985571151 	0.001532947136 	-5.868698697e-08 	0.002875681667 	-3.015825104e-07 	5.481848512e-06
0.7879106281 	0.004145743611 	0.001614738517 	-3.853884819e-08 	0.003045545181 	-2.724481215e-07 	5.805655581e-06
0.7943833569 	0.004312993904 	0.001699421764 	-2.074239889e-08 	0.003222702959 	-2.449554214e-07 	6.143367544e-06
0.8007133179 	0.004487342374 	0.00178661497 	-5.494721213e-09 	0.003405968696 	-2.197569119e-07 	6.492722974e-06
0.8069035651 	0.00466836548 	0.001875798212 	7.150495923e-09 	0.003593814406 	-1.973210384e-07 	6.850809107e-06
0.8129573437 	0.004855113753 	0.001966346342 	1.728965296e-08 	0.00378453805 	-1.778885516e-07 	7.214381382e-06
0.8188775067 	0.0050461164 	0.002057569405 	2.514773052e-08 	0.003976436699 	-1.614281066e-07 	7.580193543e-06
0.8246671692 	0.005239465034 	0.002148748092 	3.102472606e-08 	0.00416793085 	-1.47687012e-07 	7.945234617e-06
0.8303290711 	0.005432877793 	0.002239139686 	3.523497087e-08 	0.004357589083 	-1.362796618e-07 	8.306775922e-06
0.8358661516 	0.005623892761 	0.002327994422 	3.808742932e-08 	0.004544102044 	-1.267454107e-07 	8.662321465e-06
0.8412810668 	0.005810458722 	0.002414724789 	3.993096004e-08 	0.004726524276 	-1.185101868e-07 	9.010068939e-06
0.8465766007 	0.005991431039 	0.002499051032 	4.108182633e-08 	0.004904474324 	-1.110597196e-07 	9.349291189e-06
0.8517553123 	0.006166355744 	0.002580896075 	4.171586004e-08 	0.005077893934 	-1.041441254e-07 	9.679877166e-06
0.856819831 	0.006335054484 	0.002660231588 	4.192148445e-08 	0.005246755015 	-9.767045721e-08 	1.000177332e-05
0.8617726361 	0.00649745906 	0.002737032888 	4.176795106e-08 	0.005410991234 	-9.156348148e-08 	1.03148532e-05
0.8666162107 	0.00665355127 	0.0028112773 	4.131888651e-08 	0.005570520887 	-8.576081152e-08 	1.061896106e-05
0.8713529509 	0.006803339751 	0.002882945069 	4.062938833e-08 	0.005725258322 	-8.020417717e-08 	1.091393362e-05
0.8759852077 	0.006946847202 	0.002952024116 	3.975287627e-08 	0.005875137176 	-7.484516717e-08 	1.119964437e-05
0.880515291 	0.007084111589 	0.003018513241 	3.873528895e-08 	0.006020118567 	-6.963918702e-08 	1.147601919e-05
0.8849454361 	0.007215190053 	0.003082424137 	3.761801741e-08 	0.006160196571 	-6.455076232e-08 	1.17430468e-05
0.8892778538 	0.007340157787 	0.00314378373 	3.6437748e-08 	0.006295407967 	-5.954944934e-08 	1.20007973e-05
0.8935146867 	0.007459118106 	0.003202631735 	3.522273283e-08 	0.006425815644 	-5.461287869e-08 	1.224939058e-05
0.8976580383 	0.007572195093 	0.003259021597 	3.399845991e-08 	0.006551520032 	-4.972521151e-08 	1.248901808e-05
0.9017099707 	0.007679536463 	0.003313017927 	3.278345989e-08 	0.006672646153 	-4.487661331e-08 	1.271991813e-05
0.9056724878 	0.007781312875 	0.003364694333 	3.159075876e-08 	0.006789336702 	-4.006554064e-08 	1.294236275e-05
0.9095475597 	0.007877708525 	0.00341413321 	3.043015703e-08 	0.006901759613 	-3.529635959e-08 	1.315667207e-05
0.9133371104 	0.007968924089 	0.003461422498 	2.930455695e-08 	0.007010091324 	-3.05816826e-08 	1.336318242e-05
0.9170430186 	0.00805516951 	0.003506654502 	2.821269369e-08 	0.007114519303 	-2.594256853e-08 	1.356225117e-05
0.920667126 	0.00813665588 	0.003549924491 	2.714956891e-08 	0.007215243299 	-2.140734311e-08 	1.37542591e-05
0.9242112319 	0.008213595239 	0.003591326907 	2.61040562e-08 	0.007312458928 	-1.701370877e-08 	1.393957911e-05
0.9276770949 	0.008286190319 	0.003630952557 	2.506123615e-08 	0.007406356431 	-1.280788318e-08 	1.411857385e-05
0.9310664373 	0.008354622846 	0.003668884625 	2.400336042e-08 	0.007497115269 	-8.842649031e-09 	1.429158542e-05
0.9343809431 	0.008419046083 	0.003705192216 	2.290915124e-08 	0.007584883425 	-5.17705171e-09 	1.445889592e-05
0.9376222577 	0.00847957028 	0.003739923291 	2.175555776e-08 	0.007669762377 	-1.873352476e-09 	1.462069879e-05
0.9407919922 	0.008536242626 	0.003773096554 	2.052087455e-08 	0.007751793299 	1.008079681e-09 	1.477707253e-05
0.9438917223 	0.008589029552 	0.003804691004 	1.918558298e-08 	0.007830929605 	3.412778955e-09 	1.492792832e-05
0.9469229883 	0.008637796332 	0.003834634178 	1.773342499e-08 	0.007907007018 	5.296181025e-09 	1.507295301e-05
0.9498872971 	0.008682280004 	0.003862790038 	1.615470031e-08 	0.007979720096 	6.628652593e-09 	1.521156435e-05
0.952786123 	0.008722063462 	0.00388894623 	1.444712979e-08 	0.008048594777 	7.398191512e-09 	1.534285864e-05
0.9556209079 	0.008756563647 	0.003912801284 	1.261627708e-08 	0.008112943025 	7.611090632e-09 	1.546552428e-05
0.9583930615 	0.008785036774 	0.003933956861 	1.067618095e-08 	0.008171820698 	7.295103692e-09 	1.557776149e-05
0.9611039632 	0.008805156799 	0.003950590169 	8.648678188e-09 	0.008220037098 	6.446218733e-09 	1.566967535e-05
0.9628687054 	0.008816532816 	0.003961879036 	7.282583336e-09 	0.008254682019 	5.74690985e-09 	1.57357182e-05
0.9645679274 	0.008822207166 	0.003969928285 	5.939099498e-09 	0.008281425255 	4.876677615e-09 	1.578669824e-05
0.9662040588 	0.008823558345 	0.00397595626 	4.636749936e-09 	0.008303878087 	3.923991086e-09 	1.582949958e-05
0.9677794393 	0.008820372765 	0.003979833052 	3.392268552e-09 	0.008321703232 	2.930765359e-09 	1.586347926e-05
0.9692963221 	0.008812362542 	0.003981412864 	2.223903207e-09 	0.008334566602 	1.941674184e-09 	1.588800042e-05
0.9707568771 	0.008799194408 	0.003980536922 	1.151009124e-09 	0.008342119796 	1.003944278e-09 	1.59023989e-05
0.9721631937 	0.008780501709 	0.003977034084 	1.937162656e-10 	0.008343991603 	1.664394544e-10 	1.590596709e-05
0.9724665481 	0.008774987675 	0.003975619719 	-1.161293574e-07 	0.008343049434 	-1.549809378e-07 	1.590417105e-05
0.9735172552 	0.008755886417 	0.003970720473 	6.560289162e-10 	0.008339786712 	6.067899306e-10 	1.58979514e-05
0.9748210246 	0.008724914944 	0.00396139564 	1.34449749e-09 	0.00832907398 	1.174065387e-09 	1.587752995e-05
0.9760763759 	0.008687116113 	0.00394884136 	1.841118407e-09 	0.008311383757 	1.45707163e-09 	1.584380747e-05
0.9772851055 	0.008641974363 	0.003932817972 	2.126975292e-09 	0.008286198952 	1.409689029e-09 	1.579579823e-05
0.9784489433 	0.008588921218 	0.003913060157 	2.186075857e-09 	0.008252945373 	9.918958525e-10 	1.573240767e-05
0.9795695549 	0.00852732491 	0.003889272089 	2.006112644e-09 	0.008210981257 	1.714940395e-10 	1.56524124e-05
0.9806485445 	0.008456477673 	0.003861121459 	1.579287532e-09 	0.008159584186 	-1.074144759e-09 	1.55544353e-05
0.9816874568 	0.008375579843 	0.003828232037 	9.030327282e-10 	0.00809793487 	-2.756494677e-09 	1.543691457e-05
0.9826877791 	0.008283719796 	0.003790174335 	-1.933167761e-11 	0.008025096995 	-4.874438209e-09 	1.529806533e-05
0.9836509437 	0.008179848792 	0.00374645388 	-1.177970188e-09 	0.007939991873 	-7.41295323e-09 	1.513583132e-05
0.9845783298 	0.008062749551 	0.003696496575 	-2.55587823e-09 	0.007841366801 	-1.034182107e-08 	1.494782452e-05
0.9854712656 	0.00793099697 	0.00363963041 	-4.128112327e-09 	0.007727755579 	-1.361414762e-08 	1.473124995e-05
0.9863310299 	0.007782910389 	0.003575063249 	-5.860877505e-09 	0.007597430616 	-1.71645904e-08 	1.448281435e-05
0.9871588541 	0.007616496907 	0.003501856498 	-7.710418957e-09 	0.007448346184 	-2.090710986e-08 	1.419861799e-05
0.9879559242 	0.007429384226 	0.003418893957 	-9.621590416e-09 	0.007278071347 	-2.473191715e-08 	1.387402682e-05
0.9887233818 	0.007218745137 	0.00332484693 	-1.15262206e-08 	0.00708371481 	-2.850183545e-08 	1.350352924e-05
0.9894623266 	0.006981219652 	0.003218138565 	-1.33413816e-08 	0.006861847871 	-3.204821119e-08 	1.308058919e-05
0.9901738171 	0.006712845597 	0.003096912942 	-1.496800521e-08 	0.00660843641 	-3.516718534e-08 	1.259751652e-05
0.9908588729 	0.006409018198 	0.002959020016 	-1.629158862e-08 	0.006318802337 	-3.761963783e-08 	1.204539348e-05
0.9915184756 	0.00606450548 	0.00280198175 	-1.717904588e-08 	0.00598764181 	-3.914658551e-08 	1.141410947e-05
0.9921535704 	0.005673542009 	0.002623103398 	-1.75320798e-08 	0.005609118556 	-3.954573886e-08 	1.069253894e-05
0.9927650674 	0.005229808625 	0.002418305758 	-2.027465469e-08 	0.005176879596 	-3.897298144e-08 	9.86857135e-06
0.9933538431 	0.004769190939 	0.002195395565 	-2.211205712e-08 	0.004726110429 	-3.771861469e-08 	9.009280032e-06
0.9937334374 	0.004349005762 	0.001985380493 	-2.046981785e-08 	0.004313442033 	-3.572396622e-08 	8.222619375e-06
0.9941130362 	0.003937570626 	0.001779187074 	-1.906860264e-08 	0.003908202062 	-3.331772024e-08 	7.45011936e-06
0.9944926393 	0.003485182356 	0.001547567125 	-1.713250125e-08 	0.003461641262 	-3.019436229e-08 	6.598850359e-06
0.9948722469 	0.002994344091 	0.001292382466 	-1.472768783e-08 	0.002976177142 	-2.642724538e-08 	5.673420819e-06
0.9952518589 	0.002474072502 	0.001020159317 	-1.200995216e-08 	0.002460719322 	-2.220361339e-08 	4.690814948e-06
0.9956314753 	0.001942893186 	0.0007454306168 	-9.210636271e-09 	0.001933668009 	-1.781288424e-08 	3.68610866e-06
0.9960110961 	0.001429909781 	0.000491182753 	-6.570621018e-09 	0.001424008853 	-1.357660679e-08 	2.714556656e-06
0.9963907213 	0.0009706652695 	0.0002831298936 	-4.273019604e-09 	0.0009672219756 	-9.754356772e-09 	1.843793911e-06
0.996770351 	0.0005967594535 	0.0001380395625 	-2.442879351e-09 	0.0005949497607 	-6.50703754e-09 	1.134139602e-06
0.997149985 	0.0003244033409 	5.472213756e-05 	-1.164491225e-09 	0.0003235572078 	-3.930052167e-09 	6.167899662e-07
0.9975296235 	0.0001500268424 	1.669085097e-05 	-4.322665768e-10 	0.0001496828928 	-2.06980987e-09 	2.853371958e-07
0.9979092664 	5.497216501e-05 	3.56459225e-06 	-1.134200365e-10 	5.485752193e-05 	-8.943103833e-10 	1.045736837e-07
0.9982889137 	1.389180937e-05 	4.429604253e-07 	-1.77319455e-11 	1.386446114e-05 	-2.817210385e-10 	2.642951636e-08
0.9986685654 	1.816163388e-06 	2.07746493e-08 	-1.120194233e-12 	1.812684143e-06 	-5.03881655e-11 	3.455479787e-09
0.9990482216 	8.194952474e-08 	1.642834183e-10 	-1.339330103e-14 	8.179349591e-08 	-3.632805841e-12 	1.559211365e-10
