0.4709558481 	0.01771917569 	1.676215106e-08 	-9.552961851e-13
0.4709558481 	0.01771917569 	1.676215106e-08 	-9.552961851e-13
0.4713069734 	0.05769191338 	2.380861709e-07 	-1.36604235e-11
0.4716580986 	0.1152568697 	8.77714685e-07 	-5.044807359e-11
0.4720092239 	0.1726557726 	1.957240428e-06 	-1.126494542e-10
0.4723603491 	0.2297237624 	3.472515799e-06 	-2.001024656e-10
0.4727114744 	0.2860405895 	5.407779975e-06 	-3.119559812e-10
0.4730625996 	0.3408465933 	7.7405023e-06 	-4.469295592e-10
0.4734137249 	0.3931469357 	1.043272054e-05 	-6.028492673e-10
0.4737648501 	0.4420095105 	1.343394175e-05 	-7.768951576e-10
0.4741159754 	0.4868552924 	1.669256793e-05 	-9.663084139e-10
0.4744671006 	0.5275462385 	2.016554955e-05 	-1.168903079e-09
0.4748182259 	0.5642825993 	2.381921943e-05 	-1.382898456e-09
0.4751693511 	0.5974703691 	2.763349718e-05 	-1.607465746e-09
0.4755204764 	0.6276041609 	3.159997545e-05 	-1.842551566e-09
0.4758716016 	0.6551279104 	3.571328983e-05 	-2.087910509e-09
0.4762227269 	0.6837064557 	4.056323752e-05 	-2.37919671e-09
0.4767673536 	0.7160102875 	4.68955358e-05 	-2.762899555e-09
0.4773330083 	0.7484455543 	5.433904429e-05 	-3.218426288e-09
0.4779205028 	0.7783989889 	6.238525211e-05 	-3.715918809e-09
0.4785306805 	0.8061962617 	7.106885318e-05 	-4.258314008e-09
0.479164417 	0.832122259 	8.042958238e-05 	-4.848885165e-09
0.4798226221 	0.8564232762 	9.051139149e-05 	-5.491203892e-09
0.4805062404 	0.8793111871 	0.00010136309 	-6.189198346e-09
0.4812162531 	0.9009680286 	0.0001130385763 	-6.947178847e-09
0.4819536793 	0.921550248 	0.0001255969585 	-7.7698577e-09
0.4827195775 	0.9411925561 	0.0001391027992 	-8.662377007e-09
0.483515047 	0.9600113087 	0.0001536264376 	-9.630341187e-09
0.4843412294 	0.9781074025 	0.0001692443589 	-1.067985161e-08
0.4851993106 	0.9955687163 	0.0001860395977 	-1.181754217e-08
0.4860905223 	1.012472158 	0.0002041021767 	-1.305061558e-08
0.4870161436 	1.028885367 	0.0002235295748 	-1.438687981e-08
0.487977503 	1.044868131 	0.0002444272202 	-1.583478368e-08
0.4889759804 	1.060473552 	0.0002669090021 	-1.740345039e-08
0.4900130089 	1.075749006 	0.0002910977943 	-1.910270795e-08
0.491090077 	1.090736937 	0.0003171259818 	-2.094311504e-08
0.4922087306 	1.105475489 	0.0003451359812 	-2.293598039e-08
0.4933705753 	1.11999903 	0.0003752807446 	-2.509337281e-08
0.4945772787 	1.134338552 	0.0004077242349 	-2.74281162e-08
0.4958305727 	1.148521986 	0.0004426418616 	-2.995375955e-08
0.4971322564 	1.162574444 	0.0004802208602 	-3.268450661e-08
0.4984841978 	1.176518437 	0.0005206606381 	-3.563508924e-08
0.4998883377 	1.190374135 	0.0005641731545 	-3.882058134e-08
0.5013466912 	1.204159792 	0.0006109830745 	-4.225617668e-08
0.5028613516 	1.217892553 	0.0006613260129 	-4.595698387e-08
0.5044344929 	1.231589922 	0.0007154432416 	-4.993788264e-08
0.506068373 	1.24693761 	0.0007809371503 	-5.475435221e-08
0.5085784129 	1.265327822 	0.0008666751173 	-6.104491761e-08
0.5111453651 	1.284773251 	0.0009664457667 	-6.831364147e-08
0.5137705202 	1.303639816 	0.001072859361 	-7.591224154e-08
0.5164551977 	1.321940557 	0.001185701882 	-8.358332597e-08
0.5192007473 	1.339625272 	0.001304172884 	-9.084771877e-08
0.5220085492 	1.356543029 	0.001426354286 	-9.710479777e-08
0.5248800149 	1.3724481 	0.001548866757 	-1.019354839e-07
0.5278165879 	1.387090165 	0.001667440185 	-1.050835512e-07
0.5308197445 	1.400372893 	0.001779941712 	-1.069885835e-07
0.5338909942 	1.412425879 	0.001886460284 	-1.081197232e-07
0.5370318812 	1.423397643 	0.001987464705 	-1.077025218e-07
0.5402439843 	1.433251847 	0.002081232886 	-1.053429477e-07
0.5435289183 	1.441863638 	0.00216408377 	-1.011209936e-07
0.5468883345 	1.449148709 	0.0022332921 	-9.495775078e-08
0.5503239217 	1.455092441 	0.002286992968 	-8.733604154e-08
0.5538374071 	1.459761683 	0.002324608068 	-7.908252091e-08
0.5574305568 	1.463291211 	0.002346857617 	-7.101960587e-08
0.5611051773 	1.46585067 	0.00235518939 	-6.36157477e-08
0.5648631156 	1.467612747 	0.002351403831 	-5.720780365e-08
0.5687062611 	1.468744069 	0.00233766863 	-5.20225008e-08
0.5726365456 	1.469399567 	0.002316158612 	-4.793121789e-08
0.576655945 	1.469702601 	0.002288627041 	-4.470537418e-08
0.5807664798 	1.469737368 	0.002256316013 	-4.210908046e-08
0.5849702164 	1.469559271 	0.002220055745 	-3.993171264e-08
0.5892692681 	1.469205595 	0.002180405212 	-3.80389671e-08
0.593665796 	1.468701903 	0.002137751144 	-3.634133506e-08
0.5981620103 	1.468065945 	0.002092364601 	-3.477704557e-08
0.6027601713 	1.467310116 	0.002044436392 	-3.330267086e-08
0.6074625904 	1.466443056 	0.001994100708 	-3.188700546e-08
0.6122716317 	1.465470707 	0.001941451367 	-3.050713781e-08
0.6171897127 	1.464397044 	0.001886553265 	-2.914600989e-08
0.6222193057 	1.463224574 	0.00182945067 	-2.779083752e-08
0.6273629392 	1.461954695 	0.001770173401 	-2.643202393e-08
0.6326231989 	1.460587945 	0.001708741536 	-2.506239448e-08
0.6380027291 	1.459124183 	0.001645169102 	-2.367666364e-08
0.6435042341 	1.45756272 	0.00157946704 	-2.227107062e-08
0.6491304798 	1.455902399 	0.001511645651 	-2.084313155e-08
0.6548842942 	1.454141657 	0.001441716659 	-1.939146751e-08
0.6607685701 	1.452278553 	0.001369694996 	-1.791567947e-08
0.6667862654 	1.450310776 	0.001295600353 	-1.641625092e-08
0.6729404052 	1.448235637 	0.001219458575 	-1.489446519e-08
0.6792340834 	1.446050041 	0.001141302887 	-1.335232685e-08
0.6856704637 	1.443750437 	0.001061175006 	-1.179247835e-08
0.6922527818 	1.441332757 	0.0009791261134 	-1.021810338e-08
0.6989843466 	1.438792329 	0.000895217707 	-8.632810646e-09
0.7058685423 	1.436123767 	0.0008095223238 	-7.040494201e-09
0.7129088294 	1.433320838 	0.0007221241312 	-5.445170582e-09
0.7201087472 	1.430376298 	0.0006331193509 	-3.85079622e-09
0.7274719152 	1.427281692 	0.0005426165048 	-2.261071327e-09
0.7350020349 	1.424044943 	0.0004512319218 	-6.87667965e-10
0.7425321576 	1.4207148 	0.0003606546165 	8.413482482e-10
0.7498953284 	1.417345163 	0.0002725106074 	2.301798494e-09
0.7570952489 	1.413953078 	0.0001872945783 	3.69010692e-09
0.7641355384 	1.410537307 	0.0001049961447 	5.011375208e-09
0.7710197363 	1.407096119 	2.559431593e-05 	6.270840689e-09
0.7777513032 	1.403627354 	-5.09401139e-05 	7.473787538e-09
0.7843336232 	1.400128472 	-0.0001246424588 	8.625571955e-09
0.7907700052 	1.396596587 	-0.0001955523075 	9.731791724e-09
0.7970636849 	1.393028491 	-0.0002637119521 	1.079862965e-08
0.8032178261 	1.389420676 	-0.0003291647648 	1.183343792e-08
0.8092355226 	1.38576934 	-0.0003919529141 	1.284533591e-08
0.8151197995 	1.382070398 	-0.0004521171023 	1.384400469e-08
0.8208736149 	1.378319488 	-0.0005097100372 	1.483482282e-08
0.8264998613 	1.374511983 	-0.0005647933953 	1.584494851e-08
0.8320013671 	1.37063907 	-0.0006172736435 	1.690527801e-08
0.8373808978 	1.366681235 	-0.0006669573407 	1.803141045e-08
0.8426411579 	1.362611805 	-0.0007135964256 	1.928613007e-08
0.8477847917 	1.358407189 	-0.0007569270599 	2.070131478e-08
0.8528143849 	1.35404989 	-0.000796825402 	2.224023712e-08
0.857732466 	1.349526726 	-0.0008332278621 	2.387942385e-08
0.8625415073 	1.344827647 	-0.0008660850823 	2.561564143e-08
0.8672439263 	1.339944686 	-0.0008953490072 	2.746020759e-08
0.8718420871 	1.33487085 	-0.0009209608885 	2.942850266e-08
0.8763383011 	1.329598903 	-0.0009428393694 	3.153216666e-08
0.8807348287 	1.324120157 	-0.0009608736898 	3.377668442e-08
0.8850338799 	1.318423449 	-0.0009749233102 	3.616185876e-08
0.889237616 	1.312494422 	-0.000984822541 	3.868193299e-08
0.8933481502 	1.306315208 	-0.0009903884959 	4.132418484e-08
0.8973675489 	1.299864483 	-0.0009914316247 	4.406646804e-08
0.9012978327 	1.293117869 	-0.0009877690412 	4.687445767e-08
0.9051409774 	1.286048647 	-0.0009792412184 	4.969910264e-08
0.9088989149 	1.278628731 	-0.0009657321819 	5.247489423e-08
0.9125735344 	1.270829857 	-0.0009471921309 	5.512002798e-08
0.9161666832 	1.262624872 	-0.0009236597866 	5.753969185e-08
0.9196801676 	1.253988957 	-0.0008952805234 	5.963294288e-08
0.9231157538 	1.24490063 	-0.0008623164464 	6.130210106e-08
0.9264751689 	1.235342384 	-0.0008251462939 	6.24623827e-08
0.9297601017 	1.225300912 	-0.0007842554051 	6.30495756e-08
0.9329722036 	1.214766908 	-0.000740217678 	6.302470195e-08
0.9361130893 	1.20373445 	-0.0006936720635 	6.237569158e-08
0.9391843379 	1.192200005 	-0.0006452962134 	6.111646142e-08
0.9421874931 	1.180161124 	-0.000595779917 	5.928388825e-08
0.9451240648 	1.167614932 	-0.0005458007131 	5.693334311e-08
0.9479955291 	1.154556514 	-0.0004960033653 	5.41336089e-08
0.9508033297 	1.140977239 	-0.0004469840446 	5.096190995e-08
0.9535488779 	1.126863126 	-0.0003992794009 	4.749951971e-08
0.956233554 	1.112193341 	-0.0003533597692 	4.382817214e-08
0.9588587076 	1.096939062 	-0.0003096240315 	4.002728993e-08
0.9614256584 	1.081063192 	-0.000268396108 	3.617147223e-08
0.9639356968 	1.065913019 	-0.0002330083932 	3.26462989e-08
0.9655695775 	1.053172778 	-0.000206150285 	2.982885623e-08
0.9671427194 	1.04173341 	-0.0001841725062 	2.743036101e-08
0.9686573803 	1.030206613 	-0.0001639828232 	2.514811953e-08
0.9701157342 	1.018580814 	-0.0001455035962 	2.29882951e-08
0.9715198744 	1.006843601 	-0.0001286487831 	2.095463746e-08
0.9728718162 	0.9949809222 	-0.000113326717 	1.904867691e-08
0.9741735001 	0.9829766029 	-9.94432782e-05 	1.727004731e-08
0.9754267944 	0.970812033 	-8.690386732e-05 	1.561683073e-08
0.9766334979 	0.9584659434 	-7.561478643e-05 	1.408585926e-08
0.9777953427 	0.9459141944 	-6.548433328e-05 	1.267298054e-08
0.9789139964 	0.9331295358 	-5.642365992e-05 	1.13732932e-08
0.9799910645 	0.9200813112 	-4.834742047e-05 	1.018135366e-08
0.981028093 	0.9067350858 	-4.117423947e-05 	9.091355061e-09
0.9820265703 	0.893052183 	-3.482703037e-05 	8.097279503e-09
0.9829879297 	0.8789891133 	-2.923318854e-05 	7.193025628e-09
0.9839135509 	0.8644968782 	-2.432468017e-05 	6.372513447e-09
0.9848047624 	0.8495201302 	-2.003804552e-05 	5.629768796e-09
0.9856628435 	0.8339961644 	-1.631433287e-05 	4.958989631e-09
0.9864890258 	0.8178537194 	-1.309897663e-05 	4.354596318e-09
0.987284495 	0.8010115628 	-1.034163065e-05 	3.811267939e-09
0.988050393 	0.7833768388 	-7.995965966e-06 	3.323966532e-09
0.988787819 	0.7648431671 	-6.01944062e-06 	2.887951192e-09
0.9894978315 	0.7452885085 	-4.373046367e-06 	2.498783754e-09
0.9901814495 	0.7245728554 	-3.021035933e-06 	2.152327841e-09
0.9908396543 	0.7025358591 	-1.930647634e-06 	1.844745497e-09
0.9914733905 	0.6789944809 	-1.071863566e-06 	1.572493982e-09
0.9920835679 	0.6537415234 	-4.170775424e-07 	1.332308829e-09
0.9926710621 	0.6265461642 	5.940945247e-08 	1.121163808e-09
0.9932367165 	0.5971560073 	3.815067328e-07 	9.362914377e-10
0.9937813429 	0.5679835054 	5.60806803e-07 	7.874161907e-10
0.9941324681 	0.5422702832 	6.364637697e-07 	6.788647527e-10
0.9944835934 	0.5175604927 	6.617028469e-07 	5.901546249e-10
0.9948347186 	0.4905361452 	6.538598605e-07 	5.0727875e-10
0.9951858439 	0.4608958843 	6.180447341e-07 	4.300661748e-10
0.9955369691 	0.4284091458 	5.589396173e-07 	3.586046638e-10
0.9958880943 	0.3929578102 	4.827194293e-07 	2.929461926e-10
0.9962392196 	0.354621302 	3.967566342e-07 	2.332319749e-10
0.9965903448 	0.3137367318 	3.089061147e-07 	1.797145436e-10
0.9969414701 	0.2708719767 	2.263697985e-07 	1.327158187e-10
0.9972925953 	0.2266891727 	1.544967451e-07 	9.254423949e-11
0.9976437206 	0.1817676813 	9.619957239e-08 	5.942800983e-11
0.9979948458 	0.1364953016 	5.230649482e-08 	3.353127167e-11
0.9983459711 	0.09106957854 	2.248773228e-08 	1.506020765e-11
0.9986970963 	0.04556447177 	5.765324517e-09 	4.093726003e-12
0.9990482216 	0.01679957858 	3.792674944e-10 	3.490051844e-13
0.9990482216 	0.01679957858 	3.792674944e-10 	3.490051844e-13
