0.4709558481 	1.474842204e-07 	-4.660700974e-10 	5.041653496e-15 	1.472036014e-07 	-1.095297224e-12 	2.806109774e-10
0.4713069734 	3.618308904e-06 	-6.17383842e-08 	6.67265261e-13 	3.611421528e-06 	-2.687072816e-11 	6.884373176e-09
0.4716580986 	2.676383706e-05 	-1.227912367e-06 	1.322091234e-11 	2.671281633e-05 	-1.986248862e-10 	5.092205236e-08
0.4720092239 	0.0001038249084 	-9.397691296e-06 	9.99463648e-11 	0.0001036263217 	-7.678093702e-10 	1.975405707e-07
0.4723603491 	0.0002787051999 	-4.183271599e-05 	4.324702871e-10 	0.000278168961 	-2.03901172e-09 	5.302673527e-07
0.4727114744 	0.0005912027785 	-0.0001292556512 	1.26929186e-09 	0.0005900552396 	-4.222711823e-09 	1.124809284e-06
0.4730625996 	0.001060369971 	-0.0003041173373 	2.762974598e-09 	0.001058288182 	-7.260719528e-09 	2.017391411e-06
0.4734137249 	0.001670577475 	-0.0005780100558 	4.744455627e-09 	0.001667253729 	-1.075912034e-08 	3.178248996e-06
0.4737648501 	0.002373537181 	-0.0009293929395 	6.785219432e-09 	0.002368745676 	-1.416637435e-08 	4.515487618e-06
0.4741159754 	0.003108189578 	-0.001315818867 	8.50190094e-09 	0.003101818178 	-1.706153703e-08 	5.912927553e-06
0.4744671006 	0.003822809243 	-0.001696858423 	9.746783201e-09 	0.003814847546 	-1.928648296e-08 	7.272159705e-06
0.4748182259 	0.004485185879 	-0.002048082018 	1.06221376e-08 	0.004475690256 	-2.088185861e-08 	8.531909581e-06
0.4751693511 	0.005081323088 	-0.002352521803 	1.072797084e-08 	0.005070386182 	-2.198152138e-08 	9.665565303e-06
0.4755204764 	0.00560994064 	-0.002605765727 	1.061481989e-08 	0.005597665458 	-2.275345262e-08 	1.067070615e-05
0.4758716016 	0.006075819819 	-0.002822109425 	1.086483119e-08 	0.006062297949 	-2.327890309e-08 	1.155642482e-05
0.4762227269 	0.006537510578 	-0.003036488155 	1.102127646e-08 	0.006522661271 	-2.360018505e-08 	1.243400526e-05
0.4767673536 	0.007025710826 	-0.003263153226 	1.106643356e-08 	0.007009316769 	-2.367550734e-08 	1.33617059e-05
0.4773330083 	0.007474075292 	-0.003471324078 	1.096537907e-08 	0.007456071848 	-2.342624277e-08 	1.421334525e-05
0.4779205028 	0.007846873234 	-0.003644356305 	1.072997988e-08 	0.007827308724 	-2.289000705e-08 	1.492102592e-05
0.4785306805 	0.008154949691 	-0.003787217427 	1.037819459e-08 	0.008133848216 	-2.210869391e-08 	1.550537539e-05
0.479164417 	0.008407985508 	-0.00390447172 	9.926799848e-09 	0.008385349632 	-2.11078333e-08 	1.598480699e-05
0.4798226221 	0.008614271655 	-0.004000011888 	9.381595632e-09 	0.008590085094 	-1.99005439e-08 	1.637508968e-05
0.4805062404 	0.008780739167 	-0.004077039404 	8.744387326e-09 	0.008754969414 	-1.849140135e-08 	1.668940502e-05
0.4812162531 	0.008913099327 	-0.004138200085 	8.014278428e-09 	0.00888570005 	-1.687884657e-08 	1.693861395e-05
0.4819536793 	0.009016013536 	-0.004185656082 	7.188293417e-09 	0.008986926712 	-1.505669335e-08 	1.71315801e-05
0.4827195775 	0.009093261501 	-0.004221161527 	6.261763551e-09 	0.009062419291 	-1.301505112e-08 	1.727548994e-05
0.483515047 	0.009147892658 	-0.004246131968 	5.228598098e-09 	0.009115219075 	-1.07409582e-08 	1.7376141e-05
0.4843412294 	0.009182357166 	-0.004261704883 	4.081546211e-09 	0.009147769596 	-8.218972464e-09 	1.743819134e-05
0.4851993106 	0.009198612703 	-0.004268789187 	2.81224801e-09 	0.009162023352 	-5.431299084e-09 	1.746536296e-05
0.4860905223 	0.009198208897 	-0.004268104427 	1.411131347e-09 	0.009159526225 	-2.357582971e-09 	1.746060274e-05
0.4870161436 	0.00918235722 	-0.004260213264 	-1.325832929e-10 	0.009141487408 	1.025067761e-09 	1.742621575e-05
0.487977503 	0.009151987544 	-0.004245547781 	-1.830869419e-09 	0.009108836037 	4.742039478e-09 	1.736397316e-05
0.4889759804 	0.009107792519 	-0.004224430139 	-3.69691989e-09 	0.009062265685 	8.821251397e-09 	1.727519712e-05
0.4900130089 	0.009050262823 	-0.004197089004 	-5.74517719e-09 	0.009002269766 	1.329320046e-08 	1.716082822e-05
0.491090077 	0.008979715167 	-0.004163672617 	-7.991365327e-09 	0.00892916973 	1.819100474e-08 	1.702147924e-05
0.4922087306 	0.008896314644 	-0.00412425923 	-1.045252505e-08 	0.008843137608 	2.35504503e-08 	1.68574781e-05
0.4933705753 	0.008800092726 	-0.004078865524 	-1.314706013e-08 	0.008744214208 	2.941006395e-08 	1.666890261e-05
0.4945772787 	0.008690962009 	-0.004027453521 	-1.609480779e-08 	0.008632324063 	3.581125317e-08 	1.645560889e-05
0.4958305727 	0.008568728612 	-0.003969936399 	-1.931714688e-08 	0.00850728803 	4.279856146e-08 	1.621725546e-05
0.4971322564 	0.008433102797 	-0.003906183506 	-2.283714632e-08 	0.008368834187 	5.04200586e-08 	1.595332396e-05
0.4984841978 	0.008283707813 	-0.003836024605 	-2.667972798e-08 	0.008216607178 	5.872779145e-08 	1.566313697e-05
0.4998883377 	0.008120085699 	-0.003759252867 	-3.087177507e-08 	0.008050175184 	6.77780666e-08 	1.534587133e-05
0.5013466912 	0.007941696402 	-0.003675625125 	-3.544208139e-08 	0.00786903185 	7.763121253e-08 	1.500056179e-05
0.5028613516 	0.007747902699 	-0.003584856123 	-4.042104831e-08 	0.007672586691 	8.83504309e-08 	1.462608272e-05
0.5044344929 	0.007537930602 	-0.003486600846 	-4.584010331e-08 	0.007460126143 	9.999940234e-08 	1.422107386e-05
0.506068373 	0.007282047657 	-0.003366991696 	-5.247739096e-08 	0.007201752951 	1.142367111e-07 	1.372854275e-05
0.5085784129 	0.006944619237 	-0.00320945271 	-6.126092611e-08 	0.006861818373 	1.330266787e-07 	1.308053296e-05
0.5111453651 	0.006549133697 	-0.003025044679 	-7.153572954e-08 	0.006464367825 	1.549506654e-07 	1.232288175e-05
0.5137705202 	0.006124887157 	-0.002827508665 	-8.234238008e-08 	0.006039165189 	1.779723702e-07 	1.151232735e-05
0.5164551977 	0.005675164591 	-0.002618427913 	-9.220473561e-08 	0.005589714856 	1.989537509e-07 	1.06555501e-05
0.5192007473 	0.005210860658 	-0.002402917191 	-9.872316603e-08 	0.005127077708 	2.12702781e-07 	9.77363511e-06
0.5220085492 	0.004748631903 	-0.002188728096 	-1.011243345e-07 	0.004667867996 	2.174165246e-07 	8.898253766e-06
0.5248800149 	0.004303543718 	-0.001982776098 	-1.000744903e-07 	0.004226712358 	2.147234961e-07 	8.057288508e-06
0.5278165879 	0.003886374375 	-0.001788731871 	-1.026664363e-07 	0.003813697299 	2.080050862e-07 	7.269967014e-06
0.5308197445 	0.00349935016 	-0.001582165856 	-1.115095032e-07 	0.003431822037 	2.002650044e-07 	6.542006627e-06
0.5338909942 	0.003140689837 	-0.001369145893 	-1.139839967e-07 	0.003079498002 	1.903266238e-07 	5.870379094e-06
0.5370318812 	0.002814227976 	-0.001174147604 	-1.094743749e-07 	0.002759856074 	1.750492099e-07 	5.261052739e-06
0.5402439843 	0.002526989424 	-0.0009922023473 	-1.036738546e-07 	0.002479952414 	1.537661786e-07 	4.727478568e-06
0.5435289183 	0.002284877709 	-0.0008265058968 	-9.50877578e-08 	0.002245369893 	1.280978186e-07 	4.280299084e-06
0.5468883345 	0.002090480521 	-0.0006788249942 	-8.512275106e-08 	0.002058466739 	1.00502451e-07 	3.924009726e-06
0.5503239217 	0.001942150683 	-0.0005490955951 	-7.506801266e-08 	0.001917440481 	7.385396422e-08 	3.655174482e-06
0.5538374071 	0.001834507557 	-0.0004357972918 	-6.590515927e-08 	0.001816868382 	5.04630457e-08 	3.463456109e-06
0.5574305568 	0.001759926666 	-0.0003370322193 	-5.718288709e-08 	0.001749208995 	3.160587142e-08 	3.334478513e-06
0.5611051773 	0.001710657552 	-0.0002518055026 	-4.929345227e-08 	0.001706816989 	1.671716863e-08 	3.253667566e-06
0.5648631156 	0.001680766196 	-0.0001773958476 	-4.398358702e-08 	0.001683790069 	4.957200839e-09 	3.209771857e-06
0.5687062611 	0.001665434281 	-0.00010983275 	-4.024248349e-08 	0.001675184447 	-3.463266159e-09 	3.193367149e-06
0.5726365456 	0.00166009371 	-4.766194141e-05 	-3.685540032e-08 	0.001676285183 	-9.024619607e-09 	3.195465459e-06
0.576655945 	0.00166135971 	9.76133939e-06 	-3.411085724e-08 	0.001683690649 	-1.273687145e-08 	3.209582335e-06
0.5807664798 	0.001667097608 	6.342781134e-05 	-3.191496525e-08 	0.001695285557 	-1.526018686e-08 	3.231685451e-06
0.5849702164 	0.001675924874 	0.0001140367632 	-3.010813351e-08 	0.001709703529 	-1.698721843e-08 	3.259170114e-06
0.5892692681 	0.001686917542 	0.0001620786242 	-2.857640648e-08 	0.001726030654 	-1.81638858e-08 	3.290294152e-06
0.593665796 	0.001699438758 	0.0002078993156 	-2.72377359e-08 	0.001743637227 	-1.894723954e-08 	3.323857174e-06
0.5981620103 	0.001713036573 	0.0002517437322 	-2.603323918e-08 	0.001762076737 	-1.943987823e-08 	3.359008005e-06
0.6027601713 	0.001727381094 	0.000293785206 	-2.492024987e-08 	0.001781023527 	-1.97104461e-08 	3.395125852e-06
0.6074625904 	0.001742224828 	0.0003341458401 	-2.386731968e-08 	0.001800233386 	-1.980566857e-08 	3.431745183e-06
0.6122716317 	0.001757377131 	0.0003729109284 	-2.28509034e-08 	0.001819518105 	-1.975767199e-08 	3.468507216e-06
0.6171897127 	0.001772687532 	0.000410139484 	-2.185319401e-08 	0.001838728794 	-1.958868895e-08 	3.50512813e-06
0.6222193057 	0.001788034778 	0.000445872148 	-2.086067277e-08 	0.001857744903 	-1.931419738e-08 	3.541378118e-06
0.6273629392 	0.001803319661 	0.0004801372974 	-1.986311244e-08 	0.001876467017 	-1.894505177e-08 	3.577067671e-06
0.6326231989 	0.001818460426 	0.0005129558966 	-1.885288937e-08 	0.001894812262 	-1.84889467e-08 	3.612038807e-06
0.6380027291 	0.001833389985 	0.0005443454596 	-1.782451579e-08 	0.001912711524 	-1.795143581e-08 	3.646159775e-06
0.6435042341 	0.001848054415 	0.0005743233718 	-1.67743259e-08 	0.00193010799 	-1.733665365e-08 	3.679322276e-06
0.6491304798 	0.0018624124 	0.0006029097408 	-1.570026294e-08 	0.001946956673 	-1.664783468e-08 	3.711440548e-06
0.6548842942 	0.001876435399 	0.0006301298879 	-1.460172595e-08 	0.001963224681 	-1.588768876e-08 	3.742451892e-06
0.6607685701 	0.00189010836 	0.0006560165532 	-1.347944569e-08 	0.001978892075 	-1.505867041e-08 	3.772318299e-06
0.6667862654 	0.001903430889 	0.0006806118572 	-1.233536763e-08 	0.001993953202 	-1.416316546e-08 	3.801028994e-06
0.6729404052 	0.001916418784 	0.0007039690396 	-1.117252554e-08 	0.002008418408 	-1.320361138e-08 	3.828603697e-06
0.6792340834 	0.00192910588 	0.00072615398 	-9.994892575e-09 	0.00202231608 	-1.218256175e-08 	3.855096522e-06
0.6856704637 	0.001941546187 	0.0007472464948 	-8.807201337e-09 	0.002035694965 	-1.110270259e-08 	3.880600396e-06
0.6922527818 	0.001953816281 	0.0007673413965 	-7.614728674e-09 	0.002048626748 	-9.966825293e-09 	3.905251968e-06
0.6989843466 	0.00196601797 	0.0007865493023 	-6.423048659e-09 	0.002061208858 	-8.777760083e-09 	3.929236966e-06
0.7058685423 	0.001978281232 	0.000804997185 	-5.237765427e-09 	0.002073567521 	-7.538272767e-09 	3.952796013e-06
0.7129088294 	0.001990767477 	0.0008228286715 	-4.064246786e-09 	0.002085861087 	-6.250927472e-09 	3.976230968e-06
0.7201087472 	0.002003673174 	0.0008402041059 	-2.907387013e-09 	0.002098283687 	-4.91791686e-09 	3.999911895e-06
0.7274719152 	0.002017234015 	0.0008573005073 	-1.771409196e-09 	0.002111069158 	-3.540859847e-09 	4.024284557e-06
0.7350020349 	0.002031649215 	0.0008742137076 	-6.653764182e-10 	0.002124421863 	-2.128266433e-09 	4.049738523e-06
0.7425321576 	0.002046953796 	0.0008908561544 	3.910726134e-10 	0.002138405302 	-7.048932032e-10 	4.076394845e-06
0.7498953284 	0.002063136498 	0.0009071594953 	1.381753246e-09 	0.002153053032 	7.051034772e-10 	4.104317489e-06
0.7570952489 	0.002080318835 	0.0009232333327 	2.30539877e-09 	0.002168522074 	2.095537209e-09 	4.133805782e-06
0.7641355384 	0.002098683646 	0.0009392375519 	3.167100646e-09 	0.002185019949 	3.469207402e-09 	4.165255318e-06
0.7710197363 	0.002118397369 	0.0009553040306 	3.972232782e-09 	0.002202733731 	4.830219819e-09 	4.19902271e-06
0.7777513032 	0.002139612297 	0.0009715412775 	4.726554117e-09 	0.002221832957 	6.184018513e-09 	4.235431142e-06
0.7843336232 	0.002162469223 	0.0009880384727 	5.436411074e-09 	0.00224247268 	7.537502598e-09 	4.274776191e-06
0.7907700052 	0.002187100372 	0.001004869034 	6.108895367e-09 	0.002264796761 	8.899262328e-09 	4.317332095e-06
0.7970636849 	0.002213632606 	0.001022093795 	6.751708462e-09 	0.00228894138 	1.027993342e-08 	4.363358449e-06
0.8032178261 	0.002242190929 	0.001039763842 	7.372294205e-09 	0.002315038705 	1.169261153e-08 	4.413107204e-06
0.8092355226 	0.002272902192 	0.001057922981 	7.975656967e-09 	0.002343220815 	1.315389389e-08 	4.466830138e-06
0.8151197995 	0.002305898341 	0.001076609702 	8.560451402e-09 	0.002373625069 	1.468740185e-08 	4.524789096e-06
0.8208736149 	0.002341317984 	0.00109585838 	9.113721592e-09 	0.002406403059 	1.632461014e-08 	4.587273056e-06
0.8264998613 	0.002379316956 	0.001115712779 	9.82774986e-09 	0.002441711468 	1.804877743e-08 	4.654580696e-06
0.8320013671 	0.002420099423 	0.001137248885 	1.048929784e-08 	0.002479687472 	1.980832116e-08 	4.726973515e-06
0.8373808978 	0.00246411787 	0.001159035781 	1.083364371e-08 	0.002520417062 	2.168686553e-08 	4.804615433e-06
0.8426411579 	0.002511894542 	0.001180474631 	1.154497767e-08 	0.002564205342 	2.388795247e-08 	4.888088065e-06
0.8477847917 	0.002563725597 	0.001203608588 	1.277219178e-08 	0.002611595465 	2.648423602e-08 	4.978426812e-06
0.8528143849 	0.002619811654 	0.001228675978 	1.412947709e-08 	0.002663079812 	2.939272454e-08 	5.076570287e-06
0.857732466 	0.002680350951 	0.001255811226 	1.561778401e-08 	0.00271904914 	3.256438384e-08 	5.183263382e-06
0.8625415073 	0.002745555821 	0.001285129487 	1.724512426e-08 	0.002779783766 	3.60229031e-08 	5.299040459e-06
0.8672439263 	0.002815644768 	0.001316733608 	1.902390817e-08 	0.002845501819 	3.980318864e-08 	5.424317333e-06
0.8718420871 	0.002890848771 	0.00135072406 	2.096734492e-08 	0.002916399411 	4.393282916e-08 	5.559467849e-06
0.8763383011 	0.002971425978 	0.001387209867 	2.308729396e-08 	0.002992683726 	4.843501159e-08 	5.704886955e-06
0.8807348287 	0.003057676163 	0.00142631808 	2.539322033e-08 	0.003074599366 	5.333066318e-08 	5.861040932e-06
0.8850338799 	0.00314994963 	0.001468200021 	2.789126644e-08 	0.003162446065 	5.863606319e-08 	6.028501156e-06
0.889237616 	0.003248648202 	0.001513033337 	3.058294573e-08 	0.003256586115 	6.435861388e-08 	6.207958257e-06
0.8933481502 	0.003354217675 	0.00156101956 	3.346332778e-08 	0.003357440935 	7.049238024e-08 	6.400215575e-06
0.8973675489 	0.00346713164 	0.001612377209 	3.651869298e-08 	0.003465477153 	7.701317174e-08 	6.606162633e-06
0.9012978327 	0.003587866804 	0.001667330673 	3.972385872e-08 	0.003581183067 	8.387287748e-08 	6.826730264e-06
0.9051409774 	0.003716870377 	0.001726095258 	4.303974985e-08 	0.003705036631 	9.099392555e-08 	7.06282958e-06
0.9088989149 	0.003854520871 	0.001788859027 	4.641181647e-08 	0.003837466312 	9.826520991e-08 	7.315277359e-06
0.9125735344 	0.004001084061 	0.001855762132 	4.976932321e-08 	0.003978806109 	1.055397191e-07 	7.584710295e-06
0.9161666832 	0.00415666556 	0.001926874146 	5.302509865e-08 	0.004129245485 	1.126331409e-07 	7.871489559e-06
0.9196801676 	0.004321161487 	0.002002169965 	5.607605929e-08 	0.004288775284 	1.193242983e-07 	8.175597695e-06
0.9231157538 	0.004494211304 	0.002081506274 	5.880649284e-08 	0.004457134031 	1.253619178e-07 	8.496536259e-06
0.9264751689 	0.004675162512 	0.002164603331 	6.109674969e-08 	0.00463376543 	1.304835838e-07 	8.833244799e-06
0.9297601017 	0.004863060094 	0.002251038454 	6.283677399e-08 	0.004817801387 	1.344455707e-07 	9.184068483e-06
0.9329722036 	0.005056665914 	0.002340253871 	6.39390364e-08 	0.005008076757 	1.370515641e-07 	9.546786221e-06
0.9361130893 	0.00525450102 	0.002431575708 	6.434597581e-08 	0.005203168929 	1.381694549e-07 	9.918686125e-06
0.9391843379 	0.005454901273 	0.002524239581 	6.403279737e-08 	0.005401452351 	1.3773789e-07 	1.029666944e-05
0.9421874931 	0.005656081328 	0.00261742036 	6.300797593e-08 	0.005601162492 	1.357676729e-07 	1.067737247e-05
0.9451240648 	0.005856201793 	0.002710263605 	6.131080011e-08 	0.005800463777 	1.323366848e-07 	1.105729611e-05
0.9479955291 	0.006053430703 	0.002801914487 	5.900589441e-08 	0.005997512267 	1.275782343e-07 	1.14329253e-05
0.9508033297 	0.006245991233 	0.002891540349 	5.617630363e-08 	0.006190504815 	1.216662497e-07 	1.180082274e-05
0.9535488779 	0.006432191419 	0.002978344878 	5.291638803e-08 	0.006377710077 	1.148000192e-07 	1.2157688e-05
0.956233554 	0.006610434772 	0.00306157325 	4.932546763e-08 	0.006557479709 	1.071905256e-07 	1.250037888e-05
0.9588587076 	0.006779214409 	0.003140509463 	4.550282887e-08 	0.006728242331 	9.904981253e-08 	1.28258999e-05
0.9614256584 	0.006937096658 	0.003214470121 	4.154443829e-08 	0.006888495737 	9.058368267e-08 	1.313138743e-05
0.9639356968 	0.007071258868 	0.00327741973 	3.787133589e-08 	0.007025102041 	8.269963925e-08 	1.339179702e-05
0.9655695775 	0.00717195881 	0.003324742745 	3.490449878e-08 	0.00712795324 	7.631171685e-08 	1.358785999e-05
0.9671427194 	0.007253355697 	0.003363050734 	3.236241282e-08 	0.007211331095 	7.082327693e-08 	1.374680135e-05
0.9686573803 	0.007326927337 	0.003397724181 	2.993279485e-08 	0.007286899343 	6.55656859e-08 	1.389085544e-05
0.9701157342 	0.00739275913 	0.003428796311 	2.762550546e-08 	0.007354717101 	6.056162281e-08 	1.402013493e-05
0.9715198744 	0.007450910398 	0.003456289236 	2.544689187e-08 	0.00741482025 	5.582631319e-08 	1.413470824e-05
0.9728718162 	0.007501417721 	0.003480215716 	2.340034471e-08 	0.007467227173 	5.136862033e-08 	1.42346104e-05
0.9741735001 	0.007544290979 	0.003500577051 	2.148680679e-08 	0.007511933691 	4.719208154e-08 	1.431983345e-05
0.9754267944 	0.007579504902 	0.003517358933 	1.97052265e-08 	0.007548903629 	4.329585453e-08 	1.439030843e-05
0.9766334979 	0.007606988225 	0.003530526298 	1.805295423e-08 	0.007578057491 	3.9675558e-08 	1.444588379e-05
0.9777953427 	0.007626611529 	0.003540017608 	1.652608517e-08 	0.007599260051 	3.632399634e-08 	1.448630176e-05
0.9789139964 	0.00763817401 	0.003545738651 	1.51197542e-08 	0.007612306929 	3.323178249e-08 	1.451117274e-05
0.9799910645 	0.007641388914 	0.003547555736 	1.38283886e-08 	0.007616909866 	3.038787397e-08 	1.451994721e-05
0.981028093 	0.007635867118 	0.003545288005 	1.264592341e-08 	0.007612680118 	2.778003288e-08 	1.451188414e-05
0.9820265703 	0.007621098098 	0.003538698556 	1.156598329e-08 	0.007599109268 	2.53952177e-08 	1.448601433e-05
0.9829879297 	0.007596427444 	0.003527483939 	1.058203368e-08 	0.007575546568 	2.321991278e-08 	1.444109727e-05
0.9839135509 	0.007561029888 	0.003511261586 	9.687503699e-09 	0.007541171808 	2.124039984e-08 	1.437556943e-05
0.9848047624 	0.007513876532 	0.003489554537 	8.875897255e-09 	0.007494962413 	1.944300673e-08 	1.428748148e-05
0.9856628435 	0.007453695102 	0.003461772947 	8.140871562e-09 	0.007435653578 	1.78142884e-08 	1.417442235e-05
0.9864890258 	0.007378922569 	0.003427192045 	7.4762396e-09 	0.007361690815 	1.634104724e-08 	1.403342877e-05
0.987284495 	0.007287648216 	0.003384925697 	6.875969432e-09 	0.007271172957 	1.501035e-08 	1.386087657e-05
0.988050393 	0.007177545352 	0.003333894751 	6.334208779e-09 	0.007161783881 	1.380960597e-08 	1.365235059e-05
0.988787819 	0.007045792898 	0.003272790847 	5.84524984e-09 	0.007030714111 	1.272653141e-08 	1.340249518e-05
0.9894978315 	0.006888989518 	0.003200037205 	5.403421059e-09 	0.006874575031 	1.17489904e-08 	1.31048507e-05
0.9901814495 	0.006703066552 	0.003113750042 	5.002907669e-09 	0.006689311899 	1.086475657e-08 	1.275168768e-05
0.9908396543 	0.006483213965 	0.003011709356 	4.637465271e-09 	0.006470129892 	1.006120814e-08 	1.233386585e-05
0.9914733905 	0.006223843308 	0.002891269001 	4.303999335e-09 	0.006211457119 	9.325162251e-09 	1.184076365e-05
0.9920835679 	0.005918650085 	0.002749489716 	3.995570057e-09 	0.005907006756 	8.642170428e-09 	1.126039664e-05
0.9926710621 	0.005560860016 	0.002583284278 	3.701396096e-09 	0.005550022854 	7.995425242e-09 	1.057988611e-05
0.9932367165 	0.00514375786 	0.002389533815 	3.412920189e-09 	0.005133808249 	7.364453787e-09 	9.786465391e-06
0.9937813429 	0.004703349952 	0.002184953097 	3.141877125e-09 	0.004694301723 	6.77388535e-09 	8.948643798e-06
0.9941324681 	0.004297976816 	0.00199553294 	2.731781414e-09 	0.004289737062 	6.251483203e-09 	8.177431111e-06
0.9944835934 	0.003898168183 	0.001796902584 	2.355876518e-09 	0.003890712505 	5.734311449e-09 	7.416779402e-06
0.9948347186 	0.003455345827 	0.00156520552 	2.131723556e-09 	0.003448749336 	5.167029695e-09 	6.574274765e-06
0.9951858439 	0.002972179675 	0.001309514689 	1.851107345e-09 	0.002966513566 	4.544596928e-09 	5.654999357e-06
0.9955369691 	0.002458364886 	0.001036001355 	1.533197909e-09 	0.002453683019 	3.862384997e-09 	4.6774018e-06
0.9958880943 	0.001933103926 	0.0007598146298 	1.182988914e-09 	0.001929424768 	3.128945027e-09 	3.678019864e-06
0.9962392196 	0.001425660191 	0.0005039870751 	8.249120668e-10 	0.001422947749 	2.375627832e-09 	2.712533898e-06
0.9965903448 	0.0009709689853 	0.0002937235834 	5.01961909e-10 	0.0009691218615 	1.658494605e-09 	1.847415621e-06
0.9969414701 	0.0005997729599 	0.0001455507806 	2.567700109e-10 	0.0005986319762 	1.043056072e-09 	1.141158928e-06
0.9972925953 	0.000328068238 	5.895438817e-05 	1.059909953e-10 	0.0003274441013 	5.767945806e-10 	6.241994654e-07
0.9976437206 	0.0001529374632 	1.846262609e-05 	3.345407914e-11 	0.0001526464908 	2.703372741e-10 	2.909866374e-07
0.9979948458 	5.666413323e-05 	4.070645408e-06 	7.378152731e-12 	5.655632306e-05 	1.003705683e-10 	1.078120708e-07
0.9983459711 	1.45729894e-05 	5.27240855e-07 	9.520741819e-13 	1.45452622e-05 	2.582908091e-11 	2.77273124e-08
0.9986970963 	1.967987532e-06 	2.641594555e-08 	4.743767577e-14 	1.96424314e-06 	3.488461415e-12 	3.744393357e-09
0.9990482216 	9.625496124e-08 	2.390801661e-10 	4.266910586e-16 	9.607182164e-08 	1.706241149e-13 	1.831395938e-10
