0.3984765942 	0.009890627578 	-0.001695667831 	-1.847238284e-07
0.3984765942 	0.009890627578 	-0.001695667831 	-1.847238284e-07
0.3988724267 	0.0343240186 	-0.005900081625 	-1.337689222e-06
0.3992682762 	0.06989827313 	-0.01200466421 	-3.323303853e-06
0.3996641379 	0.1066988707 	-0.01827564263 	-5.93103903e-06
0.4000600075 	0.1446145913 	-0.02470305295 	-9.174959353e-06
0.4004558803 	0.1833715523 	-0.03124335 	-1.30486416e-05
0.400851752 	0.222440071 	-0.03780667703 	-1.750465965e-05
0.4012476179 	0.26103522 	-0.04425979946 	-2.243197213e-05
0.4016434738 	0.2982795268 	-0.05045454118 	-2.765447662e-05
0.402039315 	0.3334502427 	-0.05626981689 	-3.297047261e-05
0.4024351373 	0.3661401217 	-0.06163874535 	-3.820883048e-05
0.4028309361 	0.3962548599 	-0.06654791636 	-4.326059568e-05
0.403226707 	0.4239118883 	-0.07101993043 	-4.807615288e-05
0.4036224457 	0.449332455 	-0.07509495243 	-5.26459218e-05
0.4040181477 	0.4727684328 	-0.07881823717 	-5.698023598e-05
0.4044138088 	0.4973500974 	-0.08268599418 	-6.156409856e-05
0.4050274231 	0.5255830016 	-0.08707084608 	-6.701467135e-05
0.4056645961 	0.554501697 	-0.09149710128 	-7.271571981e-05
0.4063262077 	0.5817852222 	-0.09560548688 	-7.834733685e-05
0.4070131674 	0.6076292435 	-0.09943012501 	-8.395029825e-05
0.4077264146 	0.6321998979 	-0.1030000263 	-8.840491135e-05
0.4084669192 	0.6556387535 	-0.1063400369 	-9.162165438e-05
0.4092356819 	0.6780660736 	-0.109471279 	-9.455787107e-05
0.4100337347 	0.699583432 	-0.1124116193 	-9.72172334e-05
0.410862141 	0.7203059878 	-0.1151799258 	-9.960816215e-05
0.4117269603 	0.7403401964 	-0.1177927891 	-0.0001017241495
0.4126266713 	0.7597210159 	-0.1202571305 	-0.0001035579528
0.4135607233 	0.7784602959 	-0.122576717 	-0.0001050999501
0.4145304149 	0.7965934998 	-0.1247580761 	-0.0001063399016
0.4155370933 	0.8141642266 	-0.1268086962 	-0.0001072648173
0.4165821558 	0.8312223632 	-0.1287367495 	-0.000107857518
0.417667052 	0.8478230546 	-0.1305507924 	-0.0001081188739
0.4187932853 	0.8640110667 	-0.1322577532 	-0.0001080733038
0.4199624155 	0.8798152549 	-0.1338622342 	-0.0001077384494
0.4211760603 	0.8952571345 	-0.1353675955 	-0.0001071176179
0.4224358976 	0.9103579952 	-0.1367769012 	-0.0001062124956
0.4237443998 	0.925161229 	-0.1380949095 	-0.0001050270724
0.4251115666 	0.9397006133 	-0.1393248904 	-0.0001035428773
0.4265306573 	0.9539603233 	-0.1404660952 	-0.0001017859872
0.4280036224 	0.9679315548 	-0.1415183304 	-9.975864166e-05
0.429532485 	0.9816280207 	-0.1424833944 	-9.746698838e-05
0.4311193434 	0.9950627792 	-0.1433629306 	-9.491786959e-05
0.4327663743 	1.008248366 	-0.1441584658 	-9.211887786e-05
0.4344758352 	1.021198408 	-0.1448715113 	-8.907834397e-05
0.4362508946 	1.033945094 	-0.145504208 	-8.58032597e-05
0.438104245 	1.048015114 	-0.1461255509 	-8.233750225e-05
0.4409487314 	1.064583921 	-0.1467267952 	-7.672824014e-05
0.443854405 	1.081694246 	-0.1472140077 	-7.096278488e-05
0.4468226093 	1.097960721 	-0.1475383104 	-6.50362709e-05
0.4498624333 	1.113500766 	-0.1477159878 	-5.897867777e-05
0.4529779152 	1.128395267 	-0.147760154 	-5.283552319e-05
0.4561603109 	1.142691086 	-0.1476822424 	-4.667529653e-05
0.4594111038 	1.156449323 	-0.1474922961 	-4.053147797e-05
0.4627415071 	1.169741182 	-0.1471987192 	-3.441088568e-05
0.4661515159 	1.182608658 	-0.1468089951 	-2.835442009e-05
0.4696347154 	1.195074037 	-0.1463301029 	-2.240627757e-05
0.4731927477 	1.2071798 	-0.1457674262 	-1.658535986e-05
0.4768445041 	1.218969519 	-0.1451250578 	-1.087731465e-05
0.4805747108 	1.230451623 	-0.1444081854 	-5.343155959e-06
0.4843811158 	1.241631356 	-0.143621271 	8.016987776e-08
0.4843850066 	1.241642782 	-0.1436204605 	-5.583083527e-09
0.4882838661 	1.252557042 	-0.1427584913 	-5.362594765e-06
0.4922714507 	1.26321672 	-0.141831253 	-1.051271096e-05
0.4963449371 	1.273626887 	-0.1408412054 	-1.543912311e-05
0.5005171354 	1.283800978 	-0.1397896176 	-2.01526736e-05
0.5047844462 	1.293737464 	-0.1386785887 	-2.462592607e-05
0.5091437605 	1.303433766 	-0.1375094666 	-2.884708579e-05
0.5136100229 	1.312892388 	-0.1362825603 	-3.282926968e-05
0.5181750356 	1.322101748 	-0.1349993607 	-3.654350178e-05
0.5228412668 	1.331053057 	-0.1336605674 	-3.999119817e-05
0.5276201081 	1.339741151 	-0.1322665259 	-4.317490904e-05
0.532502178 	1.34815298 	-0.1308181947 	-4.607668182e-05
0.5374991182 	1.356274806 	-0.1293155596 	-4.871022654e-05
0.5426084424 	1.364082285 	-0.1277584748 	-5.106270203e-05
0.5478325013 	1.371541274 	-0.1261458107 	-5.314122035e-05
0.5531783339 	1.378607561 	-0.1244756813 	-5.494436648e-05
0.5586411292 	1.385224957 	-0.1227457444 	-5.646949579e-05
0.5642332431 	1.391330236 	-0.1209530935 	-5.772378372e-05
0.5699469036 	1.396853936 	-0.1190952336 	-5.869975071e-05
0.5757951898 	1.401729756 	-0.1171698156 	-5.940623458e-05
0.5817713301 	1.405900274 	-0.1151761719 	-5.983323767e-05
0.5878869742 	1.409327831 	-0.1131152532 	-5.999000476e-05
0.5941368702 	1.412000466 	-0.1109893876 	-5.987372928e-05
0.6005323315 	1.413937275 	-0.1088022752 	-5.948859195e-05
0.6070690901 	1.415190721 	-0.1065635703 	-5.883777203e-05
0.6137560854 	1.415843876 	-0.1042838553 	-5.794209081e-05
0.6205927022 	1.415990711 	-0.1019710644 	-5.681937433e-05
0.627584302 	1.41571932 	-0.09963059993 	-5.547546421e-05
0.6347343213 	1.41510398 	-0.09727679291 	-5.394922354e-05
0.6420445571 	1.414180131 	-0.09491549562 	-5.224506716e-05
0.6495220731 	1.412931791 	-0.09253165061 	-5.033966595e-05
0.6571675809 	1.411335473 	-0.09012632567 	-4.82885308e-05
0.664985713 	1.409382474 	-0.08770685149 	-4.612739528e-05
0.6729818115 	1.40706259 	-0.08527030747 	-4.385158666e-05
0.6811582993 	1.404361788 	-0.08281629345 	-4.148276713e-05
0.6895196864 	1.401263349 	-0.08034541085 	-3.90397055e-05
0.6980715346 	1.397766061 	-0.07787089411 	-3.654751307e-05
0.7066231767 	1.393916415 	-0.07543387497 	-3.407153527e-05
0.7149852586 	1.389778407 	-0.07307232803 	-3.16728352e-05
0.7231625788 	1.385380563 	-0.07079374396 	-2.936622023e-05
0.7311592505 	1.380728168 	-0.06859304748 	-2.715811123e-05
0.7389790548 	1.375821678 	-0.06646512965 	-2.505070447e-05
0.7466263646 	1.370655309 	-0.06440477234 	-2.30445297e-05
0.7541050199 	1.365216704 	-0.06240696061 	-2.114067714e-05
0.7614185963 	1.359487578 	-0.06046685138 	-1.933716913e-05
0.7685712025 	1.353445846 	-0.05857977198 	-1.763205844e-05
0.7755661418 	1.347069586 	-0.05674168842 	-1.602350599e-05
0.7824070552 	1.340341764 	-0.05494918598 	-1.450760985e-05
0.7890974401 	1.333255237 	-0.05319971636 	-1.308223813e-05
0.7956405195 	1.325816669 	-0.05149167679 	-1.174339236e-05
0.8020397589 	1.31804787 	-0.04982425309 	-1.048847364e-05
0.8082981556 	1.309983938 	-0.04819731048 	-9.314103293e-06
0.8144190238 	1.301668025 	-0.04661098298 	-8.217339547e-06
0.8204052398 	1.293144111 	-0.04506540426 	-7.195171266e-06
0.8262599175 	1.28444986 	-0.0435603409 	-6.244408197e-06
0.8319858447 	1.275612579 	-0.04209506785 	-5.361896154e-06
0.8375859638 	1.266649522 	-0.04066849878 	-4.544365209e-06
0.8430629577 	1.257570753 	-0.03927936108 	-3.788470592e-06
0.8484196004 	1.248381887 	-0.03792634625 	-3.09124384e-06
0.85365849 	1.239085983 	-0.03660812773 	-2.449288369e-06
0.8587822426 	1.22968467 	-0.03532342908 	-1.860020526e-06
0.863793369 	1.220178753 	-0.03407102024 	-1.320204489e-06
0.8686943417 	1.210568418 	-0.03284970791 	-8.27492628e-07
0.8734875843 	1.200853194 	-0.03165836431 	-3.790803896e-07
0.8778468165 	1.191720276 	-0.03057736391 	4.084388207e-06
0.8781753908 	1.191031823 	-0.03049580661 	-2.534967755e-08
0.8827594981 	1.181102087 	-0.0293604044 	-3.643848412e-07
0.8872428535 	1.171060421 	-0.02825174598 	-6.683379991e-07
0.891627664 	1.160901958 	-0.02716876345 	-9.389595816e-07
0.8959160904 	1.150620288 	-0.02611042648 	-1.178141135e-06
0.9001102307 	1.140207324 	-0.02507568327 	-1.387640812e-06
0.9042121522 	1.129653138 	-0.02406350947 	-1.568925204e-06
0.9082238701 	1.118945789 	-0.02307289257 	-1.723581711e-06
0.9121473531 	1.108071132 	-0.02210280161 	-1.852991556e-06
0.9159845336 	1.097012586 	-0.02115223043 	-1.958363529e-06
0.9197372974 	1.085750869 	-0.02022017801 	-2.040963454e-06
0.9234074881 	1.074263728 	-0.01930563187 	-2.101913658e-06
0.9269969133 	1.062525661 	-0.01840760134 	-2.142207972e-06
0.9305073394 	1.050507618 	-0.01752511988 	-2.162848723e-06
0.9339404922 	1.038176725 	-0.01665723311 	-2.164807502e-06
0.9372980631 	1.025496007 	-0.01580302243 	-2.148952792e-06
0.9405817066 	1.012424095 	-0.01496163286 	-2.116151345e-06
0.943793039 	0.9989149273 	-0.01413226594 	-2.067315947e-06
0.946933643 	0.9849174855 	-0.01331419562 	-2.003331871e-06
0.9500050675 	0.9703756185 	-0.01250680684 	-1.92511768e-06
0.9530088273 	0.9552281509 	-0.01170963403 	-1.833663595e-06
0.9559464037 	0.9394096572 	-0.01092232533 	-1.730074407e-06
0.9588192463 	0.9242483087 	-0.01020832123 	-1.629850018e-06
0.9606895011 	0.9114450198 	-0.009634869361 	-1.534843443e-06
0.9624903871 	0.8999054377 	-0.009140118462 	-1.452108407e-06
0.9642244716 	0.8882388745 	-0.008660797228 	-1.368334023e-06
0.9658942272 	0.8764372397 	-0.008196592 	-1.284192117e-06
0.9675020356 	0.8644936945 	-0.007747225809 	-1.2002988e-06
0.9690501906 	0.8524017806 	-0.007312466462 	-1.11721967e-06
0.9705409013 	0.8401547974 	-0.006892106922 	-1.035492346e-06
0.9719762954 	0.8277453661 	-0.006485958295 	-9.556651237e-07
0.973358422 	0.8151651481 	-0.006093850609 	-8.783558174e-07
0.9746892545 	0.802404701 	-0.005715639536 	-8.043178629e-07
0.9759706936 	0.7894534435 	-0.005351218294 	-7.344809848e-07
0.9772045696 	0.7762996374 	-0.005000530226 	-6.699133104e-07
0.9783926452 	0.7629301622 	-0.00466357521 	-6.116228088e-07
0.9795366182 	0.74932963 	-0.004340390022 	-5.600525263e-07
0.9806381232 	0.7354780816 	-0.004030963076 	-5.140270609e-07
0.9816987349 	0.7213469161 	-0.003735099743 	-4.710562858e-07
0.9827199694 	0.7068974167 	-0.003452403413 	-4.292204928e-07
0.9837032868 	0.6920848242 	-0.003182414826 	-3.886317719e-07
0.9846500934 	0.6768616976 	-0.002924750547 	-3.503785274e-07
0.9855617431 	0.6611763236 	-0.002679123187 	-3.148851347e-07
0.9864395401 	0.6449689188 	-0.002445286745 	-2.820747993e-07
0.98728474 	0.6281685661 	-0.00222299958 	-2.517178788e-07
0.9880985521 	0.6106907053 	-0.002012013886 	-2.236293089e-07
0.9888821408 	0.5924339739 	-0.001812079372 	-1.976536576e-07
0.9896366276 	0.5732762566 	-0.001622946851 	-1.7365234e-07
0.9903630922 	0.5530697953 	-0.001444371264 	-1.515036681e-07
0.9910625746 	0.5316352882 	-0.001276111748 	-1.311026224e-07
0.991736076 	0.5087551635 	-0.001117923129 	-1.123523636e-07
0.9923845607 	0.4841669277 	-0.000969595483 	-9.515245718e-08
0.9930089572 	0.4597857311 	-0.0008418143369 	-8.067324525e-08
0.9934115207 	0.4382440369 	-0.0007428365569 	-6.961979864e-08
0.993814092 	0.4174949887 	-0.0006581342831 	-6.031784827e-08
0.994216671 	0.3947953258 	-0.0005758327751 	-5.138412388e-08
0.9946192577 	0.3698966733 	-0.0004962488209 	-4.284672925e-08
0.9950218521 	0.3425861379 	-0.0004198357695 	-3.474796686e-08
0.9954244543 	0.3127589224 	-0.0003471975408 	-2.716231239e-08
0.9958270642 	0.2805174848 	-0.0002791353875 	-2.021971246e-08
0.9962296818 	0.2462517807 	-0.0002166408552 	-1.411186697e-08
0.9966323072 	0.2106190707 	-0.0001607808805 	-9.054071552e-09
0.9970349403 	0.1743847753 	-0.0001124798397 	-5.193152261e-09
0.9974375811 	0.1382101193 	-7.230698121e-05 	-2.507354148e-09
0.9978402296 	0.1025280408 	-4.060514211e-05 	-8.342062945e-10
0.9982428859 	0.0675545042 	-1.854779962e-05 	-2.545139435e-10
0.9986455499 	0.03337068815 	-9.5817165e-06 	-1.794005236e-09
0.9990482216 	0.01204249897 	-6.562970611e-06 	-2.421891824e-09
0.9990482216 	0.01204249897 	-6.562970611e-06 	-2.421891824e-09
