0.3526933958 	0.02251530288 	0.003544974055 	-7.41307729e-07
0.3526933958 	0.02251530288 	0.003544974055 	-7.41307729e-07
0.3530660638 	0.07833897695 	0.01225730564 	-2.426875559e-06
0.353438761 	0.1559120785 	0.02433105964 	-4.284920089e-06
0.3538114816 	0.2326183643 	0.03628138141 	-5.590501351e-06
0.3541842197 	0.3081357136 	0.04803807959 	-6.342080904e-06
0.3545569697 	0.3817325626 	0.05948246066 	-6.538214794e-06
0.3549297257 	0.4522700065 	0.07043773495 	-6.187004049e-06
0.3553024819 	0.5185332795 	0.08071570836 	-5.318053756e-06
0.3556752325 	0.5796878666 	0.09018742832 	-3.98221058e-06
0.3560479719 	0.6355930633 	0.09883252357 	-2.240336412e-06
0.3564206943 	0.6866968464 	0.1067223316 	-1.433845273e-07
0.3564442209 	0.6896552953 	0.1071784514 	1.975044433e-05
0.3567920191 	0.7335654461 	0.1139482844 	-2.149333354e-06
0.3571632247 	0.7766256038 	0.1205764559 	-4.695757279e-06
0.3575343985 	0.8162236683 	0.1266612661 	-7.470061346e-06
0.357905535 	0.8526639378 	0.1322503144 	-1.044098843e-05
0.3582766287 	0.8906358142 	0.138063009 	-1.36425692e-05
0.3588521308 	0.9334950495 	0.1446049071 	-1.872154706e-05
0.3594497083 	0.976370869 	0.1511270566 	-2.432679787e-05
0.3600701783 	1.015980004 	0.1571262611 	-3.038434196e-05
0.3607143836 	1.052992636 	0.1627059328 	-3.688483086e-05
0.3613831935 	1.087766372 	0.1679210143 	-4.380519042e-05
0.3620775035 	1.120424268 	0.1727893752 	-5.109612064e-05
0.3627982357 	1.150963834 	0.1773083197 	-5.866672332e-05
0.3635463384 	1.179276901 	0.1814578232 	-6.639086833e-05
0.3643227865 	1.205197968 	0.1852080788 	-7.413322222e-05
0.3651285803 	1.22855134 	0.1885267148 	-8.175761637e-05
0.3659647457 	1.249178285 	0.1913834748 	-8.913930629e-05
0.3668323333 	1.267061295 	0.1937715458 	-9.624255928e-05
0.3677450525 	1.282405779 	0.1957179093 	-0.0001032649561
0.3687063606 	1.295408021 	0.1972483801 	-0.0001102683236
0.3697039903 	1.30614573 	0.1983765816 	-0.0001170805288
0.3707392893 	1.314763673 	0.1991278641 	-0.0001237583654
0.3718136541 	1.32152058 	0.199543297 	-0.0001304412558
0.3729285311 	1.326714956 	0.1996700839 	-0.0001372352888
0.3740854191 	1.330639663 	0.1995560049 	-0.0001442380058
0.3752858708 	1.333567893 	0.1992483861 	-0.0001515573641
0.3765314947 	1.335751762 	0.1987901648 	-0.0001592280058
0.3778239569 	1.337400728 	0.1982148561 	-0.0001672156104
0.3791649839 	1.338664409 	0.1975464932 	-0.000175476175
0.3805563636 	1.339642452 	0.1968005306 	-0.0001839555621
0.3820075652 	1.340403488 	0.1959820283 	-0.0001735292616
0.3835465668 	1.340989777 	0.1950928048 	-0.0001613735722
0.3851430382 	1.34142417 	0.1941430157 	-0.0001490893627
0.3867990762 	1.341726513 	0.1931406691 	-0.0001366742562
0.3885168525 	1.341913703 	0.1920873496 	-0.0001241176342
0.3902986161 	1.341998508 	0.1908510586 	-0.0001113326989
0.3930312964 	1.341957403 	0.1892831826 	-9.274488716e-05
0.3958203759 	1.341725676 	0.1875340372 	-7.433472639e-05
0.3987367646 	1.341294353 	0.185711192 	-5.57661577e-05
0.4017172805 	1.340656957 	0.1838192469 	-3.774305601e-05
0.4047587458 	1.339837925 	0.1818834556 	-2.029450878e-05
0.4078624427 	1.338870536 	0.1799101819 	-3.386892856e-06
0.408507382 	1.338649697 	0.1795012461 	-2.688320146e-05
0.4110456583 	1.337774125 	0.1778957812 	-1.276670401e-05
0.4143481618 	1.336576687 	0.1758355544 	-2.860461384e-05
0.4177179331 	1.33530667 	0.1737460901 	-4.387728988e-05
0.4211564133 	1.333983538 	0.1716376926 	-5.859075497e-05
0.4246795208 	1.3326091 	0.1695012283 	-7.281085362e-05
0.428341775 	1.331184418 	0.1673293049 	-8.675965085e-05
0.4320781569 	1.32971944 	0.1651360094 	-0.0001000752292
0.4358902905 	1.328218132 	0.1629271572 	-0.0001127578417
0.4398212101 	1.326672855 	0.1606911219 	-0.0001249648134
0.4438740894 	1.325083021 	0.1584277677 	-0.0001132920494
0.4480086724 	1.323454489 	0.1561484527 	-9.700369295e-05
0.452240585 	1.321782452 	0.1538490861 	-8.133646387e-05
0.4566289783 	1.32006114 	0.1515209323 	-6.609166295e-05
0.4611054784 	1.318296187 	0.1491754374 	-5.158525134e-05
0.465682492 	1.316485594 	0.1468130143 	-3.777492791e-05
0.4704259773 	1.314623068 	0.1444242377 	-2.446687097e-05
0.4752645002 	1.312712498 	0.1420183413 	-1.193759695e-05
0.4802275665 	1.310752599 	0.1395956579 	-9.637651555e-08
0.4802703665 	1.310735782 	0.1395751934 	-1.340320489e-06
0.4853391831 	1.30873527 	0.1371535456 	-1.094920057e-05
0.4905536057 	1.306666349 	0.1346953253 	-2.122730982e-05
0.4959333831 	1.304543343 	0.132217853 	-3.089122806e-05
0.5014425757 	1.302366372 	0.1297236967 	-3.982288384e-05
0.5070888391 	1.300134963 	0.1272148009 	-4.804557199e-05
0.5129014493 	1.297847498 	0.1246895472 	-5.559820391e-05
0.5188371457 	1.295502926 	0.122150742 	-6.23991979e-05
0.5249619201 	1.293099781 	0.1195964802 	-6.856067275e-05
0.5312104305 	1.290637075 	0.1170298685 	-7.397282054e-05
0.5376534988 	1.288113931 	0.1144501679 	-6.966540332e-05
0.5442300318 	1.285528705 	0.1118594746 	-6.05477737e-05
0.5510038769 	1.282880253 	0.1092575185 	-5.208064594e-05
0.5579221999 	1.280166833 	0.1066460377 	-4.433645267e-05
0.5650394138 	1.277386449 	0.1040248233 	-3.723295253e-05
0.5723169837 	1.274537598 	0.1013954446 	-3.080325766e-05
0.5797857123 	1.271618085 	0.09875862229 	-2.500148535e-05
0.5874361714 	1.268625668 	0.0961149635 	-1.981324962e-05
0.5952682459 	1.265557645 	0.09346555687 	-1.522286743e-05
0.6033046055 	1.26240964 	0.09080973306 	-1.118428553e-05
0.6115263494 	1.259179567 	0.08814919883 	-7.68762403e-06
0.6199481189 	1.255863093 	0.08548454811 	-4.697883142e-06
0.6285766008 	1.252454916 	0.0828155053 	-2.178426121e-06
0.6374054433 	1.248951043 	0.08014331879 	-1.039134092e-07
0.6379445686 	1.248735946 	0.079983677 	-9.825718976e-06
0.6464407797 	1.245344086 	0.07746762229 	-1.577268526e-06
0.6556954774 	1.241627067 	0.07478835434 	-2.886793697e-06
0.6651643195 	1.237814101 	0.07212033763 	-3.853849239e-06
0.6746377814 	1.233964281 	0.06950871624 	-4.49921323e-06
0.6839068024 	1.230137381 	0.06699390524 	-4.86584367e-06
0.6929769867 	1.226349193 	0.06458261604 	-5.01447746e-06
0.7018475292 	1.222595464 	0.06226871368 	-4.99151968e-06
0.7105227789 	1.218871269 	0.06004642452 	-4.834951069e-06
0.7190104577 	1.215171218 	0.05791013777 	-4.57756926e-06
0.7273107028 	1.211490753 	0.05585496991 	-4.245919916e-06
0.7354273411 	1.207824886 	0.05387635109 	-3.859673069e-06
0.7433672849 	1.20416811 	0.0519699277 	-3.4366669e-06
0.7511313329 	1.200515432 	0.05013169528 	-2.991097381e-06
0.7587242144 	1.196861532 	0.04835806471 	-2.532632251e-06
0.76615041 	1.19320088 	0.04664557764 	-2.071515947e-06
0.7734121043 	1.18952805 	0.04499096525 	-1.613760168e-06
0.7805145843 	1.185837417 	0.04339135599 	-1.16482183e-06
0.7874599699 	1.18212347 	0.04184391527 	-7.294410518e-07
0.7942525637 	1.178380636 	0.04034613482 	-3.098318657e-07
0.7993463969 	1.17548407 	0.03923385115 	-1.814364046e-05
0.8008952211 	1.17460329 	0.03889552139 	-8.789320248e-08
0.8073911734 	1.170785777 	0.03748970913 	-4.570818064e-07
0.8137440407 	1.1669227 	0.03612685701 	-8.047588358e-07
0.8199569865 	1.163008458 	0.03480503568 	-1.131310873e-06
0.8260331361 	1.159037327 	0.03352245516 	-1.435594468e-06
0.8319755247 	1.155003401 	0.03227742913 	-1.718465048e-06
0.8377870753 	1.150900511 	0.03106840147 	-1.979392119e-06
0.8434707683 	1.146722167 	0.02989387325 	-2.219438235e-06
0.8490293038 	1.142461515 	0.02875249737 	-2.438575191e-06
0.8544656142 	1.138111283 	0.02764290694 	-2.637777182e-06
0.8597822217 	1.133663771 	0.0265639441 	-2.817575858e-06
0.8649819215 	1.129110765 	0.02551437068 	-2.978560266e-06
0.8700671797 	1.124443461 	0.02449312777 	-3.121801906e-06
0.8750405592 	1.119652314 	0.02349915776 	-3.247677613e-06
0.8799045328 	1.114726796 	0.02253141487 	-3.357326938e-06
0.8846614665 	1.109655162 	0.02158901014 	-3.451372888e-06
0.8893137612 	1.10442411 	0.0206709301 	-3.530524469e-06
0.8938636794 	1.099018573 	0.01977627892 	-3.595815006e-06
0.8983134717 	1.093421675 	0.01890416806 	-3.647807693e-06
0.90266536 	1.087614949 	0.01805360611 	-3.687324748e-06
0.9069214635 	1.081579003 	0.01722369846 	-3.715169715e-06
0.9110838922 	1.075294533 	0.01641348818 	-3.731843177e-06
0.9151547083 	1.068743577 	0.01562195754 	-3.737997834e-06
0.9191359065 	1.061910881 	0.01484817281 	-3.734192272e-06
0.923029456 	1.054784939 	0.01409118421 	-3.720747422e-06
0.9268372819 	1.047358435 	0.01335002573 	-3.697998964e-06
0.9305612553 	1.039627935 	0.01262384593 	-3.666259972e-06
0.9342032158 	1.031592771 	0.01191187614 	-3.625637312e-06
0.9377649631 	1.023253405 	0.01121336547 	-3.576220286e-06
0.9412482515 	1.014609876 	0.01052766786 	-3.51829332e-06
0.9446548003 	1.00566107 	0.009854202208 	-3.452317282e-06
0.9479862926 	0.9964051528 	0.009192306182 	-3.379124421e-06
0.9512443736 	0.9868404743 	0.008541202007 	-3.299644462e-06
0.9544306506 	0.9777904476 	0.00795264738 	-3.225865599e-06
0.9565049512 	0.9702431428 	0.007481345406 	-3.147916554e-06
0.9585023125 	0.9635005381 	0.00707577065 	-3.078922114e-06
0.9604255825 	0.9567098478 	0.006683873711 	-3.007825874e-06
0.9622775039 	0.9498350022 	0.006305529115 	-2.931064383e-06
0.9640607181 	0.9428523694 	0.005940797136 	-2.849261542e-06
0.9657777694 	0.9357435741 	0.005589415498 	-2.766029878e-06
0.9674311082 	0.9284881649 	0.005250986425 	-2.681044864e-06
0.9690230944 	0.9210631597 	0.004925204116 	-2.59407374e-06
0.9705560011 	0.9134428681 	0.004611798051 	-2.505235246e-06
0.972032017 	0.9055986949 	0.004310509293 	-2.414703231e-06
0.9734532503 	0.8974988791 	0.004021089529 	-2.322634011e-06
0.974821731 	0.8891081817 	0.003743298149 	-2.229240023e-06
0.9761394143 	0.8803875208 	0.003476884851 	-2.134955478e-06
0.977408183 	0.8712935444 	0.003221583657 	-2.039839342e-06
0.9786298506 	0.8617758044 	0.002977301882 	-1.942514723e-06
0.9798061632 	0.8517645715 	0.002744017906 	-1.843346251e-06
0.9809388025 	0.8411659639 	0.002521627935 	-1.742127488e-06
0.9820293881 	0.8298790265 	0.002310167255 	-1.637967117e-06
0.9830794794 	0.8178054003 	0.002109659199 	-1.532570922e-06
0.9840905785 	0.8048439988 	0.00191995152 	-1.427098545e-06
0.9850641316 	0.7908866903 	0.001740831477 	-1.322083034e-06
0.9860015314 	0.7758152802 	0.001572064312 	-1.21803265e-06
0.9869041191 	0.7594989484 	0.001413392154 	-1.115520643e-06
0.9877731863 	0.7417917614 	0.001264533245 	-1.015135307e-06
0.9886099767 	0.7225299616 	0.001125186398 	-9.174416416e-07
0.9894156879 	0.7015279054 	0.0009950347399 	-8.229753475e-07
0.9901914733 	0.6785744556 	0.0008737481945 	-7.322261779e-07
0.9909384435 	0.6534334837 	0.0007609956216 	-6.455898613e-07
0.9916576678 	0.6258454497 	0.0006564574258 	-5.63391077e-07
0.992350176 	0.5980993149 	0.00056740633 	-4.922044441e-07
0.9927966529 	0.5733956097 	0.0004991460037 	-4.366153452e-07
0.9932431382 	0.5495229852 	0.0004412001946 	-3.890903959e-07
0.993689632 	0.5233799833 	0.0003853300233 	-3.428496082e-07
0.9941361343 	0.4947116441 	0.0003317576386 	-2.981324902e-07
0.9945826452 	0.4631803643 	0.0002806533982 	-2.55124162e-07
0.9950291645 	0.4284007972 	0.0002321829361 	-2.138890164e-07
0.9954756924 	0.390158467 	0.0001867512491 	-1.74667436e-07
0.9959222287 	0.3485318366 	0.0001449708023 	-1.37927451e-07
0.9963687736 	0.3038829437 	0.0001075221063 	-1.042338649e-07
0.996815327 	0.2567872798 	7.508377487e-05 	-7.425569209e-08
0.9972618889 	0.2078497062 	4.829091045e-05 	-4.869821943e-08
0.9977084593 	0.1575254378 	2.755942549e-05 	-2.818040421e-08
0.9981550382 	0.1060602761 	1.19360273e-05 	-1.271960849e-08
0.9986016256 	0.05354468849 	-3.277517422e-06 	-5.157753844e-10
0.9990482216 	0.01950657784 	-8.437489038e-06 	3.73321182e-09
