0 	0.3671014601 	-1.641153862e-14 	2.118864857e-22
0.0006299624726 	0.3671004337 	-0.0001330629201 	1.414382247e-07
0.001259922727 	0.3671062372 	-0.0002500545566 	2.619002668e-07
0.001889880757 	0.367124522 	-0.000367175281 	3.788524813e-07
0.002519836559 	0.3671514846 	-0.0004874182753 	4.953343817e-07
0.00314979013 	0.3671866203 	-0.0006082250148 	6.086397688e-07
0.003779741465 	0.3672297697 	-0.0007291180025 	7.182741848e-07
0.004409690564 	0.3672808609 	-0.0008500665039 	8.242074619e-07
0.005039637424 	0.3673398524 	-0.0009710610478 	9.264328049e-07
0.005669582045 	0.3674067154 	-0.001092079901 	1.024933724e-06
0.006299524428 	0.3674814267 	-0.001213106343 	1.11970093e-06
0.006929464573 	0.3675639656 	-0.001334129896 	1.210733019e-06
0.007559402482 	0.3676543123 	-0.001455143593 	1.298033574e-06
0.008189338158 	0.3677524468 	-0.001576142419 	1.381609798e-06
0.008819271603 	0.3678583489 	-0.001697118636 	1.46146867e-06
0.009449202822 	0.3679888818 	-0.001835179487 	1.552106669e-06
0.01042627816 	0.3681670316 	-0.002008359693 	1.650696641e-06
0.01144107264 	0.3683859211 	-0.002203174315 	1.756461524e-06
0.01249504218 	0.3686343687 	-0.002405405225 	1.85629773e-06
0.0135896989 	0.3689151006 	-0.002615326895 	1.949290722e-06
0.01472661327 	0.3692310624 	-0.00283321383 	2.034454357e-06
0.01590741638 	0.3695854359 	-0.00305934982 	2.110738166e-06
0.01713380225 	0.3699816556 	-0.003294027518 	2.177027042e-06
0.01840753034 	0.3704234277 	-0.003537547767 	2.23214277e-06
0.01973042799 	0.3709154259 	-0.003790555311 	2.275069531e-06
0.02111125744 	0.371463093 	-0.004053829264 	2.303830351e-06
0.02254802119 	0.3720709973 	-0.004327508715 	2.316715526e-06
0.02404024843 	0.3727434055 	-0.004611500401 	2.311923017e-06
0.02559007988 	0.3734855326 	-0.004906030057 	2.287474283e-06
0.02719973888 	0.3743032636 	-0.005211447279 	2.241317779e-06
0.02887153458 	0.3752029338 	-0.005528108114 	2.171246907e-06
0.03060786522 	0.3761913611 	-0.005856374553 	2.074890984e-06
0.03241122156 	0.377275881 	-0.006196613726 	1.949705821e-06
0.03428419049 	0.3784643831 	-0.00654919692 	1.792964101e-06
0.0362294587 	0.3797653515 	-0.006914498435 	1.601745606e-06
0.03824981657 	0.3811880964 	-0.007292943269 	1.372937532e-06
0.04034919392 	0.3827450767 	-0.007685552021 	1.103109458e-06
0.04254220021 	0.3844496495 	-0.008093246314 	7.865328091e-07
0.04481986049 	0.3863112265 	-0.008515786415 	4.214546687e-07
0.04718544201 	0.3883398625 	-0.008952983619 	3.778058679e-09
0.04720596277 	0.3883583027 	-0.008956756327 	9.05867574e-09
0.04964233816 	0.3905338055 	-0.009406086956 	5.099877796e-07
0.0521940732 	0.3929217055 	-0.009874659609 	1.090553143e-06
0.05484430744 	0.3955189094 	-0.01035902197 	1.742746803e-06
0.05759684237 	0.3983420657 	-0.01085952771 	2.471999022e-06
0.06045679983 	0.4014134644 	-0.0113771975 	3.284558766e-06
0.06344293631 	0.4051890968 	-0.01197992701 	4.214630014e-06
0.0680303274 	0.410197187 	-0.01273170109 	5.69354184e-06
0.0727216763 	0.4160994904 	-0.01355729191 	7.36209858e-06
0.07751933878 	0.4225057881 	-0.01439128714 	9.200203211e-06
0.08243678312 	0.4294500165 	-0.01523364026 	1.12146838e-05
0.08748051347 	0.4369605827 	-0.01608311915 	1.340804004e-05
0.09263855481 	0.4450551306 	-0.01693704093 	1.57757265e-05
0.09791349788 	0.4537608859 	-0.01779360982 	1.831790312e-05
0.1033219993 	0.4631175997 	-0.01865183483 	2.103958726e-05
0.1088648393 	0.4731548694 	-0.01950928619 	2.165016216e-05
0.1145333149 	0.4838915685 	-0.02036238922 	2.050350577e-05
0.1203302739 	0.495364889 	-0.02120877081 	1.917501206e-05
0.126283763 	0.5076206996 	-0.02204615711 	1.765582774e-05
0.1323724013 	0.520678461 	-0.0228700011 	1.59581533e-05
0.13859906 	0.5345665247 	-0.02367616652 	1.408391817e-05
0.1449844499 	0.5493313831 	-0.02446114545 	1.203042808e-05
0.1515216595 	0.5649984326 	-0.02521985896 	9.810503319e-06
0.1582070715 	0.5815920189 	-0.02594698848 	7.43415009e-06
0.1650600416 	0.5991506671 	-0.02663756318 	4.904400657e-06
0.1720761416 	0.617692235 	-0.02728556544 	2.239812489e-06
0.1778742496 	0.6334780415 	-0.0277696312 	4.861263304e-06
0.1792513138 	0.6372268582 	-0.02788590586 	5.890450702e-07
0.1866082084 	0.6577651077 	-0.02843621218 	3.725648723e-06
0.1941355691 	0.679313994 	-0.02892565321 	6.952344074e-06
0.201837514 	0.7018577893 	-0.02934818778 	1.025033375e-05
0.2097317023 	0.7253720728 	-0.02969837665 	1.36002517e-05
0.2178048959 	0.7497926076 	-0.02997128077 	1.697145013e-05
0.2260749236 	0.775038174 	-0.03016337531 	2.034841081e-05
0.2345389491 	0.8009874808 	-0.0302727647 	2.370321718e-05
0.2432009396 	0.8274816488 	-0.03029979111 	2.701970711e-05
0.252072218 	0.8543249977 	-0.03024745246 	3.028059172e-05
0.2611461362 	0.8812788557 	-0.03012164744 	3.347009836e-05
0.2704418772 	0.9080845804 	-0.02993106378 	3.657967736e-05
0.279948433 	0.9344671576 	-0.02968659071 	3.696938529e-05
0.2896860092 	0.9601777026 	-0.02940009706 	3.387592498e-05
0.2996451109 	0.9850078236 	-0.02908294258 	3.081325309e-05
0.3098437913 	1.008823683 	-0.02874442495 	2.77869452e-05
0.3202747851 	1.031564063 	-0.02839081848 	2.481388836e-05
0.3309556803 	1.053240473 	-0.0280251265 	2.190395805e-05
0.3418805904 	1.07390481 	-0.02764765905 	1.907565609e-05
0.3530635948 	1.093633901 	-0.02725683999 	1.634356519e-05
0.3645041893 	1.112499177 	-0.02685016246 	1.37218361e-05
0.376211093 	1.130555247 	-0.02642484597 	1.122491066e-05
0.3881898512 	1.147827285 	-0.0259782552 	8.860308562e-06
0.4004437244 	1.164305185 	-0.02550805573 	6.638513559e-06
0.4129838138 	1.17994124 	-0.02501213862 	4.563809123e-06
0.4258115502 	1.194639707 	-0.02448861871 	2.640341015e-06
0.438934409 	1.208256845 	-0.02393563733 	8.724787419e-07
0.4461214683 	1.214862274 	-0.02362307254 	2.665671142e-05
0.4523607748 	1.220598029 	-0.02335253385 	7.926529903e-07
0.4660946366 	1.231427314 	-0.02273767774 	2.350058082e-06
0.4801431735 	1.240503803 	-0.02208882988 	3.735280045e-06
0.4945150618 	1.24761033 	-0.02141003039 	4.950559045e-06
0.5088894551 	1.252628701 	-0.02071667591 	5.976955791e-06
0.5229473462 	1.255701971 	-0.02002593766 	6.811057685e-06
0.5366960301 	1.257159279 	-0.01934536704 	7.479437828e-06
0.5501417812 	1.257325484 	-0.01867753614 	8.00697331e-06
0.5632905288 	1.256457815 	-0.01802359078 	8.413960051e-06
0.5761491699 	1.254742519 	-0.01738354325 	8.718049325e-06
0.5887237696 	1.252306735 	-0.01675673024 	8.935958536e-06
0.6010201278 	1.249233354 	-0.01614214709 	9.080136215e-06
0.6130448619 	1.245574042 	-0.01553864375 	9.161840105e-06
0.6248033648 	1.241359707 	-0.01494511437 	9.191219152e-06
0.6363016453 	1.236609179 	-0.01436052097 	9.175334684e-06
0.6475454267 	1.231337739 	-0.01378414361 	9.121868451e-06
0.6585401132 	1.225562354 	-0.01321566963 	9.035721312e-06
0.6692914304 	1.2193019 	-0.01265503814 	8.922336298e-06
0.6798044385 	1.212576637 	-0.01210243106 	8.785535355e-06
0.6900846696 	1.205408144 	-0.01155825468 	8.628922872e-06
0.7001369949 	1.197819055 	-0.01102311018 	8.455497197e-06
0.709966655 	1.189832572 	-0.0104977512 	8.267612509e-06
0.7195783858 	1.181472197 	-0.009983061574 	8.06732738e-06
0.7289771609 	1.172761679 	-0.009480078293 	7.85627211e-06
0.7381675586 	1.163725404 	-0.008990415686 	7.632789992e-06
0.7471542778 	1.154378215 	-0.008514652257 	7.404609368e-06
0.7559417682 	1.144689994 	-0.008051201827 	7.18140547e-06
0.7645344677 	1.134591573 	-0.007596681419 	6.963508801e-06
0.7729366838 	1.124043985 	-0.00714908443 	6.746982696e-06
0.7811526225 	1.113063031 	-0.006709137173 	6.529483895e-06
0.7891864349 	1.101694627 	-0.006277716321 	6.312412572e-06
0.7970421296 	1.089994019 	-0.005855402161 	6.097199684e-06
0.8047236705 	1.078009204 	-0.005442314066 	5.884289531e-06
0.8122349102 	1.065772143 	-0.005038230715 	5.673407214e-06
0.8195796179 	1.053298081 	-0.004642836422 	5.464778572e-06
0.8267614972 	1.040589827 	-0.004255891371 	5.258376797e-06
0.8337841463 	1.027643263 	-0.00387726698 	5.054122814e-06
0.8406510965 	1.014451671 	-0.003506954461 	4.852036723e-06
0.8473658039 	1.001008252 	-0.003145050715 	4.651758316e-06
0.8539316385 	0.9873072273 	-0.002791751892 	4.452929308e-06
0.8603519015 	0.9733442134 	-0.00244738649 	4.255203741e-06
0.8666298224 	0.9591163996 	-0.002112439134 	4.058025024e-06
0.8727685545 	0.9446227466 	-0.001787563725 	3.860924827e-06
0.8787711837 	0.9298640636 	-0.00147358865 	3.663613141e-06
0.8846407287 	0.9148427969 	-0.001171484395 	3.465920516e-06
0.8903801391 	0.8995626214 	-0.0008823023598 	3.26790253e-06
0.8959923 	0.8840284841 	-0.0006071340725 	3.069871041e-06
0.9014800328 	0.8682485049 	-0.0003471490182 	2.871965538e-06
0.9068460964 	0.852239531 	-0.0001037769444 	2.673476157e-06
0.9120931879 	0.8360370811 	0.0001209165405 	2.472368129e-06
0.9172239451 	0.8197065302 	0.0003237988316 	2.265657634e-06
0.9222409474 	0.8033452514 	0.0005007114645 	2.051983835e-06
0.9271467168 	0.7870581579 	0.0006478592895 	1.835917857e-06
0.9319437194 	0.77220491 	0.0007565521598 	1.647606906e-06
0.9350662734 	0.7602097468 	0.0008271885594 	1.508178683e-06
0.9380727476 	0.7497099087 	0.0008778129625 	1.395248996e-06
0.9409674572 	0.7393765293 	0.000918178418 	1.290211439e-06
0.9437545572 	0.7292016685 	0.0009488397343 	1.190422441e-06
0.9464380477 	0.7191761473 	0.0009704804837 	1.095889187e-06
0.9490217805 	0.7092895109 	0.0009838330733 	1.006586941e-06
0.951509464 	0.6995300048 	0.000989609161 	9.223829349e-07
0.9539046688 	0.6898845464 	0.0009884897588 	8.4313916e-07
0.9562108328 	0.6803386815 	0.0009811271124 	7.687251175e-07
0.958431266 	0.6708765167 	0.000968144286 	6.990043558e-07
0.9605691554 	0.6614806218 	0.0009501339754 	6.338288006e-07
0.9626275696 	0.652131894 	0.0009276581047 	5.730389285e-07
0.9646094631 	0.6428093756 	0.0009012477856 	5.164671985e-07
0.9665176803 	0.633490015 	0.0008714035891 	4.639397584e-07
0.9683549604 	0.6241483586 	0.0008385963941 	4.152789309e-07
0.9701239402 	0.6147561559 	0.0008032684214 	3.703057123e-07
0.9718271589 	0.6052818578 	0.0007658345201 	3.288419871e-07
0.973467061 	0.5956899776 	0.000726683682 	2.907123682e-07
0.9750460004 	0.5859402798 	0.0006861807457 	2.557456449e-07
0.9765662434 	0.5759867427 	0.0006446682648 	2.237758431e-07
0.9780299718 	0.5657762291 	0.0006024685138 	1.946429199e-07
0.9794392867 	0.5552467706 	0.0005598855738 	1.681931359e-07
0.9807962109 	0.5443253377 	0.0005172075824 	1.44279018e-07
0.9821026919 	0.5329249182 	0.0004747090669 	1.227591434e-07
0.983360605 	0.5209406596 	0.0004326533457 	1.034976319e-07
0.9845717556 	0.5082447338 	0.0003912949119 	8.636331376e-08
0.9857378822 	0.4946794538 	0.0003508804564 	7.122760056e-08
0.9868606585 	0.4800480084 	0.0003116473263 	5.795912545e-08
0.9879416959 	0.4641020015 	0.0002738412996 	4.642935816e-08
0.9889825462 	0.4480065793 	0.0002405622493 	3.726200023e-08
0.9896535912 	0.4335119821 	0.0002143825636 	3.069435439e-08
0.9903246363 	0.4192575203 	0.0001917604524 	2.544265514e-08
0.9909956813 	0.4032774597 	0.0001696161908 	2.067020864e-08
0.9916667263 	0.3851953545 	0.0001480686491 	1.636985502e-08
0.9923377713 	0.3645468374 	0.0001272624411 	1.253268124e-08
0.9930088164 	0.3407855106 	0.0001073458223 	9.146780072e-09
0.9936798614 	0.3133401303 	8.846187367e-05 	6.208394097e-09
0.9943509064 	0.2817819444 	7.074503646e-05 	3.737937826e-09
0.9950219514 	0.2461302857 	5.434444875e-05 	1.790021571e-09
0.9956929965 	0.2071230532 	3.947219457e-05 	4.303588193e-10
0.9963640415 	0.1660709922 	2.642178552e-05 	-3.23925885e-10
0.9970350865 	0.1242617997 	1.555287149e-05 	-5.535014334e-10
0.9977061315 	0.08248394235 	7.309492784e-06 	-4.349879848e-10
0.9983771766 	0.04104010279 	2.099474794e-06 	-1.819597222e-10
0.9990482216 	0.0150875117 	2.160511079e-07 	-3.553788518e-11
0.9990482216 	0.0150875117 	2.160511079e-07 	-3.553788518e-11
