0.3810353131 	0.02151654486 	0.002782339747 	-1.634038881e-06
0.3813884705 	0.07376559927 	0.009475285896 	-5.665958414e-06
0.3817416543 	0.146859971 	0.01881305059 	-1.093288068e-05
0.3820948603 	0.2192063541 	0.0280672483 	-1.582605661e-05
0.3824480844 	0.2905496592 	0.03718851958 	-2.031621815e-05
0.3828013223 	0.360291923 	0.04609633424 	-2.435197134e-05
0.3831545698 	0.4274549177 	0.05466595085 	-2.786419211e-05
0.3835078228 	0.4909127436 	0.06275397397 	-3.07973121e-05
0.3838610772 	0.5497865283 	0.07024847072 	-3.314089262e-05
0.3842143287 	0.6037039739 	0.07710260237 	-3.494284601e-05
0.3845675733 	0.652894382 	0.0833466615 	-3.628367736e-05
0.3849208068 	0.6979423788 	0.08905623197 	-3.722687959e-05
0.3852740251 	0.739345912 	0.0942957145 	-3.781025464e-05
0.385627224 	0.7774613743 	0.09911118993 	-3.806703755e-05
0.3859803996 	0.8126085928 	0.1035437453 	-3.80299436e-05
0.3863335476 	0.8493640413 	0.108170691 	-3.790614344e-05
0.3868812478 	0.8911091472 	0.1134115622 	-3.680784844e-05
0.3874499978 	0.9331492125 	0.118673076 	-3.53316757e-05
0.3880405847 	0.9721489164 	0.1235352307 	-3.337459756e-05
0.3886538221 	1.008703668 	0.1280739036 	-3.097747237e-05
0.38929055 	1.043208575 	0.1323394664 	-2.815869222e-05
0.3899516357 	1.075867443 	0.1363577173 	-2.492870062e-05
0.3906379739 	1.10681959 	0.140145967 	-2.129723012e-05
0.3913504871 	1.136160664 	0.1437157252 	-1.727464246e-05
0.3920901257 	1.163934123 	0.1470713914 	-1.287418454e-05
0.3928578679 	1.190111322 	0.1502074813 	-8.119832804e-06
0.3936547198 	1.214589955 	0.1531082409 	-3.053825748e-06
0.3941306705 	1.227652893 	0.1546342995 	4.535339888e-05
0.3944807552 	1.23729237 	0.1557613787 	-2.181310955e-06
0.3953475702 	1.258158303 	0.1581541937 	-7.58487457e-06
0.3962595561 	1.276969404 	0.1602517286 	-1.323630553e-05
0.3972062093 	1.29351389 	0.1620265208 	-1.899541076e-05
0.3981888309 	1.307869596 	0.1634877508 	-2.483913935e-05
0.3992087697 	1.320222557 	0.1646563589 	-3.073062694e-05
0.4002674244 	1.330651631 	0.1655413338 	-3.66198936e-05
0.4013662449 	1.339226548 	0.1661506489 	-4.248635628e-05
0.4025067345 	1.346100454 	0.1665036137 	-4.835070465e-05
0.4036904516 	1.351489259 	0.1666285211 	-5.42466064e-05
0.4049190122 	1.355631086 	0.1665561909 	-6.0202426e-05
0.4061940912 	1.358754482 	0.1663178181 	-6.625879022e-05
0.4075174253 	1.361079486 	0.1659447292 	-7.246126489e-05
0.4088974251 	1.362817087 	0.1654620712 	-7.886223808e-05
0.4103585888 	1.364128656 	0.1648871894 	-8.559409548e-05
0.411874817 	1.365115899 	0.1642381714 	-9.246377541e-05
0.4134481514 	1.365852499 	0.1635292217 	-9.945578985e-05
0.415080708 	1.366392158 	0.1627674951 	-0.0001065524405
0.4167746803 	1.366805879 	0.161859778 	-0.000113634882
0.4193738901 	1.367092962 	0.1606913358 	-0.0001244155536
0.4220281845 	1.367174954 	0.1593698235 	-0.0001345597863
0.4247994043 	1.367065274 	0.1579911627 	-0.0001206846404
0.4276328339 	1.366794466 	0.1565676051 	-0.0001070882856
0.4305258756 	1.366382852 	0.155115947 	-9.378855804e-05
0.4334798118 	1.365826001 	0.1536329278 	-8.060583429e-05
0.4365157626 	1.365099285 	0.1520970866 	-6.753392331e-05
0.4396642916 	1.364193308 	0.150503858 	-5.462058353e-05
0.4428786391 	1.363130325 	0.1488719142 	-4.210183978e-05
0.4461602362 	1.361940802 	0.1472102897 	-2.995242558e-05
0.4495231813 	1.36064282 	0.1455137018 	-1.812054649e-05
0.4530154029 	1.359252546 	0.1437791479 	-6.422522913e-06
0.4550276535 	1.358428358 	0.1427849151 	-4.967633523e-05
0.4565776114 	1.357790735 	0.1420204278 	-4.767947255e-06
0.4602107055 	1.356271559 	0.1402440807 	-1.543487062e-05
0.4639559416 	1.354697714 	0.13844094 	-2.584341485e-05
0.4678163894 	1.353073385 	0.13661137 	-3.596307909e-05
0.4717570908 	1.351407182 	0.1347640743 	-4.564880793e-05
0.4757919202 	1.349696382 	0.1328965993 	-5.493736011e-05
0.4799729276 	1.347936262 	0.1310024296 	-6.396057893e-05
0.4842405501 	1.34613285 	0.1290897365 	-7.250347434e-05
0.488605864 	1.344284524 	0.127159193 	-8.059361342e-05
0.4931269537 	1.342385238 	0.1252036038 	-8.835908382e-05
0.4977415191 	1.340438975 	0.1232295254 	-8.691743248e-05
0.5024756562 	1.338444453 	0.1212374655 	-7.622567921e-05
0.5073571758 	1.336398573 	0.1192239672 	-6.591810254e-05
0.512339608 	1.334302316 	0.1171930319 	-5.613383808e-05
0.5174781532 	1.332153128 	0.1151423536 	-4.67499906e-05
0.5227415229 	1.329951221 	0.1130736132 	-3.786970953e-05
0.5281366949 	1.327696136 	0.1109883598 	-2.948082113e-05
0.5336897591 	1.325386268 	0.1088852112 	-2.155396359e-05
0.5393628973 	1.323020779 	0.106766253 	-1.416699056e-05
0.5452145328 	1.320598104 	0.1046299862 	-7.228533602e-06
0.5511874012 	1.318117505 	0.1024786639 	-8.432331551e-07
0.552041361 	1.317765348 	0.1021778337 	-1.922208796e-05
0.5573406867 	1.315575482 	0.1003122119 	-5.034466457e-06
0.5636240519 	1.312972891 	0.09813153198 	-1.037254294e-05
0.5700946173 	1.310308872 	0.09593636148 	-1.525575374e-05
0.5767061473 	1.30758195 	0.09372794587 	-1.962532571e-05
0.5835069224 	1.304790107 	0.09150616619 	-2.353864602e-05
0.5904632679 	1.301932002 	0.08927215195 	-2.696679077e-05
0.5976026856 	1.299005485 	0.08702651428 	-2.993979096e-05
0.6049171433 	1.296008424 	0.08476966674 	-3.246467822e-05
0.6124068726 	1.292938229 	0.08250248955 	-3.454860059e-05
0.6200921811 	1.289790712 	0.08022444872 	-3.622212127e-05
0.6279566857 	1.286563822 	0.07793686336 	-3.748945759e-05
0.6360136361 	1.28325337 	0.07564023984 	-3.837337357e-05
0.6442692243 	1.279854258 	0.07333435876 	-3.889850926e-05
0.6527181401 	1.276362556 	0.0710202169 	-3.908168783e-05
0.6613675425 	1.272771898 	0.06869803042 	-3.894584505e-05
0.6702274725 	1.269074567 	0.06636726058 	-3.851799378e-05
0.6792935168 	1.265284578 	0.0640407949 	-3.782814879e-05
0.6883649462 	1.261460625 	0.06175812428 	-3.634814074e-05
0.6972413332 	1.257661988 	0.05955503947 	-3.430161085e-05
0.7059277796 	1.25390416 	0.05743812373 	-3.254361722e-05
0.7144237362 	1.250182614 	0.05540255512 	-3.102869337e-05
0.7227332366 	1.24649218 	0.05344378279 	-2.971811408e-05
0.7308633074 	1.242827275 	0.05155736731 	-2.857717225e-05
0.7388142626 	1.239183092 	0.04973942825 	-2.757733211e-05
0.7465897049 	1.235554434 	0.04798631967 	-2.669610913e-05
0.7541959686 	1.231935642 	0.04629455825 	-2.591253097e-05
0.7616339741 	1.228321532 	0.04466092441 	-2.520935555e-05
0.7689081397 	1.224706627 	0.04308252505 	-2.396784361e-05
0.7760226514 	1.221085266 	0.04155656444 	-2.270329443e-05
0.7829796733 	1.217451886 	0.04008038719 	-2.147799583e-05
0.7897841164 	1.213800743 	0.03865165836 	-2.029482348e-05
0.796438081 	1.210126194 	0.03726806344 	-1.915617592e-05
0.80294561 	1.206422518 	0.03592755034 	-1.806228672e-05
0.8093095587 	1.202683963 	0.03462812803 	-1.701468748e-05
0.8155332585 	1.198904771 	0.0333679734 	-1.601232821e-05
0.8216197627 	1.195079121 	0.03214537471 	-1.505584994e-05
0.827572097 	1.191201125 	0.03095873178 	-1.414361399e-05
0.8333932385 	1.187264757 	0.0298065549 	-1.327559748e-05
0.8390860938 	1.18326382 	0.0286874375 	-1.244987075e-05
0.8446534567 	1.179191885 	0.02760007788 	-1.16659646e-05
0.8500981786 	1.175042246 	0.02654321992 	-1.092186377e-05
0.8554228511 	1.170807891 	0.02551573145 	-1.021673273e-05
0.8606302747 	1.166481447 	0.02451646086 	-9.548724591e-06
0.8657228796 	1.162055169 	0.02354442815 	-8.916566976e-06
0.8707033347 	1.157520839 	0.02259858159 	-8.318882172e-06
0.8755740165 	1.152869688 	0.02167801514 	-7.753934447e-06
0.8803373791 	1.148092246 	0.02078181788 	-7.220687916e-06
0.8849957983 	1.143178144 	0.01990908236 	-6.717374369e-06
0.8895515478 	1.138115973 	0.01905902571 	-6.242852134e-06
0.8940069298 	1.132893116 	0.01823075285 	-5.795842151e-06
0.8983641218 	1.127495774 	0.01742346157 	-5.374838428e-06
0.9026252846 	1.121909191 	0.01663635189 	-4.97881937e-06
0.9067925517 	1.116118098 	0.01586853662 	-4.606453612e-06
0.9108679623 	1.110107468 	0.01511921358 	-4.256477084e-06
0.9148535424 	1.103863402 	0.01438753541 	-3.927860619e-06
0.9187512738 	1.097373986 	0.01367261476 	-3.619348478e-06
0.9225630747 	1.090629986 	0.01297365064 	-3.329769679e-06
0.9262908367 	1.083625069 	0.01228984776 	-3.058113486e-06
0.9299364098 	1.076355516 	0.01162041686 	-2.803297262e-06
0.933501593 	1.068819589 	0.01096467682 	-2.56431831e-06
0.9369881536 	1.061016874 	0.01032200441 	-2.340465429e-06
0.9403978207 	1.052947987 	0.009691740751 	-2.131131245e-06
0.9437322807 	1.044614722 	0.009073225953 	-1.93563086e-06
0.9469931854 	1.036019605 	0.008465777058 	-1.753092287e-06
0.9501821516 	1.02716216 	0.007868747473 	-1.582034507e-06
0.9533007598 	1.018027824 	0.007281954159 	-1.420504967e-06
0.9563505546 	1.009360218 	0.006753150307 	-1.275281864e-06
0.9583359594 	1.002069361 	0.006331246547 	-1.174575063e-06
0.9602476889 	0.9954802612 	0.005969294109 	-1.085486386e-06
0.9620884727 	0.9887835422 	0.005620872339 	-1.001820664e-06
0.9638609394 	0.9819623066 	0.00528570829 	-9.237088767e-07
0.9655676202 	0.9749975353 	0.004963400132 	-8.50698137e-07
0.967210953 	0.9678679865 	0.004653649797 	-7.824657042e-07
0.968793286 	0.9605500798 	0.004356186693 	-7.187407301e-07
0.9703168801 	0.9530177622 	0.004070747818 	-6.592613173e-07
0.9717839131 	0.9452423477 	0.003797077472 	-6.037846855e-07
0.9731964818 	0.9371923289 	0.00353491785 	-5.521269884e-07
0.9745566058 	0.9288331567 	0.003283980625 	-5.041003489e-07
0.9758662299 	0.9201268544 	0.00304403909 	-4.590947819e-07
0.9771272267 	0.9110246599 	0.00281505211 	-4.168630478e-07
0.9783413998 	0.901456858 	0.002596953808 	-3.773399393e-07
0.979510486 	0.8913399108 	0.002389717836 	-3.401573962e-07
0.9806361577 	0.8805911502 	0.00219340585 	-3.053650743e-07
0.9817200256 	0.8691305372 	0.002007906663 	-2.73075835e-07
0.9827636406 	0.8568764022 	0.001832983743 	-2.432239699e-07
0.9837684963 	0.8437428311 	0.001668358105 	-2.157127373e-07
0.9847360307 	0.8296376441 	0.001513722418 	-1.904492881e-07
0.985667629 	0.8144604943 	0.001368741309 	-1.673403385e-07
0.9865646246 	0.7981008797 	0.001233054129 	-1.462885799e-07
0.9874283018 	0.7804359985 	0.001106278823 	-1.271923139e-07
0.9882598972 	0.7613284005 	0.0009880179311 	-1.099458099e-07
0.9890606017 	0.7406230978 	0.000877867263 	-9.444044053e-08
0.9898315618 	0.7181420198 	0.0007754188078 	-8.056663435e-08
0.9905738817 	0.6936807116 	0.0006802670918 	-6.821382478e-08
0.9912886248 	0.6670122005 	0.0005920325398 	-5.726880135e-08
0.9919768147 	0.6378888215 	0.0005103663275 	-4.761988068e-08
0.9926394374 	0.6087364419 	0.0004408548936 	-3.969268736e-08
0.9930666442 	0.58288755 	0.0003875769056 	-3.409696562e-08
0.9934938574 	0.557997633 	0.0003423367494 	-2.94311089e-08
0.9939210772 	0.5308341906 	0.0002987006604 	-2.510507693e-08
0.9943483034 	0.5011435184 	0.0002568376439 	-2.112163597e-08
0.9947755362 	0.4685901333 	0.0002168820581 	-1.747714033e-08
0.9952027755 	0.4328126195 	0.0001789970976 	-1.415790474e-08
0.9956300212 	0.3936338907 	0.0001435410881 	-1.116224829e-08
0.9960572735 	0.3511672236 	0.00011102113 	-8.502580734e-09
0.9964845323 	0.3058004953 	8.199178806e-05 	-6.193041754e-09
0.9969117976 	0.2581164754 	5.698321914e-05 	-4.248758483e-09
0.9973390694 	0.2087108641 	3.647238102e-05 	-2.682820255e-09
0.9977663477 	0.1580252628 	2.074036329e-05 	-1.497856393e-09
0.9981936325 	0.1062970904 	8.885157097e-06 	-6.435074038e-10
0.9986209238 	0.05361470722 	-3.192298583e-06 	6.557501899e-11
0.9990482216 	0.01951436581 	-7.269379819e-06 	2.916608124e-10
