0.4709558481 	0.01695533353 	4.233793255e-09 	-2.592368841e-13
0.4709558481 	0.01695533353 	4.233793255e-09 	-2.592368841e-13
0.4713069734 	0.05520674924 	6.008708771e-08 	-3.477228585e-12
0.4716580986 	0.1102962927 	2.214759705e-07 	-1.27070729e-11
0.4720092239 	0.165235274 	4.938188175e-07 	-2.82133789e-11
0.4723603491 	0.2198803913 	8.760651171e-07 	-4.991060898e-11
0.4727114744 	0.2738623997 	1.364324511e-06 	-7.755982131e-11
0.4730625996 	0.3265021704 	1.953151291e-06 	-1.108318118e-10
0.4734137249 	0.3768861047 	2.633253125e-06 	-1.491769088e-10
0.4737648501 	0.4241227405 	3.391930524e-06 	-1.918560237e-10
0.4741159754 	0.4676175714 	4.215748221e-06 	-2.380978457e-10
0.4744671006 	0.5071807802 	5.093085033e-06 	-2.872433806e-10
0.4748182259 	0.5429535925 	6.01508415e-06 	-3.387868121e-10
0.4751693511 	0.5752705721 	6.975848095e-06 	-3.923960601e-10
0.4755204764 	0.6045739731 	7.97211475e-06 	-4.47894417e-10
0.4758716016 	0.6313112385 	9.002617119e-06 	-5.052007875e-10
0.4762227269 	0.6590575239 	1.021439336e-05 	-5.724755864e-10
0.4767673536 	0.6903905313 	1.179045564e-05 	-6.598276064e-10
0.4773330083 	0.7218047191 	1.363474673e-05 	-7.618487667e-10
0.4779205028 	0.7507578382 	1.561858692e-05 	-8.713678086e-10
0.4785306805 	0.7775619336 	1.774867603e-05 	-9.887373743e-10
0.479164417 	0.8024913624 	2.003285574e-05 	-1.114374426e-09
0.4798226221 	0.8257842716 	2.2479874e-05 	-1.248742475e-09
0.4805062404 	0.8476459538 	2.509951462e-05 	-1.392357366e-09
0.4812162531 	0.8682529243 	2.790263814e-05 	-1.545789129e-09
0.4819536793 	0.8877568337 	3.090119292e-05 	-1.709662293e-09
0.4827195775 	0.9062880933 	3.410825788e-05 	-1.884658165e-09
0.483515047 	0.9239591002 	3.75381065e-05 	-2.071518571e-09
0.4843412294 	0.9408670289 	4.120628528e-05 	-2.271050548e-09
0.4851993106 	0.9570962039 	4.512970498e-05 	-2.484131774e-09
0.4860905223 	0.9727200981 	4.932674447e-05 	-2.711716563e-09
0.4870161436 	0.9878030048 	5.381736712e-05 	-2.954842232e-09
0.487977503 	1.002401432 	5.862324969e-05 	-3.21463565e-09
0.4889759804 	1.016565261 	6.376792375e-05 	-3.492319814e-09
0.4900130089 	1.030338713 	6.927693012e-05 	-3.789220316e-09
0.491090077 	1.043761146 	7.517798644e-05 	-4.106771636e-09
0.4922087306 	1.056867719 	8.150116795e-05 	-4.446523204e-09
0.4933705753 	1.069689935 	8.827910148e-05 	-4.810145264e-09
0.4945772787 	1.0822561 	9.554717121e-05 	-5.199434567e-09
0.4958305727 	1.094591697 	0.0001033437331 	-5.616319893e-09
0.4971322564 	1.106719726 	0.0001117103338 	-6.06286755e-09
0.4984841978 	1.118661036 	0.0001206919439 	-6.541287457e-09
0.4998883377 	1.130434708 	0.0001303372309 	-7.053940665e-09
0.5013466912 	1.142058587 	0.00014069876 	-7.603343167e-09
0.5028613516 	1.15355007 	0.0001518324847 	-8.192146349e-09
0.5044344929 	1.164927308 	0.0001637966009 	-8.823116239e-09
0.506068373 	1.177579578 	0.0001782811383 	-9.584694404e-09
0.5085784129 	1.192613676 	0.0001972787646 	-1.057950935e-08
0.5111453651 	1.208372199 	0.0002194713216 	-1.173564136e-08
0.5137705202 	1.223547451 	0.0002433043836 	-1.296971566e-08
0.5164551977 	1.238204334 	0.0002688677114 	-1.428451583e-08
0.5192007473 	1.252400488 	0.0002962489073 	-1.568249518e-08
0.5220085492 	1.266185994 	0.0003255354892 	-1.716621237e-08
0.5248800149 	1.279604021 	0.0003568168759 	-1.873907435e-08
0.5278165879 	1.29269187 	0.0003901851476 	-2.04059788e-08
0.5308197445 	1.305482048 	0.0004257351999 	-2.217301324e-08
0.5338909942 	1.318003032 	0.0004635635707 	-2.404500402e-08
0.5370318812 	1.330279197 	0.0005037642424 	-2.602023581e-08
0.5402439843 	1.342329035 	0.0005464178116 	-2.808356731e-08
0.5435289183 	1.354160357 	0.0005915645867 	-3.020124628e-08
0.5468883345 	1.365760806 	0.0006391342756 	-3.231603061e-08
0.5503239217 	1.377083862 	0.0006888085245 	-3.434927931e-08
0.5538374071 	1.388038892 	0.0007398574722 	-3.622198506e-08
0.5574305568 	1.398502348 	0.0007910873988 	-3.787315023e-08
0.5611051773 	1.408360841 	0.0008411321966 	-3.923163131e-08
0.5648631156 	1.417582448 	0.0008895180407 	-4.037432631e-08
0.5687062611 	1.426252472 	0.000936596038 	-4.140587746e-08
0.5726365456 	1.434471124 	0.0009828894592 	-4.222136192e-08
0.576655945 	1.442239559 	0.001028123738 	-4.274978384e-08
0.5807664798 	1.449495315 	0.001071164719 	-4.293927291e-08
0.5849702164 	1.456167705 	0.001110926362 	-4.266785089e-08
0.5892692681 	1.462184572 	0.001146186647 	-4.184934268e-08
0.593665796 	1.467481934 	0.001175695098 	-4.045289337e-08
0.5981620103 	1.472015071 	0.001198339649 	-3.852038094e-08
0.6027601713 	1.475768044 	0.001213316398 	-3.616754255e-08
0.6074625904 	1.478757929 	0.001220251779 	-3.355949066e-08
0.6122716317 	1.481031567 	0.00121921139 	-3.085642865e-08
0.6171897127 	1.482655623 	0.001210561142 	-2.819556526e-08
0.6222193057 	1.483708777 	0.001194961796 	-2.574115143e-08
0.6273629392 	1.484280155 	0.001173375615 	-2.35995828e-08
0.6326231989 	1.484459226 	0.001146811793 	-2.175099946e-08
0.6380027291 	1.484319379 	0.001116131876 	-2.014269729e-08
0.6435042341 	1.483913329 	0.001082009965 	-1.871812176e-08
0.6491304798 	1.483277689 	0.001044945047 	-1.74220231e-08
0.6548842942 	1.482437543 	0.001005305955 	-1.621672392e-08
0.6607685701 	1.481409594 	0.0009633724387 	-1.507500928e-08
0.6667862654 	1.480204347 	0.000919359684 	-1.397585116e-08
0.6729404052 	1.47882763 	0.0008734360185 	-1.29026701e-08
0.6792340834 	1.477281653 	0.0008257367352 	-1.184255864e-08
0.6856704637 	1.475565732 	0.0007763749965 	-1.078573173e-08
0.6922527818 	1.473676778 	0.0007254505757 	-9.724946752e-09
0.6989843466 	1.47160959 	0.0006730570988 	-8.654850285e-09
0.7058685423 	1.469356998 	0.0006192883709 	-7.571289037e-09
0.7129088294 	1.466909877 	0.0005642443372 	-6.470612727e-09
0.7201087472 	1.464257023 	0.0005080372415 	-5.348945974e-09
0.7274719152 	1.461384887 	0.0004507986564 	-4.201337388e-09
0.7350020349 	1.45829441 	0.000393001818 	-3.027015736e-09
0.7425321576 	1.455027335 	0.0003358242977 	-1.836285016e-09
0.7498953284 	1.451634816 	0.00028042333 	-6.363107872e-10
0.7570952489 	1.448133766 	0.0002272580847 	5.846602547e-10
0.7641355384 	1.444521841 	0.0001764938403 	1.851457378e-09
0.7710197363 	1.440794546 	0.0001283192408 	3.190311198e-09
0.7777513032 	1.436945435 	8.294030428e-05 	4.61595847e-09
0.7843336232 	1.432966793 	4.055910122e-05 	6.121951765e-09
0.7907700052 	1.428850598 	1.34283967e-06 	7.681632415e-09
0.7970636849 	1.42458924 	-3.460986162e-05 	9.259296577e-09
0.8032178261 	1.420175829 	-6.722060182e-05 	1.081916315e-08
0.8092355226 	1.415586344 	-9.644242314e-05 	1.234951159e-08
0.8151197995 	1.410763094 	-0.0001222834551 	1.385902515e-08
0.8208736149 	1.405645156 	-0.000144634107 	1.535938526e-08
0.8264998613 	1.400201962 	-0.0001632407491 	1.685344849e-08
0.8320013671 	1.394429483 	-0.0001778737913 	1.832225802e-08
0.8373808978 	1.38833609 	-0.0001884114648 	1.973777884e-08
0.8426411579 	1.381933791 	-0.0001948564245 	2.106817019e-08
0.8477847917 	1.375234463 	-0.0001973417825 	2.227848023e-08
0.8528143849 	1.368249487 	-0.0001961221991 	2.333173999e-08
0.857732466 	1.360990833 	-0.0001915541047 	2.419230187e-08
0.8625415073 	1.35347202 	-0.0001840685308 	2.483136951e-08
0.8672439263 	1.345708079 	-0.0001741373851 	2.523312201e-08
0.8718420871 	1.337714419 	-0.0001622359112 	2.539811061e-08
0.8763383011 	1.329505251 	-0.0001488099401 	2.534108855e-08
0.8807348287 	1.321092623 	-0.0001342577696 	2.50845522e-08
0.8850338799 	1.312486509 	-0.0001189288525 	2.465238446e-08
0.889237616 	1.303695474 	-0.0001031321425 	2.406692429e-08
0.8933481502 	1.294727213 	-8.714434092e-05 	2.334916378e-08
0.8973675489 	1.285588716 	-7.121369844e-05 	2.251953864e-08
0.9012978327 	1.276286199 	-5.5560749e-05 	2.159806987e-08
0.9051409774 	1.266824891 	-4.037814232e-05 	2.0604135e-08
0.9088989149 	1.257208795 	-2.583060907e-05 	1.955615519e-08
0.9125735344 	1.24744044 	-1.205543557e-05 	1.847128252e-08
0.9161666832 	1.237520658 	8.364528531e-07 	1.736512893e-08
0.9196801676 	1.22744838 	1.275884292e-05 	1.625157671e-08
0.9231157538 	1.217220456 	2.364813443e-05 	1.514270715e-08
0.9264751689 	1.20683149 	3.346093801e-05 	1.404886277e-08
0.9297601017 	1.196273673 	4.217152493e-05 	1.297881096e-08
0.9329722036 	1.185536611 	4.976927552e-05 	1.193992482e-08
0.9361130893 	1.174607126 	5.625624629e-05 	1.093830053e-08
0.9391843379 	1.163469019 	6.164494007e-05 	9.978845868e-09
0.9421874931 	1.152102748 	6.595633774e-05 	9.065552415e-09
0.9451240648 	1.140485011 	6.921826317e-05 	8.202169332e-09
0.9479955291 	1.128588147 	7.146420974e-05 	7.39299803e-09
0.9508033297 	1.116379269 	7.273280122e-05 	6.642480197e-09
0.9535488779 	1.103818989 	7.30680356e-05 	5.951736306e-09
0.956233554 	1.090859491 	7.252077343e-05 	5.313622761e-09
0.9588587076 	1.077441634 	7.11541772e-05 	4.717905911e-09
0.9614256584 	1.063490592 	6.905699281e-05 	4.181695803e-09
0.9639356968 	1.05013894 	6.661080939e-05 	3.740481369e-09
0.9655695775 	1.038852892 	6.433688581e-05 	3.413567727e-09
0.9671427194 	1.028664532 	6.220846638e-05 	3.152369981e-09
0.9686573803 	1.018345643 	6.001922284e-05 	2.904884343e-09
0.9701157342 	1.007882759 	5.778180942e-05 	2.672448244e-09
0.9715198744 	0.9972614348 	5.551090437e-05 	2.455987006e-09
0.9728718162 	0.9864660804 	5.322096751e-05 	2.255041367e-09
0.9741735001 	0.9754797811 	5.092458185e-05 	2.068743193e-09
0.9754267944 	0.9642840938 	4.863254554e-05 	1.896175403e-09
0.9766334979 	0.9528588165 	4.635419789e-05 	1.736414843e-09
0.9777953427 	0.9411817227 	4.409761678e-05 	1.58854876e-09
0.9789139964 	0.9292282552 	4.186975574e-05 	1.451697229e-09
0.9799910645 	0.9169711676 	3.967655929e-05 	1.32502898e-09
0.981028093 	0.9043801042 	3.752305041e-05 	1.207769805e-09
0.9820265703 	0.8914211033 	3.541344509e-05 	1.099205595e-09
0.9829879297 	0.8780560075 	3.335150771e-05 	9.986716789e-10
0.9839135509 	0.864241761 	3.134130483e-05 	9.054911724e-10
0.9848047624 	0.8499249275 	2.938160941e-05 	8.192326731e-10
0.9856628435 	0.8350355746 	2.74672707e-05 	7.396346074e-10
0.9864890258 	0.8194924687 	2.559266621e-05 	6.663299914e-10
0.987284495 	0.8032095697 	2.375465299e-05 	5.989408178e-10
0.988050393 	0.7860935706 	2.195610785e-05 	5.370280716e-10
0.988787819 	0.7680392173 	2.020112126e-05 	4.801202201e-10
0.9894978315 	0.7489258153 	1.849336044e-05 	4.277891088e-10
0.9901814495 	0.7286142786 	1.683589889e-05 	3.796568044e-10
0.9908396543 	0.7069444455 	1.523137258e-05 	3.353862971e-10
0.9914733905 	0.6837326142 	1.368215516e-05 	2.94675703e-10
0.9920835679 	0.6587698032 	1.219053335e-05 	2.572551452e-10
0.9926710621 	0.6318216851 	1.075885923e-05 	2.228827858e-10
0.9932367165 	0.6026300592 	9.389861754e-06 	1.913469658e-10
0.9937813429 	0.5735892878 	8.19040309e-06 	1.647132837e-10
0.9941324681 	0.5479388498 	7.249189476e-06 	1.444279391e-10
0.9944835934 	0.5232421954 	6.435718705e-06 	1.27276171e-10
0.9948347186 	0.4961872595 	5.637836769e-06 	1.107687056e-10
0.9951858439 	0.4664647256 	4.860063874e-06 	9.495091026e-11
0.9955369691 	0.4338281544 	4.108669988e-06 	7.990234104e-11
0.9958880943 	0.3981411776 	3.391409653e-06 	6.572042899e-11
0.9962392196 	0.359467383 	2.71830506e-06 	5.254140766e-11
0.9965903448 	0.3181385235 	2.101095265e-06 	4.053736488e-11
0.9969414701 	0.274734251 	1.551568124e-06 	2.989255284e-11
0.9972925953 	0.2299437177 	1.079333865e-06 	2.076499244e-11
0.9976437206 	0.1843775563 	6.904077771e-07 	1.325745253e-11
0.9979948458 	0.1384477689 	3.877126711e-07 	7.422326436e-12
0.9983459711 	0.09236516432 	1.731898831e-07 	3.297407765e-12
0.9986970963 	0.04620880462 	4.674937626e-08 	8.780434633e-13
0.9990482216 	0.01703569099 	3.879538388e-09 	6.511126651e-14
