0.3362433178 	0.02311588832 	0.004032267653 	-1.44734445e-08
0.3362433178 	0.02311588832 	0.004032267653 	-1.44734445e-08
0.3363017743 	0.0319108487 	0.005553914171 	6.642039064e-05
0.3366273749 	0.08112557314 	0.01406631267 	-2.812146104e-07
0.3370111899 	0.1614220806 	0.02791727874 	-1.215805085e-06
0.3373950289 	0.2407737522 	0.04161530705 	-2.789842185e-06
0.3377788851 	0.3188184107 	0.05507601863 	-4.979957675e-06
0.3381627521 	0.3947492953 	0.06815513133 	-7.743817816e-06
0.3385466233 	0.4673481381 	0.08064329092 	-1.101437487e-05
0.3389304921 	0.5353748171 	0.09232800463 	-1.471022594e-05
0.3393143521 	0.5980512059 	0.1030769027 	-1.876050619e-05
0.3396981966 	0.6553864544 	0.1128938591 	-2.312767393e-05
0.3400820191 	0.7079359541 	0.1218767371 	-2.778890278e-05
0.3404658133 	0.7562132337 	0.1301158894 	-3.270133576e-05
0.3408495727 	0.800577689 	0.1376746511 	-3.781542974e-05
0.3412332907 	0.8413495212 	0.1446089586 	-4.30888442e-05
0.341616961 	0.8788085503 	0.1509672743 	-4.847982439e-05
0.3420005772 	0.9177317627 	0.1575607941 	-5.420550356e-05
0.3425954781 	0.9614620983 	0.1649456575 	-6.254870866e-05
0.3432131684 	1.004940485 	0.172260826 	-7.148225501e-05
0.3438544857 	1.044846573 	0.1789423301 	-8.075150777e-05
0.3445202934 	1.081908942 	0.1851136987 	-9.035529784e-05
0.3452114808 	1.116443059 	0.1908268617 	-0.0001002117736
0.345928963 	1.14841917 	0.196073501 	-0.0001101263139
0.346673681 	1.177669551 	0.2008203469 	-0.0001198716706
0.3474466012 	1.203995959 	0.2050277866 	-0.0001292405153
0.348248715 	1.227216214 	0.2086579298 	-0.0001380367844
0.3490810383 	1.247198527 	0.2116827956 	-0.0001461398985
0.3499446106 	1.263995054 	0.2141094109 	-0.0001537054581
0.3508404938 	1.277950273 	0.2159931814 	-0.0001609650944
0.351783314 	1.289466977 	0.2173971476 	-0.00016808907
0.3527767369 	1.298759419 	0.2183582301 	-0.0001751775113
0.3538075607 	1.306020774 	0.2189151323 	-0.0001822722225
0.3548771636 	1.311563309 	0.2191250986 	-0.0001895514372
0.355986973 	1.315726376 	0.2190500739 	-0.0001971742101
0.357138467 	1.318825042 	0.2187499486 	-0.0002052842482
0.3583331764 	1.321141952 	0.2182770975 	-0.0002138994449
0.3595726861 	1.32290257 	0.2176715128 	-0.0002193323857
0.3608586377 	1.324263721 	0.2169613889 	-0.0002058888769
0.3621927306 	1.325327721 	0.2161656379 	-0.0001924262042
0.3635767245 	1.326161861 	0.2152963749 	-0.0001788657797
0.3650124417 	1.326812342 	0.214360159 	-0.0001651666755
0.3665099204 	1.327313086 	0.2133551244 	-0.0001512230965
0.3680989916 	1.327685234 	0.2122787391 	-0.0001367684838
0.3697470812 	1.327939696 	0.2111400846 	-0.0001221448282
0.3714563214 	1.328088079 	0.2099461861 	-0.0001074125682
0.3732289198 	1.32813918 	0.2087016079 	-9.259055837e-05
0.3750671613 	1.328076323 	0.2072552424 	-7.747342508e-05
0.3778857087 	1.327834464 	0.2054110991 	-5.535193675e-05
0.3807615047 	1.327344728 	0.2033327662 	-3.380886407e-05
0.3837702518 	1.326645881 	0.2011751889 	-1.236103897e-05
0.3855850621 	1.326132708 	0.1998682349 	-5.939535618e-05
0.3868400618 	1.325773791 	0.1989673527 	-8.147438961e-06
0.3899656286 	1.324771895 	0.1967298333 	-2.758692522e-05
0.3931543536 	1.323677508 	0.1944609535 	-4.635289817e-05
0.3964317579 	1.322507394 	0.1921525664 	-6.460832974e-05
0.3998347773 	1.32127506 	0.1898019644 	-8.253393413e-05
0.4033059171 	1.319997365 	0.1874275836 	-9.972107845e-05
0.4068466214 	1.318684621 	0.1850392348 	-0.0001161708885
0.4104737755 	1.317331485 	0.1826244854 	-0.0001319469658
0.4142453861 	1.315934581 	0.1801737208 	-0.0001472983024
0.4180919679 	1.314500928 	0.1777031292 	-0.0001341835009
0.4220151533 	1.313032845 	0.1752189762 	-0.0001140548477
0.4260606999 	1.31152178 	0.172707447 	-9.45146886e-05
0.4302318174 	1.309966729 	0.1701685719 	-7.561822331e-05
0.4344854824 	1.308373291 	0.1676157026 	-5.761714248e-05
0.4388382334 	1.306736472 	0.1650438953 	-4.044103443e-05
0.4433528992 	1.305050575 	0.1624431639 	-2.386605722e-05
0.4479565149 	1.303321032 	0.1598270982 	-8.245624727e-06
0.4505597944 	1.302339265 	0.1583702677 	-7.670579504e-05
0.452658001 	1.301542599 	0.1571971613 	-6.356424155e-06
0.4575264279 	1.299708368 	0.1545423305 	-2.015852371e-05
0.4624910485 	1.297826146 	0.1518717933 	-3.301750305e-05
0.4675830754 	1.295894654 	0.1491858127 	-4.50370642e-05
0.4728356026 	1.293910689 	0.1464796673 	-5.627709967e-05
0.4781919643 	1.291874912 	0.1437597361 	-6.656631152e-05
0.4837184306 	1.28978491 	0.1410223782 	-7.607555994e-05
0.4893766189 	1.287640657 	0.1382707384 	-8.468172946e-05
0.4951745367 	1.285441657 	0.1355069985 	-9.174172999e-05
0.5011430872 	1.283186305 	0.1327294023 	-7.865328539e-05
0.5072361894 	1.280873347 	0.1299411989 	-6.650751245e-05
0.5135237304 	1.278501428 	0.1271402296 	-5.516082122e-05
0.5199361895 	1.276069305 	0.1243301131 	-4.47518122e-05
0.5265485654 	1.273576221 	0.1215099851 	-3.513463249e-05
0.5332958665 	1.27102029 	0.1186822935 	-2.641449755e-05
0.5402456648 	1.268400445 	0.1158467095 	-1.846979657e-05
0.5473417601 	1.265714747 	0.1130052472 	-1.136621107e-05
0.5546416871 	1.262961218 	0.1101576424 	-5.008557005e-06
0.5612979008 	1.260443469 	0.1076136638 	-1.958876795e-05
0.5621038891 	1.260137902 	0.1073055137 	-5.839981459e-07
0.5697571678 	1.257240548 	0.1044481963 	-5.502895322e-06
0.5775960442 	1.254269549 	0.10158788 	-9.749234633e-06
0.5856202414 	1.251222102 	0.09872580548 	-1.334743709e-05
0.5938536187 	1.248093704 	0.09586125605 	-1.635204945e-05
0.6022760281 	1.244882181 	0.09299619031 	-1.878253389e-05
0.6109028167 	1.241583083 	0.09013127692 	-2.068234341e-05
0.6197409277 	1.238190959 	0.08726623377 	-2.209624753e-05
0.6287834988 	1.234701717 	0.08440247202 	-2.305815748e-05
0.6380385935 	1.231108639 	0.08154025411 	-2.360899347e-05
0.6475177523 	1.227403577 	0.07867882218 	-2.379344366e-05
0.6572152193 	1.223600414 	0.07583391075 	-2.365466454e-05
0.6669164971 	1.219758026 	0.07305350016 	-2.323883004e-05
0.6764076705 	1.215936106 	0.07038020769 	-2.260931257e-05
0.6856946728 	1.212150543 	0.06782060122 	-2.182927461e-05
0.6947766357 	1.208397281 	0.0653677002 	-2.094248617e-05
0.7036581242 	1.204671586 	0.06301495198 	-1.99834514e-05
0.7123472626 	1.200968227 	0.06075601044 	-1.898086972e-05
0.7208441476 	1.19728282 	0.05858536181 	-1.795743872e-05
0.729152758 	1.193610529 	0.05649786032 	-1.692889045e-05
0.7372803344 	1.189945975 	0.05448861568 	-1.590900387e-05
0.7452276487 	1.186284305 	0.05255314355 	-1.490825952e-05
0.7529996137 	1.182620321 	0.05068742799 	-1.393282953e-05
0.7606008866 	1.178948601 	0.0488876104 	-1.298950944e-05
0.7680336848 	1.175263822 	0.04715005561 	-1.208124085e-05
0.7753035051 	1.171560444 	0.0454715693 	-1.121059816e-05
0.7824124979 	1.167833044 	0.04384901013 	-1.037963902e-05
0.7893651116 	1.164076133 	0.04227959856 	-9.588206492e-06
0.7961644014 	1.160284237 	0.04076065424 	-8.837444427e-06
0.802813967 	1.156451946 	0.0392897343 	-8.125962885e-06
0.8093171022 	1.15257385 	0.0378645575 	-7.454066631e-06
0.8156770484 	1.148644532 	0.03648300356 	-6.819867738e-06
0.8218970133 	1.144658455 	0.03514310771 	-6.223092732e-06
0.8279801053 	1.140609903 	0.03384302421 	-5.66165509e-06
0.8339293202 	1.136492879 	0.03258105049 	-5.134920082e-06
0.8397477113 	1.132301043 	0.03135555077 	-4.640800862e-06
0.845438041 	1.128027665 	0.03016505426 	-4.178370915e-06
0.8510033155 	1.123665575 	0.02900807379 	-3.745788634e-06
0.856446111 	1.119207162 	0.02788334942 	-3.341763597e-06
0.8617692936 	1.114644282 	0.02678953971 	-2.964976425e-06
0.8669753816 	1.109968201 	0.02572549987 	-2.613753427e-06
0.8720669996 	1.105169444 	0.02469009003 	-2.287135289e-06
0.8770466764 	1.100237551 	0.02368218891 	-1.983481885e-06
0.8819168309 	1.09516082 	0.02270084795 	-1.701746231e-06
0.8866799206 	1.089925891 	0.02174499203 	-1.440807818e-06
0.8913382571 	1.084517408 	0.02081367831 	-1.199313383e-06
0.8958941425 	1.078917803 	0.01990597542 	-9.763963508e-07
0.9003498494 	1.073107314 	0.01902084429 	-7.70928868e-07
0.9047075433 	1.067064522 	0.01815734761 	-5.818351059e-07
0.9089693825 	1.06076732 	0.01731447642 	-4.083053317e-07
0.9131374753 	1.054194285 	0.01649115054 	-2.493499698e-07
0.9172138606 	1.047326336 	0.0156863717 	-1.04076417e-07
0.9203245854 	1.041725328 	0.01507209974 	-8.199374811e-06
0.921200507 	1.04014824 	0.01489908196 	-2.674700495e-08
0.9250992839 	1.032649593 	0.0141281587 	-1.407393389e-07
0.9289122711 	1.024824704 	0.01337279225 	-2.440655187e-07
0.9326413486 	1.016672093 	0.01263212269 	-3.372035044e-07
0.9362883555 	1.008192655 	0.0119053051 	-4.205862604e-07
0.939855084 	0.9993875024 	0.01119162051 	-4.946749614e-07
0.9433432909 	0.9902560493 	0.0104904651 	-5.598055915e-07
0.9467546963 	0.9807951407 	0.009801226271 	-6.163221048e-07
0.9500909815 	0.9709998411 	0.009123214151 	-6.646746485e-07
0.9533537889 	0.9617139009 	0.008510248888 	-7.079649703e-07
0.9554779381 	0.9539630918 	0.008019078226 	-7.284250412e-07
0.9575233188 	0.9470529513 	0.007595732903 	-7.475315027e-07
0.9594928452 	0.9401319661 	0.007186204427 	-7.622225716e-07
0.9613893242 	0.9331686751 	0.006790296361 	-7.730607628e-07
0.9632154587 	0.9261241238 	0.006407695844 	-7.800807171e-07
0.9649738524 	0.9189708198 	0.006038470863 	-7.828582608e-07
0.9666670131 	0.9116892428 	0.005682488332 	-7.824056488e-07
0.9682973562 	0.9042581745 	0.005339343922 	-7.79179492e-07
0.969867208 	0.8966537247 	0.005008722999 	-7.731492175e-07
0.9713788087 	0.8888491168 	0.00469036035 	-7.64421126e-07
0.9728343162 	0.8808144232 	0.004384004842 	-7.531465778e-07
0.9742358082 	0.8725162459 	0.004089415929 	-7.394686324e-07
0.9755852861 	0.8639173321 	0.003806366044 	-7.235353786e-07
0.9768846773 	0.8549761213 	0.003534622621 	-7.055516525e-07
0.9781358378 	0.8456462139 	0.003273929863 	-6.856969692e-07
0.9793405553 	0.8358744625 	0.00302419213 	-6.635243915e-07
0.9805005514 	0.8255883892 	0.002785395267 	-6.391265818e-07
0.9816174839 	0.8146884477 	0.002557410826 	-6.128001004e-07
0.9826929495 	0.8030652302 	0.002340253324 	-5.842380721e-07
0.9837284857 	0.7906109003 	0.002133985162 	-5.537733776e-07
0.9847255731 	0.7772135389 	0.001938499445 	-5.218627192e-07
0.9856856376 	0.7627520696 	0.001753628835 	-4.88763612e-07
0.9866100525 	0.747092775 	0.001579187015 	-4.547378829e-07
0.98750014 	0.7300864094 	0.001414968649 	-4.200890468e-07
0.9883571735 	0.7115653875 	0.001260748182 	-3.851387427e-07
0.9891823793 	0.6913402094 	0.001116281981 	-3.502140037e-07
0.9899769381 	0.6691958161 	0.0009813079692 	-3.156371694e-07
0.9907419871 	0.6448908499 	0.0008555502294 	-2.817039401e-07
0.9914786214 	0.6181589129 	0.0007387338954 	-2.486860258e-07
0.9921878953 	0.5912101298 	0.0006390811898 	-2.19565593e-07
0.9926451825 	0.5671649063 	0.0005626200987 	-1.962116461e-07
0.9931024795 	0.54388378 	0.0004976717945 	-1.760745548e-07
0.9935597861 	0.5183401196 	0.0004350155222 	-1.562357278e-07
0.9940171024 	0.4902760141 	0.000374904646 	-1.368142552e-07
0.9944744284 	0.4593503453 	0.0003175319331 	-1.179070459e-07
0.9949317641 	0.4251663656 	0.000263068701 	-9.956342892e-08
0.9953891095 	0.3874913501 	0.0002119508785 	-8.190890775e-08
0.9958464646 	0.3463852587 	0.0001648554667 	-6.517106433e-08
0.9963038294 	0.3021970773 	0.0001225408096 	-4.963129825e-08
0.9967612039 	0.2554999935 	8.57782956e-05 	-3.563210059e-08
0.997218588 	0.2069057338 	5.530103899e-05 	-2.354193288e-08
0.9976759819 	0.1568783541 	3.161165281e-05 	-1.370334441e-08
0.9981333854 	0.1056689006 	1.376768161e-05 	-6.25988476e-09
0.9985907987 	0.05336912988 	-3.150359452e-06 	-7.035911635e-10
0.9990482216 	0.0194505043 	-8.902755756e-06 	1.254318255e-09
