/*--------------------------------*- C++ -*----------------------------------*\
  =========                 |
  \\      /  F ield         | OpenFOAM: The Open Source CFD Toolbox
   \\    /   O peration     | Website:  https://openfoam.org
    \\  /    A nd           | Version:  7
     \\/     M anipulation  |
\*---------------------------------------------------------------------------*/
FoamFile
{
    version     2.0;
    format      ascii;
    class       volScalarField;
    location    "2000";
    object      k;
}
// * * * * * * * * * * * * * * * * * * * * * * * * * * * * * * * * * * * * * //

dimensions      [0 2 -2 0 0 0 0];

internalField   nonuniform List<scalar> 
15296
(
0.0016938074
0.0016883905
0.0016831597
0.0016780891
0.0016731552
0.0016683437
0.0016636441
0.0016590481
0.001654549
0.001650141
0.0016458186
0.0016415772
0.0016374124
0.0016333206
0.0016292979
0.0016253411
0.0016214462
0.0016176107
0.001613832
0.0016101072
0.0016064338
0.0016028093
0.0015992312
0.0015956975
0.0015922068
0.0015887588
0.0015853569
0.0015820118
0.0015787551
0.0015756296
0.0015727946
0.0015706506
0.0015704441
0.0015744857
0.0015841518
0.0016035253
0.0016713195
0.001792854
0.0016938672
0.001688448
0.0016832208
0.0016781518
0.0016732193
0.0016684091
0.0016637105
0.0016591155
0.0016546173
0.0016502101
0.0016458884
0.0016416476
0.0016374835
0.0016333921
0.0016293699
0.0016254135
0.0016215189
0.0016176838
0.0016139054
0.0016101809
0.0016065077
0.0016028834
0.0015993055
0.001595772
0.0015922813
0.0015888334
0.0015854315
0.0015820861
0.0015788286
0.0015757012
0.0015728611
0.0015707027
0.001570459
0.001574445
0.0015840151
0.0016030399
0.0016710095
0.0017694395
0.001693993
0.0016885729
0.0016833502
0.0016782831
0.001673352
0.0016685428
0.0016638451
0.0016592508
0.0016547531
0.0016503462
0.0016460247
0.001641784
0.0016376199
0.0016335284
0.001629506
0.0016255495
0.0016216546
0.0016178191
0.0016140402
0.0016103153
0.0016066416
0.0016030167
0.0015994383
0.0015959041
0.0015924128
0.0015889641
0.0015855613
0.0015822147
0.0015789554
0.001575825
0.0015729783
0.0015708027
0.0015705152
0.001574442
0.0015838985
0.0016024963
0.0016710456
0.0017159186
0.0016941783
0.0016887626
0.0016835444
0.0016784792
0.0016735493
0.001668741
0.0016640437
0.0016594497
0.001654952
0.0016505449
0.0016462231
0.0016419819
0.0016378171
0.0016337249
0.0016297017
0.0016257442
0.0016218482
0.0016180117
0.0016142316
0.0016105054
0.0016068305
0.0016032042
0.0015996244
0.0015960888
0.0015925959
0.0015891456
0.0015857411
0.0015823923
0.0015791304
0.0015759961
0.0015731417
0.0015709482
0.0015706145
0.0015744831
0.0015838244
0.0016020008
0.001670769
0.001699306
0.0016944209
0.0016890171
0.0016838028
0.0016787395
0.0016738107
0.0016690029
0.0016643058
0.0016597115
0.0016552134
0.0016508056
0.0016464828
0.0016422406
0.0016380745
0.0016339809
0.0016299561
0.0016259969
0.0016220992
0.0016182608
0.0016144788
0.0016107506
0.0016070736
0.0016034452
0.0015998632
0.0015963253
0.0015928301
0.0015893774
0.0015859701
0.0015826184
0.0015793529
0.0015762137
0.0015733508
0.0015711383
0.0015707564
0.0015745681
0.0015837916
0.0016015679
0.0016697464
0.0017031894
0.0016948075
0.0016894283
0.0016842185
0.0016791576
0.00167423
0.0016694226
0.0016647252
0.0016601301
0.0016556308
0.0016512214
0.0016468967
0.0016426522
0.0016384837
0.0016343873
0.0016303597
0.0016263974
0.0016224965
0.0016186548
0.0016148693
0.0016111375
0.0016074567
0.0016038246
0.0016002387
0.0015966968
0.0015931975
0.0015897405
0.0015863288
0.001582972
0.0015797006
0.001576554
0.0015736788
0.0015714409
0.0015709943
0.001574734
0.0015838035
0.0016011055
0.001667564
0.0017163261
0.0016954495
0.0016901133
0.0016849089
0.0016798512
0.0016749249
0.0016701172
0.0016654185
0.0016608213
0.0016563192
0.0016519064
0.0016475778
0.0016433289
0.0016391556
0.0016350542
0.001631021
0.001627053
0.0016231463
0.0016192983
0.0016155065
0.0016117681
0.0016080807
0.0016044417
0.0016008488
0.0015972998
0.0015937932
0.0015903287
0.001586909
0.0015835436
0.0015802622
0.001577104
0.0015742107
0.0015719382
0.0015714054
0.0015750539
0.001583929
0.0016007131
0.0016637926
0.0017340549
0.0016963884
0.0016910862
0.0016858929
0.0016808399
0.0016759146
0.0016711057
0.0016664044
0.0016618035
0.0016572967
0.0016528783
0.0016485435
0.0016442876
0.0016401068
0.0016359974
0.0016319558
0.001627979
0.0016240633
0.0016202059
0.0016164044
0.0016126562
0.0016089586
0.0016053093
0.0016017059
0.0015981462
0.0015946287
0.0015911529
0.0015877214
0.0015843434
0.0015810476
0.0015778734
0.0015749568
0.0015726426
0.0015720085
0.0015755528
0.0015842092
0.0016004995
0.001659199
0.0017487686
0.0016977346
0.0016924355
0.0016872645
0.0016822183
0.0016772936
0.0016724823
0.0016677766
0.0016631697
0.0016586556
0.0016542287
0.0016498843
0.0016456181
0.0016414262
0.0016373049
0.001633251
0.0016292613
0.0016253323
0.0016214613
0.0016176457
0.001613883
0.0016101708
0.0016065065
0.0016028879
0.0015993128
0.0015957795
0.0015922874
0.0015888392
0.0015854433
0.0015821273
0.0015789314
0.0015759845
0.0015736199
0.0015728674
0.0015762907
0.0015847002
0.0016005012
0.0016544655
0.0017581176
0.0016995585
0.0016942963
0.0016891481
0.00168411
0.001679186
0.0016743713
0.0016696593
0.0016650438
0.0016605193
0.0016560805
0.0016517228
0.0016474421
0.0016432346
0.0016390968
0.0016350257
0.001631018
0.0016270709
0.0016231807
0.0016193456
0.001615563
0.0016118304
0.0016081455
0.0016045059
0.0016009093
0.0015973542
0.0015938398
0.0015903683
0.0015869479
0.0015836046
0.0015803795
0.0015773937
0.0015749678
0.001574077
0.0015773551
0.0015854836
0.0016007526
0.0016501276
0.0017621201
0.0017020046
0.0016968319
0.001691704
0.0016866753
0.0016817524
0.0016769332
0.0016722129
0.0016675861
0.0016630477
0.0016585928
0.0016542171
0.0016499168
0.0016456884
0.0016415285
0.0016374341
0.0016334023
0.0016294306
0.0016255147
0.0016216533
0.0016178438
0.0016140839
0.0016103711
0.0016067031
0.0016030777
0.0015994931
0.0015959485
0.0015924458
0.0015889925
0.0015856129
0.0015823492
0.0015793134
0.0015768124
0.0015757609
0.0015788573
0.0015866648
0.0016013056
0.0016466256
0.0017608867
0.0017053744
0.0017002267
0.0016951335
0.0016901176
0.0016851956
0.0016803702
0.0016756384
0.001670996
0.0016664384
0.0016619615
0.0016575614
0.0016532345
0.0016489776
0.0016447877
0.0016406619
0.0016365974
0.0016325922
0.0016286418
0.0016247449
0.0016208992
0.0016171023
0.0016133519
0.0016096456
0.0016059813
0.001602357
0.0015987718
0.0015952271
0.0015917298
0.0015883021
0.0015849873
0.0015818875
0.0015792941
0.0015780581
0.001580918
0.001588362
0.0016022553
0.0016442227
0.0017553789
0.0017098779
0.0017047667
0.0016997041
0.0016946996
0.0016897774
0.0016849428
0.0016801949
0.0016755309
0.0016709471
0.0016664401
0.0016620066
0.0016576436
0.0016533481
0.0016491176
0.0016449493
0.0016408408
0.00163679
0.0016327936
0.001628849
0.0016249545
0.001621108
0.0016173071
0.0016135496
0.0016098331
0.0016061556
0.001602516
0.0015989152
0.0015953593
0.001591868
0.0015884861
0.0015853043
0.0015825968
0.0015811509
0.0015836847
0.0015907219
0.001603771
0.001642807
0.0017477762
0.0017158301
0.0017108195
0.0017057663
0.0017007672
0.0016958427
0.0016909958
0.0016862266
0.001681534
0.0016769156
0.0016723691
0.0016678918
0.0016634813
0.0016591353
0.0016548515
0.0016506276
0.0016464615
0.001642351
0.0016382944
0.0016342873
0.0016303291
0.0016264176
0.0016225507
0.001618726
0.0016149412
0.0016111942
0.0016074834
0.0016038093
0.0016001768
0.0015966031
0.0015931338
0.0015898478
0.0015869989
0.0015853157
0.0015873731
0.0015939676
0.0016061332
0.001642195
0.0017399679
0.0017239057
0.0017188097
0.0017137628
0.0017087687
0.0017038381
0.0016989732
0.0016941755
0.0016894454
0.0016847822
0.0016801844
0.0016756505
0.0016711788
0.0016667676
0.0016624151
0.0016581196
0.0016538792
0.001649692
0.0016455573
0.0016414699
0.0016374297
0.0016334346
0.0016294825
0.0016255712
0.0016216983
0.0016178615
0.0016140589
0.0016102901
0.001606559
0.0016028795
0.0015992977
0.0015958801
0.0015928562
0.0015909045
0.0015923116
0.0015984115
0.0016097087
0.0016424624
0.0017324127
0.0017364975
0.0017313409
0.0017262716
0.0017212636
0.0017163108
0.0017114103
0.0017065636
0.0017017724
0.0016970376
0.0016923592
0.001687737
0.0016831703
0.0016786582
0.0016741999
0.001669794
0.0016654394
0.0016611346
0.0016568783
0.0016526691
0.0016485033
0.0016443799
0.0016402971
0.0016362531
0.0016322453
0.0016282709
0.0016243275
0.0016204138
0.0016165318
0.0016126918
0.0016089373
0.0016053231
0.001602043
0.0015997281
0.0016002512
0.0016056255
0.0016158992
0.0016445906
0.0017241428
0.0017553207
0.0017501765
0.0017450638
0.0017399959
0.0017349758
0.0017299981
0.0017250619
0.0017201687
0.00171532
0.0017105171
0.0017057608
0.0017010515
0.0016963896
0.0016917747
0.0016872066
0.0016826845
0.0016782075
0.0016737747
0.0016693861
0.0016650385
0.001660728
0.0016564555
0.0016522188
0.0016480149
0.0016438408
0.0016396931
0.0016355692
0.0016314687
0.001627398
0.0016233882
0.0016194982
0.0016158658
0.001613082
0.00161253
0.0016169812
0.0016260017
0.0016506776
0.0017168449
0.0017795686
0.0017743301
0.0017691123
0.001763929
0.0017587874
0.0017536812
0.0017486079
0.0017435683
0.0017385637
0.0017335955
0.0017286651
0.0017237739
0.0017189226
0.0017141117
0.0017093415
0.001704612
0.0016999226
0.0016952729
0.0016906622
0.0016860908
0.0016815525
0.0016770487
0.0016725766
0.0016681331
0.0016637148
0.0016593177
0.0016549373
0.0016505703
0.0016462196
0.0016418974
0.0016376779
0.0016336324
0.0016303178
0.0016286449
0.0016321411
0.0016397545
0.0016609706
0.0017131793
0.001810262
0.0018048083
0.0017993987
0.0017940257
0.0017886917
0.0017833886
0.001778113
0.0017728651
0.0017676461
0.0017624571
0.0017572993
0.0017521744
0.0017470832
0.0017420268
0.0017370056
0.00173202
0.0017270699
0.001722155
0.0017172748
0.0017124287
0.0017076159
0.0017028337
0.0016980768
0.001693344
0.0016886316
0.0016839341
0.0016792455
0.0016745589
0.0016698728
0.0016651845
0.0016605714
0.0016560457
0.0016521281
0.0016492956
0.0016518093
0.0016578638
0.0016759976
0.0017146872
0.0018483706
0.0018426744
0.0018370041
0.0018313595
0.0018257491
0.0018201668
0.0018146091
0.0018090765
0.0018035698
0.0017980898
0.0017926375
0.001787214
0.0017818204
0.0017764575
0.0017711258
0.0017658258
0.0017605576
0.001755321
0.0017501155
0.00174494
0.0017397957
0.0017346781
0.0017295837
0.0017245068
0.0017194446
0.001714391
0.0017093374
0.001704273
0.0016991911
0.0016940761
0.0016890003
0.0016839244
0.0016793235
0.0016753134
0.001676701
0.0016810174
0.0016963203
0.001722346
0.0018951611
0.0018891296
0.001883108
0.0018771022
0.0018711274
0.001865179
0.0018592539
0.0018533529
0.0018474768
0.0018416262
0.0018358021
0.0018300054
0.001824237
0.0018184973
0.001812787
0.0018071062
0.0018014549
0.001795833
0.0017902397
0.0017846741
0.0017791351
0.0017736202
0.0017681282
0.0017626513
0.0017571808
0.0017517119
0.0017462333
0.00174073
0.0017351891
0.0017295852
0.0017239621
0.0017182701
0.0017128989
0.0017077548
0.0017073197
0.0017098065
0.0017225636
0.0017368621
0.0019519817
0.0019454529
0.0019389605
0.0019324945
0.0019260636
0.0019196596
0.0019132773
0.0019069178
0.0019005825
0.0018942725
0.001887989
0.0018817332
0.0018755058
0.0018693075
0.0018631386
0.0018569992
0.0018508891
0.0018448078
0.0018387545
0.0018327279
0.0018267262
0.0018207466
0.0018147854
0.0018088399
0.001802898
0.0017969509
0.0017909808
0.0017849721
0.0017789046
0.0017727435
0.0017664895
0.0017601128
0.001753877
0.0017476403
0.0017444669
0.0017451895
0.0017556455
0.0017591585
0.0020200137
0.0020129044
0.0020058583
0.0019988444
0.001991864
0.0019849074
0.0019779689
0.0019710505
0.0019641553
0.0019572852
0.0019504424
0.0019436286
0.001936845
0.0019300926
0.0019233715
0.001916682
0.0019100236
0.0019033957
0.0018967971
0.0018902262
0.0018836806
0.001877157
0.0018706505
0.001864155
0.0018576642
0.001851162
0.0018446297
0.0018380443
0.0018313778
0.0018245814
0.0018176291
0.0018104832
0.0018032924
0.0017959068
0.0017902221
0.0017889162
0.0017969615
0.0017905677
0.0021005551
0.0020928942
0.0020852328
0.0020775707
0.0020699278
0.0020623021
0.002054691
0.0020470982
0.0020395281
0.0020319841
0.0020244693
0.0020169861
0.0020095365
0.0020021217
0.0019947422
0.0019873983
0.0019800895
0.0019728151
0.0019655736
0.001958363
0.0019511805
0.0019440218
0.0019368815
0.0019297514
0.0019226216
0.0019154763
0.0019082979
0.0019010532
0.0018937049
0.0018861949
0.0018784742
0.0018704464
0.0018622327
0.0018536015
0.0018457248
0.0018414776
0.0018470757
0.0018319134
0.0021957517
0.0021871642
0.0021786466
0.0021701582
0.0021616998
0.0021532624
0.0021448402
0.0021364374
0.0021280594
0.0021197105
0.0021113948
0.0021031156
0.0020948754
0.0020866758
0.0020785177
0.0020704015
0.0020623269
0.0020542929
0.002046298
0.0020383398
0.0020304148
0.0020225183
0.0020146436
0.0020067814
0.001998919
0.0019910385
0.0019831162
0.0019751166
0.0019669945
0.0019586821
0.001950111
0.0019411074
0.0019318067
0.0019218212
0.0019120547
0.0019033407
0.0019065723
0.0018838551
0.0023064669
0.0022969531
0.0022874785
0.0022780178
0.0022685814
0.0022591657
0.0022497669
0.0022403909
0.0022310445
0.0022217335
0.0022124626
0.0022032362
0.0021940572
0.0021849278
0.0021758491
0.0021668218
0.0021578455
0.0021489193
0.0021400414
0.002131209
0.0021224183
0.0021136637
0.0021049374
0.0020962289
0.0020875234
0.0020788001
0.002070031
0.0020611751
0.00205218
0.0020429608
0.0020334391
0.0020234061
0.0020129045
0.002001494
0.0019899042
0.0019771655
0.0019771335
0.0019477437
0.0024346298
0.0024238754
0.0024131889
0.0024025289
0.0023918986
0.0023812929
0.0023707083
0.0023601523
0.0023496341
0.0023391609
0.002328739
0.0023183736
0.0023080685
0.0022978265
0.002287649
0.0022775368
0.0022674896
0.0022575064
0.0022475851
0.0022377226
0.0022279145
0.0022181543
0.0022084333
0.0021987394
0.0021890557
0.0021793587
0.0021696165
0.0021597822
0.0021497961
0.0021395608
0.0021289777
0.0021178255
0.0021060152
0.002093148
0.0020796727
0.0020638814
0.0020584256
0.0020234282
0.0025816355
0.0025693894
0.0025572158
0.0025450718
0.0025329616
0.0025208822
0.0025088327
0.0024968236
0.0024848666
0.0024729709
0.0024611446
0.002449394
0.0024377237
0.0024261369
0.0024146354
0.00240322
0.0023918903
0.002380645
0.0023694817
0.0023583967
0.0023473849
0.0023364388
0.0023255486
0.0023147004
0.0023038754
0.0022930472
0.0022821799
0.0022712218
0.0022601052
0.0022487229
0.002236957
0.002224572
0.0022114038
0.002196986
0.0021815927
0.0021633581
0.0021518572
0.0021118361
0.0027493493
0.0027351298
0.0027210138
0.0027069514
0.0026929434
0.0026789866
0.0026650822
0.0026512431
0.0026374833
0.0026238138
0.0026102439
0.0025967806
0.0025834291
0.0025701925
0.0025570727
0.0025440699
0.0025311834
0.0025184113
0.0025057504
0.0024931963
0.0024807427
0.002468381
0.0024560999
0.0024438839
0.0024317117
0.0024195544
0.0024073722
0.0023951086
0.0023826891
0.0023699983
0.0023569024
0.0023431521
0.0023285452
0.0023125105
0.0022952225
0.0022747025
0.0022590636
0.0022126741
0.00293891
0.0029221624
0.0029055485
0.0028890179
0.0028725722
0.0028562102
0.0028399372
0.0028237705
0.0028077269
0.0027918192
0.0027760577
0.0027604501
0.0027450012
0.0027297138
0.002714589
0.0026996263
0.002684824
0.0026701789
0.0026556867
0.0026413416
0.0026271359
0.0026130596
0.0025990995
0.0025852382
0.0025714522
0.0025577096
0.0025439674
0.0025301648
0.0025162216
0.0025020165
0.0024874027
0.0024721258
0.0024559445
0.0024382919
0.0024191036
0.0023964178
0.0023779147
0.0023252565
0.003151275
0.0031312498
0.003111402
0.0030916846
0.0030721009
0.003052652
0.0030333491
0.0030142148
0.0029952687
0.0029765254
0.0029579957
0.0029396872
0.0029216039
0.0029037476
0.0028861179
0.0028687127
0.0028515287
0.0028345611
0.0028178039
0.0028012493
0.002784888
0.0027687079
0.002752694
0.0027368266
0.0027210801
0.0027054198
0.0026897999
0.0026741563
0.0026584046
0.0026424201
0.0026260475
0.0026090351
0.0025911125
0.0025717504
0.0025507215
0.0025260512
0.0025049008
0.0024502762
0.0033875236
0.0033631564
0.0033390431
0.0033151468
0.0032914706
0.0032680143
0.0032447952
0.0032218404
0.0031991704
0.0031767997
0.0031547383
0.0031329922
0.0031115634
0.0030904513
0.0030696534
0.0030491652
0.003028981
0.0030090938
0.0029894952
0.0029701753
0.0029511225
0.0029323227
0.0029137586
0.0028954082
0.0028772436
0.0028592283
0.0028413137
0.0028234341
0.0028055023
0.0027873939
0.0027689498
0.0027499284
0.0027300474
0.0027088209
0.0026859725
0.0026596133
0.0026358307
0.0025822238
0.0036393693
0.0036094932
0.0035799619
0.0035507638
0.0035219035
0.0034933792
0.0034652165
0.0034374477
0.0034100935
0.0033831675
0.0033566788
0.0033306308
0.0033050231
0.0032798523
0.0032551132
0.0032307986
0.0032069001
0.0031834078
0.0031603107
0.0031375963
0.0031152503
0.003093256
0.0030715935
0.0030502387
0.0030291614
0.0030083228
0.0029876731
0.0029671455
0.0029466527
0.0029260734
0.0029052508
0.0028839592
0.0028619213
0.0028387101
0.0028140116
0.0027862996
0.0027601716
0.0027096126
0.0038887309
0.0038523303
0.0038163566
0.0037808399
0.0037457924
0.003711215
0.0036771492
0.0036436369
0.0036107019
0.0035783594
0.0035466187
0.0035154822
0.0034849474
0.0034550084
0.0034256571
0.0033968831
0.0033686744
0.0033410176
0.003313898
0.0032872991
0.003261203
0.0032355892
0.0032104344
0.0031857111
0.0031613861
0.0031374185
0.0031137566
0.0030903336
0.0030670634
0.0030438296
0.0030204827
0.0029968163
0.0029725702
0.0029473825
0.0029209246
0.0028920683
0.0028640398
0.0028176902
0.0041257069
0.0040818048
0.0040383534
0.0039954755
0.0039532145
0.0039115917
0.0038706783
0.0038305327
0.0037911851
0.0037526545
0.0037149503
0.0036780723
0.003642014
0.0036067647
0.0035723102
0.0035386339
0.0035057172
0.0034735401
0.003442081
0.0034113171
0.0033812239
0.003351775
0.0033229414
0.0032946905
0.0032669846
0.0032397793
0.0032130206
0.003186641
0.0031605558
0.0031346545
0.0031087966
0.0030827961
0.0030564158
0.0030293572
0.0030012899
0.0029714798
0.0029418228
0.0029000417
0.0043495117
0.0042965617
0.0042441784
0.0041925972
0.0041418899
0.0040921022
0.0040433374
0.0039956654
0.0039491164
0.0039037048
0.0038594315
0.0038162852
0.0037742473
0.0037332943
0.0036933995
0.003654534
0.0036166672
0.0035797676
0.0035438028
0.0035087398
0.0034745446
0.0034411819
0.0034086148
0.0033768035
0.0033457042
0.0033152677
0.0032854365
0.0032561419
0.0032273004
0.0031988069
0.0031705307
0.0031423056
0.0031139194
0.0030851319
0.0030556176
0.003025006
0.0029939712
0.002956526
0.0045600878
0.0044961289
0.0044329953
0.0043711339
0.0043106453
0.0042515817
0.0041940483
0.0041380927
0.004083716
0.004030905
0.0039796333
0.0039298633
0.0038815528
0.0038346568
0.0037891287
0.0037449213
0.0037019873
0.0036602797
0.003619752
0.003580358
0.0035420517
0.003504787
0.0034685171
0.0034331935
0.0033987649
0.003365176
0.003332365
0.0033002608
0.0032687808
0.0032378243
0.0032072702
0.0031769698
0.0031467358
0.0031163788
0.0030855819
0.0030542907
0.0030221143
0.0029885091
0.0047573677
0.0046802234
0.0046047623
0.0045314525
0.0044602622
0.0043911653
0.004324221
0.0042594255
0.0041967364
0.0041361036
0.0040774665
0.0040207573
0.0039659061
0.0039128428
0.0038614978
0.0038118028
0.0037636909
0.0037170969
0.0036719577
0.0036282117
0.0035857985
0.0035446593
0.0035047352
0.0034659675
0.0034282958
0.0033916569
0.0033559835
0.0033212011
0.003287226
0.0032539606
0.0032212918
0.0031890855
0.0031571773
0.0031254189
0.0030935053
0.0030616434
0.0030285487
0.0029982086
0.0049431602
0.0048519789
0.0047631829
0.0046774005
0.0045945162
0.0045144619
0.0044372632
0.0043628675
0.0042911881
0.0042221353
0.0041556109
0.0040915122
0.0040297373
0.0039701867
0.0039127629
0.003857372
0.0038039231
0.003752329
0.0037025057
0.0036543727
0.0036078523
0.0035628692
0.0035193503
0.0034772234
0.0034364166
0.0033968568
0.0033584688
0.003321172
0.0032848801
0.0032494959
0.0032149119
0.0031810043
0.0031476284
0.0031146674
0.0030818291
0.0030495273
0.0030157525
0.0029881438
0.0051186594
0.0050128961
0.0049098713
0.0048105637
0.0047148806
0.0046227995
0.0045343571
0.0044494701
0.0043680156
0.0042898636
0.0042148736
0.0041429017
0.0040738069
0.0040074526
0.003943707
0.0038824434
0.0038235411
0.0037668848
0.0037123648
0.0036598765
0.0036093204
0.0035606011
0.003513627
0.0034683092
0.003424561
0.0033822963
0.0033414286
0.0033018689
0.0032635249
0.0032262967
0.003190079
0.003154754
0.0031201927
0.0030862991
0.003052796
0.0030202505
0.0029860878
0.0029607881
0.0052833459
0.0051613403
0.0050425803
0.0049284089
0.0048187316
0.0047135792
0.0046129928
0.0045168508
0.0044249861
0.0043372196
0.0042533585
0.0041732083
0.00409658
0.0040232912
0.0039531676
0.0038860429
0.0038217593
0.0037601676
0.0037011263
0.0036445017
0.0035901673
0.0035380028
0.0034878936
0.0034397301
0.0033934066
0.00334882
0.0033058693
0.003264453
0.0032244697
0.0031858129
0.0031483759
0.003112042
0.0030766938
0.0030422462
0.0030084387
0.0029759413
0.0029417668
0.0029184845
0.0054365532
0.005295252
0.0051582928
0.0050273175
0.004902123
0.0047827245
0.0046690989
0.0045610355
0.0044582862
0.0043605922
0.0042676854
0.0041793023
0.0040951907
0.0040151101
0.0039388325
0.0038661423
0.0037968361
0.0037307223
0.0036676203
0.0036073598
0.0035497805
0.0034947307
0.003442067
0.0033916531
0.0033433591
0.0032970601
0.0032526359
0.0032099688
0.003168944
0.0031294451
0.00309136
0.0030545688
0.0030189619
0.0029844559
0.0029508109
0.0029187498
0.0028850255
0.0028635809
0.0055763775
0.0054122338
0.0052541823
0.0051040981
0.004961589
0.0048265917
0.0046989412
0.0045782786
0.0044642295
0.0043564166
0.0042544643
0.0041580138
0.004066727
0.0039802858
0.0038983907
0.0038207606
0.0037471315
0.003677255
0.0036108982
0.0035478419
0.0034878806
0.0034308212
0.0033764822
0.0033246928
0.0032752921
0.0032281281
0.0031830565
0.0031399393
0.0030986455
0.0030590454
0.0030210196
0.0029844412
0.0029492067
0.0029152264
0.0028822874
0.0028511167
0.0028183629
0.0027986464
0.0057007055
0.005510053
0.005327827
0.0051560991
0.0049942636
0.0048421435
0.0046993777
0.0045654157
0.0044397078
0.0043217174
0.0042109254
0.0041068431
0.004009014
0.0039170106
0.0038304321
0.0037489026
0.0036720699
0.0035996042
0.0035311971
0.0034665611
0.0034054289
0.003347552
0.0032927003
0.0032406602
0.0031912342
0.0031442385
0.003099503
0.003056868
0.0030161858
0.0029773135
0.0029401244
0.0029044847
0.0028702967
0.0028374589
0.002805795
0.0027759872
0.00274474
0.0027266659
0.0058100324
0.0055881353
0.0053777485
0.0051811329
0.0049974721
0.0048264239
0.0046673541
0.0045194535
0.0043819383
0.0042540487
0.0041350607
0.0040242978
0.0039211267
0.0038249526
0.0037352174
0.0036513996
0.003573014
0.0034996114
0.0034307781
0.0033661355
0.0033053383
0.0032480728
0.0031940543
0.0031430252
0.0030947519
0.0030490227
0.0030056451
0.002964443
0.0029252565
0.0028879344
0.0028523465
0.0028183543
0.0027858691
0.0027547733
0.0027249379
0.0026969507
0.0026677378
0.0026512079
0.0059065591
0.0056460835
0.0054018107
0.0051759858
0.004967453
0.0047755339
0.004599165
0.0044371554
0.004288369
0.0041517086
0.0040261269
0.003910636
0.0038043064
0.0037062668
0.0036157102
0.0035318962
0.0034541531
0.0033818771
0.0033145302
0.0032516357
0.0031927729
0.0031375714
0.003085705
0.0030368858
0.0029908596
0.0029474002
0.0029063063
0.0028673964
0.0028305084
0.00279549
0.0027622132
0.0027305379
0.0027003857
0.0026716183
0.0026441628
0.0026184569
0.0025918259
0.0025767137
0.0059899475
0.0056807833
0.0053951855
0.0051350023
0.0048984514
0.004684207
0.0044905298
0.0043156269
0.0041577654
0.0040152424
0.0038864144
0.0037697298
0.0036637517
0.0035671789
0.0034788548
0.0033977698
0.0033230552
0.0032539706
0.0031898869
0.0031302709
0.0030746698
0.0030226977
0.0029740234
0.0029283603
0.0028854584
0.0028450975
0.0028070824
0.0027712372
0.0027374046
0.002705435
0.0026752033
0.0026465651
0.0026194488
0.0025936839
0.0025692559
0.0025463895
0.0025229919
0.002509172
0.0060555389
0.005684962
0.0053494828
0.0050497511
0.0047829837
0.0045468538
0.004338551
0.0041551415
0.0039936396
0.0038510805
0.0037246749
0.0036119253
0.0035106828
0.0034191565
0.003335889
0.0032597111
0.0031896902
0.0031250799
0.003065278
0.0030097932
0.0029582166
0.0029102017
0.0028654491
0.0028236967
0.0027847118
0.0027482861
0.0027142316
0.0026823744
0.0026525551
0.0026246174
0.0025984281
0.0025738256
0.0025507314
0.0025289236
0.0025084336
0.002489219
0.0024698857
0.0024574145
0.0060977365
0.0056497065
0.0052540549
0.0049101035
0.0046140102
0.0043616299
0.0041475868
0.0039659574
0.003810812
0.003676758
0.0035593164
0.0034550157
0.0033612906
0.003276297
0.0031987195
0.0031276083
0.0030622558
0.0030021093
0.0029467154
0.0028956864
0.0028486796
0.0028053832
0.0027655104
0.0027287949
0.002694996
0.0026638928
0.0026352774
0.0026089494
0.0025847211
0.0025624058
0.0025418425
0.0025228317
0.0025052686
0.0024888512
0.0024736329
0.0024592713
0.0024449715
0.0024346127
0.0061113126
0.0055756142
0.0051173905
0.00473576
0.0044245217
0.0041740386
0.0039718856
0.0038056818
0.0036650766
0.0035425667
0.0034333101
0.0033344284
0.0032442773
0.0031618952
0.0030866538
0.003018071
0.0029557135
0.0028991508
0.002847955
0.0028017086
0.0027599998
0.0027224301
0.0026886286
0.0026582619
0.0026310418
0.0026066893
0.0025849265
0.00256549
0.0025481459
0.0025326713
0.0025188742
0.0025065115
0.0024954418
0.0024852728
0.0024760395
0.0024671116
0.0024581829
0.0024501997
0.0061046478
0.0054840311
0.0049752869
0.0045767847
0.0042739652
0.0040442261
0.003863611
0.0037133167
0.0035815482
0.0034622335
0.0033528206
0.0032524594
0.0031609157
0.003078042
0.0030035791
0.0029371364
0.0028781859
0.0028261064
0.0027802768
0.0027400888
0.0027049299
0.0026742379
0.0026475283
0.0026244044
0.0026045249
0.0025874949
0.0025729412
0.0025605616
0.0025501076
0.0025413408
0.0025340433
0.0025279276
0.0025228139
0.0025182101
0.0025140418
0.0025095833
0.0025047558
0.002498653
0.0060752802
0.0053620642
0.0048196318
0.0044364959
0.0041715082
0.0039764549
0.0038149989
0.0036685147
0.0035309947
0.0034022875
0.0032838221
0.0031768032
0.0030817496
0.0029985029
0.0029264296
0.0028646302
0.0028119752
0.0027673283
0.0027297233
0.0026982068
0.0026718654
0.0026499925
0.0026320373
0.0026176071
0.0026061713
0.002597191
0.0025902985
0.0025852288
0.0025817523
0.0025796179
0.0025785786
0.0025783047
0.0025785999
0.0025787584
0.0025785245
0.0025776169
0.0025755546
0.0025707977
0.0060176757
0.0052193197
0.0046890902
0.0043706203
0.0041629426
0.0039896534
0.0038191871
0.0036491839
0.0034866051
0.0033378141
0.0032062564
0.0030929742
0.0029974606
0.002918198
0.0028532997
0.0028006725
0.0027581598
0.0027240941
0.0026972066
0.0026760079
0.0026595049
0.0026470478
0.0026381022
0.0026323377
0.0026285723
0.0026261342
0.002625035
0.0026252187
0.0026265448
0.0026287963
0.0026317433
0.002635085
0.0026386141
0.0026418433
0.0026445324
0.0026462562
0.0026458611
0.0026450568
0.0059341935
0.0050936884
0.0046604635
0.004445272
0.0042662079
0.0040588496
0.0038326267
0.0036123466
0.0034143838
0.003245191
0.0031054108
0.0029930144
0.002904624
0.0028360588
0.002783692
0.0027434158
0.0027126628
0.0026898173
0.0026733168
0.0026602957
0.0026505907
0.0026440807
0.0026404424
0.0026393504
0.0026402684
0.0026426115
0.0026459984
0.0026501906
0.0026550149
0.0026602844
0.002665833
0.0026714096
0.0026768924
0.0026817992
0.0026861692
0.0026893719
0.002689525
0.0026947498
0.0058350677
0.0050725887
0.0048360672
0.0046840301
0.0044314216
0.0041120239
0.0037946158
0.0035171419
0.0032901039
0.0031111991
0.0029743441
0.0028725765
0.0027979827
0.0027431124
0.0027033562
0.0026715742
0.0026469779
0.0026290151
0.002616838
0.0026088871
0.0026040667
0.0026017793
0.0026016319
0.0026033207
0.0026065573
0.0026109328
0.0026160675
0.0026216905
0.0026276346
0.0026337757
0.0026400319
0.0026461964
0.0026522937
0.0026577514
0.0026630787
0.0026671131
0.0026677756
0.0026813698
0.0057623168
0.0053035785
0.0052695078
0.005009117
0.0045492195
0.0040675896
0.0036566303
0.0033352353
0.003093477
0.002916025
0.0027897442
0.0027018059
0.0026389386
0.0025906037
0.0025544943
0.0025276257
0.0025076391
0.0024932324
0.0024835625
0.0024776607
0.0024745328
0.0024734762
0.0024740478
0.0024759583
0.0024790056
0.0024829634
0.0024875827
0.0024926451
0.002498002
0.002503565
0.0025093177
0.0025150786
0.0025210544
0.0025265257
0.0025326768
0.0025373332
0.002539447
0.0025624161
0.0058250935
0.0059122579
0.0058653184
0.0052603438
0.0045070308
0.0038635757
0.0033823549
0.0030372753
0.0027927797
0.0026218219
0.0025061685
0.0024235885
0.0023627573
0.0023175191
0.0022841722
0.0022599281
0.0022422605
0.002229465
0.0022205317
0.0022147209
0.0022113293
0.0022097609
0.0022095854
0.0022105182
0.0022123845
0.0022150488
0.0022183819
0.0022222615
0.0022265725
0.0022312027
0.0022362153
0.002241463
0.0022473856
0.0022530549
0.0022605863
0.0022661583
0.0022714798
0.0023041138
0.0061930927
0.0068173368
0.0063957844
0.0052705045
0.0042133299
0.0034473465
0.0029303858
0.0025803461
0.0023394836
0.0021736286
0.0020604453
0.0019784405
0.0019185274
0.0018746438
0.0018424674
0.0018189775
0.0018018108
0.0017892197
0.0017800646
0.0017736166
0.001769323
0.0017667213
0.0017654449
0.0017652296
0.0017659108
0.0017673807
0.0017695888
0.001772503
0.0017761043
0.0017803082
0.0017852392
0.0017907577
0.0017975855
0.0018044976
0.0018148702
0.0018224127
0.0018337065
0.0018763192
0.0068801698
0.0077338318
0.0065931287
0.0048627251
0.0035595532
0.002742369
0.0022366746
0.0019087698
0.0016868984
0.0015341225
0.0014293264
0.001356192
0.0013040961
0.0012663621
0.0012387189
0.0012183905
0.0012033994
0.0011922844
0.001184036
0.0011780008
0.0011737298
0.0011708758
0.0011691618
0.0011683776
0.0011683893
0.0011691024
0.0011705478
0.0011727859
0.0011758556
0.0011797073
0.0011845255
0.0011901714
0.0011975904
0.0012052845
0.0012177939
0.0012261596
0.0012437598
0.0012884331
0.0074661696
0.00817678
0.006119046
0.0038992506
0.0025342963
0.0017998797
0.001392649
0.0011463497
0.00098597379
0.00087755673
0.0008037402
0.00075289885
0.00071714269
0.00069144034
0.00067265094
0.00065879245
0.00064851689
0.00064084926
0.00063510349
0.00063082531
0.00062770986
0.00062553244
0.00062411658
0.00062332656
0.00062307404
0.00062328528
0.00062407004
0.00062551567
0.00062762419