0.47777778 	0.97485656 	-4.9510876e-05 	-7.8017618e-09
0.48888889 	1.1558929 	2.6417643e-05 	-8.6982849e-09
0.5 	1.2219294 	4.8624001e-05 	-1.425938e-08
0.51111111 	1.2618713 	7.2900121e-05 	-1.4899925e-08
0.52222222 	1.2898392 	9.4465698e-05 	-5.664309e-08
0.53333333 	1.3112297 	0.00011630426 	-2.4135352e-09
0.54444444 	1.3280833 	0.000138921 	3.5889254e-09
0.55555556 	1.3416294 	0.00015801372 	-3.030952e-08
0.56666667 	1.3526894 	0.00017607977 	-4.0903858e-08
0.57777778 	1.3617507 	0.00019142 	-2.661285e-08
0.58888889 	1.3691647 	0.00020442733 	1.3427231e-08
0.6 	1.3751705 	0.00021467412 	-3.5779849e-09
0.61111111 	1.379953 	0.00022207074 	-8.8510792e-08
0.62222222 	1.3837958 	0.00022730017 	-1.6416941e-07
0.63333333 	1.3868229 	0.00023107664 	-3.7440271e-08
0.64444444 	1.3890946 	0.00023272046 	-2.3078876e-08
0.65555556 	1.390662 	0.00023206999 	-1.7906688e-07
0.66666667 	1.3917908 	0.0002311178 	-2.1882114e-08
0.67777778 	1.3923135 	0.00022802348 	-7.7964324e-08
0.68888889 	1.3924043 	0.0002239264 	-1.0499053e-07
0.7 	1.3921687 	0.00021933049 	-1.8098126e-08
0.71111111 	1.391353 	0.00021277707 	-1.4453189e-07
0.72222222 	1.3904008 	0.00020664468 	-8.8478545e-09
0.73333333 	1.3888169 	0.00019836653 	-1.459389e-07
0.74444444 	1.3870989 	0.00019037853 	-1.7435203e-08
0.75555556 	1.3848158 	0.00018095137 	-1.4272231e-07
0.76666667 	1.3822677 	0.0001714426 	-5.6125404e-08
0.77777778 	1.3792126 	0.00016113709 	-1.5954625e-07
0.78888889 	1.3758235 	0.00015095622 	-7.7111491e-09
0.8 	1.3719011 	0.00014030442 	-8.7559019e-08
0.81111111 	1.3675544 	0.00012977804 	-6.9596595e-08
0.82222222 	1.3627204 	0.00011923803 	-2.4600171e-08
0.83333333 	1.3572736 	0.00010878949 	-9.5194202e-08
0.84444444 	1.3512308 	9.8582897e-05 	-6.7720066e-08
0.85555556 	1.344525 	8.8602557e-05 	-1.3913851e-08
0.86666667 	1.3370052 	7.8897377e-05 	-1.5026414e-08
0.87777778 	1.3285863 	6.9568576e-05 	-5.6044207e-08
0.88888889 	1.3191445 	6.0675509e-05 	-7.8107774e-08
0.9 	1.3084377 	5.2138715e-05 	-7.9892305e-08
0.91111111 	1.2961697 	4.4199375e-05 	-7.1465767e-08
0.92222222 	1.2819209 	3.6351432e-05 	-5.3928954e-08
0.93333333 	1.265086 	3.0137524e-05 	-2.4639188e-08
0.94444444 	1.2447316 	2.0838756e-05 	-1.1039345e-08
0.95555556 	1.2188599 	1.926435e-05 	-2.3959557e-08
0.96666667 	1.1839582 	9.5568932e-06 	-4.6024905e-10
0.97777778 	1.1298386 	6.6591938e-06 	-6.5980197e-09
0.98888889 	1.0132859 	-7.2350923e-06 	-1.9806522e-09
