0.47777778 	1.0361578 	-0.01167055 	-4.7970715e-05
0.48888889 	1.1758457 	-0.012793102 	-8.2148078e-07
0.5 	1.234727 	-0.013192962 	-1.5645002e-09
0.51111111 	1.271136 	-0.01352049 	-5.8195965e-05
0.52222222 	1.2970386 	-0.013350352 	1.4565998e-06
0.53333333 	1.3169362 	-0.013297039 	6.0906915e-07
0.54444444 	1.3326111 	-0.01326496 	-2.731953e-05
0.55555556 	1.3452225 	-0.013167606 	-4.7205825e-05
0.56666667 	1.3554953 	-0.012975052 	-4.5828675e-05
0.57777778 	1.363895 	-0.012708964 	-2.7275968e-05
0.58888889 	1.3707578 	-0.012399461 	3.7673964e-07
0.6 	1.37621 	-0.012142136 	4.3814479e-06
0.61111111 	1.3806104 	-0.011868665 	5.4153767e-06
0.62222222 	1.384118 	-0.011607376 	-7.8583958e-06
0.63333333 	1.3867719 	-0.011335937 	-7.3980617e-06
0.64444444 	1.3886436 	-0.011008995 	8.6797902e-06
0.65555556 	1.390019 	-0.010695716 	-1.2189903e-06
0.66666667 	1.390788 	-0.010407146 	1.1717213e-06
0.67777778 	1.391011 	-0.010075603 	6.8232577e-06
0.68888889 	1.3908251 	-0.009826995 	-2.238998e-05
0.7 	1.3902445 	-0.0094410057 	1.1352652e-05
0.71111111 	1.3892294 	-0.0091822664 	-2.5507164e-05
0.72222222 	1.3879215 	-0.0087953935 	1.1041078e-05
0.73333333 	1.3861817 	-0.0085314804 	-2.3776178e-05
0.74444444 	1.3841375 	-0.0081422655 	1.0733864e-05
0.75555556 	1.3816837 	-0.0078723935 	-2.199045e-05
0.76666667 	1.3788384 	-0.0074786097 	8.5875322e-06
0.77777778 	1.3755975 	-0.0071627188 	-1.0962819e-05
0.78888889 	1.3719257 	-0.0068068659 	4.1398609e-06
0.8 	1.3678139 	-0.0064485821 	2.0515265e-06
0.81111111 	1.3632108 	-0.0061454646 	-8.0198423e-06
0.82222222 	1.3580779 	-0.0057717822 	7.0713604e-06
0.83333333 	1.3524601 	-0.005415721 	-5.2236328e-07
0.84444444 	1.3461345 	-0.0051086898 	-9.4790236e-06
0.85555556 	1.3391677 	-0.0047334409 	3.0186743e-06
0.86666667 	1.3313997 	-0.0043757119 	4.5421913e-06
0.87777778 	1.3227849 	-0.0040187598 	7.6175015e-07
0.88888889 	1.3130567 	-0.0036833899 	-5.4487796e-06
0.9 	1.3020672 	-0.0033407265 	-8.7974952e-06
0.91111111 	1.2895475 	-0.0029825118 	-8.1561799e-06
0.92222222 	1.2750832 	-0.0026115563 	-4.313925e-06
0.93333333 	1.2580217 	-0.0022359468 	6.7708563e-07
0.94444444 	1.2372565 	-0.0018786349 	2.4921382e-06
0.95555556 	1.211147 	-0.0015178388 	-3.8544265e-06
0.96666667 	1.1760084 	-0.0011361543 	9.9914255e-07
0.97777778 	1.121235 	-0.00074098821 	2.5913319e-07
0.98888889 	1.0036703 	-0.00034301841 	4.1374766e-07
