0.47916667 	1.034767 	-8.5853967e-06 	4.4849335e-08
0.48958333 	1.1809012 	0.00015157709 	-6.495408e-08
0.5 	1.2426312 	0.00025550827 	5.2872036e-08
0.51041667 	1.2814015 	0.00036590174 	4.2871586e-07
0.52083333 	1.308417 	0.00046932268 	-1.8472838e-07
0.53125 	1.3286427 	0.00057095557 	-9.2711171e-08
0.54166667 	1.3440858 	0.00066132826 	1.3702064e-07
0.55208333 	1.3560048 	0.00073952296 	2.4404835e-07
0.5625 	1.3652874 	0.00080540201 	1.6037439e-07
0.57291667 	1.372543 	0.00085892047 	1.2762636e-09
0.58333333 	1.3781502 	0.00090058026 	-2.0420519e-07
0.59375 	1.3825223 	0.0009321821 	-3.0179688e-07
0.60416667 	1.3858957 	0.00095516504 	1.0308418e-08
0.61458333 	1.3884517 	0.00097003173 	-6.3643749e-08
0.625 	1.3903876 	0.00097858431 	-1.7359093e-07
0.63541667 	1.3917422 	0.00098146596 	-9.1600283e-08
0.64583333 	1.3925993 	0.0009792595 	-2.8127424e-07
0.65625 	1.3930495 	0.0009724695 	-2.8892437e-07
0.66666667 	1.3931142 	0.00096243781 	-2.1729739e-07
0.67708333 	1.3928385 	0.00094880195 	-6.7479068e-08
0.6875 	1.3922139 	0.00093182489 	-4.6196577e-09
0.69791667 	1.3912773 	0.00091233493 	-5.3937091e-08
0.70833333 	1.3900081 	0.00088959833 	-3.2909035e-08
0.71875 	1.3884796 	0.0008654064 	-3.6821512e-08
0.72916667 	1.3866552 	0.00083869647 	-4.9884499e-08
0.73958333 	1.3845161 	0.00081014395 	-4.9674396e-08
0.75 	1.3821173 	0.00077994493 	-2.6292251e-07
0.76041667 	1.3794068 	0.00074833154 	-8.6029126e-08
0.77083333 	1.3763643 	0.00071482701 	-2.9910585e-07
0.78125 	1.373034 	0.00068077428 	-5.4001345e-08
0.79166667 	1.3693579 	0.00064525136 	-7.1367233e-08
0.80208333 	1.3653333 	0.00060958376 	-1.2636716e-07
0.8125 	1.3609517 	0.00057303757 	-7.0868657e-08
0.82291667 	1.356125 	0.00053641293 	-7.1599062e-07
0.83333333 	1.3509356 	0.00049991071 	-6.677238e-08
0.84375 	1.3452109 	0.00046331429 	-1.0886125e-08
0.85416667 	1.3389067 	0.00042768873 	-5.6130391e-07
0.86458333 	1.3320476 	0.00039284386 	-1.5276931e-08
0.875 	1.3244415 	0.00035907584 	-4.9730898e-08
0.88541667 	1.315921 	0.0003265907 	-5.5514741e-09
0.89583333 	1.3063561 	0.00029592247 	-1.8127161e-07
0.90625 	1.2955385 	0.00026680193 	-2.8455328e-07
0.91666667 	1.2831501 	0.00023933214 	-2.8751008e-07
0.92708333 	1.2687437 	0.0002125223 	-2.0270619e-07
0.9375 	1.2516955 	0.00018697015 	-6.1625734e-08
0.94791667 	1.2309436 	0.00016061095 	-1.5219404e-08
0.95833333 	1.2046707 	0.00013195748 	-1.4222673e-09
0.96875 	1.169054 	0.00010105009 	-2.3755606e-08
0.97916667 	1.11349 	6.6680457e-05 	-3.7886245e-08
0.98958333 	0.99257194 	3.5271521e-05 	1.4421746e-07
