2.7909061e-19 	0.0041314246 	-2.8059204e-16 	-2.9528464e-22 	1.6397475e-18 	2.3752618e-20 	1.1112782e-18
0.010869565 	0.0042432223 	-0.00024670761 	8.701712e-08 	0.0050484675 	-2.1762267e-05 	0.00069311582
0.02173913 	0.0045813325 	-0.00048347976 	4.0912494e-08 	0.0053993145 	-1.1411991e-05 	0.0011592595
0.032608696 	0.0050859973 	-0.00071211827 	1.7254464e-08 	0.0059188548 	-1.7712553e-06 	0.0016969512
0.043478261 	0.0056871151 	-0.00092714101 	1.8809371e-07 	0.0065380407 	-7.4965689e-06 	0.0023798266
0.054347826 	0.0063194064 	-0.0011298628 	4.9603259e-07 	0.0071821632 	-2.5571939e-06 	0.00027190652
0.065217391 	0.0069517955 	-0.0013216071 	3.1661581e-07 	0.0078249405 	-1.6809115e-06 	0.0022448138
0.076086957 	0.0074728784 	-0.0014787849 	7.3253158e-07 	0.0083400335 	-3.848421e-06 	0.00085496138
0.086956522 	0.0079559318 	-0.0016247135 	3.5123205e-08 	0.0088181802 	-1.7747993e-07 	0.0053608838
0.097826087 	0.0083871585 	-0.0017559395 	3.9302113e-07 	0.0092281185 	-3.432356e-06 	0.0064729124
0.10869565 	0.0087545342 	-0.0018710617 	9.5982203e-07 	0.009554974 	-4.6237699e-06 	0.0023421741
0.11956522 	0.0090475989 	-0.0019636226 	6.4721115e-07 	0.0098147262 	-2.9785307e-06 	0.0046422607
0.13043478 	0.0092814471 	-0.0020388651 	1.601582e-07 	0.010012413 	-7.3706412e-07 	0.0079072239
0.14130435 	0.0094510696 	-0.0020982672 	1.7572317e-06 	0.01011835 	-7.7706524e-06 	3.612341e-05
0.15217391 	0.0095677393 	-0.0021366437 	1.2822887e-07 	0.01020881 	-5.4816929e-07 	0.0092559285
0.16304348 	0.0096210443 	-0.0021599982 	1.4274882e-06 	0.010199316 	-6.1024104e-06 	0.0024623273
0.17391304 	0.0096407906 	-0.0021689816 	3.9705654e-07 	0.010184563 	-1.6444062e-06 	0.007560368
0.18478261 	0.009611214 	-0.002164637 	1.0631898e-06 	0.01010111 	-4.4031914e-06 	0.0031858143
0.19565217 	0.0095575723 	-0.0021496362 	2.3138522e-07 	0.010015114 	-9.2234062e-07 	0.0074263341
0.20652174 	0.0094658949 	-0.002124421 	9.7789942e-07 	0.0098734113 	-3.8980725e-06 	0.0024573515
0.2173913 	0.009361648 	-0.0020917404 	5.2996848e-07 	0.0097449135 	-2.4230497e-06 	0.0077577287
0.22826087 	0.0092274952 	-0.0020526718 	1.1217219e-06 	0.0095604378 	-4.2249754e-06 	0.00059961135
0.23913043 	0.009089423 	-0.0020076369 	1.4844951e-06 	0.0094067246 	-6.5376332e-06 	0.0067383956
0.25 	0.0089309649 	-0.0019597455 	6.8294918e-07 	0.0092083844 	-2.3604041e-06 	0.0024257991
0.26086957 	0.0087710401 	-0.0019081369 	1.357091e-07 	0.0090294654 	-4.6903683e-07 	0.0050296674
0.27173913 	0.0086001121 	-0.0018550281 	4.5959453e-07 	0.0088337062 	-1.9793997e-06 	0.0054818077
0.2826087 	0.0084221024 	-0.00180043 	7.5106655e-07 	0.0086212315 	-2.3004908e-06 	0.0010697994
0.29347826 	0.0082462974 	-0.0017440596 	2.3742805e-06 	0.0084332258 	-1.0109051e-05 	0.0046470322
0.30434783 	0.0080631715 	-0.0016878584 	1.6402733e-07 	0.0082247538 	-4.3006424e-07 	0.0035963435
0.31521739 	0.0078802927 	-0.0016305396 	3.2422364e-07 	0.0080190951 	-8.5008394e-07 	0.0024100776
0.32608696 	0.0076970132 	-0.0015730028 	3.8370482e-06 	0.0078189803 	-1.6190648e-05 	0.0036849972
0.33695652 	0.0075109885 	-0.0015154305 	1.7572249e-07 	0.0076093698 	-3.819667e-07 	0.0027179697
0.34782609 	0.0073286524 	-0.0014571204 	1.5547652e-07 	0.0074077894 	-3.3795818e-07 	0.0024215132
0.35869565 	0.0071472138 	-0.0013986409 	4.2182017e-06 	0.0072074787 	-1.7463956e-05 	0.0028832056
0.36956522 	0.0069650376 	-0.0013401171 	2.6306557e-07 	0.0070042194 	-1.0891289e-06 	0.0027205553
0.38043478 	0.0067874432 	-0.0012806104 	2.398799e-07 	0.0068041183 	-4.1946427e-07 	0.0015096606
0.39130435 	0.0066166768 	-0.0012206504 	3.5464988e-06 	0.006615186 	-1.4045755e-05 	0.0022278992
0.40217391 	0.0064456921 	-0.0011603877 	1.9097495e-06 	0.0064227939 	-7.5634806e-06 	0.0021021231
0.41304348 	0.0062768741 	-0.0010990443 	5.6660102e-07 	0.0062269232 	-7.7270037e-07 	3.539524e-05
0.42391304 	0.0061238539 	-0.0010375828 	2.0456338e-06 	0.0060591066 	-7.4571599e-06 	0.001704794
0.43478261 	0.0059732994 	-0.00097486742 	4.2331246e-06 	0.0058865405 	-1.5431445e-05 	0.0016105141
0.44565217 	0.0058227448 	-0.00091215203 	6.3986078e-07 	0.0057139744 	-2.3325504e-06 	0.0015162342
0.45652174 	0.0056835816 	-0.00084858324 	5.6452188e-08 	0.0055532709 	-5.7829853e-08 	0.0011394685
0.4673913 	0.0055633936 	-0.00078417746 	3.646535e-06 	0.0054118792 	-1.1709384e-05 	0.0012305245
0.47826087 	0.0054438741 	-0.00071964698 	3.747936e-06 	0.0052705034 	-1.2034993e-05 	0.0011620004
0.48913043 	0.0053243546 	-0.0006551165 	3.817948e-07 	0.0051291276 	-1.2259808e-06 	0.0010934763
0.5 	0.0052219059 	-0.00058894037 	5.8382525e-07 	0.0050059502 	-1.5635386e-06 	0.00094843865
0.51086957 	0.0051364131 	-0.00052175387 	4.2075269e-06 	0.004899668 	-1.1268151e-05 	0.00089946957
0.52173913 	0.0050509204 	-0.00045456738 	3.4161737e-06 	0.0047933859 	-9.1488328e-06 	0.00085050049
0.5326087 	0.0049654277 	-0.00038738088 	1.9714327e-07 	0.0046871037 	-5.2796812e-07 	0.00080153141
0.54347826 	0.0049031701 	-0.00031836736 	1.2921185e-06 	0.004606139 	-2.7135443e-06 	0.00071423998
0.55434783 	0.0048522905 	-0.00024818028 	4.7423783e-06 	0.0045369947 	-9.9593448e-06 	0.00067892889
0.56521739 	0.004801411 	-0.00017799319 	2.3445e-06 	0.0044678504 	-4.9236233e-06 	0.0006436178
0.57608696 	0.0047557302 	-0.00010842376 	1.7165504e-07 	0.0044030149 	-4.7794198e-08 	8.0763054e-05
0.58695652 	0.0047364745 	-3.7170814e-05 	2.6419875e-06 	0.0043711384 	-4.0779385e-06 	0.00056187428
0.59782609 	0.0047204732 	3.3858644e-05 	3.5107199e-06 	0.0043411427 	-5.418837e-06 	0.00053586741
0.60869565 	0.0047044719 	0.0001048881 	5.2581783e-07 	0.0043111471 	-8.1160595e-07 	0.00050986054
0.61956522 	0.004710374 	0.0001754544 	1.4506216e-06 	0.0043063824 	-1.4547803e-06 	0.00048376147
0.63043478 	0.00472701 	0.00024638561 	3.8613219e-06 	0.0043137808 	-3.8723917e-06 	0.00046424119
0.64130435 	0.0047436459 	0.00031731683 	1.033863e-06 	0.0043211792 	-1.0368269e-06 	0.0004447209
0.65217391 	0.0047754893 	0.00038758851 	1.0002318e-06 	0.0043461177 	-4.8297456e-07 	0.00043330894
0.66304348 	0.0048218631 	0.00045789548 	3.5703115e-06 	0.0043876935 	-1.72397e-06 	0.00041846263
0.67391304 	0.0048682369 	0.00052820245 	8.9883728e-07 	0.0044292693 	-4.3401494e-07 	0.00040361633
0.68478261 	0.0049295028 	0.00059768176 	1.1334896e-06 	0.004487923 	1.3693071e-08 	0.00040268132
0.69565217 	0.005002379 	0.00066701295 	2.7860118e-06 	0.0045598879 	3.3656292e-08 	0.00039129809
0.70652174 	0.0050752553 	0.00073634415 	2.6574255e-07 	0.0046318528 	3.2102912e-09 	0.00037991486
0.7173913 	0.0051666823 	0.00080429202 	1.7099715e-06 	0.0047251841 	8.22767e-07 	0.00038646073
0.72826087 	0.0052624866 	0.00087219893 	1.6270964e-06 	0.0048236067 	7.8289094e-07 	0.00037773913
0.73913043 	0.0053628073 	0.00093940918 	3.0746246e-07 	0.0049273016 	2.850508e-07 	0.00038750157
0.75 	0.0054774593 	0.0010052317 	2.4104823e-06 	0.0050479995 	2.2347766e-06 	0.00038085135
0.76086957 	0.0055921114 	0.0010710543 	2.1164884e-07 	0.0051686975 	1.9622125e-07 	0.00037420113
0.77173913 	0.005718642 	0.0011342056 	1.5451927e-06 	0.0053041262 	2.095873e-06 	0.00038799434
0.7826087 	0.0058474102 	0.0011970564 	6.895516e-07 	0.0054424318 	9.3529601e-07 	0.00038300347
0.79347826 	0.0059813708 	0.0012573004 	9.3824557e-07 	0.0055879999 	1.6699074e-06 	0.00039799197
0.80434783 	0.0061187281 	0.0013160663 	7.8400504e-07 	0.0057384985 	1.3953872e-06 	0.00039431725
0.81521739 	0.0062571997 	0.0013719363 	6.5897392e-07 	0.0058918873 	1.460794e-06 	0.00040968315
0.82608696 	0.0063966196 	0.0014252793 	5.9890693e-07 	0.0060481513 	1.3276393e-06 	0.00040704672
0.83695652 	0.006532974 	0.0014746303 	5.7509016e-07 	0.0062032769 	1.5564822e-06 	0.0004219085
0.84782609 	0.0066667006 	0.0015210068 	2.6480477e-07 	0.0063575252 	7.1669444e-07 	0.00042007804
0.85869565 	0.0067895973 	0.0015608816 	5.2119922e-07 	0.0065034209 	1.765025e-06 	0.0004335
0.86956522 	0.0069072456 	0.0015978578 	-1.4291296e-08 	0.0066444939 	-3.2821812e-08 	0.00013328018
0.88043478 	0.0070004999 	0.0016251485 	1.5861945e-07 	0.0067656061 	8.2975605e-07 	0.00044325975
0.89130435 	0.007076325 	0.0016464235 	-1.0161178e-07 	0.0068696174 	-5.9342003e-09 	0.00045052015
0.90217391 	0.0071299441 	0.0016603879 	-3.1658002e-09 	0.0069530342 	-1.8488499e-10 	0.00045001496
0.91304348 	0.0071321649 	0.0016608825 	-3.4435527e-07 	0.0069866915 	-9.0476093e-07 	0.00045291593
0.92391304 	0.0070947535 	0.0016512115 	-8.3248222e-07 	0.0069799463 	-2.6712861e-06 	0.00045045966
0.93478261 	0.0070028075 	0.0016273476 	-6.1368145e-07 	0.0069188831 	-2.1441382e-06 	0.00044283988
0.94565217 	0.006817652 	0.0015833602 	-9.6198552e-07 	0.0067653775 	-3.8263407e-06 	0.00043353917
0.95652174 	0.0065464964 	0.0015236966 	-2.5581002e-09 	0.0065201813 	-9.7347451e-09 	0.00040167665
0.9673913 	0.0061336467 	0.0014397628 	-5.7940281e-07 	0.0061250818 	-2.7839221e-06 	0.00039372019
0.97826087 	0.0055315805 	0.0013274413 	-9.7845925e-09 	0.0055291037 	-5.2867009e-08 	0.00036031317
0.98913043 	0.0043435055 	0.0010980206 	-2.7036473e-07 	0.0043359343 	-1.1902349e-06 	0.00026250656
