1.4101108e-19 	0.0040457702 	-2.7477485e-16 	-3.1313862e-22 	1.9551823e-18 	4.2590154e-20 	9.8764751e-19
0.010869565 	0.0040773409 	-0.00013101239 	9.8926684e-09 	0.0044661791 	-4.2852802e-06 	0.0033035693
0.02173913 	0.0041850955 	-0.00026000318 	6.755451e-09 	0.0045744722 	-5.0125478e-06 	0.0030939584
0.032608696 	0.0043549441 	-0.00038700314 	3.5720558e-08 	0.0047440312 	-1.2774037e-07 	0.0024919308
0.043478261 	0.0045705689 	-0.00050929598 	4.917259e-08 	0.0049602993 	-5.9328406e-06 	0.0027648634
0.054347826 	0.0048228452 	-0.00062840389 	2.1050335e-07 	0.0052077588 	-7.1967855e-07 	0.00084240113
0.065217391 	0.005106185 	-0.00074657318 	1.811914e-07 	0.0054879561 	-6.2252117e-07 	0.0010804205
0.076086957 	0.0053603276 	-0.00084439754 	1.5791758e-07 	0.0057369206 	-5.4633736e-07 	0.0011219512
0.086956522 	0.0056237805 	-0.00094123168 	2.2648799e-07 	0.0059941649 	-4.8299037e-06 	0.0020253185
0.097826087 	0.0058766255 	-0.0010308733 	4.8247705e-07 	0.0062361245 	-7.1967459e-06 	0.0018292349
0.10869565 	0.0061165589 	-0.0011141681 	1.0281392e-07 	0.0064615317 	-3.5656195e-07 	0.00093710628
0.11956522 	0.0063272977 	-0.0011868323 	4.3678173e-07 	0.0066571162 	-4.9330164e-06 	0.0012989592
0.13043478 	0.0065141247 	-0.0012514805 	9.5005839e-07 	0.0068256712 	-8.6002363e-06 	0.0010468694
0.14130435 	0.0066826554 	-0.0013101708 	2.2250584e-09 	0.0069742183 	-7.5784356e-09 	0.00073346413
0.15217391 	0.0068069187 	-0.0013551967 	1.793759e-06 	0.0070763045 	-1.36246e-05 	0.00047857212
0.16304348 	0.006919664 	-0.0013967038 	3.2781419e-07 	0.0071662941 	-2.1601796e-06 	0.00019419342
0.17391304 	0.0069873897 	-0.0014244918 	1.971314e-06 	0.007210253 	-1.2990262e-05 	0.00011231059
0.18478261 	0.0070442842 	-0.0014489533 	5.7169575e-07 	0.0072439754 	-3.3471293e-06 	0.00039344925
0.19565217 	0.0070598968 	-0.0014605079 	2.1807387e-06 	0.0072361048 	-1.2767656e-05 	0.00065737697
0.20652174 	0.0070664913 	-0.0014691482 	1.374488e-07 	0.0072191404 	-7.2682553e-07 	0.00090910426
0.2173913 	0.0070315821 	-0.0014640512 	2.8382449e-06 	0.0071615952 	-1.5008562e-05 	0.0011488628
0.22826087 	0.0069917586 	-0.0014570525 	1.6307295e-07 	0.0070968143 	-5.4459304e-07 	0.00021765485
0.23913043 	0.0069179782 	-0.0014382385 	2.8174702e-06 	0.0070044164 	-1.3608922e-05 	0.0015672522
0.25 	0.0068391321 	-0.0014173271 	3.9272805e-07 	0.0069050673 	-1.8969518e-06 	0.0017795782
0.26086957 	0.0067373667 	-0.0013872642 	1.0430031e-06 	0.0067842328 	-4.6385281e-06 	0.0018992843
0.27173913 	0.0066247533 	-0.0013523955 	2.1086926e-06 	0.0066542497 	-9.3779486e-06 	0.0020823632
0.2826087 	0.0065025657 	-0.0013129127 	2.1819619e-07 	0.0065115896 	-7.9394798e-07 	0.00031418168
0.29347826 	0.006373117 	-0.0012695571 	2.4510585e-06 	0.0063713016 	-1.0097317e-05 	0.002293911
0.30434783 	0.0062394053 	-0.0012235618 	6.1262675e-07 	0.0062238571 	-2.5237612e-06 	0.002447455
0.31521739 	0.0060966704 	-0.0011719016 	1.1029286e-07 	0.00606664 	-4.38271e-07 	0.0013903908
0.32608696 	0.0059564349 	-0.001119518 	2.9865336e-06 	0.0059178024 	-1.1445887e-05 	0.0025458829
0.33695652 	0.0058145223 	-0.0010654658 	1.6790912e-08 	0.0057653873 	-7.4225453e-08 	0.0024816602
0.34782609 	0.0056695118 	-0.0010071383 	1.0697019e-07 	0.0056096749 	-4.7286957e-07 	0.001461523
0.35869565 	0.0055322858 	-0.00095031424 	2.5929574e-06 	0.0054668968 	-9.2561035e-06 	0.0026757134
0.36956522 	0.0053951202 	-0.00089204353 	1.1345481e-08 	0.005322175 	-5.5562663e-08 	0.0026330004
0.38043478 	0.0052589136 	-0.00083032193 	1.5621648e-07 	0.0051762582 	-7.6504501e-07 	0.00083846377
0.39130435 	0.0051331152 	-0.00077233526 	1.3803643e-06 	0.0050480895 	-4.5628085e-06 	0.0027130215
0.40217391 	0.0050106372 	-0.00071268509 	6.4052362e-07 	0.0049202243 	-2.1172574e-06 	0.0027900511
0.41304348 	0.0048906812 	-0.00064983878 	1.8829953e-07 	0.0047905163 	-9.9655976e-07 	0.00028472435
0.42391304 	0.0047800453 	-0.00059183892 	2.6985752e-08 	0.0046790304 	-1.4281987e-07 	0.0023526669
0.43478261 	0.004678723 	-0.00053265983 	2.0172038e-06 	0.0045739661 	-6.0627798e-06 	0.0027506945
0.44565217 	0.0045813771 	-0.00047218206 	6.3530367e-08 	0.0044705397 	-3.5199332e-07 	0.0018547487
0.45652174 	0.0044911131 	-0.00041151089 	1.416004e-07 	0.0043738457 	-7.845444e-07 	0.00068257956
0.4673913 	0.0044072618 	-0.00035465965 	2.7954132e-07 	0.0042897096 	-7.4122567e-07 	0.0026938997
0.47826087 	0.004336266 	-0.00029705842 	1.0037399e-06 	0.004214885 	-2.6614949e-06 	0.0027370301
0.48913043 	0.0042729414 	-0.00023846332 	8.7525943e-08 	0.0041449477 	-4.9697254e-07 	0.00129621
0.5 	0.0042144926 	-0.00018004283 	1.0858236e-07 	0.0040818969 	-6.1653093e-07 	0.0009238231
0.51086957 	0.0041593522 	-0.00012271191 	4.1661032e-07 	0.0040262398 	-9.1535477e-07 	0.0026933685
0.52173913 	0.0041183456 	-6.6087276e-05 	4.2034754e-07 	0.0039817695 	-9.2356601e-07 	0.0027250976
0.5326087 	0.0040894786 	-9.6477938e-06 	8.8831217e-08 	0.003946182 	-5.2055823e-07 	0.00093868482
0.54347826 	0.0040623148 	4.7962397e-05 	7.3272587e-08 	0.0039161625 	-4.2938338e-07 	0.0012481955
0.55434783 	0.0040398866 	0.00010587896 	7.9227463e-07 	0.0038932326 	-1.3142171e-06 	0.0027287395
0.56521739 	0.0040309732 	0.00016230375 	1.4650584e-08 	0.0038808959 	-9.4333254e-08 	0.0023459243
0.57608696 	0.0040335823 	0.00021770854 	9.6111975e-08 	0.0038770324 	-6.1885281e-07 	0.00010922869
0.58695652 	0.0040359449 	0.00027560112 	1.9862278e-08 	0.0038810106 	-1.2789069e-07 	0.0022408204
0.59782609 	0.0040493281 	0.0003318498 	5.2155125e-07 	0.0038938232 	-5.8102375e-07 	0.0028094617
0.60869565 	0.004075536 	0.00038635459 	3.8432699e-08 	0.003915865 	-3.3092541e-07 	0.0010102669
0.61956522 	0.004105351 	0.00044223217 	2.9190605e-08 	0.0039459935 	-2.5134621e-07 	0.0014948667
0.63043478 	0.004140963 	0.00049809675 	8.8436326e-07 	0.0039841548 	-5.0082096e-07 	0.0029196036
0.64130435 	0.0041890172 	0.00055124815 	7.4683038e-09 	0.0040305067 	-2.0647284e-07 	0.0014973722
0.65217391 	0.0042428039 	0.00060493532 	9.1438545e-09 	0.0040852387 	-2.5279604e-07 	0.0012338381
0.66304348 	0.0043011641 	0.00065932061 	6.5915862e-07 	0.0041489073 	-1.8910503e-08 	0.0030722348
0.67391304 	0.0043700095 	0.00071009505 	-1.7036974e-08 	0.0042177229 	-1.9133072e-07 	0.0014953954
0.68478261 	0.0044443608 	0.00076152806 	-1.7091227e-08 	0.0042956823 	-1.9194e-07 	0.0015742425
0.69565217 	0.0045233057 	0.0008129023 	4.124371e-07 	0.0043817546 	2.0316948e-07 	0.0032552105
0.70652174 	0.0046096736 	0.00085990741 	-6.1909719e-08 	0.0044684757 	-2.7108883e-07 	0.00085393411
0.7173913 	0.0047009778 	0.00090902515 	-1.82945e-08 	0.0045686413 	-8.010753e-08 	0.0026976629
0.72826087 	0.0047954816 	0.00095508471 	-1.6224968e-08 	0.0046697601 	-4.9062571e-08 	0.0030392906
0.73913043 	0.0048941105 	0.00099779508 	-1.079068e-07 	0.0047706856 	-3.2629865e-07 	0.00073099536
0.75 	0.0049966401 	0.001042384 	3.3143647e-07 	0.0048859555 	4.846581e-07 	0.0036545243
0.76086957 	0.0050978057 	0.0010807988 	-1.3777506e-07 	0.0049895831 	-3.6728257e-07 	0.00091598156
0.77173913 	0.0052035844 	0.0011210794 	-1.1008317e-08 	0.0051088164 	-2.9346117e-08 	0.0036173711
0.7826087 	0.0053038105 	0.0011556117 	-1.0209299e-07 	0.0052147908 	-2.7118853e-07 	0.0021278092
0.79347826 	0.005405015 	0.0011894147 	-6.7786339e-08 	0.0053264931 	-1.8006013e-07 	0.0028284934
0.80434783 	0.0054999879 	0.0012197928 	-7.8926861e-08 	0.0054308143 	-2.2132596e-07 	0.002831102
0.81521739 	0.0055904752 	0.0012472387 	-9.781185e-08 	0.005530677 	-2.7428307e-07 	0.0026378442
0.82608696 	0.0056722915 	0.0012716637 	-9.4329624e-08 	0.0056227218 	-2.859939e-07 	0.0028415164
0.83695652 	0.0057459976 	0.0012928958 	-7.329915e-08 	0.005707294 	-2.2223252e-07 	0.0032231363
0.84782609 	0.0058048481 	0.0013096859 	-1.7025644e-07 	0.0057735859 	-5.6210924e-07 	0.0019754314
0.85869565 	0.0058547943 	0.0013245605 	-1.4083075e-08 	0.0058382112 	-7.2856462e-08 	0.0043613433
0.86956522 	0.005881326 	0.0013325154 	-3.205898e-07 	0.0058658072 	-1.1519858e-06 	6.7384989e-05
0.88043478 	0.005896327 	0.0013397609 	-3.1657923e-09 	0.0058985796 	-1.5625779e-08 	0.0043959847
0.89130435 	0.0058856706 	0.0013405891 	-8.5881108e-08 	0.0058938762 	-3.3478997e-07 	0.0032277829
0.90217391 	0.0058519395 	0.0013364437 	-2.6897733e-07 	0.0058622017 	-1.1331154e-06 	0.00060765483
0.91304348 	0.0057959042 	0.0013299758 	-3.1224453e-08 	0.0058187255 	-1.4201163e-07 	0.0038740286
0.92391304 	0.0057112006 	0.0013204047 	-7.857074e-08 	0.0057390673 	-4.2564434e-07 	0.0042638741
0.93478261 	0.0055973145 	0.0012999231 	-5.3506665e-08 	0.0056244073 	-2.608691e-07 	0.0032995633
0.94565217 	0.0054467019 	0.0012790658 	-1.1906057e-07 	0.0054739762 	-7.4985609e-07 	0.0040752511
0.95652174 	0.0052697993 	0.0012539175 	-1.4496586e-07 	0.0052854392 	-8.3444259e-07 	0.00044340097
0.9673913 	0.0050512577 	0.0012255263 	-2.7661579e-08 	0.0050638855 	-1.7454673e-07 	0.0027948902
0.97826087 	0.004771275 	0.0011857191 	-5.1324303e-08 	0.0047702184 	-3.3899051e-07 	0.0004326913
0.98913043 	0.0040605686 	0.0010413657 	-1.0608322e-08 	0.0040532712 	-6.6148649e-08 	0.00051803965
