0.47191011 	0.008406697 	-0.002185574 	-3.3909297e-07 	0.0086329755 	1.8371085e-06 	0.0062464574
0.48314607 	0.0084695443 	-0.0021685388 	7.7492987e-08 	0.0086358406 	1.6774188e-07 	0.0023368919
0.49438202 	0.0078871548 	-0.0019881213 	2.5572245e-07 	0.0079832877 	-3.2288619e-07 	0.0011141923
0.50561798 	0.0073067267 	-0.0018137524 	3.9580495e-07 	0.0073420383 	-7.1557839e-07 	0.0011564641
0.51685393 	0.0067555302 	-0.0016377271 	1.2143201e-07 	0.0067419982 	-2.3181383e-07 	0.0046429401
0.52808989 	0.0062374304 	-0.0014698249 	1.1614817e-07 	0.0061724378 	-2.2767538e-07 	0.0047884796
0.53932584 	0.0057559682 	-0.0013083917 	4.8541505e-07 	0.0056362292 	-9.5310826e-07 	0.0022450873
0.5505618 	0.0053170075 	-0.0011544654 	7.1261364e-07 	0.0051484869 	-1.4022445e-06 	0.0010419595
0.56179775 	0.0049230145 	-0.0010076183 	7.848943e-07 	0.0047103565 	-1.5542043e-06 	0.00082973993
0.57303371 	0.0045752122 	-0.00086723981 	7.0392179e-07 	0.0043224243 	-1.4122451e-06 	0.0013120138
0.58426966 	0.0042732867 	-0.00073278692 	4.8309155e-07 	0.0039836547 	-9.9024832e-07 	0.0022504959
0.59550562 	0.0040150288 	-0.00060369121 	1.44368e-07 	0.0036914103 	-3.0488431e-07 	0.003469596
0.60674157 	0.0038058739 	-0.00047862837 	2.6573291e-07 	0.0034428162 	-5.6118942e-07 	0.0028226351
0.61797753 	0.0036444749 	-0.00035770948 	7.8466594e-07 	0.0032373453 	-1.7181404e-06 	0.00087028393
0.62921348 	0.0035200429 	-0.00024298972 	6.6249368e-07 	0.0030797597 	-1.5075787e-06 	0.0012436568
0.64044944 	0.0034238282 	-0.00013323218 	3.0680727e-08 	0.0029604431 	-4.1830027e-08 	0.0034119986
0.65168539 	0.003382776 	-2.5388104e-05 	6.8545638e-07 	0.0028785994 	-1.6159689e-06 	0.0010137553
0.66292135 	0.003361 	7.7470498e-05 	5.0831786e-07 	0.0028316505 	-1.2314761e-06 	0.0015679044
0.6741573 	0.003364965 	0.00017705739 	2.6539871e-07 	0.0028144347 	-6.4296809e-07 	0.0023790035
0.68539326 	0.0034071911 	0.00027509662 	8.1608204e-07 	0.0028264898 	-2.0109795e-06 	0.00045094492
0.69662921 	0.0034501352 	0.00036816158 	3.9339531e-08 	0.0028632061 	-9.6939998e-08 	0.0032016698
0.70786517 	0.0035438908 	0.00046135364 	8.9861917e-07 	0.0029288165 	-2.2346096e-06 	7.7374611e-05
0.71910112 	0.00362358 	0.00054926137 	6.8289453e-09 	0.0030114082 	-1.7112326e-08 	0.003469823
0.73033708 	0.0037528124 	0.00063489961 	8.5724025e-07 	0.0031190548 	-2.1481172e-06 	9.2910222e-05
0.74157303 	0.0038704269 	0.00072120115 	1.5954843e-08 	0.0032457549 	-4.0485779e-08 	0.0036732126
0.75280899 	0.0040256697 	0.00080009221 	7.9200578e-07 	0.0033854954 	-2.0097328e-06 	0.00011580013
0.76404494 	0.0041803841 	0.00088456279 	6.1583127e-08 	0.0035544803 	-1.594519e-07 	0.003637433
0.7752809 	0.0043599527 	0.00096102518 	5.9329472e-07 	0.003727398 	-1.536167e-06 	0.0007961246
0.78651685 	0.0045442133 	0.0010405333 	2.0019497e-07 	0.0039259786 	-5.3300684e-07 	0.0029055153
0.79775281 	0.0047440014 	0.001116221 	3.0078705e-07 	0.0041327716 	-8.0082709e-07 	0.0023819295
0.80898876 	0.0049538228 	0.0011904116 	4.088456e-07 	0.0043504632 	-1.1267678e-06 	0.0012059315
0.82022472 	0.0051712505 	0.0012666326 	2.8255603e-08 	0.0045931831 	9.2327774e-08 	0.0047140661
0.83146067 	0.0054022498 	0.0013377708 	2.8405735e-07 	0.0048318047 	-8.1456581e-07 	0.002037785
0.84269663 	0.0056397592 	0.0014094224 	3.1979274e-07 	0.0050854292 	-9.5758626e-07 	0.0011096847
0.85393258 	0.0058848121 	0.0014824938 	7.7963923e-08 	0.0053602494 	-2.4427578e-07 	0.0040321144
0.86516854 	0.0061378547 	0.0015540289 	2.001315e-08 	0.005638987 	-6.2705e-08 	0.0051036659
0.87640449 	0.0063973598 	0.0016235881 	1.2834374e-07 	0.0059188111 	-4.2097528e-07 	0.0031876934
0.88764045 	0.006662178 	0.00169319 	1.7747165e-07 	0.0062078758 	-6.0846463e-07 	0.0016944072
0.8988764 	0.0069319788 	0.0017629302 	1.818971e-07 	0.0065063308 	-6.4986099e-07 	0.0008299678
0.91011236 	0.0072061107 	0.0018328874 	1.5382675e-07 	0.0068141684 	-5.7012202e-07 	0.00082407061
0.92134831 	0.0074837444 	0.0019031502 	1.0345694e-07 	0.00713099 	-3.9519715e-07 	0.0019301347
0.93258427 	0.0077634251 	0.0019734791 	3.9029083e-08 	0.0074564349 	-1.5263893e-07 	0.0044255432
0.94382022 	0.0080425706 	0.0020436379 	5.9643679e-08 	0.0077834452 	3.244977e-07 	0.0065575148
0.95505618 	0.008313883 	0.0021104316 	5.0430606e-08 	0.0080914786 	-2.2304325e-07 	0.0014435312
0.96629213 	0.0085621003 	0.0021666519 	1.0359746e-09 	0.0084029337 	-7.7929776e-09 	0.0065807028
0.97752809 	0.0087394747 	0.0022131168 	-1.9129307e-09 	0.0086353517 	-5.0640062e-08 	0.0052753555
0.98876404 	0.0084771256 	0.0021602727 	-1.3951083e-08 	0.0084339394 	-5.398947e-08 	0.0057377997
