0 	0.0041672703 	-2.8302686e-16 	-4.118462e-22 	1.033916e-18 	4.5141746e-20 	1.9709312e-21
0.010869565 	0.0042359941 	-0.0001894517 	6.3813501e-08 	0.0047478836 	-2.0382524e-05 	0.00088937142
0.02173913 	0.0044457571 	-0.0003724496 	2.4651271e-08 	0.0049638653 	-1.1116951e-05 	0.0012856945
0.032608696 	0.0047605643 	-0.0005512487 	1.0584581e-08 	0.0052861922 	-1.8892985e-06 	0.0017230405
0.043478261 	0.0051466871 	-0.00072282566 	1.1097015e-07 	0.0056790461 	-7.706414e-06 	0.0022518224
0.054347826 	0.0055724213 	-0.00088710909 	3.4397677e-07 	0.006104966 	-1.3488032e-06 	0.00053671151
0.065217391 	0.0060271273 	-0.001047113 	2.931569e-07 	0.0065593285 	-1.1740965e-06 	0.0016440765
0.076086957 	0.0064178506 	-0.0011782486 	5.160845e-07 	0.0069422227 	-2.0966433e-06 	0.0009737836
0.086956522 	0.0068005661 	-0.0013050973 	5.2960786e-09 	0.007320023 	-7.4752401e-08 	0.0046795311
0.097826087 	0.0071599179 	-0.0014209685 	1.8086738e-07 	0.0076637483 	-1.9076039e-06 	0.0054287785
0.10869565 	0.007480307 	-0.0015235282 	7.5645258e-07 	0.0079553672 	-3.0750149e-06 	0.0016347608
0.11956522 	0.0077505257 	-0.0016119195 	4.1258109e-07 	0.0082049434 	-1.6653665e-06 	0.0042001973
0.13043478 	0.0079813696 	-0.0016882375 	1.6855575e-07 	0.0084107498 	-6.8036831e-07 	0.00628332
0.14130435 	0.0081628484 	-0.001748178 	1.209598e-06 	0.0085495029 	-4.8548217e-06 	0.00036725069
0.15217391 	0.0083075638 	-0.001799884 	2.3788752e-08 	0.0086762416 	-9.5611093e-08 	0.0081840595
0.16304348 	0.0083939316 	-0.0018305944 	1.0764004e-06 	0.0087162466 	-4.3262387e-06 	0.0017650649
0.17391304 	0.0084553685 	-0.0018558982 	2.4609729e-07 	0.0087532169 	-1.0041336e-06 	0.0068148896
0.18478261 	0.0084657061 	-0.0018626017 	8.1137725e-07 	0.0087218285 	-3.3106059e-06 	0.0024171207
0.19565217 	0.0084572594 	-0.0018648717 	1.3212202e-07 	0.0086888872 	-5.5825025e-07 	0.0067469803
0.20652174 	0.0084024764 	-0.0018490362 	7.0656596e-07 	0.008594421 	-2.9854268e-06 	0.0018225649
0.2173913 	0.0083401292 	-0.0018326609 	4.8903501e-07 	0.0085121579 	-2.244115e-06 	0.006977236
0.22826087 	0.0082350835 	-0.0017975432 	7.2131159e-07 	0.0083684234 	-3.2242829e-06 	0.00023662775
0.23913043 	0.0081323543 	-0.0017660556 	8.3535678e-07 	0.0082513427 	-3.5890605e-06 	0.0061536462
0.25 	0.00799855 	-0.0017196272 	3.49119e-07 	0.0080886984 	-1.6699996e-06 	0.0024153046
0.26086957 	0.0078632615 	-0.0016735554 	1.2902201e-07 	0.0079359383 	-6.1717268e-07 	0.0041330297
0.27173913 	0.0077171467 	-0.0016223034 	3.7662277e-07 	0.0077729611 	-1.5349591e-06 	0.0051096314
0.2826087 	0.0075568287 	-0.0015633572 	3.8838374e-07 	0.0075885937 	-1.9624618e-06 	0.00070581157
0.29347826 	0.0074034846 	-0.0015083031 	1.6931718e-06 	0.0074267048 	-6.6295476e-06 	0.0043925628
0.30434783 	0.0072403119 	-0.001447709 	7.5928019e-08 	0.0072479684 	-3.8874469e-07 	0.0033741073
0.31521739 	0.0070753239 	-0.0013851277 	1.8219952e-07 	0.0070682614 	-9.3284531e-07 	0.0019055619
0.32608696 	0.0069138375 	-0.0013239078 	3.1885932e-06 	0.006898347 	-1.211004e-05 	0.0035675882
0.33695652 	0.0067485732 	-0.0012602002 	8.0816397e-08 	0.006720478 	-3.9648354e-07 	0.0025720261
0.34782609 	0.0065860703 	-0.0011960786 	1.114974e-07 	0.0065472587 	-5.4700392e-07 	0.0019463942
0.35869565 	0.0064277416 	-0.0011329282 	3.4815283e-06 	0.0063812089 	-1.2855873e-05 	0.0028739221
0.36956522 	0.0062683444 	-0.0010689518 	5.8907044e-08 	0.0062122332 	-2.1751984e-07 	0.0027419419
0.38043478 	0.0061126011 	-0.0010037687 	1.4030603e-07 	0.006045357 	-6.2770994e-07 	0.0011819371
0.39130435 	0.005965428 	-0.00094071019 	2.7809081e-06 	0.0058917708 	-9.8855251e-06 	0.002302359
0.40217391 	0.0058181359 	-0.00087676566 	1.578026e-06 	0.0057357265 	-5.6095401e-06 	0.0022000467
0.41304348 	0.0056728347 	-0.0008113885 	2.2595434e-07 	0.0055784481 	-8.9169934e-07 	0.00012353136
0.42391304 	0.005542009 	-0.00074921048 	1.310113e-06 	0.0054428723 	-4.3737485e-06 	0.0018418761
0.43478261 	0.0054142958 	-0.00068568583 	3.6286532e-06 	0.0053066679 	-1.2114082e-05 	0.0017647725
0.44565217 	0.0052865826 	-0.00062216117 	3.2000622e-07 	0.0051704635 	-1.0683252e-06 	0.0016876688
0.45652174 	0.0051698736 	-0.00055851052 	7.4531775e-08 	0.0050445599 	-2.5439981e-07 	0.00091942287
0.4673913 	0.00506817 	-0.00049668131 	2.6684507e-06 	0.0049357958 	-8.0756899e-06 	0.0014248741
0.47826087 	0.0049686574 	-0.00043456348 	3.0266545e-06 	0.0048280376 	-9.1597433e-06 	0.0013683449
0.48913043 	0.0048691448 	-0.00037244565 	4.4115076e-08 	0.0047202794 	-1.3350806e-07 	0.0013118158
0.5 	0.0047845585 	-0.00030986678 	1.6401353e-09 	0.004627857 	-4.7877984e-09 	0.0011598285
0.51086957 	0.0047157759 	-0.00024803422 	3.0717018e-06 	0.0045512802 	-7.9491033e-06 	0.0011312514
0.52173913 	0.0046470682 	-0.00018620371 	2.6266402e-06 	0.0044747539 	-6.7973506e-06 	0.0010903685
0.5326087 	0.0045791852 	-0.0001244239 	1.2797434e-08 	0.0043988894 	-3.1866073e-08 	0.00094242521
0.54347826 	0.0045308378 	-6.1948598e-05 	6.1525513e-07 	0.0043437048 	-1.2619256e-06 	0.0009667731
0.55434783 	0.0044937557 	6.8609254e-07 	3.481279e-06 	0.0042997918 	-7.1403145e-06 	0.00093688146
0.56521739 	0.0044566736 	6.3320783e-05 	1.6834593e-06 	0.0042558787 	-3.4528771e-06 	0.00090698982
0.57608696 	0.0044262411 	0.0001251191 	9.4134645e-08 	0.004217407 	-2.0093556e-07 	1.3856454e-05
0.58695652 	0.0044163374 	0.00018810661 	1.7602717e-06 	0.0042039954 	-2.6297899e-06 	0.00083708009
0.59782609 	0.0044112965 	0.00025050475 	2.6372946e-06 	0.004194002 	-3.9400343e-06 	0.00081475279
0.60869565 	0.0044062556 	0.00031290289 	1.8982049e-07 	0.0041840086 	-2.8358577e-07 	0.00079242549
0.61956522 	0.0044215603 	0.0003747087 	8.2483465e-07 	0.0041960959 	-7.6200279e-07 	0.00077720385
0.63043478 	0.0044468666 	0.00043651764 	2.9228688e-06 	0.0042188159 	-2.7002189e-06 	0.00076022369
0.64130435 	0.004472173 	0.00049832658 	6.243538e-07 	0.0042415359 	-5.7679358e-07 	0.00074324353
0.65217391 	0.0045116909 	0.00055942276 	4.969314e-07 	0.0042798762 	-1.7811157e-07 	0.00074683348
0.66304348 	0.0045648216 	0.00062019274 	2.6819786e-06 	0.0043328668 	-9.6128239e-07 	0.00073377117
0.67391304 	0.0046179522 	0.00068096271 	5.3154038e-07 	0.0043858574 	-1.9051621e-07 	0.00072070885
0.68478261 	0.0046848757 	0.00074066012 	6.3126873e-07 	0.0044540994 	1.2123523e-07 	0.00073819513
0.69565217 	0.0047625428 	0.00079979963 	2.0356504e-06 	0.0045339713 	3.9094688e-07 	0.00072808757
0.70652174 	0.00484021 	0.00085893915 	4.1650424e-08 	0.0046138431 	7.9989686e-09 	0.00071798
0.7173913 	0.0049344138 	0.00091596482 	1.0888333e-06 	0.0047122025 	7.9037845e-07 	0.00074535288
0.72826087 	0.0050324764 	0.00097267131 	1.1045948e-06 	0.0048147382 	8.0181967e-07 	0.00073755631
0.73913043 	0.0051342599 	0.0010284205 	4.1011501e-08 	0.004921623 	5.1184676e-08 	0.0007695741
0.75 	0.0052476151 	0.0010817341 	1.6473897e-06 	0.0050416947 	2.0560356e-06 	0.0007636029
0.76086957 	0.0053609703 	0.0011350477 	3.3502979e-08 	0.0051617664 	4.1813615e-08 	0.0007576317
0.77173913 	0.0054821464 	0.0011844776 	9.1431158e-07 	0.0052915865 	1.6182554e-06 	0.00079346785
0.7826087 	0.0056047169 	0.0012333418 	3.7511097e-07 	0.0054230902 	6.6391521e-07 	0.00078897513
0.79347826 	0.0057286952 	0.0012787285 	4.7395964e-07 	0.0055573136 	1.0970691e-06 	0.00082462488
0.80434783 	0.0058534659 	0.0013220348 	4.1236826e-07 	0.005693138 	9.545042e-07 	0.00082131106
0.81521739 	0.0059754302 	0.0013618098 	2.750932e-07 	0.0058271481 	8.1032076e-07 	0.00085466975
0.82608696 	0.0060944943 	0.0013984267 	2.6511858e-07 	0.0059592074 	7.8093931e-07 	0.00085228477
0.83695652 	0.0062056643 	0.0014305991 	1.7906901e-07 	0.0060842489 	7.0490009e-07 	0.0008813566
0.84782609 	0.0063103302 	0.0014594114 	7.3145427e-08 	0.0062035218 	2.8793491e-07 	0.00087968642
0.85869565 	0.0063977443 	0.0014816261 	2.9170866e-08 	0.006306364 	4.3626338e-07 	0.0009026574
0.86956522 	0.0064761264 	0.0015005279 	-6.7699814e-08 	0.0063987543 	-1.8998227e-07 	5.4148094e-05
0.88043478 	0.0065253167 	0.0015112485 	-1.7589841e-07 	0.0064660772 	-3.2729407e-07 	0.00091677894
0.89130435 	0.006554061 	0.0015165296 	-2.683189e-07 	0.0065109609 	-8.1228018e-07 	0.00092285022
0.90217391 	0.0065572112 	0.0015152118 	-3.1519296e-08 	0.0065295207 	-1.0567143e-07 	0.00058375899
0.91304348 	0.0065125927 	0.0015043804 	-4.5018808e-07 	0.0065007148 	-1.6943022e-06 	0.00091853964
0.92391304 	0.0064339271 	0.0014866749 	-8.2195982e-07 	0.0064352555 	-3.3400987e-06 	0.00090443699
0.93478261 	0.0063094908 	0.0014583593 	-4.9819664e-07 	0.0063219204 	-2.1547603e-06 	0.00088288807
0.94565217 	0.0061115175 	0.001417606 	-7.7197525e-07 	0.0061320733 	-3.7259637e-06 	0.00086094325
0.95652174 	0.0058583703 	0.0013694229 	-3.3670016e-08 	0.0058805376 	-1.5908844e-07 	0.0004133483
0.9673913 	0.0055169575 	0.0013097345 	-3.5687596e-07 	0.0055350053 	-2.0194084e-06 	0.00078322846
0.97826087 	0.0050610162 	0.0012349283 	-1.4256129e-08 	0.005066833 	-7.9938731e-08 	0.00040609118
0.98913043 	0.004136587 	0.0010549615 	-9.6009893e-09 	0.0041307917 	-4.1252021e-08 	0.00055476587
