0.47777778 	0.97530562 	-4.8407745e-05 	-4.9845277e-10
0.48888889 	1.1560951 	3.0738505e-05 	3.8155922e-08
0.5 	1.2223355 	5.5104381e-05 	9.1545653e-08
0.51111111 	1.262403 	8.0458597e-05 	1.1323506e-07
0.52222222 	1.2903748 	0.00010464857 	3.4426233e-08
0.53333333 	1.3115202 	0.00012991339 	2.3736654e-07
0.54444444 	1.3283793 	0.00015330767 	2.6400197e-07
0.55555556 	1.3419797 	0.00017496 	1.7242154e-07
0.56666667 	1.3530191 	0.00019450856 	1.4625454e-07
0.57777778 	1.3620039 	0.00021129102 	1.4847735e-07
0.58888889 	1.3693213 	0.00022526509 	1.5946534e-07
0.6 	1.3752799 	0.0002364661 	9.2619966e-08
0.61111111 	1.3801297 	0.00024513991 	1.4274403e-08
0.62222222 	1.3839975 	0.00025139271 	-1.2436963e-08
0.63333333 	1.3868203 	0.00025492145 	-1.8232297e-08
0.64444444 	1.3890313 	0.00025675151 	-7.4409039e-08
0.65555556 	1.3907304 	0.00025713382 	-1.9959012e-08
0.66666667 	1.3916446 	0.00025537894 	-1.2512384e-07
0.67777778 	1.3922045 	0.00025259704 	-1.0795251e-07
0.68888889 	1.3923036 	0.00024854325 	-6.7960022e-08
0.7 	1.3919006 	0.00024316218 	-2.4439127e-07
0.71111111 	1.3912608 	0.00023715261 	-1.6422014e-08
0.72222222 	1.3900382 	0.00022971725 	-3.4823397e-07
0.73333333 	1.3886938 	0.00022198062 	-7.1911544e-09
0.74444444 	1.3867311 	0.00021284523 	-3.9474664e-07
0.75555556 	1.3846654 	0.00020351196 	-2.3715948e-11
0.76666667 	1.3819198 	0.00019303435 	-4.373505e-07
0.77777778 	1.3790364 	0.00018239224 	-2.1830633e-08
0.78888889 	1.3754741 	0.00017120221 	-3.5408247e-07
0.8 	1.3716614 	0.00015993595 	-1.0196383e-07
0.81111111 	1.3672935 	0.00014848472 	-1.3139231e-07
0.82222222 	1.3623783 	0.00013707498 	-3.2897529e-07
0.83333333 	1.3570512 	0.00012570729 	-3.4230925e-08
0.84444444 	1.3509824 	0.0001144719 	-8.5799025e-08
0.85555556 	1.3441915 	0.00010351054 	-2.5286354e-07
0.86666667 	1.3366953 	9.2802062e-05 	-1.8013735e-07
0.87777778 	1.3283463 	8.2400394e-05 	-6.2346979e-08
0.88888889 	1.3189552 	7.2403009e-05 	-2.2992608e-09
0.9 	1.3082553 	6.2756543e-05 	-1.0491417e-08
0.91111111 	1.2959947 	5.3685928e-05 	-9.4351631e-09
0.92222222 	1.2817538 	4.4683176e-05 	-1.0780506e-10
0.93333333 	1.2648039 	3.6862176e-05 	-5.5812414e-08
0.94444444 	1.2442546 	2.8662047e-05 	-7.7541136e-08
0.95555556 	1.2186452 	2.348324e-05 	-1.3278945e-08
0.96666667 	1.184165 	1.3933543e-05 	-1.7803517e-08
0.97777778 	1.1295196 	9.0231846e-06 	-2.6001774e-09
0.98888889 	1.0121317 	9.4138716e-06 	3.8830232e-07
