0.4742268 	0.0045885674 	-0.0011877096 	1.2659107e-08 	0.0045868175 	-4.7262594e-08 	0.0012259725
0.48453608 	0.0091664178 	-0.00234767 	2.0459563e-09 	0.0091447653 	-6.8890006e-09 	0.003126424
0.49484536 	0.0085750808 	-0.002216777 	9.3450744e-07 	0.0085430542 	-4.1426243e-06 	0.0032327496
0.50515464 	0.0077693198 	-0.0020367413 	-7.83938e-12 	0.0077265074 	5.780482e-11 	0.0029836139
0.51546392 	0.0070056347 	-0.0018601654 	5.3718345e-07 	0.0069551164 	-2.1446047e-06 	0.0025874513
0.5257732 	0.0062753276 	-0.0016754944 	2.1391638e-06 	0.0062194171 	-8.1373248e-06 	0.0023688092
0.53608247 	0.0056376821 	-0.0014964241 	8.5487703e-07 	0.0055799215 	-2.9452178e-06 	0.0021597004
0.54639175 	0.0051095873 	-0.0013249596 	1.9001093e-07 	0.005051941 	-5.7955654e-07 	0.0019691039
0.55670103 	0.0046908296 	-0.0011618891 	1.2097526e-07 	0.004635681 	-3.1668519e-07 	0.0018031697
0.56701031 	0.0043699786 	-0.0010078181 	5.8160969e-07 	0.0043187859 	-1.2734949e-06 	0.001665538
0.57731959 	0.0041300917 	-0.00086258503 	1.4870336e-06 	0.0040840503 	-2.6549503e-06 	0.001556937
0.58762887 	0.0039542761 	-0.00072559543 	2.1350465e-06 	0.0039140831 	-3.0273328e-06 	0.0014761554
0.59793814 	0.003828235 	-0.00059595999 	4.7593535e-07 	0.0037943264 	-5.1847159e-07 	0.0014208561
0.60824742 	0.0037466021 	-0.00047246224 	-1.2289829e-07 	0.0037167433 	-2.2526159e-08 	4.8874164e-05
0.6185567 	0.0036996456 	-0.00035817855 	7.4853962e-07 	0.0036789011 	-5.9680924e-07 	0.0013883289
0.62886598 	0.0036784165 	-0.00024828828 	1.4838963e-06 	0.0036641319 	-7.9789799e-07 	0.0013762536
0.63917526 	0.0036774632 	-0.00014198756 	-9.3694916e-08 	0.0036676053 	-1.1715475e-07 	0.00033530094
0.64948454 	0.0036957363 	-4.2627348e-05 	1.0733934e-06 	0.0036939563 	-3.3004456e-07 	0.0013823253
0.65979381 	0.0037266075 	5.4175773e-05 	4.8124254e-07 	0.0037307017 	-5.0276428e-08 	0.0014045855
0.67010309 	0.0037700862 	0.00014738011 	-1.1288875e-08 	0.0037795193 	-2.3714667e-08 	0.0012643252
0.68041237 	0.0038242083 	0.00023670612 	1.3103522e-06 	0.0038390796 	9.6192971e-08 	0.0014415479
0.69072165 	0.0038855033 	0.00032437562 	-5.6616792e-08 	0.0039037702 	-1.3868579e-07 	0.00065752389
0.70103093 	0.0039537966 	0.00040766184 	1.5660781e-06 	0.0039779389 	3.6019544e-07 	0.0014918085
0.71134021 	0.0040277682 	0.00049023186 	-5.3577596e-08 	0.0040543101 	-1.4729727e-07 	0.00062584302
0.72164948 	0.0041059608 	0.00056830414 	1.3279229e-06 	0.0041376489 	4.7537501e-07 	0.0015544231
0.73195876 	0.0041872502 	0.00064474957 	-2.0327118e-08 	0.0042212479 	-6.0691237e-08 	0.001147795
0.74226804 	0.0042748733 	0.00071982 	8.2847423e-07 	0.0043122653 	4.1001114e-07 	0.0016265576
0.75257732 	0.0043636426 	0.00079240756 	9.1103121e-08 	0.0044031717 	4.5086851e-08 	0.0016267309
0.7628866 	0.0044597063 	0.00086454125 	4.868893e-07 	0.0045009228 	3.1991679e-07 	0.0017026424
0.77319588 	0.0045580997 	0.00093514152 	1.4605329e-07 	0.0046004743 	9.5966167e-08 	0.0017028322
0.78350515 	0.0046628262 	0.0010045622 	5.2074228e-07 	0.0047059241 	4.3159126e-07 	0.0017796868
0.79381443 	0.0047702709 	0.0010725013 	-4.3268989e-09 	0.0048130241 	-1.1107761e-08 	0.0015137421
0.80412371 	0.0048859671 	0.0011397489 	8.5176254e-07 	0.0049289184 	8.8522954e-07 	0.0018579942
0.81443299 	0.005004913 	0.001204998 	-1.260968e-08 	0.0050438785 	-6.1634317e-09 	0.00022554407
0.82474227 	0.0051346021 	0.0012712541 	7.6257559e-07 	0.0051752973 	9.9060797e-07 	0.0019382041
0.83505155 	0.0052710913 	0.0013361353 	1.0389844e-07 	0.0053099582 	1.6764134e-07 	0.0020207633
0.84536082 	0.0054166615 	0.0013998567 	3.6472253e-09 	0.0054514857 	4.6273827e-08 	0.00129193
0.8556701 	0.0055765802 	0.0014641882 	6.640955e-07 	0.0056096763 	1.3165626e-06 	0.0021068268
0.86597938 	0.0057481162 	0.0015280167 	3.0301885e-07 	0.0057776242 	7.2725387e-07 	0.0021962783
0.87628866 	0.0059333221 	0.0015910618 	1.8043642e-08 	0.005955856 	1.6175155e-07 	0.00077905433
0.88659794 	0.0061373141 	0.0016554048 	1.0693694e-08 	0.0061566068 	9.3611111e-08 	0.0015511228
0.89690722 	0.0063612267 	0.0017201517 	1.8132866e-07 	0.0063771863 	6.0441557e-07 	0.0023870508
0.90721649 	0.0066052576 	0.0017849825 	3.5797903e-07 	0.006616516 	1.3674085e-06 	0.0024873742
0.91752577 	0.0068702606 	0.0018502275 	3.9389076e-07 	0.0068771309 	1.6906848e-06 	0.0025899932
0.92783505 	0.0071561031 	0.0019157233 	2.9644647e-07 	0.0071590793 	1.4094588e-06 	0.0026936358
0.93814433 	0.0074602722 	0.0019811597 	8.030482e-08 	0.007460242 	4.1099887e-07 	0.0027964626
0.94845361 	0.0077754679 	0.0020441212 	2.6048577e-08 	0.0077683647 	2.2925674e-07 	0.00047963568
0.95876289 	0.0080924316 	0.0021105144 	9.6966976e-08 	0.0080893827 	6.6388787e-07 	0.0030787278
0.96907216 	0.0083816591 	0.0021571028 	1.3632915e-08 	0.0083728134 	1.0403478e-07 	0.0010779759
0.97938144 	0.0085887683 	0.0021945152 	-3.133311e-09 	0.0085826321 	4.6607716e-08 	0.0032432526
0.98969072 	0.0082920451 	0.0021220581 	-3.1694572e-07 	0.0082804328 	-1.3253029e-06 	0.0031579604
