0.4742268 	0.7396921 	0.0003235824 	-4.9405573e-09
0.48453608 	1.1387693 	0.00014556522 	-5.3592747e-09
0.49484536 	1.224848 	0.00028856901 	6.1502663e-07
0.50515464 	1.2738011 	0.00044529252 	-5.7998371e-11
0.51546392 	1.3044535 	0.00058506652 	3.1960178e-07
0.5257732 	1.3271968 	0.0007299752 	1.2348192e-06
0.53608247 	1.3441888 	0.00085500655 	4.2972445e-07
0.54639175 	1.3569336 	0.00096402227 	8.4118922e-08
0.55670103 	1.3665232 	0.0010525428 	4.3428179e-08
0.56701031 	1.3737793 	0.001123481 	1.5947111e-07
0.57731959 	1.3793128 	0.0011781239 	2.7151793e-07
0.58762887 	1.3835669 	0.0012193003 	1.907922e-07
0.59793814 	1.3868554 	0.0012492459 	-3.205882e-09
0.60824742 	1.3893027 	0.0012683908 	-4.005093e-07
0.6185567 	1.3910461 	0.0012787577 	-7.892023e-08
0.62886598 	1.3922659 	0.0012814277 	-3.0869312e-07
0.63917526 	1.3930582 	0.001277763 	-3.0320504e-07
0.64948454 	1.3933784 	0.0012678318 	-3.3885375e-07
0.65979381 	1.3933801 	0.0012531163 	-2.0672702e-07
0.67010309 	1.3930209 	0.0012330037 	-3.6318714e-08
0.68041237 	1.3923094 	0.0012083624 	-7.204788e-07
0.69072165 	1.39134 	0.0011798013 	-1.822642e-07
0.70103093 	1.3900472 	0.0011478962 	-1.05816e-06
0.71134021 	1.3885091 	0.0011123763 	-1.7388517e-07
0.72164948 	1.3866849 	0.0010748028 	-1.0747668e-06
0.73195876 	1.384655 	0.0010345881 	-6.7403038e-08
0.74226804 	1.38228 	0.00099192184 	-7.7254339e-07
0.75257732 	1.3797208 	0.00094740037 	-8.495269e-08
0.7628866 	1.3767898 	0.00090101075 	-5.0219309e-07
0.77319588 	1.3736102 	0.00085246761 	-1.50644e-07
0.78350515 	1.370097 	0.00080358432 	-5.7950007e-07
0.79381443 	1.3663265 	0.00075315726 	-1.8785844e-08
0.80412371 	1.362152 	0.0007027626 	-9.9536978e-07
0.81443299 	1.3577391 	0.00065194225 	-7.6153064e-08
0.82474227 	1.3528175 	0.00060097116 	-9.1236474e-07
0.83505155 	1.3475853 	0.00055083951 	-1.24098e-07
0.84536082 	1.3418688 	0.00050102688 	-7.2983917e-09
0.8556701 	1.335554 	0.00045298121 	-7.7113236e-07
0.86597938 	1.3287148 	0.00040665911 	-3.3289851e-07
0.87628866 	1.3212079 	0.00036243197 	1.9017898e-08
0.88659794 	1.312796 	0.00032104586 	1.4882166e-08
0.89690722 	1.3033361 	0.00028331294 	-1.6460381e-07
0.90721649 	1.2926236 	0.00024942065 	-2.8464787e-07
0.91752577 	1.2803385 	0.00021953547 	-2.7486658e-07
0.92783505 	1.2660122 	0.00019329361 	-1.7697522e-07
0.93814433 	1.2489949 	0.0001705249 	-4.5776034e-08
0.94845361 	1.2281899 	0.00015020536 	3.9031463e-08
0.95876289 	1.2016847 	0.00012792836 	-9.234725e-08
0.96907216 	1.165599 	0.00010347225 	1.0721985e-08
0.97938144 	1.1095054 	7.2376416e-05 	-3.6082282e-08
0.98969072 	0.9874375 	4.5554517e-05 	1.556738e-07
