0.4742268 	0.0045382081 	-0.0011742058 	1.4961062e-08 	0.0045365036 	-5.5874695e-08 	0.0012141152
0.48453608 	0.009132393 	-0.0023380487 	5.3035853e-09 	0.0091125709 	-1.8286379e-08 	0.0031163765
0.49484536 	0.0085886688 	-0.0022164334 	7.7254974e-07 	0.008561784 	-3.3822119e-06 	0.0038606636
0.50515464 	0.0078374953 	-0.0020464709 	-3.4767521e-09 	0.0078005368 	2.5658563e-08 	0.0030058887
0.51546392 	0.0071206218 	-0.0018798731 	2.5008858e-07 	0.0070781385 	-9.9864491e-07 	0.0031403711
0.5257732 	0.0064224208 	-0.001704712 	1.7919723e-06 	0.0063750007 	-6.9108469e-06 	0.0028911998
0.53608247 	0.00579732 	-0.0015336083 	5.5160749e-07 	0.0057479915 	-1.9591576e-06 	0.0026478285
0.54639175 	0.0052634671 	-0.001368626 	-5.1886011e-09 	0.0052134625 	1.9008444e-08 	0.002286984
0.55670103 	0.0048251803 	-0.0012105376 	-9.894373e-09 	0.0047767456 	2.8571501e-08 	0.0020069084
0.56701031 	0.0044761606 	-0.00106016 	2.8853683e-07 	0.0044311055 	-6.9501539e-07 	0.0020390699
0.57731959 	0.0042058806 	-0.00091731814 	1.1929992e-06 	0.004164948 	-2.3970402e-06 	0.0018945779
0.58762887 	0.0039999063 	-0.00078177735 	1.8454818e-06 	0.0039637555 	-3.0150278e-06 	0.0017820184
0.59793814 	0.0038454015 	-0.0006528884 	1.9389556e-07 	0.0038144608 	-2.4987941e-07 	0.0017000076
0.60824742 	0.0037389214 	-0.00052948567 	-1.1966404e-07 	0.0037104582 	9.4647762e-11 	4.8634519e-05
0.6185567 	0.0036685455 	-0.00041500812 	4.8555947e-07 	0.0036486288 	-4.7321906e-07 	0.0016462127
0.62886598 	0.0036278085 	-0.00030452195 	1.2322756e-06 	0.0036132583 	-8.4807608e-07 	0.0016185231
0.63917526 	0.0036108349 	-0.00019730689 	-9.5483153e-08 	0.0035991556 	-1.109422e-07 	0.00032850017
0.64948454 	0.0036147499 	-9.6873875e-05 	8.3507911e-07 	0.0036105413 	-3.5588047e-07 	0.0016145804
0.65979381 	0.003634497 	1.2921478e-06 	2.2911827e-07 	0.003635113 	-4.2518188e-08 	0.001632563
0.67010309 	0.0036704168 	9.6205637e-05 	-2.6899341e-08 	0.0036748525 	-5.6835541e-08 	0.0012325503
0.68041237 	0.0037183377 	0.00018738686 	1.0941153e-06 	0.0037277913 	3.9391741e-08 	0.0016711119
0.69072165 	0.003776993 	0.00027728513 	-6.2753011e-08 	0.003788471 	-1.5683939e-07 	0.00063931026
0.70103093 	0.0038439467 	0.00036293098 	1.3758392e-06 	0.0038610425 	3.332541e-07 	0.0017291097
0.71134021 	0.0039199249 	0.00044822398 	-5.8978e-08 	0.0039382147 	-1.6587931e-07 	0.00060842135
0.72164948 	0.0040012221 	0.00052918667 	1.1482998e-06 	0.0040246441 	4.8885346e-07 	0.0018059404
0.73195876 	0.0040884955 	0.00060860715 	-2.9681413e-08 	0.0041131793 	-8.9635474e-08 	0.0011184899
0.74226804 	0.0041834453 	0.00068712819 	6.4970182e-07 	0.0042117877 	4.0204547e-07 	0.0018984462
0.75257732 	0.0042814634 	0.00076291511 	-5.747052e-09 	0.0043113206 	-1.7570205e-08 	0.0017269681
0.7628866 	0.004388752 	0.00083870663 	3.1761903e-07 	0.0044205435 	2.6420962e-07 	0.0019990657
0.77319588 	0.0044997617 	0.00091283041 	-1.5852858e-09 	0.0045325114 	-4.473057e-09 	0.0019349094
0.78350515 	0.0046187711 	0.00098586508 	3.8147754e-07 	0.004652464 	3.9964159e-07 	0.0021028776
0.79381443 	0.0047417917 	0.0010571722 	-1.0255522e-08 	0.0047745871 	-2.1677279e-08 	0.0015002283
0.80412371 	0.0048740387 	0.0011282306 	7.5809539e-07 	0.0049079766 	9.78666e-07 	0.0022093251
0.81443299 	0.0050104807 	0.0011967294 	-2.1042002e-08 	0.0050400223 	-8.2046723e-09 	0.00022496443
0.82474227 	0.005158515 	0.0012666835 	6.8260014e-07 	0.0051909349 	1.0713868e-06 	0.0023183948
0.83505155 	0.0053136983 	0.0013348264 	-2.0312816e-10 	0.0053447319 	9.233247e-10 	0.002390323
0.84536082 	0.0054782866 	0.0014015038 	-1.3809087e-09 	0.0055051689 	5.4891265e-08 	0.0013030354
0.8556701 	0.0056565158 	0.0014689654 	5.9573235e-07 	0.005683212 	1.3353395e-06 	0.0025447668
0.86597938 	0.005845687 	0.0015354637 	2.1759624e-07 	0.0058696686 	5.7171544e-07 	0.0026621722
0.87628866 	0.0060471129 	0.0016006537 	8.1824229e-09 	0.0060642095 	1.5639138e-07 	0.00079400268
0.88659794 	0.0062651775 	0.00166699 	7.036726e-09 	0.0062801692 	1.0939383e-07 	0.0015809185
0.89690722 	0.0064996562 	0.0017334409 	1.0286899e-07 	0.0065134465 	3.5526894e-07 	0.0029048371
0.90721649 	0.006750041 	0.0017992245 	2.8596412e-07 	0.0067604155 	1.1065927e-06 	0.0030282323
0.91752577 	0.007016168 	0.001864828 	3.2266173e-07 	0.0070234101 	1.3762783e-06 	0.0031515544
0.92783505 	0.0072969451 	0.001930034 	2.2714586e-07 	0.0073013716 	1.0558908e-06 	0.0032733406
0.93814433 	0.0075893082 	0.0019945108 	1.8967048e-08 	0.0075915683 	9.3547982e-08 	0.0033916798
0.94845361 	0.0078858537 	0.0020557836 	1.5716775e-08 	0.0078802606 	1.7694293e-07 	0.00048676506
0.95876289 	0.0081803659 	0.0021211082 	5.9858177e-08 	0.008179926 	3.8375334e-07 	0.0037066336
0.96907216 	0.008443147 	0.0021650729 	9.9468344e-09 	0.0084351628 	8.2279488e-08 	0.0010849415
0.97938144 	0.0086284828 	0.0022014722 	-2.4499311e-09 	0.008623742 	1.2444563e-08 	0.0038842898
0.98969072 	0.0083210125 	0.0021292088 	-2.2086115e-07 	0.0083103193 	-9.2815729e-07 	0.0037767038
