0.17894737 	0.0028197616 	-0.00041067464 	1.0283749e-08 	0.0018912219 	-7.2788095e-08 	0.0015757297
0.18947368 	0.004713916 	-0.00061177883 	3.5824468e-07 	0.0054479363 	2.0114103e-06 	0.0020935731
0.2 	0.0036887985 	-0.0004534268 	4.1367649e-07 	0.0059080257 	-1.3001743e-06 	0.0011343413
0.21052632 	0.0028789363 	-0.00032052278 	6.4908463e-07 	0.0049944708 	-6.7935381e-06 	0.00060027429
0.22105263 	0.0025538937 	-0.00030013009 	-1.9283768e-08 	0.0044769368 	-1.8619502e-06 	0.00027687366
0.23157895 	0.0024135539 	-0.00030998651 	-2.3731318e-07 	0.00420903 	-5.5183632e-06 	4.3082064e-05
0.24210526 	0.002325079 	-0.00032020293 	-1.1485172e-07 	0.0040403794 	-4.5138604e-06 	0.00021626927
0.25263158 	0.002255681 	-0.00032500128 	-1.7123324e-08 	0.0039163486 	-4.6777255e-06 	0.0004348573
0.26315789 	0.0022046307 	-0.00032655744 	1.6604374e-08 	0.0038325112 	-2.3636426e-06 	0.00063362948
0.27368421 	0.0021758013 	-0.00032545993 	6.6511033e-07 	0.0037893072 	7.6523677e-07 	0.0006042682
0.28421053 	0.0021659487 	-0.0003218806 	2.3505551e-06 	0.0037737671 	2.5155582e-06 	0.00024456242
0.29473684 	0.0021520997 	-0.00032244316 	2.4051935e-09 	0.0037902446 	-7.3311911e-08 	0.0012001335
0.30526316 	0.002141797 	-0.00031572826 	1.035653e-06 	0.0037897913 	9.9900486e-07 	0.0010414518
0.31578947 	0.0021391856 	-0.000304736 	4.5490552e-06 	0.0037793738 	3.8291873e-06 	0.00011722317
0.32631579 	0.0021181038 	-0.00030052128 	5.3575623e-07 	0.0038039305 	3.8552626e-07 	0.0014072707
0.33684211 	0.0021091547 	-0.0002860238 	2.5115699e-06 	0.0037878354 	1.8073073e-06 	0.00056463255
0.34736842 	0.0020887441 	-0.00027423072 	1.2169061e-06 	0.0037871753 	7.5959808e-07 	0.00085839486
0.35789474 	0.0020717796 	-0.00026064187 	5.6721414e-07 	0.0037856477 	3.5405754e-07 	0.00092108366
0.36842105 	0.0020556702 	-0.00024390725 	1.1156008e-06 	0.003775499 	6.2776616e-07 	0.00060345183
0.37894737 	0.0020402287 	-0.00022893579 	7.0462024e-08 	0.0037832862 	-5.8816231e-07 	0.00083397917
0.38947368 	0.0020274717 	-0.00021081734 	3.1170657e-07 	0.003782747 	1.6102023e-07 	0.00060620031
0.4 	0.0020196133 	-0.00019320589 	1.4497838e-07 	0.0037972227 	-8.9854836e-07 	0.0005906376
0.41052632 	0.0020113683 	-0.00017395555 	1.4605788e-07 	0.0038085908 	-9.0523886e-07 	0.00047714215
0.42105263 	0.002007535 	-0.00015427301 	1.348611e-07 	0.0038282164 	-6.2150375e-07 	0.00037325801
0.43157895 	0.0020040336 	-0.00013324822 	4.8419134e-07 	0.0038484401 	-2.2313828e-06 	0.00027247614
0.44210526 	0.0020018336 	-0.00011203181 	2.4009127e-08 	0.0038711144 	9.6823262e-09 	0.00016810757
0.45263158 	0.0020020024 	-8.8873948e-05 	8.9387459e-07 	0.0038980122 	-3.0903555e-06 	8.818234e-05
0.46315789 	0.0020022233 	-6.5698617e-05 	2.9063106e-07 	0.0039248093 	-1.0047867e-06 	1.5446531e-05
0.47368421 	0.0020042231 	-4.0588214e-05 	5.7008929e-07 	0.0039548811 	-1.4291843e-06 	0.00010312116
0.48421053 	0.0020075847 	-1.4183043e-05 	8.4462428e-07 	0.0039872348 	-2.1174293e-06 	0.00018460081
0.49473684 	0.0020128488 	1.168798e-05 	5.8855206e-07 	0.0040172601 	1.0766535e-07 	2.1124935e-05
0.50526316 	0.0020170291 	4.4248823e-05 	9.6394461e-07 	0.0040541887 	-1.6122698e-06 	0.00034212546
0.51578947 	0.0020235253 	7.7247302e-05 	6.7803475e-07 	0.0040909069 	-1.1340641e-06 	0.00040937682
0.52631579 	0.0020328054 	0.0001102618 	5.6565422e-07 	0.0041246255 	6.9372601e-08 	0.00021924154
0.53684211 	0.00204355 	0.00015144586 	1.2698094e-06 	0.0041577457 	-1.7198887e-06 	0.00054775315
0.54736842 	0.0020570817 	0.00019388646 	7.000383e-07 	0.0041887979 	-9.4816432e-07 	0.00060064156
0.55789474 	0.0020744048 	0.00023700769 	8.6457244e-07 	0.0042177604 	1.9861093e-07 	0.00017487963
0.56842105 	0.0020930459 	0.00028277005 	1.0208605e-06 	0.0042435105 	-1.7926578e-06 	0.00072985161
0.57894737 	0.0021223717 	0.00032832981 	9.2176723e-07 	0.0042539525 	-1.6186474e-06 	0.00076829194
0.58947368 	0.0021615294 	0.00037176359 	9.3006391e-07 	0.0042514242 	6.0670808e-07 	0.00016789448
0.6 	0.0021962927 	0.00041518359 	4.0219758e-07 	0.0042598743 	-8.9282221e-07 	0.00091550688
0.61052632 	0.0022424279 	0.00045720675 	1.0592252e-06 	0.0042584066 	-2.3513313e-06 	0.00094020559
0.62105263 	0.0022930453 	0.00049760256 	4.9238504e-07 	0.0042530739 	5.0710953e-07 	0.00054086579
0.63157895 	0.0023448699 	0.00053592012 	3.4441947e-08 	0.0042546887 	-7.6101286e-08 	0.0010791871
0.64210526 	0.0024016924 	0.00057420987 	9.4542961e-07 	0.0042601681 	-2.0889762e-06 	0.0010902578
0.65263158 	0.0024616791 	0.00061111052 	3.865668e-07 	0.0042633291 	4.7170537e-07 	0.00067125026
0.66315789 	0.0025230336 	0.00064528275 	3.9588172e-08 	0.0042744771 	-8.1805166e-08 	0.0012014089
0.67368421 	0.0025868201 	0.00068004248 	6.4425262e-07 	0.0042903112 	-1.3312863e-06 	0.0011995489
0.68421053 	0.0026548556 	0.00071294274 	5.5671681e-07 	0.0043027449 	7.8523345e-07 	0.00040328662
0.69473684 	0.0027220018 	0.00074431823 	2.5001986e-07 	0.0043273516 	-4.6866947e-07 	0.0012786806
0.70526316 	0.0027913622 	0.00077631353 	2.6219336e-07 	0.0043523961 	-4.9148906e-07 	0.0012648965
0.71578947 	0.0028656991 	0.00080551979 	4.2564851e-07 	0.0043748745 	6.9506588e-07 	0.00049348684
0.72631579 	0.0029382259 	0.00083485525 	5.5213038e-07 	0.0044091529 	-9.5493407e-07 	0.0013102967
0.73684211 	0.0030135735 	0.00086346966 	2.225201e-07 	0.0044390519 	4.2045954e-07 	0.00075123619
0.74736842 	0.0030904204 	0.00088975689 	1.912789e-07 	0.0044752166 	-3.2892963e-07 	0.0013312605
0.75789474 	0.0031672477 	0.00091650513 	9.2190097e-08 	0.0045119432 	-1.5853319e-07 	0.0012971167
0.76842105 	0.0032461906 	0.00094028708 	2.7582514e-08 	0.0045479366 	-5.4874945e-08 	0.0013263277
0.77894737 	0.0033239645 	0.00096411673 	1.637138e-07 	0.0045865185 	-3.2570584e-07 	0.0012838515
0.78947368 	0.0034024367 	0.00098559088 	3.2078862e-08 	0.0046227095 	7.9834712e-08 	0.0011579493
0.8 	0.0034788197 	0.001006294 	1.3006562e-07 	0.0046605719 	-3.7975075e-07 	0.0012457052
0.81052632 	0.0035546892 	0.0010248321 	2.3027742e-09 	0.0046950337 	-1.4079356e-08 	0.0012393531
0.82105263 	0.003627303 	0.0010421981 	5.5740588e-08 	0.0047283085 	-3.4080267e-07 	0.0011837247
0.83157895 	0.0036976064 	0.0010571481 	6.6483802e-09 	0.0047567482 	-2.7273474e-07 	0.0011605557
0.84210526 	0.0037642796 	0.0010710916 	3.014122e-09 	0.0047829177 	-1.2364753e-07 	0.0011000544
0.85263158 	0.003825785 	0.0010819664 	-5.5659255e-08 	0.0048006527 	-8.9272275e-07 	0.0010619851
0.86315789 	0.0038841879 	0.0010916894 	5.4433775e-08 	0.0048128372 	2.1867763e-07 	0.000316397
0.87368421 	0.003934865 	0.0010991344 	-7.6115509e-08 	0.0048191439 	-7.0165e-07 	0.00094713523
0.88421053 	0.0039807718 	0.0011046213 	-1.4398997e-07 	0.0048147642 	-1.1226842e-06 	0.00088916859
0.89473684 	0.0040218346 	0.0011087025 	5.6605652e-09 	0.0048023372 	2.5167406e-08 	0.00071354611
0.90526316 	0.0040556408 	0.0011112074 	-5.0715871e-08 	0.0047783996 	-3.8879218e-07 	0.00075416893
0.91578947 	0.0040846688 	0.0011125485 	-1.8757109e-07 	0.0047417332 	-1.5075513e-06 	0.00068465569
0.92631579 	0.0041100881 	0.0011137587 	-2.1934197e-07 	0.0046950926 	-2.0890054e-06 	0.0006125293
0.93684211 	0.0041328947 	0.001114779 	-1.7914845e-07 	0.0046401536 	-1.4712624e-06 	0.00053917404
0.94736842 	0.0041564677 	0.0011133778 	-1.4256003e-07 	0.004577697 	-1.3303776e-06 	0.0004656814
0.95789474 	0.0041898823 	0.0011159766 	-1.3608062e-08 	0.0045124319 	-2.0358438e-07 	0.00039284852
0.96842105 	0.0042417165 	0.0011207505 	-3.5079038e-08 	0.0044627869 	-4.5606075e-07 	0.00032087675
0.97894737 	0.0042950744 	0.0011198715 	-3.3655757e-08 	0.0044152732 	-1.744446e-07 	0.00024800051
0.98947368 	0.0039614042 	0.0010324561 	-1.6060886e-06 	0.0039898821 	-6.7957728e-06 	0.00016149173
