0.47777778 	0.0083624434 	-0.0021663586 	1.7025479e-09 	0.0083451959 	-6.5364207e-09 	0.00068291193
0.48888889 	0.0088266038 	-0.002259853 	2.7020698e-07 	0.008811942 	-1.1219378e-06 	0.0020321343
0.5 	0.0082922619 	-0.0021341684 	5.2998445e-07 	0.0082765013 	-2.1575826e-06 	0.0019149298
0.51111111 	0.007690851 	-0.0019946873 	1.0217835e-06 	0.0076750238 	-4.1877848e-06 	0.0017832306
0.52222222 	0.0071013787 	-0.0018448257 	-6.450669e-11 	0.0070842904 	4.6559221e-10 	0.0015307053
0.53333333 	0.0065349982 	-0.0016983276 	1.8441377e-06 	0.0065182112 	-6.9529988e-06 	0.0014885309
0.54444444 	0.0060039233 	-0.0015538873 	1.9745212e-06 	0.0059872293 	-7.1816217e-06 	0.0013854848
0.55555556 	0.005514926 	-0.0014123704 	1.3641753e-06 	0.0054986984 	-4.7141369e-06 	0.0012827703
0.56666667 	0.0050732726 	-0.0012740141 	1.2528217e-06 	0.0050577352 	-4.0549034e-06 	0.0011824517
0.57777778 	0.0046822471 	-0.001138994 	1.6198329e-06 	0.0046676945 	-4.817562e-06 	0.0010868041
0.58888889 	0.0043428264 	-0.0010074385 	2.4319067e-06 	0.0043294433 	-6.4971087e-06 	0.0009983541
0.6 	0.0040534691 	-0.00087939766 	2.2056922e-06 	0.0040413963 	-5.1483769e-06 	0.00091963634
0.61111111 	0.0038105672 	-0.00075480135 	6.787858e-07 	0.0037998824 	-1.3366074e-06 	0.00085300355
0.62222222 	0.0036150001 	-0.00063343034 	-6.3864841e-09 	0.0036047707 	3.2672188e-09 	0.00028745056
0.63333333 	0.003470506 	-0.00051743189 	1.6139375e-06 	0.0034627197 	-2.5561263e-06 	0.00080015578
0.64444444 	0.0033614345 	-0.00040411271 	1.9213711e-06 	0.0033549825 	-2.2749985e-06 	0.00076319756
0.65555556 	0.0032832456 	-0.00029296442 	-8.0382211e-09 	0.0032769553 	-9.6981201e-09 	0.00014156158
0.66666667 	0.0032478902 	-0.00018699673 	1.8837929e-06 	0.0032439386 	-1.4586217e-06 	0.0007427219
0.67777778 	0.0032353088 	-8.2445342e-05 	1.0029461e-06 	0.0032324569 	-3.5917099e-07 	0.00073968607
0.68888889 	0.0032502831 	1.9750624e-05 	5.113975e-07 	0.0032484293 	-1.831396e-07 	0.00073971652
0.7 	0.003294156 	0.0001195766 	2.035407e-06 	0.0032931798 	1.2560175e-07 	0.0007547493
0.71111111 	0.0033526835 	0.00021847244 	-2.0397582e-09 	0.0033521924 	-6.8850584e-09 	0.00059447049
0.72222222 	0.0034401609 	0.00031381971 	2.4053255e-06 	0.0034406419 	1.1321509e-06 	0.00078879343
0.73333333 	0.0035362596 	0.00040821559 	-3.0582695e-09 	0.0035367938 	-1.2047918e-08 	0.00052865813
0.74444444 	0.0036593557 	0.00050117389 	2.3244285e-06 	0.0036608189 	2.0389431e-06 	0.00084103105
0.75555556 	0.003789142 	0.00059285636 	-3.4920013e-09 	0.0037902348 	-1.5373872e-08 	0.00050817729
0.76666667 	0.003945273 	0.00068478834 	2.3485721e-06 	0.0039471417 	2.9758583e-06 	0.00090592057
0.77777778 	0.0041077847 	0.00077523728 	-7.7139556e-09 	0.0041079749 	-3.68289e-08 	6.4025712e-05
0.78888889 	0.0042920571 	0.00086545153 	1.7436909e-06 	0.0042936948 	2.8134957e-06 	0.00097769016
0.8 	0.0044839344 	0.00095434501 	3.1425038e-07 	0.004485316 	6.0639331e-07 	0.0010530819
0.81111111 	0.0046903695 	0.001042003 	4.8136633e-07 	0.0046911951 	9.2886862e-07 	0.0010534744
0.82222222 	0.0049091228 	0.0011285977 	1.5390641e-06 	0.0049094019 	3.4152462e-06 	0.0011307472
0.83333333 	0.0051361266 	0.001214424 	-1.4315455e-10 	0.0051357256 	-7.7598851e-10 	0.0011812232
0.84444444 	0.005375548 	0.0012990925 	2.6714034e-07 	0.0053743069 	6.6357898e-07 	0.0012087867
0.85555556 	0.0056249432 	0.0013827782 	1.1801279e-06 	0.0056228703 	3.2173333e-06 	0.0012855874
0.86666667 	0.0058823228 	0.001465643 	8.1911552e-07 	0.0058793585 	2.4145108e-06 	0.0013607617
0.87777778 	0.0061478574 	0.0015476375 	2.0468727e-07 	0.0061439448 	6.4481897e-07 	0.0014337295
0.88888889 	0.0064209926 	0.0016283721 	-2.0358483e-09 	0.0064146693 	-1.1543314e-08 	0.00075449287
0.9 	0.006701635 	0.0017082574 	-3.2919283e-09 	0.0066929561 	-1.8712022e-08 	0.00012550205
0.91111111 	0.006989235 	0.0017875106 	-2.8704155e-09 	0.0069794368 	-1.6362944e-08 	0.00012577053
0.92222222 	0.0072830868 	0.0018661671 	-1.0677653e-09 	0.0072737847 	-6.1496849e-09 	0.0010142918
0.93333333 	0.0075813427 	0.001943513 	2.2318862e-07 	0.0075724699 	8.7196799e-07 	0.0017548543
0.94444444 	0.0078817639 	0.0020193116 	6.348336e-07 	0.0078715513 	2.6136187e-06 	0.0018092651
0.95555556 	0.0081802351 	0.0020944042 	2.7262104e-08 	0.0081695372 	1.0462355e-07 	0.0018597421
0.96666667 	0.0084555361 	0.0021565942 	2.1529331e-07 	0.0084435494 	1.1792899e-06 	0.0019399559
0.97777778 	0.0086819297 	0.0022101853 	1.1267771e-08 	0.0086694275 	5.9597471e-08 	0.0019953658
0.98888889 	0.0084959961 	0.0021707403 	-4.9520441e-07 	0.0084809517 	-2.0918878e-06 	0.001945675
