0.47777778 	0.97598703 	-0.00041225251 	-6.8843106e-06
0.48888889 	1.1562198 	-0.00044348646 	-4.0456625e-06
0.5 	1.2219495 	-0.00053603153 	-4.4775461e-06
0.51111111 	1.2616262 	-0.00059964691 	-3.7673323e-06
0.52222222 	1.2894849 	-0.00069955055 	-7.5532224e-06
0.53333333 	1.3107609 	-0.00068392686 	-2.9569276e-07
0.54444444 	1.3275472 	-0.00074230097 	-1.8067447e-06
0.55555556 	1.341117 	-0.00080534947 	-4.6938701e-06
0.56666667 	1.3522239 	-0.00084256838 	-5.4209121e-06
0.57777778 	1.3613489 	-0.00085938235 	-4.1600463e-06
0.58888889 	1.3688622 	-0.00085928796 	-1.1211682e-06
0.6 	1.3749816 	-0.00087536471 	-6.5851298e-07
0.61111111 	1.3798726 	-0.00093143323 	-6.5237578e-06
0.62222222 	1.3838229 	-0.00098415524 	-1.2876678e-05
0.63333333 	1.3869113 	-0.00093409458 	-4.4295794e-06
0.64444444 	1.3892816 	-0.00092473832 	-2.0924884e-06
0.65555556 	1.3909076 	-0.00098537349 	-1.1607448e-05
0.66666667 	1.3920749 	-0.00093099076 	-3.1877977e-06
0.67777778 	1.3926577 	-0.00094145455 	-5.3538055e-06
0.68888889 	1.3927657 	-0.00094818191 	-7.8047952e-06
0.7 	1.3925745 	-0.00090635035 	-1.814654e-06
0.71111111 	1.3917529 	-0.0009391235 	-9.7134757e-06
0.72222222 	1.3908459 	-0.00087645358 	-5.3701564e-07
0.73333333 	1.3892304 	-0.00090978219 	-9.4343144e-06
0.74444444 	1.3875538 	-0.00084504993 	-3.3255773e-07
0.75555556 	1.3852236 	-0.00087247042 	-8.9518646e-06
0.76666667 	1.3827105 	-0.0008049971 	1.0150046e-07
0.77777778 	1.3795872 	-0.00083056076 	-8.9920308e-06
0.78888889 	1.3762004 	-0.00076316957 	-9.3949113e-07
0.8 	1.3722389 	-0.00076062022 	-5.084458e-06
0.81111111 	1.3678569 	-0.00072948148 	-4.5478939e-06
0.82222222 	1.3630218 	-0.00067797348 	1.3959064e-08
0.83333333 	1.3574878 	-0.00067386022 	-5.2762986e-06
0.84444444 	1.3514003 	-0.00063505319 	-4.1956315e-06
0.85555556 	1.3446682 	-0.00058062813 	-3.7925142e-07
0.86666667 	1.3370852 	-0.00055007344 	-1.0903609e-06
0.87777778 	1.3285872 	-0.00052296167 	-3.1030675e-06
0.88888889 	1.3190684 	-0.00048957468 	-4.1598132e-06
0.9 	1.3082953 	-0.00045066075 	-4.384385e-06
0.91111111 	1.2959606 	-0.00040663308 	-3.9057816e-06
0.92222222 	1.281646 	-0.00035868556 	-2.8579274e-06
0.93333333 	1.2647621 	-0.00030588368 	-1.3800645e-06
0.94444444 	1.2443844 	-0.00025516372 	1.3004372e-07
0.95555556 	1.2183705 	-0.00021106995 	-1.3829811e-06
0.96666667 	1.1833813 	-0.0001582452 	-1.9423656e-08
0.97777778 	1.1291652 	-0.0001078184 	-3.992188e-07
0.98888889 	1.0124831 	-6.1366604e-05 	-1.3434817e-07
