0 	0.004170573 	-2.8324408e-16 	-1.0295173e-22 	1.9236496e-29 	6.9919572e-36 	2.5413914e-42
0.010869565 	0.0042570656 	-0.00021212805 	1.1254627e-08 	0.0048662842 	-3.1197107e-06 	0.0040905497
0.02173913 	0.0045254784 	-0.00042073565 	6.5002875e-09 	0.0051445322 	-2.2776424e-06 	0.0039334628
0.032608696 	0.0049274306 	-0.00062418969 	1.8689491e-07 	0.0055570449 	-7.4799042e-07 	0.0023818039
0.043478261 	0.0053996146 	-0.00081572707 	8.5295403e-08 	0.0060418962 	-4.4330913e-06 	0.0037684667
0.054347826 	0.0059177629 	-0.00099975566 	5.2439448e-07 	0.006562097 	-2.2634803e-06 	0.00040626456
0.065217391 	0.00644878 	-0.0011751636 	2.8034899e-07 	0.0070949269 	-1.2387169e-06 	0.0018709251
0.076086957 	0.0069021977 	-0.0013192747 	4.0433331e-07 	0.0075401416 	-1.812405e-06 	0.0008983648
0.086956522 	0.0073348738 	-0.0014560516 	3.3891648e-07 	0.0079621149 	-4.0291561e-06 	0.0029095472
0.097826087 	0.0077242667 	-0.0015780263 	1.12265e-06 	0.0083307521 	-1.0393449e-05 	0.0026147943
0.10869565 	0.0080722449 	-0.0016872931 	5.7605e-08 	0.0086523269 	-2.5682061e-07 	0.0019136805
0.11956522 	0.0083529894 	-0.0017768063 	6.7773445e-07 	0.0089012781 	-5.2012084e-06 	0.0017734766
0.13043478 	0.008579328 	-0.0018502589 	2.1688607e-06 	0.0090923851 	-1.4321785e-05 	0.0013616483
0.14130435 	0.0087710466 	-0.0019132781 	1.1387635e-07 	0.0092454063 	-5.0009624e-07 	0.00019663453
0.15217391 	0.0088815519 	-0.0019518847 	3.1977439e-06 	0.0093177258 	-1.8682598e-05 	0.00046119151
0.16304348 	0.0089712042 	-0.0019837462 	1.1310281e-06 	0.0093679652 	-5.9676235e-06 	1.8892769e-05
0.17391304 	0.0089999711 	-0.0019963967 	3.1230971e-06 	0.0093596778 	-1.6478342e-05 	0.00045559638
0.18478261 	0.009006881 	-0.0020017305 	1.2151075e-06 	0.0093302275 	-5.8880523e-06 	0.00087411564
0.19565217 	0.008965875 	-0.0019909074 	3.16606e-06 	0.0092553131 	-1.5341792e-05 	0.001273941
0.20652174 	0.0089090575 	-0.0019744976 	3.6830258e-07 	0.0091653492 	-1.6640912e-06 	0.001626667
0.2173913 	0.0088135446 	-0.0019441076 	3.8660565e-06 	0.0090407674 	-1.7467895e-05 	0.001984558
0.22826087 	0.008708511 	-0.0019099055 	2.1843374e-07 	0.0089044551 	-1.1087445e-06 	0.00040961247
0.23913043 	0.0085795132 	-0.0018669879 	4.2627041e-06 	0.0087537432 	-1.8228447e-05 	0.0025707002
0.25 	0.0084447189 	-0.0018214678 	4.8346137e-08 	0.0085947597 	-2.4544557e-07 	0.0024448482
0.26086957 	0.0082931953 	-0.0017694716 	1.3617664e-06 	0.0084229206 	-5.5935141e-06 	0.0030280512
0.27173913 	0.0081368448 	-0.0017150768 	1.9587422e-06 	0.0082478491 	-8.0456181e-06 	0.0032964229
0.2826087 	0.0079708719 	-0.0016570999 	2.9720224e-07 	0.008060206 	-1.4363377e-06 	0.00088455451
0.29347826 	0.0078071979 	-0.001599591 	2.9250162e-06 	0.00788436 	-1.1693624e-05 	0.0035855801
0.30434783 	0.0076388473 	-0.0015398502 	3.6607555e-08 	0.0077006269 	-1.5916303e-07 	0.0035143771
0.31521739 	0.0074640916 	-0.0014782354 	2.113258e-07 	0.0075093539 	-9.1880637e-07 	0.0021646307
0.32608696 	0.007295334 	-0.0014175863 	3.2586364e-06 	0.0073298794 	-1.2780868e-05 	0.0039450661
0.33695652 	0.0071216377 	-0.0013550054 	2.0489639e-07 	0.0071412692 	-7.6405472e-07 	0.0026696905
0.34782609 	0.0069484751 	-0.0012927802 	2.7125965e-07 	0.0069544338 	-1.0115221e-06 	0.0021934453
0.35869565 	0.0067826292 	-0.0012313885 	2.5621777e-06 	0.0067793188 	-9.8435607e-06 	0.0041281201
0.36956522 	0.006613483 	-0.0011681627 	2.1587219e-07 	0.0065962622 	-6.6767338e-07 	0.0029371935
0.38043478 	0.0064448057 	-0.0011049153 	4.7486972e-07 	0.0064125565 	-1.4687296e-06 	0.0013508675
0.39130435 	0.0062874032 	-0.0010437389 	1.0539842e-06 	0.0062474379 	-3.9061138e-06 	0.004163323
0.40217391 	0.0061310444 	-0.00098055376 	6.1934857e-08 	0.0060790662 	-1.5541455e-07 	0.0039394999
0.41304348 	0.0059718562 	-0.00091555945 	7.9600293e-07 	0.0059006913 	-1.9974283e-06 	5.8676441e-05
0.42391304 	0.0058276063 	-0.0008541104 	1.8490787e-07 	0.0057490708 	-4.6399353e-07 	0.0031715599
0.43478261 	0.0056884443 	-0.00079128517 	1.2594059e-06 	0.0055996453 	-4.3712787e-06 	0.0041739042
0.44565217 	0.0055530838 	-0.00072657321 	4.4636814e-07 	0.0054479871 	-8.9328547e-07 	0.0020671616
0.45652174 	0.0054233689 	-0.00066233302 	6.5260099e-07 	0.0053034894 	-1.3060049e-06 	0.0010334983
0.4673913 	0.0053014326 	-0.00060004043 	5.8637449e-08 	0.0051735743 	-1.1734704e-07 	0.0037531186
0.47826087 	0.0051915324 	-0.00053716344 	1.3714959e-07 	0.0050525546 	-4.2922296e-07 	0.0040773976
0.48913043 	0.0050926736 	-0.00047313486 	5.9361531e-07 	0.0049360176 	-9.3203498e-07 	0.00139716
0.5 	0.0049959508 	-0.00040854059 	6.0879245e-07 	0.0048262369 	-9.5586459e-07 	0.0012746735
0.51086957 	0.0049009027 	-0.00034343823 	3.0323383e-08 	0.0047229365 	-4.7610721e-08 	0.0037822796
0.52173913 	0.0048256101 	-0.00028000445 	9.1121834e-08 	0.0046358995 	-1.1082991e-07 	0.0035377175
0.5326087 	0.004764571 	-0.00021728235 	6.6241184e-07 	0.0045582921 	-8.0568002e-07 	0.00096077001
0.54347826 	0.004702288 	-0.00015118742 	5.0867481e-07 	0.0044854005 	-6.1869234e-07 	0.0016098067
0.55434783 	0.0046415731 	-8.351007e-05 	3.5666535e-07 	0.0044172505 	-7.5542679e-07 	0.0038462562
0.56521739 	0.0046060196 	-1.9700083e-05 	2.6976988e-07 	0.0043693954 	-2.5136145e-07 	0.0025770316
0.57608696 	0.0045790914 	4.3157383e-05 	8.0210059e-07 	0.0043276876 	-7.4736723e-07 	4.0074862e-05
0.58695652 	0.0045506703 	0.00011183232 	2.4280737e-07 	0.004294937 	-2.262388e-07 	0.0026844227
0.59782609 	0.0045332112 	0.00017820131 	2.7661798e-08 	0.004271126 	-1.9364407e-08 	0.0036985355
0.60869565 	0.0045388924 	0.00024063047 	5.3856929e-07 	0.0042642327 	-3.7702086e-07 	0.0009991878
0.61956522 	0.0045440673 	0.00030702498 	3.9171874e-07 	0.0042644119 	-2.7421938e-07 	0.0017966301
0.63043478 	0.0045531102 	0.00037461203 	4.2180123e-07 	0.0042718306 	-4.1810399e-07 	0.0038962217
0.64130435 	0.0045864092 	0.00043676699 	3.9027066e-07 	0.0042959094 	-1.9824465e-07 	0.0015119575
0.65217391 	0.0046222846 	0.00050158813 	4.021822e-07 	0.0043280985 	-2.0429532e-07 	0.0014819297
0.66304348 	0.0046607136 	0.00056900309 	4.3201633e-07 	0.0043690269 	-1.8716888e-07 	0.0040183298
0.67391304 	0.0047211978 	0.00063019471 	3.4343037e-07 	0.0044226113 	-1.1936026e-07 	0.0014788457
0.68478261 	0.0047847375 	0.00069443937 	3.0645668e-07 	0.0044862229 	-1.0650994e-07 	0.0018283361
0.69565217 	0.0048523724 	0.0007602964 	3.0244622e-08 	0.0045591955 	3.2004271e-09 	0.0041987785
0.70652174 	0.004938754 	0.00081938935 	3.6261339e-07 	0.004639335 	-7.9616703e-08 	0.00077234117
0.7173913 	0.005026992 	0.00088392964 	1.4182558e-07 	0.0047348258 	-3.1139735e-08 	0.0030074741
0.72826087 	0.0051241541 	0.00094514167 	1.0301547e-07 	0.0048354416 	-1.5079273e-08 	0.0030768468
0.73913043 	0.005230754 	0.0010034024 	2.715875e-07 	0.0049414863 	-3.9754632e-08 	0.00092778784
0.75 	0.0053406632 	0.0010664926 	2.226937e-07 	0.0050651294 	2.5039825e-07 	0.0046697628
0.76086957 	0.0054602566 	0.0011204666 	1.8615852e-07 	0.0051827014 	-4.0914495e-08 	0.00082597663
0.77173913 	0.0055840391 	0.0011799597 	4.3101267e-08 	0.0053213378 	-9.4729297e-09 	0.0039943641
0.7826087 	0.005711414 	0.001232424 	6.074083e-08 	0.0054534915 	-6.015579e-08 	0.002113005
0.79347826 	0.0058432236 	0.0012858562 	4.1196825e-08 	0.0055979335 	-4.0800027e-08 	0.0031840494
0.80434783 	0.0059751882 	0.0013353032 	-8.4976925e-09 	0.0057407512 	-9.9622074e-08 	0.0028826137
0.81521739 	0.0061086213 	0.0013825025 	-8.5301102e-09 	0.0058873683 	-1.0000212e-07 	0.0030139187
0.82608696 	0.0062386811 	0.0014260011 	-6.7817942e-08 	0.006031466 	-1.8940595e-07 	0.0029302867
0.83695652 	0.006366493 	0.0014666198 	-5.1264943e-08 	0.0061766612 	-1.4317576e-07 	0.0036961411
0.84782609 	0.006483724 	0.0015007693 	-1.7482985e-07 	0.0063070255 	-4.2583701e-07 	0.0020267339
0.85869565 	0.0065974461 	0.0015342215 	-1.9740615e-08 	0.0064466703 	-4.8082662e-08 	0.0054526165
0.86956522 	0.0066862668 	0.0015552942 	-3.8332173e-07 	0.0065428297 	-9.5840776e-07 	9.320556e-05
0.88043478 	0.006766268 	0.001576579 	-9.1801157e-08 	0.0066541201 	-2.468316e-07 	0.0049043307
0.89130435 	0.0068165809 	0.0015870657 	-1.821787e-07 	0.0067232644 	-4.8983543e-07 	0.0038553184
0.90217391 	0.0068338293 	0.0015879507 	-5.2424485e-07 	0.0067546938 	-1.5377615e-06 	0.00057854618
0.91304348 	0.0068193549 	0.0015832341 	-1.7897159e-07 	0.0067704808 	-5.7428574e-07 	0.0044075535
0.92391304 	0.0067583137 	0.0015694062 	-3.1226954e-08 	0.0067338206 	-1.0020135e-07 	0.0057675841
0.93478261 	0.0066328119 	0.0015360251 	-2.134504e-07 	0.0066227598 	-7.4380817e-07 	0.0040333639
0.94565217 	0.0064367726 	0.0014932843 	-3.2285298e-08 	0.0064472306 	-1.4464228e-07 	0.005802424
0.95652174 	0.0061645019 	0.0014359693 	-5.5432276e-07 	0.0061738471 	-2.3280017e-06 	0.00041107891
0.9673913 	0.0057821272 	0.0013636546 	-1.9720142e-07 	0.0057999634 	-9.2357843e-07 	0.003114724
0.97826087 	0.0052526198 	0.0012710125 	-3.1815742e-07 	0.0052577342 	-1.621795e-06 	0.00040639286
0.98913043 	0.0042104942 	0.0010696845 	-1.3627664e-07 	0.0042047142 	-6.6369015e-07 	0.00059274695
