0.4742268 	0.73410018 	0.00031753643 	-6.0027783e-09
0.48453608 	1.1318683 	0.0001080945 	-1.555806e-08
0.49484536 	1.2172812 	0.00021431822 	3.6085099e-07
0.50515464 	1.2658049 	0.00033066965 	-3.8270298e-08
0.51546392 	1.2965568 	0.00043310144 	5.5353089e-08
0.5257732 	1.3196726 	0.0005452274 	7.7741238e-07
0.53608247 	1.3372987 	0.00064252571 	1.7185854e-07
0.54639175 	1.3508056 	0.00073101485 	-4.3591537e-08
0.55670103 	1.3612316 	0.00080481634 	-5.9818791e-08
0.56701031 	1.3693323 	0.0008661933 	3.6966688e-08
0.57731959 	1.3756073 	0.00091458558 	1.8996399e-07
0.58762887 	1.3805195 	0.00095219375 	1.7982271e-07
0.59793814 	1.3843875 	0.00098055617 	1.4342098e-09
0.60824742 	1.3873112 	0.00099958418 	-3.9386643e-07
0.6185567 	1.3895172 	0.0010120184 	-1.8005576e-08
0.62886598 	1.391123 	0.0010177077 	-1.4452608e-07
0.63917526 	1.3922401 	0.0010178523 	-3.1993745e-07
0.64948454 	1.3928984 	0.0010137358 	-1.5076277e-07
0.65979381 	1.3931905 	0.0010054648 	-2.8774441e-08
0.67010309 	1.3930702 	0.00099259747 	-1.0965203e-07
0.68041237 	1.392632 	0.00097698631 	-3.6981353e-07
0.69072165 	1.391862 	0.00095758028 	-2.1975912e-07
0.70103093 	1.3908128 	0.00093639981 	-5.8887739e-07
0.71134021 	1.3894371 	0.00091160291 	-2.0948335e-07
0.72164948 	1.3878271 	0.00088591156 	-5.793939e-07
0.73195876 	1.385924 	0.00085739263 	-1.178692e-07
0.74226804 	1.3837292 	0.00082740842 	-3.4932169e-07
0.75257732 	1.3812848 	0.00079557435 	-3.7902444e-08
0.7628866 	1.3784899 	0.0007622384 	-1.5682814e-07
0.77319588 	1.3754106 	0.00072712406 	-2.1274994e-08
0.78350515 	1.3720005 	0.00069150205 	-2.3016369e-07
0.79381443 	1.3682929 	0.00065460336 	-5.7895321e-08
0.80412371 	1.3642019 	0.00061737885 	-5.6465147e-07
0.81443299 	1.3598226 	0.00057972341 	-1.263763e-07
0.82474227 	1.3549496 	0.0005416566 	-5.2797268e-07
0.83505155 	1.3497253 	0.00050403903 	-1.0008068e-08
0.84536082 	1.343989 	0.00046648858 	-4.3700354e-08
0.8556701 	1.337658 	0.0004297398 	-4.645463e-07
0.86597938 	1.3307633 	0.00039408228 	-1.3897413e-07
0.87628866 	1.3231548 	0.00035962577 	-3.4869537e-08
0.88659794 	1.3146346 	0.00032663971 	-1.5805912e-08
0.89690722 	1.3050721 	0.00029545254 	-4.5779193e-08
0.90721649 	1.2942276 	0.00026618403 	-1.7384394e-07
0.91752577 	1.2818171 	0.0002386918 	-1.9363407e-07
0.92783505 	1.2673934 	0.00021214216 	-1.2499489e-07
0.93814433 	1.250329 	0.00018678373 	-3.8325348e-10
0.94845361 	1.2295255 	0.00016141745 	-1.4552898e-08
0.95876289 	1.2031806 	0.00013256923 	-5.6172872e-08
0.96907216 	1.1673618 	0.00010237767 	-1.5272492e-08
0.97938144 	1.1116784 	6.7749413e-05 	-1.2726778e-08
0.98969072 	0.9900362 	3.8364756e-05 	8.6365548e-08
