15.3938 	0.557811 	4.2351647e-22 	2.5186971 	-0.0025302425 	4.5043282e-09
15.3946 	0.595694 	2.2327788e-18 	2.5042932 	-0.0017956336 	9.2885499e-09
15.3951 	0.631073 	2.6639186e-18 	2.4834387 	-0.0011041472 	4.7021678e-09
15.3955 	0.664112 	4.4371556e-18 	2.4571646 	-0.00044252321 	2.0946556e-10
