9.65315 	0.646835 	3.9568826e-17 	0.014171772 	8.2439582e-05 	7.6019041e-10 	0.014237953 	-1.7663653e-10 	0.014173667
9.65315 	0.664193 	2.7012172e-17 	0.014492936 	0.0010623412 	2.9806044e-10 	0.014467596 	-2.4995595e-11 	0.014426422
9.65315 	0.682786 	9.2269099e-17 	0.015169381 	0.0020025344 	1.138248e-09 	0.01486024 	6.606138e-11 	0.01490763
9.65315 	0.7027 	9.4285884e-17 	0.01614035 	0.002911679 	6.7252125e-10 	0.015404993 	1.4025697e-10 	0.015591128
9.65315 	0.72403 	6.177136e-17 	0.017369586 	0.0038025235 	9.5254507e-10 	0.016105919 	3.521059e-10 	0.016468295
9.65315 	0.746084 	7.6613918e-17 	0.018797925 	0.0046604626 	5.138721e-10 	0.016952297 	2.9189553e-10 	0.01751251
