15.6917 	0.558006 	-7.070184e-17 	0.014382445 	0.0014707564 	1.8524189e-08 	0.013748995 	-3.3222671e-09 	0.014078302
15.6924 	0.595872 	5.9715823e-19 	0.016036781 	0.0028692617 	9.8340805e-09 	0.014699329 	1.9407496e-09 	0.015249978
15.6929 	0.631236 	4.6920967e-17 	0.018250889 	0.0042165744 	4.5371523e-09 	0.016010909 	2.5212707e-09 	0.016849277
15.6932 	0.664261 	4.4165463e-17 	0.020847142 	0.0055284021 	2.1285382e-08 	0.017638331 	1.8627078e-08 	0.018771088
