16.1881 	0.55833 	3.6295362e-19 	0.014168174 	0.0015686438 	4.0293378e-09 	0.013501606 	-4.1277181e-10 	0.013841485
16.1887 	0.596169 	-7.1306939e-19 	0.015996381 	0.0030142037 	1.4932862e-08 	0.014567445 	4.2371829e-09 	0.015138594
16.1892 	0.631508 	2.6910237e-18 	0.018395264 	0.0043946278 	9.1158527e-09 	0.016023192 	6.1552061e-09 	0.016896232
16.1895 	0.664508 	6.5675229e-18 	0.021143184 	0.0057215289 	9.9288435e-13 	0.017794244 	5.892672e-13 	0.018986175
