15.8902 	0.558135 	2.8603244e-18 	2.5112922 	-0.0022739431 	1.4079603e-08
15.8909 	0.595991 	-8.9743141e-19 	2.4961102 	-0.001574126 	6.5973091e-09
15.8914 	0.631345 	7.5309832e-18 	2.4744272 	-0.00091214065 	1.8913345e-09
15.8918 	0.66436 	-4.3249502e-18 	2.4473635 	-0.00027942854 	1.3189919e-08
