8.95946 	0.646835 	-6.2550948e-17 	3.0956625 	0.0017278988 	-1.0498174e-11
8.95946 	0.664193 	3.2281908e-17 	3.0924237 	0.0016213395 	-2.3382899e-11
8.95946 	0.682786 	7.8743094e-18 	3.086182 	0.0014813773 	-2.8255551e-11
8.95946 	0.7027 	5.8954552e-18 	3.0769136 	0.0013112416 	-7.4262356e-12
8.95946 	0.72403 	4.5292969e-18 	3.0643741 	0.001114563 	-2.0781557e-11
8.95946 	0.746084 	6.3431121e-18 	3.0486159 	0.00090384272 	-6.1341199e-12
