16.3867 	0.558459 	6.1325185e-19 	0.014114029 	0.0016060076 	2.2741409e-08 	0.013432132 	-1.7941889e-09 	0.013766463
16.3873 	0.596288 	-3.8539999e-18 	0.016005828 	0.0030715582 	1.7586366e-08 	0.014539448 	5.9448824e-09 	0.015119187
16.3877 	0.631617 	-2.604944e-18 	0.018468129 	0.0044624956 	8.3509113e-10 	0.016046592 	5.9794505e-10 	0.016939452
