0.47777778 	0.0036355103 	-0.0016910573 	-7.8054724e-10 	0.0036372944 	1.3855719e-09 	0.00027906298
0.48888889 	0.005194387 	-0.0024263992 	-5.532767e-07 	0.0052415671 	1.2058427e-06 	0.00072128355
0.5 	0.0054262613 	-0.0025268429 	2.1568605e-07 	0.0054401767 	-5.7757452e-07 	0.00075732143
0.51111111 	0.0052748424 	-0.0024001491 	1.8207944e-06 	0.00520831 	-2.7875803e-06 	0.00073519991
0.52222222 	0.0049871661 	-0.0019871841 	7.3268259e-07 	0.00487222 	-6.7316781e-07 	0.00067245468
0.53333333 	0.0045943085 	-0.0015227359 	5.3657311e-06 	0.0044692723 	-6.2308361e-06 	0.00062767477
0.54444444 	0.0041383088 	-0.0011041992 	5.6579714e-06 	0.0040154961 	-7.1954207e-06 	0.00057411759
0.55555556 	0.0036363612 	-0.00071873105 	3.8251549e-06 	0.0035260216 	-5.6553788e-06 	0.00051263055
0.56666667 	0.0031152063 	-0.00038366885 	3.1649082e-06 	0.0030257486 	-5.3939983e-06 	0.00044264418
0.57777778 	0.0026360154 	-0.00011209764 	3.1627847e-06 	0.0025710941 	-6.0203818e-06 	0.00037122931
0.58888889 	0.0022486865 	9.3940298e-05 	3.3014857e-06 	0.0022072432 	-6.7497119e-06 	0.00030991095
0.6 	0.0019634645 	0.00024543823 	2.1155471e-06 	0.0019418062 	-4.3309297e-06 	0.00026415898
0.61111111 	0.0017701165 	0.00035819988 	6.1675819e-07 	0.0017638984 	-1.0378384e-06 	0.0002359443
0.62222222 	0.0016571037 	0.00044491376 	-3.4017551e-08 	0.0016620224 	8.146409e-09 	0.00013151321
0.63333333 	0.001614311 	0.0005134666 	9.0635427e-07 	0.0016269562 	-9.2742433e-07 	0.00022295713
0.64444444 	0.0016027477 	0.00057390199 	8.5914377e-07 	0.0016211656 	-2.7180347e-07 	0.00022142518
0.65555556 	0.0016145296 	0.0006279368 	-1.9323761e-08 	0.0016369676 	-3.2261088e-09 	7.1626237e-05
0.66666667 	0.0016507272 	0.00068078252 	8.4855989e-07 	0.001675811 	2.3368929e-07 	0.00022736671
0.67777778 	0.0016954961 	0.00073499393 	5.5263815e-07 	0.001721961 	3.4875247e-07 	0.000238454
0.68888889 	0.0017504925 	0.00078903556 	3.4790576e-07 	0.0017766991 	2.1955233e-07 	0.00023855835
0.7 	0.0018148835 	0.00083651069 	7.321113e-07 	0.0018392077 	9.0721877e-07 	0.00025398286
0.71111111 	0.0018834088 	0.00087935872 	4.9194646e-08 	0.0019050728 	6.0961094e-08 	0.00025410842
0.72222222 	0.0019609212 	0.00091534443 	6.8465461e-07 	0.0019797384 	1.4159987e-06 	0.00027375668
0.73333333 	0.0020399143 	0.0009516039 	1.4138359e-08 	0.0020560596 	2.9240872e-08 	0.00027390217
0.74444444 	0.0021303599 	0.00099338459 	8.7376268e-07 	0.0021449232 	1.8470397e-06 	0.00029760535
0.75555556 	0.0022223847 	0.0010359199 	1.0190011e-11 	0.0022355063 	2.2124836e-11 	0.00029750637
0.76666667 	0.0023318882 	0.0010867517 	1.1823476e-06 	0.0023445554 	2.5332884e-06 	0.00032482374
0.77777778 	0.0024452738 	0.0011393048 	1.6098285e-08 	0.0024571787 	3.5065868e-08 	3.8522732e-05
0.78888889 	0.0025848422 	0.001204572 	1.2672704e-06 	0.0025983798 	2.7371273e-06 	0.00035592515
0.8 	0.0027379314 	0.0012713272 	3.0392518e-07 	0.0027527109 	1.0966004e-06 	0.00039339124
0.81111111 	0.0029229927 	0.0013297191 	3.9164311e-07 	0.0029380624 	1.4130978e-06 	0.00039374457
0.82222222 	0.003142672 	0.0013743901 	5.5676518e-07 	0.0031561571 	4.7153375e-06 	0.00043978401
0.83333333 	0.0033861638 	0.0014160615 	7.9758162e-08 	0.0033968336 	6.0465775e-07 	0.00049222295
0.84444444 	0.003663271 	0.0014650386 	1.99912e-07 	0.0036702689 	1.5155607e-06 	0.00049274419
0.85555556 	0.003958756 	0.0015203403 	7.5340408e-07 	0.0039625608 	5.0581292e-06 	0.00054807661
0.86666667 	0.0042590652 	0.0015762506 	5.4913744e-07 	0.0042600493 	3.7106218e-06 	0.00060150147
0.87777778 	0.004553366 	0.0016324441 	2.0412513e-07 	0.0045519846 	1.2170651e-06 	0.00064898206
0.88888889 	0.0048271749 	0.0016894136 	3.2286456e-09 	0.0048238579 	1.5700725e-08 	0.0005715558
0.9 	0.0050705735 	0.0017459752 	1.4856338e-08 	0.0050654365 	7.3056364e-08 	9.5073645e-05
0.91111111 	0.005285469 	0.0018019799 	1.3424769e-08 	0.0052802922 	6.8994718e-08 	9.5465057e-05
0.92222222 	0.0054711435 	0.0018569654 	1.5164325e-10 	0.0054679364 	8.3608658e-10 	0.00076090605
0.93333333 	0.0056118032 	0.0019077137 	1.4091905e-07 	0.005609676 	2.0501691e-07 	0.00078440115
0.94444444 	0.0056908048 	0.0019525327 	2.5786266e-07 	0.0056895355 	-3.3686426e-07 	0.00079234265
0.95555556 	0.0056928174 	0.0019921705 	3.0773927e-08 	0.0056919868 	-1.701393e-07 	0.00079321496
0.96666667 	0.00557936 	0.0020126359 	-9.2976137e-08 	0.0055780197 	-1.9792435e-06 	0.00077690624
0.97777778 	0.0051654232 	0.0020101871 	-1.5969064e-07 	0.0051626504 	-1.9254492e-06 	0.00071098864
0.98888889 	0.0039970892 	0.0018269053 	-1.5625132e-06 	0.003992402 	-4.4575102e-06 	0.00054665322
