0 	0.0075513262 	-5.1284763e-16 	-1.8640654e-22 	3.483e-29 	1.2659783e-35 	4.601496e-42
0.010869565 	0.0076101768 	-0.00015199921 	3.838903e-08 	0.0082960162 	-2.8619517e-05 	0.0028169327
0.02173913 	0.0077390781 	-0.00030087864 	9.4299613e-09 	0.0084270865 	-2.014956e-05 	0.0033209263
0.032608696 	0.0078785313 	-0.00044888175 	4.327201e-09 	0.008563838 	-4.2434416e-06 	0.0038194305
0.043478261 	0.0080106055 	-0.00059477582 	3.0082946e-08 	0.0086879045 	-1.1951316e-05 	0.0043269788
0.054347826 	0.0081245604 	-0.00073857448 	1.9980469e-07 	0.008783488 	-7.4045186e-07 	0.0021066835
0.065217391 	0.0082188178 	-0.00088745163 	3.391105e-07 	0.0088555919 	-1.0648774e-06 	0.0012992067
0.076086957 	0.0082827588 	-0.0010109803 	3.367903e-07 	0.0089002789 	-8.802367e-07 	0.0023026536
0.086956522 	0.0083384459 	-0.0011374661 	3.5205315e-08 	0.0089382438 	-2.2538971e-06 	0.0061364199
0.097826087 	0.0083822937 	-0.0012600366 	4.171133e-08 	0.0089534065 	-9.136488e-08 	0.0061743905
0.10869565 	0.0084122522 	-0.0013759787 	7.7526557e-07 	0.0089409231 	-1.4487008e-06 	0.00077685679
0.11956522 	0.0084303298 	-0.001480919 	2.160453e-07 	0.0089358744 	-3.5003472e-07 	0.0057133201
0.13043478 	0.0084339386 	-0.0015793563 	2.8698808e-07 	0.0089033075 	-4.6497559e-07 	0.0055237826
0.14130435 	0.0084203834 	-0.0016676736 	9.4430371e-07 	0.0088440113 	-1.3488766e-06 	0.0015260805
0.15217391 	0.0083995969 	-0.0017473256 	6.025137e-08 	0.0087988697 	-8.1239876e-07 	0.0081735595
0.16304348 	0.0083501655 	-0.0018130924 	1.1890797e-06 	0.0086939719 	-1.5248971e-06 	0.00074264282
0.17391304 	0.0082988637 	-0.0018718876 	1.3977258e-07 	0.0086176326 	-1.6396108e-07 	0.0077352623
0.18478261 	0.0082138197 	-0.0019130869 	1.1093382e-06 	0.0084788434 	-1.3013161e-06 	0.0013760674
0.19565217 	0.0081293205 	-0.0019496542 	8.6126015e-08 	0.0083673657 	-9.3835326e-08 	0.0074646198
0.20652174 	0.0080039195 	-0.0019641329 	1.056066e-06 	0.0081889974 	-1.1505966e-06 	0.000839935
0.2173913 	0.0078852246 	-0.0019777188 	5.5079499e-07 	0.0080455312 	-3.1845549e-06 	0.0072361127
0.22826087 	0.0077151517 	-0.0019640037 	9.0308302e-07 	0.0078258066 	-9.1576486e-07 	0.00070446529
0.23913043 	0.0075559624 	-0.0019522824 	9.1652633e-08 	0.007642359 	-9.2939695e-08 	0.0058139719
0.25 	0.0073481339 	-0.0019147924 	3.9706511e-07 	0.0073972142 	-3.6213976e-07 	0.0030482181
0.26086957 	0.00713216 	-0.0018714353 	3.5002487e-07 	0.0071514812 	-3.1923712e-07 	0.0029848344
0.27173913 	0.0069024816 	-0.0018194252 	2.8829644e-07 	0.0068995136 	-1.1759547e-06 	0.0053960668
0.2826087 	0.0066197332 	-0.0017414494 	5.0844941e-07 	0.006583528 	-3.5848821e-07 	1.8096131e-05
0.29347826 	0.0063613462 	-0.0016725925 	6.9556823e-08 	0.0063128512 	-2.5185707e-07 	0.0045319572
0.30434783 	0.0060528868 	-0.0015787876 	5.8791075e-08 	0.0059864883 	-7.8190202e-09 	0.0034270219
0.31521739 	0.0057257179 	-0.0014756817 	1.8678067e-07 	0.0056421705 	-2.4841216e-08 	0.0010065154
0.32608696 	0.0054119139 	-0.0013766092 	2.1383929e-06 	0.0053227564 	-7.0987801e-06 	0.0035368156
0.33695652 	0.0050688408 	-0.00126219 	1.9702364e-08 	0.004971829 	5.7066404e-08 	0.0024303691
0.34782609 	0.004719388 	-0.0011435301 	4.2032572e-08 	0.004616792 	1.2174416e-07 	0.00095901341
0.35869565 	0.0043896289 	-0.0010306018 	2.6169641e-06 	0.0042887812 	-8.1270895e-06 	0.0026143579
0.36956522 	0.0040568389 	-0.00091237839 	-4.2551143e-09 	0.003956487 	3.295632e-08 	0.0021937617
0.38043478 	0.0037284192 	-0.00079234753 	-2.3296104e-08 	0.0036284108 	1.8043085e-07 	0.00041855209
0.39130435 	0.0034299365 	-0.00068221453 	1.4859127e-06 	0.0033361226 	-4.2678308e-06 	0.0018353186
0.40217391 	0.0031516541 	-0.00057316535 	1.2573176e-06 	0.0030619506 	-3.6112613e-06 	0.001791671
0.41304348 	0.0028919367 	-0.00046536282 	-3.1783199e-08 	0.0028040104 	1.0427668e-07 	0.0002934487
0.42391304 	0.0026566235 	-0.00036643409 	-4.1036967e-09 	0.0025745677 	1.3463713e-08 	0.0011287424
0.43478261 	0.0024659174 	-0.00027310484 	3.5060678e-06 	0.0023871016 	-8.5841241e-06 	0.0012411086
0.44565217 	0.0022861761 	-0.00018082286 	-1.8958352e-09 	0.0022096517 	1.2275978e-09 	0.0010230814
0.45652174 	0.0021461438 	-9.3837524e-05 	-8.7100323e-09 	0.0020696884 	5.6399504e-09 	0.00024469717
0.4673913 	0.0020297336 	-1.3121185e-05 	1.0824681e-06 	0.0019554355 	-1.7467486e-06 	0.00091982296
0.47826087 	0.0019484422 	6.6399299e-05 	2.3358496e-06 	0.0018737875 	-3.7692955e-06 	0.00090310941
0.48913043 	0.0018806218 	0.00014559049 	2.4314382e-09 	0.0018046597 	-9.619562e-09 	0.0006147664
0.5 	0.0018481392 	0.00022316059 	4.4275435e-09 	0.0017697791 	-1.7516806e-08 	0.00035039144
0.51086957 	0.0018347357 	0.00029855423 	1.5380268e-06 	0.0017550415 	-7.9848956e-07 	0.00079837788
0.52173913 	0.0018403493 	0.00037296828 	1.7845075e-06 	0.0017581595 	-9.2645368e-07 	0.00078639109
0.5326087 	0.0018596948 	0.00044673994 	5.3607405e-09 	0.0017742244 	-3.6490232e-09 	0.00044602339
0.54347826 	0.0019041534 	0.00052093198 	4.2138485e-09 	0.0018158748 	-2.8683409e-09 	0.00055028528
0.55434783 	0.0019656905 	0.00059318849 	1.987535e-06 	0.0018751264 	9.1688397e-07 	0.00082136596
0.56521739 	0.0020331526 	0.00066422838 	8.4153876e-07 	0.0019398717 	3.8821625e-07 	0.00081146132
0.57608696 	0.0021161916 	0.00073216743 	7.4920466e-09 	0.0020191729 	2.8575626e-08 	9.9173676e-05
0.58695652 	0.0022132633 	0.00080067536 	4.7012464e-07 	0.0021156064 	6.2557646e-07 	0.00092367513
0.59782609 	0.0023214889 	0.00086591621 	1.6421043e-06 	0.0022222074 	2.1850839e-06 	0.00091495832
0.60869565 	0.0024329826 	0.00093013423 	7.1169143e-10 	0.0023317104 	2.2869618e-08 	0.0006189576
0.61956522 	0.0025591328 	0.00099267265 	3.329937e-10 	0.0024575624 	1.0700479e-08 	0.00090194361
0.63043478 	0.0026954009 	0.0010531316 	1.7113715e-06 	0.0025939454 	3.7593279e-06 	0.0010529779
0.64130435 	0.0028325691 	0.0011131515 	-4.6489694e-11 	0.0027309815 	1.4923717e-09 	0.0010305267
0.65217391 	0.0029821842 	0.0011703851 	-1.052634e-09 	0.0028809318 	3.379074e-08 	0.00082583539
0.66304348 	0.0031419736 	0.0012267464 	1.2958276e-06 	0.0030427243 	4.1101369e-06 	0.0012095871
0.67391304 	0.0033033426 	0.0012822539 	-3.4387935e-10 	0.0032054244 	4.7961583e-09 	0.0011621361
0.68478261 	0.0034773369 	0.0013354211 	-1.4705946e-09 	0.0033816697 	2.0510695e-08 	0.0011857455
0.69565217 	0.0036642787 	0.0013863736 	9.4988061e-07 	0.0035718744 	4.4226088e-06 	0.0013818559
0.70652174 	0.0038544957 	0.0014356698 	-8.7299018e-09 	0.003764068 	8.0751382e-08 	0.00076811524
0.7173913 	0.0040616835 	0.001482856 	2.1293498e-07 	0.0039768184 	1.5458791e-06 	0.0015780434
0.72826087 	0.0042763513 	0.001527184 	3.4250971e-07 	0.0041959961 	2.486574e-06 	0.0015732167
0.73913043 	0.0044971537 	0.0015683989 	-2.2011385e-08 	0.0044199515 	1.3640491e-07 	0.00059037406
0.75 	0.0047237703 	0.0016068875 	4.0906023e-07 	0.0046545841 	5.0076284e-06 	0.0017795316
0.76086957 	0.0049448954 	0.0016418456 	-2.3291124e-08 	0.0048801254 	7.7312707e-08 	0.00096772404
0.77173913 	0.0051585125 	0.001672535 	6.913232e-08 	0.0051023548 	2.0351247e-06 	0.0019640971
0.7826087 	0.0053604062 	0.0017007374 	1.1872894e-08 	0.0053112391 	3.4951554e-07 	0.0019609645
0.79347826 	0.0055397058 	0.0017244583 	-1.8736268e-08 	0.005498497 	5.5691403e-07 	0.0021070921
0.80434783 	0.0057022451 	0.001744849 	-2.3813391e-08 	0.0056693292 	7.0782568e-07 	0.0021046937
0.81521739 	0.0058432776 	0.0017609492 	-4.0442842e-08 	0.0058195807 	1.7095217e-07 	0.0022101874
0.82608696 	0.0059633444 	0.0017720472 	-7.7233664e-08 	0.0059493012 	3.2646722e-07 	0.0022084115
0.83695652 	0.0060592773 	0.0017771871 	-1.5654277e-07 	0.0060555451 	3.7416376e-08 	0.0022780087
0.84782609 	0.0061325525 	0.0017768402 	-4.4337191e-09 	0.0061390663 	-5.0275064e-09 	0.0021930864
0.85869565 	0.0061688102 	0.0017678239 	-5.4840597e-07 	0.0061859269 	-7.5017553e-07 	0.002309077
0.86956522 	0.0061801383 	0.001753172 	-1.2185872e-07 	0.0062032127 	-1.843297e-07 	0.00016834136
0.88043478 	0.0061510925 	0.0017311729 	-6.1464672e-07 	0.0061878762 	-1.4122355e-06 	0.0023045481
0.89130435 	0.0060879726 	0.0017022519 	-2.9366165e-07 	0.0061332785 	-8.6007055e-07 	0.002267181
0.90217391 	0.005984376 	0.0016653094 	-9.2134546e-08 	0.0060338776 	-1.9240169e-07 	0.00070824908
0.91304348 	0.0058340443 	0.0016212624 	-5.9058104e-07 	0.0058915622 	-2.0460372e-06 	0.002198834
0.92391304 	0.0056458659 	0.0015716899 	-9.2606709e-07 	0.0057057087 	-3.4985747e-06 	0.0021049888
0.93478261 	0.005412147 	0.001512073 	-3.385951e-07 	0.0054712554 	-1.4443559e-06 	0.0020035922
0.94565217 	0.0050774265 	0.0014432985 	-8.2503215e-07 	0.0051314925 	-4.2712986e-06 	0.0019037744
0.95652174 	0.0046418999 	0.0013716184 	-5.3316902e-08 	0.0046839123 	-1.9264943e-07 	0.00046116993
0.9673913 	0.0040387327 	0.0012928603 	-2.0950357e-07 	0.004068624 	-1.5866044e-06 	0.0015393352
0.97826087 	0.0032073176 	0.001195344 	-1.800892e-08 	0.0032178878 	-1.0472415e-07 	0.00033780724
0.98913043 	0.0018268995 	0.000849444 	-1.0354453e-08 	0.0018257861 	-2.2723698e-08 	0.00019493771
