0.47777778 	0.83597955 	-0.00027873803 	5.5780355e-07
0.48888889 	1.0887635 	-0.0012357096 	6.15529e-07
0.5 	1.2439798 	-0.0019800392 	8.4485958e-07
0.51111111 	1.358222 	-0.0019216968 	8.4720274e-07
0.52222222 	1.4094969 	-0.0013896809 	1.9353441e-06
0.53333333 	1.441674 	-0.00074792532 	2.6165529e-07
0.54444444 	1.4630832 	-0.00016679768 	8.3050295e-08
0.55555556 	1.4759025 	0.00035463682 	1.3853866e-07
0.56666667 	1.482195 	0.0007685158 	5.1398386e-08
0.57777778 	1.4833961 	0.0010611771 	5.8512438e-08
0.58888889 	1.4809148 	0.0012214417 	1.4825807e-08
0.6 	1.4760055 	0.0012562196 	8.0389901e-08
0.61111111 	1.4705325 	0.0012244462 	6.5812614e-07
0.62222222 	1.4652642 	0.0011689523 	1.4097334e-06
0.63333333 	1.4604066 	0.0011108684 	4.838158e-07
0.64444444 	1.4557987 	0.0010467934 	3.6422885e-07
0.65555556 	1.4512265 	0.00098155559 	1.68523e-06
0.66666667 	1.446873 	0.00092754644 	3.4968906e-07
0.67777778 	1.4424056 	0.00087206179 	8.0606359e-07
0.68888889 	1.437753 	0.00082139922 	9.621315e-07
0.7 	1.4330349 	0.00077613515 	2.9836588e-07
0.71111111 	1.4270707 	0.00072879735 	1.177241e-06
0.72222222 	1.4210537 	0.0006877239 	1.1545122e-07
0.73333333 	1.4128231 	0.00064190209 	1.1348418e-06
0.74444444 	1.4042171 	0.00059969815 	8.4613374e-08
0.75555556 	1.3944284 	0.00055428488 	1.1145846e-06
0.76666667 	1.38394 	0.00051014171 	-4.1777655e-08
0.77777778 	1.374106 	0.00047195602 	1.2595675e-06
0.78888889 	1.3640221 	0.00043656993 	9.9402431e-08
0.8 	1.3553641 	0.00040279628 	7.5299044e-07
0.81111111 	1.3468645 	0.00037174858 	6.1716781e-07
0.82222222 	1.3386368 	0.00034395328 	3.599331e-08
0.83333333 	1.3300851 	0.00031931122 	7.9415729e-07
0.84444444 	1.3208313 	0.00029943267 	5.8667745e-07
0.85555556 	1.3107753 	0.00028481533 	4.4383835e-08
0.86666667 	1.2997633 	0.00027375683 	1.9732639e-07
0.87777778 	1.287611 	0.00026627453 	4.8514511e-07
0.88888889 	1.2741175 	0.00026155398 	6.3196524e-07
0.9 	1.2589698 	0.00025858494 	6.2783017e-07
0.91111111 	1.2418403 	0.00025557808 	5.4799643e-07
0.92222222 	1.222336 	0.00025005827 	4.068355e-07
0.93333333 	1.199904 	0.00023966284 	1.9735519e-07
0.94444444 	1.1736372 	0.00022202697 	-3.4529944e-08
0.95555556 	1.1412596 	0.00019533145 	1.4773418e-07
0.96666667 	1.0989111 	0.00015879965 	4.1311259e-09
0.97777778 	1.0355451 	0.00011170971 	3.2336319e-08
0.98888889 	0.89702783 	5.7118576e-05 	5.3033385e-09
