0.47826087 	0.43219051 	9.8734129e-05 	-1.4103074e-08
0.48913043 	0.97961796 	0.00061403546 	-1.3001367e-07
0.5 	1.3312913 	0.001293414 	9.8181328e-08
0.51086957 	1.4725228 	0.0016385283 	2.3760535e-07
0.52173913 	1.5049136 	0.0016116548 	-6.2608775e-07
0.5326087 	1.5069115 	0.0014756989 	-3.2504848e-07
0.54347826 	1.5032501 	0.0013203052 	-1.5426247e-06
0.55434783 	1.4988126 	0.0011659667 	-1.1641316e-06
0.56521739 	1.4940797 	0.0010156659 	-1.1404793e-06
0.57608696 	1.4891399 	0.00086890271 	-1.601299e-06
0.58695652 	1.484055 	0.00072854489 	-1.0518255e-06
0.59782609 	1.4788946 	0.00059393001 	-7.3983384e-08
0.60869565 	1.4736582 	0.00047204908 	-4.5717341e-07
0.61956522 	1.4686366 	0.00036740876 	-3.8518161e-08
0.63043478 	1.4637324 	0.00028664455 	-1.1196247e-06
0.64130435 	1.4588874 	0.0002361396 	1.2608753e-07
0.65217391 	1.4540718 	0.00019938865 	3.4645624e-07
0.66304348 	1.4490792 	0.0001907687 	-2.4667388e-07
0.67391304 	1.4436268 	0.00018022735 	1.275083e-06
0.68478261 	1.4378718 	0.00017891431 	-8.8227396e-08
0.69565217 	1.4313433 	0.00016561333 	6.0108515e-07
0.70652174 	1.4242494 	0.00015812763 	-3.7581391e-08
0.7173913 	1.4163692 	0.00013286441 	2.6626868e-07
0.72826087 	1.4078447 	0.00012534401 	-2.4276669e-08
0.73913043 	1.3981985 	0.00011542311 	1.7012419e-07
0.75 	1.3879429 	0.00011102123 	-2.6410792e-08
0.76086957 	1.3768064 	9.3068929e-05 	4.130089e-08
0.77173913 	1.3660969 	5.230356e-05 	-6.925682e-08
0.7826087 	1.3566148 	-3.360779e-05 	-5.8251881e-09
0.79347826 	1.3486363 	-0.0001251475 	-4.5277796e-08
0.80434783 	1.3419319 	-0.00022050118 	-9.3909939e-07
0.81521739 	1.3356621 	-0.00030825983 	-6.9240648e-08
0.82608696 	1.3292325 	-0.00038976365 	-2.9143576e-07
0.83695652 	1.3224274 	-0.00046010239 	-2.6055619e-07
0.84782609 	1.315271 	-0.00051774397 	2.558944e-08
0.85869565 	1.3075021 	-0.0005637063 	1.4214385e-08
0.86956522 	1.2990206 	-0.00059402488 	-1.6116251e-07
0.88043478 	1.2896821 	-0.00061009413 	4.8303752e-09
0.89130435 	1.2792004 	-0.00061030142 	5.1667758e-09
0.90217391 	1.2670774 	-0.00059141744 	4.9051315e-08
0.91304348 	1.2527161 	-0.00055151869 	6.192716e-08
0.92391304 	1.2352346 	-0.00048844641 	2.002862e-08
0.93478261 	1.2134225 	-0.00040274287 	4.4410239e-07
0.94565217 	1.1861358 	-0.00030277153 	3.3623986e-07
0.95652174 	1.1516086 	-0.00020090326 	1.191311e-07
0.9673913 	1.1054077 	-0.00010704454 	3.8628052e-08
0.97826087 	1.0363542 	-3.2777402e-05 	1.0454942e-07
0.98913043 	0.88716961 	1.1668911e-05 	3.7410921e-08
