0.4742268 	5.856706e-10 	-3.1784762e-15 	2.4070081e-17 	5.8490261e-10 	-1.7871847e-13 	1.827983e-10
0.48453608 	7.3936197e-10 	-1.7827218e-14 	-1.6501966e-17 	7.3832821e-10 	-5.9575163e-13 	1.9712232e-10
0.49484536 	2.4539025e-10 	-2.1925999e-19 	6.863477e-22 	2.451559e-10 	-1.6535963e-12 	1.2245374e-10
0.50515464 	6.3989541e-12 	-9.795997e-19 	6.4652597e-22 	6.3937177e-12 	1.3861858e-14 	3.6520498e-12
0.51546392 	6.0715922e-13 	-3.6074743e-19 	4.6265214e-22 	6.0648481e-13 	-3.1990163e-16 	2.5337455e-13
0.5257732 	4.8445239e-13 	3.1738356e-19 	1.7603058e-20 	4.8396491e-13 	1.5862245e-16 	2.2864056e-13
0.53608247 	2.1288032e-12 	3.8901385e-15 	2.5416088e-17 	2.1257058e-12 	1.0664544e-14 	2.3219143e-13
0.54639175 	9.6812596e-11 	1.5178762e-12 	-1.4566194e-15 	9.6817805e-11 	-8.1885045e-14 	5.5488819e-13
0.55670103 	2.2618152e-09 	2.6551567e-11 	-4.2411364e-14 	2.2606809e-09 	-2.4733848e-12 	2.2210862e-11
0.56701031 	1.9395529e-08 	1.4379816e-09 	4.3106429e-12 	1.952146e-08 	4.6964055e-11 	2.0075286e-09
0.57731959 	1.3580441e-07 	9.6908296e-09 	5.7802371e-11 	1.3668976e-07 	1.24017e-09 	4.174622e-08
0.58762887 	5.0136508e-07 	2.8345783e-08 	4.2983388e-10 	5.0395444e-07 	6.071531e-09 	2.3955647e-07
0.59793814 	1.2274226e-06 	8.6978045e-08 	3.4912681e-10 	1.2359435e-06 	2.4321315e-09 	7.2237437e-07
0.60824742 	3.4030345e-06 	4.1245189e-07 	1.3378623e-09 	3.4423139e-06 	1.4091717e-08 	7.4716873e-08
0.6185567 	8.2496067e-06 	1.3944283e-06 	4.7049346e-09 	8.3989272e-06 	2.2483517e-08 	2.7041657e-06
0.62886598 	1.6330894e-05 	3.2978235e-06 	1.0295961e-08 	1.6702514e-05 	2.9339137e-08 	9.6618503e-06
0.63917526 	1.660672e-05 	3.9069228e-06 	1.1563602e-08 	1.7043463e-05 	5.8017013e-08 	1.4632456e-06
0.64948454 	1.3419085e-05 	3.721767e-06 	-2.5422317e-09 	1.3857178e-05 	-2.5442895e-08 	7.1779796e-06
0.65979381 	9.202151e-06 	2.9405051e-06 	1.1029276e-09 	9.537654e-06 	-7.0705677e-10 	3.4687207e-06
0.67010309 	9.8726345e-06 	3.7925418e-06 	1.0218575e-08 	1.023197e-05 	2.1326555e-08 	2.6208239e-06
0.68041237 	1.9427438e-05 	9.1484491e-06 	1.6638418e-07 	1.9961354e-05 	2.9321219e-07 	7.2031556e-06
0.69072165 	5.4910821e-05 	2.9135883e-05 	1.6995995e-07 	5.5739539e-05 	3.2704057e-07 	2.8279878e-06
0.70103093 	0.00012709808 	6.861905e-05 	8.4641535e-07 	0.00012808539 	1.699764e-06 	5.8436494e-05
0.71134021 	0.00025566153 	0.00012909693 	3.8574826e-07 	0.00025525124 	8.4938718e-07 	2.0796495e-05
0.72164948 	0.00043437057 	0.00020834971 	1.3070851e-06 	0.00043170366 	2.8519465e-06 	0.00022559515
0.73195876 	0.00062911327 	0.00029656603 	2.8552645e-07 	0.00062311097 	6.4865843e-07 	0.00014001196
0.74226804 	0.00085267787 	0.00039732436 	8.8392355e-07 	0.0008435497 	1.9526409e-06 	0.00044227191
0.75257732 	0.001064056 	0.00049246818 	6.1892886e-08 	0.001053047 	1.3386779e-07 	0.0004026548
0.7628866 	0.0012596075 	0.00058386422 	4.080763e-07 	0.0012512334 	8.9744967e-07 	0.00062528996
0.77319588 	0.0014457524 	0.00067199752 	1.6422327e-08 	0.0014446778 	3.604874e-08 	0.00060551632
0.78350515 	0.0015997382 	0.00074706776 	4.0116302e-07 	0.0016145053 	9.390526e-07 	0.00076719228
0.79381443 	0.0017461882 	0.0008163452 	9.814082e-08 	0.001776077 	2.3607314e-07 	0.0005475055
0.80412371 	0.0018750304 	0.00086281361 	1.624264e-07 	0.0019189024 	1.5508914e-06 	0.00087735987
0.81443299 	0.0019991379 	0.00087052492 	2.3639511e-07 	0.0020457489 	5.3829842e-07 	8.9427149e-05
0.82474227 	0.0021220574 	0.00086598254 	-7.6368249e-08 	0.0021673167 	1.188207e-06 	0.00096740731
0.83505155 	0.0022391214 	0.00088931519 	4.3584013e-09 	0.0022794957 	7.4450132e-09 	0.0010298659
0.84536082 	0.0023589769 	0.00091967751 	1.1907475e-07 	0.0023915782 	1.7638483e-07 	0.00056147181
0.8556701 	0.0024850803 	0.00095287565 	2.9700124e-07 	0.0025105226 	1.1180312e-06 	0.0011242579
0.86597938 	0.0026227852 	0.00099316396 	1.578548e-07 	0.0026398548 	5.1824947e-07 	0.0012069317
0.87628866 	0.0027827545 	0.0010407286 	1.7063471e-07 	0.0027897939 	2.9399565e-07 	0.00037211045
0.88659794 	0.0029749579 	0.0010970132 	9.8911451e-08 	0.0029743809 	2.1152045e-07 	0.00074115859
0.89690722 	0.0032053839 	0.001161602 	1.1849936e-07 	0.0031980817 	4.3137622e-07 	0.0014201237
0.90721649 	0.0034706074 	0.0012338241 	3.8659102e-07 	0.0034558766 	1.4244826e-06 	0.0015495395
0.91752577 	0.0037536273 	0.0013144049 	5.0306813e-07 	0.003732101 	1.6988203e-06 	0.001681949
0.92783505 	0.0040270784 	0.0014040593 	4.0673716e-07 	0.00400021 	1.1236731e-06 	0.0018022876
0.93814433 	0.0042658684 	0.0015035956 	3.8442834e-08 	0.0042362322 	8.0028608e-08 	0.00190113
0.94845361 	0.0044579657 	0.0016108799 	1.2785472e-07 	0.0044259903 	3.8583686e-07 	0.0002747655
0.95876289 	0.0046062373 	0.0017240664 	1.6602587e-07 	0.0045818628 	1.2978565e-07 	0.0020838789
0.96907216 	0.0046669338 	0.0018100707 	5.4960774e-08 	0.0046461359 	2.0686682e-07 	0.00059563521
0.97938144 	0.0044650329 	0.0018643185 	1.0910919e-09 	0.0044546252 	-2.6655635e-07 	0.0020260408
0.98969072 	0.0035485367 	0.0016491555 	-6.1351129e-07 	0.0035442505 	-1.3454123e-06 	0.0016371763
