0.4742268 	0.00010193052 	-2.8319321e-05 	1.0236685e-07 	0.00010148252 	-4.1647501e-07 	8.8427364e-06
0.48453608 	6.7510911e-07 	-7.3495482e-09 	8.8942444e-12 	6.7376698e-07 	-8.1214285e-10 	2.802683e-09
0.49484536 	2.7415347e-11 	-1.6577614e-15 	5.5961071e-17 	2.7367592e-11 	-8.1427244e-13 	2.374939e-12
0.50515464 	3.7717483e-13 	-2.8321954e-18 	1.1018784e-23 	3.7674265e-13 	2.1493457e-19 	1.5047598e-13
0.51546392 	3.1266328e-13 	-3.0412741e-17 	6.7806459e-20 	3.1226484e-13 	6.9722237e-17 	1.0195775e-13
0.5257732 	5.5933641e-13 	6.5763822e-16 	2.3816408e-17 	5.5862063e-13 	8.3088366e-15 	9.6221638e-14
0.53608247 	3.3042578e-12 	1.2706203e-14 	7.8725517e-17 	3.3030952e-12 	1.2675855e-14 	1.2455201e-12
0.54639175 	2.0866055e-11 	1.3473387e-13 	1.6804192e-16 	2.0860552e-11 	2.4542008e-14 	4.1347498e-12
0.55670103 	6.8523726e-11 	7.4896267e-13 	5.9081589e-16 	6.8547103e-11 	4.3556232e-14 	1.0103347e-11
0.56701031 	5.6070506e-10 	1.4465343e-11 	7.5320564e-14 	5.6209894e-10 	2.6397383e-12 	3.6890521e-11
0.57731959 	3.4187225e-09 	1.1477557e-10 	1.319128e-12 	3.4325287e-09 	3.3791092e-11 	1.0146026e-09
0.58762887 	1.311544e-08 	5.4878562e-10 	1.1543555e-11 	1.3183786e-08 	2.6137294e-10 	3.9547919e-09
0.59793814 	4.8799612e-08 	2.5204926e-09 	2.9176268e-11 	4.9140032e-08 	4.2142389e-10 	2.226255e-08
0.60824742 	2.1884245e-07 	1.6671656e-08 	1.8936819e-10 	2.2093864e-07 	1.4305581e-09 	5.2664791e-09
0.6185567 	4.3169342e-07 	4.0771453e-08 	1.6904258e-10 	4.3756982e-07 	1.3039506e-09 	1.6099348e-07
0.62886598 	7.6305187e-07 	9.7696958e-08 	5.6127707e-10 	7.7780927e-07 	2.7394902e-09 	4.0153621e-07
0.63917526 	1.0282584e-06 	1.6539467e-07 	1.6706518e-09 	1.0521517e-06 	8.1317625e-09 	1.2174376e-07
0.64948454 	1.1892827e-06 	1.9953411e-07 	5.3150429e-10 	1.2194947e-06 	2.6034731e-09 	5.039057e-07
0.65979381 	1.4777099e-06 	2.6458178e-07 	3.2242058e-10 	1.5173066e-06 	1.436092e-09 	6.9893776e-07
0.67010309 	1.7769302e-06 	3.345007e-07 	3.4109386e-10 	1.8245696e-06 	1.0850634e-09 	6.2961717e-07
0.68041237 	2.34634e-06 	5.0148547e-07 	4.4486538e-09 	2.4106832e-06 	1.5080772e-08 	9.479063e-07
0.69072165 	3.6294379e-06 	9.2035329e-07 	5.0008335e-09 	3.7294032e-06 	1.247969e-08 	4.3467655e-07
0.70103093 	7.7074998e-06 	2.5795489e-06 	5.881218e-08 	7.9140714e-06 	1.3842914e-07 	2.4305694e-06
0.71134021 	1.7708843e-05 	7.2685549e-06 	5.8633703e-08 	1.8134822e-05 	1.0703796e-07 	1.040512e-06
0.72164948 	4.4044836e-05 	2.3274104e-05 	5.3342744e-07 	4.4774173e-05 	7.8336161e-07 	1.5742003e-05
0.73195876 	9.155081e-05 	5.5317906e-05 	1.014399e-07 	9.235809e-05 	2.0089814e-07 	1.171452e-05
0.74226804 	0.00019725063 	0.00012477641 	8.3808378e-07 	0.00019749217 	1.7409064e-06 	9.169379e-05
0.75257732 	0.00033343702 	0.00018964486 	9.2159835e-08 	0.00033178281 	1.9143868e-07 	9.1949786e-05
0.7628866 	0.00055960251 	0.00027173717 	7.9616431e-07 	0.00055455163 	1.8738324e-06 	0.00026784101
0.77319588 	0.00079469163 	0.00037162254 	2.3882722e-07 	0.00078841028 	5.6209774e-07 	0.00026828681
0.78350515 	0.0010429803 	0.00048652114 	9.954449e-07 	0.0010415447 	2.2228568e-06 	0.00045335035
0.79381443 	0.0012788122 	0.00059664484 	7.8910443e-08 	0.0012869064 	1.7372043e-07 	0.00038597531
0.80412371 	0.0014773081 	0.0006781899 	7.7371846e-07 	0.0015017203 	3.1200854e-06 	0.00059555362
0.81443299 	0.0016646088 	0.00071694851 	3.3594755e-07 	0.001697406 	7.7070129e-07 	7.2466118e-05
0.82474227 	0.0018379857 	0.00073001293 	1.5779128e-07 	0.0018750066 	2.3203284e-06 	0.00070721078
0.83505155 	0.0019978442 	0.00075864781 	6.0376988e-08 	0.0020336874 	2.7485345e-07 	0.00079735099
0.84536082 	0.002151043 	0.00079543868 	1.0027159e-07 	0.0021819557 	1.8688782e-07 	0.00050990225
0.8556701 	0.0022984421 	0.00083659028 	4.8006506e-07 	0.0023236794 	1.6504814e-06 	0.00087597722
0.86597938 	0.0024463298 	0.00088268191 	2.7311929e-07 	0.0024644891 	7.8088262e-07 	0.00094927154
0.87628866 	0.0026011417 	0.00093481323 	1.5231475e-07 	0.0026103095 	2.6014277e-07 	0.00034841253
0.88659794 	0.0027740612 	0.00099504514 	7.0940637e-08 	0.0027758582 	1.3663355e-07 	0.00069394737
0.89690722 	0.0029764414 	0.001063584 	2.3597512e-07 	0.0029710066 	6.7801386e-07 	0.0011083527
0.90721649 	0.0032168343 	0.0011406127 	5.3793335e-07 	0.0032038225 	1.6569457e-06 	0.0012057613
0.91752577 	0.0034882517 	0.0012260942 	6.659953e-07 	0.0034680644 	2.0532991e-06 	0.001311673
0.92783505 	0.0037698012 	0.0013208107 	5.6310683e-07 	0.0037432585 	1.5511198e-06 	0.0014154417
0.93814433 	0.0040321648 	0.0014262256 	1.7125392e-07 	0.004001173 	3.7761332e-07 	0.0015061868
0.94845361 	0.0042533624 	0.0015425084 	1.2627251e-07 	0.0042189443 	3.8322576e-07 	0.00026158972
0.95876289 	0.0044339517 	0.0016698106 	3.0936258e-07 	0.0044056831 	3.2453535e-07 	0.0016862201
0.96907216 	0.0045366988 	0.0017745944 	5.4199253e-08 	0.0045132086 	1.9923536e-07 	0.00058029358
0.97938144 	0.0043826839 	0.0018440555 	1.8344602e-08 	0.0043701806 	-4.1802689e-07 	0.0016674918
0.98969072 	0.0035170092 	0.0016347298 	-8.7743067e-07 	0.0035123431 	-1.8832183e-06 	0.0013617443
