0.47826087 	6.2727316e-10 	-2.1592346e-14 	-9.9706685e-17 	6.2662398e-10 	2.4298385e-13 	2.8674803e-10
0.48913043 	7.3732951e-10 	-4.6702972e-15 	-2.6101419e-17 	7.3648806e-10 	1.2781505e-13 	2.959312e-10
0.5 	5.5250333e-10 	-4.9806361e-18 	1.1664463e-20 	5.5206523e-10 	-4.6960661e-14 	3.226814e-10
0.51086957 	2.1504838e-10 	-2.0665577e-20 	5.0244153e-22 	2.1492135e-10 	-7.0381083e-13 	1.4840929e-10
0.52173913 	2.2880424e-11 	-4.1504981e-21 	-1.0683043e-22 	2.2838935e-11 	3.238356e-13 	1.1160645e-12
0.5326087 	6.6481001e-12 	4.8494682e-20 	1.2327593e-21 	6.6426485e-12 	-2.0486442e-15 	3.7882694e-12
0.54347826 	6.2584949e-12 	9.6598723e-18 	3.7173994e-19 	6.2534686e-12 	5.0109726e-15 	3.6211048e-12
0.55434783 	7.8899066e-11 	4.5125984e-15 	1.0205048e-16 	7.8758147e-11 	1.6409853e-12 	4.7028981e-12
0.56521739 	2.3334313e-07 	1.0319232e-09 	2.1997489e-11 	2.330116e-07 	4.9590561e-09 	7.1278417e-10
0.57608696 	3.160642e-06 	5.0322799e-08 	1.635059e-09 	3.1613834e-06 	7.0895916e-08 	8.5163714e-07
0.58695652 	1.8551215e-05 	7.9654147e-07 	2.0222624e-08 	1.8613425e-05 	1.4847416e-07 	1.1212176e-05
0.59782609 	5.4057076e-05 	7.1137041e-06 	8.9317404e-09 	5.4666589e-05 	4.6233533e-08 	3.5743622e-05
0.60869565 	0.00012985703 	1.8036026e-05 	1.6351373e-07 	0.00013100241 	9.4069992e-07 	1.4986311e-05
0.61956522 	0.00022229133 	3.482857e-05 	7.2335502e-08 	0.0002242765 	3.474054e-07 	9.0019106e-05
0.63043478 	0.000341745 	6.8788752e-05 	4.7826129e-07 	0.00034469355 	1.3150503e-06 	0.00020881594
0.64130435 	0.00045694594 	0.00012024672 	2.8795169e-07 	0.00045920745 	9.8605554e-07 	0.00019413448
0.65217391 	0.00055844537 	0.00018200555 	4.2834297e-07 	0.00055980765 	1.116874e-06 	0.00020403591
0.66304348 	0.00067338881 	0.00026571845 	8.7627087e-07 	0.00067350464 	1.2140214e-06 	0.00040609651
0.67391304 	0.0007890321 	0.00034646715 	1.3622764e-06 	0.00078864731 	3.0608308e-06 	7.9648926e-05
0.68478261 	0.00092013993 	0.000425451 	6.4889418e-07 	0.00092103289 	1.1564461e-06 	0.00052091817
0.69565217 	0.0010497731 	0.00048878179 	6.2268388e-07 	0.0010526237 	1.348489e-06 	0.00038533703
0.70652174 	0.0011952576 	0.00055665208 	2.1548164e-07 	0.0011990206 	4.6331279e-07 	0.00065161109
0.7173913 	0.0013248573 	0.00061671763 	3.0060534e-07 	0.0013277954 	6.5651743e-07 	0.00058545246
0.72826087 	0.0014625164 	0.00068057405 	1.7680371e-07 	0.0014648879 	3.7887624e-07 	0.00078768346
0.73913043 	0.0015807537 	0.00073515416 	2.5045803e-07 	0.0015815572 	5.494317e-07 	0.00063247543
0.75 	0.0017007864 	0.0007915758 	2.0310071e-07 	0.0017043131 	4.4347519e-07 	0.00091570137
0.76086957 	0.0018010968 	0.00083966388 	1.7096988e-07 	0.0018108472 	3.7719234e-07 	0.00070054138
0.77173913 	0.0019024884 	0.00088937187 	5.540616e-08 	0.0019232911 	1.2724046e-07 	0.0010250433
0.7826087 	0.0019861399 	0.00093158883 	1.7535762e-08 	0.0020213043 	3.8658247e-08 	0.0010610259
0.79347826 	0.0020719781 	0.00097055386 	9.5103082e-08 	0.0021179096 	1.8535031e-07 	0.0007343942
0.80434783 	0.0021550635 	0.0009990993 	-3.5660987e-08 	0.0022083558 	6.3939573e-07 	0.0011939235
0.81521739 	0.0022425326 	0.00099580327 	2.4455685e-07 	0.0022915373 	3.6110709e-07 	0.00011333866
0.82608696 	0.0023383904 	0.00099307099 	-3.1351887e-08 	0.0023829608 	2.3329539e-07 	0.0012688967
0.83695652 	0.0024407846 	0.001019436 	7.4003785e-08 	0.0024776633 	3.355532e-07 	0.001347737
0.84782609 	0.0025587597 	0.0010481752 	2.2438095e-07 	0.0025850099 	2.9348944e-07 	0.00022052408
0.85869565 	0.002699706 	0.0010830639 	5.2229017e-08 	0.002718917 	8.1712078e-08 	0.0011523074
0.86956522 	0.0028733373 	0.0011264683 	2.8716187e-07 	0.002884654 	1.2661432e-06 	0.0015533521
0.88043478 	0.0030840158 	0.0011767928 	2.4982459e-07 	0.003087058 	1.1451284e-06 	0.0016904791
0.89130435 	0.0033350717 	0.0012348969 	9.5827633e-09 	0.0033297945 	2.2331306e-08 	0.0017763384
0.90217391 	0.0036216068 	0.0013015735 	7.3385146e-08 	0.0036074575 	1.9509799e-07 	0.0013932296
0.91304348 	0.0039215853 	0.0013773239 	7.8228168e-08 	0.0039002942 	2.2001549e-07 	0.0014313855
0.92391304 	0.0042028631 	0.001462458 	2.2413916e-08 	0.0041774574 	6.273125e-08 	0.0020718302
0.93478261 	0.0044396488 	0.0015567894 	3.6084965e-07 	0.0044126027 	7.0743154e-07 	0.0024140256
0.94565217 	0.0046303014 	0.0016584128 	2.6318526e-07 	0.0046044877 	3.8265449e-07 	0.0024965846
0.95652174 	0.0047636706 	0.0017586482 	1.3104957e-07 	0.0047373727 	4.1188165e-07 	8.344667e-05
0.9673913 	0.0048158575 	0.0018384866 	2.1522092e-08 	0.0048002021 	-1.967337e-08 	0.0026086393
0.97826087 	0.0046061534 	0.0018879527 	-2.1570294e-08 	0.0045970587 	-8.5418729e-07 	0.0024873031
0.98913043 	0.0036929749 	0.0017137701 	-1.1134545e-06 	0.0036891374 	-2.5266674e-06 	0.0019900141
