4.1667976e-36 	0.0086016865 	-5.8418275e-16 	-2.1233497e-22 	3.9674791e-29 	1.5938727e-35 	1.1300547e-34
0.010869565 	0.0089271687 	-0.00067526342 	1.0876786e-08 	0.016863652 	-9.2742996e-06 	0.014910532
0.02173913 	0.0089979642 	-0.0013420612 	-7.9472202e-09 	0.016929898 	-3.3508156e-06 	0.013543936
0.032608696 	0.008849171 	-0.001945976 	-1.4915204e-07 	0.016870913 	-1.3600381e-05 	0.0064034552
0.043478261 	0.0089301422 	-0.0026394635 	-3.6308011e-08 	0.016495635 	-1.6409806e-05 	0.010682921
0.054347826 	0.0086159233 	-0.0031417733 	1.302089e-06 	0.016007285 	-1.5800523e-05 	0.00020577549
0.065217391 	0.0086591787 	-0.0038141327 	9.6367564e-07 	0.015294846 	-4.6833672e-06 	0.0043280789
0.076086957 	0.0086771204 	-0.0042505748 	2.4996989e-06 	0.014542708 	-4.3401641e-06 	0.0012640704
0.086956522 	0.0088369849 	-0.004720722 	1.0543368e-06 	0.013883096 	-1.3402081e-05 	0.0055056132
0.097826087 	0.0089555942 	-0.0049717247 	5.9958928e-06 	0.013249156 	-3.8220406e-05 	0.00441029
0.10869565 	0.0090781097 	-0.0051248149 	7.6217214e-08 	0.012664212 	1.1064421e-08 	0.0033409666
0.11956522 	0.0092163609 	-0.0050804796 	3.9863732e-06 	0.012181742 	-1.2202241e-05 	0.0026590606
0.13043478 	0.0093181855 	-0.0049215652 	1.6219804e-05 	0.011787369 	-3.3449291e-05 	0.0018452907
0.14130435 	0.0094022837 	-0.0046877795 	2.7263264e-07 	0.01141847 	4.4314046e-07 	0.00027120373
0.15217391 	0.0094057845 	-0.0044528868 	1.6707279e-05 	0.011115502 	-3.2546855e-05 	0.0004785679
0.16304348 	0.0093718521 	-0.0042081164 	5.4445871e-06 	0.010798885 	-1.0859728e-05 	0.00016938148
0.17391304 	0.0092540147 	-0.0039628363 	1.2371637e-05 	0.010467085 	-2.4676363e-05 	0.0007209282
0.18478261 	0.009104726 	-0.0037148486 	4.7994301e-06 	0.010120847 	-9.9355956e-06 	0.0011738575
0.19565217 	0.0088746195 	-0.0034603526 	1.0325941e-05 	0.0097358946 	-2.1376366e-05 	0.0016487902
0.20652174 	0.0086303792 	-0.003207125 	1.349067e-06 	0.0093467403 	-2.943692e-06 	0.0019298191
0.2173913 	0.0083174215 	-0.0029585927 	1.07178e-05 	0.0089284359 	-2.3386461e-05 	0.0023271105
0.22826087 	0.0080239722 	-0.0027325041 	4.549327e-07 	0.0085042939 	1.0929912e-06 	0.00069125188
0.23913043 	0.0076684239 	-0.0024983436 	1.078117e-05 	0.0081074562 	-2.5541096e-05 	0.0027637938
0.25 	0.0073338835 	-0.0022934682 	3.1256877e-07 	0.0076919428 	3.8840123e-07 	0.002038972
0.26086957 	0.0070000624 	-0.0021045713 	2.6565194e-06 	0.0073207844 	-7.0062427e-06 	0.0029953268
0.27173913 	0.0066641355 	-0.0019330674 	2.9740082e-06 	0.0069428865 	-7.8435804e-06 	0.0032519999
0.2826087 	0.0063660505 	-0.0018002651 	9.4823358e-07 	0.0065697599 	4.9602816e-07 	0.00093458167
0.29347826 	0.0060450647 	-0.0016500352 	4.511139e-06 	0.0062521641 	-1.3412536e-05 	0.0032639961
0.30434783 	0.0057473383 	-0.0015289992 	3.75205e-07 	0.0059142624 	5.7986439e-08 	0.0026950478
0.31521739 	0.0054738985 	-0.0014287147 	7.5725206e-07 	0.0056005769 	1.1703029e-07 	0.0018164923
0.32608696 	0.0051898181 	-0.0013184367 	3.8188216e-06 	0.0053159487 	-1.2706372e-05 	0.0033062984
0.33695652 	0.004930656 	-0.0012349745 	9.2548727e-07 	0.0050091311 	-1.4197772e-08 	0.001873481
0.34782609 	0.0046777518 	-0.0011524659 	9.5784916e-07 	0.0047313689 	-1.4694232e-08 	0.0016613537
0.35869565 	0.004419242 	-0.0010620825 	2.6268445e-06 	0.0044777964 	-9.4657402e-06 	0.0031607238
0.36956522 	0.0041813229 	-0.00099233932 	8.9738544e-07 	0.0041983533 	-5.8564126e-08 	0.0019277857
0.38043478 	0.0039503505 	-0.00092491247 	1.4907188e-06 	0.0039313903 	-9.7285556e-08 	0.00094189221
0.39130435 	0.0037097797 	-0.00084233099 	8.0885627e-07 	0.003706688 	-2.963887e-06 	0.0028532414
0.40217391 	0.0034910379 	-0.00077499481 	4.0889963e-07 	0.0034618479 	-8.5038428e-09 	0.0023780813
0.41304348 	0.0032889735 	-0.00071728207 	2.1820888e-06 	0.0032008974 	-4.5380671e-08 	5.1859556e-05
0.42391304 	0.0030741863 	-0.00064130595 	5.9532648e-07 	0.0030019147 	-1.2380942e-08 	0.0018014985
0.43478261 	0.0028795114 	-0.00057191127 	7.0277644e-07 	0.0028032599 	-2.3721452e-06 	0.002488962
0.44565217 	0.0027206858 	-0.00051229022 	1.2305431e-06 	0.0026014807 	1.3919084e-07 	0.0010643729
0.45652174 	0.0025644911 	-0.00044985209 	1.5910031e-06 	0.0024188513 	1.7996368e-07 	0.00053705272
0.4673913 	0.0024033325 	-0.00038127076 	2.6199364e-07 	0.0022647006 	2.9634976e-08 	0.001827187
0.47826087 	0.0022838887 	-0.00031679977 	1.5917166e-07 	0.0021281501 	4.9044526e-08 	0.0019465529
0.48913043 	0.0022118272 	-0.00025600666 	1.5114861e-06 	0.0020091305 	4.6572438e-07 	0.00061718136
0.5 	0.0021321794 	-0.00019028475 	1.4579565e-06 	0.0019051542 	4.4923064e-07 	0.00059640541
0.51086957 	0.002046031 	-0.00012033944 	1.9978231e-07 	0.0018140682 	6.1557623e-08 	0.0016969433
0.52173913 	0.0020142575 	-4.728082e-05 	4.2822601e-07 	0.001751696 	2.2367797e-07 	0.001516849
0.5326087 	0.0020210331 	2.8259355e-05 	1.7528623e-06 	0.0017078768 	9.1558352e-07 	0.00038572876
0.54347826 	0.0020196931 	0.00011138801 	1.3148951e-06 	0.0016769656 	6.8681737e-07 	0.00076181724
0.55434783 	0.0020148071 	0.0001983792 	6.4303489e-08 	0.001653058 	-2.704189e-08 	0.0018880191
0.56521739 	0.0020651134 	0.00028590994 	8.325721e-07 	0.0016635794 	6.582357e-07 	0.0011288014
0.57608696 	0.0021268713 	0.00037460863 	2.0047391e-06 	0.0016811388 	1.5849569e-06 	5.672053e-05
0.58695652 	0.0021835449 	0.00047367919 	6.9717137e-07 	0.0017166088 	5.511872e-07 	0.0013678837
0.59782609 	0.0022529398 	0.00056535788 	2.1671313e-07 	0.0017634589 	2.5776277e-07 	0.0017978301
0.60869565 	0.0023472351 	0.00064483141 	1.2808573e-06 	0.0018314551 	1.5234764e-06 	0.00045959929
0.61956522 	0.0024431413 	0.00072994238 	9.1877815e-07 	0.0019109596 	1.0928124e-06 	0.0010356906
0.63043478 	0.0025417593 	0.00081520261 	7.1179133e-08 	0.0019984247 	7.7993792e-08 	0.002346004
0.64130435 	0.0026591949 	0.00087573709 	8.3028833e-07 	0.0021066303 	1.3866796e-06 	0.00079874226
0.65217391 	0.0027818726 	0.00093875346 	8.1031836e-07 	0.0022230841 	1.3533274e-06 	0.000957319
0.66304348 	0.0029101766 	0.0010035277 	9.1574999e-08 	0.0023481147 	2.2545383e-07 	0.0026888666
0.67391304 	0.0030507026 	0.0010496542 	7.3303941e-07 	0.0024873089 	1.4539267e-06 	0.00086785471
0.68478261 	0.0032005638 	0.0010973909 	6.3068238e-07 	0.0026350341 	1.2509095e-06 	0.0012863146
0.69565217 	0.0033590918 	0.0011450956 	8.8206853e-08 	0.0027913535 	1.8088253e-07 	0.0028251143
0.70652174 	0.0035238765 	0.0011843934 	8.8690303e-07 	0.0029579609 	1.8187393e-06 	0.00047529485
0.7173913 	0.0037060885 	0.0012265008 	3.7514335e-07 	0.0031362201 	7.6929261e-07 	0.0022613775
0.72826087 	0.0038924829 	0.0012669792 	3.8962328e-07 	0.0033223906 	7.899741e-07 	0.0022053149
0.73913043 	0.0040847138 	0.001306158 	8.3548167e-07 	0.0035170662 	1.6939668e-06 	0.00078988554
0.75 	0.0042969317 	0.0013484403 	1.3434163e-08 	0.0037236461 	9.6035717e-08 	0.0039894032
0.76086957 	0.0044954939 	0.0013889009 	8.5783596e-07 	0.0039310575 	1.7344704e-06 	0.00059339745
0.77173913 	0.0047188434 	0.0014336394 	2.4233382e-07 	0.0041523498 	4.8997812e-07 	0.0033871664
0.7826087 	0.0049260648 	0.0014783343 	5.8252601e-07 	0.0043674346 	1.2136588e-06 	0.0016973004
0.79347826 	0.0051433274 	0.0015265137 	3.9743035e-07 	0.0045893411 	8.2802282e-07 	0.0028318612
0.80434783 	0.0053498333 	0.001575235 	4.2520977e-07 	0.0048045721 	9.5046654e-07 	0.0024384465
0.81521739 	0.0055524274 	0.0016261695 	4.0434937e-07 	0.0050174848 	9.0383755e-07 	0.0027664135
0.82608696 	0.0057444432 	0.0016774123 	3.7841129e-07 	0.0052220098 	9.3490423e-07 	0.0025558219
0.83695652 	0.0059293075 	0.001730429 	2.8420484e-07 	0.0054211679 	7.0215746e-07 	0.0034473042
0.84782609 	0.0060928548 	0.0017809979 	4.1382972e-07 	0.0056035116 	1.1545136e-06 	0.0017859421
0.85869565 	0.0062592535 	0.0018354928 	8.1419249e-08 	0.0057871804 	2.2714568e-07 	0.0051269018
0.86956522 	0.0063769274 	0.0018803193 	4.6183607e-07 	0.0059314208 	1.4961307e-06 	0.00015682716
0.88043478 	0.0065008423 	0.0019308881 	8.5299113e-08 	0.0060789225 	3.4639476e-07 	0.0045361167
0.89130435 	0.006577138 	0.0019721905 	1.3369517e-07 	0.0061863095 	5.4292834e-07 	0.0037077713
0.90217391 	0.0066093748 	0.0020020634 	1.322347e-07 	0.0062529187 	9.6848961e-07 	0.00048917463
0.91304348 	0.0066153205 	0.0020287777 	-2.9604477e-08 	0.0062979508 	2.297868e-07 	0.0041316131
0.92391304 	0.0065620602 	0.0020386808 	-9.9253223e-09 	0.0062893146 	7.7039296e-08 	0.0055429956
0.93478261 	0.0064253229 	0.002014029 	-1.1955918e-07 	0.0061999378 	5.84094e-08 	0.0039040576
0.94565217 	0.0061686002 	0.0019642775 	-4.0195933e-08 	0.0059988787 	-4.4764253e-08 	0.0056054299
0.95652174 	0.0057146225 	0.0018644666 	-7.5824668e-07 	0.0056006855 	-1.0577763e-06 	0.00033073093
0.9673913 	0.0050268588 	0.0017150778 	-4.0474835e-07 	0.0049682553 	-7.1599247e-07 	0.0026725971
0.97826087 	0.0039928282 	0.0014871185 	-7.1287604e-07 	0.0039742178 	-1.5027049e-06 	0.00028902552
0.98913043 	0.0022036666 	0.0010029499 	-4.2754295e-07 	0.0022013031 	-9.9126512e-07 	0.00029900366
