2.7909061e-19 	0.009586633 	-6.5106682e-16 	-4.5914688e-22 	4.5548719e-18 	6.5085043e-20 	3.1592264e-18
0.010869565 	0.0096462128 	-0.00049848071 	1.7340857e-07 	0.013669884 	-6.1100414e-05 	0.0019172361
0.02173913 	0.0098149796 	-0.00098231664 	7.0321727e-08 	0.013782961 	-3.4331922e-05 	0.0030198858
0.032608696 	0.0099624214 	-0.0014548392 	2.879699e-08 	0.013813414 	-5.7667865e-06 	0.0040728617
0.043478261 	0.010063886 	-0.0019086889 	3.1729368e-07 	0.013741198 	-2.6306397e-05 	0.0050554717
0.054347826 	0.010104004 	-0.0023489217 	2.8087804e-06 	0.013580515 	-6.4522777e-06 	0.00053522854
0.065217391 	0.010128678 	-0.0027572538 	1.7919726e-06 	0.013328689 	-3.191602e-06 	0.003703241
0.076086957 	0.010146186 	-0.0030920968 	3.9946654e-06 	0.013098897 	-5.2569082e-06 	0.0014088605
0.086956522 	0.010207116 	-0.0033786176 	1.7698807e-07 	0.01288468 	-1.6760886e-07 	0.0079989033
0.097826087 	0.010267012 	-0.0036307823 	9.1782498e-07 	0.012655928 	-8.2748577e-06 	0.0088733697
0.10869565 	0.01031245 	-0.0038418292 	4.2682808e-06 	0.012413493 	-2.8615102e-06 	0.0029932508
0.11956522 	0.010368307 	-0.0039777575 	2.3949115e-06 	0.012204993 	-1.1197312e-06 	0.0059313025
0.13043478 	0.010411493 	-0.0040620624 	5.9264232e-07 	0.011994749 	-2.7708754e-07 	0.009540595
0.14130435 	0.010389693 	-0.0040831661 	4.9751531e-06 	0.011708809 	-1.6072085e-06 	4.1684019e-05
0.15217391 	0.010384709 	-0.0040640109 	2.4584154e-07 	0.011516734 	-4.7797321e-08 	0.010645812
0.16304348 	0.010269591 	-0.0039651912 	2.7367932e-06 	0.011191181 	-5.3209633e-07 	0.0027092699
0.17391304 	0.010151481 	-0.0038487703 	4.1776927e-07 	0.010918339 	2.8920398e-08 	0.0083182187
0.18478261 	0.0099292664 	-0.0036731685 	1.1186519e-06 	0.010543123 	7.7439532e-08 	0.0033369125
0.19565217 	0.0096955951 	-0.0034881591 	7.7259088e-08 	0.010195344 	1.1324047e-07 	0.0077781569
0.20652174 	0.0093546536 	-0.0032612237 	3.2651877e-07 	0.0097458543 	4.7858626e-07 	0.0024173996
0.2173913 	0.0090272766 	-0.0030414061 	1.4366343e-06 	0.0093446412 	-3.3731021e-06 	0.0076309421
0.22826087 	0.0085986273 	-0.0027970624 	-1.2107545e-07 	0.0088397001 	8.240641e-07 	0.00054418398
0.23913043 	0.0082066048 	-0.0025712033 	3.6141044e-06 	0.0084084833 	-8.8605829e-06 	0.0061116687
0.25 	0.007771766 	-0.0023472449 	-1.2713994e-07 	0.0079263484 	4.0225486e-07 	0.0021994526
0.26086957 	0.0073481402 	-0.0021352313 	-2.5264027e-08 	0.0074788157 	7.9932223e-08 	0.0041436321
0.27173913 	0.0069466339 	-0.0019444379 	9.4989105e-07 	0.0070528453 	-2.5093706e-06 	0.0045156111
0.2826087 	0.0065432229 	-0.0017684537 	9.5037876e-10 	0.0066235214 	9.1400707e-08 	0.00079650557
0.29347826 	0.0061760347 	-0.0016102982 	3.9940329e-06 	0.0062487792 	-1.1620798e-05 	0.0034581162
0.30434783 	0.0058242865 	-0.0014668996 	3.9940986e-08 	0.0058802501 	-5.391521e-08 	0.0026758217
0.31521739 	0.0054881455 	-0.0013382478 	7.8949114e-08 	0.0055315994 	-1.0657118e-07 	0.0016196894
0.32608696 	0.0051804423 	-0.0012247993 	5.2085601e-06 	0.0052156006 	-1.6825828e-05 	0.0024760068
0.33695652 	0.0048789695 	-0.0011170195 	7.2070883e-08 	0.0049011823 	-9.969284e-08 	0.001825896
0.34782609 	0.0045942462 	-0.0010205016 	6.3767194e-08 	0.0046072958 	-8.8206672e-08 	0.0014623656
0.35869565 	0.0043304673 	-0.00093386894 	4.7347524e-06 	0.0043347587 	-1.6680965e-05 	0.0017408465
0.36956522 	0.0040683234 	-0.0008483604 	2.9527994e-07 	0.0040624055 	-1.0402981e-06 	0.001642353
0.38043478 	0.0038194272 	-0.000769955 	1.1621145e-07 	0.0038027075 	-1.4494212e-07 	0.00080800995
0.39130435 	0.0035919944 	-0.00069700365 	3.4395604e-06 	0.0035674943 	-1.244518e-05 	0.0011920271
0.40217391 	0.0033671553 	-0.00062463904 	1.8521644e-06 	0.0033329945 	-6.7015892e-06 	0.0011244835
0.41304348 	0.0031486247 	-0.00055328718 	2.8359129e-07 	0.0031015829 	-2.7962147e-07 	1.6879904e-05
0.42391304 	0.0029618073 	-0.00048727534 	1.7989349e-06 	0.0029083568 	-5.9312295e-06 	0.00079493952
0.43478261 	0.0027862942 	-0.00042089557 	3.7226191e-06 	0.0027223651 	-1.2273767e-05 	0.00075078475
0.44565217 	0.0026107811 	-0.00035451579 	5.6269499e-07 	0.0025363733 	-1.8552495e-06 	0.00070662998
0.45652174 	0.0024599359 	-0.00028934102 	2.8779513e-08 	0.0023743356 	-1.6286151e-08 	0.00046787317
0.4673913 	0.0023523893 	-0.00022339079 	3.1290163e-06 	0.0022536091 	-7.5483373e-06 	0.00050512739
0.47826087 	0.0022467222 	-0.00015722936 	3.2160263e-06 	0.0021343257 	-7.7582375e-06 	0.00047688506
0.48913043 	0.002141055 	-9.1067921e-05 	3.2761022e-07 	0.0020150423 	-7.9031626e-07 	0.00044864273
0.5 	0.0020750259 	-2.0838542e-05 	5.4638189e-07 	0.0019334163 	-6.7043693e-07 	0.00037012667
0.51086957 	0.0020432871 	5.3920115e-05 	3.9376791e-06 	0.0018836945 	-4.8317221e-06 	0.00035099885
0.52173913 	0.0020115483 	0.00012867877 	3.197079e-06 	0.0018339726 	-3.9229701e-06 	0.00033187103
0.5326087 	0.0019798094 	0.00020343743 	1.8449957e-07 	0.0017842507 	-2.2638988e-07 	0.00031274322
0.54347826 	0.0019932318 	0.00028579459 	1.3134228e-06 	0.0017791716 	-3.8453425e-07 	0.00029507539
0.55434783 	0.0020245956 	0.00036949838 	4.8205701e-06 	0.0017921411 	-1.411331e-06 	0.00028055466
0.56521739 	0.0020559595 	0.00045320218 	2.3831559e-06 	0.0018051105 	-6.9772281e-07 	0.00026603393
0.57608696 	0.0020942671 	0.00053649388 	1.0284275e-07 	0.0018251718 	9.6448268e-08 	3.7203607e-05
0.58695652 	0.002167862 	0.00061705867 	2.5010256e-06 	0.0018867641 	1.0745034e-06 	0.0002615475
0.59782609 	0.0022444874 	0.0006964025 	3.3234073e-06 	0.0019510254 	1.4278191e-06 	0.00024957742
0.60869565 	0.0023211129 	0.00077574634 	4.977631e-07 	0.0020152868 	2.1385152e-07 	0.00023760735
0.61956522 	0.0024203239 	0.00084621445 	1.0954956e-06 	0.0021072667 	1.4379992e-06 	0.00025727544
0.63043478 	0.0025299296 	0.00091227769 	2.9160334e-06 	0.0022116266 	3.827723e-06 	0.00024707122
0.64130435 	0.0026395352 	0.00097834093 	7.8076346e-07 	0.0023159864 	1.024867e-06 	0.000236867
0.65217391 	0.002763396 	0.0010377066 	5.669208e-07 	0.0024368495 	1.491819e-06 	0.00026080381
0.66304348 	0.002900709 	0.0010911564 	2.0236148e-06 	0.00257279 	5.3250242e-06 	0.00025206744
0.67391304 	0.003038022 	0.0011446063 	5.0945147e-07 	0.0027087306 	1.3405918e-06 	0.00024333107
0.68478261 	0.003189688 	0.0011935819 	5.0651939e-07 	0.0028595552 	2.2154898e-06 	0.00026958589
0.69565217 	0.0033527426 	0.0012392357 	1.2449775e-06 	0.0030219964 	5.4454674e-06 	0.00026217482
0.70652174 	0.0035157972 	0.0012848895 	1.1875165e-07 	0.0031844376 	5.1941361e-07 	0.00025476374
0.7173913 	0.0036980367 	0.0013275556 	6.7131277e-07 	0.0033660714 	4.1495159e-06 	0.00028284002
0.72826087 	0.0038849409 	0.0013695126 	6.3877706e-07 	0.0035523514 	3.9484063e-06 	0.00027667056
0.73913043 	0.0040764327 	0.0014112498 	1.2129823e-07 	0.0037433844 	8.913182e-07 	0.00030502852
0.75 	0.0042822393 	0.0014524939 	9.5096887e-07 	0.0039492432 	6.9878669e-06 	0.00030000031
0.76086957 	0.0044880459 	0.0014937379 	8.3498414e-08 	0.004155102 	6.1355932e-07 	0.00029497209
0.77173913 	0.0047019023 	0.0015361357 	6.9538326e-07 	0.0043703241 	5.1083851e-06 	0.00032398658
0.7826087 	0.0049168125 	0.0015788456 	3.1031899e-07 	0.0045868616 	2.2796477e-06 	0.00032001013
0.79347826 	0.0051297814 	0.0016225466 	5.0232651e-07 	0.0048028876 	3.3638179e-06 	0.00034718746
0.80434783 	0.0053404322 	0.0016669967 	4.197478e-07 	0.0050176047 	2.8108315e-06 	0.00034413948
0.81521739 	0.0055433568 	0.0017116276 	4.1675714e-07 	0.0052261184 	2.4792939e-06 	0.0003681468
0.82608696 	0.0057377192 	0.0017566015 	3.7876877e-07 	0.0054276391 	2.2533006e-06 	0.00036589318
0.83695652 	0.0059188924 	0.0018008246 	4.3122881e-07 	0.0056178576 	2.2720781e-06 	0.00038612803
0.84782609 	0.0060886776 	0.001844614 	1.9856269e-07 	0.0057983352 	1.0461962e-06 	0.00038452716
0.85869565 	0.0062348623 	0.0018857012 	4.7710294e-07 	0.0059581601 	2.2261458e-06 	0.00040077325
0.86956522 	0.0063700414 	0.0019254081 	1.0400366e-08 	0.0061077193 	5.5070058e-08 	0.0001236232
0.88043478 	0.0064623517 	0.0019584669 	1.9618044e-07 	0.0062205236 	7.8681109e-07 	0.00041141463
0.89130435 	0.0065275917 	0.0019851782 	-8.9038403e-08 	0.0063081562 	-3.4360615e-07 	0.00041740944
0.90217391 	0.0065580221 	0.002004019 	-2.7740661e-09 	0.0063643476 	-1.0705338e-08 	0.000416901
0.91304348 	0.0065168284 	0.002003095 	-4.4642204e-07 	0.0063541705 	-1.5535491e-06 	0.00041664543
0.92391304 	0.0064267083 	0.0019863491 	-1.1668564e-06 	0.0062965591 	-3.7395229e-06 	0.00040960221
0.93478261 	0.0062647119 	0.0019474195 	-9.245117e-07 	0.0061699263 	-3.0451856e-06 	0.00039715736
0.94565217 	0.0059574499 	0.0018718139 	-1.5614591e-06 	0.0059018248 	-5.7003114e-06 	0.00038160117
0.95652174 	0.005498548 	0.0017644155 	-2.60096e-09 	0.0054773287 	-3.4310973e-09 	0.0003443555
0.9673913 	0.004799037 	0.0016092859 	-1.0133883e-06 	0.0048030983 	-4.3871009e-06 	0.00031343791
0.97826087 	0.003794156 	0.0013980644 	-1.7738513e-08 	0.0038071636 	-8.3200236e-08 	0.00025661294
0.98913043 	0.0020712621 	0.00094551622 	-5.8352634e-07 	0.0020733939 	-1.3267444e-06 	0.00011474521
