0.35555556 	0.68698066 	-0.16676979 	-3.7248127e-05
0.36666667 	0.90795571 	-0.20744269 	-6.2938173e-05
0.37777778 	1.0097273 	-0.21769734 	-7.76532e-05
0.38888889 	1.0776717 	-0.22030529 	2.4977746e-06
0.4 	1.1217519 	-0.2187416 	3.8404687e-05
0.41111111 	1.157489 	-0.2152601 	9.7281036e-05
0.42222222 	1.1864213 	-0.21070359 	0.00011647242
0.43333333 	1.2102841 	-0.20550842 	0.00010200253
0.44444444 	1.2304062 	-0.19995347 	5.1596169e-05
0.45555556 	1.2474911 	-0.19399058 	-6.1816484e-05
0.46666667 	1.2622096 	-0.18830305 	4.3754722e-05
0.47777778 	1.2745923 	-0.18243142 	0.0001724078
0.48888889 	1.2853104 	-0.1765847 	0.00011712025
0.5 	1.2944075 	-0.17040795 	-9.4216019e-05
0.51111111 	1.3020009 	-0.16498766 	0.00010758927
0.52222222 	1.3079411 	-0.15933052 	9.8553e-05
0.53333333 	1.3127316 	-0.15343973 	-6.022823e-05
0.54444444 	1.3159476 	-0.14817146 	0.00020445924
0.55555556 	1.3181307 	-0.14249513 	-6.2642721e-05
0.56666667 	1.3194004 	-0.1375103 	0.00012997881
0.57777778 	1.3197007 	-0.13229937 	-2.7347903e-05
0.58888889 	1.3193535 	-0.12742766 	0.00010660896
0.6 	1.318162 	-0.12239646 	-2.9147227e-05
0.61111111 	1.3163525 	-0.11774655 	0.00012851475
0.62222222 	1.3137671 	-0.11279363 	-5.2364922e-05
0.63333333 	1.3104626 	-0.10849831 	0.00018887249
0.64444444 	1.3064844 	-0.1037213 	-4.7669713e-05
0.65555556 	1.3015568 	-0.099635901 	0.00010367254
0.66666667 	1.296162 	-0.095345482 	2.5569053e-05
0.67777778 	1.289339 	-0.091069501 	-4.7274281e-06
0.68888889 	1.2818749 	-0.08697735 	0.00013217755
0.7 	1.2738495 	-0.082717167 	-4.3678114e-05
0.71111111 	1.26466 	-0.078885184 	0.000133961
0.72222222 	1.2556161 	-0.074889886 	-9.7879618e-06
0.73333333 	1.2462004 	-0.07114454 	7.3565103e-05
0.74444444 	1.2372732 	-0.067452315 	1.3996073e-05
0.75555556 	1.2288595 	-0.063966114 	5.0951651e-05
0.76666667 	1.2208557 	-0.060590359 	1.903826e-05
0.77777778 	1.2131693 	-0.057365848 	5.7384375e-05
0.78888889 	1.2054739 	-0.054181397 	6.0572794e-07
0.8 	1.197322 	-0.051050217 	8.6384109e-05
0.81111111 	1.1889305 	-0.047870391 	-1.3868206e-05
0.82222222 	1.1795273 	-0.04488109 	6.7840826e-05
0.83333333 	1.1696241 	-0.041865504 	3.3707338e-05
0.84444444 	1.1590429 	-0.03888391 	-1.3077302e-06
0.85555556 	1.1472642 	-0.035958189 	6.1005934e-05
0.86666667 	1.1346322 	-0.03305075 	4.9515832e-05
0.87777778 	1.1209677 	-0.030168437 	4.9201572e-06
0.88888889 	1.1058675 	-0.027310842 	2.4357354e-06
0.9 	1.0889867 	-0.024472248 	2.5578408e-05
0.91111111 	1.0701761 	-0.021642606 	3.7540409e-05
0.92222222 	1.0488477 	-0.018814271 	3.9696962e-05
0.93333333 	1.0241316 	-0.015977403 	3.3056458e-05
0.94444444 	0.99474531 	-0.013123604 	1.828733e-05
0.95555556 	0.96071012 	-0.010401057 	4.5116165e-07
0.96666667 	0.91078643 	-0.0073543584 	6.6375389e-07
0.97777778 	0.84012616 	-0.0044725462 	1.8580656e-05
0.98888889 	0.69431095 	-0.0017260865 	7.0185732e-06
