8.2204959e-36 	0.0079296097 	-5.3853958e-16 	-1.9574457e-22 	1.9472603e-18 	1.3392506e-33 	1.9646296e-18
0.010869565 	0.0080002404 	-0.00018711635 	5.5233589e-08 	0.0088369908 	-3.5230552e-05 	0.0025552599
0.02173913 	0.008150069 	-0.00037003296 	1.2898676e-08 	0.0089888307 	-2.1577546e-05 	0.0031402952
0.032608696 	0.0083055889 	-0.00055168279 	5.6444938e-09 	0.0091390943 	-4.3246534e-06 	0.0037175138
0.043478261 	0.008445624 	-0.0007304175 	4.9634907e-08 	0.0092661491 	-1.5505119e-05 	0.0042992365
0.054347826 	0.0085596588 	-0.00090631484 	2.8571972e-07 	0.0093542088 	-9.589839e-07 	0.0017793371
0.065217391 	0.0086461179 	-0.0010866197 	3.9626166e-07 	0.0094105159 	-1.1098051e-06 	0.0016819446
0.076086957 	0.0087031449 	-0.0012369582 	4.6992141e-07 	0.0094379043 	-1.0811558e-06 	0.0020846273
0.086956522 	0.0087518178 	-0.0013889324 	3.3516186e-08 	0.0094593934 	-1.6824589e-06 	0.0063579018
0.097826087 	0.0087898569 	-0.0015351576 	7.9458852e-09 	0.0094583816 	-2.5383092e-07 	0.0068152308
0.10869565 	0.0088151483 	-0.0016717869 	9.5225314e-07 	0.0094290489 	-1.5734013e-06 	0.0011734649
0.11956522 	0.0088287659 	-0.0017941861 	3.4329059e-07 	0.0094067781 	-5.0352834e-07 	0.0056333806
0.13043478 	0.0088296556 	-0.0019069084 	3.1243964e-07 	0.0093609453 	-4.582771e-07 	0.0061810752
0.14130435 	0.008813621 	-0.00200549 	1.2908896e-06 	0.0092850221 	-1.737547e-06 	0.0012069835
0.15217391 	0.0087900219 	-0.0020927362 	1.745245e-07 	0.009227118 	-1.829154e-06 	0.0086708693
0.16304348 	0.0087386905 	-0.0021601481 	1.4535692e-06 	0.0091085549 	-1.8559727e-06 	0.0011242803
0.17391304 	0.0086825878 	-0.0022187152 	2.4623198e-07 	0.0090157621 	-3.0682959e-07 	0.0077495245
0.18478261 	0.0085932685 	-0.0022538184 	1.270821e-06 	0.0088633847 	-1.5835696e-06 	0.0017696701
0.19565217 	0.0084999567 	-0.0022823036 	1.2902607e-07 	0.0087328061 	-1.5961416e-07 	0.0074717595
0.20652174 	0.0083631953 	-0.0022824638 	1.1597713e-06 	0.0085355857 	-1.4347172e-06 	0.0011809058
0.2173913 	0.0082288655 	-0.0022808298 	6.7686139e-07 	0.008368405 	-3.1365271e-06 	0.0073225444
0.22826087 	0.0080352604 	-0.0022445185 	1.021214e-06 	0.0081186147 	-1.2515154e-06 	0.00041260477
0.23913043 	0.0078542743 	-0.0022126474 	1.4943935e-08 	0.0079098077 	-1.8314051e-08 	0.0063100538
0.25 	0.007608321 	-0.0021454441 	4.0116229e-07 	0.0076223663 	-4.6978836e-07 	0.002878099
0.26086957 	0.0073570763 	-0.0020745615 	2.85121e-07 	0.0073402945 	-3.3389611e-07 	0.0033030363
0.27173913 	0.0070831551 	-0.0019911197 	4.2721134e-07 	0.0070426992 	-1.4825772e-06 	0.0052533767
0.2826087 	0.006753657 	-0.0018805121 	3.7202672e-07 	0.0066822339 	-3.6210958e-07 	0.00021237316
0.29347826 	0.0064474501 	-0.0017798802 	9.5610686e-07 	0.0063649987 	-3.0532579e-06 	0.0043010516
0.30434783 	0.0060940846 	-0.0016561701 	2.232791e-08 	0.0059975322 	3.134312e-09 	0.0032662489
0.31521739 	0.0057246527 	-0.0015250403 	6.6352409e-08 	0.0056162752 	9.3143134e-09 	0.0011479328
0.32608696 	0.0053710752 	-0.0013998217 	3.3889238e-06 	0.0052614103 	-1.0305105e-05 	0.0032419842
0.33695652 	0.0050004734 	-0.0012655616 	-1.7374479e-08 	0.0048881947 	5.4458145e-08 	0.0022574765
0.34782609 	0.0046317748 	-0.0011313913 	-3.3906841e-08 	0.0045195576 	1.0627678e-07 	0.0010452794
0.35869565 	0.0042902185 	-0.0010062507 	3.6543465e-06 	0.0041837644 	-1.0762253e-05 	0.0023241507
0.36956522 	0.0039552819 	-0.00088111254 	-8.8172493e-09 	0.0038531327 	1.3517754e-08 	0.0020339542
0.38043478 	0.0036375851 	-0.00075982464 	-6.2723155e-08 	0.0035389064 	9.6161074e-08 	0.00048482808
0.39130435 	0.003353883 	-0.00064987212 	2.2399015e-06 	0.0032629394 	-6.2893876e-06 	0.0016110224
0.40217391 	0.0030903755 	-0.00054340183 	1.5398492e-06 	0.00300469 	-4.3237208e-06 	0.0015641261
0.41304348 	0.0028469236 	-0.00044007305 	-3.90575e-08 	0.0027636545 	2.0334736e-09 	0.00021366679
0.42391304 	0.0026319459 	-0.0003466701 	2.0284135e-07 	0.0025546056 	-4.9738645e-07 	0.001116849
0.43478261 	0.0024591839 	-0.00025882315 	3.6220332e-06 	0.002384131 	-8.881573e-06 	0.0010876657
0.44565217 	0.0022889313 	-0.0001711986 	1.9822231e-11 	0.0022158956 	-5.8056928e-09 	0.00097323019
0.45652174 	0.0021583691 	-8.8868651e-05 	1.5732819e-10 	0.0020846398 	-4.6079525e-08 	0.00028420923
0.4673913 	0.0020560295 	-1.1949014e-05 	1.6185368e-06 	0.0019830001 	-2.6792558e-06 	0.00080676625
0.47826087 	0.0019776983 	6.4658225e-05 	2.5479961e-06 	0.0019033926 	-4.2178428e-06 	0.00078814614
0.48913043 	0.0019072871 	0.00014127427 	4.7870868e-09 	0.0018310905 	-1.4814939e-08 	0.0005901817
0.5 	0.0018731173 	0.00021714288 	8.9929825e-09 	0.0017937814 	-2.7831225e-08 	0.00038556769
0.51086957 	0.0018626839 	0.00029132176 	2.0475959e-06 	0.0017808705 	-1.2307931e-06 	0.00068447179
0.52173913 	0.0018641452 	0.00036519339 	2.0622037e-06 	0.0017791059 	-1.2395738e-06 	0.00067113837
0.5326087 	0.0018748647 	0.00043884855 	7.2556046e-09 	0.001786078 	-6.6549281e-09 	0.00042219265
0.54347826 	0.0019132089 	0.00051355265 	3.1938307e-09 	0.0018211421 	-2.92942e-09 	0.00058240365
0.55434783 	0.0019715793 	0.00058577757 	2.4595342e-06 	0.0018765189 	8.2401249e-07 	0.00068290281
0.56521739 	0.0020322399 	0.00065755116 	1.1082111e-06 	0.0019340305 	3.7128161e-07 	0.00067201571
0.57608696 	0.0021059336 	0.00072680744 	1.1626259e-08 	0.0020037987 	2.320953e-08 	6.8129939e-05
0.58695652 	0.0021980097 	0.00079567358 	8.3072988e-07 	0.0020948428 	9.7469191e-07 	0.00075078514
0.59782609 	0.0022992521 	0.0008618287 	1.8829007e-06 	0.0021942802 	2.2091996e-06 	0.00074130432
0.60869565 	0.0024023418 	0.00092741721 	1.6033109e-09 	0.0022953754 	1.2942733e-08 	0.0005763003
0.61956522 	0.0025223967 	0.00099072274 	9.2847468e-08 	0.002415042 	1.8871819e-07 	0.00084848366
0.63043478 	0.0026530531 	0.0010513452 	1.9515749e-06 	0.0025454996 	3.9666959e-06 	0.00084011426
0.64130435 	0.0027837096 	0.0011119676 	1.5195156e-07 	0.0026759572 	3.0885089e-07 	0.00083174486
0.65217391 	0.0029264521 	0.0011700525 	6.2068764e-10 	0.0028192948 	9.5099823e-09 	0.00085629479
0.66304348 	0.003080328 	0.0012264828 	1.5389415e-06 	0.002974498 	4.536697e-06 	0.00095484428
0.67391304 	0.0032345586 	0.001282714 	1.0641492e-07 	0.0031298841 	3.137041e-07 	0.00094755066
0.68478261 	0.0034006312 	0.001337201 	6.5716215e-08 	0.0032980009 	2.7592889e-07 	0.0010872118
0.69565217 	0.0035793169 	0.0013890352 	1.0984538e-06 	0.0034790583 	4.612182e-06 	0.0010809871
0.70652174 	0.0037595008 	0.0014401107 	8.3684709e-10 	0.0036609965 	5.0420686e-08 	0.00069733159
0.7173913 	0.0039581068 	0.0014886225 	3.5908386e-07 	0.0038639363 	2.2684169e-06 	0.001226458
0.72826087 	0.0041647595 	0.0015351738 	4.5687678e-07 	0.0040742756 	2.8861976e-06 	0.0012212691
0.73913043 	0.0043789958 	0.0015796647 	-1.6086661e-09 	0.0042915248 	9.4520654e-08 	0.00064150478
0.75 	0.0046051396 	0.0016212186 	6.0602816e-07 	0.0045239958 	5.9078868e-06 	0.0013794374
0.76086957 	0.00483041 	0.00166076 	-4.7888932e-09 	0.0047533871 	6.6880059e-08 	0.00087802814
0.77173913 	0.005055994 	0.0016960378 	1.8192188e-07 	0.0049861685 	2.9995449e-06 	0.0015320646
0.7826087 	0.0052749501 	0.0017293052 	5.2431962e-08 	0.0052112709 	8.6450307e-07 	0.0015286978
0.79347826 	0.0054780723 	0.0017582139 	1.8204748e-08 	0.005421497 	1.2120623e-06 	0.0016597545
0.80434783 	0.0056659846 	0.0017841017 	1.8670841e-08 	0.0056168081 	1.2430945e-06 	0.0016571657
0.81521739 	0.0058328964 	0.0018059013 	-4.5428363e-08 	0.0057921233 	5.553274e-07 	0.001755578
0.82608696 	0.0059786081 	0.0018236059 	-5.6898427e-08 	0.0059469499 	6.9554026e-07 	0.0017536535
0.83695652 	0.0060992402 	0.0018359826 	-1.6946992e-07 	0.0060778519 	3.2286454e-07 	0.0018219691
0.84782609 	0.0061984953 	0.0018433734 	-3.3259483e-08 	0.0061879652 	6.3364093e-08 	0.0018205767
0.85869565 	0.0062598648 	0.0018413263 	-5.5443141e-07 	0.0062610705 	-4.1285222e-07 	0.001859648
0.86956522 	0.0062975034 	0.0018332786 	-9.4259069e-08 	0.0063070772 	-1.0305826e-07 	0.00010506528
0.88043478 	0.006289082 	0.0018154552 	-6.6654139e-07 	0.0063139218 	-1.2930353e-06 	0.0018672896
0.89130435 	0.0062452582 	0.0017896306 	-4.4911332e-07 	0.0062813219 	-1.1873047e-06 	0.0018464793
0.90217391 	0.0061589423 	0.0017544195 	-7.6443005e-08 	0.0062031107 	-1.354043e-07 	0.00067105883
0.91304348 	0.0060177027 	0.0017087955 	-7.5533306e-07 	0.0060725948 	-2.3850343e-06 	0.0017979126
0.92391304 	0.0058356577 	0.0016554502 	-1.1893378e-06 	0.005896379 	-4.1031335e-06 	0.0017261577
0.93478261 	0.0056018799 	0.0015900403 	-5.4115658e-07 	0.0056652865 	-2.0934061e-06 	0.0016454859
0.94565217 	0.005258382 	0.001510617 	-1.054895e-06 	0.0053197025 	-4.8855559e-06 	0.0015644629
0.95652174 	0.0048072897 	0.0014256964 	-5.6333531e-08 	0.0048586688 	-1.6962365e-07 	0.00043447697
0.9673913 	0.0041768156 	0.0013302498 	-3.3905288e-07 	0.0042149348 	-2.2688309e-06 	0.0012638795
0.97826087 	0.0033021726 	0.0012148995 	-2.0750587e-08 	0.0033181141 	-9.7371948e-08 	0.00032424546
0.98913043 	0.0018491299 	0.00085991686 	-1.0200002e-08 	0.001848833 	-2.240637e-08 	0.00020870895
