0.4742268 	0.24648053 	-0.00011413335 	4.0109507e-07
0.48453608 	0.85705492 	0.0005421756 	5.9267017e-09
0.49484536 	1.2858428 	0.0017438107 	4.1042478e-06
0.50515464 	1.458553 	0.0023414322 	1.1553552e-07
0.51546392 	1.4922878 	0.0023598629 	-4.6668966e-07
0.5257732 	1.4945769 	0.0022185663 	-2.0446012e-06
0.53608247 	1.4914079 	0.0020527138 	-9.403726e-07
0.54639175 	1.4874578 	0.0018889142 	-3.2296365e-07
0.55670103 	1.4831929 	0.0017261295 	-2.6700613e-07
0.56701031 	1.4786829 	0.0015657716 	-7.6041699e-07
0.57731959 	1.4740088 	0.0014071173 	-1.793006e-06
0.58762887 	1.4692533 	0.0012507433 	-2.6430507e-06
0.59793814 	1.4644912 	0.0010962555 	-7.5602329e-07
0.60824742 	1.4597842 	0.00094991501 	2.5875772e-06
0.6185567 	1.4552402 	0.00080085216 	-1.1391954e-06
0.62886598 	1.4508327 	0.00065305112 	-2.2016869e-06
0.63917526 	1.4465327 	0.00051035437 	1.5314706e-06
0.64948454 	1.4423944 	0.00036962539 	-1.7070579e-06
0.65979381 	1.4382986 	0.00022884777 	-9.1182612e-07
0.67010309 	1.4341857 	9.393586e-05 	6.6729137e-09
0.68041237 	1.4299501 	-4.3710711e-05 	-2.2065261e-06
0.69072165 	1.4255021 	-0.00017400471 	6.8118721e-07
0.70103093 	1.4206607 	-0.00030365581 	-2.7291161e-06
0.71134021 	1.4154205 	-0.00043329568 	6.5827267e-07
0.72164948 	1.4095756 	-0.00055759731 	-2.1934832e-06
0.73195876 	1.4033073 	-0.00066812379 	2.166387e-07
0.74226804 	1.3958044 	-0.00075584935 	-8.5905629e-07
0.75257732 	1.3875293 	-0.00082396208 	-1.7872568e-07
0.7628866 	1.3772151 	-0.00083600093 	5.1337867e-07
0.77319588 	1.3657071 	-0.00079539181 	2.0951507e-07
0.78350515 	1.3531328 	-0.00069064012 	8.311404e-07
0.79381443 	1.3420849 	-0.00062637918 	8.2743933e-08
0.80412371 	1.3340295 	-0.00064726811 	-2.9570709e-07
0.81443299 	1.3271487 	-0.00068065738 	9.4591707e-07
0.82474227 	1.3213885 	-0.00073476679 	-6.9973629e-07
0.83505155 	1.3157528 	-0.00078803793 	-1.2387154e-07
0.84536082 	1.3100276 	-0.00083440776 	2.3839397e-07
0.8556701 	1.303951 	-0.00087625402 	-4.130911e-07
0.86597938 	1.2974989 	-0.00090944658 	-9.4836075e-08
0.87628866 	1.290502 	-0.00093092108 	4.2395605e-07
0.88659794 	1.2826376 	-0.00093890316 	1.5978211e-07
0.89690722 	1.2736574 	-0.00093103909 	1.1337884e-07
0.90721649 	1.2632439 	-0.00090545537 	3.8213797e-07
0.91752577 	1.2508509 	-0.0008592111 	6.3182894e-07
0.92783505 	1.235589 	-0.00078769118 	6.8278595e-07
0.93814433 	1.2161225 	-0.00068510599 	3.0476868e-07
0.94845361 	1.1904202 	-0.00054834201 	3.4960217e-07
0.95876289 	1.1558055 	-0.00038696938 	6.3444242e-07
0.96907216 	1.1080834 	-0.00022320004 	1.5373453e-07
0.97938144 	1.0348842 	-8.246374e-05 	1.7930093e-07
0.98969072 	0.87309885 	5.7500676e-06 	6.784575e-08
