0.47777778 	0.90031395 	-0.00018063952 	-1.0939832e-07
0.48888889 	1.1751634 	-0.00065007814 	-3.9961538e-07
0.5 	1.2656619 	-0.00076303197 	-1.0757499e-08
0.51111111 	1.3226182 	-0.000688477 	6.2290279e-07
0.52222222 	1.3630631 	-0.00051096077 	-8.336042e-08
0.53333333 	1.3932801 	-0.00025672099 	2.3554964e-06
0.54444444 	1.4165234 	1.3489269e-05 	2.6498568e-06
0.55555556 	1.4341615 	0.00028030816 	1.6244366e-06
0.56666667 	1.4471019 	0.00052484184 	1.3156506e-06
0.57777778 	1.456095 	0.00073484318 	1.544631e-06
0.58888889 	1.4616964 	0.00090246172 	1.8733439e-06
0.6 	1.4643917 	0.0010237432 	9.6654304e-07
0.61111111 	1.4647412 	0.0011011982 	4.914787e-08
0.62222222 	1.463141 	0.0011226412 	-1.1605361e-06
0.63333333 	1.4604252 	0.0011444574 	-1.7229665e-07
0.64444444 	1.4571482 	0.0011339954 	-5.0669589e-07
0.65555556 	1.4534892 	0.0010980193 	-1.279577e-06
0.66666667 	1.4495666 	0.001085065 	-6.5715907e-07
0.67777778 	1.4454263 	0.0010543348 	-3.1989855e-07
0.68888889 	1.4410315 	0.0010203916 	-8.204138e-08
0.7 	1.436177 	0.00098250068 	-9.582796e-07
0.71111111 	1.4307585 	0.00093644992 	-5.864688e-07
0.72222222 	1.4241728 	0.00089970572 	-1.3246878e-06
0.73333333 	1.4166959 	0.00084900625 	-6.6357725e-07
0.74444444 	1.4076098 	0.00081120943 	-1.2787867e-06
0.75555556 	1.3980315 	0.00076411314 	-6.7981978e-07
0.76666667 	1.3875581 	0.00073338545 	-1.1720838e-06
0.77777778 	1.3773953 	0.00069001525 	-1.0695924e-06
0.78888889 	1.3677889 	0.00066312248 	-8.9420629e-07
0.8 	1.3589547 	0.00062484346 	-4.9118388e-08
0.81111111 	1.3505712 	0.00058424212 	-1.6494483e-07
0.82222222 	1.3420893 	0.00054560088 	-8.7553841e-07
0.83333333 	1.3331652 	0.00050549837 	-2.6739607e-07
0.84444444 	1.3234767 	0.00047255722 	-4.866277e-08
0.85555556 	1.3129931 	0.00044333876 	-5.411961e-07
0.86666667 	1.3016897 	0.00041696963 	-3.2288202e-07
0.87777778 	1.289375 	0.00039310229 	-2.9428568e-08
0.88888889 	1.2757828 	0.00036730941 	-4.1261978e-07
0.9 	1.2606921 	0.00034391847 	-5.5547992e-07
0.91111111 	1.2438363 	0.00032084696 	-5.0873398e-07
0.92222222 	1.2248394 	0.00029639777 	-2.8043817e-07
0.93333333 	1.2030478 	0.00026816716 	-9.8330764e-08
0.94444444 	1.1773678 	0.00023215544 	-4.6614978e-07
0.95555556 	1.1461784 	0.00019073372 	-5.5305812e-08
0.96666667 	1.1052002 	0.00014473662 	-3.0205619e-07
0.97777778 	1.0423597 	9.2082953e-05 	-7.152839e-08
0.98888889 	0.90385051 	4.0612871e-05 	-6.4357121e-08
