0.4709558481 	0.0001344825865 	-5.744850867e-06 	4.920524139e-10 	0.0001342262751 	-8.617071626e-09 	2.558725866e-07
0.4720092239 	0.009934297914 	-0.002104036296 	1.426400097e-07 	0.009914876078 	-5.860493429e-07 	1.89005095e-05
0.4730625996 	0.04398217398 	-0.01142436163 	4.597684742e-07 	0.04389292256 	-1.701841027e-06 	8.36721098e-05
0.4741159754 	0.07544157055 	-0.02036303217 	6.148614677e-07 	0.07528179723 	-2.232857681e-06 	0.000143508029
0.4751693511 	0.08529569515 	-0.02261427437 	5.792742242e-07 	0.08510382614 	-2.166439161e-06 	0.000162231546
0.4762227269 	0.08989045226 	-0.02381754033 	5.537658471e-07 	0.089672134 	-2.04308389e-06 	0.0001709400105
0.4778443634 	0.09213094905 	-0.02445312887 	5.158678174e-07 	0.09188425677 	-1.849457967e-06 	0.0001751569313
0.4796765386 	0.09227147551 	-0.02434750417 	4.546520553e-07 	0.09199508052 	-1.574257014e-06 	0.0001753681922
0.4817465869 	0.0912861184 	-0.02409861155 	3.795319902e-07 	0.09097779339 	-1.232371644e-06 	0.0001734289602
0.4840853915 	0.08951640961 	-0.02367832168 	2.870433073e-07 	0.08917332039 	-8.185480111e-07 	0.0001699891331
0.4867278453 	0.087100472 	-0.02310635337 	1.741439121e-07 	0.0867196661 	-3.259389646e-07 	0.0001653117861
0.4897133715 	0.08409340628 	-0.02238649301 	3.763806089e-08 	0.08367227391 	2.507187062e-07 	0.0001595026096
0.4930865115 	0.08051580224 	-0.02151438768 	-1.25432305e-07 	0.08005251401 	9.113870269e-07 	0.0001526023411
0.4968975894 	0.07638041557 	-0.02048171787 	-3.1702097e-07 	0.07587438691 	1.645334066e-06 	0.0001446376697
0.5012034633 	0.07171322355 	-0.01927081351 	-5.373561999e-07 	0.07116574863 	2.423698713e-06 	0.0001356616964
0.506068373 	0.06610903243 	-0.01781078772 	-8.056597033e-07 	0.06552068044 	3.255276967e-06 	0.0001249006274
0.5134203412 	0.05939095371 	-0.01591001152 	-1.117915827e-06 	0.05876889488 	4.009580376e-06 	0.0001120298476
0.5212948542 	0.05256374943 	-0.01372502903 	-1.413075844e-06 	0.05192760236 	4.385337615e-06 	9.898844263e-05
0.529729052 	0.04655065364 	-0.01155328111 	-1.645006356e-06 	0.04592421043 	4.229881625e-06 	8.754430905e-05
0.5387627144 	0.04163790751 	-0.009429664841 	-1.802238951e-06 	0.04104453299 	3.587503898e-06 	7.824228762e-05
0.5484384488 	0.03794687917 	-0.007391852144 	-1.89036754e-06 	0.0374081327 	2.616155021e-06 	7.131029799e-05
0.5588018907 	0.03543471164 	-0.005460190212 	-1.924494917e-06 	0.03496972055 	1.517564903e-06 	6.66620067e-05
0.5699019192 	0.03394348572 	-0.003643352776 	-1.918300586e-06 	0.03356858253 	4.606643227e-07 	6.39910482e-05
0.5817908876 	0.03326822239 	-0.001942537884 	-1.883152699e-06 	0.03299688312 	-4.568755751e-07 	6.290123024e-05
0.5945248701 	0.03320994412 	-0.0003546793559 	-1.828057223e-06 	0.03305282138 	-1.201478856e-06 	6.300786411e-05
0.6081639266 	0.03360087426 	0.001124883983 	-1.759281918e-06 	0.03356575424 	-1.776755221e-06 	6.39856567e-05
0.6227723857 	0.03430877119 	0.002500643942 	-1.68026029e-06 	0.03440041607 	-2.20020293e-06 	6.557675414e-05
0.638419148 	0.03523138172 	0.003775821845 	-1.591973835e-06 	0.035451241 	-2.490235055e-06 	6.757991851e-05
0.6551780116 	0.03628871393 	0.004952057658 	-1.493689776e-06 	0.03663450483 	-2.661263259e-06 	6.983554824e-05
0.6731280194 	0.03741672134 	0.006029811175 	-1.383530217e-06 	0.03788188618 	-2.722831274e-06 	7.221340378e-05
0.6923538328 	0.03856354734 	0.007009301165 	-1.258586843e-06 	0.03913658237 	-2.679925186e-06 	7.460520345e-05
0.7129461301 	0.03968862313 	0.007891962541 	-1.114562203e-06 	0.04035217841 	-2.532867877e-06 	7.692246736e-05
0.7350020349 	0.04074772601 	0.008669680879 	-9.482808116e-07 	0.04147664058 	-2.281099293e-06 	7.906600478e-05
0.7570579485 	0.04169089312 	0.009323002489 	-7.63393581e-07 	0.04245248877 	-1.936455906e-06 	8.092624266e-05
0.7776502527 	0.0425112341 	0.00985790202 	-5.666103062e-07 	0.04327148558 	-1.520737784e-06 	8.248747821e-05
0.7968760713 	0.04325655373 	0.0103110884 	-3.605546773e-07 	0.04398508766 	-1.046490175e-06 	8.38478021e-05
0.814826083 	0.04398937333 	0.01072059587 	-1.465308105e-07 	0.04466023073 	-5.178071413e-07 	8.513481245e-05
0.831584949 	0.04476886216 	0.01111708076 	7.24748081e-08 	0.04536061282 	6.132971517e-08 	8.646993537e-05
0.8472317127 	0.04565045409 	0.0115253312 	2.917475555e-07 	0.04614659407 	6.846500887e-07 	8.796823408e-05
0.8618401721 	0.04668555459 	0.01196499554 	5.048835703e-07 	0.04707499471 	1.341507718e-06 	8.973802373e-05
0.8754792281 	0.04792081278 	0.01245079816 	7.039602731e-07 	0.04819828066 	2.014906433e-06 	9.187931896e-05
0.8882132094 	0.04939655512 	0.01299243927 	8.799077216e-07 	0.04956273921 	2.679810342e-06 	9.448035619e-05
0.9001021759 	0.05114409716 	0.01359434629 	1.023157717e-06 	0.05120540605 	3.302328149e-06 	9.761173573e-05
0.9112022019 	0.05318191211 	0.01425544871 	1.124617771e-06 	0.05314979452 	3.840691413e-06 	0.0001013182806
0.9215656407 	0.05551107236 	0.01496916664 	1.176936621e-06 	0.05540092443 	4.248932611e-06 	0.0001056095599
0.9312413717 	0.05811087604 	0.01572381073 	1.175899579e-06 	0.05794063012 	4.483544306e-06 	0.0001104509448
0.9402750304 	0.06093580259 	0.01650356491 	1.121650474e-06 	0.06072433399 	4.512153293e-06 	0.000115757458
0.9487092242 	0.0639144104 	0.01729016349 	1.019355544e-06 	0.06367993774 	4.321880333e-06 	0.0001213916603
0.9565837329 	0.06694883964 	0.01808140436 	8.787633845e-07 	0.06670753197 	3.924519879e-06 	0.0001271630963
0.9639356968 	0.06969650344 	0.01870641621 	7.240804366e-07 	0.06946060569 	3.401115832e-06 	0.00013241122
0.9688006083 	0.07185285119 	0.01915019694 	5.877451401e-07 	0.07162785241 	2.885404398e-06 	0.0001365425946
0.9731064834 	0.07357533777 	0.01954138563 	4.737583576e-07 	0.07336226716 	2.414216168e-06 	0.0001398488712
0.976917562 	0.07502681003 	0.01985412687 	3.731994312e-07 	0.07482577286 	1.969628579e-06 	0.0001426387198
0.9802907021 	0.07619428982 	0.02009860336 	2.870332149e-07 	0.07600445656 	1.565717821e-06 	0.0001448856185
0.9832762282 	0.07705967899 	0.02027462253 	2.150038126e-07 	0.07687974808 	1.209624335e-06 	0.0001465541675
0.9859186816 	0.07758843228 	0.02037802338 	1.559931808e-07 	0.07741698779 	9.035031457e-07 	0.0001475782957
0.9882574856 	0.07770976094 	0.02039697905 	1.08452108e-07 	0.07754557633 	6.462603062e-07 	0.0001478234212
0.990327533 	0.07727415763 	0.02030421311 	7.07053831e-08 	0.07711649153 	4.349969559e-07 	0.0001470054663
0.9921597073 	0.07594310769 	0.02010843067 	4.215054499e-08 	0.07579213124 	2.663140828e-07 	0.0001444808675
0.9937813429 	0.07287025102 	0.01930333016 	2.046980766e-08 	0.07272792945 	1.430218239e-07 	0.0001386396472
0.9948347186 	0.06777269165 	0.01799207457 	5.068981105e-09 	0.06764175901 	5.987828103e-08 	0.0001289439927
0.9958880943 	0.05776801094 	0.0155267172 	-5.805974278e-09 	0.05765715422 	6.856610256e-10 	0.0001099105609
0.9969414701 	0.03119503056 	0.007987576241 	-7.850398136e-09 	0.03113540116 	-1.987054484e-08 	5.935272826e-05
0.9979948458 	0.005900467594 	0.00114801096 	-2.337366579e-09 	0.005889222989 	-7.700253308e-09 	1.122649584e-05
0.9990482216 	8.431800723e-05 	2.966521862e-06 	-7.763715858e-12 	8.415756665e-05 	-1.148140567e-10 	1.604277124e-07
0.9990482216 	8.431800723e-05 	2.966521862e-06 	-7.763715858e-12 	8.415756665e-05 	-1.148140567e-10 	1.604277124e-07
