0.4709558481 	0.2194888142 	1.114770499e-07 	-7.695471221e-11
0.4720092239 	0.802051665 	1.088345875e-05 	-4.363148405e-09
0.4730625996 	1.390474689 	3.646901295e-05 	-1.436641207e-08
0.4741159754 	1.708491453 	6.657475314e-05 	-2.603232494e-08
0.4751693511 	1.888131843 	9.801073115e-05 	-3.823131547e-08
0.4762227269 	2.022265366 	0.0001358325589 	-5.297300041e-08
0.4778443634 	2.142943447 	0.0001865745039 	-7.282657173e-08
0.4796765386 	2.247204764 	0.0002501292106 	-9.78020132e-08
0.4817465869 	2.336128536 	0.0003247528616 	-1.272626006e-07
0.4840853915 	2.414733818 	0.0004119519401 	-1.61838067e-07
0.4867278453 	2.485983046 	0.0005135826061 	-2.022837921e-07
0.4897133715 	2.551732318 	0.000631668711 	-2.493890149e-07
0.4930865115 	2.613178266 	0.0007683551907 	-3.039191919e-07
0.4968975894 	2.671084031 	0.0009257958714 	-3.665073507e-07
0.5012034633 	2.725897226 	0.001106089959 	-4.375371816e-07
0.506068373 	2.782275072 	0.001330242582 	-5.242913703e-07
0.5134203412 	2.840975854 	0.001614044183 	-6.300001356e-07
0.5212948542 	2.894222225 	0.001927035221 	-7.387379337e-07
0.529729052 	2.938617225 	0.002237213878 	-8.34783399e-07
0.5387627144 	2.975002104 	0.002531481558 	-9.109821408e-07
0.5484384488 	3.004051979 	0.002796549988 	-9.62614028e-07
0.5588018907 	3.026453716 	0.003020632617 	-9.88706336e-07
0.5699019192 	3.042970225 	0.003195138052 	-9.920687048e-07
0.5817908876 	3.05441327 	0.003315355896 	-9.777627846e-07
0.5945248701 	3.061566393 	0.00337994025 	-9.509383309e-07
0.6081639266 	3.065108227 	0.003389658446 	-9.153244942e-07
0.6227723857 	3.065566907 	0.003346098003 	-8.728031215e-07
0.638419148 	3.063309055 	0.003250779274 	-8.237201114e-07
0.6551780116 	3.058550598 	0.003104772692 	-7.674200911e-07
0.6731280194 	3.051373862 	0.00290872739 	-7.026866361e-07
0.6923538328 	3.041739063 	0.002663193751 	-6.27998976e-07
0.7129461301 	3.029481478 	0.002369183022 	-5.416260532e-07
0.7350020349 	3.014560858 	0.002035083105 	-4.433769027e-07
0.7570579485 	2.99756583 	0.00168610544 	-3.375831224e-07
0.7776502527 	2.979338369 	0.001350479646 	-2.303226695e-07
0.7968760713 	2.960190386 	0.001042156448 	-1.249126999e-07
0.814826083 	2.940063614 	0.0007667007022 	-2.329540592e-08
0.831584949 	2.918828387 	0.0005277598158 	7.221097725e-08
0.8472317127 	2.896301439 	0.0003273293748 	1.589738218e-07
0.8618401721 	2.872258213 	0.0001658842512 	2.342066633e-07
0.8754792281 	2.846442117 	4.24494495e-05 	2.952248518e-07
0.8882132094 	2.818571398 	-4.532840461e-05 	3.397755775e-07
0.9001021759 	2.788342884 	-0.0001010582539 	3.663963878e-07
0.9112022019 	2.755430529 	-0.0001293952927 	3.747295073e-07
0.9215656407 	2.719475378 	-0.0001357339904 	3.657073798e-07
0.9312413717 	2.680062088 	-0.0001258219567 	3.415422823e-07
0.9402750304 	2.636674923 	-0.0001053376107 	3.054989224e-07
0.9487092242 	2.58862143 	-7.948047016e-05 	2.614879748e-07
0.9565837329 	2.534901103 	-5.264332897e-05 	2.136024929e-07
0.9639356968 	2.478449199 	-2.989550904e-05 	1.690334092e-07
0.9688006083 	2.425759428 	-1.421173635e-05 	1.341031495e-07
0.9731064834 	2.375302256 	-3.741886479e-06 	1.068335489e-07
0.976917562 	2.322477942 	3.468567672e-06 	8.400306535e-08
0.9802907021 	2.266692625 	7.988179883e-06 	6.521254524e-08
0.9832762282 	2.207102795 	1.03809525e-05 	4.997296828e-08
0.9859186816 	2.142491128 	1.117403264e-05 	3.775667457e-08
0.9882574856 	2.071041897 	1.082480172e-05 	2.805225908e-08
0.990327533 	1.989907867 	9.709865095e-06 	2.039391437e-08
0.9921597073 	1.894298391 	8.130864125e-06 	1.439074712e-08
0.9937813429 	1.782942624 	6.433657245e-06 	9.97513015e-09
0.9948347186 	1.658312084 	4.898848553e-06 	6.927128213e-09
0.9958880943 	1.490151816 	3.447226203e-06 	4.53941543e-09
0.9969414701 	1.194839551 	1.93025635e-06 	2.373551058e-09
0.9979948458 	0.6761555006 	5.86921001e-07 	6.596729591e-10
0.9990482216 	0.1999756046 	1.067667012e-08 	-7.385402774e-12
0.9990482216 	0.1999756046 	1.067667012e-08 	-7.385402774e-12
