0 	0.06556017155 	-4.452513047e-15 	-1.618370644e-21 	3.023920158e-28 	1.099114941e-34 	3.994991898e-41
0.001897455474 	0.06553001212 	-0.0003457541319 	1.60725669e-07 	0.0725487073 	-9.882549101e-06 	0.000138298
0.003794892374 	0.06554434489 	-0.0008886883041 	5.665019906e-07 	0.072850304 	-9.997830578e-06 	0.0001388729271
0.005692310628 	0.06561316372 	-0.001337896893 	8.49520352e-07 	0.07292801099 	-9.943610267e-06 	0.0001390210582
0.007589710222 	0.06567736883 	-0.001781931893 	1.116564952e-06 	0.07302041813 	-9.909384552e-06 	0.0001391972119
0.009487091198 	0.06578265925 	-0.002286590675 	1.410003288e-06 	0.07312157947 	-9.898710579e-06 	0.0001393900536
0.01240800929 	0.06595640712 	-0.002931577016 	1.762132448e-06 	0.07328339502 	-9.884069953e-06 	0.000139698519
0.01570810102 	0.06621837876 	-0.003700420558 	2.159624814e-06 	0.07353150825 	-9.93850083e-06 	0.0001401714918
0.01943658229 	0.0665846449 	-0.004565905353 	2.575197364e-06 	0.0738766727 	-1.006212063e-05 	0.0001408294711
0.02367094077 	0.06708565439 	-0.005537833106 	2.999220876e-06 	0.07434746828 	-1.024720609e-05 	0.0001417269384
0.02846027043 	0.06775685407 	-0.006624545095 	3.42006641e-06 	0.07497637682 	-1.051696086e-05 	0.0001429258128
0.03387129226 	0.06863828767 	-0.007833991343 	3.822450501e-06 	0.07579996115 	-1.086779433e-05 	0.0001444957935
0.03998469373 	0.06977638848 	-0.009174333075 	4.186935901e-06 	0.0768598147 	-1.127756972e-05 	0.0001465161689
0.04692959072 	0.07121986323 	-0.01065231189 	4.485324645e-06 	0.07819808254 	-1.168303571e-05 	0.0001490672794
0.05477825357 	0.07301038471 	-0.01226535363 	4.688007143e-06 	0.07984840182 	-1.202611807e-05 	0.0001522132466
0.06366252918 	0.07539881281 	-0.01415832397 	4.796108636e-06 	0.08202751898 	-1.23157416e-05 	0.0001563672496
0.07713370694 	0.07858215443 	-0.01642512903 	4.569845872e-06 	0.08489090491 	-1.187071144e-05 	0.000161825659
0.09161486344 	0.08217567225 	-0.01877757433 	4.086757824e-06 	0.08805154796 	-1.077857025e-05 	0.0001678507231
0.1071709409 	0.08569410978 	-0.0209528718 	3.320108887e-06 	0.09102745366 	-8.881659351e-06 	0.0001735236265
0.1238870721 	0.08879447149 	-0.02285274972 	2.337718939e-06 	0.09346954693 	-6.315176403e-06 	0.000178178935
0.1418521582 	0.09107480917 	-0.02435938778 	1.251674488e-06 	0.09497946414 	-3.397483671e-06 	0.0001810572568
0.1611593353 	0.09209130802 	-0.02533676834 	2.236004435e-07 	0.09513314013 	-6.080071356e-07 	0.000181350206
0.1663236545 	0.09191988396 	-0.0254125503 	3.237088638e-05 	0.09473440876 	-0.0001511378558 	0.0001805901132
0.1819064892 	0.09139348337 	-0.0256370958 	4.938007036e-07 	0.09352188235 	-1.419636529e-06 	0.0001782787008
0.2041968131 	0.08860005669 	-0.02512267395 	6.880252269e-07 	0.08982884216 	-2.15566613e-06 	0.0001712387398
0.2281394077 	0.08351978174 	-0.02370573278 	2.806754928e-07 	0.08394751429 	-1.530564423e-06 	0.0001600272942
0.2538499191 	0.07631486094 	-0.02141061411 	-5.619574612e-07 	0.07612688247 	-1.403181707e-07 	0.0001451189964
0.2814521981 	0.067638605 	-0.0184357227 	-1.375785784e-06 	0.06707452147 	8.022375194e-07 	0.0001278626803
0.3110878587 	0.05857488819 	-0.01514491838 	-1.638735625e-06 	0.05786185078 	1.849191841e-07 	0.0001103007695
0.3428858929 	0.0502644344 	-0.01193609337 	-1.185184181e-06 	0.04955075598 	-2.042386823e-06 	9.445751282e-05
0.3770024796 	0.04344257739 	-0.009060007773 	-3.08391371e-07 	0.04277704564 	-4.80499579e-06 	8.154493826e-05
0.4135933852 	0.0382966158 	-0.006553643642 	5.653520679e-07 	0.03765734239 	-6.911124385e-06 	7.178536092e-05
0.4528269635 	0.03470220449 	-0.004305306553 	1.186186449e-06 	0.03403843619 	-7.83777625e-06 	6.488671987e-05
0.4948837842 	0.03253801379 	-0.002177712125 	1.527288505e-06 	0.03179901815 	-7.663750952e-06 	6.061776668e-05
0.5369652409 	0.03173461868 	-0.0001326304964 	1.681714981e-06 	0.03088696842 	-6.721462468e-06 	5.88791464e-05
0.5762689992 	0.03210776961 	0.001817819102 	1.768993851e-06 	0.03114145633 	-5.371779354e-06 	5.936427108e-05
0.6129728545 	0.03343105682 	0.003692711526 	1.864398905e-06 	0.0323536386 	-3.831396519e-06 	6.16750274e-05
0.647245611 	0.03553000884 	0.0055118469 	1.982947324e-06 	0.03435868107 	-2.206036174e-06 	6.549719563e-05
0.6792465651 	0.0382690888 	0.007283668553 	2.093581521e-06 	0.03702544911 	-5.805356988e-07 	7.058079669e-05
0.7091254687 	0.04152731099 	0.009005439866 	2.136236802e-06 	0.04023649374 	9.232869436e-07 	7.670194022e-05
0.7370223283 	0.04517434836 	0.01066109065 	2.04282141e-06 	0.04386624919 	2.125675065e-06 	8.362126295e-05
0.7630684005 	0.04905730923 	0.01222319547 	1.75585846e-06 	0.0477673207 	2.809612443e-06 	9.105778949e-05
0.7873862966 	0.05299770491 	0.0136560057 	1.241945254e-06 	0.05176609687 	2.767344253e-06 	9.868056827e-05
0.8100905866 	0.05679640285 	0.01491904862 	4.99212073e-07 	0.05566632444 	1.855371637e-06 	0.000106115486
0.8312882979 	0.06024511617 	0.01597111786 	-4.408016968e-07 	0.05925944549 	4.106448491e-08 	0.0001129649734
0.8510793781 	0.06314247494 	0.01677441873 	-1.515196657e-06 	0.06233979166 	-2.571884898e-06 	0.0001188369693
0.8695571553 	0.06531177709 	0.01729870833 	-2.634941634e-06 	0.06472178389 	-5.74619218e-06 	0.0001233777086
0.8868087717 	0.06661674401 	0.01752515906 	-3.693362594e-06 	0.06625548836 	-9.141735221e-06 	0.0001263013756
0.9029155904 	0.0669713343 	0.01744955878 	-4.577804462e-06 	0.06683679162 	-1.236701654e-05 	0.0001274095012
0.9179535776 	0.06633970392 	0.01709192135 	-5.183312321e-06 	0.06640961602 	-1.503909015e-05 	0.0001265951857
0.931993659 	0.06486306849 	0.0164839768 	-5.441115199e-06 	0.06508600734 	-1.673891808e-05 	0.0001240720197
0.9412842046 	0.06302233201 	0.01581027059 	-5.386380592e-06 	0.06333215012 	-1.742517801e-05 	0.0001207286804
0.9495071555 	0.06104818235 	0.01516939778 	-5.117603887e-06 	0.06139539331 	-1.742277388e-05 	0.0001170366836
0.9567851912 	0.05889319382 	0.01451360052 	-4.699923649e-06 	0.05924310628 	-1.689740236e-05 	0.0001129338263
0.9632268937 	0.0566256093 	0.01387116431 	-4.176248108e-06 	0.05695059234 	-1.593381432e-05 	0.0001085636576
0.9689283675 	0.054293977 	0.01325904613 	-3.586002425e-06 	0.05457392577 	-1.460496609e-05 	0.0001040330705
0.973974674 	0.05192868293 	0.01268715753 	-2.963950067e-06 	0.0521511643 	-1.296950141e-05 	9.941461382e-05
0.9784410995 	0.04954106918 	0.01215843763 	-2.339895806e-06 	0.04970092343 	-1.107366448e-05 	9.474377372e-05
0.9823942794 	0.04711489873 	0.01166756526 	-1.738761497e-06 	0.04721325135 	-8.958008838e-06 	9.000157931e-05
0.9858931917 	0.04457373429 	0.01124429484 	-1.18616954e-06 	0.04461689989 	-6.671596725e-06 	8.505221181e-05
0.9889900372 	0.0417281814 	0.01063037722 	-7.094306557e-07 	0.04172825717 	-4.442846531e-06 	7.954565594e-05
0.991001674 	0.03858857525 	0.009930392997 	-3.265634509e-07 	0.03856105249 	-2.480728101e-06 	7.350808353e-05
0.9930133109 	0.03390621092 	0.009029374154 	3.902056554e-08 	0.03386492945 	-6.428855596e-07 	6.45559678e-05
0.9950249478 	0.01925832616 	0.005009649332 	1.98720786e-07 	0.01922897831 	3.969969281e-07 	3.665577707e-05
0.9970365847 	0.003868707308 	0.000810207969 	7.991008719e-08 	0.003861862111 	2.575885766e-07 	7.361782532e-06
0.9990482216 	3.041021298e-05 	9.685149912e-07 	1.359663704e-10 	3.035253356e-05 	2.22157102e-09 	5.786036501e-08
0.9990482216 	3.041021298e-05 	9.685149912e-07 	1.359663704e-10 	3.035253356e-05 	2.22157102e-09 	5.786036501e-08
