0.3359950097 	0.3001548785 	0.05328232821 	-0.0002210269958
0.3359950097 	0.3001548785 	0.05328232821 	-0.0002210269958
0.3371488821 	1.041342064 	0.1822480641 	-0.0007210397567
0.3383029084 	1.699216229 	0.2949965926 	-0.001122348845
0.339456909 	2.014234246 	0.348484059 	-0.001313064528
0.3406107058 	2.195797497 	0.3788052845 	-0.001438057754
0.3417641219 	2.3366816 	0.4018646071 	-0.0015184254
0.3435386191 	2.464050339 	0.4220784901 	-0.00154131271
0.345541121 	2.570196218 	0.438094601 	-0.001533725117
0.3477994817 	2.65358295 	0.449673474 	-0.001495804016
0.3503442295 	2.718646903 	0.4574762533 	-0.001430279481
0.3532733514 	2.767752979 	0.4617853853 	-0.001340347984
0.356598976 	2.802477204 	0.4628395254 	-0.001236471794
0.3603444458 	2.825568 	0.4611448695 	-0.001127789228
0.3645614832 	2.840516254 	0.4572781893 	-0.001016262737
0.3694015871 	2.85001903 	0.4516191781 	-0.0008990188037
0.3748927519 	2.855928542 	0.4437226144 	-0.0007743726469
0.3832077724 	2.858523777 	0.4328532722 	-0.0006095149933
0.3922194226 	2.85745047 	0.4200442681 	-0.0004499896248
0.4019645111 	2.853594388 	0.4063035169 	-0.0003004989816
0.41246846 	2.84764087 	0.3918067039 	-0.0001635974204
0.4238250473 	2.839951008 	0.3766746874 	-4.011278969e-05
0.4281449265 	2.836648067 	0.3711430016 	-0.0003686241944
0.4360921644 	2.830405314 	0.3610110791 	-6.453295982e-05
0.4493258187 	2.818762121 	0.3446002212 	-0.0001515914464
0.4636467224 	2.805088848 	0.3274384202 	-0.0002217716436
0.479142112 	2.78980678 	0.3098093277 	-0.0002767777412
0.495937783 	2.77325909 	0.2918851776 	-0.0003176246834
0.5140945125 	2.75550848 	0.2737418226 	-0.000343163168
0.5336915725 	2.736454665 	0.2554288161 	-0.0003534655952
0.5548794993 	2.715957127 	0.2369831228 	-0.0003501996012
0.577708027 	2.693902454 	0.2184705816 	-0.0003353654874
0.6022888803 	2.670180727 	0.1999315299 	-0.0003115197371
0.6287248958 	2.644705752 	0.1813789571 	-0.0002621552459
0.6571183725 	2.61777759 	0.1632087541 	-0.0002138591641
0.6855585609 	2.590206275 	0.1462458346 	-0.0001786046315
0.7121365164 	2.562630758 	0.1309880006 	-0.0001524310583
0.7369645634 	2.535264192 	0.1174107873 	-0.0001318390042
0.7601541182 	2.508228171 	0.1052831832 	-0.0001158409549
0.781812674 	2.481582804 	0.09437325637 	-0.0001029794426
0.8020426129 	2.455311641 	0.08451178815 	-9.2305273e-05
0.8209384831 	2.429351579 	0.07555959342 	-8.322602225e-05
0.8385893071 	2.403611703 	0.06739943787 	-7.202044383e-05
0.8550774756 	2.377979849 	0.05993332087 	-6.230965175e-05
0.8704799455 	2.352320643 	0.05307870023 	-5.401057982e-05
0.8848682824 	2.326467319 	0.04676613219 	-4.686891926e-05
0.898309154 	2.300207722 	0.04093689943 	-4.067713093e-05
0.9108647908 	2.273262055 	0.03554104736 	-3.526359032e-05
0.922593274 	2.245247257 	0.03053596245 	-3.048423674e-05
0.9335488469 	2.215617166 	0.02588511401 	-2.621763384e-05
0.9437821903 	2.183556216 	0.0215605691 	-2.236153555e-05
0.9533406678 	2.150393303 	0.01781027696 	-1.90178917e-05
0.9596679154 	2.119433136 	0.01489935408 	-1.644976174e-05
0.9652695907 	2.089351529 	0.01255623675 	-1.430783368e-05
0.9702287469 	2.057081655 	0.01049702536 	-1.236142604e-05
0.9746189643 	2.021844392 	0.008691530612 	-1.057781796e-05
0.9785054204 	1.982641459 	0.007114524215 	-8.934763217e-06
0.9819458465 	1.93814883 	0.005743429871 	-7.420146878e-06
0.9849913737 	1.886526709 	0.004557536113 	-6.02969772e-06
0.9876872839 	1.825048773 	0.003537181837 	-4.76441689e-06
0.9900736765 	1.749306796 	0.002664317504 	-3.629795129e-06
0.9921860593 	1.657717292 	0.00196406882 	-2.686736764e-06
0.9935583211 	1.552458975 	0.001439596117 	-1.967765408e-06
0.9949306682 	1.407313911 	0.0009984443267 	-1.361493364e-06
0.9963031006 	1.144454337 	0.0005367053119 	-7.419467913e-07
0.9976756184 	0.6610181458 	-0.0001121992435 	2.810922569e-08
0.9990482216 	0.196194707 	-0.0002875645162 	2.634729424e-07
