9.3321304e-34 	0.05577847819 	-3.753514127e-15 	-1.515368593e-18 	-1.062765598e-14 	4.64013481e-16 	-2.02592661e-17
0.00192775434 	0.05575889809 	-0.0001965069343 	7.38224251e-08 	0.05964564242 	-1.105935084e-05 	0.0001137011721
0.003855496009 	0.0557582323 	-0.0004563372639 	2.005643787e-07 	0.05980565681 	-1.097529039e-05 	0.000114006204
0.00578322496 	0.0557817103 	-0.0006840965069 	2.985979494e-07 	0.05983441562 	-1.084223221e-05 	0.0001140610263
0.00771094118 	0.05579650341 	-0.0009104569982 	3.92379099e-07 	0.05986547165 	-1.071160177e-05 	0.0001141202277
0.009638644701 	0.05582385563 	-0.001168564154 	4.964587609e-07 	0.05989137358 	-1.058223334e-05 	0.000114169604
0.01260625481 	0.05586943092 	-0.001498940118 	6.225903703e-07 	0.05993171723 	-1.03839178e-05 	0.0001142465102
0.01595911716 	0.05593839718 	-0.001893225618 	7.662881749e-07 	0.05999508589 	-1.01727764e-05 	0.0001143673085
0.01974724082 	0.05603522096 	-0.002337843914 	9.186614352e-07 	0.06008316282 	-9.947652376e-06 	0.0001145352076
0.02404205461 	0.05616843405 	-0.002838591639 	1.077411313e-06 	0.06020374378 	-9.696989122e-06 	0.0001147650684
0.02889802931 	0.05634851495 	-0.003401184903 	1.239906411e-06 	0.0603660914 	-9.431530067e-06 	0.0001150745481
0.03438438409 	0.05658801243 	-0.004031392127 	1.402224605e-06 	0.06058139733 	-9.151893349e-06 	0.000115484981
0.0405829431 	0.05690233461 	-0.004735472334 	1.559167259e-06 	0.06086320559 	-8.854563644e-06 	0.0001160221859
0.04761204351 	0.05730950022 	-0.00552002565 	1.702615008e-06 	0.06122705803 	-8.52290925e-06 	0.0001167157898
0.05555517351 	0.05782881002 	-0.006388802382 	1.823950547e-06 	0.06168933122 	-8.159954605e-06 	0.000117597011
0.06454090063 	0.05854772408 	-0.007432361396 	1.932073627e-06 	0.06232430998 	-7.774674093e-06 	0.000118807457
0.07815107649 	0.05956099223 	-0.008718148828 	1.946251193e-06 	0.0632117664 	-7.088904744e-06 	0.0001204991956
0.09276442112 	0.0607958201 	-0.01010725897 	1.878528843e-06 	0.06427952459 	-6.314986078e-06 	0.0001225346394
0.1084475675 	0.0621367686 	-0.01147710952 	1.70085104e-06 	0.065413405 	-5.39209317e-06 	0.0001246961306
0.1252825093 	0.06350415721 	-0.01279377419 	1.415736704e-06 	0.06652961004 	-4.298470216e-06 	0.0001268239277
0.1433555104 	0.06478589279 	-0.01401531289 	1.033519496e-06 	0.06751250246 	-3.036877828e-06 	0.0001286975938
0.162757545 	0.06583434188 	-0.01509078441 	5.742060754e-07 	0.06821277792 	-1.643299461e-06 	0.0001300325135
0.1835847774 	0.06646570279 	-0.01595941768 	6.924742676e-08 	0.06844787455 	-1.935968538e-07 	0.000130480673
0.1866078948 	0.06646536482 	-0.01603931967 	8.056152294e-06 	0.06838826825 	-5.20112989e-05 	0.0001303670468
0.2059390814 	0.06646301137 	-0.01655033295 	4.460629003e-07 	0.06800648963 	-1.207981923e-06 	0.0001296392707
0.2299285983 	0.065583169 	-0.01678230752 	9.003476165e-07 	0.06665757674 	-2.376803837e-06 	0.0001270678678
0.2556683305 	0.0635774464 	-0.01656728686 	1.22112277e-06 	0.06417273719 	-3.126932402e-06 	0.000122331073
0.2832814443 	0.06022950435 	-0.01581777409 	1.337255293e-06 	0.06036558787 	-3.298682653e-06 	0.0001150735882
0.3129059726 	0.0554277829 	-0.01446464723 	1.200689807e-06 	0.05516354009 	-2.829219142e-06 	0.0001051570393
0.3446742826 	0.04929944478 	-0.01249301234 	8.295402118e-07 	0.04873614575 	-1.867846234e-06 	9.290463931e-05
0.3787404413 	0.04237441351 	-0.009993531479 	3.573075772e-07 	0.0416442876 	-8.383296719e-07 	7.93855866e-05
0.4152616124 	0.03564259621 	-0.007194383809 	6.279300091e-09 	0.03487295647 	-2.686396283e-07 	6.647754747e-05
0.4544071642 	0.03029871359 	-0.004384522727 	-8.994431078e-08 	0.02956070785 	-3.701542167e-07 	5.635092514e-05
0.4963586739 	0.02728987406 	-0.001735350631 	1.264808977e-08 	0.02657827986 	-7.582150242e-07 	5.066558846e-05
0.5383269944 	0.02683040539 	0.0006959069531 	1.821552393e-07 	0.02610251312 	-8.930856614e-07 	4.975864482e-05
0.5775204243 	0.02830496051 	0.002894962884 	3.017580955e-07 	0.02753311733 	-7.043440868e-07 	5.248577406e-05
0.6141186481 	0.03094813668 	0.004887127068 	3.08511424e-07 	0.03013538236 	-4.450165881e-07 	5.744641448e-05
0.6482913416 	0.03422133888 	0.006691502125 	2.000354955e-07 	0.03339145128 	-3.299008211e-07 	6.365338681e-05
0.6801980766 	0.03776013922 	0.008306650351 	-4.992178489e-10 	0.03694574636 	-4.646378524e-07 	7.04288611e-05
0.7099885359 	0.0412979355 	0.009721702897 	-2.639802828e-07 	0.04053305661 	-8.71090013e-07 	7.726727147e-05
0.7378026005 	0.04462602947 	0.01092421367 	-5.608711246e-07 	0.04394150702 	-1.513093138e-06 	8.376472528e-05
0.763771238 	0.04758263071 	0.01190547378 	-8.632953461e-07 	0.04700329511 	-2.317687542e-06 	8.960134437e-05
0.7880167691 	0.05005224257 	0.01266323899 	-1.145971198e-06 	0.04959511443 	-3.193904788e-06 	9.454207234e-05
0.8106534623 	0.05196568374 	0.01320290923 	-1.387174695e-06 	0.05163892341 	-4.049067477e-06 	9.843814032e-05
0.8317880447 	0.05329707947 	0.01353759399 	-1.569838037e-06 	0.05309962495 	-4.801445231e-06 	0.0001012226434
0.8515201759 	0.0540572888 	0.01368730146 	-1.682501865e-06 	0.05397919779 	-5.388355868e-06 	0.0001028993537
0.8699429115 	0.05428477995 	0.01367752502 	-1.719783531e-06 	0.05430826982 	-5.769357829e-06 	0.0001035266565
0.8871431365 	0.05403548024 	0.01353754535 	-1.682208701e-06 	0.05413659729 	-5.925076136e-06 	0.0001031994009
0.9032019733 	0.05337293692 	0.01329879228 	-1.57548269e-06 	0.05352371023 	-5.852944686e-06 	0.0001020310678
0.918195162 	0.05235930639 	0.01300222642 	-1.408815695e-06 	0.05253032362 	-5.561555878e-06 	0.0001001373969
0.9321934175 	0.05114055106 	0.01264179659 	-1.213262489e-06 	0.05130530751 	-5.106449597e-06 	9.780217569e-05
0.9414562861 	0.04996722601 	0.01231172784 	-1.029218877e-06 	0.05011037947 	-4.605441465e-06 	9.552431072e-05
0.9496547406 	0.04888250239 	0.01206439489 	-8.60750733e-07 	0.04899786181 	-4.095236973e-06 	9.340354286e-05
0.9569110947 	0.04781618871 	0.01183626249 	-7.014452892e-07 	0.04790042853 	-3.557955032e-06 	9.131153001e-05
0.963333607 	0.046783622 	0.01163241069 	-5.550826117e-07 	0.04683650252 	-3.010116337e-06 	8.928339134e-05
0.9690180959 	0.04579107439 	0.01145077617 	-4.241289021e-07 	0.04581457055 	-2.466127957e-06 	8.733530497e-05
0.9740493692 	0.04483415838 	0.0112866728 	-3.097449631e-07 	0.04483171295 	-1.939222401e-06 	8.546170522e-05
0.9785024891 	0.04389264285 	0.01113241152 	-2.120514824e-07 	0.04386851738 	-1.44201256e-06 	8.362558675e-05
0.9824438922 	0.04291671849 	0.01097566835 	-1.303448455e-07 	0.04287547999 	-9.867419468e-07 	8.173258148e-05
0.9859323811 	0.04178783155 	0.01083768985 	-6.502084101e-08 	0.04173408672 	-5.855747777e-07 	7.955676867e-05
0.9890200009 	0.04018167775 	0.01045561077 	-1.469826179e-08 	0.04012056419 	-2.685661421e-07 	7.648094627e-05
0.9910256451 	0.03803224247 	0.009934651221 	2.306455653e-08 	0.03796863773 	-3.996039053e-08 	7.237877634e-05
0.9930312892 	0.03419908626 	0.009200587906 	5.627656005e-08 	0.03413852679 	1.371681205e-07 	6.507752038e-05
0.9950369333 	0.01984625076 	0.005204705838 	5.296208593e-08 	0.01980995455 	1.706712135e-07 	3.776327926e-05
0.9970425775 	0.004108187363 	0.0008743583884 	1.613206418e-08 	0.004100481903 	6.261224182e-08 	7.816658177e-06
0.9990482216 	3.251747597e-05 	1.072701304e-06 	2.718241832e-11 	3.245564658e-05 	5.79342652e-10 	6.186948296e-08
0.9990482216 	3.251747597e-05 	1.072701304e-06 	2.718241832e-11 	3.245564658e-05 	5.79342652e-10 	6.186948296e-08
