0.4709558481 	0.0001094001153 	-4.358443029e-06 	2.432445543e-10 	0.0001091918856 	-4.548309939e-09 	2.081500823e-07
0.4720092239 	0.008206577771 	-0.001688238291 	7.574911284e-08 	0.008190862821 	-3.174171185e-07 	1.561406107e-05
0.4730625996 	0.03878290935 	-0.01002538411 	2.673039683e-07 	0.03870794312 	-9.921038319e-07 	7.378809789e-05
0.4741159754 	0.06845505481 	-0.01844975732 	3.740173195e-07 	0.06832130074 	-1.36341387e-06 	0.0001302393881
0.4751693511 	0.07842857195 	-0.0207955052 	3.584115567e-07 	0.07827287821 	-1.352838297e-06 	0.0001492098607
0.4762227269 	0.08330439669 	-0.0220581763 	3.504338063e-07 	0.08313546216 	-1.312972275e-06 	0.0001584792972
0.4778443634 	0.08600677807 	-0.02278580035 	3.372634308e-07 	0.08582725518 	-1.244012469e-06 	0.0001636106028
0.4796765386 	0.08681820631 	-0.02283631763 	3.132187332e-07 	0.08663041337 	-1.142096135e-06 	0.0001651416456
0.4817465869 	0.08666610508 	-0.02277631013 	2.848741208e-07 	0.08647076004 	-1.016302171e-06 	0.0001648373019
0.4840853915 	0.08590115018 	-0.02258687021 	2.506430184e-07 	0.08569824396 	-8.658653635e-07 	0.0001633646716
0.4867278453 	0.08467704434 	-0.02229449569 	2.096175193e-07 	0.08446621046 	-6.88587966e-07 	0.0001610160733
0.4897133715 	0.08306481719 	-0.02191033731 	1.607524623e-07 	0.08284551822 	-4.816450817e-07 	0.0001579265834
0.4930865115 	0.08109579399 	-0.02143763388 	1.028502937e-07 	0.08086742938 	-2.420258703e-07 	0.0001541557963
0.4968975894 	0.07878060762 	-0.0208750334 	3.457944925e-08 	0.07854259175 	3.296423961e-08 	0.0001497240097
0.5012034633 	0.07611911959 	-0.02021015082 	-4.538861881e-08 	0.07587098902 	3.449377069e-07 	0.0001446311923
0.506068373 	0.07283044461 	-0.01943832845 	-1.487445579e-07 	0.07257086784 	7.257269407e-07 	0.0001383402441
0.5134203412 	0.06863603929 	-0.01839248795 	-2.837320087e-07 	0.06836432311 	1.191893329e-06 	0.0001303214007
0.5212948542 	0.06391582675 	-0.01710540223 	-4.374534698e-07 	0.06363409435 	1.677168579e-06 	0.00012130427
0.529729052 	0.05908916703 	-0.01576740941 	-5.975062684e-07 	0.058801256 	2.111554606e-06 	0.0001120915369
0.5387627144 	0.05425740147 	-0.01436723692 	-7.581685324e-07 	0.05396819265 	2.453440264e-06 	0.0001028783749
0.5484384488 	0.04953238248 	-0.01291170499 	-9.125943726e-07 	0.04924776314 	2.659298993e-06 	9.387992426e-05
0.5588018907 	0.04503868081 	-0.01141064314 	-1.053148522e-06 	0.04476543316 	2.691055333e-06 	8.533535752e-05
0.5699019192 	0.04090744735 	-0.009876002069 	-1.172356112e-06 	0.04065298781 	2.525979615e-06 	7.749589368e-05
0.5817908876 	0.03726421554 	-0.008320669202 	-1.264011047e-06 	0.03703621309 	2.166112524e-06 	7.060131584e-05
0.5945248701 	0.03421395732 	-0.006756762232 	-1.324355889e-06 	0.03401984215 	1.642644773e-06 	6.485127446e-05
0.6081639266 	0.03182818008 	-0.005193894527 	-1.352071404e-06 	0.03167456958 	1.011983139e-06 	6.038053311e-05
0.6227723857 	0.03013882642 	-0.003638375972 	-1.347220981e-06 	0.03003090611 	3.438215603e-07 	5.724725371e-05
0.638419148 	0.02914167657 	-0.002093281116 	-1.310438398e-06 	0.02908258659 	-2.939795587e-07 	5.543949312e-05
0.6551780116 	0.02880783447 	-0.0005590182126 	-1.242688638e-06 	0.02879811355 	-8.46636663e-07 	5.489720845e-05
0.6731280194 	0.02909868029 	0.0009662740997 	-1.14568529e-06 	0.02913581431 	-1.276153715e-06 	5.554095995e-05
0.6923538328 	0.02997966757 	0.002486967037 	-1.022322754e-06 	0.03005778042 	-1.558999567e-06 	5.729848361e-05
0.7129461301 	0.03143056872 	0.004010727143 	-8.767416293e-07 	0.0315402605 	-1.681822382e-06 	6.012450267e-05
0.7350020349 	0.03341418571 	0.005522984933 	-7.168257151e-07 	0.03354249026 	-1.641165729e-06 	6.394130909e-05
0.7570579485 	0.03579553397 	0.006961606677 	-5.573478265e-07 	0.0359276054 	-1.46049511e-06 	6.848800145e-05
0.7776502527 	0.03839214854 	0.00827883591 	-4.12711455e-07 	0.038515008 	-1.192747537e-06 	7.342030994e-05
0.7968760713 	0.04110056655 	0.009482693702 	-2.89134129e-07 	0.04120513511 	-8.893663113e-07 	7.854843989e-05
0.814826083 	0.0438767842 	0.01059548838 	-1.880150947e-07 	0.04395764585 	-5.872540161e-07 	8.379549038e-05
0.831584949 	0.04668814169 	0.01163229641 	-1.093191075e-07 	0.04674287006 	-3.12606927e-07 	8.910490184e-05
0.8472317127 	0.04950784223 	0.01260312131 	-5.172800749e-08 	0.0495362802 	-8.221673446e-08 	9.442991797e-05
0.8618401721 	0.05231236886 	0.01351447308 	-1.286594606e-08 	0.05231592316 	9.536254519e-08 	9.972869e-05
0.8754792281 	0.05508046693 	0.01437056193 	1.04004296e-08 	0.05506148081 	2.185104785e-07 	0.000104962486
0.8882132094 	0.05779293196 	0.01517419915 	2.16190237e-08 	0.05775417202 	2.910505943e-07 	0.0001100955038
0.9001021759 	0.06043272833 	0.01592745892 	2.440912898e-08 	0.060376999 	3.206476049e-07 	0.000115095341
0.9112022019 	0.06298512771 	0.01663214288 	2.215766029e-08 	0.06291501001 	3.172188863e-07 	0.0001199334954
0.9215656407 	0.06543764868 	0.01729008964 	1.778336075e-08 	0.06535534875 	2.914941801e-07 	0.0001245854593
0.9312413717 	0.06777960238 	0.01790337784 	1.358320929e-08 	0.0676868898 	2.538259784e-07 	0.0001290300246
0.9402750304 	0.07000095658 	0.01847448626 	1.116179575e-08 	0.06989917064 	2.133060869e-07 	0.0001332472467
0.9487092242 	0.07208987607 	0.0190065149 	1.143454696e-08 	0.07197997383 	1.7721524e-07 	0.0001372138359
0.9565837329 	0.07402719143 	0.01952018263 	1.471200792e-08 	0.07390984589 	1.507888923e-07 	0.0001408927084
0.9639356968 	0.07564712002 	0.01987828466 	1.973434526e-08 	0.07552329896 	1.374766198e-07 	0.0001439683984
0.9688006083 	0.07684347194 	0.02010883092 	2.522657505e-08 	0.07671457387 	1.353341526e-07 	0.0001462392995
0.9731064834 	0.07776606608 	0.02033732323 	3.094383234e-08 	0.07763303374 	1.396295082e-07 	0.0001479901393
0.976917562 	0.07851180538 	0.02051369908 	3.645936657e-08 	0.07837512355 	1.480778091e-07 	0.0001494047687
0.9802907021 	0.07907135444 	0.02064616177 	4.149449561e-08 	0.07893153475 	1.590330109e-07 	0.0001504654431
0.9832762282 	0.07942344656 	0.02073157926 	4.587263281e-08 	0.079281048 	1.710608043e-07 	0.0001511317125
0.9859186816 	0.07952632301 	0.02076254831 	4.950933529e-08 	0.07938199226 	1.829945598e-07 	0.0001513241403
0.9882574856 	0.07929998416 	0.02072408513 	5.238884572e-08 	0.07915452614 	1.939261354e-07 	0.0001508905267
0.990327533 	0.07858513874 	0.02058607424 	5.454396078e-08 	0.07843966248 	2.031417353e-07 	0.0001495277979
0.9921597073 	0.07703393165 	0.02035698983 	5.621018756e-08 	0.07689020843 	2.099802734e-07 	0.0001465741078
0.9937813429 	0.07379685642 	0.01952324335 	5.63774899e-08 	0.07365831258 	2.128791182e-07 	0.000140413216
0.9948347186 	0.06858260988 	0.01818994001 	5.592576174e-08 	0.06845327041 	2.122679763e-07 	0.000130490959
0.9958880943 	0.05847985835 	0.01571269037 	5.648210612e-08 	0.05836920445 	2.067436717e-07 	0.0001112679266
0.9969414701 	0.03164924054 	0.008105630397 	3.737422235e-08 	0.03158922137 	1.395547097e-07 	6.02178357e-05
0.9979948458 	0.006024994938 	0.001175702094 	8.951622742e-09 	0.006013546236 	3.907713835e-08 	1.146349051e-05
0.9990482216 	8.620516675e-05 	3.052840035e-06 	2.808583524e-11 	8.604115998e-05 	5.910782457e-10 	1.640183648e-07
0.9990482216 	8.620516675e-05 	3.052840035e-06 	2.808583524e-11 	8.604115998e-05 	5.910782457e-10 	1.640183648e-07
