0.4709558481 	0.0001301234916 	-5.497466946e-06 	4.947470869e-10 	0.0001298755507 	-8.752848535e-09 	2.475788967e-07
0.4709558481 	0.0001301234916 	-5.497466946e-06 	4.947470869e-10 	0.0001298755507 	-8.752848535e-09 	2.475788967e-07
0.4720092239 	0.009637217818 	-0.002031974481 	1.450833771e-07 	0.009618447731 	-5.978315285e-07 	1.833543468e-05
0.4730625996 	0.04311473662 	-0.01119072707 	4.742082283e-07 	0.0430279964 	-1.755999207e-06 	8.202332016e-05
0.4741159754 	0.07429853814 	-0.02004961666 	6.389200975e-07 	0.07414339847 	-2.321598904e-06 	0.0001413379246
0.4751693511 	0.08418289428 	-0.02231863581 	6.03825485e-07 	0.08399757396 	-2.26145948e-06 	0.0001601227219
0.4762227269 	0.08883601325 	-0.02353444737 	5.796827726e-07 	0.088626732 	-2.143790375e-06 	0.0001689471837
0.4778443634 	0.09116897032 	-0.024188756 	5.433902078e-07 	0.0909346559 	-1.957396529e-06 	0.0001733467281
0.4796765386 	0.09144167993 	-0.02411351376 	4.839612674e-07 	0.09118167219 	-1.691910764e-06 	0.0001738176098
0.4817465869 	0.09062061136 	-0.02390179231 	4.115096643e-07 	0.09033320693 	-1.363408214e-06 	0.0001722001992
0.4840853915 	0.08904968164 	-0.02352715674 	3.227338941e-07 	0.08873253052 	-9.678424396e-07 	0.0001691488651
0.4867278453 	0.0868702882 	-0.02301076683 	2.149461184e-07 	0.08652084743 	-4.993183236e-07 	0.0001649327824
0.4897133715 	0.08414026004 	-0.02235792963 	8.528955304e-08 	0.08375618118 	4.72488582e-08 	0.0001596625602
0.4930865115 	0.08088073425 	-0.02156573189 	-6.902192593e-08 	0.08046020642 	6.733274657e-07 	0.0001533795162
0.4968975894 	0.07710045084 	-0.0206268896 	-2.502012862e-07 	0.07664255308 	1.37272583e-06 	0.0001461020079
0.5012034633 	0.07281345908 	-0.01952405652 	-4.594003952e-07 	0.07231865871 	2.125766358e-06 	0.0001378594634
0.506068373 	0.06762317075 	-0.01819661608 	-7.185594052e-07 	0.067090723 	2.957913833e-06 	0.0001278935649
0.5134203412 	0.0612975939 	-0.01645234105 	-1.029969315e-06 	0.06073173316 	3.778576378e-06 	0.0001157715629
0.5212948542 	0.05469692297 	-0.01441826753 	-1.338394879e-06 	0.0541129048 	4.311208513e-06 	0.0001031542364
0.529729052 	0.04866025312 	-0.01236923889 	-1.59985962e-06 	0.04807798914 	4.373314341e-06 	9.165000989e-05
0.5387627144 	0.04348067182 	-0.01033331853 	-1.798129845e-06 	0.04292083534 	3.945187047e-06 	8.181904139e-05
0.5484384488 	0.03934316008 	-0.008348686612 	-1.929004768e-06 	0.03882588459 	3.1164208e-06 	7.401292713e-05
0.5588018907 	0.03629821117 	-0.00644218906 	-2.001707593e-06 	0.03584218949 	2.052908371e-06 	6.8325175e-05
0.5699019192 	0.03427473157 	-0.004628999122 	-2.027930194e-06 	0.03389656208 	9.330400626e-07 	6.461626838e-05
0.5817908876 	0.03312456159 	-0.002915840141 	-2.018309826e-06 	0.03283836742 	-1.081668971e-07 	6.259905526e-05
0.5945248701 	0.03267340048 	-0.001304103099 	-1.981570611e-06 	0.03249060541 	-9.984684938e-07 	6.193612421e-05
0.6081639266 	0.03275680377 	0.0002076875946 	-1.924119863e-06 	0.0326859374 	-1.71543104e-06 	6.230848127e-05
0.6227723857 	0.03323625202 	0.001622159561 	-1.849986144e-06 	0.03328273034 	-2.263675546e-06 	6.344613448e-05
0.638419148 	0.03400118259 	0.002941913477 	-1.760712087e-06 	0.03416702646 	-2.65681213e-06 	6.513184867e-05
0.6551780116 	0.03496470517 	0.004168921281 	-1.655697909e-06 	0.0352481541 	-2.907597753e-06 	6.719277844e-05
0.6731280194 	0.03605831329 	0.005304642101 	-1.532746065e-06 	0.03645330059 	-3.024083378e-06 	6.94901226e-05
0.6923538328 	0.03722825086 	0.006350859987 	-1.388390601e-06 	0.03772371126 	-3.008628048e-06 	7.191187841e-05
0.7129461301 	0.03843474153 	0.00731126816 	-1.217823337e-06 	0.03901365407 	-2.857541658e-06 	7.437086794e-05
0.7350020349 	0.03963475099 	0.00817924538 	-1.018411197e-06 	0.04027225252 	-2.566221199e-06 	7.67701064e-05
0.7570579485 	0.04077187906 	0.008932935496 	-7.96720047e-07 	0.04143584733 	-2.148106815e-06 	7.898824151e-05
0.7776502527 	0.04182608277 	0.009574172323 	-5.633933324e-07 	0.04248346644 	-1.634258228e-06 	8.098529471e-05
0.7968760713 	0.04283634004 	0.01013777813 	-3.23957321e-07 	0.04345819804 	-1.04775216e-06 	8.284340404e-05
0.814826083 	0.0438606433 	0.01066068407 	-8.196102828e-08 	0.04442305516 	-4.021368573e-07 	8.468268988e-05
0.831584949 	0.04495351126 	0.0111716092 	1.574907063e-07 	0.04543780536 	2.889320736e-07 	8.66170858e-05
0.8472317127 	0.04616451204 	0.01169256587 	3.877908301e-07 	0.04655760905 	1.009074418e-06 	8.875174286e-05
0.8618401721 	0.0475370982 	0.0122396489 	6.010729185e-07 	0.04783176586 	1.737168484e-06 	9.118063987e-05
0.8754792281 	0.04910714382 	0.01282339945 	7.886794739e-07 	0.04930201122 	2.445994605e-06 	9.398333617e-05
0.8882132094 	0.05090088908 	0.01344896752 	9.418785891e-07 	0.05100011047 	3.10195358e-06 	9.722038531e-05
0.9001021759 	0.05293230222 	0.01411626232 	1.052817451e-06 	0.05294483101 	3.66646965e-06 	0.0001009275632
0.9112022019 	0.05520022514 	0.01482026004 	1.115632533e-06 	0.05513873609 	4.099554573e-06 	0.000105109756
0.9215656407 	0.05768599341 	0.01555161121 	1.127544982e-06 	0.05756555523 	4.365436313e-06 	0.0001097359478
0.9312413717 	0.06035232804 	0.01629763926 	1.089690156e-06 	0.0601889652 	4.439250033e-06 	0.0001147368963
0.9402750304 	0.06314396079 	0.01704374887 	1.007414223e-06 	0.0629532494 	4.31296628e-06 	0.0001200063903
0.9487092242 	0.06598947849 	0.01777519973 	8.898599044e-07 	0.06578532382 	3.998552594e-06 	0.0001254051113
0.9565837329 	0.06880195079 	0.01849522947 	7.488394008e-07 	0.06859571328 	3.527170557e-06 	0.0001307624947
0.9639356968 	0.07128155589 	0.0190445758 	6.055166646e-07 	0.07108093251 	2.988160033e-06 	0.0001355000133
0.9688006083 	0.07318590944 	0.01942329637 	4.86271469e-07 	0.07299357622 	2.498312979e-06 	0.0001391460438
0.9731064834 	0.07468461743 	0.01976123193 	3.914900498e-07 	0.07450044055 	2.072907057e-06 	0.000142018546
0.976917562 	0.07592908826 	0.02002757539 	3.103297674e-07 	0.07575258471 	1.685980881e-06 	0.0001444054808
0.9802907021 	0.07691132038 	0.02023268795 	2.424339315e-07 	0.07674156354 	1.344420203e-06 	0.0001462907493
0.9832762282 	0.07761528451 	0.02037604961 	1.867112071e-07 	0.07745120949 	1.050146221e-06 	0.0001476435317
0.9859186816 	0.07800651051 	0.02045284255 	1.416690225e-07 	0.07784714529 	8.018482054e-07 	0.0001483982954
0.9882574856 	0.07801306488 	0.02045043969 	1.057020416e-07 	0.07785772916 	5.963415415e-07 	0.0001484184712
0.990327533 	0.07748368793 	0.02034074735 	7.727515468e-08 	0.07733220892 	4.295998149e-07 	0.0001474166836
0.9921597073 	0.07607803557 	0.02013219446 	5.59294339e-08 	0.0759311265 	2.976295207e-07 	0.0001447458311
0.9937813429 	0.07295070898 	0.01931731008 	3.929239271e-08 	0.07281088218 	2.012322816e-07 	0.0001387977782
0.9948347186 	0.06781630041 	0.01799905104 	2.722251345e-08 	0.06768682107 	1.357046613e-07 	0.0001290298935
0.9958880943 	0.05778499052 	0.01552883086 	1.912408276e-08 	0.05767488039 	8.727221194e-08 	0.0001099443519
0.9969414701 	0.03119753136 	0.007987160155 	9.563165127e-09 	0.03113813842 	4.309247648e-08 	5.935794623e-05
0.9979948458 	0.005900237932 	0.001147700875 	1.921527295e-09 	0.005889010724 	1.036333144e-08 	1.122609121e-05
0.9990482216 	8.431549534e-05 	2.965346682e-06 	5.660248949e-12 	8.41550723e-05 	1.579036759e-10 	1.604229575e-07
