0.4709558481 	0.0001083242314 	-4.301108405e-06 	1.576778726e-10 	0.0001081180619 	-2.956261437e-09 	2.061030759e-07
0.4720092239 	0.008131430832 	-0.001670350681 	4.930933485e-08 	0.008115874884 	-2.066329385e-07 	1.547111322e-05
0.4730625996 	0.0385474207 	-0.009962097277 	1.748783623e-07 	0.03847308422 	-6.481854037e-07 	7.334039156e-05
0.4741159754 	0.06813079088 	-0.01836106105 	2.451521306e-07 	0.06799819045 	-8.906475291e-07 	0.0001296234501
0.4751693511 	0.0781064839 	-0.02071043839 	2.345047367e-07 	0.07795238584 	-8.785133885e-07 	0.0001485989131
0.4762227269 	0.08299172761 	-0.0219750181 	2.278082299e-07 	0.08282496162 	-8.42791781e-07 	0.0001578873968
0.4778443634 	0.08571084961 	-0.0227058576 	2.166202518e-07 	0.08553426579 	-7.81874848e-07 	0.0001630520836
0.4796765386 	0.08654744802 	-0.02276226972 	1.971688105e-07 	0.08636352416 	-6.928448265e-07 	0.0001646328805
0.4817465869 	0.08642682754 	-0.02270932332 	1.735809249e-07 	0.0862364153 	-5.826340708e-07 	0.0001643905757
0.4840853915 	0.0856999113 	-0.02252849423 	1.449522903e-07 	0.08550313727 	-4.507587928e-07 	0.000162992744
0.4867278453 	0.08452099916 	-0.02224651743 	1.107053505e-07 	0.08431763348 	-2.955909636e-07 	0.0001607328443
0.4897133715 	0.08296187542 	-0.02187481199 	7.017944602e-08 	0.08275151192 	-1.148965647e-07 	0.0001577473813
0.4930865115 	0.08105466994 	-0.0214169184 	2.26031195e-08 	0.08083682736 	9.389013823e-08 	0.0001540974604
0.4968975894 	0.07881075192 	-0.02087181403 	-3.291425941e-08 	0.07858494429 	3.333467949e-07 	0.0001498047454
0.5012034633 	0.07623047877 	-0.02022742994 	-9.725100945e-08 	0.0759963075 	6.055292845e-07 	0.0001448700842
0.506068373 	0.07304141585 	-0.01948211639 	-1.798739203e-07 	0.07279773336 	9.394328556e-07 	0.0001387727129
0.5134203412 	0.06896984308 	-0.01847082193 	-2.868506287e-07 	0.06871603461 	1.352170395e-06 	0.0001309918606
0.5212948542 	0.06437895108 	-0.01722295422 	-4.077226132e-07 	0.06411675146 	1.78894315e-06 	0.0001222243486
0.529729052 	0.05967023955 	-0.01592572406 	-5.331701366e-07 	0.05940281001 	2.191196453e-06 	0.000113238266
0.5387627144 	0.05493460419 	-0.01456640526 	-6.586281428e-07 	0.05466601528 	2.524917855e-06 	0.0001042086188
0.5484384488 	0.05027267362 	-0.01315009374 	-7.785488169e-07 	0.05000789686 	2.753135197e-06 	9.532895039e-05
0.5588018907 	0.04579875943 	-0.0116846641 	-8.864734657e-07 	0.04554359601 	2.841419561e-06 	8.681875218e-05
0.5699019192 	0.041637168 	-0.01018012348 	-9.758549468e-07 	0.04139804726 	2.765513619e-06 	7.891618408e-05
0.5817908876 	0.03791254987 	-0.008647693358 	-1.040999808e-06 	0.03769621807 	2.519551465e-06 	7.185946876e-05
0.5945248701 	0.03473647829 	-0.007098419751 	-1.078170815e-06 	0.03454957921 	2.121741677e-06 	6.586110053e-05
0.6081639266 	0.03219404859 	-0.005541529094 	-1.08616474e-06 	0.03204261242 	1.614101737e-06 	6.108212505e-05
0.6227723857 	0.03033508017 	-0.003983387542 	-1.065723994e-06 	0.03022395128 	1.054882001e-06 	5.761525144e-05
0.638419148 	0.02917357555 	-0.00242732794 	-1.018569628e-06 	0.02910582469 	5.058090641e-07 	5.548379141e-05
0.6551780116 	0.02869583482 	-0.0008741024662 	-9.466929546e-07 	0.02867220874 	1.972176367e-08 	5.465719888e-05
0.6731280194 	0.0288738999 	0.0006776543552 	-8.522723284e-07 	0.02889236395 	-3.661953214e-07 	5.50768759e-05
0.6923538328 	0.02967964521 	0.002231554444 	-7.379169376e-07 	0.02973507266 	-6.30428941e-07 	5.668331293e-05
0.7129461301 	0.03109613618 	0.003794208019 	-6.068316678e-07 	0.03118016658 	-7.631207401e-07 	5.943806357e-05
0.7350020349 	0.03308672043 	0.005349005468 	-4.65319264e-07 	0.03318776334 	-7.630112749e-07 	6.326510099e-05
0.7570579485 	0.03551033724 	0.006829943699 	-3.25720755e-07 	0.03561514273 	-6.478460905e-07 	6.789236077e-05
0.7776502527 	0.03817131031 	0.00818554007 	-1.996377924e-07 	0.03826835878 	-4.568953665e-07 	7.295012797e-05
0.7968760713 	0.0409534709 	0.009422285582 	-9.136987303e-08 	0.04103477112 	-2.287439303e-07 	7.822367879e-05
0.814826083 	0.04380377623 	0.01056219769 	-1.451139668e-09 	0.04386459463 	8.34673729e-09 	8.36181089e-05
0.831584949 	0.04668317676 	0.01162039848 	7.045186763e-08 	0.04672138397 	2.335363905e-07 	8.906394338e-05
0.8472317127 	0.04956076012 	0.01260723012 	1.254332481e-07 	0.04957616348 	4.325224786e-07 	9.450594658e-05
0.8618401721 	0.05241083782 	0.01352977479 	1.651689397e-07 	0.05240455265 	5.967646112e-07 	9.989764245e-05
0.8754792281 	0.05521158359 	0.01439297476 	1.916914127e-07 	0.05518549259 	7.225780857e-07 	0.0001051988869
0.8882132094 	0.05794445214 	0.01520045426 	2.071608042e-07 	0.05790077646 	8.10064073e-07 	0.0001103749726
0.9001021759 	0.06059392112 	0.01595510665 	2.136707194e-07 	0.06053490732 	8.619650653e-07 	0.0001153963582
0.9112022019 	0.06314727346 	0.01665949716 	2.131124296e-07 	0.06307498772 	8.825788605e-07 	0.0001202384574
0.9215656407 	0.06559422924 	0.01731612818 	2.071048271e-07 	0.0655104427 	8.768479926e-07 	0.0001248811115
0.9312413717 	0.06792625039 	0.01792761701 	1.969840858e-07 	0.06783239672 	8.496972618e-07 	0.0001293074012
0.9402750304 	0.07013523698 	0.01849684799 	1.838386952e-07 	0.07003242362 	8.05638697e-07 	0.0001335012639
0.9487092242 	0.07221096898 	0.01902719941 	1.685722768e-07 	0.07210001908 	7.485896278e-07 	0.0001374426755
0.9565837329 	0.07413553496 	0.01953957254 	1.520786271e-07 	0.07401706647 	6.818086579e-07 	0.0001410971007
0.9639356968 	0.07574477994 	0.01989669852 	1.355786741e-07 	0.07561977049 	6.135061641e-07 	0.0001441523
0.9688006083 	0.07693351657 	0.02012668428 	1.217673676e-07 	0.07680340967 	5.54259718e-07 	0.0001464086452
0.9731064834 	0.07785068563 	0.02035502119 	1.108676567e-07 	0.07771646909 	5.03374448e-07 	0.0001481491903
0.976917562 	0.07859231074 	0.02053138087 	1.012567579e-07 	0.07845450567 	4.567477816e-07 	0.0001495560931
0.9802907021 	0.0791488312 	0.02066391876 	9.299045722e-08 	0.07900797571 	4.148031374e-07 	0.0001506111608
0.9832762282 	0.07949875524 	0.02074945852 	8.601615965e-08 	0.079355427 	3.777584191e-07 	0.0001512734996
0.9859186816 	0.07960011292 	0.02078056292 	8.023224672e-08 	0.07945496996 	3.456241743e-07 	0.0001514632561
0.9882574856 	0.07937271037 	0.02074222308 	7.5505699e-08 	0.0792265623 	3.182231403e-07 	0.0001510278476
0.990327533 	0.07865707196 	0.02060430648 	7.169034712e-08 	0.07851102708 	2.952132557e-07 	0.0001496638386
0.9921597073 	0.07710514121 	0.02037535063 	6.900132369e-08 	0.07696096543 	2.760669525e-07 	0.0001467089903
0.9937813429 	0.07386699294 	0.01954138945 	6.591104913e-08 	0.07372809986 	2.600477529e-07 	0.00014054625
0.9948347186 	0.0686513504 	0.0182077855 	6.327491001e-08 	0.06852174336 	2.470062913e-07 	0.0001306214875
0.9958880943 	0.05854615717 	0.01573065917 	6.271955515e-08 	0.05843530276 	2.329621457e-07 	0.0001113939283
0.9969414701 	0.03169388184 	0.008117527438 	4.123056299e-08 	0.03163375335 	1.552748324e-07 	6.030272604e-05
0.9979948458 	0.006037526323 	0.001178563132 	9.907396618e-09 	0.006026051939 	4.353966977e-08 	1.148732985e-05
0.9990482216 	8.639500282e-05 	3.061836827e-06 	3.115836917e-11 	8.623063334e-05 	6.60819874e-10 	1.643795537e-07
0.9990482216 	8.639500282e-05 	3.061836827e-06 	3.115836917e-11 	8.623063334e-05 	6.60819874e-10 	1.643795537e-07
