3.197437928e-34 	1.826093705 	-1.240189867e-13 	-4.507761916e-20
0.001920179623 	1.826112795 	-0.0001681587112 	9.922674013e-08
0.003840345101 	1.826181084 	-0.0003160163717 	1.83881248e-07
0.005760496377 	1.826306335 	-0.0004639765474 	2.661131873e-07
0.007680633441 	1.826483852 	-0.0006157577516 	3.480187332e-07
0.009600756325 	1.826750455 	-0.0007901727245 	4.399659592e-07
0.01255669343 	1.827189255 	-0.001013504321 	5.512663694e-07
0.01589636313 	1.827854073 	-0.001279466763 	6.773859392e-07
0.01966957619 	1.82879191 	-0.001579324996 	8.106477002e-07
0.02394927615 	1.830090236 	-0.001917310352 	9.492328065e-07
0.02878858959 	1.83185869 	-0.002297145642 	1.090572073e-06
0.03425611113 	1.834235254 	-0.002722517482 	1.230803705e-06
0.04043338076 	1.837399186 	-0.003197886609 	1.365188185e-06
0.04744143031 	1.841577336 	-0.003727430394 	1.486230601e-06
0.05536094352 	1.847045514 	-0.004313704612 	1.586057215e-06
0.06432130776 	1.85489652 	-0.005021380377 	1.673663566e-06
0.0778967341 	1.866614863 	-0.005891043329 	1.672063332e-06
0.0924770317 	1.882129885 	-0.006824679262 	1.592974491e-06
0.1081284109 	1.901046995 	-0.007743347113 	1.415946406e-06
0.12493365 	1.923667818 	-0.008624754235 	1.145255954e-06
0.1429796724 	1.950269458 	-0.009442018548 	7.923847699e-07
0.1623579926 	1.98108919 	-0.01016348271 	3.772661594e-07
0.179915767 	2.010801533 	-0.01066058976 	4.380318679e-06
0.1831652053 	2.016305561 	-0.01075268653 	7.39980631e-08
0.2055035143 	2.056009032 	-0.01116879763 	5.342039506e-07
0.2294813006 	2.100159622 	-0.01136687814 	9.34417378e-07
0.2552137277 	2.148482387 	-0.01130211965 	1.220019677e-06
0.2828241328 	2.200326466 	-0.01093585209 	1.343207317e-06
0.3124514441 	2.254418816 	-0.01024784016 	1.283252347e-06
0.3442271852 	2.308529707 	-0.009256358621 	1.076882581e-06
0.3783059509 	2.359231537 	-0.008041527452 	8.363186626e-07
0.4148445556 	2.40218323 	-0.006743125958 	6.941543658e-07
0.454012114 	2.433348223 	-0.005496981 	6.856824756e-07
0.4959899515 	2.450286671 	-0.004366729436 	7.325320789e-07
0.5379865561 	2.453324178 	-0.003357339757 	7.532595406e-07
0.577207568 	2.445650856 	-0.002445829953 	7.242222867e-07
0.6138321997 	2.430484438 	-0.001604923958 	6.456999471e-07
0.6480299089 	2.409776013 	-0.0008247082434 	5.188388608e-07
0.6799601987 	2.384713322 	-0.0001095000814 	3.481668874e-07
0.7097727691 	2.356117719 	0.000530763077 	1.41956575e-07
0.7376075325 	2.324640741 	0.00108512396 	-8.877291318e-08
0.7635955286 	2.290848233 	0.001543934146 	-3.311221686e-07
0.787859151 	2.255248749 	0.001900180703 	-5.709449481e-07
0.8105127434 	2.218292754 	0.002150333256 	-7.936372248e-07
0.831663108 	2.180355886 	0.00229484344 	-9.852357012e-07
0.8514099765 	2.141713553 	0.002338267862 	-1.133704846e-06
0.8698464725 	2.102510206 	0.002289003262 	-1.230109975e-06
0.8870595453 	2.062722709 	0.002158680128 	-1.269390855e-06
0.9031303776 	2.022111565 	0.001961381111 	-1.250667197e-06
0.9181347659 	1.980143949 	0.001712915034 	-1.177086571e-06
0.9321434779 	1.938998192 	0.001450462088 	-1.064705327e-06
0.9414132658 	1.902671465 	0.001220513433 	-9.443549282e-07
0.9496178443 	1.869122371 	0.001022313105 	-8.265189972e-07
0.9568796188 	1.834892262 	0.0008412797208 	-7.080682412e-07
0.9633069287 	1.799340149 	0.0006797299795 	-5.934956688e-07
0.9689956638 	1.761679386 	0.000538621004 	-4.86084975e-07
0.9740306954 	1.720891109 	0.0004178415688 	-3.881573948e-07
0.9784871417 	1.675569082 	0.0003164817887 	-3.012006096e-07
0.982431489 	1.623622218 	0.000233032394 	-2.259530371e-07
0.9859225838 	1.561646553 	0.000165740131 	-1.62657759e-07
0.98901251 	1.48840221 	0.0001155330194 	-1.139022723e-07
0.9910196523 	1.405277892 	8.076813082e-05 	-7.947437753e-08
0.9930267946 	1.291342812 	5.382306965e-05 	-5.265657441e-08
0.9950339369 	1.077932652 	2.934581361e-05 	-2.841506821e-08
0.9970410793 	0.634806266 	8.542609365e-06 	-8.117055977e-09
0.9990482216 	0.1913401682 	-1.956969418e-07 	2.482799224e-10
0.9990482216 	0.1913401682 	-1.956969418e-07 	2.482799224e-10
