1.640171017e-35 	0.06182521846 	-4.245500214e-15 	-2.038141723e-18 	1.214449411e-14 	5.30240064e-16 	2.315078116e-17
0.001912604907 	0.06180076232 	-0.0002602325097 	1.261455264e-07 	0.06692437996 	-1.172596675e-05 	0.0001275764689
0.003825194192 	0.06180407215 	-0.0006333653926 	3.453645576e-07 	0.06713842618 	-1.166633164e-05 	0.0001279845005
0.005737767794 	0.06184229731 	-0.0009514025202 	5.139420533e-07 	0.06718326512 	-1.153574005e-05 	0.0001280699759
0.007650325701 	0.06187213843 	-0.00126668108 	6.748284064e-07 	0.06723405445 	-1.141241593e-05 	0.0001281667945
0.00956286795 	0.06192360586 	-0.001625668129 	8.529583906e-07 	0.06728301237 	-1.129691726e-05 	0.0001282601219
0.01250713205 	0.06200893692 	-0.002084915338 	1.067920756e-06 	0.06736048853 	-1.112057128e-05 	0.000128407813
0.01583360909 	0.06213790678 	-0.002632819315 	1.311738816e-06 	0.06748062725 	-1.09494223e-05 	0.0001286368308
0.01959191156 	0.06231876902 	-0.003250366867 	1.56876146e-06 	0.0676478936 	-1.078299295e-05 	0.000128955687
0.02385649769 	0.06256720689 	-0.0039452563 	1.834371662e-06 	0.06787680521 	-1.060932572e-05 	0.0001293920561
0.02867914987 	0.06290211497 	-0.004724696712 	2.102990514e-06 	0.06818439979 	-1.044506954e-05 	0.0001299784169
0.03412783817 	0.06334572974 	-0.005595862034 	2.366781421e-06 	0.06859078279 	-1.02915236e-05 	0.0001307530958
0.04028381842 	0.06392494276 	-0.006566480658 	2.615657198e-06 	0.06911993152 	-1.014237929e-05 	0.0001317618004
0.04727081711 	0.06467023918 	-0.007644214446 	2.834232877e-06 	0.06979844978 	-9.970157715e-06 	0.0001330552448
0.05516671354 	0.06561231864 	-0.008831636027 	3.006200306e-06 	0.07065239895 	-9.76662467e-06 	0.0001346831092
0.0641017149 	0.06690088684 	-0.01024627018 	3.140754024e-06 	0.07181102428 	-9.549024593e-06 	0.0001368917711
0.07764239172 	0.0686838231 	-0.0119723759 	3.093120202e-06 	0.07339841582 	-8.910783657e-06 	0.0001399177806
0.09218964228 	0.07080263893 	-0.01381250221 	2.89542619e-06 	0.07525643042 	-8.041985985e-06 	0.0001434596728
0.1078092542 	0.07302802347 	-0.0155898676 	2.510127641e-06 	0.07715774179 	-6.820855825e-06 	0.0001470841007
0.1245847907 	0.07519808051 	-0.01724925796 	1.953241377e-06 	0.07893448179 	-5.23237717e-06 	0.000150471061
0.1426038343 	0.07710171398 	-0.01872323059 	1.258335372e-06 	0.08037167904 	-3.331627101e-06 	0.0001532107584
0.1619584402 	0.07847865379 	-0.01993078463 	4.804652837e-07 	0.08121001075 	-1.255941417e-06 	0.0001548088516
0.17459936 	0.07881120021 	-0.02044535793 	2.625494654e-05 	0.08117635966 	-0.0001596682229 	0.0001547447033
0.1827456333 	0.07902506631 	-0.02077680545 	3.022741103e-07 	0.08115386238 	-7.723486458e-07 	0.0001547018172
0.2050679472 	0.07840688962 	-0.02115298658 	9.727348655e-07 	0.07988792289 	-2.428839848e-06 	0.0001522885847
0.229034003 	0.0762907784 	-0.0209437464 	1.392869786e-06 	0.07711150762 	-3.36991151e-06 	0.0001469959656
0.2547591248 	0.07240381202 	-0.0200411877 	1.439275377e-06 	0.07259988079 	-3.34203521e-06 	0.0001383955509
0.2823668212 	0.066637938 	-0.01837646446 	1.055936037e-06 	0.06630612802 	-2.341886955e-06 	0.0001263979088
0.3119969157 	0.05921442651 	-0.01597600563 	3.475505831e-07 	0.05851340291 	-8.136646686e-07 	0.0001115428089
0.3437800877 	0.05084037064 	-0.01302462323 	-3.665560134e-07 	0.04996464067 	3.467599644e-07 	9.524649207e-05
0.3778714604 	0.04266403052 	-0.00986754307 	-7.153382182e-07 	0.04178567332 	3.07603434e-07 	7.965510707e-05
0.4144274988 	0.03588434442 	-0.006861406663 	-5.974823735e-07 	0.03509369742 	-9.012785161e-07 	6.689834106e-05
0.4536170638 	0.03121264671 	-0.004175642222 	-2.282157425e-07 	0.03050537466 	-2.376892397e-06 	5.815172263e-05
0.4956212291 	0.02878055725 	-0.001768940521 	1.568374539e-07 	0.02809613342 	-3.219037633e-06 	5.355903922e-05
0.5376461177 	0.02835662076 	0.0004365904582 	4.656014986e-07 	0.02763131019 	-3.139375155e-06 	5.267295696e-05
0.5768947117 	0.02945825972 	0.002490396328 	6.821941432e-07 	0.02865720742 	-2.40951835e-06 	5.46286022e-05
0.6135457513 	0.03163462978 	0.004441337573 	8.026032109e-07 	0.03075382309 	-1.42489451e-06 	5.862533439e-05
0.6477684763 	0.03456837686 	0.006306487979 	8.131550899e-07 	0.03362548837 	-4.91433507e-07 	6.409952655e-05
0.6797223209 	0.03801282103 	0.008073152929 	6.967804069e-07 	0.03703850439 	1.685283623e-07 	7.060568368e-05
0.7095570023 	0.04174721655 	0.009714179486 	4.468446744e-07 	0.04077883498 	4.024979318e-07 	7.773579336e-05
0.7374124644 	0.04555491162 	0.01119648751 	7.324651098e-08 	0.04463197097 	1.2937532e-07 	8.508094148e-05
0.7634198193 	0.04922405895 	0.01248789299 	-3.991770798e-07 	0.0483846987 	-6.555011813e-07 	9.223468356e-05
0.7877015329 	0.05255921873 	0.01356123909 	-9.344180877e-07 	0.051837289 	-1.883315789e-06 	9.881628027e-05
0.8103720244 	0.05539526443 	0.01439702797 	-1.489116409e-06 	0.05481770205 	-3.424872461e-06 	0.0001044977759
0.8315381713 	0.05760879504 	0.01498524165 	-2.016563054e-06 	0.05719326884 	-5.112121961e-06 	0.0001090262665
0.851299777 	0.059124386 	0.01532644202 	-2.471156765e-06 	0.0588773989 	-6.764172231e-06 	0.0001122366864
0.8697500334 	0.05991458511 	0.01543204356 	-2.813061924e-06 	0.05983032121 	-8.212603732e-06 	0.0001140532212
0.8869759541 	0.05999390646 	0.01532369492 	-3.012315655e-06 	0.06005406098 	-9.320939228e-06 	0.0001144797314
0.9030587819 	0.05940806732 	0.0150319219 	-3.051601497e-06 	0.05958279281 	-9.994776794e-06 	0.0001135813633
0.9180743698 	0.05821989186 	0.01460237065 	-2.926190304e-06 	0.05847024533 	-1.018200773e-05 	0.0001114605386
0.9320935383 	0.05662380465 	0.01405950373 	-2.678846388e-06 	0.05690525818 	-9.903889886e-06 	0.0001084772381
0.9413702454 	0.05499140181 	0.01354189955 	-2.385235725e-06 	0.05526841375 	-9.344913475e-06 	0.0001053569577
0.9495809481 	0.05341669356 	0.01311196244 	-2.074019996e-06 	0.05366893587 	-8.63642896e-06 	0.0001023079083
0.9568481429 	0.05181716393 	0.01270404583 	-1.751454812e-06 	0.05203174712 	-7.789260903e-06 	9.918697148e-05
0.9632802503 	0.05022527743 	0.01232945975 	-1.432672563e-06 	0.05039511883 	-6.84219823e-06 	9.606710308e-05
0.9689732317 	0.04866162926 	0.01199070397 	-1.129516725e-06 	0.04878450872 	-5.827479563e-06 	9.299683256e-05
0.9740120216 	0.04713491583 	0.01168597366 	-8.504874928e-07 	0.04721249211 	-4.773736704e-06 	9.0000132e-05
0.9784717943 	0.04563810367 	0.01140905225 	-6.011613881e-07 	0.04567487449 	-3.709116999e-06 	8.706900546e-05
0.9824190858 	0.04413575273 	0.01114788614 	-3.844776589e-07 	0.0441380159 	-2.664384525e-06 	8.413932582e-05
0.9859127864 	0.04252575803 	0.01092494322 	-2.045575326e-07 	0.04250081808 	-1.676280272e-06 	8.101837175e-05
0.9890050191 	0.04052586608 	0.01047654751 	-6.187164581e-08 	0.04048240358 	-8.398569783e-07 	7.717071272e-05
0.9910136596 	0.03808312163 	0.0099056026 	4.642156246e-08 	0.03802986477 	-1.987029133e-07 	7.249549211e-05
0.9930223001 	0.03401500857 	0.009126152905 	1.466742126e-07 	0.03396008939 	3.274767888e-07 	6.47373691e-05
0.9950309406 	0.01961404777 	0.005132950319 	1.474195012e-07 	0.01957986912 	4.648810996e-07 	3.732467249e-05
0.9970395811 	0.004021512225 	0.0008520057856 	4.680746619e-08 	0.004014093181 	1.792570889e-07 	7.651977263e-06
0.9990482216 	3.17392013e-05 	1.036184068e-06 	7.513124415e-11 	3.167889473e-05 	1.582951162e-09 	6.038877805e-08
0.9990482216 	3.17392013e-05 	1.036184068e-06 	7.513124415e-11 	3.167889473e-05 	1.582951162e-09 	6.038877805e-08
