1.218267812e-35 	0.06413668677 	-4.410360695e-15 	2.378963605e-18 	1.282512737e-14 	-5.599571537e-16 	2.444825732e-17
0.00190503019 	0.0641097263 	-0.0003015162907 	1.572452094e-07 	0.07000817154 	-1.074925113e-05 	0.0001334550327
0.003810043283 	0.06411722421 	-0.0007498455222 	4.446687238e-07 	0.0702576526 	-1.073973547e-05 	0.000133930613
0.005715039211 	0.06416758944 	-0.001127373346 	6.622948961e-07 	0.07031544237 	-1.063927865e-05 	0.0001340407763
0.007620017961 	0.06421095666 	-0.001501188171 	8.695108851e-07 	0.07038262989 	-1.055116842e-05 	0.0001341688544
0.009524979574 	0.06428364873 	-0.001926506807 	1.098479357e-06 	0.07045204699 	-1.04780371e-05 	0.0001343011827
0.01245757067 	0.06440387796 	-0.0024703983 	1.374146512e-06 	0.0705626037 	-1.036732078e-05 	0.0001345119345
0.01577085506 	0.06458541658 	-0.003119056925 	1.686063973e-06 	0.07073302598 	-1.028560184e-05 	0.0001348368067
0.01951424692 	0.06483971065 	-0.003849812944 	2.013701788e-06 	0.07097032009 	-1.023312029e-05 	0.0001352891553
0.02376371923 	0.06518846347 	-0.00467144665 	2.350528164e-06 	0.07129471193 	-1.019947248e-05 	0.0001359075363
0.02856971015 	0.06565745251 	-0.005591857876 	2.688546123e-06 	0.07172965703 	-1.020507568e-05 	0.0001367366625
0.03399956521 	0.06627654251 	-0.00661878592 	3.016822342e-06 	0.07230231906 	-1.025067709e-05 	0.0001378283155
0.04013425608 	0.06708129407 	-0.007760461018 	3.32145723e-06 	0.07304455279 	-1.032572506e-05 	0.0001392432193
0.04710020392 	0.06811086923 	-0.009024545708 	3.581635872e-06 	0.07399056038 	-1.039128054e-05 	0.0001410465727
0.05497248355 	0.06940248095 	-0.01041186783 	3.775438035e-06 	0.07517156618 	-1.042301625e-05 	0.000143297898
0.06388212204 	0.07115140126 	-0.0120543639 	3.909904132e-06 	0.07675684116 	-1.044004615e-05 	0.0001463198727
0.07738804933 	0.07353483826 	-0.01404332805 	3.797476967e-06 	0.07889281783 	-9.940551973e-06 	0.0001503916379
0.09190225286 	0.07630914532 	-0.0161412665 	3.488081919e-06 	0.08133549402 	-9.058895527e-06 	0.0001550480576
0.1074900975 	0.07914279469 	-0.01813367968 	2.944029842e-06 	0.08375578678 	-7.639534172e-06 	0.0001596618083
0.1242359314 	0.08180043295 	-0.01994801836 	2.198065708e-06 	0.0859115516 	-5.704059106e-06 	0.0001637712952
0.1422279963 	0.08398931462 	-0.02149614688 	1.310016955e-06 	0.08750757444 	-3.389609516e-06 	0.0001668137584
0.1615588878 	0.08536412671 	-0.02267319476 	3.724799846e-07 	0.08820459395 	-9.558282643e-07 	0.0001681424713
0.1701363888 	0.08543833006 	-0.02295662982 	4.057484175e-05 	0.08797164851 	-0.0002156399639 	0.0001676984125
0.1823260612 	0.08554102327 	-0.02335821342 	4.758540154e-07 	0.08763720294 	-1.206827105e-06 	0.0001670608663
0.2046323802 	0.08412853983 	-0.02341978571 	1.053085402e-06 	0.08544896624 	-2.61726583e-06 	0.000162889479
0.2285867053 	0.08079086614 	-0.02273244137 	1.195426918e-06 	0.08135860896 	-2.909304732e-06 	0.0001550921211
0.254304522 	0.07535618064 	-0.02121011195 	8.151848637e-07 	0.07526604116 	-2.010229353e-06 	0.0001434779936
0.2819095097 	0.0679795962 	-0.01886504995 	2.071943364e-08 	0.06740194001 	-3.980087579e-07 	0.0001284868311
0.3115423872 	0.05930458262 	-0.01587573857 	-8.127819097e-07 	0.05845954064 	8.677972454e-07 	0.0001114401324
0.3433329903 	0.05044233124 	-0.01259633097 	-1.21413817e-06 	0.04953790187 	7.241828597e-07 	9.443300932e-05
0.37743697 	0.04260242677 	-0.00942435715 	-1.013258414e-06 	0.04176680669 	-9.457370528e-07 	7.961914203e-05
0.414010442 	0.03657221001 	-0.006599558386 	-4.565671921e-07 	0.03583220168 	-3.138762845e-06 	6.830613544e-05
0.4532220137 	0.03252982537 	-0.004126169832 	1.068695303e-07 	0.03184336258 	-4.734365122e-06 	6.070229948e-05
0.4952525067 	0.03033934958 	-0.001878046787 	5.066121175e-07 	0.02964259432 	-5.27573137e-06 	5.650702351e-05
0.5373056793 	0.02979070223 	0.000224584924 	7.616359498e-07 	0.02903177797 	-4.856303121e-06 	5.534263777e-05
0.5765818555 	0.03055796433 	0.002211073773 	9.441260576e-07 	0.02971141012 	-3.831810437e-06 	5.663820554e-05
0.6132593029 	0.03232969092 	0.004119975948 	1.092462334e-06 	0.03139343425 	-2.525013322e-06 	5.984461104e-05
0.6475070436 	0.03488199176 	0.005970968544 	1.195849104e-06 	0.0338699828 	-1.165212053e-06 	6.45656009e-05
0.679484443 	0.038036375 	0.00776028066 	1.212906215e-06 	0.03697292204 	5.02802873e-08 	7.048066549e-05
0.7093412355 	0.04162402827 	0.009468420563 	1.097886168e-06 	0.04054063119 	9.308602717e-07 	7.728171073e-05
0.7372173963 	0.04546275411 	0.0110644724 	8.203412935e-07 	0.04439598109 	1.303237849e-06 	8.463107918e-05
0.7632441099 	0.04935284097 	0.01251210756 	3.736719663e-07 	0.04834210574 	1.042868187e-06 	9.215348952e-05
0.7875439148 	0.05308563535 	0.01377445533 	-2.242144883e-07 	0.05217057386 	1.038081893e-07 	9.945161383e-05
0.8102313055 	0.0564583033 	0.01481795334 	-9.340338818e-07 	0.05567575189 	-1.465116679e-06 	0.0001061334574
0.8314132346 	0.05929036851 	0.01561560192 	-1.699883943e-06 	0.05867105801 	-3.522528892e-06 	0.0001118433433
0.8511895776 	0.06143851856 	0.01614974097 	-2.455021291e-06 	0.06100371901 	-5.854364275e-06 	0.0001162900435
0.8696535944 	0.06280677669 	0.01641422998 	-3.128829187e-06 	0.06256526225 	-8.206754288e-06 	0.000119266779
0.8868923629 	0.06334998549 	0.01641575814 	-3.654674348e-06 	0.06329571977 	-1.032407045e-05 	0.000120659234
0.9029871861 	0.06306969359 	0.01617410533 	-3.977583452e-06 	0.06318063918 	-1.198295367e-05 	0.0001204398584
0.9180139737 	0.06200240807 	0.01572905243 	-4.059393187e-06 	0.06224144249 	-1.301500877e-05 	0.0001186494885
0.9320435986 	0.06034388788 	0.01511666838 	-3.919777678e-06 	0.06065864948 	-1.331765014e-05 	0.0001156322451
0.941327225 	0.05853250157 	0.0145018897 	-3.640336696e-06 	0.05887231279 	-1.305291962e-05 	0.0001122269909
0.9495440518 	0.05671658806 	0.01396062688 	-3.279050506e-06 	0.05704832935 	-1.244617873e-05 	0.0001087499715
0.9568166671 	0.05482072849 	0.01343212534 	-2.86346763e-06 	0.05512218484 	-1.15616127e-05 	0.0001050782047
0.963253572 	0.05289179074 	0.01293439319 	-2.421037153e-06 	0.05314788852 	-1.045921974e-05 	0.0001013146472
0.9689507996 	0.05096155928 	0.01247536963 	-1.974821711e-06 	0.05116382706 	-9.187922866e-06 	9.753247463e-05
0.9739933478 	0.04904788552 	0.01205738703 	-1.543244727e-06 	0.04919370095 	-7.788422205e-06 	9.377686669e-05
0.9784564469 	0.04715235233 	0.01167720014 	-1.140451203e-06 	0.04724392614 	-6.297788506e-06 	9.006005399e-05
0.9824066826 	0.04524930793 	0.01132464773 	-7.765357685e-07 	0.04529244385 	-4.755701157e-06 	8.633998637e-05
0.985902989 	0.04324955762 	0.01102443231 	-4.624384273e-07 	0.04325254227 	-3.213174153e-06 	8.245136699e-05
0.9889975281 	0.04090970934 	0.01051383776 	-2.053212942e-07 	0.04088363986 	-1.828785013e-06 	7.793558059e-05
0.9910076668 	0.03819824655 	0.009895260999 	-6.33339162e-09 	0.03815515818 	-7.06363017e-07 	7.273433616e-05
0.9930178055 	0.03390283951 	0.009071373228 	1.80634892e-07 	0.03385334177 	2.632371658e-07 	6.453387847e-05
0.9950279442 	0.01943291367 	0.005074591164 	2.113838869e-07 	0.01940069828 	6.228206536e-07 	3.698312306e-05
0.9970380829 	0.003950030336 	0.0008331496469 	7.006499812e-08 	0.003942859631 	2.594537962e-07 	7.516186318e-06
0.9990482216 	3.111345259e-05 	1.005997085e-06 	1.123325164e-10 	3.105437477e-05 	2.25970968e-09 	5.919826942e-08
0.9990482216 	3.111345259e-05 	1.005997085e-06 	1.123325164e-10 	3.105437477e-05 	2.25970968e-09 	5.919826942e-08
