0.4709558481 	3.960676485e-06 	-6.980095041e-08 	4.382175723e-12 	3.955549872e-06 	-1.782286639e-10 	7.540377443e-09
0.4720092239 	0.000316865062 	-4.461005536e-05 	2.607958126e-09 	0.0003316000195 	-1.510337197e-08 	6.321218006e-07
0.4730625996 	0.002900678439 	-0.0008664531802 	3.872958424e-08 	0.003531995914 	-1.429836058e-07 	6.73296588e-06
0.4741159754 	0.007881707172 	-0.002836084548 	9.278893516e-08 	0.01025398438 	-3.201036129e-07 	1.954694417e-05
0.4751693511 	0.01211890094 	-0.004597781066 	1.13631568e-07 	0.01613132881 	-3.918729818e-07 	3.075079618e-05
0.4762227269 	0.01470639125 	-0.005603253881 	1.141354962e-07 	0.01968300165 	-3.988447814e-07 	3.752127175e-05
0.4778443634 	0.01634030585 	-0.006193948324 	1.106526529e-07 	0.0218654804 	-3.828341837e-07 	4.168168283e-05
0.4796765386 	0.01717316589 	-0.006428911568 	1.020986329e-07 	0.02284325012 	-3.473821154e-07 	4.354558368e-05
0.4817465869 	0.01752338779 	-0.006538699386 	9.109210084e-08 	0.02325125731 	-3.010243958e-07 	4.432335878e-05
0.4840853915 	0.01759985562 	-0.00656076465 	7.723266755e-08 	0.02331486267 	-2.425497872e-07 	4.444460828e-05
0.4867278453 	0.01748549467 	-0.006521795564 	5.996648432e-08 	0.02316213035 	-1.706801699e-07 	4.415345803e-05
0.4897133715 	0.01722997063 	-0.006437987184 	3.8751867e-08 	0.02283595851 	-8.344644432e-08 	4.353168384e-05
0.4930865115 	0.01685627393 	-0.006314965777 	1.288904599e-08 	0.02235969516 	2.139795963e-08 	4.262379352e-05
0.4968975894 	0.01637372865 	-0.006154785558 	-1.842434147e-08 	0.02174591222 	1.464964771e-07 	4.145375266e-05
0.5012034633 	0.01578782411 	-0.005955236346 	-5.59181734e-08 	0.02099449835 	2.944532721e-07 	4.002134897e-05
0.506068373 	0.01501951074 	-0.00571123549 	-1.060584718e-07 	0.02003501614 	4.853960434e-07 	3.81923092e-05
0.5134203412 	0.01401056255 	-0.005372038193 	-1.734855795e-07 	0.01874542024 	7.361967958e-07 	3.5733981e-05
0.5212948542 	0.0128509575 	-0.004948634677 	-2.528370117e-07 	0.0172144668 	1.022204332e-06 	3.281555824e-05
0.529729052 	0.01162609933 	-0.004496697383 	-3.386958852e-07 	0.01558809645 	1.314031459e-06 	2.971524431e-05
0.5387627144 	0.01037451706 	-0.004015037994 	-4.242479481e-07 	0.0138898994 	1.590130262e-06 	2.647800876e-05
0.5484384488 	0.009142427853 	-0.003506334617 	-5.14247743e-07 	0.0121605794 	1.825371439e-06 	2.31814442e-05
0.5588018907 	0.008000729651 	-0.002970676846 	-6.080377472e-07 	0.01045267915 	1.973423283e-06 	1.992571163e-05
0.5699019192 	0.007020705571 	-0.002416590475 	-6.793375433e-07 	0.008850028241 	1.968295913e-06 	1.687061356e-05
0.5817908876 	0.006250923697 	-0.001863374362 	-7.095536337e-07 	0.007457235607 	1.769723784e-06 	1.42155637e-05
0.5945248701 	0.005709156554 	-0.001334964493 	-6.920755249e-07 	0.006373642693 	1.390374458e-06 	1.214993444e-05
0.6081639266 	0.005392319961 	-0.0008381873919 	-6.519593923e-07 	0.005660761257 	9.118615519e-07 	1.079098428e-05
0.6227723857 	0.005269295204 	-0.0003627866287 	-6.04591311e-07 	0.005319181947 	4.514073725e-07 	1.013983918e-05
0.638419148 	0.005279820202 	9.065667763e-05 	-5.384611813e-07 	0.005298629981 	9.55928752e-08 	1.010066142e-05
0.6551780116 	0.005376087219 	0.0005205488103 	-4.610403624e-07 	0.005531738563 	-1.305088054e-07 	1.054503117e-05
0.6731280194 	0.005536013168 	0.0009306089875 	-3.778967348e-07 	0.005963543411 	-2.375291117e-07 	1.136817122e-05
0.6923538328 	0.005754542222 	0.001324810809 	-2.887719109e-07 	0.006554419637 	-2.390864691e-07 	1.249454553e-05
0.7129461301 	0.006037121326 	0.001707295785 	-1.930482499e-07 	0.007277101362 	-1.465146496e-07 	1.387217776e-05
0.7350020349 	0.006390091542 	0.002076946537 	-9.249923452e-08 	0.008100039765 	2.700210805e-08 	1.544092708e-05
0.7570579485 	0.006805084289 	0.002422464846 	6.25093394e-09 	0.008966682107 	2.54465357e-07 	1.709298826e-05
0.7776502527 	0.007263911456 	0.002736648296 	9.62498484e-08 	0.009825753632 	5.010088844e-07 	1.873061735e-05
0.7968760713 	0.007757396875 	0.003024677414 	1.744617089e-07 	0.0106642454 	7.417181415e-07 	2.03290157e-05
0.814826083 	0.008282976741 	0.003294038957 	2.397078016e-07 	0.01148728731 	9.615062423e-07 	2.189796233e-05
0.831584949 	0.008837403346 	0.003549637622 	2.911290206e-07 	0.01230008871 	1.149604991e-06 	2.344738772e-05
0.8472317127 	0.009416406607 	0.003794423258 	3.282745722e-07 	0.0131059508 	1.298327857e-06 	2.498358483e-05
0.8618401721 	0.01001450469 	0.004029833957 	3.51186838e-07 	0.01390551982 	1.402611833e-06 	2.650778562e-05
0.8754792281 	0.01062502621 	0.004256177273 	3.604826347e-07 	0.01469671646 	1.460049576e-06 	2.801602632e-05
0.8882132094 	0.01124031977 	0.004472972408 	3.573886142e-07 	0.01547510534 	1.471054673e-06 	2.949985186e-05
0.9001021759 	0.01185211119 	0.004679267703 	3.436971795e-07 	0.01623452327 	1.438871893e-06 	3.09475135e-05
0.9112022019 	0.01245192622 	0.004873921104 	3.216368712e-07 	0.01696783202 	1.369276621e-06 	3.234540379e-05
0.9215656407 	0.01303148667 	0.005055820245 	2.936758026e-07 	0.01766763439 	1.269956225e-06 	3.367942162e-05
0.9312413717 	0.01358283152 	0.005224223767 	2.623055089e-07 	0.0183269328 	1.149672678e-06 	3.493622762e-05
0.9402750304 	0.01409756842 	0.005377978926 	2.298085291e-07 	0.01894064516 	1.017446592e-06 	3.610613396e-05
0.9487092242 	0.01456957115 	0.005517277951 	1.981302484e-07 	0.01949850579 	8.814873154e-07 	3.716957137e-05
0.9565837329 	0.01498429965 	0.005647314885 	1.690958989e-07 	0.01999793157 	7.492834412e-07 	3.812161571e-05
0.9639356968 	0.01532127702 	0.005731154763 	1.441818386e-07 	0.02037200571 	6.340484442e-07 	3.883470499e-05
0.9688006083 	0.01555376452 	0.005777646697 	1.258601827e-07 	0.02061109957 	5.471007205e-07 	3.929048433e-05
0.9731064834 	0.01569957871 	0.005819907164 	1.130364527e-07 	0.02077837316 	4.811393106e-07 	3.960935429e-05
0.976917562 	0.01578941605 	0.005842610973 	1.02636938e-07 	0.02087541079 	4.267051977e-07 	3.979433499e-05
0.9802907021 	0.01581417437 	0.005846257431 	9.434906551e-08 	0.02089686041 	3.824248939e-07 	3.983522392e-05
0.9832762282 	0.01576152977 	0.005826974407 	8.776377819e-08 	0.02082523142 	3.46719016e-07 	3.969867916e-05
0.9859186816 	0.01560622844 	0.005777431854 	8.253797369e-08 	0.02063309572 	3.181671256e-07 	3.933241512e-05
0.9882574856 	0.01529830527 	0.005680534615 	7.830393238e-08 	0.02027344658 	2.955420189e-07 	3.864682389e-05
0.990327533 	0.01475616991 	0.00550791335 	7.484586539e-08 	0.0196186254 	2.774161883e-07 	3.739855272e-05
0.9921597073 	0.0137864511 	0.005219788722 	7.226308582e-08 	0.01844178322 	2.628338737e-07 	3.515516445e-05
0.9937813429 	0.01210489455 	0.004610992913 	6.875583165e-08 	0.01619204508 	2.462984135e-07 	3.086653827e-05
0.9948347186 	0.009611803243 	0.003621174877 	6.382274807e-08 	0.012754388 	2.233956773e-07 	2.431340843e-05
0.9958880943 	0.005885603264 	0.002066259714 	4.67080763e-08 	0.007584782175 	1.64351226e-07 	1.445870291e-05
0.9969414701 	0.002004506707 	0.0005610575783 	1.699600037e-08 	0.002389315378 	6.534858785e-08 	4.554699186e-06
0.9979948458 	0.0002074396663 	2.541689109e-05 	9.629116186e-10 	0.0002146363335 	6.371694739e-09 	4.091565066e-07
0.9990482216 	2.822082998e-06 	4.191337743e-08 	1.673832022e-12 	2.817878675e-06 	8.297417334e-11 	5.371659943e-09
0.9990482216 	2.822082998e-06 	4.191337743e-08 	1.673832022e-12 	2.817878675e-06 	8.297417334e-11 	5.371659943e-09
