0 	0.01368035874 	-9.291003111e-16 	-3.377033718e-22 	6.309976253e-29 	2.293509357e-35 	8.33629947e-42
0 	0.01368035874 	-9.291003111e-16 	-3.377033718e-22 	6.309976253e-29 	2.293509357e-35 	8.33629947e-42
0.001889880757 	0.01366622661 	-7.339765884e-05 	3.319306792e-08 	0.01569856829 	-4.569398151e-06 	2.992583435e-05
0.003779741465 	0.0136684789 	-0.0002050174386 	2.203865228e-07 	0.01576905843 	-4.6304662e-06 	3.006020816e-05
0.005669582045 	0.01369189652 	-0.0003071228233 	3.318995697e-07 	0.01579219883 	-4.59676811e-06 	3.010432018e-05
0.007559402482 	0.0137112897 	-0.0004094730576 	4.373234053e-07 	0.01582353563 	-4.574384493e-06 	3.016405683e-05
0.009449202822 	0.01374372099 	-0.0005256779461 	5.521160534e-07 	0.01585793862 	-4.552991104e-06 	3.022963849e-05
0.0123584479 	0.01379754698 	-0.0006742917076 	6.890089485e-07 	0.01591234195 	-4.519345668e-06 	3.033334637e-05
0.01564534699 	0.01387943692 	-0.0008517282347 	8.430509167e-07 	0.01599413902 	-4.507773444e-06 	3.048927431e-05
0.01935891766 	0.01399414879 	-0.001051772375 	1.002847541e-06 	0.01610670829 	-4.517076976e-06 	3.070386264e-05
0.02357816231 	0.01415068539 	-0.001276716202 	1.163819561e-06 	0.01625852959 	-4.545060081e-06 	3.099327623e-05
0.02835083071 	0.01435922479 	-0.00152842396 	1.320115281e-06 	0.01645857755 	-4.594387618e-06 	3.137462323e-05
0.0337430193 	0.01463057265 	-0.001808612611 	1.464253297e-06 	0.01671637184 	-4.658904765e-06 	3.18660508e-05
0.03983513139 	0.01497640167 	-0.00211873461 	1.586269001e-06 	0.01704191965 	-4.724649025e-06 	3.24866354e-05
0.04675897752 	0.01540749972 	-0.002459468884 	1.672691143e-06 	0.01744360038 	-4.762114058e-06 	3.325235052e-05
0.05458402359 	0.01593006862 	-0.002828457966 	1.708747649e-06 	0.0179253532 	-4.740777334e-06 	3.417070529e-05
0.06344293631 	0.01660610291 	-0.003254090079 	1.684533597e-06 	0.01853809441 	-4.643794294e-06 	3.533876034e-05
0.07687936455 	0.01746825234 	-0.003749483357 	1.512327382e-06 	0.01929939428 	-4.207285101e-06 	3.679000948e-05
0.09132747402 	0.01838356684 	-0.004240728375 	1.246904449e-06 	0.02007808555 	-3.543530606e-06 	3.827441147e-05
0.1068517842 	0.01920725093 	-0.004662867391 	9.119553344e-07 	0.02073677824 	-2.680459986e-06 	3.953006281e-05
0.1235382128 	0.01984965828 	-0.004992365429 	5.602051725e-07 	0.02118845288 	-1.726931301e-06 	4.039108022e-05
0.1414763202 	0.02022451886 	-0.00520626711 	2.46838093e-07 	0.02135255289 	-8.16391132e-07 	4.070390045e-05
0.1607597829 	0.02025749056 	-0.005284934386 	1.839959256e-08 	0.0211652752 	-6.815111344e-08 	4.034689712e-05
0.1630177224 	0.02021857253 	-0.00527746409 	3.585732866e-06 	0.02110280886 	-1.577576706e-05 	4.022781891e-05
0.1814869171 	0.01989687714 	-0.005214756329 	8.016583771e-08 	0.02058942121 	-4.497051401e-07 	3.924915936e-05
0.203761246 	0.01913151853 	-0.004994079226 	9.275219998e-08 	0.01962662775 	-7.903777357e-07 	3.741380742e-05
0.22769211 	0.01799715242 	-0.004635570068 	7.323491644e-08 	0.01832428745 	-1.050265838e-06 	3.493118485e-05
0.2533953163 	0.01658108602 	-0.004168261526 	8.175535227e-08 	0.01677624752 	-1.336275623e-06 	3.198019049e-05
0.2809948866 	0.01501057359 	-0.00363412799 	1.626688007e-07 	0.01510919421 	-1.711828733e-06 	2.880232354e-05
0.3106333302 	0.01342430768 	-0.003078408666 	3.259523828e-07 	0.01345477738 	-2.157732592e-06 	2.564854525e-05
0.3424387954 	0.01193819343 	-0.002536839511 	5.467014818e-07 	0.01191821373 	-2.577296098e-06 	2.271942786e-05
0.3765679891 	0.01062609068 	-0.002026687257 	7.794992961e-07 	0.01056257816 	-2.847205816e-06 	2.013520969e-05
0.4131763284 	0.00952858432 	-0.001547362749 	9.772986259e-07 	0.009420305796 	-2.885957511e-06 	1.795772109e-05
0.4524319133 	0.008675241586 	-0.001087421604 	1.107842115e-06 	0.008516549148 	-2.695126666e-06 	1.623490973e-05
0.4945150618 	0.008102814489 	-0.000637543414 	1.162697682e-06 	0.007888022023 	-2.350254522e-06 	1.503676234e-05
0.5366248026 	0.007836568931 	-0.0002059586129 	1.156801518e-06 	0.007564563988 	-1.950659224e-06 	1.442016142e-05
0.5759561429 	0.007846341238 	0.0001984896235 	1.121166049e-06 	0.007521438054 	-1.566473243e-06 	1.433795141e-05
0.6126864062 	0.008076936133 	0.0005830016071 	1.078803723e-06 	0.007706641806 	-1.215532965e-06 	1.469100123e-05
0.6469841783 	0.008484095048 	0.0009574321482 	1.037991947e-06 	0.008077204184 	-8.905078149e-07 	1.539739612e-05
0.6790086872 	0.00903421249 	0.001327377155 	9.982834746e-07 	0.008599283934 	-5.805274381e-07 	1.639262522e-05
0.7089097018 	0.009699738404 	0.001694297542 	9.523789374e-07 	0.009244891987 	-2.835833766e-07 	1.762333361e-05
0.7368272602 	0.01045453344 	0.002055660966 	8.876993619e-07 	0.009988170096 	-1.509210267e-08 	1.904022827e-05
0.7628926911 	0.01127047129 	0.002405751643 	7.888716499e-07 	0.0108019718 	1.900099597e-07 	2.05915605e-05
0.7872286785 	0.01211563276 	0.002736599459 	6.414520065e-07 	0.01165568742 	2.812065572e-07 	2.221897975e-05
0.8099498676 	0.01295373735 	0.003038899644 	4.363802495e-07 	0.0125142254 	2.023939171e-07 	2.385559177e-05
0.8311633612 	0.01374469825 	0.003302942729 	1.735350845e-07 	0.01333811979 	-9.333623843e-08 	2.542616345e-05
0.8509691787 	0.01444628503 	0.003519498531 	-1.368002212e-07 	0.01408482557 	-6.276743671e-07 	2.684959222e-05
0.8694607163 	0.01501677501 	0.003680672598 	-4.748040906e-07 	0.01471104597 	-1.384621256e-06 	2.804334233e-05
0.8867251805 	0.01541777257 	0.003780480743 	-8.136013529e-07 	0.01517634727 	-2.3057127e-06 	2.893033595e-05
0.9028439947 	0.01561818796 	0.003815285312 	-1.122456073e-06 	0.01544403916 	-3.294974708e-06 	2.944063109e-05
0.9178931816 	0.01559489235 	0.003787135336 	-1.370514588e-06 	0.01548593904 	-4.232894725e-06 	2.95205039e-05
0.9319437194 	0.0153553443 	0.003695832217 	-1.524113494e-06 	0.01530424992 	-4.947077187e-06 	2.917415394e-05
0.9412411842 	0.01499648091 	0.003576862562 	-1.577229429e-06 	0.01498600315 	-5.354105475e-06 	2.856748715e-05
0.9494702593 	0.01457984536 	0.003455426517 	-1.557651949e-06 	0.01459349594 	-5.527878072e-06 	2.781925932e-05
0.9567537154 	0.01409946211 	0.003323545575 	-1.485135111e-06 	0.01412775745 	-5.521467587e-06 	2.69314323e-05
0.9632002153 	0.0135711557 	0.003188189489 	-1.370649541e-06 	0.01360605122 	-5.354001071e-06 	2.593691523e-05
0.9689059355 	0.01300567718 	0.003053235259 	-1.225245532e-06 	0.01303990445 	-5.044595825e-06 	2.485768214e-05
0.9739560002 	0.01240722556 	0.002921033147 	-1.059782941e-06 	0.0124354016 	-4.610168468e-06 	2.37053317e-05
0.9784257521 	0.0117686557 	0.002790901896 	-8.84665934e-07 	0.01179411546 	-4.066060375e-06 	2.248286207e-05
0.9823818762 	0.01107091472 	0.002656314134 	-7.0934348e-07 	0.01109025961 	-3.426326711e-06 	2.11411172e-05
0.9858833943 	0.01025458087 	0.002516797379 	-5.451152619e-07 	0.0102662998 	-2.713015341e-06 	1.957042079e-05
0.9889825462 	0.009171557187 	0.002282681746 	-3.981143927e-07 	0.00916765768 	-2.010012209e-06 	1.747610356e-05
0.9909956813 	0.007746310551 	0.001946332777 	-2.817920024e-07 	0.007709977975 	-1.401159945e-06 	1.46973609e-05
0.9930088164 	0.005313501174 	0.001309173925 	-1.726675333e-07 	0.005284739755 	-8.478463395e-07 	1.007418279e-05
0.9950219514 	0.002001670209 	0.0004398023601 	-5.75162281e-08 	0.001999463881 	-3.141253559e-07 	3.81153388e-06
0.9970350865 	0.0001662767339 	1.77331927e-05 	-2.266936701e-09 	0.0001662184866 	-2.848693208e-08 	3.168586335e-07
0.9990482216 	1.186217852e-06 	1.217947003e-08 	-1.096897078e-12 	1.183889557e-06 	-2.011714577e-10 	2.256822541e-09
0.9990482216 	1.186217852e-06 	1.217947003e-08 	-1.096897078e-12 	1.183889557e-06 	-2.011714577e-10 	2.256822541e-09
