0.470659737 	3.650745687e-06 	-6.241744305e-08 	-1.549650254e-13 	3.646625501e-06 	9.628314756e-12 	6.951481732e-09
0.4716964622 	0.000289260042 	-3.944504878e-05 	2.675405248e-10 	0.0003023253022 	-8.138245468e-10 	5.76316053e-07
0.4727331945 	0.002667481056 	-0.0007840451627 	6.268230214e-09 	0.003241502143 	-1.08456326e-08 	6.179204014e-06
0.4737699337 	0.007384819828 	-0.002641868721 	1.392090849e-08 	0.009626300425 	-8.148898417e-09 	1.83504041e-05
0.4748066793 	0.01152928579 	-0.004369227249 	1.358256157e-08 	0.01540823133 	1.812442604e-08 	2.937237141e-05
0.4758434311 	0.01411505449 	-0.005380942083 	1.118365913e-08 	0.01898307064 	4.103014662e-08 	3.618700872e-05
0.4774394867 	0.01576608124 	-0.005976493365 	1.220018468e-08 	0.02120405307 	5.09636725e-08 	4.042081851e-05
0.4792427742 	0.01662776805 	-0.006219040366 	1.576577739e-08 	0.02223142816 	4.835967756e-08 	4.237928099e-05
0.4812801995 	0.01701978592 	-0.006337562205 	2.095215118e-08 	0.02269700449 	3.980704182e-08 	4.326679886e-05
0.48358615 	0.01715303313 	-0.006371677713 	2.715064623e-08 	0.0228346439 	2.8573049e-08 	4.352917783e-05
0.486192473 	0.0171134707 	-0.006349395617 	3.419689362e-08 	0.02277706334 	1.640972152e-08 	4.341941328e-05
0.4891372032 	0.01695382351 	-0.006288473108 	4.164617673e-08 	0.02257219357 	4.705195134e-09 	4.302887457e-05
0.4924642826 	0.01670031609 	-0.006195932422 	4.93684561e-08 	0.02224761865 	-5.885141947e-09 	4.241014455e-05
0.496230251 	0.01636558241 	-0.006075017254 	5.734553413e-08 	0.02182007111 	-1.507202459e-08 	4.159512011e-05
0.5004856092 	0.01595919994 	-0.005924620442 	6.534523862e-08 	0.02129365524 	-2.225149932e-08 	4.059162515e-05
0.505296538 	0.01542487065 	-0.005749329407 	7.364953771e-08 	0.02063043987 	-2.740068709e-08 	3.932735233e-05
0.512575218 	0.01473102773 	-0.005506020781 	8.339325011e-08 	0.0197395376 	-2.940942381e-08 	3.762904498e-05
0.5203808573 	0.01394296112 	-0.005199428798 	9.249861684e-08 	0.01867870572 	-2.815405532e-08 	3.560680458e-05
0.5287496252 	0.01310891032 	-0.00487930674 	1.002650373e-07 	0.01755480554 	-2.367576313e-08 	3.346433846e-05
0.5377230685 	0.01224728963 	-0.004539907041 	1.067530663e-07 	0.01637115118 	-1.694223259e-08 	3.120796427e-05
0.547345261 	0.01137041827 	-0.004179954901 	1.121345932e-07 	0.01514019662 	-8.680383537e-09 	2.886142277e-05
0.5576630227 	0.0104967933 	-0.003799320359 	1.16659771e-07 	0.01387222544 	3.436141431e-10 	2.644431728e-05
0.5687261579 	0.00964931775 	-0.003397319206 	1.208185703e-07 	0.01258476561 	9.314660676e-09 	2.3990061e-05
0.5805877104 	0.008856132031 	-0.002973651927 	1.25357707e-07 	0.01130414794 	1.712171019e-08 	2.154884781e-05
0.5933042393 	0.008148831116 	-0.002528147867 	1.312040799e-07 	0.01006806877 	2.206903051e-08 	1.919253735e-05
0.6069361121 	0.007557491798 	-0.002061164989 	1.395507738e-07 	0.00892712176 	2.159625121e-08 	1.701757524e-05
0.6215479937 	0.007105042213 	-0.001573345956 	1.513458831e-07 	0.00794259243 	1.269326033e-08 	1.51407887e-05
0.6372107484 	0.006803139811 	-0.001065471142 	1.664600158e-07 	0.007179326723 	-6.701096086e-09 	1.368579213e-05
0.6539962598 	0.006651063473 	-0.0005394988216 	1.83614199e-07 	0.006694769977 	-3.595928546e-08 	1.276209229e-05
0.6719847469 	0.006640335493 	1.075578902e-06 	2.006100645e-07 	0.006528653091 	-7.120374256e-08 	1.244542734e-05
0.6912601121 	0.006762738005 	0.000551737986 	2.147640688e-07 	0.006698596261 	-1.064524077e-07 	1.276938625e-05
0.7119125193 	0.007017208383 	0.001108051547 	2.23512842e-07 	0.007201588385 	-1.359249911e-07 	1.372822904e-05
0.7340386155 	0.007405332059 	0.001657509452 	2.247603653e-07 	0.00800211064 	-1.557853283e-07 	1.525424695e-05
0.7561688545 	0.007907322026 	0.002172385639 	2.182760423e-07 	0.009002620255 	-1.64834429e-07 	1.716149635e-05
0.7768330656 	0.008482254156 	0.002632783548 	2.062383382e-07 	0.01008168164 	-1.647386152e-07 	1.921848727e-05
0.7961274613 	0.00909776036 	0.003040666354 	1.909174222e-07 	0.01116480927 	-1.585038028e-07 	2.128322957e-05
0.814142334 	0.009733111593 	0.003404365944 	1.740363055e-07 	0.01221818841 	-1.486588117e-07 	2.329126299e-05
0.8309622617 	0.0103713479 	0.003730352747 	1.56815916e-07 	0.01322396086 	-1.368390803e-07 	2.520854481e-05
0.8466663774 	0.0109995572 	0.004023846024 	1.400857111e-07 	0.0141738191 	-1.239479579e-07 	2.701923861e-05
0.8613285871 	0.01160865304 	0.004289143172 	1.243690335e-07 	0.0150649536 	-1.104710373e-07 	2.871798865e-05
0.8750179829 	0.01219275103 	0.004529822934 	1.09954591e-07 	0.01589764132 	-9.669095697e-08 	3.030532288e-05
0.8877990797 	0.01274840672 	0.004748882052 	9.695027015e-08 	0.01667382354 	-8.281763009e-08 	3.178494192e-05
0.8997321264 	0.01327389414 	0.004948837083 	8.533874311e-08 	0.01739623839 	-6.905703133e-08 	3.316206541e-05
0.9108733837 	0.01376857528 	0.005131799394 	7.501924677e-08 	0.01806787352 	-5.563836085e-08 	3.444238863e-05
0.9212753826 	0.01423235548 	0.005299518361 	6.584329828e-08 	0.0186915779 	-4.281416503e-08 	3.563134253e-05
0.9309871706 	0.01466504217 	0.005453604998 	5.764415924e-08 	0.01926983848 	-3.08436359e-08 	3.673366792e-05
0.9400545422 	0.01506499979 	0.005594653406 	5.026319432e-08 	0.01980577625 	-1.995626623e-08 	3.775531427e-05
0.9485202539 	0.0154317553 	0.005723998374 	4.35357533e-08 	0.02029525618 	-1.032716762e-08 	3.868839906e-05
0.9564242262 	0.01575456383 	0.005847963909 	3.738850425e-08 	0.02074049065 	-2.154636679e-09 	3.95371397e-05
0.9638037307 	0.01602100612 	0.005927956228 	3.189882998e-08 	0.02107802276 	3.852576541e-09 	4.018056971e-05
0.9686868836 	0.01620672492 	0.005972901337 	2.770968969e-08 	0.02129790505 	7.997191368e-09 	4.059972648e-05
0.9730089153 	0.01632033574 	0.006016102499 	2.416349894e-08 	0.02145728428 	1.046867953e-08 	4.090354757e-05
0.976834303 	0.01638688364 	0.006040077487 	2.082323955e-08 	0.02155258652 	1.183318147e-08 	4.108522015e-05
0.9802201149 	0.0163950517 	0.006045078107 	1.759386315e-08 	0.02157636927 	1.201005805e-08 	4.113055667e-05
0.9832168622 	0.01633058847 	0.006026836834 	1.440472826e-08 	0.02150900622 	1.093940771e-08 	4.100214398e-05
0.9858692517 	0.01616637164 	0.00597771025 	1.110905675e-08 	0.02132124609 	8.418945444e-09 	4.064422097e-05
0.9882168534 	0.01585054575 	0.005880256444 	7.617303138e-09 	0.02096469937 	4.293035014e-09 	3.996454383e-05
0.9902946903 	0.01529988457 	0.005706124003 	4.003336431e-09 	0.02030997978 	-1.180639297e-09 	3.871646632e-05
0.992133761 	0.01431749318 	0.005416193112 	4.618418408e-10 	0.01912990113 	-7.27609959e-09 	3.646690844e-05
0.9937615021 	0.01261495124 	0.004801647115 	-1.992608085e-09 	0.01686084525 	-1.129410692e-08 	3.214145728e-05
0.9948188447 	0.01008246142 	0.003802111082 	-2.736348712e-09 	0.01337922177 	-1.144550942e-08 	2.550451525e-05
0.9958761879 	0.006242387039 	0.002201778789 	-2.237551482e-09 	0.00805677336 	-8.325271944e-09 	1.535844929e-05
0.9969335318 	0.002156404337 	0.00061135577 	-9.944163908e-10 	0.0025805599 	-3.624248193e-09 	4.9192644e-06
0.9979908764 	0.0002248296425 	2.824125079e-05 	-1.270813386e-10 	0.0002330485967 	-6.446219413e-10 	4.442553978e-07
0.9990482216 	3.011323357e-06 	4.59130894e-08 	-4.839014887e-13 	3.006904858e-06 	-1.669580497e-11 	5.731996385e-09
0.9990482216 	3.011323357e-06 	4.59130894e-08 	-4.839014887e-13 	3.006904858e-06 	-1.669580497e-11 	5.731996385e-09
