0.4709558481 	0.06130124317 	0.0004472221165 	-7.245255689e-09
0.4720092239 	0.2344330909 	0.000786493833 	-4.185465704e-09
0.4730625996 	0.4528474712 	-0.0003783885522 	1.181072831e-08
0.4741159754 	0.6242082974 	-0.00103690663 	3.716756325e-09
0.4751693511 	0.7380205771 	-0.0001389567198 	-1.125120692e-08
0.4762227269 	0.8211298733 	0.0002914343147 	-9.483515822e-09
0.4778443634 	0.8924814939 	0.000248977362 	-9.457657843e-09
0.4796765386 	0.9512309749 	0.000134595974 	-1.384459715e-08
0.4817465869 	0.9993992106 	2.637890995e-05 	-1.838830969e-08
0.4840853915 	1.040607693 	2.865132979e-05 	-2.376808251e-08
0.4867278453 	1.076988119 	3.607041998e-05 	-2.991317702e-08
0.4897133715 	1.109877209 	4.396084923e-05 	-3.704327746e-08
0.4930865115 	1.140147231 	5.284473492e-05 	-4.535669023e-08
0.4968975894 	1.168398075 	6.667472685e-05 	-5.501488482e-08
0.5012034633 	1.195056422 	7.522812174e-05 	-6.623500904e-08
0.506068373 	1.222615864 	8.51474733e-05 	-8.044847224e-08
0.5134203412 	1.251877507 	0.0001217442731 	-9.924383966e-08
0.5212948542 	1.279517869 	0.0001539603422 	-1.21289452e-07
0.529729052 	1.304137922 	0.0001784491802 	-1.452692007e-07
0.5387627144 	1.326283193 	0.000217092642 	-1.712758451e-07
0.5484384488 	1.346277322 	0.0002595772721 	-1.988076066e-07
0.5588018907 	1.364287938 	0.0003065261587 	-2.267770785e-07
0.5699019192 	1.380363095 	0.0003583156472 	-2.554343092e-07
0.5817908876 	1.394464695 	0.0004156871954 	-2.854161576e-07
0.5945248701 	1.406496938 	0.0004761858305 	-3.121315362e-07
0.6081639266 	1.416324366 	0.0005353511245 	-3.31796038e-07
0.6227723857 	1.423819553 	0.000590245255 	-3.452365046e-07
0.638419148 	1.428944337 	0.0006370465645 	-3.508909734e-07
0.6551780116 	1.431768116 	0.0006732921473 	-3.483004612e-07
0.6731280194 	1.432396562 	0.0006995686596 	-3.398741205e-07
0.6923538328 	1.430878757 	0.0007156482648 	-3.262185238e-07
0.7129461301 	1.427139433 	0.00072040579 	-3.071614747e-07
0.7350020349 	1.42106742 	0.0007137470892 	-2.838290718e-07
0.7570579485 	1.41288033 	0.0006965948159 	-2.59163001e-07
0.7776502527 	1.403110883 	0.0006705452164 	-2.363041154e-07
0.7968760713 	1.39213513 	0.0006378776032 	-2.166948144e-07
0.814826083 	1.38013231 	0.0006009386542 	-2.003803444e-07
0.831584949 	1.36722676 	0.0005615440247 	-1.86835408e-07
0.8472317127 	1.353498996 	0.0005209420394 	-1.753494332e-07
0.8618401721 	1.338992413 	0.0004799401793 	-1.651948275e-07
0.8754792281 	1.323716957 	0.000439067046 	-1.55714889e-07
0.8882132094 	1.307650187 	0.000398688515 	-1.463717034e-07
0.9001021759 	1.290735724 	0.0003590802949 	-1.367679159e-07
0.9112022019 	1.272878748 	0.000320503254 	-1.26649406e-07
0.9215656407 	1.253937606 	0.00028323143 	-1.158939528e-07
0.9312413717 	1.233709797 	0.000247552393 	-1.044941275e-07
0.9402750304 	1.211907178 	0.0002142089561 	-9.252520896e-08
0.9487092242 	1.188119197 	0.0001734487927 	-8.017928287e-08
0.9565837329 	1.161746705 	0.0001451390257 	-6.757605625e-08
0.9639356968 	1.13404988 	0.0001301918539 	-5.596283669e-08
0.9688006083 	1.108058636 	0.0001023893439 	-4.683940075e-08
0.9731064834 	1.082931379 	8.105120132e-05 	-3.946731352e-08
0.976917562 	1.056299247 	6.895368764e-05 	-3.29198499e-08
0.9802907021 	1.027732525 	5.555443024e-05 	-2.716830147e-08
0.9832762282 	0.9966370635 	4.429600625e-05 	-2.213330006e-08
0.9859186816 	0.9621558044 	3.481668769e-05 	-1.771818182e-08
0.9882574856 	0.9229805569 	2.046185682e-05 	-1.373477401e-08
0.990327533 	0.8770279725 	-0.0001019749423 	-1.035156314e-08
0.9921597073 	0.8207718891 	-0.0002345834671 	-7.206273012e-09
0.9937813429 	0.7522210109 	-0.00023569057 	-8.985686754e-09
0.9948347186 	0.6722331515 	0.0002402606141 	-1.007541294e-08
0.9958880943 	0.56360186 	0.0009389877245 	6.637649016e-09
0.9969414701 	0.4046167541 	0.0002052931046 	1.094117411e-08
0.9979948458 	0.2079582639 	-0.0007185518342 	-6.358997317e-09
0.9990482216 	0.05961086405 	-0.0003810038471 	-7.777529474e-09
0.9990482216 	0.05961086405 	-0.0003810038471 	-7.777529474e-09
