1.218267812e-35 	0.01247698376 	-8.594359327e-16 	5.263618898e-19 	2.573140467e-15 	-1.12345739e-16 	4.905120898e-18
0.00190503019 	0.01246372905 	-6.696867124e-05 	4.228647907e-08 	0.01408610427 	-3.308493982e-06 	2.685202977e-05
0.003810043283 	0.01245989147 	-0.0001657078087 	1.17340614e-07 	0.01414105711 	-3.301593113e-06 	2.695678516e-05
0.005715039211 	0.01246945007 	-0.0002470877099 	1.730651281e-07 	0.01415768548 	-3.270701127e-06 	2.698848346e-05
0.007620017961 	0.01247215501 	-0.0003289027297 	2.270725834e-07 	0.014180213 	-3.245345377e-06 	2.703142717e-05
0.009524979574 	0.01247893481 	-0.0004221056156 	2.869235106e-07 	0.01420412347 	-3.224224384e-06 	2.707700716e-05
0.01245757067 	0.01249090989 	-0.0005413693646 	3.590612006e-07 	0.01424176031 	-3.191903068e-06 	2.714875345e-05
0.01577085506 	0.01251027599 	-0.0006837081199 	4.407889231e-07 	0.01429828584 	-3.168904797e-06 	2.725650682e-05
0.01951424692 	0.01253841564 	-0.0008442173066 	5.268034862e-07 	0.01437612918 	-3.155332889e-06 	2.740489785e-05
0.02376371923 	0.01257793861 	-0.001024943305 	6.155347957e-07 	0.01448147974 	-3.149590156e-06 	2.76057253e-05
0.02856971015 	0.01263203394 	-0.001227775122 	7.049867803e-07 	0.01462135514 	-3.155923218e-06 	2.78723667e-05
0.03399956521 	0.01270432778 	-0.001454626106 	7.924063016e-07 	0.01480388902 	-3.174100469e-06 	2.822032699e-05
0.04013425608 	0.01279921699 	-0.001707570958 	8.742328787e-07 	0.01503850224 	-3.200725072e-06 	2.8667565e-05
0.04710020392 	0.01292156009 	-0.001988693296 	9.451431636e-07 	0.01533535542 	-3.224712022e-06 	2.923344968e-05
0.05497248355 	0.0130758771 	-0.002298674062 	9.993264661e-07 	0.01570419483 	-3.236903519e-06 	2.99365601e-05
0.06388212204 	0.01328622662 	-0.002668293484 	1.03914112e-06 	0.01619731617 	-3.242222575e-06 	3.087658643e-05
0.07738804933 	0.01357526776 	-0.003118907329 	1.014398457e-06 	0.01685982417 	-3.085508894e-06 	3.213951081e-05
0.09190225286 	0.01391408608 	-0.003597739958 	9.371115637e-07 	0.01762000214 	-2.810891544e-06 	3.35886213e-05
0.1074900975 	0.01426054444 	-0.004057554359 	7.962864914e-07 	0.01838585827 	-2.372087866e-06 	3.504855595e-05
0.1242359314 	0.0145819504 	-0.004482663701 	5.996573253e-07 	0.01909637438 	-1.776723084e-06 	3.640299713e-05
0.1422279963 	0.01483702091 	-0.004853871534 	3.617094981e-07 	0.01967863997 	-1.064108662e-06 	3.751295718e-05
0.1615588878 	0.01497643454 	-0.00514848852 	1.047458204e-07 	0.02005163929 	-3.049698831e-07 	3.822399756e-05
0.1701363888 	0.01496409234 	-0.005227973994 	8.574356601e-06 	0.02008441079 	-4.5371055e-05 	3.828646913e-05
0.1823260612 	0.01494622938 	-0.005340739107 	1.402927426e-07 	0.02013029996 	-4.029435993e-07 	3.837394665e-05
0.2046323802 	0.01469363044 	-0.005402870718 	3.306652394e-07 	0.01983243775 	-9.348023328e-07 	3.78061385e-05
0.2285867053 	0.01417695361 	-0.00530840085 	4.281042825e-07 	0.01909181712 	-1.194371365e-06 	3.639430972e-05
0.254304522 	0.01337961124 	-0.005038022692 	4.109727467e-07 	0.01787795458 	-1.151513069e-06 	3.408035035e-05
0.2819095097 	0.01232720725 	-0.004589064024 	2.929387611e-07 	0.01622296774 	-8.853886478e-07 	3.092548545e-05
0.3115423872 	0.01110224213 	-0.003986195779 	1.340175998e-07 	0.01424715554 	-5.905489615e-07 	2.715903825e-05
0.3433329903 	0.009840728375 	-0.003283925192 	1.764350286e-08 	0.01215807172 	-4.865805193e-07 	2.317666387e-05
0.37743697 	0.008696096697 	-0.002550498343 	-6.269594545e-09 	0.01019979723 	-6.570764993e-07 	1.944364841e-05
0.414010442 	0.007785814873 	-0.001838870465 	4.610084491e-08 	0.008574306419 	-9.807265153e-07 	1.634501114e-05
0.4532220137 	0.00716197183 	-0.001165419303 	1.23359746e-07 	0.007395713794 	-1.249749674e-06 	1.409828602e-05
0.4952525067 	0.006826120817 	-0.0005219256154 	1.88156912e-07 	0.00671335697 	-1.327433103e-06 	1.279752427e-05
0.5373056793 	0.006745433408 	8.757255901e-05 	2.305885563e-07 	0.006525803917 	-1.197464476e-06 	1.243999602e-05
0.5765818555 	0.006860650153 	0.0006549322579 	2.545789937e-07 	0.006755498454 	-9.320874741e-07 	1.287785765e-05
0.6132593029 	0.007123975548 	0.001186690146 	2.627146779e-07 	0.007302963555 	-6.168169941e-07 	1.392147829e-05
0.6475070436 	0.007507557899 	0.001689362088 	2.501826855e-07 	0.008085556013 	-3.244949504e-07 	1.541331703e-05
0.679484443 	0.007990309266 	0.002163368866 	2.078598405e-07 	0.009031052435 	-1.183951109e-07 	1.721569599e-05
0.7093412355 	0.008549942223 	0.002604720106 	1.279980749e-07 	0.01007205685 	-4.769552312e-08 	1.920013973e-05
0.7372173963 	0.009158493345 	0.003006415512 	8.58057691e-09 	0.01114386486 	-1.402275057e-07 	2.124330371e-05
0.7632441099 	0.009781904739 	0.003360472577 	-1.45350706e-07 	0.0121859086 	-3.980406899e-07 	2.322972869e-05
0.7875439148 	0.01038291906 	0.003659643431 	-3.228243946e-07 	0.01314466759 	-7.988007629e-07 	2.505738979e-05
0.8102313055 	0.01092541137 	0.00389856038 	-5.091690775e-07 	0.01397617696 	-1.301352766e-06 	2.664247777e-05
0.8314132346 	0.01137847714 	0.004074365249 	-6.882995573e-07 	0.01464756773 	-1.852841672e-06 	2.792233517e-05
0.8511895776 	0.01171924086 	0.004186942591 	-8.446029121e-07 	0.01513765683 	-2.39589057e-06 	2.885658121e-05
0.8696535944 	0.01193395169 	0.004238995244 	-9.643909148e-07 	0.01543669948 	-2.87520823e-06 	2.942663962e-05
0.8868923629 	0.01201709737 	0.004235446588 	-1.037112962e-06 	0.01554605397 	-3.242881724e-06 	2.963509967e-05
0.9029871861 	0.01197116502 	0.004183844023 	-1.056102382e-06 	0.0154730841 	-3.462820133e-06 	2.949599881e-05
0.9180139737 	0.01179946989 	0.004096138903 	-1.018501404e-06 	0.01523552417 	-3.511471957e-06 	2.904314356e-05
0.9320435986 	0.01154025199 	0.003975532336 	-9.375572619e-07 	0.01486911387 	-3.395529256e-06 	2.834466369e-05
0.941327225 	0.0112571566 	0.003856191008 	-8.387582342e-07 	0.01447382339 	-3.178889634e-06 	2.759113017e-05
0.9495440518 	0.01096447184 	0.00375611734 	-7.325993383e-07 	0.01409135216 	-2.906214918e-06 	2.68620337e-05
0.9568166671 	0.01065551095 	0.003658546301 	-6.217574169e-07 	0.01369697596 	-2.584780613e-06 	2.611024306e-05
0.963253572 	0.01033472749 	0.003566072082 	-5.117895899e-07 	0.01330047738 	-2.231546623e-06 	2.535440655e-05
0.9689507996 	0.01000500486 	0.003478331946 	-4.072363741e-07 	0.01290404724 	-1.861781064e-06 	2.459870054e-05
0.9739933478 	0.009664097953 	0.003393351517 	-3.114718191e-07 	0.01250481661 	-1.489520272e-06 	2.3837656e-05
0.9784564469 	0.009299603152 	0.003304334699 	-2.266286037e-07 	0.01209454141 	-1.12888998e-06 	2.305555743e-05
0.9824066826 	0.008889959454 	0.003202070115 	-1.537753499e-07 	0.01163055762 	-7.929949799e-07 	2.217107538e-05
0.985902989 	0.008358552482 	0.003079021647 	-9.418899336e-08 	0.01104963516 	-4.963889478e-07 	2.10636757e-05
0.9889975281 	0.007594011761 	0.002831129992 	-4.826605691e-08 	0.01008046515 	-2.659771944e-07 	1.92161683e-05
0.9910076668 	0.006497414595 	0.002444935751 	-1.683658316e-08 	0.008617162697 	-1.113664701e-07 	1.642670712e-05
0.9930178055 	0.004529498376 	0.001663065651 	3.025070913e-09 	0.005934373619 	-1.538955943e-08 	1.131256549e-05
0.9950279442 	0.001760979717 	0.0005679258537 	6.107034258e-09 	0.002202728077 	1.129840019e-08 	4.199011932e-06
0.9970380829 	0.0001589421284 	2.431776123e-05 	5.417424393e-10 	0.0001677502001 	1.281074318e-09 	3.197785051e-07
0.9990482216 	1.163442544e-06 	1.71510013e-08 	5.376731399e-13 	1.161720642e-06 	1.034566931e-11 	2.214562428e-09
0.9990482216 	1.163442544e-06 	1.71510013e-08 	5.376731399e-13 	1.161720642e-06 	1.034566931e-11 	2.214562428e-09
