0.4709558481 	4.208032718e-06 	-5.428141947e-08 	3.588438635e-12 	4.199667388e-06 	-1.987824894e-10 	8.005733278e-09
0.4720092239 	0.0003436266194 	-3.498442906e-05 	2.162250363e-09 	0.0003433579711 	-1.617983841e-08 	6.545357243e-07
0.4730625996 	0.003358512659 	-0.0006996378199 	3.310833239e-08 	0.00335687735 	-1.381635248e-07 	6.399141226e-06
0.4741159754 	0.009348135466 	-0.002290400308 	7.85806422e-08 	0.009306383512 	-2.981487791e-07 	1.774055355e-05
0.4751693511 	0.01442458038 	-0.003694824676 	9.507817133e-08 	0.01434464411 	-3.595057699e-07 	2.734487856e-05
0.4762227269 	0.01744233524 	-0.00448920629 	9.477747446e-08 	0.01738632476 	-3.637069425e-07 	3.314316728e-05
0.4778443634 	0.01929063507 	-0.004948887896 	9.073160769e-08 	0.01925874414 	-3.439506358e-07 	3.671251902e-05
0.4796765386 	0.02014344718 	-0.00511296817 	8.200442745e-08 	0.02011279373 	-3.049662158e-07 	3.83405749e-05
0.4817465869 	0.02046667309 	-0.005180206935 	7.118007345e-08 	0.02042106387 	-2.532286255e-07 	3.892822349e-05
0.4840853915 	0.02047047879 	-0.005176759413 	5.760542209e-08 	0.02040573817 	-1.878672525e-07 	3.889900844e-05
0.4867278453 	0.0202488988 	-0.005125887965 	4.069885655e-08 	0.02017650399 	-1.072801908e-07 	3.846202438e-05
0.4897133715 	0.01985171436 	-0.005036506618 	1.982446519e-08 	0.01977148665 	-9.052555764e-09 	3.768994875e-05
0.4930865115 	0.01929966044 	-0.004911539701 	-5.775750154e-09 	0.01921030516 	1.095278186e-07 	3.662018087e-05
0.4968975894 	0.01859952253 	-0.004751848207 	-3.698486207e-08 	0.0185013814 	2.513064775e-07 	3.526877515e-05
0.5012034633 	0.01775116115 	-0.004554369467 	-7.456930813e-08 	0.01764479302 	4.185904847e-07 	3.363587961e-05
0.506068373 	0.01665901036 	-0.004309391011 	-1.249224939e-07 	0.01653944419 	6.298498761e-07 	3.152877753e-05
0.5134203412 	0.0152164408 	-0.003970022401 	-1.918482375e-07 	0.01508459515 	8.949446997e-07 	2.875543091e-05
0.5212948542 	0.01355011798 	-0.003550935116 	-2.661728687e-07 	0.01341334162 	1.172928369e-06 	2.556955717e-05
0.529729052 	0.01182908902 	-0.003105249183 	-3.443819153e-07 	0.01168746261 	1.407299962e-06 	2.22795521e-05
0.5387627144 	0.0101317105 	-0.002625912697 	-4.334371441e-07 	0.009989682658 	1.538099908e-06 	1.904311163e-05
0.5484384488 	0.00856159314 	-0.002118042282 	-5.071398705e-07 	0.008431421962 	1.513548196e-06 	1.607263365e-05
0.5588018907 	0.007228595652 	-0.001613120908 	-5.307956132e-07 	0.007119273191 	1.323352429e-06 	1.35713134e-05
0.5699019192 	0.006216655462 	-0.001148078441 	-4.948719848e-07 	0.006132160022 	1.000699101e-06 	1.168960135e-05
0.5817908876 	0.00555665291 	-0.0007458753893 	-4.332740155e-07 	0.005496907218 	6.183694814e-07 	1.047863294e-05
0.5945248701 	0.005214673194 	-0.0003972652455 	-3.827154844e-07 	0.00517915997 	2.781490148e-07 	9.872918377e-06
0.6081639266 	0.005111451209 	-8.229903666e-05 	-3.377638666e-07 	0.00510040854 	4.747182617e-08 	9.722796262e-06
0.6227723857 	0.00516507495 	0.0002077281269 	-2.994401382e-07 	0.005178015718 	-8.429701202e-08 	9.870737114e-06
0.638419148 	0.005321904121 	0.0004818680709 	-2.691497539e-07 	0.005358442995 	-1.509865768e-07 	1.021468165e-05
0.6551780116 	0.00555220491 	0.0007465976964 	-2.413089508e-07 	0.005611866343 	-1.721999661e-07 	1.069777699e-05
0.6731280194 	0.005838952608 	0.001003943702 	-2.115410015e-07 	0.005920423433 	-1.58422288e-07 	1.128597256e-05
0.6923538328 	0.006171870031 	0.001253347522 	-1.767486218e-07 	0.006273013292 	-1.144445127e-07 	1.195810683e-05
0.7129461301 	0.006545483516 	0.001493215188 	-1.34668956e-07 	0.006663042425 	-4.1980013e-08 	1.270161076e-05
0.7350020349 	0.006952321383 	0.001718801645 	-8.44517668e-08 	0.007081491992 	5.719292958e-08 	1.349929194e-05
0.7570579485 	0.007374676984 	0.001921261024 	-2.831282559e-08 	0.007509200307 	1.770459123e-07 	1.431462286e-05
0.7776502527 	0.007798370895 	0.00209779785 	2.993911545e-08 	0.007931607132 	3.09623768e-07 	1.511984767e-05
0.7968760713 	0.008226446173 	0.00225509652 	8.762107077e-08 	0.008352364422 	4.50666542e-07 	1.592192801e-05
0.814826083 	0.008669411553 	0.002401391796 	1.427913846e-07 	0.008782959344 	5.979229233e-07 	1.674276161e-05
0.831584949 	0.00913702741 	0.00254302602 	1.935613754e-07 	0.009234224699 	7.482350875e-07 	1.76029988e-05
0.8472317127 	0.009637492467 	0.002684593604 	2.381736742e-07 	0.009715491862 	8.970179211e-07 	1.852042777e-05
0.8618401721 	0.01017680015 	0.002829117604 	2.750446393e-07 	0.01023398633 	1.038123117e-06 	1.950882234e-05
0.8754792281 	0.01075821014 	0.002978208935 	3.028138043e-07 	0.01079425982 	1.164038701e-06 	2.057685933e-05
0.8882132094 	0.01138180085 	0.003132206848 	3.204285694e-07 	0.01139765685 	1.266439058e-06 	2.172710178e-05
0.9001021759 	0.01204414318 	0.003290328766 	3.272651166e-07 	0.01204186733 	1.337093559e-06 	2.295514599e-05
0.9112022019 	0.01273817096 	0.00345085729 	3.232599072e-07 	0.0127206878 	1.369058932e-06 	2.424916647e-05
0.9215656407 	0.0134533357 	0.003611370234 	3.090101212e-07 	0.01342409713 	1.357947229e-06 	2.559006016e-05
0.9312413717 	0.0141760993 	0.003769167574 	2.858030917e-07 	0.01413863256 	1.302946214e-06 	2.695216329e-05
0.9402750304 	0.01488985888 	0.003921311519 	2.555405648e-07 	0.01484925636 	1.207304347e-06 	2.830680976e-05
0.9487092242 	0.01557765811 	0.004064608076 	2.205521994e-07 	0.0155351272 	1.077926772e-06 	2.961427021e-05
0.9565837329 	0.01621953967 	0.004201266169 	1.835584702e-07 	0.01617461948 	9.24645643e-07 	3.083332024e-05
0.9639356968 	0.01674663827 	0.004297257319 	1.486846446e-07 	0.01670546303 	7.707176862e-07 	3.184525557e-05
0.9688006083 	0.01711967047 	0.004356146129 	1.210742546e-07 	0.01708293273 	6.414281215e-07 	3.256481774e-05
0.9731064834 	0.01738673767 	0.004407016014 	1.000192601e-07 	0.01735015103 	5.344584475e-07 	3.307421009e-05
0.976917562 	0.01757482152 	0.004439582591 	8.235420464e-08 	0.01753916547 	4.406452116e-07 	3.343452415e-05
0.9802907021 	0.01767751819 	0.004455031301 	6.784956811e-08 	0.01764342724 	3.602457548e-07 	3.363327605e-05
0.9832762282 	0.01768226868 	0.004450594903 	5.610392204e-08 	0.0176489898 	2.926728445e-07 	3.364387984e-05
0.9859186816 	0.0175637406 	0.004421609935 	4.671415804e-08 	0.01753201047 	2.369162687e-07 	3.342088472e-05
0.9882574856 	0.01727014021 	0.004357788609 	3.924239234e-08 	0.01725064487 	1.918121832e-07 	3.288452368e-05
0.990327533 	0.01670741619 	0.004234381743 	3.332547444e-08 	0.01669710973 	1.559674533e-07 	3.182933187e-05
0.9921597073 	0.01567731681 	0.004020389488 	2.8957223e-08 	0.01565573431 	1.280376919e-07 	2.984418088e-05
0.9937813429 	0.01377592667 	0.003545641976 	2.523579686e-08 	0.01372710535 	1.065931443e-07 	2.616767804e-05
0.9948347186 	0.01088397113 	0.002769162015 	2.184478891e-08 	0.01082798569 	8.85568906e-08 	2.06411502e-05
0.9958880943 	0.006537722256 	0.001561900064 	1.516396279e-08 	0.006515188428 	6.176053079e-08 	1.241975995e-05
0.9969414701 	0.002127430986 	0.0004124678383 	5.234662398e-09 	0.002127324053 	2.43732767e-08 	4.055270903e-06
0.9979948458 	0.0002053971475 	1.77632821e-05 	2.739000009e-10 	0.0002051650803 	2.565948875e-09 	3.911016657e-07
0.9990482216 	2.750227452e-06 	2.894321011e-08 	4.64421201e-13 	2.744794937e-06 	3.443769247e-11 	5.232342027e-09
0.9990482216 	2.750227452e-06 	2.894321011e-08 	4.64421201e-13 	2.744794937e-06 	3.443769247e-11 	5.232342027e-09
