9.3321304e-34 	0.01037521785 	-6.974963147e-16 	-3.118055604e-19 	-2.009995062e-15 	8.775827964e-17 	-3.831609237e-18
0.00192775434 	0.0103673527 	-4.055892952e-05 	1.761603905e-08 	0.01130656286 	-2.606855472e-06 	2.155345131e-05
0.003855496009 	0.01036459769 	-9.288845132e-05 	4.660806389e-08 	0.01133735675 	-2.587463594e-06 	2.161215303e-05
0.00578322496 	0.01036916653 	-0.000138215922 	6.86301217e-08 	0.01134502338 	-2.556956876e-06 	2.162676775e-05
0.00771094118 	0.01036928501 	-0.0001838806841 	9.013629619e-08 	0.01135531644 	-2.527962522e-06 	2.164638919e-05
0.009638644701 	0.01037106638 	-0.0002359983842 	1.140501686e-07 	0.01136498951 	-2.499282462e-06 	2.166482874e-05
0.01260625481 	0.01037455624 	-0.000302740431 	1.43058522e-07 	0.01137992636 	-2.455195392e-06 	2.169330252e-05
0.01595911716 	0.01038069089 	-0.0003824311061 	1.761372063e-07 	0.01140233711 	-2.409105454e-06 	2.173602365e-05
0.01974724082 	0.01038999756 	-0.000472351056 	2.112594624e-07 	0.01143298829 	-2.360783354e-06 	2.179445331e-05
0.02404205461 	0.01040341694 	-0.0005737266237 	2.479463232e-07 	0.0114743074 	-2.308138987e-06 	2.187321903e-05
0.02889802931 	0.01042213964 	-0.0006877796015 	2.856301606e-07 	0.01152909107 	-2.253266266e-06 	2.197765193e-05
0.03438438409 	0.01044752598 	-0.0008157739809 	3.234601546e-07 	0.01160068906 	-2.196272697e-06 	2.211413759e-05
0.0405829431 	0.01048123653 	-0.0009591076325 	3.602945635e-07 	0.01169306134 	-2.136311197e-06 	2.229022483e-05
0.04761204351 	0.01052513816 	-0.001119326537 	3.943563903e-07 	0.01181075149 	-2.069631224e-06 	2.251457496e-05
0.05555517351 	0.01058103103 	-0.001297493176 	4.237141308e-07 	0.01195876917 	-1.996292088e-06 	2.27967378e-05
0.06454090063 	0.01065775748 	-0.001512980375 	4.508181914e-07 	0.01216070936 	-1.919730703e-06 	2.318169193e-05
0.07815107649 	0.01076529296 	-0.001780339567 	4.568078606e-07 	0.01244057646 	-1.770714572e-06 	2.371519642e-05
0.09276442112 	0.01089539615 	-0.002071488553 	4.438992797e-07 	0.01277641455 	-1.597161254e-06 	2.435539716e-05
0.1084475675 	0.0110343456 	-0.002361903801 	4.050091819e-07 	0.01313743361 	-1.380982477e-06 	2.504359982e-05
0.1252825093 	0.01117201725 	-0.002645040016 	3.400685004e-07 	0.01350439128 	-1.115118045e-06 	2.574312313e-05
0.1433555104 	0.01129428138 	-0.002912465482 	2.507500031e-07 	0.01385046179 	-7.985371889e-07 	2.64028297e-05
0.162757545 	0.01138202994 	-0.003153709146 	1.409592104e-07 	0.01414127136 	-4.385885528e-07 	2.695719358e-05
0.1835847774 	0.01141094261 	-0.003356111988 	1.724671453e-08 	0.01433500612 	-5.258648775e-08 	2.732650588e-05
0.1866078948 	0.01140297569 	-0.003376210017 	1.55297951e-06 	0.01434155646 	-1.007391436e-05 	2.733899264e-05
0.2059390814 	0.01135202635 	-0.003504811555 	1.1394617e-07 	0.01438351937 	-3.391416156e-07 	2.741898561e-05
0.2299285983 	0.01117297097 	-0.00358260611 	2.363395924e-07 	0.0142338751 	-6.889532131e-07 	2.713372204e-05
0.2556683305 	0.01084197604 	-0.003570654942 	3.339737586e-07 	0.01383303812 	-9.505164653e-07 	2.636961536e-05
0.2832814443 	0.01033420516 	-0.003449721507 	3.909080533e-07 	0.01313547245 	-1.081645835e-06 	2.503986131e-05
0.3129059726 	0.009642604324 	-0.003203129999 	3.947568192e-07 	0.01211731581 	-1.057528376e-06 	2.309897177e-05
0.3446742826 	0.0087934659 	-0.002822697288 	3.439150718e-07 	0.0108007119 	-8.933606855e-07 	2.058915878e-05
0.3787404413 	0.00786549742 	-0.002316831178 	2.554986358e-07 	0.009288107522 	-6.599011581e-07 	1.770571443e-05
0.4152616124 	0.006990081253 	-0.001715815928 	1.648248801e-07 	0.007781271619 	-4.613709276e-07 	1.48332664e-05
0.4544071642 	0.006312050969 	-0.001062935969 	1.041295309e-07 	0.006545335994 	-3.651140922e-07 	1.247722959e-05
0.4963586739 	0.005943665434 	-0.0003972082062 	7.901436574e-08 	0.005830118552 	-3.408899101e-07 	1.111382636e-05
0.5383269944 	0.005907626178 	0.0002398288867 	7.169355825e-08 	0.005741994149 	-3.11126477e-07 	1.094583675e-05
0.5775204243 	0.006125498049 	0.0008169030997 	5.912317152e-08 	0.006166239909 	-2.587542625e-07 	1.175456708e-05
0.6141186481 	0.006506952699 	0.001330644106 	2.842286597e-08 	0.006909270541 	-2.256594913e-07 	1.317098998e-05
0.6482913416 	0.006987947394 	0.001785908561 	-2.092011753e-08 	0.007814648767 	-2.489884649e-07 	1.489689252e-05
0.6801980766 	0.007519803684 	0.002184699282 	-8.392066008e-08 	0.008771229755 	-3.394610151e-07 	1.672040175e-05
0.7099885359 	0.008062093849 	0.002527344157 	-1.54003739e-07 	0.009702531677 	-4.87383289e-07 	1.849572205e-05
0.7378026005 	0.00858042184 	0.002814013877 	-2.243928602e-07 	0.01055670316 	-6.723749728e-07 	2.012401031e-05
0.763771238 	0.009047271796 	0.003045869189 	-2.889952887e-07 	0.01130046234 	-8.708161998e-07 	2.154182202e-05
0.7880167691 	0.009443217944 	0.00322550931 	-3.42893485e-07 	0.01191526916 	-1.060418923e-06 	2.271381469e-05
0.8106534623 	0.009757170957 	0.003356983046 	-3.825704067e-07 	0.01239434373 	-1.222746555e-06 	2.362706399e-05
0.8317880447 	0.009985514401 	0.003445563509 	-4.059597447e-07 	0.01274001092 	-1.344334762e-06 	2.428600172e-05
0.8515201759 	0.01013049942 	0.003497396786 	-4.123880544e-07 	0.01296123922 	-1.416900808e-06 	2.470772434e-05
0.8699429115 	0.01019831523 	0.003519232816 	-4.024239478e-07 	0.01307141414 	-1.436908455e-06 	2.491774835e-05
0.8871431365 	0.01019680152 	0.003517623998 	-3.77690117e-07 	0.01308726303 	-1.404664324e-06 	2.494796074e-05
0.9032019733 	0.01013565041 	0.003499415585 	-3.405950466e-07 	0.01302354519 	-1.323439778e-06 	2.482649684e-05
0.918195162 	0.01002027062 	0.003474026599 	-2.940051548e-07 	0.01289903043 	-1.198317761e-06 	2.458913711e-05
0.9321934175 	0.009878149749 	0.003432033584 	-2.450814009e-07 	0.01272591289 	-1.048473728e-06 	2.425912695e-05
0.9414562861 	0.009737392349 	0.003389924516 	-2.0249149e-07 	0.01255095588 	-9.043898751e-07 	2.392561027e-05
0.9496547406 	0.009596825389 	0.003362590524 	-1.660511095e-07 	0.01239651431 	-7.704083993e-07 	2.363120172e-05
0.9569110947 	0.009454916303 	0.003334912126 	-1.332784063e-07 	0.01224181935 	-6.403121587e-07 	2.333631011e-05
0.963333607 	0.009310346254 	0.003307303972 	-1.04564834e-07 	0.01208712114 	-5.178112565e-07 	2.304141233e-05
0.9690180959 	0.009160498494 	0.003277871936 	-8.002237813e-08 	0.01192630253 	-4.058249746e-07 	2.273484736e-05
0.9740493692 	0.008997358909 	0.003243773833 	-5.952992006e-08 	0.01174935012 	-3.064637256e-07 	2.239752689e-05
0.9785024891 	0.008802409403 	0.0031979776 	-4.277341097e-08 	0.01154152563 	-2.212212341e-07 	2.200135566e-05
0.9824438922 	0.008547164248 	0.003131507724 	-2.932817332e-08 	0.0112551987 	-1.506015467e-07 	2.145553694e-05
0.9859323811 	0.008148415611 	0.003036751635 	-1.904114999e-08 	0.01082228302 	-9.500630299e-08 	2.063027933e-05
0.9890200009 	0.00748141999 	0.00280984386 	-1.165753523e-08 	0.009961658561 	-5.638480184e-08 	1.898968992e-05
0.9910256451 	0.006446234936 	0.002437306969 	-7.182465625e-09 	0.008567178232 	-3.312530213e-08 	1.633142284e-05
0.9930312892 	0.004515394158 	0.001663396264 	-4.550797705e-09 	0.005924543427 	-1.927691379e-08 	1.129382641e-05
0.9950369333 	0.00176066621 	0.0005698170533 	-1.756437971e-09 	0.002205185168 	-7.616554036e-09 	4.20369583e-06
0.9970425775 	0.0001591803918 	2.450374094e-05 	-8.08773506e-11 	0.0001681066468 	-6.256909909e-10 	3.204579916e-07
0.9990482216 	1.167910753e-06 	1.736944816e-08 	-1.773552842e-14 	1.166192042e-06 	-2.589475597e-12 	2.223086158e-09
0.9990482216 	1.167910753e-06 	1.736944816e-08 	-1.773552842e-14 	1.166192042e-06 	-2.589475597e-12 	2.223086158e-09
