0.121376578 	9.486836319e-06 	-2.029005268e-08 	-3.082861137e-09 	8.789779003e-06 	-2.025363544e-07 	1.675576177e-08
0.123583729 	0.001308872873 	-9.098643984e-05 	-3.965055972e-07 	0.0009401189114 	-1.968566773e-05 	1.792127938e-06
0.1257894093 	0.006769515318 	-0.001204345576 	8.980099423e-06 	0.005212138286 	-8.22026075e-05 	9.935784212e-06
0.1279925952 	0.01215275109 	-0.002530147441 	2.522800608e-05 	0.01041104268 	-0.0001365983065 	1.984634095e-05
0.1301922761 	0.01360905495 	-0.002950629381 	3.354201047e-05 	0.01337437257 	-0.0001405251268 	2.549527134e-05
0.132387455 	0.01368168909 	-0.003096833076 	3.165036861e-05 	0.01515140297 	-0.0001129371106 	2.888278517e-05
0.1357557942 	0.01300824038 	-0.003032324389 	2.423716786e-05 	0.01599879778 	-7.151181586e-05 	3.049815519e-05
0.1395413836 	0.01198044093 	-0.002846533124 	1.929170801e-05 	0.01591042751 	-4.213019798e-05 	3.032969691e-05
0.1437868381 	0.01058440625 	-0.002543435816 	1.577180589e-05 	0.01468418577 	-2.300565091e-05 	2.799213933e-05
0.1485346694 	0.008777197283 	-0.002079873094 	1.14722892e-05 	0.01251102841 	-6.65424843e-06 	2.384949741e-05
0.1539572698 	0.007109359156 	-0.001652012525 	7.640824105e-06 	0.01039827156 	2.927580014e-06 	1.982199564e-05
0.1600645007 	0.006010062987 	-0.001408705106 	5.047732637e-06 	0.009038662264 	5.386993425e-06 	1.723020244e-05
0.1668783649 	0.005287222572 	-0.001277604465 	3.391470873e-06 	0.008097369144 	3.960758193e-06 	1.543583614e-05
0.1744706299 	0.004629046329 	-0.001154175429 	2.109919751e-06 	0.007139249343 	1.935797618e-06 	1.36093935e-05
0.1830959347 	0.004046417461 	-0.001038769985 	9.622434366e-07 	0.006272324028 	6.599056256e-07 	1.19567929e-05
0.1922476596 	0.003597386095 	-0.0009466421092 	2.867317982e-07 	0.005617460477 	-2.334115847e-06 	1.070844096e-05
0.1926955792 	0.003573164724 	-0.0009408115411 	6.346638167e-08 	0.005578331786 	5.971664159e-08 	1.06338508e-05
0.2053746929 	0.003200894799 	-0.0008418692294 	1.5963929e-06 	0.004996285941 	1.104381545e-06 	9.524309649e-06
0.2189675343 	0.00288890636 	-0.0007620937208 	2.84646918e-06 	0.004507823713 	1.672073579e-06 	8.593164881e-06
0.2334990144 	0.002653898636 	-0.0007026026916 	3.83656404e-06 	0.004141315703 	2.588128685e-06 	7.894498749e-06
0.2489714712 	0.002498311102 	-0.0006638295665 	4.660637782e-06 	0.003901520161 	3.54439521e-06 	7.437381799e-06
0.2654937654 	0.00238673046 	-0.0006369464183 	5.369164317e-06 	0.003732272802 	4.485480677e-06 	7.114749292e-06
0.2832036071 	0.002312888372 	-0.0006204515188 	5.02135787e-06 	0.003623516036 	4.647739554e-06 	6.907428669e-06
0.3020930082 	0.002267792953 	-0.0006122025012 	3.858301506e-06 	0.00356237332 	3.846315337e-06 	6.790873659e-06
0.3222472526 	0.002242080433 	-0.0006099417051 	2.841201474e-06 	0.003536370315 	3.031254341e-06 	6.741304704e-06
0.3437457136 	0.002234080347 	-0.0006134216448 	1.958471492e-06 	0.003544876472 	2.171026211e-06 	6.757519803e-06
0.366723401 	0.002234664796 	-0.0006204901038 	1.16726772e-06 	0.00357820817 	1.33842299e-06 	6.821059284e-06
0.3912146542 	0.002243393629 	-0.0006317674386 	4.581576875e-07 	0.003643102818 	5.234611211e-07 	6.944766519e-06
0.4093312864 	0.002247660253 	-0.0006410269459 	1.637835513e-07 	0.003705471004 	-2.159305415e-06 	7.063657616e-06
0.4171316319 	0.002248284303 	-0.0006438011389 	2.453165396e-07 	0.00373147982 	2.530097411e-07 	7.113237649e-06
0.444521887 	0.002246305291 	-0.000655251449 	1.018270463e-06 	0.003849159392 	9.586628932e-07 	7.33756762e-06
0.4737879914 	0.002229109219 	-0.0006652657006 	1.766693516e-06 	0.003995565737 	1.444502049e-06 	7.616658804e-06
0.5050603485 	0.002186333734 	-0.0006431789563 	2.178914988e-06 	0.004172861968 	1.698217205e-06 	7.954634698e-06
0.5384624778 	0.002126646188 	-0.0005362426447 	1.665161779e-06 	0.00435145108 	2.065765927e-06 	8.295075181e-06
0.574124097 	0.002091555075 	-0.0003395471167 	7.459385182e-07 	0.00448454216 	2.560224827e-06 	8.548783771e-06
0.6096731358 	0.002104565923 	-0.0001130111198 	2.63759296e-07 	0.004571588981 	2.779857907e-06 	8.714719205e-06
0.642780273 	0.00215577827 	9.412957416e-05 	9.249868914e-08 	0.004656066414 	2.874164974e-06 	8.875756671e-06
0.6736372215 	0.002237981025 	0.000281994701 	2.727814045e-08 	0.004771723469 	3.080469366e-06 	9.096231163e-06
0.7024167125 	0.002355049552 	0.0004622366036 	4.223914018e-08 	0.00494434147 	3.405814424e-06 	9.425289051e-06
0.7292743072 	0.002516807638 	0.0006453979394 	1.148965222e-07 	0.0051951448 	3.794296624e-06 	9.903389904e-06
0.7543509671 	0.002735353056 	0.0008382855388 	2.077250426e-07 	0.005536683165 	4.145764548e-06 	1.055445695e-05
0.777772227 	0.003020422298 	0.001042799202 	2.837706208e-07 	0.005967731943 	4.35084105e-06 	1.137615573e-05
0.7996531056 	0.00337429474 	0.001255777757 	3.170131429e-07 	0.006472168022 	4.341843599e-06 	1.23377511e-05
0.8200980707 	0.003788706506 	0.001470327353 	3.005386614e-07 	0.007023000851 	4.114431139e-06 	1.338779156e-05
0.8392033992 	0.004245666754 	0.001678229984 	2.436176497e-07 	0.007588789875 	3.712717041e-06 	1.44663427e-05
0.8570577716 	0.004721629214 	0.001872057179 	1.625496034e-07 	0.008139221975 	3.199880119e-06 	1.551561926e-05
0.8737433156 	0.005192551479 	0.002046248005 	7.347259113e-08 	0.008648422127 	2.636756982e-06 	1.648629628e-05
0.8893364195 	0.005637660107 	0.00219739556 	-1.014281111e-08 	0.009096289601 	2.073790642e-06 	1.734005616e-05
0.9039082323 	0.006040997463 	0.002323775925 	-7.778798322e-08 	0.00946909027 	1.551204059e-06 	1.805071785e-05
0.917525146 	0.006392454223 	0.002426210927 	-1.211202959e-07 	0.009756721702 	1.099515343e-06 	1.85990233e-05
0.9302491908 	0.006683058243 	0.002508389911 	-1.337165498e-07 	0.009957982247 	7.435470087e-07 	1.898268184e-05
0.9421383606 	0.006901935236 	0.002558535228 	-1.168510961e-07 	0.01005647683 	5.127041826e-07 	1.917043988e-05
0.9500106837 	0.007044483698 	0.002585730799 	-8.333690074e-08 	0.01007854381 	4.040783475e-07 	1.921250569e-05
0.9569817698 	0.00713501594 	0.002609667837 	-3.686190589e-08 	0.01007065802 	3.822583484e-07 	1.919747319e-05
0.9631544511 	0.007197519809 	0.002628384959 	1.616453924e-08 	0.01003904443 	4.1763069e-07 	1.913720889e-05
0.9686199044 	0.007235226289 	0.002644156022 	7.184027593e-08 	0.00999184592 	4.96292715e-07 	1.904723541e-05
0.9734589462 	0.007250059482 	0.002657187854 	1.268421325e-07 	0.009930891116 	6.036336834e-07 	1.893103861e-05
0.9777432055 	0.007238225843 	0.002665708198 	1.783328902e-07 	0.009852764004 	7.245345354e-07 	1.878210663e-05
0.9815361564 	0.007184293951 	0.002662725285 	2.236219945e-07 	0.00974521065 	8.424630513e-07 	1.857708004e-05
0.9848940386 	0.007057940872 	0.002637252154 	2.568707001e-07 	0.009557561065 	9.295911204e-07 	1.821936778e-05
0.9878666762 	0.006770201075 	0.002573453691 	2.699523982e-07 	0.009194404128 	9.395414503e-07 	1.752708972e-05
0.9904982048 	0.006163092602 	0.00236078014 	2.345356653e-07 	0.008345683442 	7.892393725e-07 	1.59091922e-05
0.9922078258 	0.005128423814 	0.001960400211 	1.30021124e-07 	0.006891712147 	4.531039483e-07 	1.313751881e-05
0.993917638 	0.003295088711 	0.001196978015 	-6.475444933e-10 	0.004322711315 	3.883047856e-08 	8.240289201e-06
0.9956276413 	0.001144484573 	0.0003458698254 	-3.15384536e-08 	0.001401943273 	-8.094844708e-08 	2.672493529e-06
0.9973378359 	9.963193983e-05 	1.318544541e-05 	-5.934222959e-10 	0.0001037602922 	2.023596317e-09 	1.977959557e-07
0.9990482216 	8.245908006e-07 	1.111693259e-08 	3.402005637e-12 	8.233145244e-07 	2.192478235e-10 	1.569466312e-09
