0.4709558481 	3.992121637e-06 	-7.057518607e-08 	4.528039092e-12 	3.986971441e-06 	-1.83508824e-10 	7.600275687e-09
0.4720092239 	0.0003193355158 	-4.507049767e-05 	2.691586815e-09 	0.0003342629344 	-1.555279987e-08 	6.371980565e-07
0.4730625996 	0.002920256736 	-0.000873277588 	3.984109505e-08 	0.003557181043 	-1.469976238e-07 	6.780975735e-06
0.4741159754 	0.007923730011 	-0.002852410976 	9.522524197e-08 	0.01031029756 	-3.284206702e-07 	1.965429275e-05
0.4751693511 	0.01217006388 	-0.004617750123 	1.163825111e-07 	0.01620018687 	-4.012962308e-07 	3.088205879e-05
0.4762227269 	0.01475860563 	-0.005623294942 	1.16750406e-07 	0.0197530205 	-4.078594836e-07 	3.765474713e-05
0.4778443634 	0.0163904093 	-0.006213357432 	1.13007296e-07 	0.02193260297 	-3.907267781e-07 	4.180963711e-05
0.4796765386 	0.01721868352 	-0.006446791398 	1.040145087e-07 	0.02290403835 	-3.534885537e-07 	4.366146294e-05
0.4817465869 	0.01756243595 	-0.006554612645 	9.245114974e-08 	0.02330377358 	-3.048829246e-07 	4.442346939e-05
0.4840853915 	0.01763070433 	-0.006574203205 	7.790140964e-08 	0.02335695357 	-2.436358351e-07 	4.452484523e-05
0.4867278453 	0.01750626327 	-0.006532152434 	5.978208143e-08 	0.02319141389 	-1.683933291e-07 	4.42092806e-05
0.4897133715 	0.01723854831 	-0.00644455866 	3.752147844e-08 	0.02284970318 	-7.709528945e-08 	4.3557885e-05
0.4930865115 	0.01685024773 	-0.006316923677 	1.038515665e-08 	0.02235477167 	3.260148016e-08 	4.261440798e-05
0.4968975894 	0.01635035688 	-0.006151159458 	-2.246537388e-08 	0.02171872599 	1.634308949e-07 	4.140192814e-05
0.5012034633 	0.01574401017 	-0.005944926581 	-6.179292237e-08 	0.02094100184 	3.180406025e-07 	3.991936975e-05
0.506068373 	0.01494976988 	-0.005691996746 	-1.143268034e-07 	0.01994761208 	5.172247558e-07 	3.802569278e-05
0.5134203412 	0.01390720334 	-0.005340815135 	-1.847955869e-07 	0.01861361422 	7.776949682e-07 	3.54827221e-05
0.5212948542 	0.01270998865 	-0.004903355486 	-2.673210455e-07 	0.0170322861 	1.072409937e-06 	3.246827119e-05
0.529729052 	0.01144882213 	-0.004436339807 	-3.553679747e-07 	0.01535492641 	1.369294197e-06 	2.927075742e-05
0.5387627144 	0.01016594576 	-0.003939756476 	-4.422977835e-07 	0.01360909939 	1.644484615e-06 	2.59427259e-05
0.5484384488 	0.008915769633 	-0.003415165179 	-5.355020369e-07 	0.01184011255 	1.870219763e-06 	2.257054531e-05
0.5588018907 	0.007776525474 	-0.002863363566 	-6.284542567e-07 	0.01010949811 	1.990834694e-06 	1.927151319e-05
0.5699019192 	0.006818490567 	-0.002297799951 	-6.916095801e-07 	0.008512645677 	1.939272838e-06 	1.622746863e-05
0.5817908876 	0.006085215978 	-0.001740913459 	-7.069638085e-07 	0.007160154493 	1.684569331e-06 	1.364924452e-05
0.5945248701 	0.005588170903 	-0.001216594651 	-6.796707372e-07 	0.006147028842 	1.259685708e-06 	1.171794545e-05
0.6081639266 	0.00531587255 	-0.0007269943415 	-6.376611457e-07 	0.005518377969 	7.677372977e-07 	1.051956216e-05
0.6227723857 	0.005226291742 	-0.0002602983374 	-5.853090606e-07 	0.005254455352 	3.263875506e-07 	1.00164523e-05
0.638419148 	0.0052549627 	0.0001814807241 	-5.169836405e-07 	0.005291873229 	4.476121711e-09 	1.008778117e-05
0.6551780116 	0.005358223116 	0.0005982209574 	-4.417895283e-07 	0.005560889505 	-1.914205535e-07 	1.060060097e-05
0.6731280194 	0.005517633712 	0.0009942822345 	-3.622138564e-07 	0.00600892391 	-2.768941286e-07 	1.145467907e-05
0.6923538328 	0.005729823622 	0.001373499392 	-2.771168806e-07 	0.006598742177 	-2.658387513e-07 	1.257903661e-05
0.7129461301 	0.006000454995 	0.001739832886 	-1.851745044e-07 	0.007304839348 	-1.67697853e-07 	1.392505407e-05
0.7350020349 	0.006335578673 	0.00209240938 	-8.756710952e-08 	0.008097674351 	6.869033599e-09 	1.543641794e-05
0.7570579485 	0.006727624751 	0.002421018678 	9.621585886e-09 	0.008925050132 	2.337693441e-07 	1.701362614e-05
0.7776502527 	0.007160530944 	0.00271964016 	9.962580762e-08 	0.009741431332 	4.808508012e-07 	1.856987561e-05
0.7968760713 	0.00762718714 	0.002993995659 	1.792481188e-07 	0.01053793884 	7.24881868e-07 	2.008824031e-05
0.814826083 	0.008126788327 	0.003251805014 	2.470279351e-07 	0.01132223974 	9.514524458e-07 	2.15833358e-05
0.831584949 	0.00865777175 	0.003498156801 	3.017702961e-07 	0.01210141096 	1.149745089e-06 	2.30686527e-05
0.8472317127 	0.009217347432 	0.003736119295 	3.42643713e-07 	0.01288014926 	1.311457766e-06 	2.455314435e-05
0.8618401721 	0.009801202211 	0.003967167144 	3.692809989e-07 	0.01366009262 	1.430450432e-06 	2.603993316e-05
0.8754792281 	0.01040344028 	0.004191545357 	3.818891203e-07 	0.01443973038 	1.502901698e-06 	2.752613942e-05
0.8882132094 	0.01101673787 	0.004408600775 	3.813264794e-07 	0.01521472369 	1.527663383e-06 	2.900349206e-05
0.9001021759 	0.01163268256 	0.004617102145 	3.691055441e-07 	0.01597850595 	1.506512234e-06 	3.045947333e-05
0.9112022019 	0.01224222661 	0.00481553895 	3.473009973e-07 	0.01672306222 	1.44408813e-06 	3.187880452e-05
0.9215656407 	0.01283616438 	0.005002373701 	3.183700591e-07 	0.01743973429 	1.347446523e-06 	3.324498068e-05
0.9312413717 	0.01340537323 	0.005176421625 	2.849271026e-07 	0.01812001794 	1.22528124e-06 	3.45417904e-05
0.9402750304 	0.01394020561 	0.005336111736 	2.494801363e-07 	0.01875722614 	1.087051548e-06 	3.575648632e-05
0.9487092242 	0.01443328391 	0.005481269978 	2.142584562e-07 	0.01933958936 	9.417737405e-07 	3.686663248e-05
0.9565837329 	0.01486898353 	0.00561674396 	1.813794021e-07 	0.01986312416 	7.979390358e-07 	3.786463531e-05
0.9639356968 	0.01522443675 	0.005705287107 	1.528378393e-07 	0.02025841915 	6.707210064e-07 	3.861817743e-05
0.9688006083 	0.01547107012 	0.00575526389 	1.316263508e-07 	0.02051365711 	5.735706874e-07 	3.910473192e-05
0.9731064834 	0.01562797465 	0.005799993093 	1.165253144e-07 	0.02069326789 	4.990995433e-07 	3.944711999e-05
0.976917562 	0.01572709578 	0.005824710052 	1.04188892e-07 	0.0208005487 	4.371216986e-07 	3.965162703e-05
0.9802907021 	0.01575952571 	0.005829970625 	9.427855421e-08 	0.02083038028 	3.862930076e-07 	3.970849432e-05
0.9832762282 	0.01571313423 	0.005811976549 	8.635351933e-08 	0.02076554682 	3.450064262e-07 	3.958490372e-05
0.9859186816 	0.01556287489 	0.005763460609 	8.003633237e-08 	0.02057887079 	3.117856136e-07 	3.922904733e-05
0.9882574856 	0.01525899451 	0.005667394744 	7.492528311e-08 	0.02022356471 	2.853303249e-07 	3.855173519e-05
0.990327533 	0.01472009175 	0.005495450063 	7.077491756e-08 	0.01957222196 	2.641576425e-07 	3.731009488e-05
0.9921597073 	0.0137531147 	0.00520783206 	6.76660013e-08 	0.01839816253 	2.472716449e-07 	3.507201128e-05
0.9937813429 	0.01207412963 	0.004599670748 	6.391137622e-08 	0.01615140965 	2.296170256e-07 	3.078907584e-05
0.9948347186 	0.009584235423 	0.003610702215 	5.900386404e-08 	0.01271768067 	2.069676202e-07 	2.424343406e-05
0.9958880943 	0.005865233805 	0.002058616394 	4.29992705e-08 	0.007557855478 	1.515820097e-07 	1.440737314e-05
0.9969414701 	0.001995981301 	0.0005582829036 	1.558942922e-08 	0.002378630852 	6.008059889e-08 	4.53433151e-06
0.9979948458 	0.0002064546122 	2.525999514e-05 	8.805720147e-10 	0.0002135951378 	5.853019494e-09 	4.071716983e-07
0.9990482216 	2.808506398e-06 	4.164082601e-08 	1.529116938e-12 	2.80431789e-06 	7.623778787e-11 	5.345809318e-09
0.9990482216 	2.808506398e-06 	4.164082601e-08 	1.529116938e-12 	2.80431789e-06 	7.623778787e-11 	5.345809318e-09
