0.2472849305 	5.558090173e-06 	-1.329409428e-07 	5.616426954e-11 	5.391299485e-06 	7.197128826e-10 	1.027731525e-08
0.2487094669 	0.0006297024606 	-0.000118173714 	1.851594086e-07 	0.0005535429284 	-3.307535531e-07 	1.055206671e-06
0.2501340182 	0.005423240634 	-0.001728465669 	1.320171593e-06 	0.004890542322 	-7.687429425e-07 	9.322732921e-06
0.2515582136 	0.01139313496 	-0.003973207574 	-7.562614192e-07 	0.01040395063 	6.179176591e-06 	1.983282152e-05
0.2529816857 	0.01318944171 	-0.004691530172 	-5.452404021e-06 	0.01222157181 	1.552140423e-05 	2.329771269e-05
0.2544040707 	0.01268699113 	-0.004507786469 	-7.840004459e-06 	0.01197693352 	1.603618164e-05 	2.28313641e-05
0.2565908305 	0.01141293792 	-0.003902569017 	-8.458196399e-06 	0.011000035 	6.504194479e-06 	2.096912401e-05
0.2590557457 	0.01007149726 	-0.003048403971 	-7.500636088e-06 	0.01001596487 	-8.500563908e-06 	1.909321283e-05
0.2618311143 	0.009157920143 	-0.002331423054 	-5.661008784e-06 	0.00957642613 	-2.031432218e-05 	1.825532983e-05
0.2649514479 	0.008579504352 	-0.001759707492 	-3.977939457e-06 	0.009555049406 	-2.552777276e-05 	1.821457986e-05
0.2685402304 	0.008150619544 	-0.001301203271 	-2.456387018e-06 	0.009733349304 	-2.50734056e-05 	1.855446902e-05
0.2726074998 	0.007747917521 	-0.0009306858899 	-1.169886865e-06 	0.009906426348 	-2.11364757e-05 	1.888440197e-05
0.2771758575 	0.007306206337 	-0.0006391615228 	-1.783142089e-07 	0.009965911483 	-1.556304211e-05 	1.899779717e-05
0.2823040561 	0.006801125088 	-0.0004172358817 	4.907397301e-07 	0.009872438625 	-9.643719128e-06 	1.881961192e-05
0.28818069 	0.006233558896 	-0.0002600133571 	7.401554864e-07 	0.009616484293 	-4.41820721e-06 	1.833169183e-05
0.2948278042 	0.005575705556 	-0.0001681599129 	5.575581629e-07 	0.009155114958 	-9.081291814e-07 	1.745219364e-05
0.3039520189 	0.004915347467 	-0.0001340993679 	1.095905315e-07 	0.008491237485 	-3.887263429e-06 	1.618665866e-05
0.3048289965 	0.004849025521 	-0.0001311548244 	3.554768398e-08 	0.008424165297 	-9.962022956e-08 	1.605880043e-05
0.3153909723 	0.004184985126 	-0.0001260571713 	5.642225432e-07 	0.007514363697 	3.238083452e-07 	1.432446572e-05
0.3267808322 	0.0036933823 	-0.0001261771723 	1.046068162e-06 	0.006738323585 	1.989683753e-06 	1.284511757e-05
0.3390183242 	0.003347837711 	-0.0001257938976 	1.443271969e-06 	0.006166978885 	2.975889359e-06 	1.175597578e-05
0.3522090375 	0.003096583563 	-0.0001261347287 	1.876107348e-06 	0.005757486228 	3.305778949e-06 	1.097536896e-05
0.3664845753 	0.002904766766 	-0.0001273828317 	2.338934777e-06 	0.005461728451 	3.637466102e-06 	1.041157244e-05
0.3818620373 	0.002752876528 	-0.0001291650271 	2.824265259e-06 	0.005245520421 	4.11437669e-06 	9.99941984e-06
0.3984348019 	0.002630261803 	-0.0001311353333 	3.202056064e-06 	0.005090090631 	4.420125746e-06 	9.70312746e-06
0.4162929946 	0.002529037862 	-0.000132744162 	2.799327699e-06 	0.004983529289 	3.643429872e-06 	9.499991926e-06
0.4355739439 	0.002443132598 	-0.0001336136789 	2.404486234e-06 	0.004918087021 	2.944923737e-06 	9.375240774e-06
0.4563323823 	0.002368275418 	-0.0001333299708 	2.015944337e-06 	0.004887995131 	2.303294856e-06 	9.317877267e-06
0.4786466123 	0.002300412949 	-0.0001314564211 	1.633663247e-06 	0.004886910581 	1.733354509e-06 	9.315809814e-06
0.5026835755 	0.002237306495 	-0.0001272519853 	1.265749999e-06 	0.004912133677 	1.229748059e-06 	9.363892046e-06
0.5284859607 	0.002176172082 	-0.0001192809938 	9.237754492e-07 	0.004961222259 	8.154208046e-07 	9.457468525e-06
0.5561749938 	0.002115128562 	-0.0001051576312 	6.149362066e-07 	0.005036256589 	4.880288344e-07 	9.600504814e-06
0.5858631148 	0.002050720777 	-7.865578805e-05 	3.552468315e-07 	0.005140552633 	2.508097431e-07 	9.799322061e-06
0.6176648077 	0.001985329244 	-3.041426605e-05 	1.440478662e-07 	0.005274307172 	1.2892857e-07 	1.005429539e-05
0.6494508416 	0.001973892498 	8.061586542e-05 	4.141642098e-08 	0.005378429134 	6.449869157e-08 	1.025278079e-05
0.6791106475 	0.002042108841 	0.0002449157227 	1.802393364e-08 	0.005459305832 	4.263289994e-08 	1.040695425e-05
0.7067905922 	0.002159687024 	0.0004155137405 	2.365351634e-08 	0.005603489494 	7.315849019e-08 	1.068180838e-05
0.7326288344 	0.002326218132 	0.0005932130385 	4.207431773e-08 	0.00584066008 	1.612890058e-07 	1.113392144e-05
0.7567541468 	0.002553123524 	0.0007830842148 	6.898165516e-08 	0.006174032279 	3.077459296e-07 	1.176942151e-05
0.7792862258 	0.002847456515 	0.0009862383684 	1.01400044e-07 	0.006592741824 	4.985147587e-07 	1.256759827e-05
0.8003336001 	0.003207928179 	0.001197759169 	1.334207308e-07 	0.007074274407 	7.043268478e-07 	1.348553321e-05
0.8199971472 	0.003623480993 	0.001409514874 	1.57319849e-07 	0.007589143633 	8.909207205e-07 	1.446701706e-05
0.8383693647 	0.004075208849 	0.001612966183 	1.667950584e-07 	0.008107154917 	1.029673239e-06 	1.545449054e-05
0.8555361083 	0.004540659075 	0.001801155921 	1.592582741e-07 	0.008601638521 	1.103754799e-06 	1.639711372e-05
0.8715768547 	0.004998355676 	0.001969490487 	1.360781766e-07 	0.009051186288 	1.108741135e-06 	1.725407671e-05
0.8865654396 	0.005430808423 	0.002115719123 	1.017538056e-07 	0.009440228401 	1.050959229e-06 	1.799569911e-05
0.9005706783 	0.005825726496 	0.002239733016 	6.293644674e-08 	0.009759179394 	9.455343804e-07 	1.860370835e-05
0.913656745 	0.006175764694 	0.002342850546 	2.732331591e-08 	0.01000474487 	8.14378276e-07 	1.907182439e-05
0.9258835601 	0.006479043606 	0.002428713566 	3.004428091e-09 	0.0101765709 	6.830320652e-07 	1.939937256e-05
0.9373071183 	0.00673415677 	0.002503615373 	-1.718518776e-09 	0.0102831256 	5.801261456e-07 	1.960249544e-05
0.9479797699 	0.006939338431 	0.002555757087 	1.51913308e-08 	0.01031904194 	5.366160042e-07 	1.967096196e-05
0.9550458569 	0.007087971642 	0.002592402238 	4.87342025e-08 	0.01031426774 	5.499309636e-07 	1.966186102e-05
0.9613025204 	0.007197711929 	0.002631490303 	9.90455437e-08 	0.01030706036 	6.255404282e-07 	1.964812174e-05
0.9668422226 	0.007292760981 	0.002669356052 	1.635159024e-07 	0.01029691005 	7.562257309e-07 	1.962877243e-05
0.9717469214 	0.007374620539 	0.002707296518 	2.409858721e-07 	0.01028922567 	9.411220715e-07 	1.961412387e-05
0.9760892456 	0.007442956946 	0.002744507296 	3.294477903e-07 	0.01028239253 	1.176550146e-06 	1.9601098e-05
0.9799335525 	0.007490748372 	0.002778050202 	4.253737332e-07 	0.01026865254 	1.454203183e-06 	1.957490576e-05
0.9833368611 	0.007497290684 	0.002799332079 	5.225295512e-07 	0.01022952973 	1.756194563e-06 	1.950032681e-05
0.9863496834 	0.007423577469 	0.002794129943 	6.089713799e-07 	0.01010133073 	2.038541545e-06 	1.925594389e-05
0.9890167622 	0.007163520452 	0.002741467672 	6.646088019e-07 	0.009764340079 	2.214503137e-06 	1.861354605e-05
0.9913777266 	0.006525059582 	0.002514816853 	6.320111882e-07 	0.008860183829 	2.103609396e-06 	1.688997294e-05
0.9929115363 	0.005388093901 	0.002065184832 	4.774346315e-07 	0.007250242708 	1.623401435e-06 	1.38209777e-05
0.9944454907 	0.003405036573 	0.00123178239 	2.287640519e-07 	0.004460343703 	8.4137217e-07 	8.502654787e-06
0.9959795897 	0.001162570822 	0.0003450044037 	4.500927876e-08 	0.001414906747 	2.17064838e-07 	2.697205514e-06
0.9975138333 	0.000104586507 	1.355014683e-05 	3.385814545e-09 	0.0001087180592 	2.987945314e-08 	2.072468375e-07
0.9990482216 	9.644240609e-07 	1.337716638e-08 	9.475334813e-12 	9.629502886e-07 	5.726308838e-10 	1.835650888e-09
0.9990482216 	9.644240609e-07 	1.337716638e-08 	9.475334813e-12 	9.629502886e-07 	5.726308838e-10 	1.835650888e-09
