0.4709558481 	3.707821087e-06 	-6.368431144e-08 	1.715974696e-12 	3.702895067e-06 	-7.220657888e-11 	7.058747164e-09
0.4720092239 	0.0002969765838 	-4.095128441e-05 	1.032376515e-09 	0.0003102015783 	-6.110817333e-09 	5.913304243e-07
0.4730625996 	0.002741805646 	-0.0008113641485 	1.578568506e-08 	0.003328047218 	-5.865977927e-08 	6.344182981e-06
0.4741159754 	0.007537615546 	-0.002702737635 	3.866019884e-08 	0.009793370825 	-1.338089742e-07 	1.866888672e-05
0.4751693511 	0.01169607574 	-0.004433035537 	4.825681509e-08 	0.01556272154 	-1.668434259e-07 	2.966687269e-05
0.4762227269 	0.0142714712 	-0.005436789658 	4.914599616e-08 	0.01910048261 	-1.725011895e-07 	3.641082855e-05
0.4778443634 	0.01591847374 	-0.006031357503 	4.851695881e-08 	0.02130133954 	-1.693992534e-07 	4.060627357e-05
0.4796765386 	0.01678372297 	-0.006277208629 	4.603220393e-08 	0.02232452109 	-1.592596762e-07 	4.255674198e-05
0.4817465869 	0.01718096671 	-0.006401105243 	4.283184798e-08 	0.02279268936 	-1.45725401e-07 	4.344920082e-05
0.4840853915 	0.01731773205 	-0.006441062145 	3.877825681e-08 	0.02293284617 	-1.284752714e-07 	4.371637865e-05
0.4867278453 	0.0172780843 	-0.006424497393 	3.372113595e-08 	0.02287474947 	-1.072204731e-07 	4.36056302e-05
0.4897133715 	0.01711347041 	-0.006368316737 	2.75261544e-08 	0.02266401886 	-8.137476956e-08 	4.320391908e-05
0.4930865115 	0.01684930684 	-0.006279085633 	1.99974741e-08 	0.02232714512 	-5.024481161e-08 	4.256174411e-05
0.4968975894 	0.01649769195 	-0.006159951645 	1.090157832e-08 	0.02188050837 	-1.295092758e-08 	4.171033033e-05
0.5012034633 	0.01606741374 	-0.006009673743 	4.382634356e-11 	0.02132792964 	3.144766202e-08 	4.065696168e-05
0.506068373 	0.01549891683 	-0.005831960336 	-1.454187506e-08 	0.02062726238 	8.954257839e-08 	3.932129515e-05
0.5134203412 	0.01475531174 	-0.005582779898 	-3.445347205e-08 	0.01968298933 	1.682582206e-07 	3.752124826e-05
0.5212948542 	0.01390455913 	-0.005266841907 	-5.855131447e-08 	0.01855662941 	2.630628484e-07 	3.53740932e-05
0.529729052 	0.01299975045 	-0.004934014156 	-8.584780563e-08 	0.01735956163 	3.679478917e-07 	3.309214931e-05
0.5387627144 	0.01206062171 	-0.004578875185 	-1.160226061e-07 	0.01609660861 	4.810863392e-07 	3.068460983e-05
0.5484384488 	0.01110196206 	-0.004200485467 	-1.48751645e-07 	0.01478189474 	5.995714305e-07 	2.817839979e-05
0.5588018907 	0.01014609851 	-0.003799196279 	-1.83204365e-07 	0.01342848855 	7.185591885e-07 	2.559843144e-05
0.5699019192 	0.009221603852 	-0.003375397901 	-2.178173088e-07 	0.012058469 	8.30262713e-07 	2.298679339e-05
0.5817908876 	0.008365399651 	-0.002929296474 	-2.532337773e-07 	0.01070507046 	9.236308353e-07 	2.040683962e-05
0.5945248701 	0.007618893108 	-0.002461037588 	-2.89109158e-07 	0.009416148327 	9.824596151e-07 	1.794979579e-05
0.6081639266 	0.007016026832 	-0.00197464611 	-3.184654515e-07 	0.008256226008 	9.867172064e-07 	1.573866147e-05
0.6227723857 	0.006580127768 	-0.00147350499 	-3.37629663e-07 	0.007300262608 	9.206317662e-07 	1.391632953e-05
0.638419148 	0.006320892686 	-0.0009577583363 	-3.48494269e-07 	0.0066208009 	7.80535966e-07 	1.262108667e-05
0.6551780116 	0.006228325581 	-0.0004297708298 	-3.498658969e-07 	0.006270100344 	5.840621899e-07 	1.195255394e-05
0.6731280194 	0.00628249226 	0.0001063665251 	-3.397766669e-07 	0.006268507133 	3.665605627e-07 	1.194951684e-05
0.6923538328 	0.0064678028 	0.0006468877434 	-3.188883837e-07 	0.006608583538 	1.637512202e-07 	1.259779698e-05
0.7129461301 	0.00678025636 	0.001189081605 	-2.897213535e-07 	0.007265179686 	5.033078776e-10 	1.384945173e-05
0.7350020349 	0.007219791281 	0.001722877673 	-2.56046955e-07 	0.008186800821 	-1.10458338e-07 	1.560631777e-05
0.7570579485 	0.007764255948 	0.00222301988 	-2.225286919e-07 	0.009268172943 	-1.694836993e-07 	1.766771358e-05
0.7776502527 	0.008371977957 	0.002671114186 	-1.926247677e-07 	0.01039224488 	-1.905399609e-07 	1.981050712e-05
0.7968760713 	0.009012213941 	0.003069383636 	-1.672537793e-07 	0.01149561697 	-1.908340032e-07 	2.191384099e-05
0.814826083 	0.009666140982 	0.003425782458 	-1.461111542e-07 	0.01255374229 	-1.824036083e-07 	2.393092194e-05
0.831584949 	0.01031837212 	0.003746301173 	-1.28607138e-07 	0.01355474563 	-1.720030486e-07 	2.583911252e-05
0.8472317127 	0.01095716989 	0.004035639255 	-1.139867827e-07 	0.01449377069 	-1.62641089e-07 	2.762915527e-05
0.8618401721 	0.01157417847 	0.004297582385 	-1.014379673e-07 	0.01536980021 	-1.549389818e-07 	2.929911101e-05
0.8754792281 	0.0121638654 	0.004535254348 	-9.018430238e-08 	0.01618391905 	-1.481645091e-07 	3.08510478e-05
0.8882132094 	0.0127228838 	0.004751286983 	-7.955511677e-08 	0.0169383628 	-1.409725934e-07 	3.228922727e-05
0.9001021759 	0.01324947517 	0.004947936413 	-6.902853657e-08 	0.0176359562 	-1.319029547e-07 	3.361903417e-05
0.9112022019 	0.01374293711 	0.005127157838 	-5.824970359e-08 	0.01827974881 	-1.196892765e-07 	3.484628182e-05
0.9215656407 	0.01420314478 	0.005290639109 	-4.702985474e-08 	0.01887272353 	-1.034286813e-07 	3.597665645e-05
0.9312413717 	0.01462994942 	0.005440011078 	-3.532948638e-08 	0.01941761152 	-8.265490426e-08 	3.701536441e-05
0.9402750304 	0.01502185522 	0.005575946958 	-2.323777099e-08 	0.01991789964 	-5.732789788e-08 	3.796905261e-05
0.9487092242 	0.01537861623 	0.005699933171 	-1.093820547e-08 	0.02036995751 	-2.784216791e-08 	3.883080056e-05
0.9565837329 	0.01568985598 	0.005818400904 	1.371593572e-09 	0.02077664077 	5.14375428e-09 	3.960605188e-05
0.9639356968 	0.01594466294 	0.005893538786 	1.239026513e-08 	0.02107809679 	3.792189215e-08 	4.018071083e-05
0.9688006083 	0.01612038252 	0.005934766386 	2.10310255e-08 	0.02126840835 	6.583921294e-08 	4.054349757e-05
0.9731064834 	0.01622557279 	0.005975075677 	2.803331076e-08 	0.02140340534 	8.962344655e-08 	4.080083935e-05
0.976917562 	0.01628477333 	0.00599685372 	3.403299774e-08 	0.0214772993 	1.111302102e-07 	4.094170177e-05
0.9802907021 	0.01628695144 	0.006000378729 	3.910785628e-08 	0.02148289531 	1.301910726e-07 	4.095236932e-05
0.9832762282 	0.01621812294 	0.005981429045 	4.332525477e-08 	0.0214007715 	1.466943895e-07 	4.079581852e-05
0.9859186816 	0.0160514087 	0.005932418441 	4.676523537e-08 	0.02120188119 	1.606132733e-07 	4.04166783e-05
0.9882574856 	0.01573516683 	0.005835930107 	4.94775584e-08 	0.02083795102 	1.720182931e-07 	3.972292626e-05
0.990327533 	0.01518623716 	0.005663484199 	5.154722243e-08 	0.02017953958 	1.807832782e-07 	3.846781105e-05
0.9921597073 	0.01420779145 	0.005375602646 	5.311550182e-08 	0.01899864379 	1.868798447e-07 	3.621669546e-05
0.9937813429 	0.0125106916 	0.004763246102 	5.289857029e-08 	0.01673182649 	1.859873324e-07 	3.189551166e-05
0.9948347186 	0.009985901899 	0.003765361829 	5.079432354e-08 	0.01325542401 	1.755677773e-07 	2.526852232e-05
0.9958880943 	0.00616818833 	0.002173668107 	3.834010474e-08 	0.007960232961 	1.333889937e-07 	1.517441646e-05
0.9969414701 	0.002124740473 	0.0006008194562 	1.438802387e-08 	0.002540824706 	5.446279294e-08 	4.843518076e-06
0.9979948458 	0.0002214596579 	2.770630348e-05 	8.396931342e-10 	0.0002294914416 	5.366394626e-09 	4.374744716e-07
0.9990482216 	3.015550913e-06 	4.591480371e-08 	1.473930528e-12 	3.011129689e-06 	6.975029525e-11 	5.740050087e-09
0.9990482216 	3.015550913e-06 	4.591480371e-08 	1.473930528e-12 	3.011129689e-06 	6.975029525e-11 	5.740050087e-09
