0.4709558481 	0.06114948129 	0.0004444974143 	-3.401495e-09
0.4709558481 	0.06114948129 	0.0004444974143 	-3.401495e-09
0.4720092239 	0.2338406798 	0.0007845087345 	-4.127855728e-09
0.4730625996 	0.4517443548 	-0.000375094929 	-2.031337467e-11
0.4741159754 	0.622809388 	-0.001037285858 	-6.355295631e-09
0.4751693511 	0.7364908835 	-0.0001457762705 	-1.745602103e-08
0.4762227269 	0.8195100557 	0.0002841477036 	-2.287239533e-08
0.4778443634 	0.8907694517 	0.0002403267205 	-3.084861553e-08
0.4796765386 	0.9494245517 	0.0001226925811 	-4.301011937e-08
0.4817465869 	0.9974971711 	1.09658456e-05 	-5.736771188e-08
0.4840853915 	1.038605882 	9.214426145e-06 	-7.424475884e-08
0.4867278453 	1.074880137 	1.210902244e-05 	-9.349451275e-08
0.4897133715 	1.107654473 	1.488270494e-05 	-1.149271626e-07
0.4930865115 	1.137798955 	1.79693926e-05 	-1.382733196e-07
0.4968975894 	1.165911232 	2.524262013e-05 	-1.632790726e-07
0.5012034633 	1.192415815 	2.635959733e-05 	-1.89724989e-07
0.506068373 	1.219787907 	2.702742863e-05 	-2.197002044e-07
0.5134203412 	1.248814447 	5.159428046e-05 	-2.549515651e-07
0.5212948542 	1.27619522 	6.992113856e-05 	-2.934533898e-07
0.529729052 	1.300554035 	7.952194324e-05 	-3.342679085e-07
0.5387627144 	1.32244463 	0.0001022128715 	-3.78101375e-07
0.5484384488 	1.342202419 	0.0001278412291 	-4.251030874e-07
0.5588018907 	1.360010897 	0.0001574316314 	-4.748458141e-07
0.5699019192 	1.375938256 	0.0001914642784 	-5.266411883e-07
0.5817908876 	1.389967157 	0.0002303752074 	-5.800806926e-07
0.5945248701 	1.402022075 	0.0002732792375 	-6.33120311e-07
0.6081639266 	1.41199794 	0.0003175965802 	-6.828827865e-07
0.6227723857 	1.419798628 	0.0003604571427 	-7.280935506e-07
0.638419148 	1.425381924 	0.0003988787668 	-7.669308275e-07
0.6551780116 	1.428772222 	0.0004309473325 	-7.976888002e-07
0.6731280194 	1.430021166 	0.0004564455318 	-8.200602621e-07
0.6923538328 	1.429139698 	0.0004749499992 	-8.331730517e-07
0.7129461301 	1.426033412 	0.00048559358 	-8.355566972e-07
0.7350020349 	1.420572348 	0.0004881938971 	-8.26441292e-07
0.7570579485 	1.412941576 	0.0004827686 	-8.072943337e-07
0.7776502527 	1.403652841 	0.0004694720415 	-7.81363198e-07
0.7968760713 	1.393087773 	0.0004495282687 	-7.512003577e-07
0.814826083 	1.381439658 	0.0004248281436 	-7.180684059e-07
0.831584949 	1.368844943 	0.0003970699611 	-6.826088462e-07
0.8472317127 	1.355393661 	0.0003675434737 	-6.452218342e-07
0.8618401721 	1.341135904 	0.0003371625626 	-6.062374313e-07
0.8754792281 	1.326085708 	0.0003065783532 	-5.659791409e-07
0.8882132094 	1.310222565 	0.0002762675998 	-5.247803087e-07
0.9001021759 	1.293490432 	0.0002465910737 	-4.829786382e-07
0.9112022019 	1.275793748 	0.0002178636734 	-4.409014299e-07
0.9215656407 	1.256989484 	0.0001903836219 	-3.988461853e-07
0.9312413717 	1.236873454 	0.0001644360779 	-3.570629312e-07
0.9402750304 	1.215155726 	0.000140743597 	-3.157338511e-07
0.9487092242 	1.191423945 	0.0001094913199 	-2.750538669e-07
0.9565837329 	1.165077128 	9.053553065e-05 	-2.35068288e-07
0.9639356968 	1.137374843 	8.411999126e-05 	-1.986369511e-07
0.9688006083 	1.111356136 	6.317565882e-05 	-1.692999083e-07
0.9731064834 	1.086187917 	4.752258454e-05 	-1.449397467e-07
0.976917562 	1.059502097 	4.055553162e-05 	-1.228672399e-07
0.9802907021 	1.03087079 	3.175480263e-05 	-1.02951373e-07
0.9832762282 	0.9997012475 	2.461220007e-05 	-8.506080531e-08
0.9859186816 	0.9651373224 	1.881962014e-05 	-6.908760566e-08
0.9882574856 	0.9258710902 	7.817265869e-06 	-5.488695376e-08
0.990327533 	0.8798185829 	-0.0001116868753 	-4.248774683e-08
0.9921597073 	0.8234511498 	-0.0002415955309 	-3.151424993e-08
0.9937813429 	0.7547785886 	-0.0002426535951 	-2.45853796e-08
0.9948347186 	0.6746584786 	0.0002335033136 	-1.894826587e-08
0.9958880943 	0.5658129881 	0.0009413566534 	-5.595354941e-09
0.9969414701 	0.4063446719 	0.0002103800978 	5.088189638e-10
0.9979948458 	0.2088848462 	-0.0007219219992 	-5.00632379e-09
0.9990482216 	0.05987582022 	-0.0003849742925 	-4.132401471e-09
0.9990482216 	0.05987582022 	-0.0003849742925 	-4.132401471e-09
