1.218267812e-35 	0.01279552205 	-8.783276656e-16 	4.066459277e-19 	2.54723778e-15 	-1.112148033e-16 	4.855743177e-18
0.00190503019 	0.01278682324 	-5.181922924e-05 	3.474041011e-08 	0.01394212231 	-3.212589961e-06 	2.657756014e-05
0.003810043283 	0.01278655117 	-0.0001282318131 	9.56853716e-08 	0.01398110158 	-3.19527503e-06 	2.665186547e-05
0.005715039211 	0.01279753764 	-0.0001912591989 	1.411546056e-07 	0.01399245511 	-3.1604706e-06 	2.667350844e-05
0.007620017961 	0.01280521516 	-0.0002547432835 	1.853746038e-07 	0.01400784145 	-3.129412775e-06 	2.670283909e-05
0.009524979574 	0.01281867944 	-0.0003270583203 	2.343743355e-07 	0.01402376994 	-3.100886203e-06 	2.673320322e-05
0.01245757067 	0.01284134733 	-0.0004196895574 	2.935430248e-07 	0.01404874087 	-3.057100017e-06 	2.678080474e-05
0.01577085506 	0.01287638908 	-0.0005304086496 	3.607614036e-07 	0.01408624985 	-3.016823034e-06 	2.685230729e-05
0.01951424692 	0.01292611242 	-0.0006554974876 	4.317647019e-07 	0.01413775708 	-2.979888083e-06 	2.695049437e-05
0.02376371923 	0.01299480695 	-0.0007966753264 	5.053830748e-07 	0.01420731068 	-2.943871453e-06 	2.708308287e-05
0.02856971015 	0.01308760607 	-0.0009555743639 	5.800826642e-07 	0.01429945284 	-2.912470317e-06 	2.725873144e-05
0.03399956521 	0.01321040836 	-0.001133896644 	6.53703402e-07 	0.01441942254 	-2.885515735e-06 	2.748742704e-05
0.04013425608 	0.01337022359 	-0.001333516744 	7.233800506e-07 	0.01457332146 	-2.860555338e-06 	2.778080114e-05
0.04710020392 	0.01357477589 	-0.001556355402 	7.847112641e-07 	0.01476766537 	-2.829066366e-06 	2.815127465e-05
0.05497248355 	0.01383123112 	-0.001803304291 	8.327481727e-07 	0.0150087629 	-2.786114647e-06 	2.861087356e-05
0.06388212204 	0.01417829277 	-0.002099344096 	8.693271008e-07 	0.01533063908 	-2.735446284e-06 	2.922445901e-05
0.07738804933 	0.01465184543 	-0.002461886857 	8.516440584e-07 	0.01576150953 	-2.551111129e-06 	3.004581785e-05
0.09190225286 	0.01520433952 	-0.002848277945 	7.883932587e-07 	0.0162524921 	-2.2848481e-06 	3.09817671e-05
0.1074900975 	0.01577068737 	-0.003219483366 	6.699292099e-07 	0.01674012919 	-1.904101082e-06 	3.191133891e-05
0.1242359314 	0.01630577561 	-0.003561457489 	5.034147858e-07 	0.01717855607 	-1.413110482e-06 	3.274710241e-05
0.1422279963 	0.01675428491 	-0.003857309213 	3.023545945e-07 	0.01751195449 	-8.4044308e-07 	3.338265245e-05
0.1615588878 	0.01705195746 	-0.004087782509 	8.701162059e-08 	0.01767746991 	-2.395108997e-07 	3.369817085e-05
0.1701363888 	0.01708404409 	-0.004147303695 	6.968569628e-06 	0.01764947061 	-4.245198429e-05 	3.364479641e-05
0.1823260612 	0.01712921911 	-0.004231711344 	1.157334492e-07 	0.01760910822 	-3.148106031e-07 	3.356785446e-05
0.2046323802 	0.0169172579 	-0.004266976579 	2.696730677e-07 	0.0172444551 	-7.293080791e-07 	3.287272428e-05
0.2285867053 	0.0163591866 	-0.004173172764 	3.439152995e-07 	0.01653627637 	-9.358284049e-07 	3.152273878e-05
0.254304522 	0.01542683065 	-0.003936395072 	3.228855891e-07 	0.01546894515 	-9.206563957e-07 	2.948810883e-05
0.2819095097 	0.0141431713 	-0.003556871712 	2.209017457e-07 	0.01407870939 	-7.540709758e-07 	2.683793308e-05
0.3115423872 	0.01260405476 	-0.003057431517 	8.963310309e-08 	0.01247058921 	-5.867312906e-07 	2.377240906e-05
0.3433329903 	0.0109782806 	-0.002485186751 	-2.508412086e-09 	0.01081294247 	-5.747793994e-07 	2.061247364e-05
0.37743697 	0.009465247664 	-0.001898430602 	-1.733997088e-08 	0.009294031375 	-7.627163679e-07 	1.771700694e-05
0.414010442 	0.008227458916 	-0.001343257092 	2.785073746e-08 	0.00806046566 	-1.044393917e-06 	1.536548784e-05
0.4532220137 	0.007350139053 	-0.0008358546114 	8.80653675e-08 	0.007185030002 	-1.262260959e-06 	1.369666416e-05
0.4952525067 	0.006858382749 	-0.0003693613879 	1.338753861e-07 	0.006687499275 	-1.323127203e-06 	1.274823231e-05
0.5373056793 	0.006733211712 	6.114459704e-05 	1.631753913e-07 	0.006549348119 	-1.223198177e-06 	1.248487781e-05
0.5765818555 	0.006905715125 	0.0004615481976 	1.850260773e-07 	0.00670506149 	-1.018562673e-06 	1.278171078e-05
0.6132593029 	0.007303224413 	0.000845184237 	2.023853278e-07 	0.007085747149 	-7.691307034e-07 	1.350740345e-05
0.6475070436 	0.007871872766 	0.001219842087 	2.0797112e-07 	0.007640614513 	-5.241339659e-07 	1.456513486e-05
0.679484443 	0.00856648156 	0.001584603976 	1.896514849e-07 	0.008326788039 	-3.28736358e-07 	1.587317231e-05
0.7093412355 	0.009343506242 	0.001932954056 	1.374659855e-07 	0.009102617579 	-2.233707842e-07 	1.735211905e-05
0.7372173963 	0.01015769884 	0.002255569523 	4.835453697e-08 	0.009924249842 	-2.38588259e-07 	1.89183785e-05
0.7632441099 	0.0109627258 	0.002543026218 	-7.296250594e-08 	0.0107458881 	-3.884076893e-07 	2.048464939e-05
0.7875439148 	0.01171414923 	0.00278759052 	-2.160175885e-07 	0.01152262059 	-6.664969428e-07 	2.196531738e-05
0.8102313055 	0.01237289179 	0.002984022183 	-3.675166035e-07 	0.01221397239 	-1.046939246e-06 	2.328322607e-05
0.8314132346 	0.01290808137 	0.003129717386 	-5.137165837e-07 	0.01278693965 	-1.488906417e-06 	2.437546092e-05
0.8511895776 	0.01329875844 	0.003224539764 	-6.41889481e-07 	0.01321790614 	-1.943542609e-06 	2.519700282e-05
0.8696535944 	0.01353431216 	0.003270643958 	-7.41151345e-07 	0.0134932009 	-2.361272648e-06 	2.572179116e-05
0.8868923629 	0.01361324645 	0.003272122694 	-8.03050137e-07 	0.01360910946 	-2.69785488e-06 	2.594274509e-05
0.9029871861 	0.01354233805 	0.003234582351 	-8.220993619e-07 	0.0135677947 	-2.918927086e-06 	2.586398767e-05
0.9180139737 	0.01333268088 	0.003167856875 	-7.956495194e-07 	0.01337745466 	-3.001211607e-06 	2.550114665e-05
0.9320435986 	0.01302030882 	0.003073791158 	-7.338525151e-07 	0.01307606742 	-2.941068474e-06 	2.49266188e-05
0.941327225 	0.01268572856 	0.00297985967 	-6.564908308e-07 	0.0127433791 	-2.78763592e-06 	2.429242241e-05
0.9495440518 	0.01235511182 	0.002901633827 	-5.720281137e-07 	0.01240700433 	-2.581115103e-06 	2.36511986e-05
0.9568166671 	0.01201137314 	0.002825635241 	-4.8325229e-07 	0.01205468945 	-2.326236455e-06 	2.297958851e-05
0.963253572 	0.01166073913 	0.002754287816 	-3.94997835e-07 	0.0116941301 	-2.036035451e-06 	2.229226219e-05
0.9689507996 	0.01130566343 	0.002687259426 	-3.113127607e-07 	0.01132816299 	-1.722396415e-06 	2.159462716e-05
0.9739933478 	0.01094314004 	0.002623167403 	-2.352492869e-07 	0.01095488212 	-1.396900787e-06 	2.088305007e-05
0.9784564469 	0.01055921777 	0.002558141782 	-1.688263206e-07 	0.01056746466 	-1.072232952e-06 	2.014452472e-05
0.9824066826 	0.01012652444 	0.002483236126 	-1.128512916e-07 	0.0101309463 	-7.619224513e-07 	1.93123994e-05
0.985902989 	0.009574248155 	0.002395402047 	-6.805271265e-08 	0.009575062529 	-4.816333504e-07 	1.825273043e-05
0.9889975281 	0.008722395475 	0.002204074645 	-3.390017639e-08 	0.008712269346 	-2.623378538e-07 	1.660800682e-05
0.9910076668 	0.007473595271 	0.001899284091 	-1.069354087e-08 	0.00743549868 	-1.150607684e-07 	1.417412707e-05
0.9930178055 	0.005178206189 	0.001287011159 	3.592133832e-09 	0.005149255563 	-2.275434976e-08 	9.815912265e-06
0.9950279442 	0.001961689014 	0.0004349934802 	5.089567021e-09 	0.001959249223 	6.655943516e-09 	3.734873564e-06
0.9970380829 	0.0001629403854 	1.767140399e-05 	4.019915886e-10 	0.0001628768658 	1.095573507e-09 	3.104885756e-07
0.9990482216 	1.163700383e-06 	1.226059408e-08 	3.844309683e-13 	1.161415469e-06 	1.032857001e-11 	2.213980683e-09
0.9990482216 	1.163700383e-06 	1.226059408e-08 	3.844309683e-13 	1.161415469e-06 	1.032857001e-11 	2.213980683e-09
