3.197437928e-34 	0.01111792331 	-7.550727435e-16 	-2.744489571e-22 	5.128069622e-29 	1.863917579e-35 	6.774847061e-42
0.001920179623 	0.01110858832 	-4.754119658e-05 	2.354578614e-08 	0.01223045869 	-2.986645849e-06 	2.331465353e-05
0.003840345101 	0.01110545092 	-0.0001118243098 	6.409458365e-08 	0.01226751636 	-2.96758783e-06 	2.338529576e-05
0.005760496377 	0.01111118432 	-0.0001665005455 	9.443853416e-08 	0.01227723891 	-2.933104897e-06 	2.340382965e-05
0.007680633441 	0.01111174396 	-0.0002215584396 	1.240160247e-07 	0.01229032562 	-2.900848488e-06 	2.342877656e-05
0.009600756325 	0.01111448972 	-0.0002843605719 	1.569035515e-07 	0.01230308346 	-2.869283068e-06 	2.345309653e-05
0.01255669343 	0.0111196519 	-0.000364776493 	1.967615782e-07 	0.01232291168 	-2.820602675e-06 	2.349089463e-05
0.01589636313 	0.01112844682 	-0.0004607722004 	2.422193389e-07 	0.01235268519 	-2.770970483e-06 	2.354765122e-05
0.01966957619 	0.01114141316 	-0.0005691009591 	2.904108406e-07 	0.01239358599 	-2.720054478e-06 	2.362561952e-05
0.02394927615 	0.01115974165 	-0.0006912632766 	3.40515478e-07 	0.01244890435 	-2.66556811e-06 	2.373107168e-05
0.02878858959 	0.01118523386 	-0.0008286386249 	3.915667336e-07 	0.01252227539 	-2.610150074e-06 	2.387093727e-05
0.03425611113 	0.01121984427 	-0.0009826918014 	4.422346536e-07 	0.01261807262 	-2.554062495e-06 	2.405355342e-05
0.04043338076 	0.01126583235 	-0.001155072063 	4.908041784e-07 	0.01274153202 	-2.496363795e-06 	2.428890135e-05
0.04744143031 	0.0113257459 	-0.001347549367 	5.346523164e-07 	0.01289862288 	-2.432329567e-06 	2.458836019e-05
0.05536094352 	0.01140205114 	-0.00156120662 	5.709338803e-07 	0.01309578094 	-2.361222662e-06 	2.496419826e-05
0.06432130776 	0.01150692345 	-0.001818818848 	6.02241613e-07 	0.01336383522 	-2.287666352e-06 	2.547518422e-05
0.0778967341 	0.01165371548 	-0.002137180556 	6.020875322e-07 	0.01373331144 	-2.122861069e-06 	2.617950857e-05
0.0924770317 	0.01183073327 	-0.002481941344 	5.75123507e-07 	0.0141730533 	-1.918892937e-06 	2.701777879e-05
0.1081284109 	0.01201886799 	-0.002822913247 	5.128546276e-07 	0.01463991701 	-1.649022872e-06 	2.790775078e-05
0.12493365 	0.01220372841 	-0.003151509547 	4.163390783e-07 	0.0151060996 	-1.304863329e-06 	2.879642436e-05
0.1429796724 	0.01236551996 	-0.003456850611 	2.891580076e-07 	0.01553431756 	-8.889631974e-07 	2.961272681e-05
0.1623579926 	0.01247809367 	-0.003725604841 	1.381443039e-07 	0.01587847362 	-4.177313256e-07 	3.026878391e-05
0.179915767 	0.01250431294 	-0.003908086696 	1.603805245e-06 	0.01605227571 	-1.112991346e-05 	3.060009899e-05
0.1831652053 	0.01250918151 	-0.003941883796 	2.664196339e-08 	0.01608448133 	-7.894975194e-08 	3.066149187e-05
0.2055035143 	0.01242168809 	-0.004087257298 	1.919733772e-07 	0.01609221354 	-5.588953253e-07 	3.067623161e-05
0.2294813006 	0.01217647243 	-0.004140934165 	3.336447044e-07 	0.0158387112 	-9.514008402e-07 	3.019298568e-05
0.2552137277 	0.01173835676 	-0.004081154333 	4.294982926e-07 	0.01526558073 	-1.195370876e-06 	2.910043972e-05
0.2828241328 	0.01108557634 	-0.003887735478 	4.597771423e-07 	0.01433080321 	-1.245957851e-06 	2.731849395e-05
0.3124514441 	0.01022420149 	-0.00354751818 	4.158437362e-07 	0.01302945459 	-1.101262338e-06 	2.483776179e-05
0.3442271852 	0.009207752673 	-0.00306326881 	3.120829222e-07 	0.01142528822 	-8.31416052e-07 	2.177977484e-05
0.3783059509 	0.008149377112 	-0.002462170249 	1.907867905e-07 	0.009678355199 	-5.735574679e-07 	1.844963497e-05
0.4148445556 	0.00720244533 	-0.001794057435 	1.026549219e-07 	0.008034356316 	-4.534860208e-07 	1.531571617e-05
0.454012114 	0.006506699526 	-0.001108623246 	6.974944311e-08 	0.006753905447 	-4.799387309e-07 	1.287482093e-05
0.4959899515 	0.006142461276 	-0.0004349899112 	7.80749371e-08 	0.006031612615 	-5.353919917e-07 	1.149793005e-05
0.5379865561 	0.006101825795 	0.0002009548953 	9.963151557e-08 	0.005921207592 	-5.046535498e-07 	1.128746738e-05
0.577207568 	0.006302426361 	0.0007807624921 	1.085079144e-07 	0.006304868673 	-3.918941656e-07 	1.201883204e-05
0.6138321997 	0.006665195538 	0.001306818917 	9.101007908e-08 	0.007015134694 	-2.75438436e-07 	1.337279648e-05
0.6480299089 	0.007137211375 	0.00178392947 	4.510004319e-08 	0.007916204386 	-2.227612679e-07 	1.509048575e-05
0.6799601987 	0.007677017852 	0.002211855663 	-2.548574217e-08 	0.008903679039 	-2.658051443e-07 	1.69728869e-05
0.7097727691 	0.008246925687 	0.002587993152 	-1.138888434e-07 	0.009897517431 	-4.054749594e-07 	1.88674191e-05
0.7376075325 	0.008810759232 	0.002909370838 	-2.114720299e-07 	0.01083669225 	-6.225503035e-07 	2.065774733e-05
0.7635955286 	0.009335565153 	0.003174173644 	-3.092100637e-07 	0.01167661902 	-8.87627431e-07 	2.22588812e-05
0.787859151 	0.009794470121 	0.003382450204 	-3.987852287e-07 	0.0123875575 	-1.168422793e-06 	2.361412754e-05
0.8105127434 	0.01016867771 	0.003536270442 	-4.732785445e-07 	0.01295293999 	-1.434577976e-06 	2.469190371e-05
0.831663108 	0.01044794431 	0.003639573512 	-5.275467731e-07 	0.01336742737 	-1.660577448e-06 	2.548203185e-05
0.8514099765 	0.01062970941 	0.003697836274 	-5.583986374e-07 	0.01363474121 	-1.827342287e-06 	2.599160633e-05
0.8698464725 	0.01071733417 	0.003717773309 	-5.646013367e-07 	0.01376540153 	-1.922748747e-06 	2.624068121e-05
0.8870595453 	0.0107175758 	0.003706477668 	-5.467894044e-07 	0.01377533019 	-1.941133346e-06 	2.625960799e-05
0.9031303776 	0.01064025647 	0.003671798516 	-5.071825431e-07 	0.0136801792 	-1.882497963e-06 	2.607822377e-05
0.9181347659 	0.01049166837 	0.003624453318 	-4.490714774e-07 	0.01350070639 	-1.750709828e-06 	2.573609871e-05
0.9321434779 	0.01030416008 	0.003558631856 	-3.829046367e-07 	0.0132580353 	-1.569171551e-06 	2.527350015e-05
0.9414132658 	0.01011607614 	0.003495276336 	-3.219572496e-07 	0.0130139851 	-1.380703139e-06 	2.480827265e-05
0.9496178443 	0.009928809926 	0.003449389301 	-2.672568184e-07 	0.01279383255 	-1.196075659e-06 	2.43886007e-05
0.9568796188 	0.009738662027 	0.003404797937 	-2.164596065e-07 	0.01257419595 	-1.009475209e-06 	2.39699123e-05
0.9633069287 	0.009545869655 	0.003362195981 	-1.707009668e-07 	0.01235737169 	-8.274041518e-07 	2.3556585e-05
0.9689956638 	0.009349297585 	0.003319818634 	-1.306499364e-07 	0.01213891972 	-6.553937693e-07 	2.314015482e-05
0.9740306954 	0.009142375333 	0.003274819135 	-9.653141302e-08 	0.0119101192 	-4.979700045e-07 	2.270399744e-05
0.9784871417 	0.008907909492 	0.003220046369 	-6.817179566e-08 	0.01165723308 	-3.589172442e-07 	2.222192621e-05
0.982431489 	0.008618652118 	0.003146334296 	-4.512552201e-08 	0.01133313388 	-2.406019496e-07 	2.160410306e-05
0.9859225838 	0.008192258026 	0.003046001157 	-2.724394696e-08 	0.01087014708 	-1.450516865e-07 	2.072152153e-05
0.98901251 	0.007505971176 	0.002815071302 	-1.425324032e-08 	0.009988428663 	-7.711085163e-08 	1.904072117e-05
0.9910196523 	0.006459252487 	0.00244004927 	-6.063218843e-09 	0.008581139586 	-3.532809564e-08 	1.635803706e-05
0.9930267946 	0.004521511594 	0.001664722626 	-1.433921248e-09 	0.005931097132 	-1.143576051e-08 	1.13063196e-05
0.9950339369 	0.001762641365 	0.0005701954066 	2.423533729e-10 	0.002207285743 	-1.620864969e-09 	4.20770011e-06
0.9970410793 	0.0001593401126 	2.45131461e-05 	5.751850026e-11 	0.0001682652803 	-5.440712313e-11 	3.207603911e-07
0.9990482216 	1.168250748e-06 	1.735575731e-08 	1.011299352e-13 	1.166530406e-06 	1.484571649e-12 	2.223731175e-09
0.9990482216 	1.168250748e-06 	1.735575731e-08 	1.011299352e-13 	1.166530406e-06 	1.484571649e-12 	2.223731175e-09
