0.3359950097 	5.652815934e-06 	-1.216859269e-07 	2.570145746e-10 	5.560945629e-06 	-8.867351894e-09 	1.060070795e-08
0.3359950097 	5.652815934e-06 	-1.216859269e-07 	2.570145746e-10 	5.560945629e-06 	-8.867351894e-09 	1.060070795e-08
0.3371488821 	0.0005171981837 	-8.661837941e-05 	2.622596812e-07 	0.0004929347834 	-1.100576527e-06 	9.396707013e-07
0.3383029084 	0.004635085075 	-0.001469174733 	3.723354925e-06 	0.004736591192 	-9.399631736e-06 	9.02925928e-06
0.339456909 	0.01123951935 	-0.004059981122 	7.474763591e-06 	0.01179809592 	-1.633501883e-05 	2.249044994e-05
0.3406107058 	0.01533365198 	-0.005748121341 	7.041991612e-06 	0.01631021445 	-1.297521865e-05 	3.109180193e-05
0.3417641219 	0.01678972266 	-0.006363188283 	4.679898906e-06 	0.01804046334 	-5.513288551e-06 	3.439013722e-05
0.3435386191 	0.01667844542 	-0.006365266822 	1.247701809e-06 	0.01805113833 	4.025147165e-06 	3.441048672e-05
0.345541121 	0.01535334887 	-0.005835114143 	-2.237526544e-06 	0.01668412702 	1.288090408e-05 	3.180458322e-05
0.3477994817 	0.01349198407 	-0.005146372017 	-5.49123232e-06 	0.01478217147 	1.896808953e-05 	2.817892731e-05
0.3503442295 	0.01150765655 	-0.004328699662 	-8.125771097e-06 	0.01268361626 	2.046177844e-05 	2.417849782e-05
0.3532733514 	0.009701768223 	-0.003452918218 	-8.668249876e-06 	0.01071937915 	1.602046041e-05 	2.043411597e-05
0.356598976 	0.008283142138 	-0.002641510325 	-7.275197994e-06 	0.009176965079 	7.297654454e-06 	1.749384605e-05
0.3603444458 	0.00730984878 	-0.001968177287 	-5.327350448e-06 	0.008210240307 	-1.912213237e-06 	1.565099994e-05
0.3645614832 	0.00669901678 	-0.001429885958 	-4.025460311e-06 	0.007773293318 	-7.983233244e-06 	1.481805754e-05
0.3694015871 	0.006314149662 	-0.0009811480728 	-3.186645219e-06 	0.007682710345 	-1.014672293e-05 	1.464538122e-05
0.3748927519 	0.006011973562 	-0.0005797098573 	-2.409289207e-06 	0.007765966818 	-9.73973931e-06 	1.480409119e-05
0.3832077724 	0.005693687259 	-0.0002111870418 	-1.47654821e-06 	0.007898467062 	-7.55594146e-06 	1.505667348e-05
0.3922194226 	0.005337586551 	8.083286846e-05 	-5.897462775e-07 	0.007992138555 	-4.929466371e-06 	1.523523739e-05
0.4019645111 	0.004947168072 	0.0002611115564 	3.118659143e-08 	0.008009371873 	-2.490577178e-06 	1.526808888e-05
0.41246846 	0.004536076304 	0.000345265385 	2.59246393e-07 	0.007935640428 	-7.025457654e-07 	1.512753625e-05
0.4238250473 	0.00413189568 	0.0003525646679 	9.944635768e-08 	0.007762253873 	2.797640961e-08 	1.479701329e-05
0.4281449265 	0.004007025195 	0.0003421698517 	-7.112052629e-07 	0.007662704889 	-7.829010896e-06 	1.460724526e-05
0.4360921644 	0.003773990597 	0.0003227979287 	1.862001606e-07 	0.007475899583 	4.670173971e-08 	1.425114242e-05
0.4493258187 	0.00348853354 	0.000300468352 	4.328902585e-07 	0.007128033593 	8.265926374e-07 	1.358801316e-05
0.4636467224 	0.003263046546 	0.0002902413362 	6.084623667e-07 	0.006808991055 	1.73471406e-06 	1.297982941e-05
0.479142112 	0.003078317678 	0.0002859475129 	8.076237853e-07 	0.006559208682 	2.276173254e-06 	1.250367479e-05
0.495937783 	0.002921892355 	0.000285012066 	1.013188437e-06 	0.006375596986 	2.640347259e-06 	1.215365986e-05
0.5140945125 	0.002786485898 	0.0002864615213 	1.218528774e-06 	0.0062434769 	2.963655651e-06 	1.190180226e-05
0.5336915725 	0.002667773856 	0.0002899937775 	1.411000256e-06 	0.006150722283 	3.272504223e-06 	1.172498618e-05
0.5548794993 	0.002562576542 	0.0002959939733 	1.595096715e-06 	0.006090842619 	3.551760931e-06 	1.161083889e-05
0.577708027 	0.002468379488 	0.0003059408292 	1.766346546e-06 	0.006062562566 	3.802562568e-06 	1.155692925e-05
0.6022888803 	0.002383959299 	0.0003219287024 	1.921798914e-06 	0.006068816179 	4.043325583e-06 	1.156885038e-05
0.6287248958 	0.002308394849 	0.0003488610312 	1.939997534e-06 	0.00611624296 	4.033091118e-06 	1.1659259e-05
0.6571183725 	0.002245954017 	0.0003941033244 	1.975872207e-06 	0.006212298694 	3.989716154e-06 	1.184236793e-05
0.6855585609 	0.002247268375 	0.000482539948 	2.097956467e-06 	0.00631404668 	3.83380919e-06 	1.203632787e-05
0.7121365164 	0.002340526633 	0.0006148453194 	2.128863986e-06 	0.006425363533 	3.903001414e-06 	1.224852873e-05
0.7369645634 	0.002499709848 	0.0007687698527 	2.091467577e-06 	0.006625528921 	4.360764537e-06 	1.263009959e-05
0.7601541182 	0.002721122577 	0.000942007591 	2.104050934e-06 	0.006936815966 	4.821920218e-06 	1.322349922e-05
0.781812674 	0.003010768548 	0.001130335903 	2.098938618e-06 	0.007335756868 	5.163889569e-06 	1.398399146e-05
0.8020426129 	0.003365227489 	0.001325746619 	2.041010928e-06 	0.00778660238 	5.285031083e-06 	1.484342831e-05
0.8209384831 	0.003770197365 	0.001518963389 	1.912397121e-06 	0.008255120496 	5.164783711e-06 	1.573655406e-05
0.8385893071 	0.004204647054 	0.001701645289 	1.648262494e-06 	0.008713568673 	4.620292995e-06 	1.66104837e-05
0.8550774756 	0.004646484944 	0.001868128807 	1.367167703e-06 	0.00914055478 	3.958829883e-06 	1.74244379e-05
0.8704799455 	0.00507665661 	0.002015484046 	1.100153303e-06 	0.009520512604 	3.267214704e-06 	1.814874311e-05
0.8848682824 	0.005481223882 	0.002143080504 	8.658849997e-07 	0.009843323814 	2.605315054e-06 	1.8764111e-05
0.898309154 	0.005851833603 	0.002252114611 	6.773732813e-07 	0.01010420125 	2.022257137e-06 	1.926141591e-05
0.9108647908 	0.006185196218 	0.00234537409 	5.442735844e-07 	0.01030367207 	1.559662841e-06 	1.964166272e-05
0.922593274 	0.006481930083 	0.002426554264 	4.741797082e-07 	0.01044809171 	1.256211617e-06 	1.99169667e-05
0.9335488469 	0.00674728634 	0.002501529246 	4.748322489e-07 	0.01054592989 	1.147289009e-06 	2.010347347e-05
0.9437821903 	0.006985946276 	0.00257924973 	5.567933153e-07 	0.01061542013 	1.276083271e-06 	2.023594117e-05
0.9533406678 	0.007203354359 	0.002645750668 	6.956607658e-07 	0.01065670237 	1.636107161e-06 	2.03146366e-05
0.9596679154 	0.007386265719 	0.002705343538 	8.650709254e-07 	0.01069424482 	2.143191108e-06 	2.038620294e-05
0.9652695907 	0.007545275549 	0.002775314396 	1.062374369e-06 	0.01076006308 	2.769292914e-06 	2.051167084e-05
0.9702287469 	0.007708435544 	0.002850101099 	1.276343959e-06 	0.0108516057 	3.510142468e-06 	2.06861765e-05
0.9746189643 	0.007876262676 	0.002929611868 	1.496791008e-06 	0.01097083316 	4.330435127e-06 	2.091345719e-05
0.9785054204 	0.008045904664 	0.003010954674 	1.710548766e-06 	0.01111013249 	5.180092045e-06 	2.117900042e-05
0.9819458465 	0.008204702819 	0.003088346594 	1.902052725e-06 	0.01125248848 	5.994746899e-06 	2.145037051e-05
0.9849913737 	0.008321192083 	0.003149463384 	2.054114911e-06 	0.01136542298 	6.694798626e-06 	2.166565505e-05
0.9876872839 	0.008338800756 	0.003174481149 	2.143169611e-06 	0.01136066496 	7.163655209e-06 	2.165658494e-05
0.9900736765 	0.008120467688 	0.003134031331 	2.136039284e-06 	0.01107921312 	7.237477748e-06 	2.112005952e-05
0.9921860593 	0.00742417497 	0.002878618452 	1.938305587e-06 	0.01008863799 	6.623002903e-06 	1.923174801e-05
0.9935583211 	0.006116168492 	0.002351199142 	1.531951253e-06 	0.00823188802 	5.300573422e-06 	1.56922665e-05
0.9949306682 	0.003847042972 	0.001389866166 	8.778386044e-07 	0.005033502103 	3.185854287e-06 	9.595253998e-06
0.9963031006 	0.001313998279 	0.0003868346937 	2.465208072e-07 	0.00159417182 	1.040198594e-06 	3.038934567e-06
0.9976756184 	0.0001233897099 	1.598126839e-05 	1.364302143e-08 	0.0001282391435 	1.07958021e-07 	2.444594497e-07
0.9990482216 	1.270159933e-06 	1.845293926e-08 	2.684223285e-11 	1.268264222e-06 	1.612000637e-09 	2.417664104e-09
