1.640171017e-35 	0.01209912607 	-8.29395491e-16 	-3.358090794e-19 	2.3621107e-15 	1.031319804e-16 	4.502839508e-18
0.001912604907 	0.01209172404 	-4.305579308e-05 	2.550635233e-08 	0.0130499854 	-3.126236871e-06 	2.487689922e-05
0.003825194192 	0.0120909416 	-0.0001039732279 	6.885154145e-08 	0.01308191767 	-3.102511637e-06 	2.4937771e-05
0.005737767794 	0.01209909251 	-0.0001549559781 	1.014797878e-07 	0.01309053201 	-3.065509474e-06 	2.495419234e-05
0.007650325701 	0.01210407822 	-0.0002063437312 	1.332929624e-07 	0.01310216327 	-3.030835449e-06 	2.497636474e-05
0.00956286795 	0.01211318528 	-0.0002649169034 	1.685947206e-07 	0.01311366305 	-2.997243117e-06 	2.499828653e-05
0.01250713205 	0.01212864874 	-0.0003399621751 	2.113132107e-07 	0.01313156264 	-2.945748852e-06 	2.503240812e-05
0.01583360909 	0.01215275335 	-0.0004296704586 	2.599435396e-07 	0.01315843461 	-2.893299479e-06 	2.508363356e-05
0.01959191156 	0.01218714108 	-0.0005310358588 	3.114648165e-07 	0.01319523403 	-2.839651142e-06 	2.515378349e-05
0.02385649769 	0.01223484568 	-0.0006454823077 	3.651134388e-07 	0.01324484033 	-2.782148909e-06 	2.524834689e-05
0.02867914987 	0.0122995491 	-0.0007744013274 	4.19911758e-07 	0.01331050195 	-2.723708256e-06 	2.537351619e-05
0.03412783817 	0.01238553742 	-0.0009192577269 	4.744498681e-07 	0.01339601517 	-2.664299944e-06 	2.553652815e-05
0.04028381842 	0.01249797595 	-0.00108168616 	5.268422335e-07 	0.01350584036 	-2.602401983e-06 	2.574588547e-05
0.04727081711 	0.01264270717 	-0.001263446058 	5.741487816e-07 	0.01364487713 	-2.532149786e-06 	2.60109282e-05
0.05516671354 	0.01282545304 	-0.001465619084 	6.13083456e-07 	0.01381819452 	-2.452115993e-06 	2.634131932e-05
0.0641017149 	0.01307509539 	-0.001709627556 	6.460152808e-07 	0.01405138118 	-2.365699024e-06 	2.67858379e-05
0.07764239172 	0.01342079278 	-0.002011135944 	6.426571215e-07 	0.01436782231 	-2.175303353e-06 	2.738906265e-05
0.09218964228 	0.01383261939 	-0.002336680441 	6.076344544e-07 	0.01473598118 	-1.937628324e-06 	2.809087578e-05
0.1078092542 	0.01426702844 	-0.002655903588 	5.31792729e-07 	0.01511314685 	-1.627960176e-06 	2.880985838e-05
0.1245847907 	0.01469411682 	-0.002958697914 	4.176196485e-07 	0.01546872656 	-1.242303233e-06 	2.948769213e-05
0.1426038343 	0.015075036 	-0.003232468068 	2.716125097e-07 	0.01576311418 	-7.90683486e-07 	3.004887675e-05
0.1619584402 	0.01536195238 	-0.003462353809 	1.048902065e-07 	0.01594879756 	-2.997684835e-07 	3.040284089e-05
0.17459936 	0.01544566571 	-0.003565154909 	4.239780305e-06 	0.0159630274 	-3.087024435e-05 	3.042996692e-05
0.1827456333 	0.01549960837 	-0.003631411558 	6.789492025e-08 	0.01597211194 	-1.891300769e-07 	3.044728457e-05
0.2050679472 	0.0154281843 	-0.003720868403 	2.245499789e-07 	0.01577657677 	-6.142356055e-07 	3.00745402e-05
0.229034003 	0.01508913561 	-0.003711067919 	3.378245093e-07 	0.01530926206 	-9.069204943e-07 	2.918370847e-05
0.2547591248 	0.01443561863 	-0.003583757222 	3.85094652e-07 	0.01453153353 	-1.019046107e-06 	2.770114174e-05
0.2823668212 	0.01344883802 	-0.00332643285 	3.545841328e-07 	0.01343516272 	-9.441528798e-07 	2.561115425e-05
0.3119969157 	0.01216150071 	-0.002939937361 	2.580392321e-07 	0.01206399638 	-7.455224121e-07 	2.299733011e-05
0.3437800877 	0.01068168002 	-0.002447070902 	1.374316937e-07 	0.01053349679 	-5.529257412e-07 	2.007977251e-05
0.3778714604 	0.009191673646 	-0.001894368367 	4.853872452e-08 	0.00902417006 	-4.931688259e-07 	1.720257627e-05
0.4144274988 	0.007899023212 	-0.001337652505 	2.110108818e-08 	0.007731641151 	-5.938356977e-07 	1.473865693e-05
0.4536170638 	0.006961539127 	-0.0008145852403 	3.945678949e-08 	0.006798504462 	-7.591680827e-07 	1.295983905e-05
0.4956212291 	0.0064539429 	-0.0003334774318 	7.234395295e-08 	0.006289462962 	-8.558894337e-07 	1.198946447e-05
0.5376461177 	0.006364804094 	0.0001070771054 	1.021612093e-07 	0.006191054715 	-8.186967752e-07 	1.1801871e-05
0.5768947117 	0.006604495977 	0.0005141578802 	1.229089489e-07 	0.006417025917 	-6.794135804e-07 	1.223263492e-05
0.6135457513 	0.007076914685 	0.0009009753242 	1.295193234e-07 	0.006875953358 	-5.058765265e-07 	1.310747817e-05
0.6477684763 	0.007709942842 	0.001272942598 	1.145757622e-07 	0.007499538896 	-3.57740267e-07 	1.429620552e-05
0.6797223209 	0.008444449987 	0.001626277704 	7.207852821e-08 	0.008231185949 	-2.791098414e-07 	1.569092816e-05
0.7095570023 	0.00922745189 	0.001953020812 	1.563441831e-09 	0.00901940413 	-2.962576057e-07 	1.719349109e-05
0.7374124644 	0.01000959521 	0.002244595087 	-9.137630386e-08 	0.009815274367 	-4.16799705e-07 	1.871064096e-05
0.7634198193 	0.0107462879 	0.002494153883 	-1.973304253e-07 	0.01057357512 	-6.305453602e-07 	2.015617296e-05
0.7877015329 	0.01140019962 	0.002697523591 	-3.057601236e-07 	0.01125549826 	-9.130485596e-07 	2.145610798e-05
0.8103720244 	0.01194335869 	0.002853237055 	-4.068139148e-07 	0.011831026 	-1.231093852e-06 	2.255322382e-05
0.8315381713 	0.01235812195 	0.002962191925 	-4.921941985e-07 	0.01228013406 	-1.548614706e-06 	2.340934861e-05
0.851299777 	0.01263690218 	0.003027230246 	-5.554909576e-07 	0.0125927174 	-1.831870829e-06 	2.400521933e-05
0.8697500334 	0.01278087782 	0.003052829111 	-5.923123303e-07 	0.01276739995 	-2.053161213e-06 	2.433821281e-05
0.8869759541 	0.01279753979 	0.003044650205 	-6.003663551e-07 	0.01281037195 	-2.192608382e-06 	2.44201294e-05
0.9030587819 	0.01269940661 	0.003009030853 	-5.795104698e-07 	0.01273062524 	-2.238626171e-06 	2.426811001e-05
0.9180743698 	0.01250024823 	0.002955807986 	-5.313071036e-07 	0.01254027738 	-2.186493093e-06 	2.390525408e-05
0.9320935383 	0.01223177013 	0.002883232679 	-4.665616086e-07 	0.01227487127 	-2.049820301e-06 	2.339931626e-05
0.9413702454 	0.01195777724 	0.002812996507 	-4.007581863e-07 	0.01199834346 	-1.874128e-06 	2.28721774e-05
0.9495809481 	0.01169553052 	0.002758876458 	-3.372746576e-07 	0.01172855898 	-1.681176338e-06 	2.235789319e-05
0.9568481429 	0.01142864221 	0.002707127908 	-2.756460332e-07 	0.01145322856 	-1.468224825e-06 	2.18330369e-05
0.9632802503 	0.01116029435 	0.002659058309 	-2.182370087e-07 	0.01117651521 	-1.244226437e-06 	2.130554434e-05
0.9689732317 	0.01089018898 	0.002613449094 	-1.667935994e-07 	0.01089800318 	-1.017443149e-06 	2.0774623e-05
0.9740120216 	0.01061260881 	0.002568313721 	-1.223333372e-07 	0.01061262451 	-7.958114383e-07 	2.023061193e-05
0.9784717943 	0.01031076632 	0.002519455665 	-8.519952942e-08 	0.01031020055 	-5.874272443e-07 	1.965410782e-05
0.9824190858 	0.0099540887 	0.002457904793 	-5.504742898e-08 	0.00995240499 	-3.998433739e-07 	1.897205004e-05
0.9859127864 	0.009468356682 	0.002380575124 	-3.167367705e-08 	0.009465399934 	-2.403885423e-07 	1.804368305e-05
0.9890050191 	0.008666891527 	0.002197112207 	-1.443718766e-08 	0.008654803071 	-1.229671374e-07 	1.649846013e-05
0.9910136596 	0.007450874519 	0.001897558613 	-3.17565277e-09 	0.00741197773 	-4.875377419e-08 	1.412928961e-05
0.9930223001 	0.005175416065 	0.001288333877 	3.087986892e-09 	0.00514614836 	-5.537612982e-09 	9.809989072e-06
0.9950309406 	0.001964150058 	0.0004363363481 	2.899280211e-09 	0.001961615912 	5.324832148e-09 	3.739385132e-06
0.9970395811 	0.0001632769249 	1.777215536e-05 	2.162446562e-10 	0.0001632122716 	7.540975049e-10 	3.111279522e-07
0.9990482216 	1.166892117e-06 	1.235727887e-08 	2.151618153e-13 	1.164600687e-06 	7.697696403e-12 	2.220052593e-09
0.9990482216 	1.166892117e-06 	1.235727887e-08 	2.151618153e-13 	1.164600687e-06 	7.697696403e-12 	2.220052593e-09
