0.3176601022 	5.798675299e-06 	-1.278965682e-07 	3.180936959e-10 	5.691455077e-06 	-1.056383512e-08 	1.084949523e-08
0.3188608126 	0.0005529008678 	-9.519094915e-05 	3.313921342e-07 	0.0005202315195 	-1.318347877e-06 	9.91705867e-07
0.3200616632 	0.004919207139 	-0.001568648293 	4.279236525e-06 	0.004922198103 	-1.036181245e-05 	9.383077639e-06
0.3212624417 	0.01160542954 	-0.004180064014 	7.669861425e-06 	0.0118837957 	-1.589182636e-05 	2.265381754e-05
0.3224629377 	0.01537071141 	-0.005732343463 	6.015947384e-06 	0.015942835 	-9.617749603e-06 	3.039147459e-05
0.3236629424 	0.01641270552 	-0.006190988945 	2.697210316e-06 	0.01721059064 	-1.845830855e-07 	3.280816919e-05
0.3255088723 	0.01587702805 	-0.006033183372 	-1.175784057e-06 	0.01678251098 	9.954280953e-06 	3.199213038e-05
0.327591533 	0.01421280979 	-0.005364156554 	-4.930957324e-06 	0.01510075246 	1.749086981e-05 	2.878623123e-05
0.3299395659 	0.01221213891 	-0.004559136124 	-7.827109192e-06 	0.01307553266 	1.969999813e-05 	2.49255994e-05
0.3325842128 	0.0103305422 	-0.003682218315 	-8.671477318e-06 	0.01111253342 	1.540694467e-05 	2.118357727e-05
0.3356287836 	0.008817944148 	-0.002847469407 	-7.357822107e-06 	0.009550402755 	6.322268748e-06 	1.820572205e-05
0.3390846671 	0.007762380024 	-0.002143330586 	-5.453661825e-06 	0.00855690924 	-3.272569877e-06 	1.631184728e-05
0.3429748198 	0.007096526514 	-0.001580385075 	-4.144484549e-06 	0.008103027574 	-9.49515951e-06 	1.544662268e-05
0.3473522547 	0.006674488356 	-0.001118603208 	-3.288522804e-06 	0.008005016456 	-1.155121528e-05 	1.525978624e-05
0.3523763078 	0.006362375204 	-0.0007259064464 	-2.480121872e-06 	0.008066151207 	-1.090046871e-05 	1.537632607e-05
0.3580735657 	0.006049069858 	-0.0003798635272 	-1.642153709e-06 	0.00817241843 	-8.913675945e-06 	1.557890093e-05
0.3666947432 	0.005662111467 	-7.763284748e-05 	-7.053993639e-07 	0.008243735752 	-5.738584495e-06 	1.571485157e-05
0.3760330498 	0.005213840087 	0.0001371978562 	-1.993640679e-08 	0.008220312887 	-2.741866423e-06 	1.567020108e-05
0.3861248366 	0.004746171529 	0.0002415610114 	1.987067765e-07 	0.008084948336 	-6.565213184e-07 	1.541215862e-05
0.3969939915 	0.004292892403 	0.0002605686407 	1.340906039e-09 	0.007832250207 	4.068952546e-10 	1.493044576e-05
0.3970449088 	0.004291171759 	0.0002604637913 	-7.378038226e-09 	0.007830634284 	-1.148188965e-07 	1.492736536e-05
0.40862673 	0.003891959814 	0.0002360759547 	3.045803758e-07 	0.00745468628 	8.568504217e-08 	1.421070397e-05
0.4212554461 	0.003570265074 	0.0002144641081 	5.784144559e-07 	0.007037160872 	1.137575017e-06 	1.34147845e-05
0.4349065359 	0.003319342529 	0.0002035392508 	7.803253043e-07 	0.006665950145 	2.159612552e-06 	1.270715368e-05
0.4496703284 	0.003118884074 	0.0001980503175 	1.012440815e-06 	0.006378971436 	2.696415067e-06 	1.21600925e-05
0.465635286 	0.002952645786 	0.0001956640282 	1.259142865e-06 	0.006168632251 	3.038011435e-06 	1.175912755e-05
0.4829304922 	0.002810545892 	0.0001955565312 	1.514668504e-06 	0.006017225254 	3.37369339e-06 	1.147050374e-05
0.5016158678 	0.002686832773 	0.0001975450121 	1.765394442e-06 	0.005910554163 	3.713990814e-06 	1.126715899e-05
0.5217709233 	0.002577793321 	0.000201471153 	2.010499975e-06 	0.005839283179 	4.016097081e-06 	1.113129668e-05
0.5435505126 	0.002480501344 	0.00020767638 	2.02964296e-06 	0.005798312379 	3.863363555e-06 	1.105319495e-05
0.5670029 	0.002392499584 	0.0002176234333 	1.874883149e-06 	0.00578638291 	3.421234996e-06 	1.103045407e-05
0.592242101 	0.002312383924 	0.0002333268399 	1.744236192e-06 	0.005805946906 	3.081273607e-06 	1.106774848e-05
0.6193729967 	0.0022390482 	0.0002591089253 	1.647734413e-06 	0.0058623942 	2.861140185e-06 	1.117535271e-05
0.6485002409 	0.002174793706 	0.0003013379145 	1.585281772e-06 	0.005963378872 	2.789237659e-06 	1.136785756e-05
0.6776651358 	0.002162390564 	0.000384504048 	1.571192882e-06 	0.006074453217 	2.779351122e-06 	1.157959614e-05
0.7049135212 	0.002239002693 	0.0005156871826 	1.538314294e-06 	0.006187571844 	2.91900021e-06 	1.179523168e-05
0.7303637708 	0.002385918033 	0.0006719135394 	1.490004568e-06 	0.006374441359 	3.288036937e-06 	1.215145691e-05
0.7541322613 	0.002592678865 	0.000845628481 	1.499156595e-06 	0.006671588059 	3.719555038e-06 	1.271790111e-05
0.7763305871 	0.002867207881 	0.001035185421 	1.519489527e-06 	0.007061288008 	4.106682747e-06 	1.346077753e-05
0.7970645851 	0.003209053541 	0.001234160355 	1.508110162e-06 	0.007512324983 	4.346114815e-06 	1.432057936e-05
0.8164316561 	0.003606819615 	0.001433882799 	1.443479295e-06 	0.007991370969 	4.386291732e-06 	1.523377415e-05
0.8345233061 	0.004041004925 	0.001625474849 	1.325172193e-06 	0.008469108212 	4.230861511e-06 	1.614447412e-05
0.8514240754 	0.004489310458 	0.001802235156 	1.167161458e-06 	0.008921576716 	3.913743546e-06 	1.700700484e-05
0.8672128418 	0.004931183484 	0.001960173513 	9.886101639e-07 	0.009330501219 	3.481005575e-06 	1.77865286e-05
0.8819628947 	0.005350566945 	0.00209775476 	8.086974512e-07 	0.009683202576 	2.983175224e-06 	1.845887542e-05
0.8957424737 	0.005736894021 	0.002215437967 	6.449486463e-07 	0.009972515558 	2.472547796e-06 	1.901038637e-05
0.9086152595 	0.006084855361 	0.002315386419 	5.134637276e-07 	0.01019672477 	2.002585472e-06 	1.943779144e-05
0.9206406786 	0.00639334274 	0.002400744966 	4.294566096e-07 	0.01035994063 	1.629751352e-06 	1.974892623e-05
0.9318742292 	0.006665994189 	0.002476803545 	4.096475582e-07 	0.01046843248 	1.412423571e-06 	1.995574186e-05
0.942367767 	0.006905985185 	0.00255174795 	4.760252193e-07 	0.0105377416 	1.42274185e-06 	2.008786431e-05
0.952169758 	0.007116907246 	0.002612423331 	6.18417867e-07 	0.01056720936 	1.70178465e-06 	2.014403804e-05
0.9586584556 	0.007287481737 	0.002664169454 	8.09292017e-07 	0.01058399255 	2.181634695e-06 	2.017603146e-05
0.9644032374 	0.007430045109 	0.002724402351 	1.043989755e-06 	0.01062160251 	2.833244349e-06 	2.024772651e-05
0.9694892196 	0.007571437061 	0.002788123168 	1.302128763e-06 	0.0106776688 	3.631751644e-06 	2.035460444e-05
0.9739918181 	0.007712718124 	0.002855750933 	1.580896441e-06 	0.01075563445 	4.569687305e-06 	2.050322863e-05
0.9779778424 	0.007852218362 	0.002925096685 	1.864117175e-06 	0.01085022964 	5.596482453e-06 	2.068355336e-05
0.9815064743 	0.007979484994 	0.002991246881 	2.131863063e-06 	0.01094770145 	6.640421798e-06 	2.086936172e-05
0.9846301336 	0.008066657317 	0.003042891123 	2.360627765e-06 	0.01101992294 	7.603009128e-06 	2.100703595e-05
0.9873952463 	0.00806229671 	0.00306161059 	2.517694676e-06 	0.01098533665 	8.328647853e-06 	2.094110487e-05
0.9898429272 	0.007837417626 	0.003020037838 	2.55608453e-06 	0.01069470155 	8.587759786e-06 	2.03870736e-05
0.9920095855 	0.007161535803 	0.00277419761 	2.346932077e-06 	0.009733171702 	7.965041225e-06 	1.855413046e-05
0.9934171184 	0.005902936245 	0.002268454957 	1.857194496e-06 	0.007946321497 	6.396752025e-06 	1.514789734e-05
0.9948247484 	0.003714767418 	0.00134262612 	1.054002761e-06 	0.004862251894 	3.817677097e-06 	9.268803503e-06
0.9962324756 	0.00126738645 	0.0003736726973 	2.910667392e-07 	0.001538567418 	1.230875465e-06 	2.932937121e-06
0.9976403 	0.0001177946808 	1.524690875e-05 	1.629767135e-08 	0.000122422621 	1.291744264e-07 	2.333715411e-07
0.9990482216 	1.18269772e-06 	1.699991021e-08 	3.226954438e-11 	1.180922528e-06 	1.941037059e-09 	2.251166559e-09
0.9990482216 	1.18269772e-06 	1.699991021e-08 	3.226954438e-11 	1.180922528e-06 	1.941037059e-09 	2.251166559e-09
