1.4326613e-19 	0.0050417859 	-3.4241362e-16 	-1.2445786e-22 	6.0722363e-19 	-1.8203671e-33 	6.1370737e-19
0.010869565 	0.0050496323 	-0.0001761009 	1.5308396e-08 	0.0055161499 	-8.8820268e-06 	0.0029639312
0.02173913 	0.0050845623 	-0.00035336445 	1.6932567e-09 	0.0055483324 	-9.7556365e-06 	0.002756316
0.032608696 	0.0051420615 	-0.00052927092 	6.6722892e-09 	0.0056012749 	-4.6821832e-06 	0.0025607325
0.043478261 	0.0052196289 	-0.00070137667 	3.3777477e-08 	0.0056725836 	-7.0603802e-06 	0.0023833948
0.054347826 	0.0053147116 	-0.0008696329 	1.0818226e-08 	0.0057594401 	-3.0476762e-08 	0.0020764396
0.065217391 	0.0054331693 	-0.0010445083 	1.6684731e-07 	0.0058646208 	-4.3136791e-07 	0.0003945004
0.076086957 	0.0055421505 	-0.0011863358 	2.6883516e-08 	0.0059661447 	-7.6017249e-07 	0.0018523567
0.086956522 	0.0056666128 	-0.0013329492 	3.5357826e-07 	0.006077383 	-1.0028235e-05 	0.0016960418
0.097826087 	0.0057929162 	-0.0014723724 	3.772383e-07 	0.0061889334 	-6.8318231e-06 	0.0015391689
0.10869565 	0.0059200043 	-0.0016048655 	1.7933612e-07 	0.0062971257 	-3.8923947e-07 	6.9686682e-05
0.11956522 	0.006038037 	-0.0017234135 	6.8411878e-07 	0.006399555 	-8.4079648e-06 	0.0011856791
0.13043478 	0.0061495802 	-0.0018342956 	7.3462665e-07 	0.006491763 	-6.4815299e-06 	0.0010227021
0.14130435 	0.0062516734 	-0.0019356839 	2.4955491e-07 	0.0065730954 	-2.2017954e-06 	0.00083658249
0.15217391 	0.0063345058 	-0.0020222316 	1.9970761e-06 	0.0066337095 	-1.3347722e-05 	0.00067236258
0.16304348 	0.0064106862 	-0.0021038858 	6.3802292e-08 	0.0066862487 	-1.2806366e-07 	9.2318217e-05
0.17391304 	0.006454624 	-0.002164973 	2.7525521e-06 	0.0067067428 	-1.4644704e-05 	0.00033146293
0.18478261 	0.0064943765 	-0.0022235828 	2.0064923e-07 	0.0067220687 	-8.8737606e-07 	0.00016408691
0.19565217 	0.0064945819 	-0.002259543 	3.6659747e-06 	0.0066970225 	-1.6212861e-05 	1.8018258e-05
0.20652174 	0.0064949484 	-0.0022956075 	1.2591263e-08 	0.0066725883 	-2.3645851e-08 	9.3979707e-05
0.2173913 	0.0064474445 	-0.0023057233 	4.699308e-06 	0.006600643 	-1.7895692e-05 	0.00031790105
0.22826087 	0.0063995832 	-0.0023156444 	5.3556703e-07 	0.0065281803 	-2.0395222e-06 	0.00046150936
0.23913043 	0.0063086266 	-0.0023025727 	3.9445027e-06 	0.0064135063 	-1.3280003e-05 	0.00057561227
0.25 	0.0062070674 	-0.002283797 	2.2273638e-06 	0.0062886254 	-7.4988919e-06 	0.00070184669
0.26086957 	0.0060816189 	-0.0022520055 	1.7551356e-06 	0.0061407909 	-5.3154375e-06 	0.00077642354
0.27173913 	0.0059261164 	-0.0022034168 	5.3187596e-06 	0.0059647853 	-1.6107892e-05 	0.00088341264
0.2826087 	0.0057669468 	-0.0021527977 	5.1055986e-08 	0.0057843022 	-8.0226219e-08 	0.00052322914
0.29347826 	0.0055713431 	-0.0020799654 	4.5691977e-06 	0.0055725496 	-1.2559791e-05 	0.00099351247
0.30434783 	0.0053689413 	-0.0020025704 	3.6321188e-06 	0.0053540955 	-9.9839525e-06 	0.0010802092
0.31521739 	0.0051548433 	-0.0019176467 	4.120066e-08 	0.0051239395 	-5.8293454e-08 	0.00057796764
0.32608696 	0.0049257583 	-0.0018182993 	6.2242977e-06 	0.0048850154 	-1.554245e-05 	0.0010923906
0.33695652 	0.0046944703 	-0.0017170206 	2.7832669e-06 	0.0046433862 	-6.9499866e-06 	0.0011590173
0.34782609 	0.0044554891 	-0.001608075 	2.1542928e-08 	0.0043948978 	-2.7010126e-08 	0.0006612471
0.35869565 	0.0042257643 	-0.0014945007 	6.0930701e-06 	0.0041609458 	-1.3710102e-05 	0.0010844712
0.36956522 	0.0039961856 	-0.0013797314 	3.097484e-06 	0.0039267604 	-6.9696921e-06 	0.001132881
0.38043478 	0.0037679456 	-0.0012604815 	1.8249186e-08 	0.0036936657 	-2.5009147e-08 	0.00024085044
0.39130435 	0.0035696008 	-0.0011465868 	4.0849044e-06 	0.0034955759 	-8.0648295e-06 	0.001007798
0.40217391 	0.0033785196 	-0.0010321284 	4.4783986e-06 	0.0033037549 	-8.8417052e-06 	0.0010414222
0.41304348 	0.0031929284 	-0.00091701202 	3.7495315e-09 	0.0031167363 	-1.703028e-08 	0.00051012733
0.42391304 	0.0030391464 	-0.00080890033 	9.6582283e-07 	0.0029641663 	-1.5490275e-06 	0.00092038446
0.43478261 	0.0029147898 	-0.00070485639 	6.4025334e-06 	0.0028400373 	-1.0268654e-05 	0.00094346815
0.44565217 	0.0027904333 	-0.00060081245 	1.2509799e-06 	0.0027159083 	-2.0063745e-06 	0.00096655183
0.45652174 	0.002693082 	-0.00049963261 	7.6961593e-09 	0.0026171745 	-4.4544072e-08 	0.00020976436
0.4673913 	0.0026265309 	-0.0004071865 	2.1493871e-06 	0.0025514755 	-2.3142591e-06 	0.00089244028
0.47826087 	0.0025776112 	-0.00031527849 	4.2507946e-06 	0.0025017484 	-4.5768583e-06 	0.00090886771
0.48913043 	0.0025286916 	-0.00022337047 	3.4243331e-08 	0.0024520213 	-3.6870017e-08 	0.00092529514
0.5 	0.0025156798 	-0.000133788 	1.3512242e-08 	0.0024363367 	-4.3710631e-08 	0.00038581718
0.51086957 	0.0025192316 	-4.66732e-05 	2.2379702e-06 	0.00243895 	-9.8656848e-07 	0.0009322539
0.52173913 	0.0025347636 	4.0017286e-05 	3.0299445e-06 	0.0024523189 	-1.3356959e-06 	0.00094486051
0.5326087 	0.0025553411 	0.00012645575 	8.682535e-09 	0.0024702026 	-1.5286605e-08 	0.00072964978
0.54347826 	0.0026005525 	0.00021307029 	1.3837731e-08 	0.0025124131 	-2.4362922e-08 	0.00064436803
0.55434783 	0.0026611546 	0.00030027997 	2.6372282e-06 	0.0025708919 	4.123406e-07 	0.0010411942
0.56521739 	0.0027271521 	0.00038706995 	1.5355228e-06 	0.0026340585 	2.4008478e-07 	0.001051601
0.57608696 	0.0028041143 	0.00047286021 	3.3632961e-08 	0.0027066398 	-2.8868002e-08 	0.00024280516
0.58695652 	0.0028947768 	0.00056075697 	5.1406538e-07 	0.0027961751 	3.253291e-07 	0.0011897061
0.59782609 	0.0029972846 	0.0006474072 	2.6940025e-06 	0.0028962984 	1.7049143e-06 	0.0011986359
0.60869565 	0.003101841 	0.00073372124 	9.1787268e-09 	0.0029980268 	-2.6236283e-09 	0.00092944475
0.61956522 	0.0032196799 	0.00082042962 	1.0976049e-08 	0.0031140329 	-3.137371e-09 	0.000995365
0.63043478 	0.0033463337 	0.00090662846 	2.5578429e-06 	0.0032401399 	2.598569e-06 	0.0013783093
0.64130435 	0.0034743671 	0.00099217948 	4.9612173e-08 	0.0033670876 	5.0402101e-08 	0.0013860387
0.65217391 	0.0036119547 	0.0010763921 	1.1525212e-08 	0.003503298 	-6.4145097e-11 	0.00084474834
0.66304348 	0.0037555998 	0.001160422 	2.0147578e-06 	0.0036486638 	2.700408e-06 	0.0015743958
0.67391304 	0.0038999978 	0.0012429137 	5.5539507e-12 	0.0037936545 	-2.6895438e-10 	0.0015411901
0.68478261 	0.004050338 	0.0013234684 	6.9875981e-11 	0.0039449055 	-3.383802e-09 	0.0012094246
0.69565217 	0.0042030228 	0.0014021133 	1.8048409e-06 	0.0041010213 	2.9480184e-06 	0.0017736733
0.70652174 	0.0043549606 	0.0014782061 	-1.2877322e-08 	0.0042543349 	-1.8465477e-08 	0.001041006
0.7173913 	0.0045105202 	0.0015532852 	2.265266e-07 	0.004415255 	4.3386618e-07 	0.0019603208
0.72826087 	0.0046622815 	0.0016234377 	6.9426098e-07 	0.0045714578 	1.3297174e-06 	0.0019649414
0.73913043 	0.0048115726 	0.0016899778 	-5.1921921e-08 	0.0047228299 	-7.8447739e-08 	0.00043721296
0.75 	0.0049595521 	0.0017545991 	9.2779167e-07 	0.004879903 	2.0510054e-06 	0.0021351799
0.76086957 	0.0051007449 	0.001813878 	-4.4197413e-08 	0.0050255811 	-7.4368728e-08 	0.0011863655
0.77173913 	0.0052372366 	0.0018696314 	2.4623594e-07 	0.0051713049 	6.3647735e-07 	0.0022826168
0.7826087 	0.0053643501 	0.0019198693 	3.3122284e-08 	0.0053059621 	8.5615378e-08 	0.0022855363
0.79347826 	0.0054827357 	0.0019648096 	1.773969e-08 	0.005432788 	6.009246e-08 	0.0024022531
0.80434783 	0.0055873416 	0.0020031238 	7.0768214e-08 	0.0055459141 	2.3972438e-07 	0.002404473
0.81521739 	0.0056820181 	0.0020363823 	-5.9826477e-09 	0.0056495027 	-1.2116266e-08 	0.0023956902
0.82608696 	0.0057594396 	0.0020622077 	-6.9005612e-09 	0.0057360655 	5.4580509e-08 	0.0024931242
0.83695652 	0.0058230748 	0.0020818777 	-4.2577244e-08 	0.0058089189 	-6.063473e-08 	0.0025499257
0.84782609 	0.0058686284 	0.0020943021 	-1.9907145e-08 	0.0058627126 	-4.6332399e-08 	0.0022756393
0.85869565 	0.0058944962 	0.0020990224 	-3.238568e-07 	0.0058976212 	-6.5434094e-07 	0.002578865
0.86956522 	0.0059028738 	0.0020965674 	-1.6350268e-07 	0.0059091907 	-4.042841e-07 	0.0003166427
0.88043478 	0.0058896033 	0.0020878966 	-4.5296967e-07 	0.0059070753 	-1.0486907e-06 	0.0025809701
0.89130435 	0.0058567162 	0.0020719637 	-1.0949394e-07 	0.0058802627 	-2.7889573e-07 	0.0025589929
0.90217391 	0.0058011888 	0.0020485797 	-1.1326866e-07 	0.0058250833 	-3.1613258e-07 	0.00081637497
0.91304348 	0.0057223254 	0.0020207886 	-4.121337e-07 	0.0057508405 	-1.1884998e-06 	0.0025173842
0.92391304 	0.0056219964 	0.0019883074 	-6.4834273e-07 	0.0056498932 	-1.8535282e-06 	0.0024586272
0.93478261 	0.0054971609 	0.0019414721 	-1.6127282e-07 	0.0055235471 	-4.7755123e-07 	0.0023937798
0.94565217 	0.0053358323 	0.0018925767 	-6.12089e-07 	0.0053570651 	-2.134388e-06 	0.0023370892
0.95652174 	0.0051509151 	0.0018423686 	-4.8902362e-08 	0.005162038 	-1.8884642e-07 	0.00061612309
0.9673913 	0.0049160613 	0.0017838275 	-1.4080711e-07 	0.0049229621 	-5.3419872e-07 	0.0021618193
0.97826087 	0.0045651173 	0.0016915367 	-1.3992308e-08 	0.0045643556 	-6.4764225e-08 	0.00054580426
0.98913043 	0.0033917428 	0.0013020401 	-2.7055087e-09 	0.0033804184 	-1.2837874e-08 	0.00032107509
