0 	0.76412659 	-5.1895587e-14 	-1.8862672e-20
0.010869565 	0.76475073 	-0.00049692548 	1.297643e-07
0.02173913 	0.76653614 	-0.00098029928 	4.4949859e-08
0.032608696 	0.76947915 	-0.0014579399 	2.1201612e-08
0.043478261 	0.77355209 	-0.00192442 	1.4348224e-07
0.054347826 	0.77870412 	-0.0023786694 	5.8684518e-07
0.065217391 	0.78532131 	-0.0028438089 	9.8928644e-07
0.076086957 	0.79187243 	-0.0032247397 	9.7324405e-07
0.086956522 	0.79954224 	-0.0036086502 	1.5240046e-07
0.097826087 	0.80818668 	-0.0039727315 	1.1907691e-07
0.10869565 	0.81779383 	-0.0043108847 	2.1852538e-06
0.11956522 	0.82744409 	-0.0046133722 	6.016386e-07
0.13043478 	0.83799375 	-0.0048916687 	7.9919863e-07
0.14130435 	0.84928983 	-0.0051374609 	2.6013435e-06
0.15217391 	0.86024739 	-0.0053573271 	2.1243957e-07
0.16304348 	0.87273103 	-0.0055350025 	3.2475266e-06
0.17391304 	0.88436793 	-0.0056936801 	3.7977218e-07
0.18478261 	0.89748115 	-0.0058032963 	3.0141521e-06
0.19565217 	0.90971932 	-0.0059010247 	2.3416268e-07
0.20652174 	0.92335163 	-0.0059415378 	2.8712723e-06
0.2173913 	0.93588137 	-0.0059800468 	1.6298661e-06
0.22826087 	0.94981786 	-0.0059527232 	2.4853514e-06
0.23913043 	0.96257644 	-0.0059301856 	2.5223484e-07
0.25 	0.97619519 	-0.0058508707 	1.1380367e-06
0.26086957 	0.98938348 	-0.0057588708 	1.0032137e-06
0.27173913 	1.0022589 	-0.0056516353 	7.5641844e-07
0.2826087 	1.0156215 	-0.0054949392 	1.6479752e-06
0.29347826 	1.0277156 	-0.0053575967 	1.6857137e-07
0.30434783 	1.0399854 	-0.0051838192 	2.7412086e-07
0.31521739 	1.051904 	-0.0049978822 	8.708886e-07
0.32608696 	1.0629195 	-0.0048238662 	4.7483352e-06
0.33695652 	1.0736524 	-0.004635176 	2.7828271e-07
0.34782609 	1.0837752 	-0.0044458675 	5.9368198e-07
0.35869565 	1.0930394 	-0.004269161 	5.4544129e-06
0.36956522 	1.101821 	-0.0040897407 	1.1042435e-07
0.38043478 	1.1098521 	-0.0039126188 	6.0455652e-07
0.39130435 	1.1170925 	-0.0037504467 	3.0951414e-06
0.40217391 	1.1236776 	-0.0035888583 	2.6189801e-06
0.41304348 	1.1295924 	-0.0034284441 	5.7358349e-07
0.42391304 	1.1348686 	-0.0032819486 	7.4058393e-08
0.43478261 	1.1392065 	-0.0031375815 	7.8495244e-06
0.44565217 	1.1433041 	-0.0029932891 	9.5929071e-08
0.45652174 	1.1464983 	-0.0028529768 	4.4072677e-07
0.4673913 	1.1492023 	-0.002722795 	2.6334162e-06
0.47826087 	1.1512383 	-0.0025923207 	5.6826288e-06
0.48913043 	1.1530058 	-0.0024620756 	1.5735265e-07
0.5 	1.1540623 	-0.0023342457 	2.8653236e-07
0.51086957 	1.1547092 	-0.0022097527 	3.8715574e-06
0.52173913 	1.154958 	-0.0020857117 	4.4920043e-06
0.5326087 	1.1549131 	-0.0019625026 	1.8160258e-07
0.54347826 	1.1543354 	-0.0018390358 	1.4275001e-07
0.55434783 	1.1533149 	-0.0017146784 	5.2768089e-06
0.56521739 	1.1521383 	-0.0015905758 	2.2342445e-06
0.57608696 	1.1505522 	-0.001468073 	3.1361566e-07
0.58695652 	1.1485919 	-0.0013427627 	1.3973432e-06
0.59782609 	1.1462511 	-0.0012177503 	4.8807977e-06
0.60869565 	1.1438013 	-0.0010932465 	9.5646035e-08
0.61956522 	1.1408895 	-0.00096786492 	4.4751878e-08
0.63043478 	1.1375453 	-0.00084142198 	5.7500086e-06
0.64130435 	1.1341576 	-0.00071513759 	3.4927541e-09
0.65217391 	1.1302589 	-0.00058958848 	7.9084015e-08
0.66304348 	1.125938 	-0.00046240086 	4.9042334e-06
0.67391304 	1.1215374 	-0.00033574074 	6.4991241e-09
0.68478261 	1.1166279 	-0.00021040047 	2.7793401e-08
0.69565217 	1.1112526 	-8.4914731e-05 	4.155364e-06
0.70652174 	1.1057622 	3.8796111e-05 	5.7325647e-08
0.7173913 	1.0996923 	0.00016156322 	1.1494966e-06
0.72826087 	1.0932673 	0.00028213464 	1.8489858e-06
0.73913043 	1.0865734 	0.00039829699 	3.9872107e-08
0.75 	1.0792156 	0.00051260739 	3.2331038e-06
0.76086957 	1.0716993 	0.00062233174 	-7.8386521e-09
0.77173913 	1.0635128 	0.00072576881 	1.3188753e-06
0.7826087 	1.0550216 	0.00082490465 	2.2650573e-07
0.79347826 	1.0459905 	0.00091347775 	4.0234248e-07
0.80434783 	1.0364626 	0.00099512402 	5.1136858e-07
0.81521739 	1.0264943 	0.00106557 	1.4857861e-07
0.82608696 	1.0159297 	0.0011252283 	2.8374045e-07
0.83695652 	1.0048784 	0.0011704391 	1.2378283e-07
0.84782609 	0.99327002 	0.001203864 	-1.1690728e-08
0.85869565 	0.98098347 	0.0012163244 	-1.7898013e-07
0.86956522 	0.96828888 	0.0012149532 	-3.4130957e-07
0.88043478 	0.95458217 	0.0011926322 	-5.5943121e-07
0.89130435 	0.94034235 	0.001152526 	-3.9336811e-07
0.90217391 	0.92523971 	0.0010873564 	-2.8167194e-07
0.91304348 	0.90884903 	0.00099918684 	-9.3414873e-07
0.92391304 	0.89160498 	0.00089992769 	-1.5167357e-06
0.93478261 	0.87269555 	0.0007793944 	-6.2490009e-07
0.94565217 	0.84944132 	0.00062471681 	-1.5675971e-06
0.95652174 	0.82271476 	0.00047067079 	-1.838813e-07
0.9673913 	0.7868145 	0.00030790171 	-3.5604483e-07
0.97826087 	0.73062905 	0.00016082421 	-7.0521465e-08
0.98913043 	0.59645699 	-7.0603214e-05 	-2.0476856e-08
