0.47777778 	0.83658325 	0.00021899989 	-4.3279796e-08
0.48888889 	1.0839064 	2.523106e-05 	-3.4478537e-08
0.5 	1.179792 	5.1741843e-05 	-5.2684828e-08
0.51111111 	1.2395541 	7.7571629e-05 	-4.2352926e-08
0.52222222 	1.2826087 	0.00012174296 	-2.6070892e-07
0.53333333 	1.3162178 	0.00016191603 	5.4033296e-08
0.54444444 	1.3434126 	0.00020831836 	7.9785832e-08
0.55555556 	1.3658646 	0.00025749902 	-8.3130836e-08
0.56666667 	1.3845357 	0.00030743479 	-1.3267051e-07
0.57777778 	1.4000949 	0.00035981559 	-5.027735e-08
0.58888889 	1.4129383 	0.00041225133 	1.6755158e-07
0.6 	1.4233955 	0.00046115607 	6.9026078e-08
0.61111111 	1.4314927 	0.00050159971 	-3.7726217e-07
0.62222222 	1.4375077 	0.00053377855 	-7.8387588e-07
0.63333333 	1.4417625 	0.00056019135 	-9.0377353e-08
0.64444444 	1.4442798 	0.00057688475 	-1.3018808e-08
0.65555556 	1.4453294 	0.00058174323 	-8.399653e-07
0.66666667 	1.4456167 	0.00058652311 	-4.1531745e-09
0.67777778 	1.4447756 	0.00058357661 	-2.9816581e-07
0.68888889 	1.443258 	0.00057763063 	-4.3433417e-07
0.7 	1.4412394 	0.00057100322 	-9.5865549e-09
0.71111111 	1.4383238 	0.00055720327 	-6.309169e-07
0.72222222 	1.4352176 	0.00054674992 	-1.0525356e-07
0.73333333 	1.4312814 	0.00052951039 	-6.3142052e-07
0.74444444 	1.4270614 	0.00051590229 	-1.2974586e-07
0.75555556 	1.4221665 	0.0004964947 	-6.1083726e-07
0.76666667 	1.4167552 	0.00048031321 	-2.067608e-07
0.77777778 	1.4107623 	0.00045863379 	-6.910305e-07
0.78888889 	1.4041755 	0.00044150084 	-1.0058481e-07
0.8 	1.3969488 	0.00041999008 	-3.4229782e-07
0.81111111 	1.3890748 	0.00040026378 	-2.5991466e-07
0.82222222 	1.3804805 	0.00038080106 	-1.2411663e-07
0.83333333 	1.3710988 	0.00035926339 	-3.8908278e-07
0.84444444 	1.3608232 	0.00033977936 	-2.6307315e-07
0.85555556 	1.349576 	0.0003207065 	-8.9861144e-08
0.86666667 	1.3372343 	0.00030034513 	-1.3585547e-08
0.87777778 	1.3236043 	0.00027929623 	-2.2111643e-07
0.88888889 	1.3085276 	0.00025809272 	-3.3942201e-07
0.9 	1.291669 	0.00023648106 	-3.5913939e-07
0.91111111 	1.2726243 	0.00021395467 	-3.2749034e-07
0.92222222 	1.2508189 	0.00019036821 	-2.4694102e-07
0.93333333 	1.2254237 	0.00016460156 	-9.9259487e-08
0.94444444 	1.1950977 	0.00014131828 	-1.6066529e-07
0.95555556 	1.1572871 	0.00010256712 	-1.1866383e-07
0.96666667 	1.1070386 	8.3867296e-05 	-6.8638816e-08
0.97777778 	1.0306008 	4.6145175e-05 	-3.0942584e-08
0.98888889 	0.87165303 	-5.4268246e-07 	-8.0337697e-09
