0.47191011 	0.0075272524 	-0.0029586936 	-1.4614002e-06 	0.0078513941 	4.3965635e-06 	0.0056455792
0.48314607 	0.0084215085 	-0.0032230864 	7.1851426e-08 	0.0087128002 	4.2569431e-07 	0.0023479492
0.49438202 	0.0079836865 	-0.0030134483 	3.2171683e-07 	0.0082051129 	2.7292863e-08 	0.0011381599
0.50561798 	0.0074378835 	-0.002788287 	4.8049013e-07 	0.0075905968 	-2.983464e-07 	0.001185641
0.51685393 	0.0068656509 	-0.0025389589 	1.413036e-07 	0.006965357 	-1.123807e-07 	0.0047506238
0.52808989 	0.0062928949 	-0.0022942929 	1.2262513e-07 	0.006332756 	-1.2003227e-07 	0.0048712836
0.53932584 	0.0057293667 	-0.0020511248 	4.8796577e-07 	0.0057108904 	-5.0594662e-07 	0.0022608211
0.5505618 	0.0051920657 	-0.001813813 	6.8351783e-07 	0.0051220244 	-7.420535e-07 	0.001033317
0.56179775 	0.0046894194 	-0.0015822966 	7.2131728e-07 	0.0045741821 	-8.1575733e-07 	0.00080517741
0.57303371 	0.0042304421 	-0.0013563668 	6.2066964e-07 	0.0040753435 	-7.3660555e-07 	0.0012367879
0.58426966 	0.0038231198 	-0.0011352551 	4.0840889e-07 	0.0036327041 	-5.1933729e-07 	0.0020460583
0.59550562 	0.0034720939 	-0.00091889114 	1.1756784e-07 	0.003249707 	-1.6454455e-07 	0.0030277157
0.60674157 	0.0031911387 	-0.0007067627 	2.1640283e-07 	0.0029310681 	-3.0287116e-07 	0.0023661464
0.61797753 	0.002986401 	-0.00050188505 	6.272393e-07 	0.002680918 	-9.8437906e-07 	0.00070821237
0.62921348 	0.0028457812 	-0.00030796956 	5.3053513e-07 	0.0025009921 	-9.4480763e-07 	0.0010119158
0.64044944 	0.0027556411 	-0.00012276461 	5.0912293e-08 	0.0023777143 	-3.4709381e-08 	0.0027530834
0.65168539 	0.0027548145 	5.8168575e-05 	5.5361436e-07 	0.0023261962 	-1.1253377e-06 	0.00083164287
0.66292135 	0.0027830334 	0.00022904068 	4.1490214e-07 	0.0023170334 	-9.4761201e-07 	0.0012863368
0.6741573 	0.0028484787 	0.00039301804 	2.1662527e-07 	0.0023488428 	-4.9475932e-07 	0.0020231891
0.68539326 	0.0029595136 	0.00055209156 	6.7280954e-07 	0.0024196361 	-1.6777679e-06 	0.00038354585
0.69662921 	0.0030715023 	0.0007023526 	3.2433028e-08 	0.0025140522 	-8.087741e-08 	0.0028498514
0.70786517 	0.0032361495 	0.00084940597 	7.4700277e-07 	0.0026435329 	-1.977305e-06 	7.1974557e-05
0.71910112 	0.0033839016 	0.00098828212 	5.7278437e-09 	0.0027856859 	-1.5736068e-08 	0.0032350702
0.73033708 	0.0035760728 	0.001119641 	7.1901851e-07 	0.0029517542 	-1.9753549e-06 	8.9991987e-05
0.74157303 	0.0037580111 	0.0012527679 	1.355633e-08 	0.0031369139 	-3.806304e-08 	0.0035634
0.75280899 	0.0039661729 	0.0013705194 	6.7294248e-07 	0.0033267428 	-1.8894669e-06 	0.00011553924
0.76404494 	0.0041779418 	0.0014974606 	5.3303698e-08 	0.003549091 	-1.5162311e-07 	0.0036324791
0.7752809 	0.0044026235 	0.0016090334 	5.1353031e-07 	0.0037650629 	-1.4607441e-06 	0.00081047794
0.78651685 	0.0046325298 	0.0017252492 	1.7731725e-07 	0.004007044 	-5.0981614e-07 	0.0029581252
0.79775281 	0.0048703393 	0.0018337621 	2.6641395e-07 	0.0042501914 	-7.6598374e-07 	0.0024547158
0.80898876 	0.0051132539 	0.001938912 	3.7112658e-07 	0.0044993554 	-1.0820728e-06 	0.0012428209
0.82022472 	0.0053617289 	0.0020465891 	3.7858171e-08 	0.0047718619 	1.0383507e-07 	0.0048925196
0.83146067 	0.0056140036 	0.0021443768 	2.6402248e-07 	0.0050304457 	-7.8577408e-07 	0.0021221277
0.84269663 	0.0058690584 	0.0022421715 	3.0380511e-07 	0.0053004288 	-9.2964067e-07 	0.0011556239
0.85393258 	0.006127379 	0.0023410985 	7.5570696e-08 	0.0055877296 	-2.3926315e-07 	0.0042023657
0.86516854 	0.0063867102 	0.0024360611 	1.9398815e-08 	0.0058720026 	-6.1418271e-08 	0.0053134488
0.87640449 	0.00664487 	0.0025264429 	1.2686618e-07 	0.0061496159 	-4.1705543e-07 	0.003310639
0.88764045 	0.0069020504 	0.002615488 	1.7926501e-07 	0.0064303071 	-6.1081861e-07 	0.0017537234
0.8988764 	0.0071571245 	0.00270319 	1.8908888e-07 	0.0067135011 	-6.6134611e-07 	0.00085544576
0.91011236 	0.0074087 	0.0027895939 	1.6697536e-07 	0.0069983434 	-5.8711426e-07 	0.00084536578
0.92134831 	0.0076550301 	0.0028747061 	1.2007241e-07 	0.0072837826 	-4.0960595e-07 	0.0019697902
0.93258427 	0.0078940729 	0.002958596 	5.0162428e-08 	0.0075677648 	-1.5740675e-07 	0.0044919947
0.94382022 	0.0081200219 	0.0030400583 	5.928211e-08 	0.0078440622 	2.4274421e-07 	0.0066166355
0.95505618 	0.0083238377 	0.0031169224 	1.2234818e-07 	0.0080814704 	-1.7707985e-07 	0.0014477186
0.96629213 	0.0084723413 	0.0031635372 	5.8229245e-09 	0.0082972162 	-2.3692785e-09 	0.0065082123
0.97752809 	0.0084835159 	0.0031805475 	3.4414057e-08 	0.0083644727 	5.9509682e-09 	0.0051058267
0.98876404 	0.0076710808 	0.0029165615 	1.008983e-09 	0.0076340604 	-8.0867425e-09 	0.0051615816
