0.26666667 	0.015511725 	-0.0049885381 	0.00013270981
0.27777778 	0.34187674 	-0.11267977 	0.00018481817
0.28888889 	0.51415588 	-0.156501 	6.7855386e-05
0.3 	0.63819074 	-0.18161829 	-1.8689731e-10
0.31111111 	0.73138803 	-0.19327475 	-5.3506618e-05
0.32222222 	0.80961909 	-0.20170595 	-1.03307e-05
0.33333333 	0.87138239 	-0.20447533 	-2.8905585e-06
0.34444444 	0.9222705 	-0.20451953 	1.8272591e-05
0.35555556 	0.96456481 	-0.20258237 	-1.5415656e-05
0.36666667 	0.99989731 	-0.19904006 	-7.4958889e-05
0.37777778 	1.030685 	-0.19470664 	-0.00014648908
0.38888889 	1.0590453 	-0.19140953 	-4.9466949e-05
0.4 	1.0838997 	-0.18738149 	0.00010180739
0.41111111 	1.1054433 	-0.18228384 	-4.2510116e-05
0.42222222 	1.1247637 	-0.17737162 	-4.5821161e-05
0.43333333 	1.1426108 	-0.17295943 	0.00013404348
0.44444444 	1.1582653 	-0.1675552 	-4.4852692e-05
0.45555556 	1.1724494 	-0.16309322 	4.6561301e-05
0.46666667 	1.1854825 	-0.15824435 	2.2520065e-06
0.47777778 	1.1964558 	-0.15327979 	-3.171911e-06
0.48888889 	1.2067156 	-0.14857119 	6.5458731e-05
0.5 	1.2154024 	-0.14368746 	-5.0445632e-06
0.51111111 	1.223338 	-0.13914297 	7.8044253e-05
0.52222222 	1.22987 	-0.1344711 	7.2633919e-06
0.53333333 	1.2357734 	-0.13000559 	4.50404e-05
0.54444444 	1.2402254 	-0.12550708 	7.46654e-05
0.55555556 	1.2443687 	-0.12109323 	-3.1160022e-06
0.56666667 	1.2470565 	-0.11686755 	0.00017309507
0.57777778 	1.2495414 	-0.11236352 	-8.3193196e-06
0.58888889 	1.2509952 	-0.10857308 	0.00013992308
0.6 	1.2519365 	-0.10449365 	3.6369503e-05
0.61111111 	1.2526015 	-0.10059375 	-5.5405035e-07
0.62222222 	1.2522486 	-0.09685561 	0.00019374911
0.63333333 	1.2518478 	-0.093044228 	-5.1489626e-07
0.64444444 	1.2509223 	-0.089541533 	4.9794252e-05
0.65555556 	1.2493757 	-0.0860074 	0.00011309121
0.66666667 	1.2478502 	-0.082422265 	1.3680354e-06
0.67777778 	1.2453851 	-0.07916849 	0.0001086603
0.68888889 	1.2426942 	-0.075776299 	1.3719679e-05
0.7 	1.2397301 	-0.072569623 	1.0450407e-06
0.71111111 	1.2359166 	-0.069343041 	8.243832e-05
0.72222222 	1.2321222 	-0.066129291 	4.0689675e-06
0.73333333 	1.2272643 	-0.063139371 	0.00011489401
0.74444444 	1.2223888 	-0.060026119 	4.9704804e-06
0.75555556 	1.2164871 	-0.057150756 	7.4893834e-05
0.76666667 	1.2103961 	-0.054152534 	4.7306378e-06
0.77777778 	1.2032996 	-0.05135498 	6.2185053e-05
0.78888889 	1.1959665 	-0.048442833 	6.6517056e-06
0.8 	1.1873662 	-0.045725821 	7.0143686e-05
0.81111111 	1.1785792 	-0.042912265 	7.0664661e-06
0.82222222 	1.1682726 	-0.040234246 	2.2949018e-05
0.83333333 	1.1574895 	-0.037567415 	1.4490509e-06
0.84444444 	1.1456251 	-0.034834335 	6.4096861e-06
0.85555556 	1.1321607 	-0.032228214 	3.045303e-05
0.86666667 	1.1177546 	-0.029612429 	2.1974134e-07
0.87777778 	1.1019567 	-0.026925209 	1.0650052e-05
0.88888889 	1.0835395 	-0.024338953 	2.6574313e-06
0.9 	1.0631264 	-0.021736516 	1.5606074e-05
0.91111111 	1.0400933 	-0.019121561 	2.2472569e-05
0.92222222 	1.0136141 	-0.016489542 	8.9087487e-06
0.93333333 	0.98260422 	-0.013851993 	4.7911308e-06
0.94444444 	0.94573141 	-0.01119399 	8.6743587e-06
0.95555556 	0.89985901 	-0.0085193165 	2.3837687e-06
0.96666667 	0.8407027 	-0.0059023171 	2.4885337e-07
0.97777778 	0.75854468 	-0.0034339627 	2.9968214e-06
0.98888889 	0.60522094 	-0.0014057512 	7.1465946e-07
