0.12903226 	0.96104737 	0.63471925 	3.5696713e-06
0.13978495 	0.93719609 	0.52699301 	-0.0025454492
0.15053763 	0.97326928 	0.49266971 	-0.00010821396
0.16129032 	0.99097928 	0.44463471 	-0.00014478236
0.17204301 	1.0105582 	0.41070267 	-0.00026141077
0.1827957 	1.027331 	0.37751045 	-7.0499121e-05
0.19354839 	1.0449625 	0.35060623 	-0.00011839845
0.20430108 	1.0592622 	0.32676487 	-2.6839294e-05
0.21505376 	1.0719178 	0.30509966 	-0.00029089883
0.22580645 	1.0825479 	0.28620417 	-0.00049888929
0.23655914 	1.0914553 	0.26850607 	-0.00010700188
0.24731183 	1.1002034 	0.25160554 	-0.00025273663
0.25806452 	1.1079721 	0.24050434 	-0.00012063815
0.2688172 	1.1136704 	0.22569836 	-0.00019091059
0.27956989 	1.1195156 	0.21450359 	-0.00011283762
0.29032258 	1.1241374 	0.20521027 	-3.3081681e-05
0.30107527 	1.1286241 	0.19297037 	-4.996817e-05
0.31182796 	1.1317389 	0.18633812 	-0.00014321456
0.32258065 	1.1354575 	0.17563625 	1.0143735e-05
0.33333333 	1.1373964 	0.16963049 	-0.00024178145
0.34408602 	1.1402135 	0.16092143 	3.4130918e-05
0.35483871 	1.141436 	0.15521125 	-0.00032397239
0.3655914 	1.1431289 	0.14814565 	2.3567023e-05
0.37634409 	1.1440153 	0.14259142 	-0.00029110738
0.38709677 	1.144744 	0.13671114 	-9.6501663e-05
0.39784946 	1.145313 	0.1313609 	-0.00020735741
0.40860215 	1.1454979 	0.12623537 	-0.0002969987
0.41935484 	1.1455313 	0.1211082 	-4.6232555e-05
0.43010753 	1.1452173 	0.11655677 	-0.00036643551
0.44086022 	1.1449033 	0.11200533 	-4.3836728e-05
0.4516129 	1.1440685 	0.107699 	-0.00010901063
0.46236559 	1.1432819 	0.10373454 	-0.00020027492
0.47311828 	1.1425906 	0.099331556 	3.1818408e-05
0.48387097 	1.141018 	0.096025541 	-0.00011149304
0.49462366 	1.1398072 	0.092572498 	-0.00010309487
0.50537634 	1.1387237 	0.088528259 	5.1154333e-05
0.51612903 	1.1366633 	0.085749702 	-7.3614925e-05
0.52688172 	1.1350591 	0.082735675 	-7.3457245e-05
0.53763441 	1.1336087 	0.079149006 	5.729098e-05
0.5483871 	1.1311933 	0.07661075 	-1.0886555e-05
0.55913978 	1.1292324 	0.073998497 	-8.9528023e-05
0.56989247 	1.1273717 	0.071061107 	3.8620727e-05
0.58064516 	1.1249093 	0.068410623 	2.5298858e-05
0.59139785 	1.1223554 	0.066102857 	-0.00010150483
0.60215054 	1.1200635 	0.063636657 	1.8935351e-05
0.61290323 	1.1175686 	0.061022293 	4.7046522e-05
0.62365591 	1.1143862 	0.058884073 	-5.0445177e-05
0.6344086 	1.1116262 	0.056659227 	1.0867794e-05
0.64516129 	1.1088339 	0.054222192 	4.9267564e-05
0.65591398 	1.1052144 	0.052244355 	-4.1439041e-05
0.66666667 	1.1020637 	0.050164557 	1.571036e-05
0.67741935 	1.0986839 	0.047984719 	3.4443814e-05
0.68817204 	1.0947384 	0.046134863 	-5.575158e-05
0.69892473 	1.0912264 	0.044101183 	3.2078849e-05
0.70967742 	1.0869358 	0.042213483 	5.7603933e-06
0.72043011 	1.0827313 	0.040457085 	-8.2875602e-06
0.7311828 	1.0785912 	0.038473379 	3.4858576e-05
0.74193548 	1.0735714 	0.036813713 	-4.5032356e-05
0.75268817 	1.0689917 	0.034976832 	3.1427411e-05
0.76344086 	1.0633913 	0.033330334 	-2.1032953e-05
0.77419355 	1.0580773 	0.031643476 	1.5624957e-05
0.78494624 	1.0519372 	0.029991516 	-1.0100548e-05
0.79569892 	1.0458265 	0.028392964 	9.3483585e-06
0.80645161 	1.038901 	0.02678058 	-1.1644419e-05
0.8172043 	1.0319137 	0.025218441 	1.1029592e-05
0.82795699 	1.0239234 	0.023679828 	-2.3080082e-05
0.83870968 	1.0159771 	0.022109139 	1.9085569e-05
0.84946237 	1.0066001 	0.020670644 	-2.390371e-05
0.86021505 	0.9969519 	0.019146941 	2.5210896e-06
0.87096774 	0.98649788 	0.017713878 	3.192433e-06
0.88172043 	0.97486082 	0.016247177 	-2.8214227e-05
0.89247312 	0.96242334 	0.014776375 	-1.6328286e-06
0.90322581 	0.94898576 	0.0133318 	7.2127721e-06
0.91397849 	0.93351113 	0.011919739 	-6.6694634e-06
0.92473118 	0.91637178 	0.01046145 	-2.0226902e-05
0.93548387 	0.89737074 	0.0090366959 	-1.8858379e-05
0.94623656 	0.87483473 	0.0075747307 	-1.7095644e-05
0.95698925 	0.8469858 	0.0060345428 	2.5277761e-06
0.96774194 	0.80965694 	0.0045153052 	-6.5021362e-07
0.97849462 	0.75172341 	0.002919317 	-1.6037112e-06
0.98924731 	0.61662698 	0.0011358219 	-5.0771198e-06
