4.0776948e-36 	0.0053256582 	-3.6169159e-16 	-1.3146532e-22 	2.4564251e-29 	8.9284552e-36 	3.2452571e-42
0.010869565 	0.0053386454 	-0.00021906821 	4.1486164e-08 	0.0058840313 	-1.7264206e-05 	0.0022937229
0.02173913 	0.0053895368 	-0.000435381 	1.0410832e-08 	0.005932615 	-1.3676737e-05 	0.0026031391
0.032608696 	0.0054718842 	-0.00064948186 	7.3043275e-09 	0.0060103789 	-3.1124027e-06 	0.0029173459
0.043478261 	0.0055824468 	-0.00085897135 	4.2830072e-08 	0.0061141652 	-6.4752826e-06 	0.0032564242
0.054347826 	0.0057172408 	-0.0010635181 	1.8517843e-07 	0.0062364583 	-4.3841414e-07 	0.0017994467
0.065217391 	0.0058818334 	-0.0012734138 	3.7558292e-07 	0.0063861544 	-8.3623553e-07 	0.00073945653
0.076086957 	0.0060320603 	-0.0014439536 	3.1233738e-07 	0.006525344 	-6.618052e-07 	0.0019214142
0.086956522 	0.006198109 	-0.001618504 	8.2761447e-08 	0.0066804467 	-1.8378439e-06 	0.0046831406
0.097826087 	0.0063698157 	-0.0017845238 	8.7168868e-08 	0.006832701 	-1.7854946e-07 	0.0044883457
0.10869565 	0.0065381871 	-0.0019388899 	7.8362605e-07 	0.0069713537 	-1.5704536e-06 	0.00035067669
0.11956522 	0.0066900417 	-0.0020774891 	1.5765462e-07 	0.0071094473 	-3.1063482e-07 	0.0048257966
0.13043478 	0.0068329915 	-0.0022046083 	3.1241014e-07 	0.0072258371 	-6.155574e-07 	0.0042392988
0.14130435 	0.0069558975 	-0.0023164215 	8.1361162e-07 	0.0073160303 	-1.5756675e-06 	0.0015595565
0.15217391 	0.0070621364 	-0.0024170687 	3.9896699e-09 	0.0074049681 	-7.7265279e-09 	0.0068140312
0.16304348 	0.0071353226 	-0.0024961856 	1.1106737e-06 	0.0074343323 	-2.1052319e-06 	0.00035964567
0.17391304 	0.0071949993 	-0.0025681607 	5.7414374e-08 	0.0074774029 	-1.0570082e-07 	0.0070184257
0.18478261 	0.0072082927 	-0.0026134313 	1.054018e-06 	0.0074459813 	-1.9404647e-06 	0.00094429721
0.19565217 	0.0072148317 	-0.002655696 	5.4868631e-08 	0.007433318 	-9.7022442e-08 	0.0069257985
0.20652174 	0.0071623309 	-0.0026658883 	9.8398758e-07 	0.0073353688 	-1.7399537e-06 	0.00049636163
0.2173913 	0.0071131168 	-0.0026783887 	3.0669933e-07 	0.0072677431 	-1.037287e-06 	0.0067420123
0.22826087 	0.0069937115 	-0.0026533054 	7.4724804e-07 	0.0071059402 	-1.2494859e-06 	0.00091617983
0.23913043 	0.0068804292 	-0.002631731 	1.4185786e-07 	0.0069717483 	-2.372029e-07 	0.0050727242
0.25 	0.0067123003 	-0.002580095 	3.1188537e-07 	0.0067723001 	-4.82478e-07 	0.0030381098
0.26086957 	0.0065273647 	-0.0025190657 	3.2834621e-07 	0.0065607558 	-5.0794246e-07 	0.0025322653
0.27173913 	0.006332368 	-0.0024516612 	3.2482869e-07 	0.0063474481 	-8.9646397e-07 	0.005218822
0.2826087 	0.0060804224 	-0.0023505102 	3.6552568e-07 	0.0060660094 	-5.0707273e-07 	0.00022482575
0.29347826 	0.0058511167 	-0.002261511 	3.2847266e-08 	0.0058256224 	-4.5567121e-08 	0.0040494549
0.30434783 	0.0055872984 	-0.0021484539 	3.746428e-08 	0.0055462781 	-4.5149947e-08 	0.0033457494
0.31521739 	0.0053077354 	-0.0020233109 	1.2545193e-07 	0.0052506703 	-1.5118796e-07 	0.00080039476
0.32608696 	0.0050469637 	-0.0019072205 	1.6064718e-06 	0.0049851969 	-3.7291192e-06 	0.0035590178
0.33695652 	0.004773371 	-0.001775563 	5.0955909e-09 	0.0047036319 	-1.0529266e-08 	0.0024182103
0.34782609 	0.0045019797 	-0.0016407407 	1.160152e-08 	0.0044256299 	-2.3972784e-08 	0.00082659223
0.35869565 	0.0042510873 	-0.0015152296 	2.0592541e-06 	0.0041755033 	-4.3772509e-06 	0.0027774662
0.36956522 	0.0040099906 	-0.0013856857 	-6.1466929e-09 	0.0039326402 	-6.5257786e-09 	0.0022477787
0.38043478 	0.0037812975 	-0.0012556754 	-2.9046199e-08 	0.0037011847 	-3.0837569e-08 	0.00036378298
0.39130435 	0.0035726742 	-0.0011369982 	7.8204232e-07 	0.0034965923 	-1.4868901e-06 	0.0021548292
0.40217391 	0.0033879789 	-0.0010203439 	1.0835029e-06 	0.0033129274 	-2.0600546e-06 	0.0021131097
0.41304348 	0.0032237819 	-0.00090528766 	-1.708615e-08 	0.0031468806 	-9.2892886e-08 	0.00039264904
0.42391304 	0.0030752061 	-0.00079952015 	-4.963345e-09 	0.0030012999 	-2.6984397e-08 	0.0013083494
0.43478261 	0.0029534544 	-0.00069832152 	3.762958e-06 	0.0028809774 	-5.9486909e-06 	0.0016912096
0.44565217 	0.0028468172 	-0.0005985684 	2.7680155e-09 	0.0027739884 	-3.7727358e-08 	0.0013016316
0.45652174 	0.002765584 	-0.00050272647 	1.0073002e-08 	0.0026906984 	-1.3729249e-07 	0.00028954062
0.4673913 	0.0026938505 	-0.00041403315 	5.9039145e-07 	0.0026208277 	-6.5645694e-07 	0.0014454481
0.47826087 	0.0026492983 	-0.00032667437 	2.462369e-06 	0.002575113 	-2.7379109e-06 	0.001424704
0.48913043 	0.0026163231 	-0.00023964142 	1.476903e-08 	0.0025396963 	-6.3354088e-08 	0.00089709541
0.5 	0.002602798 	-0.00015406364 	2.6493672e-08 	0.0025233678 	-1.1364879e-07 	0.00046470102
0.51086957 	0.0025977451 	-7.0455991e-05 	1.2630848e-06 	0.0025177715 	-6.7203369e-07 	0.0013371747
0.52173913 	0.002609829 	1.2546005e-05 	1.8560498e-06 	0.0025272255 	-9.8752513e-07 	0.0013214759
0.5326087 	0.0026340942 	9.5354149e-05 	2.7777336e-08 	0.0025474397 	-6.4300272e-08 	0.00069003193
0.54347826 	0.0026729588 	0.00017939502 	2.7109303e-08 	0.0025831332 	-6.2753879e-08 	0.00072702504
0.55434783 	0.0027230947 	0.00026442061 	2.0731579e-06 	0.0026310397 	6.5010984e-08 	0.0013469431
0.56521739 	0.0027811546 	0.00034905133 	7.902801e-07 	0.0026856225 	2.4781947e-08 	0.0013343391
0.57608696 	0.002854397 	0.0004332141 	5.8763626e-08 	0.0027531868 	-7.1201324e-08 	0.0001826339
0.58695652 	0.0029356628 	0.00052050458 	1.9357488e-07 	0.0028331462 	9.5829127e-08 	0.0014407743
0.59782609 	0.0030300281 	0.00060732363 	2.2001026e-06 	0.0029241239 	1.0891594e-06 	0.0014302808
0.60869565 	0.0031290749 	0.00069386458 	2.6920448e-08 	0.0030188833 	-1.2510484e-08 	0.00086722306
0.61956522 	0.0032406907 	0.0007821624 	2.1759427e-08 	0.0031278834 	-1.0112051e-08 	0.0010783945
0.63043478 	0.0033616296 	0.00087130991 	2.528295e-06 	0.0032471598 	2.2152951e-06 	0.0015695104
0.64130435 	0.0034858691 	0.00095981125 	8.1773735e-09 	0.0033686364 	6.5955514e-10 	0.00134576
0.65217391 	0.0036217437 	0.0010484332 	2.7418324e-08 	0.0035020929 	2.2114554e-09 	0.00093379436
0.66304348 	0.0037652926 	0.0011384032 	2.1405433e-06 	0.003646014 	2.5752084e-06 	0.0017357773
0.67391304 	0.0039113137 	0.0012269967 	6.021581e-09 	0.0037907602 	3.132057e-09 	0.0014546402
0.68478261 	0.0040659645 	0.0013148926 	1.2090757e-08 	0.0039453298 	6.28887e-09 	0.0013088067
0.69565217 	0.0042263386 	0.0014027009 	1.9016605e-06 	0.0041077812 	2.8568529e-06 	0.0019167995
0.70652174 	0.0043874956 	0.0014878264 	3.1371902e-09 	0.0042686136 	3.845285e-09 	0.00095079418
0.7173913 	0.0045552 	0.0015730773 	2.6300672e-07 	0.0044409653 	4.72003e-07 	0.0021067039
0.72826087 	0.0047235912 	0.0016550933 	7.1512478e-07 	0.0046126959 	1.2833932e-06 	0.0021017646
0.73913043 	0.0048903719 	0.0017327075 	-2.5077789e-08 	0.0047807608 	-2.4935421e-08 	0.00055597039
0.75 	0.0050602592 	0.0018099885 	1.2506358e-06 	0.0049591736 	2.6279734e-06 	0.0022844262
0.76086957 	0.0052248987 	0.0018817331 	-3.9603083e-08 	0.0051274788 	-5.138165e-08 	0.0011018405
0.77173913 	0.0053872261 	0.0019502031 	3.7627495e-07 	0.0052994608 	9.2811937e-07 	0.0024498426
0.7826087 	0.0055438288 	0.0020139976 	-2.6605096e-09 	0.0054637188 	-4.0933612e-09 	0.0023927723
0.79347826 	0.0056900651 	0.0020706918 	3.760122e-08 	0.0056191589 	1.1476177e-07 	0.0025906933
0.80434783 	0.0058270997 	0.002121883 	1.0376848e-07 	0.0057657686 	3.1670925e-07 	0.0025884638
0.81521739 	0.0059505796 	0.0021657771 	-4.9446888e-09 	0.0058995646 	-8.6435805e-09 	0.0026184396
0.82608696 	0.0060597056 	0.0022024834 	2.7312412e-08 	0.0060197427 	1.4613642e-07 	0.0026999691
0.83695652 	0.0061499371 	0.0022304428 	-2.6184596e-08 	0.0061213916 	1.8472787e-08 	0.0027793597
0.84782609 	0.0062220447 	0.0022501931 	-3.8725023e-08 	0.0062040916 	-8.1379121e-08 	0.00228908
0.85869565 	0.0062688369 	0.0022596993 	-3.0724696e-07 	0.0062633539 	-4.2845764e-07 	0.0028229693
0.86956522 	0.0062942428 	0.00225973 	-2.1468761e-07 	0.0062946556 	-4.8493428e-07 	0.00023640898
0.88043478 	0.0062921669 	0.002250834 	-4.53308e-07 	0.0063080055 	-8.6922708e-07 	0.0028334074
0.89130435 	0.0062634449 	0.002231666 	-1.3126344e-07 	0.0062888389 	-2.91676e-07 	0.0028132003
0.90217391 	0.0062038616 	0.0022011299 	-1.6426093e-07 	0.0062325512 	-4.2339249e-07 	0.00078461492
0.91304348 	0.0061121052 	0.002162675 	-4.6891761e-07 	0.0061491026 	-1.1927531e-06 	0.0027649225
0.92391304 	0.0059902273 	0.0021164282 	-8.2875202e-07 	0.0060288981 	-2.16326e-06 	0.0026925671
0.93478261 	0.0058340464 	0.0020526204 	-2.1551832e-07 	0.0058725643 	-5.9049112e-07 	0.0026099723
0.94565217 	0.0056268236 	0.0019817649 	-7.9529964e-07 	0.0056601978 	-2.5163166e-06 	0.0025361772
0.95652174 	0.0053859151 	0.0019080752 	-7.9794566e-08 	0.0054071551 	-2.8931449e-07 	0.00057268816
0.9673913 	0.0050803891 	0.0018249395 	-1.5105455e-07 	0.0050946539 	-5.5410119e-07 	0.0023048116
0.97826087 	0.0046490968 	0.0017102637 	-2.2911936e-08 	0.0046516653 	-1.0636981e-07 	0.0005071813
0.98913043 	0.0034023412 	0.0013032995 	-3.287675e-09 	0.0033914967 	-1.830318e-08 	0.00035609951
