1.4270237e-19 	0.0052347449 	-3.5551855e-16 	-1.292211e-22 	6.3424431e-19 	4.9638324e-33 	6.414549e-19
0.010869565 	0.005245621 	-0.00020302539 	1.8435605e-08 	0.0057649045 	-8.337515e-06 	0.0033898826
0.02173913 	0.005290467 	-0.00040567651 	5.9531056e-09 	0.0058066052 	-9.9782262e-06 	0.0031468419
0.032608696 	0.0053636798 	-0.00060646247 	6.7148744e-09 	0.0058745488 	-3.2411287e-06 	0.0029186787
0.043478261 	0.0054618668 	-0.00080255148 	4.5525852e-08 	0.0059654544 	-7.5334141e-06 	0.0027138337
0.054347826 	0.0055818048 	-0.00099422007 	5.9409435e-08 	0.0060748644 	-1.5012942e-07 	0.0018927073
0.065217391 	0.0057288371 	-0.0011914136 	1.8836298e-07 	0.0062076385 	-4.431279e-07 	0.00061508155
0.076086957 	0.0058641086 	-0.0013520042 	1.4868467e-08 	0.006333322 	-3.2927433e-08 	0.0019732457
0.086956522 	0.0060169327 	-0.0015170047 	3.9505744e-07 	0.0064705859 	-9.4296248e-06 	0.0019070742
0.097826087 	0.0061704683 	-0.0016728533 	4.9693908e-07 	0.006606462 	-7.6433475e-06 	0.0017205307
0.10869565 	0.0063232668 	-0.0018201482 	1.9246804e-07 	0.0067371181 	-3.9656748e-07 	0.00020951894
0.11956522 	0.0064632403 	-0.0019509411 	7.6880159e-07 	0.0068578586 	-8.1207928e-06 	0.0012928196
0.13043478 	0.0065933123 	-0.0020718664 	9.906097e-07 	0.006964655 	-7.6240046e-06 	0.0010939334
0.14130435 	0.0067110602 	-0.0021819034 	2.2645695e-07 	0.0070574902 	-1.742875e-06 	0.00086743158
0.15217391 	0.006802393 	-0.0022732685 	2.5753677e-06 	0.0071221183 	-1.526991e-05 	0.000665623
0.16304348 	0.0068855198 	-0.0023591147 	3.9731999e-08 	0.0071774207 	-7.6883371e-08 	0.00020854157
0.17391304 	0.0069271937 	-0.0024200283 	3.2410917e-06 	0.007190636 	-1.5563234e-05 	0.00024899387
0.18478261 	0.0069624494 	-0.0024773587 	5.3189554e-07 	0.0071968042 	-2.1569533e-06 	4.5579867e-05
0.19565217 	0.0069520585 	-0.0025094334 	4.1512007e-06 	0.0071573479 	-1.6834031e-05 	0.00017367654
0.20652174 	0.0069389337 	-0.0025400573 	3.2898201e-10 	0.0071152224 	-5.9217295e-10 	0.00035643515
0.2173913 	0.0068694261 	-0.0025406216 	5.6549938e-06 	0.0070173374 	-2.0007635e-05 	0.00053163897
0.22826087 	0.0067999078 	-0.0025411801 	2.5869928e-07 	0.0069194376 	-9.1529024e-07 	0.00070472129
0.23913043 	0.0066773079 	-0.0025133959 	4.7297808e-06 	0.0067701406 	-1.4940678e-05 	0.00082999255
0.25 	0.0065451166 	-0.0024803877 	2.1643168e-06 	0.0066118693 	-6.8367567e-06 	0.00098086578
0.26086957 	0.0063833542 	-0.0024309723 	2.0269232e-06 	0.0064256308 	-5.799443e-06 	0.001049534
0.27173913 	0.0061916912 	-0.002364289 	5.6627887e-06 	0.0062122015 	-1.62024e-05 	0.0011759619
0.2826087 	0.005991904 	-0.0022929374 	8.483413e-08 	0.0059891346 	-1.2254677e-07 	0.00032988012
0.29347826 	0.0057615695 	-0.0022013624 	5.1345953e-06 	0.0057437813 	-1.3405158e-05 	0.0012762908
0.30434783 	0.0055238175 	-0.0021045164 	3.4447946e-06 	0.0054904731 	-8.9935065e-06 	0.0013773206
0.31521739 	0.0052726722 	-0.0019981771 	3.3280614e-08 	0.0052242989 	-4.2166137e-08 	0.00072776105
0.32608696 	0.0050168377 	-0.0018822368 	6.6954331e-06 	0.0049605625 	-1.59769e-05 	0.0013570128
0.33695652 	0.0047591583 	-0.0017642397 	2.2514393e-06 	0.0046944341 	-5.372471e-06 	0.0014335511
0.34782609 	0.0044971043 	-0.0016387809 	1.0566376e-08 	0.0044252347 	-1.3134141e-08 	0.0007724847
0.35869565 	0.0042543489 	-0.0015149464 	6.1490472e-06 	0.004180557 	-1.3343714e-05 	0.0013180145
0.36956522 	0.0040130344 	-0.0013901887 	2.4126963e-06 	0.0039367881 	-5.2356615e-06 	0.0013730725
0.38043478 	0.003779607 	-0.0012629938 	-4.4178739e-09 	0.003700585 	-1.404924e-08 	0.00032260641
0.39130435 	0.003579493 	-0.0011454245 	3.7563197e-06 	0.0035024343 	-7.2309273e-06 	0.001214729
0.40217391 	0.0033894396 	-0.0010283039 	3.717844e-06 	0.003312975 	-7.1568614e-06 	0.0012529664
0.41304348 	0.0032099975 	-0.00091161888 	-5.9722485e-09 	0.0031328385 	-3.7699627e-08 	0.00043187877
0.42391304 	0.0030604272 	-0.00080466508 	5.3656616e-07 	0.0029856607 	-8.498717e-07 	0.0011134174
0.43478261 	0.0029413784 	-0.00070217227 	5.574374e-06 	0.0028672197 	-8.8292983e-06 	0.001139911
0.44565217 	0.0028223297 	-0.00059967947 	4.7727288e-07 	0.0027487787 	-7.5595658e-07 	0.0011664046
0.45652174 	0.0027356057 	-0.00050184449 	6.3478337e-09 	0.002660372 	-8.0466989e-08 	0.00026234804
0.4673913 	0.0026696908 	-0.00041190853 	1.6809695e-06 	0.002595595 	-1.836076e-06 	0.0010842812
0.47826087 	0.0026230168 	-0.00032257161 	3.4910164e-06 	0.0025480253 	-3.8131395e-06 	0.0011032921
0.48913043 	0.002581489 	-0.00023349151 	5.7947264e-09 	0.002505058 	-2.3674727e-08 	0.00091038039
0.5 	0.0025683964 	-0.00014670458 	1.8920458e-08 	0.0024892005 	-7.7300747e-08 	0.00043792178
0.51086957 	0.0025677822 	-6.1926066e-05 	1.7956321e-06 	0.0024877525 	-8.8299989e-07 	0.0011287264
0.52173913 	0.0025810708 	2.2551011e-05 	2.3781686e-06 	0.0024986413 	-1.1694615e-06 	0.001143288
0.5326087 	0.0026035027 	0.00010665791 	1.968404e-08 	0.0025176038 	-4.2466378e-08 	0.00070364303
0.54347826 	0.0026443799 	0.00019146982 	2.2049045e-08 	0.0025553371 	-4.7568644e-08 	0.00069901153
0.55434783 	0.002698291 	0.00027734819 	2.2518615e-06 	0.0026070397 	1.8897856e-07 	0.001248292
0.56521739 	0.0027594909 	0.00036292124 	9.8980142e-07 	0.0026650038 	8.3065163e-08 	0.0012602007
0.57608696 	0.00283439 	0.00044767151 	5.2626221e-08 	0.0027345737 	-5.7484183e-08 	0.00020293938
0.58695652 	0.0029183073 	0.00053532294 	1.8982094e-07 	0.0028172636 	1.0482835e-07 	0.0014129953
0.59782609 	0.0030161823 	0.00062232972 	2.2424883e-06 	0.0029120979 	1.2384111e-06 	0.0014231174
0.60869565 	0.0031182477 	0.00070894345 	2.4448614e-08 	0.0030102183 	-9.4160513e-09 	0.0008877921
0.61956522 	0.0032321009 	0.00079698438 	2.2665004e-08 	0.0031216313 	-8.7291184e-09 	0.0010505047
0.63043478 	0.0033552314 	0.00088551498 	2.3543139e-06 	0.0032436441 	2.1998423e-06 	0.0016267983
0.64130435 	0.0034821079 	0.00097308692 	8.5987768e-09 	0.0033681628 	1.02359e-09 	0.0013707607
0.65217391 	0.0036191141 	0.0010606367 	2.7236533e-08 	0.0035030106 	3.2422104e-09 	0.00090434904
0.66304348 	0.0037631702 	0.0011490528 	1.889451e-06 	0.0036481704 	2.3834348e-06 	0.0018548715
0.67391304 	0.0039098275 	0.0012353939 	5.8246969e-09 	0.0037939767 	2.8179745e-09 	0.0014837889
0.68478261 	0.0040638957 	0.0013213165 	1.1161e-08 	0.0039482636 	5.399665e-09 	0.0012766472
0.69565217 	0.004222329 	0.0014063774 	1.6732965e-06 	0.0041096604 	2.6111463e-06 	0.0020931849
0.70652174 	0.0043811378 	0.0014880598 	-3.8505253e-09 	0.0042684503 	-4.4071548e-09 	0.00098163328
0.7173913 	0.0045461498 	0.0015708326 	7.3572987e-08 	0.0044387955 	1.3625813e-07 	0.0023234849
0.72826087 	0.0047089283 	0.0016482873 	5.3533196e-07 	0.0046054485 	9.914418e-07 	0.0023287221
0.73913043 	0.0048703789 	0.0017218143 	-4.049919e-08 	0.0047680819 	-4.8526203e-08 	0.00051694115
0.75 	0.0050336955 	0.001795165 	9.7779332e-07 	0.0049407429 	2.1108443e-06 	0.0025453308
0.76086957 	0.0051896156 	0.0018616186 	-5.4311688e-08 	0.0051002037 	-7.7594496e-08 	0.0011323764
0.77173913 	0.0053447746 	0.0019264892 	2.2313355e-07 	0.0052655686 	5.6545042e-07 	0.0027388633
0.7826087 	0.0054891785 	0.0019841242 	-1.7204117e-08 	0.0054171915 	-2.8265309e-08 	0.0024137845
0.79347826 	0.0056273208 	0.0020372558 	-8.4088871e-09 	0.0055646534 	-1.3815285e-08 	0.0027314935
0.80434783 	0.0057516311 	0.0020832023 	3.8755642e-08 	0.0056985511 	1.2409127e-07 	0.0029037655
0.81521739 	0.005864612 	0.0021227445 	-2.920501e-08 	0.0058208037 	-5.3628352e-08 	0.0025491676
0.82608696 	0.005961539 	0.0021552381 	4.3348807e-09 	0.0059288623 	3.5615331e-08 	0.0030288204
0.83695652 	0.0060426538 	0.0021801103 	-4.6999748e-09 	0.0060208026 	-2.4595652e-09 	0.0031134443
0.84782609 	0.0061018059 	0.0021956746 	-6.3909739e-08 	0.0060888539 	-1.3879307e-07 	0.0022910324
0.85869565 	0.0061416735 	0.0022036395 	-2.5765669e-07 	0.006140899 	-4.315338e-07 	0.0031607397
0.86956522 	0.0061581231 	0.0022015027 	-2.3196783e-07 	0.0061613626 	-5.3922661e-07 	0.00026488682
0.88043478 	0.0061516061 	0.0021926174 	-3.6729874e-07 	0.006169525 	-7.6405282e-07 	0.0031709186
0.89130435 	0.0061199574 	0.0021739088 	-7.7060556e-09 	0.0061462624 	-1.8101958e-08 	0.0031468076
0.90217391 	0.0060594299 	0.0021451037 	-1.7875438e-07 	0.0060868446 	-4.723179e-07 	0.00079763826
0.91304348 	0.0059719989 	0.0021104413 	-3.2372546e-07 	0.0060071149 	-8.648242e-07 	0.0030937258
0.92391304 	0.0058560387 	0.0020688652 	-6.186776e-07 	0.0058918186 	-1.6745074e-06 	0.003014934
0.93478261 	0.0057093598 	0.0020101916 	-7.7884754e-08 	0.0057443326 	-2.2023317e-07 	0.0029260277
0.94565217 	0.005518826 	0.0019479388 	-6.2742212e-07 	0.0055484136 	-2.0632699e-06 	0.0028471496
0.95652174 	0.0052978538 	0.0018829071 	-8.2541536e-08 	0.0053152031 	-3.056753e-07 	0.00058812439
0.9673913 	0.0050184614 	0.0018093274 	-6.8622135e-08 	0.0050304959 	-2.5580394e-07 	0.0026011228
0.97826087 	0.0046168232 	0.0017030518 	-2.3548851e-08 	0.0046180545 	-1.0968985e-07 	0.00052026339
0.98913043 	0.0033981685 	0.0013028098 	-3.6111739e-09 	0.0033871305 	-1.9408925e-08 	0.00034441159
