8.2204959e-36 	0.71444052 	-4.8521176e-14 	-1.7636158e-20
0.010869565 	0.71522353 	-0.00060410435 	1.8308311e-07
0.02173913 	0.71745828 	-0.0011907309 	5.9692414e-08
0.032608696 	0.72112868 	-0.0017693578 	2.7033777e-08
0.043478261 	0.72619758 	-0.0023329127 	2.3203138e-07
0.054347826 	0.73257889 	-0.0028805251 	8.8374573e-07
0.065217391 	0.74070693 	-0.0034355198 	1.2196371e-06
0.076086957 	0.74881045 	-0.0038917025 	1.4369192e-06
0.086956522 	0.75820419 	-0.0043449239 	1.4012653e-07
0.097826087 	0.76874191 	-0.0047722565 	3.1745682e-08
0.10869565 	0.78042121 	-0.0051652976 	2.8690195e-06
0.11956522 	0.79218434 	-0.0055124739 	1.0294289e-06
0.13043478 	0.80488641 	-0.0058274596 	9.3691583e-07
0.14130435 	0.81856259 	-0.0060999289 	3.8644912e-06
0.15217391 	0.83171539 	-0.0063377178 	5.8783088e-07
0.16304348 	0.84666402 	-0.006520852 	4.3642168e-06
0.17391304 	0.86067206 	-0.0066778355 	7.4727103e-07
0.18478261 	0.87621469 	-0.0067742877 	3.8567195e-06
0.19565217 	0.89084943 	-0.006851835 	4.0205519e-07
0.20652174 	0.90687074 	-0.0068611039 	3.6139368e-06
0.2173913 	0.921716 	-0.0068636812 	1.928695e-06
0.22826087 	0.93797042 	-0.0067902531 	3.3879823e-06
0.23913043 	0.95276147 	-0.0067230093 	4.9578043e-08
0.25 	0.96846049 	-0.0065890562 	1.5536985e-06
0.26086957 	0.98345214 	-0.0064463686 	1.1042714e-06
0.27173913 	0.99805877 	-0.0062867414 	1.0591743e-06
0.2826087 	1.0128287 	-0.0060871951 	2.1405697e-06
0.29347826 	1.0262403 	-0.0059041396 	2.1746838e-06
0.30434783 	1.0395485 	-0.0056994483 	3.9966545e-07
0.31521739 	1.0522617 	-0.0054894176 	1.1876958e-06
0.32608696 	1.0639522 	-0.005291387 	7.2143318e-06
0.33695652 	1.0752198 	-0.0050893799 	4.470448e-07
0.34782609 	1.0856749 	-0.004892216 	8.7242195e-07
0.35869565 	1.0951576 	-0.0047068032 	7.7368498e-06
0.36956522 	1.1042016 	-0.0045223795 	1.3669724e-07
0.38043478 	1.1123433 	-0.0043439948 	9.7242145e-07
0.39130435 	1.1195919 	-0.0041774196 	5.0905328e-06
0.40217391 	1.1262935 	-0.0040119118 	3.4995526e-06
0.41304348 	1.1323692 	-0.0038483108 	1.0465111e-06
0.42391304 	1.137677 	-0.0036967419 	5.1743299e-07
0.43478261 	1.142029 	-0.0035457401 	9.2395336e-06
0.44565217 	1.1463193 	-0.0033948024 	8.5360503e-08
0.45652174 	1.1496285 	-0.0032479502 	6.7750251e-07
0.4673913 	1.1523032 	-0.003108693 	4.4816009e-06
0.47826087 	1.1544732 	-0.0029690798 	7.0552008e-06
0.48913043 	1.1564704 	-0.0028297846 	2.0501322e-07
0.5 	1.1576689 	-0.0026927541 	3.8513618e-07
0.51086957 	1.1583277 	-0.0025579122 	5.7317204e-06
0.52173913 	1.1587214 	-0.0024236076 	5.7726113e-06
0.5326087 	1.1589071 	-0.0022903936 	2.6014346e-07
0.54347826 	1.1584776 	-0.0021566996 	1.1451205e-07
0.55434783 	1.1575133 	-0.0020219167 	7.1188897e-06
0.56521739 	1.1564871 	-0.0018873542 	3.2076126e-06
0.57608696 	1.1551134 	-0.0017554873 	5.4209568e-07
0.58695652 	1.153231 	-0.0016193852 	2.6736838e-06
0.59782609 	1.1510405 	-0.0014840459 	6.0600699e-06
0.60869565 	1.1487897 	-0.0013492484 	1.0951864e-07
0.61956522 	1.1460023 	-0.0012138392 	3.4007024e-07
0.63043478 	1.1427608 	-0.0010768529 	7.1479873e-06
0.64130435 	1.1395193 	-0.00093986658 	5.5654942e-07
0.65217391 	1.1357867 	-0.00080345313 	4.7883068e-08
0.66304348 	1.131534 	-0.00066462872 	6.3754959e-06
0.67391304 	1.1272605 	-0.00052594361 	4.408536e-07
0.68478261 	1.1224545 	-0.00038781025 	3.1274501e-07
0.69565217 	1.1171264 	-0.00024828353 	5.2275675e-06
0.70652174 	1.1117375 	-0.00010978582 	1.0660212e-07
0.7173913 	1.1056497 	2.8975529e-05 	2.0620695e-06
0.72826087 	1.0992315 	0.00016726426 	2.6236535e-06
0.73913043 	1.0925368 	0.00030244197 	1.2451516e-07
0.75 	1.0850636 	0.00043749131 	4.5605635e-06
0.76086957 	1.0774734 	0.00056963666 	5.6063015e-08
0.77173913 	1.0690704 	0.00069665389 	2.2219092e-06
0.7826087 	1.0603693 	0.00082123596 	6.4037959e-07
0.79347826 	1.0510298 	0.00093663633 	9.7333399e-07
0.80434783 	1.0411463 	0.001046762 	9.9825412e-07
0.81521739 	1.0307274 	0.0011460842 	5.3218476e-07
0.82608696 	1.0196417 	0.001235847 	6.6655441e-07
0.83695652 	1.0079598 	0.0013105552 	4.7824748e-07
0.84782609 	0.99565403 	0.0013739558 	9.3858922e-08
0.85869565 	0.98252629 	0.0014134576 	2.5131197e-07
0.86956522 	0.96895055 	0.0014386549 	-2.5344005e-07
0.88043478 	0.9541947 	0.0014375965 	-3.6504014e-07
0.89130435 	0.93884876 	0.0014144424 	-5.2893556e-07
0.90217391 	0.92259604 	0.0013622333 	-2.3421397e-07
0.91304348 	0.90495444 	0.0012771777 	-1.159367e-06
0.92391304 	0.88657204 	0.0011725731 	-2.0039334e-06
0.93478261 	0.8665278 	0.0010375123 	-1.0469273e-06
0.94565217 	0.8421305 	0.00085463678 	-2.1351253e-06
0.95652174 	0.81465925 	0.00066082979 	-1.9868576e-07
0.9673913 	0.77851299 	0.00044681077 	-6.5362848e-07
0.97826087 	0.72317187 	0.00024015544 	-8.3994892e-08
0.98913043 	0.59152899 	-4.5805734e-05 	-2.2604885e-08
