0 	0.0059543966 	-4.043923e-16 	-1.469859e-22 	2.7464266e-29 	9.9825338e-36 	3.6283868e-42
0.010869565 	0.0059987263 	-0.00041021307 	2.1029777e-08 	0.0072698733 	-4.8179249e-06 	0.0061035436
0.02173913 	0.0061597021 	-0.00081556682 	9.6187894e-09 	0.0074254347 	-3.633107e-06 	0.0056757047
0.032608696 	0.006416522 	-0.0012132561 	2.1556169e-07 	0.0076701824 	-1.1122288e-06 	0.0033064227
0.043478261 	0.0067428165 	-0.0015913731 	1.3271216e-07 	0.0079806678 	-7.3688431e-06 	0.0049798429
0.054347826 	0.007128132 	-0.0019575215 	6.112438e-07 	0.0083376257 	-2.309052e-06 	0.00052273105
0.065217391 	0.0075541267 	-0.0023086137 	3.2628449e-07 	0.0087289772 	-1.1457419e-06 	0.0022831791
0.076086957 	0.0079362058 	-0.0025956096 	4.6338921e-07 	0.0090669058 	-1.5381153e-06 	0.0010959965
0.086956522 	0.0083152258 	-0.002866491 	6.4912709e-07 	0.009394684 	-5.8836569e-06 	0.003461387
0.097826087 	0.0086577805 	-0.0031039066 	2.2860091e-06 	0.0096741357 	-1.452087e-05 	0.0030474536
0.10869565 	0.0089576124 	-0.0033102892 	5.996256e-08 	0.0099031547 	-1.8954428e-07 	0.0021883381
0.11956522 	0.0091757046 	-0.0034662891 	1.4682583e-06 	0.010042141 	-7.1159804e-06 	0.0020277353
0.13043478 	0.0093196743 	-0.0035806301 	4.9688351e-06 	0.01010348 	-1.9616997e-05 	0.0015242529
0.14130435 	0.0094116531 	-0.0036659783 	8.9148454e-08 	0.010108562 	-2.9504595e-07 	0.00021967586
0.15217391 	0.0093803635 	-0.0036844788 	7.6877986e-06 	0.0099938962 	-2.5927175e-05 	0.00050211214
0.16304348 	0.0093141154 	-0.0036836471 	2.8063375e-06 	0.0098446585 	-8.3675726e-06 	1.9833492e-05
0.17391304 	0.0091516006 	-0.0036297704 	7.7491132e-06 	0.0096076068 	-2.3105299e-05 	0.00046961125
0.18478261 	0.008956386 	-0.0035568755 	3.0234917e-06 	0.0093416284 	-8.1916766e-06 	0.00085690074
0.19565217 	0.0086923381 	-0.003443728 	7.8779499e-06 	0.0090179156 	-2.134407e-05 	0.0012482011
0.20652174 	0.008409519 	-0.0033185104 	8.8352082e-07 	0.0086787628 	-2.229908e-06 	0.001499699
0.2173913 	0.0080906942 	-0.0031688757 	9.2742806e-06 	0.0083176354 	-2.3407249e-05 	0.0018290886
0.22826087 	0.0077640482 	-0.0030134175 	-2.1147323e-08 	0.0079480999 	-2.9977617e-07 	0.00035378173
0.23913043 	0.0074422462 	-0.0028556091 	9.4527992e-06 	0.0075994127 	-2.2771785e-05 	0.0022171933
0.25 	0.0071181855 	-0.0026956854 	-2.5505197e-10 	0.0072478066 	-7.4070541e-08 	0.0021082435
0.26086957 	0.0068122547 	-0.0025415874 	2.6993101e-06 	0.0069208921 	-6.3594128e-06 	0.002447979
0.27173913 	0.0065174421 	-0.002392501 	3.8826429e-06 	0.0066091077 	-9.1472742e-06 	0.0026645963
0.2826087 	0.0062331285 	-0.0022480587 	6.6904461e-08 	0.0063057152 	-5.1892394e-07 	0.00067480482
0.29347826 	0.0059769802 	-0.0021178524 	5.0985911e-06 	0.0060396397 	-1.2019596e-05 	0.0027341703
0.30434783 	0.0057235601 	-0.0019890374 	1.6912349e-08 	0.0057745226 	-6.6085488e-08 	0.0026796375
0.31521739 	0.0054901666 	-0.0018714287 	9.7630549e-08 	0.005528058 	-3.8149416e-07 	0.0015680973
0.32608696 	0.0052721488 	-0.0017613694 	5.0145803e-06 	0.0053023262 	-1.200533e-05 	0.002857555
0.33695652 	0.0050575086 	-0.0016535326 	1.2774449e-07 	0.005076887 	-3.3980259e-07 	0.0019335805
0.34782609 	0.0048576103 	-0.0015540951 	1.6911927e-07 	0.0048666024 	-4.4986021e-07 	0.0015162229
0.35869565 	0.0046701993 	-0.0014593525 	3.5532584e-06 	0.0046725184 	-8.5843655e-06 	0.0028533306
0.36956522 	0.0044864832 	-0.001365735 	1.5245418e-07 	0.0044787306 	-2.9655964e-07 	0.0020300341
0.38043478 	0.0043123717 	-0.0012766943 	3.3536454e-07 	0.0042932773 	-6.5236378e-07 	0.00089377013
0.39130435 	0.0041513383 	-0.0011919986 	1.3554015e-06 	0.0041263491 	-3.1692714e-06 	0.0027542536
0.40217391 	0.0039984361 	-0.0011068235 	4.5943404e-08 	0.0039645398 	-6.4166155e-08 	0.0026060863
0.41304348 	0.0038535525 	-0.0010220027 	5.904766e-07 	0.0038051512 	-8.2468015e-07 	3.8629953e-05
0.42391304 	0.0037215944 	-0.00094313107 	1.3716504e-07 	0.003667136 	-1.9156946e-07 	0.0020238738
0.43478261 	0.0036022336 	-0.00086329107 	1.5425459e-06 	0.0035395572 	-3.2101189e-06 	0.0026634413
0.44565217 	0.003498689 	-0.00078230946 	3.413238e-07 	0.0034231186 	-3.1371777e-07 	0.001319022
0.45652174 	0.003404239 	-0.00070293412 	4.9902363e-07 	0.0033166513 	-4.5866295e-07 	0.00065040375
0.4673913 	0.0033152956 	-0.00062685798 	4.4838229e-08 	0.0032205037 	-4.1211745e-08 	0.0023620008
0.47826087 	0.0032483112 	-0.00054939025 	1.6455394e-07 	0.0031437523 	-2.6741993e-07 	0.0025660884
0.48913043 	0.0032067142 	-0.00047031001 	4.7329355e-07 	0.0030870318 	-2.4122136e-07 	0.00087928164
0.5 	0.0031669001 	-0.00039125309 	4.8539439e-07 	0.0030353362 	-2.4738873e-07 	0.00082215299
0.51086957 	0.0031278379 	-0.00031228249 	2.4177041e-08 	0.0029877958 	-1.2322201e-08 	0.0024398659
0.52173913 	0.0031161232 	-0.00023325069 	7.6634931e-08 	0.0029647558 	-1.5110068e-08 	0.00228216
0.5326087 	0.0031266807 	-0.00015401609 	5.5709903e-07 	0.0029599855 	-1.0984292e-07 	0.00061983727
0.54347826 	0.0031375332 	-7.1469218e-05 	4.2780371e-07 	0.0029598121 	-8.4349828e-08 	0.0011022036
0.55434783 	0.003150931 	1.2771618e-05 	4.4147859e-07 	0.0029644534 	-2.0620567e-07 	0.0026338514
0.56521739 	0.0031916005 	9.4411659e-05 	2.4090212e-07 	0.0029923972 	4.4566436e-09 	0.0017647854
0.57608696 	0.0032425293 	0.00017530312 	7.1626876e-07 	0.0030285094 	1.3250836e-08 	2.9261914e-05
0.58695652 	0.0032951011 	0.00026221683 	2.1682485e-07 	0.003074313 	4.0112186e-09 	0.0019810752
0.59782609 	0.0033567493 	0.00034760723 	2.6621396e-08 	0.0031274916 	4.4007553e-09 	0.0027296833
0.60869565 	0.0034392178 	0.00043002741 	5.1831287e-07 	0.003196119 	8.5681763e-08 	0.00073755088
0.61956522 	0.0035233945 	0.00051674079 	3.769856e-07 	0.0032726798 	6.2319097e-08 	0.0014269697
0.63043478 	0.0036113938 	0.00060533166 	5.5616638e-07 	0.0033557445 	2.2245311e-07 	0.0030949688
0.64130435 	0.0037170702 	0.00069061576 	4.1363229e-07 	0.0034495799 	1.1373176e-07 	0.0012011239
0.65217391 	0.0038264247 	0.00077912347 	4.2625686e-07 	0.0035518488 	1.17203e-07 	0.0012541692
0.66304348 	0.0039392315 	0.00087111514 	6.0418195e-07 	0.0036628469 	4.3087912e-07 	0.0034012552
0.67391304 	0.0040665561 	0.00095992442 	4.1177536e-07 	0.0037794307 	1.5461417e-07 	0.0012518401
0.68478261 	0.0041979235 	0.0010526906 	3.6744365e-07 	0.0039063119 	1.3796842e-07 	0.0016291478
0.69565217 	0.004333706 	0.0011485363 	4.5746375e-08 	0.0040422 	4.4171577e-08 	0.0037417034
0.70652174 	0.0044818792 	0.0012410562 	5.1247823e-07 	0.0041792244 	2.4987028e-07 	0.00068835765
0.7173913 	0.004634215 	0.0013403681 	2.0044081e-07 	0.0043329974 	9.7729421e-08 	0.0027917758
0.72826087 	0.0047940116 	0.0014392002 	1.8374137e-07 	0.0044902196 	1.147477e-07 	0.0028562975
0.73913043 	0.0049613947 	0.0015376741 	4.8441133e-07 	0.0046509546 	3.0251806e-07 	0.0008899739
0.75 	0.0051343556 	0.0016431643 	4.1627494e-07 	0.0048308556 	5.6798423e-07 	0.004480246
0.76086957 	0.0053164073 	0.0017433409 	4.7503813e-07 	0.0050041748 	3.7748148e-07 	0.00079252556
0.77173913 	0.0055046551 	0.0018515805 	1.0998554e-07 	0.0052001074 	8.7398255e-08 	0.0039404342
0.7826087 	0.0056996787 	0.00195592 	3.0718952e-07 	0.0053927573 	3.087734e-07 	0.0020845505
0.79347826 	0.0059014405 	0.0020642723 	2.0834804e-07 	0.0055999222 	2.0942228e-07 	0.0032207121
0.80434783 	0.0061084456 	0.002171153 	2.1081562e-07 	0.0058107549 	2.6795752e-07 	0.0029159207
0.81521739 	0.0063212349 	0.002278654 	2.1161985e-07 	0.0060300337 	2.6897975e-07 	0.0031222366
0.82608696 	0.0065367601 	0.0023840075 	1.7186283e-07 	0.0062535508 	2.8238108e-07 	0.0030357367
0.83695652 	0.0067558076 	0.0024886429 	1.2991456e-07 	0.0064847962 	2.1345753e-07 	0.003920042
0.84782609 	0.0069701376 	0.0025852006 	1.4323612e-07 	0.0067085324 	3.4019213e-07 	0.0021496132
0.85869565 	0.0071870009 	0.0026835656 	1.6173263e-08 	0.0069493028 	3.8412216e-08 	0.0059184815
0.86956522 	0.0073802652 	0.0027599255 	2.3566923e-08 	0.0071496957 	3.1719415e-07 	0.00010323283
0.88043478 	0.0075694255 	0.0028379269 	-4.0501118e-08 	0.0073733827 	-5.327728e-09 	0.0054431633
0.89130435 	0.0077232124 	0.0028921559 	-8.0374162e-08 	0.0075526931 	-1.0572836e-08 	0.0043657847
0.90217391 	0.0078311124 	0.0029216686 	-4.3902173e-07 	0.0076832438 	-4.6592526e-07 	0.00065523124
0.91304348 	0.0078969253 	0.0029347294 	-2.1011073e-07 	0.0077924245 	-3.0574686e-07 	0.0050756832
0.92391304 	0.0078889645 	0.0029154128 	-3.6660111e-08 	0.007824966 	-5.3346697e-08 	0.0067195547
0.93478261 	0.007765744 	0.0028391439 	-3.0874063e-07 	0.0077353595 	-5.2596065e-07 	0.0047181441
0.94565217 	0.0075258784 	0.0027207157 	-8.7247934e-08 	0.0075366042 	-1.8299566e-07 	0.0067820403
0.95652174 	0.0071339694 	0.0025448789 	-1.0646173e-06 	0.007157025 	-2.3028026e-06 	0.00047806244
0.9673913 	0.0065368241 	0.0023074681 	-4.1337381e-07 	0.0065788 	-1.0215581e-06 	0.0035416811
0.97826087 	0.0056266566 	0.0019930686 	-6.9098865e-07 	0.005655266 	-1.9714614e-06 	0.000442669
0.98913043 	0.0037020238 	0.0013795359 	-2.8046647e-07 	0.0036970142 	-9.1702228e-07 	0.00049457433
