0.47777778 	0.83702845 	0.00022479837 	-4.9001203e-09
0.48888889 	1.0842684 	4.2488295e-05 	5.0185557e-08
0.5 	1.180488 	7.7887499e-05 	8.2209077e-08
0.51111111 	1.2405554 	0.0001182098 	3.1897202e-07
0.52222222 	1.2837161 	0.00016859919 	-2.4771462e-09
0.53333333 	1.3171612 	0.00021813835 	5.449993e-07
0.54444444 	1.3444745 	0.00027480269 	5.7462357e-07
0.55555556 	1.3670365 	0.00033195984 	4.1229182e-07
0.56666667 	1.3857465 	0.00039022143 	3.9669812e-07
0.57777778 	1.4012444 	0.0004498615 	5.3229996e-07
0.58888889 	1.4139962 	0.00050763798 	7.6329699e-07
0.6 	1.4243239 	0.00056010548 	5.8031654e-07
0.61111111 	1.4324816 	0.0006048439 	1.2442274e-07
0.62222222 	1.4384456 	0.00063982433 	-1.0507253e-07
0.63333333 	1.4421935 	0.00066385342 	1.3721869e-07
0.64444444 	1.444534 	0.00067906181 	-4.6388421e-08
0.65555556 	1.4457359 	0.00068641077 	-1.2267828e-07
0.66666667 	1.4455898 	0.00068648728 	-2.131842e-07
0.67777778 	1.4447906 	0.000683006 	-1.8240646e-07
0.68888889 	1.4432344 	0.00067540561 	-9.3008192e-08
0.7 	1.4409245 	0.00066405396 	-5.0142592e-07
0.71111111 	1.4382266 	0.00065053634 	-2.6868645e-08
0.72222222 	1.4347729 	0.0006342925 	-7.2436161e-07
0.73333333 	1.4310793 	0.00061683889 	-3.8013014e-08
0.74444444 	1.4265906 	0.00059754422 	-7.9719649e-07
0.75555556 	1.4218905 	0.00057729146 	-4.1062467e-08
0.76666667 	1.416287 	0.00055553238 	-8.7830591e-07
0.77777778 	1.4104375 	0.00053279085 	-8.674938e-08
0.78888889 	1.4036867 	0.0005098194 	-6.9201214e-07
0.8 	1.3965623 	0.00048642699 	-1.289242e-07
0.81111111 	1.3886599 	0.00046267498 	-1.9748511e-07
0.82222222 	1.3799831 	0.00043912394 	-6.4333976e-07
0.83333333 	1.3707217 	0.00041563428 	-1.504262e-09
0.84444444 	1.360408 	0.00039221682 	-1.130834e-07
0.85555556 	1.3490636 	0.0003690205 	-5.0681689e-07
0.86666667 	1.3367148 	0.00034579603 	-3.5954791e-07
0.87777778 	1.323153 	0.00032240322 	-9.2821209e-08
0.88888889 	1.3080891 	0.00029846551 	-2.3215217e-08
0.9 	1.2912024 	0.00027381024 	-3.943895e-08
0.91111111 	1.2721225 	0.00024815165 	-3.6567956e-08
0.92222222 	1.2502749 	0.00022130532 	-1.4732344e-08
0.93333333 	1.2247135 	0.00019226878 	-1.2439056e-07
0.94444444 	1.194135 	0.00016178938 	-5.3244276e-07
0.95555556 	1.1565659 	0.00012278267 	-1.7696561e-08
0.96666667 	1.1066881 	9.8103134e-05 	-3.3489546e-07
0.97777778 	1.0296545 	5.7038338e-05 	-7.9714397e-08
0.98888889 	0.86993507 	-1.347285e-05 	-8.7272446e-07
