0.47826087 	0.8914013 	6.065557e-05 	-4.8423624e-09
0.48913043 	1.1412838 	0.00020954471 	-3.1593767e-08
0.5 	1.2375015 	0.00038267617 	-5.4835132e-09
0.51086957 	1.2970766 	0.00057530664 	3.0937276e-07
0.52173913 	1.3388213 	0.00078066761 	-2.9745496e-07
0.5326087 	1.3674411 	0.00096215926 	1.4782323e-07
0.54347826 	1.3863483 	0.0011033887 	7.7305066e-07
0.55434783 	1.3994435 	0.0012077103 	3.9370475e-07
0.56521739 	1.4085833 	0.0012827567 	2.2743831e-07
0.57608696 	1.4149562 	0.00133127 	1.1110166e-07
0.58695652 	1.4193835 	0.0013588064 	-5.655439e-08
0.59782609 	1.4223733 	0.0013688021 	-6.6209639e-08
0.60869565 	1.4242197 	0.0013631646 	-3.3602181e-07
0.61956522 	1.4252563 	0.0013476452 	-8.4728233e-08
0.63043478 	1.4255791 	0.0013213917 	-6.9413769e-07
0.64130435 	1.4253162 	0.0012857421 	-1.3508209e-07
0.65217391 	1.4245476 	0.001242936 	-1.1391025e-07
0.66304348 	1.423368 	0.001194512 	-7.9018304e-07
0.67391304 	1.4217234 	0.0011379282 	-2.3233297e-07
0.68478261 	1.4198221 	0.0010797141 	-6.4503776e-07
0.69565217 	1.4175113 	0.0010147392 	-1.0452564e-07
0.70652174 	1.4149515 	0.00094761531 	-1.726607e-07
0.7173913 	1.4120305 	0.00087589082 	-5.8796893e-08
0.72826087 	1.4089216 	0.00080345559 	-1.4190405e-07
0.73913043 	1.4054347 	0.00072710283 	-5.262201e-08
0.75 	1.4017555 	0.00065016686 	-2.5333999e-07
0.76086957 	1.3977244 	0.00057127508 	-3.6821469e-08
0.77173913 	1.3933918 	0.00049028639 	-1.1688896e-09
0.7826087 	1.3887456 	0.00040974857 	-6.0264533e-09
0.79347826 	1.3837725 	0.00032878536 	-3.5235685e-09
0.80434783 	1.3784253 	0.00024800879 	-7.7534557e-07
0.81521739 	1.3727584 	0.00016946191 	3.3136025e-08
0.82608696 	1.366581 	9.0335616e-05 	-2.1645975e-07
0.83695652 	1.3599511 	1.5103938e-05 	-2.5454282e-07
0.84782609 	1.3527985 	-5.6554443e-05 	1.026971e-07
0.85869565 	1.3449385 	-0.0001260181 	4.0430416e-08
0.86956522 	1.336273 	-0.00018871126 	-4.5450407e-07
0.88043478 	1.3264222 	-0.0002403812 	-2.0364377e-07
0.89130435 	1.3146719 	-0.0002743747 	2.7589238e-08
0.90217391 	1.300203 	-0.00027945499 	1.1983718e-07
0.91304348 	1.2823245 	-0.00025275931 	1.4482029e-07
0.92391304 	1.2603038 	-0.0001978552 	6.0811754e-08
0.93478261 	1.2334014 	-0.00012647163 	2.8554712e-07
0.94565217 	1.200907 	-5.6207169e-05 	1.7010373e-07
0.95652174 	1.1612428 	-5.6018385e-06 	1.7243025e-07
0.9673913 	1.1091756 	2.1266537e-05 	7.0357149e-10
0.97826087 	1.0307054 	2.7347835e-05 	-2.9095794e-09
0.98913043 	0.86147818 	1.6278292e-05 	-2.1340284e-08
