1.4213861e-19 	0.71403127 	-4.8493368e-14 	-1.7626056e-20
0.010869565 	0.71481948 	-0.00049745592 	4.8481429e-08
0.02173913 	0.71705674 	-0.00098597769 	3.0660973e-08
0.032608696 	0.72073888 	-0.0014690367 	1.1364902e-08
0.043478261 	0.72577619 	-0.0019396379 	1.3481985e-07
0.054347826 	0.73210186 	-0.0023993114 	2.7530707e-07
0.065217391 	0.74012077 	-0.0028701582 	4.7788736e-07
0.076086957 	0.74798964 	-0.0032572216 	1.5916583e-07
0.086956522 	0.75740333 	-0.0036502835 	8.9419929e-07
0.097826087 	0.76759883 	-0.0040218083 	1.3054367e-06
0.10869565 	0.7785709 	-0.0043736395 	4.3338168e-07
0.11956522 	0.79025015 	-0.0046882343 	1.6868566e-06
0.13043478 	0.80250153 	-0.0049788493 	2.5772064e-06
0.14130435 	0.81527486 	-0.005246254 	3.5387514e-07
0.15217391 	0.82871596 	-0.0054695781 	6.2905318e-06
0.16304348 	0.84235543 	-0.0056813196 	1.5076074e-07
0.17391304 	0.85676663 	-0.0058338476 	7.3927191e-06
0.18478261 	0.87126978 	-0.0059763654 	1.6216951e-06
0.19565217 	0.88642142 	-0.0060571406 	9.2851025e-06
0.20652174 	0.90167734 	-0.0061306158 	1.7945152e-07
0.2173913 	0.9175106 	-0.0061284903 	1.2936467e-05
0.22826087 	0.93337723 	-0.0061250517 	6.3761583e-08
0.23913043 	0.9495212 	-0.0060484334 	1.1684492e-05
0.25 	0.96562873 	-0.0059616118 	4.1023343e-06
0.26086957 	0.98170597 	-0.0058343021 	4.7424471e-06
0.27173913 	0.99737434 	-0.0056755923 	1.2082676e-05
0.2826087 	1.0131858 	-0.0055031502 	4.0999432e-07
0.29347826 	1.02756 	-0.0053098037 	1.1068874e-05
0.30434783 	1.041733 	-0.0051106963 	5.9698949e-06
0.31521739 	1.0553834 	-0.0049022492 	1.8831873e-07
0.32608696 	1.0671742 	-0.0047052723 	1.2596337e-05
0.33695652 	1.0787694 	-0.0045085494 	2.7231616e-06
0.34782609 	1.0892255 	-0.0043188937 	1.9452815e-07
0.35869565 	1.0980708 	-0.0041471231 	1.0072707e-05
0.36956522 	1.1066737 	-0.0039764125 	2.6391409e-06
0.38043478 	1.1142794 	-0.0038132502 	3.8400727e-07
0.39130435 	1.1206642 	-0.0036658578 	5.5968056e-06
0.40217391 	1.1266083 	-0.0035190351 	4.7986865e-06
0.41304348 	1.1320382 	-0.0033728314 	4.5075139e-07
0.42391304 	1.1366515 	-0.0032395308 	2.045734e-07
0.43478261 	1.140333 	-0.0031086549 	8.3885872e-06
0.44565217 	1.1439639 	-0.002977726 	4.0452153e-08
0.45652174 	1.1466745 	-0.0028488656 	4.5556679e-07
0.4673913 	1.1489647 	-0.0027293408 	2.3525319e-06
0.47826087 	1.1506655 	-0.0026084191 	5.2768447e-06
0.48913043 	1.1520989 	-0.0024864302 	1.9568797e-07
0.5 	1.1529411 	-0.0023639064 	3.7136962e-07
0.51086957 	1.1535045 	-0.0022445892 	2.7202128e-06
0.52173913 	1.1536153 	-0.0021255273 	3.4783546e-06
0.5326087 	1.1533645 	-0.0020059201 	2.7674574e-07
0.54347826 	1.1527449 	-0.0018842738 	2.6486063e-07
0.55434783 	1.151816 	-0.0017619786 	3.6802436e-06
0.56521739 	1.1506217 	-0.001640413 	8.9052697e-07
0.57608696 	1.1489486 	-0.001518874 	4.4569053e-07
0.58695652 	1.1471386 	-0.0013939029 	2.2045453e-08
0.59782609 	1.1448756 	-0.0012706796 	3.3999344e-06
0.60869565 	1.1423878 	-0.0011478638 	2.1768177e-07
0.61956522 	1.1395926 	-0.0010229831 	1.816513e-07
0.63043478 	1.1364802 	-0.0008978468 	3.9429695e-06
0.64130435 	1.1331112 	-0.00077421079 	1.1522798e-07
0.65217391 	1.1293845 	-0.00064958979 	2.1099828e-07
0.66304348 	1.1253472 	-0.00052380031 	3.1564127e-06
0.67391304 	1.1210278 	-0.0004005439 	1.0811347e-07
0.68478261 	1.1163394 	-0.00027628185 	1.4316426e-07
0.69565217 	1.11129 	-0.00015224704 	2.7239594e-06
0.70652174 	1.105937 	-3.1904685e-05 	1.5445285e-07
0.7173913 	1.1001979 	9.1399979e-05 	1.6000488e-08
0.72826087 	1.0940477 	0.00021063218 	5.9341487e-07
0.73913043 	1.0875266 	0.00032755746 	1.2394192e-07
0.75 	1.0805119 	0.00044558441 	2.0274156e-06
0.76086957 	1.0731536 	0.00055247739 	1.7183826e-08
0.77173913 	1.0652459 	0.00065955655 	3.4610237e-07
0.7826087 	1.0569467 	0.00075243257 	-3.1276588e-08
0.79347826 	1.0481163 	0.00084018928 	-1.9283816e-08
0.80434783 	1.0388744 	0.00091426357 	-1.6349295e-08
0.81521739 	1.0291161 	0.00097507405 	-5.8068359e-08
0.82608696 	1.0188949 	0.001026684 	-3.1277515e-08
0.83695652 	1.0081087 	0.0010681651 	-2.9046305e-08
0.84782609 	0.99684983 	0.0010941739 	-1.4827485e-07
0.85869565 	0.98491585 	0.0011086068 	-8.8060152e-08
0.86956522 	0.97257904 	0.0011043819 	-4.3542838e-07
0.88043478 	0.95932506 	0.0010865984 	-2.4149116e-07
0.89130435 	0.94547478 	0.0010494481 	-5.3818428e-08
0.90217391 	0.93085267 	0.00099187183 	-4.1924307e-07
0.91304348 	0.91505413 	0.00091647938 	-2.5029053e-07
0.92391304 	0.89821894 	0.00082093142 	-7.1663804e-07
0.93478261 	0.87990662 	0.00070890495 	-1.7316545e-08
0.94565217 	0.85760566 	0.00057309547 	-8.8853226e-07
0.95652174 	0.83163487 	0.00043077541 	-2.7424803e-07
0.9673913 	0.79642306 	0.00028168896 	-9.3733607e-09
0.97826087 	0.73923963 	0.00014443274 	-1.0619339e-07
0.98913043 	0.59343087 	4.0804849e-05 	-3.3914097e-08
