0.31958763 	0.00010787948 	-2.1976956e-05 	2.8230966e-08 	9.0116834e-05 	-3.3399607e-08 	3.8792017e-05
0.32989691 	0.0026016859 	-0.00094338669 	-2.8637207e-06 	0.0019465041 	2.9313161e-06 	8.5074759e-05
0.34020619 	0.002065613 	-0.00042210964 	-2.6106275e-07 	0.0024051421 	-8.314526e-07 	0.00080798883
0.35051546 	0.0020282508 	-0.00016017416 	4.8190781e-07 	0.0030647664 	8.7744136e-07 	0.00070034851
0.36082474 	0.0020061473 	2.6549275e-05 	5.4182275e-07 	0.003334894 	2.5064761e-07 	0.00056754831
0.37113402 	0.0019769247 	0.00013417057 	1.1867798e-06 	0.0034169492 	-5.7292266e-07 	0.00041446595
0.3814433 	0.0019442512 	0.00019702081 	7.1590755e-07 	0.0034258031 	-1.518865e-06 	0.00025036582
0.39175258 	0.0019102579 	0.0002321776 	3.9919991e-07 	0.0034044385 	-2.3522246e-06 	8.8111524e-05
0.40206186 	0.0018755363 	0.00025484453 	1.6893168e-07 	0.0033715023 	-2.4775075e-06 	8.284984e-05
0.41237113 	0.0018409814 	0.00027173329 	5.4579293e-08 	0.0033341639 	-1.4230668e-06 	0.00023598018
0.42268041 	0.0018076118 	0.00028620203 	5.6291865e-08 	0.0032953936 	-3.8881755e-08 	0.00031654285
0.43298969 	0.0017774192 	0.00029974011 	8.2520284e-08 	0.0032603782 	-4.5377499e-08 	0.00042858856
0.44329897 	0.0017510118 	0.00031333766 	4.509559e-08 	0.0032305675 	-1.3798707e-06 	0.00064577795
0.45360825 	0.001727479 	0.00032666584 	2.9526093e-08 	0.0032041727 	-1.3626727e-08 	0.00073800786
0.46391753 	0.0017076575 	0.0003390965 	5.264592e-07 	0.0031818511 	-2.1489127e-07 	0.00032954177
0.4742268 	0.0016915229 	0.00035275013 	3.9970837e-08 	0.0031691437 	-9.8759214e-07 	0.00099793981
0.48453608 	0.0016769909 	0.00036458424 	7.8831447e-07 	0.0031531874 	-2.9951317e-07 	0.00026458493
0.49484536 	0.00166561 	0.00037831834 	8.7602968e-08 	0.0031484966 	-3.250934e-08 	0.001111997
0.50515464 	0.0016551456 	0.00039015684 	7.0257491e-07 	0.0031389482 	-2.6072458e-07 	0.00054138186
0.51546392 	0.0016466325 	0.00040329784 	3.7846045e-07 	0.0031363894 	-1.435834e-07 	0.0009743341
0.5257732 	0.0016388484 	0.00041528402 	8.1213847e-07 	0.00313109 	-3.0811569e-07 	0.00057595639
0.53608247 	0.001632379 	0.00042853615 	3.9414126e-07 	0.003130943 	-1.5936972e-07 	0.0010857935
0.54639175 	0.0016262695 	0.00044033422 	9.2299823e-07 	0.0031259298 	-3.7321129e-07 	0.0003895406
0.55670103 	0.0016212643 	0.0004543893 	3.6810591e-08 	0.003128599 	-1.6479401e-08 	0.0014185343
0.56701031 	0.0016161819 	0.00046585183 	1.092133e-06 	0.0031205655 	-4.8892717e-07 	6.9004011e-06
0.57731959 	0.0016124727 	0.00048072116 	4.7039209e-08 	0.0031244887 	-2.1058559e-08 	0.0013311586
0.58762887 	0.0016083467 	0.00049351632 	5.282402e-07 	0.0031177177 	-2.7007202e-07 	0.00060797766
0.59793814 	0.0016050216 	0.00050760152 	4.4302759e-07 	0.0031146079 	-2.2650559e-07 	0.00070472998
0.60824742 	0.0016018408 	0.0005221606 	1.2054532e-08 	0.0031119047 	-1.7395412e-07 	0.0013044736
0.6185567 	0.0015989694 	0.00053594554 	7.3905881e-07 	0.0031004171 	-4.4170908e-07 	0.00010767435
0.62886598 	0.0015968516 	0.00055181127 	9.7997796e-08 	0.0030977214 	-5.8569786e-08 	0.0011217804
0.63917526 	0.0015946109 	0.00056646296 	7.429038e-08 	0.0030878083 	-5.2402403e-08 	0.0011199222
0.64948454 	0.0015931634 	0.00058140255 	6.0459437e-07 	0.003073015 	-4.2646434e-07 	0.00012480055
0.65979381 	0.0015920623 	0.00059851979 	2.2452317e-08 	0.0030654911 	-2.5275822e-07 	0.0012564876
0.67010309 	0.0015913425 	0.00061373365 	1.3838045e-07 	0.0030494766 	-1.1477872e-07 	0.00093365087
0.68041237 	0.0015916023 	0.00062983984 	3.8893916e-07 	0.0030316014 	-3.2260292e-07 	0.00037084081
0.69072165 	0.0015921343 	0.0006474709 	9.6245864e-08 	0.0030169939 	-9.9232983e-07 	0.0012635678
0.70103093 	0.0015937718 	0.00066342722 	2.5948638e-07 	0.0029949784 	-2.4835399e-07 	0.00052861851
0.71134021 	0.0015961671 	0.00068107962 	1.2119495e-07 	0.0029755277 	-1.1599549e-07 	0.00094200495
0.72164948 	0.0015992029 	0.00069799806 	1.8832035e-09 	0.0029541339 	-2.0104371e-09 	0.0012904554
0.73195876 	0.0016042155 	0.00071454148 	2.8967131e-07 	0.0029273665 	-3.0924216e-07 	0.00025967124
0.74226804 	0.0016095267 	0.00073240007 	9.1963797e-08 	0.0029057547 	-9.7574014e-07 	0.0013416364
0.75257732 	0.0016168587 	0.00074857558 	2.3372555e-07 	0.0028770931 	-2.6487865e-07 	0.00025583478
0.7628866 	0.0016247625 	0.00076629568 	1.8848102e-08 	0.0028539585 	-2.1206372e-07 	0.0013942434
0.77319588 	0.0016348249 	0.00078219662 	1.4082077e-07 	0.0028253946 	-1.5766105e-07 	0.00055534776
0.78350515 	0.0016456972 	0.00079914916 	1.485678e-08 	0.0028010986 	-1.6633452e-08 	0.0013631514
0.79381443 	0.0016588517 	0.00081472179 	1.0996648e-07 	0.0027735275 	-1.0989389e-07 	0.000625659
0.80412371 	0.0016729092 	0.00083106764 	8.2535925e-09 	0.0027504401 	-8.248144e-09 	0.0014585033
0.81443299 	0.0016896898 	0.00084621968 	1.1759517e-07 	0.0027239701 	-8.9382297e-08 	0.00041983833
0.82474227 	0.001707233 	0.00086226186 	2.2719956e-08 	0.0027040756 	-2.826558e-07 	0.0015989777
0.83505155 	0.0017279553 	0.00087713017 	1.2902373e-07 	0.0026792466 	-5.3609418e-08 	0.00013359436
0.84536082 	0.001749378 	0.0008929801 	1.4059042e-08 	0.0026629999 	-1.1686867e-10 	0.0014892585
0.8556701 	0.0017736227 	0.00090822592 	4.4019062e-08 	0.0026442172 	-3.6591748e-10 	0.0011271734
0.86597938 	0.0017997674 	0.00092318877 	9.0749327e-08 	0.0026257342 	3.7100057e-08 	0.00033287172
0.87628866 	0.0018270136 	0.00093889444 	1.0035648e-08 	0.0026140524 	8.1987124e-09 	0.0016421803
0.88659794 	0.0018565543 	0.00095390235 	2.3406473e-08 	0.0025994773 	1.9122127e-08 	0.0014485372
0.89690722 	0.0018873343 	0.00096807055 	6.8610639e-08 	0.0025827178 	8.5495766e-08 	0.00039807376
0.90721649 	0.0019189651 	0.00098223525 	5.3500072e-08 	0.0025680362 	8.9440064e-08 	0.00047913716
0.91752577 	0.0019520752 	0.00099532325 	1.1273504e-08 	0.0025521059 	4.2928385e-08 	0.0011472023
0.92783505 	0.0019876841 	0.0010051624 	-4.8338012e-09 	0.0025299875 	1.4146612e-08 	0.0016039396
0.93814433 	0.0020260732 	0.0010091182 	-4.4378358e-09 	0.0024985465 	4.4584267e-09 	0.0018054592
0.94845361 	0.0020635475 	0.0010129171 	-4.6023273e-09 	0.0024581853 	1.2901693e-09 	0.0017064201
0.95876289 	0.0020993709 	0.0010055313 	-2.2083464e-10 	0.0023998369 	-2.4148802e-09 	8.5798657e-05
0.96907216 	0.002130594 	0.0010051552 	7.5648224e-08 	0.002334635 	4.6092847e-08 	0.00037039012
0.97938144 	0.0021380891 	0.0010019143 	4.2385023e-08 	0.0022428512 	4.7881061e-08 	0.0017405952
0.98969072 	0.0017759977 	0.00083062665 	2.6718098e-07 	0.0017934937 	5.5079435e-07 	0.0002424342
