1.4101108e-19 	0.0022708447 	-1.5423492e-16 	-3.8718344e-22 	1.1715953e-18 	2.5592587e-20 	5.9517575e-19
0.010869565 	0.0022890714 	-0.00019953027 	1.4976215e-08 	0.0026786052 	-2.5636587e-06 	0.0019835389
0.02173913 	0.0023555379 	-0.00039530713 	1.0695893e-08 	0.0027445047 	-2.9962013e-06 	0.0018589648
0.032608696 	0.0024624261 	-0.00058724116 	1.7436368e-08 	0.002849674 	-2.066701e-08 	0.0014995469
0.043478261 	0.0026024378 	-0.00077211999 	7.2668111e-08 	0.0029879492 	-3.5004083e-06 	0.0016701447
0.054347826 	0.0027711004 	-0.00095207178 	1.0578994e-07 	0.0031510379 	-1.3614572e-07 	0.00051059501
0.065217391 	0.0029678219 	-0.001132129 	9.272805e-08 	0.003342066 	-1.2507057e-07 	0.00066297484
0.076086957 	0.0031496431 	-0.0012818091 	8.2569533e-08 	0.0035163335 	-1.1689895e-07 	0.00068850203
0.086956522 	0.0033446436 	-0.0014316012 	3.059765e-07 	0.0037016362 	-2.7031113e-06 	0.0012562133
0.097826087 	0.0035365176 	-0.0015713695 	6.6692792e-07 	0.0038795492 	-4.0266181e-06 	0.0011476982
0.10869565 	0.0037214347 	-0.0017012577 	5.5064115e-08 	0.0040469635 	-8.3102046e-08 	0.00059426702
0.11956522 	0.0038861061 	-0.0018156381 	6.1269917e-07 	0.0041917435 	-2.8264589e-06 	0.00082381374
0.13043478 	0.004031679 	-0.0019200751 	1.2796297e-06 	0.0043137053 	-5.196466e-06 	0.00066940064
0.14130435 	0.004161207 	-0.0020176245 	1.2872192e-09 	0.0044169665 	-1.6899752e-09 	0.00046898599
0.15217391 	0.0042450838 	-0.0020962531 	2.4430562e-06 	0.0044700611 	-9.009868e-06 	0.00030678809
0.16304348 	0.0043140829 	-0.0021679624 	5.1711425e-07 	0.0045072858 	-1.6158887e-06 	0.0001233595
0.17391304 	0.0043214048 	-0.0022081921 	3.1096719e-06 	0.0044808352 	-9.7171634e-06 	7.0028485e-05
0.18478261 	0.0043113284 	-0.002238263 	1.0867773e-06 	0.0044376803 	-2.8403637e-06 	0.0002375637
0.19565217 	0.004234444 	-0.0022289779 	4.1455222e-06 	0.0043289332 	-1.0834594e-05 	0.00039663984
0.20652174 	0.0041416571 	-0.0022096657 	3.0032582e-07 	0.0042048688 	-6.7378791e-07 	0.00051371915
0.2173913 	0.0039812664 	-0.0021448212 	6.2015692e-06 	0.0040187986 	-1.3913364e-05 	0.00064884577
0.22826087 	0.0038116124 	-0.0020733424 	-3.1396057e-08 	0.0038228772 	1.1094922e-07 	0.00012258123
0.23913043 	0.0036027497 	-0.0019683918 	6.4752012e-06 	0.0035982907 	-1.2737003e-05 	0.00079655694
0.25 	0.0033889143 	-0.0018584377 	9.0258031e-07 	0.0033689737 	-1.7754148e-06 	0.00090412091
0.26086957 	0.0031644951 	-0.0017315823 	2.2385025e-06 	0.0031354622 	-3.9298061e-06 	0.00084239455
0.27173913 	0.0029491185 	-0.0016037851 	4.5256945e-06 	0.0029147796 	-7.9450892e-06 	0.00092326181
0.2826087 	0.0027377322 	-0.0014733779 	-1.4786527e-07 	0.002698616 	2.1686728e-07 	0.0001217865
0.29347826 	0.002558339 	-0.0013557457 	4.353167e-06 	0.0025204345 	-6.959783e-06 	0.00088677167
0.30434783 	0.0023859097 	-0.0012400422 	1.0880469e-06 	0.0023484192 	-1.7395542e-06 	0.00094590151
0.31521739 	0.0022395728 	-0.0011350283 	-6.195533e-08 	0.0022026506 	6.7693391e-08 	0.00048448691
0.32608696 	0.0021182462 	-0.0010445934 	4.0286726e-06 	0.002083271 	-6.0571194e-06 	0.00088685202
0.33695652 	0.0020023808 	-0.00095679388 	-4.6288017e-09 	0.0019684575 	1.9881813e-09 	0.00086436361
0.34782609 	0.001913115 	-0.00088400524 	-2.9488799e-08 	0.0018788842 	1.2666146e-08 	0.00048033772
0.35869565 	0.0018356279 	-0.00081861095 	2.6473641e-06 	0.0018020843 	-3.8411184e-06 	0.00087927504
0.36956522 	0.0017621667 	-0.00075491283 	3.5663946e-10 	0.0017283264 	-3.2892156e-09 	0.00086518921
0.38043478 	0.0017043861 	-0.00069971279 	4.9105862e-09 	0.0016682793 	-4.528937e-08 	0.00026924151
0.39130435 	0.0016529059 	-0.00064834815 	1.1860925e-06 	0.0016166327 	-1.5937124e-06 	0.00087113973
0.40217391 	0.0016056306 	-0.00059666349 	5.5037661e-07 	0.0015678903 	-7.3952249e-07 	0.00089585921
0.41304348 	0.0015655041 	-0.00054557974 	5.2575749e-08 	0.0015242137 	-1.0302294e-07 	9.139793e-05
0.42391304 	0.0015300068 	-0.0004989966 	7.534783e-09 	0.0014878873 	-1.4764516e-08 	0.00075549958
0.43478261 	0.0015007014 	-0.00045046946 	1.6679016e-06 	0.0014564635 	-1.8628719e-06 	0.00088332527
0.44565217 	0.0014750356 	-0.00040075373 	3.055634e-08 	0.0014276379 	-4.2889323e-08 	0.00059561256
0.45652174 	0.0014548963 	-0.00035090983 	6.8105853e-08 	0.0014038421 	-9.5594365e-08 	0.00022391511
0.4673913 	0.0014367325 	-0.00030394419 	2.4054427e-07 	0.0013840697 	-1.9635713e-07 	0.00088390463
0.47826087 	0.0014257537 	-0.00025434232 	8.6371449e-07 	0.0013700654 	-7.0505314e-07 	0.00089807712
0.48913043 	0.001420111 	-0.00020292043 	5.8210035e-08 	0.0013601898 	-6.2079926e-08 	0.00042532568
0.5 	0.0014175331 	-0.00015110419 	7.2213822e-08 	0.0013539218 	-7.7014706e-08 	0.00031648614
0.51086957 	0.0014163087 	-9.9865305e-05 	3.8461801e-07 	0.0013503897 	-1.8559759e-07 	0.00092289575
0.52173913 	0.0014221221 	-4.7283664e-05 	3.8806824e-07 	0.0013528049 	-1.872625e-07 	0.00093380221
0.5326087 	0.0014349462 	6.6562434e-06 	7.7037894e-08 	0.0013609398 	-5.8381764e-08 	0.00032168091
0.54347826 	0.0014494346 	6.2028733e-05 	6.3544844e-08 	0.0013720386 	-4.8156301e-08 	0.00045359081
0.55434783 	0.0014667277 	0.00011832113 	7.8440935e-07 	0.0013867441 	-1.1524743e-07 	0.00099177656
0.56521739 	0.0014908321 	0.00017472398 	1.7336494e-08 	0.0014072135 	-7.0782172e-09 	0.0008526801
0.57608696 	0.0015212889 	0.00023125998 	1.137323e-07 	0.0014328994 	-4.6435106e-08 	3.9747142e-05
0.58695652 	0.0015527808 	0.00029028238 	2.3503654e-08 	0.0014626123 	-9.5961714e-09 	0.00087008157
0.59782609 	0.0015901479 	0.00034889035 	5.4679054e-07 	0.0014974072 	9.4618373e-08 	0.001090956
0.60869565 	0.0016346773 	0.00040684395 	7.46239e-08 	0.0015380255 	-6.1272289e-10 	0.00039234497
0.61956522 	0.0016820102 	0.00046645715 	5.6678736e-08 	0.0015832543 	-4.6537851e-10 	0.00062092031
0.63043478 	0.0017332785 	0.00052681487 	9.7812218e-07 	0.0016333254 	4.8266977e-07 	0.001212878
0.64130435 	0.0017919554 	0.00058580546 	5.4787366e-08 	0.0016891357 	2.3300551e-08 	0.00062209611
0.65217391 	0.0018546683 	0.00064581108 	6.7079182e-08 	0.0017501757 	2.8528144e-08 	0.00054687566
0.66304348 	0.0019211609 	0.00070728973 	7.7716371e-07 	0.0018168623 	6.3178959e-07 	0.0013619569
0.67391304 	0.0019947455 	0.00076682834 	5.4590458e-08 	0.001888333 	4.7422932e-08 	0.00066298205
0.68478261 	0.0020725905 	0.00082765443 	5.4764298e-08 	0.0019657793 	4.7573948e-08 	0.00074136304
0.69565217 	0.0021547059 	0.00088939511 	5.2448556e-07 	0.002049146 	5.9443724e-07 	0.0015331854
0.70652174 	0.0022427972 	0.00094812014 	7.1415829e-08 	0.0021354897 	9.4410048e-08 	0.00040226414
0.7173913 	0.0023353076 	0.0010095745 	2.1103583e-08 	0.0022304574 	2.7898441e-08 	0.0013429228
0.72826087 	0.0024322956 	0.0010710161 	1.1675444e-08 	0.00232883 	1.8431615e-08 	0.0015130906
0.73913043 	0.0025337861 	0.0011318981 	7.7649449e-08 	0.0024297323 	1.2258247e-07 	0.00038278833
0.75 	0.0026402941 	0.0011952691 	5.3535115e-07 	0.0025410031 	9.3841606e-07 	0.0019143301
0.76086957 	0.0027501354 	0.001250791 	6.5167573e-08 	0.0026502551 	1.287588e-07 	0.00047989224
0.77173913 	0.0028653523 	0.0013084191 	5.2069315e-09 	0.0027708247 	1.0287912e-08 	0.0019877651
0.7826087 	0.0029834975 	0.0013643418 	3.119885e-08 	0.0028899187 	8.1480946e-08 	0.0011693301
0.79347826 	0.0031061927 	0.0014221172 	2.0714995e-08 	0.0030159894 	5.4100628e-08 	0.0016276301
0.80434783 	0.0032279907 	0.0014796984 	1.6153889e-08 	0.0031419741 	4.6941978e-08 	0.001629257
0.81521739 	0.0033498914 	0.0015376451 	2.0019062e-08 	0.0032693292 	5.8173879e-08 	0.0015837697
0.82608696 	0.0034658629 	0.0015926739 	-6.5228864e-09 	0.0033931572 	2.419087e-08 	0.0017061934
0.83695652 	0.0035764034 	0.0016466123 	-5.0686307e-09 	0.0035140387 	1.8797596e-08 	0.0020067394
0.84782609 	0.003674064 	0.0016819793 	-7.5344192e-08 	0.0036206358 	-2.9237188e-08 	0.0012300079
0.85869565 	0.0037655695 	0.0017082935 	-3.5135245e-09 	0.0037265658 	1.0257479e-07 	0.0027968159
0.86956522 	0.0038350462 	0.001724545 	-2.195973e-07 	0.0038012976 	-2.0151826e-07 	4.3288361e-05
0.88043478 	0.0038958164 	0.0017389942 	-3.7123245e-09 	0.0038790002 	3.0639288e-09 	0.0028868305
0.89130435 	0.0039288061 	0.0017384642 	-7.4909108e-08 	0.0039225136 	-9.5886941e-08 	0.0021563182
0.90217391 	0.0039330739 	0.0017245424 	-2.9365629e-07 	0.0039352761 	-4.4518153e-07 	0.00040598494
0.91304348 	0.0039113862 	0.0017009981 	-4.0314701e-08 	0.0039297777 	-6.9903738e-08 	0.0026125831
0.92391304 	0.0038505086 	0.0016622881 	-1.8105593e-07 	0.0038799753 	-3.1740639e-07 	0.0028768347
0.93478261 	0.003744929 	0.0016009297 	-7.8694825e-08 	0.0037806451 	-1.5072157e-07 	0.0022074934
0.94565217 	0.0035863669 	0.0015231322 	-3.3595762e-07 	0.0036271086 	-7.3649838e-07 	0.0026927737
0.95652174 	0.0033766861 	0.0014292857 	-2.6479797e-07 	0.0034105121 	-6.2911173e-07 	0.00028792717
0.9673913 	0.0030908889 	0.0013162987 	-5.4927931e-08 	0.0031184666 	-1.5063777e-07 	0.001728413
0.97826087 	0.0026804831 	0.001169692 	-1.0691819e-07 	0.0026907781 	-3.3468824e-07 	0.00024894959
0.98913043 	0.0017092827 	0.00078762121 	-2.4884182e-08 	0.001708444 	-8.1924333e-08 	0.00020018041
