0.47777778 	0.84210846 	-0.0003229989 	-6.0673279e-06
0.48888889 	1.1049822 	-0.00046622343 	-4.0401337e-06
0.5 	1.1989502 	-0.0005712628 	-4.6396427e-06
0.51111111 	1.2553393 	-0.00063620676 	-3.9938898e-06
0.52222222 	1.2948952 	-0.00072985903 	-8.0972748e-06
0.53333333 	1.325164 	-0.0007015069 	-3.1991423e-07
0.54444444 	1.3488333 	-0.0007376929 	-1.975658e-06
0.55555556 	1.3674654 	-0.00077287659 	-5.1462018e-06
0.56666667 	1.3823139 	-0.00078547184 	-5.9591982e-06
0.57777778 	1.3941998 	-0.00078278566 	-4.5846447e-06
0.58888889 	1.4037075 	-0.00076675898 	-1.2386536e-06
0.6 	1.411194 	-0.00077150694 	-7.2751747e-07
0.61111111 	1.4169536 	-0.0008218043 	-7.2252416e-06
0.62222222 	1.4214357 	-0.00087223971 	-1.4296774e-05
0.63333333 	1.4247893 	-0.00081939469 	-4.9303063e-06
0.64444444 	1.4271835 	-0.00081093855 	-2.3290267e-06
0.65555556 	1.4285885 	-0.00087764369 	-1.2950521e-05
0.66666667 	1.4294198 	-0.00082585959 	-3.5644438e-06
0.67777778 	1.429468 	-0.0008427303 	-5.9863707e-06
0.68888889 	1.4288915 	-0.00085647036 	-8.7434305e-06
0.7 	1.4279355 	-0.00081948613 	-2.0328914e-06
0.71111111 	1.4261298 	-0.00086097263 	-1.0898875e-05
0.72222222 	1.4242437 	-0.00080182257 	-6.0255117e-07
0.73333333 	1.4214304 	-0.00084299782 	-1.0600951e-05
0.74444444 	1.4185352 	-0.0007805083 	-3.7368145e-07
0.75555556 	1.4148322 	-0.00081395883 	-1.0074941e-05
0.76666667 	1.4108546 	-0.00074662601 	9.800213e-08
0.77777778 	1.4061438 	-0.00077658293 	-1.0143114e-05
0.78888889 	1.4010531 	-0.00070689264 	-1.0632351e-06
0.8 	1.3952476 	-0.00070460768 	-5.7541516e-06
0.81111111 	1.3888663 	-0.00067136056 	-5.1772246e-06
0.82222222 	1.3818612 	-0.00061504761 	1.5053485e-08
0.83333333 	1.3739261 	-0.00060754556 	-6.0578209e-06
0.84444444 	1.3650683 	-0.00056047754 	-4.8616557e-06
0.85555556 	1.3550722 	-0.00049357709 	-4.4281843e-07
0.86666667 	1.3433253 	-0.00044987932 	-1.2731183e-06
0.87777778 	1.3299552 	-0.00041201383 	-3.6446302e-06
0.88888889 	1.3150767 	-0.00037132629 	-4.9191958e-06
0.9 	1.2986164 	-0.00033047076 	-5.2239839e-06
0.91111111 	1.2803609 	-0.00029062231 	-4.690104e-06
0.92222222 	1.2597321 	-0.00025143145 	-3.4580995e-06
0.93333333 	1.2357612 	-0.00021196251 	-1.6832927e-06
0.94444444 	1.2071616 	-0.00017386527 	9.1708241e-08
0.95555556 	1.1710539 	-0.00015532309 	-1.7452814e-06
0.96666667 	1.1226861 	-0.00011779 	-2.5161432e-08
0.97777778 	1.0475189 	-9.0255871e-05 	-5.2888012e-07
0.98888889 	0.88218717 	-4.8083497e-05 	-1.8343212e-07
