0 	0.0023245973 	-1.5788654e-16 	-5.6957878e-22 	1.1559405e-18 	5.0469452e-20 	2.2035439e-21
0.010869565 	0.0023343485 	-0.0001474013 	2.6957048e-08 	0.0026276502 	-6.257935e-06 	0.0011557575
0.02173913 	0.0023717027 	-0.00029075817 	1.1640083e-08 	0.0026644211 	-5.0041418e-06 	0.001287723
0.032608696 	0.002431905 	-0.00043183977 	7.8541258e-09 	0.002723243 	-1.4185849e-06 	0.001427192
0.043478261 	0.0025122467 	-0.00056890072 	2.8064187e-08 	0.0028014285 	-2.0639525e-06 	0.0015891949
0.054347826 	0.0026098427 	-0.0007017712 	8.1870511e-08 	0.0028944422 	-1.0640681e-07 	0.00097343927
0.065217391 	0.0027292901 	-0.00083816638 	1.9851266e-07 	0.0030076021 	-2.6267075e-07 	0.00025357772
0.076086957 	0.0028369331 	-0.00094769446 	1.4190087e-07 	0.0031115257 	-1.9338114e-07 	0.0010270317
0.086956522 	0.0029568034 	-0.0010605334 	7.2231855e-08 	0.0032273105 	-9.5323375e-07 	0.0023103112
0.097826087 	0.0030808644 	-0.0011677987 	6.4626712e-08 	0.0033427987 	-9.0913482e-08 	0.0020788127
0.10869565 	0.0032035279 	-0.0012681163 	4.0474433e-07 	0.0034517251 	-5.8462199e-07 	4.3110364e-05
0.11956522 	0.003315239 	-0.0013586619 	5.6108873e-08 	0.0035578578 	-8.2499068e-08 	0.0025576341
0.13043478 	0.0034225872 	-0.0014424128 	1.7612119e-07 	0.003651679 	-2.5895787e-07 	0.0020083687
0.14130435 	0.0035179051 	-0.0015170719 	3.8103339e-07 	0.0037310456 	-5.6402039e-07 	0.00094845647
0.15217391 	0.0036023827 	-0.0015847228 	2.0929014e-08 	0.0038058955 	-3.0979938e-08 	0.0033584491
0.16304348 	0.0036682846 	-0.0016396416 	5.8315153e-07 	0.0038486865 	-8.6492634e-07 	3.9251295e-05
0.17391304 	0.0037244863 	-0.0016899704 	1.8288629e-08 	0.0038963959 	-6.3289963e-08 	0.0037868634
0.18478261 	0.0037522494 	-0.0017237331 	5.7710431e-07 	0.0038990085 	-8.2513432e-07 	0.00035087567
0.19565217 	0.0037756308 	-0.0017563118 	2.0722141e-08 	0.0039119112 	-2.5829431e-08 	0.0038004196
0.20652174 	0.0037611964 	-0.0017724447 	6.260483e-07 	0.0038696548 	-7.8034751e-07 	0.0001237778
0.2173913 	0.0037483424 	-0.0017898093 	1.4534725e-08 	0.0038446137 	-1.8117031e-08 	0.0035913092
0.22826087 	0.0036879088 	-0.0017860648 	4.9227464e-07 	0.0037570511 	-4.9876035e-07 	0.00063295368
0.23913043 	0.0036287039 	-0.0017831672 	1.3774e-07 	0.0036814257 	-1.3955472e-07 	0.0025554915
0.25 	0.0035304226 	-0.0017567299 	2.0730163e-07 	0.0035625562 	-1.5426001e-07 	0.0017400857
0.26086957 	0.0034143895 	-0.0017193059 	2.5388716e-07 	0.0034276789 	-1.8892584e-07 	0.0012097163
0.27173913 	0.0032929142 	-0.0016764674 	1.8751505e-07 	0.0032931182 	-4.3213117e-07 	0.0028542592
0.2826087 	0.0031237689 	-0.0015977162 	2.09906e-07 	0.0031060533 	-3.9819565e-08 	0.00023149621
0.29347826 	0.0029692268 	-0.001527668 	3.9304069e-08 	0.0029428419 	-7.4560562e-09 	0.0019517075
0.30434783 	0.0027958951 	-0.0014367385 	1.1352674e-08 	0.0027607169 	3.3522051e-08 	0.0017778513
0.31521739 	0.0026104987 	-0.0013309213 	3.9678089e-08 	0.0025669213 	1.1716102e-07 	0.00031621225
0.32608696 	0.0024399827 	-0.0012345455 	4.5426303e-07 	0.0023941037 	-7.8993307e-07 	0.0018266227
0.33695652 	0.0022739059 	-0.0011299232 	-1.386408e-08 	0.0022252406 	5.2342716e-08 	0.0012290546
0.34782609 	0.0021146375 	-0.0010250273 	-3.3181038e-08 	0.0020641647 	1.2527233e-07 	0.00033049443
0.35869565 	0.0019689398 	-0.00092915523 	7.1456178e-07 	0.0019203537 	-1.1179487e-06 	0.0013825714
0.36956522 	0.0018446123 	-0.00083947651 	-9.1170692e-09 	0.0017963246 	1.5197331e-08 	0.0010840804
0.38043478 	0.0017357113 	-0.00075534169 	-3.9179929e-08 	0.0016870006 	6.5309402e-08 	0.00012935053
0.39130435 	0.0016352243 	-0.00067856395 	-8.6211688e-10 	0.0015894448 	1.437071e-09 	0.0010573565
0.40217391 	0.0015547306 	-0.00060658577 	4.3698049e-07 	0.0015097862 	-5.9707153e-07 	0.0010615953
0.41304348 	0.0014909347 	-0.00053838237 	-6.7597629e-09 	0.0014448957 	-1.6319406e-08 	0.00021639272
0.42391304 	0.0014334052 	-0.00047566361 	-2.8948846e-09 	0.0013884365 	-6.9888248e-09 	0.00058677091
0.43478261 	0.0013865421 	-0.00041471373 	1.9703743e-06 	0.0013420823 	-2.0774841e-06 	0.00088263559
0.44565217 	0.0013505727 	-0.00035395601 	6.4076602e-09 	0.0013051574 	-1.7486425e-08 	0.00064064185
0.45652174 	0.001325359 	-0.00029408091 	2.0423129e-08 	0.0012780403 	-5.5734464e-08 	0.00011753699
0.4673913 	0.0013018685 	-0.00023869475 	5.9254128e-10 	0.0012548836 	-1.6170377e-09 	0.00077010732
0.47826087 	0.0012912092 	-0.00018261056 	1.3262702e-06 	0.001242767 	-8.922523e-07 	0.00078086651
0.48913043 	0.0012871095 	-0.00012595383 	1.8254549e-08 	0.0012363099 	-2.6699005e-08 	0.00046063928
0.5 	0.0012899307 	-6.9204957e-05 	3.2464402e-08 	0.0012366165 	-4.7482261e-08 	0.00021064291
0.51086957 	0.0012944409 	-1.3562402e-05 	4.1093651e-07 	0.0012400774 	-1.1182943e-07 	0.00075879631
0.52173913 	0.0013082599 	4.2244637e-05 	9.945296e-07 	0.0012515697 	-2.7064443e-07 	0.0007517972
0.5326087 	0.0013286548 	9.8320222e-05 	2.8563117e-08 	0.0012687926 	-2.0714944e-08 	0.0003668943
0.54347826 	0.0013544255 	0.00015555068 	3.1309312e-08 	0.0012919118 	-2.2706579e-08 	0.00034643811
0.55434783 	0.0013843056 	0.00021355269 	1.0025374e-06 	0.0013199763 	1.1967447e-07 	0.00078343221
0.56521739 	0.0014193725 	0.00027105802 	3.0728684e-07 	0.0013524651 	3.6681315e-08 	0.0007777299
0.57608696 	0.0014627284 	0.00032790711 	4.9481892e-08 	0.0013921574 	-5.9324259e-09 	0.0001150396
0.58695652 	0.0015088424 	0.00038687326 	5.8466574e-09 	0.0014369746 	-7.009607e-10 	0.00076548733
0.59782609 	0.0015615362 	0.00044496435 	1.2443113e-06 	0.0014876541 	5.9930553e-07 	0.0008468652
0.60869565 	0.001618098 	0.00050230339 	2.314309e-08 	0.001541583 	1.1031347e-08 	0.00046989504
0.61956522 	0.0016805039 	0.00056026428 	2.2849708e-08 	0.0016024091 	1.0891505e-08 	0.00053088759
0.63043478 	0.0017474936 	0.0006186558 	1.3082926e-06 	0.0016687658 	1.0835856e-06 	0.00094183535
0.64130435 	0.00181765 	0.00067590284 	8.8964569e-09 	0.0017374603 	1.1024158e-08 	0.00072459536
0.65217391 	0.0018937414 	0.00073259211 	2.2131551e-08 	0.0018125205 	2.7424593e-08 	0.00045704999
0.66304348 	0.0019740216 	0.00079028489 	1.0638212e-06 	0.0018936903 	1.2395184e-06 	0.0010545398
0.67391304 	0.0020566641 	0.00084627973 	4.7181242e-09 	0.0019760402 	1.4487299e-08 	0.00079047109
0.68478261 	0.0021440978 	0.00090146604 	8.4252533e-09 	0.0020640403 	2.5870274e-08 	0.00065620441
0.69565217 	0.0022350622 	0.000956853 	1.0122423e-06 	0.002157228 	1.5203082e-06 	0.0011779701
0.70652174 	0.0023270218 	0.0010096056 	-3.710809e-09 	0.0022497208 	2.7716985e-08 	0.00053392692
0.7173913 	0.0024230088 	0.0010627903 	-1.5221359e-10 	0.0023493727 	1.1369224e-09 	0.0012780879
0.72826087 	0.0025197426 	0.0011134709 	3.0843056e-07 	0.0024490224 	5.7169178e-07 	0.0013051102
0.73913043 	0.0026156146 	0.0011606613 	-2.9452087e-08 	0.0025463332 	1.9729981e-08 	0.00025801649
0.75 	0.0027141096 	0.0012084316 	5.8728678e-07 	0.0026510055 	1.3203425e-06 	0.0014305199
0.76086957 	0.0028089317 	0.0012516503 	-3.6652776e-08 	0.0027487139 	-1.0878986e-08 	0.0006275288
0.77173913 	0.0029034856 	0.0012935676 	1.1757829e-07 	0.0028499946 	3.2557811e-07 	0.0015445576
0.7826087 	0.002993488 	0.0013314564 	-1.2825569e-08 	0.0029450053 	-1.0249052e-08 	0.0013290708
0.79347826 	0.0030783615 	0.0013654826 	-9.544861e-09 	0.0030360402 	-7.6274027e-09 	0.0014718811
0.80434783 	0.003157806 	0.0013960553 	1.9562163e-08 	0.0031220676 	7.4124773e-08 	0.0016404791
0.81521739 	0.003228124 	0.001421279 	-2.2643219e-08 	0.0031984363 	-2.5995794e-08 	0.0013800822
0.82608696 	0.0032913931 	0.001442945 	1.7750301e-09 	0.0032691531 	2.2640247e-08 	0.0017166722
0.83695652 	0.0033427868 	0.0014587303 	-2.8516136e-09 	0.0033274733 	-4.0519307e-09 	0.0017321787
0.84782609 	0.003382758 	0.0014690417 	-3.9659456e-08 	0.0033734954 	-6.537187e-08 	0.0012835954
0.85869565 	0.0034096805 	0.001474035 	-1.6065344e-07 	0.0034082045 	-1.6559111e-07 	0.0017993612
0.86956522 	0.003422543 	0.0014723541 	-1.3580176e-07 	0.0034243413 	-2.5077158e-07 	0.00016453369
0.88043478 	0.0034213062 	0.0014661947 	-2.4059093e-07 	0.0034323311 	-3.8404328e-07 	0.0018059374
0.89130435 	0.0034041396 	0.0014534692 	-4.1251812e-09 	0.0034202934 	-8.3662818e-09 	0.0017420748
0.90217391 	0.003369056 	0.001433435 	-1.0425285e-07 	0.0033868435 	-2.2976548e-07 	0.00045735819
0.91304348 	0.0033171207 	0.0014092589 	-2.1171501e-07 	0.0033403024 	-4.7098861e-07 	0.0017595172
0.92391304 	0.0032478063 	0.0013808754 	-4.0060313e-07 	0.0032719778 	-9.2823718e-07 	0.0017114233
0.93478261 	0.0031598613 	0.0013409286 	-3.149618e-08 	0.003183114 	-7.6819703e-08 	0.0016571127
0.94565217 	0.0030440716 	0.0012972371 	-4.3913021e-07 	0.0030640842 	-1.2184166e-06 	0.0016085408
0.95652174 	0.0029089725 	0.0012500244 	-4.8213172e-08 	0.002921516 	-1.5059634e-07 	0.00033555728
0.9673913 	0.0027361231 	0.0011945453 	-4.3556014e-08 	0.0027444187 	-1.333122e-07 	0.0014554102
0.97826087 	0.0024816819 	0.0011094055 	-1.3488928e-08 	0.0024819035 	-5.025341e-08 	0.00028925029
0.98913043 	0.0016795381 	0.00078001492 	-2.4767613e-09 	0.0016771843 	-7.301863e-09 	0.00015913179
