0.37113402 	0.0018068078 	-0.0006737306 	-1.8594456e-06 	0.0014196867 	3.2417205e-06 	0.0012366216
0.3814433 	0.0031448137 	-0.0012451096 	-1.254381e-06 	0.0024969846 	2.0995506e-06 	0.0010506496
0.39175258 	0.0022691496 	-0.00062611703 	-5.5134445e-07 	0.0023047652 	-5.9492045e-07 	0.0013340912
0.40206186 	0.0021458122 	-0.00029729169 	-1.9323773e-07 	0.0027811076 	-6.6512016e-07 	0.0012171888
0.41237113 	0.0021147008 	-8.2457052e-05 	-9.0951885e-07 	0.0031448722 	-3.4923153e-06 	0.00019677776
0.42268041 	0.0020864979 	9.1325931e-05 	-1.7883181e-07 	0.003398438 	-6.8128835e-07 	0.00076533682
0.43298969 	0.0020489972 	0.00023245142 	3.9795384e-07 	0.0035383701 	5.022372e-08 	0.00081566071
0.44329897 	0.0020129664 	0.00033390845 	5.0610773e-07 	0.0035630422 	-4.8308878e-07 	0.00068956123
0.45360825 	0.0019777854 	0.00040358677 	2.6503443e-07 	0.0035421246 	-6.8731268e-07 	0.00055359333
0.46391753 	0.0019456051 	0.00044926355 	3.8725735e-08 	0.0035011883 	-2.1737872e-07 	0.00041478931
0.4742268 	0.001915645 	0.00047998326 	1.2253455e-07 	0.0034572947 	-8.4136425e-08 	7.3314924e-05
0.48453608 	0.0018893671 	0.0004997738 	9.2506377e-08 	0.003419924 	-1.3708362e-06 	0.00015498312
0.49484536 	0.0018658444 	0.00051562417 	4.9750177e-08 	0.00338624 	-2.8291026e-06 	3.680096e-05
0.50515464 	0.0018445119 	0.00052941996 	-2.7232884e-09 	0.0033567592 	-7.2904508e-07 	9.23768e-05
0.51546392 	0.0018263567 	0.00054149306 	-3.5380853e-09 	0.0033329097 	-9.4717242e-07 	0.00020111404
0.5257732 	0.0018104999 	0.00055277571 	-2.6172108e-08 	0.003312618 	-1.9320877e-06 	0.00030341242
0.53608247 	0.0017958791 	0.00056353016 	2.3401372e-07 	0.0032926534 	-1.1555578e-07 	1.2496043e-05
0.54639175 	0.0017838467 	0.00057413848 	-3.3456841e-08 	0.0032800817 	-1.8387646e-06 	0.00048907532
0.55670103 	0.0017721914 	0.00058423086 	1.317603e-07 	0.0032650616 	-6.7160687e-08 	0.00034699874
0.56701031 	0.0017623306 	0.00059450715 	-2.4630718e-08 	0.0032545513 	-1.2629638e-06 	0.00065108007
0.57731959 	0.0017526301 	0.00060425454 	1.7763959e-07 	0.0032411537 	-9.6321897e-08 	0.00040043271
0.58762887 	0.0017442971 	0.00061453342 	-1.97975e-08 	0.0032319494 	-1.2195588e-06 	0.00079117094
0.59793814 	0.0017359372 	0.00062423393 	3.319234e-07 	0.0032175228 	-1.9650374e-07 	0.00020190936
0.60824742 	0.0017287201 	0.00063469312 	-1.5103917e-08 	0.0032091008 	-1.6231516e-06 	0.00091112202
0.6185567 	0.001721564 	0.00064475201 	3.3234635e-07 	0.0031938886 	-2.1917054e-07 	0.00025185534
0.62886598 	0.0017150465 	0.00065524781 	2.2982709e-10 	0.00318384 	-5.3482311e-07 	0.0010127844
0.63917526 	0.0017091973 	0.00066614037 	5.2500348e-08 	0.0031700095 	-3.9069921e-08 	0.00092483244
0.64948454 	0.0017033662 	0.00067656341 	2.1444151e-07 	0.0031524764 	-1.5958395e-07 	0.00058489636
0.65979381 	0.001698537 	0.00068779831 	1.1273467e-08 	0.0031387895 	-1.2844739e-06 	0.001120926
0.67010309 	0.0016941345 	0.00069864525 	3.0529735e-07 	0.0031178647 	-2.5639688e-07 	0.00033564108
0.68041237 	0.0016898742 	0.00071019821 	1.558066e-08 	0.0031014715 	-1.3085055e-08 	0.0011366842
0.69072165 	0.0016869426 	0.00072215897 	3.2438788e-09 	0.0030821115 	-1.7196866e-07 	0.0011901712
0.70103093 	0.0016846496 	0.00073320385 	3.2161803e-07 	0.0030563388 	-3.0154855e-07 	0.00022756581
0.71134021 	0.0016828119 	0.00074597957 	3.3218335e-08 	0.0030364402 	-1.1197384e-06 	0.0012216243
0.72164948 	0.001682502 	0.00075800431 	1.9840969e-07 	0.0030100802 	-2.0336638e-07 	0.00052605371
0.73195876 	0.0016826454 	0.00077063998 	1.7515894e-08 	0.0029863241 	-1.7953477e-08 	0.0011748932
0.74226804 	0.0016845953 	0.00078364777 	3.302272e-08 	0.002960203 	-3.5876326e-08 	0.0010961872
0.75257732 	0.0016878414 	0.00079604095 	1.2782033e-07 	0.002931626 	-1.3886572e-07 	0.00070980393
0.7628866 	0.001692313 	0.00080955008 	1.4742739e-08 	0.0029057949 	-3.7281053e-07 	0.0012256131
0.77319588 	0.0016987075 	0.00082207075 	1.5884193e-07 	0.0028757812 	-1.7655996e-07 	0.00046500387
0.78350515 	0.001706352 	0.00083579014 	2.2738377e-08 	0.0028502107 	-5.4773701e-07 	0.0012086701
0.79381443 	0.0017160908 	0.00084851404 	1.2977599e-07 	0.0028209696 	-1.4204348e-07 	0.00048637497
0.80412371 	0.0017273184 	0.0008622803 	1.4697017e-08 	0.0027962593 	-3.4287065e-07 	0.0011818621
0.81443299 	0.0017406864 	0.00087526268 	5.5036256e-08 	0.0027697408 	-5.7079577e-08 	0.00082440976
0.82474227 	0.001755898 	0.0008888709 	2.2418423e-08 	0.0027459061 	-2.1281827e-08 	0.00098802196
0.83505155 	0.0017732676 	0.00090226669 	1.8595198e-08 	0.0027235199 	-3.7846241e-07 	0.0011334422
0.84536082 	0.0017926728 	0.00091535018 	1.2287367e-07 	0.0026997997 	-1.0417969e-07 	0.00012137976
0.8556701 	0.0018140344 	0.00092948933 	2.2499181e-08 	0.0026827657 	-4.2065601e-07 	0.0010883114
0.86597938 	0.0018372312 	0.0009430407 	8.9911365e-09 	0.0026647682 	-1.6390209e-07 	0.0010699825
0.87628866 	0.0018620329 	0.000956063 	9.7778925e-08 	0.0026455783 	-6.5344965e-08 	5.3142754e-06
0.88659794 	0.0018882009 	0.00096992945 	2.6441001e-09 	0.0026326843 	-5.5123352e-08 	0.0010160938
0.89690722 	0.0019146573 	0.00098248156 	1.8882614e-08 	0.0026175405 	-5.9554725e-07 	0.00099204669
0.90721649 	0.0019416735 	0.00099424118 	-4.3229391e-09 	0.0026009523 	-3.6282035e-07 	0.0009655442
0.91752577 	0.0019715662 	0.0010023751 	-8.5857782e-09 	0.002579528 	-8.110921e-08 	0.00093642204
0.92783505 	0.0020056523 	0.0010063172 	-9.2545361e-10 	0.0025504277 	-1.0788742e-08 	0.00077121295
0.93814433 	0.0020427548 	0.0010087343 	-1.8297992e-10 	0.0025142386 	-9.4281355e-09 	0.00075755486
0.94845361 	0.002081423 	0.0010141879 	-2.1885336e-08 	0.0024711442 	-1.5320394e-07 	0.00083557649
0.95876289 	0.0021211405 	0.0010131225 	-6.9284446e-08 	0.0024193146 	-6.0441611e-07 	0.00079824322
0.96907216 	0.0021687722 	0.001025398 	3.6853051e-08 	0.0023649242 	-4.8714722e-07 	0.00076240192
0.97938144 	0.0022264842 	0.0010497127 	1.471158e-07 	0.0023198393 	2.2754052e-07 	8.059621e-05
0.98969072 	0.0019757416 	0.00092374129 	-1.0251763e-06 	0.0019913065 	-2.235264e-06 	0.00062923195
