1.4270237e-19 	0.0023272676 	-1.5805758e-16 	-5.7449232e-23 	2.9026507e-19 	2.1089943e-33 	2.9365759e-19
0.010869565 	0.0023379596 	-0.00015434031 	1.7258333e-08 	0.0026431421 	-3.7947323e-06 	0.0015565988
0.02173913 	0.0023788418 	-0.00030522658 	1.141434e-08 	0.0026830255 	-4.5059167e-06 	0.0014564586
0.032608696 	0.0024448895 	-0.00045363364 	8.7434024e-09 	0.0027472664 	-1.4489765e-06 	0.0013654775
0.043478261 	0.0025326648 	-0.00059738027 	4.907843e-08 	0.002832417 	-3.3172504e-06 	0.0012919595
0.054347826 	0.0026386588 	-0.00073659337 	3.1300535e-08 	0.0029342457 	-3.8685123e-08 	0.00091174443
0.065217391 	0.0027674513 	-0.00087883373 	9.9238248e-08 	0.003056845 	-1.2650691e-07 	0.00030611018
0.076086957 	0.0028846408 	-0.00099400203 	7.847442e-09 	0.0031698906 	-1.0421497e-08 	0.00098226922
0.086956522 	0.003016048 	-0.0011120311 	3.2892326e-07 	0.0032940281 	-4.0343464e-06 	0.00097101741
0.097826087 	0.0031474014 	-0.001223264 	3.9466806e-07 	0.0034166329 	-3.3012751e-06 	0.00089561156
0.10869565 	0.0032775851 	-0.0013282232 	1.0276192e-07 	0.0035352244 	-1.4651816e-07 	0.00011125274
0.11956522 	0.0033971369 	-0.0014215261 	5.8915456e-07 	0.0036439829 	-3.5945274e-06 	0.00068700335
0.13043478 	0.0035088567 	-0.0015077944 	7.418099e-07 	0.0037422575 	-3.5097543e-06 	0.00059192409
0.14130435 	0.0036108365 	-0.0015863146 	1.6958042e-07 	0.0038293701 	-8.0234251e-07 	0.00046942444
0.15217391 	0.0036923665 	-0.00165113 	1.9195795e-06 	0.0038943252 	-7.3950662e-06 	0.00036562152
0.16304348 	0.0037675491 	-0.0017117935 	2.1874062e-08 	0.0039521208 	-3.1764804e-08 	0.00011577312
0.17391304 	0.0038108328 	-0.0017552114 	2.3726112e-06 	0.0039767008 	-7.9859856e-06 	0.00013827618
0.18478261 	0.0038491507 	-0.0017964896 	3.7008693e-07 	0.0039957715 	-1.1781128e-06 	2.5427708e-05
0.19565217 	0.0038520025 	-0.0018229672 	2.8883588e-06 	0.0039779969 	-9.1946305e-06 	9.6725343e-05
0.20652174 	0.003852747 	-0.0018487249 	2.0355733e-10 	0.0039580433 	-2.3007318e-10 	0.00019838496
0.2173913 	0.0038065776 	-0.0018532744 	3.9411792e-06 	0.0038903276 	-1.1693051e-05 	0.00029587692
0.22826087 	0.003760399 	-0.0018578189 	1.8029732e-07 	0.0038226001 	-5.3492257e-07 	0.00039218806
0.23913043 	0.0036669289 	-0.0018350877 	3.5950245e-06 	0.003708924 	-9.3116941e-06 	0.00045576587
0.25 	0.0035646585 	-0.0018066466 	1.6450597e-06 	0.0035870497 	-4.2609703e-06 	0.00053854986
0.26086957 	0.0034362629 	-0.0017597601 	1.6849128e-06 	0.0034410632 	-3.7511681e-06 	0.00055795682
0.27173913 	0.0032828269 	-0.0016934585 	4.7072852e-06 	0.003273079 	-1.0479959e-05 	0.00062505909
0.2826087 	0.0031229811 	-0.0016221625 	2.4930977e-08 	0.0030982314 	1.8178761e-08 	0.0001751939
0.29347826 	0.0029452401 	-0.0015299178 	4.4172151e-06 	0.0029124154 	-8.5092357e-06 	0.00064286864
0.30434783 	0.0027647724 	-0.0014330625 	2.963505e-06 	0.0027242171 	-5.7088373e-06 	0.00069363894
0.31521739 	0.0025797813 	-0.0013281155 	-4.5733639e-09 	0.0025328564 	3.3720274e-08 	0.00034388378
0.32608696 	0.0024097005 	-0.0012226414 	5.4244986e-06 	0.0023612623 	-9.209953e-06 	0.00064102268
0.33695652 	0.0022411028 	-0.0011168456 	1.8240686e-06 	0.0021910069 	-3.0969841e-06 	0.00067709078
0.34782609 	0.0020836723 	-0.0010120456 	-1.3783858e-08 	0.0020330621 	3.0931068e-08 	0.00035020989
0.35869565 	0.0019548768 	-0.00092004576 	4.2683575e-06 	0.0019056998 	-6.5461076e-06 	0.00059746068
0.36956522 	0.0018297002 	-0.0008293795 	1.6747718e-06 	0.0017815948 	-2.5684906e-06 	0.00062239191
0.38043478 	0.0017212134 	-0.0007454174 	-1.9711672e-08 	0.001673505 	2.2930988e-08 	0.00014760025
0.39130435 	0.0016374409 	-0.00067339503 	2.2444896e-06 	0.0015914879 	-3.026244e-06 	0.00055589009
0.40217391 	0.001560803 	-0.00060309561 	2.2214995e-06 	0.0015156683 	-2.9952464e-06 	0.00057340993
0.41304348 	0.0014922362 	-0.00053494593 	-2.1779517e-09 	0.0014469542 	-1.4168307e-08 	0.00019767137
0.42391304 	0.0014406675 	-0.00047481951 	3.1152978e-07 	0.0013961226 	-3.2745238e-07 	0.00053268457
0.43478261 	0.0014017441 	-0.00041550585 	3.236476e-06 	0.0013567898 	-3.4018956e-06 	0.00054539424
0.44565217 	0.0013628208 	-0.00035619219 	2.7710416e-07 	0.0013174569 	-2.9126724e-07 	0.00055810391
0.45652174 	0.0013376914 	-0.00029811273 	1.450015e-08 	0.0012904668 	-3.8817878e-08 	0.00013119827
0.4673913 	0.0013200409 	-0.00024379169 	1.0337779e-06 	0.0012723123 	-7.0715645e-07 	0.00054251141
0.47826087 	0.0013096264 	-0.00018861795 	2.146937e-06 	0.0012603266 	-1.4686137e-06 	0.0005520468
0.48913043 	0.0013011334 	-0.00013328945 	6.7792178e-09 	0.0012499713 	-1.026658e-08 	0.00045553721
0.5 	0.0013031968 	-7.7659261e-05 	2.2134938e-08 	0.0012494194 	-3.3521582e-08 	0.00022428441
0.51086957 	0.0013102329 	-2.2786658e-05 	1.1663105e-06 	0.0012548473 	-3.4364064e-07 	0.00057817345
0.52173913 	0.0013229476 	3.2465515e-05 	1.5446834e-06 	0.001265185 	-4.5512407e-07 	0.00058564196
0.5326087 	0.0013393221 	8.7881014e-05 	1.8642042e-08 	0.0012786517 	-1.5090131e-08 	0.00036043297
0.54347826 	0.0013632054 	0.00014458028 	2.0881853e-08 	0.0012998014 	-1.6903186e-08 	0.00036008832
0.55434783 	0.0013933065 	0.00020205797 	1.4989114e-06 	0.0013277185 	1.342932e-07 	0.0006430717
0.56521739 	0.0014268308 	0.00025936429 	6.5884364e-07 	0.0013585911 	5.9028321e-08 	0.00064920878
0.57608696 	0.0014666495 	0.00031624987 	4.4603173e-08 	0.0013947985 	-9.8684003e-09 	0.00010452457
0.58695652 	0.0015108712 	0.00037513067 	1.2600026e-07 	0.001437528 	5.6270353e-08 	0.00072818209
0.59782609 	0.0015626616 	0.00043325063 	1.4885298e-06 	0.0014870592 	6.647613e-07 	0.00073339991
0.60869565 	0.0016166781 	0.00049101515 	1.9869756e-08 	0.0015384101 	6.743487e-09 	0.00045751304
0.61956522 	0.0016769567 	0.00054952393 	1.842019e-08 	0.0015969055 	6.2515267e-09 	0.00054235349
0.63043478 	0.0017429979 	0.00060826178 	1.5490811e-06 	0.0016619448 	1.2215203e-06 	0.0008399011
0.64130435 	0.001811457 	0.00066630415 	7.3014408e-09 	0.0017288322 	7.0694002e-09 	0.00070771236
0.65217391 	0.0018861273 	0.00072420351 	2.3127235e-08 	0.0018021731 	2.2392249e-08 	0.00046946215
0.66304348 	0.0019657379 	0.00078280709 	1.2445155e-06 	0.0018822267 	1.3940211e-06 	0.00096293553
0.67391304 	0.0020476447 	0.00084012647 	6.1790503e-09 	0.0019636581 	1.2372631e-08 	0.00077029867
0.68478261 	0.0021348764 	0.00089731702 	1.1839994e-08 	0.0020511046 	2.3707831e-08 	0.0006688333
0.69565217 	0.0022261494 	0.00095422058 	1.1163089e-06 	0.0021441537 	1.6192279e-06 	0.0010966535
0.70652174 	0.0023188612 	0.0010091003 	3.7902512e-09 	0.0022371991 	3.3791594e-08 	0.00051430326
0.7173913 	0.0024164007 	0.0010649993 	5.0076484e-08 	0.0023380146 	8.998306e-08 	0.0012318877
0.72826087 	0.0025148151 	0.0011176617 	3.6436664e-07 	0.0024391314 	6.5473498e-07 	0.0012346888
0.73913043 	0.0026138999 	0.0011679823 	-1.8557206e-08 	0.0025396443 	3.6650881e-08 	0.0002777173
0.75 	0.0027156377 	0.0012184191 	6.8089485e-07 	0.0026473303 	1.4904125e-06 	0.0013676284
0.76086957 	0.002814373 	0.0012643782 	-3.1202424e-08 	0.0027490444 	4.1378834e-09 	0.0006084584
0.77173913 	0.002914136 	0.0013094687 	1.5958606e-07 	0.002855597 	4.3085721e-07 	0.0014911876
0.7826087 	0.0030085496 	0.0013497611 	-1.0335611e-08 	0.0029552307 	-5.5516506e-09 	0.0013142268
0.79347826 	0.0031003266 	0.0013870887 	-5.0517549e-09 	0.0030535625 	-2.7134902e-09 	0.0015050143
0.80434783 	0.0031844231 	0.0014195979 	2.905127e-08 	0.0031443441 	1.0566223e-07 	0.0015999677
0.81521739 	0.0032622506 	0.0014477257 	-1.7605988e-08 	0.0032287744 	-1.6888665e-08 	0.0014187246
0.82608696 	0.0033305216 	0.001471061 	4.4351616e-09 	0.0033046753 	3.9793183e-08 	0.0016857065
0.83695652 	0.003389324 	0.0014891016 	-2.8108528e-09 	0.0033709952 	4.1510308e-09 	0.0017466364
0.84782609 	0.0034342334 	0.0015006813 	-3.8548693e-08 	0.0034223388 	-5.9268577e-08 	0.0012852866
0.85869565 	0.0034670466 	0.0015069061 	-1.706318e-07 	0.0034634932 	-1.4153144e-07 	0.0017836372
0.86956522 	0.0034843372 	0.0015058873 	-1.4123568e-07 	0.0034846298 	-2.4830935e-07 	0.00014949329
0.88043478 	0.0034867143 	0.0014999211 	-2.5220149e-07 	0.0034968805 	-3.7415628e-07 	0.0017961579
0.89130435 	0.0034723488 	0.001486771 	-5.4540838e-09 	0.0034885353 	-9.9826087e-09 	0.0017856933
0.90217391 	0.0034378882 	0.0014656218 	-1.1236403e-07 	0.0034562581 	-2.400258e-07 	0.00045263313
0.91304348 	0.0033851916 	0.0014396354 	-2.3461783e-07 	0.0034096359 	-5.0489655e-07 	0.0017549568
0.92391304 	0.0033129634 	0.001408289 	-4.4826446e-07 	0.0033390369 	-1.0146437e-06 	0.0017063759
0.93478261 	0.0032200084 	0.0013649622 	-5.7294342e-08 	0.0032455799 	-1.3708131e-07 	0.0016501495
0.94565217 	0.0030969226 	0.0013168969 	-4.7805863e-07 	0.0031193807 	-1.2986436e-06 	0.001599237
0.95652174 	0.0029520609 	0.0012647408 	-5.5760126e-08 	0.0029668042 	-1.7017817e-07 	0.00032875802
0.9673913 	0.0027665469 	0.0012039027 	-5.4936145e-08 	0.002776385 	-1.6717604e-07 	0.0014369441
0.97826087 	0.0024965781 	0.0011135802 	-1.6147129e-08 	0.0024974892 	-5.9650647e-08 	0.00028275142
0.98913043 	0.001680714 	0.00078029102 	-3.1202516e-09 	0.0016784555 	-9.0731655e-09 	0.00016469159
