0.4742268 	0.00098730278 	-0.00038001174 	6.9922037e-09 	0.00098580489 	-1.5751546e-08 	0.0002910906
0.48453608 	0.0048790674 	-0.0022474092 	9.2694278e-10 	0.004861592 	-1.478644e-09 	0.0016712837
0.49484536 	0.0045706972 	-0.002115861 	1.2742669e-06 	0.0045381903 	-2.9039732e-06 	0.0016395228
0.50515464 	0.0039528302 	-0.0018270498 	6.8757391e-08 	0.0039070145 	-1.487559e-07 	0.0014607869
0.51546392 	0.0033312598 	-0.00153616 	7.8671163e-07 	0.0032786382 	-1.6921318e-06 	0.0011509748
0.5257732 	0.0028279573 	-0.0012870613 	2.7743615e-06 	0.0027741683 	-4.8402493e-06 	0.0010082001
0.53608247 	0.0024926953 	-0.0010463753 	1.1289502e-06 	0.0024426476 	-1.4580177e-06 	0.00090118547
0.54639175 	0.0022872511 	-0.00084292509 	2.8487942e-07 	0.0022431313 	-2.876253e-07 	0.00082650084
0.55670103 	0.0021681275 	-0.00066377 	1.9780124e-07 	0.0021316801 	-1.4346908e-07 	0.00077806608
0.56701031 	0.0021030052 	-0.00050443891 	6.3067092e-07 	0.0020753478 	-3.2092098e-07 	0.00074940624
0.57731959 	0.0020708591 	-0.00036111902 	1.4294548e-06 	0.0020523864 	-4.9830303e-07 	0.00073512073
0.58762887 	0.0020589412 	-0.00023120834 	1.9279327e-06 	0.0020497146 	-4.5500287e-07 	0.00073104954
0.59793814 	0.0020596696 	-0.00011261561 	4.5335527e-07 	0.0020595135 	-7.3864394e-08 	0.00073413671
0.60824742 	0.0020694227 	-4.352955e-06 	-1.5140942e-07 	0.0020766813 	-1.2820706e-07 	2.7422364e-05
0.6185567 	0.0020836993 	9.2116282e-05 	6.3731041e-07 	0.0021004508 	-7.9520855e-08 	0.00074211554
0.62886598 	0.0021006037 	0.00018098368 	1.1300357e-06 	0.0021250205 	-1.3658032e-07 	0.00075307645
0.63917526 	0.0021187739 	0.00026335177 	-1.0082433e-07 	0.0021493114 	-1.1486636e-07 	0.00019509985
0.64948454 	0.0021365467 	0.00033651563 	7.6151762e-07 	0.0021746012 	-1.1731024e-07 	0.00076560025
0.65979381 	0.0021539615 	0.00040474446 	3.3066155e-07 	0.0021979737 	-7.6226617e-08 	0.00077834379
0.67010309 	0.0021700856 	0.00046696696 	-5.9834322e-09 	0.0022193642 	-8.0185029e-09 	0.00073598392
0.68041237 	0.0021846841 	0.00052313545 	7.3896386e-07 	0.0022386903 	-2.6612809e-07 	0.00079038948
0.69072165 	0.0021980062 	0.00057579944 	-4.9876581e-08 	0.0022554267 	-7.0531378e-08 	0.00037870619
0.70103093 	0.0022093294 	0.00062273099 	7.6071108e-07 	0.0022710031 	-4.2426228e-07 	0.00080096569
0.71134021 	0.0022195572 	0.00066713746 	-4.5110408e-08 	0.0022834368 	-6.6810734e-08 	0.00035295763
0.72164948 	0.0022279616 	0.00070643655 	5.4698686e-07 	0.002295035 	-4.7470896e-07 	0.0008096753
0.73195876 	0.0022353147 	0.00074326404 	-1.4488885e-08 	0.0023039856 	-2.2608962e-08 	0.00062799902
0.74226804 	0.0022416718 	0.00077700526 	2.8773008e-07 	0.0023119944 	-3.64117e-07 	0.0008162642
0.75257732 	0.0022470545 	0.00080820279 	4.6613576e-08 	0.0023182795 	-5.8988602e-08 	0.00081627618
0.7628866 	0.0022521591 	0.00083731269 	1.4364012e-07 	0.0023236888 	-2.4494423e-07 	0.00082102796
0.77319588 	0.0022566635 	0.0008644676 	5.1542016e-08 	0.0023280681 	-8.789271e-08 	0.0008210363
0.78350515 	0.0022614809 	0.00088987747 	1.2552642e-07 	0.0023321963 	-2.7694942e-07 	0.00082482803
0.79381443 	0.0022662114 	0.00091376633 	-1.8574537e-09 	0.0023356531 	-4.7864626e-09 	0.00073691087
0.80412371 	0.002272058 	0.00093656123 	1.7213632e-07 	0.002339949 	-4.4546331e-07 	0.00082853678
0.81443299 	0.002278526 	0.00095808205 	-2.5430706e-09 	0.0023429217 	-2.3661066e-08 	0.00010561023
0.82474227 	0.0022869711 	0.00097994356 	1.4469031e-07 	0.0023500197 	-3.8051943e-07 	0.00083290054
0.83505155 	0.0022973672 	0.0010013804 	2.5241353e-08 	0.0023572488 	-5.5397528e-08 	0.00083862108
0.84536082 	0.0023106312 	0.0010226984 	8.1364251e-09 	0.002366202 	4.2514127e-09 	0.00056315251
0.8556701 	0.0023288221 	0.0010454704 	1.5252937e-07 	0.0023805119 	-2.0785935e-07 	0.00084652495
0.86597938 	0.0023522678 	0.0010693377 	8.692507e-08 	0.0023990956 	-3.685292e-08 	0.00085751476
0.87628866 	0.0023832639 	0.0010944341 	3.4432407e-08 	0.0024235778 	4.443041e-08 	0.00031207752
0.88659794 	0.0024261378 	0.0011257064 	1.8496372e-08 	0.0024604154 	3.0713842e-08 	0.00062120119
0.89690722 	0.0024877747 	0.0011622394 	1.0179492e-07 	0.0025133912 	1.2126754e-07 	0.000894835
0.90721649 	0.0025772262 	0.0012016829 	2.4823185e-07 	0.0025900742 	4.7552448e-07 	0.00092562539
0.91752577 	0.0027060797 	0.0012581526 	4.6210994e-07 	0.0027042238 	9.2590346e-07 	0.00096930974
0.92783505 	0.0028876123 	0.0013392939 	5.3696985e-07 	0.0028719992 	1.1106704e-06 	0.0010288009
0.93814433 	0.0031301738 	0.0014496869 	2.2324621e-07 	0.0031046134 	4.7124005e-07 	0.0011042422
0.94845361 	0.0034266257 	0.0015861622 	1.5326508e-07 	0.0033954284 	3.3197883e-07 	0.00020726894
0.95876289 	0.0037396379 	0.0017328957 	4.0658587e-07 	0.0037136377 	8.8662963e-07 	0.0013635558
0.96907216 	0.0040074113 	0.0018589738 	6.2874538e-08 	0.0039882921 	1.422673e-07 	0.0005177389
0.97938144 	0.0041563831 	0.0019149939 	-1.0824472e-08 	0.0041468742 	2.0027608e-08 	0.0014956966
0.98969072 	0.003652313 	0.0016933548 	-8.0251145e-07 	0.0036475203 	-1.819084e-06 	0.0013448458
