0.46067416 	0.0071273791 	-0.0026542139 	-3.3178267e-07 	0.0077031745 	1.1099523e-06 	0.0001103505
0.47191011 	0.0082519619 	-0.0029540915 	3.9234583e-07 	0.0087551734 	-1.0301395e-06 	0.00051080783
0.48314607 	0.0078408657 	-0.0027363425 	7.9626014e-07 	0.0081757461 	-2.1696117e-06 	0.00082885396
0.49438202 	0.0073371425 	-0.0025077112 	1.5536721e-06 	0.0075216256 	-4.4534411e-06 	0.0010735811
0.50561798 	0.0068291291 	-0.0022718862 	5.903482e-07 	0.0068826428 	-1.6630937e-06 	0.0012113042
0.51685393 	0.0063247693 	-0.0020481486 	3.1148032e-06 	0.0062628785 	-8.7823158e-06 	0.0013455118
0.52808989 	0.0058335676 	-0.0018334154 	2.6565566e-06 	0.005670499 	-7.4421205e-06 	0.0014301028
0.53932584 	0.0053605956 	-0.0016259281 	1.7473216e-06 	0.0051086201 	-4.8079287e-06 	0.0014680429
0.5505618 	0.0049123063 	-0.0014242519 	1.5930654e-06 	0.0045815651 	-4.2429069e-06 	0.0014639412
0.56179775 	0.0044964251 	-0.0012275035 	2.1447053e-06 	0.0040950139 	-5.4158265e-06 	0.0014244924
0.57303371 	0.0041210857 	-0.0010349818 	3.3580245e-06 	0.0036550806 	-7.7902729e-06 	0.0013590335
0.58426966 	0.0037930095 	-0.00084616562 	2.118351e-06 	0.0032662824 	-4.3438883e-06 	0.0012799486
0.59550562 	0.0035169468 	-0.0006615042 	3.6189078e-08 	0.0029300258 	-9.8975995e-08 	0.0010193974
0.60674157 	0.0033088108 	-0.00048331048 	8.7635714e-08 	0.0026579512 	-2.7800647e-07 	0.00076125299
0.61797753 	0.0031656328 	-0.00031060516 	2.4649898e-06 	0.0024526612 	-3.2745252e-06 	0.0011678704
0.62921348 	0.0030760029 	-0.00014176048 	9.3745908e-07 	0.002298036 	-8.2003191e-07 	0.0011294516
0.64044944 	0.0030475338 	2.1604262e-05 	1.1707225e-07 	0.0021987721 	-5.0259158e-07 	0.00050704904
0.65168539 	0.0030700849 	0.0001796298 	3.0907643e-06 	0.002160481 	-1.241801e-06 	0.0011396596
0.66292135 	0.0031277222 	0.00033457497 	7.3591004e-08 	0.0021557119 	-3.508769e-07 	0.00075735253
0.6741573 	0.0032239043 	0.00048322181 	1.3223599e-06 	0.0021985701 	8.63103e-08 	0.0011748474
0.68539326 	0.0033438544 	0.0006285318 	4.657382e-07 	0.0022719621 	2.4549727e-07 	0.0012388697
0.69662921 	0.0034887394 	0.00076770695 	5.36701e-07 	0.0023767275 	2.8290278e-07 	0.0012312252
0.70786517 	0.0036504224 	0.00090199294 	8.0161421e-07 	0.0025088196 	7.9620403e-07 	0.0013194718
0.71910112 	0.003824098 	0.0010287439 	5.610824e-07 	0.0026597519 	5.5729559e-07 	0.0013029998
0.73033708 	0.0040127109 	0.0011524105 	5.916503e-07 	0.0028339176 	8.7468045e-07 	0.001406625
0.74157303 	0.0042087288 	0.0012688697 	7.019517e-07 	0.0030227531 	1.0377472e-06 	0.001380558
0.75280899 	0.0044169711 	0.0013827171 	5.3521585e-07 	0.0032298105 	1.0524269e-06 	0.0014830403
0.76404494 	0.0046323537 	0.0014918582 	4.0917696e-07 	0.0034511845 	8.045891e-07 	0.0014472326
0.7752809 	0.0048558179 	0.001596885 	9.4353313e-07 	0.0036857109 	2.2892438e-06 	0.0015359771
0.78651685 	0.0050825738 	0.0016977751 	3.8604836e-08 	0.0039278018 	-1.9470114e-07 	0.0010892538
0.79775281 	0.0053162052 	0.0017957242 	1.658922e-06 	0.0041842959 	4.7206521e-06 	0.0015610345
0.80898876 	0.0055518697 	0.0018900407 	5.1923144e-08 	0.0044426892 	-2.6371642e-07 	0.00092695335
0.82022472 	0.0057905812 	0.0019823243 	5.3720124e-07 	0.0047141292 	1.7288333e-06 	0.0015561722
0.83146067 	0.0060317533 	0.0020716468 	1.0052899e-06 	0.0049884213 	3.5613667e-06 	0.0015915088
0.84269663 	0.0062735007 	0.0021586506 	2.0329527e-08 	0.0052657106 	-1.0476122e-07 	0.0012366299
0.85393258 	0.0065147245 	0.0022438724 	1.0692793e-07 	0.0055498946 	4.0833923e-07 	0.0015341417
0.86516854 	0.0067560164 	0.0023270604 	7.3887396e-07 	0.005835708 	2.9912163e-06 	0.0015325712
0.87640449 	0.0069956811 	0.0024088175 	8.5953253e-07 	0.0061234353 	3.6390133e-06 	0.0015165951
0.88764045 	0.0072329259 	0.0024892343 	4.8340291e-07 	0.0064126107 	2.1159385e-06 	0.0014868496
0.8988764 	0.0074668318 	0.002568481 	2.9361834e-07 	0.0067026397 	1.3156629e-06 	0.0014442009
0.91011236 	0.0076963991 	0.0026467692 	2.5794066e-07 	0.0069928821 	1.1734579e-06 	0.0013896257
0.92134831 	0.0079204553 	0.0027242733 	3.5275132e-07 	0.0072825693 	1.6194171e-06 	0.0013241261
0.93258427 	0.0081372627 	0.0028010328 	5.5887007e-07 	0.0075704623 	2.5705091e-06 	0.0012486486
0.94382022 	0.008343459 	0.0028764199 	3.4508084e-07 	0.0078538102 	1.6157737e-06 	0.0011640612
0.95505618 	0.0085310528 	0.0029529536 	1.8805731e-08 	0.008124082 	-2.0002458e-08 	0.00046660686
0.96629213 	0.0086597067 	0.0029965082 	-6.1521351e-09 	0.0083480227 	4.6713855e-07 	0.00098051539
0.97752809 	0.0086470327 	0.0030060736 	-4.3878501e-07 	0.0084432693 	-9.0204182e-07 	0.00086472365
0.98876404 	0.0077855815 	0.0027410676 	-2.8311256e-06 	0.0077040263 	-8.3683899e-06 	0.00067513989
