0.4742268 	0.0028108233 	-0.00091681111 	1.5008249e-08 	0.0028067025 	-4.1739154e-08 	0.00080490366
0.48453608 	0.0090115994 	-0.0031981434 	2.8402323e-09 	0.008985313 	-5.9949096e-09 	0.0030803401
0.49484536 	0.0084095913 	-0.0030095526 	1.5475255e-06 	0.0083657351 	-4.8909743e-06 	0.0031706104
0.50515464 	0.0073591424 	-0.0026783169 	-3.8414287e-11 	0.0072989064 	1.3797901e-10 	0.0028501342
0.51546392 	0.006258407 	-0.0023246677 	1.0359294e-06 	0.0061873269 	-3.0616592e-06 	0.0022823659
0.5257732 	0.005118348 	-0.0019342218 	4.3617663e-06 	0.0050428069 	-1.2029576e-05 	0.0019398604
0.53608247 	0.0040906297 	-0.0015311582 	1.8005921e-06 	0.0040172039 	-4.3134048e-06 	0.0016014279
0.54639175 	0.0032727303 	-0.0011477885 	3.8386432e-07 	0.0032079879 	-7.8350083e-07 	0.0012997773
0.55670103 	0.002711656 	-0.00082223013 	2.1550601e-07 	0.0026608546 	-3.5444177e-07 	0.0010637959
0.56701031 	0.0023888601 	-0.00056424079 	8.5709505e-07 	0.0023539827 	-1.020603e-06 	0.00091229962
0.57731959 	0.0022323922 	-0.00036276327 	1.8399451e-06 	0.002212684 	-1.2909804e-06 	0.00083560758
0.58762887 	0.0021730384 	-0.0001909838 	2.3667884e-06 	0.0021674519 	-7.0189757e-07 	0.00081026317
0.59793814 	0.0021655928 	-4.0713447e-05 	4.7786041e-07 	0.0021729869 	-2.0274469e-08 	0.00081342464
0.60824742 	0.0021889592 	9.141033e-05 	-2.0324235e-07 	0.0022067147 	-5.7019002e-08 	2.9257847e-05
0.6185567 	0.0022272335 	0.00020744439 	6.9148166e-07 	0.0022571153 	8.5991637e-08 	0.00083235924
0.62886598 	0.0022752097 	0.00031411415 	1.2772003e-06 	0.0023148222 	3.1261845e-07 	0.00086117328
0.63917526 	0.00232925 	0.00041323981 	-1.2514015e-07 	0.0023765397 	-6.9169084e-08 	0.00021758688
0.64948454 	0.0023864703 	0.00050223059 	8.5863067e-07 	0.0024429038 	2.9142106e-07 	0.00089714758
0.65979381 	0.0024465819 	0.00058599355 	3.5418043e-07 	0.0025102487 	1.4866424e-07 	0.00093832232
0.67010309 	0.002508104 	0.00066302979 	-1.1921818e-08 	0.0025779299 	-7.2927771e-09 	0.00084469287
0.68041237 	0.0025709896 	0.00073380227 	8.7539016e-07 	0.0026464715 	4.3347596e-07 	0.00098387307
0.69072165 	0.0026346618 	0.00080058944 	-5.0502608e-08 	0.002713891 	-2.7303953e-08 	0.00044883935
0.70103093 	0.0026983277 	0.00086140405 	9.385274e-07 	0.0027824363 	5.4237379e-07 	0.0010331426
0.71134021 	0.0027632216 	0.00091946979 	-3.6670545e-08 	0.002849342 	-1.1468511e-08 	0.00043348103
0.72164948 	0.0028277456 	0.0009724152 	7.1004282e-07 	0.0029172478 	4.7685106e-07 	0.0010862865
0.73195876 	0.0028927 	0.0010226511 	-7.9341105e-09 	0.0029831841 	4.4773505e-09 	0.0008021475
0.74226804 	0.0029604783 	0.0010707692 	4.0519882e-07 	0.0030521453 	3.3547088e-07 	0.0011424258
0.75257732 	0.003028256 	0.0011162364 	4.4557666e-08 	0.0031198395 	3.6890036e-08 	0.0011425549
0.7628866 	0.0031008663 	0.0011612092 	2.3139401e-07 	0.0031914535 	2.4544185e-07 	0.0011994851
0.77319588 	0.0031754364 	0.0012048826 	6.9411787e-08 	0.0032642316 	7.362575e-08 	0.0011996238
0.78350515 	0.0032554642 	0.0012488835 	2.5822464e-07 	0.003341601 	3.3925656e-07 	0.0012573431
0.79381443 	0.0033388012 	0.0012924774 	1.0668833e-08 	0.0034211212 	2.2608967e-08 	0.0010694662
0.80412371 	0.0034307516 	0.0013381469 	4.733808e-07 	0.0035090432 	7.4391578e-07 	0.0013178221
0.81443299 	0.0035275664 	0.0013839683 	9.0324648e-08 	0.0035984981 	1.7994301e-07 	0.00016000911
0.82474227 	0.0036368655 	0.0014343703 	4.9969171e-07 	0.0037039236 	9.0480347e-07 	0.0013827214
0.83505155 	0.0037556073 	0.0014869538 	8.2329252e-08 	0.0038158956 	1.6692073e-07 	0.0014535656
0.84536082 	0.003888003 	0.0015430907 	5.712887e-08 	0.0039394702 	1.1894974e-07 	0.00092934376
0.8556701 	0.0040403209 	0.001605785 	6.3939773e-07 	0.0040841987 	1.4245634e-06 	0.001532456
0.86597938 	0.0042109928 	0.0016735241 	3.5160668e-07 	0.0042456719 	8.505318e-07 	0.0016203512
0.87628866 	0.0044047101 	0.0017472226 	1.3168507e-07 	0.0044274752 	3.0954373e-07 	0.00058473025
0.88659794 	0.0046289816 	0.00183014 	6.8675809e-08 	0.004642442 	1.7291175e-07 	0.0011644217
0.89690722 	0.0048887726 	0.0019223377 	2.9048305e-07 	0.0048930939 	8.1074017e-07 	0.0018284771
0.90721649 	0.005187248 	0.0020237315 	6.5392647e-07 	0.0051819517 	1.9452721e-06 	0.0019489321
0.91752577 	0.0055277835 	0.0021347996 	8.0306634e-07 	0.0055140093 	2.5343009e-06 	0.0020794499
0.92783505 	0.0059124431 	0.0022552163 	6.6276531e-07 	0.0058920344 	2.2081677e-06 	0.0022179796
0.93814433 	0.0063385442 	0.0023834605 	1.9120143e-07 	0.0063139979 	6.681491e-07 	0.002361305
0.94845361 	0.0067942471 	0.0025144563 	1.3056199e-07 	0.0067646752 	4.6429752e-07 	0.00041488471
0.95876289 	0.0072582644 	0.0026503356 	2.6805755e-07 	0.0072352225 	1.1544721e-06 	0.0027723216
0.96907216 	0.007675524 	0.0027491423 	5.3805854e-08 	0.0076532568 	2.0999556e-07 	0.00099028412
0.97938144 	0.0079394973 	0.0028135453 	-9.3285483e-09 	0.007926277 	5.7408078e-08 	0.0029991154
0.98969072 	0.0073310374 	0.0026083779 	-7.2326552e-07 	0.0073211133 	-2.2044389e-06 	0.0028115342
