4.1667976e-36 	0.0049137909 	-3.3371966e-16 	-1.2129826e-22 	2.2664578e-29 	9.0515097e-36 	6.00883e-35
0.010869565 	0.0053423581 	-0.0004289771 	2.6673211e-09 	0.0087650849 	-4.539115e-06 	0.0078061296
0.02173913 	0.005644815 	-0.00084016214 	5.6403223e-09 	0.008742493 	-1.630377e-06 	0.0070940957
0.032608696 	0.0059639402 	-0.0011997157 	-4.3547515e-07 	0.0088545646 	1.2220311e-07 	0.0034371295
0.043478261 	0.0065608295 	-0.0015860462 	4.3623928e-08 	0.0092718828 	-6.0442175e-06 	0.0061337346
0.054347826 	0.0070510397 	-0.0019120059 	-5.6535931e-07 	0.0097554707 	-1.0941082e-06 	0.00012494175
0.065217391 	0.0077945927 	-0.0022973809 	-1.4015186e-07 	0.010402868 	-7.3039169e-07 	0.0031018923
0.076086957 	0.0083832784 	-0.0025981654 	-1.0453852e-09 	0.010922719 	-1.7052541e-06 	0.00090720674
0.086956522 	0.0090248446 	-0.0029164619 	3.3528945e-07 	0.011449457 	-5.0595442e-06 	0.0043991498
0.097826087 	0.0095300934 	-0.0031739038 	1.9898623e-06 	0.011840809 	-1.7863082e-05 	0.003879242
0.10869565 	0.0099668608 	-0.0033976246 	6.5664062e-09 	0.012144601 	-4.2710398e-08 	0.0031751131
0.11956522 	0.010295228 	-0.0035661136 	1.1773556e-06 	0.01231021 	-7.3942584e-06 	0.0025282909
0.13043478 	0.010503802 	-0.0036817941 	5.3847877e-06 	0.012358164 	-2.6216368e-05 	0.001854128
0.14130435 	0.010646728 	-0.0037637494 	7.7812572e-08 	0.012333779 	-4.1687942e-07 	0.00028276192
0.15217391 	0.010648906 	-0.0037803946 	7.6376823e-06 	0.012174084 	-3.0996076e-05 	0.00049858006
0.16304348 	0.010609211 	-0.0037759517 	3.1671781e-06 	0.011977787 	-1.1297953e-05 	0.0001872205
0.17391304 	0.010469319 	-0.0037239585 	7.1967218e-06 	0.011698014 	-2.5672135e-05 	0.00079672699
0.18478261 	0.010297165 	-0.0036558363 	3.2058745e-06 	0.011391825 	-1.0464814e-05 	0.0013205196
0.19565217 	0.010059314 	-0.0035566832 	6.8974168e-06 	0.011039958 	-2.2514975e-05 	0.0018549403
0.20652174 	0.0098070641 	-0.0034503975 	9.9186562e-07 	0.010677114 	-3.0579456e-06 	0.0022173351
0.2173913 	0.0095182014 	-0.0033267268 	7.8799775e-06 	0.010300303 	-2.429416e-05 	0.0026740399
0.22826087 	0.0092469636 	-0.0032196428 	9.0600193e-07 	0.0099047849 	-4.084102e-07 	0.00081559106
0.23913043 	0.0089273613 	-0.0030747863 	8.8097661e-06 	0.0095533649 	-2.6324523e-05 	0.0032619114
0.25 	0.0086376207 	-0.0029563299 	5.6589228e-07 	0.0091775639 	-2.431515e-07 	0.002406666
0.26086957 	0.0083347223 	-0.0028253917 	2.4562083e-06 	0.0088368108 	-7.2710743e-06 	0.0036488429
0.27173913 	0.0080456732 	-0.0027042814 	2.7497573e-06 	0.0084984139 	-8.1400628e-06 	0.0039617624
0.2826087 	0.0077887867 	-0.0026128532 	1.539167e-06 	0.0081431175 	-5.7434812e-07 	0.0011794862
0.29347826 	0.0074938233 	-0.0024816791 	4.7521359e-06 	0.0078563443 	-1.4185048e-05 	0.0041202486
0.30434783 	0.0072344209 	-0.0023818966 	5.6544001e-07 	0.0075414827 	-1.664861e-07 	0.0034022475
0.31521739 	0.0069858263 	-0.0022913736 	1.1411911e-06 	0.007236838 	-3.3600817e-07 	0.0023851504
0.32608696 	0.0067203795 	-0.0021809232 	4.52929e-06 	0.0069716575 	-1.3755153e-05 	0.0043417357
0.33695652 	0.0064909319 	-0.0021022682 	1.3475929e-06 	0.0066714146 	-2.6982431e-07 	0.0024603894
0.34782609 	0.0062535992 	-0.0020153978 	1.3947148e-06 	0.0063985555 	-2.7925937e-07 	0.0022863169
0.35869565 	0.0060051109 	-0.0019138303 	3.4053966e-06 	0.006158477 	-1.0429103e-05 	0.0043501183
0.36956522 	0.0057929571 	-0.001840545 	1.3178615e-06 	0.0058812306 	-1.2025657e-07 	0.0026534215
0.38043478 	0.0055824428 	-0.0017666395 	2.1892051e-06 	0.0056151839 	-1.9976781e-07 	0.0013812693
0.39130435 	0.0053452329 	-0.0016662607 	1.109807e-06 	0.0054051645 	-3.2993483e-06 	0.0041850446
0.40217391 	0.0051494408 	-0.0015890441 	6.3128987e-07 	0.0051654149 	2.1288621e-08 	0.0034883123
0.41304348 	0.0049831863 	-0.0015282864 	3.368872e-06 	0.0048985178 	1.1360651e-07 	8.2708728e-05
0.42391304 	0.0047722916 	-0.0014318839 	9.191096e-07 	0.0047170682 	3.0994599e-08 	0.0028884494
0.43478261 	0.0045895136 	-0.0013452736 	1.0076928e-06 	0.0045281932 	-2.7072034e-06 	0.0039910177
0.44565217 	0.0044584496 	-0.0012757414 	2.0187374e-06 	0.0043184177 	3.4285246e-07 	0.001706961
0.45652174 	0.0043208851 	-0.0011989335 	2.6100813e-06 	0.0041341157 	4.4328341e-07 	0.00095300221
0.4673913 	0.004161306 	-0.0011076656 	4.2980727e-07 	0.0039921011 	7.2996358e-08 	0.0032433319
0.47826087 	0.0040478451 	-0.0010255684 	2.6240537e-07 	0.0038528638 	7.9230596e-08 	0.0034554116
0.48913043 	0.0039885838 	-0.00095268964 	2.4917884e-06 	0.0037125093 	7.5236979e-07 	0.0010958189
0.5 	0.0039089396 	-0.00086849164 	2.4035411e-06 	0.0035992412 	7.2572443e-07 	0.0011275405
0.51086957 	0.0038118298 	-0.00077459433 	3.2935482e-07 	0.0035091829 	9.944529e-08 	0.0032083396
0.52173913 	0.0037727177 	-0.00068875621 	6.6627265e-07 	0.0034319866 	2.7930187e-07 	0.0028679365
0.5326087 	0.0037757793 	-0.00060739317 	2.7272612e-06 	0.0033624031 	1.1432694e-06 	0.00072950129
0.54347826 	0.0037567522 	-0.00051165089 	2.0458324e-06 	0.0033188374 	8.5761406e-07 	0.0014261155
0.55434783 	0.0037271619 	-0.00040872669 	7.9509084e-08 	0.0032887638 	-6.6189343e-08 	0.0035338758
0.56521739 	0.0037653964 	-0.00031815028 	1.2860102e-06 	0.0032757572 	6.7146803e-07 	0.0021129068
0.57608696 	0.0038174208 	-0.00022847967 	3.0965666e-06 	0.0032674629 	1.6168188e-06 	0.0001010727
0.58695652 	0.003846005 	-0.00012019155 	1.0768671e-06 	0.0032940542 	5.6226756e-07 	0.0024247275
0.59782609 	0.0038945748 	-1.8219037e-05 	3.7372336e-07 	0.0033250033 	2.2761325e-07 	0.0031866056
0.60869565 	0.0039832708 	7.3440464e-05 	2.2088477e-06 	0.0033645199 	1.3452812e-06 	0.00081475638
0.61956522 	0.0040622557 	0.00017671036 	1.5844396e-06 	0.0034259114 	9.6499038e-07 	0.0017199783
0.63043478 	0.0041393661 	0.00028415429 	1.157114e-07 	0.0034989172 	1.7105734e-08 	0.0038952761
0.64130435 	0.004251534 	0.00037721212 	1.6343825e-06 	0.0035765219 	1.1054383e-06 	0.0013262549
0.65217391 	0.0043617722 	0.00047832797 	1.5950726e-06 	0.0036691912 	1.0788505e-06 	0.0014907773
0.66304348 	0.0044705098 	0.00058668025 	2.1562584e-07 	0.0037766313 	1.0665615e-07 	0.0041863316
0.67391304 	0.0045993018 	0.00068111778 	1.4539012e-06 	0.0038837483 	1.0574328e-06 	0.0013511217
0.68478261 	0.0047309864 	0.00078402126 	1.2508876e-06 	0.0040057523 	9.0977955e-07 	0.0018847074
0.69565217 	0.0048659964 	0.00089128281 	1.5632015e-07 	0.0041390624 	1.2039115e-07 	0.0041388418
0.70652174 	0.005007921 	0.00098682898 	1.5717692e-06 	0.0042697857 	1.21051e-06 	0.00069617808
0.7173913 	0.0051596852 	0.001095011 	6.6482889e-07 	0.004420098 	5.1202302e-07 	0.0031302634
0.72826087 	0.0053129407 	0.0011987729 	6.0309065e-07 	0.0045727187 	4.9089087e-07 	0.0030524634
0.73913043 	0.0054695284 	0.0012993007 	1.2932266e-06 	0.0047283136 	1.052633e-06 	0.001038965
0.75 	0.0056407837 	0.0014117027 	5.2294385e-08 	0.0049013667 	6.2028304e-08 	0.0052464223
0.76086957 	0.0058018073 	0.0015095356 	1.1977605e-06 	0.0050685242 	1.039521e-06 	0.00078017667
0.77173913 	0.0059837828 	0.0016212667 	3.3836058e-07 	0.0052542414 	2.9365881e-07 	0.0042713926
0.7826087 	0.0061577424 	0.001724144 	7.6341689e-07 	0.0054383109 	7.1865465e-07 	0.0021402348
0.79347826 	0.0063442887 	0.0018326992 	5.2084376e-07 	0.0056335598 	4.9030457e-07 	0.0034660654
0.80434783 	0.0065304901 	0.001938541 	5.4145777e-07 	0.0058327319 	5.6486633e-07 	0.0029844261
0.81521739 	0.0067227368 	0.0020453424 	5.1489436e-07 	0.0060393034 	5.3715452e-07 	0.0033286752
0.82608696 	0.0069166921 	0.0021505438 	4.7881413e-07 	0.0062507257 	5.6534246e-07 	0.003075216
0.83695652 	0.0071165709 	0.0022564909 	3.5961215e-07 	0.0064698506 	4.2459903e-07 	0.004122874
0.84782609 	0.007309706 	0.0023555799 	5.1845187e-07 	0.0066878518 	7.0571555e-07 	0.0021359212
0.85869565 	0.0075180569 	0.0024608125 	1.0200322e-07 	0.00691984 	1.3884655e-07 	0.0061463856
0.86956522 	0.0076960038 	0.0025455108 	5.4887181e-07 	0.0071326991 	8.8035743e-07 	0.00018972353
0.88043478 	0.0078952674 	0.0026399867 	8.5104533e-08 	0.0073642043 	1.7102359e-07 	0.0054901838
0.89130435 	0.0080633308 	0.0027150468 	1.3339019e-07 	0.0075739374 	2.6805705e-07 	0.0045565884
0.90217391 	0.008197816 	0.0027706175 	3.8766232e-08 	0.0077542399 	2.261378e-07 	0.00060130117
0.91304348 	0.0083177875 	0.0028209938 	-9.8984942e-08 	0.0079260899 	-1.2765521e-07 	0.0051769003
0.92391304 	0.0083782803 	0.0028451946 	-3.3186111e-08 	0.0080448368 	-4.2798225e-08 	0.0070932274
0.93478261 	0.0083302651 	0.002812614 	-2.2689811e-07 	0.0080577745 	-4.1399764e-07 	0.0050844728
0.94565217 	0.0081796702 	0.0027462489 	-6.4866841e-08 	0.0079779238 	-1.4427633e-07 	0.0074375064
0.95652174 	0.0078401778 	0.0026072808 	-1.1915401e-06 	0.0077069979 	-2.8468847e-06 	0.00044912042
0.9673913 	0.007268638 	0.0023973183 	-6.1640785e-07 	0.0072022551 	-1.6937569e-06 	0.0038396547
0.97826087 	0.0063029609 	0.0020766852 	-1.0644671e-06 	0.0062803459 	-3.3593046e-06 	0.00044748997
0.98913043 	0.0042360136 	0.001461518 	-6.1219593e-07 	0.0042304927 	-2.0229596e-06 	0.0005999083
