0.21649485 	4.5527812e-05 	-5.7302384e-06 	-2.3936008e-07 	3.6490721e-05 	1.0065286e-06 	1.2396413e-05
0.22680412 	0.0029596325 	-0.00065882321 	2.1552645e-08 	0.0023675742 	-1.026256e-08 	0.0011507344
0.2371134 	0.0018978648 	-9.7378918e-05 	1.2038546e-06 	0.0031429584 	1.3277974e-06 	0.00059967336
0.24742268 	0.0017135123 	-2.9067704e-05 	1.8212164e-08 	0.0030658932 	-1.9585671e-07 	0.00038877973
0.25773196 	0.0016528265 	-6.1772176e-05 	-3.2069632e-07 	0.0029375935 	-1.7023155e-06 	0.00019794574
0.26804124 	0.001618325 	-8.6688369e-05 	-2.6628588e-08 	0.0028645299 	-2.566579e-07 	3.559399e-05
0.27835052 	0.001593903 	-9.608283e-05 	9.5636384e-08 	0.002825308 	-9.8525974e-08 	8.7105153e-05
0.28865979 	0.0015718869 	-9.9727634e-05 	3.5043122e-07 	0.0027953131 	-3.2086895e-07 	0.00012570796
0.29896907 	0.001552812 	-9.9245016e-05 	-4.4121067e-09 	0.0027776498 	-1.1879525e-07 	0.00042230119
0.30927835 	0.0015354343 	-9.7014826e-05 	-1.5322797e-08 	0.0027638214 	-8.3900321e-07 	0.00055767553
0.31958763 	0.0015202839 	-9.2862428e-05 	2.3065419e-11 	0.0027557127 	-4.5592698e-07 	0.00068919126
0.32989691 	0.0015111861 	-9.0264105e-05 	1.4250755e-06 	0.002747252 	-8.4584528e-07 	0.00025778356
0.34020619 	0.0015033098 	-8.3771743e-05 	1.1612817e-06 	0.0027544138 	-5.8564387e-07 	0.00050083206
0.35051546 	0.0014953829 	-7.4501928e-05 	6.5461965e-08 	0.0027705696 	-3.3013004e-08 	0.0010434105
0.36082474 	0.0014976705 	-7.070915e-05 	2.5360727e-06 	0.0027734893 	-1.0958775e-06 	0.0001766783
0.37113402 	0.0014936552 	-5.9196183e-05 	7.1595369e-07 	0.0027998513 	-2.703677e-07 	0.00081824437
0.3814433 	0.0014959841 	-5.0817604e-05 	1.0907683e-06 	0.0028177328 	-4.1191006e-07 	0.00057571247
0.39175258 	0.0014979436 	-4.0171097e-05 	9.8541641e-07 	0.0028399506 	-3.3572765e-07 	0.00052877248
0.40206186 	0.001499461 	-2.7960755e-05 	1.4468415e-07 	0.0028684881 	-4.9293345e-08 	0.00077212996
0.41237113 	0.0015043274 	-1.6399919e-05 	7.4555617e-07 	0.0028897806 	-2.3994061e-07 	0.00044941924
0.42268041 	0.001507068 	-2.3199613e-06 	3.9836954e-08 	0.0029201834 	-1.9118005e-07 	0.00066308044
0.43298969 	0.001511157 	1.2018618e-05 	5.1054315e-08 	0.0029453804 	-1.6454218e-08 	0.00055706822
0.44329897 	0.0015162257 	2.6780946e-05 	4.9670685e-08 	0.002973441 	-1.8785595e-07 	0.00051039846
0.45360825 	0.0015207162 	4.2895704e-05 	1.5540846e-07 	0.0029994396 	-5.8775924e-07 	0.00043254594
0.46391753 	0.0015261189 	5.912708e-05 	1.1505289e-07 	0.0030262912 	-3.9494137e-08 	0.00032229165
0.4742268 	0.0015305586 	7.7252085e-05 	4.6335965e-07 	0.00305245 	-1.4411331e-06 	0.00030054982
0.48453608 	0.0015357927 	9.4956095e-05 	1.6636114e-07 	0.0030773381 	-6.4201379e-08 	0.00016249299
0.49484536 	0.0015403674 	0.00011510494 	4.5521846e-07 	0.0031033293 	-1.1895706e-06 	0.00017908682
0.50515464 	0.0015452502 	0.00013530722 	3.9578493e-07 	0.0031274708 	-1.0342597e-06 	0.00011994389
0.51546392 	0.0015502483 	0.00015630307 	1.5464743e-07 	0.0031513663 	-3.4637417e-07 	6.6283898e-05
0.5257732 	0.0015554564 	0.00017935712 	9.6519207e-07 	0.0031731695 	-2.1618051e-06 	1.738835e-05
0.53608247 	0.001560643 	0.00020227865 	3.6152791e-07 	0.0031953667 	-8.0973818e-07 	4.5216684e-05
0.54639175 	0.0015661612 	0.00022663101 	3.6413555e-07 	0.0032157602 	-7.1802035e-07 	9.3880289e-05
0.55670103 	0.0015721231 	0.00025306044 	1.2095725e-06 	0.0032344921 	-2.3850944e-06 	0.00013365432
0.56701031 	0.001578085 	0.00027948987 	3.0564956e-07 	0.003253224 	-6.026948e-07 	0.00017342835
0.57731959 	0.00158475 	0.00030686009 	3.1641943e-07 	0.0032689686 	-5.9138356e-07 	0.00021695487
0.58762887 	0.0015922028 	0.00033669708 	1.3334204e-06 	0.0032825739 	-2.4921444e-06 	0.00024513112
0.59793814 	0.0015996557 	0.00036653408 	4.3916217e-07 	0.0032961793 	-8.2078806e-07 	0.00027330737
0.60824742 	0.0016080849 	0.00039624817 	4.390251e-08 	0.00330752 	-8.8857686e-08 	0.00031360692
0.6185567 	0.0016199809 	0.00042829051 	1.1285393e-06 	0.0033126518 	-2.284138e-06 	0.00033032452
0.62886598 	0.0016318769 	0.00046033284 	6.0497105e-07 	0.0033177835 	-1.2244477e-06 	0.00034704212
0.63917526 	0.0016445848 	0.00049196559 	1.5533726e-07 	0.0033215991 	-1.5806742e-07 	0.00016671253
0.64948454 	0.0016631441 	0.00052403868 	8.4300365e-07 	0.0033185389 	-2.160755e-06 	0.00038838517
0.65979381 	0.0016834507 	0.00055529145 	5.3444425e-07 	0.003312439 	-1.3698672e-06 	0.00039464449
0.67010309 	0.0017045451 	0.00058641922 	1.2559738e-07 	0.0033062698 	-5.9546498e-08 	0.00022720195
0.68041237 	0.0017317428 	0.00061573927 	7.1575227e-07 	0.0032964795 	-2.4315671e-06 	0.00041862383
0.69072165 	0.0017611746 	0.00064341045 	2.7190558e-07 	0.0032832985 	-9.2372273e-07 	0.00041572761
0.70103093 	0.0017944343 	0.00066917309 	8.7961937e-08 	0.0032694806 	-3.0573256e-07 	0.00043405247
0.71134021 	0.0018309741 	0.00069561092 	6.87592e-07 	0.0032586498 	-2.389889e-06 	0.00042309286
0.72164948 	0.0018677876 	0.00072194982 	3.545061e-08 	0.0032476796 	1.7287494e-08 	0.00036004376
0.73195876 	0.0019096613 	0.00074981166 	4.6319343e-07 	0.0032446283 	-1.1713088e-06 	0.00041804414
0.74226804 	0.0019525281 	0.00077848308 	3.3201069e-07 	0.0032433537 	-8.3957808e-07 	0.00039998912
0.75257732 	0.0019994609 	0.00080786098 	1.684255e-07 	0.0032467207 	-2.7036096e-07 	0.00040068534
0.7628866 	0.0020509291 	0.00083943496 	6.3512438e-07 	0.0032573039 	-1.0195181e-06 	0.00037633592
0.77319588 	0.0021047451 	0.00087113069 	4.7993079e-08 	0.0032697109 	4.5374579e-08 	0.00027474804
0.78350515 	0.0021667117 	0.00090575704 	8.5333864e-07 	0.0032940846 	-6.9171225e-07 	0.00034105745
0.79381443 	0.0022304187 	0.00094009957 	1.342406e-07 	0.0033181775 	1.6186506e-07 	1.447938e-05
0.80412371 	0.00230419 	0.00097727641 	9.258627e-07 	0.0033573084 	-1.4945081e-07 	0.00029363044
0.81443299 	0.0023799048 	0.0010141469 	5.9847634e-08 	0.0033962457 	8.9247976e-08 	0.00010672226
0.82474227 	0.0024665065 	0.0010526708 	8.1474497e-07 	0.0034487715 	3.0645349e-07 	0.00023318875
0.83505155 	0.0025559722 	0.0010909969 	1.4996744e-07 	0.0035033558 	1.246676e-07 	0.00020364864
0.84536082 	0.0026541461 	0.0011294609 	5.2701603e-07 	0.0035669704 	4.3810726e-07 	0.00015892993
0.8556701 	0.002756803 	0.0011671896 	4.5369652e-07 	0.0036344484 	5.5495694e-07 	0.00011945979
0.86597938 	0.0028639767 	0.0012042683 	1.2056739e-07 	0.0037060268 	1.474768e-07 	7.0457297e-05
0.87628866 	0.002976257 	0.0012389769 	5.5182412e-07 	0.0037805778 	8.5969393e-07 	2.1025998e-05
0.88659794 	0.0030901455 	0.0012721165 	2.497248e-07 	0.0038552513 	4.5370354e-07 	4.7859374e-05
0.89690722 	0.0032055319 	0.0013029021 	1.4105607e-08 	0.0039289575 	2.5627266e-08 	0.00010328848
0.90721649 	0.0033197499 	0.0013295883 	1.5925485e-07 	0.0039963025 	3.0440063e-07 	0.00016580508
0.91752577 	0.0034310712 	0.0013531826 	1.5707208e-07 	0.0040559804 	2.3243256e-07 	0.00023230911
0.92783505 	0.003537814 	0.0013735074 	4.5430338e-08 	0.0041050318 	-9.6409303e-08 	0.00030164409
0.93814433 	0.0036364735 	0.001389104 	-7.2457404e-08 	0.0041394667 	-2.6009628e-07 	0.00037253672
0.94845361 	0.0037253368 	0.001395752 	-8.1253162e-08 	0.0041555639 	-3.0307934e-07 	0.00044280975
0.95876289 	0.0038134749 	0.0014025194 	-2.4232567e-08 	0.0041538626 	-1.9354874e-07 	0.00051257028
0.96907216 	0.003884724 	0.001407421 	-7.3839328e-08 	0.0041273794 	-5.0720801e-07 	0.00058385583
0.97938144 	0.0039005778 	0.0013987335 	7.4906745e-09 	0.0040353472 	4.300806e-08 	0.00019203847
0.98969072 	0.0032908147 	0.0012021753 	-2.6522632e-06 	0.0033226635 	-7.7383862e-06 	0.00059653713
