0.4742268 	0.0027541638 	-0.00089619634 	1.8157134e-08 	0.0027501959 	-5.0617458e-08 	0.00078980172
0.48453608 	0.0089746406 	-0.0031819219 	8.7032628e-09 	0.008951637 	-1.9322109e-08 	0.0030708831
0.49484536 	0.0084836827 	-0.0030272894 	1.1499987e-06 	0.0084482028 	-3.6090025e-06 	0.003967115
0.50515464 	0.0075695956 	-0.002738258 	-2.0536465e-08 	0.0075188114 	7.5234238e-08 	0.0029192471
0.51546392 	0.00660492 	-0.0024296443 	3.3423434e-07 	0.0065448495 	-9.9065819e-07 	0.003001655
0.5257732 	0.0055795173 	-0.002084631 	3.2516989e-06 	0.0055133569 	-9.4258648e-06 	0.0026201973
0.53608247 	0.0046050296 	-0.0017341977 	9.4510613e-07 	0.0045375041 	-2.4926563e-06 	0.0022267759
0.54639175 	0.0037592818 	-0.0013787186 	-3.8356957e-08 	0.00369482 	8.3976684e-08 	0.0016798373
0.55670103 	0.0031004011 	-0.0010485362 	-5.5030254e-08 	0.0030441858 	9.8364357e-08 	0.0013239606
0.56701031 	0.0026446773 	-0.00076571895 	3.6554931e-07 	0.0026007161 	-5.6340723e-07 	0.0012681994
0.57731959 	0.0023751354 	-0.00053491849 	1.5945897e-06 	0.0023447245 	-1.7334599e-06 	0.0011092723
0.58762887 	0.0022362097 	-0.00034622657 	2.1817705e-06 	0.0022191582 	-1.3386244e-06 	0.0010313198
0.59793814 	0.0021796786 	-0.00018154508 	1.3668469e-07 	0.0021753385 	-3.2546595e-08 	0.0010093098
0.60824742 	0.0021770539 	-3.6774145e-05 	-2.5194667e-07 	0.0021825407 	-1.5904924e-08 	2.8905802e-05
0.6185567 	0.0021994042 	9.0368096e-05 	4.2461291e-07 	0.0022172587 	3.5643812e-09 	0.0010197406
0.62886598 	0.0022394215 	0.00020630613 	1.0947767e-06 	0.002266918 	1.9894974e-07 	0.0010493452
0.63917526 	0.0022902541 	0.00031392587 	-1.6058423e-07 	0.0023249304 	-7.3982889e-08 	0.00021355413
0.64948454 	0.0023468507 	0.00041130058 	6.7628532e-07 	0.0023909696 	2.137077e-07 	0.0010921641
0.65979381 	0.0024091126 	0.00050336781 	1.332167e-07 	0.0024603785 	5.7302562e-08 	0.0011447936
0.67010309 	0.0024752864 	0.00058857771 	-3.9166324e-08 	0.0025321491 	-2.3746932e-08 	0.00083089288
0.68041237 	0.0025438402 	0.00066806885 	7.7861709e-07 	0.0026067687 	4.1756993e-07 	0.0012057004
0.69072165 	0.0026151689 	0.00074346112 	-6.947161e-08 	0.0026812816 	-3.9953501e-08 	0.00044347299
0.70103093 	0.0026869757 	0.00081337364 	9.146013e-07 	0.0027584394 	5.9081355e-07 	0.0012738569
0.71134021 	0.0027617804 	0.0008805355 	-4.8070265e-08 	0.0028346745 	-1.7774558e-08 	0.00043093389
0.72164948 	0.0028363234 	0.00094304264 	7.0007935e-07 	0.0029131539 	5.3364188e-07 	0.0013493387
0.73195876 	0.0029126214 	0.001002563 	-1.2650271e-08 	0.0029898281 	8.9072738e-09 	0.00080335636
0.74226804 	0.0029923547 	0.0010608935 	3.6235748e-07 	0.0030713788 	3.3506815e-07 	0.001430731
0.75257732 	0.0030727917 	0.0011160494 	1.5006873e-09 	0.0031513466 	1.0189606e-08 	0.0012510832
0.7628866 	0.0031593573 	0.0011715812 	1.6264692e-07 	0.0032374009 	1.8591752e-07 	0.0015147433
0.77319588 	0.0032486248 	0.0012255792 	3.7627155e-09 	0.0033247173 	1.0258616e-08 	0.001409327
0.78350515 	0.0033448084 	0.0012803005 	2.1491885e-07 	0.0034186323 	2.9750983e-07 	0.0016008921
0.79381443 	0.0034455845 	0.0013343934 	2.9298536e-08 	0.0035150838 	6.8744072e-08 	0.0010978657
0.80412371 	0.0035562921 	0.0013909254 	5.0216103e-07 	0.003622704 	8.2630677e-07 	0.0016915846
0.81443299 	0.0036736672 	0.0014471335 	1.1617556e-07 	0.0037322616 	2.659304e-07 	0.00016561237
0.82474227 	0.0038050868 	0.0015081905 	5.1338934e-07 	0.0038610033 	9.8042353e-07 	0.0017890629
0.83505155 	0.0039479785 	0.0015708828 	8.6997702e-09 	0.0039974917 	2.033953e-08 	0.0017918313
0.84536082 	0.004106487 	0.0016365852 	9.0020043e-08 	0.0041472774 	2.1948534e-07 	0.00097682833
0.8556701 	0.0042855957 	0.0017082303 	6.0185651e-07 	0.0043205357 	1.4483723e-06 	0.0020113819
0.86597938 	0.0044843157 	0.0017839245 	2.3514952e-07 	0.0045112749 	6.1894419e-07 	0.0021386098
0.87628866 	0.0047063382 	0.0018641214 	1.596653e-07 	0.0047219315 	4.329926e-07 	0.00062462961
0.88659794 	0.0049573049 	0.0019520504 	1.032411e-07 	0.0049655055 	2.9585411e-07 	0.0012439178
0.89690722 	0.0052393129 	0.002047024 	1.2912202e-07 	0.0052415311 	3.9262353e-07 	0.0024272474
0.90721649 	0.0055538219 	0.0021481547 	4.6536652e-07 	0.0055489822 	1.5014053e-06 	0.0025861744
0.91752577 	0.005900433 	0.0022554995 	5.7850676e-07 	0.0058898018 	1.9670082e-06 	0.0027519911
0.92783505 	0.0062773922 	0.0023681311 	4.2841345e-07 	0.0062626741 	1.5262605e-06 	0.0029212809
0.93814433 	0.0066787224 	0.0024841918 	8.9255722e-09 	0.0066619304 	3.3081334e-08 	0.0030898535
0.94845361 	0.0070897267 	0.0025982607 	1.2311102e-07 	0.0070676294 	4.5479149e-07 	0.00043433729
0.95876289 	0.0074940033 	0.0027158989 	1.1512045e-07 	0.0074796362 	5.3386176e-07 	0.0035420711
0.96907216 	0.0078366759 	0.002791901 	5.4246677e-08 	0.0078200109 	2.1044944e-07 	0.001008843
0.97938144 	0.008029185 	0.0028378053 	-1.3255244e-08 	0.0080204196 	-1.1921647e-08 	0.0037631058
0.98969072 	0.0073682873 	0.002620023 	-4.5561257e-07 	0.0073603042 	-1.3966044e-06 	0.0035029719
