0.4742268 	0.59195555 	7.1807945e-05 	-5.510228e-09
0.48453608 	1.0714119 	0.00017227682 	-1.5565795e-08
0.49484536 	1.1901604 	0.00036290068 	7.9891745e-07
0.50515464 	1.2616974 	0.00059060737 	-3.5830843e-08
0.51546392 	1.3094805 	0.00082339667 	3.4615732e-07
0.5257732 	1.3470741 	0.0010783877 	2.1235471e-06
0.53608247 	1.3767326 	0.0013300928 	7.0304688e-07
0.54639175 	1.399872 	0.0015697827 	-1.0147751e-08
0.55670103 	1.4168801 	0.0017732546 	-3.7221293e-08
0.56701031 	1.4281338 	0.0019147614 	1.8762329e-07
0.57731959 	1.434672 	0.0019875573 	1.2709033e-07
0.58762887 	1.4381047 	0.0020099461 	-4.527081e-07
0.59793814 	1.4396816 	0.0020007607 	-1.2565431e-07
0.60824742 	1.4399704 	0.0019678629 	-3.8236186e-07
0.6185567 	1.4395152 	0.001923793 	-3.6516896e-07
0.62886598 	1.4384663 	0.001868135 	-1.0745243e-06
0.63917526 	1.4369478 	0.0018030722 	-2.4235967e-07
0.64948454 	1.4350459 	0.0017330181 	-8.8705699e-07
0.65979381 	1.4328107 	0.0016567631 	-3.3744865e-07
0.67010309 	1.4302063 	0.0015738345 	-4.6373977e-08
0.68041237 	1.4273224 	0.0014878097 	-1.5029174e-06
0.69072165 	1.4241371 	0.0013962991 	-1.0067346e-07
0.70103093 	1.420734 	0.0013041927 	-2.0778528e-06
0.71134021 	1.4170248 	0.0012069305 	-7.171043e-08
0.72164948 	1.4131572 	0.0011112728 	-1.9120149e-06
0.73195876 	1.409057 	0.001013108 	-1.9563585e-08
0.74226804 	1.4046577 	0.000914247 	-1.1880209e-06
0.75257732 	1.4000965 	0.00081547162 	2.1174694e-10
0.7628866 	1.3951569 	0.00071651513 	-6.364567e-07
0.77319588 	1.3899827 	0.00061751884 	-1.6940467e-08
0.78350515 	1.3844771 	0.00052165177 	-7.3752346e-07
0.79381443 	1.3787137 	0.00042723086 	2.948239e-08
0.80412371 	1.3725316 	0.00033672361 	-1.3419905e-06
0.81443299 	1.3660953 	0.0002501552 	1.4700782e-07
0.82474227 	1.3590774 	0.00016741877 	-1.131089e-06
0.83505155 	1.3516923 	9.0699997e-05 	-2.6061774e-08
0.84536082 	1.3437233 	2.0889818e-05 	1.0977559e-07
0.8556701 	1.3350054 	-4.1062247e-05 	-7.5079665e-07
0.86597938 	1.3255887 	-9.4474642e-05 	-2.290129e-07
0.87628866 	1.3152679 	-0.00013764019 	2.1620114e-07
0.88659794 	1.3037113 	-0.00016995034 	1.3269725e-07
0.89690722 	1.29069 	-0.00018952469 	-3.9214377e-08
0.90721649 	1.2758544 	-0.00019546329 	4.5277604e-09
0.91752577 	1.2587514 	-0.0001881121 	1.1323016e-07
0.92783505 	1.238708 	-0.00016790646 	1.5110574e-07
0.93814433 	1.2148212 	-0.00013676719 	2.837769e-08
0.94845361 	1.1855795 	-9.8037569e-05 	1.9279283e-07
0.95876289 	1.1485092 	-5.7859158e-05 	9.1715428e-08
0.96907216 	1.0986804 	-2.2260829e-05 	8.1701519e-08
0.97938144 	1.0228875 	1.1408943e-06 	1.3894847e-08
0.98969072 	0.86443228 	1.2655323e-05 	3.9690362e-08
