0.37113402 	0.0044502393 	-0.0013847382 	-2.8309192e-06 	0.0036557218 	6.5035983e-06 	0.0031183524
0.3814433 	0.0052268612 	-0.0017858138 	-2.0344007e-06 	0.0042629862 	5.0718936e-06 	0.0017601761
0.39175258 	0.0025099766 	-0.00067702642 	-7.8932431e-07 	0.0023701294 	3.747561e-07 	0.0015323716
0.40206186 	0.0021201841 	-0.00028676478 	-2.1453023e-07 	0.0026588805 	-7.0975526e-07 	0.0012578057
0.41237113 	0.0019898418 	-3.8668547e-05 	-1.0997795e-06 	0.0030311685 	-3.5117118e-06 	0.00018067608
0.42268041 	0.0018917656 	0.00016492625 	-1.847125e-07 	0.0032298667 	-5.2737853e-07 	0.00069911612
0.43298969 	0.0018353057 	0.00029152514 	3.0374989e-07 	0.0032474503 	-2.8952882e-07 	0.00076641839
0.44329897 	0.0018010314 	0.00036205839 	2.7672325e-07 	0.0032192915 	-6.3942282e-07 	0.00063731493
0.45360825 	0.0017782371 	0.00040159109 	1.1232117e-07 	0.0031915497 	-5.3295144e-07 	0.00050667247
0.46391753 	0.0017618903 	0.00042723908 	1.6296007e-08 	0.0031725041 	-1.449411e-07 	0.00038029205
0.4742268 	0.0017502391 	0.00044692908 	1.1996954e-07 	0.0031600319 	-1.7546056e-07 	6.7210603e-05
0.48453608 	0.0017427301 	0.00046429629 	7.2434332e-08 	0.0031562779 	-8.61023e-07 	0.00014341795
0.49484536 	0.0017375972 	0.00048104307 	1.400165e-07 	0.0031554057 	-1.7524994e-06 	3.44639e-05
0.50515464 	0.0017341162 	0.00049746718 	3.607571e-08 	0.0031575986 	-4.5661513e-07 	8.6892891e-05
0.51546392 	0.0017325394 	0.00051351942 	4.6869417e-08 	0.0031629744 	-5.9323253e-07 	0.00018922773
0.5257732 	0.0017322568 	0.00052926539 	9.6455905e-08 	0.0031699444 	-1.2391318e-06 	0.00028960711
0.53608247 	0.0017326934 	0.00054471743 	1.9989298e-07 	0.0031763252 	-2.7256715e-07 	1.1990987e-05
0.54639175 	0.0017342303 	0.00056012688 	9.2709953e-08 	0.0031870937 	-1.2110019e-06 	0.00047376006
0.55670103 	0.0017362471 	0.00057519091 	1.1422511e-07 	0.0031956265 	-1.5353889e-07 	0.0003411213
0.56701031 	0.0017389622 	0.00059036315 	6.616114e-08 	0.0032065947 	-8.5142448e-07 	0.00064011676
0.57731959 	0.0017422742 	0.0006052855 	1.5719855e-07 	0.003215368 	-2.079925e-07 	0.00039969019
0.58762887 	0.00174615 	0.00062067357 	7.2286142e-08 	0.0032268096 	-8.3348455e-07 	0.00078978056
0.59793814 	0.0017508804 	0.00063589244 	3.0161025e-07 	0.0032344856 	-3.9136603e-07 	0.00020479381
0.60824742 	0.0017560593 	0.00065184925 	1.1633223e-07 	0.0032467748 	-1.1097578e-06 	0.00092437816
0.6185567 	0.0017624401 	0.00066789198 	3.1274972e-07 	0.0032541396 	-3.9435749e-07 	0.00025555058
0.62886598 	0.0017692873 	0.00068455112 	4.8568798e-08 	0.0032661542 	-3.5940919e-07 	0.0010462716
0.63917526 	0.0017773818 	0.00070191009 	5.1824248e-08 	0.0032752695 	-6.2253656e-08 	0.00095545228
0.64948454 	0.0017873592 	0.00071979145 	2.1167993e-07 	0.0032832914 	-2.5427961e-07 	0.00061719902
0.65979381 	0.0017977817 	0.00073841117 	1.4555702e-07 	0.0032941621 	-8.3631994e-07 	0.0011829572
0.67010309 	0.0018109044 	0.00075776637 	3.2201647e-07 	0.0033007675 	-3.5308782e-07 	0.00035424529
0.68041237 	0.0018248624 	0.00077839072 	1.643391e-08 	0.0033129927 	-1.8019617e-08 	0.0012305167
0.69072165 	0.0018409697 	0.00079991476 	2.5334151e-08 	0.0033229547 	-1.0444675e-07 	0.001288482
0.70103093 	0.0018613722 	0.00082238261 	3.7017936e-07 	0.0033309154 	-3.4459403e-07 	0.00025360203
0.71134021 	0.0018831399 	0.00084730687 	2.1720615e-07 	0.0033464174 	-5.9714732e-07 	0.0013621062
0.72164948 	0.001909097 	0.00087273734 	2.5320793e-07 	0.0033580921 	-1.7749439e-07 	0.00058658334
0.73195876 	0.0019383558 	0.00090041778 	2.2353561e-08 	0.0033765265 	-1.5669461e-08 	0.0013543349
0.74226804 	0.0019713695 	0.00092940134 	4.6959052e-08 	0.0033948311 	-1.915743e-08 	0.0012636919
0.75257732 	0.0020105334 	0.00096008217 	1.8176338e-07 	0.0034173271 	-7.4152248e-08 	0.00084906458
0.7628866 	0.0020526139 	0.0009929254 	1.1027389e-07 	0.0034451998 	-1.1116026e-07 	0.0014663104
0.77319588 	0.0021014437 	0.0010269784 	2.5109102e-07 	0.0034756025 	-1.8926539e-08 	0.00057913379
0.78350515 	0.0021547312 	0.0010637564 	1.9333011e-07 	0.0035143228 	-8.0646393e-08 	0.0015057861
0.79381443 	0.002216047 	0.0011001939 	1.9964272e-07 	0.003553122 	3.7026942e-08 	0.0006323313
0.80412371 	0.0022845469 	0.0011364889 	1.1078626e-07 	0.0035990048 	-1.8999951e-08 	0.0015369913
0.81443299 	0.0023650799 	0.001165683 	7.4839792e-08 	0.0036419481 	3.4788892e-08 	0.0011205623
0.82474227 	0.0024513066 	0.0011960401 	2.9219552e-08 	0.0036911217 	2.3687675e-08 	0.0013431511
0.83505155 	0.0025456154 	0.0012262355 	9.7670501e-08 	0.0037472591 	7.686522e-08 	0.0016085662
0.84536082 	0.002644221 	0.0012532566 	1.5040596e-07 	0.0038012166 	1.7128639e-07 	0.00017222594
0.8556701 	0.0027497449 	0.0012811065 	9.011832e-08 	0.0038687263 	1.3797251e-07 	0.0016078504
0.86597938 	0.0028588075 	0.00130526 	2.6032777e-08 	0.003933675 	6.4137105e-08 	0.0016388584
0.87628866 	0.0029701583 	0.0013261694 	9.1516893e-08 	0.0039935991 	1.5782728e-07 	8.0281677e-06
0.88659794 	0.0030856389 	0.0013471931 	4.9559676e-09 	0.0040629232 	2.0186889e-08 	0.0016067123
0.89690722 	0.0032008494 	0.0013637689 	8.069277e-09 	0.0041224983 	1.4480678e-07 	0.0016124698
0.90721649 	0.0033156881 	0.0013779773 	-1.889685e-08 	0.004176112 	1.5145978e-08 	0.0016067434
0.91752577 	0.0034294993 	0.0013900033 	-6.738044e-09 	0.0042215215 	-1.3653444e-08 	0.0015900244
0.92783505 	0.0035420457 	0.0014006282 	3.2871303e-09 	0.0042557735 	2.4463175e-09 	0.0013326962
0.93814433 	0.0036545661 	0.001411739 	4.9054778e-09 	0.0042793985 	2.2173149e-09 	0.0013299123
0.94845361 	0.0037702165 	0.00142973 	-4.5065497e-09 	0.0042935631 	-8.3242639e-08 	0.0014898137
0.95876289 	0.0038954677 	0.0014443733 	5.3564455e-08 	0.0043017452 	-2.4705318e-07 	0.001444121
0.96907216 	0.0040626648 	0.0014914179 	2.8540129e-07 	0.0043365166 	6.9040051e-08 	0.0014168401
0.97938144 	0.0043064603 	0.0015758408 	3.3760577e-07 	0.0044441931 	7.452678e-07 	0.00015444452
0.98969072 	0.0042590585 	0.0015661804 	-6.8652625e-07 	0.0042895099 	-2.3292829e-06 	0.0013395242
