0.4742268 	0.58879107 	6.8479029e-05 	-5.7933487e-09
0.48453608 	1.0666467 	0.00014906263 	-2.0883527e-08
0.49484536 	1.1844343 	0.00031338281 	6.1179292e-07
0.50515464 	1.2550895 	0.00050982897 	-5.9411352e-08
0.51546392 	1.302338 	0.00071041061 	1.1208567e-07
0.5257732 	1.3396465 	0.00093369118 	1.6726738e-06
0.53608247 	1.3693044 	0.0011560327 	4.1670822e-07
0.54639175 	1.3928195 	0.0013717086 	-8.1007426e-08
0.55670103 	1.4109148 	0.001567243 	-1.0927474e-07
0.56701031 	1.4238332 	0.0017205836 	9.2688956e-08
0.57731959 	1.4320098 	0.0018153821 	2.7544348e-07
0.58762887 	1.4367011 	0.0018579993 	-1.6540175e-07
0.59793814 	1.4391327 	0.0018641048 	-1.8806562e-08
0.60824742 	1.4399637 	0.0018427854 	-4.2210954e-07
0.6185567 	1.4399391 	0.001809369 	-1.9690021e-07
0.62886598 	1.4392136 	0.0017629074 	-8.0178583e-07
0.63917526 	1.4379532 	0.0017062621 	-2.7313074e-07
0.64948454 	1.4363007 	0.0016450031 	-6.2691836e-07
0.65979381 	1.4342761 	0.0015771804 	-1.0064877e-07
0.67010309 	1.4318391 	0.0015022922 	-7.1993104e-08
0.68041237 	1.4291372 	0.0014250333 	-1.1453905e-06
0.69072165 	1.4260801 	0.0013417032 	-1.1921831e-07
0.70103093 	1.4228241 	0.0012584019 	-1.6557418e-06
0.71134021 	1.4192046 	0.001169485 	-8.4550153e-08
0.72164948 	1.4154472 	0.0010825835 	-1.4902685e-06
0.73195876 	1.4114004 	0.00099284556 	-2.6431218e-08
0.74226804 	1.4070691 	0.00090274755 	-8.2827786e-07
0.75257732 	1.4025325 	0.00081277035 	3.8785295e-10
0.7628866 	1.3976174 	0.00072259728 	-3.4420352e-07
0.77319588 	1.3924349 	0.0006327938 	6.662788e-09
0.78350515 	1.3869119 	0.00054571433 	-4.6545379e-07
0.79381443 	1.3810971 	0.00046049511 	4.0932172e-08
0.80412371 	1.3748536 	0.00037864395 	-1.044594e-06
0.81443299 	1.3683194 	0.00030098812 	1.5540454e-07
0.82474227 	1.3611899 	0.00022663427 	-8.8200449e-07
0.83505155 	1.3536542 	0.0001583496 	1.9421874e-08
0.84536082 	1.3455052 	9.6397561e-05 	1.2827277e-07
0.8556701 	1.3365869 	4.1373892e-05 	-5.8635675e-07
0.86597938 	1.3269291 	-5.6267735e-06 	-1.4130853e-07
0.87628866 	1.3163199 	-4.3282019e-05 	2.258434e-07
0.88659794 	1.3044512 	-7.162233e-05 	1.5152319e-07
0.89690722 	1.2911106 	-8.9345924e-05 	-1.8725716e-08
0.90721649 	1.2759285 	-9.568041e-05 	-9.0319613e-09
0.91752577 	1.2584871 	-9.1599065e-05 	6.0007812e-08
0.92783505 	1.2381432 	-7.8022096e-05 	8.1268605e-08
0.93814433 	1.214025 	-5.7075693e-05 	6.3203437e-09
0.94845361 	1.1846589 	-3.1993042e-05 	1.7471334e-07
0.95876289 	1.1476469 	-7.8917845e-06 	3.3323805e-08
0.96907216 	1.0980602 	1.0770638e-05 	7.4365754e-08
0.97938144 	1.0227072 	1.8683675e-05 	1.3058793e-09
0.98969072 	0.86481416 	1.8080189e-05 	2.23071e-08
