0.36082474 	0.0073967901 	-0.0024008268 	6.8877944e-08 	0.0058946015 	-1.9541447e-07 	0.006022273
0.37113402 	0.0031028909 	-0.00097060564 	-5.4964872e-07 	0.002622921 	4.4611003e-07 	0.0021567372
0.3814433 	0.0022123163 	-0.00040290536 	-5.3689323e-07 	0.0025215186 	-1.3294589e-06 	0.00094990725
0.39175258 	0.0020301338 	-0.00010863063 	-5.7099892e-07 	0.0029845566 	-1.9416848e-06 	0.00056669194
0.40206186 	0.0019159229 	0.00010185286 	1.0879967e-06 	0.0032283756 	4.6626274e-07 	0.00076711481
0.41237113 	0.0018472809 	0.00023432223 	8.5209079e-07 	0.0032458715 	-5.7192446e-07 	0.00063698897
0.42268041 	0.0018041132 	0.0003036961 	4.6410651e-07 	0.0032139958 	-9.6638192e-07 	0.00049725882
0.43298969 	0.0017749435 	0.00034006892 	2.9996997e-07 	0.0031823025 	-1.3545753e-06 	0.0003571368
0.44329897 	0.0017536611 	0.00036330314 	1.9856893e-07 	0.0031598479 	-1.7928528e-06 	0.00022257408
0.45360825 	0.0017379696 	0.0003819079 	9.9967659e-08 	0.0031453197 	-1.1992489e-06 	9.4205055e-05
0.46391753 	0.0017263114 	0.00039896357 	3.1142181e-08 	0.0031371287 	-3.6646362e-07 	4.2705688e-05
0.4742268 	0.0017183856 	0.00041558616 	3.6308888e-08 	0.0031353857 	-4.2726251e-07 	0.00016354049
0.48453608 	0.0017132409 	0.00043209661 	1.3281251e-07 	0.0031376296 	-1.4529929e-06 	0.0002804027
0.49484536 	0.0017097026 	0.00044847799 	2.9592765e-08 	0.0031420618 	-3.1165594e-07 	0.00039627237
0.50515464 	0.0017078075 	0.00046463891 	3.7469682e-09 	0.0031492619 	-3.9461162e-08 	0.00049959493
0.51546392 	0.0017073849 	0.00048057076 	9.2637331e-08 	0.0031578227 	-9.608317e-07 	0.00060717555
0.5257732 	0.0017075442 	0.00049598527 	3.966494e-07 	0.0031645505 	-5.1818328e-07 	4.3343536e-05
0.53608247 	0.0017088029 	0.00051193476 	7.9849279e-08 	0.003177841 	-8.2195153e-07 	0.00080137513
0.54639175 	0.001710497 	0.00052703394 	3.4662436e-07 	0.0031861306 	-4.4793322e-07 	0.00028989095
0.55670103 	0.0017128326 	0.00054277382 	5.3444627e-08 	0.0031997337 	-5.3485972e-07 	0.00097980669
0.56701031 	0.001715745 	0.00055775149 	4.3150844e-07 	0.0032077616 	-5.5216007e-07 	0.00027189629
0.57731959 	0.0017190863 	0.00057372091 	6.4143318e-08 	0.003221908 	-5.8263152e-07 	0.0011437823
0.58762887 	0.0017233054 	0.00058896886 	6.1546539e-07 	0.0032284596 	-7.7936615e-07 	1.4876679e-05
0.59793814 	0.001727697 	0.00060545708 	4.3727211e-08 	0.0032434126 	-3.4031106e-07 	0.0012951645
0.60824742 	0.0017334036 	0.00062176799 	4.0317395e-07 	0.0032509824 	-5.0273012e-07 	0.00050835892
0.6185567 	0.0017394083 	0.00063865518 	1.9462694e-07 	0.0032624917 	-2.4268637e-07 	0.0010177816
0.62886598 	0.0017464004 	0.00065629552 	9.9535007e-08 	0.0032730213 	-1.2050726e-07 	0.0012499761
0.63917526 	0.0017554061 	0.00067431533 	5.5868449e-07 	0.0032790433 	-6.7640055e-07 	0.00026135393
0.64948454 	0.0017637548 	0.00069296075 	2.7847121e-08 	0.0032923536 	-1.4432404e-07 	0.001596674
0.65979381 	0.001775473 	0.00071255382 	3.5021645e-07 	0.0032985213 	-3.9741863e-07 	0.00075652961
0.67010309 	0.0017881303 	0.00073306997 	3.7693797e-07 	0.0033072602 	-4.2774169e-07 	0.0007413788
0.68041237 	0.0018011973 	0.00075456327 	3.5812484e-08 	0.003319165 	-1.4137497e-07 	0.0017280102
0.69072165 	0.0018193099 	0.00077664175 	5.2140419e-07 	0.0033244607 	-5.1985617e-07 	0.00032139949
0.70103093 	0.0018378694 	0.00080100531 	1.6839908e-07 	0.003337597 	-1.6789912e-07 	0.0013478232
0.71134021 	0.0018601013 	0.00082631938 	1.9558005e-07 	0.0033486601 	-1.5333585e-07 	0.001245675
0.72164948 	0.0018864919 	0.00085272965 	4.4313552e-07 	0.0033597563 	-3.4742072e-07 	0.00052984811
0.73195876 	0.0019140019 	0.00088139379 	6.0489647e-08 	0.003377792 	-1.182034e-07 	0.001912924
0.74226804 	0.0019493574 	0.00091070207 	5.3546662e-07 	0.003391767 	-2.6191438e-07 	0.00015424794
0.75257732 	0.0019858691 	0.00094297666 	2.5409617e-09 	0.0034171525 	-1.2428682e-09 	0.0019805977
0.7628866 	0.0020299819 	0.0009760063 	3.8367061e-07 	0.003439588 	-4.8059736e-08 	0.0005994487
0.77319588 	0.0020773489 	0.0010117047 	7.9891064e-08 	0.0034724843 	-1.0007395e-08 	0.0017586639
0.78350515 	0.0021318667 	0.0010486507 	3.0347851e-07 	0.0035048182 	7.3532866e-08 	0.00080342892
0.79381443 	0.0021912343 	0.0010890267 	6.5207129e-08 	0.0035481807 	1.5799692e-08 	0.0018457985
0.80412371 	0.0022628184 	0.0011212771 	2.871428e-07 	0.0035844212 	1.7087168e-07 	0.00067934101
0.81443299 	0.0023418921 	0.0011537989 	3.9661277e-08 	0.0036317264 	-1.2002655e-09 	0.0021865122
0.82474227 	0.002429271 	0.001182709 	3.3998643e-07 	0.0036739711 	3.2237851e-07 	0.00011564283
0.83505155 	0.0025225372 	0.001215655 	5.1281734e-08 	0.0037344994 	2.984686e-08 	0.0022364228
0.84536082 	0.0026230128 	0.0012430605 	1.5162848e-07 	0.0037902793 	1.9163161e-07 	0.0011679994
0.8556701 	0.0027280748 	0.0012703962 	1.3030203e-07 	0.0038525182 	2.0453253e-07 	0.0010841136
0.86597938 	0.0028384892 	0.0012970222 	9.0836133e-08 	0.0039222091 	1.7961745e-07 	0.0023399855
0.87628866 	0.0029515879 	0.0013192062 	7.9795374e-08 	0.0039849649 	1.5075799e-07 	0.0013629804
0.88659794 	0.0030667639 	0.0013396089 	1.0277246e-07 	0.0040469507 	2.3207907e-07 	0.00047280933
0.89690722 	0.0031842786 	0.0013593255 	1.0977275e-08 	0.0041138938 	2.9852406e-08 	0.0020580323
0.90721649 	0.0033006777 	0.0013748183 	-3.5431211e-09 	0.0041700206 	4.3106701e-08 	0.0024048708
0.91752577 	0.0034154591 	0.0013875098 	-1.3797793e-08 	0.0042164174 	-2.2155065e-08 	0.0024132549
0.92783505 	0.0035283917 	0.0013983223 	-2.8561102e-09 	0.004251961 	-1.0238135e-08 	0.0024074461
0.93814433 	0.0036397403 	0.0014083716 	-4.8550279e-10 	0.0042748573 	-5.6028101e-09 	0.0023892957
0.94845361 	0.0037509885 	0.0014234891 	-1.9280386e-08 	0.0042849586 	-1.2107463e-07 	0.0023617304
0.95876289 	0.0038675551 	0.0014305952 	-6.9982676e-10 	0.0042829161 	-1.8059254e-08 	0.0023226049
0.96907216 	0.0040107774 	0.0014680091 	6.0146927e-08 	0.0042949626 	-5.7541028e-08 	0.0023048141
0.97938144 	0.0042111551 	0.0015361487 	3.1055348e-07 	0.0043565424 	6.5483749e-07 	0.0010147074
0.98969072 	0.00410447 	0.0015088105 	6.9273316e-09 	0.0041376277 	1.8107697e-08 	0.0021916003
