1.640171e-35 	0.78168112 	-5.3087802e-14 	-1.9296011e-20
0.010869565 	0.78229184 	-0.00051126473 	4.4153333e-08
0.02173913 	0.7839419 	-0.0010142668 	2.8881733e-08
0.032608696 	0.78667641 	-0.0015114919 	2.863625e-09
0.043478261 	0.79044634 	-0.0019951116 	1.497468e-07
0.054347826 	0.79523006 	-0.0024685583 	5.5494284e-07
0.065217391 	0.80131109 	-0.0029488778 	6.4679061e-07
0.076086957 	0.80741307 	-0.003346739 	3.8563868e-07
0.086956522 	0.8146948 	-0.0037467163 	8.5651043e-07
0.097826087 	0.8226522 	-0.0041237578 	1.5028841e-06
0.10869565 	0.83123656 	-0.0044797642 	4.764572e-07
0.11956522 	0.84045744 	-0.0047970125 	1.6420966e-06
0.13043478 	0.85013476 	-0.0050876812 	2.9955399e-06
0.14130435 	0.86022576 	-0.0053558535 	1.8323523e-07
0.15217391 	0.87086781 	-0.0055762801 	6.4434839e-06
0.16304348 	0.88167175 	-0.0057842149 	6.547904e-07
0.17391304 	0.89300425 	-0.0059381625 	7.4022328e-06
0.18478261 	0.90437633 	-0.0060821066 	1.8295881e-06
0.19565217 	0.91609539 	-0.0061741651 	8.503764e-06
0.20652174 	0.92789725 	-0.0062575368 	3.3863908e-07
0.2173913 	0.9398964 	-0.0062830329 	1.1298952e-05
0.22826087 	0.95198767 	-0.0063046119 	3.7070742e-07
0.23913043 	0.96403482 	-0.0062720905 	1.0589799e-05
0.25 	0.97608815 	-0.0062314484 	2.5951443e-06
0.26086957 	0.98814233 	-0.0061545141 	4.1276979e-06
0.27173913 	0.99993954 	-0.0060533595 	9.4564006e-06
0.2826087 	1.0119146 	-0.0059368683 	8.3534345e-07
0.29347826 	1.0230592 	-0.0057970917 	9.8848627e-06
0.30434783 	1.0341901 	-0.0056481604 	3.9476278e-06
0.31521739 	1.0451715 	-0.0054794388 	3.8715579e-07
0.32608696 	1.0552312 	-0.00530549 	1.2125825e-05
0.33695652 	1.0652228 	-0.0051281706 	1.0382864e-06
0.34782609 	1.0747353 	-0.0049378268 	3.7402845e-07
0.35869565 	1.083279 	-0.0047550552 	1.0491066e-05
0.36956522 	1.0916694 	-0.0045706102 	1.1991564e-06
0.38043478 	1.0994379 	-0.0043814936 	6.1022122e-07
0.39130435 	1.1062951 	-0.0042057667 	5.7971087e-06
0.40217391 	1.1127444 	-0.0040294216 	3.989859e-06
0.41304348 	1.1186868 	-0.0038509911 	7.5026498e-07
0.42391304 	1.1239544 	-0.0036861815 	5.4064142e-08
0.43478261 	1.1283518 	-0.0035230278 	8.5374206e-06
0.44565217 	1.1325204 	-0.003359436 	1.9621209e-07
0.45652174 	1.1359054 	-0.0031981523 	6.7727183e-07
0.4673913 	1.1389003 	-0.0030476467 	1.8819466e-06
0.47826087 	1.1411681 	-0.0028974064 	4.8510456e-06
0.48913043 	1.1429933 	-0.0027465227 	3.8915769e-07
0.5 	1.1443155 	-0.0025967095 	5.6726792e-07
0.51086957 	1.1454053 	-0.0024503242 	2.2923622e-06
0.52173913 	1.1459098 	-0.0023061504 	2.7446075e-06
0.5326087 	1.1458754 	-0.0021627703 	4.8325098e-07
0.54347826 	1.1455654 	-0.0020170759 	4.2264143e-07
0.55434783 	1.1449871 	-0.0018710178 	3.4306481e-06
0.56521739 	1.1440435 	-0.001727665 	1.5166741e-08
0.57608696 	1.1425029 	-0.0015869219 	6.9000227e-07
0.58695652 	1.1409046 	-0.0014406311 	9.6695988e-08
0.59782609 	1.138876 	-0.0012979805 	2.7946012e-06
0.60869565 	1.1364854 	-0.0011575762 	3.7406751e-07
0.61956522 	1.1338409 	-0.0010143835 	2.9465349e-07
0.63043478 	1.1309146 	-0.00087110641 	3.7537562e-06
0.64130435 	1.127622 	-0.00073165791 	2.2197955e-07
0.65217391 	1.1240132 	-0.00059093762 	3.157417e-07
0.66304348 	1.120133 	-0.00044874445 	2.8950929e-06
0.67391304 	1.1158833 	-0.00031219128 	1.8690188e-07
0.68478261 	1.1113052 	-0.00017416476 	2.0786125e-07
0.69565217 	1.1064118 	-3.6669159e-05 	2.2243921e-06
0.70652174 	1.101151 	9.3394888e-05 	2.017065e-07
0.7173913 	1.095547 	0.00022779682 	4.4147922e-08
0.72826087 	1.0895953 	0.00035488829 	1.5255972e-08
0.73913043 	1.0832229 	0.00047473988 	1.1336912e-07
0.75 	1.0764577 	0.00059750528 	1.6986146e-06
0.76086957 	1.0693565 	0.00070665367 	-1.6097592e-08
0.77173913 	1.061795 	0.00081853355 	8.0735323e-08
0.7826087 	1.0538452 	0.00091432277 	-7.0330734e-08
0.79347826 	1.0454318 	0.0010069747 	-4.5647762e-08
0.80434783 	1.0366106 	0.0010873977 	-7.08657e-08
0.81521739 	1.0272891 	0.0011578432 	-1.1340316e-07
0.82608696 	1.0175232 	0.0012156151 	-1.1486347e-07
0.83695652 	1.007213 	0.0012610465 	-9.270028e-08
0.84782609 	0.99644537 	0.001288013 	-3.0560323e-07
0.85869565 	0.98502544 	0.0013031534 	-8.3821329e-08
0.86956522 	0.97320127 	0.0012940618 	-7.3197955e-07
0.88043478 	0.9604978 	0.0012717851 	-1.5571057e-07
0.89130435 	0.94717935 	0.0012247405 	-1.6049917e-07
0.90217391 	0.9331109 	0.0011560056 	-7.0758351e-07
0.91304348 	0.91790198 	0.0010681058 	-1.6337986e-08
0.92391304 	0.90157787 	0.00095519052 	-5.8518201e-07
0.93478261 	0.88385811 	0.0008251619 	-1.0196328e-07
0.94565217 	0.86229034 	0.00066947759 	-7.8249116e-07
0.95652174 	0.83720767 	0.00050612347 	-4.5970186e-07
0.9673913 	0.80355698 	0.00033504252 	-5.9959706e-08
0.97826087 	0.75039406 	0.0001756279 	-1.8368199e-07
0.98913043 	0.62209362 	6.8408991e-05 	-5.535509e-08
