0.4709558481 	0.006910473195 	1.421713423e-09 	-2.977960104e-13
0.4709558481 	0.006910473195 	1.421713423e-09 	-2.977960104e-13
0.4711314108 	0.01900189225 	1.757586745e-08 	-4.069849526e-12
0.4713069734 	0.03798342882 	6.534477589e-08 	-1.516920258e-11
0.471482536 	0.05694506571 	1.468917256e-07 	-3.385225503e-11
0.4716580986 	0.07588631008 	2.63084765e-07 	-5.994854785e-11
0.4718336613 	0.09480586275 	4.146293782e-07 	-9.313840449e-11
0.4720092239 	0.1137009373 	6.026639741e-07 	-1.332000624e-10
0.4721847865 	0.1325663537 	8.279588562e-07 	-1.799313007e-10
0.4723603491 	0.1513934506 	1.090122837e-06 	-2.331134534e-10
0.4725359118 	0.1701689054 	1.386962576e-06 	-2.925062e-10
0.4727114744 	0.1888736119 	1.714344372e-06 	-3.578506159e-10
0.472887037 	0.2074818178 	2.067020471e-06 	-4.288795715e-10
0.4730625996 	0.2259607652 	2.44048681e-06 	-5.053332585e-10
0.4732381623 	0.2442710623 	2.833137821e-06 	-5.86967745e-10
0.4734137249 	0.262367933 	3.247331002e-06 	-6.735471039e-10
0.4735892875 	0.2802033322 	3.688409373e-06 	-7.648419101e-10
0.4737648501 	0.2977287149 	4.163129348e-06 	-8.606692896e-10
0.4739404128 	0.3148980689 	4.680959915e-06 	-9.607592702e-10
0.4741159754 	0.3316707379 	5.249351032e-06 	-1.063810971e-09
0.474291538 	0.3480136142 	5.821405432e-06 	-1.166524773e-09
0.4744671006 	0.3639024565 	6.208961666e-06 	-1.280889206e-09
0.4746426632 	0.3793227489 	6.875137073e-06 	-1.402303884e-09
0.4748182259 	0.3942935428 	7.988801672e-06 	-1.510994519e-09
0.4749937885 	0.4088640514 	8.702900952e-06 	-1.624253999e-09
0.4751693511 	0.4230629242 	9.178596568e-06 	-1.74838296e-09
0.4753449137 	0.4368958674 	9.87730252e-06 	-1.872231098e-09
0.4755204764 	0.4503684069 	1.063682447e-05 	-1.997377768e-09
0.475696039 	0.4634871052 	1.140797515e-05 	-2.124572514e-09
0.4758716016 	0.4762594507 	1.21915524e-05 	-2.25367575e-09
0.4760471642 	0.4886936143 	1.298182851e-05 	-2.384436633e-09
0.4762227269 	0.5024510166 	1.390100974e-05 	-2.535100672e-09
0.4764955107 	0.5190575006 	1.511505474e-05 	-2.725875884e-09
0.4767734216 	0.5368142633 	1.651978122e-05 	-2.941028492e-09
0.4770565557 	0.5541585054 	1.797820734e-05 	-3.162953877e-09
0.4773450114 	0.5710959047 	1.950115405e-05 	-3.391545293e-09
0.4776388886 	0.5876339951 	2.109620726e-05 	-3.626668619e-09
0.4779382892 	0.6037818202 	2.276496952e-05 	-3.868184766e-09
0.4782433171 	0.6195495038 	2.450866862e-05 	-4.115967522e-09
0.4785540779 	0.6349478234 	2.632906137e-05 	-4.369905453e-09
0.4788706795 	0.6499878361 	2.822810336e-05 	-4.629900421e-09
0.4791932316 	0.6646807817 	3.020768818e-05 	-4.895852019e-09
0.4795218461 	0.6790392087 	3.226965764e-05 	-5.167674183e-09
0.4798566368 	0.6930775719 	3.441613072e-05 	-5.445324e-09
0.48019772 	0.7068102132 	3.664963763e-05 	-5.72877257e-09
0.4805452138 	0.7202499387 	3.897276391e-05 	-6.017982207e-09
0.4808992388 	0.7334086121 	4.138798539e-05 	-6.312925214e-09
0.4812599177 	0.7462976978 	4.389787109e-05 	-6.613592253e-09
0.4816273755 	0.7589283511 	4.650513079e-05 	-6.919985695e-09
0.4820017397 	0.7713114129 	4.921258779e-05 	-7.23211937e-09
0.48238314 	0.7834573919 	5.202317082e-05 	-7.550019157e-09
0.4827717088 	0.7953764511 	5.493991818e-05 	-7.873723057e-09
0.4831675807 	0.807078403 	5.796598366e-05 	-8.203281083e-09
0.4835708931 	0.8185727142 	6.110464286e-05 	-8.538755187e-09
0.4839817856 	0.8298685164 	6.43592992e-05 	-8.880219152e-09
0.4844004009 	0.8409746236 	6.773349013e-05 	-9.227758496e-09
0.4848268841 	0.8518995516 	7.123090916e-05 	-9.581470812e-09
0.485261383 	0.8626515332 	7.48554632e-05 	-9.94146653e-09
0.4857040484 	0.8732385206 	7.861117482e-05 	-1.030786318e-08
0.4861550336 	0.8836681583 	8.250203857e-05 	-1.068078567e-08
0.4866144951 	0.8939477298 	8.65322983e-05 	-1.106037844e-08
0.4870825921 	0.9040841295 	9.070663648e-05 	-1.144679798e-08
0.487559487 	0.9140838872 	9.50298688e-05 	-1.184020235e-08
0.4880453452 	0.9239532131 	9.950683803e-05 	-1.224075965e-08
0.4885403351 	0.9336980291 	0.0001041425838 	-1.264865029e-08
0.4890446283 	0.9433239889 	0.0001089423819 	-1.306406329e-08
0.4895583997 	0.9528364929 	0.0001139117118 	-1.348719609e-08
0.4900818274 	0.9622407018 	0.0001190562558 	-1.391825448e-08
0.4906150929 	0.971541548 	0.0001243819062 	-1.435745232e-08
0.4911583811 	0.9807437482 	0.0001298947705 	-1.480501111e-08
0.4917118805 	0.9898518132 	0.0001356011766 	-1.526115968e-08
0.4922757829 	0.9988700591 	0.0001415076767 	-1.572613387e-08
0.4928502838 	1.007802616 	0.0001476210519 	-1.620017621e-08
0.4934355824 	1.016653439 	0.0001539483164 	-1.668353565e-08
0.4940318817 	1.025426314 	0.0001604967209 	-1.717646726e-08
0.4946393885 	1.034124867 	0.0001672737563 	-1.76792319e-08
0.4952583133 	1.042752572 	0.0001742871566 	-1.8192096e-08
0.4958888709 	1.051312755 	0.0001815449016 	-1.871533122e-08
0.4965312797 	1.059808603 	0.0001890552185 	-1.924921409e-08
0.4971857627 	1.068243167 	0.0001968265835 	-1.979402567e-08
0.4978525466 	1.076619366 	0.0002048677217 	-2.035005106e-08
0.4985318627 	1.08493999 	0.0002131876075 	-2.091757896e-08
0.4992239466 	1.093207704 	0.0002217954622 	-2.149690097e-08
0.4999290382 	1.101425052 	0.0002307007522 	-2.208831094e-08
0.5006473819 	1.109594454 	0.0002399131827 	-2.269210413e-08
0.501379227 	1.117718216 	0.000249442686 	-2.330857596e-08
0.502124827 	1.125798535 	0.000259299424 	-2.393801907e-08
0.5028844406 	1.133837522 	0.0002694938607 	-2.458072211e-08
0.5036583311 	1.141837237 	0.0002800367243 	-2.523698857e-08
0.5044467669 	1.149799777 	0.0002909379048 	-2.59071565e-08
0.5052500214 	1.157727427 	0.0003022053789 	-2.659136001e-08
0.506068373 	1.166627494 	0.0003153630917 	-2.737883727e-08
0.507324668 	1.177407758 	0.0003320676514 	-2.836004624e-08
0.5085949819 	1.188938158 	0.00035088633 	-2.944470252e-08
0.5098794711 	1.200224592 	0.0003703024366 	-3.054421255e-08
0.5111782938 	1.211279625 	0.0003903251083 	-3.165834271e-08
0.5124916099 	1.222114993 	0.0004109594419 	-3.278645464e-08
0.5138195812 	1.232741352 	0.000432207205 	-3.392782196e-08
0.5151623712 	1.243168226 	0.0004540687592 	-3.508152362e-08
0.5165201452 	1.253404044 	0.0004765430152 	-3.624640923e-08
0.5178930705 	1.26345622 	0.0004996272045 	-3.742116978e-08
0.5192813161 	1.273331267 	0.0005233168354 	-3.860449325e-08
0.520685053 	1.283034924 	0.0005476057154 	-3.979526596e-08
0.522104454 	1.292572313 	0.0005724859773 	-4.099270498e-08
0.523539694 	1.301948096 	0.0005979480308 	-4.219621683e-08
0.5249909497 	1.311166619 	0.0006239803114 	-4.340482574e-08
0.5264583998 	1.320231951 	0.0006505692039 	-4.461656645e-08
0.527942225 	1.329147665 	0.0006777002322 	-4.582841833e-08
0.5294426081 	1.337916012 	0.000705352715 	-4.703068318e-08
0.5309597337 	1.346535891 	0.0007334825267 	-4.820537499e-08
0.5324937889 	1.35499983 	0.0007620132197 	-4.933535237e-08
0.5340449624 	1.363292263 	0.0007908331428 	-5.039852683e-08
0.5356134452 	1.371390664 	0.0008197859683 	-5.136585026e-08
0.5371994306 	1.379267925 	0.0008486772435 	-5.221923792e-08
0.5388031139 	1.386894203 	0.0008772889102 	-5.295591236e-08
0.5404246925 	1.394238038 	0.0009053802171 	-5.35776726e-08
0.5420643661 	1.401267119 	0.0009326856328 	-5.406915852e-08
0.5437223366 	1.407949104 	0.0009589246593 	-5.437350048e-08
0.5453988083 	1.414253306 	0.0009838300896 	-5.440688898e-08
0.5470939875 	1.42015455 	0.001007155786 	-5.412829634e-08
0.5488080831 	1.425641171 	0.001028650575 	-5.364007861e-08
0.5505413061 	1.430729356 	0.001048588172 	-5.348400007e-08
0.5522938699 	1.43548639 	0.001067377645 	-5.367615393e-08
0.5540659904 	1.440000207 	0.001084916736 	-5.385078687e-08
0.5558578859 	1.444310625 	0.001101630794 	-5.427583129e-08
0.5576697768 	1.448415684 	0.00111780591 	-5.472818854e-08
0.5595018865 	1.452307854 	0.001133090599 	-5.492010011e-08
0.5613544406 	1.455980137 	0.001147337972 	-5.499172848e-08
0.563227667 	1.459426546 	0.001160452427 	-5.493408427e-08
0.5651217966 	1.462642435 	0.001172326984 	-5.475113753e-08
0.5670370626 	1.465624812 	0.001182863465 	-5.446289857e-08
0.5689737009 	1.468372618 	0.001191980191 	-5.4088978e-08
0.5709319499 	1.470886918 	0.001199613078 	-5.364571264e-08
0.5729120508 	1.473170983 	0.001205716922 	-5.314729146e-08
0.5749142474 	1.475230239 	0.001210266377 	-5.260665616e-08
0.5769387863 	1.477072079 	0.001213255767 	-5.203588001e-08
0.5789859169 	1.478705532 	0.001214697514 	-5.144607461e-08
0.5810558911 	1.480140841 	0.001214619411 	-5.084713423e-08
0.583148964 	1.481388985 	0.00121306149 	-5.024755855e-08
0.5852653933 	1.482461252 	0.001210069853 	-4.96498681e-08
0.5874054395 	1.483368968 	0.001205690593 	-4.905852909e-08
0.5895693664 	1.484123739 	0.001199986501 	-4.849289012e-08
0.5917574402 	1.484738525 	0.001193047815 	-4.796624307e-08
0.5939699306 	1.485227982 	0.001184974325 	-4.748393425e-08
0.5962071099 	1.48560681 	0.001175871345 	-4.705480854e-08
0.5984692536 	1.485888045 	0.001165843898 	-4.667543755e-08
0.6007566404 	1.486082733 	0.001154980819 	-4.633552935e-08
0.6030695519 	1.486200203 	0.001143355559 	-4.602912656e-08
0.6054082729 	1.486248349 	0.0011310315 	-4.575159268e-08
0.6077730914 	1.486233857 	0.001118063278 	-4.549860103e-08
0.6101642987 	1.486162401 	0.001104497829 	-4.526631887e-08
0.6125821893 	1.486038803 	0.001090375541 	-4.505142956e-08
0.6150270608 	1.485867169 	0.00107573123 	-4.485106368e-08
0.6174992144 	1.485650996 	0.00106059496 	-4.466273573e-08
0.6199989545 	1.485393266 	0.001044992726 	-4.448428864e-08
0.622526589 	1.485096524 	0.001028947039 	-4.431384284e-08
0.625082429 	1.484762937 	0.001012477409 	-4.41497518e-08
0.6276667894 	1.484394355 	0.0009956007677 	-4.399056462e-08
0.6302799884 	1.483992347 	0.000978331813 	-4.38349953e-08
0.6329223478 	1.483558246 	0.0009606833138 	-4.368189736e-08
0.6355941931 	1.483093177 	0.0009426663636 	-4.353024294e-08
0.6382958531 	1.482598085 	0.0009242905992 	-4.337910531e-08
0.6410276607 	1.482073757 	0.0009055643887 	-4.322764401e-08
0.6437899523 	1.481520839 	0.0008864949928 	-4.307509228e-08
0.646583068 	1.480939857 	0.000867088705 	-4.292074623e-08
0.6494073518 	1.480331226 	0.0008473509724 	-4.276395554e-08
0.6522631514 	1.479695266 	0.0008272865012 	-4.260411546e-08
0.6551508186 	1.479032206 	0.0008068993489 	-4.244065989e-08
0.658070709 	1.4783422 	0.000786193006 	-4.227305547e-08
0.6610231822 	1.477625326 	0.0007651704673 	-4.210079637e-08
0.6640086017 	1.476881599 	0.0007438342958 	-4.192339986e-08
0.6670273351 	1.476110972 	0.0007221866806 	-4.174040236e-08
0.6700797543 	1.47531334 	0.0007002294883 	-4.155135598e-08
0.6731662352 	1.474488547 	0.0006779643106 	-4.135582551e-08
0.6762871577 	1.473636383 	0.0006553925077 	-4.115338558e-08
0.6794429063 	1.472756592 	0.0006325152498 	-4.094361822e-08
0.6826338695 	1.471848871 	0.000609333555 	-4.072611056e-08
0.6858604404 	1.470912868 	0.0005858483269 	-4.050045262e-08
0.6891230163 	1.46994819 	0.0005620603906 	-4.026623536e-08
0.6924219988 	1.468954393 	0.0005379705282 	-4.002304864e-08
0.6957577944 	1.467930993 	0.0005135795152 	-3.977047941e-08
0.6991308138 	1.466877454 	0.0004888881564 	-3.950810971e-08
0.7025414724 	1.465793195 	0.0004638973245 	-3.923551487e-08
0.7059901901 	1.464677585 	0.0004386079996 	-3.895226152e-08
0.7094773917 	1.463529938 	0.0004130213115 	-3.865790562e-08
0.7130035066 	1.462349514 	0.0003871385855 	-3.835199041e-08
0.7165689691 	1.461135516 	0.0003609613916 	-3.803404427e-08
0.7201742182 	1.45988708 	0.0003344915993 	-3.770357845e-08
0.7238196978 	1.458603275 	0.0003077314361 	-3.736008454e-08
0.727505857 	1.457283097 	0.0002806835509 	-3.700303236e-08
0.7312331497 	1.455925459 	0.0002533511032 	-3.663187018e-08
0.7350020349 	1.454532925 	0.0002258111867 	-3.624706504e-08
0.7387709215 	1.453116605 	0.0001983025413 	-3.585152616e-08
0.7424982157 	1.451688335 	0.0001710629071 	-3.544850089e-08
0.7461843763 	1.45025204 	0.0001441679714 	-3.503910968e-08
0.7498298574 	1.448807868 	0.0001176203085 	-3.462343155e-08
0.7534351078 	1.447355914 	9.142247772e-05 	-3.42015439e-08
0.7570005716 	1.445896223 	6.557706653e-05 	-3.377352422e-08
0.7605266877 	1.444428792 	4.008670855e-05 	-3.333945107e-08
0.7640138905 	1.442953573 	1.495409961e-05 	-3.289940508e-08
0.7674626093 	1.44147047 	-9.817986716e-06 	-3.245347028e-08
0.770873269 	1.439979342 	-3.422668546e-05 	-3.200173585e-08
0.7742462894 	1.438480003 	-5.826902827e-05 	-3.154429808e-08
0.777582086 	1.43697222 	-8.194193275e-05 	-3.108126272e-08
0.7808810695 	1.435455716 	-0.0001052421927 	-3.06127476e-08
0.7841436462 	1.433930167 	-0.0001281664692 	-3.013888568e-08
0.787370218 	1.432395203 	-0.0001507112833 	-2.965982844e-08
0.7905611821 	1.430850404 	-0.0001728730043 	-2.917574926e-08
0.7937169314 	1.429295302 	-0.0001946478335 	-2.868684649e-08
0.7968378547 	1.427729377 	-0.0002160318183 	-2.819335321e-08
0.7999243362 	1.426152056 	-0.0002370209806 	-2.769556088e-08
0.8029767561 	1.424562711 	-0.0002576111049 	-2.719377522e-08
0.8059954902 	1.422960655 	-0.0002777957922 	-2.668804698e-08
0.8089809102 	1.421345141 	-0.0002975673598 	-2.617858648e-08
0.8119333839 	1.419715355 	-0.0003169439454 	-2.566991645e-08
0.8148532749 	1.418070362 	-0.0003359063697 	-2.515741375e-08
0.8177409426 	1.416406677 	-0.0003544046447 	-2.463615336e-08
0.8205967427 	1.414716456 	-0.0003724630167 	-2.411233531e-08
0.8234210268 	1.412991371 	-0.0003900722457 	-2.357264523e-08
0.8262141429 	1.411226017 	-0.0004071731961 	-2.300666486e-08
0.8289764348 	1.409417436 	-0.000423740599 	-2.242038869e-08
0.8317082427 	1.40756412 	-0.0004397535312 	-2.181520285e-08
0.8344099031 	1.405665249 	-0.0004551866979 	-2.119237162e-08
0.8370817486 	1.403720157 	-0.0004700140778 	-2.055320567e-08
0.8397241082 	1.40172799 	-0.0004842104294 	-1.98989645e-08
0.8423373074 	1.399687524 	-0.0004977519404 	-1.923114488e-08
0.844921668 	1.397597106 	-0.0005106169085 	-1.85516354e-08
0.8474775082 	1.395454665 	-0.0005227861182 	-1.78624402e-08
0.8500051427 	1.393257741 	-0.0005342425302 	-1.716507764e-08
0.8525048829 	1.391003496 	-0.0005449702393 	-1.646004249e-08
0.8549770366 	1.3886887 	-0.0005549530075 	-1.57466116e-08
0.8574219081 	1.386309698 	-0.0005641728253 	-1.502307385e-08
0.8598397987 	1.383862405 	-0.0005726089397 	-1.428730549e-08
0.862231006 	1.381342312 	-0.0005802375665 	-1.353735422e-08
0.8645958245 	1.378744514 	-0.0005870321454 	-1.277175196e-08
0.8669345455 	1.376063739 	-0.0005929638668 	-1.198961496e-08
0.8692474569 	1.373294386 	-0.0005980023265 	-1.119068673e-08
0.8715348435 	1.37043057 	-0.0006021162828 	-1.037537996e-08
0.8737969871 	1.367466175 	-0.0006052745097 	-9.544819628e-09
0.8760341663 	1.364394919 	-0.0006074467443 	-8.700880993e-09
0.8782466565 	1.361210431 	-0.0006086047139 	-7.846215473e-09
0.8804347301 	1.357906345 	-0.0006087232227 	-6.984256341e-09
0.8825986568 	1.354476401 	-0.0006077812665 	-6.119197856e-09
0.8847387028 	1.350914559 	-0.000605763138 	-5.25594427e-09
0.8868551318 	1.347215118 	-0.0006026594821 	-4.400028866e-09
0.8889482045 	1.343372835 	-0.0005984682598 	-3.557506725e-09
0.8910181784 	1.339383048 	-0.0005931955854 	-2.73482747e-09
0.8930653087 	1.335241785 	-0.0005868564067 	-1.938694526e-09
0.8950898473 	1.330945873 	-0.000579475006 	-1.175915199e-09
0.8970920436 	1.326493026 	-0.0005710853049 	-4.532420546e-10
0.8990721441 	1.321881924 	-0.0005617309551 	2.227964719e-10
0.9010303927 	1.317112267 	-0.0005514651963 	8.460769568e-10
0.9029670306 	1.312184801 	-0.0005403504525 	1.411069603e-09
0.9048822962 	1.307101317 	-0.0005284576314 	1.913029452e-09
0.9067764254 	1.301864604 	-0.0005158650819 	2.348195492e-09
0.9086496514 	1.296478346 	-0.0005026571556 	2.714025284e-09
0.910502205 	1.29094696 	-0.0004889223111 	3.009503833e-09
0.9123343142 	1.285275349 	-0.000474750717 	3.235529893e-09
0.9141462048 	1.279468577 	-0.0004602313632 	3.39531205e-09
0.9159380997 	1.273531462 	-0.0004454484238 	3.494903835e-09
0.9177102197 	1.267468128 	-0.0004304772383 	3.542207899e-09
0.9194627831 	1.261281641 	-0.0004153825244 	3.544694267e-09
0.9211960055 	1.254973937 	-0.0004002192152 	3.509151753e-09
0.9229101006 	1.248546105 	-0.0003850340504 	3.441449068e-09
0.9246052793 	1.241998777 	-0.0003698684131 	3.3454655e-09
0.9262817504 	1.235332394 	-0.0003547611304 	3.223786501e-09
0.9279397204 	1.228547323 	-0.0003397493473 	3.078618215e-09
0.9295793934 	1.2216439 	-0.0003248685437 	2.911979502e-09
0.9312009714 	1.214622416 	-0.0003101525328 	2.725909937e-09
0.9328046541 	1.207483085 	-0.0002956333838 	2.522581627e-09
0.9343906389 	1.200225999 	-0.0002813412787 	2.304286608e-09
0.9359591211 	1.192851081 	-0.000267304354 	2.073365838e-09
0.937510294 	1.185358031 	-0.000253548564 	1.832138247e-09
0.9390443485 	1.177746283 	-0.00024009758 	1.58285409e-09
0.9405614735 	1.170014952 	-0.0002269727339 	1.327671777e-09
0.942061856 	1.16216279 	-0.000214193002 	1.068647595e-09
0.9435456805 	1.154188145 	-0.0002017750244 	8.077290298e-10
0.9450131299 	1.146088912 	-0.0001897331515 	5.467477404e-10
0.946464385 	1.137862495 	-0.0001780795117 	2.874123498e-10
0.9478996243 	1.129505754 	-0.0001668240958 	3.130276258e-11
0.9493190246 	1.121014962 	-0.0001559748523 	-2.201327511e-10
0.9507227608 	1.112385755 	-0.0001455377917 	-4.655774154e-10
0.9521110058 	1.103613074 	-0.0001355170958 	-7.038432902e-10
0.9534839303 	1.094691104 	-0.0001259152309 	-9.338668725e-10
0.9548417036 	1.085613214 	-0.0001167330591 	-1.154703776e-09
0.9561844929 	1.076371885 	-0.0001079699461 	-1.365522775e-09
0.9575124634 	1.066958643 	-9.962388561e-05 	-1.565597816e-09
0.9588257788 	1.057364 	-9.169170073e-05 	-1.754297172e-09
0.9601246008 	1.047577429 	-8.416909132e-05 	-1.931090406e-09
0.9614090893 	1.0375874 	-7.704950357e-05 	-2.095607109e-09
0.9626794024 	1.02738157 	-7.03237967e-05 	-2.247510845e-09
0.9639356968 	1.017839594 	-6.450879494e-05 	-2.374615525e-09
0.9647540487 	1.009960551 	-6.004061926e-05 	-2.468444044e-09
0.9655573034 	1.002939984 	-5.629369561e-05 	-2.544274282e-09
0.9663457395 	0.9958867066 	-5.274126939e-05 	-2.613644131e-09
0.9671196303 	0.9887983068 	-4.937696646e-05 	-2.676711264e-09
0.9678792442 	0.9816725324 	-4.619347186e-05 	-2.733604451e-09
0.9686248445 	0.9745071652 	-4.318301875e-05 	-2.784492661e-09
0.9693566897 	0.9672999568 	-4.033804451e-05 	-2.829554718e-09
0.9700750337 	0.9600485952 	-3.765122921e-05 	-2.868969435e-09
0.9707801255 	0.9527506884 	-3.511545559e-05 	-2.902915802e-09
0.9714722095 	0.9454037562 	-3.272380777e-05 	-2.931572829e-09
0.9721515258 	0.9380052262 	-3.046957879e-05 	-2.955118709e-09
0.9728183099 	0.9305524305 	-2.834627457e-05 	-2.973730035e-09
0.9734727929 	0.9230426041 	-2.634761568e-05 	-2.987581198e-09
0.9741152019 	0.9154728814 	-2.446753806e-05 	-2.996843878e-09
0.9747457596 	0.9078402937 	-2.270019292e-05 	-3.001686629e-09
0.9753646845 	0.9001417648 	-2.103994596e-05 	-3.002274525e-09
0.9759721914 	0.8923741073 	-1.948137571e-05 	-2.998768885e-09
0.9765684907 	0.8845340169 	-1.801927143e-05 	-2.99132706e-09
0.9771537895 	0.8766180676 	-1.664863033e-05 	-2.980102284e-09
0.9777282904 	0.8686227055 	-1.53646544e-05 	-2.965243602e-09
0.9782921928 	0.8605442422 	-1.416274674e-05 	-2.94689585e-09
0.9788456922 	0.8523788483 	-1.30385076e-05 	-2.925199699e-09
0.9793889805 	0.844122546 	-1.19877302e-05 	-2.90029176e-09
0.979922246 	0.8357712015 	-1.100639619e-05 	-2.87230475e-09
0.9804456737 	0.8273205174 	-1.009066926e-05 	-2.841367755e-09
0.9809594451 	0.8187660237 	-9.236888173e-06 	-2.80760652e-09
0.9814637383 	0.810103069 	-8.441577412e-06 	-2.771143149e-09
0.9819587281 	0.8013268083 	-7.701490908e-06 	-2.732095046e-09
0.9824445862 	0.7924321861 	-7.01346422e-06 	-2.690581128e-09
0.9829214811 	0.7834139039 	-6.374310479e-06 	-2.646722669e-09
0.9833895781 	0.7742663851 	-5.781198614e-06 	-2.600628246e-09
0.9838490396 	0.7649837814 	-5.231665102e-06 	-2.552400862e-09
0.9843000247 	0.7555600184 	-4.723202222e-06 	-2.502152418e-09
0.98474269 	0.7459888256 	-4.253336115e-06 	-2.449993212e-09
0.9851771888 	0.7362637401 	-3.819787883e-06 	-2.396028681e-09
0.9856036719 	0.7263780967 	-3.420413848e-06 	-2.340365076e-09
0.9860222871 	0.716325018 	-3.053177849e-06 	-2.28310943e-09
0.9864331796 	0.7060974039 	-2.716145486e-06 	-2.224369516e-09
0.9868364919 	0.6956879277 	-2.407479008e-06 	-2.164254158e-09
0.9872323637 	0.6850890358 	-2.125431043e-06 	-2.102873531e-09
0.9876209323 	0.674292954 	-1.868338408e-06 	-2.040339393e-09
0.9880023326 	0.6632917007 	-1.634615876e-06 	-1.97676529e-09
0.9883766967 	0.652077105 	-1.422752601e-06 	-1.91226662e-09
0.9887441544 	0.6406408279 	-1.23132163e-06 	-1.846960339e-09
0.9891048331 	0.6289743658 	-1.058992122e-06 	-1.780965137e-09
0.9894588579 	0.6170689522 	-9.044305693e-07 	-1.714405558e-09
0.9898063516 	0.6049149955 	-7.662918947e-07 	-1.647406233e-09
0.9901474347 	0.5925020606 	-6.43422145e-07 	-1.580083978e-09
0.9904822253 	0.5798203342 	-5.348678474e-07 	-1.512557825e-09
0.9908108397 	0.5668613713 	-4.396458695e-07 	-1.444954135e-09
0.9911333916 	0.5536173894 	-3.566939833e-07 	-1.377401636e-09
0.9914499931 	0.5400808481 	-2.849795327e-07 	-1.310031192e-09
0.9917607538 	0.5262445921 	-2.235131098e-07 	-1.242976825e-09
0.9920657815 	0.5121021174 	-1.713307196e-07 	-1.17637496e-09
0.9923651819 	0.497647862 	-1.275738851e-07 	-1.110363765e-09
0.992659059 	0.4828775047 	-9.168275825e-08 	-1.045082943e-09
0.9929475145 	0.4677882766 	-6.272110474e-08 	-9.806743894e-10
0.9932306485 	0.4523792799 	-3.582811678e-08 	-9.172814446e-10
0.9935085592 	0.4366517391 	-5.364858993e-09 	-8.550369906e-10
0.9937813429 	0.4219898307 	8.377139531e-09 	-7.991877636e-10
0.9939569055 	0.4098792627 	4.595733396e-10 	-7.546154431e-10
0.9941324681 	0.3989621063 	-1.001574394e-10 	-7.156265108e-10
0.9943080307 	0.3877776297 	2.243389896e-09 	-6.769566973e-10
0.9944835934 	0.3763218453 	-6.350420339e-08 	-6.38870528e-10
0.994659156 	0.3645910317 	-1.73669926e-07 	-6.003862867e-10
0.9948347186 	0.3525756002 	-5.117938175e-08 	-5.620336721e-10
0.9950102812 	0.340248889 	1.855168813e-07 	-5.255269996e-10
0.9951858439 	0.3275804072 	1.415638101e-07 	-4.892209233e-10
0.9953614065 	0.3145623006 	2.034882474e-08 	-4.527002666e-10
0.9955369691 	0.3012048754 	1.586667807e-08 	-4.171445353e-10
0.9957125317 	0.287524259 	1.848950398e-08 	-3.824143855e-10
0.9958880943 	0.2735421803 	7.836620439e-09 	-3.485242422e-10
0.996063657 	0.2592853341 	-1.053009053e-08 	-3.155799507e-10
0.9962392196 	0.2447842706 	-3.179283785e-08 	-2.836937722e-10
0.9964147822 	0.2300718966 	-5.24748788e-08 	-2.529693676e-10
0.9965903448 	0.2151817677 	-6.906796306e-08 	-2.235067432e-10
0.9967659075 	0.2001463894 	-7.883322548e-08 	-1.954055751e-10
0.9969414701 	0.184995748 	-8.077112518e-08 	-1.687667816e-10
0.9971170327 	0.1697562268 	-7.576451016e-08 	-1.436930351e-10
0.9972925953 	0.1544499854 	-6.597136604e-08 	-1.202880493e-10
0.997468158 	0.1390947899 	-5.391998207e-08 	-9.865514698e-11
0.9976437206 	0.1237042194 	-4.175157842e-08 	-7.889603958e-11
0.9978192832 	0.1082881382 	-3.084398298e-08 	-6.111043496e-11
0.9979948458 	0.09285331962 	-2.180620131e-08 	-4.539623636e-11
0.9981704085 	0.07740412042 	-1.469223392e-08 	-3.18493822e-11
0.9983459711 	0.06194312755 	-9.270159712e-09 	-2.056445316e-11
0.9985215337 	0.04647172709 	-5.246976125e-09 	-1.164544063e-11
0.9986970963 	0.03099056532 	-2.418426541e-09 	-5.23120001e-12
0.998872659 	0.01549988999 	-6.922964174e-10 	-1.405406204e-12
0.9990482216 	0.006527262343 	-8.27604125e-11 	-1.179009418e-13
