0.3443842407 	-0.001267312053 	0.000333839936 	7.056497345e-09
0.3446065432 	-0.003725546345 	0.0009792879201 	1.91056501e-08
0.3448288532 	-0.007315696066 	0.001920728884 	2.763794776e-08
0.3450511696 	-0.01077037971 	0.002826096268 	2.482278132e-08
0.3452734914 	-0.01408959706 	0.003695148866 	1.007915876e-08
0.3453683896 	-0.01544850237 	0.004050650446 	1.548727367e-05
0.3454955589 	-0.01727303011 	0.004527930943 	1.867164475e-08
0.3457174369 	-0.02032042524 	0.005324596566 	6.254748299e-08
0.3459393173 	-0.02323166113 	0.006085318586 	1.213457982e-07
0.346161199 	-0.02600643156 	0.006810221526 	1.957232811e-07
0.3463830811 	-0.02864434804 	0.007499407323 	2.863359897e-07
0.3466049627 	-0.03114492643 	0.008152954105 	3.938393485e-07
0.3468268426 	-0.03350757701 	0.008770913393 	5.188874978e-07
0.3470487201 	-0.03573159878 	0.009353308459 	6.621316781e-07
0.347270594 	-0.0378161794 	0.009900134334 	8.242172449e-07
0.3474924634 	-0.0397604025 	0.01041135971 	1.005778931e-06
0.3477143274 	-0.04156326395 	0.01088693105 	1.207433946e-06
0.347936185 	-0.04322369881 	0.01132677943 	1.429772485e-06
0.3481580352 	-0.04474062062 	0.01173083032 	1.67334527e-06
0.348379877 	-0.04611297412 	0.01209901683 	1.938647843e-06
0.3486017095 	-0.04733980236 	0.01243129635 	2.226101555e-06
0.3488235318 	-0.04842032788 	0.01272767068 	2.536031508e-06
0.3490453428 	-0.04935404682 	0.01298820929 	2.868642189e-06
0.3492671416 	-0.05014083277 	0.01321307475 	3.223992082e-06
0.3494889273 	-0.0507810459 	0.01340254943 	3.601969191e-06
0.3497106988 	-0.05127564037 	0.01355706148 	4.00226998e-06
0.3499324553 	-0.0516262621 	0.01367720826 	4.424384623e-06
0.3501541958 	-0.05183532731 	0.01376377485 	4.867591506e-06
0.3503759193 	-0.05190607309 	0.01381774495 	5.330962924e-06
0.3505976249 	-0.05184257249 	0.01384030155 	5.813381377e-06
0.3508193117 	-0.0516497077 	0.0138328221 	6.313568468e-06
0.3510409786 	-0.05128294896 	0.01379056532 	6.865948146e-06
0.3513853564 	-0.05060795968 	0.01368826811 	7.66340424e-06
0.3517361516 	-0.04960748257 	0.01351876223 	8.541809856e-06
0.3520934788 	-0.04834308465 	0.0132923506 	9.463926364e-06
0.3524574545 	-0.04683139858 	0.01301399969 	1.042672884e-05
0.3528281968 	-0.04509017872 	0.01268893287 	1.142785175e-05
0.3532058255 	-0.04313696544 	0.01232229383 	1.246577775e-05
0.3535904623 	-0.04098799443 	0.01191888302 	1.353989398e-05
0.3539822304 	-0.03865743953 	0.01148297863 	1.465043169e-05
0.3543812548 	-0.03615699099 	0.01101824254 	1.579833569e-05
0.3547876624 	-0.03349571474 	0.01052769655 	1.698510783e-05
0.3552015816 	-0.03068011391 	0.01001374859 	1.821265517e-05
0.3556231425 	-0.02771431459 	0.009478248532 	1.948315984e-05
0.356052477 	-0.02460031225 	0.008922558074 	2.079897638e-05
0.3564897188 	-0.02133823371 	0.008347623296 	2.216255602e-05
0.3569350029 	-0.01792658677 	0.007754043247 	2.357639259e-05
0.3573884662 	-0.014362483 	0.007142130481 	2.50429803e-05
0.3578502473 	-0.01064182831 	0.00651196172 	2.65647868e-05
0.358320486 	-0.006754700976 	0.005862639215 	2.814505261e-05
0.3588016631 	-0.002685514989 	0.005192367205 	2.97940752e-05
0.359293396 	0.001572876636 	0.004500816181 	3.151487229e-05
0.3597942051 	0.006020646656 	0.003788839044 	3.330214637e-05
0.3603042555 	0.01066327366 	0.003056412941 	3.515481287e-05
0.3608237152 	0.01551379995 	0.002302367447 	3.710274589e-05
0.3613527551 	0.0205917669 	0.00152453639 	3.922287791e-05
0.3618915494 	0.02592212172 	0.0007197794624 	4.15899099e-05
0.362440275 	0.03154157024 	-0.0001171300805 	4.424438063e-05
0.3629991123 	0.03749503201 	-0.0009928099705 	4.720499425e-05
0.3635682448 	0.04382362567 	-0.00191313659 	5.0452406e-05
0.3641478591 	0.05056617995 	-0.002883349598 	5.391343592e-05
0.3647381453 	0.05775507551 	-0.003907241295 	5.750964753e-05
0.3653392967 	0.065410888 	-0.004986318309 	6.120084287e-05
0.3659515103 	0.07354739434 	-0.006120671267 	6.497561069e-05
0.3665749862 	0.08217565861 	-0.007309921413 	6.883243541e-05
0.3672099285 	0.09130590494 	-0.008553689254 	7.276932303e-05
0.3678565445 	0.1009482525 	-0.009851614451 	7.678263336e-05
0.3685150454 	0.11111277 	-0.01120333151 	8.086603542e-05
0.3691856462 	0.1218091812 	-0.01260842083 	8.500973123e-05
0.3698685656 	0.1330464187 	-0.0140663414 	8.920023868e-05
0.370564026 	0.1448321308 	-0.01557636032 	9.34205417e-05
0.3712722542 	0.1571721921 	-0.01713748936 	9.765043657e-05
0.3719934806 	0.1700768161 	-0.01874924428 	0.0001018677856
0.3727294247 	0.1835739328 	-0.02041325038 	0.0001060562529
0.3734830113 	0.1976782894 	-0.02212937985 	0.0001102002468
0.3742503944 	0.2123597339 	-0.02389198045 	0.0001100785266
0.375031822 	0.2275916443 	-0.02569600059 	0.0001082432612
0.3758275468 	0.2433625127 	-0.02753829298 	0.0001061040076
0.3766378254 	0.2596575319 	-0.02941536684 	0.0001036678265
0.3774629195 	0.2764586704 	-0.03132341766 	0.0001009453767
0.3783030949 	0.2937447805 	-0.03325836531 	9.795073429e-05
0.3791586226 	0.3114917403 	-0.03521589304 	9.470112905e-05
0.3800297781 	0.3296726252 	-0.03719148822 	9.121662118e-05
0.3809168418 	0.3482579065 	-0.03918048461 	8.75197318e-05
0.3818200992 	0.3672156745 	-0.04117810665 	8.363502947e-05
0.3827398406 	0.3865118993 	-0.0431795177 	7.958866831e-05
0.3836763618 	0.4061107574 	-0.04517987934 	7.540787529e-05
0.3846299636 	0.425975074 	-0.04717444687 	7.112039486e-05
0.3856009522 	0.4460723681 	-0.04915927034 	6.675356599e-05
0.3865907222 	0.4663997288 	-0.05113361873 	6.232833652e-05
0.387604356 	0.4869450739 	-0.05309572993 	5.78552264e-05
0.3886364169 	0.5101802075 	-0.05527265896 	5.321597033e-05
0.3902195767 	0.5387334667 	-0.05788975094 	4.678587522e-05
0.3918189307 	0.569320965 	-0.06061787529 	4.045936898e-05
0.3934346495 	0.5992824457 	-0.0632160534 	3.446395987e-05
0.3950669062 	0.6285286944 	-0.06568144267 	2.884218796e-05
0.3967158762 	0.6569854545 	-0.06801266439 	2.362370264e-05
0.398381737 	0.6845935056 	-0.0702098951 	1.882511999e-05
0.4000646689 	0.7113439996 	-0.07227744769 	1.445047867e-05
0.4017744432 	0.7372452888 	-0.07422097762 	1.047542878e-05
0.4035026989 	0.7622344405 	-0.07604050551 	6.914291778e-06
0.4052485868 	0.786265528 	-0.07773758568 	3.752367455e-06
0.4070122955 	0.8093414691 	-0.07931732642 	9.664041367e-07
0.407690136 	0.8177715359 	-0.07987670315 	-1.768748704e-05
0.408792624 	0.8314360978 	-0.08078281073 	1.362742679e-06
0.4105903171 	0.8525982762 	-0.08214174711 	3.330448574e-06
0.4124064297 	0.8728967984 	-0.08340244216 	5.037736454e-06
0.4142429688 	0.8924003285 	-0.08457262218 	6.514363465e-06
0.4161069656 	0.9111703478 	-0.0856591587 	7.792343795e-06
0.417989985 	0.9292227595 	-0.08666571579 	8.884856004e-06
0.4198922341 	0.9465874308 	-0.08759670131 	9.815149355e-06
0.4218139229 	0.9633149568 	-0.08845747171 	1.060338109e-05
0.4237552645 	0.9794539272 	-0.08925297461 	1.12672443e-05
0.4257164752 	0.9950518333 	-0.08998781365 	1.182205104e-05
0.4276986919 	1.010169608 	-0.09066688865 	1.228072014e-05
0.4297104706 	1.024861064 	-0.09129458351 	1.265888473e-05
0.4317427659 	1.03913822 	-0.09187304152 	1.295929194e-05
0.4337958054 	1.053017277 	-0.09240461969 	1.319140133e-05
0.4358698202 	1.06652765 	-0.09289211897 	1.33625011e-05
0.4379650448 	1.07969549 	-0.09333803895 	1.347886116e-05
0.4400817173 	1.0925518 	-0.09374480769 	1.354531632e-05
0.4422255123 	1.105131429 	-0.09411483956 	1.356821193e-05
0.4443955983 	1.117448743 	-0.09444969151 	1.355008254e-05
0.4465878315 	1.129504212 	-0.09475040036 	1.349320382e-05
0.4488024631 	1.141306214 	-0.09501825036 	1.340138732e-05
0.4510397483 	1.152867458 	-0.09525455918 	1.301877311e-05
0.4532999463 	1.164204544 	-0.09546056379 	1.177466776e-05
0.4555878644 	1.175338749 	-0.09563750431 	1.062624193e-05
0.4579040328 	1.18627773 	-0.09578623843 	9.566891553e-06
0.4602438632 	1.197016497 	-0.09590730599 	8.591687731e-06
0.4626076297 	1.20755599 	-0.09600136781 	7.694130785e-06
0.4649956106 	1.21790091 	-0.09606903616 	6.867231107e-06
0.4674080891 	1.228060147 	-0.09611062264 	6.102526369e-06
0.4698526333 	1.238038881 	-0.09612604655 	5.38938717e-06
0.4723238069 	1.247815776 	-0.09611435944 	4.720756215e-06
0.4748202848 	1.257357976 	-0.09607402265 	4.091331616e-06
0.4773423667 	1.266633216 	-0.09600320608 	3.49983528e-06
0.4798903572 	1.275611959 	-0.09589998582 	2.94864677e-06
0.4824688066 	1.284270159 	-0.09576273843 	2.44171913e-06
0.4850778683 	1.292581152 	-0.09559047862 	1.984371882e-06
0.4877136985 	1.300520574 	-0.09538309936 	1.580710394e-06
0.4903766202 	1.308078717 	-0.09514136542 	1.231678998e-06
0.4930669622 	1.315258827 	-0.09486607803 	9.346712866e-07
0.4957890047 	1.322065333 	-0.09455661767 	6.844852556e-07
0.498542954 	1.328487309 	-0.09421206129 	4.812692792e-07
0.501325243 	1.334519624 	-0.09383360667 	3.24157069e-07
0.5041362209 	1.340199614 	-0.09342470988 	2.067611372e-07
0.5069762428 	1.345580013 	-0.09298950965 	1.225288562e-07
0.5098513058 	1.350685623 	-0.0925319249 	6.307729168e-08
0.5127576566 	1.35551769 	-0.09205315873 	2.319233005e-08
0.515694038 	1.36007082 	-0.09155220693 	2.158217114e-09
0.5163520982 	1.361017155 	-0.0914361926 	1.016822262e-05
0.5186599183 	1.364332196 	-0.09102876592 	4.230417256e-09
0.5216583595 	1.368294339 	-0.09048236638 	-5.783786214e-09
0.5246926629 	1.371951654 	-0.08991250011 	-3.193611557e-08
0.5277584632 	1.375298486 	-0.08931971829 	-7.198667766e-08
0.5308561613 	1.378334101 	-0.08870490747 	-1.236744116e-07
0.533986392 	1.381064282 	-0.08806862506 	-1.845370123e-07
0.5371552072 	1.38349853 	-0.08741169026 	-2.519543442e-07
0.5403570304 	1.385647279 	-0.08673569901 	-3.23148867e-07
0.5435922885 	1.387524955 	-0.08604232086 	-3.959789589e-07
0.5468614163 	1.389149571 	-0.08533264052 	-4.688334402e-07
0.5501702641 	1.390539637 	-0.08460772642 	-5.393896619e-07
0.5535138574 	1.3917127 	-0.08386943558 	-6.05290266e-07
0.5568925193 	1.392688498 	-0.0831195508 	-6.659672324e-07
0.5603072062 	1.393488764 	-0.08235912285 	-7.209811121e-07
0.5637623821 	1.394134295 	-0.08158917202 	-7.694267733e-07
0.5672538805 	1.394643116 	-0.08081113924 	-8.111042959e-07
0.5707821855 	1.39503104 	-0.08002608582 	-8.464297839e-07
0.5743495265 	1.395311492 	-0.07923456905 	-8.757930673e-07
0.577957345 	1.395495341 	-0.07843719782 	-8.993838551e-07
0.5816033051 	1.395591313 	-0.07763472457 	-9.175548726e-07
0.5852879225 	1.395606532 	-0.07682753022 	-9.307521745e-07
0.5890150047 	1.395546675 	-0.07601577539 	-9.393126839e-07
0.5927823599 	1.395416206 	-0.07519991522 	-9.434218232e-07
0.5965897945 	1.39521875 	-0.07438028841 	-9.434390646e-07
0.6004392764 	1.394957146 	-0.07355698174 	-9.396800258e-07
0.6043319749 	1.394633657 	-0.07273016828 	-9.322342143e-07
0.6082662433 	1.394250189 	-0.07190016376 	-9.213441849e-07
0.6122429764 	1.393808236 	-0.07106707454 	-9.072939006e-07
0.6162651862 	1.393308955 	-0.07023093692 	-8.901851891e-07
0.620330528 	1.392753436 	-0.06939204793 	-8.701945488e-07
0.6244396024 	1.392142517 	-0.06855052439 	-8.476107432e-07
0.6285955101 	1.391476737 	-0.06770636568 	-8.22594325e-07
0.6327963996 	1.39075666 	-0.06685980332 	-7.952997962e-07
0.6370426866 	1.389982644 	-0.06601093618 	-7.660205965e-07
0.6413370089 	1.389154747 	-0.06515976884 	-7.349351759e-07
0.6456781654 	1.388273055 	-0.06430646816 	-7.022029661e-07
0.6500664637 	1.387337446 	-0.06345109776 	-6.681932815e-07
0.6545043509 	1.386347501 	-0.06259365441 	-6.331664172e-07
0.6589907485 	1.385302804 	-0.06173425596 	-5.974832502e-07
0.6635261572 	1.384202705 	-0.06087291744 	-5.620237133e-07
0.6681128654 	1.383046338 	-0.06000963911 	-5.258573547e-07
0.6727497425 	1.381836041 	-0.05914675442 	-4.882852806e-07
0.6773861214 	1.380581689 	-0.05829141008 	-4.520670372e-07
0.6819716458 	1.379294673 	-0.05745064505 	-4.179958241e-07
0.6865058683 	1.377979724 	-0.05662630848 	-3.849050136e-07
0.6909899831 	1.376637577 	-0.05581773234 	-3.520911961e-07
0.6954247659 	1.375269062 	-0.05502448904 	-3.202890006e-07
0.6998101865 	1.373875156 	-0.0542462475 	-2.904018186e-07
0.7041473543 	1.3724563 	-0.05348250331 	-2.614499906e-07
0.708436817 	1.371012767 	-0.05273281357 	-2.332315935e-07
0.7126787351 	1.369544893 	-0.05199677394 	-2.062598257e-07
0.7168740637 	1.368052813 	-0.05127400068 	-1.807996932e-07
0.7210233433 	1.366536497 	-0.05056411215 	-1.569410839e-07
0.7251267892 	1.364995786 	-0.04986670349 	-1.346636776e-07
0.7291851807 	1.363430307 	-0.04918139557 	-1.139781089e-07
0.73319916 	1.361839558 	-0.04850781524 	-9.491423278e-08
0.7371689229 	1.360222962 	-0.04784559077 	-7.752380801e-08
0.7410950781 	1.358579717 	-0.0471943625 	-6.180727642e-08
0.7449784111 	1.356908786 	-0.04655376515 	-4.769754259e-08
0.7488190624 	1.355208982 	-0.04592343842 	-3.514067856e-08
0.7526175557 	1.353478854 	-0.04530302525 	-2.410780498e-08
0.7563746203 	1.351716675 	-0.04469218101 	-1.456139213e-08
0.7600905322 	1.349920544 	-0.0440905639 	-6.448807866e-09
0.7636007819 	1.348170555 	-0.04352442324 	1.571705393e-06
0.7637656988 	1.348088357 	-0.04349782238 	-2.09740537e-10
0.7674002605 	1.346218157 	-0.04291357664 	-4.167060431e-09
0.7709951809 	1.344306923 	-0.04233755644 	-6.784970621e-09
0.7745507588 	1.342351934 	-0.04176943688 	-8.127537479e-09
0.7780674581 	1.340350243 	-0.04120890501 	-8.257849568e-09
0.7815458334 	1.338298639 	-0.04065565858 	-7.243398421e-09
0.7849862318 	1.33619366 	-0.04010939061 	-5.155869687e-09
0.7883890421 	1.334031556 	-0.03956978648 	-2.063697883e-09
0.7917546993 	1.331808267 	-0.03903654193 	1.964395976e-09
0.7950837181 	1.329519457 	-0.03850935529 	6.859943134e-09
0.7983763974 	1.327160585 	-0.03798792065 	1.255629304e-08
0.8016331439 	1.324726888 	-0.0374719298 	1.898920995e-08
0.8048543671 	1.322213371 	-0.03696108383 	2.609641476e-08
0.8080405314 	1.319614844 	-0.03645508608 	3.381931122e-08
0.8111919383 	1.31692596 	-0.03595363572 	4.210190636e-08
0.8143089796 	1.314141191 	-0.03545643208 	5.08896245e-08
0.8173920419 	1.311254816 	-0.03496318181 	6.013094898e-08
0.8204415432 	1.308260954 	-0.03447359765 	6.977993385e-08
0.8234578018 	1.305153607 	-0.03398739046 	7.979662397e-08
0.8264411824 	1.30192667 	-0.03350427444 	9.014451812e-08
0.8293920517 	1.298573971 	-0.03302397652 	1.007952955e-07
0.8323107879 	1.29508935 	-0.03254624041 	1.117311966e-07
0.8351977266 	1.291466774 	-0.03207081977 	1.229496151e-07
0.838053203 	1.287700432 	-0.0315974815 	1.344572863e-07
0.8408775654 	1.283784855 	-0.03112602003 	1.462749528e-07
0.8436711583 	1.279715049 	-0.03065625841 	1.584378083e-07
0.8464343327 	1.275486649 	-0.03018805031 	1.709986829e-07
0.8491673941 	1.271096061 	-0.02972127619 	1.840231874e-07
0.8518706739 	1.266540572 	-0.02925585225 	1.975857754e-07
0.8545444993 	1.261818445 	-0.02879173197 	2.117701619e-07
0.8571891969 	1.256929014 	-0.02832890942 	2.266663265e-07
0.8598050829 	1.25187274 	-0.02786741291 	2.423715504e-07
0.8623924596 	1.246651236 	-0.02740729949 	2.589803643e-07
0.864951639 	1.241267234 	-0.02694866157 	2.765813845e-07
0.8674829292 	1.235724532 	-0.02649161845 	2.952542167e-07
0.8699866364 	1.230027897 	-0.02603631644 	3.150638783e-07
0.8724630593 	1.224182918 	-0.02558291865 	3.360596259e-07
0.8749124865 	1.218195801 	-0.02513159459 	3.582647751e-07
0.8773352122 	1.212073053 	-0.02468251958 	3.816768039e-07
0.8797315274 	1.205821088 	-0.02423586025 	4.062675425e-07
0.8821017194 	1.199445647 	-0.02379176238 	4.319508976e-07
0.8844460737 	1.192951072 	-0.02335033454 	4.523614397e-07
0.8867648633 	1.18633982 	-0.02291162913 	4.594687413e-07
0.889058366 	1.179612699 	-0.02247565521 	4.65952833e-07
0.8913268564 	1.172769609 	-0.02204240134 	4.717972082e-07
0.8935706063 	1.165810116 	-0.02161184518 	4.770142284e-07
0.8957898846 	1.158733725 	-0.02118396504 	4.81620527e-07
0.8979849547 	1.151539978 	-0.02075873862 	4.856265154e-07
0.9001560763 	1.144228455 	-0.02033614094 	4.89044886e-07
0.9023035092 	1.13679873 	-0.01991614912 	4.918891865e-07
0.9044275105 	1.129250318 	-0.01949873947 	4.941712687e-07
0.9065283342 	1.12158262 	-0.01908388483 	4.959015474e-07
0.9086062317 	1.113794857 	-0.01867155702 	4.970889253e-07
0.9106614501 	1.10588603 	-0.01826172335 	4.977365632e-07
0.9126942333 	1.097854862 	-0.01785434378 	4.978499978e-07
0.9147048246 	1.089699757 	-0.01744937445 	4.97437221e-07
0.9166934645 	1.081418757 	-0.01704676632 	4.965065446e-07
0.9186603909 	1.073009517 	-0.01664646356 	4.95066777e-07
0.9206058391 	1.064469262 	-0.01624840454 	4.93127165e-07
0.9225300416 	1.055794762 	-0.01585252319 	4.90695408e-07
0.924433227 	1.0469823 	-0.01545874575 	4.877764422e-07
0.9263156229 	1.03802764 	-0.0150669919 	4.843793819e-07
0.9281774546 	1.028925998 	-0.01467717761 	4.805132159e-07
0.9300189449 	1.019672016 	-0.01428921347 	4.761864195e-07
0.9318403144 	1.010259734 	-0.01390300516 	4.714066925e-07
0.9336417811 	1.000682563 	-0.01351845495 	4.661806444e-07
0.9354235603 	0.9909332608 	-0.0131354634 	4.605119358e-07
0.9371858648 	0.9810039066 	-0.01275392788 	4.544003081e-07
0.9389289053 	0.9708858776 	-0.01237374466 	4.478469564e-07
0.9406528909 	0.9605698298 	-0.01199481222 	4.408510402e-07
0.9423580282 	0.9500456847 	-0.01161703151 	4.334094275e-07
0.9440445214 	0.9393026215 	-0.01124030809 	4.255165934e-07
0.9457125728 	0.9283290816 	-0.01086455475 	4.171645774e-07
0.9473623823 	0.917112792 	-0.01048969574 	4.083428268e-07
0.9489941474 	0.9056408207 	-0.01011566986 	3.990356525e-07
0.9506080637 	0.8938996841 	-0.009742434926 	3.892261036e-07
0.9522043246 	0.881875543 	-0.009369974168 	3.788969343e-07
0.9537831219 	0.8695545451 	-0.008998297497 	3.680295218e-07
0.955344645 	0.8580035871 	-0.008658760051 	3.563445404e-07
0.9563619032 	0.8484492337 	-0.008384344518 	3.487724188e-07
0.957360456 	0.8399229248 	-0.008144230395 	3.407894525e-07
0.9583406462 	0.8313487334 	-0.0079072743 	3.326556655e-07
0.9593028105 	0.8227264545 	-0.007673490439 	3.243770288e-07
0.9602472794 	0.8140562851 	-0.007442897881 	3.15961e-07
0.9611743772 	0.8053387156 	-0.007215521681 	3.07415515e-07
0.9620844225 	0.7965744704 	-0.006991392379 	2.987498347e-07
0.962977728 	0.787764475 	-0.006770545157 	2.899745243e-07
0.9638546008 	0.7789098331 	-0.006553018885 	2.811011799e-07
0.9647153423 	0.7700118101 	-0.006338855403 	2.721424285e-07
0.9655602484 	0.7610718166 	-0.006128098938 	2.631118958e-07
0.9663896097 	0.752091393 	-0.005920795526 	2.540241488e-07
0.9672037114 	0.7430721925 	-0.005716992418 	2.448946152e-07
0.9680028336 	0.7340159629 	-0.005516737488 	2.357394829e-07
0.9687872512 	0.7249245274 	-0.00532007866 	2.265755828e-07
0.969557234 	0.715799764 	-0.005127063341 	2.174202585e-07
0.9703130471 	0.7066435845 	-0.004937737878 	2.082912276e-07
0.9710549506 	0.6974579118 	-0.004752147042 	1.992064371e-07
0.9717831999 	0.6882446579 	-0.004570333537 	1.901839157e-07
0.9724980456 	0.6790057003 	-0.004392337539 	1.812416269e-07
0.9731997339 	0.6697428594 	-0.004218196377 	1.723973149e-07
0.9738885064 	0.6604578752 	-0.004047944072 	1.636681455e-07
0.9745646003 	0.651152384 	-0.003881610955 	1.550709653e-07
0.9752282485 	0.6418278955 	-0.003719223519 	1.466221354e-07
0.9758796795 	0.6324857706 	-0.003560804142 	1.383373168e-07
0.9765191179 	0.6231271989 	-0.00340637086 	1.302313751e-07
0.977146784 	0.6137531769 	-0.003255937219 	1.223182975e-07
0.977762894 	0.6043644863 	-0.003109512157 	1.146111195e-07
0.9783676604 	0.5949616731 	-0.002967099916 	1.071218609e-07
0.9789612914 	0.5855450268 	-0.00282869999 	9.986146749e-08
0.9795439919 	0.5761145598 	-0.002694307095 	9.283975598e-08
0.9801159626 	0.5666699871 	-0.002563911177 	8.606536225e-08
0.9806774008 	0.5572107057 	-0.002437497444 	7.954571069e-08
0.9812285001 	0.5477357721 	-0.002315046468 	7.328700113e-08
0.9817694505 	0.538243875 	-0.002196534315 	6.729400602e-08
0.9823004386 	0.5287332938 	-0.002081932544 	6.157015935e-08
0.9828216476 	0.5192018345 	-0.00197120846 	5.611801703e-08
0.9833332573 	0.5096467938 	-0.001864325824 	5.093910959e-08
0.9838354441 	0.5000650199 	-0.001761244918 	4.60337934e-08
0.9843283814 	0.4904530057 	-0.001661922172 	4.140147945e-08
0.9848122392 	0.4808069044 	-0.001566310489 	3.704057376e-08
0.9852871845 	0.4711224855 	-0.001474359466 	3.294842748e-08
0.9857533812 	0.4613950884 	-0.001386015297 	2.912144296e-08
0.9862109903 	0.4516195912 	-0.001301220889 	2.555513943e-08
0.9866601697 	0.441790395 	-0.001219916029 	2.224418798e-08
0.9871010743 	0.4319014224 	-0.001142037609 	1.918252634e-08
0.9875338566 	0.4219461274 	-0.001067519921 	1.636340383e-08
0.9879586658 	0.411917516 	-0.000996294893 	1.377943613e-08
0.9883756487 	0.4018081782 	-0.0009282923469 	1.142266982e-08
0.9887849493 	0.391610323 	-0.0008634403435 	9.284651921e-09
0.9891867089 	0.381315786 	-0.0008016655653 	7.356469187e-09
0.9895810663 	0.3709161444 	-0.000742893558 	5.628854767e-09
0.9899681576 	0.3604029827 	-0.0006870495929 	4.092278963e-09
0.9903481166 	0.3497680437 	-0.000634058582 	2.736906695e-09
0.9907210746 	0.3390033018 	-0.0005838447606 	1.552656297e-09
0.9910871604 	0.3281011556 	-0.0005363328103 	5.293027866e-10
0.9912986501 	0.3215997046 	-0.0005099149075 	8.091719036e-07
0.9914464996 	0.3170547534 	-0.0004914474351 	3.351874304e-10
0.9917992161 	0.3058582075 	-0.0004491062329 	1.049043879e-09
0.9921454333 	0.2945067914 	-0.0004092210677 	1.634945497e-09
0.9924852705 	0.2839850348 	-0.0003748522498 	2.119342051e-09
0.9927039924 	0.2753335801 	-0.0003484606667 	2.351588781e-09
0.9929227172 	0.2675595876 	-0.0003260216652 	2.557120281e-09
0.993141445 	0.2596071185 	-0.0003040866384 	2.72111321e-09
0.9933601758 	0.2514461146 	-0.0002827889176 	2.851882857e-09
0.9935789096 	0.2430454117 	-0.0002622997371 	2.944284004e-09
0.9937976463 	0.2343903725 	-0.0002424421636 	2.997340859e-09
0.9940163861 	0.2254778582 	-0.0002231450298 	3.018700697e-09
0.9942351288 	0.2163091952 	-0.0002044998932 	3.008917211e-09
0.9944538745 	0.2068911279 	-0.0001865370077 	2.969775993e-09
0.9946726231 	0.1972367074 	-0.000169279025 	2.903625576e-09
0.9948913747 	0.1873658596 	-0.0001527545188 	2.812846389e-09
0.9951101294 	0.1773054261 	-0.0001369943796 	2.699771098e-09
0.995328887 	0.1670885226 	-0.0001220277853 	2.566739969e-09
0.9955476475 	0.1567531735 	-0.000107880106 	2.416178022e-09
0.9957664111 	0.1463403341 	-9.457232399e-05 	2.250668563e-09
0.9959851776 	0.1358915742 	-8.212169133e-05 	2.072971008e-09
0.9962039471 	0.1254467817 	-7.054279977e-05 	1.885958677e-09
0.9964227196 	0.1150422334 	-5.984801116e-05 	1.692522846e-09
0.996641495 	0.1047092701 	-5.0046843e-05 	1.495519603e-09
0.9968602735 	0.09447365923 	-4.114480154e-05 	1.297795387e-09
0.9970790549 	0.08435558206 	-3.314250384e-05 	1.102263886e-09
0.9972978393 	0.0743700949 	-2.603568807e-05 	9.119810901e-10
0.9975166266 	0.06452787916 	-1.981634358e-05 	7.30184958e-10
0.997735417 	0.05483611259 	-1.447414611e-05 	5.602952306e-10
0.9979542103 	0.0452993329 	-9.993606558e-06 	4.058742177e-10
0.9981730066 	0.03592021029 	-6.342824296e-06 	2.705682148e-10
0.9983918059 	0.02670018478 	-3.496194161e-06 	1.582473764e-10
0.9986106081 	0.01763995303 	-1.607631153e-06 	7.375474465e-11
0.9988294134 	0.00873980845 	-1.294294268e-06 	2.271115707e-11
0.9990482216 	0.003624919733 	-1.378335819e-06 	5.232505592e-12
0.9990482216 	0.003624919733 	-1.378335819e-06 	5.232505592e-12
