0.3179529243 	0.0124477759 	0.0024107318 	-5.332079821e-07
0.3179529243 	0.0124477759 	0.0024107318 	-5.332079821e-07
0.318152706 	0.03797863799 	0.007332383872 	-1.840674766e-06
0.3183524966 	0.07573797197 	0.01460378396 	-3.889377782e-06
0.318552295 	0.1132734949 	0.02183609597 	-6.147917987e-06
0.3187521003 	0.1505806016 	0.0290224952 	-8.612177316e-06
0.3189519114 	0.1876491278 	0.03615957651 	-1.127814482e-05
0.3191517275 	0.2244612879 	0.04324403176 	-1.414115705e-05
0.3193515475 	0.2609889376 	0.05027058039 	-1.719521339e-05
0.3195513705 	0.2971908863 	0.0572312843 	-2.043259128e-05
0.3197511955 	0.3330114679 	0.06411540712 	-2.384370819e-05
0.3199510214 	0.3683814521 	0.07090964094 	-2.741725738e-05
0.3201508474 	0.4032218605 	0.07759879129 	-3.114062198e-05
0.3203506724 	0.4374503492 	0.08416688798 	-3.50005969e-05
0.3205504955 	0.4709887439 	0.09059928943 	-3.898589861e-05
0.3207503157 	0.5037908148 	0.0968876638 	-4.309462493e-05
0.3209501321 	0.5358604221 	0.1030321996 	-4.732777846e-05
0.3211499436 	0.5672115326 	0.109035295 	-5.167364617e-05
0.3213497493 	0.5978369847 	0.1148961506 	-5.611543591e-05
0.3215495483 	0.6277220848 	0.1206121333 	-6.064094639e-05
0.3217493395 	0.6568551323 	0.1261809246 	-6.523932822e-05
0.3219491221 	0.6852269301 	0.1316007817 	-6.989932735e-05
0.322148895 	0.7128300105 	0.1368703163 	-7.460914348e-05
0.3223486573 	0.7396577777 	0.1419882959 	-7.93564286e-05
0.322548408 	0.7657037353 	0.1469534953 	-8.412832251e-05
0.3227481462 	0.7909609989 	0.1517646056 	-8.891162725e-05
0.322947871 	0.8154222421 	0.1564202272 	-9.369315258e-05
0.3231475813 	0.8390801076 	0.1609189548 	-9.846017872e-05
0.3233472762 	0.8619279956 	0.1652595272 	-0.0001032009327
0.3235469548 	0.8839610563 	0.1694409623 	-0.0001079049468
0.3237466161 	0.9051771037 	0.1734626898 	-0.0001125633021
0.3239462591 	0.9283463906 	0.1778499903 	-0.0001174426565
0.32425642 	0.9558038598 	0.1830389218 	-0.0001242251708
0.3245723591 	0.9844859952 	0.1884488578 	-0.0001312435076
0.3248941791 	1.011741698 	0.1935762947 	-0.0001382244116
0.3252219844 	1.037568302 	0.1984206456 	-0.000145158017
0.3255558808 	1.061986194 	0.2029856817 	-0.000152035798
0.3258959756 	1.085034882 	0.2072787486 	-0.000158847012
0.3262423775 	1.106766202 	0.2113094886 	-0.0001571757056
0.3265951969 	1.127228547 	0.2150867129 	-0.0001533796498
0.3269545455 	1.146445612 	0.2186143397 	-0.0001490745579
0.3273205366 	1.164414197 	0.2218910398 	-0.0001442660702
0.3276932849 	1.181122793 	0.2249137946 	-0.0001389869043
0.3280729065 	1.196563544 	0.2276802445 	-0.0001332786111
0.328459519 	1.210731738 	0.2301886487 	-0.0001271823993
0.3288532414 	1.223625499 	0.23243776 	-0.0001207364844
0.3292541942 	1.235250738 	0.2344276665 	-0.0001139762409
0.329662499 	1.245620709 	0.2361596604 	-0.000106962444
0.330078279 	1.254750051 	0.2376351895 	-9.979531915e-05
0.3305016584 	1.262667496 	0.2388593924 	-9.261661878e-05
0.330932763 	1.269456318 	0.2398505912 	-8.559814554e-05
0.3313717196 	1.275287714 	0.2406430545 	-7.881141184e-05
0.3318186562 	1.28035685 	0.2412733301 	-7.218697024e-05
0.332273702 	1.284787597 	0.2417667189 	-6.563504227e-05
0.3327369872 	1.288645742 	0.2421375102 	-5.91191035e-05
0.333208643 	1.291987249 	0.2423960185 	-5.264488597e-05
0.333690202 	1.294885988 	0.2425539188 	-4.620124187e-05
0.3341943182 	1.297405422 	0.2426208581 	-3.961451101e-05
0.3347076387 	1.299577287 	0.2426067164 	-3.30558074e-05
0.3352303273 	1.301443387 	0.2425227517 	-2.650924103e-05
0.3357625509 	1.303054041 	0.2423792505 	-1.995825557e-05
0.3363044791 	1.304450551 	0.242184601 	-1.33901827e-05
0.3368562843 	1.305666752 	0.2419456373 	-6.79563787e-06
0.337418142 	1.30673037 	0.2416679482 	-1.676967151e-07
0.3374324648 	1.306753705 	0.2416601274 	-6.21651671e-07
0.337988836 	1.307661987 	0.2413582269 	-6.36266448e-06
0.3385698873 	1.308482625 	0.2410181913 	-1.292969359e-05
0.3391615162 	1.309207705 	0.2406508553 	-1.953975142e-05
0.3397639102 	1.309849943 	0.2402587455 	-2.619469128e-05
0.3403772602 	1.310419902 	0.2398439479 	-3.289557878e-05
0.3410017602 	1.31092639 	0.2394081894 	-3.964286496e-05
0.3416376076 	1.311376779 	0.2389529034 	-4.643651757e-05
0.342285003 	1.311777268 	0.2384792826 	-5.327612055e-05
0.3429441507 	1.312133086 	0.2379883221 	-6.016094945e-05
0.3436152583 	1.312448667 	0.237480854 	-6.709002792e-05
0.3442985368 	1.312727784 	0.2369575754 	-7.406216776e-05
0.3449942011 	1.312973664 	0.2364190715 	-8.107600243e-05
0.3457024694 	1.313189075 	0.2358658365 	-8.813006007e-05
0.3464235639 	1.313376407 	0.2352982948 	-9.522288521e-05
0.3471577105 	1.313537729 	0.2347168034 	-0.000102352677
0.3479051389 	1.313674867 	0.2341215735 	-0.0001095151817
0.3486660827 	1.313789725 	0.2335106832 	-0.0001167016064
0.34945109 	1.313884094 	0.2328796717 	-0.0001236380543
0.3502630611 	1.313957579 	0.2322285464 	-0.0001149743476
0.3510896352 	1.314007131 	0.2315614328 	-0.0001062185123
0.3519310666 	1.314029129 	0.2308786078 	-9.738772197e-05
0.3527876142 	1.31402087 	0.2301791842 	-8.855120153e-05
0.3536595409 	1.313981626 	0.2294639347 	-7.970133443e-05
0.3545471142 	1.3139118 	0.2287330498 	-7.082535493e-05
0.3554506062 	1.313811982 	0.2279861934 	-6.19351138e-05
0.3563702933 	1.313682888 	0.227223428 	-5.303711453e-05
0.357306457 	1.313525427 	0.2264450478 	-4.41345796e-05
0.358259383 	1.313311716 	0.2255533182 	-3.520318916e-05
0.3597206513 	1.313016189 	0.2244323077 	-2.188175942e-05
0.3611962551 	1.312644418 	0.2232000167 	-8.766012286e-06
0.3622065599 	1.312365015 	0.2223566561 	-2.61674241e-05
0.3626853298 	1.312231337 	0.2219577801 	-4.04586231e-06
0.3641869071 	1.311778906 	0.2207007602 	-1.647996408e-05
0.3657415917 	1.311292851 	0.2194183282 	-2.903176914e-05
0.3673153958 	1.310779708 	0.2181196821 	-4.137858562e-05
0.3689044967 	1.310247364 	0.2168146073 	-5.348794205e-05
0.3705090474 	1.309699779 	0.2155048242 	-6.536206474e-05
0.372129203 	1.309139747 	0.2141910565 	-7.700212258e-05
0.3737651208 	1.30856937 	0.2128738884 	-8.840853328e-05
0.3754169603 	1.307990176 	0.2115537434 	-9.958112179e-05
0.3770848833 	1.307403272 	0.2102309023 	-8.952070221e-05
0.3787690537 	1.3068066 	0.2089002909 	-7.676038747e-05
0.3804988631 	1.306197177 	0.2075529304 	-6.400728535e-05
0.3822608994 	1.305576177 	0.2061920577 	-5.138903912e-05
0.384039893 	1.304947563 	0.2048267843 	-3.903433766e-05
0.3858360178 	1.30431288 	0.2034601319 	-2.694478249e-05
0.3876494502 	1.303672122 	0.2020921603 	-1.512048884e-05
0.3894803696 	1.30302523 	0.2007229109 	-3.561591302e-06
0.3900584941 	1.302821048 	0.2002939426 	-2.817074268e-05
0.3913268074 	1.302369845 	0.1993538378 	-7.620657597e-06
0.3931901374 	1.301705117 	0.1979804375 	-1.849413931e-05
0.3950927878 	1.301028091 	0.1965935295 	-2.924376153e-05
0.3970388981 	1.300338362 	0.1951924606 	-3.987491936e-05
0.3990036413 	1.299639559 	0.1937862374 	-5.022216846e-05
0.400987215 	1.298933959 	0.1923793703 	-6.0287391e-05
0.4029898197 	1.298221442 	0.1909718782 	-7.00714294e-05
0.4050116593 	1.297501881 	0.1895637468 	-7.957528571e-05
0.4070529411 	1.296774676 	0.188154129 	-7.288397532e-05
0.4091191997 	1.296035297 	0.1867354541 	-6.185630363e-05
0.4112474576 	1.295281016 	0.1853008006 	-5.087779763e-05
0.4133959597 	1.294515142 	0.1838592012 	-4.020090293e-05
0.4155649276 	1.293741561 	0.182417775 	-2.98278541e-05
0.4177545874 	1.292960168 	0.1809765092 	-1.975659485e-05
0.4199651688 	1.292170856 	0.1795353592 	-9.984961475e-06
0.4221969057 	1.29137142 	0.1780911183 	-5.106202396e-07
0.4223203246 	1.2913273 	0.1780121022 	-5.212164371e-06
0.424469228 	1.29055486 	0.1766368984 	-8.68291582e-06
0.4267889352 	1.289723434 	0.1751712058 	-1.768556407e-05
0.4291306938 	1.288881153 	0.1737022035 	-2.638021463e-05
0.4314947558 	1.288030376 	0.172233966 	-3.47705376e-05
0.4338813777 	1.287171019 	0.170766435 	-4.285998563e-05
0.4362908213 	1.286301242 	0.1692970896 	-5.065079369e-05
0.43874163 	1.285416769 	0.1678188374 	-5.821177745e-05
0.4412451404 	1.284516646 	0.1663299029 	-6.226826699e-05
0.4437723886 	1.283604665 	0.1648380901 	-5.32101349e-05
0.446323657 	1.282683531 	0.163347745 	-4.446760303e-05
0.4488992335 	1.281753193 	0.1618587884 	-3.603597288e-05
0.4514994119 	1.280809999 	0.1603664337 	-2.790885756e-05
0.4541616688 	1.279850106 	0.1588634944 	-1.995979708e-05
0.4568588278 	1.278875458 	0.1573544742 	-1.229648918e-05
0.4595815725 	1.27789023 	0.1558462362 	-4.949122176e-06
0.4615041402 	1.277194432 	0.1547924054 	-2.970647481e-05
0.4623294293 	1.276894596 	0.1543400062 	-2.078319376e-06
0.4651017109 	1.27588492 	0.1528322053 	-8.783539325e-06
0.4679286799 	1.274858901 	0.1513164695 	-1.527241689e-05
0.4708000474 	1.273817241 	0.1497944966 	-2.150349781e-05
0.4736987461 	1.272763873 	0.1482727792 	-2.743253332e-05
0.476625129 	1.271700416 	0.146753559 	-3.3067138e-05
0.4795795562 	1.270623477 	0.1452328088 	-3.841259133e-05
0.4825972259 	1.269529312 	0.1437044032 	-4.354867622e-05
0.4856526605 	1.268419827 	0.1421721428 	-4.664707668e-05
0.4887372686 	1.267298945 	0.140641811 	-4.02246636e-05
0.4918514422 	1.266166348 	0.1391131948 	-3.40955521e-05
0.4950073042 	1.265018126 	0.1375813263 	-2.822576013e-05
0.4982235491 	1.263852626 	0.1360436653 	-2.258228431e-05
0.5014705527 	1.262673231 	0.1345058434 	-1.722824517e-05
0.5047487424 	1.26148255 	0.1329713009 	-1.215577821e-05
0.5080599365 	1.260276774 	0.1314358647 	-7.35278846e-06
0.5114411945 	1.25905268 	0.1298945924 	-2.755772409e-06
0.5135991682 	1.25826936 	0.128919628 	-3.685739227e-05
0.5148541725 	1.257812791 	0.1283523942 	-1.572637388e-06
0.5182988631 	1.256560136 	0.1268133235 	-5.648353197e-06
0.5217779526 	1.255292066 	0.1252741417 	-9.474793858e-06
0.52532682 	1.254005376 	0.123730268 	-1.310244006e-05
0.528910028 	1.252702937 	0.1221863801 	-1.648036653e-05
0.5325280828 	1.251387189 	0.1206457595 	-1.961941535e-05
0.5361891746 	1.250054804 	0.1191048428 	-2.253751418e-05
0.539912511 	1.24870384 	0.1175612014 	-2.525529166e-05
0.5436721471 	1.247337006 	0.1160189173 	-2.774759518e-05
0.5474686338 	1.245954722 	0.1144790764 	-3.002550158e-05
0.5513216279 	1.244553869 	0.1129381121 	-2.998663757e-05
0.5552246668 	1.243134654 	0.1113967486 	-2.655657133e-05
0.5591661162 	1.241699158 	0.1098580562 	-2.334507253e-05
0.5631511971 	1.240245541 	0.1083205441 	-2.033665744e-05
0.5671996694 	1.238771619 	0.1067818262 	-1.751145968e-05
0.5712881919 	1.237279514 	0.1052450837 	-1.48870208e-05
0.5754174009 	1.235768958 	0.1037108042 	-1.245247341e-05
0.5796100922 	1.234237085 	0.102175985 	-1.018445598e-05
0.5838480727 	1.232685048 	0.1006426156 	-8.095289057e-06
0.5881285045 	1.231113205 	0.09911196755 	-6.176963167e-06
0.592468147 	1.229519149 	0.09758180472 	-4.411336148e-06
0.5968582973 	1.22790307 	0.09605299886 	-2.802501167e-06
0.6012927572 	1.226265222 	0.0945268135 	-1.344529481e-06
0.6057856853 	1.224603605 	0.09300163755 	-2.227875626e-08
0.6058686619 	1.224572841 	0.09297381769 	-1.74854579e-06
0.6103303191 	1.22291776 	0.09147740201 	-1.185003891e-06
0.6149212656 	1.221207958 	0.08995575754 	-2.261561338e-06
0.6195723842 	1.219472254 	0.08843532052 	-3.219939715e-06
0.6242759264 	1.217710533 	0.08691682932 	-4.059144503e-06
0.6290278534 	1.215922253 	0.08540090885 	-4.787010882e-06
0.6338430612 	1.214105258 	0.08388614155 	-5.414089503e-06
0.6387094544 	1.212259515 	0.08237358408 	-5.93991802e-06
0.6436287687 	1.21038408 	0.08086343321 	-6.374276604e-06
0.6486104566 	1.208482064 	0.07935854493 	-6.723257375e-06
0.6535885607 	1.206569428 	0.07787242545 	-6.987124481e-06
0.65851419 	1.2046615 	0.07641673202 	-7.175341689e-06
0.6633878192 	1.202762738 	0.07499394025 	-7.294745899e-06
0.6682048624 	1.200872943 	0.07360341022 	-7.354797732e-06
0.6729731885 	1.198991041 	0.07224342649 	-7.364844728e-06
0.6776883892 	1.19711696 	0.07091332673 	-7.328771482e-06
0.6823494001 	1.195250354 	0.06961236142 	-7.254558498e-06
0.6869638811 	1.193390042 	0.06833888116 	-7.147858277e-06
0.69152573 	1.191536152 	0.0670925199 	-7.011652834e-06
0.6960360527 	1.189688281 	0.06587251389 	-6.852100994e-06
0.7005001735 	1.187845357 	0.0646774761 	-6.672371007e-06
0.7049135952 	1.186007413 	0.06350706599 	-6.474969459e-06
0.7092775063 	1.184173993 	0.06236054518 	-6.264358549e-06
0.7135960089 	1.182344143 	0.0612367566 	-6.042445784e-06
0.7178657865 	1.180517821 	0.0601353665 	-5.810987393e-06
0.7220875898 	1.178694577 	0.05905573332 	-5.573200166e-06
0.7262652504 	1.176873489 	0.05799683021 	-5.33046408e-06
0.7303960315 	1.175054427 	0.0569583069 	-5.08365762e-06
0.7344805912 	1.173237026 	0.05593967376 	-4.835116333e-06
0.7385215828 	1.171420466 	0.05494005192 	-4.586064038e-06
0.7425178833 	1.169604428 	0.05395900245 	-4.336621451e-06
0.7464696505 	1.167788606 	0.05299615955 	-4.088417675e-06
0.7503784336 	1.165972333 	0.05205081205 	-3.842634664e-06
0.7542446399 	1.164155105 	0.05112243771 	-3.598999332e-06
0.7580679078 	1.162336666 	0.05021074588 	-3.358447442e-06
0.7618489142 	1.160516492 	0.04931520573 	-3.121999907e-06
0.7655892833 	1.158693942 	0.04843523616 	-2.889599333e-06
0.7692882266 	1.156868728 	0.0475705379 	-2.661347292e-06
0.7729462699 	1.155040498 	0.04672077585 	-2.437985974e-06
0.7765644362 	1.153208668 	0.04588542459 	-2.219955174e-06
0.7801431096 	1.151372779 	0.0450640907 	-2.006788459e-06
0.7836822925 	1.149532534 	0.04425651927 	-1.798842591e-06
0.7871824709 	1.147687504 	0.0434623404 	-1.596550944e-06
0.7906446711 	1.145837154 	0.04268111737 	-1.399923658e-06
0.7940688637 	1.14398112 	0.04191255749 	-1.208575916e-06
0.7974553732 	1.142119104 	0.04115642401 	-1.022789938e-06
0.8008046515 	1.140250675 	0.04041237089 	-8.428073607e-07
0.8041175789 	1.138375355 	0.03968003621 	-6.684459271e-07
0.8073941181 	1.136492818 	0.03895917756 	-4.994050664e-07
0.8106346707 	1.134602771 	0.03824957521 	-3.358453396e-07
0.8138396595 	1.132704811 	0.03755093284 	-1.778888309e-07
0.8170097807 	1.1307985 	0.03686294443 	-2.535323243e-08
0.8175402391 	1.130474498 	0.03674831308 	-6.075260667e-06
0.8201450131 	1.128883582 	0.03618525116 	-1.162641433e-07
0.8232458362 	1.126959677 	0.03551777034 	-2.517134643e-07
0.8263126747 	1.12502638 	0.03486028747 	-3.821632805e-07
0.8293460587 	1.123083256 	0.03421253846 	-5.077102124e-07
0.832346269 	1.121129907 	0.03357431232 	-6.287111552e-07
0.8353136109 	1.11916597 	0.03294543367 	-7.451859057e-07
0.8382484591 	1.117191047 	0.03232570209 	-8.571397837e-07
0.8411512145 	1.115204684 	0.03171489438 	-9.646008976e-07
0.8440222961 	1.113206416 	0.03111280473 	-1.067860908e-06
0.8468619449 	1.111195806 	0.03051927303 	-1.167060383e-06
0.8496705157 	1.109172411 	0.02993412965 	-1.262228295e-06
0.852448358 	1.107135731 	0.02935719731 	-1.353401638e-06
0.8551958614 	1.105085222 	0.02878828488 	-1.440670695e-06
0.857913338 	1.103020327 	0.02822722798 	-1.524304108e-06
0.8606010833 	1.100940479 	0.02767388757 	-1.604373558e-06
0.8632594293 	1.098845076 	0.02712810881 	-1.680924809e-06
0.8658887031 	1.096733455 	0.02658973955 	-1.754008082e-06
0.8684892567 	1.094604895 	0.02605861692 	-1.823721863e-06
0.8710613826 	1.092458634 	0.02553460024 	-1.890283629e-06
0.8736053763 	1.090293869 	0.02501756596 	-1.953758863e-06
0.8761215493 	1.088109738 	0.02450737708 	-2.014198869e-06
0.8786102089 	1.085905295 	0.02400390372 	-2.071657429e-06
0.8810716699 	1.083679508 	0.02350700595 	-2.126204173e-06
0.883506227 	1.081431256 	0.02301655632 	-2.178017183e-06
0.8859141583 	1.079159333 	0.02253244518 	-2.227175724e-06
0.888295757 	1.076862423 	0.02205455252 	-2.273730896e-06
0.8906513125 	1.074539073 	0.02158276247 	-2.31773498e-06
0.8929811107 	1.072187663 	0.02111695889 	-2.359240951e-06
0.8952854442 	1.069806381 	0.02065702139 	-2.398350097e-06
0.8975645752 	1.067393186 	0.02020284488 	-2.435185493e-06
0.8998187786 	1.064945773 	0.01975432686 	-2.469799283e-06
0.9020483272 	1.062461494 	0.01931135619 	-2.502243036e-06
0.9042534911 	1.059937298 	0.0188738266 	-2.532570036e-06
0.9064345369 	1.057369654 	0.01844162602 	-2.560833794e-06
0.9085917323 	1.054754468 	0.01801463754 	-2.587130036e-06
0.9107253281 	1.052087026 	0.01759275206 	-2.611551489e-06
0.912835582 	1.049361917 	0.01717585479 	-2.634146528e-06
0.9149227491 	1.046572978 	0.0167638201 	-2.654959727e-06
0.9169870814 	1.043713248 	0.0163565203 	-2.674031811e-06
0.9190288278 	1.040774959 	0.01595382172 	-2.691397948e-06
0.9210482361 	1.037749545 	0.01555557831 	-2.707100124e-06
0.923045546 	1.034627693 	0.01516164586 	-2.721199098e-06
0.9250209973 	1.031399421 	0.01477187949 	-2.68858996e-06
0.9269748283 	1.028054189 	0.01438612345 	-2.593887139e-06
0.9289072748 	1.024581025 	0.01400422129 	-2.50190842e-06
0.9308185697 	1.020968682 	0.01362601789 	-2.412549237e-06
0.9327089434 	1.017205803 	0.0132513555 	-2.325708465e-06
0.9345786239 	1.013281083 	0.01288007446 	-2.241273831e-06
0.9364278344 	1.009183437 	0.0125120236 	-2.159134643e-06
0.9382567978 	1.00490215 	0.01214705391 	-2.07920504e-06
0.9400657346 	1.000427001 	0.01178501381 	-2.001402765e-06
0.9418548629 	0.9957483608 	0.01142575536 	-1.925649298e-06
0.9436243985 	0.9908572636 	0.0110691339 	-1.851869171e-06
0.9453745545 	0.9857454437 	0.01071500731 	-1.779989184e-06
0.9471055421 	0.9804053402 	0.01036323139 	-1.709933862e-06
0.948817569 	0.974830077 	0.01001366558 	-1.641621253e-06
0.9505108414 	0.9690134406 	0.009666169554 	-1.574988613e-06
0.9521855636 	0.9634726393 	0.009349719351 	-1.512210624e-06
0.9532765531 	0.9588293423 	0.009094611986 	-1.468058487e-06
0.9543474718 	0.9546440201 	0.008871740563 	-1.427261153e-06
0.9553986881 	0.9503981667 	0.008652085494 	-1.387541836e-06
0.9564305636 	0.9460935822 	0.008435591961 	-1.348858901e-06
0.957443453 	0.9417320494 	0.008222199942 	-1.311174446e-06
0.958437705 	0.9373152683 	0.008011850982 	-1.274453513e-06
0.9594136616 	0.932844805 	0.007804489799 	-1.238662514e-06
0.9603716585 	0.9283220505 	0.007600064592 	-1.20376652e-06
0.9613120254 	0.9237481865 	0.007398527599 	-1.169732952e-06
0.962235086 	0.9191241554 	0.007199833574 	-1.136531905e-06
0.963141158 	0.9144506325 	0.007003939803 	-1.104134305e-06
0.9640305534 	0.9097280003 	0.00681080661 	-1.072511877e-06
0.9649035784 	0.904956324 	0.006620397178 	-1.041637052e-06
0.9657605337 	0.9001353282 	0.006432677481 	-1.011482898e-06
0.9666017145 	0.8952643737 	0.006247616282 	-9.820230814e-07
0.9674274106 	0.8903424344 	0.00606518514 	-9.532318267e-07
0.9682379063 	0.885368075 	0.005885358433 	-9.250838963e-07
0.9690334809 	0.8803394272 	0.005708113371 	-8.975545749e-07
0.9698144087 	0.8752541677 	0.005533430032 	-8.706196663e-07
0.9705809586 	0.8701094944 	0.005361291394 	-8.44255501e-07
0.9713333949 	0.8649021037 	0.005191683416 	-8.184389585e-07
0.972071977 	0.8596281678 	0.005024595091 	-7.931475015e-07
0.9727969594 	0.8542833114 	0.004860018066 	-7.683591118e-07
0.9735085922 	0.8488625904 	0.004697947203 	-7.440516378e-07
0.9742071205 	0.8433604703 	0.004538380739 	-7.202044419e-07
0.9748927854 	0.8377708061 	0.004381319645 	-6.967979895e-07
0.9755658233 	0.8320868234 	0.00422676788 	-6.738136855e-07
0.9762264663 	0.8263011014 	0.004074732449 	-6.512339871e-07
0.9768749423 	0.8204055578 	0.00392522328 	-6.290425277e-07
0.9775114751 	0.8143914369 	0.003778253103 	-6.072241831e-07
0.9781362841 	0.8082493038 	0.003633837338 	-5.857651208e-07
0.9787495851 	0.8019690415 	0.003491993964 	-5.646529303e-07
0.9793515896 	0.7955398533 	0.003352743337 	-5.438767492e-07
0.9799425054 	0.7889502674 	0.003216107983 	-5.234273622e-07
0.9805225364 	0.7821881465 	0.003082112361 	-5.032973109e-07
0.9810918828 	0.7752407012 	0.002950782589 	-4.834809993e-07
0.9816507412 	0.7680945097 	0.002822146137 	-4.639747908e-07
0.9821993045 	0.7607355444 	0.002696231487 	-4.447770901e-07
0.9827377621 	0.7531492066 	0.002573067751 	-4.258884042e-07
0.9832662998 	0.7453203701 	0.002452684248 	-4.073113657e-07
0.9837851002 	0.7372334371 	0.002335110058 	-3.890506847e-07
0.9842943424 	0.7288724066 	0.00222037354 	-3.711129928e-07
0.9847942024 	0.7202209571 	0.002108501843 	-3.535067379e-07
0.9852848526 	0.7112625411 	0.001999520136 	-3.362425996e-07
0.9857664627 	0.7019804724 	0.001893450069 	-3.193332333e-07
0.986239199 	0.6923579208 	0.001790310001 	-3.027852631e-07
0.9867032246 	0.6823774306 	0.001690123868 	-2.865969056e-07
0.9871587001 	0.6720187711 	0.001592906611 	-2.707814378e-07
0.9876057827 	0.6612593527 	0.001498659969 	-2.553399863e-07
0.9880446269 	0.6500787764 	0.001407402069 	-2.402819767e-07
0.9884753843 	0.6384595274 	0.0013191556 	-2.256382112e-07
0.9888982039 	0.6263848728 	0.001233931409 	-2.114205889e-07
0.9893132316 	0.613838488 	0.001151736517 	-1.976370143e-07
0.989720611 	0.6008045513 	0.00107257456 	-1.842961022e-07
0.9901204828 	0.587267966 	0.0009964450709 	-1.714065428e-07
0.9905129853 	0.573214634 	0.0009233432896 	-1.58976526e-07
0.9908982542 	0.5586317636 	0.0008532610768 	-1.470135344e-07
0.9912764225 	0.5435082023 	0.0007861913808 	-1.35524191e-07
0.9916476211 	0.5278347222 	0.000722127062 	-1.245144961e-07
0.9920119783 	0.5130113925 	0.0006661129847 	-1.147455067e-07
0.9922464807 	0.5006142985 	0.0006224069116 	-1.073359273e-07
0.9924809859 	0.489322291 	0.0005848708386 	-1.008544938e-07
0.9927154937 	0.4776393031 	0.0005481804751 	-9.451123181e-08
0.9929500042 	0.4655535206 	0.0005123593411 	-8.831283349e-08
0.9931845174 	0.4530534926 	0.000477436302 	-8.226614285e-08
0.9934190332 	0.4401283221 	0.0004434439744 	-7.637798192e-08
0.9936535518 	0.4267678411 	0.0004104184536 	-7.065505012e-08
0.9938880731 	0.4129627978 	0.0003783970023 	-6.510454964e-08
0.994122597 	0.3987050576 	0.0003473879146 	-5.973668144e-08
0.9943571236 	0.383987792 	0.0003173274697 	-5.456361914e-08
0.994591653 	0.3688052709 	0.0002884828007 	-4.955337689e-08
0.994826185 	0.3531408977 	0.0002610681067 	-4.474174693e-08
0.9950607197 	0.3369644989 	0.0002346367176 	-4.019279725e-08
0.9952952571 	0.3202608551 	0.0002091215904 	-3.583205813e-08
0.9955297972 	0.3030412312 	0.0001848850246 	-3.165249828e-08
0.99576434 	0.2853292845 	0.0001619866759 	-2.770893656e-08
0.9959988855 	0.2671540452 	0.0001404162354 	-2.399957731e-08
0.9962334336 	0.2485477356 	0.0001202257675 	-2.053021983e-08
0.9964679845 	0.229543271 	0.0001014760973 	-1.73102956e-08
0.996702538 	0.210171835 	8.421832061e-05 	-1.434867278e-08
0.9969370943 	0.1904609162 	6.849286103e-05 	-1.165268418e-08
0.9971716532 	0.1704330638 	5.433121539e-05 	-9.228167292e-09
0.9974062148 	0.1501054357 	4.175782359e-05 	-7.079660953e-09
0.9976407792 	0.1294900457 	3.079225113e-05 	-5.210681325e-09
0.9978753462 	0.1085945085 	2.145849077e-05 	-3.624158369e-09
0.9981099159 	0.08742304828 	1.381034642e-05 	-2.323333101e-09
0.9983444883 	0.06597756036 	7.897298855e-06 	-1.311588734e-09
0.9985790633 	0.04425856693 	3.44055498e-06 	-5.849373685e-10
0.9988136411 	0.02226596916 	-8.396268496e-07 	-1.05293828e-10
0.9990482216 	0.009299067683 	-2.642558862e-06 	6.617568752e-11
