0.4709558481 	2.678984553e-08 	-2.573355903e-11 	4.410709518e-16 	2.673887038e-08 	-2.882228424e-13 	5.097171862e-11
0.4709558481 	2.678984553e-08 	-2.573355903e-11 	4.410709518e-16 	2.673887038e-08 	-2.882228424e-13 	5.097171862e-11
0.4711314108 	3.007822894e-07 	-1.129126683e-09 	1.93487849e-14 	3.002094185e-07 	-3.236011009e-12 	5.722825906e-10
0.4713069734 	1.676776383e-06 	-1.474114888e-08 	2.525196751e-13 	1.673568161e-06 	-1.803941968e-11 	3.19028606e-09
0.471482536 	5.585027872e-06 	-9.210935682e-08 	1.576827386e-12 	5.574195938e-06 	-6.007941585e-11 	1.062596673e-08
0.4716580986 	1.381257387e-05 	-3.752280398e-07 	6.415377921e-12 	1.378494016e-05 	-1.485392681e-10 	2.627792728e-08
0.4718336613 	2.833367105e-05 	-1.158645479e-06 	1.976374439e-11 	2.827354068e-05 	-3.044871567e-10 	5.389722675e-08
0.4720092239 	5.124051714e-05 	-2.952045801e-06 	5.015837537e-11 	5.112073477e-05 	-5.499141822e-10 	9.745032875e-08
0.4721847865 	8.469004037e-05 	-6.533636975e-06 	1.103336326e-10 	8.446236313e-05 	-9.067405953e-10 	1.610087392e-07
0.4723603491 	0.000130841796 	-1.298109799e-05 	2.172271888e-10 	0.0001304200116 	-1.395430745e-09 	2.486167904e-07
0.4725359118 	0.000191773598 	-2.366335893e-05 	3.909419652e-10 	0.0001910067021 	-2.033011461e-09 	3.641118618e-07
0.4727114744 	0.0002693664201 	-4.017600494e-05 	6.523555325e-10 	0.0002680001958 	-2.830453438e-09 	5.1088286e-07
0.472887037 	0.0003651565901 	-6.420892888e-05 	1.019375756e-09 	0.0003627851535 	-3.789668404e-09 	6.915693335e-07
0.4730625996 	0.0004801640296 	-9.734940806e-05 	1.502389788e-09 	0.0004761788597 	-4.900776514e-09 	9.077292537e-07
0.4732381623 	0.0006147196317 	-0.0001408459261 	2.100083418e-09 	0.0006082708949 	-6.140626347e-09 	1.159533386e-06
0.4734137249 	0.0007683283811 	-0.0001953807442 	2.797158409e-09 	0.0007583178078 	-7.473514234e-09 	1.445564505e-06
0.4735892875 	0.0009396098071 	-0.0002609104262 	3.565158454e-09 	0.0009247309053 	-8.854484289e-09 	1.762794121e-06
0.4737648501 	0.001126346715 	-0.0003366227943 	4.366566442e-09 	0.001105175572 	-1.023469916e-08 	2.106771808e-06
0.4739404128 	0.001325646759 	-0.0004210261917 	5.16102143e-09 	0.001296770457 	-1.156753122e-08 	2.47200491e-06
0.4741159754 	0.00153419449 	-0.0005121449942 	5.911457889e-09 	0.001496337713 	-1.281193309e-08 	2.852435567e-06
0.474291538 	0.001748620695 	-0.0006080252711 	6.637984032e-09 	0.001700687518 	-1.394348885e-08 	3.24198309e-06
0.4744671006 	0.001964213364 	-0.0007018063188 	6.334524869e-09 	0.001906397961 	-1.485592645e-08 	3.634124369e-06
0.4746426632 	0.002176184229 	-0.0007843978072 	5.836863148e-09 	0.002110626506 	-1.569483613e-08 	4.023440739e-06
0.4748182259 	0.002384631869 	-0.0008595302756 	6.168857299e-09 	0.002312778634 	-1.658528735e-08 	4.40879888e-06
0.4749937885 	0.002590854778 	-0.000933851896 	6.475051503e-09 	0.002512737047 	-1.740637126e-08 	4.78997519e-06
0.4751693511 	0.002793879671 	-0.001007017335 	6.754482389e-09 	0.002709578551 	-1.815591545e-08 	5.165209806e-06
0.4753449137 	0.002992883193 	-0.001078733876 	7.006620349e-09 	0.002902520014 	-1.883158983e-08 	5.53300986e-06
0.4755204764 	0.003187201333 	-0.001148760175 	7.231894721e-09 	0.00309090977 	-1.943467163e-08 	5.892133095e-06
0.475696039 	0.00337630829 	-0.001216906188 	7.431035538e-09 	0.00327423586 	-1.996721489e-08 	6.241603577e-06
0.4758716016 	0.003559802863 	-0.001283027714 	7.604950173e-09 	0.003452110707 	-2.043166717e-08 	6.580682472e-06
0.4760471642 	0.003737394927 	-0.001347019939 	7.754678024e-09 	0.003624251948 	-2.083080503e-08 	6.908831521e-06
0.4762227269 	0.003932200998 	-0.001417210637 	7.89734589e-09 	0.00381305836 	-2.12100742e-08 	7.268749018e-06
0.4764955107 	0.004164129346 	-0.001500772213 	8.036008071e-09 	0.004037818291 	-2.157676904e-08 	7.697203916e-06
0.4767734216 	0.004407376967 	-0.001588409174 	8.14284091e-09 	0.004273521012 	-2.185571116e-08 	8.146518813e-06
0.4770565557 	0.004639269048 	-0.00167195578 	8.204791086e-09 	0.004498186412 	-2.201034722e-08 	8.574793508e-06
0.4773450114 	0.004859442736 	-0.001751293274 	8.224882494e-09 	0.004711458275 	-2.20442295e-08 	8.981348955e-06
0.4776388886 	0.005067718373 	-0.001826386173 	8.207696071e-09 	0.004913162649 	-2.196032785e-08 	9.365853552e-06
0.4779382892 	0.005264064247 	-0.001897280309 	8.160256532e-09 	0.005103268869 	-2.176068195e-08 	9.728248844e-06
0.4782433171 	0.005448562553 	-0.001964105764 	8.092997007e-09 	0.005281855926 	-2.144621492e-08 	1.006868541e-05
0.4785540779 	0.005621380477 	-0.002027083606 	8.020588856e-09 	0.005449085178 	-2.101680667e-08 	1.038747084e-05
0.4788706795 	0.005782750237 	-0.002086534847 	7.962498937e-09 	0.005605181507 	-2.047184022e-08 	1.068503383e-05
0.4791932316 	0.005932964742 	-0.002141650964 	7.782883431e-09 	0.005750432084 	-1.981192596e-08 	1.09619218e-05
0.4795218461 	0.00607240032 	-0.002191732824 	7.46298976e-09 	0.005885204668 	-1.904204249e-08 	1.121883581e-05
0.4798566368 	0.006201475813 	-0.002237661251 	7.118811241e-09 	0.006009903405 	-1.816587824e-08 	1.145654626e-05
0.48019772 	0.006320576046 	-0.002280075806 	6.73769343e-09 	0.00612489947 	-1.718210526e-08 	1.167576072e-05
0.4805452138 	0.006430053551 	-0.002319085816 	6.318375818e-09 	0.006230534406 	-1.608839566e-08 	1.187713027e-05
0.4808992388 	0.006530247504 	-0.002354799818 	5.859363154e-09 	0.006327137179 	-1.488166943e-08 	1.2061282e-05
0.4812599177 	0.006621483608 	-0.002387324499 	5.358900248e-09 	0.006415023896 	-1.355803809e-08 	1.222881851e-05
0.4816273755 	0.006704070429 	-0.002416762659 	4.814918726e-09 	0.006494494166 	-1.211266181e-08 	1.238031093e-05
0.4820017397 	0.006778295349 	-0.002443211268 	4.224985156e-09 	0.006565827168 	-1.053959686e-08 	1.251629146e-05
0.48238314 	0.006844420958 	-0.002466759826 	3.586282404e-09 	0.006629278161 	-8.831720234e-09 	1.263724669e-05
0.4827717088 	0.006902682451 	-0.002487489209 	2.895659363e-09 	0.00668507598 	-6.980835337e-09 	1.274361284e-05
0.4831675807 	0.006953286702 	-0.002505471178 	2.149768871e-09 	0.00673342216 	-4.978024534e-09 	1.28357741e-05
0.4835708931 	0.006996413662 	-0.002520768755 	1.345282664e-09 	0.006774492303 	-2.814228229e-09 	1.29140652e-05
0.4839817856 	0.007032220393 	-0.002533437566 	4.791418992e-10 	0.006808439998 	-4.809399513e-10 	1.297877895e-05
0.4844004009 	0.007060847636 	-0.002543528075 	-4.512113406e-10 	0.006835403171 	2.029138681e-09 	1.303017825e-05
0.4848268841 	0.007082428358 	-0.002551088565 	-1.447667505e-09 	0.006855512357 	4.721623228e-09 	1.306851194e-05
0.485261383 	0.007097097585 	-0.002556168603 	-2.51137192e-09 	0.006868900197 	7.600236093e-09 	1.309403289e-05
0.4857040484 	0.007105003342 	-0.002558822746 	-3.642915025e-09 	0.006875711938 	1.066742709e-08 	1.310701796e-05
0.4861550336 	0.007106310184 	-0.002559109575 	-4.844267352e-09 	0.006876108779 	1.392852625e-08 	1.310777445e-05
0.4866144951 	0.007101168103 	-0.002557079809 	-6.119601988e-09 	0.00687023793 	1.739317391e-08 	1.309658298e-05
0.4870825921 	0.00708969399 	-0.002552773685 	-7.471974704e-09 	0.006858214732 	2.106847407e-08 	1.307366342e-05
0.487559487 	0.007071986961 	-0.002546227221 	-8.902587897e-09 	0.006840137391 	2.495767192e-08 	1.303920298e-05
0.4880453452 	0.007048133631 	-0.002537472139 	-1.041246234e-08 	0.006816092089 	2.906358861e-08 	1.299336596e-05
0.4885403351 	0.00701820866 	-0.002526536058 	-1.200242058e-08 	0.006786153584 	3.33885706e-08 	1.293629485e-05
0.4890446283 	0.006982275501 	-0.002513442755 	-1.367305595e-08 	0.006750385945 	3.793440368e-08 	1.286811178e-05
0.4895583997 	0.006940387313 	-0.002498212489 	-1.542468873e-08 	0.006708843439 	4.270219003e-08 	1.278892022e-05
0.4900818274 	0.006892588015 	-0.002480862376 	-1.725731319e-08 	0.006661571569 	4.769220042e-08 	1.26988069e-05
0.4906150929 	0.006838913463 	-0.002461406817 	-1.917053628e-08 	0.006608608217 	5.290370256e-08 	1.259784403e-05
0.4911583811 	0.006779392755 	-0.002439857961 	-2.116350881e-08 	0.006549984924 	5.833476627e-08 	1.248609174e-05
0.4917118805 	0.006714049652 	-0.002416226223 	-2.323485004e-08 	0.006485728268 	6.398204641e-08 	1.236360069e-05
0.4922757829 	0.006642904123 	-0.002390520828 	-2.538256711e-08 	0.006415861366 	6.984054569e-08 	1.223041496e-05
0.4928502838 	0.006565974013 	-0.002362750402 	-2.76039712e-08 	0.006340405494 	7.590336077e-08 	1.20865751e-05
0.4934355824 	0.006483276845 	-0.002332923602 	-2.989559335e-08 	0.006259381824 	8.216141724e-08 	1.193212146e-05
0.4940318817 	0.006394831741 	-0.002301049776 	-3.225310376e-08 	0.006172813283 	8.860320199e-08 	1.176709776e-05
0.4946393885 	0.006300661484 	-0.002267139661 	-3.467123986e-08 	0.006080726542 	9.521450448e-08 	1.159155484e-05
0.4952583133 	0.006200794694 	-0.002231206096 	-3.714374905e-08 	0.0059831541 	1.019781811e-07 	1.140555465e-05
0.4958888709 	0.006095268099 	-0.002193264752 	-3.966335335e-08 	0.005880136478 	1.088739568e-07 	1.120917443e-05
0.4965312797 	0.005984128871 	-0.002153334847 	-4.22217431e-08 	0.005771724454 	1.15878277e-07 	1.100251098e-05
0.4971857627 	0.005867436963 	-0.00211143983 	-4.480960794e-08 	0.005657981315 	1.229642155e-07 	1.078568494e-05
0.4978525466 	0.005745267349 	-0.002067607979 	-4.741671688e-08 	0.00553898501 	1.301014482e-07 	1.055884491e-05
0.4985318627 	0.005617712049 	-0.002021872868 	-5.00320674e-08 	0.005414830102 	1.372563117e-07 	1.032217115e-05
0.4992239466 	0.005484881779 	-0.001974273633 	-5.264413808e-08 	0.005285629334 	1.443920085e-07 	1.007587858e-05
0.4999290382 	0.005346907079 	-0.001924854968 	-5.5241295e-08 	0.005151514677 	1.514691159e-07 	9.820218763e-06
0.5006473819 	0.005203938901 	-0.00187366683 	-5.781239064e-08 	0.005012637722 	1.584466864e-07 	9.55548069e-06
0.501379227 	0.005056149057 	-0.001820763944 	-6.03473504e-08 	0.004869169633 	1.652837349e-07 	9.281990635e-06
0.502124827 	0.004903731647 	-0.001766205718 	-6.283640742e-08 	0.004721302376 	1.719372451e-07 	9.000114547e-06
0.5028844406 	0.004746908629 	-0.001710058335 	-6.526590521e-08 	0.004569256298 	1.783528312e-07 	8.710272463e-06
0.5036583311 	0.004586109293 	-0.001652467089 	-6.728957618e-08 	0.004413453693 	1.836929656e-07 	8.413269396e-06
0.5044467669 	0.004422435675 	-0.001593844777 	-6.857725652e-08 	0.004254960056 	1.871685404e-07 	8.111136471e-06
0.5052500214 	0.004257300198 	-0.001534724182 	-6.943201623e-08 	0.004095132567 	1.894832284e-07 	7.806460857e-06
0.506068373 	0.004070413405 	-0.001467831731 	-7.015256269e-08 	0.003914352139 	1.913127312e-07 	7.461843114e-06
0.507324668 	0.00384334911 	-0.001386529965 	-7.053226826e-08 	0.003694850275 	1.920014875e-07 	7.043411555e-06
0.5085949819 	0.003601659107 	-0.001299884619 	-7.021049065e-08 	0.003461375449 	1.905257424e-07 	6.598343646e-06
0.5098794711 	0.00336916197 	-0.001216329915 	-6.894335219e-08 	0.003236944456 	1.863133105e-07 	6.170515796e-06
0.5111782938 	0.003148771978 	-0.00113687445 	-6.655522907e-08 	0.003024373746 	1.790346997e-07 	5.765296941e-06
0.5124916099 	0.00294337607 	-0.001062583427 	-6.298419453e-08 	0.002826482268 	1.686878557e-07 	5.388060782e-06
0.5138195812 	0.002755291563 	-0.0009943165935 	-5.849493621e-08 	0.00264534325 	1.560207251e-07 	5.04275947e-06
0.5151623712 	0.002585012907 	-0.0009294589367 	-6.772763699e-08 	0.002481420877 	1.440141969e-07 	4.730277868e-06
0.5165201452 	0.002426804623 	-0.000857960779 	-7.281493619e-08 	0.002331936916 	1.340687326e-07 	4.44531989e-06
0.5178930705 	0.002279616878 	-0.0007849839619 	-6.488968801e-08 	0.002195077861 	1.239447699e-07 	4.184428494e-06
0.5192813161 	0.002146783829 	-0.0007191950264 	-6.196043419e-08 	0.00207138813 	1.127136041e-07 	3.948641488e-06
0.520685053 	0.002027453378 	-0.000657031071 	-5.878132571e-08 	0.001960815607 	1.008824448e-07 	3.737859527e-06
0.522104454 	0.001921678348 	-0.0005985616336 	-5.553224174e-08 	0.00186336082 	8.875811386e-08 	3.552083618e-06
0.523539694 	0.001829282276 	-0.0005438169334 	-5.227239087e-08 	0.001778708338 	7.663863227e-08 	3.390712459e-06
0.5249909497 	0.001749778515 	-0.0004927438375 	-4.905162423e-08 	0.001706321404 	6.482291502e-08 	3.252722843e-06
0.5264583998 	0.001682414407 	-0.0004452109948 	-4.591509749e-08 	0.001645423008 	5.359315453e-08 	3.136633574e-06
0.527942225 	0.001626219077 	-0.0004010368378 	-4.288774318e-08 	0.001595041418 	4.318574294e-08 	3.040592262e-06
0.5294426081 	0.001580068185 	-0.0003600334899 	-3.994632378e-08 	0.001554080815 	3.375636452e-08 	2.962509967e-06
0.5309597337 	0.00154277768 	-0.0003220382304 	-3.702235392e-08 	0.001521415385 	2.534318288e-08 	2.90024058e-06
0.5324937889 	0.001513251246 	-0.0002871771685 	-3.364974678e-08 	0.001495999915 	1.782909584e-08 	2.85179163e-06
0.5340449624 	0.001490612331 	-0.0002554615876 	-3.054527064e-08 	0.001477023223 	1.096296776e-08 	2.81561678e-06
0.5356134452 	0.001474043867 	-0.0002260049173 	-2.88224442e-08 	0.001463781299 	4.815410332e-09 	2.790373992e-06
0.5371994306 	0.001462602001 	-0.0001980169262 	-2.752464858e-08 	0.001455391573 	-3.133488938e-10 	2.774380842e-06
0.5388031139 	0.001455332086 	-0.0001714439345 	-2.60544933e-08 	0.001450903995 	-4.447427453e-09 	2.765826272e-06
0.5404246925 	0.001451406761 	-0.0001462373963 	-2.475430396e-08 	0.001449521627 	-7.79115434e-09 	2.763191095e-06
0.5420643661 	0.001450162211 	-0.0001222292402 	-2.362435782e-08 	0.001450623342 	-1.051342981e-08 	2.765291269e-06
0.5437223366 	0.001451078978 	-9.927034205e-05 	-2.264076493e-08 	0.001453721113 	-1.274066299e-08 	2.771196481e-06
0.5453988083 	0.001453748016 	-7.723432179e-05 	-2.178120258e-08 	0.001458429644 	-1.4572726e-08 	2.780172251e-06
0.5470939875 	0.001457844538 	-5.60141749e-05 	-2.102701476e-08 	0.001464443357 	-1.608670933e-08 	2.791636059e-06
0.5488080831 	0.001463108979 	-3.551907841e-05 	-2.036284478e-08 	0.001471517865 	-1.734244027e-08 	2.805122038e-06
0.5505413061 	0.001469332528 	-1.567177941e-05 	-1.977599121e-08 	0.001479456169 	-1.838696071e-08 	2.820254651e-06
0.5522938699 	0.001476346058 	3.593551331e-06 	-1.925582695e-08 	0.001488098322 	-1.925757545e-08 	2.836728997e-06
0.5540659904 	0.001484011653 	2.233309416e-05 	-1.879335071e-08 	0.001497313554 	-1.998404695e-08 	2.854295792e-06
0.5558578859 	0.00149221609 	4.059485275e-05 	-1.838086393e-08 	0.001506994205 	-2.05902558e-08 	2.872749801e-06
0.5576697768 	0.001500865786 	5.841987919e-05 	-1.8011739e-08 	0.001517051028 	-2.109546952e-08 	2.891920902e-06
0.5595018865 	0.001509882864 	7.584329603e-05 	-1.768024546e-08 	0.001527409543 	-2.151531727e-08 	2.911667111e-06
0.5613544406 	0.001519202069 	9.28951509e-05 	-1.738141221e-08 	0.001538007171 	-2.18625434e-08 	2.931869136e-06
0.563227667 	0.001528768329 	0.0001096011325 	-1.711091305e-08 	0.001548790974 	-2.21475931e-08 	2.952426061e-06
0.5651217966 	0.001538534833 	0.0001259831718 	-1.686496926e-08 	0.001559715866 	-2.237906927e-08 	2.973251941e-06
0.5670370626 	0.001548461489 	0.0001420599488 	-1.664026616e-08 	0.001570743182 	-2.256409016e-08 	2.994273071e-06
0.5689737009 	0.001558513694 	0.00015784732 	-1.643388168e-08 	0.001581839534 	-2.270857069e-08 	3.015425802e-06
0.5709319499 	0.001568661343 	0.0001733586819 	-1.624322574e-08 	0.001592975882 	-2.281744485e-08 	3.036654776e-06
0.5729120508 	0.001578878028 	0.0001886052796 	-1.606598909e-08 	0.001604126787 	-2.289484253e-08 	3.0579115e-06
0.5749142474 	0.001589140386 	0.0002035964714 	-1.590010043e-08 	0.001615269798 	-2.294423096e-08 	3.079153176e-06
0.5769387863 	0.00159942757 	0.0002183399562 	-1.574369066e-08 	0.001626384955 	-2.29685285e-08 	3.100341754e-06
0.5789859169 	0.001609720815 	0.00023284197 	-1.559506304e-08 	0.001637454378 	-2.297019687e-08 	3.121443151e-06
0.5810558911 	0.001620003085 	0.0002471074563 	-1.545266856e-08 	0.001648461929 	-2.295131622e-08 	3.142426602e-06
0.583148964 	0.001630258777 	0.0002611402156 	-1.531508548e-08 	0.001659392934 	-2.291364664e-08 	3.163264137e-06
0.5852653933 	0.001640473488 	0.0002749430367 	-1.518100244e-08 	0.001670233954 	-2.285867892e-08 	3.183930133e-06
0.5874054395 	0.001650633809 	0.0002885178126 	-1.504920461e-08 	0.001680972587 	-2.278767658e-08 	3.204400953e-06
0.5895693664 	0.001660727171 	0.0003018656444 	-1.491856227e-08 	0.001691597318 	-2.270171095e-08 	3.224654643e-06
0.5917574402 	0.001670741708 	0.0003149869343 	-1.478802166e-08 	0.00170209738 	-2.260169065e-08 	3.24467068e-06
0.5939699306 	0.001680666149 	0.0003278814697 	-1.465659745e-08 	0.001712462647 	-2.248838641e-08 	3.26442976e-06
0.5962071099 	0.001690489728 	0.0003405484998 	-1.452336688e-08 	0.001722683545 	-2.236245223e-08 	3.283913633e-06
0.5984692536 	0.001700202116 	0.0003529868065 	-1.438746507e-08 	0.001732750975 	-2.222444346e-08 	3.303104951e-06
0.6007566404 	0.001709793363 	0.0003651947691 	-1.42480815e-08 	0.001742656251 	-2.207483235e-08 	3.32198716e-06
0.6030695519 	0.001719253854 	0.0003771704255 	-1.410445739e-08 	0.001752391053 	-2.191402158e-08 	3.340544399e-06
0.6054082729 	0.001728574274 	0.0003889115289 	-1.395588385e-08 	0.001761947387 	-2.174235605e-08 	3.358761427e-06
0.6077730914 	0.001737745586 	0.0004004156018 	-1.380170072e-08 	0.001771317551 	-2.156013319e-08 	3.376623565e-06
0.6101642987 	0.001746759012 	0.0004116799875 	-1.364129593e-08 	0.001780494115 	-2.136761218e-08 	3.394116646e-06
0.6125821893 	0.001755606024 	0.0004227018984 	-1.347410534e-08 	0.0017894699 	-2.116502205e-08 	3.411226986e-06
0.6150270608 	0.001764278343 	0.0004334784634 	-1.329961299e-08 	0.001798237967 	-2.095256894e-08 	3.427941359e-06
0.6174992144 	0.001772767935 	0.0004440067728 	-1.311735156e-08 	0.001806791612 	-2.073044268e-08 	3.444246984e-06
0.6199989545 	0.001781067019 	0.0004542839223 	-1.292690321e-08 	0.001815124362 	-2.049882261e-08 	3.460131521e-06
0.622526589 	0.001789168077 	0.0004643070551 	-1.272790048e-08 	0.001823229976 	-2.025788288e-08 	3.475583076e-06
0.625082429 	0.001797063868 	0.0004740734029 	-1.252002738e-08 	0.001831102452 	-2.000779728e-08 	3.490590203e-06
0.6276667894 	0.001804747439 	0.000483580326 	-1.230302059e-08 	0.001838736031 	-1.974874347e-08 	3.505141925e-06
0.6302799884 	0.001812212147 	0.0004928253521 	-1.20766706e-08 	0.00184612521 	-1.94809069e-08 	3.519227754e-06
0.6329223478 	0.001819451677 	0.0005018062136 	-1.1840823e-08 	0.001853264755 	-1.920448424e-08 	3.53283771e-06
0.6355941931 	0.001826460067 	0.0005105208846 	-1.159537957e-08 	0.001860149714 	-1.891968643e-08 	3.545962356e-06
0.6382958531 	0.001833231724 	0.000518967616 	-1.134029947e-08 	0.001866775435 	-1.862674134e-08 	3.558592823e-06
0.6410276607 	0.001839761455 	0.0005271449696 	-1.107560018e-08 	0.001873137585 	-1.832589607e-08 	3.57072085e-06
0.6437899523 	0.001846044489 	0.0005350518513 	-1.080135842e-08 	0.001879232168 	-1.801741883e-08 	3.582338818e-06
0.646583068 	0.001852076501 	0.0005426875426 	-1.051771087e-08 	0.001885055544 	-1.770160049e-08 	3.593439792e-06
0.6494073518 	0.001857853641 	0.0005500517305 	-1.022485473e-08 	0.001890604455 	-1.73787557e-08 	3.604017557e-06
0.6522631514 	0.001863372555 	0.0005571445366 	-9.923048038e-09 	0.001895876042 	-1.704922364e-08 	3.614066667e-06
0.6551508186 	0.001868630411 	0.0005639665434 	-9.612609859e-09 	0.001900867871 	-1.67133684e-08 	3.623582481e-06
0.658070709 	0.001873624927 	0.00057051882 	-9.293920111e-09 	0.001905577955 	-1.637157892e-08 	3.632561211e-06
0.6610231822 	0.001878354391 	0.0005768029452 	-8.967419209e-09 	0.001910004777 	-1.602426857e-08 	3.640999964e-06
0.6640086017 	0.001882817686 	0.0005828210285 	-8.633607399e-09 	0.001914147311 	-1.567187426e-08 	3.648896784e-06
0.6670273351 	0.001887014312 	0.0005885757289 	-8.293043783e-09 	0.001918005046 	-1.531485525e-08 	3.6562507e-06
0.6700797543 	0.001890944403 	0.0005940702719 	-7.946345037e-09 	0.00192157801 	-1.495369144e-08 	3.663061761e-06
0.6731662352 	0.001894608752 	0.0005993084629 	-7.594183784e-09 	0.001924866787 	-1.458888133e-08 	3.669331085e-06
0.6762871577 	0.001898008827 	0.0006042946987 	-7.237286607e-09 	0.001927872542 	-1.422093955e-08 	3.67506089e-06
0.6794429063 	0.001901146782 	0.0006090339754 	-6.876431706e-09 	0.00193059704 	-1.385039402e-08 	3.68025454e-06
0.6826338695 	0.00190402548 	0.0006135318936 	-6.512446165e-09 	0.001933042664 	-1.347778279e-08 	3.684916578e-06
0.6858604404 	0.001906648502 	0.0006177946601 	-6.146202838e-09 	0.001935212433 	-1.310365043e-08 	3.689052761e-06
0.6891230163 	0.001909020154 	0.0006218290857 	-5.778616821e-09 	0.001937110021 	-1.272854425e-08 	3.692670092e-06
0.6924219988 	0.001911145484 	0.0006256425795 	-5.410641536e-09 	0.001938739773 	-1.235301012e-08 	3.695776852e-06
0.6957577944 	0.001913030286 	0.0006292431393 	-5.043264396e-09 	0.001940106716 	-1.197758812e-08 	3.698382626e-06
0.6991308138 	0.001914681106 	0.0006326393372 	-4.677502085e-09 	0.00194121658 	-1.160280802e-08 	3.700498335e-06
0.7025414724 	0.001916105246 	0.0006358403012 	-4.314395441e-09 	0.001942075804 	-1.122918459e-08 	3.702136254e-06
0.7059901901 	0.00191731077 	0.0006388556921 	-3.955003964e-09 	0.001942691551 	-1.085721292e-08 	3.70331004e-06
0.7094773917 	0.001918306506 	0.0006416956749 	-3.60039998e-09 	0.001943071721 	-1.048736366e-08 	3.70403475e-06
0.7130035066 	0.001919102046 	0.0006443708864 	-3.251662467e-09 	0.00194322496 	-1.012007846e-08 	3.704326865e-06
0.7165689691 	0.001919707747 	0.0006468923957 	-2.909870607e-09 	0.001943160669 	-9.755765505e-09 	3.704204309e-06
0.7201742182 	0.001920134734 	0.0006492716616 	-2.576097065e-09 	0.001942889019 	-9.394795385e-09 	3.703686468e-06
0.7238196978 	0.001920394901 	0.0006515204826 	-2.251401079e-09 	0.00194242096 	-9.037497475e-09 	3.702794218e-06
0.727505857 	0.001920500911 	0.000653650943 	-1.936821413e-09 	0.001941768236 	-8.684156752e-09 	3.701549944e-06
0.7312331497 	0.001920466213 	0.0006556753625 	-1.633369013e-09 	0.001940943385 	-8.335010256e-09 	3.699977549e-06
0.7350020349 	0.001920305481 	0.0006576007785 	-1.342744714e-09 	0.001939962519 	-7.991145518e-09 	3.698107745e-06
0.7387709215 	0.001920037018 	0.0006594247332 	-1.067997357e-09 	0.001938850713 	-7.655457174e-09 	3.695988334e-06
0.7424982157 	0.001919682663 	0.0006611481891 	-8.116136483e-10 	0.001937637245 	-7.330522939e-09 	3.693675127e-06
0.7461843763 	0.001919263359 	0.000662783081 	-5.740710774e-10 	0.001936346042 	-7.016765273e-09 	3.691213735e-06
0.7498298574 	0.001918797798 	0.0006643440294 	-3.549865179e-10 	0.001934996693 	-6.713683786e-09 	3.688641501e-06
0.7534351078 	0.001918303251 	0.0006658439693 	-1.539065582e-10 	0.001933607375 	-6.420768143e-09 	3.685993076e-06
0.7570005716 	0.001917795663 	0.0006672942762 	2.968146054e-11 	0.001932194951 	-6.137505446e-09 	3.683300603e-06
0.7605266877 	0.001917289742 	0.0006687048893 	1.963403354e-10 	0.001930775061 	-5.863385501e-09 	3.680593897e-06
0.7640138905 	0.001916799061 	0.0006700844296 	3.466746688e-10 	0.001929362209 	-5.59790484e-09 	3.677900609e-06
0.7674626093 	0.001916336142 	0.0006714403145 	4.813232557e-10 	0.001927969848 	-5.340569866e-09 	3.675246382e-06
0.770873269 	0.001915912548 	0.0006727788667 	6.009522008e-10 	0.001926610459 	-5.090899021e-09 	3.672655008e-06
0.7742462894 	0.001915538961 	0.000674105419 	7.062486931e-10 	0.001925295629 	-4.848424033e-09 	3.670148576e-06
0.777582086 	0.001915225265 	0.000675424413 	7.979153626e-10 	0.001924036127 	-4.612690323e-09 	3.667747616e-06
0.7808810695 	0.001914980624 	0.0006767394932 	8.766651553e-10 	0.001922841978 	-4.38325667e-09 	3.665471236e-06
0.7841436462 	0.001914813553 	0.0006780535957 	9.432166539e-10 	0.001921722529 	-4.159694232e-09 	3.663337255e-06
0.787370218 	0.001914731988 	0.0006793690319 	9.982897854e-10 	0.00192068652 	-3.941585029e-09 	3.661362333e-06
0.7905611821 	0.001914743355 	0.0006806875664 	1.042601913e-09 	0.001919742145 	-3.72851998e-09 	3.659562092e-06
0.7937169314 	0.001914854633 	0.0006820104898 	1.07686436e-09 	0.001918897118 	-3.520096613e-09 	3.657951236e-06
0.7968378547 	0.00191507242 	0.0006833386869 	1.101779482e-09 	0.001918158731 	-3.315916547e-09 	3.656543667e-06
0.7999243362 	0.001915402987 	0.0006846726992 	1.118038523e-09 	0.001917533917 	-3.115582814e-09 	3.655352596e-06
0.8029767561 	0.00191585234 	0.0006860127826 	1.126320641e-09 	0.0019170293 	-2.918697076e-09 	3.654390657e-06
0.8059954902 	0.001916426277 	0.0006873589602 	1.127293521e-09 	0.00191665126 	-2.724856731e-09 	3.653670007e-06
0.8089809102 	0.001917130438 	0.0006887110712 	1.121616043e-09 	0.001916405982 	-2.533651747e-09 	3.653202439e-06
0.8119333839 	0.001917970367 	0.0006900688146 	1.109943372e-09 	0.001916299513 	-2.344660953e-09 	3.652999479e-06
0.8148532749 	0.001918951559 	0.0006914317901 	1.092934214e-09 	0.001916337816 	-2.15744721e-09 	3.653072495e-06
0.8177409426 	0.001920079517 	0.0006927995349 	1.071258931e-09 	0.001916526822 	-1.971550531e-09 	3.653432793e-06
0.8205967427 	0.001921359805 	0.0006941715587 	1.045605251e-09 	0.001916872487 	-1.786477915e-09 	3.654091727e-06
0.8234210268 	0.001922798107 	0.0006955473759 	1.016674954e-09 	0.001917380844 	-1.601688629e-09 	3.655060797e-06
0.8262141429 	0.00192440028 	0.000696926537 	9.851603789e-10 	0.001918058062 	-1.416573342e-09 	3.656351762e-06
0.8289764348 	0.00192617241 	0.0006983086564 	9.516848284e-10 	0.001918910497 	-1.230422036e-09 	3.657976742e-06
0.8317082427 	0.001928120873 	0.0006996934387 	9.166891818e-10 	0.001919944769 	-1.042377855e-09 	3.659948351e-06
0.8344099031 	0.001930252373 	0.0007010807023 	8.80240986e-10 	0.001921167835 	-8.514335864e-10 	3.662279855e-06
0.8370817486 	0.00193257403 	0.0007024703917 	8.417058221e-10 	0.001922587016 	-6.565903578e-10 	3.664985208e-06
0.8397241082 	0.001935093538 	0.0007038625039 	7.992654253e-10 	0.001924209812 	-4.566597775e-10 	3.668078709e-06
0.8423373074 	0.001937818895 	0.0007052569227 	7.50133597e-10 	0.001926044419 	-2.477141429e-10 	3.671575978e-06
0.844921668 	0.001940756665 	0.0007066545842 	6.932578062e-10 	0.001928103703 	-2.700545795e-11 	3.675501546e-06
0.8474775082 	0.001943921216 	0.0007080671221 	7.359320376e-10 	0.001930395701 	2.001513069e-10 	3.679870731e-06
0.8500051427 	0.001947413917 	0.0007097510987 	6.808587241e-10 	0.001932945232 	3.800949458e-10 	3.684730846e-06
0.8525048829 	0.001951171003 	0.0007113365574 	4.617507469e-10 	0.00193568844 	5.184408889e-10 	3.689960163e-06
0.8549770366 	0.001955164884 	0.0007126070338 	4.190024569e-10 	0.001938595299 	7.090674452e-10 	3.695501445e-06
0.8574219081 	0.001959520242 	0.0007139758457 	5.195628731e-10 	0.001941742362 	9.740673623e-10 	3.701500622e-06
0.8598397987 	0.001964228124 	0.0007154603619 	6.263761386e-10 	0.001945170262 	1.275182023e-09 	3.708035152e-06
0.862231006 	0.001969278234 	0.0007170656978 	7.374865417e-10 	0.001948915018 	1.585486126e-09 	3.715173696e-06
0.8645958245 	0.00197466838 	0.0007187953698 	8.527403949e-10 	0.001952998591 	1.901812003e-09 	3.722958122e-06
0.8669345455 	0.001980400422 	0.0007206525193 	9.731153179e-10 	0.001957436804 	2.229824621e-09 	3.73141859e-06
0.8692474569 	0.001986479224 	0.0007226401686 	1.099607031e-09 	0.001962241597 	2.573717502e-09 	3.740577861e-06
0.8715348435 	0.001992912407 	0.0007247613769 	1.233140362e-09 	0.0019674223 	2.935723627e-09 	3.75045372e-06
0.8737969871 	0.001999710297 	0.000727019483 	1.374618836e-09 	0.001972987029 	3.317571193e-09 	3.761061641e-06
0.8760341663 	0.002006886021 	0.0007294183597 	1.52495096e-09 	0.001978943972 	3.721403738e-09 	3.772417229e-06
0.8782466565 	0.002014455625 	0.0007319626388 	1.685065058e-09 	0.001985302511 	4.149952045e-09 	3.784538372e-06
0.8804347301 	0.002022438127 	0.0007346578983 	1.855915418e-09 	0.001992074208 	4.606290465e-09 	3.797447109e-06
0.8825986568 	0.002030855504 	0.0007375108052 	2.038486436e-09 	0.001999273607 	5.093549628e-09 	3.811171164e-06
0.8847387028 	0.002039732651 	0.0007405292113 	2.233803852e-09 	0.002006918798 	5.614784158e-09 	3.825745023e-06
0.8868551318 	0.00204909736 	0.0007437222086 	2.442956026e-09 	0.002015031747 	6.173011176e-09 	3.84121056e-06
0.8889482045 	0.002058980335 	0.0007471001504 	2.667122016e-09 	0.002023638407 	6.771347144e-09 	3.857617245e-06
0.8910181784 	0.002069415243 	0.0007506746557 	2.9076008e-09 	0.002032768685 	7.413165684e-09 	3.875022092e-06
0.8930653087 	0.002080438822 	0.0007544586065 	3.165836898e-09 	0.002042456342 	8.10222879e-09 	3.893489459e-06
0.8950898473 	0.002092091004 	0.0007584661533 	3.443439803e-09 	0.002052738895 	8.842774691e-09 	3.913090863e-06
0.8970920436 	0.002104415091 	0.0007627127364 	3.742196821e-09 	0.002063657563 	9.63956502e-09 	3.93390488e-06
0.8990721441 	0.002117457951 	0.0007672151299 	4.064080467e-09 	0.00207525731 	1.049790222e-08 	3.956017221e-06
0.9010303927 	0.002131270266 	0.0007719915102 	4.411252338e-09 	0.002087586966 	1.142362933e-08 	3.979520972e-06
0.9029670306 	0.002145906814 	0.0007770615498 	4.786065595e-09 	0.002100699453 	1.24231225e-08 	4.004517017e-06
0.9048822962 	0.002161426805 	0.0007824465329 	5.191068053e-09 	0.00211465208 	1.350328415e-08 	4.031114602e-06
0.9067764254 	0.002177894257 	0.0007881694919 	5.629007491e-09 	0.0021295069 	1.467154253e-08 	4.059432017e-06
0.9086496514 	0.002195378431 	0.0007942553603 	6.102840446e-09 	0.002145331114 	1.593586212e-08 	4.089597367e-06
0.910502205 	0.002213954311 	0.0008007311415 	6.615745284e-09 	0.002162197509 	1.730476813e-08 	4.121749404e-06
0.9123343142 	0.002233703147 	0.0008076260931 	7.171139999e-09 	0.002180184928 	1.878738806e-08 	4.156038423e-06
0.9141462048 	0.002254713045 	0.0008149719266 	7.772704502e-09 	0.00219937877 	2.039351234e-08 	4.192627221e-06
0.9159380997 	0.002277079618 	0.0008228030268 	8.424406234e-09 	0.002219871546 	2.213367509e-08 	4.231692148e-06
0.9177102197 	0.002300906684 	0.0008311566909 	9.13052634e-09 	0.002241763492 	2.401925289e-08 	4.273424282e-06
0.9194627831 	0.002326307013 	0.0008400733903 	9.895681392e-09 	0.002265163259 	2.606257296e-08 	4.318030742e-06
0.9211960055 	0.002353403076 	0.0008495970527 	1.072483272e-08 	0.002290188699 	2.827701086e-08 	4.365736186e-06