0.4706627813 	2.062782247e-08 	-1.780267207e-11 	-6.526680363e-16 	2.058877461e-08 	3.159399878e-13 	3.924792677e-11
0.4708355793 	2.303464139e-07 	-7.704569979e-10 	-1.775368337e-14 	2.299165554e-07 	1.797056768e-12 	4.382848567e-10
0.4710083775 	1.275802507e-06 	-9.95333362e-09 	-1.56742127e-13 	1.273478515e-06 	5.070863934e-12 	2.427603995e-09
0.4711811759 	4.233632374e-06 	-6.182118587e-08 	-6.89017027e-13 	4.226168707e-06 	7.67269038e-12 	8.056252158e-09
0.4713539745 	1.044660942e-05 	-2.508837809e-07 	-1.947498539e-12 	1.042884749e-05 	5.486920719e-12 	1.988028186e-08
0.4715267733 	2.139791568e-05 	-7.72827143e-07 	-3.911593423e-12 	2.136257363e-05 	-6.168416455e-12 	4.072300276e-08
0.4716995723 	3.866147988e-05 	-1.966575457e-06 	-5.506244626e-12 	3.859797416e-05 	-3.207535856e-11 	7.35784665e-08
0.4718723715 	6.386654633e-05 	-4.35205097e-06 	-3.740928697e-12 	6.375761235e-05 	-7.690068416e-11 	1.215397297e-07
0.4720451709 	9.8659315e-05 	-8.656590319e-06 	7.0833918e-12 	9.847380291e-05 	-1.449789977e-10 	1.877184377e-07
0.4722179705 	0.0001446530017 	-1.582087647e-05 	3.577528298e-11 	0.000144332932 	-2.399362564e-10 	2.751386837e-07
0.4723907703 	0.0002033605042 	-2.697413826e-05 	9.38959924e-11 	0.0002028005967 	-3.640299708e-10 	3.865943029e-07
0.4725635703 	0.0002761066805 	-4.336980974e-05 	1.94358593e-10 	0.0002751256492 	-5.171623644e-10 	5.244659545e-07
0.4727363705 	0.000363921914 	-6.627833153e-05 	3.489539392e-10 	0.0003622273943 	-6.956916804e-10 	6.905060894e-07
0.4729091709 	0.0004674255914 	-9.684386591e-05 	5.65197864e-10 	0.0004645786151 	-8.913988571e-10 	8.856159634e-07
0.4730819714 	0.0005867162263 	-0.0001359247268 	8.433488836e-10 	0.0005821054354 	-1.091141219e-09 	1.109654748e-06
0.4732547721 	0.0007212913564 	-0.000183948747 	1.174676357e-09 	0.0007141290876 	-1.277673132e-09 	1.361328523e-06
0.4734275731 	0.0008700210746 	-0.0002408184034 	1.541822124e-09 	0.0008593704834 	-1.431754992e-09 	1.638198991e-06
0.4736003742 	0.001031191231 	-0.0003058919397 	1.921379654e-09 	0.001016025581 	-1.53513706e-09 	1.936827147e-06
0.4737731754 	0.001202616559 	-0.0003780473048 	2.287938593e-09 	0.00118190259 	-1.573593456e-09 	2.253034829e-06
0.4739459769 	0.001381806091 	-0.0004558130751 	2.61830098e-09 	0.001354597341 	-1.539159728e-09 	2.582239022e-06
0.4741187785 	0.001566161225 	-0.0005375321261 	2.89461391e-09 	0.0015316566 	-1.430872444e-09 	2.919763181e-06
0.4742915803 	0.001753309271 	-0.0006220331456 	3.128440976e-09 	0.001710802391 	-1.254444253e-09 	3.26126485e-06
0.4744643823 	0.001938387939 	-0.0006991464449 	3.062408881e-09 	0.001889132781 	-1.090094637e-09 	3.601212137e-06
0.4746371844 	0.002119482282 	-0.0007659310783 	3.003291042e-09 	0.002065384596 	-1.02633438e-09 	3.937197083e-06
0.4748099867 	0.002298574795 	-0.0008306599007 	3.235593141e-09 	0.0022399462 	-1.017826589e-09 	4.269960019e-06
0.4749827891 	0.002475403652 	-0.0008945670686 	3.463225137e-09 	0.002412288979 	-1.006094701e-09 	4.598493256e-06
0.4751555917 	0.002649292283 	-0.0009574149254 	3.684797013e-09 	0.002581780077 	-9.897919444e-10 	4.921590396e-06
0.4753283945 	0.002819683194 	-0.001019001366 	3.899184538e-09 	0.002747873788 	-9.683116307e-10 	5.238211171e-06
0.4755011974 	0.002986124755 	-0.001079162375 	4.105810849e-09 	0.002910126906 	-9.423826221e-10 	5.54751071e-06
0.4756740004 	0.003148261033 	-0.001137768961 	4.30449017e-09 	0.003068191179 	-9.132726568e-10 	5.848825147e-06
0.4758468036 	0.003327305444 	-0.001202488471 	4.523776765e-09 	0.003242745475 	-8.822457179e-10 	6.18157415e-06
0.4761153003 	0.003542144182 	-0.001280149667 	4.778141441e-09 	0.003452210844 	-8.358702757e-10 	6.58087336e-06
0.4763888437 	0.003769487369 	-0.001362336649 	5.047428535e-09 	0.00367389268 	-7.920688062e-10 	7.003460554e-06
0.4766675287 	0.003988248101 	-0.001441426983 	5.306772186e-09 	0.003887231265 	-7.595304827e-10 	7.410143191e-06
0.4769514519 	0.004197916781 	-0.001517236651 	5.558638574e-09 	0.004091726625 	-7.45509215e-10 	7.799968184e-06
0.4772407118 	0.004398172752 	-0.001589652568 	5.805351219e-09 	0.004287066686 	-7.557082407e-10 	8.172340631e-06
0.4775354087 	0.004588856227 	-0.001658623244 	6.048774886e-09 	0.004473095801 	-7.941050321e-10 	8.526963829e-06
0.4778356448 	0.004769939143 	-0.001724151199 	6.289998851e-09 	0.004649785876 	-8.625242445e-10 	8.863784222e-06
0.4781415242 	0.004941498088 	-0.001786287813 	6.52917168e-09 	0.004817210648 	-9.602311254e-10 	9.182942369e-06
0.4784531529 	0.005103690654 	-0.001845130557 	6.765643192e-09 	0.004975522861 	-1.083869514e-09 	9.484729448e-06
0.478770639 	0.005256736112 	-0.001900822616 	6.998511459e-09 	0.005124935444 	-1.227956972e-09 	9.769551359e-06
0.4790940926 	0.005400903998 	-0.001953382976 	7.153898406e-09 	0.005265708109 	-1.387415801e-09 	1.003790318e-05
0.4794236259 	0.005536511328 	-0.002002508451 	7.332504472e-09 	0.005398142148 	-1.561390398e-09 	1.029035927e-05
0.4797593531 	0.005663906426 	-0.002048375942 	7.598877418e-09 	0.005522575917 	-1.738618288e-09 	1.052756462e-05
0.4801013905 	0.005783437402 	-0.00209145562 	7.844295026e-09 	0.005639351852 	-1.901986889e-09 	1.075017201e-05
0.4804498569 	0.005895442699 	-0.002131856898 	8.067264063e-09 	0.005748798073 	-2.042727583e-09 	1.095880692e-05
0.480804873 	0.006000256749 	-0.002169690778 	8.266395402e-09 	0.00585123841 	-2.153762836e-09 	1.115408668e-05
0.4811665619 	0.006098208065 	-0.00220506865 	8.440242671e-09 	0.005946991742 	-2.228641329e-09 	1.133661914e-05
0.4815350489 	0.006189643891 	-0.00223811048 	8.581558947e-09 	0.006036395667 	-2.245788121e-09 	1.150704787e-05
0.4819109242 	0.006274910259 	-0.002268936681 	8.682604301e-09 	0.006119785028 	-2.183930744e-09 	1.166601117e-05
0.4822941986 	0.006354280465 	-0.002297642457 	8.747328214e-09 	0.006197424029 	-2.053261456e-09 	1.181401268e-05
0.482684677 	0.006427986947 	-0.002324309315 	8.784786363e-09 	0.006269538421 	-1.8772853e-09 	1.195148276e-05
0.4830824948 	0.006496279933 	-0.002349025638 	8.797877697e-09 	0.006336371026 	-1.663418726e-09 	1.207888428e-05
0.4834877901 	0.006559411006 	-0.002371880638 	8.785985801e-09 	0.006398165687 	-1.409607725e-09 	1.219668208e-05
0.4839007033 	0.006617614621 	-0.002392957707 	8.748652192e-09 	0.00645514975 	-1.114154797e-09 	1.230530954e-05
0.4843213776 	0.00667110804 	-0.002412334305 	8.685547433e-09 	0.006507533925 	-7.756820603e-10 	1.240516834e-05
0.484749959 	0.006720091871 	-0.002430082073 	8.596457464e-09 	0.006555512731 	-3.931184231e-10 	1.249662928e-05
0.485186596 	0.006764751451 	-0.002446267306 	8.481305633e-09 	0.006599265893 	3.424303355e-11 	1.258003496e-05
0.48563144 	0.00680526064 	-0.002460952293 	8.341683122e-09 	0.006638962096 	5.026097867e-10 	1.265570696e-05
0.4860846455 	0.006841804012 	-0.002474203229 	8.179449258e-09 	0.006674780509 	1.007569234e-09 	1.272398681e-05
0.4865463694 	0.006874574885 	-0.002486089475 	7.99398059e-09 	0.00670690884 	1.551542721e-09 	1.278523234e-05
0.4870167719 	0.006903738653 	-0.00249667044 	7.784611721e-09 	0.006735507731 	2.136991358e-09 	1.283974977e-05
0.4874960162 	0.006929433528 	-0.002505995831 	7.551845858e-09 	0.006760711424 	2.763094489e-09 	1.288779502e-05
0.4879842685 	0.006951786968 	-0.002514111492 	7.296274936e-09 	0.006782643666 	3.42873567e-09 	1.292960397e-05
0.488481698 	0.006970916295 	-0.002521059629 	7.018576858e-09 	0.006801418354 	4.132526711e-09 	1.296539374e-05
0.4889884774 	0.006986929267 	-0.002526879029 	6.719511779e-09 	0.006817140127 	4.872837577e-09 	1.299536381e-05
0.4895047822 	0.006999924631 	-0.002531605244 	6.399918259e-09 	0.006829904901 	5.647821479e-09 	1.301969702e-05
0.4900307917 	0.007009992653 	-0.00253527079 	6.060706403e-09 	0.006839800386 	6.4554476e-09 	1.303856056e-05
0.4905666881 	0.007017215652 	-0.002537905315 	5.702854805e-09 	0.006846906544 	7.293504906e-09 	1.305210687e-05
0.4911126574 	0.007021668555 	-0.002539535741 	5.3274224e-09 	0.006851295898 	8.159520546e-09 	1.30604742e-05
0.4916688889 	0.007023419135 	-0.002540186513 	4.935465798e-09 	0.0068530344 	9.051161786e-09 	1.306378827e-05
0.4922355755 	0.007022527828 	-0.002539879767 	4.52796331e-09 	0.00685218218 	9.96660062e-09 	1.30621637e-05
0.4928132114 	0.007019046683 	-0.002538633985 	4.107300596e-09 	0.006848788745 	1.089900956e-08 	1.305569487e-05
0.4934025382 	0.007013019243 	-0.00253646453 	3.676918431e-09 	0.006842895083 	1.183864598e-08 	1.304445991e-05
0.4940029419 	0.007004487629 	-0.002533386893 	3.236186159e-09 	0.006834543332 	1.278950195e-08 	1.302853915e-05
0.4946146306 	0.006993492417 	-0.002529415742 	2.785906999e-09 	0.006823773146 	1.374990625e-08 	1.300800819e-05
0.4952378166 	0.006980067809 	-0.002524563337 	2.327018991e-09 	0.006810617513 	1.471786449e-08 	1.298292989e-05
0.4958727159 	0.006964243331 	-0.002518840306 	1.860395274e-09 	0.00679510508 	1.569163876e-08 	1.295335889e-05
0.4965195487 	0.006946044153 	-0.002512255725 	1.386862284e-09 	0.006777260335 	1.666963627e-08 	1.291934184e-05
0.4971785393 	0.00692549138 	-0.002504817198 	9.072044219e-10 	0.006757103796 	1.765037327e-08 	1.288091787e-05
0.4978499162 	0.006902602303 	-0.002496530955 	4.221587456e-10 	0.006734652271 	1.863249676e-08 	1.283811903e-05
0.4985339123 	0.006877390653 	-0.002487401942 	-6.758590184e-11 	0.006709919115 	1.96147897e-08 	1.279097076e-05
0.4992307647 	0.006849866847 	-0.002477433915 	-5.613876768e-10 	0.006682914474 	2.059617076e-08 	1.273949241e-05
0.4999407151 	0.006820038229 	-0.002466629529 	-1.05865036e-09 	0.006653645551 	2.157569715e-08 	1.268369771e-05
0.5006640096 	0.006787909315 	-0.00245499042 	-1.558812686e-09 	0.006622116791 	2.255252366e-08 	1.262359513e-05
0.5014008992 	0.006753482097 	-0.00244251721 	-2.061309687e-09 	0.006588329802 	2.352571581e-08 	1.255918773e-05
0.5021516393 	0.006716755977 	-0.002429209583 	-2.565611739e-09 	0.006552283662 	2.449445147e-08 	1.249047377e-05
0.5029164903 	0.006677723415 	-0.002415065694 	-3.071138789e-09 	0.006513974497 	2.545853979e-08 	1.241744586e-05
0.503695936 	0.00663635678 	-0.002400076451 	-3.574288614e-09 	0.006473378909 	2.640872821e-08 	1.234005938e-05
0.5044912129 	0.006592629608 	-0.002384230458 	-4.069138686e-09 	0.006430464125 	2.73258061e-08 	1.225825188e-05
0.5053014374 	0.006540512642 	-0.002365338804 	-4.62860166e-09 	0.006379298124 	2.837733826e-08 	1.216071526e-05
0.5065452568 	0.006472966643 	-0.00234085299 	-5.292762554e-09 	0.006312983853 	2.954398936e-08 	1.203430183e-05
0.5078029565 	0.006395262394 	-0.002312688395 	-6.012907173e-09 	0.006236715631 	3.084203821e-08 	1.18889134e-05
0.5090746915 	0.006313590536 	-0.002283086133 	-6.717795208e-09 	0.006156559737 	3.210373727e-08 	1.173611399e-05
0.5103606185 	0.006228080871 	-0.002252091222 	-7.405372795e-09 	0.006072635953 	3.332167951e-08 	1.157613193e-05
0.5116608957 	0.00613884213 	-0.002219744492 	-8.075013446e-09 	0.005985056586 	3.449658913e-08 	1.140918131e-05
0.5129756833 	0.006045967746 	-0.002186081569 	-8.72609981e-09 	0.005893920143 	3.562950698e-08 	1.123544992e-05
0.5143051433 	0.005949504654 	-0.002151119784 	-9.352919981e-09 	0.005799273904 	3.670596098e-08 	1.105502789e-05
0.5156513952 	0.005849481557 	-0.002114869556 	-9.944583886e-09 	0.005701145886 	3.769560242e-08 	1.086796861e-05
0.5170128819 	0.005745989583 	-0.002077365337 	-1.050811101e-08 	0.005599630681 	3.862125797e-08 	1.067445241e-05
0.5183895608 	0.00563912497 	-0.002038642885 	-1.104742954e-08 	0.005494825823 	3.949474795e-08 	1.047466523e-05
0.5197816015 	0.005528943474 	-0.001998723092 	-1.156168245e-08 	0.00538678823 	4.031464263e-08 	1.026871555e-05
0.5211891754 	0.005415491215 	-0.00195762348 	-1.204963017e-08 	0.00527556577 	4.107842718e-08 	1.005669463e-05
0.5226124558 	0.005298808021 	-0.00191535936 	-1.251023468e-08 	0.005161200401 	4.178412294e-08 	9.838682446e-06
0.5240516179 	0.005178917402 	-0.001871940602 	-1.294203607e-08 	0.005043719976 	4.242873181e-08 	9.614732104e-06
0.5255072092 	0.005055794502 	-0.001827358611 	-1.333906773e-08 	0.004923101572 	4.299600986e-08 	9.384799903e-06
0.5269808209 	0.004929410939 	-0.001781603562 	-1.369545367e-08 	0.004799319385 	4.346961554e-08 	9.14883665e-06
0.5284708748 	0.00479979283 	-0.001734686201 	-1.402108269e-08 	0.004672405013 	4.387811543e-08 	8.906902582e-06
0.5299775543 	0.004666933561 	-0.001686604515 	-1.432049431e-08 	0.004542355765 	4.423326348e-08 	8.65899257e-06
0.5315010449 	0.004530759495 	-0.001637331986 	-1.459422096e-08 	0.004409103888 	4.453554459e-08 	8.404977458e-06
0.5330415342 	0.004391174695 	-0.001586834564 	-1.48408523e-08 	0.004272563797 	4.477993437e-08 	8.144694095e-06
0.5345992119 	0.004248423556 	-0.001535204265 	-1.498722376e-08 	0.004132987457 	4.477246828e-08 	7.878622798e-06
0.5361744585 	0.004103380093 	-0.001482763705 	-1.495269862e-08 	0.003991238188 	4.429973147e-08 	7.608409294e-06
0.5377691979 	0.003957019628 	-0.001429872617 	-1.477487984e-08 	0.003848278841 	4.346049214e-08 	7.335889044e-06
0.5393817296 	0.003810042747 	-0.001376789284 	-1.450507516e-08 	0.003704807348 	4.239150456e-08 	7.062392503e-06
0.5410122523 	0.003663049905 	-0.00132373199 	-1.414290289e-08 	0.003561416437 	4.109008015e-08 	6.789049574e-06
0.5426609666 	0.003516657208 	-0.001270921838 	-1.369218956e-08 	0.003418707956 	3.95633423e-08 	6.517007545e-06
0.5443280756 	0.003371545539 	-0.001218601039 	-1.315351298e-08 	0.003277343362 	3.780881778e-08 	6.247527339e-06
0.5460137845 	0.003228505397 	-0.00116704828 	-1.252565618e-08 	0.003138081715 	3.581937478e-08 	5.982055933e-06
0.5477194288 	0.003088509642 	-0.001116605199 	-1.180771088e-08 	0.003001846545 	3.359038548e-08 	5.722353834e-06
0.5494450171 	0.002952798454 	-0.001067711494 	-1.101416611e-08 	0.002869820167 	3.11622513e-08 	5.470674863e-06
0.5511898565 	0.002822767006 	-0.001020870267 	-1.017287811e-08 	0.002743355447 	2.861316098e-08 	5.229597958e-06
0.5529541618 	0.002699662506 	-0.0009765139945 	-9.318588639e-09 	0.002623596535 	2.60426024e-08 	5.001304186e-06
0.5547381503 	0.002584057601 	-0.0009348383581 	-8.490346974e-09 	0.00251108618 	2.356527709e-08 	4.786828179e-06
0.5565420416 	0.002472517329 	-0.0008868718269 	-8.029258074e-09 	0.002404191689 	2.132999007e-08 	4.58305757e-06
0.5583670057 	0.002363849382 	-0.0008342733048 	-7.252319108e-09 	0.002301372759 	1.927874373e-08 	4.387056112e-06
0.5602133451 	0.002259954557 	-0.0007858279477 	-6.176750877e-09 	0.00220266336 	1.731615275e-08 	4.198888563e-06
0.5620802817 	0.002160339164 	-0.0007389852991 	-5.437580026e-09 	0.002108024981 	1.54479663e-08 	4.018481508e-06
0.5639680453 	0.00206501519 	-0.000693082311 	-4.777313152e-09 	0.002017653877 	1.36513e-08 	3.846209068e-06
0.5658768684 	0.001974248232 	-0.0006481752121 	-4.177668247e-09 	0.001931750585 	1.193580327e-08 	3.682453517e-06
0.567806986 	0.00188827741 	-0.0006043349867 	-3.62752929e-09 	0.001850524338 	1.030561745e-08 	3.527613714e-06
0.5697601668 	0.001807325567 	-0.0005616298683 	-3.11860885e-09 	0.001774173623 	8.764994218e-09 	3.382068032e-06
0.571735477 	0.001731624542 	-0.000520140025 	-2.649681577e-09 	0.00170289984 	7.330593231e-09 	3.246200391e-06
0.5737328224 	0.001661368974 	-0.0004799388476 	-2.219713563e-09 	0.001636864685 	6.014055311e-09 	3.120319033e-06
0.5757524488 	0.001596684287 	-0.0004410790124 	-1.827781147e-09 	0.001576164244 	4.823630347e-09 	3.004607121e-06
0.5777946049 	0.001537625174 	-0.0004035929044 	-1.473411827e-09 	0.001520827973 	3.765315279e-09 	2.89912081e-06
0.5798604356 	0.001484175245 	-0.0003674933328 	-1.156076652e-09 	0.001470819234 	2.841837832e-09 	2.803790253e-06
0.581950188 	0.001436260521 	-0.000332784772 	-8.768307301e-10 	0.00142605116 	2.056655125e-09 	2.718449861e-06
0.5840632515 	0.001393743189 	-0.0002994626311 	-6.367515918e-10 	0.001386380381 	1.410211547e-09 	2.642826331e-06
0.5861998861 	0.001356408092 	-0.0002675041977 	-4.356626576e-10 	0.00135159538 	8.978119723e-10 	2.576516451e-06
0.5883603551 	0.001323970636 	-0.0002368707574 	-2.728624087e-10 	0.001321424007 	5.116531373e-10 	2.519001428e-06
0.5905457595 	0.001296096663 	-0.0002075166868 	-1.47394726e-10 	0.0012955526 	2.413859731e-10 	2.469683335e-06
0.5927563685 	0.001272431297 	-0.0001794033068 	-5.905157752e-11 	0.001273656108 	7.611799181e-11 	2.427942536e-06
0.5949916363 	0.001252627421 	-0.0001525003969 	-7.601634619e-12 	0.001255424328 	4.605708291e-12 	2.393187696e-06
0.5956145471 	0.001248147602 	-0.000145422759 	3.159794791e-07 	0.001251334638 	-2.359401537e-07 	2.38539161e-06
0.597251833 	0.001236373082 	-0.0001268196103 	-1.615695268e-11 	0.001240585581 	-1.021599587e-11 	2.364900921e-06
0.5995372403 	0.001223468984 	-0.0001022604238 	-7.675674975e-12 	0.001228965597 	-9.195135394e-11 	2.342750002e-06
0.6018493437 	0.001213768265 	-7.856545772e-05 	3.03864564e-11 	0.001220409558 	-2.444116832e-10 	2.326439812e-06
0.6041875845 	0.001206990892 	-5.562310458e-05 	9.776680952e-11 	0.001214621477 	-4.519747495e-10 	2.315406121e-06
0.6065519077 	0.001202757818 	-3.343880736e-05 	1.934018313e-10 	0.001211223786 	-6.999301357e-10 	2.308929178e-06
0.6089426045 	0.001200718098 	-1.19692375e-05 	3.130958993e-10 	0.001209875513 	-9.777021626e-10 	2.306358995e-06
0.6113603927 	0.001200575267 	8.845472306e-06 	4.540626448e-10 	0.001210288033 	-1.277189435e-09 	2.307145372e-06
0.6138061608 	0.001202079753 	2.905836449e-05 	6.135763e-10 	0.001212217763 	-1.591536442e-09 	2.310823975e-06
0.6162792104 	0.001205019941 	4.871260843e-05 	7.885220233e-10 	0.001215457371 	-1.914388484e-09 	2.316999568e-06
0.6187798463 	0.001209215565 	6.784742073e-05 	9.761765891e-10 	0.001219829797 	-2.241326767e-09 	2.325334627e-06
0.6213084247 	0.001214514196 	8.650168853e-05 	1.174241232e-09 	0.001225184039 	-2.568925207e-09 	2.335541301e-06
0.6238664781 	0.001220785789 	0.0001047098908 	1.380736363e-09 	0.0012313917 	-2.894753607e-09 	2.347374827e-06
0.6264530657 	0.00122791705 	0.0001224981177 	1.592713476e-09 	0.001238341419 	-3.21496014e-09 	2.360622925e-06
0.6290685061 	0.001235810054 	0.0001398897262 	1.807973705e-09 	0.001245936475 	-3.527773902e-09 	2.375101211e-06
0.6317131215 	0.001244381773 	0.000156909124 	2.024785631e-09 	0.001254094465 	-3.831758932e-09 	2.390652609e-06
0.6343884117 	0.001253560193 	0.0001735781119 	2.24172145e-09 	0.00126274492 	-4.126080115e-09 	2.40714278e-06
0.6370935724 	0.001263280252 	0.0001899124624 	2.456215157e-09 	0.001271825312 	-4.40805119e-09 	2.424452531e-06
0.6398289089 	0.001273485053 	0.0002059265064 	2.66663297e-09 	0.001281280385 	-4.677030112e-09 	2.442476528e-06
0.642594864 	0.001284126255 	0.0002216357688 	2.871831092e-09 	0.001291063696 	-4.932489304e-09 	2.461126238e-06
0.6453926582 	0.001295160985 	0.0002370539178 	3.070573574e-09 	0.001301135288 	-5.173746169e-09 	2.48032549e-06
0.6482216616 	0.001306549146 	0.0002521905728 	3.260849671e-09 	0.001311458758 	-5.398912879e-09 	2.500004894e-06
0.6510822229 	0.001318255883 	0.0002670551344 	3.441615722e-09 	0.001322001711 	-5.607869918e-09 	2.520102692e-06
0.6539750699 	0.001330251283 	0.000281657751 	3.612271722e-09 	0.001332737782 	-5.800518966e-09 	2.540568628e-06
0.6569007941 	0.001342507803 	0.0002960067298 	3.771435368e-09 	0.001343643738 	-5.975558279e-09 	2.561358411e-06
0.6598591553 	0.001354999648 	0.000310108285 	3.917913271e-09 	0.001354697892 	-6.132116533e-09 	2.5824307e-06
0.6628505183 	0.001367704978 	0.0003239692507 	4.051238319e-09 	0.001365881825 	-6.27022797e-09 	2.603750386e-06
0.6658759722 	0.00138060469 	0.0003375965848 	4.17104932e-09 	0.001377181101 	-6.389744094e-09 	2.625289947e-06
0.6689353345 	0.001393680107 	0.0003509951844 	4.275981173e-09 	0.001388582222 	-6.488987767e-09 	2.647023651e-06
0.6720288258 	0.001406915133 	0.0003641697447 	4.365702634e-09 	0.001400072606 	-6.568095762e-09 	2.668927517e-06
0.6751571363 	0.001420296218 	0.0003771256051 	4.440273439e-09 	0.001411643516 	-6.6271893e-09 	2.690984888e-06
0.6783208177 	0.001433810927 	0.000389867414 	4.498810769e-09 	0.001423287753 	-6.665038777e-09 	2.713182039e-06
0.6815197924 	0.001447447933 	0.000402398873 	4.540922579e-09 	0.001434998115 	-6.681309562e-09 	2.735505245e-06
0.6847545243 	0.001461198355 	0.0004147243062 	4.566892296e-09 	0.001446770053 	-6.676355998e-09 	2.75794583e-06
0.6880259633 	0.001475054944 	0.0004268482318 	4.576433063e-09 	0.001458601471 	-6.649609437e-09 	2.780499802e-06
0.6913338986 	0.001489010902 	0.0004387740689 	4.56904422e-09 	0.001470490073 	-6.600301512e-09 	2.803162781e-06
0.6946787382 	0.001503061923 	0.0004505058242 	4.545182724e-09 	0.001482435285 	-6.529060302e-09 	2.825933675e-06
0.6980614523 	0.001517205508 	0.0004620480466 	4.50498919e-09 	0.001494439651 	-6.435808202e-09 	2.848817333e-06
0.7014819514 	0.001531439842 	0.0004734045301 	4.447952031e-09 	0.00150650577 	-6.319719858e-09 	2.87181871e-06
0.7049406118 	0.001545765606 	0.0004845795672 	4.37466028e-09 	0.00151863764 	-6.181693094e-09 	2.894945426e-06
0.7084383096 	0.001560185357 	0.0004955780452 	4.285397757e-09 	0.001530842703 	-6.021956053e-09 	2.918211667e-06
0.7119751059 	0.001574702945 	0.0005064044773 	4.179676436e-09 	0.001543128915 	-5.839975616e-09 	2.941632603e-06
0.7155513621 	0.001589324829 	0.0005170638039 	4.058059534e-09 	0.001555505966 	-5.636936145e-09 	2.965226701e-06
0.7191679237 	0.001604059511 	0.0005275614321 	3.920578587e-09 	0.0015679873 	-5.413296206e-09 	2.989019593e-06
0.7228248847 	0.001618917256 	0.0005379023111 	3.766410438e-09 	0.001580587397 	-5.16897079e-09 	3.01303888e-06
0.726522657 	0.001633910811 	0.0005480913437 	3.595415318e-09 	0.001593323669 	-4.905435686e-09 	3.037317754e-06
0.7302620662 	0.001649054826 	0.000558132847 	3.406023308e-09 	0.001606217804 	-4.623115576e-09 	3.06189756e-06
0.7340431982 	0.001664324505 	0.0005680021026 	3.195426481e-09 	0.00161925776 	-4.322694553e-09 	3.08675534e-06
0.7378244042 	0.001679605851 	0.0005776177199 	2.962473356e-09 	0.001632358572 	-4.009109064e-09 	3.111729129e-06
0.7415641218 	0.001694781882 	0.000586901028 	2.703332293e-09 	0.001645438042 	-3.686237698e-09 	3.136662233e-06
0.7452625656 	0.001709818444 	0.0005958222734 	2.409550125e-09 	0.001658489939 	-3.355840551e-09 	3.161542776e-06
0.7489202967 	0.001724709982 	0.0006043579841 	2.069069849e-09 	0.00167154685 	-3.017820105e-09 	3.186432878e-06
0.7525378085 	0.001739428706 	0.0006124578118 	1.668694693e-09 	0.00168465354 	-2.662610655e-09 	3.211417872e-06
0.7561153968 	0.001753932852 	0.0006200474495 	1.213202679e-09 	0.001697848516 	-2.304319096e-09 	3.236571164e-06
0.7596536012 	0.001768254211 	0.0006271083648 	7.708732994e-10 	0.001711116878 	-1.997455122e-09 	3.26186435e-06
0.7631528582 	0.001782441391 	0.0006333466669 	1.439137447e-10 	0.001724350296 	-1.797389956e-09 	3.287090922e-06
0.7666134977 	0.001796637638 	0.000638757299 	-3.399030927e-10 	0.001737489763 	-1.625016853e-09 	3.312138399e-06
0.7700360208 	0.001811056762 	0.000643937563 	-3.776782684e-10 	0.001750636648 	-1.378191954e-09 	3.337200015e-06
0.7734208538 	0.00182574597 	0.0006491881929 	-2.816601657e-10 	0.001763931363 	-1.07167722e-09 	3.362543437e-06
0.7767683331 	0.001840689544 	0.0006545277085 	-1.920471375e-10 	0.001777466617 	-7.53052876e-10 	3.388345394e-06
0.7800789143 	0.001855908875 	0.0006599691633 	-1.11103943e-10 	0.001791290813 	-4.487912429e-10 	3.414698153e-06
0.7833530369 	0.001871438815 	0.0006655244983 	-3.944791366e-11 	0.001805436889 	-1.646488692e-10 	3.441664505e-06
0.7853498442 	0.001881230501 	0.0006690285331 	4.88782926e-08 	0.001814379635 	1.174163411e-07 	3.458711864e-06
0.7865910269 	0.00188731708 	0.0006712066018 	-2.373743746e-11 	0.001819938282 	-1.030752444e-10 	3.469308192e-06
0.7897932947 	0.001903583816 	0.0006770296764 	-7.840146754e-11 	0.001834830893 	-3.552476745e-10 	3.497697647e-06
0.7929603021 	0.001920282903 	0.0006830093606 	-1.218033467e-10 	0.001850152728 	-5.808829735e-10 	3.526905323e-06
0.796092361 	0.00193746342 	0.0006891628837 	-1.530866569e-10 	0.001865944024 	-7.776016139e-10 	3.557007921e-06
0.7991898574 	0.001955180096 	0.0006955097539 	-1.711750739e-10 	0.001882250118 	-9.420500053e-10 	3.588091868e-06
0.8022532251 	0.001973493282 	0.0007020721288 	-1.749052162e-10 	0.001899123927 	-1.070440114e-09 	3.620258039e-06
0.8052828028 	0.001992468533 	0.0007088746738 	-1.630557826e-10 	0.001916626993 	-1.158715823e-09 	3.653623748e-06
0.8082789493 	0.002012176274 	0.0007159443618 	-1.343137822e-10 	0.001934830168 	-1.202222195e-09 	3.688324058e-06
0.8112420487 	0.002032691123 	0.0007233101271 	-8.743772597e-11 	0.001953813427 	-1.196547758e-09 	3.724511427e-06
0.8141724845 	0.002054091225 	0.0007310019756 	-2.134132427e-11 	0.00197366303 	-1.138140391e-09 	3.762350286e-06
0.8170705834 	0.002076457196 	0.0007390500987 	6.49313799e-11 	0.00199446813 	-1.023959692e-09 	3.802010589e-06
0.8199367024 	0.002099870959 	0.0007474842007 	1.721709171e-10 	0.002016317637 	-8.516357e-10 	3.843661822e-06
0.8227712189 	0.002124414283 	0.0007563328734 	3.010345517e-10 	0.002039297073 	-6.194702183e-10 	3.887467015e-06
0.8255744682 	0.00215016711 	0.0007656230591 	4.521262273e-10 	0.002063485838 	-3.262050543e-10 	3.933577523e-06
0.8283467843 	0.002177205372 	0.0007753795889 	6.258030022e-10 	0.00208895512 	2.886305352e-11 	3.982129053e-06
0.8310885089 	0.002205595165 	0.0007856235989 	8.216187809e-10 	0.002115763285 	4.442568806e-10 	4.033232867e-06
0.8338000025 	0.002235382746 	0.0007963692977 	1.038045368e-09 	0.002143947161 	9.154985007e-10 	4.086959168e-06
0.8364815777 	0.002266591646 	0.0008076232024 	1.273646379e-09 	0.002173520583 	1.438453363e-09 	4.14333433e-06
0.8391335626 	0.002299236591 	0.0008193893019 	1.528501267e-09 	0.002204489422 	2.013437919e-09 	4.202369544e-06
0.841756284 	0.002333341481 	0.0008316755848 	1.80409547e-09 	0.00223687038 	2.64476434e-09 	4.26409665e-06
0.8443500818 	0.002368946281 	0.0008444964257 	2.102314456e-09 	0.002270698212 	3.337819492e-09 	4.328581899e-06
0.8469152583 	0.002406105277 	0.0008578717987 	2.424880283e-09 	0.002306023921 	4.097559831e-09 	4.39592252e-06
0.8494521292 	0.002444884125 	0.0008718260473 	2.773186065e-09 	0.002342911454 	4.92814509e-09 	4.46624041e-06
0.8519610068 	0.002485357489 	0.0008863868553 	3.148392589e-09 	0.002381434738 	5.833067677e-09 	4.539676496e-06
0.8544422104 	0.00252760685 	0.0009015843106 	3.551501172e-09 	0.002421674909 	6.815261451e-09 	4.616385447e-06
0.8568960364 	0.002571718347 	0.0009174500171 	3.983325547e-09 	0.002463717672 	7.877045287e-09 	4.696530637e-06
0.8593227856 	0.002617780625 	0.0009340163113 	4.444267482e-09 	0.00250765102 	9.019670522e-09 	4.78027981e-06
0.8617227567 	0.002665882545 	0.0009513154556 	4.934384645e-09 	0.002553562946 	1.02433863e-08 	4.867800701e-06
0.8640962496 	0.002716110594 	0.0009693787492 	5.453363383e-09 	0.002601538959 	1.154732417e-08 	4.959256317e-06
0.8664435555 	0.002768546107 	0.000988235563 	6.000573385e-09 	0.002651659433 	1.292957743e-08 	5.054799869e-06
0.8687649599 	0.002823262433 	0.001007912364 	6.574701696e-09 	0.002703996945 	1.438641394e-08 	5.154569714e-06
0.8710607488 	0.002880322051 	0.001028431744 	7.173819257e-09 	0.002758613668 	1.591238911e-08 	5.258684367e-06
0.8733312048 	0.002939773724 	0.001049811403 	7.795356201e-09 	0.002815558593 	1.750026455e-08 	5.367237223e-06
0.8755766123 	0.003001649652 	0.00107206315 	8.436230741e-09 	0.002874864847 	1.914130932e-08 	5.480291426e-06
0.8777972426 	0.003065962835 	0.001095191949 	9.092707869e-09 	0.002936547074 	2.082501128e-08 	5.597874895e-06
0.8799933693 	0.003132704871 	0.001119195139 	9.760320498e-09 	0.003000599377 	2.25389416e-08 	5.719976385e-06
0.8821652628 	0.003201844194 	0.001144061795 	1.043404914e-08 	0.003066993548 	2.426918942e-08 	5.84654213e-06
0.8843131913 	0.003273324749 	0.001169772245 	1.110841828e-08 	0.003135677808 	2.600062947e-08 	5.977473419e-06
0.8864374205 	0.003347065228 	0.001196297785 	1.177777539e-08 	0.003206576023 	2.771761684e-08 	6.112625122e-06
0.8885382098 	0.003422958893 	0.001223600601 	1.243611635e-08 	0.003279587493 	2.940363662e-08 	6.251805277e-06
0.8906158179 	0.003500873995 	0.001251633934 	1.307724729e-08 	0.003354587429 	3.104173384e-08 	6.394775998e-06
0.8926705004 	0.003580654776 	0.001280342409 	1.369497679e-08 	0.003431427809 	3.261499092e-08 	6.54125512e-06
0.8947025109 	0.003662122897 	0.001309662554 	1.428325781e-08 	0.00350993879 	3.410691199e-08 	6.690918871e-06
0.8967121004 	0.003745079365 	0.001339523478 	1.483647732e-08 	0.003589930482 	3.550214976e-08 	6.843405268e-06
0.8986995148 	0.003829306892 	0.001369847696 	1.534931669e-08 	0.003671195141 	3.678623653e-08 	6.998318295e-06
0.900664999 	0.003914572607 	0.001400552111 	1.581687684e-08 	0.003753509764 	3.794595162e-08 	7.155232845e-06
0.9026087948 	0.004000630808 	0.001431548972 	1.623476748e-08 	0.003836638612 	3.896955786e-08 	7.313699533e-06
0.9045311417 	0.004087225058 	0.001462746618 	1.659897576e-08 	0.003920335164 	3.984646494e-08 	7.473248424e-06
0.9064322771 	0.004174088405 	0.001494049535 	1.690549172e-08 	0.004004342208 	4.056617179e-08 	7.633389198e-06
0.9083124343 	0.00426094136 	0.001525357551 	1.715034528e-08 	0.004088389619 	4.111841445e-08 	7.793606922e-06
0.9101718447 	0.004347486225 	0.001556563799 	1.73247656e-08 	0.004172188946 	4.148040806e-08 	7.953351732e-06
0.9120107372 	0.004433411249 	0.001587556287 	1.74297527e-08 	0.004255437955 	4.165580687e-08 	8.11204748e-06
0.9138293381 	0.004518461487 	0.001618243297 	1.74880459e-08 	0.004337889069 	4.170648737e-08 	8.26922222e-06
0.9156278716 	0.004602497609 	0.00164857445 	1.751526682e-08 	0.004419405939 	4.167513028e-08 	8.42461603e-06
0.9174065593 	0.004685438458 	0.001678520206 	1.751267309e-08 	0.004499908374 	4.156572032e-08 	8.578076045e-06
0.9191656197 	0.004767205797 	0.001708052095 	1.748104984e-08 	0.00457931924 	4.138071003e-08 	8.729455228e-06
0.9209052695 	0.004847722381 	0.001737142004 	1.742102763e-08 	0.004657562426 	4.112192363e-08 	8.878608486e-06