0.4642857292 	0.006726211554 	-0.0001968188836 	-1.981092759e-07
0.4642857292 	0.006726211554 	-0.0001968188836 	-1.981092759e-07
0.4644580585 	0.01870621916 	-0.0005465819976 	-5.544875857e-07
0.4646303886 	0.03739834563 	-0.00109126868 	-1.106834774e-06
0.4648027194 	0.0560768216 	-0.001634151969 	-1.653448021e-06
0.464975051 	0.07474097109 	-0.00217522543 	-2.194975474e-06
0.4651473832 	0.09338933759 	-0.002714511742 	-2.731453347e-06
0.4653197161 	0.112019102 	-0.003251986269 	-3.262641193e-06
0.4654920495 	0.1306253004 	-0.003787557897 	-3.788241026e-06
0.4656643834 	0.1491998782 	-0.0043210457 	-4.307904933e-06
0.4658367177 	0.1677306541 	-0.004852149975 	-4.82119132e-06
0.4660090525 	0.186200315 	-0.005380423116 	-5.327532108e-06
0.4661813876 	0.2045856102 	-0.005905245753 	-5.82621074e-06
0.466353723 	0.222856948 	-0.006425813852 	-6.316350866e-06
0.4665260587 	0.2409785953 	-0.006941142966 	-6.796920718e-06
0.4666983945 	0.2589096225 	-0.007450094747 	-7.266757861e-06
0.4668707305 	0.2766056139 	-0.007951427216 	-7.724615767e-06
0.4670430666 	0.2940210051 	-0.008443863814 	-8.16922949e-06
0.4672154027 	0.3111117453 	-0.008926169771 	-8.599392873e-06
0.4673877388 	0.3278378952 	-0.00939722961 	-9.014032726e-06
0.4675600748 	0.3441657774 	-0.009856146037 	-9.412258961e-06
0.4677324107 	0.3600694183 	-0.01030236237 	-9.793393292e-06
0.4679047464 	0.3755312809 	-0.01073513992 	-1.015723396e-05
0.4680770819 	0.3905596283 	-0.01115452337 	-1.050395894e-05
0.4682494171 	0.4051927876 	-0.0115622221 	-1.083443502e-05
0.468421752 	0.4194623571 	-0.01195928729 	-1.115016441e-05
0.4685940865 	0.4333785777 	-0.01234568333 	-1.145189596e-05
0.4687664205 	0.4469458441 	-0.01272157147 	-1.173982331e-05
0.4689387541 	0.4601692602 	-0.01308720412 	-1.201431209e-05
0.4691110871 	0.4730548836 	-0.01344280164 	-1.227574157e-05
0.4692834196 	0.4856095247 	-0.01378860515 	-1.252449499e-05
0.4694557514 	0.4995111286 	-0.01417073171 	-1.280173029e-05
0.4697235139 	0.51630583 	-0.01463104038 	-1.310688993e-05
0.469996307 	0.5342790074 	-0.01512217334 	-1.342926464e-05
0.4702742251 	0.5518475538 	-0.01560073132 	-1.373044628e-05
0.4705573642 	0.5690139063 	-0.01606679654 	-1.401072019e-05
0.470845822 	0.5857825401 	-0.01652051525 	-1.427042153e-05
0.4711396981 	0.6021596223 	-0.01696209409 	-1.450992551e-05
0.471439094 	0.6181525752 	-0.01739177432 	-1.472962787e-05
0.4717441131 	0.6337696282 	-0.01780981674 	-1.492992664e-05
0.4720548606 	0.6490193929 	-0.01821648988 	-1.511120621e-05
0.4723714436 	0.6639106297 	-0.01861206404 	-1.52738337e-05
0.4726939714 	0.6784529344 	-0.01899683352 	-1.54182005e-05
0.473022555 	0.6926588462 	-0.01937117521 	-1.554480145e-05
0.4733573078 	0.7065430264 	-0.01973552405 	-1.565419548e-05
0.473698345 	0.7201183925 	-0.0200902676 	-1.574687412e-05
0.4740457841 	0.7333957773 	-0.02043573417 	-1.582324928e-05
0.4743997447 	0.7463855197 	-0.02077223435 	-1.588371016e-05
0.4747603486 	0.7590977787 	-0.02110006947 	-1.592864579e-05
0.4751277197 	0.7715510662 	-0.02141975399 	-1.595863951e-05
0.4755030077 	0.7837685447 	-0.02173191792 	-1.597308383e-05
0.4758860811 	0.7957556536 	-0.02203673267 	-1.597207231e-05
0.4762763472 	0.8075071473 	-0.02233409434 	-1.595632299e-05
0.4766739408 	0.8190267034 	-0.0226241267 	-1.592597406e-05
0.4770789995 	0.8303235635 	-0.02290709411 	-1.58812977e-05
0.4774916633 	0.8414067524 	-0.0231832523 	-1.58225603e-05
0.4779120749 	0.8522850857 	-0.02345284847 	-1.575002172e-05
0.4783403796 	0.8629671776 	-0.02371612162 	-1.566393534e-05
0.4787767255 	0.8734614413 	-0.02397330262 	-1.55645478e-05
0.4792212634 	0.8837760723 	-0.024224614 	-1.545209793e-05
0.4796741471 	0.8939189948 	-0.0244702686 	-1.532681453e-05
0.480135533 	0.9038977923 	-0.02471046723 	-1.518891375e-05
0.4806055808 	0.9137196935 	-0.02494539829 	-1.503859894e-05
0.4810844527 	0.923391613 	-0.02517523952 	-1.48760622e-05
0.4815723144 	0.9329201906 	-0.02540015902 	-1.470148529e-05
0.4820693345 	0.9423118096 	-0.02562031578 	-1.451504016e-05
0.4825756847 	0.9515726082 	-0.02583586018 	-1.431688937e-05
0.4830915401 	0.9607084875 	-0.02604693431 	-1.41071864e-05
0.483617079 	0.969725119 	-0.02625367237 	-1.388607601e-05
0.4841524829 	0.9786279515 	-0.02645620099 	-1.365369456e-05
0.4846979369 	0.987422218 	-0.02665463944 	-1.341017063e-05
0.4852536295 	0.9961129424 	-0.02684909835 	-1.315562599e-05
0.4858197528 	1.004707406 	-0.02703973532 	-1.289020241e-05
0.4863971602 	1.013219151 	-0.02722684657 	-1.261322396e-05
0.4869872469 	1.021656028 	-0.02741059381 	-1.232330037e-05
0.4875884075 	1.030012681 	-0.02759084771 	-1.20228679e-05
0.4882008498 	1.038286691 	-0.02776754358 	-1.171195038e-05
0.4888247852 	1.046482021 	-0.02794075919 	-1.139064557e-05
0.4894604292 	1.054602462 	-0.02811056603 	-1.105904612e-05
0.4901080013 	1.062651636 	-0.02827703008 	-1.071723983e-05
0.4907677251 	1.070633002 	-0.02844021223 	-1.036531037e-05
0.4914398285 	1.07854986 	-0.02860016846 	-1.000333769e-05
0.4921245435 	1.086405353 	-0.02875694995 	-9.631398383e-06
0.4928221066 	1.094202478 	-0.02891060323 	-9.249566058e-06
0.4935327586 	1.101944082 	-0.02906117039 	-8.857911705e-06
0.494256745 	1.109632876 	-0.02920868944 	-8.456504083e-06
0.4949943156 	1.117271446 	-0.02935319448 	-8.045410239e-06
0.4957457251 	1.124862274 	-0.02949471385 	-7.624696096e-06
0.496511233 	1.132408958 	-0.02963329223 	-7.194431892e-06
0.4972915864 	1.139921228 	-0.02976910358 	-6.754066488e-06
0.4980891876 	1.147406245 	-0.02990229379 	-6.30098549e-06
0.4989017502 	1.155807427 	-0.03004947103 	-5.840909898e-06
0.5001491012 	1.165970877 	-0.03022288368 	-5.12851187e-06
0.5014103017 	1.176828408 	-0.03040365146 	-4.410308142e-06
0.502685506 	1.187443831 	-0.03057547453 	-3.684875173e-06
0.5039748697 	1.197830976 	-0.03073868345 	-2.952874734e-06
0.5052785505 	1.20800282 	-0.03089360991 	-2.214932126e-06
0.5065967078 	1.217971269 	-0.0310405745 	-1.471637007e-06
0.5079295026 	1.227754891 	-0.03117999043 	-7.235452089e-07
0.5092206927 	1.236939425 	-0.03130628222 	-1.303309769e-07
0.5092813988 	1.237371294 	-0.03131224102 	-3.312834389e-08
0.5106484713 	1.246820292 	-0.03143788088 	-7.724236348e-07
0.5120307241 	1.256102316 	-0.03155653647 	-1.514148609e-06
0.5134283261 	1.265223625 	-0.03166839498 	-2.257829429e-06
0.5148414483 	1.274190537 	-0.03177363228 	-3.003012917e-06
0.5162702635 	1.283008712 	-0.0318724045 	-3.749264451e-06
0.5177149467 	1.291684458 	-0.03196486439 	-4.496167692e-06
0.5191764905 	1.300229187 	-0.03205121605 	-5.244296114e-06
0.5206581837 	1.308651168 	-0.03213160798 	-5.996388476e-06
0.5221563259 	1.316947209 	-0.03220607305 	-6.747032495e-06
0.5236711006 	1.325116046 	-0.0322746712 	-7.495817649e-06
0.525202693 	1.333162088 	-0.03233752995 	-8.242363009e-06
0.5267512907 	1.341089827 	-0.03239477254 	-8.986305871e-06
0.5283170833 	1.348903965 	-0.03244651284 	-9.727304059e-06
0.5299006786 	1.356612847 	-0.03249287648 	-1.046550462e-05
0.5315060786 	1.364219878 	-0.03253389604 	-1.120425009e-05
0.5331292981 	1.371712011 	-0.03256942287 	-1.193798173e-05
0.5347705361 	1.379070212 	-0.03259918178 	-1.266623972e-05
0.5364299936 	1.386273891 	-0.03262281103 	-1.338848188e-05
0.5381078739 	1.393296246 	-0.03263980799 	-1.410404384e-05
0.5398043827 	1.400106246 	-0.03264951944 	-1.481210389e-05
0.541522211 	1.406667162 	-0.03265109567 	-1.551407008e-05
0.543261121 	1.412930551 	-0.03264347431 	-1.620730673e-05
0.5450193315 	1.418843293 	-0.03262553999 	-1.688822578e-05
0.546797058 	1.424366589 	-0.03259661688 	-1.755565636e-05
0.5485945187 	1.429498408 	-0.03255690089 	-1.820941404e-05
0.550411934 	1.434308384 	-0.03250817409 	-1.884992497e-05
0.5522516129 	1.438899061 	-0.03245295407 	-1.947934694e-05
0.554113947 	1.443313966 	-0.03239239134 	-2.009703586e-05
0.555996951 	1.44754878 	-0.03232670105 	-2.070053274e-05
0.557900856 	1.451597522 	-0.03225595203 	-2.128942943e-05
0.5598258958 	1.455455231 	-0.03218003905 	-2.186336473e-05
0.561772307 	1.459118369 	-0.0320988771 	-2.242197852e-05
0.5637436946 	1.462583501 	-0.03201238412 	-2.296734694e-05
0.565737713 	1.465844308 	-0.03192055424 	-2.349587965e-05
0.5677538642 	1.468894915 	-0.03182341052 	-2.400661218e-05
0.5697923962 	1.471731957 	-0.03172097034 	-2.44992698e-05
0.5718535597 	1.474354125 	-0.03161324063 	-2.497356678e-05
0.5739395723 	1.476761836 	-0.03150022297 	-2.543058267e-05
0.5760506688 	1.478955659 	-0.03138199116 	-2.586888801e-05
0.578185199 	1.480937005 	-0.03125869994 	-2.628668823e-05
0.5803434258 	1.482709788 	-0.0311305094 	-2.668396069e-05
0.5825256149 	1.48428032 	-0.03099755467 	-2.706067918e-05
0.5847338703 	1.485656403 	-0.03085995613 	-2.741793948e-05
0.5869684579 	1.4868462 	-0.03071789825 	-2.775455824e-05
0.5892278534 	1.487858385 	-0.03057163243 	-2.806928622e-05
0.5915123353 	1.488702745 	-0.03042138524 	-2.836243138e-05
0.5938221857 	1.489390035 	-0.03026729904 	-2.863420697e-05
0.5961603287 	1.489931605 	-0.03010953043 	-2.888595093e-05
0.5985251933 	1.490339507 	-0.0299484036 	-2.911575913e-05
0.6009163178 	1.490626755 	-0.02978421829 	-2.932376551e-05
0.6033339976 	1.490806171 	-0.02961714367 	-2.951042803e-05
0.6057794613 	1.490889175 	-0.02944731656 	-2.967658773e-05
0.6082543018 	1.490885543 	-0.02927489666 	-2.982217768e-05
0.6107566274 	1.490803693 	-0.02910007897 	-2.994611736e-05
0.6132867477 	1.490650931 	-0.02892301324 	-3.004901252e-05
0.6158450817 	1.490433454 	-0.02874375465 	-3.013139376e-05
0.6184346228 	1.490156503 	-0.02856233519 	-3.014009832e-05
0.6210529287 	1.489824698 	-0.02837887439 	-2.957449368e-05
0.6237003239 	1.489442054 	-0.0281934722 	-2.902512414e-05
0.6263771365 	1.489011845 	-0.02800613999 	-2.849156109e-05
0.6290862714 	1.48853681 	-0.02781686844 	-2.797302699e-05
0.6318255697 	1.488019498 	-0.02762573439 	-2.747134275e-05
0.6345953098 	1.487462122 	-0.02743280208 	-2.698613547e-05
0.6373960678 	1.486866359 	-0.02723806146 	-2.651675592e-05
0.6402301167 	1.486233603 	-0.02704149449 	-2.606295451e-05
0.6430956648 	1.48556527 	-0.02684315743 	-2.562593135e-05
0.6459930683 	1.484862524 	-0.02664308531 	-2.520513899e-05
0.6489235108 	1.484126144 	-0.02644125892 	-2.479976337e-05
0.6518878645 	1.483356854 	-0.02623767875 	-2.441043728e-05
0.6548851782 	1.482555442 	-0.02603239376 	-2.403746685e-05
0.6579158249 	1.481722455 	-0.0258254225 	-2.368024993e-05
0.6609817596 	1.480858259 	-0.02561676096 	-2.333833929e-05
0.6640821389 	1.479963456 	-0.02540647267 	-2.301299032e-05
0.6672170054 	1.479038732 	-0.02519464791 	-2.270406129e-05
0.6703874269 	1.478084779 	-0.02498137901 	-2.241140657e-05
0.673594155 	1.477102748 	-0.02476684198 	-2.213697715e-05
0.6768365625 	1.476094527 	-0.02455139532 	-2.18824282e-05
0.6801152063 	1.475061435 	-0.02433530377 	-2.164376892e-05
0.6834316982 	1.474001916 	-0.02411840346 	-2.141407939e-05
0.6867851015 	1.472912163 	-0.02390021996 	-2.119102832e-05
0.6901758354 	1.471788926 	-0.02368029711 	-2.097686248e-05
0.6936055424 	1.47063056 	-0.02345843903 	-2.077439743e-05
0.6970735343 	1.469436423 	-0.02323463583 	-2.058442409e-05
0.700580145 	1.468205982 	-0.02300887492 	-2.040604922e-05
0.7041267955 	1.466938551 	-0.02278112539 	-2.023882316e-05
0.7077131112 	1.465633551 	-0.02255138506 	-2.008306912e-05
0.7113393773 	1.464290269 	-0.02231964637 	-1.99377085e-05
0.7150069301 	1.462907787 	-0.02208588613 	-1.980220614e-05
0.7187154514 	1.461485256 	-0.02185009854 	-1.967670188e-05
0.7224653199 	1.460021656 	-0.02161226992 	-1.956003703e-05
0.7262578107 	1.458515752 	-0.02137237588 	-1.945187788e-05
0.7300925709 	1.456970503 	-0.02113104491 	-1.935279763e-05
0.7339274599 	1.455398225 	-0.02089030225 	-1.926180872e-05
0.7377205243 	1.45381197 	-0.02065213924 	-1.917874673e-05
0.7414716977 	1.452216126 	-0.02041713428 	-1.910331446e-05
0.7451816807 	1.450610773 	-0.02018522951 	-1.883108834e-05
0.7488510254 	1.448995902 	-0.01995635742 	-1.832785486e-05
0.7524798606 	1.447371476 	-0.01973045473 	-1.783033216e-05
0.7560688559 	1.445737329 	-0.01950745983 	-1.733929564e-05
0.7596184549 	1.44409325 	-0.01928730665 	-1.685454247e-05
0.7631288782 	1.442439004 	-0.01906993269 	-1.63766622e-05
0.7666007261 	1.440774259 	-0.01885527802 	-1.590622299e-05
0.7700344366 	1.439098642 	-0.01864327807 	-1.544295642e-05
0.7734302599 	1.437411752 	-0.0184338708 	-1.498726963e-05
0.7767887125 	1.43571306 	-0.01822699592 	-1.453960929e-05
0.7801102773 	1.434001911 	-0.01802258573 	-1.409968344e-05
0.7833951996 	1.432277516 	-0.01782057169 	-1.366769171e-05
0.7866439137 	1.430538809 	-0.0176208835 	-1.324398751e-05
0.7898569628 	1.428784397 	-0.01742344051 	-1.282835448e-05
0.7930345721 	1.427012566 	-0.01722815766 	-1.242074922e-05
0.7961771359 	1.425221162 	-0.01703494593 	-1.202141937e-05
0.7992851568 	1.423407566 	-0.01684370949 	-1.163035329e-05
0.8023589322 	1.421568766 	-0.01665434738 	-1.124725348e-05
0.805398811 	1.41970139 	-0.01646675848 	-1.087226915e-05
0.8084052021 	1.417801762 	-0.01628084511 	-1.050551249e-05
0.8113785157 	1.415866065 	-0.0160965101 	-1.01466724e-05
0.8143190433 	1.413890513 	-0.01591366357 	-9.795712301e-06
0.8172271484 	1.411871457 	-0.01573222724 	-9.452723239e-06
0.8201032429 	1.409805475 	-0.01555213162 	-9.117655722e-06
0.8229476498 	1.407689435 	-0.01537331282 	-8.790206652e-06
0.8257606958 	1.405520441 	-0.01519571164 	-8.47039029e-06
0.8285427279 	1.403295708 	-0.01501927122 	-8.15822619e-06
0.8312941389 	1.401012481 	-0.01484393045 	-7.853544942e-06
0.8340152199 	1.398667978 	-0.01466962298 	-7.556111425e-06
0.836706302 	1.396259289 	-0.01449627863 	-7.265917175e-06
0.8393677168 	1.393783273 	-0.01432382339 	-6.982944425e-06
0.841999829 	1.391236493 	-0.01415217665 	-6.707004213e-06
0.8446029242 	1.388615193 	-0.01398125211 	-6.437897768e-06
0.8471773226 	1.385915238 	-0.01381096054 	-6.175591834e-06
0.8497233412 	1.383132105 	-0.01364121094 	-5.920045587e-06
0.8522413154 	1.380260915 	-0.01347191025 	-5.67111011e-06
0.8547315346 	1.377296509 	-0.01330296425 	-5.428576611e-06
0.8571943021 	1.374233516 	-0.01313428109 	-5.19239559e-06
0.8596299208 	1.371066444 	-0.01296577368 	-4.96251613e-06
0.8620386999 	1.367789787 	-0.01279736046 	-4.738850633e-06
0.8644209325 	1.36439816 	-0.01262896553 	-4.52118919e-06
0.8667769039 	1.360886416 	-0.01246052157 	-4.309461832e-06
0.8691069039 	1.357249755 	-0.01229197316 	-4.10361772e-06
0.8714112196 	1.353483836 	-0.0121232768 	-3.903604167e-06
0.8736901437 	1.349584882 	-0.0119544016 	-3.709279661e-06
0.8759439454 	1.345549786 	-0.01178532984 	-3.520518619e-06
0.8781729018 	1.341376193 	-0.01161605946 	-3.33727137e-06
0.880377287 	1.337062563 	-0.01144660422 	-3.159486361e-06
0.8825573737 	1.332608231 	-0.01127699399 	-2.987105272e-06
0.8847134322 	1.328013454 	-0.0111072734 	-2.819985695e-06
0.8868457226 	1.323279439 	-0.01093750142 	-2.658040984e-06
0.8889545069 	1.318408327 	-0.01076775222 	-2.501215319e-06
0.8910400442 	1.313403153 	-0.01059811243 	-2.34944916e-06
0.8931025917 	1.308267767 	-0.01042867969 	-2.202676419e-06
0.8951424045 	1.3030067 	-0.01025955885 	-2.060766456e-06
0.8971597301 	1.297624977 	-0.01009085835 	-1.923624725e-06
0.8991548164 	1.292127857 	-0.009922687734 	-1.791179899e-06
0.9011279084 	1.28652051 	-0.00975515193 	-1.66335621e-06
0.9030792486 	1.280807646 	-0.009588346256 	-1.540073622e-06
0.9050090786 	1.274993137 	-0.009422350976 	-1.421220239e-06
0.9069176333 	1.269079742 	-0.009257226934 	-1.306673583e-06
0.9088051471 	1.263069105 	-0.009093017604 	-1.19635139e-06
0.9106718518 	1.256962053 	-0.008929754086 	-1.090173008e-06
0.9125179768 	1.250758982 	-0.008767460004 	-9.880592364e-07
0.914343749 	1.244460114 	-0.008606156294 	-8.899304312e-07
0.9161493933 	1.238065618 	-0.008445861881 	-7.956763754e-07
0.9179351304 	1.231575651 	-0.008286593972 	-7.05208785e-07
0.9197011796 	1.224990361 	-0.00812836927 	-6.184536823e-07
0.921447758 	1.218309857 	-0.007971203282 	-5.353375437e-07
0.9231750801 	1.211534184 	-0.007815109786 	-4.557873699e-07
0.9248833582 	1.20466328 	-0.007660101103 	-3.797301361e-07
0.9265728023 	1.197696946 	-0.007506187208 	-3.070727772e-07
0.9282436194 	1.190634807 	-0.007353375229 	-2.377359137e-07
0.9298960149 	1.183476278 	-0.007201670076 	-1.716516514e-07
0.9315301917 	1.176220536 	-0.007051073959 	-1.087530894e-07
0.9331463504 	1.168866482 	-0.006901586028 	-4.897439058e-08
0.9345222492 	1.162450061 	-0.006773856258 	9.796739152e-07
0.934744687 	1.161412697 	-0.006753205931 	-7.898309963e-09
0.9363253843 	1.153857328 	-0.006605943851 	-6.266737971e-08
0.9378886538 	1.146198442 	-0.006459768382 	-1.14465606e-07
0.9394346874 	1.138433574 	-0.006314666511 	-1.633544669e-07
0.940963675 	1.130559842 	-0.00617062256 	-2.093931633e-07
0.9424758045 	1.12257392 	-0.00602761772 	-2.52639347e-07
0.9439712616 	1.114472003 	-0.005885630109 	-2.931490539e-07
0.9454502299 	1.106249768 	-0.005744634934 	-3.309766546e-07
0.9469128912 	1.09790234 	-0.005604604616 	-3.661784995e-07
0.9483594251 	1.089424241 	-0.00546550835 	-3.988139688e-07
0.9497900093 	1.080809349 	-0.005327312332 	-4.289315727e-07
0.9512048194 	1.072050835 	-0.005189980086 	-4.565775256e-07
0.9526040292 	1.063141112 	-0.005053472137 	-4.81796075e-07
0.9539878108 	1.054071759 	-0.004917746053 	-5.046294559e-07
0.9553563339 	1.044833462 	-0.004782756493 	-5.251178478e-07
0.9567097669 	1.035415935 	-0.004648455365 	-5.432994988e-07
0.9580482759 	1.025807866 	-0.004514791405 	-5.592150162e-07
0.9593720254 	1.015996882 	-0.004381710843 	-5.72900212e-07
0.960681178 	1.005969584 	-0.004249162559 	-5.843868925e-07
0.9619758945 	0.9957117335 	-0.004117094919 	-5.937051917e-07
0.963256334 	0.9861078405 	-0.003996550104 	-6.026162261e-07
0.9640904201 	0.978167007 	-0.003899094186 	-6.044507165e-07
0.9649091234 	0.9710832799 	-0.003813812733 	-6.070790147e-07
0.9657127275 	0.9639584569 	-0.003729614095 	-6.088110695e-07
0.9665015107 	0.9567898384 	-0.003646464997 	-6.096814121e-07
0.9672757463 	0.9495749482 	-0.003564337071 	-6.097238754e-07
0.9680357026 	0.9423113965 	-0.003483205763 	-6.089724531e-07
0.9687816429 	0.9349968076 	-0.003403047624 	-6.074596152e-07
0.9695138255 	0.927628782 	-0.00332384014 	-6.052164955e-07
0.9702325042 	0.9202048789 	-0.003245561893 	-6.02273386e-07
0.9709379278 	0.9127226087 	-0.003168192591 	-5.986597977e-07
0.971630341 	0.9051794301 	-0.003091713088 	-5.944045218e-07
0.9723099835 	0.8975727496 	-0.003016105414 	-5.895356898e-07
0.9729770908 	0.8898999214 	-0.002941352795 	-5.840808294e-07
0.9736318941 	0.8821582465 	-0.00286743969 	-5.780669187e-07
0.9742746202 	0.8743449722 	-0.00279435181 	-5.715204361e-07
0.9749054919 	0.8664572905 	-0.002722076143 	-5.644674062e-07
0.9755247278 	0.8584923361 	-0.002650600976 	-5.569334432e-07
0.9761325423 	0.8504471831 	-0.002579915909 	-5.489437894e-07
0.9767291462 	0.8423188426 	-0.002510011869 	-5.405233496e-07
0.9773147462 	0.834104258 	-0.002440881116 	-5.316967211e-07
0.9778895451 	0.8258003011 	-0.002372517269 	-5.22488236e-07
0.9784537421 	0.8174037673 	-0.002304915288 	-5.129221678e-07
0.9790075328 	0.8089113698 	-0.002238071459 	-5.030223951e-07
0.979551109 	0.8003197344 	-0.002171983423 	-4.928124773e-07
0.9800846592 	0.7916253933 	-0.002106650148 	-4.823157583e-07
0.9806083682 	0.782824778 	-0.002042071915 	-4.715553688e-07
0.9811224175 	0.773914212 	-0.001978250295 	-4.605542234e-07
0.9816269852 	0.7648899019 	-0.001915188159 	-4.493350092e-07
0.9821222462 	0.7557479237 	-0.001852889702 	-4.379202702e-07
0.9826083721 	0.7464841989 	-0.00179136024 	-4.26332403e-07
0.9830855314 	0.7370944473 	-0.001730606073 	-4.145934566e-07
0.9835538894 	0.7275741437 	-0.00167063483 	-4.027252413e-07
0.9840136086 	0.7179185433 	-0.001611455335 	-3.907494217e-07
0.984464848 	0.7081227584 	-0.001553077097 	-3.786872616e-07
0.9849077643 	0.6981818056 	-0.00149551046 	-3.665596196e-07
0.9853425108 	0.6880906086 	-0.001438766817 	-3.543870629e-07
0.9857692383 	0.6778439841 	-0.001382858533 	-3.42189842e-07
0.9861880946 	0.6674366249 	-0.001327798921 	-3.299878741e-07
0.9865992248 	0.656863084 	-0.001273602208 	-3.178007283e-07
0.9870027716 	0.6461177669 	-0.001220283498 	-3.056476049e-07
0.9873988747 	0.6351949286 	-0.001167858716 	-2.935473078e-07
0.9877876714 	0.6240886802 	-0.001116344548 	-2.815182165e-07
0.9881692965 	0.6127930004 	-0.001065758374 	-2.695782594e-07
0.9885438823 	0.6013017526 	-0.001016118147 	-2.577448812e-07
0.9889115585 	0.5896086935 	-0.0009674422634 	-2.460349719e-07
0.9892724526 	0.5777074216 	-0.000919749925 	-2.344647981e-07
0.9896266897 	0.5655910412 	-0.0008730614949 	-2.230508086e-07
0.9899743926 	0.5532516304 	-0.0008273957218 	-2.11808421e-07
0.9903156818 	0.5406811888 	-0.0007827709189 	-2.007514573e-07
0.9906506755 	0.5278733229 	-0.0007392086261 	-1.898944479e-07
0.99097949 	0.5148228407 	-0.0006967305817 	-1.792517532e-07
0.9913022391 	0.5015247886 	-0.0006553573946 	-1.688364544e-07
0.9916190347 	0.4879745046 	-0.0006151100148 	-1.58661073e-07
0.9919299867 	0.4741678879 	-0.0005760095573 	-1.487375986e-07
0.9922352028 	0.460101698 	-0.0005380771412 	-1.39077437e-07
0.9925347888 	0.4457738516 	-0.0005013339717 	-1.296914175e-07
0.9928288486 	0.4311837224 	-0.0004658005734 	-1.205898313e-07
0.993117484 	0.4163324409 	-0.0004314933794 	-1.11782499e-07
0.9934007952 	0.4012231265 	-0.0003984283237 	-1.032786508e-07
0.9936788803 	0.3871810433 	-0.0003692998443 	-9.580845705e-08
0.9938578551 	0.3756137409 	-0.0003464377903 	-8.986360742e-08
0.9940368302 	0.3652099057 	-0.000326688383 	-8.477027915e-08
0.9942158055 	0.3545743409 	-0.0003073129826 	-7.979753905e-08
0.994394781 	0.3437043687 	-0.0002883995105 	-7.480583375e-08
0.9945737568 	0.3325944898 	-0.0002696625442 	-6.987473581e-08
0.9947527327 	0.3212218355 	-0.0002510868617 	-6.523605593e-08
0.9949317089 	0.3095525267 	-0.0002331841949 	-6.06408563e-08
0.9951106853 	0.2975740649 	-0.0002158148591 	-5.603550936e-08
0.9952896619 	0.285294601 	-0.0001987433803 	-5.158850349e-08
0.9954686388 	0.2727278304 	-0.00018212782 	-4.727064248e-08
0.9956476158 	0.259893021 	-0.000166027961 	-4.307994104e-08
0.9958265931 	0.2468147003 	-0.000150475075 	-3.902737761e-08
0.9960055706 	0.2335218721 	-0.0001355022962 	-3.512447772e-08
0.9961845483 	0.2200467862 	-0.0001211444965 	-3.138169181e-08
0.9963635262 	0.2064233807 	-0.0001074354476 	-2.780913151e-08
0.9965425044 	0.1926855915 	-9.440777961e-05 	-2.441668273e-08
0.9967214828 	0.1788657475 	-8.209372912e-05 	-2.121378173e-08
0.9969004614 	0.1649932495 	-7.052545071e-05 	-1.820919579e-08
0.9970794402 	0.1510936624 	-5.973470534e-05 	-1.541090304e-08
0.9972584192 	0.1371882607 	-4.975218087e-05 	-1.282609423e-08
0.9974373985 	0.1232939944 	-4.060684755e-05 	-1.046128007e-08
0.9976163779 	0.1094237846 	-3.232567838e-05 	-8.322464826e-09
0.9977953576 	0.09558703788 	-2.493386961e-05 	-6.415364096e-09
0.9979743375 	0.08179027202 	-1.84552796e-05 	-4.745567704e-09
0.9981533176 	0.06803776196 	-1.291182995e-05 	-3.318092499e-09
0.998332298 	0.0543321421 	-8.321324154e-06 	-2.135930457e-09
0.9985112786 	0.04067492346 	-4.705464338e-06 	-1.203358989e-09
0.9986902593 	0.02706690487 	-2.134500921e-06 	-5.488301111e-10
0.9988692404 	0.01350847195 	-7.603422818e-07 	-2.550926557e-10
0.9990482216 	0.005644245883 	-3.318898367e-07 	-1.785626319e-10
