0.4709558481 	2.500172728e-08 	-2.312037852e-11 	3.272663494e-16 	2.495415483e-08 	-2.336800934e-13 	4.756955475e-11
0.4709558481 	2.500172728e-08 	-2.312037852e-11 	3.272663494e-16 	2.495415483e-08 	-2.336800934e-13 	4.756955475e-11
0.4711314108 	2.807062056e-07 	-1.014487241e-09 	1.435736195e-14 	2.801716214e-07 	-2.623628902e-12 	5.340849801e-10
0.4713069734 	1.564858376e-06 	-1.324491056e-08 	1.873943546e-13 	1.561865719e-06 	-1.462566294e-11 	2.977350158e-09
0.471482536 	5.21226658e-06 	-8.276538791e-08 	1.170359441e-12 	5.20217342e-06 	-4.871086432e-11 	9.916788409e-09
0.4716580986 	1.289082176e-05 	-3.372052736e-07 	4.763176512e-12 	1.286513382e-05 	-1.204383299e-10 	2.452452074e-08
0.4718336613 	2.644359019e-05 	-1.041474803e-06 	1.468221528e-11 	2.638793099e-05 	-2.469150088e-10 	5.030273061e-08
0.4720092239 	4.78249931e-05 	-2.654535629e-06 	3.729713591e-11 	4.771482445e-05 	-4.4604959e-10 	9.095771706e-08
0.4721847865 	7.905285076e-05 	-5.878721246e-06 	8.216218563e-11 	7.88451521e-05 	-7.358128271e-10 	1.503007738e-07
0.4723603491 	0.000122153449 	-1.169031447e-05 	1.621053642e-10 	0.0001217721137 	-1.133226444e-09 	2.321314936e-07
0.4725359118 	0.0001790875492 	-2.133694151e-05 	2.925943795e-10 	0.0001784000965 	-1.652920407e-09 	3.400801676e-07
0.4727114744 	0.000251649494 	-3.628645917e-05 	4.901374109e-10 	0.0002504334253 	-2.305208313e-09 	4.77395713e-07
0.472887037 	0.0003413368236 	-5.811618211e-05 	7.696648023e-10 	0.0003392364559 	-3.093825702e-09 	6.466789709e-07
0.4730625996 	0.0004491966002 	-8.834277377e-05 	1.14119966e-09 	0.0004456760735 	-4.013756709e-09 	8.495824653e-07
0.4732381623 	0.0005756667898 	-0.0001282115868 	1.606578137e-09 	0.0005699713296 	-5.049833808e-09 	1.086523769e-06
0.4734137249 	0.0007204433091 	-0.000178484602 	2.15729819e-09 	0.0007115855466 	-6.176838519e-09 	1.356479827e-06
0.4735892875 	0.0008824095574 	-0.0002392786506 	2.774474984e-09 	0.0008691962516 	-7.361502217e-09 	1.656929636e-06
0.4737648501 	0.001059658946 	-0.0003100005249 	3.431243877e-09 	0.001040763681 	-8.566177359e-09 	1.983984842e-06
0.4739404128 	0.001249620209 	-0.000389400634 	4.097022064e-09 	0.001223693642 	-9.753360126e-09 	2.332700189e-06
0.4741159754 	0.001449267218 	-0.0004757314128 	4.74232572e-09 	0.001415065037 	-1.088993965e-08 	2.697507258e-06
0.474291538 	0.00165538537 	-0.0005669642097 	5.342528463e-09 	0.001611852601 	-1.194853073e-08 	3.072639048e-06
0.4744671006 	0.001865022981 	-0.0006616698752 	5.924342666e-09 	0.00181123078 	-1.291584646e-08 	3.452709272e-06
0.4746426632 	0.002071856204 	-0.0007465965761 	5.723031192e-09 	0.00200961619 	-1.371576099e-08 	3.830887003e-06
0.4748182259 	0.00227405948 	-0.0008197079769 	5.376441358e-09 	0.002205701677 	-1.445895882e-08 	4.204680439e-06
0.4749937885 	0.002474391502 	-0.000891914349 	5.667094798e-09 	0.002399984181 	-1.523895133e-08 	4.57503689e-06
0.4751693511 	0.002671990523 	-0.00096312926 	5.937316815e-09 	0.002591590349 	-1.596404892e-08 	4.9402915e-06
0.4753449137 	0.002866032129 	-0.001033063807 	6.186513863e-09 	0.002779752013 	-1.663300702e-08 	5.298979928e-06
0.4755204764 	0.003055848135 	-0.00110147483 	6.414400277e-09 	0.002963812266 	-1.724431328e-08 	5.649849928e-06
0.475696039 	0.003240902778 	-0.001168168224 	6.621433561e-09 	0.003143247699 	-1.779930335e-08 	5.991903735e-06
0.4758716016 	0.003420780187 	-0.001232994421 	6.808280353e-09 	0.003317656219 	-1.829984877e-08 	6.324374848e-06
0.4760471642 	0.00359517256 	-0.001295842287 	6.975722696e-09 	0.003486738548 	-1.874805397e-08 	6.646692761e-06
0.4762227269 	0.003786815539 	-0.001364903739 	7.144012506e-09 	0.003672531297 	-1.919802205e-08 	7.000865379e-06
0.4764955107 	0.00401547532 	-0.001447301352 	7.322503042e-09 	0.003894193341 	-1.967442785e-08 	7.423414844e-06
0.4767734216 	0.004255907098 	-0.001533938843 	7.483085645e-09 	0.004127250528 	-2.01016916e-08 	7.867686616e-06
0.4770565557 	0.004485749496 	-0.001616759477 	7.609085472e-09 	0.004350021039 	-2.043465453e-08 	8.292349126e-06
0.4773450114 	0.004704610727 	-0.001695627265 	7.702582532e-09 	0.00456212105 	-2.067738103e-08 	8.696670698e-06
0.4776388886 	0.004912284861 	-0.001770482748 	7.766259406e-09 	0.004763351286 	-2.083378324e-08 	9.080271456e-06
0.4779382892 	0.005108718364 	-0.001841337046 	7.803759729e-09 	0.004953660153 	-2.090735075e-08 	9.443053051e-06
0.4782433171 	0.005293977262 	-0.001908270071 	7.820160854e-09 	0.005133111319 	-2.090098723e-08 	9.785136848e-06
0.4785540779 	0.005468218332 	-0.001971432731 	7.822473833e-09 	0.005301856372 	-2.081697623e-08 	1.010681182e-05
0.4788706795 	0.005631666931 	-0.002031052271 	7.820099413e-09 	0.005460113592 	-2.065718715e-08 	1.040849407e-05
0.4791932316 	0.005784606097 	-0.00208693196 	7.75738988e-09 	0.005608158298 	-2.042391278e-08 	1.069070842e-05
0.4795218461 	0.00592738158 	-0.002138442159 	7.628850783e-09 	0.005746327566 	-2.012106058e-08 	1.095409745e-05
0.4798566368 	0.006060387119 	-0.00218593328 	7.483635272e-09 	0.005875002908 	-1.975156682e-08 	1.119938842e-05
0.48019772 	0.006184008058 	-0.00223011163 	7.315363065e-09 	0.005994556646 	-1.931604182e-08 	1.142729107e-05
0.4805452138 	0.006298602807 	-0.002271090521 	7.123905432e-09 	0.00610533614 	-1.881459956e-08 	1.163846757e-05
0.4808992388 	0.006404520536 	-0.002308983682 	6.908994494e-09 	0.006207679978 	-1.824692969e-08 	1.183356337e-05
0.4812599177 	0.006502101134 	-0.002343904278 	6.67022182e-09 	0.006301917853 	-1.761229766e-08 	1.201320696e-05
0.4816273755 	0.006591672071 	-0.002375963087 	6.407024909e-09 	0.00638836747 	-1.690951116e-08 	1.217800395e-05
0.4820017397 	0.006673545073 	-0.002405266809 	6.118665523e-09 	0.006467331316 	-1.613686361e-08 	1.232853099e-05
0.48238314 	0.006748013149 	-0.00243191663 	5.804204409e-09 	0.006539093767 	-1.529206529e-08 	1.246533017e-05
0.4827717088 	0.006815348039 	-0.002456007052 	5.462484328e-09 	0.006603918628 	-1.437219428e-08 	1.258890437e-05
0.4831675807 	0.006875798307 	-0.002477625014 	5.092139239e-09 	0.006662047295 	-1.337371675e-08 	1.269971377e-05
0.4835708931 	0.006929588501 	-0.002496849458 	4.691646006e-09 	0.006713697946 	-1.229262295e-08 	1.279817426e-05
0.4839817856 	0.006976919898 	-0.00251375149 	4.259424869e-09 	0.006759066269 	-1.112469739e-08 	1.288465889e-05
0.4844004009 	0.007017973288 	-0.002528395301 	3.793980142e-09 	0.006798328165 	-9.865900439e-09 	1.295950298e-05
0.4848268841 	0.007052914004 	-0.002540839902 	3.294060526e-09 	0.006831644603 	-8.512804134e-09 	1.302301337e-05
0.485261383 	0.007081899067 	-0.002551141652 	2.758812846e-09 	0.006859168587 	-7.063006072e-09 	1.307548173e-05
0.4857040484 	0.007105088776 	-0.002559358286 	2.187940281e-09 	0.006881056316 	-5.515607822e-09 	1.311720583e-05
0.4861550336 	0.007122670534 	-0.002565556615 	1.580909837e-09 	0.006897490078 	-3.869338371e-09 	1.314853315e-05
0.4866144951 	0.007134838279 	-0.002569804933 	9.362689086e-10 	0.006908658394 	-2.120734579e-09 	1.316982306e-05
0.4870825921 	0.007141745375 	-0.002572157576 	2.526712969e-10 	0.006914710655 	-2.664482011e-10 	1.318136035e-05
0.487559487 	0.007143513156 	-0.002572658171 	-4.707669705e-10 	0.006915765338 	1.69585555e-09 	1.318337087e-05
0.4880453452 	0.007140249918 	-0.002571345726 	-1.234944378e-09 	0.006911928272 	3.768565795e-09 	1.317605636e-05
0.4885403351 	0.007132051383 	-0.002568254804 	-2.040776196e-09 	0.006903293152 	5.954130849e-09 	1.315959542e-05
0.4890446283 	0.007119001196 	-0.002563415701 	-2.889192541e-09 	0.006889942059 	8.255053356e-09 	1.313414453e-05
0.4895583997 	0.007101171473 	-0.002556854636 	-3.781132457e-09 	0.006871945985 	1.067387408e-08 	1.309983901e-05
0.4900818274 	0.007078623387 	-0.002548593957 	-4.717535167e-09 	0.006849365398 	1.321314864e-08 	1.305679413e-05
0.4906150929 	0.007051407771 	-0.002538652361 	-5.699328722e-09 	0.006822250837 	1.587541773e-08 	1.300510624e-05
0.4911583811 	0.00701956575 	-0.002527045122 	-6.727416035e-09 	0.006790643534 	1.866317065e-08 	1.294485394e-05
0.4917118805 	0.006983129388 	-0.002513784323 	-7.802658271e-09 	0.006754576045 	2.157880183e-08 	1.287609928e-05
0.4922757829 	0.006942122349 	-0.002498879108 	-8.925855461e-09 	0.006714072906 	2.462456021e-08 	1.279888904e-05
0.4928502838 	0.006896560585 	-0.002482335923 	-1.009772426e-08 	0.006669151296 	2.780249072e-08 	1.271325597e-05
0.4934355824 	0.00684645304 	-0.002464158787 	-1.131887268e-08 	0.006619821741 	3.111436763e-08 	1.261922012e-05
0.4940318817 	0.00679180239 	-0.002444349556 	-1.258977177e-08 	0.006566088827 	3.456161919e-08 	1.251679025e-05
0.4946393885 	0.006732605818 	-0.002422908212 	-1.391072431e-08 	0.006507951961 	3.814524344e-08 	1.240596523e-05
0.4952583133 	0.006668855824 	-0.002399833163 	-1.528183061e-08 	0.006445406167 	4.186571544e-08 	1.228673556e-05
0.4958888709 	0.006600541099 	-0.00237512156 	-1.670295202e-08 	0.006378442931 	4.572288685e-08 	1.215908502e-05
0.4965312797 	0.006527647452 	-0.002348769638 	-1.8173673e-08 	0.00630705111 	4.971587957e-08 	1.202299237e-05
0.4971857627 	0.006450158809 	-0.002320773076 	-1.969326269e-08 	0.006231217892 	5.384297639e-08 	1.187843318e-05
0.4978525466 	0.006368058283 	-0.002291127382 	-2.126063789e-08 	0.006150929844 	5.810151207e-08 	1.172538184e-05
0.4985318627 	0.006281329333 	-0.002259828302 	-2.287432888e-08 	0.006066174021 	6.248776891e-08 	1.156381369e-05
0.4992239466 	0.006189957003 	-0.002226872253 	-2.453245009e-08 	0.00597693917 	6.699687966e-08 	1.139370726e-05
0.4999290382 	0.006093929232 	-0.002192256773 	-2.623267712e-08 	0.005883216995 	7.16227389e-08 	1.121504675e-05
0.5006473819 	0.005993238237 	-0.002155980981 	-2.797223139e-08 	0.005785003493 	7.635792072e-08 	1.102782452e-05
0.501379227 	0.005887881897 	-0.002118046027 	-2.974787429e-08 	0.005682300307 	8.119359856e-08 	1.08320437e-05
0.502124827 	0.005777865092 	-0.002078455496 	-3.155591397e-08 	0.005575116012 	8.611946364e-08 	1.062772064e-05
0.5028844406 	0.005663200804 	-0.002037215711 	-3.339223256e-08 	0.005463467258 	9.112364872e-08 	1.041488709e-05
0.5036583311 	0.005543910627 	-0.001994335898 	-3.525234832e-08 	0.00534737973 	9.619269387e-08 	1.019359199e-05
0.5044467669 	0.005420024432 	-0.001949827944 	-3.713152569e-08 	0.005226888104 	1.013116131e-07 	9.963901465e-06
0.5052500214 	0.005291579611 	-0.001903705046 	-3.902489151e-08 	0.005102032119 	1.064639682e-07 	9.725891255e-06
0.506068373 	0.005141377053 	-0.001849792417 	-4.117084974e-08 	0.004956113577 	1.122904779e-07 	9.447729959e-06
0.507324668 	0.004950920597 	-0.00178145895 	-4.378524583e-08 	0.004771213748 	1.193577427e-07 	9.095259495e-06
0.5085949819 	0.00473709615 	-0.001704761717 	-4.657980863e-08 	0.004563782605 	1.268553731e-07 	8.699838082e-06
0.5098794711 	0.004518385811 	-0.001626321357 	-4.892592303e-08 	0.00435177991 	1.331472506e-07 	8.295702024e-06
0.5111782938 	0.004297339649 	-0.001547075311 	-5.04342122e-08 	0.004137673566 	1.372591945e-07 	7.887555824e-06
0.5124916099 	0.00407689141 	-0.001468102319 	-5.137674939e-08 	0.003924297986 	1.398382738e-07 	7.480802664e-06
0.5138195812 	0.003858898748 	-0.001390046773 	-5.196418212e-08 	0.003713446237 	1.413570141e-07 	7.078860627e-06
0.5151623712 	0.003644820638 	-0.001313379036 	-5.20861831e-08 	0.00350651966 	1.414962043e-07 	6.684401058e-06
0.5165201452 	0.003436482414 	-0.001238697973 	-5.165648015e-08 	0.003305263092 	1.400213755e-07 	6.300750103e-06
0.5178930705 	0.003236010294 	-0.001166721117 	-5.057248971e-08 	0.003111712353 	1.366976567e-07 	5.931788601e-06
0.5192813161 	0.003045733741 	-0.001098270197 	-4.876138267e-08 	0.002928125698 	1.314019095e-07 	5.581821411e-06
0.520685053 	0.002867863206 	-0.001034150769 	-4.625700496e-08 	0.002756636649 	1.243231726e-07 	5.25491562e-06
0.522104454 	0.002703884602 	-0.0009749045079 	-4.327614165e-08 	0.002598590007 	1.16023757e-07 	4.953634795e-06
0.523539694 	0.002552048008 	-0.00091400832 	-5.018378894e-08 	0.002453236502 	1.090226005e-07 	4.676550614e-06
0.5249909497 	0.002408637888 	-0.0008475164865 	-5.436033705e-08 	0.002318167585 	1.030645705e-07 	4.419071718e-06
0.5264583998 	0.002274222928 	-0.0007828459448 	-4.934515511e-08 	0.002192529994 	9.647087523e-08 	4.17957155e-06
0.527942225 	0.002150403502 	-0.0007226527508 	-4.789787666e-08 	0.002076788605 	8.957144679e-08 	3.958936294e-06
0.5294426081 	0.002036877213 	-0.0006649917944 	-4.634722809e-08 	0.001971137761 	8.208839827e-08 	3.757536422e-06
0.5309597337 	0.001933938403 	-0.0006100162876 	-4.462343117e-08 	0.001875785371 	7.419167527e-08 	3.575768265e-06
0.5324937889 	0.001841731647 	-0.0005578599377 	-4.273458699e-08 	0.001790760927 	6.600251296e-08 	3.413688043e-06
0.5340449624 	0.001760187213 	-0.0005085918932 	-4.072216912e-08 	0.001715933175 	5.771201954e-08 	3.27104555e-06
0.5356134452 	0.001689026665 	-0.0004622119256 	-3.863966225e-08 	0.001650978637 	4.95208058e-08 	3.147224147e-06
0.5371994306 	0.001627773568 	-0.0004186602014 	-3.654197761e-08 	0.001595395172 	4.161718357e-08 	3.041266615e-06
0.5388031139 	0.001575778523 	-0.0003778329976 	-3.447347653e-08 	0.001548530487 	3.416483421e-08 	2.951929501e-06
0.5404246925 	0.001532258107 	-0.0003396056458 	-3.245204711e-08 	0.00150962023 	2.728699188e-08 	2.877755736e-06
0.5420643661 	0.001496349456 	-0.000303862605 	-3.047410584e-08 	0.001477843313 	2.104157432e-08 	2.8171801e-06
0.5437223366 	0.001467191362 	-0.0002705391381 	-2.837737358e-08 	0.001452395929 	1.541066282e-08 	2.768670312e-06
0.5453988083 	0.001444040357 	-0.0002397826156 	-2.611118482e-08 	0.00143258111 	1.024847385e-08 	2.730897761e-06
0.5470939875 	0.001426315206 	-0.0002113623306 	-2.435091378e-08 	0.001417881986 	5.459707282e-09 	2.702877145e-06
0.5488080831 	0.001413412692 	-0.0001844737883 	-2.327413998e-08 	0.001407767136 	1.218458048e-09 	2.683595429e-06
0.5505413061 	0.001404598282 	-0.0001587837654 	-2.226609223e-08 	0.001401519002 	-2.32444285e-09 	2.67168475e-06
0.5522938699 	0.001399141417 	-0.0001343322529 	-2.123947218e-08 	0.001398414433 	-5.237925346e-09 	2.665766579e-06
0.5540659904 	0.001396420457 	-0.0001110101543 	-2.032982778e-08 	0.001397863402 	-7.645701621e-09 	2.664716159e-06
0.5558578859 	0.001395936175 	-8.868710358e-05 	-1.952694136e-08 	0.00139939628 	-9.644097945e-09 	2.667638252e-06
0.5576697768 	0.001397290073 	-6.724977113e-05 	-1.881591594e-08 	0.001402635664 	-1.130939578e-08 	2.673813418e-06
0.5595018865 	0.001400161607 	-4.660125189e-05 	-1.81841586e-08 	0.001407277664 	-1.270298853e-08 	2.68266236e-06
0.5613544406 	0.001404291287 	-2.665861413e-05 	-1.76210236e-08 	0.001413076149 	-1.387342735e-08 	2.693715884e-06
0.563227667 	0.001409467846 	-7.350776993e-06 	-1.711730996e-08 	0.001419830307 	-1.485931916e-08 	2.706591187e-06
0.5651217966 	0.001415518251 	1.138326478e-05 	-1.666500623e-08 	0.001427375209 	-1.56916064e-08 	2.720973866e-06
0.5670370626 	0.001422299921 	2.959593927e-05 	-1.625714505e-08 	0.001435574535 	-1.639521831e-08 	2.736604062e-06
0.5689737009 	0.001429694643 	4.733236187e-05 	-1.588768763e-08 	0.001444314917 	-1.699034092e-08 	2.753265659e-06
0.5709319499 	0.001437603809 	6.463140036e-05 	-1.555141314e-08 	0.001453501486 	-1.749341049e-08 	2.770777813e-06
0.5729120508 	0.001445944649 	8.152657124e-05 	-1.524381008e-08 	0.001463054375 	-1.791788474e-08 	2.788988273e-06
0.5749142474 	0.00145464725 	9.80467945e-05 	-1.496097381e-08 	0.001472905939 	-1.827484077e-08 	2.807768092e-06
0.5769387863 	0.001463652183 	0.0001142170302 	-1.469951447e-08 	0.001482998545 	-1.857344072e-08 	2.827007405e-06
0.5789859169 	0.001472908597 	0.0001300588166 	-1.445647731e-08 	0.001493282795 	-1.882129673e-08 	2.846612044e-06
0.5810558911 	0.001482372695 	0.0001455907264 	-1.422927538e-08 	0.001503716095 	-1.902475913e-08 	2.866500814e-06
0.583148964 	0.001492006494 	0.000160828755 	-1.401563361e-08 	0.001514261496 	-1.918914541e-08 	2.886603279e-06
0.5852653933 	0.00150177683 	0.0001757866516 	-1.381354241e-08 	0.00152488675 	-1.931892365e-08 	2.906857966e-06
0.5874054395 	0.001511654538 	0.0001904762032 	-1.362121926e-08 	0.001535563541 	-1.941786016e-08 	2.927210897e-06
0.5895693664 	0.001521613787 	0.0002049074786 	-1.343707675e-08 	0.00154626685 	-1.948913912e-08 	2.94761438e-06
0.5917574402 	0.001531631534 	0.000219089039 	-1.325969595e-08 	0.001556974437 	-1.953545997e-08 	2.968026016e-06
0.5939699306 	0.001541687073 	0.0002330281209 	-1.308780407e-08 	0.001567666404 	-1.955911705e-08 	2.988407876e-06
0.5962071099 	0.001551761662 	0.0002467307945 	-1.292025559e-08 	0.001578324842 	-1.956206497e-08 	3.008725822e-06
0.5984692536 	0.00156183822 	0.0002602021031 	-1.275601652e-08 	0.001588933533 	-1.954597268e-08 	3.028948935e-06
0.6007566404 	0.001571901071 	0.0002734461848 	-1.259415098e-08 	0.001599477698 	-1.95122681e-08 	3.049049043e-06
0.6030695519 	0.001581935732 	0.0002864663804 	-1.243380995e-08 	0.001609943792 	-1.946217547e-08 	3.069000328e-06
0.6054082729 	0.001591928738 	0.0002992653289 	-1.227422178e-08 	0.001620319331 	-1.939674642e-08 	3.08877899e-06
0.6077730914 	0.001601867499 	0.0003118450525 	-1.211468418e-08 	0.001630592746 	-1.931688619e-08 	3.108362973e-06
0.6101642987 	0.001611740181 	0.0003242070335 	-1.195455753e-08 	0.001640753258 	-1.922337569e-08 	3.127731733e-06
0.6125821893 	0.001621535601 	0.0003363522826 	-1.179325918e-08 	0.00165079078 	-1.911689026e-08 	3.14686604e-06
0.6150270608 	0.001631243152 	0.0003482814021 	-1.163025886e-08 	0.001660695831 	-1.899801564e-08 	3.16574782e-06
0.6174992144 	0.001640852733 	0.0003599946424 	-1.146507469e-08 	0.001670459462 	-1.886726168e-08 	3.184360016e-06
0.6199989545 	0.001650354697 	0.0003714919549 	-1.129727003e-08 	0.001680073203 	-1.872507405e-08 	3.202686477e-06
0.622526589 	0.001659739806 	0.0003827730398 	-1.112645085e-08 	0.001689529009 	-1.857184453e-08 	3.220711871e-06
0.625082429 	0.001668999202 	0.0003938373915 	-1.09522636e-08 	0.001698819224 	-1.840791983e-08 	3.238421602e-06
0.6276667894 	0.001678124375 	0.0004046843402 	-1.077439354e-08 	0.00170793655 	-1.823360932e-08 	3.255801761e-06
0.6302799884 	0.001687107153 	0.0004153130915 	-1.059256344e-08 	0.001716874023 	-1.804919192e-08 	3.272839069e-06
0.6329223478 	0.001695939682 	0.0004257227631 	-1.040653255e-08 	0.001725624995 	-1.785492203e-08 	3.289520852e-06
0.6355941931 	0.001704614425 	0.00043591242 	-1.021609589e-08 	0.001734183117 	-1.765103493e-08 	3.305835012e-06
0.6382958531 	0.001713124157 	0.0004458811077 	-1.002108371e-08 	0.001742542339 	-1.743775147e-08 	3.321770012e-06
0.6410276607 	0.001721461966 	0.0004556278842 	-9.821361175e-09 	0.001750696898 	-1.721528238e-08 	3.33731487e-06
0.6437899523 	0.001729621262 	0.0004651518496 	-9.616828182e-09 	0.001758641326 	-1.698383199e-08 	3.352459156e-06
0.646583068 	0.001737595783 	0.0004744521753 	-9.40741927e-09 	0.001766370445 	-1.674360172e-08 	3.367193006e-06
0.6494073518 	0.001745379608 	0.0004835281316 	-9.193103644e-09 	0.001773879381 	-1.649479309e-08 	3.381507125e-06
0.6522631514 	0.001752967167 	0.0004923791137 	-8.973885253e-09 	0.001781163569 	-1.62376105e-08 	3.395392812e-06
0.6551508186 	0.001760353265 	0.000501004667 	-8.749802905e-09 	0.001788218767 	-1.597226367e-08 	3.408841979e-06
0.658070709 	0.001767533093 	0.000509404511 	-8.520930395e-09 	0.001795041067 	-1.569896989e-08 	3.42184718e-06
0.6610231822 	0.001774502251 	0.0005175785621 	-8.287376622e-09 	0.001801626917 	-1.541795592e-08 	3.434401641e-06
0.6640086017 	0.001781256766 	0.0005255269546 	-8.049285691e-09 	0.001807973133 	-1.512945975e-08 	3.446499292e-06
0.6670273351 	0.001787793119 	0.0005332500611 	-7.806836971e-09 	0.001814076922 	-1.483373206e-08 	3.45813481e-06
0.6700797543 	0.001794108265 	0.0005407485112 	-7.56024508e-09 	0.001819935902 	-1.45310375e-08 	3.469303655e-06
0.6731662352 	0.001800199659 	0.0005480232091 	-7.309759806e-09 	0.001825548127 	-1.422165573e-08 	3.480002115e-06
0.6762871577 	0.001806065279 	0.0005550753486 	-7.055665919e-09 	0.001830912108 	-1.390588225e-08 	3.490227353e-06
0.6794429063 	0.001811703652 	0.0005619064283 	-6.798282882e-09 	0.001836026839 	-1.358402902e-08 	3.499977452e-06
0.6826338695 	0.001817113881 	0.0005685182635 	-6.537964424e-09 	0.001840891823 	-1.325642478e-08 	3.509251464e-06
0.6858604404 	0.001822295672 	0.0005749129969 	-6.275097965e-09 	0.0018455071 	-1.292341527e-08 	3.518049464e-06
0.6891230163 	0.001827249357 	0.0005810931079 	-6.010103885e-09 	0.001849873273 	-1.258536308e-08 	3.526372603e-06
0.6924219988 	0.001831975923 	0.0005870614187 	-5.743434607e-09 	0.001853991536 	-1.224264737e-08 	3.534223158e-06
0.6957577944 	0.00183647704 	0.0005928210998 	-5.475573478e-09 	0.001857863705 	-1.189566323e-08 	3.541604587e-06
0.6991308138 	0.001840755082 	0.0005983756718 	-5.207033425e-09 	0.001861492244 	-1.154482085e-08 	3.548521592e-06
0.7025414724 	0.001844813162 	0.0006037290061 	-4.938355382e-09 	0.001864880299 	-1.119054435e-08 	3.554980166e-06
0.7059901901 	0.001848655153 	0.0006088853221 	-4.670106464e-09 	0.001868031724 	-1.08332704e-08 	3.560987659e-06
0.7094773917 	0.001852285717 	0.0006138491834 	-4.402877845e-09 	0.001870951117 	-1.047344639e-08 	3.566552833e-06
0.7130035066 	0.001855710332 	0.0006186254896 	-4.137282362e-09 	0.001873643847 	-1.011152838e-08 	3.571685924e-06
0.7165689691 	0.00185893532 	0.0006232194672 	-3.873951789e-09 	0.001876116089 	-9.747978587e-09 	3.576398706e-06
0.7201742182 	0.001861967878 	0.0006276366569 	-3.613533791e-09 	0.00187837486 	-9.383262507e-09 	3.580704551e-06
0.7238196978 	0.001864816105 	0.0006318828985 	-3.356688539e-09 	0.001880428051 	-9.017845686e-09 	3.584618503e-06
0.727505857 	0.001867489036 	0.0006359643135 	-3.104084993e-09 	0.001882284462 	-8.65218998e-09 	3.588157339e-06
0.7312331497 	0.001869996682 	0.0006398872942 	-2.856397074e-09 	0.001883953843 	-8.286748828e-09 	3.591339643e-06
0.7350020349 	0.001872343931 	0.0006436483763 	-2.61491978e-09 	0.001885443187 	-7.922923009e-09 	3.594178746e-06
0.7387709215 	0.001874525976 	0.0006472255886 	-2.382187388e-09 	0.001886755082 	-7.564128135e-09 	3.596679583e-06
0.7424982157 	0.00187654382 	0.0006506033022 	-2.160422916e-09 	0.001887898178 	-7.213565575e-09 	3.598858641e-06
0.7461843763 	0.001878413456 	0.0006537892604 	-1.950256377e-09 	0.001888891215 	-6.872176371e-09 	3.600751645e-06
0.7498298574 	0.001880155581 	0.0006567992883 	-1.751619878e-09 	0.001889755399 	-6.539883924e-09 	3.60239902e-06
0.7534351078 	0.001881789765 	0.0006596479691 	-1.564395883e-09 	0.001890510782 	-6.216557746e-09 	3.603838991e-06
0.7570005716 	0.001883334511 	0.0006623487187 	-1.388422167e-09 	0.001891176326 	-5.902016687e-09 	3.605107702e-06
0.7605266877 	0.001884807308 	0.0006649138649 	-1.223496082e-09 	0.001891769967 	-5.596031284e-09 	3.606239346e-06
0.7640138905 	0.001886224701 	0.0006673547229 	-1.0693787e-09 	0.001892308683 	-5.298325725e-09 	3.60726629e-06
0.7674626093 	0.001887602354 	0.0006696816675 	-9.257988243e-10 	0.00189280856 	-5.008579606e-09 	3.608219193e-06
0.770873269 	0.001888955115 	0.0006719042025 	-7.924568121e-10 	0.001893284854 	-4.726429315e-09 	3.609127143e-06
0.7742462894 	0.001890297083 	0.0006740310269 	-6.690282594e-10 	0.001893752064 	-4.451469037e-09 	3.610017775e-06
0.777582086 	0.001891641678 	0.0006760700967 	-5.551676639e-10 	0.001894223997 	-4.183251309e-09 	3.61091741e-06
0.7808810695 	0.001893001703 	0.0006780286851 	-4.505122265e-10 	0.001894713836 	-3.921287162e-09 	3.611851179e-06
0.7841436462 	0.001894389421 	0.0006799134379 	-3.546860279e-10 	0.00189523421 	-3.665045858e-09 	3.612843157e-06
0.787370218 	0.001895816614 	0.0006817304264 	-2.673047333e-10 	0.001895797264 	-3.413954418e-09 	3.613916495e-06
0.7905611821 	0.001897294659 	0.0006834851971 	-1.879807823e-10 	0.001896414727 	-3.167397122e-09 	3.615093551e-06
0.7937169314 	0.001898834594 	0.0006851828178 	-1.163285047e-10 	0.001897097986 	-2.924715398e-09 	3.616396032e-06
0.7968378547 	0.001900447187 	0.0006868279203 	-5.196783441e-11 	0.001897858153 	-2.68520845e-09 	3.617845122e-06
0.7999243362 	0.00190214301 	0.0006884247401 	5.475726793e-12 	0.001898706142 	-2.44813505e-09 	3.619461625e-06
0.8029767561 	0.001903932503 	0.0006899771522 	5.637837324e-11 	0.00189965274 	-2.212716783e-09 	3.621266104e-06
0.8059954902 	0.001905826055 	0.0006914887046 	1.011366061e-10 	0.001900708681 	-1.978142188e-09 	3.62327902e-06
0.8089809102 	0.001907834071 	0.0006929626493 	1.402016517e-10 	0.001901884721 	-1.7435671e-09 	3.62552088e-06
0.8119333839 	0.001909967052 	0.0006944019742 	1.741342088e-10 	0.001903191725 	-1.508107636e-09 	3.628012392e-06
0.8148532749 	0.00191223568 	0.0006958094403 	2.036750978e-10 	0.001904640732 	-1.27086523e-09 	3.630774603e-06
0.8177409426 	0.001914650961 	0.0006971876101 	2.297937427e-10 	0.001906242947 	-1.031034183e-09 	3.63382887e-06
0.8205967427 	0.001917224312 	0.0006985388365 	2.537039939e-10 	0.001908009805 	-7.876064488e-10 	3.637196993e-06
0.8234210268 	0.001919967069 	0.0006998655543 	2.775176481e-10 	0.001909954254 	-5.374015674e-10 	3.640903652e-06
0.8262141429 	0.00192289168 	0.0007011719214 	3.058696946e-10 	0.001912090017 	-2.818798226e-10 	3.64497501e-06
0.8289764348 	0.001926035281 	0.0007025275075 	4.804215425e-10 	0.001914432969 	-6.879114303e-12 	3.649441327e-06
0.8317082427 	0.001929420426 	0.0007039074425 	4.364297839e-10 	0.00191697775 	2.379093377e-10 	3.654292388e-06
0.8344099031 	0.001933041487 	0.0007051772216 	2.910422753e-10 	0.001919706922 	4.725463615e-10 	3.659494949e-06
0.8370817486 	0.001936940926 	0.0007064213769 	4.069070111e-10 	0.001922645668 	7.539288031e-10 	3.665097016e-06
0.8397241082 	0.001941162286 	0.000707770699 	5.279171417e-10 	0.001925836796 	1.057490363e-09 	3.671180192e-06
0.8423373074 	0.001945714575 	0.0007092319423 	6.548817987e-10 	0.001929307312 	1.386614263e-09 	3.67779596e-06
0.844921668 	0.00195061174 	0.0007108116779 	7.876652812e-10 	0.001933078959 	1.737698408e-09 	3.684985767e-06
0.8474775082 	0.001955870315 	0.0007125164113 	9.267383124e-10 	0.001937171261 	2.109648278e-09 	3.692786833e-06
0.8500051427 	0.001961507461 	0.0007143529836 	1.072587846e-09 	0.001941604713 	2.50181545e-09 	3.701238225e-06
0.8525048829 	0.001967540797 	0.0007163285405 	1.225722464e-09 	0.001946400916 	2.914466368e-09 	3.71038112e-06
0.8549770366 	0.001973988455 	0.0007184504944 	1.386732652e-09 	0.001951582416 	3.348830103e-09 	3.7202585e-06
0.8574219081 	0.001980869144 	0.000720726516 	1.556294542e-09 	0.001957172597 	3.80661852e-09 	3.730914938e-06
0.8598397987 	0.001988202297 	0.0007231645372 	1.73515587e-09 	0.001963195547 	4.289637074e-09 	3.742396354e-06
0.862231006 	0.001996008298 	0.0007257727693 	1.924127808e-09 	0.001969675914 	4.799699794e-09 	3.754749735e-06
0.8645958245 	0.002004308801 	0.000728559741 	2.124085695e-09 	0.001976638803 	5.338739148e-09 	3.768022936e-06
0.8669345455 	0.002013127087 	0.0007315343618 	2.335974044e-09 	0.001984109766 	5.908941745e-09 	3.782264668e-06
0.8692474569 	0.002022488432 	0.0007347060124 	2.560810567e-09 	0.001992114934 	6.512818046e-09 	3.797524744e-06
0.8715348435 	0.00203242047 	0.000738084662 	2.799686913e-09 	0.002000681308 	7.153202263e-09 	3.813854634e-06
0.8737969871 	0.002042953542 	0.0007416810112 	3.05376692e-09 	0.002009837188 	7.833218671e-09 	3.831308285e-06
0.8760341663 	0.002054121042 	0.0007455066526 	3.324284615e-09 	0.002019612717 	8.556246686e-09 	3.84994316e-06
0.8782466565 	0.002065959745 	0.0007495742451 	3.612544019e-09 	0.002030040496 	9.325898049e-09 	3.869821407e-06
0.8804347301 	0.002078510149 	0.0007538976923 	3.919921999e-09 	0.002041156226 	1.014600629e-08 	3.891011077e-06
0.8825986568 	0.002091816806 	0.0007584923206 	4.247874759e-09 	0.002052999336 	1.102062578e-08 	3.913587336e-06
0.8847387028 	0.002105928666 	0.0007633750505 	4.597948306e-09 	0.00206561358 	1.195404048e-08 	3.937633591e-06
0.8868551318 	0.002120899429 	0.0007685645605 	4.9717931e-09 	0.002079047581 	1.295078513e-08 	3.963242531e-06
0.8889482045 	0.002136787903 	0.0007740814423 	5.371182982e-09 	0.002093355308 	1.401568276e-08 	3.990517035e-06
0.8910181784 	0.002153658402 	0.0007799483503 	5.798038097e-09 	0.002108596509 	1.515390131e-08 	4.019571e-06
0.8930653087 	0.002171581151 	0.0007861901496 	6.254450987e-09 	0.002124837102 	1.637103061e-08 	4.050530085e-06
0.8950898473 	0.002190632735 	0.0007928340666 	6.74271398e-09 	0.002142149565 	1.767317821e-08 	4.08353245e-06
0.8970920436 	0.002210896552 	0.0007999098473 	7.265344681e-09 	0.002160613333 	1.906707748e-08 	4.118729523e-06
0.8990721441 	0.002232463287 	0.0008074499252 	7.82510461e-09 	0.00218031525 	2.056019413e-08 	4.156286854e-06
0.9010303927 	0.002255431356 	0.0008154895972 	8.425004506e-09 	0.002201350072 	2.216080729e-08 	4.196385071e-06
0.9029670306 	0.002279907321 	0.0008240672017 	9.068289254e-09 	0.002223821011 	2.387803194e-08 	4.239220926e-06
0.9048822962 	0.002306006213 	0.0008332242867 	9.758397898e-09 	0.002247840302 	2.572174713e-08 	4.285008371e-06
0.9067764254 	0.002333851782 	0.0008430057542 	1.04989015e-08 	0.002273529712 	2.770240567e-08 	4.333979526e-06
0.9086496514 	0.002363576678 	0.0008534599708 	1.129341989e-08 	0.002301020922 	2.98306864e-08 	4.386385414e-06
0.910502205 	0.002395322543 	0.0008646387934 	1.214533209e-08 	0.002330455568 	3.211644673e-08 	4.44249603e-06
0.9123343142 	0.002429238954 	0.0008765970866 	1.305622105e-08 	0.002361983689 	3.456415545e-08 	4.502597391e-06
0.9141462048 	0.002465477496 	0.0008893903847 	1.402213556e-08 	0.002395756953 	3.716257335e-08 	4.566978619e-06
0.9159380997 	0.002504179428 	0.0009030702389 	1.50324039e-08 	0.002431915615 	3.988177281e-08 	4.635907078e-06
0.9177102197 	0.002545468222 	0.0009176814537 	1.607709121e-08 	0.002470580885 	4.269389436e-08 	4.70961383e-06
0.9194627831 	0.002589459277 	0.0009332657034 	1.715524848e-08 	0.002511864976 	4.559597716e-08 	4.78831278e-06
0.9211960055 	0.002636276818 	0.0009498678568 	1.827289411e-08 	0.002555888712 	4.860462111e-08 	4.872234257e-06