0.4709558481 	2.112366522e-08 	-1.802644195e-11 	1.048765281e-16 	2.10834723e-08 	-8.530474563e-14 	4.019095804e-11
0.4711314108 	2.37165278e-07 	-7.910055644e-10 	4.603974514e-15 	2.367136916e-07 	-9.577568271e-13 	4.512420873e-10
0.4713069734 	1.322130669e-06 	-1.03278303e-08 	6.013165798e-14 	1.31960444e-06 	-5.339150819e-12 	2.515532828e-09
0.471482536 	4.403811306e-06 	-6.454484386e-08 	3.758383794e-13 	4.395308471e-06 	-1.778263907e-11 	8.378679559e-09
0.4716580986 	1.089160874e-05 	-2.63033406e-07 	1.531142007e-12 	1.087006456e-05 	-4.397164431e-11 	2.072136422e-08
0.4718336613 	2.234368424e-05 	-8.127471224e-07 	4.726252731e-12 	2.229737898e-05 	-9.016527977e-11 	4.250500157e-08
0.4720092239 	4.041443513e-05 	-2.073083639e-06 	1.20298616e-11 	4.032390612e-05 	-1.629438938e-10 	7.686857251e-08
0.4721847865 	6.681683762e-05 	-4.596397528e-06 	2.657465579e-11 	6.664889955e-05 	-2.68974019e-10 	1.270513266e-07
0.4723603491 	0.0001032811357 	-9.15611803e-06 	5.263332261e-11 	0.0001029783723 	-4.146985989e-10 	1.96305399e-07
0.4725359118 	0.0001515004002 	-1.675224566e-05 	9.549102402e-11 	0.0001509642949 	-6.058976774e-10 	2.877799044e-07
0.4727114744 	0.0002130565627 	-2.85827672e-05 	1.610322826e-10 	0.0002121227434 	-8.470929789e-10 	4.043649054e-07
0.472887037 	0.0002893237753 	-4.597128287e-05 	2.549995623e-10 	0.0002877292333 	-1.140818961e-09 	5.484918889e-07
0.4730625996 	0.0003813514142 	-7.024762818e-05 	3.819703065e-10 	0.0003786965624 	-1.486860041e-09 	7.219009013e-07
0.4732381623 	0.0004897371147 	-0.0001025900439 	5.442290046e-10 	0.0004854500365 	-1.881639541e-09 	9.254026934e-07
0.4734137249 	0.0006145094523 	-0.0001438523314 	7.408333718e-10 	0.0006078240589 	-2.31799285e-09 	1.158681592e-06
0.4735892875 	0.0007550466928 	-0.0001944118445 	9.67210437e-10 	0.0007450077964 	-2.785511005e-09 	1.420191924e-06
0.4737648501 	0.0009100578319 	-0.000254076836 	1.215505834e-09 	0.0008955616633 	-3.271489265e-09 	1.707189439e-06
0.4739404128 	0.001077641868 	-0.000322080079 	1.475663505e-09 	0.001057510787 	-3.762321931e-09 	2.015909479e-06
0.4741159754 	0.001255422388 	-0.0003971624399 	1.736944617e-09 	0.001228502479 	-4.245023348e-09 	2.34186717e-06
0.474291538 	0.001440735179 	-0.0004777247349 	1.989398622e-09 	0.00140599829 	-4.708072325e-09 	2.680223518e-06
0.4744671006 	0.001630853313 	-0.0005620344847 	2.236865108e-09 	0.001587448225 	-5.144112974e-09 	3.026117525e-06
0.4746426632 	0.001823195249 	-0.0006484459301 	2.240322748e-09 	0.001770481695 	-5.526722571e-09 	3.375030191e-06
0.4748182259 	0.002012426229 	-0.0007254446786 	2.189722912e-09 	0.001952164906 	-5.888031719e-09 	3.721368888e-06
0.4749937885 	0.002197365404 	-0.0007921191472 	2.32702716e-09 	0.002131590916 	-6.256642375e-09 	4.063404731e-06
0.4751693511 	0.002380531411 	-0.000858146131 	2.45662864e-09 	0.002309264842 	-6.60453496e-09 	4.402100615e-06
0.4753449137 	0.002561147249 	-0.0009232490938 	2.57818181e-09 	0.00248444647 	-6.930887049e-09 	4.736045488e-06
0.4755204764 	0.002738536742 	-0.0009871916665 	2.691473733e-09 	0.002656507996 	-7.234916982e-09 	5.064042578e-06
0.475696039 	0.002912153052 	-0.001049774459 	2.796555934e-09 	0.002824910322 	-7.516791707e-09 	5.385064217e-06
0.4758716016 	0.003081556759 	-0.001110838409 	2.89359025e-09 	0.002989224674 	-7.776969961e-09 	5.69829304e-06
0.4760471642 	0.003246406549 	-0.001170260292 	2.982812133e-09 	0.003149119244 	-8.016086012e-09 	6.003096531e-06
0.4762227269 	0.003428260384 	-0.001235809866 	3.075318095e-09 	0.003325499822 	-8.263847006e-09 	6.339326936e-06
0.4764955107 	0.003646224052 	-0.001314373973 	3.177895981e-09 	0.003536897087 	-8.538349478e-09 	6.742308877e-06
0.4767734216 	0.003876595844 	-0.001397410298 	3.276401326e-09 	0.003760325622 	-8.801635665e-09 	7.168225764e-06
0.4770565557 	0.004098017393 	-0.001477220116 	3.361219184e-09 	0.003975067784 	-9.027917303e-09 	7.577584009e-06
0.4773450114 	0.004310015964 	-0.001553633681 	3.433074672e-09 	0.004180661994 	-9.219015028e-09 	7.969503716e-06
0.4776388886 	0.004512304877 	-0.001626551601 	3.492785789e-09 	0.004376830675 	-9.376822912e-09 	8.343455744e-06
0.4779382892 	0.004704754091 	-0.001695935894 	3.541285364e-09 	0.00456344813 	-9.503194717e-09 	8.699200481e-06
0.4782433171 	0.004887360403 	-0.001761803348 	3.579681022e-09 	0.004740511158 	-9.599868369e-09 	9.036731824e-06
0.4785540779 	0.005060220228 	-0.00182422182 	3.609344317e-09 	0.004908113115 	-9.668419443e-09 	9.356227738e-06
0.4788706795 	0.005223506319 	-0.001883309423 	3.632016721e-09 	0.005066421458 	-9.710249116e-09 	9.658007438e-06
0.4791932316 	0.0053774498 	-0.00193923646 	3.649925227e-09 	0.005215660332 	-9.726638689e-09 	9.94249821e-06
0.4795218461 	0.005522331582 	-0.001991735429 	3.646250108e-09 	0.00535610252 	-9.71898113e-09 	1.021022005e-05
0.4798566368 	0.005658481506 	-0.002040675202 	3.62675294e-09 	0.005488068118 	-9.68898165e-09 	1.046178316e-05
0.48019772 	0.005786251135 	-0.002086499048 	3.607447327e-09 	0.005611897832 	-9.6377384e-09 	1.069783701e-05
0.4805452138 	0.005905983661 	-0.002129470062 	3.580608922e-09 	0.005727924377 	-9.56568719e-09 	1.091901586e-05
0.4808992388 	0.006018015231 	-0.002169698804 	3.546416529e-09 	0.00583647377 	-9.473352518e-09 	1.112594117e-05
0.4812599177 	0.006122677971 	-0.002207296997 	3.505022692e-09 	0.00593786812 	-9.361188675e-09 	1.131922698e-05
0.4816273755 	0.006220297589 	-0.002242375981 	3.456542427e-09 	0.006032423314 	-9.229547199e-09 	1.149947546e-05
0.4820017397 	0.006311190481 	-0.002275045176 	3.401051535e-09 	0.006120446215 	-9.078670946e-09 	1.166727158e-05
0.48238314 	0.006395661296 	-0.002305410847 	3.338586164e-09 	0.006202232293 	-8.908692364e-09 	1.182317857e-05
0.4827717088 	0.006474001026 	-0.00233357515 	3.269141217e-09 	0.006278063771 	-8.719629039e-09 	1.196773444e-05
0.4831675807 	0.006546485502 	-0.002359635394 	3.192667379e-09 	0.006348208164 	-8.511375611e-09 	1.210144915e-05
0.4835708931 	0.006613374201 	-0.002383683467 	3.109068111e-09 	0.006412917129 	-8.283695667e-09 	1.222480243e-05
0.4839817856 	0.00667490937 	-0.002405805416 	3.018199472e-09 	0.00647242561 	-8.036221293e-09 	1.233824213e-05
0.4844004009 	0.00673131562 	-0.002426081217 	2.919876478e-09 	0.006526951451 	-7.76847025e-09 	1.244218354e-05
0.4848268841 	0.006782800269 	-0.002444584831 	2.81388934e-09 	0.006576695709 	-7.479889825e-09 	1.253700992e-05
0.485261383 	0.006829554729 	-0.002461384672 	2.700031564e-09 	0.006621844035 	-7.169933052e-09 	1.262307518e-05
0.4857040484 	0.006871757273 	-0.002476544568 	2.578139053e-09 	0.006662569388 	-6.838163897e-09 	1.270070902e-05
0.4861550336 	0.006909592224 	-0.002490130559 	2.448303598e-09 	0.006699050546 	-6.484843842e-09 	1.277025224e-05
0.4866144951 	0.006943260637 	-0.002502214634 	2.310713232e-09 	0.006731482371 	-6.110508121e-09 	1.283207632e-05
0.4870825921 	0.006972950103 	-0.002512864007 	2.165254071e-09 	0.006760046688 	-5.714872422e-09 	1.288652784e-05
0.487559487 	0.006998816358 	-0.002522134582 	2.011719898e-09 	0.006784894536 	-5.297391138e-09 	1.293389475e-05
0.4880453452 	0.007020996246 	-0.002530075531 	1.849979466e-09 	0.006806158633 	-4.857718243e-09 	1.297443003e-05
0.4885403351 	0.007039615927 	-0.002536732193 	1.679887192e-09 	0.00682396129 	-4.395468702e-09 	1.300836684e-05
0.4890446283 	0.007054791395 	-0.002542146271 	1.501282761e-09 	0.00683841497 	-3.910217704e-09 	1.303591957e-05
0.4895583997 	0.007066628987 	-0.002546356008 	1.313990827e-09 	0.006849622783 	-3.401499645e-09 	1.305728478e-05
0.4900818274 	0.007075225869 	-0.002549396361 	1.117821004e-09 	0.00685767896 	-2.868808256e-09 	1.307264209e-05
0.4906150929 	0.007080670518 	-0.002551299166 	9.125679742e-10 	0.006862669303 	-2.311596983e-09 	1.308215507e-05
0.4911583811 	0.007083043172 	-0.002552093305 	6.980116216e-10 	0.006864671645 	-1.729279444e-09 	1.308597209e-05
0.4917118805 	0.007082416272 	-0.002551804859 	4.739172226e-10 	0.006863756262 	-1.121229956e-09 	1.308422712e-05
0.4922757829 	0.007078854878 	-0.002550457259 	2.400356356e-10 	0.00685998629 	-4.867841378e-10 	1.30770405e-05
0.4928502838 	0.007072417063 	-0.002548071428 	-3.896455278e-12 	0.006853418104 	1.747604517e-10 	1.306451972e-05
0.4934355824 	0.007063154288 	-0.002544665912 	-2.581562925e-10 	0.006844101685 	8.641435959e-10 	1.304676003e-05
0.4940318817 	0.00705111175 	-0.002540257011 	-5.230347564e-10 	0.006832080958 	1.58214165e-09 	1.302384519e-05
0.4946393885 	0.007036328712 	-0.002534858894 	-7.988360645e-10 	0.006817394119 	2.329566686e-09 	1.299584799e-05
0.4952583133 	0.00701883882 	-0.002528483712 	-1.085877378e-09 	0.006800073937 	3.107265518e-09 	1.296283091e-05
0.4958888709 	0.006998670398 	-0.002521141709 	-1.384488384e-09 	0.006780148049 	3.916118558e-09 	1.292484663e-05
0.4965312797 	0.00697584673 	-0.002512841322 	-1.695010778e-09 	0.006757639232 	4.757038483e-09 	1.288193856e-05
0.4971857627 	0.006950386336 	-0.002503589278 	-2.017797675e-09 	0.006732565673 	5.630968655e-09 	1.283414139e-05
0.4978525466 	0.006922303238 	-0.002493390697 	-2.35321283e-09 	0.006704941234 	6.538881191e-09 	1.278148153e-05
0.4985318627 	0.006891607229 	-0.002482249183 	-2.701629724e-09 	0.006674775706 	7.481774575e-09 	1.272397765e-05
0.4992239466 	0.00685830414 	-0.002470166924 	-3.063430413e-09 	0.006642075078 	8.460670723e-09 	1.266164117e-05
0.4999290382 	0.006822396112 	-0.002457144791 	-3.439004128e-09 	0.0066068418 	9.476611327e-09 	1.259447675e-05
0.5006473819 	0.006783881868 	-0.002443182441 	-3.828745458e-09 	0.006569075058 	1.053065331e-08 	1.252248284e-05
0.501379227 	0.006742756977 	-0.002428278408 	-4.233052252e-09 	0.00652877103 	1.162386338e-08 	1.244565216e-05
0.502124827 	0.006699014068 	-0.002412430182 	-4.652323134e-09 	0.006485923091 	1.275731151e-08 	1.236397208e-05
0.5028844406 	0.006652642905 	-0.002395634246 	-5.086954741e-09 	0.006440521926 	1.39320629e-08 	1.227742484e-05
0.5036583311 	0.006603630034 	-0.002377886054 	-5.537339319e-09 	0.006392555602 	1.514917011e-08 	1.21859877e-05
0.5044467669 	0.006551957781 	-0.00235917978 	-6.003868293e-09 	0.006342009031 	1.640968683e-08 	1.208963188e-05
0.5052500214 	0.00649760296 	-0.002339507185 	-6.486948963e-09 	0.006288860247 	1.771472614e-08 	1.198831553e-05
0.506068373 	0.006433082319 	-0.0023161606 	-7.051861981e-09 	0.006225796172 	1.924056662e-08 	1.186809787e-05
0.507324668 	0.006349782958 	-0.002286027183 	-7.769471209e-09 	0.006144413159 	2.1178522e-08 	1.171295923e-05
0.5085949819 	0.006254335634 	-0.002251509877 	-8.578292816e-09 	0.006051206036 	2.336248053e-08 	1.153528055e-05
0.5098794711 	0.006154351793 	-0.002215362947 	-9.412772289e-09 	0.005953614366 	2.561542283e-08 	1.13492437e-05
0.5111782938 	0.006049961333 	-0.002177633909 	-1.02722547e-08 	0.005851766194 	2.793567807e-08 	1.115509278e-05
0.5124916099 	0.005941279074 	-0.002138365613 	-1.115594159e-08 	0.005745777483 	3.032118502e-08 	1.095304884e-05
0.5138195812 	0.005828408076 	-0.002097596527 	-1.20629038e-08 	0.005635751956 	3.276955447e-08 	1.07433096e-05
0.5151623712 	0.005711441981 	-0.002055361649 	-1.29921077e-08 	0.005521783681 	3.52781415e-08 	1.05260544e-05
0.5165201452 	0.005590466801 	-0.002011693277 	-1.394246653e-08 	0.005403959343 	3.784417033e-08 	1.030144846e-05
0.5178930705 	0.005465561958 	-0.001966621377 	-1.49129262e-08 	0.005282359329 	4.046493408e-08 	1.006964504e-05
0.5192813161 	0.005336800115 	-0.001920173487 	-1.590259645e-08 	0.005157057571 	4.313808783e-08 	9.83078506e-06
0.520685053 	0.005204245507 	-0.001872374055 	-1.691094098e-08 	0.005028119952 	4.586206611e-08 	9.584994121e-06
0.522104454 	0.005067950618 	-0.001823243161 	-1.79380297e-08 	0.004895601103 	4.863664156e-08 	9.332376364e-06
0.523539694 	0.004927951506 	-0.001772794681 	-1.898481412e-08 	0.004759539804 	5.146356715e-08 	9.073005712e-06
0.5249909497 	0.004784263024 	-0.001721034289 	-2.005323534e-08 	0.004619954004 	5.434684941e-08 	8.806916381e-06
0.5264583998 	0.004636876969 	-0.001667958585 	-2.114545462e-08 	0.004476839126 	5.729045215e-08 	8.534099648e-06
0.527942225 	0.004485769764 	-0.001613558251 	-2.226129076e-08 	0.00433017809 	6.029157412e-08 	8.25452295e-06
0.5294426081 	0.004331142289 	-0.001557906418 	-2.327779292e-08 	0.004180174327 	6.302693867e-08 	7.968574087e-06
0.5309597337 	0.004173973578 	-0.001501361994 	-2.40524454e-08 	0.004027781959 	6.512355278e-08 	7.678071878e-06
0.5324937889 	0.004015660256 	-0.001444436443 	-2.464922536e-08 	0.003874355454 	6.674788348e-08 	7.385598318e-06
0.5340449624 	0.003857106227 	-0.001387457932 	-2.513288976e-08 	0.003720773236 	6.806685254e-08 	7.092827923e-06
0.5356134452 	0.003698943862 	-0.001330651492 	-2.548159534e-08 	0.003567650393 	6.902029163e-08 	6.800933226e-06
0.5371994306 	0.003541911122 	-0.00127427722 	-2.568231284e-08 	0.003415702545 	6.956868161e-08 	6.511278397e-06
0.5388031139 	0.003386820961 	-0.001218619391 	-2.570681605e-08 	0.003265718469 	6.962803914e-08 	6.225367061e-06
0.5404246925 	0.003234628738 	-0.001164011384 	-2.551758228e-08 	0.003118622816 	6.908692529e-08 	5.944961864e-06
0.5420643661 	0.003086466931 	-0.001110848958 	-2.507932368e-08 	0.002975503914 	6.784473867e-08 	5.672137459e-06
0.5437223366 	0.002943621887 	-0.001059585458 	-2.437652264e-08 	0.002837594361 	6.586956974e-08 	5.409243521e-06
0.5453988083 	0.002807407472 	-0.001010693108 	-2.342753742e-08 	0.002706167955 	6.323992601e-08 	5.158708262e-06
0.5470939875 	0.002678929717 	-0.0009645588475 	-2.230285126e-08 	0.002582242765 	6.019335695e-08 	4.922472407e-06
0.5488080831 	0.002558640778 	-0.0009213328711 	-2.112116616e-08 	0.0024661979 	5.703240769e-08 	4.701258641e-06
0.5505413061 	0.002443576972 	-0.0008734365244 	-2.481956251e-08 	0.002356556741 	5.47825797e-08 	4.49225212e-06
0.5522938699 	0.002332197068 	-0.0008213833253 	-2.703871414e-08 	0.002251707732 	5.309492701e-08 	4.292380767e-06
0.5540659904 	0.00222593806 	-0.0007725133706 	-2.494332148e-08 	0.002151522271 	5.115986004e-08 	4.101399433e-06
0.5558578859 	0.002124669277 	-0.0007252799923 	-2.488991822e-08 	0.002056132084 	4.915914954e-08 	3.919559225e-06
0.5576697768 	0.002028397844 	-0.0006789456746 	-2.478304542e-08 	0.001965769072 	4.688865018e-08 	3.747302209e-06
0.5595018865 	0.001937450691 	-0.0006336465295 	-2.455129441e-08 	0.001880672033 	4.437515528e-08 	3.585083601e-06
0.5613544406 	0.001852129044 	-0.0005895313986 	-2.417925783e-08 	0.001801078593 	4.161426273e-08 	3.433356382e-06
0.563227667 	0.00177268795 	-0.0005467322362 	-2.367594236e-08 	0.001727195624 	3.863938622e-08 	3.292514908e-06
0.5651217966 	0.001699325427 	-0.0005053583987 	-2.306069193e-08 	0.001659172656 	3.549423033e-08 	3.162844225e-06
0.5670370626 	0.001632167353 	-0.0004654945319 	-2.235738208e-08 	0.001597091858 	3.222805911e-08 	3.044500971e-06
0.5689737009 	0.001571256659 	-0.0004271991374 	-2.159011239e-08 	0.001540960567 	2.889445629e-08 	2.937499128e-06
0.5709319499 	0.001516547663 	-0.0003905044732 	-2.078068595e-08 	0.001490707093 	2.554894516e-08 	2.84170204e-06
0.5729120508 	0.00146790525 	-0.000355417949 	-1.994756164e-08 	0.00144618096 	2.224651721e-08 	2.756822855e-06
0.5749142474 	0.001425108644 	-0.0003219250799 	-1.910543766e-08 	0.001407157242 	1.903941558e-08 	2.682432802e-06
0.5769387863 	0.001387859499 	-0.0002899942724 	-1.82647062e-08 	0.001373344579 	1.597468333e-08 	2.61797647e-06
0.5789859169 	0.001355795166 	-0.0002595835644 	-1.743089233e-08 	0.001344397797 	1.309003297e-08 	2.562795858e-06
0.5810558911 	0.001328509658 	-0.0002306498555 	-1.660313466e-08 	0.001319938856 	1.040628331e-08 	2.516170318e-06
0.583148964 	0.001305586822 	-0.0002031507133 	-1.578186391e-08 	0.001299590146 	7.919290333e-09 	2.477380021e-06
0.5852653933 	0.00128664008 	-0.0001770988335 	-1.489944991e-08 	0.001283006744 	5.60340222e-09 	2.445767446e-06
0.5874054395 	0.001271376721 	-0.0001524882377 	-1.407323926e-08 	0.00126993301 	3.388637475e-09 	2.420845277e-06
0.5895693664 	0.001259580623 	-0.0001290453158 	-1.349765978e-08 	0.00126017707 	1.281988288e-09 	2.402247743e-06
0.5917574402 	0.001250956108 	-0.0001064736703 	-1.301092946e-08 	0.001253445797 	-5.960670236e-10 	2.389416067e-06
0.5939699306 	0.001245091552 	-8.472909947e-05 	-1.249971623e-08 	0.001249326955 	-2.202273415e-09 	2.381564409e-06
0.5962071099 	0.00124157649 	-6.379198187e-05 	-1.202654092e-08 	0.001247422874 	-3.574185307e-09 	2.377934701e-06
0.5984692536 	0.001240062516 	-4.358559005e-05 	-1.159671543e-08 	0.001247401521 	-4.748694355e-09 	2.377893997e-06
0.6007566404 	0.00124025943 	-2.403868515e-05 	-1.120565333e-08 	0.001248985301 	-5.755717469e-09 	2.380913121e-06
0.6030695519 	0.001241925019 	-5.088860935e-06 	-1.08486138e-08 	0.001251941305 	-6.620574434e-09 	2.386548086e-06
0.6054082729 	0.001244856187 	1.331831411e-05 	-1.05213262e-08 	0.001256073703 	-7.364268282e-09 	2.394425586e-06
0.6077730914 	0.001248881996 	3.123032773e-05 	-1.022001771e-08 	0.001261217096 	-8.004172476e-09 	2.404230322e-06
0.6101642987 	0.001253858001 	4.868863963e-05 	-9.941391274e-09 	0.001267231159 	-8.554743382e-09 	2.415694797e-06
0.6125821893 	0.001259661622 	6.572947703e-05 	-9.682582929e-09 	0.001273996346 	-9.028066601e-09 	2.428591124e-06
0.6150270608 	0.001266188374 	8.238452148e-05 	-9.441107146e-09 	0.001281410404 	-9.434283073e-09 	2.442724379e-06
0.6174992144 	0.001273348789 	9.86814997e-05 	-9.21480125e-09 	0.001289385519 	-9.781931492e-09 	2.457927165e-06
0.6199989545 	0.001281065907 	0.0001146446922 	-9.001775729e-09 	0.001297845981 	-1.0078224e-08 	2.474055157e-06
0.622526589 	0.001289273213 	0.0001302953716 	-8.800372824e-09 	0.001306726263 	-1.0329269e-08 	2.490983443e-06
0.625082429 	0.001297912944 	0.0001456521812 	-8.609132959e-09 	0.001315969433 	-1.054025276e-08 	2.508603494e-06
0.6276667894 	0.001306934698 	0.0001607314623 	-8.426767504e-09 	0.001325525844 	-1.071558856e-08 	2.526820669e-06
0.6302799884 	0.001316294284 	0.0001755475379 	-8.252136239e-09 	0.001335352037 	-1.085903976e-08 	2.545552125e-06
0.6329223478 	0.001325952767 	0.0001901129592 	-8.084228249e-09 	0.00134540984 	-1.097382179e-08 	2.564725092e-06
0.6355941931 	0.001335875685 	0.0002044387202 	-7.922145429e-09 	0.0013556656 	-1.106268664e-08 	2.584275422e-06
0.6382958531 	0.001346032391 	0.0002185344434 	-7.765088086e-09 	0.001366089552 	-1.112799314e-08 	2.604146372e-06
0.6410276607 	0.001356395507 	0.0002324085443 	-7.612342339e-09 	0.001376655284 	-1.11717655e-08 	2.624287592e-06
0.6437899523 	0.001366940471 	0.0002460683732 	-7.463269091e-09 	0.001387339283 	-1.119574203e-08 	2.644654265e-06
0.646583068 	0.001377645159 	0.0002595203414 	-7.317294402e-09 	0.001398120566 	-1.120141596e-08 	2.665206386e-06
0.6494073518 	0.001388489568 	0.0002727700323 	-7.173901123e-09 	0.001408980352 	-1.11900696e-08 	2.685908157e-06
0.6522631514 	0.001399455554 	0.0002858222988 	-7.032621606e-09 	0.001419901799 	-1.116280304e-08 	2.706727471e-06
0.6551508186 	0.001410526613 	0.0002986813515 	-6.893031363e-09 	0.001430869778 	-1.112055832e-08 	2.727635487e-06
0.658070709 	0.001421687701 	0.0003113508363 	-6.754743507e-09 	0.001441870683 	-1.106413974e-08 	2.748606268e-06
0.6610231822 	0.001432925085 	0.0003238339053 	-6.617403868e-09 	0.00145289227 	-1.099423103e-08 	2.769616477e-06
0.6640086017 	0.00144422622 	0.0003361332801 	-6.480686673e-09 	0.001463923533 	-1.091140982e-08 	2.79064513e-06
0.6670273351 	0.001455579654 	0.0003482513106 	-6.344290694e-09 	0.001474954591 	-1.081615976e-08 	2.811673392e-06
0.6700797543 	0.001466974952 	0.000360190028 	-6.207935766e-09 	0.001485976603 	-1.070888076e-08 	2.832684411e-06
0.6731662352 	0.001478402635 	0.0003719511951 	-6.071359623e-09 	0.001496981702 	-1.058989752e-08 	2.853663188e-06
0.6762871577 	0.001489854142 	0.0003835363533 	-5.934314986e-09 	0.001507962941 	-1.04594665e-08 	2.874596482e-06
0.6794429063 	0.001501321803 	0.0003949468666 	-5.796566841e-09 	0.001518914259 	-1.031778173e-08 	2.895472739e-06
0.6826338695 	0.001512798828 	0.000406183965 	-5.657889865e-09 	0.001529830461 	-1.01649794e-08 	2.916282054e-06
0.6858604404 	0.001524279308 	0.0004172487862 	-5.51806595e-09 	0.001540707206 	-1.000114146e-08 	2.937016152e-06
0.6891230163 	0.001535758229 	0.0004281424169 	-5.376881775e-09 	0.001551541014 	-9.826298253e-09 	2.957668401e-06
0.6924219988 	0.001547231502 	0.0004388659341 	-5.234126403e-09 	0.001562329284 	-9.640430287e-09 	2.978233842e-06
0.6957577944 	0.001558695998 	0.000449420448 	-5.089588866e-09 	0.001573070324 	-9.443469238e-09 	2.99870925e-06
0.6991308138 	0.001570149609 	0.0004598071445 	-4.943055674e-09 	0.001583763396 	-9.235298117e-09 	3.019093217e-06
0.7025414724 	0.001581591307 	0.0004700273315 	-4.794308233e-09 	0.001594408768 	-9.015750703e-09 	3.039386255e-06
0.7059901901 	0.001593021231 	0.0004800824864 	-4.643120167e-09 	0.001605007791 	-8.784610208e-09 	3.059590938e-06
0.7094773917 	0.001604440783 	0.000489974308 	-4.489254462e-09 	0.001615562981 	-8.541607169e-09 	3.079712064e-06
0.7130035066 	0.001615852741 	0.0004997047714 	-4.332460423e-09 	0.001626078124 	-8.286416553e-09 	3.099756849e-06
0.7165689691 	0.001627261393 	0.0005092761889 	-4.172470445e-09 	0.001636558395 	-8.018654023e-09 	3.119735158e-06
0.7201742182 	0.001638672691 	0.0005186912766 	-4.008996537e-09 	0.001647010501 	-7.73787131e-09 	3.139659778e-06
0.7238196978 	0.001650094429 	0.0005279532276 	-3.841726577e-09 	0.001657442844 	-7.443550484e-09 	3.159546724e-06
0.727505857 	0.001661536447 	0.0005370657937 	-3.670320303e-09 	0.001667865705 	-7.135097417e-09 	3.179415592e-06
0.7312331497 	0.001673010867 	0.0005460333735 	-3.494406082e-09 	0.001678291455 	-6.811835355e-09 	3.19928997e-06
0.7350020349 	0.001684501695 	0.0005548375419 	-3.314078947e-09 	0.001688707158 	-6.473914199e-09 	3.219145195e-06
0.7387709215 	0.001695929352 	0.0005634132256 	-3.130522154e-09 	0.001699042754 	-6.123608824e-09 	3.238847713e-06
0.7424982157 	0.001707218588 	0.0005717041701 	-2.944969569e-09 	0.001709232624 	-5.763528989e-09 	3.258272439e-06
0.7461843763 	0.001718363195 	0.0005797084992 	-2.757630359e-09 	0.001719273837 	-5.394416403e-09 	3.27741378e-06
0.7498298574 	0.001729387693 	0.0005874463665 	-2.568248419e-09 	0.001729191197 	-5.016058232e-09 	3.296319025e-06
0.7534351078 	0.001740317064 	0.0005949373435 	-2.376568933e-09 	0.001739009754 	-4.628199658e-09 	3.315035924e-06
0.7570005716 	0.001751176731 	0.0006022004765 	-2.18233777e-09 	0.001748754812 	-4.230544336e-09 	3.333612713e-06
0.7605266877 	0.001761992556 	0.0006092543351 	-1.985302617e-09 	0.001758451953 	-3.822755983e-09 	3.35209816e-06
0.7640138905 	0.001772790845 	0.0006161170568 	-1.785214291e-09 	0.001768127061 	-3.404459821e-09 	3.370541603e-06
0.7674626093 	0.001783598355 	0.0006228063867 	-1.581828185e-09 	0.001777806344 	-2.975243581e-09 	3.388993008e-06
0.770873269 	0.001794442312 	0.000629339715 	-1.374905841e-09 	0.001787516373 	-2.534658149e-09 	3.407503021e-06
0.7742462894 	0.001805350432 	0.0006357341107 	-1.164216637e-09 	0.001797284113 	-2.082217897e-09 	3.426123048e-06
0.777582086 	0.001816350952 	0.0006420063534 	-9.495395558e-10 	0.001807136968 	-1.617400685e-09 	3.444905329e-06
0.7808810695 	0.001827472662 	0.0006481729627 	-7.30665003e-10 	0.001817102827 	-1.139647471e-09 	3.463903025e-06
0.7841436462 	0.001838744947 	0.0006542502252 	-5.073966854e-10 	0.001827210114 	-6.48361523e-10 	3.483170323e-06
0.787370218 	0.001850197835 	0.0006602542217 	-2.795535292e-10 	0.001837487846 	-1.429072225e-10 	3.502762538e-06
0.7905611821 	0.001861862052 	0.0006662008508 	-4.697165326e-11 	0.001847965696 	3.773915415e-10 	3.522736232e-06
0.7937169314 	0.001873769081 	0.0006721058529 	1.904936163e-10 	0.001858674065 	9.132543006e-10 	3.54314936e-06
0.7968378547 	0.001885951215 	0.0006779848405 	4.329663202e-10 	0.001869644199 	1.465449664e-09 	3.564061483e-06
0.7999243362 	0.00189844167 	0.0006838533417 	6.805490032e-10 	0.001880908226 	2.034794064e-09 	3.58553385e-06
0.8029767561 	0.001911274939 	0.0006897267539 	9.333141552e-10 	0.00189249875 	2.622119145e-09 	3.607628611e-06
0.8059954902 	0.001924486692 	0.0006956200749 	1.191281181e-09 	0.001904449121 	3.228312525e-09 	3.63040934e-06
0.8089809102 	0.001938110461 	0.0007015496457 	1.454563372e-09 	0.001916800664 	3.854875144e-09 	3.653954813e-06
0.8119333839 	0.001952188588 	0.0007075416535 	1.72398668e-09 	0.001929589495 	4.502569997e-09 	3.67833388e-06
0.8148532749 	0.001966928599 	0.0007141181992 	2.039579139e-09 	0.001942896011 	5.175938467e-09 	3.703699796e-06
0.8177409426 	0.001982233884 	0.0007206826372 	2.321334916e-09 	0.0019566715 	5.867210846e-09 	3.729959707e-06
0.8205967427 	0.001997979474 	0.0007264756265 	2.563001817e-09 	0.00197089241 	6.581973415e-09 	3.757068716e-06
0.8234210268 	0.002014455688 	0.0007321989788 	2.84863235e-09 	0.001985746811 	7.337425675e-09 	3.785385331e-06
0.8262141429 	0.002031816395 	0.0007382254927 	3.150134913e-09 	0.002001379736 	8.135797081e-09 	3.815186032e-06
0.8289764348 	0.00205009311 	0.0007445770656 	3.468696595e-09 	0.002017875045 	8.981083825e-09 	3.846630674e-06
0.8317082427 	0.002069319988 	0.000751270142 	3.804969559e-09 	0.002035287695 	9.874850852e-09 	3.879824026e-06
0.8344099031 	0.002089535521 	0.0007583192202 	4.159511914e-09 	0.002053659259 	1.081852822e-08 	3.914845333e-06
0.8370817486 	0.00211078301 	0.000765739652 	4.532831679e-09 	0.00207303058 	1.181354378e-08 	3.951772455e-06
0.8397241082 	0.002133112492 	0.0007735488254 	4.925446597e-09 	0.00209344675 	1.286154502e-08 	3.990691349e-06
0.8423373074 	0.00215658154 	0.0007817668583 	5.337917562e-09 	0.002114960248 	1.39644941e-08 	4.031702055e-06
0.844921668 	0.002181255209 	0.0007904168942 	5.770844254e-09 	0.002137632552 	1.512455995e-08 	4.074921769e-06
0.8474775082 	0.002207205546 	0.0007995250432 	6.224777794e-09 	0.002161534265 	1.634368081e-08 	4.120485077e-06
0.8500051427 	0.002234510449 	0.0008091198875 	6.69967527e-09 	0.002186743572 	1.762181203e-08 	4.168541022e-06
0.8525048829 	0.002263249874 	0.0008192308724 	7.193304858e-09 	0.002213341298 	1.895239816e-08 	4.21924368e-06
0.8549770366 	0.002293497403 	0.0008298849653 	7.700089647e-09 	0.002241401142 	2.031931654e-08 	4.272733542e-06
0.8574219081 	0.002325312796 	0.000841103768 	8.213869263e-09 	0.002270981381 	2.17047582e-08 	4.329121698e-06
0.8598397987 	0.002358745979 	0.0008529049649 	8.732704999e-09 	0.002302128814 	2.31027033e-08 	4.388497363e-06
0.862231006 	0.002393850032 	0.0008653071946 	9.259423558e-09 	0.002334892387 	2.452059945e-08 	4.450953838e-06
0.8645958245 	0.002430689942 	0.0008783334295 	9.798317754e-09 	0.002369332851 	2.597031924e-08 	4.516606936e-06
0.8669345455 	0.002469342913 	0.0008920112413 	1.035287799e-08 	0.002405523829 	2.746178266e-08 	4.585596999e-06
0.8692474569 	0.002509895262 	0.0009063717429 	1.09254301e-08 	0.002443549083 	2.900180079e-08 	4.658083702e-06
0.8715348435 	0.002552439329 	0.0009214484747 	1.151730109e-08 	0.00248349951 	3.059444731e-08 	4.73424032e-06
0.8737969871 	0.002597070807 	0.0009372764268 	1.212895198e-08 	0.002525470459 	3.224139453e-08 	4.814248614e-06
0.8760341663 	0.002643886263 	0.0009538911211 	1.276003002e-08 	0.00256955919 	3.394204796e-08 	4.898293987e-06
0.8782466565 	0.002692980616 	0.0009713276732 	1.340936498e-08 	0.00261586227 	3.569353413e-08 	4.986560528e-06
0.8804347301 	0.00274444444 	0.0009896197863 	1.407493801e-08 	0.002664472789 	3.749061547e-08 	5.079225687e-06
0.8825986568 	0.002798361029 	0.001008798658 	1.475384618e-08 	0.002715477316 	3.932559582e-08 	5.176454492e-06
0.8847387028 	0.002854803256 	0.001028891806 	1.544228211e-08 	0.002768952652 	4.118826901e-08 	5.278393345e-06
0.8868551318 	0.002913830273 	0.00104992184 	1.613554367e-08 	0.002824962431 	4.306595271e-08 	5.385163551e-06
0.8889482045 	0.002975484197 	0.001071905227 	1.682808458e-08 	0.002883553718 	4.494363595e-08 	5.496854828e-06
0.8910181784 	0.003039786913 	0.001094851109 	1.751361047e-08 	0.002944753756 	4.680425243e-08 	5.61351911e-06
0.8930653087 	0.003106737182 	0.001118760234 	1.818521878e-08 	0.003008567041 	4.862907284e-08 	5.735164968e-06
0.8950898473 	0.003176308199 	0.001143624057 	1.883557452e-08 	0.003074972877 	5.039819258e-08 	5.861752948e-06
0.8970920436 	0.003248445747 	0.001169424069 	1.945710953e-08 	0.003143923545 	5.209107864e-08 	5.993192084e-06
0.8990721441 	0.003323067023 	0.001196131366 	2.004223085e-08 	0.00321534316 	5.368713563e-08 	6.129337721e-06
0.9010303927 	0.003400060201 	0.001223706495 	2.058352505e-08 	0.003289127252 	5.51662559e-08 	6.269990708e-06
0.9029670306 	0.003479284715 	0.001252099555 	2.107394869e-08 	0.003365143047 	5.650933022e-08 	6.414897941e-06
0.9048822962 	0.003560572248 	0.001281250553 	2.15069998e-08 	0.003443230419 	5.769870666e-08 	6.563754176e-06
0.9067764254 	0.003643728385 	0.001311089989 	2.187686773e-08 	0.003523203452 	5.87185889e-08 	6.716205003e-06
0.9086496514 	0.003728534871 	0.001341539655 	2.217855667e-08 	0.00360485254 	5.955535323e-08 	6.871850858e-06
0.910502205 	0.003814752379 	0.0013725136 	2.240796639e-08 	0.003687946928 	6.019773194e-08 	7.030251857e-06
0.9123343142 	0.003902123544 	0.001403919182 	2.256188158e-08 	0.003772237434 	6.063673645e-08 	7.190932989e-06
0.9141462048 	0.003990375733 	0.001435658003 	2.263777823e-08 	0.003857458845 	6.08650985e-08 	7.353388685e-06
0.9159380997 	0.004079222141 	0.001467626217 	2.263319653e-08 	0.003943330569 	6.087557579e-08 	7.517084057e-06
0.9177102197 	0.00416836181 	0.00149971442 	2.254564641e-08 	0.004029556195 	6.066087967e-08 	7.681454064e-06
0.9194627831 	0.004257457437 	0.001531799731 	2.236427266e-08 	0.004115802352 	6.019169889e-08 	7.845863212e-06
0.9211960055 	0.004346137432 	0.001563746813 	2.209204609e-08 	0.004201702086 	5.947628078e-08 	8.009611979e-06
0.9229101006 	0.004434099946 	0.001595445604 	2.176440641e-08 	0.004286956905 	5.861009884e-08 	8.17213136e-06
0.9246052793 	0.004521172281 	0.001626832884 	2.140569835e-08 	0.004371395032 	5.765886473e-08 	8.333093898e-06