0.4330902145 	1.246328947e-08 	-6.294791028e-12 	1.140532586e-14 	1.244226883e-08 	-9.386477873e-12 	2.371842253e-11
0.4330902145 	1.246328947e-08 	-6.294791028e-12 	1.140532586e-14 	1.244226883e-08 	-9.386477873e-12 	2.371842253e-11
0.4332736287 	1.485544328e-07 	-3.039820656e-10 	4.965509851e-13 	1.484013542e-07 	-9.800804458e-11 	2.828942272e-10
0.4334570457 	8.406273516e-07 	-4.131876665e-09 	6.347689994e-12 	8.407779456e-07 	-5.253969736e-10 	1.602756447e-09
0.4336404653 	2.822456515e-06 	-2.658819301e-08 	3.891756042e-11 	2.828279485e-06 	-1.706353001e-09 	5.391486779e-09
0.4338238871 	7.009937345e-06 	-1.110555628e-07 	1.557141445e-10 	7.043058726e-06 	-4.147092645e-09 	1.342602745e-08
0.4340073109 	1.440992298e-05 	-3.509579537e-07 	4.72562318e-10 	1.452833025e-05 	-8.395990335e-09 	2.76950354e-08
0.4341907363 	2.608326708e-05 	-9.147053302e-07 	1.18400931e-09 	2.641090154e-05 	-1.502119239e-08 	5.034651888e-08
0.4343741631 	4.312046807e-05 	-2.071891749e-06 	2.578434669e-09 	4.38861042e-05 	-2.458985969e-08 	8.365911211e-08
0.4345575909 	6.66190032e-05 	-4.217937079e-06 	5.043456032e-09 	6.820285838e-05 	-3.764142716e-08 	1.300136041e-07
0.4347410195 	9.765778748e-05 	-7.892904089e-06 	9.056088839e-09 	0.0001006423473 	-5.465039149e-08 	1.91852286e-07
0.4349244486 	0.0001372659324 	-1.378864847e-05 	1.515178999e-08 	0.0001424849686 	-7.59758585e-08 	2.716159518e-07
0.4351078778 	0.0001863838798 	-2.273738564e-05 	2.386809782e-08 	0.0001949609452 	-1.017979554e-07 	3.716497481e-07
0.435291307 	0.0002458161256 	-3.567507441e-05 	3.566315327e-08 	0.0002591817917 	-1.320463257e-07 	4.940725308e-07
0.4354747357 	0.0003161765863 	-5.357572488e-05 	5.081733999e-08 	0.0003360536686 	-1.663331134e-07 	6.406116936e-07
0.4356581637 	0.0003978303463 	-7.735845939e-05 	6.9336276e-08 	0.0004261796962 	-2.039099306e-07 	8.124169515e-07
0.4358415907 	0.0004908387583 	-0.0001077773728 	9.088156931e-08 	0.0005297653828 	-2.436709522e-07 	1.00988006e-06
0.4360250165 	0.0005949177323 	-0.0001453126761 	1.147564487e-07 	0.0006465467114 	-2.842178735e-07 	1.23249773e-06
0.4362084406 	0.0007094200886 	-0.0001900864929 	1.399622641e-07 	0.0007757606926 	-3.239859132e-07 	1.478815492e-06
0.4363918629 	0.0008333506687 	-0.0002418244296 	1.653202972e-07 	0.0009161712655 	-3.614088687e-07 	1.746477069e-06
0.436575283 	0.0009654171065 	-0.0002998737969 	1.896301468e-07 	0.001066150733 	-3.95086601e-07 	2.032379618e-06
0.4367587007 	0.001104111018 	-0.0003632744137 	2.118232404e-07 	0.001223803512 	-4.23920261e-07 	2.332909632e-06
0.4369421156 	0.001247806852 	-0.0004308645447 	2.310755367e-07 	0.001387110416 	-4.471926426e-07 	2.64421798e-06
0.4371255275 	0.00139486727 	-0.0005013989467 	2.468678828e-07 	0.001554060786 	-4.644906658e-07 	2.962471786e-06
0.4373089361 	0.001543766123 	-0.0005739279658 	2.616845014e-07 	0.00172284645 	-4.76624626e-07 	3.284224174e-06
0.4374923411 	0.001692714743 	-0.0006437195573 	2.336660931e-07 	0.001890805695 	-4.72569184e-07 	3.604401176e-06
0.4376757422 	0.001840204806 	-0.0007048323794 	2.004128928e-07 	0.002055448424 	-4.665589553e-07 	3.918255978e-06
0.4378591391 	0.001986276661 	-0.0007606544554 	2.045324363e-07 	0.002217499042 	-4.7098613e-07 	4.227169495e-06
0.4380425315 	0.002131174486 	-0.0008160050221 	2.07562936e-07 	0.002378064171 	-4.72501125e-07 	4.53325126e-06
0.4382259191 	0.00227444801 	-0.000870714432 	2.095064077e-07 	0.002536655813 	-4.71228142e-07 	4.835571006e-06
0.4384093017 	0.002415701011 	-0.0009246322385 	2.104050366e-07 	0.002692840815 	-4.672352648e-07 	5.133303029e-06
0.438592679 	0.002573656405 	-0.0009848967034 	2.104189992e-07 	0.002867257188 	-4.600431407e-07 	5.465789113e-06
0.4388775938 	0.002766048176 	-0.001058259035 	2.083837351e-07 	0.00307936565 	-4.460535583e-07 	5.870126794e-06
0.4391678485 	0.002973086077 	-0.001137158647 	2.044032567e-07 	0.00330722886 	-4.261859425e-07 	6.304497404e-06
0.4394635417 	0.003175812927 	-0.001214361808 	1.985486649e-07 	0.003529901437 	-4.016261611e-07 	6.728973225e-06
0.4397647738 	0.003373473614 	-0.001289582588 	1.910098209e-07 	0.003746543178 	-3.729502582e-07 	7.141952596e-06
0.4400716469 	0.003565454227 	-0.00136259948 	1.81987023e-07 	0.003956488068 	-3.407538785e-07 	7.542165907e-06
0.4403842649 	0.003751268105 	-0.00143325893 	1.716776102e-07 	0.004159220066 	-3.056344961e-07 	7.928629442e-06
0.4407027333 	0.003930535317 	-0.001501485034 	1.60255884e-07 	0.004354352143 	-2.681799286e-07 	8.300605415e-06
0.4410271599 	0.004102959598 	-0.001567295703 	1.478441536e-07 	0.004541607391 	-2.289612668e-07 	8.657565962e-06
0.4413576537 	0.00426830457 	-0.001630822682 	1.344781289e-07 	0.004720805314 	-1.885222616e-07 	8.999167009e-06
0.4416943261 	0.00442637209 	-0.001692330993 	1.200762269e-07 	0.004891862023 	-1.473550112e-07 	9.325248639e-06
0.4420372902 	0.004577229204 	-0.001751015207 	1.050430698e-07 	0.005054598846 	-1.0607031e-07 	9.635470254e-06
0.4423866608 	0.004721147813 	-0.001805608946 	9.051779696e-08 	0.005208888458 	-6.533581521e-08 	9.929589137e-06
0.4427425551 	0.004858171411 	-0.00185669996 	7.662979624e-08 	0.005355013131 	-2.539807317e-08 	1.020814338e-05
0.4431050918 	0.004988295196 	-0.001905185393 	6.290919934e-08 	0.005493284904 	1.361838187e-08 	1.047172781e-05
0.4434743918 	0.005111647903 	-0.001951100739 	4.946379755e-08 	0.005623839375 	5.140343638e-08 	1.072060091e-05
0.443850578 	0.005228362007 	-0.001994487506 	3.63947954e-08 	0.005746829367 	8.768240891e-08 	1.095505402e-05
0.4442337753 	0.005338579884 	-0.002035393596 	2.379437809e-08 	0.005862421656 	1.222116106e-07 	1.117540505e-05
0.4446241106 	0.005442555564 	-0.002073909464 	1.172936288e-08 	0.005970896402 	1.548203187e-07 	1.138218807e-05
0.4450233411 	0.005540581297 	-0.002110142601 	2.541036917e-10 	0.006072580213 	1.853542723e-07 	1.157602567e-05
0.445431201 	0.005632718432 	-0.002144116856 	-1.054399558e-08 	0.006167561195 	2.135760292e-07 	1.175708582e-05
0.4458466793 	0.005718918156 	-0.002175814516 	-2.056725953e-08 	0.006255803284 	2.392253183e-07 	1.192529977e-05
0.4462699177 	0.005799244436 	-0.002205261266 	-2.974717319e-08 	0.006337392414 	2.621149879e-07 	1.208083133e-05
0.4467010604 	0.005873820237 	-0.002232506636 	-3.804034982e-08 	0.0064124833 	2.821330338e-07 	1.222397543e-05
0.4471402543 	0.005942768422 	-0.002257600169 	-4.541997028e-08 	0.006481229375 	2.992165372e-07 	1.235502455e-05
0.4475876489 	0.006006218599 	-0.002280594006 	-5.187767776e-08 	0.0065437918 	3.133585719e-07 	1.247428592e-05
0.4480433967 	0.006064315716 	-0.002301545861 	-5.74243008e-08 	0.006600347907 	3.246089345e-07 	1.258209758e-05
0.4485076529 	0.006117256257 	-0.002320531249 	-6.212307695e-08 	0.00665112748 	3.33180786e-07 	1.267889756e-05
0.4489805754 	0.006165341559 	-0.002337661124 	-6.605560102e-08 	0.006696467809 	3.393578389e-07 	1.276532883e-05
0.4494623252 	0.006208908205 	-0.002353057392 	-6.925091161e-08 	0.00673673991 	3.43265405e-07 	1.284209865e-05
0.4499530662 	0.006248212739 	-0.002366814367 	-7.172696512e-08 	0.006772228308 	3.449822717e-07 	1.29097494e-05
0.4504529654 	0.006283457704 	-0.002379008448 	-7.352135868e-08 	0.006803160694 	3.446407031e-07 	1.296871512e-05
0.4509621928 	0.006314841112 	-0.002389714612 	-7.467558805e-08 	0.006829760291 	3.423827223e-07 	1.301942135e-05
0.4514809216 	0.006342555474 	-0.002399005911 	-7.523372528e-08 	0.006852244171 	3.383561412e-07 	1.306228187e-05
0.4520093281 	0.006366786791 	-0.002406953027 	-7.524132083e-08 	0.006870821953 	3.327114644e-07 	1.309769629e-05
0.452547592 	0.006387713705 	-0.002413623904 	-7.474450604e-08 	0.006885694827 	3.25599482e-07 	1.312604812e-05
0.4530958961 	0.006405506809 	-0.002419083472 	-7.378924494e-08 	0.006897054827 	3.171692532e-07 	1.314770344e-05
0.4536544268 	0.006420328121 	-0.002423393436 	-7.242070731e-08 	0.006905084324 	3.075663928e-07 	1.316300989e-05
0.4542233737 	0.006432330615 	-0.002426612146 	-7.068275146e-08 	0.006909955835 	2.969317153e-07 	1.317229634e-05
0.4548029302 	0.006441657798 	-0.002428794533 	-6.861752178e-08 	0.006911832093 	2.854003536e-07 	1.317587301e-05
0.455393293 	0.006448444066 	-0.00242999193 	-6.626499725e-08 	0.006910864915 	2.730997955e-07 	1.31740293e-05
0.4559946626 	0.006452816715 	-0.002430251652 	-6.366281245e-08 	0.006907191278 	2.601486109e-07 	1.316702633e-05
0.4566082852 	0.006454888755 	-0.002429614965 	-6.083789795e-08 	0.006900928162 	2.466258524e-07 	1.315508709e-05
0.45723626 	0.006454748489 	-0.002428117154 	-5.78071325e-08 	0.006892182215 	2.325747384e-07 	1.313841489e-05
0.4578759321 	0.00645248386 	-0.002425792729 	-5.46223806e-08 	0.006881060133 	2.181816049e-07 	1.31172131e-05
0.4585275182 	0.006448184527 	-0.002422676601 	-5.131004462e-08 	0.006867669344 	2.035345714e-07 	1.309168654e-05
0.4591912389 	0.006441927078 	-0.002418800316 	-4.789380068e-08 	0.006852108473 	1.887108821e-07 	1.306202319e-05
0.459867319 	0.00643378189 	-0.002414191259 	-4.439407654e-08 	0.006834460328 	1.737767808e-07 	1.302838093e-05
0.4605559872 	0.006423810256 	-0.002408873535 	-4.08281868e-08 	0.006814798532 	1.587889021e-07 	1.299090008e-05
0.4612574765 	0.006412064677 	-0.002402868112 	-3.721044816e-08 	0.006793187979 	1.437946484e-07 	1.294970436e-05
0.4619720244 	0.006398589448 	-0.002396192924 	-3.355229801e-08 	0.006769684856 	1.288324439e-07 	1.290490087e-05
0.4626998725 	0.006383421147 	-0.002388863015 	-2.986244519e-08 	0.00674433699 	1.139321539e-07 	1.285658079e-05
0.463441267 	0.006366589158 	-0.002380890728 	-2.614704341e-08 	0.006717184325 	9.911558926e-08 	1.280482027e-05
0.4641964587 	0.006348116252 	-0.002372285906 	-2.240987901e-08 	0.00668825947 	8.439706323e-08 	1.274968146e-05
0.4649657028 	0.006328019135 	-0.002363056141 	-1.865257408e-08 	0.006657588499 	6.978405213e-08 	1.269121406e-05
0.4657492594 	0.006306308889 	-0.002353207055 	-1.487480245e-08 	0.006625192024 	5.527799323e-08 	1.262945737e-05
0.4665473934 	0.006282991465 	-0.002342742467 	-1.107444533e-08 	0.006591085893 	4.087476507e-08 	1.256444161e-05
0.4673603745 	0.006258060265 	-0.002331662068 	-7.247658762e-09 	0.006555275875 	2.656477434e-08 	1.249617776e-05
0.4681892405 	0.006231459657 	-0.002319950086 	-3.383932403e-09 	0.006517729869 	1.231554025e-08 	1.242460464e-05
0.4689198652 	0.006207062744 	-0.002309306903 	9.966623275e-08 	0.006483879729 	-3.07296169e-07 	1.236007686e-05
0.4690375466 	0.00620313141 	-0.002307591721 	-4.989255382e-10 	0.006478424576 	1.849447082e-09 	1.234967783e-05
0.4699010404 	0.006169132643 	-0.002292897686 	-4.138899397e-09 	0.00643209379 	1.520697159e-08 	1.226135847e-05
0.471226299 	0.006124811329 	-0.002273906893 	-9.69187287e-09 	0.006372667893 	3.52269312e-08 	1.21480762e-05
0.4725659371 	0.006073528607 	-0.002252115217 	-1.529867408e-08 	0.006304974463 	5.493832682e-08 	1.20190337e-05
0.4739201122 	0.006019261221 	-0.002229244335 	-2.098469067e-08 	0.006234460488 	7.44540133e-08 	1.188461447e-05
0.475288984 	0.005962041984 	-0.002205314063 	-2.677578677e-08 	0.006161197373 	9.387430823e-08 	1.174495461e-05
0.4766727141 	0.005901891807 	-0.002180341959 	-3.269494922e-08 	0.006085248199 	1.132889372e-07 	1.160017437e-05
0.4780714658 	0.005838830011 	-0.002154340061 	-3.876200379e-08 	0.00600665088 	1.327760035e-07 	1.145034604e-05
0.4794854044 	0.005772789428 	-0.002127283989 	-4.499392272e-08 	0.005925333346 	1.524057121e-07 	1.129533222e-05
0.4809214894 	0.005703668484 	-0.002099142768 	-5.144293588e-08 	0.005841210427 	1.723663349e-07 	1.113497055e-05
0.4823738791 	0.005631539131 	-0.00206994562 	-5.808113757e-08 	0.005754364591 	1.92571572e-07 	1.096941825e-05
0.4838420137 	0.005556496886 	-0.002039730696 	-6.491453262e-08 	0.0056649055 	2.130575741e-07 	1.079888436e-05
0.4853260666 	0.005478545449 	-0.002008508061 	-7.195113648e-08 	0.005572868211 	2.338657739e-07 	1.062343571e-05
0.4868262135 	0.005397686142 	-0.00197628112 	-7.919636254e-08 	0.005478260978 	2.550269402e-07 	1.044308803e-05
0.4883426321 	0.00531391993 	-0.001943053108 	-8.665380739e-08 	0.005381091647 	2.765647855e-07 	1.025785628e-05
0.4898755023 	0.005227229803 	-0.001908819549 	-9.432482078e-08 	0.00528134545 	2.984938138e-07 	1.00677123e-05
0.4914262901 	0.005137502556 	-0.001873541082 	-1.022173626e-07 	0.005178910302 	3.208501143e-07 	9.872442439e-06
0.4930000595 	0.005044647311 	-0.001837191261 	-1.103553969e-07 	0.00507371438 	3.437139013e-07 	9.671909774e-06
0.4945908782 	0.00494876699 	-0.001799810961 	-1.187009066e-07 	0.004965873415 	3.669675162e-07 	9.466334922e-06
0.496198935 	0.004849940049 	-0.001761435761 	-1.272596867e-07 	0.004855493408 	3.906351485e-07 	9.25591995e-06
0.497824421 	0.00474813895 	-0.001722067769 	-1.360400438e-07 	0.004742590591 	4.147402469e-07 	9.040695801e-06
0.4994675299 	0.004643329042 	-0.001681702036 	-1.450556992e-07 	0.004627157389 	4.393177868e-07 	8.820648035e-06
0.5011284574 	0.004535446681 	-0.001640322816 	-1.543288594e-07 	0.00450915682 	4.644265006e-07 	8.595706154e-06
0.5028080558 	0.004424291098 	-0.00159786421 	-1.638998325e-07 	0.004388412677 	4.901879552e-07 	8.365534258e-06
0.5045124937 	0.004309645521 	-0.001554254937 	-1.738534617e-07 	0.004264732644 	5.168603539e-07 	8.129765741e-06
0.5062353919 	0.004191523538 	-0.001509490028 	-1.84225317e-07 	0.004138094991 	5.445642105e-07 	7.888359176e-06
0.5079769559 	0.004069950263 	-0.001463549018 	-1.951301405e-07 	0.004008416355 	5.736904752e-07 	7.641155654e-06
0.509737394 	0.003945190161 	-0.001416473771 	-2.056469251e-07 	0.003875742711 	6.019383347e-07 	7.388242815e-06
0.5115169172 	0.003818220296 	-0.001368529872 	-2.145759555e-07 	0.003740678086 	6.262351661e-07 	7.130772099e-06
0.5133157389 	0.003690135367 	-0.001320004512 	-2.224318752e-07 	0.003603881531 	6.479199532e-07 	6.869999846e-06
0.515137967 	0.00356165066 	-0.00127104089 	-2.296210448e-07 	0.003465664029 	6.680058382e-07 	6.606518871e-06
0.5169830942 	0.003433592769 	-0.001221825823 	-2.356240976e-07 	0.003326514785 	6.85077751e-07 	6.341261737e-06
0.5188482099 	0.003307044439 	-0.001172659429 	-2.332446449e-07 	0.003187304223 	6.78267694e-07 	6.075887715e-06
0.5207335384 	0.003183073191 	-0.001123881609 	-2.216416291e-07 	0.003049094458 	6.45048445e-07 	5.812421488e-06
0.522639307 	0.003062658772 	-0.001075863533 	-2.084052411e-07 	0.002913109857 	6.072012987e-07 	5.553197044e-06
0.5245657457 	0.002946522558 	-0.00102898518 	-1.93473124e-07 	0.002780654293 	5.641959137e-07 	5.300699926e-06
0.526516352 	0.002834906262 	-0.0009836358848 	-1.76862357e-07 	0.0026530671 	5.161071551e-07 	5.057483275e-06
0.5284915975 	0.002727605312 	-0.0009402147982 	-1.587190348e-07 	0.002531635568 	4.642154745e-07 	4.826001025e-06
0.5304882478 	0.002622872115 	-0.0008943204222 	-1.935497265e-07 	0.002417089935 	4.130475841e-07 	4.607645212e-06
0.5325065448 	0.002519073269 	-0.0008449203623 	-2.195963609e-07 	0.002308293757 	3.741361041e-07 	4.400249459e-06
0.5345467337 	0.002417030129 	-0.0007963699186 	-2.035525483e-07 	0.002203353048 	3.471043795e-07 	4.200203299e-06
0.5366090627 	0.002317621433 	-0.0007485740547 	-2.014762792e-07 	0.002101523582 	3.224826803e-07 	4.006088035e-06
0.5386990383 	0.002221102735 	-0.0007009415703 	-1.959089533e-07 	0.00200280366 	2.978170792e-07 	3.817900426e-06
0.5408128428 	0.00212800065 	-0.0006538149011 	-1.876850638e-07 	0.001907546902 	2.72585481e-07 	3.636314571e-06
0.5429495711 	0.00203882929 	-0.0006075120232 	-1.778358644e-07 	0.001816149374 	2.473651137e-07 	3.46208548e-06
0.5451094844 	0.001954012485 	-0.0005622528088 	-1.67080502e-07 	0.001728922956 	2.225442524e-07 	3.295807684e-06
0.5472928472 	0.001873909136 	-0.0005181968211 	-1.559353894e-07 	0.001646104615 	1.983783165e-07 	3.137932907e-06
0.5495029917 	0.001798813663 	-0.0004754498785 	-1.447434513e-07 	0.001567886913 	1.750698249e-07 	2.988828227e-06
0.5517401277 	0.001729036478 	-0.0004341150823 	-1.337734734e-07 	0.001494477184 	1.528493675e-07 	2.84888888e-06
0.5540015404 	0.001664871396 	-0.0003943011642 	-1.232294742e-07 	0.001426074918 	1.319360872e-07 	2.71849515e-06
0.5562875083 	0.001606499761 	-0.0003560688054 	-1.132288007e-07 	0.001362794754 	1.124790589e-07 	2.597865571e-06
0.5585983135 	0.001553987803 	-0.0003194308853 	-1.038406392e-07 	0.00130464669 	9.458157411e-08 	2.487019198e-06
0.5609371009 	0.001507313075 	-0.0002843664247 	-9.50858736e-08 	0.001251569018 	7.830026195e-08 	2.385838404e-06
0.5633041214 	0.001466414287 	-0.0002508579903 	-8.698779241e-08 	0.001203466477 	6.369183113e-08 	2.294141591e-06
0.5656968536 	0.001431173861 	-0.0002189003931 	-7.95537136e-08 	0.001160195998 	5.079333166e-08 	2.211656032e-06
0.5681155946 	0.001401379005 	-0.0001884635765 	-7.275109293e-08 	0.001121521909 	3.959973079e-08 	2.13793247e-06
0.5705606454 	0.001376745986 	-0.0001594966356 	-6.653028703e-08 	0.00108709348 	3.00859911e-08 	2.072302315e-06
0.5730364139 	0.001356979595 	-0.0001319453765 	-6.082113368e-08 	0.001056454244 	2.221496547e-08 	2.013895415e-06
0.5755402815 	0.001341841082 	-0.0001057880676 	-5.559595393e-08 	0.001029058908 	1.589787236e-08 	1.96167229e-06
0.5780713847 	0.001331154537 	-8.103349429e-05 	-5.081085681e-08 	0.001004260776 	1.09843303e-08 	1.914400159e-06
0.5806300406 	0.00132476665 	-5.761079747e-05 	-4.654332891e-08 	0.0009816617906 	6.757470206e-09 	1.871320212e-06
0.5832180167 	0.001322337687 	-3.531510912e-05 	-4.277573512e-08 	0.0009615787777 	2.538154567e-09 	1.833036407e-06
0.5858376189 	0.001323301229 	-1.398266355e-05 	-3.929428411e-08 	0.0009444659912 	-1.243283409e-09 	1.80041468e-06
0.5884857425 	0.001327111879 	6.434262439e-06 	-3.600527857e-08 	0.0009302705688 	-4.151065853e-09 	1.773354259e-06
0.5911627215 	0.001333328304 	2.597691504e-05 	-3.288667476e-08 	0.0009186961627 	-6.251752358e-09 	1.751290225e-06
0.5938690591 	0.001341584555 	4.469811935e-05 	-2.990632432e-08 	0.0009094429793 	-7.651641495e-09 	1.733651085e-06
0.5966092402 	0.001351569499 	6.264306398e-05 	-2.703607507e-08 	0.0009022432348 	-8.471080845e-09 	1.719926371e-06
0.5993792916 	0.001363001727 	7.98188022e-05 	-2.427909932e-08 	0.0008968636659 	-8.81879914e-09 	1.709671418e-06
0.602179565 	0.001375618749 	9.620986582e-05 	-2.161975074e-08 	0.000893103987 	-8.781157357e-09 	1.702504425e-06
0.6050104173 	0.001389178395 	0.0001117970201 	-1.904161822e-08 	0.0008907959975 	-8.430262125e-09 	1.698104755e-06
0.6078761888 	0.001403453495 	0.0001265414964 	-1.652400373e-08 	0.000889788243 	-7.830524257e-09 	1.696183695e-06
0.6107733423 	0.001418219125 	0.0001403538837 	-1.4069912e-08 	0.0008899238523 	-7.05211041e-09 	1.696442204e-06
0.6137021528 	0.001433241597 	0.0001531338659 	-1.164342737e-08 	0.0008910855674 	-6.112555945e-09 	1.698656756e-06
0.6166633566 	0.001448341663 	0.0001650071676 	-9.188101607e-09 	0.0008932529279 	-5.062243466e-09 	1.702788347e-06
0.6196602986 	0.001462967589 	0.0001761184294 	-6.888213652e-09 	0.0008972952874 	-3.627056529e-09 	1.710494208e-06
0.6226900141 	0.001475849498 	0.0001860534372 	-4.651238953e-09 	0.0009051780073 	-2.332970562e-09 	1.725520863e-06
0.6257528942 	0.001487688612 	0.0001953687603 	-2.536480813e-09 	0.0009158379009 	-1.344222747e-09 	1.745841583e-06
0.6288506095 	0.001499929719 	0.0002048135579 	-6.771254799e-10 	0.0009269575328 	-3.778987685e-10 	1.767038692e-06
0.6301370712 	0.001505093802 	0.00020862299 	1.473512022e-07 	0.0009316320691 	1.209213272e-07 	1.775949657e-06
0.6319842164 	0.001512508223 	0.0002140922379 	-9.364590889e-10 	0.0009383451212 	-5.820168903e-10 	1.7887466e-06
0.6351521115 	0.001525391815 	0.0002231541802 	-2.323366282e-09 	0.000949935435 	-1.502672079e-09 	1.81084096e-06
0.6383547749 	0.001538555277 	0.0002320502775 	-3.51033475e-09 	0.0009617314062 	-2.355430374e-09 	1.83332736e-06
0.6415950545 	0.001551978425 	0.000240815793 	-4.507329259e-09 	0.0009737319856 	-3.12991143e-09 	1.856203799e-06
0.6448714415 	0.001565639263 	0.0002494611508 	-5.307103559e-09 	0.0009859199779 	-3.805517061e-09 	1.8794375e-06
0.6481838289 	0.001579517694 	0.0002579991794 	-5.919733872e-09 	0.0009982832222 	-4.374953304e-09 	1.90300528e-06
0.6515336955 	0.001593599104 	0.0002664600126 	-6.357210733e-09 	0.001010826574 	-4.834664627e-09 	1.926916395e-06
0.6549219977 	0.001607869769 	0.0002748580082 	-6.616359817e-09 	0.001023545377 	-5.170760661e-09 	1.951161969e-06
0.658347578 	0.001622314724 	0.000283200248 	-6.702517672e-09 	0.001036430837 	-5.376285924e-09 	1.975725236e-06
0.661811122 	0.001636923346 	0.0002915079857 	-6.628212593e-09 	0.001049488908 	-5.451433781e-09 	2.00061755e-06
0.6653149209 	0.00165168854 	0.0002997984578 	-6.396240032e-09 	0.001062725246 	-5.389419158e-09 	2.025849688e-06
0.6688573239 	0.001666601308 	0.0003080757593 	-6.007571658e-09 	0.00107613515 	-5.181906226e-09 	2.051412692e-06
0.6724387986 	0.001681656238 	0.000316354276 	-5.475460821e-09 	0.00108972572 	-4.831797753e-09 	2.077320096e-06
0.6760616858 	0.001696851977 	0.0003246536099 	-4.807008956e-09 	0.00110351149 	-4.337553393e-09 	2.103599606e-06
0.6797247083 	0.001712186771 	0.0003329767698 	-4.001961467e-09 	0.001117493096 	-3.690885385e-09 	2.130252432e-06
0.6834281966 	0.001727661844 	0.0003413354782 	-3.074522575e-09 	0.001131681735 	-2.897106836e-09 	2.157299921e-06
0.6871741462 	0.001743282112 	0.0003497500125 	-2.033744755e-09 	0.001146099177 	-1.957509927e-09 	2.184783574e-06
0.6909617583 	0.001759054191 	0.0003582238394 	-8.808124646e-10 	0.00116075284 	-8.657963338e-10 	2.212717527e-06
0.6936431587 	0.001770210595 	0.0003642074477 	8.577521224e-08 	0.001171191853 	1.10700729e-07 	2.232617188e-06
0.694791239 	0.001774987265 	0.0003667695276 	-3.73886669e-10 	0.001175661679 	-3.635616918e-10 	2.241137918e-06
0.6986643717 	0.001791094095 	0.0003754071624 	-1.727705288e-09 	0.001190854859 	-1.716802683e-09 	2.270100343e-06
0.7025805467 	0.001807392135 	0.0003841423051 	-3.164262152e-09 	0.001206348248 	-3.212966516e-09 	2.299635049e-06
0.7065401553 	0.001823901247 	0.0003929920679 	-4.666022088e-09 	0.001222172856 	-4.841315004e-09 	2.329801148e-06
0.7105449492 	0.001840646266 	0.0004019774783 	-6.223718126e-09 	0.00123836697 	-6.599093391e-09 	2.36067163e-06
0.7145941618 	0.001857611879 	0.000411082472 	-7.829535739e-09 	0.001254913659 	-8.484136254e-09 	2.39221422e-06
0.7186434165 	0.001874685079 	0.0004202493022 	-9.446031976e-09 	0.001271711255 	-1.045977699e-08 	2.424235105e-06
0.7226486042 	0.001891754434 	0.0004294171278 	-1.104684548e-08 	0.001288651641 	-1.249726953e-08 	2.45652819e-06
0.7266094196 	0.001908808211 	0.0004385723992 	-1.262037015e-08 	0.001305715714 	-1.458290253e-08 	2.489057055e-06
0.7305267523 	0.001925879011 	0.0004477359674 	-1.415086747e-08 	0.001322941008 	-1.669832486e-08 	2.521893254e-06
0.7344012368 	0.001943003637 	0.0004569187064 	-1.563442275e-08 	0.001340355173 	-1.88374216e-08 	2.555089493e-06
0.7382328756 	0.00196021992 	0.0004661318254 	-1.706008921e-08 	0.001357987156 	-2.098504187e-08 	2.588700951e-06
0.7420225095 	0.001977564542 	0.0004753969372 	-1.841592203e-08 	0.001375879182 	-2.312485586e-08 	2.622808128e-06
0.7457706092 	0.001995078682 	0.0004847249754 	-1.969974278e-08 	0.001394061979 	-2.525082379e-08 	2.657469591e-06
0.7494773227 	0.00201280403 	0.0004941298935 	-2.090226675e-08 	0.001412570782 	-2.734761239e-08 	2.692752514e-06
0.7531433854 	0.002030780786 	0.0005036354268 	-2.201340941e-08 	0.001431454079 	-2.939922267e-08 	2.728749326e-06
0.7567692644 	0.002049053486 	0.0005132567431 	-2.303136089e-08 	0.001450751093 	-3.139865671e-08 	2.765534799e-06
0.7603551552 	0.002067666744 	0.0005230133384 	-2.394822792e-08 	0.001470507832 	-3.333076296e-08 	2.803196635e-06
0.763901668 	0.002086663254 	0.0005329348462 	-2.475460817e-08 	0.001490785353 	-3.517913102e-08 	2.841851226e-06
0.7674093446 	0.002106089883 	0.0005430449359 	-2.544843017e-08 	0.001511639305 	-3.69358375e-08 	2.881604654e-06
0.7708783745 	0.002125994225 	0.0005533703762 	-2.602376641e-08 	0.001533131815 	-3.858746935e-08 	2.922575352e-06
0.7743092448 	0.002146422789 	0.0005639470141 	-2.647253868e-08 	0.001555340538 	-4.011855857e-08 	2.96491135e-06
0.7777025987 	0.002167427069 	0.0005748064485 	-2.679262178e-08 	0.001578341029 	-4.152089521e-08 	3.008756678e-06
0.7810585948 	0.002189062674 	0.000585978298 	-2.69819013e-08 	0.001602209419 	-4.278537614e-08 	3.054256464e-06
0.7843776614 	0.002211387871 	0.0005974967019 	-2.703574609e-08 	0.001627032111 	-4.389954788e-08 	3.101575414e-06
0.7876603902 	0.002234467929 	0.0006093924253 	-2.695275251e-08 	0.001652894527 	-4.48545424e-08 	3.150876367e-06
0.7909070506 	0.00225837829 	0.0006216874646 	-2.673582426e-08 	0.00167987186 	-4.564570188e-08 	3.202302661e-06
0.7941180041 	0.002283201507 	0.0006344031688 	-2.638455333e-08 	0.001708040261 	-4.626242477e-08 	3.255999462e-06
0.7972937061 	0.002309024831 	0.00064755988 	-2.589876967e-08 	0.001737474938 	-4.669454392e-08 	3.312110138e-06
0.8004346052 	0.002335934321 	0.0006611678356 	-2.528416064e-08 	0.001768231741 	-4.694183498e-08 	3.370741154e-06
0.8035409751 	0.002363994602 	0.00067523077 	-2.454654331e-08 	0.001800347005 	-4.700631824e-08 	3.431961772e-06
0.8066132058 	0.002393242735 	0.0006897494801 	-2.368832498e-08 	0.00183384253 	-4.688267617e-08 	3.495813553e-06
0.80965176 	0.002423709584 	0.0007047218805 	-2.270950549e-08 	0.001868731283 	-4.655474746e-08 	3.562321212e-06
0.8126569591 	0.002455440996 	0.0007201464372 	-2.161109772e-08 	0.001905027993 	-4.600332057e-08 	3.63151283e-06
0.8156291397 	0.002488499247 	0.0007360284029 	-2.039347939e-08 	0.001942761074 	-4.520762764e-08 	3.703442569e-06
0.8185686718 	0.002522958045 	0.0007523797118 	-1.905822226e-08 	0.001981971857 	-4.415030775e-08 	3.77818922e-06
0.8214759931 	0.002558900713 	0.000769213991 	-1.761006801e-08 	0.002022704757 	-4.282045463e-08 	3.855837448e-06
0.8243513843 	0.002596415678 	0.0007865474322 	-1.605521312e-08 	0.002065008055 	-4.121153789e-08 	3.936479293e-06
0.8271951952 	0.002635592142 	0.0008044016719 	-1.439852329e-08 	0.00210893969 	-3.931711436e-08 	4.020225198e-06
0.8300077779 	0.002676519558 	0.0008228024245 	-1.264460184e-08 	0.002154565283 	-3.713292153e-08 	4.107200261e-06
0.8327895326 	0.00271928907 	0.0008417758678 	-1.079925018e-08 	0.002201951083 	-3.465923225e-08 	4.197530764e-06
0.8355407393 	0.002763991725 	0.0008613489585 	-8.868091992e-09 	0.002251164285 	-3.189843899e-08 	4.291344807e-06
0.8382617368 	0.002810716412 	0.0008815506027 	-6.85530884e-09 	0.0023022756 	-2.885257291e-08 	4.388777178e-06
0.8409528603 	0.002859550052 	0.0009024097981 	-4.764619858e-09 	0.002355355354 	-2.552489217e-08 	4.489961943e-06
0.8436144725 	0.002910577779 	0.000923952906 	-2.600485469e-09 	0.002410467043 	-2.192192595e-08 	4.595020138e-06
0.8462468653 	0.002963880517 	0.0009462031272 	-3.677086942e-10 	0.002467665299 	-1.805273514e-08 	4.704055912e-06
0.848850357 	0.003019531094 	0.0009691812699 	1.929272252e-09 	0.002526997187 	-1.392726707e-08 	4.817158982e-06
0.8514252675 	0.003077591708 	0.000992904556 	4.28582021e-09 	0.002588499174 	-9.557650611e-09 	4.934398861e-06
0.8539719263 	0.003138111799 	0.001017384503 	6.696127763e-09 	0.002652191768 	-4.960070576e-09 	5.055814648e-06
0.856490637 	0.003201124648 	0.001042625981 	9.153278281e-09 	0.002718076772 	-1.550065679e-10 	5.181409779e-06
0.8589816959 	0.003266642585 	0.001068627805 	1.16497886e-08 	0.002786138714 	4.834410128e-09 	5.311154755e-06
0.8614454083 	0.003334653988 	0.001095382222 	1.36597511e-08 	0.002856343855 	9.617446824e-09 	5.444985267e-06
0.8638820763 	0.003405122232 	0.001122873485 	1.546903407e-08 	0.00292863688 	1.411019968e-08 	5.582795866e-06
0.8662920105 	0.003477984396 	0.001151077308 	1.712514099e-08 	0.003002939671 	1.83147626e-08 	5.724437636e-06
0.8686754868 	0.003553150103 	0.001179961008 	1.862822711e-08 	0.003079151902 	2.221517422e-08 	5.869719332e-06
0.8710327965 	0.003630501194 	0.001209484257 	1.997914415e-08 	0.003157153455 	2.579844511e-08 	6.018411971e-06
0.8733642276 	0.00370989344 	0.001239598983 	2.117929494e-08 	0.00323680443 	2.905474664e-08 	6.170248867e-06
0.8756700675 	0.003791158542 	0.001270249603 	2.22306172e-08 	0.003317945952 	3.197744331e-08 	6.324927161e-06
0.8779505993 	0.003874106758 	0.001301373402 	2.313530509e-08 	0.003400401179 	3.456274528e-08 	6.48210974e-06
0.8802060927 	0.003958528618 	0.001332902012 	2.389694109e-08 	0.003483979478 	3.681180727e-08 	6.641433208e-06
0.8824368228 	0.004044197639 	0.001364762627 	2.452052065e-08 	0.003568479924 	3.87307922e-08 	6.802514542e-06
0.8846430618 	0.004130873937 	0.001396878769 	2.501227279e-08 	0.003653693431 	4.033058609e-08 	6.964955171e-06
0.88682508 	0.004218306973 	0.001429171591 	2.537963069e-08 	0.003739406493 	4.162658578e-08 	7.128348091e-06
0.8889831442 	0.004306238615 	0.001461560686 	2.563087541e-08 	0.003825403454 	4.263805858e-08 	7.2922822e-06
0.8911175121 	0.00439440322 	0.001493965236 	2.577556209e-08 	0.003911470151 	4.338869525e-08 	7.456349244e-06
0.8932284436 	0.004482529538 	0.001526305215 	2.582779045e-08 	0.003997397627 	4.391539679e-08 	7.620150897e-06
0.895316196 	0.004570311993 	0.001558490793 	2.577987968e-08 	0.004082954428 	4.419984381e-08 	7.783245939e-06
0.8973810235 	0.004657367664 	0.001590406155 	2.561870608e-08 	0.00416784342 	4.42101618e-08 	7.945067951e-06
0.8994231797 	0.004743356219 	0.001621946801 	2.537393711e-08 	0.004251796752 	4.402470333e-08 	8.105106334e-06
0.9014429092 	0.004828121817 	0.001653065869 	2.507553745e-08 	0.00433469459 	4.372018822e-08 	8.263132654e-06
0.9034404575 	0.004911610349 	0.001683746982 	2.473067832e-08 	0.004416494022 	4.331276253e-08 	8.419065107e-06
0.9054160679 	0.004993772868 	0.001713972744 	2.434520563e-08 	0.004497147601 	4.28153289e-08 	8.572813244e-06
0.9073699809 	0.005074560787 	0.001743724743 	2.392422928e-08 	0.004576604394 	4.223903125e-08 	8.724279976e-06
0.9093024346 	0.00515392419 	0.001772984037 	2.347239621e-08 	0.004654811946 	4.159395444e-08 	8.873365306e-06