0.3810449493 	0.01116037143 	0.001437406107 	-7.98740588e-07
0.3812213909 	0.03256050749 	0.004178066509 	-2.488529763e-06
0.3813978397 	0.06496068252 	0.008323197611 	-5.027500202e-06
0.381574295 	0.09719892538 	0.01245101959 	-7.427654564e-06
0.3817507564 	0.1292731305 	0.01655717131 	-9.732967244e-06
0.3819272234 	0.1611779441 	0.02063997054 	-1.195304704e-05
0.3821036954 	0.1929030596 	0.02469818917 	-1.408745727e-05
0.3822801719 	0.2244309379 	0.02872969382 	-1.613508761e-05
0.3824566525 	0.2557343065 	0.03273100218 	-1.809394325e-05
0.3826331365 	0.2867740974 	0.03669710071 	-1.996112379e-05
0.3828096235 	0.317498562 	0.04062136506 	-2.1732959e-05
0.382986113 	0.3478442343 	0.04449569419 	-2.34053497e-05
0.3831626043 	0.3777390927 	0.04831091607 	-2.497426513e-05
0.3833390971 	0.4071077037 	0.05205739956 	-2.643623101e-05
0.3835155909 	0.4358774943 	0.05572574383 	-2.778879807e-05
0.383692085 	0.4639848507 	0.05930801756 	-2.903281829e-05
0.3838685789 	0.4913956977 	0.06280046754 	-3.017599244e-05
0.3840450723 	0.5181281989 	0.06620506717 	-3.122727824e-05
0.3842215645 	0.5442206281 	0.06952612001 	-3.218829507e-05
0.384398055 	0.5696864293 	0.07276584264 	-3.305728524e-05
0.3845745433 	0.594523842 	0.07592436207 	-3.383509239e-05
0.384751029 	0.6187336313 	0.07900166186 	-3.452415194e-05
0.3849275114 	0.6423191106 	0.08199817517 	-3.512687421e-05
0.3851039901 	0.6652856685 	0.08491464392 	-3.564557992e-05
0.3852804646 	0.6876402382 	0.08775200288 	-3.608252134e-05
0.3854569344 	0.7093907414 	0.09051130607 	-3.643984586e-05
0.385633399 	0.730545537 	0.09319366107 	-3.671955671e-05
0.3858098578 	0.7511129166 	0.09580016298 	-3.692350072e-05
0.3859863103 	0.7711006926 	0.09833181613 	-3.705338019e-05
0.3861627561 	0.7905158395 	0.1007894675 	-3.711079126e-05
0.3863391946 	0.8119343082 	0.1034992722 	-3.720837373e-05
0.3866133237 	0.8376629926 	0.1067513175 	-3.69447993e-05
0.3868925839 	0.8649814838 	0.1102012748 	-3.661952721e-05
0.3871770685 	0.8914079673 	0.1135345506 	-3.612730474e-05
0.3874668729 	0.9168979629 	0.1167454132 	-3.547023179e-05
0.3877620936 	0.9414121467 	0.1198287526 	-3.465240801e-05
0.3880628288 	0.9649186888 	0.1227803682 	-3.367959799e-05
0.3883691783 	0.9873957611 	0.1255973282 	-3.255885675e-05
0.3886812435 	1.00884443 	0.1282796828 	-3.129885543e-05
0.3889991275 	1.029362373 	0.1308397924 	-2.991333622e-05
0.3893229347 	1.049146858 	0.1333025505 	-2.841584297e-05
0.3896527714 	1.068346143 	0.1356866715 	-2.681068462e-05
0.3899887454 	1.087006432 	0.1379979859 	-2.509841189e-05
0.3903309662 	1.105135058 	0.1402373143 	-2.328119842e-05
0.3906795449 	1.122732404 	0.1424045827 	-2.136157329e-05
0.3910345942 	1.139796598 	0.1444994178 	-1.93414127e-05
0.3913962286 	1.156320028 	0.1465206461 	-1.722163356e-05
0.391764564 	1.172283316 	0.148465523 	-1.500417769e-05
0.3921397182 	1.18765658 	0.1503299072 	-1.269415812e-05
0.3925218105 	1.202408032 	0.1521093542 	-1.02993684e-05
0.3929109619 	1.216509763 	0.1537998948 	-7.828589157e-06
0.3933072949 	1.229938305 	0.1553981429 	-5.290792277e-06
0.3937109339 	1.242673382 	0.1569011245 	-2.695124066e-06
0.3941220045 	1.254696371 	0.1583060353 	-5.109670599e-08
0.394129973 	1.254911376 	0.158330868 	9.955741353e-07
0.3945400737 	1.265995519 	0.1596116314 	-2.586683389e-06
0.3949668698 	1.276618128 	0.1608219427 	-5.26230863e-06
0.3954119652 	1.286574852 	0.1619366918 	-8.043578602e-06
0.395865298 	1.295756436 	0.1629420963 	-1.083796116e-05
0.3963270188 	1.304086186 	0.1638285245 	-1.363351716e-05
0.3967972809 	1.311563047 	0.1645953026 	-1.642426086e-05
0.3972762401 	1.318225056 	0.1652485321 	-1.921960692e-05
0.3977640554 	1.324175903 	0.1658017955 	-2.203362894e-05
0.3982608883 	1.329535331 	0.1662691529 	-2.486754903e-05
0.3987669034 	1.334365445 	0.1666594918 	-2.771319094e-05
0.399282268 	1.338693549 	0.1669771298 	-3.056247478e-05
0.3998071528 	1.3425491 	0.167225404 	-3.341503137e-05
0.4003417311 	1.345963791 	0.1674083884 	-3.627401147e-05
0.4008861797 	1.348970153 	0.1675303832 	-3.91413503e-05
0.4014406782 	1.351600093 	0.1675955231 	-4.201779236e-05
0.4020054097 	1.353884205 	0.1676078087 	-4.490572969e-05
0.4025805604 	1.355853773 	0.1675715854 	-4.781244748e-05
0.4031663199 	1.357544303 	0.167491779 	-5.074719611e-05
0.4037628812 	1.358994617 	0.1673735606 	-5.371711083e-05
0.4043704407 	1.360241629 	0.167221884 	-5.672614941e-05
0.4049891984 	1.36131695 	0.1670411119 	-5.977459207e-05
0.4056193577 	1.362246768 	0.166834854 	-6.286096347e-05
0.4062611258 	1.363052707 	0.1666060576 	-6.598396377e-05
0.4069147136 	1.363752628 	0.1663571403 	-6.914241362e-05
0.4075803356 	1.364361309 	0.1660900582 	-7.233513645e-05
0.4082582104 	1.364892376 	0.1658056877 	-6.88676244e-05
0.4089563963 	1.365358171 	0.1655034002 	-6.504830566e-05
0.4096771504 	1.365765821 	0.1651837697 	-6.114196129e-05
0.4104111267 	1.366119047 	0.1648495722 	-5.721310773e-05
0.411158564 	1.366422819 	0.1645026926 	-5.326135263e-05
0.411919705 	1.3666825 	0.1641438274 	-4.928579531e-05
0.4126947969 	1.366902594 	0.1637735437 	-4.528587362e-05
0.4134840914 	1.367086893 	0.163392312 	-4.126130378e-05
0.4142878445 	1.367238606 	0.1630005228 	-3.721203326e-05
0.4151063168 	1.367360449 	0.1625985052 	-3.313820356e-05
0.4159397736 	1.367454733 	0.1621865337 	-2.904012986e-05
0.4167884849 	1.367529071 	0.1617122736 	-2.490649276e-05
0.4180905889 	1.367582772 	0.1611147803 	-1.869283824e-05
0.419406252 	1.367593172 	0.1604545521 	-1.25210784e-05
0.4207356172 	1.367560496 	0.159785169 	-6.403524434e-06
0.4220788289 	1.367488829 	0.1591040136 	-3.407422569e-07
0.4221548793 	1.367482903 	0.1590657631 	-2.580895763e-06
0.4234639132 	1.367380314 	0.1584082976 	-5.759860608e-06
0.4248663094 	1.367238419 	0.1577006357 	-1.180897517e-05
0.4262832195 	1.367066678 	0.1569847954 	-1.778960365e-05
0.4277147966 	1.366867337 	0.1562626769 	-2.371021987e-05
0.4291611958 	1.366638257 	0.1555353499 	-2.956758004e-05
0.4306225742 	1.3663707 	0.1547991423 	-3.531756639e-05
0.4320990907 	1.366056312 	0.1540511615 	-4.096956601e-05
0.4335909064 	1.365693449 	0.1532926415 	-4.655656889e-05
0.4350981844 	1.365282924 	0.1525221583 	-5.206055034e-05
0.4366434922 	1.364825017 	0.1517351582 	-5.75830518e-05
0.4382166345 	1.364322852 	0.1509332348 	-5.998083363e-05
0.4398059559 	1.363782373 	0.1501214829 	-5.362014829e-05
0.4414116291 	1.363208427 	0.1493021146 	-4.735560207e-05
0.4430338293 	1.362604801 	0.1484757732 	-4.118624312e-05
0.4446727339 	1.361975042 	0.147643048 	-3.511106329e-05
0.4463285227 	1.361322414 	0.1468044363 	-2.912888387e-05
0.4480013782 	1.360648122 	0.1459585533 	-2.323798384e-05
0.4497078613 	1.359951043 	0.1451013937 	-1.736481479e-05
0.4514512468 	1.359232806 	0.1442328178 	-1.15038926e-05
0.4532124669 	1.358498601 	0.1433577748 	-5.743711551e-06
0.454991715 	1.35775197 	0.1424789903 	-8.415666877e-08
0.4550186889 	1.357740598 	0.1424657404 	-8.631360716e-07
0.4567876948 	1.356993158 	0.141597527 	-5.418518311e-06
0.4586020882 	1.356223975 	0.1407126511 	-1.082238668e-05
0.4604351201 	1.355444672 	0.1398239677 	-1.612849551e-05
0.462291103 	1.354651778 	0.1389275676 	-2.135155342e-05
0.4641986841 	1.353842829 	0.1380197684 	-2.659241285e-05
0.4661257233 	1.353021573 	0.1371052482 	-3.172258963e-05
0.4680724357 	1.352191705 	0.1361880137 	-3.674330603e-05
0.4700390397 	1.351353321 	0.1352680996 	-4.165476589e-05
0.4720257568 	1.350506456 	0.1343454527 	-4.645722006e-05
0.4740328119 	1.349649264 	0.1334183302 	-5.11497591e-05
0.4760774571 	1.348777868 	0.1324825672 	-4.568485967e-05
0.478163013 	1.347891875 	0.1315377188 	-4.01587307e-05
0.4802697826 	1.34699499 	0.1305882234 	-3.475132431e-05
0.4823980057 	1.346089333 	0.1296364036 	-2.946337126e-05
0.4845479263 	1.345174852 	0.1286822029 	-2.42942066e-05
0.4867197918 	1.34424995 	0.1277242056 	-1.924273751e-05
0.488928055 	1.343310686 	0.126758498 	-1.426581254e-05
0.4911816255 	1.342356099 	0.1257839834 	-9.346180695e-06
0.4934580691 	1.341389837 	0.1248049256 	-4.554946792e-06
0.4957035467 	1.340437253 	0.1238468998 	-1.488631437e-06
0.4957576181 	1.340414277 	0.1238238445 	-1.0764914e-07
0.4980792332 	1.339428572 	0.1228411441 	-4.607718575e-06
0.5004245514 	1.338430386 	0.1218536274 	-8.98426952e-06
0.5028227957 	1.33741596 	0.1208572307 	-1.330866819e-05
0.5052529341 	1.336387277 	0.1198543272 	-1.751846953e-05
0.5077077682 	1.335348111 	0.1188488528 	-2.159597873e-05
0.5101875913 	1.334299252 	0.1178415428 	-2.554305495e-05
0.5126927018 	1.333238303 	0.1168304447 	-2.936062508e-05
0.5152453314 	1.332161552 	0.1158118882 	-3.309537546e-05
0.5178375627 	1.331069692 	0.1147867178 	-3.672144472e-05
0.5204561288 	1.329966324 	0.1137586562 	-4.021102555e-05
0.5231013502 	1.328852882 	0.1127290238 	-3.720954705e-05
0.5257735529 	1.327726423 	0.1116955209 	-3.301026531e-05
0.5285003312 	1.326583384 	0.1106545755 	-2.88875103e-05
0.5312618722 	1.325425633 	0.109608258 	-2.488973626e-05
0.5340515049 	1.324256679 	0.1085599752 	-2.103058775e-05
0.53686958 	1.323076267 	0.1075096332 	-1.730729528e-05
0.5397256397 	1.321880909 	0.1064543374 	-1.370064026e-05
0.5426344385 	1.320669014 	0.1053925255 	-1.01909128e-05
0.5455728418 	1.319443759 	0.104327439 	-6.820732098e-06
0.5485412272 	1.318207435 	0.1032611687 	-3.587175857e-06
0.5515410631 	1.31695673 	0.1021912832 	-4.85114986e-07
0.5520281168 	1.316754932 	0.1020198922 	-1.093764009e-05
0.5546006518 	1.315687988 	0.1011149471 	-2.512907704e-06
0.5576913108 	1.314404622 	0.1000350099 	-5.371332794e-06
0.5608136116 	1.313109663 	0.09895408703 	-8.096599188e-06
0.5639687067 	1.311799999 	0.0978699888 	-1.069317117e-05
0.567184494 	1.310472625 	0.09677992735 	-1.319397692e-05
0.5704332106 	1.309130246 	0.09568661075 	-1.556101176e-05
0.5737152938 	1.307774994 	0.09459209735 	-1.779896713e-05
0.5770372296 	1.306403937 	0.09349425923 	-1.991792303e-05
0.5804142413 	1.305015278 	0.09239157169 	-2.193045934e-05
0.5838259791 	1.303611504 	0.09128645857 	-2.381520893e-05
0.5872729134 	1.302192988 	0.09017965619 	-2.557713401e-05
0.5907705878 	1.30075692 	0.08906898695 	-2.723227938e-05
0.5943140224 	1.299303507 	0.08795483045 	-2.877223555e-05
0.5978940924 	1.297834602 	0.08683908581 	-2.650328476e-05
0.6015149511 	1.296348588 	0.08572088274 	-2.424987332e-05
0.6051922863 	1.294843475 	0.08459871534 	-2.20989902e-05
0.6089077541 	1.293321193 	0.08347451167 	-2.006702405e-05
0.612661888 	1.291781501 	0.08234864077 	-1.814873918e-05
0.6164727598 	1.290221821 	0.08121922536 	-1.632847721e-05
0.6203260974 	1.288643202 	0.08008745934 	-1.461898273e-05
0.6242196901 	1.287045955 	0.07895418775 	-1.301709195e-05
0.6281668391 	1.285427927 	0.07781801779 	-1.151083839e-05
0.6321607674 	1.283789291 	0.07667946221 	-1.010654264e-05
0.6361966073 	1.282130266 	0.07553934774 	-8.802528667e-06
0.6402856089 	1.280449064 	0.07439667426 	-7.58882838e-06
0.6444231319 	1.278745531 	0.07325176496 	-6.469443017e-06
0.6486042948 	1.277019594 	0.07210528964 	-5.442008336e-06
0.6528401147 	1.275269513 	0.07095637694 	-4.497868641e-06
0.6571245484 	1.273495169 	0.06980547609 	-3.640545046e-06
0.6614544254 	1.27169606 	0.06865301336 	-2.86597234e-06
0.6658416149 	1.269870262 	0.06749808814 	-2.167026322e-06
0.6702766106 	1.268017713 	0.06634136576 	-1.546751349e-06
0.6747608143 	1.26613754 	0.06518300391 	-9.988217101e-07
0.6793018053 	1.264233061 	0.06402535339 	-5.20128953e-07
0.6838407313 	1.262320208 	0.06287873238 	-1.143213116e-07
0.68533741 	1.26168513 	0.06250336326 	-2.228295994e-05
0.6883321244 	1.260414244 	0.06175231073 	-2.239241269e-07
0.6927764795 	1.258519667 	0.06064826062 	-4.985774267e-07
0.6971701987 	1.256636247 	0.05956625011 	-7.165486319e-07
0.7015195371 	1.254762941 	0.05850522598 	-8.853968262e-07
0.7058210368 	1.252899559 	0.05746480404 	-1.007456286e-06
0.7100738481 	1.251045671 	0.05644455914 	-1.08927279e-06
0.7142840845 	1.249200138 	0.05544345064 	-1.135672927e-06
0.7184469364 	1.247362948 	0.05446128173 	-1.148681611e-06
0.7225632872 	1.245533639 	0.05349760305 	-1.133776512e-06
0.7266374089 	1.243711179 	0.05255152684 	-1.093809115e-06
0.730665764 	1.241895484 	0.05162286631 	-1.030796601e-06
0.7346493111 	1.240086057 	0.05071117328 	-9.489869767e-07
0.7385913566 	1.238281978 	0.04981569961 	-8.502593932e-07
0.7424893035 	1.236483106 	0.04893625477 	-7.361936198e-07
0.74634377 	1.234688957 	0.04807244349 	-6.100551812e-07
0.7501578474 	1.232898648 	0.04722359451 	-4.733814508e-07
0.7539294053 	1.231111971 	0.04638949677 	-3.270548912e-07
0.7576589941 	1.229328522 	0.04556984992 	-1.735967296e-07
0.7613487646 	1.227547516 	0.04476407484 	-1.448842977e-08
0.7616645071 	1.22739359 	0.04469553373 	-3.817599968e-06
0.7649978035 	1.225768513 	0.04397187704 	-1.495995636e-07
0.7686063318 	1.223991232 	0.04319304541 	-3.171563261e-07
0.7721756267 	1.222215031 	0.04242711138 	-4.86738994e-07
0.7757060681 	1.220439401 	0.0416737299 	-6.584484478e-07
0.779197407 	1.21866404 	0.04093272215 	-8.311144847e-07
0.7826502185 	1.216888431 	0.0402037387 	-1.003411317e-06
0.7860658461 	1.215111953 	0.03948638835 	-1.175162569e-06
0.7894437099 	1.213334284 	0.03878047756 	-1.346077174e-06
0.7927842666 	1.211555054 	0.03808579056 	-1.515140891e-06
0.7960883722 	1.209773698 	0.03740197158 	-1.681637244e-06
0.7993563864 	1.207989756 	0.03672875443 	-1.845873785e-06
0.8025883531 	1.206202904 	0.0360659739 	-2.007273309e-06
0.8057846993 	1.204412712 	0.03541338219 	-2.165153522e-06
0.8089462876 	1.20261866 	0.03477067947 	-2.319293875e-06
0.812073146 	1.200820366 	0.03413766692 	-2.469945442e-06
0.8151655736 	1.199017506 	0.03351418819 	-2.616624861e-06
0.8182239713 	1.197209643 	0.03290000662 	-2.758882343e-06
0.8212490869 	1.195396295 	0.03229487073 	-2.896745546e-06
0.8242409391 	1.193577104 	0.03169861409 	-3.030402012e-06
0.8271998887 	1.191751737 	0.0311110881 	-3.159527342e-06
0.8301263136 	1.189919766 	0.03053208731 	-3.283835658e-06
0.8330208137 	1.188080733 	0.02996139653 	-3.403388562e-06
0.835883524 	1.186234255 	0.02939886236 	-3.518423358e-06
0.8387147803 	1.18437997 	0.02884434826 	-3.628745281e-06
0.8415149398 	1.182517453 	0.02829768402 	-3.734183944e-06
0.8442844673 	1.180646237 	0.02775868238 	-3.83472978e-06
0.8470236332 	1.178765882 	0.0272271941 	-3.930696955e-06
0.8497327213 	1.176875967 	0.02670309665 	-4.022009559e-06
0.8524120703 	1.174976041 	0.02618624898 	-4.108577414e-06
0.8550620396 	1.173065597 	0.02567649198 	-4.19034041e-06
0.8576830073 	1.171144105 	0.02517367823 	-4.267559752e-06
0.8602752069 	1.169211054 	0.02467769403 	-4.340328386e-06
0.8628389602 	1.167265911 	0.02418841859 	-4.4086105e-06
0.8653745848 	1.165308092 	0.02370572509 	-4.47238418e-06
0.8678824306 	1.16333696 	0.02322947531 	-4.531693549e-06
0.8703627885 	1.161351854 	0.02275955031 	-4.58680203e-06
0.8728159327 	1.159352094 	0.0222958501 	-4.637747252e-06
0.8752421656 	1.157336953 	0.02183826281 	-4.684538446e-06
0.8776417855 	1.15530564 	0.02138667813 	-4.727194672e-06
0.8800151111 	1.153257296 	0.02094097693 	-4.765793828e-06
0.8823624151 	1.151191009 	0.02050105621 	-4.800559739e-06
0.8846839699 	1.14910581 	0.0200668258 	-4.831542854e-06
0.8869800602 	1.147000654 	0.0196381852 	-4.858778368e-06
0.889250967 	1.144874402 	0.01921503892 	-4.882308564e-06
0.8914969771 	1.142725804 	0.01879728327 	-4.902195357e-06
0.8937183629 	1.140553496 	0.01838482341 	-4.918630564e-06
0.8959153816 	1.138355991 	0.01797757765 	-4.931695576e-06
0.8980883014 	1.136131653 	0.01757545614 	-4.94143981e-06
0.9002373876 	1.133878662 	0.01717837157 	-4.947916634e-06
0.9023629021 	1.131594982 	0.01678623566 	-4.951181867e-06
0.9044651126 	1.129278322 	0.01639895603 	-4.951346771e-06
0.9065442628 	1.126926113 	0.0160164511 	-4.766663832e-06
0.9086006046 	1.124535461 	0.01563864057 	-4.586162113e-06
0.9106343886 	1.122103096 	0.01526543686 	-4.411103578e-06
0.9126458621 	1.119625324 	0.01489675545 	-4.24136775e-06
0.9146352699 	1.11709798 	0.01453250695 	-4.076832516e-06
0.9166028579 	1.114516387 	0.0141725981 	-3.917326983e-06
0.9185488579 	1.111875331 	0.01381694197 	-3.762687718e-06
0.9204735065 	1.109169045 	0.01346544808 	-3.612798327e-06
0.9223770377 	1.106391199 	0.01311801886 	-3.467540539e-06
0.9242596827 	1.10353492 	0.01277455664 	-3.326796739e-06
0.9261216705 	1.100592826 	0.012434961 	-3.190449415e-06
0.9279632281 	1.097557091 	0.01209912375 	-3.058364632e-06
0.9297845769 	1.094419533 	0.01176694004 	-2.930384281e-06
0.9315859373 	1.091171728 	0.01143830622 	-2.806395495e-06
0.9333675279 	1.08780513 	0.01111311152 	-2.686288439e-06
0.9351295652 	1.084311206 	0.01079124551 	-2.569955945e-06
0.9368722632 	1.080681565 	0.01047259929 	-2.457293982e-06
0.9385958333 	1.076908089 	0.01015706196 	-2.348200845e-06
0.9403004852 	1.072983038 	0.009844521028 	-2.242560672e-06
0.9419864243 	1.068899133 	0.00953487052 	-2.140258042e-06
0.9436538552 	1.064649606 	0.009228006211 	-2.041202678e-06
0.9453029805 	1.06022821 	0.008923822358 	-1.945305994e-06
0.9469340003 	1.055629192 	0.008622216993 	-1.852481833e-06
0.9485471127 	1.050847221 	0.008323092356 	-1.762646078e-06
0.9501425136 	1.045877287 	0.008026355103 	-1.675716135e-06
0.9517203967 	1.040714574 	0.007731913434 	-1.591605858e-06
0.9532809531 	1.035354311 	0.007439680083 	-1.510219103e-06
0.954824372 	1.029791662 	0.007149569686 	-1.43147681e-06
0.9563508411 	1.024518333 	0.006885789016 	-1.358401626e-06
0.9573452296 	1.020115377 	0.00667340965 	-1.306593711e-06
0.9583213075 	1.016158261 	0.006488122593 	-1.259459092e-06
0.9592794114 	1.012153167 	0.006305739185 	-1.213854977e-06
0.9602198716 	1.008100508 	0.006126224709 	-1.169725674e-06
0.9611430126 	1.004000519 	0.005949539075 	-1.127016829e-06
0.9620491527 	0.9998531878 	0.005775643106 	-1.08567586e-06
0.9629386046 	0.9956582034 	0.005604500945 	-1.045651858e-06
0.9638116751 	0.9914149209 	0.005436080353 	-1.006893231e-06
0.9646686653 	0.9871223283 	0.005270353113 	-9.693513004e-07
0.9655098709 	0.9827790198 	0.005107293923 	-9.329806136e-07
0.9663355822 	0.9783831692 	0.004946880475 	-8.977372597e-07
0.9671460842 	0.9739325053 	0.004789093873 	-8.635789106e-07
0.9679416566 	0.9694242882 	0.004633918523 	-8.304647905e-07
0.968722574 	0.9648552864 	0.004481342076 	-7.983556697e-07
0.969489106 	0.9602217562 	0.004331355402 	-7.67213878e-07
0.9702415172 	0.9555194212 	0.004183952542 	-7.370033275e-07
0.9709800674 	0.9507434554 	0.004039130641 	-7.076895445e-07
0.9717050115 	0.9458884675 	0.003896889853 	-6.792397061e-07
0.9724166 	0.9409484888 	0.003757233216 	-6.516226807e-07
0.9731150785 	0.9359169637 	0.003620166499 	-6.248090671e-07
0.9738006883 	0.9307867447 	0.003485698062 	-5.987712324e-07
0.9744736661 	0.9255500898 	0.003353838649 	-5.734833394e-07
0.9751342444 	0.9201986658 	0.003224600809 	-5.489212797e-07
0.9757826513 	0.9147235543 	0.003097999035 	-5.250621045e-07
0.9764191108 	0.909115265 	0.002974049568 	-5.018853236e-07
0.9770438429 	0.9033637525 	0.002852769551 	-4.793724635e-07
0.9776570633 	0.8974584371 	0.002734176863 	-4.575068421e-07
0.978258984 	0.8913882312 	0.002618289776 	-4.362734848e-07
0.9788498128 	0.8851415697 	0.002505126515 	-4.156590412e-07
0.979429754 	0.8787064472 	0.00239470483 	-3.956517067e-07
0.979999008 	0.8720704589 	0.002287041563 	-3.762411155e-07
0.9805577716 	0.8652208462 	0.002182152205 	-3.574182236e-07
0.9811062378 	0.8581445477 	0.002080050459 	-3.391751862e-07
0.9816445962 	0.8508282545 	0.001980747795 	-3.215052362e-07
0.9821730329 	0.8432584733 	0.00188425302 	-3.044025692e-07
0.9826917307 	0.8354215948 	0.001790571846 	-2.878622393e-07
0.9832008687 	0.8273039718 	0.001699706478 	-2.718800729e-07
0.983700623 	0.8188920044 	0.001611655203 	-2.564526004e-07
0.9841911664 	0.8101722345 	0.001526412014 	-2.415769923e-07
0.9846726686 	0.8011314477 	0.001443966264 	-2.272509614e-07
0.9851452959 	0.7917567804 	0.001364302417 	-2.134726821e-07
0.9856092119 	0.7820358229 	0.001287399591 	-2.002411196e-07
0.9860645769 	0.7719566792 	0.001213230217 	-1.875565233e-07
0.9865115485 	0.7615078266 	0.001141759261 	-1.75415698e-07
0.9869502811 	0.7506770371 	0.001072953358 	-1.637949648e-07
0.9873809266 	0.7394458404 	0.001006770143 	-1.526873857e-07
0.987803634 	0.7277895362 	0.0009431507333 	-1.420905925e-07
0.9882185493 	0.7156882914 	0.000882067649 	-1.319909343e-07
0.9886258161 	0.7031297461 	0.0008235112666 	-1.223860236e-07
0.9890255754 	0.6901038434 	0.000767451531 	-1.132645671e-07
0.9894179654 	0.6766012863 	0.0007138523761 	-1.04611689e-07
0.9898031218 	0.6626132965 	0.0006626743964 	-9.641406998e-08
0.9901811779 	0.6481316713 	0.0006138742202 	-8.865934935e-08
0.9905522645 	0.6331489244 	0.000567404827 	-8.133534483e-08
0.9909165101 	0.6176584734 	0.0005232162514 	-7.442981228e-08
0.9912740405 	0.6016548712 	0.0004812561215 	-6.793036619e-08
0.9916249796 	0.5851340773 	0.0004414710829 	-6.182441826e-08
0.9919694487 	0.5680937569 	0.0004038117413 	-5.609915659e-08
0.9923075672 	0.5505335395 	0.0003682305391 	-5.074175222e-08
0.9926394519 	0.5340181314 	0.0003374281554 	-4.608144358e-08
0.9928530538 	0.5202741314 	0.00031359387 	-4.263770813e-08
0.9930666574 	0.5078080912 	0.0002932717749 	-3.966131344e-08
0.9932802626 	0.4949626306 	0.0002735475525 	-3.679231969e-08
0.9934938694 	0.4817290145 	0.0002544237307 	-3.40313542e-08
0.9937074779 	0.4680989999 	0.0002359077551 	-3.137886518e-08
0.993921088 	0.4540649999 	0.0002180110073 	-2.883496331e-08
0.9941346997 	0.4396202313 	0.0002007476017 	-2.640010973e-08
0.9943483131 	0.4247588698 	0.0001841241582 	-2.407832982e-08
0.9945619281 	0.4094762058 	0.0001681011561 	-2.187699577e-08
0.9947755447 	0.3937686986 	0.0001526544353 	-1.975187733e-08
0.994989163 	0.3776309705 	0.0001381056354 	-1.773025471e-08
0.995202783 	0.3610433951 	0.0001244305404 	-1.58805113e-08
0.9954164045 	0.3439806833 	0.0001111175892 	-1.412313023e-08
0.9956300277 	0.3264417997 	9.835584174e-05 	-1.243895799e-08
0.9958436526 	0.3084467488 	8.643371034e-05 	-1.0874593e-08
0.996057279 	0.2900207589 	7.525185304e-05 	-9.420092032e-09
0.9962709071 	0.2711926555 	6.480388635e-05 	-8.072214475e-09
0.9964845369 	0.2519928815 	5.511500233e-05 	-6.831404895e-09
0.9966981683 	0.2324514146 	4.620578853e-05 	-5.698177122e-09
0.9969118013 	0.2125958965 	3.808794558e-05 	-4.672424644e-09
0.9971254359 	0.1924502352 	3.076614761e-05 	-3.753493895e-09
0.9973390722 	0.1720338209 	2.423958137e-05 	-2.940224772e-09
0.9975527102 	0.1513613592 	1.850332817e-05 	-2.230998402e-09
0.9977663498 	0.1304432155 	1.354978808e-05 	-1.623832254e-09
0.997979991 	0.1092861019 	9.375675837e-06 	-1.116729238e-09
0.9981936338 	0.08789392703 	6.001497339e-06 	-7.085518187e-10
0.9984072783 	0.06626865775 	3.442628631e-06 	-3.979143351e-10
0.9986209244 	0.04441107827 	1.451176105e-06 	-1.727904709e-10
0.9988345722 	0.02232138148 	-9.898853845e-07 	1.123837649e-11
0.9990482216 	0.00931344111 	-2.088847017e-06 	8.268507353e-11
0.9990482216 	0.00931344111 	-2.088847017e-06 	8.268507353e-11
