6.380870453e-34 	0.7366743403 	-3.009442491e-14 	-1.728344602e-21
0.0003225556171 	0.7366741111 	-1.365395625e-05 	6.174275673e-10
0.000645110925 	0.7366743326 	-2.546864653e-05 	1.134241629e-09
0.0009676659232 	0.7366756395 	-3.750113669e-05 	1.641229115e-09
0.001290220611 	0.736677707 	-4.979033901e-05 	2.141678803e-09
0.001612774989 	0.7366804803 	-6.21321704e-05 	2.625992115e-09
0.001935329056 	0.736683941 	-7.448323717e-05 	3.092132445e-09
0.002257882812 	0.7366880802 	-8.684259655e-05 	3.540034217e-09
0.002580436257 	0.7366928934 	-9.920874509e-05 	3.96961627e-09
0.00290298939 	0.7366983776 	-0.0001115792757 	4.380759851e-09
0.003225542212 	0.7367045314 	-0.000123952711 	4.773388999e-09
0.003548094721 	0.736711354 	-0.000136328246 	5.147459307e-09
0.003870646918 	0.7367188449 	-0.0001487053617 	5.502940891e-09
0.004193198803 	0.7367270043 	-0.0001610836905 	5.8398122e-09
0.004515750376 	0.7367358324 	-0.0001734629677 	6.158057729e-09
0.004838301637 	0.7367453299 	-0.0001858429997 	6.457666539e-09
0.005160852584 	0.7367554975 	-0.0001982236415 	6.738631224e-09
0.00548340322 	0.7367663362 	-0.0002106047818 	7.000947228e-09
0.005805953543 	0.7367778469 	-0.0002229863339 	7.244612419e-09
0.006128503553 	0.7367900308 	-0.000235368229 	7.469626787e-09
0.006451053251 	0.7368028892 	-0.0002477504114 	7.675992238e-09
0.006773602636 	0.7368164237 	-0.0002601328361 	7.863712446e-09
0.00709615171 	0.7368306355 	-0.0002725154655 	8.032792744e-09
0.007418700471 	0.7368455264 	-0.0002848982684 	8.183240037e-09
0.00774124892 	0.7368610981 	-0.0002972812181 	8.315062763e-09
0.008063797057 	0.7368773523 	-0.000309664292 	8.428270895e-09
0.008386344883 	0.7368942908 	-0.0003220474713 	8.522875842e-09
0.008708892398 	0.7369119158 	-0.000334430739 	8.598889711e-09
0.009031439602 	0.7369302291 	-0.0003468140707 	8.65632508e-09
0.009353986494 	0.7369492339 	-0.0003591974077 	8.695199059e-09
0.009676533077 	0.7369717696 	-0.0003733180008 	8.756396504e-09
0.01017769553 	0.7370013361 	-0.0003909601336 	8.713473619e-09
0.01068827656 	0.7370360664 	-0.0004105649891 	8.662167029e-09
0.01120845316 	0.7370735066 	-0.0004305377587 	8.562287597e-09
0.01173840565 	0.7371137813 	-0.0004508852488 	8.411218454e-09
0.01227831774 	0.7371570199 	-0.000471614202 	8.206241843e-09
0.01282837659 	0.7372033569 	-0.000492731485 	7.944545886e-09
0.01338877288 	0.7372529326 	-0.0005142440967 	7.623223312e-09
0.01395970086 	0.7373058932 	-0.0005361591504 	7.239269464e-09
0.01454135846 	0.7373623907 	-0.0005584838716 	6.789581415e-09
0.0151339473 	0.7374225835 	-0.0005812255986 	6.27095756e-09
0.0157376728 	0.7374866361 	-0.0006043917829 	5.680097494e-09
0.01635274424 	0.73755472 	-0.0006279899892 	5.01360226e-09
0.01697937483 	0.7376270131 	-0.0006520278943 	4.267975032e-09
0.01761778179 	0.7377037007 	-0.0006765132859 	3.439622263e-09
0.01826818643 	0.7377849753 	-0.0007014540635 	2.524855398e-09
0.0189308142 	0.737871037 	-0.0007268582527 	1.519893221e-09
0.0196058948 	0.7379620941 	-0.0007527339724 	4.208646584e-10
0.01985315174 	0.7379967228 	-0.0007622140254 	9.913186556e-10
0.02029366225 	0.7380583887 	-0.0007791043311 	7.820211217e-10
0.02099588292 	0.7381602607 	-0.0008060031285 	2.097200862e-09
0.0217124055 	0.7382679622 	-0.0008334351286 	3.527110513e-09
0.02244239383 	0.7383816514 	-0.0008613843227 	5.073181304e-09
0.02318610096 	0.7385015426 	-0.0008898491488 	6.740610649e-09
0.0239437847 	0.738627899 	-0.0009188384042 	8.534842712e-09
0.02471570767 	0.7387609942 	-0.0009483609588 	1.046152114e-08
0.02550213747 	0.7389011127 	-0.0009784257876 	1.252649526e-08
0.02630334669 	0.7390485498 	-0.00100904196 	1.473582605e-08
0.02711961307 	0.7392036126 	-0.001040218634 	1.709579223e-08
0.02795121954 	0.73936662 	-0.001071965053 	1.961289644e-08
0.02879845437 	0.7395379032 	-0.001104290541 	2.229387147e-08
0.02966161124 	0.7397178063 	-0.001137204502 	2.51456866e-08
0.03054098934 	0.739906687 	-0.001170716408 	2.817555392e-08
0.03143689349 	0.7401049166 	-0.001204835798 	3.139093476e-08
0.03234963424 	0.7403128811 	-0.001239572273 	3.479954609e-08
0.03327952795 	0.7405309813 	-0.001274935486 	3.840936701e-08
0.03422689696 	0.7407596335 	-0.001310935135 	4.222864523e-08
0.03519206965 	0.7409992705 	-0.001347580958 	4.626590338e-08
0.03617538056 	0.7412503414 	-0.00138488272 	5.052994547e-08
0.03717717053 	0.7415133132 	-0.001422850207 	5.502986326e-08
0.03819778679 	0.7417886706 	-0.001461493232 	5.977504357e-08
0.0392375831 	0.7420769174 	-0.001500821606 	6.477517384e-08
0.04029691988 	0.7423786487 	-0.001540854398 	7.004108144e-08
0.04137715132 	0.7426946925 	-0.001581637046 	7.559162146e-08
0.04248044704 	0.7430257812 	-0.001623196686 	8.144864053e-08
0.04360447683 	0.7433722566 	-0.001665508104 	8.760617084e-08
0.0447496303 	0.7437345326 	-0.001708555647 	9.407304357e-08
0.04591630441 	0.744113244 	-0.001752348921 	1.008607976e-07
0.04710490354 	0.7445090503 	-0.001796897298 	1.079812906e-07
0.04831583968 	0.7449226363 	-0.00184221007 	1.154467137e-07
0.04954953259 	0.7453547126 	-0.001888296389 	1.232695925e-07
0.05080640988 	0.7458060168 	-0.00193516524 	1.314627891e-07
0.05208690721 	0.7462773144 	-0.001982825416 	1.400395048e-07
0.05339146842 	0.7467693993 	-0.002031285498 	1.490132819e-07
0.0547205457 	0.7472830953 	-0.002080553823 	1.583980044e-07
0.05607459972 	0.7478192567 	-0.002130638454 	1.682078989e-07
0.05745409982 	0.7483787693 	-0.002181547184 	1.784575379e-07
0.05885952414 	0.7489625519 	-0.002233287552 	1.89161844e-07
0.06029135983 	0.7495716349 	-0.002285873259 	2.003371999e-07
0.06175082976 	0.7502075247 	-0.002339353284 	2.120114024e-07
0.06324165326 	0.7508716577 	-0.002393762862 	2.242256714e-07
0.06476049349 	0.751654946 	-0.002456172638 	2.376650303e-07
0.06709213948 	0.7526609628 	-0.002533744002 	2.570889645e-07
0.06944979626 	0.7538061834 	-0.0026188273 	2.617735116e-07
0.07183375399 	0.7550029994 	-0.002704406357 	2.57536264e-07
0.07424430605 	0.7562526167 	-0.002790460126 	2.524776718e-07
0.07668174913 	0.7575562553 	-0.002876965516 	2.465846148e-07
0.0791463832 	0.7589151483 	-0.002963897127 	2.398442839e-07
0.08163851157 	0.7603314701 	-0.003051284636 	2.322526891e-07
0.08416496108 	0.7618076805 	-0.003139165834 	2.237141812e-07
0.08672030433 	0.7633443036 	-0.003227456273 	2.142970957e-07
0.08930415545 	0.7649416237 	-0.003316063734 	2.0399278e-07
0.09191683248 	0.766600831 	-0.003404950393 	1.927914156e-07
0.09455865701 	0.768323227 	-0.003494082423 	1.806845823e-07
0.09722995422 	0.7701101214 	-0.003583424577 	1.676645079e-07
0.0999310529 	0.7719630441 	-0.003672949795 	1.537248973e-07
0.1026635218 	0.7738846111 	-0.003762677839 	1.388449915e-07
0.1054324181 	0.7758771842 	-0.003852608026 	1.229588727e-07
0.1082322065 	0.7779408872 	-0.003942634707 	1.061496122e-07
0.1110632316 	0.7800760581 	-0.004032667395 	8.841165945e-08
0.1139258419 	0.7822840502 	-0.004122660509 	6.974375512e-08
0.1168203898 	0.7845662224 	-0.004212566262 	5.014560508e-08
0.1197472317 	0.786924065 	-0.004302339473 	2.961799729e-08
0.12270736 	0.7893604017 	-0.004391980528 	8.153407838e-09
0.1238093945 	0.7902853211 	-0.004424860251 	2.948451467e-07
0.1257069328 	0.7918779575 	-0.004481483285 	1.443475526e-08
0.128739973 	0.7944767099 	-0.00457073132 	3.799798431e-08
0.1318068542 	0.797156818 	-0.004659618674 	6.246435809e-08
0.1349079538 	0.7999196678 	-0.004748084967 	8.782486728e-08
0.1380436537 	0.8027666493 	-0.004836066928 	1.140690762e-07
0.14121434 	0.8057000154 	-0.004923524037 	1.411864644e-07
0.1444241869 	0.8087229078 	-0.005010435262 	1.692190155e-07
0.1476729191 	0.8118366953 	-0.005096721222 	1.981216902e-07
0.1509579006 	0.8150412069 	-0.005182259609 	2.278255406e-07
0.1542795359 	0.8183371598 	-0.005266954664 	2.583081752e-07
0.1576382339 	0.8217259663 	-0.00535072706 	2.895466529e-07
0.1610344082 	0.8252098398 	-0.005433512833 	3.215182492e-07
0.1644716629 	0.8287920391 	-0.005515265803 	3.542427131e-07
0.1679506875 	0.8324742014 	-0.005595894892 	3.87669619e-07
0.1714685328 	0.8362560474 	-0.005675265373 	4.217084711e-07
0.1750256321 	0.8401381623 	-0.005753262722 	4.563208634e-07
0.1786224232 	0.8441219812 	-0.00582978761 	4.914685237e-07
0.182259349 	0.8482103447 	-0.005904761913 	5.271145625e-07
0.1859420126 	0.8524067495 	-0.005978109863 	5.632736808e-07
0.1896669197 	0.8567114933 	-0.006049690993 	5.998119313e-07
0.193433393 	0.8611242987 	-0.006119365402 	6.130794822e-07
0.1972418962 	0.8656463013 	-0.006187043481 	5.882519764e-07
0.2010928983 	0.8702798182 	-0.006252568994 	5.624164518e-07
0.2049898859 	0.8750278159 	-0.006315738419 	5.356922657e-07
0.2089333194 	0.8798906008 	-0.00637653543 	5.086629491e-07
0.2129207593 	0.8848665471 	-0.006434951408 	4.809396452e-07
0.2169526964 	0.8899558973 	-0.006490747027 	4.524019366e-07
0.2210296273 	0.8951610758 	-0.006543719646 	4.233847205e-07
0.2251548737 	0.9004855814 	-0.006593771007 	3.938322248e-07
0.2293289488 	0.9059310469 	-0.006640745376 	3.638064031e-07
0.2335496053 	0.9114971355 	-0.006684455933 	3.33410737e-07
0.2378173632 	0.9171844939 	-0.006724723943 	3.026993859e-07
0.2421327478 	0.9229958751 	-0.006761380717 	2.717289821e-07
0.2465003553 	0.9289347738 	-0.006794251943 	2.405146964e-07
0.250917877 	0.9350015182 	-0.006823136897 	2.092052619e-07
0.2553846982 	0.9411957176 	-0.006847829137 	1.778882403e-07
0.259901369 	0.9475187481 	-0.006868126161 	1.466356775e-07
0.2644698782 	0.9539735724 	-0.006883822199 	1.15506241e-07
0.2690927907 	0.960562253 	-0.006894698694 	8.459871521e-08
0.273767296 	0.9672839504 	-0.006900525911 	5.406069341e-08
0.2784939697 	0.97413852 	-0.006901072982 	2.398081239e-08
0.2823705472 	0.9798076092 	-0.006897042547 	1.006363778e-06
0.283273557 	0.9811282717 	-0.006896103924 	5.594759497e-09
0.2881107851 	0.9882557486 	-0.006885373466 	3.472298707e-08
0.2930019987 	0.9955195036 	-0.006868626434 	6.302609679e-08
0.2979478001 	1.002918334 	-0.0068456103 	9.039795797e-08
0.3029487983 	1.010453609 	-0.006816059395 	1.16728394e-07
0.3080095909 	1.018126999 	-0.006779696082 	1.41909769e-07
0.3131269609 	1.025936107 	-0.006736253914 	1.657480303e-07
0.3183014433 	1.033878639 	-0.006685465119 	1.881221371e-07
0.323534034 	1.041954447 	-0.006627044124 	2.089107048e-07
0.3288283649 	1.050163045 	-0.006560698796 	2.279704835e-07
0.3341817839 	1.058500092 	-0.006486162607 	2.451194515e-07
0.33959495 	1.066961534 	-0.006403167372 	2.602315942e-07
0.3450698045 	1.075544548 	-0.006311430687 	2.73182058e-07
0.3506078229 	1.084244352 	-0.006210686377 	2.838012202e-07
0.3562076492 	1.093053055 	-0.006100705158 	2.919456386e-07
0.3618699728 	1.101962962 	-0.005981260825 	2.975023158e-07
0.3675979394 	1.11096599 	-0.005852135168 	3.003570149e-07
0.3733903722 	1.12004959 	-0.005713178347 	3.00379372e-07
0.3792474522 	1.129198969 	-0.005564288907 	2.975116095e-07
0.3851709504 	1.138397973 	-0.005405405335 	2.917265764e-07
0.3911621639 	1.147626087 	-0.005236554682 	2.83001569e-07
0.3972202431 	1.156857016 	-0.00505789307 	2.713986676e-07
0.4033461698 	1.166060716 	-0.004869691263 	2.570671397e-07
0.4095425735 	1.175201424 	-0.00467238023 	2.402314713e-07
0.415808133 	1.184233379 	-0.004466659862 	2.212655561e-07
0.4221436196 	1.193102286 	-0.004253500352 	2.007412848e-07
0.4285517109 	1.201743356 	-0.0040341984 	1.79422679e-07
0.4350314771 	1.210076756 	-0.003810548182 	1.506338406e-07
0.4415835607 	1.218008966 	-0.003585234088 	1.252152161e-07
0.448210299 	1.225433533 	-0.003360959178 	1.045881534e-07
0.4549112516 	1.23222821 	-0.003140347128 	8.954413921e-08
0.4616869897 	1.238259753 	-0.002928430816 	8.27905252e-08
0.4685397235 	1.243406973 	-0.002730647047 	8.253096323e-08
0.4754691032 	1.247592342 	-0.002549870606 	8.691372836e-08
0.4824758482 	1.250802067 	-0.002388035329 	9.486845429e-08
0.48956208 	1.253088776 	-0.002245773607 	1.033779544e-07
0.4967273963 	1.254555723 	-0.002121730914 	1.102874021e-07
0.5038929853 	1.255335198 	-0.00201387998 	1.145204469e-07
0.5109803352 	1.255573675 	-0.001919523041 	1.160117383e-07
0.5179894793 	1.25540323 	-0.001835591273 	1.152380998e-07
0.524921636 	1.254924549 	-0.001759525082 	1.128272065e-07
0.531777805 	1.254210341 	-0.001689431576 	1.093261373e-07
0.538558318 	1.253311918 	-0.001623937098 	1.051445616e-07
0.5452643442 	1.252265111 	-0.001562067818 	1.005966948e-07
0.5518967112 	1.25109536 	-0.001503128331 	9.589639594e-08
0.5584558909 	1.249821155 	-0.001446600463 	9.116862613e-08
0.5649429425 	1.248456083 	-0.001392092039 	8.650214017e-08
0.5713586812 	1.247010259 	-0.001339301878 	8.196541217e-08
0.5777036221 	1.245491267 	-0.001287993991 	7.759261092e-08
0.583978692 	1.243904711 	-0.001237979304 	7.340130779e-08
0.5901847713 	1.242254671 	-0.00118910243 	6.940849378e-08
0.5963223658 	1.24054402 	-0.001141232709 	6.561721577e-08
0.6023922714 	1.238774539 	-0.001094256346 	6.202414284e-08
0.6083954574 	1.236947037 	-0.001048070474 	5.863001073e-08
0.6143323969 	1.235061476 	-0.001002578271 	5.54315389e-08
0.6202038208 	1.233116929 	-0.0009576833936 	5.241809464e-08
0.6260106295 	1.231111816 	-0.0009132954377 	4.95769417e-08
0.6317534071 	1.229044566 	-0.0008693362285 	4.689969268e-08
0.6374328113 	1.226913914 	-0.0008257420652 	4.43722979e-08
0.6430495922 	1.224718676 	-0.0007824660572 	4.197991033e-08
0.6486045051 	1.222457626 	-0.0007394682334 	3.971616347e-08
0.6540981175 	1.220129543 	-0.0006967109899 	3.757294503e-08
0.6595311055 	1.217733172 	-0.0006541616553 	3.554099621e-08
0.6649042208 	1.215267248 	-0.0006117914585 	3.361386995e-08
0.6702180788 	1.212730541 	-0.0005695749662 	3.17881495e-08
0.6754732958 	1.21012186 	-0.0005274895645 	3.005773866e-08
0.680670519 	1.207440039 	-0.0004855152561 	2.841722247e-08
0.6858104664 	1.204683948 	-0.0004436340573 	2.686354897e-08
0.6908936988 	1.20185254 	-0.000401830053 	2.539460718e-08
0.695920835 	1.198944832 	-0.0003600895162 	2.400665307e-08
0.7008924939 	1.195959889 	-0.0003183975251 	2.269856256e-08
0.7058093461 	1.192896841 	-0.0002767287725 	2.147416748e-08
0.7106719389 	1.189754912 	-0.0002350966943 	2.03080833e-08
0.7154808702 	1.186533269 	-0.0001935310701 	1.921817147e-08
0.720236732 	1.183225302 	-0.0001518936061 	1.823124688e-08
0.724940145 	1.179809012 	-0.0001099875374 	1.731400942e-08
0.729591658 	1.176252083 	-6.754861628e-05 	1.652101878e-08
0.7341918387 	1.172527471 	-2.423776227e-05 	1.587998203e-08
0.7387412535 	1.168617687 	2.013900485e-05 	1.534141645e-08
0.7432404775 	1.164511051 	6.570173584e-05 	1.488214897e-08
0.7476900611 	1.160199181 	0.0001125552912 	1.447641683e-08
0.7520905407 	1.155675475 	0.0001607699903 	1.410287888e-08
0.7564424581 	1.150934402 	0.000210376811 	1.374693559e-08
0.7607463499 	1.145971353 	0.0002613698374 	1.339764296e-08
0.7650027615 	1.140782791 	0.0003137103153 	1.304586724e-08
0.7692122007 	1.135366481 	0.0003673319339 	1.268316131e-08
0.773375186 	1.12972163 	0.0004221465448 	1.230212858e-08
0.7774922298 	1.123848906 	0.0004780501245 	1.189763258e-08
0.781563842 	1.117750344 	0.0005349283997 	1.146690827e-08
0.7855905287 	1.111429182 	0.0005926619556 	1.100930392e-08
0.7895727781 	1.104889693 	0.0006511298262 	1.052431287e-08
0.7935110805 	1.098137085 	0.0007102106919 	1.001057046e-08
0.797405921 	1.091177512 	0.0007697816939 	9.46509662e-09
0.8012577807 	1.084018247 	0.0008297143788 	8.882744857e-09
0.8050671369 	1.07666798 	0.0008898688696 	8.255916807e-09
0.8088344542 	1.069137163 	0.0009500872111 	7.572965956e-09
0.8125601965 	1.061438257 	0.0010101873 	6.816989704e-09
0.8162448224 	1.053585713 	0.001069959529 	5.965697154e-09
0.8198887859 	1.04559544 	0.0011291669 	4.998720003e-09
0.8234925387 	1.037483547 	0.001187564469 	3.910833854e-09
0.8270565217 	1.029264115 	0.001244930532 	2.714305152e-09
0.8305811736 	1.020946942 	0.001301078749 	1.431594123e-09
0.8340669283 	1.01253739 	0.001355860478 	8.195930719e-11
0.8375142152 	1.004038292 	0.00140915699 	-1.331282695e-09
0.8409234592 	0.9954517711 	0.001460858151 	-2.814294687e-09
0.844295081 	0.9867802106 	0.001510850171 	-4.370574382e-09
0.8476294945 	0.9780267339 	0.001559013127 	-5.998483985e-09
0.8509271103 	0.9691953878 	0.001605220616 	-7.693403814e-09
0.8541883344 	0.9602911562 	0.001649341566 	-9.450182671e-09
0.8574135685 	0.9513198771 	0.001691242849 	-1.126399553e-08
0.8606032099 	0.9422881092 	0.001730791642 	-1.313002565e-08
0.8637576519 	0.9332029829 	0.001767857459 	-1.504315049e-08
0.8668772823 	0.9240720562 	0.001802313763 	-1.699735354e-08
0.8699624852 	0.9149031831 	0.001834039205 	-1.898560293e-08
0.8730136406 	0.905704401 	0.001862918768 	-2.100003782e-08
0.8760311243 	0.8964838383 	0.001888844751 	-2.3032094e-08
0.8790153077 	0.8872496373 	0.00191171757 	-2.50726098e-08
0.8819665587 	0.8780098925 	0.001931446429 	-2.711205514e-08
0.8848852405 	0.8687726001 	0.001947949961 	-2.914077256e-08
0.8877717125 	0.8595456158 	0.001961156685 	-3.114850115e-08
0.8906263301 	0.8503366174 	0.001971005371 	-3.312472777e-08
0.8934494449 	0.8411530722 	0.001977445419 	-3.505879924e-08
0.8962414044 	0.8320022043 	0.001980437161 	-3.694000763e-08
0.8990025526 	0.8228909616 	0.00197995212 	-3.87576704e-08
0.9017332295 	0.8138259791 	0.001975973236 	-4.050136541e-08
0.9044337714 	0.8048135392 	0.00196849513 	-4.216112581e-08
0.9071045107 	0.7958595269 	0.001957524262 	-4.37269357e-08
0.9097457765 	0.7869693798 	0.001943079025 	-4.518913216e-08
0.9123578938 	0.7781480334 	0.001925189833 	-4.653852795e-08
0.9149411845 	0.7693998633 	0.001903899073 	-4.7766516e-08
0.9174959666 	0.7607286227 	0.001879260974 	-4.886517117e-08
0.9200225548 	0.7521373806 	0.001851341257 	-4.982734669e-08
0.9225212602 	0.7436284624 	0.001820216525 	-5.064703473e-08
0.9249923905 	0.7352033998 	0.001785973846 	-5.131900084e-08
0.92743625 	0.7268628984 	0.001748712402 	-5.183890192e-08
0.9298531397 	0.7186068378 	0.001708541872 	-5.220347777e-08
0.9322433571 	0.7111151121 	0.001669277912 	-5.239853779e-08
0.9338003482 	0.7051096016 	0.001635849284 	-5.245707755e-08
0.9353286156 	0.699875193 	0.001605345264 	-5.243581387e-08
0.936828689 	0.6947320675 	0.001574146329 	-5.234804974e-08
0.9383010886 	0.6896773562 	0.001542318576 	-5.219601362e-08
0.9397463251 	0.68470804 	0.001509928806 	-5.198210274e-08
0.9411648994 	0.6798209679 	0.001477043108 	-5.170890514e-08
0.9425573035 	0.6750128748 	0.001443725345 	-5.137899828e-08
0.9439240201 	0.6702803954 	0.001410037063 	-5.099492977e-08
0.9452655232 	0.6656200756 	0.001376037582 	-5.055923643e-08
0.9465822779 	0.6610283792 	0.001341784023 	-5.007442975e-08
0.9478747407 	0.6565016928 	0.001307331328 	-4.954298927e-08
0.9491433598 	0.6520363269 	0.0012727323 	-4.896736822e-08
0.950388575 	0.6476285146 	0.001238037656 	-4.835001155e-08
0.9516108182 	0.6432744082 	0.001203296078 	-4.769338137e-08
0.9528105132 	0.6389700733 	0.001168554267 	-4.69999775e-08
0.9539880758 	0.6347114812 	0.001133856995 	-4.627233472e-08
0.9551439144 	0.6304944992 	0.001099247149 	-4.551297529e-08
0.9562784298 	0.6263148799 	0.00106476579 	-4.472430246e-08
0.9573920154 	0.6221682473 	0.001030452208 	-4.390843973e-08
0.9584850572 	0.618050081 	0.0009963440096 	-4.306705345e-08
0.9595579343 	0.6139556977 	0.000962477235 	-4.220123535e-08
0.9606110187 	0.6098802269 	0.0009288865167 	-4.131156835e-08
0.9616446755 	0.605818581 	0.0008956052917 	-4.039838117e-08
0.9626592631 	0.6017654166 	0.0008626660911 	-3.946227938e-08
0.9636551333 	0.5977150831 	0.0008301009533 	-3.85048138e-08
0.9646326314 	0.5936615547 	0.0007979416495 	-3.752931657e-08
0.9655920964 	0.5895983362 	0.0007662188612 	-3.654131354e-08
0.9665338609 	0.5855183335 	0.000734962896 	-3.554232795e-08
0.9674582514 	0.581413671 	0.0007042217332 	-3.450545978e-08
0.9683655886 	0.5772754314 	0.0006740343371 	-3.344799605e-08
0.969256187 	0.5730948337 	0.0006444145568 	-3.23939508e-08
0.9701303553 	0.5688651782 	0.0006153896012 	-3.132753074e-08
0.9709883968 	0.5645812883 	0.0005869895693 	-3.025917861e-08
0.9718306089 	0.5602368455 	0.0005592321425 	-2.919942751e-08
0.9726572836 	0.555822727 	0.0005321140113 	-2.816089946e-08
0.9734687076 	0.5513282083 	0.0005056471001 	-2.712898125e-08
0.9742651622 	0.5467424982 	0.000479866099 	-2.608864926e-08
0.9750469236 	0.5420547931 	0.0004547896644 	-2.504962729e-08
0.9758142629 	0.5372541047 	0.0004304308561 	-2.401214187e-08
0.9765674461 	0.5323291582 	0.0004068020961 	-2.29773252e-08
0.9773067343 	0.5272683315 	0.0003839142212 	-2.19477517e-08
0.978032384 	0.5220596148 	0.0003617760214 	-2.092630825e-08
0.9787446467 	0.5166905801 	0.000340394259 	-1.991574916e-08
0.9794437694 	0.5111483529 	0.0003197736938 	-1.891860751e-08
0.9801299944 	0.5054195825 	0.0002999170759 	-1.793718261e-08
0.9808035598 	0.4994904097 	0.000280825152 	-1.697354787e-08
0.9814646991 	0.4933464297 	0.0002624966973 	-1.602957904e-08
0.9821136415 	0.4869726506 	0.0002449285711 	-1.51069813e-08
0.982750612 	0.4803534491 	0.000228115792 	-1.420730736e-08
0.9833758316 	0.4734725229 	0.0002120516293 	-1.333196678e-08
0.9839895169 	0.4663128436 	0.0001967277063 	-1.248222897e-08
0.9845918807 	0.4588566129 	0.000182134113 	-1.1659223e-08
0.985183132 	0.451085225 	0.0001682595348 	-1.086393639e-08
0.9857634758 	0.4429792425 	0.0001550913957 	-1.009721473e-08
0.9863331132 	0.4345183903 	0.0001426158929 	-9.359764525e-09
0.9868922417 	0.4256815754 	0.0001308177161 	-8.652159981e-09
0.9874410553 	0.416446935 	0.0001196806189 	-7.974833252e-09
0.9879797443 	0.406791892 	0.0001091932171 	-7.32800664e-09
0.9885084954 	0.3966931705 	9.935138771e-05 	-6.711746199e-09
0.9890274919 	0.3870474845 	9.087674011e-05 	-6.17504695e-09
0.9893615162 	0.37890574 	8.433660387e-05 	-5.75836263e-09
0.9896955405 	0.3714262422 	7.878255604e-05 	-5.401697607e-09
0.9900295649 	0.363621469 	7.342179903e-05 	-5.054069076e-09
0.9903635892 	0.3554740598 	6.82486018e-05 	-4.715888146e-09
0.9906976135 	0.3469660371 	6.326171919e-05 	-4.387488686e-09
0.9910316378 	0.3380790044 	5.846303083e-05 	-4.06922429e-09
0.9913656622 	0.3287943595 	5.385658904e-05 	-3.761732818e-09
0.9916996865 	0.3190935668 	4.944936268e-05 	-3.465310229e-09
0.9920337108 	0.3089584965 	4.52255576e-05 	-3.176026926e-09
0.9923677351 	0.2983717294 	4.108207581e-05 	-2.885523145e-09
0.9927017594 	0.2873158666 	3.71018264e-05 	-2.644296334e-09
0.9930357838 	0.2757620431 	3.366746024e-05 	-2.424906126e-09
0.9933698081 	0.2636548497 	3.054142294e-05 	-2.146126334e-09
0.9937038324 	0.2509372603 	2.721581365e-05 	-1.897140844e-09
0.9940378567 	0.2375915555 	2.397947475e-05 	-1.697781716e-09
0.9943718811 	0.2236364571 	2.104497724e-05 	-1.491114441e-09
0.9947059054 	0.2091133255 	1.82507079e-05 	-1.292747738e-09
0.9950399297 	0.1940856436 	1.557650124e-05 	-1.107537553e-09
0.995373954 	0.1786345112 	1.305754418e-05 	-9.358686608e-10
0.9957079784 	0.1628504332 	1.074243497e-05 	-7.778572988e-10
0.9960420027 	0.1468233491 	8.66942954e-06 	-6.336818807e-10
0.996376027 	0.1306336293 	6.849429974e-06 	-5.034534707e-10
0.9967100513 	0.1143462209 	5.267764374e-06 	-3.873852243e-10
0.9970440756 	0.09800869267 	3.901538589e-06 	-2.858558516e-10
0.9973781 	0.08165254505 	2.735581131e-06 	-1.992824783e-10
0.9977121243 	0.0652964529 	1.767020826e-06 	-1.279918828e-10
0.9980461486 	0.04895011171 	1.00192846e-06 	-7.225210438e-11
0.9983801729 	0.03261774659 	4.516656951e-07 	-3.247751311e-11
0.9987141973 	0.01630078522 	1.231602881e-07 	-8.839576223e-12
0.9990482216 	0.006873811692 	1.214809883e-08 	-8.676133838e-13
0.9990482216 	0.006873811692 	1.214809883e-08 	-8.676133838e-13
