0.1783438654 	4.163813563e-08 	-1.011711119e-10 	6.940325802e-14 	4.134119798e-08 	-2.477411227e-11 	7.880781354e-11
0.1786309848 	8.541788147e-07 	-9.557630631e-09 	8.920012592e-12 	8.319640963e-07 	-6.642317735e-10 	1.5859548e-09
0.1789181097 	5.725004467e-06 	-1.563851142e-07 	1.647420897e-10 	5.375643918e-06 	-4.797589009e-09 	1.024747139e-08
0.1792052371 	2.144274194e-05 	-1.076555424e-06 	1.221672929e-09 	1.905867629e-05 	-1.830453839e-08 	3.63311341e-08
0.1794923643 	5.76582136e-05 	-4.503280518e-06 	5.334351229e-09 	4.767246254e-05 	-4.801688364e-08 	9.087696348e-08
0.1797794886 	0.0001256539104 	-1.352080371e-05 	1.622277718e-08 	9.546708542e-05 	-9.872732345e-08 	1.819867985e-07
0.1800666071 	0.0002358638587 	-3.187741636e-05 	3.755564623e-08 	0.000163942242 	-1.707904805e-07 	3.125194787e-07
0.1803537171 	0.000393740664 	-6.234162245e-05 	6.989042592e-08 	0.0002513101218 	-2.590926463e-07 	4.790669403e-07
0.1806408159 	0.0005958632729 	-0.0001050839468 	1.089023815e-07 	0.0003526795977 	-3.536635615e-07 	6.723053354e-07
0.1809279006 	0.0008201605687 	-0.0001520601588 	1.259972331e-07 	0.0004660123063 	-4.660368859e-07 	8.883489772e-07
0.1812149686 	0.001044348372 	-0.0001956819949 	1.310634138e-07 	0.0005884489586 	-5.829831003e-07 	1.121747266e-06
0.181502017 	0.001263359159 	-0.0002370285774 	1.472119269e-07 	0.0007119024908 	-6.79206691e-07 	1.35708401e-06
0.1817890432 	0.00147342744 	-0.0002768926808 	1.586818695e-07 	0.0008303918513 	-7.611064199e-07 	1.582957664e-06
0.1820760443 	0.00166879407 	-0.0003142502251 	1.651818357e-07 	0.0009407154168 	-8.254796936e-07 	1.793265043e-06
0.1823630177 	0.001845363053 	-0.0003483943279 	1.671295715e-07 	0.001040615991 	-8.712460991e-07 	1.983703304e-06
0.1826499607 	0.002000669942 	-0.0003789315538 	1.656928239e-07 	0.00112876539 	-8.994722325e-07 	2.151740558e-06
0.1829368704 	0.00213372809 	-0.0004057589577 	1.627825248e-07 	0.001204683758 	-9.132350591e-07 	2.296462067e-06
0.1832237443 	0.002244809754 	-0.0004290297941 	1.610408035e-07 	0.001268621875 	-9.174205853e-07 	2.41834589e-06
0.1835105795 	0.0023351963 	-0.0004491165415 	1.638271965e-07 	0.001321430131 	-9.185084935e-07 	2.519013103e-06
0.1837973734 	0.002406918358 	-0.0004665760459 	1.752618022e-07 	0.001364430828 	-9.244002831e-07 	2.600984382e-06
0.1840841232 	0.002462498531 	-0.0004821228956 	2.004591699e-07 	0.001399308019 	-9.444450666e-07 	2.667470002e-06
0.1843708264 	0.002504702161 	-0.0004966161678 	2.45997076e-07 	0.001428027776 	-9.898842502e-07 	2.722217841e-06
0.1846574801 	0.002536300537 	-0.0005110305529 	3.193695167e-07 	0.001452772363 	-1.073813983e-06 	2.769387901e-06
0.1849440817 	0.002559832271 	-0.0005263636828 	4.255707841e-07 	0.00147585041 	-1.208900133e-06 	2.813381073e-06
0.1852306285 	0.002574335941 	-0.0005413655571 	4.839512506e-07 	0.001500889984 	-1.456634698e-06 	2.861113461e-06
0.1855171178 	0.002577389405 	-0.0005534156068 	3.506482581e-07 	0.00153135389 	-1.888342329e-06 	2.919186133e-06
0.185803547 	0.002561956085 	-0.0005559602902 	6.87165251e-08 	0.001571740789 	-2.435267156e-06 	2.996174787e-06
0.1860899134 	0.002531143215 	-0.0005493516135 	-1.633369552e-07 	0.00162128887 	-2.908764082e-06 	3.090627201e-06
0.1863762143 	0.002494092377 	-0.0005387136904 	-2.171959178e-07 	0.001676295247 	-3.187310644e-06 	3.195484644e-06
0.1866624471 	0.002453734356 	-0.0005258169369 	-1.753566879e-07 	0.001735841932 	-3.411055886e-06 	3.308997175e-06
0.1869486091 	0.002410894186 	-0.0005139303143 	-1.258792538e-07 	0.001806030639 	-3.660992374e-06 	3.442796359e-06
0.1873930922 	0.002357916196 	-0.0004997386923 	-4.568231794e-08 	0.001897891003 	-3.879320079e-06 	3.617907744e-06
0.1878457368 	0.002298424008 	-0.0004835767276 	5.274899433e-08 	0.002004515727 	-4.048343193e-06 	3.821164103e-06
0.1883066783 	0.00224104199 	-0.0004698263359 	1.541596622e-07 	0.002113700265 	-4.129564349e-06 	4.029300177e-06
0.1887760532 	0.002185659409 	-0.0004585600052 	2.501476468e-07 	0.002223407917 	-4.129680278e-06 	4.238433454e-06
0.1892539993 	0.002132080846 	-0.0004497667893 	3.361282966e-07 	0.002331851794 	-4.062036138e-06 	4.445157625e-06
0.1897406558 	0.002080093213 	-0.0004429658273 	3.989225559e-07 	0.002437343103 	-3.929267564e-06 	4.646253379e-06
0.1902361626 	0.002029312394 	-0.0004376722105 	4.289099997e-07 	0.002538813252 	-3.738570623e-06 	4.839683684e-06
0.1907406609 	0.001980530009 	-0.0004307933441 	3.31245371e-07 	0.002631711862 	-3.35652023e-06 	5.016774255e-06
0.1912542927 	0.001933857298 	-0.0004211455768 	1.314000065e-07 	0.002714568213 	-2.807673492e-06 	5.174721489e-06
0.191777201 	0.001891442369 	-0.0004044832596 	-4.703079721e-08 	0.002780201671 	-2.265122574e-06 	5.299837101e-06
0.1923095293 	0.001854039267 	-0.0003803164749 	-1.598987296e-07 	0.002827078901 	-1.793038085e-06 	5.389198132e-06
0.1928514221 	0.00182084383 	-0.0003522502265 	-1.722724224e-07 	0.002859621467 	-1.460451723e-06 	5.451233307e-06
0.1934030241 	0.001791598759 	-0.000322395364 	-1.293982293e-07 	0.002879942193 	-1.214585086e-06 	5.489970258e-06
0.1939644807 	0.001764520591 	-0.0002949137571 	-8.314425189e-08 	0.002894304031 	-9.841950366e-07 	5.517347913e-06
0.1945359374 	0.001739574988 	-0.000270230742 	-4.10222065e-08 	0.002903058254 	-7.732294821e-07 	5.534035895e-06
0.1951175399 	0.001716626112 	-0.0002486236826 	-7.974521775e-09 	0.002906699781 	-5.835959327e-07 	5.540977658e-06
0.195709434 	0.001695552164 	-0.0002300809111 	1.383623205e-08 	0.002905777798 	-4.156874251e-07 	5.539220102e-06
0.1963117652 	0.001676195465 	-0.0002145107832 	2.316154672e-08 	0.002900891827 	-2.684310831e-07 	5.529906083e-06
0.1969246789 	0.001658383158 	-0.0002017408499 	1.997134396e-08 	0.002892659289 	-1.397058119e-07 	5.514212577e-06
0.1975483196 	0.001641944024 	-0.0001915127258 	5.36678515e-09 	0.002881686575 	-2.67571972e-08 	5.493295535e-06
0.1977099383 	0.001638071663 	-0.0001894951533 	8.955877918e-08 	0.002878315975 	-2.233183511e-07 	5.486870234e-06
0.198177056 	0.001626754174 	-0.0001837264472 	9.285260881e-09 	0.002868311627 	-8.008267705e-08 	5.467799166e-06
0.198814728 	0.001612623624 	-0.0001778525187 	3.032653094e-08 	0.002853272068 	-1.769336237e-07 	5.439129588e-06
0.1994634536 	0.001599391827 	-0.000173467323 	5.945364327e-08 	0.002837123666 	-2.638248198e-07 	5.408346245e-06
0.2001233747 	0.001586917691 	-0.000170248401 	9.460775778e-08 	0.002820247878 	-3.432837046e-07 	5.376176304e-06
0.2007966969 	0.001574997288 	-0.0001679121066 	1.339524678e-07 	0.002802815024 	-4.176891807e-07 	5.342944438e-06
0.2015021159 	0.001563479216 	-0.0001662284229 	1.767455348e-07 	0.002784968329 	-4.911002123e-07 	5.308923677e-06
0.2022199664 	0.001552380431 	-0.0001650253652 	2.207428144e-07 	0.002767052936 	-5.624307075e-07 	5.274771959e-06
0.2029504546 	0.001541714841 	-0.0001641611027 	2.648939297e-07 	0.002749346108 	-6.328078186e-07 	5.241017823e-06
0.2036937895 	0.001531425227 	-0.0001635241523 	3.086781118e-07 	0.002731947602 	-7.027915829e-07 	5.207851435e-06
0.2044501833 	0.001521465303 	-0.0001630298972 	3.51917872e-07 	0.002714920518 	-7.726026483e-07 	5.17539308e-06
0.2052198512 	0.001511798885 	-0.000162621233 	3.946756138e-07 	0.002698299141 	-8.422252828e-07 	5.143708116e-06
0.2060030118 	0.001502397542 	-0.0001622611696 	4.371530604e-07 	0.00268209718 	-9.115047797e-07 	5.112822675e-06
0.2067998865 	0.001493238911 	-0.0001619268476 	4.796093877e-07 	0.002666314229 	-9.802267626e-07 	5.082735984e-06
0.2076107001 	0.001484305227 	-0.0001616052485 	5.223037416e-07 	0.002650940805 	-1.048173361e-06 	5.053429966e-06
0.2084356808 	0.00147558212 	-0.0001612898686 	5.654609596e-07 	0.002635962142 	-1.115156645e-06 	5.02487647e-06
0.2092750599 	0.001467057728 	-0.0001609782414 	6.092567738e-07 	0.0026213609 	-1.181032904e-06 	4.997042446e-06
0.2101290719 	0.001458722049 	-0.0001606702168 	5.696950779e-07 	0.002607119029 	-1.085427439e-06 	4.969893481e-06
0.210997955 	0.001450566506 	-0.0001603668246 	5.264418881e-07 	0.002593218972 	-9.856165856e-07 	4.943396109e-06
0.2118819506 	0.001442583656 	-0.0001600695607 	4.825627886e-07 	0.002579644409 	-8.875420449e-07 	4.917519218e-06
0.2127813036 	0.001434767006 	-0.000159779973 	4.380158752e-07 	0.002566380668 	-7.911845946e-07 	4.892234842e-06
0.2136962623 	0.001427110901 	-0.0001594994526 	3.927550051e-07 	0.002553414921 	-6.965358512e-07 	4.867518524e-06
0.2146270787 	0.001419610461 	-0.00015922914 	3.467364559e-07 	0.002540736224 	-6.035915372e-07 	4.843349404e-06
0.2155740083 	0.001412261533 	-0.0001589698591 	2.999209013e-07 	0.002528335493 	-5.123493296e-07 	4.819710164e-06
0.2165373102 	0.001405060619 	-0.0001587221812 	2.522734663e-07 	0.002516205427 	-4.228087308e-07 	4.796586886e-06
0.2175172471 	0.001398004852 	-0.000158486817 	2.037631335e-07 	0.002504340325 	-3.349714079e-07 	4.773968704e-06
0.2185140857 	0.001391092243 	-0.0001582642349 	1.543605713e-07 	0.002492735794 	-2.488420565e-07 	4.751847244e-06
0.219528096 	0.001384321597 	-0.0001580521544 	1.040365721e-07 	0.002481388975 	-1.644295957e-07 	4.730217052e-06
0.2205595522 	0.001377691546 	-0.0001578497698 	5.27671921e-08 	0.002470298656 	-8.174485222e-08 	4.709075822e-06
0.2216087322 	0.001371176721 	-0.0001576672573 	5.277177057e-10 	0.002459423827 	-8.010466736e-10 	4.688345376e-06
0.2216193344 	0.001371113628 	-0.0001576656069 	-1.263471816e-10 	0.002459318682 	-8.926954138e-09 	4.68814494e-06
0.2226804039 	0.001364742855 	-0.0001575753434 	4.968950962e-08 	0.002448567267 	-7.983824071e-08 	4.667649754e-06
0.2237888356 	0.001358384763 	-0.0001574853777 	1.017128469e-07 	0.002437854641 	-1.600638263e-07 	4.647228513e-06
0.2249161825 	0.001352157078 	-0.0001574075375 	1.547525117e-07 	0.002427371155 	-2.384460516e-07 	4.627244074e-06
0.2260627418 	0.001346085345 	-0.0001573456503 	2.088388387e-07 	0.002417166075 	-3.149748511e-07 	4.607790355e-06
0.2272288148 	0.001340167887 	-0.0001572953605 	2.639974361e-07 	0.002407242106 	-3.896394678e-07 	4.588872512e-06
0.2284147069 	0.001334404064 	-0.0001572546614 	3.202565318e-07 	0.002397600859 	-4.624280325e-07 	4.570493615e-06
0.2296207278 	0.001328793903 	-0.0001572325013 	3.776550147e-07 	0.002388241856 	-5.333196767e-07 	4.552652756e-06
0.2308471917 	0.001323344129 	-0.0001572208778 	4.361973891e-07 	0.002379161777 	-6.023017302e-07 	4.535343601e-06
0.2320944168 	0.001318058811 	-0.0001571544726 	4.958294832e-07 	0.002370367964 	-6.694291746e-07 	4.518580149e-06
0.233362726 	0.001312922366 	-0.0001570925218 	5.566777455e-07 	0.002361869941 	-7.346739275e-07 	4.502380556e-06
0.2346524466 	0.001307253047 	-0.0001572484169 	5.621458756e-07 	0.002352557102 	-7.235936315e-07 	4.484627696e-06
0.2366276474 	0.001300650641 	-0.0001572529898 	4.749509237e-07 	0.002341891196 	-5.907376098e-07 	4.464295514e-06
0.2386191471 	0.0012938688 	-0.0001572192489 	3.86645332e-07 	0.002330897081 	-4.641179827e-07 	4.443337676e-06
0.240627077 	0.001287522095 	-0.0001572083353 	2.971611898e-07 	0.002320667821 	-3.442133206e-07 	4.423837864e-06
0.2426515706 	0.001281516126 	-0.0001572667677 	2.064503527e-07 	0.002311118405 	-2.307014467e-07 	4.405634022e-06
0.2447475868 	0.001275804885 	-0.000157303317 	1.11965735e-07 	0.002302178644 	-1.206012769e-07 	4.388592353e-06
0.2468661807 	0.001270420046 	-0.0001573251133 	1.596123032e-08 	0.002293862607 	-1.656535079e-08 	4.372739675e-06
0.2472182194 	0.001269593315 	-0.0001573308822 	-6.440516906e-09 	0.002292599848 	-1.813643653e-07 	4.370332506e-06
0.2489867295 	0.001265440505 	-0.000157451942 	7.65208396e-08 	0.002286036092 	-8.275141342e-08 	4.357820162e-06
0.2511215216 	0.001260805882 	-0.0001575965548 	1.693474405e-07 	0.002278811592 	-1.767280828e-07 	4.344048258e-06
0.2532736824 	0.001256487283 	-0.0001577305436 	2.634790652e-07 	0.002272191291 	-2.65298613e-07 	4.331428124e-06
0.2554433585 	0.001252467772 	-0.0001578530715 	3.589248613e-07 	0.002266145815 	-3.486359151e-07 	4.319903765e-06
0.2576306994 	0.001248731157 	-0.0001579599172 	4.556819295e-07 	0.002260649161 	-4.269036669e-07 	4.309425616e-06
0.2598358573 	0.001245261352 	-0.000158044408 	5.537602368e-07 	0.002255678878 	-5.002569175e-07 	4.299950875e-06
0.2620589875 	0.001242029302 	-0.0001581274751 	5.179987558e-07 	0.002251186715 	-4.510892452e-07 	4.291387565e-06
0.2643412975 	0.001239003066 	-0.000158188509 	4.248190044e-07 	0.00224714641 	-3.563252542e-07 	4.28368562e-06
0.2666636301 	0.001236185556 	-0.0001582113533 	3.294405594e-07 	0.002243555241 	-2.659897619e-07 	4.276839854e-06
0.2690044075 	0.001233592909 	-0.0001582128618 	2.327817431e-07 	0.002240420321 	-1.808577391e-07 	4.270863825e-06
0.2713637933 	0.001231215786 	-0.0001581931479 	1.34843221e-07 	0.002237738703 	-1.007832606e-07 	4.265751916e-06
0.2737419551 	0.001229041888 	-0.0001581452677 	3.56442117e-08 	0.002235494207 	-2.561991194e-08 	4.261473282e-06
0.2745958917 	0.001228341919 	-0.0001581198471 	-1.310611797e-08 	0.002234842539 	-3.072270813e-07 	4.260231022e-06
0.2761284299 	0.001227119207 	-0.0001581372076 	6.143774243e-08 	0.002233539915 	-4.668367602e-08 	4.257747859e-06
0.2785282274 	0.001225417283 	-0.0001581288049 	1.57954123e-07 	0.002231917552 	-1.156320556e-07 	4.254655184e-06
0.2809474335 	0.001223892283 	-0.0001580947171 	2.557692709e-07 	0.002230677037 	-1.803339324e-07 	4.252290416e-06
0.2834156804 	0.001222525581 	-0.000158027926 	3.560683958e-07 	0.002229811772 	-2.416285242e-07 	4.250640982e-06
0.2859383954 	0.001221312788 	-0.0001579022044 	4.590087656e-07 	0.002229323062 	-2.995654822e-07 	4.249709364e-06
0.2884810233 	0.001220262729 	-0.0001577332576 	5.631392342e-07 	0.002229196722 	-3.533367651e-07 	4.249468525e-06
0.2910437586 	0.001219370122 	-0.0001575268397 	5.064566724e-07 	0.002229428755 	-3.054127968e-07 	4.249910844e-06
0.2936268003 	0.001218624133 	-0.0001572749764 	4.092869973e-07 	0.00223001086 	-2.371447334e-07 	4.251020499e-06
0.2962303525 	0.001218019146 	-0.0001569710458 	3.109308331e-07 	0.002230931999 	-1.730399591e-07 	4.252776446e-06
0.2988546242 	0.001217548266 	-0.0001566132534 	2.114271414e-07 	0.002232183074 	-1.129724059e-07 	4.255161342e-06
0.3015071491 	0.001217203738 	-0.0001562210452 	1.105045217e-07 	0.002233759827 	-5.666342406e-08 	4.258167072e-06
0.3042385563 	0.001216975116 	-0.0001557506396 	6.254088003e-09 	0.002235691911 	-3.073976418e-09 	4.261850161e-06
0.3044030552 	0.001216969825 	-0.0001557190346 	-1.200753932e-09 	0.002235826156 	-4.384119907e-08 	4.262106069e-06
0.3069777986 	0.001216964859 	-0.0001553047945 	9.451479038e-08 	0.002237757869 	-5.048648379e-08 	4.265788451e-06
0.3097378333 	0.001217087076 	-0.0001548143739 	1.960457541e-07 	0.002240114305 	-1.00711835e-07 	4.270280473e-06
0.3125197515 	0.001217321812 	-0.0001542623747 	2.985732496e-07 	0.002242771674 	-1.47491791e-07 	4.275346156e-06
0.3153237939 	0.001217665024 	-0.0001536349218 	4.020638853e-07 	0.0022457228 	-1.90957144e-07 	4.280971824e-06
0.3181502078 	0.001218115623 	-0.0001529465674 	5.064830979e-07 	0.002248963303 	-2.312309928e-07 	4.287149123e-06
0.321029074 	0.001218667896 	-0.0001521856167 	5.766735841e-07 	0.002252517418 	-2.529474719e-07 	4.293924253e-06
0.3239656974 	0.001219317425 	-0.0001513224518 	4.767276805e-07 	0.002256390956 	-2.007916797e-07 	4.301308293e-06
0.3269252817 	0.001220066183 	-0.0001503803792 	3.75959955e-07 	0.002260545616 	-1.520306103e-07 	4.30922823e-06
0.3299080977 	0.001220906786 	-0.0001493676276 	2.743834265e-07 	0.002264967932 	-1.065229999e-07 	4.317658394e-06
0.3329144238 	0.001221830773 	-0.0001482660833 	1.720602263e-07 	0.002269656444 	-6.413082077e-08 	4.326596001e-06
0.3359445461 	0.001222840026 	-0.0001470829188 	6.904435412e-08 	0.002274609845 	-2.470643486e-08 	4.336038559e-06
0.3379814723 	0.001223567182 	-0.000146243739 	3.104666798e-09 	0.002278080448 	-2.162232543e-07 	4.342654494e-06
0.3390189598 	0.001223970122 	-0.0001458406311 	3.408607206e-08 	0.002279794425 	-1.359700118e-08 	4.34592181e-06
0.3421483435 	0.001225254736 	-0.0001445319127 	1.363802489e-07 	0.002285162771 	-5.24633908e-08 	4.356155371e-06
0.345302372 	0.001226621992 	-0.0001431205095 	2.391830359e-07 	0.00229079109 	-8.876110089e-08 	4.366884511e-06
0.3484813625 	0.001228065587 	-0.0001416196301 	3.424214457e-07 	0.00229665939 	-1.226406027e-07 	4.37807112e-06
0.3516856411 	0.001229576155 	-0.0001400052495 	4.460409059e-07 	0.002302768584 	-1.542655313e-07 	4.389716943e-06
0.3549155431 	0.001231162151 	-0.0001382971816 	5.499749244e-07 	0.002309127483 	-1.837905408e-07 	4.401838772e-06
0.3582209652 	0.00123281943 	-0.0001364514231 	5.462433138e-07 	0.002315784367 	-1.764177766e-07 	4.414528642e-06
0.3615652749 	0.001234542698 	-0.000134458638 	4.466742324e-07 	0.002322708533 	-1.395270258e-07 	4.427728027e-06
0.3649359601 	0.001236334004 	-0.0001323594346 	3.468937419e-07 	0.002329853852 	-1.048985877e-07 	4.441348992e-06
0.3683333932 	0.001238180488 	-0.000130135186 	2.469611907e-07 	0.002337216767 	-7.23779912e-08 	4.455384753e-06
0.3717579577 	0.001240088622 	-0.0001277943389 	1.469499127e-07 	0.002344805653 	-4.179237674e-08 	4.46985128e-06
0.3752473145 	0.001242057681 	-0.0001253026653 	4.579178624e-08 	0.002352663292 	-1.265119777e-08 	4.484830123e-06
0.3768453004 	0.001242974786 	-0.0001241029898 	2.968964604e-08 	0.002356326775 	-2.647735042e-07 	4.491813739e-06
0.3787812557 	0.001244141295 	-0.0001226841044 	5.379843027e-08 	0.002360687536 	-1.718637275e-08 	4.500126563e-06
0.3823383014 	0.001246331401 	-0.0001199700934 	1.514337841e-07 	0.002368843531 	-4.730442843e-08 	4.515674155e-06
0.385923978 	0.001248570523 	-0.0001171141188 	2.487091449e-07 	0.002377191514 	-7.609330664e-08 	4.531587731e-06
0.3895387241 	0.001250866058 	-0.0001141260148 	3.455298115e-07 	0.002385746406 	-1.037267085e-07 	4.547895734e-06
0.3932287925 	0.001253217132 	-0.0001109547863 	4.430512513e-07 	0.00239455483 	-1.307046556e-07 	4.564687037e-06
0.3969602753 	0.001255618376 	-0.0001075931508 	5.400721501e-07 	0.002403582985 	-1.568961984e-07 	4.581897211e-06
0.4007218029 	0.001258071173 	-0.0001040829215 	5.539026329e-07 	0.002412781259 	-1.587815516e-07 	4.599431678e-06
0.4045138648 	0.001260569255 	-0.0001004188501 	4.615605528e-07 	0.00242214872 	-1.30848076e-07 	4.617288662e-06
0.4083523342 	0.001263117495 	-9.658037714e-05 	3.694686857e-07 	0.00243171519 	-1.038229887e-07 	4.635525013e-06
0.4122614271 	0.00126571395 	-9.251953638e-05 	2.772601864e-07 	0.002441499447 	-7.740718642e-08 	4.654176527e-06
0.4162021298 	0.001268356165 	-8.826409991e-05 	1.861609927e-07 	0.002451445841 	-5.177266261e-08 	4.673137118e-06
0.4201749888 	0.001271040359 	-8.38309475e-05 	9.624325219e-08 	0.002461523086 	-2.673036091e-08 	4.692347148e-06
0.4241823718 	0.001273771037 	-7.921597087e-05 	7.541217018e-09 	0.002471753052 	-2.097562871e-09 	4.711848306e-06
0.42453075 	0.001274007676 	-7.880144892e-05 	1.339157041e-08 	0.002472642157 	-4.771480668e-08 	4.713543186e-06
0.4282650768 	0.001276626748 	-7.441319459e-05 	7.7971322e-08 	0.00248206672 	-2.547065529e-08 	4.731509023e-06
0.4323807078 	0.001279528977 	-6.937211871e-05 	1.615565439e-07 	0.002492510537 	-5.305328355e-08 	4.751417842e-06
0.4365305639 	0.001282471007 	-6.412804267e-05 	2.433955254e-07 	0.002503050194 	-8.053736535e-08 	4.771509357e-06
0.4407164899 	0.001285454525 	-5.867236498e-05 	3.233869837e-07 	0.002513705089 	-1.0809923e-07 	4.791820548e-06
0.444984256 	0.001288481278 	-5.292954105e-05 	4.022640346e-07 	0.002524507761 	-1.361761328e-07 	4.812413443e-06
0.4492876033 	0.001291545739 	-4.690492198e-05 	4.787767333e-07 	0.002535403711 	-1.645851713e-07 	4.833184152e-06
0.4536272051 	0.001294651599 	-4.065402147e-05 	5.528043366e-07 	0.002546351433 	-1.934331592e-07 	4.854053554e-06
0.4580136809 	0.001297798147 	-3.414457756e-05 	4.928464605e-07 	0.002557369206 	-1.759924449e-07 	4.87505649e-06
0.462471639 	0.001300987911 	-2.731260225e-05 	4.172458258e-07 	0.00256846457 	-1.524431137e-07 	4.896207338e-06
0.4669673713 	0.00130421902 	-2.017706225e-05 	3.438997036e-07 	0.002579583724 	-1.288793523e-07 	4.917403536e-06
0.471501625 	0.001307495637 	-1.278519788e-05 	2.728597262e-07 	0.002590700163 	-1.051333122e-07 	4.938594558e-06
0.4760997355 	0.001310818156 	-5.072869517e-06 	2.038086809e-07 	0.002601828256 	-8.093603044e-08 	4.959807797e-06
0.4807530769 	0.001314187953 	2.998067861e-06 	1.372586556e-07 	0.002612940232 	-5.631908337e-08 	4.980990312e-06
0.4854466441 	0.001317608018 	1.137458469e-05 	7.36081382e-08 	0.002623987765 	-3.127549475e-08 	5.002049979e-06
0.4901872076 	0.00132108073 	2.006265774e-05 	1.28450373e-08 	0.002634961961 	-5.664586757e-09 	5.022969847e-06
0.4912417911 	0.001321853387 	2.205289069e-05 	7.213825588e-08 	0.002637353914 	-1.373947092e-07 	5.027529575e-06
0.494995955 	0.00132464832 	2.909725033e-05 	4.347844085e-08 	0.00264581265 	-2.171481438e-08 	5.043654277e-06
0.4998458934 	0.001328281084 	3.849418579e-05 	9.599918339e-08 	0.002656523169 	-4.977103532e-08 	5.064071502e-06
0.5047390435 	0.001331973792 	4.821378644e-05 	1.451063949e-07 	0.002667077501 	-7.825587077e-08 	5.084190993e-06
0.5097045418 	0.001335733107 	5.833219899e-05 	1.909722196e-07 	0.002677467648 	-1.073695457e-07 	5.103997501e-06
0.5147188802 	0.001339561873 	6.886949824e-05 	2.33035508e-07 	0.002687642951 	-1.368957417e-07 	5.123394457e-06
0.5197784943 	0.001343465549 	7.975527853e-05 	2.711631089e-07 	0.002697564695 	-1.667867591e-07 	5.142308057e-06
0.5249048007 	0.001347451994 	9.104722878e-05 	3.05425893e-07 	0.002707210241 	-1.971464296e-07 	5.160695149e-06
0.5300864618 	0.001351528607 	0.0001027806703 	3.354605451e-07 	0.002716530152 	-2.277753117e-07 	5.17846149e-06
0.5353156258 	0.00135570014 	0.0001148850164 	3.611174584e-07 	0.002725481851 	-2.585190439e-07 	5.195525917e-06
0.5406103714 	0.001359976705 	0.0001274006613 	3.824391301e-07 	0.002734029102 	-2.893854305e-07 	5.211819353e-06
0.5459628564 	0.001364368402 	0.0001403604374 	3.72769758e-07 	0.002742116987 	-2.989446245e-07 	5.227237109e-06
0.5513652427 	0.001368879073 	0.0001536925536 	3.300360116e-07 	0.002749701567 	-2.812752744e-07 	5.241695426e-06
0.5568351765 	0.001373521446 	0.0001674292824 	2.900757331e-07 	0.002756735766 	-2.635256675e-07 	5.255104566e-06
0.5623626196 	0.001378305501 	0.0001815849513 	2.531169434e-07 	0.002763159073 	-2.459461804e-07 	5.267349174e-06
0.5679425403 	0.001383232508 	0.0001960848943 	2.191318426e-07 	0.002768929266 	-2.285531798e-07 	5.278348764e-06
0.573593848 	0.001388317412 	0.0002109600113 	1.88012224e-07 	0.002773990383 	-2.113285234e-07 	5.287996661e-06
0.5793010596 	0.001393565971 	0.0002261876943 	1.598902894e-07 	0.002778283987 	-1.945687536e-07 	5.296181463e-06
0.5850665138 	0.001398978112 	0.0002417016251 	1.346299193e-07 	0.002781769484 	-1.782886756e-07 	5.30282579e-06
0.5909021007 	0.001404552033 	0.0002574827647 	1.121893004e-07 	0.002784383605 	-1.625937888e-07 	5.30780903e-06
0.596729614 	0.001410232186 	0.0002733353126 	9.267029555e-08 	0.002786082061 	-1.478545728e-07 	5.31104676e-06
0.6024927359 	0.001416002842 	0.0002890710728 	7.592706597e-08 	0.0027867963 	-1.341442335e-07 	5.312408298e-06
0.6081921426 	0.00142187824 	0.0003046404022 	6.17745167e-08 	0.002786505817 	-1.21604666e-07 	5.311854557e-06
0.6138223047 	0.00142781899 	0.0003199744659 	4.9920921e-08 	0.002785298072 	-1.10293279e-07 	5.309552259e-06
0.6193933868 	0.001433807202 	0.000335058313 	4.016087578e-08 	0.002783205296 	-1.002122259e-07 	5.305562847e-06
0.6248998757 	0.001439824903 	0.0003498654937 	3.227923991e-08 	0.002780243836 	-9.141516847e-08 	5.299917481e-06
0.6303406761 	0.001445831473 	0.0003643041831 	2.562599335e-08 	0.002776467136 	-8.35439235e-08 	5.29271804e-06
0.6357255812 	0.001451888452 	0.000378259558 	2.413012105e-08 	0.002771663244 	-6.646584504e-08 	5.283560487e-06
0.6410469534 	0.00145802086 	0.0003916799113 	2.913787629e-08 	0.002765678747 	-3.901547222e-08 	5.272152372e-06
0.6463063937 	0.001465184391 	0.0004034658052 	3.724604051e-08 	0.00275636258 	-1.104092591e-08 	5.254393169e-06
0.6515106776 	0.001473561492 	0.0004132828345 	4.598553075e-08 	0.002743393985 	1.262369906e-08 	5.229671422e-06
0.6566541997 	0.001482846191 	0.0004212025217 	5.058980045e-08 	0.002727617874 	2.504114889e-08 	5.199597769e-06
0.6617386178 	0.001492766453 	0.0004274383403 	5.117994408e-08 	0.002709807928 	2.906802422e-08 	5.165647064e-06
0.6667691337 	0.001502609093 	0.0004329379407 	5.026806281e-08 	0.002691628775 	3.030704045e-08 	5.130992544e-06
0.6717416141 	0.001512215454 	0.000437985421 	4.867270325e-08 	0.002673392646 	2.975185328e-08 	5.096229415e-06
0.6766571275 	0.00152137114 	0.0004428477038 	4.746360013e-08 	0.002655502346 	2.885899391e-08 	5.06212553e-06
0.6815205256 	0.001530015103 	0.0004476204797 	4.689766999e-08 	0.002638051783 	2.816767586e-08 	5.028859907e-06
0.6863283752 	0.001538166632 	0.0004522798858 	4.68387759e-08 	0.00262099898 	2.780118742e-08 	4.996352525e-06
0.6910815969 	0.001545838855 	0.0004568082947 	4.710885161e-08 	0.002604335083 	2.764986448e-08 	4.964586506e-06
0.6957835648 	0.001553054192 	0.0004612464577 	4.76470283e-08 	0.002588045077 	2.76314602e-08 	4.933533226e-06
0.7004328444 	0.001559852894 	0.0004656008963 	4.843878919e-08 	0.002572067196 	2.772484953e-08 	4.903074944e-06
0.7050296979 	0.001566244027 	0.0004698596416 	4.941896621e-08 	0.002556400131 	2.79001422e-08 	4.873209165e-06
0.7095761173 	0.001572235928 	0.0004740572846 	5.054164778e-08 	0.002541056773 	2.812924683e-08 	4.843960459e-06
0.7140725754 	0.001577865807 	0.0004782063481 	5.180057068e-08 	0.002525985534 	2.840371552e-08 	4.81523049e-06
0.7185186488 	0.001583150082 	0.000482293482 	5.315559567e-08 	0.002511172234 	2.870455203e-08 	4.786992222e-06
0.7229152277 	0.001588092784 	0.0004863381641 	5.457291524e-08 	0.002496637639 	2.901488297e-08 	4.759285244e-06
0.7272643304 	0.00159272069 	0.0004903612508 	5.604879295e-08 	0.002482356117 	2.933186432e-08 	4.732060694e-06
0.731564952 	0.001597059177 	0.0004943586978 	5.757177605e-08 	0.00246829955 	2.96520019e-08 	4.70526497e-06
0.735817778 	0.001601114496 	0.0004983283673 	5.911485791e-08 	0.002454480353 	2.997004509e-08 	4.67892174e-06
0.7400241023 	0.001604899332 	0.0005022943483 	6.066678441e-08 	0.002440905752 	3.028356658e-08 	4.653044778e-06
0.7441843609 	0.001608442438 	0.0005062642128 	6.223582969e-08 	0.002427545723 	3.059936342e-08 	4.627576849e-06
0.7482985596 	0.0016117593 	0.000510229389 	6.380513072e-08 	0.002414393725 	3.091888643e-08 	4.602505485e-06
0.7523673173 	0.00161485582 	0.0005141989222 	6.536182419e-08 	0.002401468906 	3.12461736e-08 	4.577867189e-06
0.7563919055 	0.001617751176 	0.0005181899079 	6.690668846e-08 	0.00238876613 	3.158748586e-08 	4.553652168e-06
0.7603722455 	0.001620469709 	0.00052220338 	6.844536663e-08 	0.002376265564 	3.195168048e-08 	4.529822613e-06
0.7643087428 	0.001623023172 	0.0005262331273 	6.996441007e-08 	0.002363971563 	3.234546364e-08 	4.50638683e-06
0.7682019616 	0.001625420156 	0.0005302897111 	7.145815475e-08 	0.00235190104 	3.277755514e-08 	4.483377059e-06
0.772052977 	0.001627681054 	0.000534384986 	7.293198266e-08 	0.00234004768 	3.325769115e-08 	4.46078126e-06
0.7758617041 	0.001629827025 	0.0005385171564 	7.438839134e-08 	0.002328399862 	3.379570013e-08 	4.438577282e-06
0.7796286373 	0.001631869499 	0.0005426822564 	7.581730187e-08 	0.002316965631 	3.440083285e-08 	4.416780461e-06
0.7833542952 	0.001633818858 	0.000546887602 	7.721464644e-08 	0.002305759598 	3.508372742e-08 	4.395418647e-06
0.7870395204 	0.001635694149 	0.0005511422085 	7.858449433e-08 	0.002294779845 	3.585395266e-08 	4.374488185e-06
0.7906844109 	0.001637515321 	0.0005554438008 	7.992832524e-08 	0.002284019034 	3.672081921e-08 	4.35397509e-06
0.7942894146 	0.001639294977 	0.0005597881796 	8.123693787e-08 	0.002273484424 	3.769255822e-08 	4.333893194e-06
0.7978550122 	0.001641043802 	0.0005641782439 	8.250555741e-08 	0.002263190145 	3.877916586e-08 	4.314269438e-06
0.8013818414 	0.00164277862 	0.0005686209399 	8.373526712e-08 	0.002253139897 	3.998820127e-08 	4.295110871e-06
0.8048702107 	0.001644519013 	0.0005731148451 	8.492860093e-08 	0.002243328626 	4.132713062e-08 	4.276407863e-06
0.8083204798 	0.001646278852 	0.0005776537565 	8.60762336e-08 	0.002233761044 	4.280193192e-08 	4.258169391e-06
0.8117330971 	0.001648068929 	0.0005822371782 	8.717190907e-08 	0.002224450559 	4.441999178e-08 	4.24042102e-06
0.8151085413 	0.001649903713 	0.0005868679332 	8.821189342e-08 	0.002215404709 	4.618665461e-08 	4.223177116e-06
0.818447297 	0.00165180125 	0.0005915461342 	8.919697257e-08 	0.00220662267 	4.810617302e-08 	4.206436108e-06
0.821749635 	0.001653776575 	0.0005962644621 	9.011817059e-08 	0.002198106357 	5.01818056e-08 	4.190201648e-06
0.8250159754 	0.00165584174 	0.0006010196541 	9.096607596e-08 	0.002189865498 	5.241581096e-08 	4.174492281e-06
0.8282467314 	0.001658008982 	0.0006058082012 	8.821805802e-08 	0.002181909176 	5.271238129e-08 	4.15932532e-06
0.8314423625 	0.001660292767 	0.0006106304945 	8.415087946e-08 	0.002174243937 	5.224405314e-08 	4.144713243e-06
0.8346032194 	0.001662709692 	0.0006154814871 	8.017853018e-08 	0.002166869352 	5.181447977e-08 	4.130655234e-06
0.8377296449 	0.001665272336 	0.0006203520128 	7.62869988e-08 	0.002159790893 	5.141047105e-08 	4.117161725e-06
0.8408220284 	0.00166799225 	0.0006252372405 	7.246414463e-08 	0.002153018142 	5.102079441e-08 	4.104250979e-06
0.8438807534 	0.001670881231 	0.000630129815 	6.86910798e-08 	0.002146558721 	5.063650682e-08 	4.091937528e-06
0.8469062311 	0.001673951999 	0.0006350249026 	6.494054501e-08 	0.002140419565 	5.024876927e-08 	4.080234589e-06
0.8498987902 	0.001677217871 	0.0006399111775 	6.116024066e-08 	0.002134602466 	4.984803025e-08 	4.069145583e-06
0.8528587734 	0.001680687182 	0.0006447716885 	5.726098894e-08 	0.002129114926 	4.943455482e-08 	4.058684805e-06
0.8557865438 	0.00168436453 	0.000649587429 	5.307371159e-08 	0.002123968174 	4.905213306e-08 	4.048873666e-06