0.4709558481 	2.098431973e-08 	-1.785766678e-11 	9.013440175e-17 	2.094439197e-08 	-7.594983333e-14 	3.992583229e-11
0.4709558481 	2.098431973e-08 	-1.785766678e-11 	9.013440176e-17 	2.094439197e-08 	-7.594983333e-14 	3.992583229e-11
0.4711314108 	2.356007739e-07 	-7.835919489e-10 	3.963667738e-15 	2.351521703e-07 	-8.527256088e-13 	4.482653938e-10
0.4713069734 	1.31340897e-06 	-1.023094559e-08 	5.1854334e-14 	1.310899508e-06 	-4.753657875e-12 	2.498938808e-09
0.471482536 	4.374761302e-06 	-6.393893791e-08 	3.246319633e-13 	4.366315613e-06 	-1.583275577e-11 	8.323411113e-09
0.4716580986 	1.081976807e-05 	-2.605635232e-07 	1.324724328e-12 	1.079837247e-05 	-3.915101926e-11 	2.058469919e-08
0.4718336613 	2.219634119e-05 	-8.051185801e-07 	4.096036461e-12 	2.215036965e-05 	-8.028398039e-11 	4.222476092e-08
0.4720092239 	4.01480622e-05 	-2.053654357e-06 	1.044389798e-11 	4.005822788e-05 	-1.45097727e-10 	7.636211594e-08
0.4721847865 	6.637686788e-05 	-4.553449422e-06 	2.311237129e-11 	6.62103204e-05 	-2.395439546e-10 	1.262152729e-07
0.4723603491 	0.0001026021824 	-9.070998878e-06 	4.586002772e-11 	0.0001023021336 	-3.693905779e-10 	1.950163001e-07
0.4725359118 	0.0001505071099 	-1.659770941e-05 	8.335984407e-11 	0.0001499761755 	-5.398389805e-10 	2.858962741e-07
0.4727114744 	0.0002116653468 	-2.832197504e-05 	1.408492414e-10 	0.0002107410872 	-7.550031488e-10 	4.017310847e-07
0.472887037 	0.0002874456625 	-4.555799929e-05 	2.234891127e-10 	0.0002858681607 	-1.017268202e-09 	5.449441672e-07
0.4730625996 	0.0003788961619 	-6.962807396e-05 	3.354678159e-10 	0.000376270423 	-1.326612959e-09 	7.172760053e-07
0.4732381623 	0.0004866184855 	-0.0001017065855 	4.790001039e-10 	0.0004823788651 	-1.680057288e-09 	9.195481871e-07
0.4734137249 	0.0006106512122 	-0.0001426487035 	6.53481271e-10 	0.0006040394165 	-2.071438915e-09 	1.151467012e-06
0.4735892875 	0.0007503885242 	-0.0001928390549 	8.550946173e-10 	0.0007404580744 	-2.491687996e-09 	1.411518889e-06
0.4737648501 	0.0009045601368 	-0.0002520985337 	1.07707794e-09 	0.0008902158653 	-2.929637998e-09 	1.696998862e-06
0.4739404128 	0.001071288535 	-0.0003196761934 	1.310641995e-09 	0.001051360056 	-3.373241443e-09 	2.004184478e-06
0.4741159754 	0.001248221019 	-0.0003943303639 	1.546295359e-09 	0.001221559154 	-3.810913315e-09 	2.328631262e-06
0.474291538 	0.001432714488 	-0.0004744781103 	1.775151241e-09 	0.001398293566 	-4.232302647e-09 	2.665536172e-06
0.4744671006 	0.001622053304 	-0.0005583810163 	2.000175914e-09 	0.00157902544 	-4.63065877e-09 	3.010061356e-06
0.4746426632 	0.001813780558 	-0.000644779619 	2.013857142e-09 	0.001761427115 	-4.982724679e-09 	3.357769644e-06
0.4748182259 	0.002002451667 	-0.0007218538359 	1.979233822e-09 	0.001942513084 	-5.316100888e-09 	3.702969832e-06
0.4749937885 	0.002186758403 	-0.0007883013092 	2.105991814e-09 	0.002121330214 	-5.655573595e-09 	4.043844981e-06
0.4751693511 	0.00236932668 	-0.0008541137765 	2.226014385e-09 	0.002298428852 	-5.97688538e-09 	4.381444207e-06
0.4753449137 	0.002549381539 	-0.0009190152819 	2.338969271e-09 	0.002473070174 	-6.279234319e-09 	4.714359107e-06
0.4755204764 	0.002726246985 	-0.000982769821 	2.444641944e-09 	0.002644627691 	-6.561866009e-09 	5.041395416e-06
0.475696039 	0.002899376112 	-0.001045177939 	2.543050501e-09 	0.002812562084 	-6.824856478e-09 	5.361525043e-06
0.4758716016 	0.003068328907 	-0.001106080327 	2.634313579e-09 	0.002976443875 	-7.068548668e-09 	5.673929286e-06
0.4760471642 	0.003232763039 	-0.001165353392 	2.718618654e-09 	0.003135940263 	-7.293452639e-09 	5.97797373e-06
0.4762227269 	0.003414184605 	-0.001230748355 	2.80649379e-09 	0.003311907502 	-7.52760776e-09 	6.313416197e-06
0.4764955107 	0.003631667011 	-0.001309140554 	2.904622986e-09 	0.003522845701 	-7.788672852e-09 	6.71552303e-06
0.4767734216 	0.003861574208 	-0.001392011206 	2.999728211e-09 	0.003745832515 	-8.0411389e-09 	7.140597875e-06
0.4770565557 	0.00408259309 	-0.001471677739 	3.082554259e-09 	0.003960193534 	-8.260329863e-09 	7.549229555e-06
0.4773450114 	0.004294247956 	-0.001547969264 	3.153690002e-09 	0.00416546431 	-8.447724127e-09 	7.940532706e-06
0.4776388886 	0.004496249062 	-0.001620785093 	3.213810949e-09 	0.004361364272 	-8.604870701e-09 	8.31397248e-06
0.4779382892 	0.004688463361 	-0.001690085756 	3.263702023e-09 	0.004547764789 	-8.73329276e-09 	8.669303673e-06
0.4782433171 	0.004870884822 	-0.001755886258 	3.304315297e-09 	0.004724659906 	-8.834422042e-09 	9.006514932e-06
0.4785540779 	0.005043607294 	-0.001818252237 	3.336855232e-09 	0.004892140484 	-8.909556494e-09 	9.325779463e-06
0.4788706795 	0.00520680125 	-0.001877298962 	3.36288078e-09 	0.005050371762 	-8.959849085e-09 	9.627412256e-06
0.4791932316 	0.005360695735 	-0.001933193082 	3.384417244e-09 	0.005199575855 	-8.986358305e-09 	9.911836727e-06
0.4795218461 	0.005505569439 	-0.001985694558 	3.386292377e-09 	0.005340023318 	-8.990270238e-09 	1.017956863e-05
0.4798566368 	0.005641749398 	-0.002034663122 	3.373358013e-09 	0.00547203149 	-8.973075571e-09 	1.043121289e-05
0.48019772 	0.005769585311 	-0.002080515951 	3.359984002e-09 	0.005595939306 	-8.935728998e-09 	1.066741563e-05
0.4805452138 	0.005889419649 	-0.002123528555 	3.339450435e-09 	0.005712078786 	-8.878596048e-09 	1.088880976e-05
0.4808992388 	0.006001587697 	-0.002163811209 	3.311907691e-09 	0.005820775102 	-8.802126273e-09 	1.109601515e-05
0.4812599177 	0.006106420835 	-0.002201475392 	3.277485302e-09 	0.005922349633 	-8.706714508e-09 	1.128964443e-05
0.4816273755 	0.00620424419 	-0.002236632259 	3.236282251e-09 	0.006017117696 	-8.59267186e-09 	1.14702987e-05
0.4820017397 	0.006295373756 	-0.002269391107 	3.188365165e-09 	0.006105385754 	-8.460219117e-09 	1.163856215e-05
0.48238314 	0.006380113963 	-0.002299858143 	3.133767516e-09 	0.006187449054 	-8.309483944e-09 	1.179499761e-05
0.4827717088 	0.006458755768 	-0.002328135527 	3.0724877e-09 	0.006263589779 	-8.140495506e-09 	1.194014299e-05
0.4831675807 	0.006531575178 	-0.002354320646 	3.004485714e-09 	0.006334075605 	-7.953175493e-09 	1.207450857e-05
0.4835708931 	0.006598832059 	-0.002378505542 	2.929679631e-09 	0.006399158557 	-7.747328653e-09 	1.219857476e-05
0.4839817856 	0.006660769276 	-0.002400776492 	2.847944447e-09 	0.00645907417 	-7.522639809e-09 	1.231279058e-05
0.4844004009 	0.006717612253 	-0.00242121377 	2.759116809e-09 	0.006514041063 	-7.27868672e-09 	1.241757275e-05
0.4848268841 	0.006769569242 	-0.002439891681 	2.663008873e-09 	0.006564261188 	-7.014977606e-09 	1.251330627e-05
0.485261383 	0.006816832591 	-0.002456878975 	2.559433462e-09 	0.00660992109 	-6.731019416e-09 	1.260034673e-05
0.4857040484 	0.006859581326 	-0.00247223975 	2.448239953e-09 	0.006651194439 	-6.426414334e-09 	1.267902521e-05
0.4861550336 	0.006897999316 	-0.002486039887 	2.329519505e-09 	0.006688259569 	-6.101422138e-09 	1.274968164e-05
0.4866144951 	0.006932286659 	-0.002498351051 	2.203466461e-09 	0.00672131041 	-5.756592437e-09 	1.281268573e-05
0.4870825921 	0.006962631386 	-0.002509240621 	2.06999824e-09 	0.006750529204 	-5.391723474e-09 	1.286838488e-05
0.487559487 	0.006989190137 	-0.002518764831 	1.928937376e-09 	0.006776067858 	-5.006346741e-09 	1.291706865e-05
0.4880453452 	0.007012100331 	-0.002526973061 	1.780171366e-09 	0.006798059636 	-4.600166262e-09 	1.295899109e-05
0.4885403351 	0.007031488771 	-0.002533910882 	1.623573769e-09 	0.006816627463 	-4.172848221e-09 	1.299438653e-05
0.4890446283 	0.00704747217 	-0.002539620254 	1.459003865e-09 	0.006831884484 	-3.724020278e-09 	1.302347065e-05
0.4895583997 	0.00706015765 	-0.002544139702 	1.28630637e-09 	0.006843934559 	-3.253270674e-09 	1.304644144e-05
0.4900818274 	0.00706964324 	-0.002547504492 	1.10531147e-09 	0.006852872735 	-2.760148437e-09 	1.306348009e-05
0.4906150929 	0.007076018349 	-0.002549746793 	9.158349576e-10 	0.006858785706 	-2.244163877e-09 	1.307475186e-05
0.4911583811 	0.007079364219 	-0.002550895845 	7.176784098e-10 	0.006861752255 	-1.70478915e-09 	1.308040692e-05
0.4917118805 	0.007079754365 	-0.002550978113 	5.106294129e-10 	0.006861843683 	-1.141458903e-09 	1.308058121e-05
0.4922757829 	0.007077254993 	-0.002550017437 	2.944617859e-10 	0.006859124212 	-5.535709518e-10 	1.307539714e-05
0.4928502838 	0.007071925389 	-0.002548035169 	6.893584356e-11 	0.006853651369 	5.951302215e-11 	1.306496438e-05
0.4934355824 	0.007063818293 	-0.002545050312 	-1.662013541e-10 	0.006845476348 	6.984667593e-10 	1.304938052e-05
0.4940318817 	0.007052980249 	-0.002541079645 	-4.112157317e-10 	0.006834644353 	1.363998708e-09 	1.302873173e-05
0.4946393885 	0.007039451934 	-0.002536137837 	-6.663859395e-10 	0.006821194917 	2.056851291e-09 	1.300309336e-05
0.4952583133 	0.00702326847 	-0.002530237565 	-9.320030327e-10 	0.006805162208 	2.777800132e-09 	1.297253056e-05
0.4958888709 	0.007004459718 	-0.002523389615 	-1.208370154e-09 	0.006786575315 	3.527653198e-09 	1.293709878e-05
0.4965312797 	0.006983050562 	-0.002515602991 	-1.495802158e-09 	0.006765458527 	4.307249835e-09 	1.289684431e-05
0.4971857627 	0.006959061177 	-0.002506885007 	-1.794625181e-09 	0.006741831595 	5.117459636e-09 	1.285180482e-05
0.4978525466 	0.006932507299 	-0.002497241385 	-2.105176071e-09 	0.006715709994 	5.959181062e-09 	1.280200978e-05
0.4985318627 	0.006903400484 	-0.002486676351 	-2.42780172e-09 	0.006687105177 	6.833339683e-09 	1.274748105e-05
0.4992239466 	0.006871748375 	-0.002475192731 	-2.762858191e-09 	0.006656024836 	7.740885966e-09 	1.268823328e-05
0.4999290382 	0.006837554965 	-0.002462792048 	-3.110709635e-09 	0.006622473164 	8.682792422e-09 	1.262427447e-05
0.5006473819 	0.006800820867 	-0.00244947462 	-3.471726829e-09 	0.006586451118 	9.660049876e-09 	1.255560644e-05
0.501379227 	0.006761543565 	-0.002435239649 	-3.846285351e-09 	0.006547956669 	1.067366241e-08 	1.248222532e-05
0.502124827 	0.006719717621 	-0.002420085301 	-4.234763504e-09 	0.006506984997 	1.172464179e-08 	1.240412193e-05
0.5028844406 	0.006675334741 	-0.002404008731 	-4.637541193e-09 	0.006463528595 	1.281400591e-08 	1.232128195e-05
0.5036583311 	0.006628383416 	-0.002387006063 	-5.054999727e-09 	0.006417577328 	1.394277972e-08 	1.223368606e-05
0.5044467669 	0.00657884794 	-0.002369072143 	-5.487512414e-09 	0.006369117904 	1.511194601e-08 	1.214130893e-05
0.5052500214 	0.006526707146 	-0.002350199414 	-5.935429314e-09 	0.006318130181 	1.632235302e-08 	1.204411216e-05
0.506068373 	0.006464777532 	-0.002327788349 	-6.459290494e-09 	0.006257593061 	1.773740383e-08 	1.192871158e-05
0.507324668 	0.006384772772 	-0.002298843693 	-7.125066112e-09 	0.00617942041 	1.953536433e-08 	1.177969278e-05
0.5085949819 	0.006293043214 	-0.002265666838 	-7.87601113e-09 	0.006089832726 	2.156307339e-08 	1.160891376e-05
0.5098794711 	0.006196900259 	-0.0022309036 	-8.651367075e-09 	0.005995976661 	2.365632759e-08 	1.142999801e-05
0.5111782938 	0.006096471505 	-0.002194600527 	-9.450545407e-09 	0.005897977746 	2.581347238e-08 	1.124318484e-05
0.5124916099 	0.00599186884 	-0.002156799269 	-1.027287141e-08 	0.005795948857 	2.803274056e-08 	1.104868942e-05
0.5138195812 	0.005883191669 	-0.002117536834 	-1.111753107e-08 	0.005689989958 	3.031201399e-08 	1.084670231e-05
0.5151623712 	0.005770529287 	-0.002076846509 	-1.198357817e-08 	0.005580190694 	3.264881753e-08 	1.06373944e-05
0.5165201452 	0.005653962848 	-0.002034758691 	-1.286999022e-08 	0.005466632793 	3.504048296e-08 	1.042092148e-05
0.5178930705 	0.005533566765 	-0.001991301393 	-1.377575967e-08 	0.005349391475 	3.748440944e-08 	1.019742694e-05
0.5192813161 	0.005409409146 	-0.001946500376 	-1.470001576e-08 	0.005228535877 	3.997839522e-08 	9.967042578e-06
0.520685053 	0.005281550967 	-0.001900378825 	-1.564216873e-08 	0.005104128304 	4.252099363e-08 	9.729887166e-06
0.522104454 	0.005150043724 	-0.001852956465 	-1.660206375e-08 	0.004976222052 	4.511183122e-08 	9.486062301e-06
0.523539694 	0.005014925446 	-0.001804248063 	-1.758013008e-08 	0.004844857677 	4.775184183e-08 	9.235645291e-06
0.5249909497 	0.004876215462 	-0.001754261412 	-1.857749415e-08 	0.00471005792 	5.044339168e-08 	8.978679489e-06
0.5264583998 	0.004733909526 	-0.001702995272 	-1.959591027e-08 	0.004571822515 	5.319000604e-08 	8.715164387e-06
0.527942225 	0.004587978787 	-0.001650438893 	-2.063687583e-08 	0.004430127591 	5.599376558e-08 	8.44505448e-06
0.5294426081 	0.00443838117 	-0.001596576437 	-2.169910305e-08 	0.004284938787 	5.884877857e-08 	8.168284265e-06
0.5309597337 	0.004285481231 	-0.001541541131 	-2.266023382e-08 	0.004136616286 	6.143300954e-08 	7.885540353e-06
0.5324937889 	0.004130415583 	-0.001485749424 	-2.338282392e-08 	0.003986265157 	6.338614274e-08 	7.598929314e-06
0.5340449624 	0.00397440228 	-0.001429646933 	-2.393408345e-08 	0.003835068888 	6.488293883e-08 	7.310707202e-06
0.5356134452 	0.003818203136 	-0.001373509548 	-2.437765588e-08 	0.003683769584 	6.608786196e-08 	7.022288679e-06
0.5371994306 	0.003662460404 	-0.001317565825 	-2.46914024e-08 	0.003532990761 	6.694122448e-08 	6.734862334e-06
0.5388031139 	0.003507895852 	-0.001262070126 	-2.486265743e-08 	0.003383431714 	6.740715698e-08 	6.449761222e-06
0.5404246925 	0.003355316123 	-0.001207305258 	-2.486288469e-08 	0.003235876026 	6.740362013e-08 	6.168479071e-06
0.5420643661 	0.003205670786 	-0.001153604042 	-2.465301781e-08 	0.003091245767 	6.681427234e-08 	5.892773599e-06
0.5437223366 	0.003060081288 	-0.001101360154 	-2.419644226e-08 	0.002950622559 	6.552769349e-08 	5.62470668e-06
0.5453988083 	0.002919810176 	-0.001051019532 	-2.348109657e-08 	0.002815216722 	6.351174321e-08 	5.366585521e-06
0.5470939875 	0.002786130995 	-0.001003039094 	-2.253733583e-08 	0.002686255945 	6.087843145e-08 	5.120750437e-06
0.5488080831 	0.002660096017 	-0.0009577816761 	-2.144950629e-08 	0.00256468495 	5.792113529e-08 	4.889002333e-06
0.5505413061 	0.002542081943 	-0.0009153704839 	-2.033623949e-08 	0.002450810922 	5.496346587e-08 	4.671926785e-06
0.5522938699 	0.002428822047 	-0.0008676354802 	-2.371740217e-08 	0.002343018989 	5.290691303e-08 	4.466445402e-06
0.5540659904 	0.002319068581 	-0.00081596915 	-2.579893166e-08 	0.002239777578 	5.136087462e-08 	4.269638578e-06
0.5558578859 	0.002214461881 	-0.0007680239951 	-2.39866538e-08 	0.00214107928 	4.95542092e-08 	4.081492189e-06
0.5576697768 	0.002114608216 	-0.0007213886551 	-2.403718335e-08 	0.002047015841 	4.765715875e-08 	3.902181132e-06
0.5595018865 	0.002019601942 	-0.0006756113351 	-2.399254326e-08 	0.001957837538 	4.549042839e-08 	3.7321825e-06
0.5613544406 	0.001929768403 	-0.0006308321848 	-2.379024435e-08 	0.00187377253 	4.308540418e-08 	3.571931231e-06
0.563227667 	0.001845401487 	-0.0005871969716 	-2.34305138e-08 	0.001795056108 	4.044440591e-08 	3.421875852e-06
0.5651217966 	0.001766752339 	-0.0005448330166 	-2.293646399e-08 	0.001721892118 	3.760192432e-08 	3.282404953e-06
0.5670370626 	0.001694018438 	-0.0005038460067 	-2.233603649e-08 	0.001654430732 	3.459919375e-08 	3.1538048e-06
0.5689737009 	0.001627329278 	-0.0004643186709 	-2.165586614e-08 	0.001592759096 	3.148104643e-08 	3.036241521e-06
0.5709319499 	0.001566735963 	-0.0004263095656 	-2.091883637e-08 	0.001536893598 	2.829594842e-08 	2.929746356e-06
0.5729120508 	0.001512205267 	-0.0003898527813 	-2.014383697e-08 	0.001486775238 	2.50945702e-08 	2.834206832e-06
0.5749142474 	0.001463618103 	-0.0003549588884 	-1.934641758e-08 	0.001442269203 	2.192782896e-08 	2.749365959e-06
0.5769387863 	0.001420772331 	-0.000321617329 	-1.853926672e-08 	0.001403168366 	1.884484613e-08 	2.674828896e-06
0.5789859169 	0.001383389722 	-0.0002898005701 	-1.773194021e-08 	0.00136920032 	1.589058486e-08 	2.61007636e-06
0.5810558911 	0.001351127755 	-0.0002594702137 	-1.693016027e-08 	0.001340038656 	1.310208486e-08 	2.554486122e-06
0.583148964 	0.001323598631 	-0.000230585301 	-1.613375329e-08 	0.001315321812 	1.050161908e-08 	2.507368949e-06
0.5852653933 	0.00130039959 	-0.0002031055526 	-1.534559063e-08 	0.00129468382 	8.088076172e-09 	2.4680272e-06
0.5874054395 	0.001281150879 	-0.0001770288698 	-1.450512526e-08 	0.001277786464 	5.842061279e-09 	2.435816142e-06
0.5895693664 	0.001265554589 	-0.0001523697521 	-1.369253976e-08 	0.001264369151 	3.696981607e-09 	2.410239016e-06
0.5917574402 	0.001253402434 	-0.0001289040079 	-1.310032976e-08 	0.001254248782 	1.64453718e-09 	2.390946778e-06
0.5939699306 	0.001244432188 	-0.0001063155943 	-1.261750979e-08 	0.001247166688 	-2.037287135e-10 	2.377446339e-06
0.5962071099 	0.001238253798 	-8.453694452e-05 	-1.211783643e-08 	0.001242730356 	-1.79215283e-09 	2.368989457e-06
0.5984692536 	0.001234459293 	-6.356022511e-05 	-1.16470714e-08 	0.001240542537 	-3.150369026e-09 	2.364818867e-06
0.6007566404 	0.001232698863 	-4.331216955e-05 	-1.121769807e-08 	0.001240269344 	-4.314194126e-09 	2.364298085e-06
0.6030695519 	0.001232680333 	-2.372229683e-05 	-1.082576964e-08 	0.001241631292 	-5.312732236e-09 	2.366894337e-06
0.6054082729 	0.001234159526 	-4.728629748e-06 	-1.046685617e-08 	0.00124439342 	-6.170658757e-09 	2.37215972e-06
0.6077730914 	0.001236931444 	1.37229731e-05 	-1.013695374e-08 	0.001248357887 	-6.908590611e-09 	2.379717096e-06
0.6101642987 	0.001240823349 	3.167980257e-05 	-9.832496362e-09 	0.001253357409 	-7.543641171e-09 	2.389247575e-06
0.6125821893 	0.001245689129 	4.918318572e-05 	-9.550330417e-09 	0.001259249923 	-8.09007922e-09 	2.400480343e-06
0.6150270608 	0.001251404683 	6.626926189e-05 	-9.287686702e-09 	0.001265914294 	-8.559850817e-09 	2.413184487e-06
0.6174992144 	0.001257864154 	8.296965729e-05 	-9.042144629e-09 	0.001273246834 	-8.962989538e-09 	2.427162346e-06
0.6199989545 	0.001264976846 	9.931206865e-05 	-8.811591401e-09 	0.001281158441 	-9.307950012e-09 	2.442244068e-06
0.622526589 	0.001272664704 	0.0001153207672 	-8.594180927e-09 	0.00128957226 	-9.601878899e-09 	2.458283146e-06
0.625082429 	0.001280860242 	0.0001310170336 	-8.388295974e-09 	0.001298421754 	-9.850834402e-09 	2.475152741e-06
0.6276667894 	0.001289504843 	0.0001464195338 	-8.192515181e-09 	0.001307649105 	-1.005996482e-08 	2.492742637e-06
0.6302799884 	0.001298547355 	0.0001615446446 	-8.005585242e-09 	0.001317203897 	-1.023365468e-08 	2.510956725e-06
0.6329223478 	0.001307942934 	0.0001764067354 	-7.826397643e-09 	0.001327042011 	-1.037564512e-08 	2.529710906e-06
0.6355941931 	0.001317652081 	0.0001910184136 	-7.653969197e-09 	0.001337124715 	-1.04891335e-08 	2.548931341e-06
0.6382958531 	0.001327639853 	0.0002053907377 	-7.487425549e-09 	0.001347417888 	-1.057685612e-08 	2.568552991e-06
0.6410276607 	0.001337875198 	0.0002195334042 	-7.325987041e-09 	0.001357891385 	-1.064115722e-08 	2.588518387e-06
0.6437899523 	0.001348330405 	0.0002334549099 	-7.168956453e-09 	0.001368518492 	-1.068404647e-08 	2.608776606e-06
0.646583068 	0.00135898065 	0.0002471626954 	-7.015708317e-09 	0.001379275474 	-1.070724716e-08 	2.629282403e-06
0.6494073518 	0.001369803611 	0.0002606632711 	-6.865679568e-09 	0.001390141192 	-1.071223642e-08 	2.649995481e-06
0.6522631514 	0.001380779153 	0.0002739623283 	-6.718361377e-09 	0.001401096782 	-1.07002791e-08 	2.670879881e-06
0.6551508186 	0.001391889062 	0.0002870648386 	-6.573291982e-09 	0.001412125385 	-1.067245611e-08 	2.691903464e-06
0.658070709 	0.001403116828 	0.0002999751418 	-6.430050403e-09 	0.00142321192 	-1.062968835e-08 	2.713037481e-06
0.6610231822 	0.001414447466 	0.0003126970251 	-6.288250927e-09 	0.001434342891 	-1.057275672e-08 	2.734256206e-06
0.6640086017 	0.001425867366 	0.0003252337954 	-6.147538233e-09 	0.001445506235 	-1.050231912e-08 	2.755536642e-06
0.6670273351 	0.001437364174 	0.0003375883436 	-6.007583056e-09 	0.001456691187 	-1.041892463e-08 	2.77685827e-06
0.6700797543 	0.0014489267 	0.0003497632055 	-5.868078296e-09 	0.001467888178 	-1.03230254e-08 	2.798202846e-06
0.6731662352 	0.001460544844 	0.000361760617 	-5.728735489e-09 	0.00147908875 	-1.021498667e-08 	2.819554249e-06
0.6762871577 	0.001472209543 	0.0003735825659 	-5.589281586e-09 	0.001490285491 	-1.009509496e-08 	2.840898349e-06
0.6794429063 	0.001483912738 	0.0003852308421 	-5.44945595e-09 	0.00150147199 	-9.963564883e-09 	2.862222926e-06
0.6826338695 	0.001495647349 	0.0003967070845 	-5.309007535e-09 	0.001512642807 	-9.820544571e-09 	2.883517608e-06
0.6858604404 	0.001507407278 	0.0004080128277 	-5.167692183e-09 	0.001523793458 	-9.666119974e-09 	2.904773848e-06
0.6891230163 	0.001519187414 	0.0004191495473 	-5.02527002e-09 	0.001534920413 	-9.500318086e-09 	2.925984917e-06
0.6924219988 	0.001530983663 	0.0004301187062 	-4.881502897e-09 	0.001546021113 	-9.323109212e-09 	2.947145935e-06
0.6957577944 	0.001542792984 	0.0004409218003 	-4.736151823e-09 	0.001557093995 	-9.134408315e-09 	2.968253926e-06
0.6991308138 	0.001554613442 	0.0004515604072 	-4.588974383e-09 	0.00156813854 	-8.93407552e-09 	2.989307899e-06
0.7025414724 	0.001566444283 	0.0004620362355 	-4.439722108e-09 	0.001579155325 	-8.721915779e-09 	3.010308954e-06
0.7059901901 	0.001578286009 	0.000472351178 	-4.28813775e-09 	0.001590146101 	-8.497677722e-09 	3.031260427e-06
0.7094773917 	0.001590140489 	0.0004825073675 	-4.133952457e-09 	0.001601113878 	-8.261051678e-09 	3.052168059e-06
0.7130035066 	0.001602011075 	0.0004925072377 	-3.976882801e-09 	0.001612063037 	-8.011666856e-09 	3.073040199e-06
0.7165689691 	0.001613902743 	0.0005023535895 	-3.816627682e-09 	0.001622999455 	-7.749087655e-09 	3.09388805e-06
0.7201742182 	0.001625822255 	0.0005120496627 	-3.652865072e-09 	0.001633930653 	-7.472809115e-09 	3.114725952e-06
0.7238196978 	0.001637778349 	0.0005215992164 	-3.485248621e-09 	0.001644865972 	-7.182251202e-09 	3.13557171e-06
0.727505857 	0.001649781955 	0.0005310066164 	-3.313404053e-09 	0.001655816768 	-6.876751374e-09 	3.156446971e-06
0.7312331497 	0.001661846445 	0.0005402769292 	-3.136926283e-09 	0.001666796637 	-6.555556046e-09 	3.177377652e-06
0.7350020349 	0.001673955561 	0.0005493915921 	-2.95588128e-09 	0.00167779245 	-6.218730184e-09 	3.198338728e-06
0.7387709215 	0.001686025546 	0.000558283515 	-2.77143365e-09 	0.00168873029 	-5.86847824e-09 	3.219189291e-06
0.7424982157 	0.001697976325 	0.0005668943311 	-2.584807229e-09 	0.00169954008 	-5.507378901e-09 	3.239795755e-06
0.7461843763 	0.00170980026 	0.0005752218095 	-2.396205553e-09 	0.00171021762 	-5.136162621e-09 	3.260150115e-06
0.7498298574 	0.001721522196 	0.0005832865437 	-2.205372887e-09 	0.001720788092 	-4.754603403e-09 	3.280300371e-06
0.7534351078 	0.001733167515 	0.0005911085376 	-2.012062346e-09 	0.001731276992 	-4.36243246e-09 	3.30029513e-06
0.7570005716 	0.001744762118 	0.0005987072624 	-1.816035749e-09 	0.001741710141 	-3.959341033e-09 	3.320183613e-06
0.7605266877 	0.00175633241 	0.0006061017038 	-1.617065326e-09 	0.001752113709 	-3.544982372e-09 	3.340015703e-06
0.7640138905 	0.001767905307 	0.0006133104028 	-1.414935779e-09 	0.001762514226 	-3.118973063e-09 	3.35984198e-06
0.7674626093 	0.001779508234 	0.0006203514931 	-1.209446651e-09 	0.001772938617 	-2.680893889e-09 	3.379713766e-06
0.770873269 	0.001791169143 	0.0006272427349 	-1.000415055e-09 	0.001783414226 	-2.230290382e-09 	3.399683189e-06
0.7742462894 	0.001802916535 	0.000634001545 	-7.87678752e-10 	0.001793968857 	-1.766673015e-09 	3.419803249e-06
0.777582086 	0.001814779479 	0.0006406450244 	-5.710996157e-10 	0.001804630813 	-1.289517037e-09 	3.440127902e-06
0.7808810695 	0.001826787655 	0.0006471899829 	-3.505675304e-10 	0.001815428946 	-7.982618679e-10 	3.460712144e-06
0.7841436462 	0.001838971386 	0.0006536529625 	-1.260047498e-10 	0.001826392706 	-2.923100366e-10 	3.481612117e-06
0.787370218 	0.001851361691 	0.000660050258 	1.026292228e-10 	0.001837552205 	2.289742847e-10 	3.502885223e-06
0.7905611821 	0.001863990342 	0.0006663979359 	3.353320427e-10 	0.001848938277 	7.66267153e-10 	3.524590242e-06
0.7937169314 	0.001876889923 	0.0006727118519 	5.720523256e-10 	0.001860582564 	1.320289382e-09 	3.546787489e-06
0.7968378547 	0.001890093884 	0.0006790076766 	8.12684294e-10 	0.001872517639 	1.891816095e-09 	3.569539058e-06
0.7999243362 	0.001903636665 	0.0006853009336 	1.057062363e-09 	0.001884777038 	2.481666332e-09 	3.592908882e-06
0.8029767561 	0.001917554114 	0.0006916069281 	1.304935434e-09 	0.001897394768 	3.090624331e-09 	3.616961781e-06
0.8059954902 	0.001931883296 	0.0006979404168 	1.555912863e-09 	0.001910405704 	3.719573579e-09 	3.641764241e-06
0.8089809102 	0.001946658514 	0.0007043177525 	1.809831591e-09 	0.001923854289 	4.370800222e-09 	3.667400983e-06
0.8119333839 	0.001961925152 	0.0007107669204 	2.068065936e-09 	0.001937777368 	5.044196381e-09 	3.693942241e-06
0.8148532749 	0.001977927339 	0.0007179147335 	2.423509446e-09 	0.001952266342 	5.74900423e-09 	3.721562253e-06
0.8177409426 	0.001994506961 	0.000724923962 	2.643851632e-09 	0.001967247222 	6.459891653e-09 	3.750119973e-06
0.8205967427 	0.002011562491 	0.0007310676543 	2.787218633e-09 	0.00198271363 	7.193602034e-09 	3.779603245e-06
0.8234210268 	0.002029464531 	0.0007372959586 	3.091078051e-09 	0.001998896885 	7.987311518e-09 	3.810453027e-06
0.8262141429 	0.002048328722 	0.0007438558211 	3.412181976e-09 	0.002015936944 	8.829899211e-09 	3.842936115e-06
0.8289764348 	0.002068189306 	0.0007507711276 	3.751602601e-09 	0.002033924675 	9.72547853e-09 	3.877225731e-06
0.8317082427 	0.002089084968 	0.0007580592931 	4.109748753e-09 	0.002052916693 	1.067401089e-08 	3.913429795e-06
0.8344099031 	0.002111057345 	0.000765735859 	4.48729282e-09 	0.002072957129 	1.167700494e-08 	3.951632437e-06
0.8370817486 	0.002134152126 	0.0007738171015 	4.884819902e-09 	0.002094089414 	1.273601333e-08 	3.991916445e-06
0.8397241082 	0.002158421144 	0.0007823212612 	5.302807849e-09 	0.002116361405 	1.385253224e-08 	4.03437305e-06
0.8423373074 	0.002183923366 	0.0007912692844 	5.741631959e-09 	0.002139828565 	1.502788538e-08 	4.079107979e-06
0.844921668 	0.002210724868 	0.0008006850018 	6.201273235e-09 	0.002164554933 	1.626214053e-08 	4.12624331e-06
0.8474775082 	0.00223889664 	0.0008105942523 	6.680101481e-09 	0.002190610573 	1.755051421e-08 	4.1759126e-06
0.8500051427 	0.002268507826 	0.0008210221957 	7.173315427e-09 	0.0022180637 	1.887907991e-08 	4.228245892e-06
0.8525048829 	0.002299617141 	0.0008319899783 	7.674342579e-09 	0.002246971096 	2.02288569e-08 	4.283351422e-06
0.8549770366 	0.002332272626 	0.0008435145725 	8.179557598e-09 	0.002277377495 	2.158906972e-08 	4.34131447e-06
0.8574219081 	0.002366522376 	0.0008556127693 	8.690453174e-09 	0.002309326685 	2.296333919e-08 	4.402218505e-06
0.8598397987 	0.002402424931 	0.0008683051275 	9.21108624e-09 	0.002342872664 	2.436274679e-08 	4.466166466e-06
0.862231006 	0.002440051562 	0.0008816169654 	9.745245225e-09 	0.002378082696 	2.579794483e-08 	4.533286573e-06
0.8645958245 	0.002479483708 	0.0008955775112 	1.02956372e-08 	0.00241503517 	2.72767504e-08 	4.603728258e-06
0.8669345455 	0.002520809848 	0.0009102187831 	1.08639778e-08 	0.002453816592 	2.880428429e-08 	4.677656428e-06
0.8692474569 	0.002564122824 	0.0009255746117 	1.145114294e-08 	0.002494518907 	3.038334668e-08 	4.755246352e-06
0.8715348435 	0.002609517479 	0.0009416797664 	1.205724531e-08 	0.002537237075 	3.201461487e-08 	4.836679053e-06
0.8737969871 	0.002657088344 	0.0009585690975 	1.268164775e-08 	0.002582066702 	3.369667641e-08 	4.922136782e-06
0.8760341663 	0.002706927212 	0.0009762766342 	1.332293956e-08 	0.002629101536 	3.542596363e-08 	5.011798248e-06
0.8782466565 	0.002759120505 	0.0009948346044 	1.397889872e-08 	0.002678430747 	3.719665091e-08 	5.105833434e-06
0.8804347301 	0.002813746408 	0.001014272367 	1.464645899e-08 	0.002730135969 	3.900056688e-08 	5.20439796e-06
0.8825986568 	0.002870871819 	0.001034615273 	1.532169758e-08 	0.002784288151 	4.082716523e-08 	5.307627068e-06
0.8847387028 	0.002930549176 	0.001055883486 	1.599985572e-08 	0.002840944292 	4.266358808e-08 	5.415629421e-06
0.8868551318 	0.002992813311 	0.001078090813 	1.667539998e-08 	0.002900144229 	4.44948425e-08 	5.528480954e-06
0.8889482045 	0.003057678473 	0.001101243602 	1.734212649e-08 	0.0029619076 	4.630409543e-08 	5.646219106e-06
0.8910181784 	0.003125135681 	0.001125339766 	1.799330445e-08 	0.003026231182 	4.807307495e-08 	5.76883773e-06
0.8930653087 	0.003195150549 	0.001150367983 	1.862184982e-08 	0.003093086714 	4.978255133e-08 	5.896282956e-06
0.8950898473 	0.003267661712 	0.001176307124 	1.922051662e-08 	0.003162419342 	5.141286147e-08 	6.028450215e-06
0.8970920436 	0.003342579909 	0.001203125917 	1.978209254e-08 	0.003234146728 	5.294443918e-08 	6.165182549e-06
0.8990721441 	0.003419787764 	0.001230782871 	2.02995872e-08 	0.003308158845 	5.435832074e-08 	6.306270214e-06
0.9010303927 	0.003499140252 	0.001259226446 	2.076640558e-08 	0.003384318438 	5.563660795e-08 	6.451451566e-06
0.9029670306 	0.003580465829 	0.001288395452 	2.117650296e-08 	0.003462462101 	5.676288151e-08 	6.600415106e-06
0.9048822962 	0.003663568179 	0.001318219672 	2.152452016e-08 	0.00354240192 	5.772255948e-08 	6.752802619e-06
0.9067764254 	0.003748228524 	0.001348620675 	2.180589358e-08 	0.003623927624 	5.850317981e-08 	6.908213271e-06
0.9086496514 	0.003834208403 	0.001379512785 	2.201692179e-08 	0.003706809121 	5.909454874e-08 	7.066208438e-06
0.910502205 	0.003921252651 	0.001410804109 	2.215473707e-08 	0.003790799157 	5.948861959e-08 	7.226316791e-06
0.9123343142 	0.004009092006 	0.001442397417 	2.221708706e-08 	0.003875635565 	5.967886882e-08 	7.388038564e-06
0.9141462048 	0.00409744395 	0.001474190358 	2.220170294e-08 	0.003961041678 	5.965859241e-08 	7.550846353e-06
0.9159380997 	0.004186012135 	0.001506075158 	2.210620899e-08 	0.004046725387 	5.942084057e-08 	7.714183317e-06
0.9177102197 	0.004274467565 	0.001537931919 	2.192125153e-08 	0.004132361295 	5.894034594e-08 	7.87742916e-06
0.9194627831 	0.004362454165 	0.001569630909 	2.165116325e-08 	0.004217597486 	5.822901697e-08 	8.03991303e-06
0.9211960055 	0.004449686093 	0.001601067864 	2.132965966e-08 	0.004302151035 	5.737773093e-08 	8.201095594e-06
0.9229101006 	0.004536001228 	0.001632183401 	2.097938835e-08 	0.004385860477 	5.644767149e-08 	8.360669056e-06