11.9167 0.9790 0.0210 0.7687 -0.0029 7.9382 0.6340 0.8379 
11.9167 0.9685 0.0315 0.8301 -0.0061 8.3627 0.8621 1.0289 
11.9167 0.9580 0.0420 0.8776 -0.0107 8.6001 1.0211 1.1446 
11.9167 0.9475 0.0525 0.9173 -0.0136 8.5820 1.0719 1.1761 
11.9167 0.9370 0.0630 0.9515 -0.0150 8.4600 1.0797 1.1726 
11.9167 0.9265 0.0735 0.9816 -0.0169 8.2780 1.0902 1.1689 
11.9167 0.9160 0.0840 1.0086 -0.0185 8.0570 1.0862 1.1610 
11.9167 0.9055 0.0945 1.0327 -0.0198 7.8415 1.0823 1.1521 
11.9167 0.8950 0.1050 1.0537 -0.0220 7.6322 1.0782 1.1403 
11.9167 0.8845 0.1155 1.0733 -0.0247 7.4195 1.0615 1.1204 
11.9167 0.8740 0.1260 1.0935 -0.0276 7.1949 1.0620 1.0995 
11.9167 0.8635 0.1365 1.1131 -0.0312 6.9686 1.0763 1.0797 
11.9167 0.8530 0.1470 1.1297 -0.0349 6.7590 1.0710 1.0552 
11.9167 0.8425 0.1575 1.1435 -0.0373 6.5528 1.0373 1.0188 
11.9167 0.8320 0.1680 1.1561 -0.0386 6.3479 0.9871 0.9801 
11.9167 0.8215 0.1785 1.1677 -0.0392 6.1350 0.9392 0.9455 
11.9167 0.8110 0.1890 1.1784 -0.0403 5.8986 0.9097 0.9018 
11.9167 0.8005 0.1995 1.1895 -0.0440 5.6565 0.8870 0.8577 
11.9167 0.7900 0.2100 1.2010 -0.0486 5.3955 0.8605 0.8208 
11.9167 0.7795 0.2205 1.2116 -0.0518 5.1028 0.8295 0.7815 
11.9167 0.7690 0.2310 1.2211 -0.0553 4.8184 0.7890 0.7434 
11.9167 0.7585 0.2415 1.2300 -0.0593 4.5566 0.7465 0.7093 
11.9167 0.7480 0.2520 1.2378 -0.0621 4.3071 0.7101 0.6786 
11.9167 0.7375 0.2625 1.2441 -0.0649 4.0715 0.6961 0.6487 
11.9167 0.7270 0.2730 1.2500 -0.0684 3.8487 0.6974 0.6216 
11.9167 0.7165 0.2835 1.2559 -0.0712 3.6371 0.6914 0.6020 
11.9167 0.7060 0.2940 1.2611 -0.0736 3.4362 0.6746 0.5830 
11.9167 0.6955 0.3045 1.2654 -0.0756 3.2360 0.6475 0.5527 
11.9167 0.6850 0.3150 1.2699 -0.0768 3.0377 0.6119 0.5126 
11.9167 0.6745 0.3255 1.2750 -0.0801 2.8508 0.5816 0.4734 
11.9167 0.6640 0.3360 1.2799 -0.0857 2.6669 0.5611 0.4363 
11.9167 0.6535 0.3465 1.2841 -0.0899 2.4877 0.5412 0.3968 
11.9167 0.6430 0.3570 1.2874 -0.0928 2.3339 0.5185 0.3592 
11.9167 0.6325 0.3675 1.2896 -0.0953 2.2012 0.4961 0.3267 
11.9167 0.6220 0.3780 1.2912 -0.0965 2.0789 0.4737 0.2993 
11.9167 0.6115 0.3885 1.2926 -0.0985 1.9658 0.4519 0.2703 
11.9167 0.6010 0.3990 1.2936 -0.1023 1.8635 0.4291 0.2347 
11.9167 0.5906 0.4094 1.2946 -0.1075 1.7785 0.4131 0.1951 
11.9167 0.5801 0.4199 1.2955 -0.1127 1.7053 0.4044 0.1572 
11.9167 0.5696 0.4304 1.2960 -0.1173 1.6356 0.3980 0.1170 
11.9167 0.5591 0.4409 1.2949 -0.1213 1.5789 0.3934 0.0691 
11.9167 0.5486 0.4514 1.2915 -0.1250 1.5457 0.3912 0.0146 
11.9167 0.5381 0.4619 1.2867 -0.1289 1.5382 0.3909 -0.0418 
11.9167 0.5276 0.4724 1.2813 -0.1326 1.5654 0.3957 -0.1017 
11.9167 0.5171 0.4829 1.2752 -0.1359 1.6274 0.4070 -0.1641 
11.9167 0.5066 0.4934 1.2674 -0.1393 1.7114 0.4222 -0.2256 
11.9167 0.4961 0.5039 1.2575 -0.1430 1.8139 0.4391 -0.2872 
11.9167 0.4856 0.5144 1.2455 -0.1465 1.9490 0.4610 -0.3569 
11.9167 0.4751 0.5249 1.2317 -0.1499 2.1229 0.4915 -0.4368 
11.9167 0.4646 0.5354 1.2159 -0.1526 2.3174 0.5255 -0.5139 
11.9167 0.4541 0.5459 1.1974 -0.1548 2.5077 0.5580 -0.5828 
11.9167 0.4436 0.5564 1.1757 -0.1572 2.6689 0.5904 -0.6437 
11.9167 0.4331 0.5669 1.1514 -0.1603 2.7793 0.6231 -0.6926 
11.9167 0.4226 0.5774 1.1249 -0.1641 2.8471 0.6594 -0.7373 
11.9167 0.4121 0.5879 1.0958 -0.1676 2.9010 0.6975 -0.7823 
11.9167 0.4016 0.5984 1.0636 -0.1694 2.9524 0.7278 -0.8199 
11.9167 0.3911 0.6089 1.0275 -0.1705 3.0017 0.7598 -0.8545 
11.9167 0.3806 0.6194 0.9867 -0.1715 3.0480 0.8038 -0.8923 
11.9167 0.3701 0.6299 0.9409 -0.1718 3.0965 0.8583 -0.9470 
