/*--------------------------------*- C++ -*----------------------------------*\
  =========                 |
  \\      /  F ield         | OpenFOAM: The Open Source CFD Toolbox
   \\    /   O peration     | Website:  https://openfoam.org
    \\  /    A nd           | Version:  7
     \\/     M anipulation  |
\*---------------------------------------------------------------------------*/
FoamFile
{
    version     2.0;
    format      ascii;
    class       volScalarField;
    location    "2000";
    object      nut;
}
// * * * * * * * * * * * * * * * * * * * * * * * * * * * * * * * * * * * * * //

dimensions      [0 2 -1 0 0 0 0];

internalField   nonuniform List<scalar> 
15296
(
0.0019787476
0.0019796474
0.0019807201
0.0019819379
0.0019832826
0.0019847414
0.0019863053
0.0019879671
0.0019897209
0.0019915615
0.0019934843
0.0019954856
0.0019975617
0.0019997096
0.0020019264
0.0020042094
0.0020065563
0.0020089648
0.0020114328
0.0020139585
0.00201654
0.0020191755
0.0020218635
0.0020246028
0.0020273932
0.0020302362
0.0020331375
0.0020361121
0.0020391977
0.0020424715
0.0020461294
0.0020505577
0.0020566788
0.0017092612
0.00098405682
0.0005225557
0.00027718775
0.00013233185
0.001978758
0.0019796601
0.0019807337
0.001981952
0.0019832969
0.0019847558
0.0019863196
0.0019879811
0.0019897345
0.0019915746
0.0019934969
0.0019954975
0.0019975728
0.0019997199
0.0020019358
0.0020042178
0.0020065637
0.002008971
0.0020114379
0.0020139623
0.0020165426
0.0020191768
0.0020218634
0.0020246013
0.0020273903
0.0020302316
0.0020331312
0.0020361037
0.0020391865
0.0020424559
0.0020461061
0.0020505188
0.0020566126
0.0016780795
0.00096048891
0.00050521649
0.0002560927
0.00013186487
0.0019787812
0.0019796887
0.0019807649
0.0019819848
0.0019833309
0.0019847907
0.001986355
0.0019880169
0.0019897704
0.0019916104
0.0019935325
0.0019955326
0.0019976074
0.0019997538
0.0020019689
0.0020042501
0.0020065949
0.0020090011
0.0020114668
0.00201399
0.0020165688
0.0020192016
0.0020218867
0.002024623
0.0020274102
0.0020302497
0.0020331472
0.0020361172
0.0020391966
0.0020424608
0.0020461019
0.0020504965
0.0020565589
0.0017217601
0.00098684384
0.00052146424
0.00025810193
0.00012937997
0.0019788166
0.0019797324
0.0019808126
0.0019820355
0.0019833838
0.0019848453
0.0019864109
0.0019880738
0.0019898279
0.0019916683
0.0019935905
0.0019955906
0.0019976652
0.0019998111
0.0020020256
0.002004306
0.00200665
0.0020090552
0.0020115197
0.0020140416
0.0020166191
0.0020192504
0.002021934
0.0020246686
0.0020274539
0.0020302914
0.0020331866
0.0020361539
0.0020392297
0.0020424882
0.0020461197
0.0020504956
0.0020565252
0.0017279622
0.00099192619
0.00052781776
0.00025638307
0.00012749529
0.0019788642
0.001979791
0.001980877
0.0019821039
0.0019834554
0.0019849194
0.001986487
0.0019881515
0.0019899069
0.0019917481
0.0019936709
0.0019956712
0.0019977458
0.0019998916
0.0020021057
0.0020043856
0.0020067288
0.0020091331
0.0020115965
0.0020141173
0.0020166934
0.0020193232
0.0020220052
0.002024738
0.0020275215
0.0020303568
0.0020332496
0.0020362139
0.0020392858
0.0020425383
0.0020461597
0.0020505162
0.0020565124
0.0017427304
0.0010013861
0.00053677667
0.00025603269
0.00013115725
0.0019789413
0.0019798857
0.0019809811
0.001982215
0.0019835718
0.0019850401
0.0019866113
0.0019882786
0.0019900363
0.0019918792
0.0019938032
0.0019958044
0.0019978794
0.0020000253
0.0020022392
0.0020045187
0.002006861
0.0020092642
0.0020117264
0.0020142457
0.0020168202
0.0020194481
0.0020221279
0.0020248584
0.0020276393
0.0020304717
0.0020333612
0.0020363213
0.002039388
0.0020426323
0.0020462401
0.0020505707
0.0020565236
0.0017613884
0.0010130832
0.00054869644
0.00025631357
0.00013331027
0.0019790703
0.0019800435
0.0019811552
0.0019824009
0.0019837671
0.001985243
0.0019868205
0.001988493
0.0019902549
0.0019921013
0.0019940279
0.001996031
0.0019981073
0.002000254
0.0020024682
0.0020047475
0.0020070891
0.0020094913
0.0020119522
0.0020144697
0.0020170421
0.0020196675
0.0020223446
0.002025072
0.0020278494
0.0020306778
0.0020335627
0.0020365171
0.0020395766
0.0020428095
0.0020463991
0.0020506953
0.0020565933
0.001785398
0.0010272472
0.00056406193
0.0002573606
0.00013584841
0.0019792557
0.0019802687
0.0019814047
0.0019826676
0.0019840474
0.0019855347
0.0019871217
0.0019888021
0.0019905705
0.0019924221
0.001994353
0.0019963594
0.0019984383
0.0020005866
0.0020028018
0.0020050815
0.0020074229
0.0020098243
0.0020122839
0.0020147996
0.0020173697
0.0020199925
0.0020226664
0.0020253902
0.0020281633
0.002030987
0.0020338661
0.0020368135
0.0020398642
0.0020430831
0.0020466508
0.0020509067
0.0020567438
0.0018135611
0.0010432787
0.00058206374
0.00026027565
0.00013955432
0.0019795164
0.0019805829
0.0019817538
0.001983041
0.0019844402
0.0019859437
0.0019875443
0.0019892362
0.0019910142
0.0019928738
0.0019948111
0.0019968227
0.0019989056
0.0020010569
0.0020032742
0.0020055551
0.0020078967
0.0020102978
0.0020127563
0.0020152703
0.002017838
0.0020204578
0.002023128
0.0020258475
0.0020286156
0.0020314334
0.0020343055
0.0020372442
0.0020402842
0.002043486
0.0020470277
0.002051236
0.0020570056
0.0018461468
0.0010612741
0.00060246856
0.00026507234
0.00014247272
0.0019798772
0.0019810156
0.0019822337
0.0019835549
0.0019849814
0.0019865077
0.0019881276
0.0019898358
0.0019916276
0.0019934987
0.0019954456
0.0019974651
0.0019995543
0.0020017106
0.0020039315
0.0020062149
0.0020085577
0.0020109593
0.0020134172
0.0020159298
0.0020184953
0.0020211119
0.0020237781
0.0020264927
0.002029255
0.0020320658
0.0020349296
0.0020378577
0.0020408842
0.0020440656
0.0020475762
0.0020517284
0.0020574212
0.0018844939
0.00108214
0.00062559178
0.00027230973
0.00014484592
0.0019803743
0.0019816049
0.0019828848
0.0019842528
0.001985717
0.0019872749
0.0019889216
0.0019906527
0.0019924639
0.0019943515
0.0019963123
0.0019983434
0.0020004421
0.0020026061
0.002004833
0.0020071209
0.0020094664
0.0020118698
0.0020143282
0.00201684
0.0020194035
0.0020220171
0.0020246792
0.0020273885
0.0020301442
0.002032947
0.0020358008
0.0020387162
0.0020417263
0.002044883
0.0020483564
0.0020524425
0.0020580445
0.0019296013
0.0011067623
0.00065138902
0.00028256208
0.00014800793
0.0019810631
0.0019823979
0.0019837598
0.0019851902
0.0019867054
0.0019883061
0.0019899892
0.0019917514
0.0019935891
0.0019954995
0.0019974796
0.001999527
0.0020016393
0.0020038144
0.0020060503
0.0020083451
0.0020106958
0.0020131023
0.0020155623
0.0020180742
0.0020206363
0.002023247
0.0020259047
0.002028608
0.0020313562
0.0020341494
0.0020369913
0.0020398914
0.0020428814
0.0020460083
0.0020494373
0.0020534461
0.0020589372
0.001982921
0.0011359188
0.00067944378
0.00029574942
0.0001527173
0.0019820056
0.0019834643
0.001984927
0.0019864388
0.0019880219
0.0019896795
0.001991411
0.0019932146
0.001995088
0.0019970289
0.0019990352
0.0020011048
0.0020032359
0.0020054266
0.0020076752
0.0020099801
0.0020123391
0.0020147503
0.0020172134
0.0020197265
0.0020222878
0.0020248957
0.0020275488
0.0020302455
0.0020329849
0.0020357668
0.0020385943
0.0020414758
0.0020444413
0.0020475322
0.0020509082
0.0020548272
0.0020601809
0.002046271
0.0011711285
0.00071026001
0.00031221727
0.00015927949
0.0019832935
0.0019848966
0.0019864775
0.0019880934
0.001989765
0.0019914974
0.0019932927
0.0019951513
0.0019970721
0.001999054
0.0020010956
0.0020031956
0.0020053526
0.0020075653
0.0020098321
0.0020121517
0.0020145228
0.0020169419
0.0020194112
0.0020219276
0.0020244896
0.0020270959
0.0020297448
0.0020324347
0.0020351644
0.0020379336
0.0020407444
0.002043604
0.0020465401
0.0020495879
0.0020529009
0.0020567155
0.0020619006
0.0020686331
0.0012140095
0.00074466582
0.00033198412
0.00016781015
0.0019850733
0.001986807
0.0019885326
0.0019902779
0.0019920617
0.0019938904
0.0019957686
0.0019976989
0.0019996823
0.0020017186
0.0020038076
0.0020059488
0.0020081413
0.0020103844
0.002012677
0.0020150181
0.0020174067
0.0020198398
0.0020223189
0.0020248419
0.0020274075
0.0020300142
0.0020326603
0.002035344
0.002038064
0.0020408194
0.0020436115
0.0020464458
0.0020493471
0.0020523445
0.0020555831
0.0020592766
0.002064261
0.002070689
0.0012679538
0.00078371031
0.00035675621
0.00017774399
0.0019879335
0.0019898451
0.0019917636
0.0019936909
0.0019956378
0.0019976093
0.0019996121
0.0020016514
0.0020037303
0.0020058506
0.0020080133
0.0020102191
0.002012468
0.00201476
0.0020170946
0.0020194713
0.0020218896
0.0020243482
0.0020268445
0.0020293809
0.0020319554
0.0020345662
0.0020372115
0.0020398894
0.0020425982
0.0020453362
0.0020481037
0.0020509039
0.0020537569
0.0020566857
0.0020598209
0.0020633474
0.0020680572
0.0020740506
0.0013459696
0.0008354951
0.00039246612
0.00019260149
0.0019923721
0.0019945284
0.001996678
0.0019988271
0.0020009828
0.0020031448
0.0020053184
0.0020075102
0.002009725
0.0020119663
0.0020142366
0.002016538
0.0020188715
0.0020212379
0.0020236376
0.0020260707
0.002028537
0.0020310364
0.0020335664
0.002036127
0.0020387208
0.002041344
0.0020439946
0.0020466708
0.0020493703
0.0020520905
0.0020548298
0.002057589
0.0020603804
0.0020632299
0.0020662298
0.0020695411
0.0020739106
0.0020793143
0.0014516594
0.00090346148
0.00044003448
0.00021638614
0.0019982439
0.0020006378
0.002003022
0.0020053992
0.0020077752
0.002010145
0.0020125108
0.0020148786
0.0020172536
0.0020196402
0.0020220421
0.0020244621
0.0020269023
0.0020293643
0.0020318491
0.0020343574
0.0020368896
0.0020394458
0.0020420258
0.0020446266
0.0020472518
0.0020498978
0.0020525638
0.0020552474
0.0020579454
0.0020606541
0.0020633696
0.0020660898
0.0020688192
0.0020715855
0.0020744394
0.0020775176
0.002081525
0.0020862758
0.0015803385
0.00098651041
0.00049782048
0.00024788447
0.002005799
0.0020084212
0.0020110401
0.002013647
0.0020162474
0.0020188335
0.0020214045
0.0020239652
0.00202652
0.0020290731
0.0020316286
0.0020341896
0.0020367588
0.0020393381
0.0020419293
0.0020445334
0.0020471512
0.0020497832
0.0020524296
0.0020550901
0.0020577611
0.0020604436
0.0020631395
0.0020658435
0.0020685515
0.0020712581
0.0020739577
0.0020766444
0.0020793157
0.0020819905
0.0020846945
0.0020875299
0.0020911541
0.0020952305
0.0017365911
0.0010871129
0.00056786703
0.00028568571
0.0020152273
0.0020181004
0.002020959
0.0020237955
0.0020266206
0.0020294263
0.0020322099
0.0020349745
0.0020377237
0.0020404606
0.0020431887
0.0020459112
0.0020486307
0.0020513493
0.0020540688
0.0020567907
0.0020595159
0.0020622452
0.0020649787
0.0020677171
0.002070456
0.0020731971
0.0020759378
0.0020786784
0.0020814117
0.0020841305
0.0020868266
0.0020894903
0.0020921125
0.0020946984
0.0020972545
0.0020998445
0.002103064
0.0021064889
0.001928119
0.0012119668
0.0006539102
0.00033144926
0.0020267112
0.0020298417
0.0020329471
0.0020360191
0.002039074
0.0020421049
0.0020451081
0.0020480859
0.0020510412
0.0020539764
0.0020568943
0.0020597974
0.002062688
0.0020655681
0.0020684394
0.002071303
0.0020741601
0.0020770114
0.0020798571
0.0020826973
0.0020855306
0.002088356
0.0020911677
0.0020939641
0.0020967441
0.0020994954
0.0021022076
0.0021048662
0.0021074563
0.0021099639
0.0021124006
0.0021147497
0.0021175425
0.0021203827
0.0021282498
0.0013691447
0.00076068655
0.0003890299
0.0020403414
0.0020437198
0.0020470808
0.0020504025
0.0020537005
0.0020569676
0.0020602
0.0020634007
0.0020665729
0.0020697189
0.0020728412
0.0020759419
0.0020790229
0.0020820857
0.0020851314
0.0020881611
0.0020911756
0.0020941752
0.0020971602
0.0021001301
0.002103084
0.0021060198
0.0021089345
0.0021118196
0.0021146712
0.0021174791
0.0021202345
0.0021229139
0.002125496
0.0021279483
0.0021302936
0.0021324212
0.0021347826
0.0021371203
0.0021428096
0.0015693876
0.00089503943
0.00046283907
0.0020560306
0.0020596813
0.0020633211
0.0020669118
0.0020704679
0.002073984
0.0020774568
0.0020808911
0.0020842913
0.0020876603
0.0020910007
0.0020943146
0.0020976035
0.0021008685
0.0021041102
0.0021073294
0.0021105263
0.0021137009
0.002116853
0.0021199817
0.0021230857
0.0021261624
0.0021292081
0.002132217
0.0021351762
0.0021380775
0.0021409047
0.0021436335
0.0021462362
0.0021486703
0.0021509402
0.0021528874
0.002154854
0.0021567045
0.0021605591
0.0018301971
0.0010674842
0.00055889628
0.0020735695
0.0020775376
0.002081473
0.0020853421
0.0020891659
0.0020929419
0.0020966676
0.0021003485
0.0021039902
0.0021075965
0.0021111704
0.0021147141
0.0021182292
0.0021217163
0.0021251758
0.002128608
0.0021320127
0.0021353894
0.0021387374
0.0021420554
0.0021453413
0.002148592
0.0021518029
0.0021549673
0.0021580744
0.0021611107
0.0021640515
0.0021668719
0.0021695393
0.0021719941
0.0021742187
0.0021760735
0.0021777059
0.0021790544
0.0021814806
0.0021682272
0.001293398
0.00068557645
0.0020925901
0.0020968321
0.0021010601
0.0021052195
0.002109326
0.0021133776
0.0021173719
0.0021213155
0.0021252154
0.0021290763
0.0021329017
0.0021366942
0.0021404554
0.002144186
0.0021478862
0.0021515557
0.0021551942
0.0021588009
0.0021623744
0.002165913
0.0021694141
0.0021728738
0.0021762866
0.0021796447
0.0021829364
0.0021861456
0.0021892489
0.0021922128
0.0021949974
0.0021975295
0.0021997659
0.0022015973
0.0022029849
0.0022038537
0.0022052773
0.0022074886
0.0015958612
0.00085579059
0.002112204
0.0021167678
0.0021213107
0.0021257745
0.0021301762
0.0021345165
0.0021387936
0.002143015
0.0021471889
0.0021513209
0.0021554152
0.0021594746
0.0021635011
0.0021674953
0.0021714574
0.0021753873
0.002179284
0.0021831466
0.0021869735
0.0021907625
0.0021945104
0.0021982128
0.0022018634
0.0022054531
0.0022089693
0.0022123936
0.0022157007
0.0022188534
0.0022218048
0.002224479
0.0022268051
0.0022286461
0.0022299478
0.00223045
0.0022310692
0.0022314482
0.0020124625
0.0010898556
0.0021312619
0.0021361813
0.0021410696
0.0021458614
0.0021505747
0.0021552146
0.0021597825
0.0021642887
0.0021687436
0.0021731543
0.0021775261
0.0021818625
0.0021861656
0.0021904364
0.0021946752
0.0021988815
0.0022030545
0.0022071929
0.0022112949
0.0022153579
0.0022193784
0.0022233514
0.00222727
0.0022311242
0.0022349003
0.0022385783
0.0022421309
0.0022455177
0.0022486872
0.0022515567
0.002254045
0.0022559774
0.0022573346
0.0022576418
0.0022575896
0.0022568648
0.0022626929
0.001418952
0.0021485772
0.0021537885
0.0021589695
0.002164047
0.0021690371
0.0021739476
0.0021787822
0.0021835534
0.0021882734
0.0021929508
0.0021975914
0.0022021992
0.0022067766
0.0022113243
0.0022158425
0.0022203306
0.0022247876
0.0022292119
0.0022336013
0.002237953
0.0022422631
0.0022465262
0.0022507348
0.0022548783
0.0022589422
0.0022629054
0.0022667391
0.0022704011
0.0022738364
0.0022769579
0.0022796753
0.0022818021
0.0022832749
0.0022836728
0.0022831734
0.00228189
0.0022833164
0.0018939532
0.0021622466
0.0021676623
0.0021730505
0.0021783342
0.0021835284
0.0021886437
0.0021936868
0.002198672
0.002203613
0.0022085188
0.0022133956
0.0022182472
0.0022230753
0.0022278804
0.002232662
0.0022374192
0.0022421503
0.0022468533
0.0022515258
0.0022561644
0.0022607649
0.0022653215
0.0022698263
0.0022742685
0.002278633
0.0022828982
0.0022870348
0.0022909996
0.0022947363
0.0022981569
0.0023011635
0.0023035752
0.0023052616
0.002305948
0.0023053689
0.0023038184
0.0023023875
0.0023035316
0.0021694508
0.0021750156
0.0021805434
0.0021859596
0.0021912818
0.0021965262
0.0022017049
0.0022068358
0.002211934
0.0022170094
0.0022220681
0.0022271132
0.002232146
0.0022371659
0.0022421716
0.0022471615
0.0022521332
0.0022570843
0.0022620115
0.0022669114
0.0022717792
0.0022766089
0.0022813927
0.0022861194
0.002290774
0.0022953353
0.0022997741
0.0023040481
0.0023081016
0.0023118489
0.0023151899
0.0023179526
0.0023199824
0.0023210132
0.0023207926
0.0023193352
0.002316473
0.0023170179
0.0021668593
0.0021724776
0.002178047
0.0021834989
0.0021888539
0.0021941341
0.0021993583
0.0022045481
0.0022097201
0.0022148848
0.0022200478
0.0022252116
0.0022303762
0.0022355404
0.0022407019
0.0022458581
0.0022510061
0.0022561428
0.0022612649
0.0022663683
0.0022714484
0.0022764992
0.0022815128
0.0022864786
0.0022913823
0.0022962036
0.0023009149
0.0023054762
0.0023098345
0.0023139099
0.002317606
0.0023207646
0.0023232276
0.002324744
0.0023250557
0.0023243439
0.002320898
0.002322659
0.0021507029
0.0021562087
0.002161657
0.0021669907
0.0021722322
0.0021774086
0.0021825451
0.002187666
0.0021927881
0.0021979214
0.0022030705
0.0022082366
0.0022134185
0.0022186137
0.0022238193
0.0022290321
0.0022342486
0.0022394658
0.0022446799
0.0022498872
0.0022550833
0.0022602625
0.0022654176
0.002270539
0.0022756135
0.002280623
0.0022855422
0.0022903355
0.0022949549
0.0022993293
0.002303371
0.0023069429
0.0023098929
0.0023120228
0.0023129874
0.0023133245
0.0023102677
0.0023149838
0.0021174545
0.0021226889
0.0021278464
0.0021328886
0.0021378416
0.0021427378
0.0021476105
0.002152487
0.0021573843
0.0021623121
0.0021672742
0.0021722711
0.0021773005
0.0021823598
0.0021874454
0.0021925541
0.0021976827
0.002202828
0.0022079868
0.0022131556
0.0022183306
0.0022235067
0.0022286778
0.0022338355
0.0022389685
0.0022440613
0.0022490922
0.0022540309
0.0022588365
0.0022634494
0.0022677949
0.0022717604
0.0022752139
0.0022780085
0.0022797947
0.002281244
0.0022789808
0.0022880308
0.0020674312
0.0020723339
0.0020770984
0.0020817146
0.0020862209
0.002090663
0.0020950887
0.0020995327
0.0021040158
0.0021085496
0.0021131395
0.0021177861
0.0021224876
0.0021272412
0.0021320438
0.0021368921
0.002141783
0.0021467134
0.0021516803
0.0021566803
0.0021617099
0.0021667647
0.0021718394
0.0021769268
0.0021820175
0.0021870987
0.0021921528
0.0021971552
0.002202073
0.0022068584
0.0022114522
0.0022157665
0.0022196954
0.0022231418
0.0022257702
0.0022284312
0.0022269792
0.0022402982
0.0020041108
0.0020085185
0.0020126934
0.0020166739
0.0020205231
0.0020243097
0.0020281
0.002031938
0.0020358482
0.0020398442
0.0020439313
0.0020481092
0.0020523753
0.0020567254
0.0020611554
0.0020656608
0.0020702377
0.0020748821
0.0020795905
0.0020843591
0.0020891843
0.0020940619
0.0020989871
0.0021039539
0.0021089548
0.0021139797
0.0021190149
0.0021240415
0.0021290345
0.0021339577
0.0021387666
0.0021433958
0.0021477662
0.0021518225
0.0021552548
0.00215905
0.0021585669
0.002175254
0.0019290859
0.0019327498
0.0019361159
0.0019392742
0.0019423122
0.0019453218
0.0019483847
0.001951549
0.0019548384
0.0019582636
0.0019618262
0.0019655219
0.0019693443
0.0019732863
0.0019773411
0.0019815024
0.0019857644
0.0019901223
0.0019945716
0.0019991083
0.0020037287
0.0020084291
0.0020132058
0.0020180541
0.0020229687
0.0020279425
0.0020329661
0.0020380261
0.0020431053
0.0020481779
0.0020532137
0.0020581663
0.0020629814
0.0020676363
0.0020718532
0.0020767006
0.0020772775
0.0020965184
0.0018441927
0.0018468752
0.0018492386
0.0018514464
0.0018536061
0.001855821
0.0018581728
0.0018607001
0.0018634166
0.0018663238
0.0018694149
0.0018726793
0.0018761057
0.0018796836
0.0018834038
0.0018872582
0.0018912402
0.0018953446
0.0018995668
0.0019039034
0.0019083517
0.0019129092
0.0019175738
0.0019223432
0.0019272147
0.0019321847
0.0019372481
0.0019423972
0.001947622
0.0019529058
0.0019582307
0.0019635658
0.0019688785
0.0019741686
0.0019791924
0.0019850474
0.0019867741
0.0020077997
0.0017515026
0.0017530504
0.0017543911
0.0017556945
0.0017570461
0.0017585415
0.0017602523
0.0017622048
0.0017644024
0.0017668385
0.0017694997
0.0017723703
0.0017754356
0.0017786829
0.0017821016
0.0017856833
0.0017894214
0.0017933113
0.0017973497
0.0018015347
0.0018058653
0.0018103412
0.0018149627
0.0018197302
0.0018246442
0.0018297044
0.0018349099
0.0018402578
0.0018457441
0.0018513594
0.0018570957
0.001862933
0.0018688558
0.0018748764
0.0018807852
0.0018876601
0.0018906561
0.0019128118
0.0016538533
0.0016541864
0.0016544522
0.0016548184
0.0016553445
0.0016561152
0.0016571872
0.0016585713
0.0016602599
0.0016622373
0.0016644836
0.0016669787
0.0016697052
0.0016726493
0.0016758001
0.0016791499
0.0016826936
0.0016864281
0.0016903525
0.0016944672
0.0016987737
0.0017032743
0.001707972
0.0017128697
0.0017179704
0.0017232768
0.0017287907
0.0017345123
0.0017404414
0.0017465732
0.0017529055
0.0017594246
0.0017661266
0.001773027
0.0017799482
0.0017879084
0.0017923118
0.0018151128
0.0015503033
0.0015504392
0.0015502497
0.0015500345
0.0015499389
0.0015501067
0.0015506177
0.0015514889
0.0015527133
0.0015542733
0.0015561464
0.0015583112
0.0015607504
0.001563451
0.0015664042
0.0015696048
0.0015730505
0.0015767414
0.0015806795
0.0015848681
0.0015893111
0.001594013
0.0015989783
0.0016042113
0.0016097158
0.0016154947
0.0016215504
0.0016278831
0.0016344931
0.0016413759
0.0016485312
0.0016559459
0.0016636225
0.0016715711
0.0016796435
0.0016887723
0.0016946924
0.0017178393
0.0014455358
0.001444749
0.0014437394
0.001442792
0.0014420439
0.0014416418
0.0014416556
0.0014420925
0.001442939
0.0014441726
0.0014457688
0.001447707
0.0014499725
0.0014525562
0.0014554535
0.0014586638
0.001462189
0.0014660326
0.0014701994
0.0014746941
0.0014795213
0.001484685
0.0014901885
0.0014960339
0.0015022222
0.001508753
0.001515625
0.0015228345
0.0015303782
0.0015382474
0.0015464398
0.0015549378
0.0015637464
0.0015728652
0.001582172
0.0015925052
0.0015999536
0.0016233016
0.0013360945
0.0013352462
0.0013340353
0.0013328084
0.0013317593
0.001331073
0.0013308301
0.001331043
0.0013317032
0.0013327932
0.0013342955
0.0013361975
0.0013384932
0.0013411814
0.0013442647
0.0013477474
0.0013516347
0.0013559311
0.0013606403
0.0013657642
0.0013713031
0.0013772554
0.0013836178
0.001390385
0.0013975506
0.0014051062
0.0014130428
0.0014213492
0.0014300149
0.0014390244
0.0014483707
0.0014580298
0.001468008
0.0014782927
0.0014887874
0.0015002438
0.0015090753
0.0015325607
0.0012265742
0.001225159
0.0012234828
0.0012218641
0.0012205001
0.0012195776
0.0012191671
0.0012192783
0.0012199049
0.0012210356
0.0012226615
0.0012247798
0.0012273929
0.0012305054
0.0012341221
0.0012382458
0.0012428769
0.0012480123
0.0012536458
0.0012597682
0.0012663677
0.0012734304
0.0012809407
0.0012888816
0.0012972354
0.0013059834
0.0013151071
0.0013245865
0.0013344042
0.0013445381
0.0013549776
0.001365694
0.0013766973
0.0013879662
0.0013994311
0.0014117761
0.0014216781
0.0014452314
0.0011170769
0.0011150613
0.0011128624
0.0011107967
0.0011090954
0.0011079538
0.0011074418
0.001107573
0.001108348
0.0011097633
0.001111817
0.00111451
0.0011178425
0.0011218112
0.0011264072
0.0011316161
0.001137418
0.0011437891
0.0011507027
0.0011581301
0.001166042
0.0011744088
0.0011832015
0.0011923914
0.0012019509
0.0012118529
0.0012220721
0.0012325835
0.001243366
0.0012543951
0.001265661
0.0012771348
0.0012888354
0.001300738
0.0013128037
0.0013256687
0.0013362067
0.0013596935
0.0010081905
0.0010053328
0.001002477
0.00099991009
0.00099789435
0.00099663032
0.00099618591
0.00099658694
0.00099784257
0.000999951
0.0010029026
0.0010066792
0.0010112521
0.0010165828
0.0010226244
0.0010293254
0.0010366325
0.0010444933
0.0010528581
0.0010616802
0.0010709168
0.0010805284
0.0010904784
0.0011007331
0.0011112613
0.001122034
0.001133025
0.0011442095
0.0011555684
0.0011670801
0.0011787408
0.0011905262
0.0012024692
0.0012145461
0.0012267522
0.0012396908
0.0012503768
0.0012735828
0.00089918628
0.00089565882
0.00089230128
0.00088939845
0.00088727954
0.00088617474
0.00088617538
0.00088732175
0.00088961918
0.00089303602
0.00089751085
0.00090295955
0.00090928383
0.00091638038
0.00092414895
0.000932498
0.00094134736
0.00095062849
0.0009602832
0.00097026176
0.00098052107
0.00099102299
0.0010017334
0.0010126211
0.0010236583
0.0010348194
0.0010460825
0.0010574281
0.0010688433
0.0010803137
0.0010918452
0.001103422
0.0011150944
0.0011268421
0.0011386981
0.0011512392
0.0011615839
0.0011842364
0.00079120601
0.00078697368
0.00078320041
0.0007801594
0.00077826271
0.00077778668
0.00077885011
0.00078147059
0.00078557541
0.0007910154
0.00079759803
0.00080512051
0.0008133949
0.00082226202
0.00083159538
0.00084129828
0.0008512976
0.00086153708
0.00087197165
0.00088256342
0.00089327915
0.00090408895
0.00091496575
0.00092588522
0.0009368261
0.00094777013
0.0009587034
0.00096961476
0.00098050126
0.00099135832
0.0010022047
0.0010130344
0.0010239178
0.0010348371
0.0010458667
0.0010575543
0.0010670991
0.0010889224
0.00068492315
0.00068022552
0.00067626322
0.00067341825
0.00067228903
0.0006732243
0.00067629133
0.00068132777
0.00068800392
0.00069592931
0.00070473672
0.00071413453
0.00072391758
0.00073395284
0.00074415707
0.00075447684
0.00076487445
0.00077531966
0.0007857857
0.00079624787
0.00080668342
0.00081707191
0.00082739576
0.00083764052
0.00084779543
0.00085785318
0.00086781117
0.00087766962
0.00088743742
0.00089712116
0.00090675289
0.00091633597
0.0009259608
0.00093560755
0.00094539606
0.00095583131
0.00096418589
0.00098497161
0.00058228815
0.00057680771
0.0005726351
0.00057046806
0.0005711209
0.00057478738
0.00058109005
0.00058932169
0.00059872761
0.00060871331
0.00061891208
0.00062913906
0.00063931862
0.00064942523
0.00065944915
0.00066938192
0.00067921261
0.00068892856
0.00069851714
0.00070796718
0.00071726987
0.00072641922
0.00073541215
0.00074424837
0.0007529305
0.00076146362
0.00076985654
0.00077811974
0.00078627189
0.00079432798
0.00080233014
0.00081028702
0.00081830571
0.00082635729
0.00083461026
0.00084349756
0.00085041738
0.0008699218
0.00049555485
0.00048903981
0.0004851311
0.00048489918
0.00048890398
0.00049642492
0.000506068
0.00051654401
0.00052705284
0.00053726177
0.00054710379
0.00055661338
0.00056584005
0.0005748197
0.0005835733
0.00059211291
0.00060044673
0.00060858168
0.00061652446
0.00062428181
0.00063186065
0.00063926812
0.00064651178
0.00065359969
0.00066054091
0.00066734536
0.00067402567
0.00068059521
0.00068707544
0.00069348338
0.00069986471
0.00070622849
0.00071269078
0.00071921116
0.00072599804
0.00073338999
0.00073904906
0.0007566461
0.00042885175
0.0004223703
0.00041999476
0.00042308311
0.00043111067
0.00044187494
0.00045324593
0.0004640565
0.00047397238
0.00048307018
0.00049153206
0.00049951774
0.0005071381
0.00051446402
0.00052154127
0.00052840129
0.00053506717
0.00054155647
0.00054788276
0.00055405667
0.00056008681
0.00056598053
0.0005717446
0.00057738571
0.00058291125
0.00058832942
0.00059365113
0.00059888825
0.00060406079
0.00060918458
0.00061430408
0.00061942703
0.00062466877
0.00062998293
0.0006355906
0.00064176573
0.00064638206
0.00066227319
0.00036825313
0.00036222596
0.00036326941
0.00037159997
0.00038395274
0.00039656488
0.00040756105
0.00041670302
0.0004244028
0.00043113146
0.00043723841
0.00044294446
0.0004483833
0.00045363556
0.00045875038
0.00046375744
0.00046867358
0.00047350712
0.000478261
0.00048293517
0.00048752842
0.00049203941
0.00049646754
0.00050081338
0.00050507929
0.00050926947
0.00051339152
0.00051745467
0.00052147659
0.00052547116
0.0005294804
0.00053351019
0.00053767235
0.00054191464
0.00054646651
0.00055152737
0.00055522984
0.00056934254
0.00031287875
0.00030939554
0.00031681336
0.00033146831
0.00034635993
0.00035778902
0.00036563028
0.00037104888
0.00037513818
0.00037859458
0.00038180098
0.00038494741
0.00038812223
0.00039136063
0.00039466957
0.00039804053
0.00040145683
0.00040489851
0.00040834564
0.00041178033
0.00041518773
0.0004185563
0.00042187791
0.00042514759
0.00042836369
0.0004315274
0.000434644
0.00043772083
0.00044077358
0.00044381446
0.00044688239
0.00044998136
0.00045321702
0.00045653205
0.00046015904
0.00046421579
0.00046713916
0.00047939215
0.00026388139
0.0002657515
0.00028265661
0.00030206798
0.00031504752
0.00032112243
0.00032308185
0.00032335672
0.00032328143
0.00032342814
0.00032398637
0.00032498462
0.0003263818
0.0003281133
0.00033010986
0.00033230565
0.00033464213
0.00033706998
0.00033954942
0.00034204957
0.00034454739
0.00034702634
0.00034947533
0.00035188775
0.000354261
0.00035659567
0.00035889643
0.00036116988
0.0003634303
0.00036568851
0.00036797974
0.00037030604
0.00037276422
0.00037529309
0.00037812227
0.00038128508
0.0003835573
0.00039388901
0.00022046705
0.00023447358
0.00026188942
0.00027980971
0.00028411295
0.00028097601
0.0002758357
0.00027119483
0.00026778105
0.0002656214
0.00026453176
0.00026429609
0.00026471468
0.0002656186
0.00026687129
0.00026836504
0.00027001705
0.0002717653
0.00027356462
0.00027538294
0.0002771982
0.00027899584
0.00028076698
0.00028250705
0.00028421503
0.0002858926
0.00028754477
0.00028917798
0.00029080511
0.00029243547
0.00029409978
0.00029579797
0.00029761547
0.00029948883
0.00030163796
0.00030401413
0.00030575239
0.00031413102
0.00018519882
0.00022002822
0.00025207933
0.0002567405
0.00024611538
0.00023313438
0.00022260448
0.00021517739
0.00021033622
0.00020743442
0.00020592992
0.00020540443
0.00020555764
0.00020617084
0.00020708732
0.00020819544
0.00020941682
0.00021069767
0.00021200212
0.0002133069
0.00021459756
0.00021586573
0.00021710725
0.00021832098
0.00021950813
0.00022067164
0.00022181673
0.00022294936
0.00022408051
0.00022521754
0.00022638575
0.00022758278
0.00022888062
0.0002302156
0.00023179109
0.0002334848
0.00023479586
0.00024121713
0.00016287219
0.00022658956
0.00024377306
0.0002219219
0.00019671475
0.0001783024
0.000166366
0.00015900441
0.0001546775
0.00015233213
0.00015126414
0.00015100049
0.00015124571
0.00015180742
0.0001525587
0.00015341505
0.00015432153
0.00015524387
0.00015616175
0.00015706381
0.00015794428
0.0001588009
0.00015963362
0.00016044384
0.00016123408
0.00016200766
0.00016276924
0.00016352358
0.00016427915
0.00016504089
0.00016582808
0.00016663602
0.00016752211
0.00016842473
0.00016952451
0.00017064071
0.00017162212
0.00017610405
0.00016415965
0.00025389809
0.00021803366
0.00016978458
0.00013973859
0.00012259717
0.00011293581
0.0001075936
0.00010478875
0.00010347761
0.00010303475
0.00010308044
0.00010341162
0.00010390732
0.0001044894
0.00010510758
0.00010573215
0.00010634735
0.00010694586
0.00010752497
0.00010808441
0.00010862519
0.00010914901
0.00010965798
0.00011015456
0.00011064141
0.00011112196
0.00011159937
0.00011207942
0.00011256473
0.00011306882
0.00011358553
0.00011415788
0.00011473008
0.00011545383
0.00011611884
0.00011685804
0.00011953471
0.00022304852
0.0002756232
0.00016083502
0.00010906826
8.5473037e-05
7.3775328e-05
6.779292e-05
6.480195e-05
6.3422143e-05
6.2901025e-05
6.2827841e-05
6.2976421e-05
6.3252335e-05
6.3600177e-05
6.3977788e-05
6.4359138e-05
6.4731828e-05
6.509144e-05
6.5437279e-05
6.5770125e-05
6.6091276e-05
6.6402179e-05
6.6704322e-05
6.699919e-05
6.7288351e-05
6.7573359e-05