/*--------------------------------*- C++ -*----------------------------------*\
  =========                 |
  \\      /  F ield         | OpenFOAM: The Open Source CFD Toolbox
   \\    /   O peration     | Website:  https://openfoam.org
    \\  /    A nd           | Version:  7
     \\/     M anipulation  |
\*---------------------------------------------------------------------------*/
FoamFile
{
    version     2.0;
    format      ascii;
    class       volSymmTensorField;
    location    "2000";
    object      Rall;
}
// * * * * * * * * * * * * * * * * * * * * * * * * * * * * * * * * * * * * * //

dimensions      [0 2 -2 0 0 0 0];

internalField   nonuniform List<symmTensor> 
15296
(
(0.0012098851 1.3415758e-05 5.3829098e-15 0.0010965124 4.8972423e-16 0.0010813431)
(0.0011358306 5.9984491e-06 5.4917787e-15 0.0011215788 4.8129879e-16 0.0011197921)
(0.0011267787 5.3417817e-06 1.4091181e-18 0.0011206232 7.9614876e-20 0.0011197519)
(0.001118822 5.0103011e-06 5.6396447e-15 0.0011194242 1.2022443e-16 0.0011193048)
(0.0011112664 4.7254476e-06 -5.7226766e-15 0.0011182561 2.8063963e-16 0.0011188229)
(0.0011068458 4.5096956e-06 1.1599079e-14 0.0011159517 4.3620973e-16 0.0011167106)
(0.0011043186 4.3599506e-06 5.8812426e-15 0.0011130178 5.5466871e-17 0.0011136813)
(0.0011025974 4.2550618e-06 1.6372813e-18 0.0011099017 -1.6414456e-17 0.0011103581)
(0.0011013899 4.1835522e-06 -7.3240092e-19 0.0011067178 -8.0676109e-17 0.0011069045)
(0.0011004797 4.1380822e-06 6.1272027e-15 0.00110355 4.2477225e-16 0.0011034397)
(0.0010996551 4.1110452e-06 -1.1991956e-20 0.0011004819 2.5328643e-17 0.0011000799)
(0.0010988011 4.0963322e-06 1.1376447e-18 0.0010975569 7.0392212e-17 0.0010968856)
(0.0010978816 4.0900458e-06 -1.2793616e-14 0.0010947857 -5.0284832e-16 0.0010938722)
(0.0010969003 4.0899889e-06 1.2979491e-14 0.0010921624 2.524963e-16 0.0010910324)
(0.0010958853 4.0953996e-06 9.5755527e-19 0.0010896712 -3.1657427e-17 0.001088345)
(0.0010948853 4.1069811e-06 6.6828348e-15 0.0010872877 2.1728741e-16 0.0010857776)
(0.0010939651 4.1269876e-06 6.7852176e-15 0.0010849795 1.7228612e-16 0.0010832873)
(0.0010932092 4.159485e-06 1.3773809e-14 0.0010827081 1.7651155e-16 0.0010808229)
(0.0010927255 4.2109641e-06 6.9921623e-15 0.0010804238 -2.0559999e-17 0.0010783185)
(0.0010926582 4.2914207e-06 1.6887427e-19 0.0010780615 -2.8008782e-17 0.001075688)
(0.001093206 4.4160916e-06 -2.0019498e-18 0.0010755326 -4.3879977e-17 0.0010728147)
(0.0010946487 4.6081286e-06 -1.7250059e-18 0.0010727137 2.6812743e-16 0.001069536)
(0.001097389 4.9028551e-06 7.4364216e-15 0.0010694282 2.7615256e-16 0.0010656194)
(0.0011020121 5.3541717e-06 -7.5462178e-15 0.0010654211 -2.8011344e-16 0.0010607297)
(0.0011093848 6.0453266e-06 1.8198159e-18 0.0010603171 -5.9548828e-17 0.0010543726)
(0.0011207893 7.1044369e-06 -1.5557989e-14 0.0010535636 -6.219253e-16 0.0010458205)
(0.0011381867 8.7344707e-06 -7.8961233e-15 0.0010443219 -6.3638579e-16 0.0010339645)
(0.00116451 1.1250766e-05 -1.9418574e-18 0.0010313472 -5.9955881e-17 0.0010171553)
(0.0012044906 1.5178683e-05 1.4291087e-18 0.0010126644 3.5427466e-18 0.00099274217)
(0.0012650954 2.1333314e-05 -8.1685934e-15 0.00098537346 -2.4950027e-16 0.00095681322)
(0.0013585307 3.1207534e-05 -8.1955843e-15 0.00094460206 -2.6435778e-16 0.00090253336)
(0.0015000942 4.6914241e-05 2.4974734e-19 0.00088462681 -6.1282674e-18 0.00082144546)
(0.0017148005 7.3025239e-05 -7.7865592e-15 0.00079786791 -2.7393659e-16 0.00069907326)
(0.001884589 9.7459165e-05 -6.0829461e-15 0.00073178523 -6.2913459e-16 0.0006099587)
(0.0018990305 0.00010171589 -6.8600922e-19 0.00072201273 -5.3588717e-17 0.00063023073)
(0.0019336087 0.00011303526 -3.757291e-18 0.00070644862 3.1475648e-17 0.00067259925)
(0.0020029792 9.1992919e-05 2.0308335e-15 0.00066291112 5.7496527e-16 0.00076345363)
(0.0023027082 0.00010250794 1.577124e-17 0.00056391698 -5.605537e-16 0.00099660438)
(0.0012069656 2.9894529e-05 3.0249371e-18 0.0010938962 8.8158689e-17 0.0010869996)
(0.0011359277 1.4275756e-05 -1.8290823e-15 0.0011209662 -2.4108294e-17 0.001120426)
(0.0011268787 1.2423633e-05 1.8558419e-15 0.0011203124 3.6306734e-17 0.0011200894)
(0.0011187994 1.171697e-05 -4.0153412e-18 0.001119455 6.3539156e-17 0.0011194278)
(0.001111115 1.1171275e-05 -1.9119964e-15 0.0011186075 1.8157612e-17 0.0011187576)
(0.0011066428 1.0742618e-05 1.9356175e-15 0.0011164026 2.3100258e-16 0.0011166006)
(0.0011041126 1.0419919e-05 1.9628622e-15 0.0011134371 5.581454e-17 0.0011136088)
(0.001102408 1.016664e-05 4.1478057e-18 0.0011102375 9.5499532e-18 0.0011103549)
(0.0011012291 9.9568168e-06 -2.0124801e-15 0.0011069405 -2.1158745e-16 0.0011069879)
(0.0011003541 9.7780354e-06 -2.047426e-15 0.0011036459 1.970811e-17 0.0011036164)
(0.0010995657 9.6221225e-06 -2.0771728e-15 0.0011004523 -1.1636556e-16 0.0011003474)
(0.0010987452 9.4827421e-06 2.1000171e-15 0.0010974114 1.4460965e-16 0.0010972367)
(0.0010978555 9.3554807e-06 2.1311237e-15 0.0010945362 -9.2804925e-19 0.0010942986)
(0.0010969001 9.2373531e-06 4.9332989e-18 0.0010918202 1.4436074e-16 0.0010915263)
(0.001095908 9.1262104e-06 -2.1928373e-15 0.0010892452 -2.7352002e-16 0.0010889003)
(0.0010949291 9.0204096e-06 2.2277977e-15 0.0010867834 1.8354356e-16 0.0010863905)
(0.0010940302 8.9186076e-06 2.2655054e-15 0.0010843974 8.9834961e-17 0.001083957)
(0.001093298 8.8195828e-06 -2.2984915e-15 0.0010820426 1.6497553e-16 0.0010815521)
(0.0010928438 8.7220667e-06 -1.7735805e-18 0.0010796618 5.9102342e-18 0.0010791143)
(0.0010928163 8.6245983e-06 2.3670604e-15 0.00107718 1.6017385e-16 0.0010765633)
(0.0010934198 8.5253646e-06 -4.0473534e-18 0.001074495 7.6015977e-18 0.0010737898)
(0.0010949428 8.4219699e-06 -1.8725398e-18 0.0010714646 2.0776914e-17 0.0010706416)
(0.0010978 8.311116e-06 4.1703307e-18 0.0010678852 8.3726209e-17 0.0010669011)
(0.0011025943 8.1880648e-06 3.9998616e-18 0.0010634632 -4.596193e-17 0.0010622542)
(0.0011102185 8.0459425e-06 -5.1068277e-15 0.0010577659 -1.5230533e-16 0.0010562376)
(0.001121993 7.8743111e-06 -3.7098439e-18 0.0010501566 -2.076497e-16 0.0010481697)
(0.001139937 7.6578177e-06 5.2518669e-15 0.0010396675 6.4145693e-17 0.0010370126)
(0.0011670684 7.3718639e-06 2.6649017e-15 0.001024862 2.1466493e-16 0.0010212231)
(0.0012082513 6.9819867e-06 2.9953124e-18 0.0010034507 -9.4126394e-18 0.00099833167)
(0.0012706339 6.4292816e-06 1.4489374e-18 0.00097207302 -6.8226654e-17 0.0009647034)
(0.0013667004 5.6610013e-06 -7.0961398e-19 0.00092500363 -3.392347e-17 0.00091407258)
(0.0015119217 4.5578298e-06 2.6918935e-15 0.00085543022 1.1299591e-16 0.00083888364)
(0.0017308436 4.0216865e-06 3.6498377e-18 0.00075345376 -9.1960913e-17 0.00072742719)
(0.0018929184 3.4948965e-06 -1.9730653e-15 0.00068234503 -2.2775983e-16 0.00065093816)
(0.0019074113 -4.1392278e-07 -2.2955291e-18 0.00068286266 -3.7649051e-17 0.00066058831)
(0.0019431254 7.0547841e-06 -1.2919442e-18 0.00068759135 2.8219564e-17 0.00068100213)
(0.0020083908 -5.6230628e-05 7.4113485e-18 0.00068902903 -1.0576524e-16 0.00072931577)
(0.0021641374 -0.00019254399 -1.8511057e-16 0.0002176446 -5.2595196e-16 0.0014359969)
(0.0012001841 4.6332584e-05 3.898135e-18 0.0010973919 5.1641798e-18 0.0010905399)
(0.0011354218 2.3712889e-05 1.1012663e-15 0.0011213279 1.3950463e-17 0.0011208276)
(0.0011268363 2.0266517e-05 -2.224591e-15 0.0011204078 -5.8218748e-17 0.0011203059)
(0.0011188688 1.9078986e-05 -2.2653419e-15 0.0011195298 -1.8130387e-16 0.0011195594)
(0.0011112693 1.818605e-05 2.2843705e-15 0.0011186756 1.3036323e-16 0.0011188161)
(0.0011068264 1.74869e-05 -1.1561976e-15 0.0011164653 3.9465899e-17 0.0011166397)
(0.0011042942 1.6961504e-05 1.3800615e-18 0.0011134947 1.814686e-17 0.0011136584)
(0.0011025756 1.6549514e-05 2.6778476e-18 0.0011102902 -2.1087263e-18 0.0011104265)
(0.0011013752 1.620902e-05 -1.2060239e-15 0.0011069888 -2.5077172e-16 0.0011070878)
(0.0011004752 1.5919915e-05 -4.3540282e-18 0.0011036903 -1.1922928e-16 0.0011037474)
(0.001099662 1.5668718e-05 -4.3581988e-18 0.0011004931 -7.8004879e-17 0.0011005085)
(0.0010988186 1.5444969e-05 -2.5244104e-15 0.0010974486 2.9671824e-17 0.0010974255)
(0.0010979084 1.5241383e-05 -1.2835484e-15 0.0010945699 -1.2735574e-17 0.001094512)
(0.0010969347 1.5053004e-05 -1.2962344e-15 0.0010918506 7.6558433e-17 0.0010917617)
(0.001095926 1.4876266e-05 1.3234458e-15 0.0010892725 -1.4050026e-16 0.0010891556)
(0.0010949311 1.4708511e-05 3.9203834e-18 0.0010868078 1.4538213e-16 0.0010866645)
(0.0010940154 1.4547699e-05 -2.71018e-15 0.0010844194 -8.0184813e-17 0.0010842498)
(0.0010932641 1.4392165e-05 -4.0553062e-18 0.0010820628 1.0451046e-17 0.001081865)
(0.0010927862 1.4240384e-05 -1.4017282e-15 0.0010796813 -1.2953859e-17 0.0010794506)
(0.0010927274 1.4090811e-05 -1.4203956e-15 0.0010772004 5.1502227e-17 0.0010769287)
(0.0010932878 1.3941728e-05 -1.4517708e-15 0.0010745188 -7.7407595e-17 0.0010741935)
(0.00109475 1.3791056e-05 1.4622167e-15 0.0010714955 8.9232549e-17 0.0010710972)
(0.0010975199 1.3636133e-05 1.4944329e-15 0.0010679291 1.6016148e-16 0.001067429)
(0.0011021877 1.34733e-05 -1.5065934e-15 0.001063529 -1.9889315e-16 0.0010628845)
(0.0011096269 1.3297446e-05 2.7466785e-18 0.0010578672 -1.13381e-16 0.0010570148)
(0.0011211293 1.3100689e-05 -1.5581402e-15 0.0010503142 -9.2579306e-17 0.0010491598)
(0.0011386698 1.2871458e-05 -1.5873747e-15 0.0010399135 -2.0950008e-18 0.0010383142)
(0.0011651989 1.2589092e-05 -2.9392001e-18 0.0010252458 2.4448475e-16 0.0010229842)
(0.0012054756 1.2222982e-05 1.3806054e-18 0.0010040474 -7.3765163e-18 0.0010007793)
(0.0012664882 1.1704514e-05 -1.6297604e-15 0.00097299907 -9.2198594e-17 0.00096818049)
(0.0013604921 1.0940673e-05 -1.6352976e-15 0.00092641171 -9.4997137e-17 0.00091910818)
(0.0015027547 9.5669992e-06 2.5005531e-20 0.00085748915 1.6404494e-16 0.0008461779)
(0.0017182772 7.8698021e-06 -3.0957426e-15 0.00075589081 -2.6569676e-16 0.00073764057)
(0.0018930148 4.1993175e-06 1.2715894e-18 0.000679198 -1.0714971e-16 0.00065395023)
(0.0019072841 -2.6020901e-06 -2.6300752e-18 0.00068305657 -4.6177732e-17 0.00066016121)
(0.0019426005 9.3123998e-06 7.5324113e-16 0.00069514535 2.0686192e-16 0.00067297226)
(0.0020043445 -8.1500734e-05 1.9723223e-16 0.00071154626 5.3952515e-17 0.00070736987)
(0.0021146692 -0.00014985739 -1.9124397e-17 0.00019110334 -3.6191805e-16 0.0014592258)
(0.0011957364 6.121915e-05 6.6001573e-18 0.0010994932 1.1478395e-17 0.0010932615)
(0.0011349853 3.3518909e-05 -7.8292885e-16 0.001121749 -8.9418625e-18 0.0011212342)
(0.0011268887 2.824488e-05 -7.962944e-16 0.0011205306 -8.9459795e-17 0.0011205355)
(0.0011189582 2.6534719e-05 8.0090923e-16 0.0011196712 -1.5191302e-16 0.0011197412)
(0.0011113511 2.5293507e-05 -4.7711061e-18 0.0011188658 1.2745711e-16 0.0011189632)
(0.001106909 2.4323132e-05 8.3328662e-16 0.0011166699 2.301882e-17 0.0011167765)
(0.0011043846 2.3593535e-05 2.4465063e-18 0.0011136928 4.2887937e-17 0.0011137982)
(0.0011026755 2.3020874e-05 9.6030893e-19 0.0011104744 6.2831615e-17 0.0011105743)
(0.0011014853 2.2546937e-05 3.2471614e-18 0.0011071546 -9.5196573e-17 0.0011072467)
(0.001100596 2.2143943e-05 -8.8035326e-16 0.0011038354 -1.5405081e-16 0.0011039183)
(0.001099793 2.179331e-05 8.8355412e-16 0.0011006176 3.287308e-17 0.0011006912)
(0.0010989592 2.1480593e-05 -8.5628441e-19 0.0010975539 -7.7383693e-17 0.0010976189)
(0.0010980574 2.1195721e-05 -9.1825344e-16 0.0010946579 -1.0692458e-16 0.0010947149)
(0.001097091 2.0931836e-05 4.6117324e-18 0.0010919231 2.509699e-17 0.0010919729)
(0.0010960886 2.0683977e-05 7.9739641e-18 0.001089331 -9.5706727e-18 0.0010893742)
(0.001095099 2.0448397e-05 -9.5167532e-16 0.0010868532 2.7908316e-17 0.0010868901)
(0.001094188 2.0222153e-05 5.8197032e-18 0.0010844518 -1.2173222e-16 0.0010844824)
(0.0010934409 2.0002738e-05 -4.1237947e-18 0.0010820817 -1.1102061e-17 0.0010821055)
(0.0010929669 1.9787735e-05 9.9694877e-16 0.0010796849 -7.5683125e-18 0.0010797008)
(0.0010929117 1.9574538e-05 -2.0306026e-15 0.0010771854 -1.2397424e-16 0.0010771917)
(0.001093476 1.936007e-05 -1.0416233e-15 0.00107448 -1.7164092e-16 0.001074474)
(0.0010949421 1.9140407e-05 -4.0315943e-19 0.0010714252 7.4794526e-17 0.0010714024)
(0.0010977162 1.8910285e-05 5.1164105e-18 0.0010678159 1.385799e-16 0.00106777)
(0.0011023884 1.8662255e-05 2.1612132e-15 0.0010633559 -7.2645358e-17 0.0010632775)
(0.0011098318 1.8385581e-05 -2.1854863e-15 0.0010576096 -1.1535489e-16 0.0010574844)
(0.0011213369 1.8063799e-05 -2.7645032e-18 0.001049936 -1.2396041e-16 0.001049743)
(0.0011388767 1.7672154e-05 1.1189353e-15 0.0010393607 -3.2204056e-17 0.0010390676)
(0.001165396 1.7168903e-05 1.1404063e-15 0.0010244383 2.0546557e-16 0.0010239958)
(0.0012056456 1.6490032e-05 -1.3069821e-18 0.0010028597 -9.8927443e-18 0.0010021895)
(0.0012665875 1.5509996e-05 2.3896758e-18 0.00097124135 -1.0173077e-16 0.00097021844)
(0.0013604476 1.4046541e-05 3.5763396e-18 0.00092375657 -9.8806418e-17 0.00092216319)
(0.0015023835 1.1548236e-05 1.1542917e-15 0.00085342628 1.3250519e-16 0.0008509157)
(0.0017173413 8.2355292e-06 1.1084928e-15 0.00074939295 -1.6567495e-16 0.00074527053)
(0.0018931369 2.3318172e-06 -8.6640061e-16 0.00066951088 -1.1057961e-16 0.00066358923)
(0.0019071534 -7.3888572e-06 -5.0656023e-16 0.0006741878 -4.7806838e-17 0.00066891645)
(0.0019421848 8.2481186e-06 2.6869498e-16 0.00068909532 2.7775514e-16 0.00067859972)
(0.0019992353 -9.9799593e-05 1.4402024e-16 0.00071118289 3.0491322e-16 0.00070788824)
(0.0021084357 -0.00018487963 -9.3886495e-18 0.00023105457 -1.8951396e-16 0.0014339315)
(0.0011912733 7.4718098e-05 7.6831137e-18 0.0011023998 1.9260489e-17 0.0010953096)
(0.0011344274 4.3454306e-05 -6.0864721e-16 0.0011223441 -1.0458574e-16 0.0011217215)
(0.0011269077 3.628294e-05 -6.1931417e-16 0.0011207841 -1.1978081e-16 0.0011208019)
(0.0011190723 3.4013652e-05 -6.7563642e-18 0.0011198642 1.2196028e-17 0.0011199824)
(0.0011114893 3.2421308e-05 6.3212444e-16 0.0011190502 8.0405143e-17 0.0011191961)
(0.0011070589 3.1180167e-05 -6.4056416e-16 0.0011168522 4.5513516e-17 0.0011170059)
(0.001104542 3.0246945e-05 3.5025888e-18 0.0011138734 2.8084518e-17 0.0011140267)
(0.0011028379 2.951434e-05 6.636635e-16 0.0011106533 9.7382086e-17 0.0011108034)
(0.0011016509 2.8907889e-05 8.1867984e-19 0.0011073321 1.6566726e-17 0.0011074769)
(0.0011007638 2.839204e-05 1.359838e-15 0.0011040116 -1.7413442e-17 0.00110415)
(0.0010999627 2.7942976e-05 6.8533768e-16 0.0011007922 1.1961505e-16 0.0011009241)
(0.0010991304 2.7542179e-05 -3.41167e-18 0.001097727 -5.2959313e-17 0.0010978526)
(0.0010982298 2.7176785e-05 -3.2521733e-18 0.0010948294 -1.1934105e-16 0.0010949492)
(0.0010972643 2.6838088e-05 7.2918541e-16 0.0010920932 1.2085741e-16 0.0010922075)
(0.0010962622 2.6519826e-05 -7.2313732e-16 0.0010894997 -3.5890077e-17 0.001089609)
(0.0010952724 2.6217269e-05 -7.3888399e-16 0.0010870207 -9.851573e-17 0.001087125)
(0.0010943604 2.592666e-05 -2.2568456e-15 0.0010846184 -1.82607e-16 0.0010847175)
(0.0010936111 2.564475e-05 -7.704556e-16 0.0010822476 -7.1132881e-17 0.0010823412)
(0.0010931336 2.5368348e-05 -7.8407623e-16 0.0010798505 -2.7395078e-17 0.0010799377)
(0.001093073 2.5093975e-05 -7.9197658e-16 0.0010773514 -1.8676184e-16 0.0010774307)
(0.0010936288 2.4817505e-05 7.9045749e-16 0.0010746474 -1.0143614e-16 0.0010747166)
(0.0010950823 2.4533663e-05 8.1697955e-16 0.0010715955 6.8815839e-17 0.0010716511)
(0.0010978374 2.4235351e-05 -1.6468816e-15 0.0010679915 -3.9017982e-17 0.0010680281)
(0.001102481 2.3912501e-05 8.4018698e-16 0.0010635406 6.8222249e-17 0.0010635505)
(0.0011098813 2.3550544e-05 1.7108764e-15 0.0010578093 1.797664e-17 0.0010577806)
(0.001121321 2.3127135e-05 -1.8177264e-18 0.0010501598 -7.8657415e-17 0.0010500749)
(0.0011387608 2.2608509e-05 8.6910075e-16 0.0010396229 1.192639e-16 0.0010394546)
(0.0011651249 2.1938076e-05 8.8567753e-16 0.0010247619 1.9503272e-16 0.0010244686)
(0.0012051328 2.1028186e-05 -4.3450827e-18 0.0010032809 -2.8469302e-17 0.0010027961)
(0.0012656891 1.9709719e-05 9.0990327e-16 0.00097182011 4.482766e-17 0.00097103811)
(0.0013589433 1.7730751e-05 9.1585217e-16 0.00092458219 -2.9388502e-17 0.00092331561)
(0.0014999321 1.4365584e-05 -9.0163872e-16 0.00085462306 -9.5401179e-18 0.0008525901)
(0.0017136733 9.7356239e-06 -8.6180451e-16 0.00075101181 -9.2599141e-17 0.00074762674)
(0.0018932606 1.7813512e-06 4.1359134e-18 0.000669117 -1.1566422e-16 0.00066404587)
(0.0019070262 -1.0863927e-05 5.1202265e-18 0.00067401911 -1.2463401e-17 0.00066908224)
(0.0019418215 7.8512583e-06 -2.1907462e-16 0.00069079798 8.0584578e-17 0.00067659818)
(0.0019937859 -0.00010976689 -1.0149689e-16 0.00071428957 1.6052322e-16 0.00070337629)
(0.0021255561 -0.0002133434 5.1459781e-17 0.00026382243 3.2433093e-18 0.0014176145)
(0.0011861625 8.9990345e-05 8.3978453e-18 0.001105972 2.1925227e-17 0.001097632)
(0.0011336847 5.6274899e-05 3.1864684e-19 0.0011231988 -8.9405848e-17 0.0011224574)
(0.0011269202 4.6705136e-05 2.4391899e-18 0.0011212203 -1.142403e-16 0.0011212204)
(0.0011192468 4.3663299e-05 -6.4095291e-16 0.0011201843 -1.2534322e-16 0.0011203688)
(0.0011117041 4.1616187e-05 -6.5123599e-16 0.0011193434 -1.1904041e-17 0.0011195803)
(0.0011072918 4.0029454e-05 5.103252e-18 0.0011171391 2.2740884e-18 0.0011173871)
(0.0011047872 3.8835894e-05 5.7156755e-18 0.0011141587 3.5689722e-18 0.0011144043)
(0.0011030921 3.7898295e-05 -6.713107e-16 0.0011109377 1.8406049e-17 0.0011111783)
(0.0011019114 3.7121727e-05 -6.8054456e-16 0.0011076169 -5.6918752e-17 0.0011078493)
(0.0011010292 3.6460891e-05 -6.9551627e-16 0.0011042973 -2.4627048e-17 0.0011045197)
(0.0011002321 3.5885433e-05 6.9160832e-16 0.0011010787 7.3530181e-17 0.0011012909)
(0.0010994031 3.537172e-05 -7.9727025e-18 0.001098014 -4.6777845e-17 0.0010982165)
(0.0010985051 3.4903326e-05 7.2008761e-16 0.0010951167 -4.9697234e-17 0.0010953102)
(0.0010975415 3.4469133e-05 9.3902339e-18 0.0010923804 1.7086123e-16 0.0010925656)
(0.0010965405 3.4061131e-05 8.0613688e-18 0.0010897869 -3.1757576e-17 0.0010899642)
(0.001095551 3.3673254e-05 3.8309871e-18 0.001087308 -9.9621159e-17 0.0010874775)
(0.0010946382 3.3300686e-05 1.0487358e-17 0.0010849059 -1.3778304e-16 0.0010850675)
(0.0010938869 3.2939266e-05 -1.5561653e-15 0.0010825358 -1.9576561e-16 0.0010826889)
(0.0010934056 3.2584927e-05 7.8042479e-16 0.0010801401 3.3440118e-17 0.0010802834)
(0.0010933388 3.2233259e-05 -8.0338895e-16 0.0010776434 -1.0578919e-16 0.0010777749)
(0.0010938853 3.1879047e-05 -8.2509684e-16 0.0010749438 -6.1100375e-17 0.0010750603)
(0.0010953245 3.1515644e-05 8.2716554e-16 0.0010718991 1.5143801e-16 0.0010719956)
(0.0010980585 3.1134116e-05 9.3659361e-18 0.0010683065 -6.5916223e-17 0.0010683758)
(0.0011026702 3.0721809e-05 4.036455e-18 0.0010638737 3.433313e-17 0.0010639047)
(0.0011100224 3.0260423e-05 5.4364442e-18 0.0010581704 1.4166491e-16 0.0010581467)
(0.0011213889 2.9721927e-05 -8.7948344e-16 0.0010505645 -7.3956646e-17 0.0010504616)
(0.0011387166 2.9063975e-05 -8.8723263e-18 0.0010400954 1.3983944e-16 0.0010398755)
(0.001164906 2.8215673e-05 -7.4173405e-18 0.0010253403 8.9451292e-17 0.0010249461)
(0.0012046402 2.7067169e-05 9.061306e-16 0.0010040262 3.7906165e-17 0.0010033646)
(0.0012647564 2.5406669e-05 9.2340356e-16 0.00097283226 1.6639311e-16 0.00097175854)
(0.0013573097 2.2918946e-05 5.2918607e-18 0.00092602339 6.4110452e-18 0.00092427123)
(0.0014971869 1.8702545e-05 9.0990376e-16 0.00085673309 -1.8731124e-17 0.00085391588)
(0.0017094298 1.281334e-05 -8.7543385e-16 0.00075410672 -1.6642768e-16 0.00074931494)
(0.0018935058 2.7157351e-06 7.0635972e-16 0.00067050194 1.2715296e-17 0.00066280025)
(0.0019069624 -1.3554324e-05 6.2645056e-18 0.00067526697 -6.2871301e-17 0.00066787785)
(0.0019414929 7.8148693e-06 -2.2709833e-16 0.00069401082 -1.2303529e-16 0.00067310325)
(0.0019869331 -0.00011188553 4.2982335e-18 0.0007167611 3.8667478e-17 0.00069673734)
(0.0021429823 -0.00024855496 -3.4161458e-17 0.00029587761 -9.1323513e-17 0.0014163213)
(0.0011807112 0.00010712169 9.8849276e-18 0.0011097056 3.5881779e-17 0.001100651)
(0.0011326462 7.2308482e-05 -1.9383865e-18 0.0011245196 -5.8450669e-17 0.0011235872)
(0.0011269251 5.9996902e-05 4.3206517e-16 0.0011219324 -1.0700676e-17 0.0011219438)
(0.0011195277 5.5939568e-05 -5.9463044e-18 0.0011207194 -1.0434056e-16 0.0011210152)
(0.0011120565 5.331445e-05 8.8693154e-16 0.0011198429 1.9266719e-17 0.001120208)
(0.0011076765 5.1295651e-05 -8.9391012e-16 0.0011176283 -7.0350735e-17 0.0011180059)
(0.0011051932 4.9775871e-05 6.745525e-18 0.0011146424 1.3595426e-17 0.0011150177)
(0.0011035131 4.8580269e-05 -4.6418515e-16 0.0011114179 -4.6569774e-17 0.0011117884)
(0.0011023425 4.7588719e-05 -4.6960541e-16 0.001108095 -9.9864485e-17 0.0011084575)
(0.0011014675 4.6744002e-05 -2.2301841e-18 0.0011047738 -6.295484e-17 0.0011051261)
(0.0011006762 4.6007841e-05 -1.1499618e-17 0.0011015537 6.296643e-17 0.0011018953)
(0.0010998517 4.5350367e-05 4.7924502e-16 0.0010984874 5.8586476e-17 0.0010988186)
(0.0010989571 4.4750748e-05 4.9884218e-16 0.0010955884 2.6483153e-17 0.0010959098)
(0.0010979958 4.4194827e-05 -4.9259016e-16 0.0010928504 7.140414e-17 0.0010931624)
(0.001096996 4.3672336e-05 6.52731e-18 0.0010902552 -1.1332427e-17 0.0010905582)
(0.0010960065 4.3175456e-05 3.8184716e-18 0.0010877745 -5.0533592e-17 0.0010880686)
(0.0010950923 4.2697963e-05 -5.1777701e-16 0.001085371 -7.229714e-17 0.0010856561)
(0.0010943377 4.223448e-05 -5.3578475e-16 0.0010829997 -2.4297165e-16 0.0010832752)
(0.0010938509 4.1779767e-05 -7.8168313e-18 0.0010806033 4.6718522e-17 0.0010808683)
(0.0010937755 4.1328127e-05 -5.5868686e-16 0.0010781068 -1.188374e-16 0.0010783597)
(0.0010943091 4.0872798e-05 5.4976281e-16 0.0010754088 -2.9676066e-17 0.0010756469)
(0.0010957293 4.0405108e-05 2.7747331e-18 0.0010723678 1.4328755e-16 0.0010725872)
(0.0010984351 3.9913342e-05 8.8574495e-18 0.0010687823 -1.5074611e-17 0.0010689771)
(0.0011030051 3.938086e-05 7.6202584e-18 0.0010643619 3.1361764e-17 0.0010645232)
(0.0011102948 3.8783551e-05 -1.1868516e-15 0.0010586792 -4.2514325e-17 0.0010587938)
(0.0011215668 3.8084519e-05 -6.0815833e-16 0.001051107 -8.7139176e-17 0.0010511549)
(0.0011387503 3.7227966e-05 -1.2366449e-15 0.0010406919 -1.0899609e-17 0.0010406424)
(0.0011647159 3.6120876e-05 6.1267788e-16 0.0010260237 5.6006458e-17 0.0010258302)
(0.0012041003 3.4618825e-05 6.2316627e-16 0.0010048492 1.3604901e-16 0.0010044344)
(0.0012636558 3.2445992e-05 6.3745823e-16 0.00097388336 2.0301889e-16 0.00097312924)
(0.0013553175 2.9189765e-05 4.6684655e-18 0.00092744052 1.3707929e-17 0.0009261158)
(0.0014937882 2.3710047e-05 6.2350379e-16 0.00085870695 3.2000698e-17 0.00085651231)
(0.001704158 1.5892604e-05 1.2112874e-15 0.00075676287 4.8847655e-17 0.0007529002)
(0.0018939946 2.7563027e-06 8.1705181e-18 0.00067013856 6.705133e-17 0.00066344564)
(0.0019070111 -1.7989999e-05 2.9007129e-16 0.00067428597 -6.6403927e-17 0.00066907436)
(0.0019413795 4.3248517e-06 -8.5332115e-19 0.00069444877 -1.4033411e-16 0.0006724415)
(0.001977732 -0.0001098535 1.2071099e-18 0.00071596626 1.9398799e-17 0.00069070789)
(0.0021532019 -0.00029292407 -9.4926477e-18 0.000337149 -1.6907695e-16 0.0014022227)
(0.0011756563 0.00012373751 -5.816357e-16 0.001113409 -6.240894e-17 0.0011039044)
(0.0011314534 8.9748818e-05 3.0030246e-16 0.0011262152 -5.4466588e-17 0.00112509)
(0.0011269305 7.4943967e-05 -8.8680761e-19 0.0011229409 6.5585592e-17 0.001122983)
(0.0011199202 6.9755187e-05 -7.0383703e-18 0.0011214851 -2.4662479e-17 0.0011219419)
(0.0011125555 6.6484323e-05 3.0819748e-16 0.0011205542 1.0659441e-16 0.0011211057)
(0.0011082239 6.3990794e-05 3.2876543e-16 0.0011183229 -6.2587547e-17 0.0011188899)
(0.0011057722 6.2112493e-05 9.9603805e-18 0.001115328 3.1081433e-18 0.0011158928)
(0.0011041135 6.0632259e-05 -2.653347e-18 0.0011120984 -3.2821169e-17 0.0011126576)
(0.0011029575 5.9402724e-05 1.3999049e-18 0.0011087727 -9.2792569e-17 0.0011093224)
(0.0011020931 5.8353861e-05 -3.37379e-16 0.0011054494 -5.7587706e-17 0.0011059872)
(0.0011013098 5.7438841e-05 -6.9584721e-16 0.0011022274 -4.6295809e-17 0.0011027526)
(0.0011004915 5.6620999e-05 6.8015841e-16 0.0010991591 1.1354906e-16 0.0010996719)
(0.0010996014 5.5874707e-05 1.0559399e-15 0.001096258 1.806345e-16 0.0010967588)
(0.001098643 5.5182507e-05 1.460954e-17 0.0010935179 4.4021375e-17 0.0010940069)
(0.0010976447 5.4531706e-05 7.2227124e-18 0.0010909204 1.3783335e-18 0.001091398)
(0.001096655 5.3912603e-05 3.2659114e-18 0.0010884374 -4.4037411e-17 0.0010889039)
(0.001095739 5.3317451e-05 -7.3881403e-16 0.0010860318 -1.7364914e-16 0.001086487)
(0.0010949805 5.2739558e-05 -3.7783252e-16 0.0010836586 -2.3804377e-16 0.0010841022)
(0.0010944871 5.2172401e-05 -7.6855123e-18 0.0010812608 -1.7690834e-17 0.001081692)
(0.0010944016 5.1608896e-05 -7.5280731e-18 0.0010787639 -1.3090394e-16 0.0010791815)
(0.0010949202 5.1040626e-05 3.8760789e-16 0.0010760671 1.0197887e-16 0.0010764689)
(0.0010963184 5.0456776e-05 4.0650338e-16 0.0010730298 1.5893741e-16 0.0010734125)
(0.0010989919 4.9842713e-05 9.7708574e-18 0.0010694521 -9.6557214e-18 0.0010698108)
(0.0011035142 4.9177634e-05 -4.0923921e-16 0.0010650458 -3.1308388e-17 0.001065373)
(0.0011107329 4.8431379e-05 5.6350147e-18 0.0010593874 -6.8398109e-17 0.0010596715)
(0.0011218977 4.7557809e-05 -4.3129957e-16 0.0010518552 -6.781801e-17 0.001052079)
(0.001138918 4.648717e-05 -7.4818134e-18 0.0010415052 -8.1487246e-17 0.0010416413)
(0.0011646307 4.5103344e-05 -4.483063e-16 0.0010269425 3.144567e-18 0.0010269495)
(0.0012036201 4.3226155e-05 -4.5205726e-16 0.0010059377 6.5142942e-17 0.001005745)
(0.0012625435 4.0512463e-05 5.6411913e-19 0.00097525116 1.5762795e-16 0.00097475158)
(0.0013532 3.6449171e-05 3.0298209e-18 0.00092925829 -1.8889686e-18 0.0009282286)
(0.0014900854 2.9650637e-05 -5.7059445e-18 0.0008612204 -2.0790984e-17 0.00085939768)
(0.0016983543 1.9772783e-05 -4.2929622e-16 0.00076014695 1.4019059e-16 0.00075677717)
(0.0018947647 3.3121066e-06 7.0238631e-18 0.00067031354 4.8856722e-17 0.0006637275)
(0.0019072793 -2.212719e-05 2.3518118e-18 0.00067381712 -2.2851324e-17 0.00066994599)
(0.0019414361 -1.7814737e-06 1.1616145e-16 0.00069542532 -3.9911054e-17 0.00067140698)
(0.001969352 -0.0001019139 -2.0655743e-18 0.00071733717 -3.5082208e-17 0.00068176068)
(0.0021552816 -0.00033394146 -3.1105437e-17 0.00037819789 -6.2415357e-17 0.0013795838)
(0.0011709048 0.00013949374 -4.1781722e-16 0.0011172226 -1.0036612e-16 0.0011075661)
(0.001130236 0.00010849834 -4.3543285e-16 0.0011282385 -3.5410692e-17 0.0011270649)
(0.0011269655 9.1627157e-05 -1.7771245e-19 0.0011243207 1.3053238e-17 0.0011244298)
(0.0011204622 8.5258713e-05 -7.7453649e-18 0.0011225534 -3.5852203e-17 0.0011232384)
(0.001113253 8.1285145e-05 -8.0815945e-18 0.0011215375 9.0087389e-17 0.0011223629)
(0.0011089917 7.8277237e-05 7.1916633e-18 0.0011192781 4.2179223e-17 0.0011201284)
(0.0011065854 7.6009714e-05 -4.5573402e-16 0.0011162682 -7.0548294e-17 0.0011171192)
(0.0011049575 7.4218551e-05 -5.3542635e-18 0.0011130294 -8.5292799e-18 0.0011138758)
(0.0011038223 7.2727359e-05 4.8132392e-16 0.0011096983 -2.214793e-17 0.0011105344)
(0.0011029731 7.1452781e-05 -5.5523465e-19 0.0011063712 -3.6828742e-17 0.0011071936)
(0.0011022012 7.0339089e-05 -8.1458231e-18 0.0011031459 -8.3507872e-17 0.0011039533)
(0.0011013913 6.9342447e-05 -9.0710269e-18 0.0011000745 7.7022427e-17 0.0011008666)
(0.0011005072 6.8432116e-05 -4.205951e-18 0.0010971703 2.3038871e-16 0.0010979471)
(0.0010995528 6.7587123e-05 -2.4680636e-16 0.001094427 4.8353541e-17 0.0010951887)
(0.0010985563 6.679218e-05 -2.5575689e-16 0.0010918263 -3.2580414e-17 0.001092573)
(0.0010975664 6.6035553e-05 -1.4001851e-18 0.0010893402 -3.714878e-17 0.0010900718)
(0.0010966481 6.5307836e-05 2.7786229e-16 0.0010869318 -1.3075999e-16 0.0010876482)
(0.0010958846 6.4600869e-05 6.0815269e-18 0.0010845561 -1.3759933e-16 0.0010852568)
(0.0010953829 6.3906675e-05 -2.8468197e-16 0.0010821566 -1.0529051e-16 0.0010828406)
(0.001095285 6.3216572e-05 -5.5860074e-18 0.0010796593 -7.9601566e-17 0.0010803252)
(0.0010957855 6.2520217e-05 -6.3333056e-18 0.0010769643 1.276668e-16 0.0010776096)
(0.0010971575 6.1804299e-05 2.9129859e-16 0.0010739321 1.9886339e-16 0.0010745534)
(0.0010997931 6.1050794e-05 -2.90063e-16 0.0010703648 -2.5497357e-17 0.0010709566)
(0.0011042599 6.0234078e-05 -2.9171016e-16 0.001065977 -5.7627267e-17 0.0010665315)
(0.001111397 5.9317032e-05 -2.981683e-16 0.0010603493 -5.4584985e-17 0.0010608545)
(0.0011224397 5.8242971e-05 -3.1382254e-16 0.0010528671 -1.1246812e-16 0.0010533053)
(0.0011392754 5.6926355e-05 -9.1408717e-18 0.001042597 -5.7872025e-17 0.0010429404)
(0.0011647038 5.522519e-05 -6.4493434e-16 0.0010281615 -1.0367317e-16 0.0010283688)
(0.0012032514 5.2919792e-05 -3.39655e-18 0.0010073584 -9.1213162e-18 0.0010073588)
(0.0012614715 4.9593144e-05 9.4681042e-19 0.000976999 1.1585797e-16 0.00097668815)
(0.0013510126 4.4623453e-05 6.6535474e-19 0.00093152801 5.6877915e-18 0.00093067759)
(0.0014861448 3.6372669e-05 -5.3179488e-18 0.00086428728 -4.3953939e-17 0.00086266242)
(0.0016921032 2.4195805e-05 3.1439024e-16 0.000764204 6.4658032e-17 0.00076108179)
(0.0018959121 4.0382257e-06 7.3635334e-18 0.00067081305 7.0987848e-17 0.0006639178)
(0.0019078661 -2.6091919e-05 -1.4853933e-16 0.00067361089 -7.9559837e-17 0.00067080642)
(0.0019415099 -1.1226721e-05 -2.6669667e-18 0.00069602279 -5.2680903e-18 0.00067096176)
(0.0019635719 -9.0189713e-05 3.7630244e-17 0.00071996715 3.1831743e-17 0.00067274876)
(0.002143467 -0.00036785711 -1.0509838e-18 0.00041260874 -2.0647761e-17 0.001354406)
(0.0011673087 0.00015442371 1.071767e-17 0.0011206562 -3.8643034e-17 0.0011114156)
(0.0011291813 0.00012836972 3.7942569e-18 0.001130592 -4.5467057e-17 0.0011295975)
(0.0011270788 0.00011007811 4.8373706e-19 0.0011261708 -2.6717483e-17 0.0011263947)
(0.0011211991 0.00010259957 -7.1203561e-18 0.001124035 -1.0500013e-18 0.0011250088)
(0.0011142051 9.7896314e-05 -3.3920902e-16 0.0011229023 -7.8739902e-18 0.0011240781)
(0.0011100427 9.4344395e-05 -3.3354472e-16 0.0011206034 -2.8735524e-17 0.0011218168)
(0.0011076992 9.1663884e-05 -3.2894999e-16 0.001117573 -9.2318052e-17 0.00111879)