/*--------------------------------*- C++ -*----------------------------------*\
  =========                 |
  \\      /  F ield         | OpenFOAM: The Open Source CFD Toolbox
   \\    /   O peration     | Website:  https://openfoam.org
    \\  /    A nd           | Version:  7
     \\/     M anipulation  |
\*---------------------------------------------------------------------------*/
FoamFile
{
    version     2.0;
    format      ascii;
    class       volVectorField;
    location    "2000";
    object      U;
}
// * * * * * * * * * * * * * * * * * * * * * * * * * * * * * * * * * * * * * //

dimensions      [0 1 -1 0 0 0 0];

internalField   nonuniform List<vector> 
15296
(
(1.2142725 6.7685637e-06 9.1831065e-17)
(1.2140664 8.4503943e-07 6.234175e-17)
(1.2139774 3.7194885e-07 -3.3193043e-17)
(1.2139381 -1.054246e-08 -1.7404207e-17)
(1.2139895 -3.6468033e-07 8.7254617e-17)
(1.2140821 -4.7452915e-07 1.1724555e-16)
(1.2141769 -4.4273037e-07 8.8747603e-18)
(1.2142606 -3.569415e-07 -1.5415638e-17)
(1.2143262 -2.4099606e-07 -8.4742764e-17)
(1.2143689 -1.1200675e-07 3.3322058e-17)
(1.2143877 1.3919348e-08 -4.4496021e-18)
(1.2143839 1.284283e-07 3.388206e-17)
(1.21436 2.2930947e-07 -7.3799598e-17)
(1.2143181 3.173632e-07 9.7257526e-17)
(1.2142603 3.9516515e-07 -6.2306185e-17)
(1.2141882 4.6666452e-07 4.7096804e-17)
(1.2141021 5.3690763e-07 -1.3858961e-17)
(1.2140016 6.1203476e-07 -1.3927803e-17)
(1.2138846 6.9966843e-07 -1.6671201e-17)
(1.2137475 8.0964814e-07 -2.6049426e-17)
(1.2135839 9.5517236e-07 -2.4275649e-17)
(1.2133843 1.1544709e-06 9.091491e-17)
(1.2131342 1.4333846e-06 6.068767e-17)
(1.2128125 1.8290063e-06 -7.4554279e-17)
(1.2123875 2.3958038e-06 -6.0539794e-17)
(1.2118129 3.2137275e-06 -1.7255373e-16)
(1.2110197 4.4049097e-06 -9.7748325e-17)
(1.2099037 6.1518279e-06 5.5099621e-17)
(1.2083089 8.7531942e-06 1.2064685e-17)
(1.2059879 1.2660594e-05 -2.7701434e-17)
(1.2025645 1.8719684e-05 -6.0999932e-17)
(1.1973809 2.8182485e-05 2.9778074e-17)
(1.189436 4.4045123e-05 -8.1932245e-17)
(1.17662 7.0313437e-05 -1.7432073e-16)
(1.1554658 0.0001170765 -5.4861156e-17)
(1.1167246 0.00020458906 8.1529031e-17)
(1.039215 0.00032266797 7.3180025e-16)
(0.88400781 0.00056017424 -2.4375573e-15)
(1.214262 1.8971018e-05 -4.8209147e-17)
(1.214062 2.4078322e-06 -1.4573283e-16)
(1.2139734 1.0281483e-06 -1.2167691e-16)
(1.2139342 -8.4896967e-08 -1.5887345e-16)
(1.2139858 -1.1226872e-06 1.1121904e-16)
(1.2140785 -1.4547774e-06 9.5981415e-17)
(1.2141733 -1.3760958e-06 -1.1946418e-17)
(1.2142572 -1.1403112e-06 -4.4274111e-17)
(1.2143229 -8.158153e-07 -2.5151282e-16)
(1.2143657 -4.5192596e-07 -1.9005547e-16)
(1.2143847 -9.5606243e-08 -3.467936e-17)
(1.2143811 2.2859835e-07 7.3845652e-17)
(1.2143573 5.1405035e-07 9.2636489e-17)
(1.2143156 7.6290888e-07 1.717401e-16)
(1.214258 9.8255776e-07 -2.0601653e-16)
(1.214186 1.1844711e-06 1.8356424e-17)
(1.2141001 1.383423e-06 -1.7232881e-16)
(1.2139998 1.5974922e-06 -1.7825315e-16)
(1.213883 1.8492314e-06 -5.0771254e-17)
(1.2137461 2.167875e-06 -7.6720692e-17)
(1.2135829 2.5927704e-06 -6.0533918e-17)
(1.2133838 3.1784177e-06 1.5595443e-16)
(1.2131344 4.0022432e-06 3.8846572e-17)
(1.2128136 5.1756403e-06 -8.6870187e-17)
(1.21239 6.8624599e-06 -1.8308092e-16)
(1.2118175 9.3038734e-06 -2.2582111e-16)
(1.2110274 1.2868765e-05 4.5882626e-17)
(1.2099161 1.8110741e-05 2.3779105e-16)
(1.2083286 2.5935879e-05 4.2552436e-17)
(1.2060189 3.7725147e-05 6.7766809e-17)
(1.2026135 5.6050799e-05 -3.9779975e-17)
(1.1974589 8.4775533e-05 1.1253765e-16)
(1.1895629 0.00013289394 -7.0997777e-17)
(1.1768318 0.00021510584 -1.103705e-16)
(1.1558526 0.00037284402 -1.4142029e-16)
(1.1174878 0.00070708997 2.2247005e-16)
(1.0409636 0.0013767664 1.9637466e-16)
(0.88419125 -2.3697299e-05 -4.3439667e-15)
(1.2142401 2.8074862e-05 -8.838452e-17)
(1.2140518 3.7100284e-06 -1.3551885e-16)
(1.2139645 1.5899035e-06 -2.324924e-16)
(1.2139259 -1.4846331e-07 -2.9603434e-16)
(1.2139778 -1.7722898e-06 2.0300149e-16)
(1.2140707 -2.295155e-06 -1.194178e-18)
(1.2141658 -2.1755998e-06 -6.5121736e-17)
(1.2142499 -1.8096534e-06 -8.1202806e-17)
(1.2143159 -1.3045411e-06 -2.1781541e-16)
(1.2143589 -7.373764e-07 -2.6041068e-16)
(1.2143781 -1.8164394e-07 5.4007295e-17)
(1.2143748 3.2412808e-07 -4.1393726e-18)
(1.2143512 7.6944008e-07 7.7163882e-17)
(1.2143097 1.1575929e-06 1.8470278e-16)
(1.2142523 1.5000839e-06 -9.3483136e-17)
(1.2141805 1.8148264e-06 -1.0219116e-16)
(1.2140949 2.1249102e-06 -3.309677e-16)
(1.2139948 2.4586018e-06 -3.9769979e-16)
(1.2138783 2.8511691e-06 -8.8637014e-17)
(1.2137418 3.3483325e-06 -2.6182073e-16)
(1.213579 4.0116288e-06 -1.0994309e-16)
(1.2133803 4.9262875e-06 2.6484179e-16)
(1.2131317 6.2133746e-06 3.0722166e-17)
(1.2128119 8.0470329e-06 -1.3543977e-16)
(1.2123898 1.0683347e-05 -1.7244851e-16)
(1.2118193 1.44991e-05 -2.7664434e-16)
(1.2110324 2.0070371e-05 -6.1799009e-17)
(1.2099258 2.8261067e-05 2.0670489e-16)
(1.2083456 4.0484441e-05 7.6903968e-17)
(1.2060472 5.8891359e-05 1.2766775e-16)
(1.2026599 8.748899e-05 -7.3882816e-17)
(1.1975348 0.0001322854 9.7709245e-17)
(1.1896893 0.00020729571 -9.014406e-17)
(1.1770477 0.00033580095 -8.1469272e-17)
(1.1562495 0.00058443405 -1.8724952e-16)
(1.1182567 0.0011170449 2.8711954e-16)
(1.04295 0.0022790374 1.4076697e-15)
(0.88352701 -0.00072072321 -2.6130348e-15)
(1.2142085 3.7209146e-05 -1.2509934e-16)
(1.214036 5.0309082e-06 -2.5783396e-16)
(1.213951 2.19496e-06 -2.4420425e-16)
(1.2139132 -2.1681554e-07 -2.098894e-16)
(1.2139656 -2.4775218e-06 1.3757186e-16)
(1.214059 -3.2062538e-06 3.7727459e-17)
(1.2141545 -3.0398621e-06 -8.7811921e-17)
(1.214239 -2.5298632e-06 -1.0759163e-16)
(1.2143052 -1.8259094e-06 -1.5031251e-16)
(1.2143486 -1.0353735e-06 -2.7607681e-16)
(1.2143681 -2.6062176e-07 9.7359724e-17)
(1.2143651 4.4457507e-07 3.1348509e-17)
(1.2143418 1.0655093e-06 1.5796597e-16)
(1.2143006 1.6067324e-06 2.3772269e-16)
(1.2142435 2.0842231e-06 -1.1812395e-16)
(1.2141721 2.5228955e-06 -2.1352504e-16)
(1.2140867 2.9548657e-06 -3.6114165e-16)
(1.2139869 3.4194433e-06 -5.2013017e-16)
(1.2138708 3.9656576e-06 -1.0803502e-16)
(1.2137346 4.6570475e-06 -3.4630825e-16)
(1.2135723 5.5791054e-06 -8.1946219e-17)
(1.2133742 6.8502023e-06 2.8577867e-16)
(1.2131264 8.6384338e-06 -7.9828865e-17)
(1.2128076 1.1185512e-05 -1.851414e-17)
(1.2123871 1.4846799e-05 -2.0511e-16)
(1.2118188 2.0144911e-05 -3.530206e-16)
(1.211035 2.7878752e-05 -2.2032084e-17)
(1.2099334 3.9245367e-05 1.753169e-16)
(1.2083606 5.6203038e-05 1.1131678e-16)
(1.2060737 8.1726218e-05 2.4882707e-16)
(1.2027049 0.00012136107 -2.3274325e-17)
(1.1976096 0.00018338418 5.3851083e-17)
(1.1898153 0.00028711331 6.4737854e-17)
(1.1772638 0.00046413464 -6.6688335e-17)
(1.1566493 0.00080675986 -2.198389e-16)
(1.1190165 0.0015362565 -1.7954229e-16)
(1.0450658 0.0031987811 1.2224954e-15)
(0.88388917 -0.00061998069 -1.9151398e-15)
(1.2141685 4.5429022e-05 -1.7199046e-16)
(1.2140145 6.2001076e-06 -2.7670688e-16)
(1.2139328 2.7731e-06 -2.6418409e-16)
(1.2138961 -2.9402974e-07 -2.3706841e-16)
(1.2139494 -3.1867679e-06 1.314554e-16)
(1.2140434 -4.1194483e-06 -1.6641648e-18)
(1.2141394 -3.9054251e-06 -1.5819028e-16)
(1.2142244 -3.2511753e-06 -2.0519701e-16)
(1.2142911 -2.348569e-06 -1.8857795e-16)
(1.2143349 -1.3349619e-06 -2.5117034e-16)
(1.2143548 -3.4144092e-07 7.5244924e-17)
(1.2143521 5.6301105e-07 9.3820316e-17)
(1.2143292 1.3594593e-06 2.7969394e-16)
(1.2142884 2.053669e-06 2.9486488e-16)
(1.2142317 2.6660471e-06 -1.4784191e-16)
(1.2141605 3.228444e-06 -2.5441134e-16)
(1.2140755 3.7819302e-06 -4.0800199e-16)
(1.2139761 4.3767701e-06 -6.811189e-16)
(1.2138604 5.0756342e-06 -1.4559129e-16)
(1.2137246 5.9597043e-06 -3.3680267e-16)
(1.2135628 7.138165e-06 6.8115397e-18)
(1.2133654 8.762131e-06 3.5003075e-16)
(1.2131184 1.1046128e-05 -1.5125249e-16)
(1.2128007 1.4298524e-05 -6.6132041e-17)
(1.2123817 1.8972568e-05 -1.7458502e-16)
(1.2118157 2.573452e-05 -3.6812441e-16)
(1.2110353 3.5602716e-05 -4.7078459e-17)
(1.2099385 5.010164e-05 1.1472937e-16)
(1.2083732 7.1725668e-05 1.4827255e-16)
(1.206098 0.00010425602 3.6265865e-16)
(1.2027477 0.00015475257 3.643264e-18)
(1.1976823 0.0002337079 1.122356e-17)
(1.1899392 0.00036567813 9.735437e-17)
(1.1774777 0.00059061956 -9.3364358e-18)
(1.1570477 0.0010253038 -2.3305115e-16)
(1.1197601 0.0019430705 -7.1880019e-16)
(1.0472463 0.0041153436 2.3972829e-16)
(0.884847 -0.00043933233 -1.3080506e-15)
(1.2141069 5.4932653e-05 -2.3816186e-16)
(1.2139794 7.5697317e-06 -2.5204404e-16)
(1.2139034 3.4713001e-06 -2.1266459e-16)
(1.2138687 -4.1047603e-07 -3.5052189e-16)
(1.2139232 -4.1119283e-06 9.3875264e-17)
(1.2140183 -5.3063094e-06 -1.4686207e-17)
(1.2141152 -5.0295231e-06 -2.0117899e-16)
(1.2142009 -4.1873448e-06 -3.3978611e-16)
(1.2142683 -3.026733e-06 -2.6814854e-16)
(1.2143127 -1.7236938e-06 -4.0014395e-16)
(1.2143332 -4.4629934e-07 -2.1425662e-17)
(1.2143312 7.1676137e-07 1.4131914e-16)
(1.2143088 1.7410198e-06 4.4455737e-16)
(1.2142685 2.6337671e-06 2.335709e-16)
(1.2142124 3.4211058e-06 -1.4042623e-16)
(1.2141417 4.1438274e-06 -2.1536239e-16)
(1.2140573 4.8545471e-06 -3.3107964e-16)
(1.2139584 5.6176377e-06 -7.7560002e-16)
(1.2138432 6.5133088e-06 -1.4659886e-16)
(1.2137081 7.645387e-06 -2.9884917e-16)
(1.213547 9.1534278e-06 2.1943195e-17)
(1.2133505 1.123048e-05 3.8097477e-16)
(1.2131046 1.4150493e-05 -9.3796853e-17)
(1.2127885 1.8307084e-05 -1.3166188e-16)
(1.2123716 2.4278631e-05 -3.2716203e-16)
(1.2118085 3.2914847e-05 -4.5952945e-16)
(1.2110324 4.5514179e-05 -1.8865113e-16)
(1.209942 6.4018413e-05 2.0142455e-17)
(1.2083865 9.1605069e-05 2.139145e-16)
(1.2061263 0.00013307956 3.7949235e-16)
(1.2027999 0.00019742565 7.9356156e-18)
(1.1977733 0.00029792797 7.550669e-17)
(1.1900961 0.00046573461 2.0844368e-16)
(1.1777503 0.00075083322 6.3815424e-17)
(1.1575589 0.0013007317 -3.0628799e-16)
(1.1206975 0.0024457178 -8.1415731e-16)
(1.0500978 0.0052747485 1.8150782e-16)
(0.88658668 -3.9840969e-05 -2.7432601e-15)
(1.2140114 6.509978e-05 -3.3081112e-16)
(1.2139202 8.9874586e-06 -2.5439258e-16)
(1.2138541 4.2315472e-06 -1.8080572e-16)
(1.2138229 -6.0968699e-07 -1.8976509e-16)
(1.2138797 -5.3198933e-06 2.1074634e-16)
(1.2139765 -6.8424352e-06 -1.1446972e-17)
(1.2140749 -6.4833098e-06 -2.6555426e-16)
(1.2141618 -5.3992586e-06 -3.9741562e-16)
(1.2142303 -3.9082097e-06 -2.2145661e-16)
(1.2142758 -2.2351425e-06 -4.0451078e-16)
(1.2142973 -5.9487167e-07 -6.0400635e-17)
(1.2142962 8.9883551e-07 2.3740381e-16)
(1.2142748 2.2144041e-06 5.7388979e-16)
(1.2142353 3.3610244e-06 1.5296712e-16)
(1.21418 4.3719947e-06 -1.6781764e-16)
(1.2141102 5.2994141e-06 -2.1146677e-16)
(1.2140265 6.2105073e-06 -3.6617361e-16)
(1.2139285 7.1875053e-06 -7.6654204e-16)
(1.2138142 8.3328075e-06 -2.8557574e-16)
(1.21368 9.7788633e-06 -3.301314e-16)
(1.21352 1.1703569e-05 1.0802813e-16)
(1.2133247 1.4352844e-05 3.1608176e-16)
(1.2130804 1.8075475e-05 -9.9938689e-17)
(1.2127663 2.3372326e-05 -1.7775684e-16)
(1.2123522 3.097905e-05 -5.3651069e-16)
(1.211793 4.1975668e-05 -4.919627e-16)
(1.2110225 5.8011983e-05 -3.4234236e-16)
(1.2099404 8.1552124e-05 -1.9976466e-19)
(1.2083973 0.00011662828 1.9115407e-16)
(1.2061563 0.00016932121 3.3241352e-16)
(1.2028605 0.00025101337 4.271913e-18)
(1.197883 0.00037844121 6.2834753e-17)
(1.1902894 0.00059090631 4.1475805e-16)
(1.1780896 0.00095048622 1.0767526e-17)
(1.1582026 0.0016432044 -2.1380778e-16)
(1.1218505 0.003056032 -5.7686187e-16)
(1.0537186 0.0067409498 2.2748887e-18)
(0.88973293 0.00091499578 -1.0352218e-15)
(1.213885 7.4598362e-05 -4.6699846e-16)
(1.2138355 1.0023826e-05 -2.5423618e-16)
(1.2137835 4.8806625e-06 -2.8348746e-16)
(1.2137575 -9.1723737e-07 -2.294037e-16)
(1.2138176 -6.7316156e-06 1.4192929e-16)
(1.2139169 -8.6122823e-06 1.3365297e-16)
(1.2140173 -8.1532427e-06 -3.5146389e-16)
(1.214106 -6.7910752e-06 -4.3046756e-16)
(1.2141761 -4.9235562e-06 -1.7275569e-16)
(1.2142231 -2.8302204e-06 -4.7123339e-16)
(1.2142459 -7.7813872e-07 -1.7276372e-16)
(1.2142461 1.0907139e-06 1.3442698e-16)
(1.2142259 2.7367354e-06 6.608783e-16)
(1.2141877 4.1712487e-06 1.8569817e-16)
(1.2141335 5.4356417e-06 -1.9550145e-16)
(1.2140648 6.594714e-06 -2.2093772e-16)
(1.2139822 7.7320821e-06 -3.6073555e-16)
(1.2138853 8.9499842e-06 -6.9763843e-16)
(1.2137721 1.0375634e-05 -3.7097859e-16)
(1.2136392 1.217343e-05 -2.4575558e-16)
(1.2134805 1.4564002e-05 1.1016951e-16)
(1.2132869 1.7852116e-05 2.8501763e-16)
(1.2130445 2.2469757e-05 -1.0770115e-16)
(1.2127328 2.9036875e-05 -2.6124639e-16)
(1.212322 3.8463598e-05 -4.9459988e-16)
(1.2117673 5.2085025e-05 -5.433589e-16)
(1.2110032 7.1939834e-05 -3.3084995e-16)
(1.2099306 0.00010106856 -8.6377533e-17)
(1.2084017 0.00014444669 7.5610203e-17)
(1.2061823 0.00020955306 2.1648127e-16)
(1.2029208 0.00031040785 -5.7496465e-18)
(1.1979986 0.0004674952 4.4080669e-17)
(1.1904986 0.00072902451 3.3315039e-16)
(1.1784612 0.0011696151 -3.083535e-17)
(1.1589171 0.0020186357 -1.9727533e-16)
(1.1231042 0.0037055162 -3.5445934e-16)
(1.057703 0.0083535726 -2.6363715e-17)
(0.89414751 0.0021600853 4.0293933e-16)
(1.2137219 8.3122254e-05 -3.6120066e-16)
(1.213718 1.0471878e-05 -2.4888219e-16)
(1.2136847 5.2919843e-06 -4.5027206e-16)
(1.2136662 -1.3984548e-06 -2.3360376e-16)
(1.2137309 -8.4046472e-06 2.386341e-17)
(1.2138338 -1.0671141e-05 1.8008375e-16)
(1.2139371 -1.0088876e-05 -4.202597e-16)
(1.2140282 -8.405283e-06 -5.1001182e-16)
(1.2141005 -6.1076804e-06 -9.3211928e-17)
(1.2141495 -3.5360508e-06 -4.7489216e-16)
(1.2141742 -1.0157718e-06 -2.7522934e-17)
(1.2141761 1.2794695e-06 3.154439e-17)
(1.2141576 3.3010187e-06 4.5614404e-16)
(1.2141209 5.0626068e-06 1.4955873e-16)
(1.2140682 6.6147227e-06 -2.4961272e-16)
(1.214001 8.0364388e-06 -2.1343297e-16)
(1.2139199 9.4297806e-06 -1.474769e-16)
(1.2138245 1.0919425e-05 -5.762802e-16)
(1.2137129 1.2660361e-05 -4.1522559e-16)
(1.2135815 1.4852683e-05 -1.8177778e-16)
(1.2134246 1.7764667e-05 -5.9755228e-17)
(1.2132329 2.176659e-05 1.2507159e-16)
(1.2129929 2.7382922e-05 -1.1791669e-16)
(1.2126842 3.5365802e-05 -2.1646928e-16)
(1.2122772 4.6818803e-05 -6.1112641e-16)
(1.2117278 6.3359315e-05 -5.9296295e-16)
(1.2109711 8.7455988e-05 -3.4146747e-16)
(1.2099092 0.00012278456 -4.580332e-17)
(1.2083963 0.00017536007 1.0440598e-16)
(1.2062013 0.00025419055 1.4653615e-16)
(1.2029783 0.00037619056 8.5821515e-18)
(1.1981178 0.00056589985 1.0779494e-16)
(1.190722 0.00088124986 3.2852297e-16)
(1.1788643 0.0014095796 -7.9747971e-17)
(1.1597046 0.0024296578 -2.1438168e-16)
(1.1244646 0.0043921624 -4.9664762e-16)
(1.0620011 0.010108102 4.0284977e-16)
(0.8998444 0.0036937814 6.0018234e-16)
(1.2135163 9.0536312e-05 -3.229571e-16)
(1.2135588 1.0104395e-05 -2.3922399e-16)
(1.2135491 5.2816652e-06 -4.9485703e-16)
(1.2135409 -2.1465305e-06 -2.3123154e-16)
(1.2136119 -1.0402604e-05 -7.8154685e-17)
(1.2137197 -1.3068603e-05 1.0112533e-16)
(1.2138268 -1.2326179e-05 -3.2265908e-16)
(1.2139213 -1.0264302e-05 -6.1229079e-16)
(1.2139965 -7.470117e-06 -1.69482e-16)
(1.2140481 -4.350061e-06 -5.6902857e-16)
(1.2140753 -1.294117e-06 1.462576e-17)
(1.2140796 1.488598e-06 -4.3031103e-17)
(1.2140632 3.9393235e-06 2.9044399e-16)
(1.2140287 6.0745677e-06 1.4550259e-16)
(1.2139781 7.9550919e-06 -2.0615537e-16)
(1.2139128 9.6760264e-06 -2.1994444e-16)
(1.2138337 1.1360087e-05 -1.1868939e-16)
(1.2137402 1.3157144e-05 -6.0585011e-16)
(1.2136305 1.5253328e-05 -2.9492797e-16)
(1.2135012 1.7888688e-05 -1.4404554e-16)
(1.2133465 2.1384771e-05 -2.0375853e-16)
(1.2131573 2.6185e-05 -1.1146986e-16)
(1.2129202 3.2917038e-05 -8.4778672e-17)
(1.2126151 4.2480377e-05 -2.0438293e-16)
(1.2122127 5.6194117e-05 -6.0370218e-16)
(1.2116694 7.5989766e-05 -5.3704944e-16)
(1.2109213 0.00010481425 -3.5631714e-16)
(1.2098716 0.00014704783 1.1373769e-16)
(1.2083769 0.00020985925 1.3076935e-16)
(1.2062095 0.00030394114 4.3673953e-17)
(1.2030297 0.0004494071 -1.2353267e-17)
(1.1982386 0.00067521975 1.6311847e-16)
(1.1909596 0.0010500215 3.4325136e-16)
(1.1793014 0.0016738089 -1.95465e-16)
(1.1605739 0.002883145 1.1230687e-17)
(1.125954 0.0051227733 -5.3806066e-16)
(1.0666008 0.012024506 -3.4435283e-16)
(0.9069682 0.0056825887 1.195799e-15)
(1.213261 9.6979241e-05 -3.6772679e-16)
(1.2133476 8.7163171e-06 -2.0397057e-16)
(1.2133662 4.5771101e-06 -5.5526321e-16)
(1.2133714 -3.3394029e-06 -3.1683082e-16)
(1.2134508 -1.2871195e-05 3.2638403e-17)
(1.213565 -1.5938598e-05 3.1638411e-16)
(1.2136773 -1.4987327e-05 -2.5922136e-16)
(1.2137761 -1.247812e-05 -5.3364614e-16)
(1.2138551 -9.1085031e-06 -1.3895953e-16)
(1.2139103 -5.3574217e-06 -7.5032218e-16)
(1.2139408 -1.6863584e-06 1.1742995e-16)
(1.2139481 1.6559248e-06 -1.1885165e-16)
(1.2139346 4.599368e-06 3.1955165e-16)
(1.2139028 7.1636955e-06 4.6570038e-17)
(1.2138549 9.4212911e-06 -2.2976739e-16)
(1.2137922 1.1485402e-05 -1.4593435e-16)
(1.2137156 1.3502064e-05 -1.62178e-16)
(1.2136246 1.5649511e-05 -4.6723658e-16)
(1.2135175 1.8148877e-05 -2.9723629e-16)
(1.2133908 2.128503e-05 -1.6604857e-16)
(1.2132389 2.5439155e-05 -3.8039078e-16)
(1.2130528 3.113643e-05 -2.3008892e-16)
(1.2128192 3.9119677e-05 -2.2147744e-16)
(1.2125185 5.0452586e-05 -2.7594415e-16)
(1.2121215 6.6694122e-05 -6.108438e-16)
(1.2115854 9.0124695e-05 -5.0456411e-16)
(1.2108473 0.00012422189 -3.4663348e-16)
(1.2098117 0.00017414477 3.8336987e-17)
(1.2083378 0.00024833712 1.0714343e-16)
(1.2062016 0.00035933714 6.7087047e-17)
(1.2030708 0.00053077284 -1.7114538e-16)
(1.1983579 0.00079638762 1.8555357e-16)
(1.1912102 0.0012365867 3.4809118e-16)
(1.1797743 0.0019632459 -1.3254401e-16)
(1.1615332 0.0033806186 -1.0701533e-16)
(1.1275999 0.0058902567 -7.9020823e-16)
(1.0714708 0.014062686 -6.5128892e-16)
(0.91573544 0.0080821374 1.8502232e-15)
(1.2129444 0.00010224572 -7.499102e-17)
(1.2130727 6.1549733e-06 -3.4806661e-16)
(1.213123 2.9064493e-06 -5.0990672e-16)
(1.2131449 -5.1610031e-06 -3.1274275e-16)
(1.2132352 -1.5935346e-05 3.9580988e-17)
(1.2133577 -1.9376969e-05 2.8801432e-16)
(1.2134768 -1.8146495e-05 -3.0170682e-16)
(1.2135813 -1.510235e-05 -7.0084229e-16)
(1.2136654 -1.1062534e-05 -3.5186516e-16)
(1.2137252 -6.5840093e-06 -7.8604912e-16)
(1.2137599 -2.2064868e-06 -3.5699028e-17)
(1.2137712 1.7774188e-06 -2.393161e-16)
(1.2137616 5.2852903e-06 1.3589648e-16)
(1.2137334 8.3407257e-06 -3.3878904e-17)
(1.2136888 1.1029318e-05 -4.0599396e-17)
(1.2136296 1.3484723e-05 -2.1474962e-16)
(1.2135562 1.5879152e-05 -1.5459069e-16)
(1.2134685 1.842259e-05 -6.1482622e-16)
(1.2133646 2.137523e-05 -5.2213619e-16)
(1.2132414 2.5071796e-05 -1.5657346e-16)
(1.213093 2.9959637e-05 -5.4598662e-16)
(1.2129108 3.6654404e-05 -6.1046359e-16)
(1.2126816 4.6026105e-05 -3.7445289e-16)
(1.2123861 5.9319425e-05 -3.4422384e-16)
(1.2119956 7.8357313e-05 -6.2945744e-16)
(1.211468 0.00010580326 -4.6653591e-16)
(1.2107413 0.00014571668 -3.3424017e-16)
(1.2097219 0.00020410685 1.4579358e-16)
(1.2082716 0.00029080908 9.5920808e-17)
(1.2061706 0.00042035552 6.9787291e-17)
(1.2030948 0.00062018273 -3.6585805e-16)
(1.198469 0.00092911194 2.1721663e-16)
(1.1914679 0.0014403497 5.7242648e-16)
(1.180277 0.0022764022 -1.3443507e-16)
(1.162575 0.0039199286 -1.058642e-16)
(1.1294084 0.0066884669 -8.4484337e-16)
(1.0765272 0.016192353 -1.9120993e-15)
(0.92602707 0.010854357 2.2500756e-15)
(1.2125563 0.00010624111 -7.7528765e-17)
(1.2127193 2.3017111e-06 -3.1328787e-16)
(1.2128039 -4.6209555e-08 -3.8480191e-16)
(1.2128456 -7.8670236e-06 -2.8018553e-16)
(1.2129496 -1.979219e-05 -2.6887282e-19)
(1.2130829 -2.3546387e-05 3.6633232e-16)
(1.2132106 -2.193842e-05 -5.175883e-16)
(1.2133224 -1.8247941e-05 -7.1192637e-16)
(1.2134132 -1.3422567e-05 -3.3641196e-16)
(1.2134789 -8.1017977e-06 -9.4347427e-16)
(1.2135192 -2.9101947e-06 -3.4244125e-16)
(1.2135357 1.8114685e-06 -4.1151848e-16)
(1.2135309 5.9674892e-06 1.7723144e-17)
(1.2135074 9.5862564e-06 -1.3671814e-16)
(1.2134674 1.276845e-05 -1.0451609e-16)
(1.2134125 1.5670744e-05 -3.2397509e-16)
(1.2133434 1.8494715e-05 -1.369545e-16)
(1.2132599 2.1485825e-05 -6.8059768e-16)
(1.2131603 2.4947745e-05 -6.6982358e-16)
(1.2130413 2.9270464e-05 -4.4125225e-16)
(1.2128974 3.4974411e-05 -8.1076277e-16)
(1.2127201 4.2774863e-05 -6.8189223e-16)
(1.2124964 5.3681507e-05 -3.2358215e-16)
(1.2122072 6.9137308e-05 -3.1761242e-16)
(1.2118244 9.1253803e-05 -5.2483138e-16)
(1.2113068 0.00012311205 -3.9388954e-16)
(1.2105933 0.00016940453 -3.0683712e-16)
(1.2095924 0.00023706079 2.7549022e-16)
(1.2081687 0.00033742161 8.5067618e-17)
(1.2061073 0.00048715077 -1.6702944e-16)
(1.2030928 0.00071777215 -2.3304589e-16)
(1.1985637 0.0010734064 1.9537356e-16)
(1.1917255 0.0016611925 3.8820153e-16)
(1.1808032 0.0026106234 3.9560067e-17)
(1.1636911 0.0044982386 -5.3023028e-17)
(1.1313876 0.0075090479 -5.0902144e-16)
(1.0817272 0.018362591 -1.0316341e-15)
(0.93766647 0.013920602 1.8205738e-15)
(1.2120816 0.00010959041 -5.0254791e-17)
(1.2122698 -2.7036325e-06 -1.6751701e-16)
(1.2123897 -4.6150471e-06 -3.0266654e-16)
(1.2124536 -1.1742578e-05 -1.5595229e-16)
(1.2125741 -2.4654204e-05 -2.2688199e-17)
(1.2127206 -2.8608152e-05 2.377046e-16)
(1.2128592 -2.6478684e-05 -5.1694655e-16)
(1.2129804 -2.1991359e-05 -6.8105808e-16)
(1.2130795 -1.6231929e-05 -3.8970436e-16)
(1.2131529 -9.9253936e-06 -8.8636501e-16)
(1.2132002 -3.7870996e-06 -4.4912151e-16)
(1.2132233 1.78996e-06 -3.8958354e-16)
(1.2132248 6.6961972e-06 -1.9831762e-17)
(1.2132073 1.0966107e-05 -1.1823442e-16)
(1.2131731 1.4717719e-05 -1.7375453e-16)
(1.2131237 1.8133699e-05 -3.5964538e-16)
(1.2130601 2.1448551e-05 -2.7921431e-16)
(1.212982 2.494733e-05 -5.8021218e-16)
(1.2128878 2.8982022e-05 -7.5399007e-16)
(1.2127743 3.4003801e-05 -7.6291788e-16)
(1.2126361 4.0613711e-05 -9.6670128e-16)
(1.2124648 4.9636596e-05 -5.8464285e-16)
(1.2122478 6.2235412e-05 -2.7989212e-16)
(1.2119663 8.0070233e-05 -1.276555e-17)
(1.2115929 0.00010556807 -4.0348507e-16)
(1.2110869 0.00014226529 -3.0766608e-16)
(1.2103889 0.0001955438 -2.4861281e-16)
(1.2094092 0.00027333029 3.1208012e-16)
(1.2080159 0.00038859696 1.1483361e-17)
(1.2059993 0.00056028834 -1.8902904e-16)
(1.2030536 0.0008243261 -3.6687256e-16)
(1.1986326 0.001230313 6.2844122e-17)
(1.1919772 0.0019007475 6.3209631e-17)
(1.1813513 0.0029676319 3.8106215e-17)
(1.164884 0.0051182111 1.3328997e-18)
(1.1335668 0.0083555168 -4.3559922e-16)
(1.0871107 0.020552629 -4.6373739e-17)
(0.95061395 0.017318017 -2.0845012e-17)
(1.2114931 0.00011125089 -3.9884635e-17)
(1.2117035 -8.389987e-06 -8.8783979e-17)
(1.2118574 -1.1182414e-05 -2.7891808e-16)
(1.2119447 -1.7216292e-05 -3.4478787e-16)
(1.212084 -3.0900448e-05 1.570479e-17)
(1.2122463 -3.4928673e-05 1.2602348e-16)
(1.2123983 -3.2102589e-05 -7.0799241e-16)
(1.2125311 -2.6633416e-05 -8.2361115e-16)
(1.2126405 -1.9761126e-05 -5.6940077e-16)
(1.2127235 -1.2297562e-05 -9.4099347e-16)
(1.2127797 -5.054345e-06 -5.1467573e-16)
(1.2128112 1.5187786e-06 -2.024777e-16)
(1.2128206 7.2977268e-06 -9.8926194e-17)
(1.2128107 1.2324739e-05 4.6064214e-17)
(1.2127837 1.6737896e-05 -1.8663872e-16)
(1.2127415 2.0749362e-05 -4.8892602e-16)
(1.2126848 2.4630749e-05 -5.3842473e-16)
(1.2126135 2.8711518e-05 -4.5599065e-16)
(1.2125261 3.3397615e-05 -7.2537425e-16)
(1.2124195 3.9208279e-05 -6.6551674e-16)
(1.2122884 4.6833828e-05 -9.46271e-16)
(1.2121246 5.7220009e-05 -7.3356852e-16)
(1.2119159 7.1698343e-05 -3.1724841e-16)
(1.2116437 9.2166978e-05 2.1852653e-16)
(1.2112814 0.00012139782 -1.476694e-16)
(1.2107892 0.00016342353 -1.1782046e-16)
(1.2101092 0.00022437485 -9.9496544e-17)
(1.209154 0.00031325633 1.2832946e-16)
(1.2077954 0.00044479736 -4.6245922e-19)
(1.2058295 0.00064037094 -2.270833e-16)
(1.2029615 0.00094058541 -4.9438129e-16)
(1.1986612 0.001400594 -1.487031e-16)
(1.1922109 0.0021597222 -6.3136963e-17)
(1.1819124 0.0033485434 -9.8267653e-17)
(1.1661457 0.0057776295 1.1366133e-16)
(1.1359584 0.009224233 -7.0021601e-16)
(1.0926801 0.022730219 4.6979311e-16)
(0.96481872 0.02096725 1.316009e-15)
(1.2106322 0.00010543105 -4.2805375e-17)
(1.2108578 -1.4230381e-05 -3.303107e-17)
(1.2110501 -2.1290873e-05 -4.2037501e-17)
(1.2111653 -2.6260967e-05 -2.1825771e-16)
(1.211329 -4.028905e-05 5.8016411e-17)
(1.2115135 -4.4191371e-05 -1.1255215e-16)
(1.2116844 -4.0317036e-05 -6.8216875e-16)
(1.211834 -3.3408394e-05 -1.1337183e-15)
(1.2119587 -2.494793e-05 -7.1371995e-16)
(1.2120557 -1.5863801e-05 -6.6153248e-16)
(1.2121251 -7.0832415e-06 -4.0285647e-16)
(1.212169 8.7257042e-07 1.3315984e-16)
(1.2121902 7.8610086e-06 -9.4018652e-18)
(1.2121916 1.3935596e-05 -6.4198258e-17)
(1.2121756 1.9262094e-05 -2.3914327e-16)
(1.212144 2.4092514e-05 -3.7883497e-16)
(1.2120977 2.8748031e-05 -4.3572108e-16)
(1.2120366 3.3616961e-05 -3.6754853e-16)
(1.2119594 3.9176241e-05 -5.0867674e-16)
(1.2118631 4.6034127e-05 -6.4104414e-16)
(1.2117425 5.4996984e-05 -1.0729154e-15)
(1.2115899 6.7166997e-05 -6.9111895e-16)
(1.2113931 8.4092892e-05 -3.2796352e-16)
(1.2111345 0.0001079788 3.1186161e-16)
(1.2107879 0.00014203773 -1.2333339e-16)
(1.2103151 0.00019093643 -1.8585695e-16)
(1.20966 0.00026175427 -9.5283891e-17)
(1.208738 0.00036486447 -1.8796064e-16)
(1.2074261 0.00051718759 1.0596123e-16)
(1.2055279 0.00074315788 -3.9319848e-16)
(1.2027627 0.0010890859 -4.8268615e-16)
(1.1986209 0.0016168392 -5.1290846e-16)
(1.1924401 0.0024864387 -3.1255586e-16)
(1.1825672 0.003822246 -2.4438445e-16)
(1.1676895 0.0065855809 -7.0884418e-17)
(1.1390223 0.010277606 -5.8978863e-16)
(1.0994321 0.025064327 -4.1745938e-16)
(0.98279647 0.026005081 1.6472046e-16)
(1.2094362 9.2658352e-05 -1.1999224e-16)
(1.2096643 -1.9878155e-05 1.225301e-16)
(1.2098908 -3.4585323e-05 9.7886362e-17)
(1.2100338 -3.9660129e-05 -9.1084726e-17)
(1.2102245 -5.3619329e-05 -1.5340601e-16)
(1.2104356 -5.7082383e-05 -9.8574991e-17)
(1.2106308 -5.1746881e-05 -4.6000038e-16)
(1.2108024 -4.2876827e-05 -7.2817638e-16)
(1.2109476 -3.2298296e-05 -6.9845838e-16)
(1.2110638 -2.1093333e-05 -4.4718216e-16)
(1.2111513 -1.0318178e-05 -5.4477114e-16)
(1.2112124 -5.7507993e-07 7.9180388e-17)
(1.2112501 7.9727807e-06 -1.0453492e-16)
(1.2112674 1.5394744e-05 -1.4991565e-16)
(1.2112668 2.1892253e-05 -3.3973661e-16)
(1.2112501 2.7767095e-05 -1.6993742e-16)
(1.2112184 3.3401224e-05 -2.7037889e-16)
(1.2111718 3.9254283e-05 -2.5817438e-16)
(1.2111089 4.5888485e-05 -3.3910841e-16)
(1.211027 5.4018215e-05 -7.1415513e-16)
(1.2109213 6.4587507e-05 -1.0051219e-15)
(1.2107841 7.888327e-05 -9.4573368e-16)
(1.2106038 9.8709364e-05 -4.5252311e-16)
(1.2103634 0.00012662814 -9.9596879e-17)
(1.2100379 0.000166366 -8.2285636e-17)
(1.2095905 0.00022332638 -1.4728082e-16)
(1.2089673 0.00030568004 -4.1515873e-17)
(1.2080875 0.00042537665 -4.101823e-17)
(1.2068338 0.00060181135 -3.450562e-16)
(1.2050188 0.00086289421 -2.1538794e-16)
(1.2023789 0.0012612306 -5.4525344e-16)
(1.1984277 0.0018656966 -5.4545107e-16)
(1.1925691 0.0028596468 -4.7943427e-16)
(1.1832023 0.0043553404 -3.8299617e-16)
(1.1693385 0.0074795291 -6.7083999e-17)
(1.1425329 0.011467276 -3.9378055e-16)
(1.1067604 0.027297302 1.7418121e-16)
(1.0029598 0.031722989 2.8407123e-16)
(1.2079835 8.2770242e-05 1.3557345e-16)
(1.208212 -2.52329e-05 8.1701534e-17)
(1.2084681 -4.9186559e-05 1.5706255e-16)
(1.2086354 -5.532994e-05 -1.6033818e-16)
(1.2088511 -6.9383087e-05 -2.4185279e-16)
(1.2090887 -7.2405529e-05 2.07725e-17)
(1.2093095 -6.5410195e-05 1.9541533e-17)
(1.209505 -5.4292911e-05 -1.4431574e-16)
(1.2096729 -4.1308851e-05 -3.2403654e-16)
(1.2098108 -2.7711199e-05 -2.5165127e-16)
(1.209919 -1.4692704e-05 -3.3635782e-16)
(1.21 -2.9425874e-06 3.980866e-17)
(1.210057 7.3550659e-06 -1.3974384e-16)
(1.2100929 1.6288116e-05 -3.4907345e-16)
(1.2101104 2.4097217e-05 -3.8603846e-16)
(1.2101114 3.113784e-05 -2.8053287e-16)
(1.2100971 3.7856725e-05 -2.9314841e-16)
(1.2100676 4.4788709e-05 -1.8344802e-16)
(1.2100218 5.258488e-05 -3.2312429e-16)
(1.2099571 6.2069051e-05 -7.9348589e-16)
(1.2098689 7.4326121e-05 -7.2852987e-16)
(1.2097498 9.0831015e-05 -8.7020734e-16)
(1.2095888 0.00011364574 -5.4202763e-16)
(1.2093696 0.00014569309 -5.089467e-16)
(1.2090681 0.0001912138 -2.4334992e-16)
(1.2086492 0.00025634459 -1.0152732e-16)
(1.2080614 0.00035033801 2.1091775e-17)
(1.2072277 0.00048668732 1.4402263e-16)
(1.2060368 0.00068721227 -2.8012557e-16)
(1.2043104 0.00098310281 -5.8164992e-16)
(1.2018025 0.0014331588 -4.2710868e-16)
(1.1980499 0.0021117897 -4.7129026e-16)
(1.1925233 0.0032263891 -2.9018517e-16)
(1.1836781 0.0048708466 -4.6007786e-16)
(1.1708096 0.0083251122 -3.7357156e-16)
(1.1459569 0.012576232 -4.8288963e-16)
(1.1136261 0.029089338 -2.9265669e-16)
(1.0223366 0.036416607 -7.4069522e-17)
(1.2062208 7.4352203e-05 4.6814342e-17)
(1.2064535 -3.1144851e-05 1.7201284e-16)
(1.2067391 -6.4775252e-05 1.9327567e-16)
(1.20693 -7.2998269e-05 8.9604271e-17)
(1.2071696 -8.7465978e-05 7.2071169e-17)
(1.2074336 -9.0172887e-05 2.4478377e-17)
(1.2076807 -8.143856e-05 -5.6518364e-17)
(1.2079016 -6.7858274e-05 -1.5460826e-16)
(1.2080941 -5.2212925e-05 -1.6926419e-16)
(1.2082559 -3.5962171e-05 -1.1979718e-16)
(1.2083872 -2.0451985e-05 -2.4882492e-16)
(1.2084906 -6.4698334e-06 -1.0811433e-16)
(1.2085694 5.7756664e-06 4.9705041e-17)
(1.2086266 1.6391808e-05 -3.8744585e-16)
(1.208665 2.5660963e-05 -3.9469079e-16)
(1.2086864 3.3995558e-05 -3.1333005e-16)
(1.2086923 4.191073e-05 -2.1745404e-16)
(1.2086828 5.0020072e-05 -6.5189026e-18)
(1.2086569 5.9066893e-05 -2.3630635e-16)
(1.2086122 6.9987512e-05 -3.2441582e-16)
(1.2085444 8.4010456e-05 -3.7249458e-16)
(1.2084464 0.00010280103 -6.4871365e-16)
(1.2083077 0.00012868127 -4.6627051e-16)
(1.2081126 0.00016493502 -4.7547321e-16)
(1.2078384 0.00021631541 -2.3304062e-16)
(1.2074514 0.00028968479 -2.7710842e-16)
(1.2069027 0.00039536159 -3.5918067e-16)
(1.2061191 0.00054833897 -1.0298149e-16)
(1.2049955 0.00077279811 -1.6223635e-16)
(1.2033631 0.0011029749 -2.93541e-16)
(1.2009937 0.0016037543 -3.3993174e-16)
(1.1974474 0.0023535489 -3.1686659e-16)
(1.1922604 0.0035840226 -3.7675895e-16)
(1.1839501 0.0053667118 -4.3066376e-16)
(1.1720508 0.0091133083 -3.2004242e-16)
(1.1492085 0.013608573 -2.5012375e-16)
(1.1200229 0.030464919 -2.7813858e-16)
(1.0405321 0.040284869 -2.195757e-16)
(1.2040983 6.6399766e-05 1.7643396e-16)