/*--------------------------------*- C++ -*----------------------------------*\
  =========                 |
  \\      /  F ield         | OpenFOAM: The Open Source CFD Toolbox
   \\    /   O peration     | Website:  https://openfoam.org
    \\  /    A nd           | Version:  7
     \\/     M anipulation  |
\*---------------------------------------------------------------------------*/
FoamFile
{
    version     2.0;
    format      ascii;
    class       volScalarField;
    location    "2000";
    object      k;
}
// * * * * * * * * * * * * * * * * * * * * * * * * * * * * * * * * * * * * * //

dimensions      [0 2 -2 0 0 0 0];

internalField   nonuniform List<scalar> 
15296
(
0.0016937641
0.0016882381
0.0016828606
0.0016776051
0.0016724486
0.0016673782
0.0016623849
0.0016574622
0.0016526047
0.0016478078
0.0016430674
0.0016383798
0.0016337419
0.0016291508
0.0016246037
0.0016200983
0.0016156315
0.0016112019
0.0016068075
0.0016024464
0.0015981169
0.0015938173
0.0015895459
0.001585301
0.0015810813
0.0015768858
0.001572715
0.0015685727
0.0015644729
0.0015604251
0.0015565012
0.0015529137
0.0015504854
0.0015509621
0.0015555778
0.0015627115
0.0016240049
0.0016239302
0.0016938233
0.0016882944
0.00168292
0.0016776659
0.0016725105
0.0016674412
0.0016624488
0.0016575269
0.0016526702
0.001647874
0.0016431343
0.0016384474
0.0016338102
0.0016292196
0.0016246731
0.0016201682
0.0016157019
0.0016112728
0.0016068789
0.0016025183
0.0015981893
0.0015938901
0.0015896192
0.0015853748
0.0015811555
0.0015769605
0.0015727901
0.0015686481
0.0015645484
0.0015605004
0.0015565745
0.001552979
0.0015505258
0.0015510023
0.0015556281
0.0015625332
0.001624649
0.00160286
0.0016939477
0.0016884163
0.0016830456
0.0016777926
0.001672638
0.0016675691
0.001662577
0.0016576553
0.0016527986
0.0016480024
0.0016432626
0.0016385755
0.0016339381
0.0016293472
0.0016248004
0.0016202953
0.0016158287
0.0016113992
0.0016070049
0.001602644
0.0015983146
0.001594015
0.0015897437
0.0015854989
0.0015812792
0.0015770838
0.0015729131
0.0015687704
0.0015646701
0.0015606208
0.0015566919
0.0015530873
0.0015506053
0.0015510667
0.0015556812
0.0015622743
0.0016253884
0.0015541019
0.0016941307
0.0016886016
0.001683234
0.0016779817
0.0016728271
0.001667758
0.0016627655
0.0016578431
0.0016529857
0.0016481887
0.0016434479
0.0016387598
0.0016341212
0.0016295292
0.0016249812
0.0016204749
0.001616007
0.0016115762
0.0016071807
0.0016028184
0.0015984877
0.0015941869
0.0015899143
0.0015856682
0.0015814472
0.0015772505
0.0015730784
0.0015689343
0.0015648323
0.001560781
0.0015568482
0.0015532335
0.0015507196
0.0015511607
0.0015557517
0.0015620377
0.0016257663
0.0015370492
0.0016943704
0.0016888501
0.0016834845
0.0016782324
0.0016730774
0.0016680073
0.0016630136
0.0016580899
0.0016532309
0.0016484321
0.0016436895
0.0016389995
0.0016343589
0.0016297648
0.0016252147
0.0016207062
0.0016162362
0.0016118032
0.0016074054
0.0016030409
0.001598708
0.001594405
0.0015901301
0.0015858818
0.0015816587
0.0015774598
0.0015732854
0.0015691389
0.0015650344
0.0015609801
0.0015570426
0.0015534171
0.0015508695
0.0015512855
0.0015558425
0.0015618472
0.0016253393
0.0015385003
0.0016947523
0.0016892517
0.0016838875
0.001678635
0.0016734787
0.0016684066
0.0016634104
0.0016584838
0.0016536217
0.0016488196
0.0016440735
0.0016393798
0.0016347355
0.0016301376
0.0016255835
0.001621071
0.001616597
0.00161216
0.0016077581
0.0016033896
0.0015990526
0.0015947455
0.0015904666
0.0015862143
0.0015819872
0.0015777842
0.0015736058
0.0015694551
0.001565346
0.0015612868
0.0015573419
0.0015537016
0.0015511087
0.0015514879
0.0015559887
0.0015616846
0.0016238002
0.0015503713
0.0016953868
0.0016899208
0.0016845565
0.0016793026
0.0016741432
0.0016690668
0.0016640656
0.0016591334
0.0016542653
0.0016494568
0.001644704
0.0016400034
0.0016353519
0.0016307468
0.0016261854
0.0016216654
0.001617184
0.0016127395
0.0016083301
0.001603954
0.0015996096
0.001595295
0.0015910086
0.0015867489
0.0015825143
0.0015783039
0.001574118
0.0015699596
0.0015658423
0.0015617747
0.0015578182
0.001554157
0.0015515031
0.0015518302
0.0015562374
0.0015616694
0.0016205457
0.0015708345
0.0016963162
0.0016908714
0.0016855102
0.0016802542
0.0016750895
0.001670006
0.0016649966
0.0016600556
0.001655178
0.0016503595
0.0016455963
0.001640885
0.0016362226
0.0016316063
0.0016270336
0.0016225023
0.0016180094
0.0016135535
0.0016091325
0.0016047449
0.0016003889
0.0015960629
0.0015917651
0.001587494
0.0015832481
0.0015790264
0.0015748291
0.0015706591
0.0015665294
0.0015624494
0.0015584769
0.0015547899
0.0015520635
0.0015523276
0.0015566046
0.0015618862
0.0016160954
0.001593423
0.0016976508
0.0016921907
0.0016868398
0.0016815808
0.0016764077
0.0016713135
0.0016662918
0.0016613375
0.0016564457
0.0016516124
0.0016468339
0.0016421068
0.0016374282
0.0016327955
0.0016282062
0.0016236581
0.0016191486
0.0016146758
0.001610238
0.0016058335
0.0016014607
0.0015971179
0.0015928034
0.0015885157
0.0015842532
0.001580015
0.0015758011
0.0015716141
0.0015674665
0.0015633689
0.0015593747
0.0015556552
0.0015528436
0.0015530324
0.0015571362
0.001562379
0.0016110035
0.0016148988
0.0016994609
0.0016940126
0.0016886669
0.0016834019
0.0016782167
0.0016731072
0.0016680683
0.0016630951
0.0016581835
0.0016533293
0.0016485292
0.0016437799
0.0016390787
0.001634423
0.0016298105
0.0016252389
0.0016207061
0.0016162096
0.0016117481
0.00160732
0.0016029236
0.0015985573
0.0015942194
0.0015899084
0.0015856227
0.0015813612
0.0015771239
0.0015729133
0.0015687409
0.0015646188
0.0015605953
0.0015568352
0.0015539234
0.0015540211
0.0015579019
0.0015631802
0.0016058913
0.0016328109
0.0017018913
0.0016964993
0.0016911486
0.0016858726
0.0016806706
0.0016755402
0.0016704777
0.001665479
0.0016605402
0.0016556576
0.001650828
0.0016460485
0.0016413164
0.0016366293
0.001631985
0.0016273814
0.0016228169
0.0016182881
0.0016137943
0.0016093339
0.0016049054
0.0016005069
0.0015961371
0.0015917941
0.0015874766
0.0015831834
0.0015789142
0.0015746713
0.0015704651
0.0015663097
0.0015622474
0.0015584359
0.0015554069
0.0015553905
0.0015589936
0.0015643058
0.0016016083
0.0016413635
0.0017052431
0.0016998341
0.001694483
0.0016891908
0.0016839645
0.0016788051
0.0016737101
0.0016686763
0.0016637002
0.0016587788
0.001653909
0.0016490882
0.0016443141
0.0016395843
0.0016348968
0.0016302497
0.0016256416
0.0016210691
0.0016165315
0.0016120273
0.0016075549
0.0016031129
0.0015986995
0.0015943132
0.0015899525
0.001585616
0.0015813035
0.0015770167
0.001572765
0.0015685645
0.001564451
0.0015605744
0.0015574099
0.0015572439
0.001560516
0.0015657855
0.0015985717
0.0016437252
0.0017097259
0.0017043021
0.0016989345
0.0016936133
0.0016883513
0.0016831512
0.0016780114
0.0016729294
0.0016679025
0.001662928
0.0016580036
0.0016531268
0.0016482956
0.001643508
0.0016387621
0.0016340562
0.0016293888
0.0016247577
0.0016201609
0.0016155975
0.0016110661
0.0016065652
0.0016020932
0.0015976485
0.0015932294
0.0015888347
0.0015844638
0.0015801181
0.0015758055
0.0015715444
0.0015673634
0.0015634038
0.0015600846
0.0015597086
0.0015626008
0.001567713
0.0015967351
0.0016430437
0.0017156528
0.0017102685
0.00170485
0.0016994791
0.001694166
0.0016889099
0.0016837092
0.0016785623
0.0016734674
0.0016684222
0.0016634251
0.0016584739
0.0016535671
0.0016487028
0.0016438796
0.0016390959
0.0016343503
0.0016296416
0.0016249664
0.0016203249
0.0016157155
0.0016111367
0.0016065871
0.0016020651
0.001597569
0.0015930973
0.0015886492
0.0015842257
0.0015798329
0.0015754917
0.0015712228
0.0015671575
0.0015636631
0.001562966
0.0015654426
0.0015702857
0.0015959928
0.0016410761
0.0017236972
0.0017181544
0.0017126668
0.0017072287
0.0017018434
0.0016965096
0.0016912263
0.0016859926
0.0016808071
0.0016756685
0.0016705755
0.0016655265
0.0016605204
0.0016555558
0.0016506314
0.0016457459
0.0016408981
0.0016360876
0.0016313104
0.0016265668
0.0016218555
0.0016171751
0.0016125243
0.0016079013
0.0016033045
0.0015987322
0.0015941831
0.0015896579
0.0015851609
0.0015807147
0.0015763325
0.0015721325
0.0015684414
0.001567258
0.0015692987
0.0015737865
0.001596346
0.001638495
0.0017362425
0.0017305336
0.0017249134
0.0017193527
0.0017138423
0.0017083781
0.0017029591
0.0016975848
0.0016922545
0.0016869675
0.0016817231
0.0016765205
0.0016713589
0.0016662375
0.0016611552
0.0016561113
0.0016511046
0.0016461346
0.0016412001
0.0016362984
0.001631429
0.001626591
0.0016217831
0.0016170037
0.0016122509
0.0016075227
0.0016028175
0.0015981349
0.0015934772
0.0015888674
0.0015843123
0.0015799091
0.0015759544
0.001574043
0.0015755018
0.0015794697
0.0015985301
0.0016358019
0.0017549958
0.0017491522
0.0017433378
0.0017375669
0.0017318427
0.0017261621
0.0017205233
0.0017149257
0.001709369
0.0017038528
0.0016983768
0.0016929407
0.0016875443
0.001682187
0.0016768684
0.0016715878
0.0016663447
0.0016611383
0.0016559688
0.0016508337
0.0016457302
0.0016406593
0.0016356196
0.0016306093
0.0016256263
0.0016206681
0.0016157326
0.001610818
0.0016059251
0.001601069
0.0015962648
0.001591572
0.0015872743
0.0015844795
0.0015852045
0.0015884018
0.0016040736
0.0016347927
0.0017791519
0.0017730324
0.0017669332
0.00176087
0.0017548502
0.0017488726
0.0017429357
0.0017370391
0.0017311825
0.0017253657
0.0017195887
0.0017138514
0.0017081538
0.0017024957
0.0016968769
0.0016912969
0.0016857554
0.0016802518
0.0016747856
0.0016693573
0.0016639615
0.0016586003
0.0016532713
0.0016479728
0.0016427026
0.0016374578
0.0016322355
0.0016270324
0.0016218477
0.0016166838
0.0016115738
0.0016065308
0.0016018341
0.0015981346
0.0015981021
0.001600364
0.0016130867
0.0016364839
0.0018097309
0.0018031717
0.0017966636
0.0017902012
0.0017837848
0.0017774117
0.0017710805
0.0017647912
0.0017585439
0.0017523385
0.001746175
0.0017400534
0.0017339736
0.0017279356
0.0017219392
0.0017159841
0.0017100699
0.0017041962
0.0016983624
0.0016925679
0.0016868124
0.0016810936
0.0016754075
0.0016697538
0.0016641302
0.0016585334
0.0016529591
0.0016474025
0.0016418607
0.0016363267
0.0016308423
0.0016253802
0.0016202137
0.0016155954
0.001614786
0.0016159656
0.0016261119
0.0016416955
0.0018477007
0.0018406263
0.0018335957
0.0018266119
0.0018196787
0.0018127936
0.0018059553
0.0017991638
0.0017924192
0.0017857214
0.0017790703
0.0017724658
0.0017659079
0.0017593964
0.0017529311
0.0017465116
0.0017401375
0.0017338083
0.0017275233
0.0017212815
0.0017150839
0.0017089268
0.0017028076
0.0016967223
0.0016906697
0.0016846459
0.0016786455
0.0016726616
0.0016666886
0.0016607122
0.0016547759
0.0016488191
0.0016431004
0.0016375569
0.0016358808
0.0016358176
0.0016436723
0.0016514007
0.0018943254
0.0018865916
0.0018788985
0.001871257
0.0018636747
0.0018561498
0.0018486802
0.0018412657
0.0018339057
0.0018266001
0.0018193485
0.0018121508
0.0018050069
0.0017979165
0.0017908792
0.0017838945
0.0017769619
0.0017700807
0.0017632502
0.0017564689
0.0017497363
0.0017430502
0.0017364103
0.0017298105
0.0017232446
0.0017167109
0.0017102021
0.0017037089
0.0016972227
0.0016907245
0.0016842399
0.0016777112
0.001671348
0.0016649067
0.0016619189
0.0016604884
0.0016663156
0.0016664029
0.001950954
0.0019423457
0.0019338158
0.0019253639
0.0019169896
0.0019086866
0.0019004506
0.00189228
0.0018841741
0.0018761323
0.0018681543
0.0018602399
0.0018523888
0.0018446006
0.0018368748
0.0018292109
0.0018216081
0.0018140656
0.0018065822
0.0017991566
0.0017917873
0.0017844721
0.0017772084
0.001769995
0.0017628231
0.0017556877
0.0017485768
0.0017414823
0.0017343917
0.0017272817
0.0017201471
0.0017129611
0.0017058465
0.0016985458
0.0016934732
0.0016906741
0.001694715
0.0016875195
0.0020187683
0.0020091443
0.001999635
0.001990226
0.0019809101
0.0019716787
0.0019625263
0.0019534513
0.0019444531
0.0019355312
0.0019266852
0.0019179148
0.0019092198
0.0019005997
0.0018920539
0.0018835817
0.0018751822
0.0018668542
0.0018585964
0.0018504073
0.0018422847
0.0018342261
0.0018262281
0.0018182867
0.0018103987
0.0018025533
0.0017947388
0.0017869421
0.0017791463
0.0017713207
0.0017634427
0.0017554941
0.0017475156
0.0017393077
0.0017320781
0.0017277515
0.0017299914
0.001715883
0.0020990541
0.0020883769
0.0020777653
0.0020672408
0.0020568138
0.0020464828
0.0020362448
0.0020260989
0.0020160447
0.0020060817
0.0019962097
0.0019864284
0.0019767374
0.0019671362
0.001957624
0.0019481999
0.0019388628
0.0019296114
0.001920444
0.0019113586
0.0019023528
0.0018934235
0.0018845667
0.0018757771
0.0018670485
0.0018583712
0.0018497359
0.001841122
0.001832507
0.0018238567
0.001815135
0.0018062863
0.0017973471
0.0017881105
0.0017790781
0.0017725989
0.0017729487
0.001752484
0.0021939576
0.0021817812
0.0021697601
0.00215788
0.0021461308
0.0021345016
0.0021229859
0.0021115814
0.0021002876
0.0020891037
0.0020780294
0.0020670644
0.0020562081
0.00204546
0.0020348189
0.0020242839
0.0020138535
0.0020035261
0.0019932997
0.0019831718
0.0019731395
0.0019631992
0.001953346
0.0019435739
0.0019338748
0.0019242378
0.0019146491
0.0019050882
0.0018955282
0.001885931
0.0018762501
0.0018663742
0.0018563765
0.0018459602
0.0018354304
0.0018255629
0.0018240493
0.0017979722
0.0023043444
0.0022905994
0.0022770009
0.0022635557
0.0022502619
0.0022371117
0.0022240986
0.0022112203
0.0021984761
0.002185865
0.0021733866
0.0021610405
0.0021488258
0.0021367418
0.0021247873
0.0021129608
0.0021012606
0.0020896846
0.0020782306
0.0020668954
0.0020556757
0.0020445669
0.0020335635
0.0020226584
0.0020118421
0.0020011021
0.0019904216
0.001979777
0.0019691378
0.001958455
0.0019476805
0.0019366827
0.0019254786
0.0019137535
0.0019018
0.001888518
0.0018846803
0.0018535567
0.0024321453
0.0024164527
0.0024009594
0.0023856613
0.0023705488
0.0023556103
0.0023408377
0.0023262285
0.0023117821
0.0022974974
0.002283374
0.0022694114
0.0022556088
0.0022419649
0.0022284784
0.0022151474
0.0022019698
0.002188943
0.0021760641
0.0021633296
0.0021507352
0.0021382756
0.0021259445
0.0021137332
0.0021016311
0.0020896237
0.0020776917
0.0020658082
0.0020539384
0.0020420264
0.0020300127
0.0020177642
0.0020052049
0.0019920813
0.0019785681
0.0019628768
0.0019550638
0.0019195025
0.0025787585
0.0025608054
0.0025430814
0.0025255881
0.0025083172
0.0024912565
0.0024743984
0.0024577406
0.0024412825
0.0024250233
0.0024089623
0.0023930989
0.002377432
0.0023619599
0.0023466807
0.002331592
0.0023166912
0.002301975
0.0022874396
0.0022730808
0.0022588934
0.0022448712
0.0022310064
0.0022172895
0.0022037079
0.0021902451
0.0021768796
0.002163581
0.0021503101
0.0021370057
0.0021235972
0.0021099464
0.0020959334
0.0020812619
0.0020660585
0.0020484937
0.0020359603
0.0019965693
0.0027460385
0.0027252739
0.0027048076
0.0026846368
0.0026647478
0.0026451242
0.002625756
0.0026066402
0.0025877755
0.0025691601
0.002550793
0.0025326725
0.0025147969
0.0024971636
0.0024797699
0.0024626124
0.0024456874
0.0024289907
0.0024125174
0.0023962622
0.0023802186
0.0023643792
0.002348735
0.0023332745
0.0023179836
0.0023028437
0.0022878306
0.0022729108
0.0022580412
0.0022431555
0.0022281751
0.0022129542
0.0021973607
0.0021810116
0.0021640442
0.0021445925
0.0021291936
0.0020849944
0.0029351315
0.0029109419
0.0028871292
0.002863691
0.0028406106
0.002817868
0.0027954517
0.0027733581
0.0027515848
0.002730129
0.0027089885
0.0026881605
0.0026676417
0.0026474284
0.0026275162
0.0026079004
0.0025885757
0.0025695364
0.0025507761
0.0025322878
0.0025140636
0.0024960943
0.002478369
0.0024608747
0.002443595
0.0024265091
0.0024095902
0.0023928021
0.0023760976
0.0023594075
0.0023426459
0.0023256654
0.0023083165
0.0022902239
0.0022713865
0.0022499925
0.0022326981
0.0021836203
0.0031470052
0.0031186014
0.0030906728
0.0030632192
0.0030362221
0.0030096576
0.0029835132
0.002957785
0.0029324694
0.0029075623
0.0028830596
0.0028589569
0.0028352489
0.0028119297
0.0027889928
0.0027664313
0.0027442379
0.0027224044
0.0027009226
0.0026797832
0.0026589761
0.0026384899
0.0026183117
0.0025984261
0.0025788145
0.0025594537
0.0025403144
0.0025213577
0.0025025335
0.0024837705
0.0024649783
0.0024460126
0.0024267105
0.0024067312
0.0023859767
0.0023626643
0.0023432604
0.002293425
0.0033827333
0.0033490074
0.003315899
0.0032834107
0.0032515198
0.0032201956
0.0031894231
0.0031591968
0.0031295103
0.0031003561
0.0030717273
0.0030436163
0.0030160144
0.0029889124
0.0029623006
0.0029361688
0.0029105066
0.0028853027
0.0028605458
0.0028362238
0.0028123236
0.0027888311
0.0027657306
0.0027430039
0.00272063
0.0026985829
0.002676831
0.0026553332
0.0026340374
0.0026128719
0.0025917444
0.0025705181
0.002549027
0.0025269661
0.0025042211
0.0024791267
0.0024572661
0.0024090468
0.0036340183
0.0035937461
0.0035542707
0.003515605
0.0034777232
0.0034405861
0.0034041763
0.003368486
0.003333504
0.0032992184
0.0032656177
0.0032326894
0.0032004201
0.0031687961
0.003137803
0.0031074262
0.0030776508
0.0030484616
0.0030198429
0.0029917789
0.0029642528
0.0029372468
0.0029107417
0.0028847163
0.0028591461
0.0028340028
0.0028092522
0.0027848516
0.0027607479
0.0027368707
0.0027131297
0.002689399
0.0026655182
0.0026412312
0.0026163937
0.0025897125
0.0025653954
0.0025201444
0.0038827697
0.0038348749
0.0037879924
0.0037421527
0.0036973273
0.0036534672
0.0036105536
0.0035685758
0.0035275167
0.0034873589
0.0034480853
0.0034096774
0.0033721161
0.0033353816
0.0032994538
0.0032643125
0.003229937
0.0031963069
0.0031634013
0.003131199
0.0030996786
0.0030688177
0.0030385925
0.0030089777
0.0029799453
0.0029514636
0.002923496
0.0028959986
0.0028689179
0.0028421862
0.0028157177
0.0027894001
0.0027630854
0.0027365705
0.0027096882
0.0026815434
0.0026550184
0.0026135051
0.0041190916
0.0040625911
0.004007331
0.0039533826
0.0039007228
0.0038492969
0.0037990881
0.0037500833
0.0037022593
0.0036555921
0.0036100577
0.0035656301
0.0035222821
0.003479986
0.0034387139
0.0033984374
0.0033591284
0.0033207586
0.0032833001
0.0032467245
0.0032110037
0.0031761088
0.0031420102
0.003108677
0.0030760765
0.0030441728
0.0030129261
0.0029822906
0.002952213
0.0029226283
0.0028934567
0.0028645999
0.0028359255
0.0028072826
0.0027784848
0.0027490299
0.0027204716
0.0026829478
0.0043423425
0.0042758991
0.0042110115
0.0041477995
0.0040862393
0.0040262694
0.0039678744
0.0039110351
0.003855718
0.003801888
0.0037495091
0.0036985425
0.0036489484
0.0036006863
0.0035537158
0.0035079967
0.0034634893
0.0034201542
0.0033779529
0.0033368472
0.0032967994
0.0032577722
0.0032197276
0.0031826277
0.0031464329
0.003111102
0.003076591
0.0030428515
0.0030098293
0.0029774624
0.0029456766
0.0029143875
0.0028834791
0.0028528484
0.0028222934
0.0027916768
0.0027612985
0.0027275771
0.0045524889
0.0044744604
0.0043984145
0.0043245675
0.0042528955
0.0041833221
0.004115819
0.004050344
0.003986838
0.0039252423
0.0038654978
0.0038075436
0.0037513192
0.0036967648
0.003643822
0.0035924333
0.003542543
0.0034940969
0.0034470425
0.0034013285
0.0033569051
0.0033137235
0.0032717357
0.0032308942
0.0031911513
0.0031524586
0.0031147665
0.0030780228
0.0030421717
0.0030071527
0.0029728971
0.0029393322
0.0029063579
0.0028739132
0.002841783
0.0028101508
0.0027781978
0.0027478785
0.0047496442
0.0046581642
0.0045694355
0.0044836863
0.0044008167
0.0043206956
0.0042432576
0.00416842
0.0040960874
0.0040261694
0.0039585767
0.0038932203
0.0038300137
0.0037688728
0.0037097161
0.003652465
0.0035970437
0.0035433793
0.0034914018
0.0034410437
0.0033922401
0.0033449281
0.0032990471
0.0032545376
0.0032113416
0.0031694019
0.0031286613
0.0030890621
0.0030505456
0.0030130511
0.0029765135
0.0029408696
0.0029060331
0.0028719773
0.0028384766
0.0028059841
0.0027727237
0.0027453297
0.0049349429
0.0048286454
0.0047258622
0.0046269213
0.0045316698
0.0044399346
0.0043516129
0.0042665759
0.0041846853
0.0041058115
0.004029828
0.0039566109
0.0038860408
0.0038180029
0.0037523868
0.0036890869
0.0036280021
0.0035690358
0.003512096
0.0034570948
0.0034039483
0.0033525762
0.0033029015
0.0032548503
0.0032083515
0.0031633362
0.0031197375
0.0030774902
0.0030365302
0.0029967945
0.0029582196
0.0029207483
0.0028843051
0.00284889
0.0028142677
0.0027811105
0.0027468488
0.0027219386
0.0051092079
0.0049865545
0.0048682007
0.0047546394
0.0046456843
0.0045411434
0.0044408848
0.0043447314
0.0042524973
0.0041640058
0.0040790836
0.0039975622
0.0039192798
0.0038440819
0.0037718207
0.0037023556
0.0036355531
0.0035712866
0.0035094359
0.0034498874
0.0033925334
0.0033372715
0.0032840047
0.003232641
0.0031830926
0.0031352764
0.0030891129
0.0030445266
0.0030014456
0.002959802
0.0029195309
0.0028805777
0.002842874
0.0028064386
0.0027710275
0.0027374836
0.0027026004
0.0026798464
0.0052723003
0.0051309905
0.0049949818
0.0048649815
0.0047407565
0.0046220866
0.0045087885
0.0044006132
0.004297306
0.0041986235
0.004104328
0.0040141907
0.0039279933
0.0038455289
0.0037666009
0.0036910239
0.0036186228
0.0035492329
0.0034826991
0.0034188756
0.0033576251
0.0032988185
0.0032423339
0.0031880571
0.0031358804
0.0030857025
0.0030374285
0.0029909694
0.0029462426
0.0029031722
0.0028616887
0.002821736
0.0027832487
0.0027462566
0.0027105072
0.0026769692
0.0026419455
0.002621165
0.0054236143
0.005260184
0.0051036792
0.0049549462
0.0048136083
0.0046793509
0.0045518729
0.0044308034
0.004315781
0.0042064627
0.004102519
0.0040036372
0.0039095231
0.0038198996
0.0037345069
0.0036531016
0.0035754558
0.0035013569
0.003430606
0.0033630175
0.0032984179
0.003236645
0.003177547
0.0031209822
0.0030668184
0.003014932
0.0029652083
0.0029175412
0.0028718333
0.0028279969
0.0027859535
0.0027456411
0.0027069925
0.0026700404
0.002634524
0.0026014967
0.0025669072
0.0025480518
0.0055613296
0.0053719258
0.0051917193
0.005021649
0.0048611232
0.004709668
0.0045667959
0.0044319573
0.0043046328
0.0041843383
0.0040706179
0.0039630447
0.0038612216
0.0037647788
0.003673373
0.0035866855
0.003504421
0.0034263054
0.0033520848
0.0032815235
0.0032144025
0.003150518
0.0030896804
0.0030317135
0.0029764536
0.0029237487
0.0028734585
0.0028254539
0.0027796175
0.0027358446
0.0026940427
0.002654139
0.0026160594
0.0025798331
0.0025451918
0.0025132379
0.0024796928
0.0024627963
0.005683228
0.0054637909
0.0052564614
0.0050622375
0.0048802787
0.0047099057
0.0045503816
0.0044009227
0.0042608023
0.0041293456
0.0040059234
0.0038899551
0.0037809067
0.0036782865
0.0035816415
0.0034905548
0.0034046427
0.0033235518
0.0032469562
0.0031745548
0.0031060689
0.0030412402
0.0029798294
0.0029216151
0.0028663924
0.0028139722
0.0027641808
0.0027168598
0.0026718671
0.0026290767
0.0025883789
0.0025496867
0.0025129175
0.0024780935
0.002444945
0.0024145915
0.0023826532
0.0023677445
0.0057896384
0.0055348171
0.0052959138
0.0050739749
0.0048678714
0.0046766283
0.0044991515
0.0043343275
0.0041811352
0.0040386329
0.0039059551
0.0037823119
0.0036669834
0.0035593119
0.0034586972
0.0033645908
0.0032764895
0.0031939321
0.0031164947
0.0030437875
0.0029754511
0.0029111546
0.0028505947
0.0027934933
0.0027395955
0.0026886682
0.0026405002
0.0025949021
0.0025517098
0.0025107783
0.002471982
0.0024352215
0.0024004083
0.0023675581
0.0023364109
0.0023080726
0.0022781928
0.0022652336
0.0058825375
0.0055841192
0.0053073163
0.0050529775
0.0048194612
0.0046052482
0.0044086653
0.004228094
0.0040620726
0.0039092743
0.0037684979
0.0036386595
0.003518778
0.0034079623
0.0033054025
0.0032103608
0.0031221647
0.0030402024
0.002963918
0.0028928051
0.0028264035
0.002764297
0.0027061146
0.0026515229
0.0026002178
0.0025519248
0.0025064015
0.0024634271
0.0024228831
0.0023845971
0.002348408
0.0023141958
0.0022818703
0.0022514397
0.00222268
0.002196639
0.0021691194
0.0021582331
0.0059613822
0.005608148
0.0052852645
0.0049929126
0.0047284857
0.0044894674
0.0042732489
0.0040774377
0.0038999143
0.0037387825
0.0035923422
0.0034590664
0.0033375761
0.0032266266
0.0031250974
0.0030319816
0.0029463782
0.0028674905
0.0027946165
0.0027271265
0.0026644612
0.0026061217
0.0025517336
0.0025009565
0.0024534066
0.002408756
0.0023667299
0.0023271424
0.0022896149
0.002253995
0.002220226
0.0021882806
0.0021581289
0.0021298345
0.0021031984
0.0020792724
0.0020540016
0.0020448126
0.0060214275
0.0055992618
0.0052206873
0.0048843182
0.0045858837
0.0043212481
0.0040863919
0.0038777481
0.0036921685
0.0035268351
0.003379224
0.0032470834
0.0031284113
0.0030214478
0.0029246735
0.0028367736
0.0027566097
0.0026832637
0.0026160066
0.0025540422
0.0024966936
0.0024434476
0.0023936815
0.0023468275
0.0023026511
0.0022609832
0.0022216619
0.0021845715
0.0021494526
0.0021161625
0.0020846321
0.0020548395
0.0020267705
0.0020005166
0.0019759076
0.0019539783
0.0019308505
0.0019233333
0.0060566376
0.0055473928
0.0051012058
0.0047143528
0.0043800639
0.0040916115
0.0038426486
0.0036275099
0.0034411439
0.0032790476
0.0031372979
0.0030125632
0.0029020482
0.0028034225
0.0027150263
0.0026353231
0.0025629985
0.0024968275
0.0024354342
0.0023782794
0.0023249925
0.0022752708
0.0022287051
0.0021848623
0.0021434911
0.0021044108
0.002067473
0.0020325648
0.0019995706
0.0019683927
0.0019389626
0.0019112514
0.0018852482
0.0018610377
0.0018384936
0.0018185726
0.0017975879
0.0017920779
0.0060621364
0.0054544433
0.0049365871
0.004501727
0.0041392222
0.0038379775
0.0035874233
0.00337801
0.0032014933
0.0030510288
0.0029211425
0.0028078369
0.0027078943
0.0026188496
0.0025380206
0.0024639039
0.0023957944
0.0023330129
0.0022746462
0.0022201801
0.0021692443
0.0021215462
0.0020768127
0.0020347658
0.0019951647
0.0019578142
0.0019225577
0.0018892734
0.0018578693
0.0018282791
0.0018004588
0.0017743921
0.0017500866
0.0017276173
0.0017069198
0.0016888212
0.0016699516
0.0016661145
0.0060467359
0.0053422083
0.004760737
0.0042908986
0.0039156304
0.0036165639
0.0033765763
0.0031810215
0.0030184889
0.0028808587
0.0027619702
0.0026568224
0.002562174
0.0024766651
0.0023986033
0.0023267428
0.0022603511
0.002198877
0.0021417504
0.0020884859
0.0020386953
0.0019920716
0.0019483641
0.0019073529
0.0018688388
0.0018326465
0.0017986266
0.0017666564
0.0017366414
0.0017085098
0.0016822164
0.0016577433
0.0016351011
0.0016143412
0.0015954284
0.0015790556
0.0015621164
0.0015595922
0.0060073105
0.0051926997
0.0045509113
0.0040612081
0.003692517
0.003412483
0.003193981
0.0030171829
0.0028691265
0.0027391721
0.0026238501
0.0025204052
0.00242653
0.002340942
0.0022625392
0.0021903514
0.0021236236
0.0020617884
0.0020043832
0.0019510103
0.0019013309
0.0018550608
0.0018119621
0.0017718303
0.0017344827
0.0016997531
0.0016674901
0.0016375573
0.001609836
0.0015842222
0.0015606301
0.0015389886
0.0015192593
0.0015014099
0.001485381
0.0014716234
0.0014574076
0.0014560651
0.0059382122
0.0050060386
0.0043215439
0.0038412501
0.0035041446
0.003255834
0.0030598353
0.002891848
0.0027446695
0.0026128767
0.0024940807
0.0023865587
0.0022886916
0.0021992002
0.0021171358
0.0020417194
0.001972304
0.001908386
0.0018495756
0.0017955536
0.001746038
0.0017007652
0.0016594796
0.001621928
0.0015878578
0.0015570181
0.0015291629
0.0015040538
0.0014814633
0.0014611736
0.0014429804
0.0014266891
0.0014121288
0.0013991006
0.0013874473
0.0013772751
0.0013663846
0.0013655635
0.0058384592
0.00479541
0.0041107324
0.0036806694
0.0033906369
0.0031621888
0.002964955
0.0027877167
0.0026277426
0.0024832322
0.0023526442
0.0022344664
0.0021272344
0.0020297596
0.0019411363
0.0018606841
0.0017879122
0.0017224474
0.0016639577
0.0016120944
0.001566463
0.0015266155
0.0014920611
0.0014622821
0.0014367525
0.0014149552
0.0013963935
0.0013805978
0.0013671288
0.0013555711
0.0013455493
0.0013367295
0.0013287633
0.0013212632
0.00131398
0.0013066363
0.0012979272
0.0012952945
0.0057080491
0.0046011471
0.0039886543
0.0036327799
0.0033589237
0.0031124215
0.0028835708
0.0026735817
0.0024840562
0.0023147103
0.0021639593
0.0020296852
0.0019100548
0.0018038739
0.0017103606
0.0016289918
0.0015593043
0.0015006935
0.0014523211
0.0014131217
0.0013818777
0.001357321
0.0013382265
0.0013234774
0.0013121013
0.0013032788
0.0012963345
0.0012907161
0.0012859701
0.0012817103
0.0012776356
0.0012734462
0.0012688669
0.0012635296
0.0012573931
0.0012497453
0.0012405354
0.001235223
0.0055625765
0.0045114103
0.004029742
0.0036974061
0.0033756369
0.0030548746
0.0027547038
0.0024873673
0.0022550721
0.0020556765
0.0018855823
0.0017405702
0.0016177973
0.0015155388
0.0014323232
0.0013664079
0.0013156449
0.0012775957
0.0012497569
0.001229789
0.00121567
0.0012057578
0.0011987782
0.0011937726
0.0011900347
0.0011870519
0.0011844545
0.0011819735
0.0011794098
0.0011766105
0.0011733425
0.0011693706
0.0011646955
0.0011589518
0.001152646
0.0011440213
0.0011349959
0.0011320962
0.0054561498
0.0046317195
0.0042374477
0.0038183041
0.0033389688
0.0028765185
0.002477022
0.002148699
0.0018841717
0.0016751076
0.0015096755
0.0013737216
0.001261451
0.0011691411
0.0010939024
0.0010333527
0.00098541876
0.00094819679
0.00091988422
0.0008987814
0.00088333279
0.00087217351
0.00086415787
0.00085836229
0.00085407119
0.00085075183
0.00084802559
0.00084563365
0.00084341748
0.00084127405
0.00083919287
0.00083709117
0.00083519571
0.00083289332
0.00083181805
0.00082839621
0.00082647992
0.0008416813
0.005481414
0.0049671238
0.0045169018
0.0038009864
0.003052154
0.0024328529
0.0019661503
0.0016212631
0.0013635816
0.0011686728
0.0010196061
0.00090299884
0.00081016919
0.00073555467
0.00067543029
0.0006271487
0.00058871047
0.0005585081
0.00053516945
0.00051747561
0.0005043309
0.00049476288
0.00048793183
0.00048313588
0.0004798108
0.00047752274
0.00047595731
0.00047489898
0.0004742282
0.00047388426
0.00047401984
0.00047457768
0.00047588189
0.00047733687
0.00048083795
0.00048277843
0.00048671368
0.00051005641
0.0056283549
0.0053902703
0.0045147785
0.0033115934
0.0023336807
0.0016795863
0.0012609415
0.00098565033
0.0007958834
0.0006598488
0.00055976835
0.00048439563
0.00042638381
0.00038095676
0.00034500161
0.00031643776
0.00029381007
0.0002760391
0.00026226933
0.00025178295
0.00024395669
0.00023824505
0.00023417654
0.0002313533
0.00022945117
0.0002282174
0.00022746738
0.00022707226
0.00022697112
0.00022715694
0.00022770987
0.00022861335
0.00023013387
0.00023184644
0.00023520253
0.00023754801
0.00024165661
0.00025942403
0.0055909995
0.0052696491
0.0037574769
0.0022975982
0.0014077479
0.00092974036
0.00066422562
0.00050282228
0.00039650137
0.00032244436
0.00026907597
0.00022967983
0.00019991748
0.00017695967
0.00015898531
0.00014480791
0.00013362266
0.00012485133
0.00011805005
0.00011285695
0.00010896454
0.0001061073
0.00010405723