0.47777778 	0.0026812167 	-0.0012470653 	-1.2696111e-08 	0.0026814961 	2.4456207e-08 	0.00019239115
0.48888889 	0.0046566386 	-0.002169061 	-2.7674992e-08 	0.004672285 	5.7199649e-08 	0.0025686035
0.5 	0.0048496248 	-0.0022562956 	-4.7523628e-08 	0.004854234 	1.0065911e-07 	0.0027261239
0.51111111 	0.0046709032 	-0.0021655432 	-5.4457071e-08 	0.0046428247 	1.1738109e-07 	0.0029633888
0.52222222 	0.0043263012 	-0.001865254 	-1.2192967e-07 	0.0042555204 	3.5567347e-07 	0.00092202703
0.53333333 	0.0038801131 	-0.0012949983 	-3.8856284e-08 	0.0037824059 	7.2521194e-08 	0.0030243646
0.54444444 	0.0033319492 	-0.00082670161 	-6.9330122e-08 	0.0032519561 	7.1195283e-08 	0.0027611322
0.55555556 	0.0027774958 	-0.00042087596 	-2.774062e-07 	0.0027128717 	2.3554873e-07 	0.0017789209
0.56666667 	0.0023169486 	-0.00010150409 	-3.1751249e-07 	0.0022691513 	2.2216449e-07 	0.0013854224
0.57777778 	0.0019775532 	0.00012998136 	-1.9480543e-07 	0.0019517684 	1.1442384e-07 	0.0013576862
0.58888889 	0.0017427826 	0.00028677913 	-1.310901e-08 	0.0017349635 	5.95291e-09 	0.0015488459
0.6 	0.001603482 	0.00039115317 	-7.1080916e-08 	0.0016074528 	3.2278434e-08 	0.0012679833
0.61111111 	0.001536289 	0.00046950635 	-2.419801e-07 	0.0015476437 	6.2811429e-08 	0.00061150636
0.62222222 	0.0015110931 	0.00053119589 	-2.6532222e-07 	0.0015277665 	7.8231368e-09 	0.00011741648
0.63333333 	0.0015122931 	0.00058215627 	-5.1286255e-08 	0.0015353075 	-1.1959043e-08 	0.00098862546
0.64444444 	0.001533777 	0.00062604349 	-3.8609598e-08 	0.0015605071 	-9.003072e-09 	0.0011083687
0.65555556 	0.0015677606 	0.00066691742 	-1.1087865e-07 	0.0015948704 	-5.7388502e-08 	7.0155521e-05
0.66666667 	0.0016052953 	0.00070597927 	-1.6348978e-08 	0.0016365052 	-1.1693399e-08 	0.0011621364
0.67777778 	0.0016505374 	0.00074411229 	-3.7685812e-08 	0.0016828242 	-2.6954298e-08 	0.0008116916
0.68888889 	0.0016990094 	0.0007815078 	-2.4733329e-08 	0.001732665 	-2.1978927e-08 	0.00061145705
0.7 	0.001749035 	0.00081789541 	-7.6700341e-09 	0.0017857504 	-6.8158688e-09 	0.0013128742
0.71111111 	0.0018056717 	0.0008469655 	-2.1637281e-09 	0.0018407134 	-1.3881454e-09 	0.00032085632
0.72222222 	0.0018610514 	0.0008733751 	-2.1219532e-10 	0.0018983339 	-1.3613447e-10 	0.0015789229
0.73333333 	0.0019238425 	0.00090191856 	1.6559458e-08 	0.0019578521 	3.7290525e-08 	0.00029001045
0.74444444 	0.0019874393 	0.00093201493 	1.2346669e-09 	0.0020233324 	2.7803673e-09 	0.0017156265
0.75555556 	0.0020580247 	0.00096376934 	4.1080858e-08 	0.0020889148 	8.8183997e-08 	0.00027904106
0.76666667 	0.0021332355 	0.00099898434 	1.9029186e-08 	0.0021647772 	3.9282732e-08 	0.0019558802
0.77777778 	0.0022166304 	0.0010361696 	8.0354484e-08 	0.0022410132 	1.7079667e-07 	3.4658432e-05
0.78888889 	0.0023073728 	0.0010783128 	1.09603e-08 	0.0023317214 	2.1083971e-08 	0.0019231716
0.8 	0.0024111956 	0.0011244676 	8.302615e-08 	0.0024302344 	1.5971469e-07 	0.00086210405
0.81111111 	0.0025304169 	0.0011719449 	9.6984946e-08 	0.0025458888 	1.9440642e-07 	0.0010321563
0.82222222 	0.0026668583 	0.0012202586 	5.6561751e-09 	0.0026802681 	1.1337809e-08 	0.0023629792
0.83333333 	0.0028300274 	0.0012736059 	1.5370992e-07 	0.0028354217 	3.510156e-07 	0.00065647431
0.84444444 	0.0030133257 	0.001332734 	1.3944554e-07 	0.0030146415 	3.4387102e-07 	0.0010501482
0.85555556 	0.0032185347 	0.0013974505 	1.2371593e-08 	0.0032182759 	3.2354946e-08 	0.0027601643
0.86666667 	0.0034457473 	0.0014673154 	5.500295e-08 	0.0034402121 	1.4384707e-07 	0.0024617691
0.87777778 	0.0036874813 	0.0015425322 	1.5341121e-07 	0.0036759288 	4.1562618e-07 	0.001364111
0.88888889 	0.0039379691 	0.0016230969 	2.2056924e-07 	0.0039216584 	6.0890513e-07 	0.0004665973
0.9 	0.0041898476 	0.001708439 	2.3605466e-07 	0.0041708487 	6.5944709e-07 	7.7687278e-05
0.91111111 	0.0044323599 	0.0017968345 	2.1750377e-07 	0.0044127119 	6.1639349e-07 	7.9225602e-05
0.92222222 	0.0046532271 	0.0018860521 	1.6770941e-07 	0.004635196 	4.8692454e-07 	0.00064812793
0.93333333 	0.0048386116 	0.0019737777 	8.3331052e-08 	0.0048258139 	2.51977e-07 	0.0022576451
0.94444444 	0.004972228 	0.0020565991 	6.7905142e-08 	0.0049644176 	4.8884183e-08 	0.0045156125
0.95555556 	0.0050143658 	0.0021277282 	6.4826363e-08 	0.0050065068 	2.5179809e-07 	0.001318359
0.96666667 	0.0049463832 	0.002172005 	1.3190377e-09 	0.0049386077 	9.0722265e-09 	0.0043486964
0.97777778 	0.0045931304 	0.0021353274 	4.4457157e-08 	0.0045909263 	9.7566631e-08 	0.0023251279
0.98888889 	0.0034059703 	0.0015845772 	2.0057949e-08 	0.0034054063 	4.3094067e-08 	0.0020266524
