0.4742268 	4.3441473e-05 	-1.0738215e-05 	6.0831582e-08 	4.334146e-05 	-2.2789466e-07 	5.0817113e-06
0.48453608 	6.6425108e-07 	-9.3984221e-08 	3.0096276e-10 	6.6242616e-07 	-2.0653288e-09 	6.3789912e-09
0.49484536 	3.2740373e-09 	-2.2722844e-14 	6.9667502e-16 	3.270762e-09 	-3.4923876e-11 	1.5559882e-09
0.50515464 	2.2735428e-11 	-1.4410881e-18 	2.8266631e-21 	2.2716261e-11 	4.7436961e-14 	1.2680525e-11
0.51546392 	6.9777858e-12 	-1.0770859e-18 	4.6022631e-21 	6.9702548e-12 	-3.6757892e-15 	3.0270155e-12
0.5257732 	7.2110058e-12 	2.7520168e-16 	9.5348144e-18 	7.2024387e-12 	5.198992e-14 	2.6937237e-12
0.53608247 	2.1928026e-09 	1.4948139e-12 	1.0774891e-14 	2.1888286e-09 	1.5721972e-11 	6.9501583e-12
0.54639175 	5.9335827e-07 	8.488516e-08 	-2.0050423e-11 	6.0243566e-07 	-4.0096868e-11 	1.9197215e-09
0.55670103 	8.9905676e-06 	1.4760039e-06 	-1.4655215e-10 	9.1399938e-06 	-4.2385962e-10 	8.0706995e-07
0.56701031 	5.8650756e-05 	6.5538904e-06 	7.6748709e-09 	5.9268305e-05 	1.4811636e-07 	1.1392574e-05
0.57731959 	0.00018347437 	1.2235534e-05 	8.3042738e-08 	0.00018445023 	1.0881182e-06 	6.8181797e-05
0.58762887 	0.00034434504 	3.0003153e-05 	2.7140355e-07 	0.00034674273 	1.6606536e-06 	0.00016494639
0.59793814 	0.00047571331 	5.6619054e-05 	4.927213e-08 	0.00048008233 	1.7258933e-07 	0.00024013492
0.60824742 	0.00057064976 	8.4920487e-05 	2.4202147e-07 	0.00057578532 	1.5737903e-06 	9.1298283e-06
0.6185567 	0.00067340421 	0.00012061029 	1.4587018e-07 	0.00068001683 	3.870309e-07 	0.00030527595
0.62886598 	0.00078576992 	0.000170014 	5.6390102e-07 	0.00079226673 	1.1276712e-06 	0.00037868728
0.63917526 	0.00089452808 	0.00022864795 	6.2916547e-07 	0.00089935289 	1.7405184e-06 	9.6524301e-05
0.64948454 	0.0010042428 	0.00029853374 	5.5537609e-07 	0.0010091419 	7.6810713e-07 	0.00045663994
0.65979381 	0.001095671 	0.00037709603 	2.0987476e-07 	0.0011007664 	1.893683e-07 	0.0005214554
0.67010309 	0.0011684509 	0.00044955706 	2.687119e-07 	0.0011752871 	4.5850887e-07 	0.00041029782
0.68041237 	0.0012279804 	0.00052497227 	7.1205342e-07 	0.0012394455 	5.4414687e-07 	0.00056899695
0.69072165 	0.0012786034 	0.00057632548 	6.7788058e-07 	0.0012916199 	1.2553797e-06 	0.0002267855
0.70103093 	0.0013358904 	0.00061582772 	5.7216144e-07 	0.0013513048 	7.62169e-07 	0.00061138148
0.71134021 	0.0013919068 	0.00065065183 	5.3340351e-07 	0.0014071638 	1.171487e-06 	0.00022412932
0.72164948 	0.0014581509 	0.00068210448 	4.2127542e-07 	0.0014762847 	9.4871223e-07 	0.00066321872
0.73195876 	0.0015273997 	0.00071532162 	2.29464e-07 	0.0015505065 	5.0558839e-07 	0.00042804581
0.74226804 	0.0015960703 	0.00074724113 	1.9557632e-07 	0.0016290911 	6.7092417e-07 	0.00072622767
0.75257732 	0.0016708142 	0.00077536726 	2.7521366e-08 	0.0017136749 	5.1163365e-08 	0.00068846329
0.7628866 	0.0017336536 	0.00079199048 	-6.2788209e-08 	0.0017879668 	3.0927386e-07 	0.00078657677
0.77319588 	0.0018039688 	0.00079166219 	-1.6712238e-09 	0.0018645851 	8.2318932e-09 	0.00078672282
0.78350515 	0.0018628714 	0.0007663185 	-1.7788635e-07 	0.0019236909 	2.7058419e-07 	0.00083721589
0.79381443 	0.0019241716 	0.00075195584 	7.5812223e-08 	0.0019841475 	1.0381489e-07 	0.00062239054
0.80412371 	0.0019795913 	0.00074440859 	-1.7258143e-07 	0.0020374269 	4.096596e-07 	0.00087824461
0.81443299 	0.0020345052 	0.00074242109 	2.057402e-07 	0.0020871366 	2.4353066e-07 	9.3182007e-05
0.82474227 	0.0020907742 	0.00074828996 	-1.3167243e-08 	0.0021398523 	3.3542535e-07 	0.00091503433
0.83505155 	0.0021468754 	0.00075966906 	3.5479347e-09 	0.0021895208 	9.4660872e-09 	0.00095083951
0.84536082 	0.0022064232 	0.00077924912 	6.670512e-08 	0.0022417622 	7.3166328e-08 	0.00053127941
0.8556701 	0.0022706106 	0.00080617066 	2.524022e-07 	0.0023001296 	4.066381e-07 	0.00098782106
0.86597938 	0.0023405002 	0.00083980516 	1.5120077e-07 	0.0023634051 	2.0839301e-07 	0.0010276335
0.87628866 	0.0024180482 	0.00088100056 	9.469245e-08 	0.0024329851 	1.2160039e-07 	0.00031851766
0.88659794 	0.0025068349 	0.00093118845 	5.7289163e-08 	0.0025155943 	8.3657692e-08 	0.00063418412
0.89690722 	0.0026111162 	0.00099128334 	1.3671145e-07 	0.002613735 	1.9057077e-07 	0.0011202003
0.90721649 	0.0027383219 	0.001063006 	4.2851366e-07 	0.0027336303 	6.4984186e-07 	0.0011772808
0.91752577 	0.0028964717 	0.0011487069 	5.9978648e-07 	0.0028841952 	9.960883e-07 	0.0012452511
0.92783505 	0.0030938726 	0.0012515866 	5.3452409e-07 	0.0030741116 	9.4786808e-07 	0.0013256069
0.93814433 	0.0033321553 	0.0013749192 	9.0615747e-08 	0.0033063378 	1.6294788e-07 	0.0014168489
0.94845361 	0.0035971831 	0.0015206383 	1.9346315e-07 	0.0035637491 	4.7061976e-07 	0.00021896112
0.95876289 	0.0038453455 	0.0016924914 	4.0766815e-07 	0.0038144288 	3.9692424e-07 	0.0016790695
0.96907216 	0.0039858605 	0.0018485412 	1.25119e-07 	0.0039658651 	2.708938e-07 	0.00051064354
0.97938144 	0.0038499547 	0.0017882564 	-1.2441852e-07 	0.0038413314 	-2.6278286e-07 	0.001678465
0.98969072 	0.0028108909 	0.0013078291 	-8.9649298e-07 	0.002808876 	-1.9212975e-06 	0.0012660842
