0.4742268 	9.0979153e-05 	-2.8089602e-05 	4.7507984e-08 	9.082273e-05 	-1.0661555e-07 	3.0782755e-05
0.48453608 	7.2808559e-07 	-1.0120146e-07 	4.2484472e-15 	7.261241e-07 	-2.8264292e-12 	2.174464e-08
0.49484536 	9.0127677e-10 	-2.5840226e-14 	6.811102e-16 	9.0010652e-10 	-1.6243233e-11 	2.8752009e-10
0.50515464 	5.9025916e-12 	-7.5140451e-17 	9.2349757e-20 	5.8959635e-12 	7.2229039e-15 	2.426167e-12
0.51546392 	3.6411811e-12 	-5.1219549e-17 	9.282571e-20 	3.6372788e-12 	8.6191189e-16 	1.5930067e-12
0.5257732 	4.1530535e-11 	2.2660533e-14 	7.9165769e-16 	4.1457841e-11 	1.3094004e-12 	1.7163086e-12
0.53608247 	1.0872726e-08 	3.8504719e-11 	3.024167e-13 	1.0856821e-08 	8.4726858e-11 	3.0510971e-11
0.54639175 	6.0732401e-07 	9.3994911e-08 	4.0032311e-11 	6.1743743e-07 	2.5471236e-10 	7.8201345e-09
0.55670103 	8.6363865e-06 	7.731998e-07 	2.057639e-10 	8.7095452e-06 	1.2365836e-10 	9.02845e-07
0.56701031 	5.3819237e-05 	3.4386127e-06 	8.7813663e-09 	5.409486e-05 	1.5734286e-07 	1.055175e-05
0.57731959 	0.00015777694 	1.0966735e-05 	8.466317e-08 	0.00015869875 	8.529346e-07 	6.1934617e-05
0.58762887 	0.00026485727 	2.5103863e-05 	1.7396263e-07 	0.00026708411 	9.5834559e-07 	0.00012660463
0.59793814 	0.00033450645 	4.0907389e-05 	2.6682162e-08 	0.00033816269 	9.5888381e-08 	0.00016388422
0.60824742 	0.00038392463 	5.4122572e-05 	2.7503838e-07 	0.00038797178 	1.6586491e-06 	6.1902049e-06
0.6185567 	0.00044326198 	7.0495275e-05 	7.8456642e-08 	0.00044835598 	2.8006749e-07 	0.00019842992
0.62886598 	0.00053299785 	9.9128671e-05 	3.6871072e-07 	0.00053851715 	1.0636316e-06 	0.00025482425
0.63917526 	0.00063694101 	0.00013985473 	6.0558331e-07 	0.00064204529 	1.8252068e-06 	7.2488754e-05
0.64948454 	0.00073795761 	0.00018620963 	4.2218821e-07 	0.00074396417 	8.332789e-07 	0.00032878879
0.65979381 	0.00083034445 	0.00024558463 	1.9118183e-07 	0.0008364239 	2.3396684e-07 	0.00039318767
0.67010309 	0.00090214739 	0.00030014008 	2.4604801e-07 	0.00090873337 	4.3763279e-07 	0.00032295992
0.68041237 	0.00096256613 	0.00036132424 	7.1683626e-07 	0.0009701527 	6.1507283e-07 	0.00043924818
0.69072165 	0.0010177387 	0.00041734715 	8.5115145e-07 	0.0010252306 	1.4411811e-06 	0.00018274324
0.70103093 	0.0010835212 	0.0004803645 	9.4220953e-07 	0.0010918296 	1.1116616e-06 	0.00048476262
0.71134021 	0.0011568102 	0.00052851563 	7.2054593e-07 	0.0011646648 	1.3802456e-06 	0.00018552501
0.72164948 	0.0012450555 	0.00057506218 	8.1333934e-07 	0.0012558877 	1.5244601e-06 	0.00055223763
0.73195876 	0.0013419358 	0.00062696357 	2.5885551e-07 	0.0013577387 	5.6185139e-07 	0.00037210369
0.74226804 	0.0014390965 	0.00067040155 	3.1419856e-07 	0.0014644613 	1.0767106e-06 	0.00063818071
0.75257732 	0.0015434165 	0.00070656774 	6.8419865e-09 	0.001577648 	1.2527205e-08 	0.00063159487
0.7628866 	0.0016311999 	0.00072388102 	-2.0077645e-08 	0.0016750891 	5.1412428e-07 	0.00071720594
0.77319588 	0.0017244036 	0.0007303531 	-2.8048451e-09 	0.0017745272 	7.1823114e-08 	0.00071739549
0.78350515 	0.0017995384 	0.0007181263 	-1.0391871e-07 	0.0018521393 	4.3844883e-07 	0.00077894139
0.79381443 	0.0018751529 	0.00071416715 	7.513621e-08 	0.0019290348 	1.0848734e-07 	0.00060448973
0.80412371 	0.0019400841 	0.00071236418 	-8.3404662e-08 	0.0019934728 	5.9561052e-07 	0.00082620697
0.81443299 	0.0020030396 	0.00071596054 	2.1336789e-07 	0.0020526223 	2.8451251e-07 	9.1511983e-05
0.82474227 	0.0020649275 	0.0007261878 	4.958679e-08 	0.002111807 	4.4673395e-07 	0.00086612518
0.83505155 	0.0021248723 	0.0007409351 	1.2147287e-08 	0.0021665051 	2.9094408e-08 	0.00090273042
0.84536082 	0.0021868344 	0.00076285224 	6.019707e-08 	0.0022221235 	7.410092e-08 	0.00052652158
0.8556701 	0.0022519258 	0.00079121035 	2.8192504e-07 	0.0022818449 	4.4342266e-07 	0.00093899978
0.86597938 	0.0023216743 	0.00082560105 	1.695531e-07 	0.002345397 	2.2862496e-07 	0.0009770003
0.87628866 	0.0023980235 	0.00086692678 	8.6436533e-08 	0.0024141877 	1.1588428e-07 	0.00031594235
0.88659794 	0.0024843486 	0.00091669392 	4.9756256e-08 	0.0024945999 	7.3461835e-08 	0.00062905196
0.89690722 	0.0025844433 	0.0009757762 	1.5669207e-07 	0.0025886607 	2.0977436e-07 	0.001063058
0.90721649 	0.0027052968 	0.0010458902 	4.442748e-07 	0.0027023109 	6.4457036e-07 	0.001115
0.91752577 	0.0028552303 	0.0011295551 	6.1517729e-07 	0.002844649 	9.8101871e-07 	0.0011766176
0.92783505 	0.003043475 	0.001230163 	5.5762025e-07 	0.003025217 	9.5850793e-07 	0.0012498392
0.93814433 	0.0032739955 	0.0013513954 	1.2829393e-07 	0.0032492542 	2.2659506e-07 	0.0013340836
0.94845361 	0.0035368664 	0.0014960631 	1.8801426e-07 	0.0035039713 	4.5686213e-07 	0.00021521593
0.95876289 	0.0037908291 	0.0016692108 	4.610969e-07 	0.003759681 	4.6946559e-07 	0.0015870561
0.96907216 	0.0039441198 	0.0018290114 	1.2343961e-07 	0.0039235816 	2.6723601e-07 	0.00050572685
0.97938144 	0.0038212354 	0.0017747846 	-1.3974933e-07 	0.0038121023 	-2.9486595e-07 	0.0015959841
0.98969072 	0.0027936008 	0.0012997926 	-9.7937171e-07 	0.0027914361 	-2.0982285e-06 	0.001205958
