4.1667976e-36 	0.0065373336 	-4.4398241e-16 	-1.6137586e-22 	3.01531e-29 	1.2554129e-35 	1.2010294e-34
0.010869565 	0.0062661009 	-0.00039934255 	1.8044979e-08 	0.017240662 	-9.4308849e-06 	0.015331475
0.02173913 	0.0060233601 	-0.00081956724 	-8.913077e-10 	0.016672956 	-3.4001584e-06 	0.013485214
0.032608696 	0.0058141437 	-0.0012347172 	-1.8867262e-07 	0.015927566 	-5.1110948e-06 	0.0061916388
0.043478261 	0.0055632813 	-0.00167933 	-3.2075656e-08 	0.015129631 	-1.5958718e-05 	0.0099767071
0.054347826 	0.0054759231 	-0.0020773025 	-8.4166778e-07 	0.014219711 	-3.5901884e-06 	0.00018784624
0.065217391 	0.0053861994 	-0.0025845858 	-5.950051e-07 	0.013427772 	-8.294994e-07 	0.003842884
0.076086957 	0.0054000026 	-0.002965566 	-1.7519481e-06 	0.01285146 	-8.0390598e-07 	0.0011223305
0.086956522 	0.0054770346 	-0.0034795157 	-6.6937498e-08 	0.012487243 	-1.0178461e-05 	0.0048731183
0.097826087 	0.0056053939 	-0.0039577138 	-4.9683929e-07 	0.012278493 	-2.6628219e-05 	0.0039582599
0.10869565 	0.0057076554 	-0.0043885724 	-6.6529744e-08 	0.012204783 	-4.3278742e-08 	0.0030889283
0.11956522 	0.0057970729 	-0.0047559391 	1.2188653e-07 	0.012218663 	-8.6364433e-06 	0.0024595352
0.13043478 	0.0059532902 	-0.0050804072 	1.7659678e-06 	0.012181777 	-2.7926835e-05 	0.0017701675
0.14130435 	0.0060951656 	-0.0053574367 	-7.5130798e-07 	0.012096725 	-6.2217665e-07 	0.00026896704
0.15217391 	0.0062478313 	-0.0056751688 	2.3385032e-06 	0.011844334 	-3.3197555e-05 	0.00047348517
0.16304348 	0.0063555817 	-0.0059551521 	1.6435564e-06 	0.011535389 	-1.2627637e-05 	0.00017474942
0.17391304 	0.0063766501 	-0.0061813791 	3.7346236e-06 	0.01109577 	-2.8693552e-05 	0.00074080078
0.18478261 	0.0063651498 	-0.0063715411 	3.3240231e-06 	0.010604396 	-1.2224091e-05 	0.0012016608
0.19565217 	0.0062586359 	-0.0064197355 	7.1516129e-06 	0.010029817 	-2.6300047e-05 	0.001687307
0.20652174 	0.0061392233 	-0.0064381217 	1.5895301e-06 	0.0094324842 	-3.6671686e-06 	0.001945494
0.2173913 	0.0059581914 	-0.006291307 	1.2628184e-05 	0.0087991421 	-2.9134195e-05 	0.0023456051
0.22826087 	0.0058299238 	-0.0061250343 	7.5074555e-07 	0.0081402462 	7.5239459e-07 	0.00068078388
0.23913043 	0.0055918045 	-0.0058659538 	1.8348684e-05 	0.0075476605 	-3.1110781e-05 	0.002722933
0.25 	0.0054201161 	-0.0055717305 	9.5344995e-07 	0.0069354323 	2.9854667e-07 	0.0020082195
0.26086957 	0.0052274815 	-0.0052384204 	6.0185398e-06 	0.0063836583 	-8.0069541e-06 	0.0028774919
0.27173913 	0.0050445555 	-0.0048744092 	6.737834e-06 	0.0058683658 	-8.9638898e-06 	0.0031238842
0.2826087 	0.0049214848 	-0.0044919779 	2.9467216e-06 	0.0053777274 	5.9375649e-07 	0.00087794686
0.29347826 	0.0047217212 	-0.0041089163 	1.2540506e-05 	0.0049648748 	-1.3817423e-05 	0.003069807
0.30434783 	0.0045677004 	-0.003733737 	9.3401199e-07 	0.004569629 	1.7896441e-07 	0.0025342553
0.31521739 	0.0044281119 	-0.0033526167 	1.8850562e-06 	0.0042235375 	3.6119233e-07 	0.0016855248
0.32608696 	0.0042536249 	-0.0030003894 	1.1616009e-05 	0.0039151727 	-1.1512306e-05 	0.0030693641
0.33695652 	0.0041079087 	-0.0026766671 	1.5913847e-06 	0.0036280376 	3.5717984e-07 	0.0017383754
0.34782609 	0.0039518604 	-0.0023601113 	1.6470313e-06 	0.003374976 	3.696695e-07 	0.0015325543
0.35869565 	0.0037778776 	-0.0020717247 	7.5367748e-06 	0.0031406296 	-7.5970553e-06 	0.0029173946
0.36956522 	0.0036192131 	-0.0018284464 	9.5960406e-07 	0.0029192674 	2.9286713e-07 	0.0017787046
0.38043478 	0.0034563716 	-0.0016024181 	1.5940751e-06 	0.0027173712 	4.8650502e-07 	0.00086825453
0.39130435 	0.0032787071 	-0.0013803306 	1.884707e-06 	0.0025303941 	-2.1889869e-06 	0.002633748
0.40217391 	0.0031182852 	-0.0012083155 	2.5330094e-07 	0.0023491838 	1.2927874e-07 	0.0021949429
0.41304348 	0.0029646116 	-0.0010632025 	1.3517379e-06 	0.0021743983 	6.8989469e-07 	4.6789449e-05
0.42391304 	0.0027986706 	-0.00091243308 	3.6878673e-07 	0.0020214067 	1.8821992e-07 	0.0016774465
0.43478261 	0.0026511473 	-0.00078269296 	1.2080695e-06 	0.0018750748 	-1.6727843e-06 	0.0023182096
0.44565217 	0.0025306084 	-0.00068474373 	4.1328019e-07 	0.0017410512 	4.7789442e-07 	0.00099065116
0.45652174 	0.0024120406 	-0.00059132995 	5.3434137e-07 	0.0016169236 	6.1788288e-07 	0.00051134783
0.4673913 	0.0022904448 	-0.00049735223 	8.7991054e-08 	0.0015038398 	1.01748e-07 	0.0017429668
0.47826087 	0.0022055199 	-0.00041629942 	2.6319248e-08 	0.0014081397 	8.275474e-08 	0.0018569789
0.48913043 	0.0021588093 	-0.00034689132 	2.4992627e-07 	0.0013315299 	7.8583489e-07 	0.00058803966
0.5 	0.0021079853 	-0.00027717122 	2.4107507e-07 	0.0012596216 	7.5800435e-07 	0.00058843118
0.51086957 	0.0020536367 	-0.00020718377 	3.3034274e-08 	0.0011917419 	1.0386857e-07 	0.0016764911
0.52173913 	0.0020428035 	-0.0001352186 	3.139414e-08 	0.0011490624 	2.818604e-07 	0.0014984818
0.5326087 	0.0020614378 	-6.0545026e-05 	1.2850598e-07 	0.0011233665 	1.1537423e-06 	0.00038026333
0.54347826 	0.0020780273 	1.4436776e-05 	9.6397696e-08 	0.0011001347 	8.654702e-07 	0.00076826437
0.55434783 	0.0020939769 	8.9658223e-05 	6.1296789e-08 	0.0010785834 	-1.5820546e-08 	0.0019056746
0.56521739 	0.002145602 	0.0001742809 	-5.3417668e-09 	0.0010942215 	7.1657099e-07 	0.0011389137
0.57608696 	0.0022044753 	0.00026141261 	-1.2862368e-08 	0.0011173178 	1.7254216e-06 	5.5865655e-05
0.58695652 	0.0022682012 	0.00034675509 	-4.4730383e-09 	0.0011427207 	6.0003546e-07 	0.0013723976
0.59782609 	0.0023364794 	0.00043050048 	-2.5265045e-08 	0.0011831989 	2.5287566e-07 	0.0018040983
0.60869565 	0.0024126094 	0.00051205825 	-1.4932606e-07 	0.0012532968 	1.4945917e-06 	0.00046037155
0.61956522 	0.0024980764 	0.00059228422 	-1.0711382e-07 	0.0013228574 	1.072093e-06 	0.0010140615
0.63043478 	0.0025883378 	0.00067045621 	7.4801707e-08 	0.001395218 	7.8754327e-08 	0.0022983119
0.64130435 	0.0026746166 	0.00073567219 	-2.3028828e-07 	0.0015022581 	1.2742465e-06 	0.00078179797
0.65217391 	0.0027716311 	0.00079928407 	-2.2474943e-07 	0.0016084925 	1.2435985e-06 	0.00090926121
0.66304348 	0.0028792224 	0.0008610973 	1.068161e-07 	0.0017145675 	2.1729996e-07 	0.002555602
0.67391304 	0.0029787227 	0.00091578613 	-2.8004049e-07 	0.0018468516 	1.2859333e-06 	0.00082417353
0.68478261 	0.0030926451 	0.00096754128 	-2.4093739e-07 	0.0019789912 	1.1063736e-06 	0.0011869814
0.69565217 	0.0032168387 	0.0010176482 	-2.6540647e-08 	0.0021138999 	1.4995447e-07 	0.0026079684
0.70652174 	0.0033313314 	0.0010699865 	-2.6686113e-07 	0.0022673585 	1.5077635e-06 	0.0004380263
0.7173913 	0.0034711891 	0.0011187992 	-1.1287725e-07 	0.0024197824 	6.3775568e-07 	0.0020349091
0.72826087 	0.003609207 	0.0011693594 	-6.3036272e-08 	0.0025819955 	6.1240542e-07 	0.0019844317
0.73913043 	0.0037472189 	0.0012217068 	-1.351707e-07 	0.0027541473 	1.3132006e-06 	0.0006958935
0.75 	0.003912071 	0.0012725237 	2.2680661e-08 	0.0029263138 	8.5045029e-08 	0.0035173491
0.76086957 	0.0040542963 	0.0013278405 	-3.0523093e-08 	0.0031121182 	1.26146e-06 	0.00052260815
0.77173913 	0.0042284283 	0.0013830557 	-8.6226017e-09 	0.0032990665 	3.5635534e-07 	0.0029437652
0.7826087 	0.0043841725 	0.0014411315 	5.5080859e-08 	0.0034876264 	8.1726676e-07 	0.001474821
0.79347826 	0.0045534473 	0.0015014857 	3.7579103e-08 	0.0036787674 	5.5758302e-07 	0.0024379964
0.80434783 	0.0047150064 	0.0015637076 	1.0166783e-07 	0.0038669888 	5.8659703e-07 	0.0020992323
0.81521739 	0.0048765238 	0.0016287477 	9.6680102e-08 	0.00405432 	5.5781913e-07 	0.0023695829
0.82608696 	0.0050323183 	0.0016954186 	1.5716604e-07 	0.0042366563 	5.4066889e-07 	0.0021891779
0.83695652 	0.0051861321 	0.0017649145 	1.1803916e-07 	0.0044159548 	4.0606801e-07 	0.0029478684
0.84782609 	0.0053244723 	0.0018347223 	2.7091091e-07 	0.0045866162 	6.6107954e-07 	0.0015270253
0.85869565 	0.0054727022 	0.0019088901 	5.3300577e-08 	0.0047570415 	1.3006461e-07 	0.0043894714
0.86956522 	0.0055841026 	0.0019791224 	4.6778064e-07 	0.004911156 	9.1673836e-07 	0.00013462259
0.88043478 	0.0057154111 	0.0020559426 	1.418757e-07 	0.0050679043 	2.4699598e-07 	0.0039042742
0.89130435 	0.0058177985 	0.0021290225 	2.2237156e-07 	0.0052097837 	3.871338e-07 	0.0032252106
0.90217391 	0.0058972223 	0.0021968081 	5.2337463e-07 	0.005334296 	8.6177512e-07 	0.00042535169
0.91304348 	0.0059706113 	0.0022666824 	1.7942751e-07 	0.00544926 	2.7245884e-07 	0.0036514133
0.92391304 	0.0060032601 	0.0023267164 	6.0155627e-08 	0.0055311788 	9.1345705e-08 	0.0049917715
0.93478261 	0.0059489824 	0.0023544104 	1.386468e-07 	0.0055348182 	1.3847497e-07 	0.0035661336
0.94565217 	0.0057754677 	0.0023645768 	-1.4966875e-09 	0.0054252294 	-4.2557364e-08 	0.0051659393
0.95652174 	0.0053755902 	0.0023193904 	-1.8482165e-07 	0.0051106057 	-1.0305022e-06 	0.0003062675
0.9673913 	0.0047452211 	0.0021693525 	-3.2378522e-07 	0.0045916112 	-6.4057503e-07 	0.002493402
0.97826087 	0.0037900054 	0.0017493534 	-6.0680999e-07 	0.0037339221 	-1.2489005e-06 	0.00027254355
0.98913043 	0.0019563458 	0.00090821729 	-3.6702869e-07 	0.0019509308 	-7.6899665e-07 	0.0002551805
