0.46067416 	0.0025223988 	-0.0012299972 	-5.8150152e-07 	0.0027930952 	1.2981124e-06 	4.2726547e-05
0.47191011 	0.0044369743 	-0.0021560281 	-4.8259297e-07 	0.0048501919 	9.9213438e-07 	0.00027507515
0.48314607 	0.004732637 	-0.0022875688 	1.4802332e-08 	0.005056311 	-3.2504502e-07 	0.00050262709
0.49438202 	0.0047059564 	-0.0021580654 	1.7496072e-06 	0.0048596354 	-2.0847112e-06 	0.0006913317
0.50561798 	0.0045439419 	-0.0018044131 	7.4644131e-07 	0.0045376191 	-9.8216921e-07 	0.00081241867
0.51685393 	0.0042673599 	-0.0014949594 	3.9655669e-06 	0.0041631655 	-5.8583067e-06 	0.00090690004
0.52808989 	0.003928446 	-0.0011999519 	3.3065022e-06 	0.003738478 	-5.5164459e-06 	0.00095946972
0.53932584 	0.0035442147 	-0.00092405116 	2.1015527e-06 	0.0032879578 	-3.8184135e-06 	0.00096649163
0.5505618 	0.0031467687 	-0.00066843739 	1.825691e-06 	0.0028406304 	-3.4612247e-06 	0.00093173378
0.56179775 	0.0027743509 	-0.00043390769 	2.2976595e-06 	0.0024319545 	-4.2982315e-06 	0.00086836781
0.57303371 	0.0024502467 	-0.00022319811 	3.2345301e-06 	0.0020809728 	-5.7985767e-06 	0.00079131461
0.58426966 	0.0021851979 	-3.8236804e-05 	1.7588405e-06 	0.0017919764 	-2.9441338e-06 	0.00071627036
0.59550562 	0.0019840448 	0.00012178608 	-9.5251733e-09 	0.0015634962 	-4.8016097e-08 	0.0005594292
0.60674157 	0.0018582971 	0.00025887193 	-2.2286303e-08 	0.0013962255 	-1.6831074e-07 	0.00041770785
0.61797753 	0.0017993172 	0.00037903852 	1.5181999e-06 	0.0012857327 	-1.7159194e-06 	0.00064935312
0.62921348 	0.0017843347 	0.00048652377 	4.620741e-07 	0.0012158823 	-3.0911974e-07 	0.0006529341
0.64044944 	0.0018049828 	0.00057501618 	-7.0330115e-08 	0.0011868944 	-3.6962266e-07 	0.00029305963
0.65168539 	0.0018463572 	0.00064230586 	8.4156787e-07 	0.0012018045 	1.7065181e-07 	0.0006851534
0.66292135 	0.0018947395 	0.00068150018 	-7.5007462e-08 	0.0012457517 	-2.2493642e-07 	0.000461337
0.6741573 	0.0019542688 	0.00071580553 	2.1145671e-07 	0.001310838 	4.2034268e-07 	0.00071579712
0.68539326 	0.0020233944 	0.00075206285 	1.0105026e-07 	0.0013833389 	2.0765942e-07 	0.00075452281
0.69662921 	0.0021004712 	0.00079224168 	1.1644692e-07 	0.0014631881 	2.3929972e-07 	0.00074989759
0.70786517 	0.0021845898 	0.00083415243 	2.2353439e-07 	0.0015488771 	4.686244e-07 	0.00079550414
0.71910112 	0.0022748526 	0.00087863402 	1.5646081e-07 	0.0016388412 	3.2800928e-07 	0.00078557217
0.73033708 	0.0023741643 	0.00092582574 	2.2224474e-07 	0.0017359352 	4.6773671e-07 	0.00083815093
0.74157303 	0.0024831298 	0.00097707008 	2.6367784e-07 	0.0018403353 	5.5493689e-07 	0.0008226049
0.75280899 	0.0026042924 	0.0010326636 	2.8042444e-07 	0.0019546077 	5.845456e-07 	0.00088030205
0.76404494 	0.0027411058 	0.0010943889 	2.1438681e-07 	0.002080074 	4.4688996e-07 	0.00085903777
0.7752809 	0.0028953026 	0.0011623423 	6.8321121e-07 	0.0022183023 	1.4058437e-06 	0.00091981659
0.78651685 	0.0030649605 	0.0012360915 	-9.5270907e-09 	0.0023672238 	-9.3925527e-08 	0.00065231104
0.79775281 	0.0032582993 	0.0013204495 	1.6223578e-06 	0.0025384658 	3.3469138e-06 	0.00095383496
0.80898876 	0.0034633306 	0.0014101478 	-7.2175618e-09 	0.0027213868 	-1.3456123e-07 	0.000581641
0.82022472 	0.0036838706 	0.0014994645 	5.6734531e-07 	0.0029334065 	1.4461804e-06 	0.00097662675
0.83146067 	0.003908816 	0.001577218 	8.4595548e-07 	0.0031654707 	3.3743883e-06 	0.0010272077
0.84269663 	0.004134915 	0.0016453415 	7.4027963e-09 	0.0034107613 	-5.5959576e-08 	0.00081822387
0.85393258 	0.004359479 	0.001710685 	8.2521002e-08 	0.0036663504 	4.0069574e-07 	0.001015237
0.86516854 	0.0045801217 	0.0017784862 	6.2892698e-07 	0.0039188076 	2.8322424e-06 	0.0010340575
0.87640449 	0.0047924689 	0.0018447796 	7.1795842e-07 	0.0041636052 	3.2006937e-06 	0.0010374443
0.88764045 	0.004991821 	0.0019093505 	3.9352388e-07 	0.0043964488 	1.6776618e-06 	0.0010254463
0.8988764 	0.0051722816 	0.0019719009 	2.2825018e-07 	0.0046127497 	9.061804e-07 	0.00099884212
0.91011236 	0.0053272269 	0.0020319191 	1.8768325e-07 	0.0048071277 	6.5988608e-07 	0.00095899826
0.92134831 	0.0054490156 	0.0020889271 	2.3653906e-07 	0.0049728537 	6.6412165e-07 	0.00090744301
0.93258427 	0.0055278721 	0.0021425846 	3.3970057e-07 	0.0051012005 	5.5742439e-07 	0.00084568198
0.94382022 	0.0055502796 	0.0021921165 	1.8471749e-07 	0.0051793855 	-4.5000067e-08 	0.00077531476
0.95505618 	0.0054935275 	0.0022385798 	1.1115925e-08 	0.005186449 	-2.0986819e-08 	0.00029548367
0.96629213 	0.0053039077 	0.0022625753 	3.1976825e-09 	0.0050633549 	-1.0073699e-06 	0.00060290496
0.97752809 	0.0048062567 	0.0022035104 	-1.8011674e-06 	0.0046741016 	-3.6068478e-06 	0.0004786717
0.98876404 	0.0034020556 	0.0015748068 	-4.6229105e-06 	0.0033650654 	-9.8186353e-06 	0.00029445021
