1.640171e-35 	0.0074031457 	-5.0278396e-16 	-1.8274866e-22 	3.4146673e-29 	1.5572506e-35 	2.2167074e-34
0.010869565 	0.0074041623 	-0.00026495065 	-1.8055786e-09 	0.0085744254 	-9.7141785e-06 	0.0059055778
0.02173913 	0.0074273515 	-0.00055271569 	-2.8321802e-08 	0.008590381 	-1.2810933e-05 	0.0054244179
0.032608696 	0.0074515793 	-0.00083976886 	1.0411274e-09 	0.0086013699 	-4.8873495e-09 	0.0049396667
0.043478261 	0.0074691283 	-0.0011236842 	7.7728386e-10 	0.0085997778 	-1.2400905e-05 	0.0045000304
0.054347826 	0.0074769067 	-0.0014069927 	2.0641329e-07 	0.008577805 	-5.5574345e-07 	0.0018404166
0.065217391 	0.0074770616 	-0.0017020997 	2.453925e-07 	0.0085430014 	-5.3160404e-07 	0.001377516
0.076086957 	0.0074826252 	-0.0019532841 	1.5072688e-07 	0.0085154768 	-2.5545926e-07 	0.0020384903
0.086956522 	0.007499406 	-0.0022139166 	2.1004198e-07 	0.0084931628 	-1.2108255e-05 	0.0027792527
0.097826087 	0.0075224843 	-0.0024665091 	4.3808369e-07 	0.0084701357 	-1.4007944e-05 	0.0023881168
0.10869565 	0.0075490003 	-0.0027113134 	2.023183e-07 	0.008442868 	-2.1562069e-07 	0.0008894292
0.11956522 	0.0075761899 	-0.0029366221 	5.7923057e-07 	0.0084135875 	-1.057919e-05 	0.0016498033
0.13043478 	0.0076004933 	-0.0031479151 	1.2084076e-06 	0.0083769351 	-1.3834547e-05 	0.0012983407
0.14130435 	0.0076207745 	-0.0033476296 	7.3917509e-08 	0.0083362891 	-8.462503e-07 	0.00096144414
0.15217391 	0.0076310011 	-0.0035279127 	2.5764888e-06 	0.0082807588 	-2.2289048e-05 	0.00063846966
0.16304348 	0.0076383798 	-0.0037036849 	2.891437e-07 	0.0082192455 	-1.7837189e-06 	0.00032303055
0.17391304 	0.0076324475 	-0.0038485279 	3.2686932e-06 	0.0081281741 	-2.0164471e-05 	3.3749149e-05
0.18478261 	0.0076217037 	-0.003981523 	1.1230879e-06 	0.0080333277 	-4.0408429e-06 	0.00027914168
0.19565217 	0.0075852926 	-0.0040534048 	5.2200134e-06 	0.0079118702 	-1.8781481e-05 	0.00054342575
0.20652174 	0.0075427376 	-0.0041116359 	2.7772894e-07 	0.0077861268 	-6.3368393e-07 	0.00077936266
0.2173913 	0.0074495839 	-0.0040788343 	9.2666384e-06 	0.0076229238 	-2.1143349e-05 	0.0010139379
0.22826087 	0.00735206 	-0.0040392567 	1.4717999e-07 	0.007454315 	-6.8771482e-08 	0.00053322422
0.23913043 	0.0071903042 	-0.0039157916 	1.0172158e-05 	0.0072372032 	-1.8034112e-05 	0.0013845165
0.25 	0.0070162678 	-0.0037803363 	2.4927968e-06 	0.007008777 	-4.4194535e-06 	0.0015859827
0.26086957 	0.0067881425 	-0.0035932529 	4.2218542e-06 	0.0067359186 	-6.7213772e-06 	0.0016179069
0.27173913 	0.0065185627 	-0.0033764397 	9.6721091e-06 	0.0064324641 	-1.5398422e-05 	0.0017826123
0.2826087 	0.0062223202 	-0.0031391612 	2.3976956e-08 	0.0061034135 	1.6588034e-07 	0.00010555918
0.29347826 	0.0058885904 	-0.0028862274 	9.9437576e-06 	0.0057568561 	-1.5604273e-05 	0.0018048334
0.30434783 	0.005539414 	-0.0026265139 	3.9711481e-06 	0.0053947762 	-6.2317368e-06 	0.0019306081
0.31521739 	0.0051610745 	-0.0023538808 	-7.7251566e-08 	0.0050084385 	1.7445808e-07 	0.00095071391
0.32608696 	0.0047899385 	-0.0020993014 	1.1053539e-05 	0.0046393027 	-1.7966574e-05 	0.0017469111
0.33695652 	0.0044169156 	-0.0018458057 	9.4647083e-07 	0.004268282 	-1.5384066e-06 	0.0018355751
0.34782609 	0.0040475775 	-0.0016036683 	-1.2127804e-07 	0.0039053537 	2.00454e-07 	0.00084839944
0.35869565 	0.0037160074 	-0.0013904952 	7.9800781e-06 	0.0035847717 	-1.3498569e-05 	0.0015243894
0.36956522 	0.0033909145 	-0.0011824063 	9.1214389e-07 	0.0032701925 	-1.5429219e-06 	0.001582469
0.38043478 	0.0031011405 	-0.00099886241 	-1.6845819e-07 	0.0029908577 	2.1945475e-07 	0.00037714417
0.39130435 	0.0028493128 	-0.00083899465 	3.4139987e-06 	0.0027517222 	-5.9011241e-06 	0.0012629935
0.40217391 	0.0026171976 	-0.00068959085 	2.349684e-06 	0.0025296363 	-4.0614476e-06 	0.0012995885
0.41304348 	0.0024163093 	-0.00055669901 	-1.0901913e-07 	0.0023349691 	8.2421808e-08 	0.00021124082
0.42391304 	0.0022437734 	-0.00044135874 	-7.8559252e-09 	0.0021707445 	5.9393207e-09 	0.00099151082
0.43478261 	0.0021059958 	-0.00033819348 	3.7733887e-06 	0.0020376203 	-6.2013529e-06 	0.0010771773
0.44565217 	0.0019785152 	-0.00023870162 	-7.4617582e-09 	0.0019134697 	-4.518054e-09 	0.00085795864
0.45652174 	0.0018856672 	-0.00015302504 	-2.5756001e-08 	0.0018207632 	-1.5595118e-08 	0.00023898291
0.4673913 	0.0018050041 	-7.3309011e-05 	6.7466664e-07 	0.001742372 	-8.0348895e-07 	0.00095329948
0.47826087 	0.0017516272 	4.1789369e-06 	1.7390709e-06 	0.0016887713 	-2.0711329e-06 	0.0009688877
0.48913043 	0.0017156502 	7.9652513e-05 	1.0108428e-08 	0.0016508568 	-1.3517611e-08 	0.00054512139
0.5 	0.0016989616 	0.00015218677 	1.4734868e-08 	0.001631694 	-1.970437e-08 	0.00034369242
0.51086957 	0.0016895131 	0.00022349452 	7.7262511e-07 	0.0016212712 	-3.1374986e-07 	0.00096956882
0.52173913 	0.0016997992 	0.00029436028 	9.2505135e-07 	0.0016291768 	-3.7564755e-07 	0.00098130249
0.5326087 	0.0017285253 	0.00036445574 	2.8740219e-08 	0.0016540229 	7.0352244e-09 	0.00040570062
0.54347826 	0.0017670894 	0.00043571609 	2.5135608e-08 	0.0016897812 	6.1528635e-09 	0.00052934413
0.55434783 	0.0018135731 	0.00050723488 	1.1466577e-06 	0.00173434 	3.6774311e-07 	0.0010947296
0.56521739 	0.0018702953 	0.00057724599 	1.1964915e-09 	0.0017881691 	1.2791453e-09 	0.0010817892
0.57608696 	0.0019437111 	0.00064450085 	5.4433703e-08 	0.0018568917 	5.819399e-08 	7.8134554e-05
0.58695652 	0.0020196993 	0.00071489753 	7.6282658e-09 	0.0019319682 	8.1552273e-09 	0.0011139216
0.59782609 	0.0021053881 	0.00078301129 	9.0346839e-07 	0.0020153864 	8.092404e-07 	0.001288227
0.60869565 	0.0021989945 	0.00084874039 	3.9651924e-08 	0.0021052027 	6.1365283e-08 	0.00055025657
0.61956522 	0.0022990372 	0.00091531366 	3.1233874e-08 	0.0022034552 	4.8337516e-08 	0.00082691639
0.63043478 	0.0024046546 	0.00098203405 	1.1690774e-06 	0.0023082756 	1.6167063e-06 	0.0015140306
0.64130435 	0.002516005 	0.0010460422 	3.5359298e-08 	0.0024167531 	5.8573428e-08 	0.00090419669
0.65217391 	0.0026332089 	0.0011097794 	5.0294746e-08 	0.0025322025 	8.3314315e-08 	0.00074647273
0.66304348 	0.0027559016 	0.0011749763 	8.8652447e-07 	0.002655524 	1.6097704e-06 	0.0017623264
0.67391304 	0.0028834365 	0.0012375459 	4.8235227e-08 	0.002780656 	7.8876591e-08 	0.00099907918
0.68478261 	0.0030165865 	0.0013005515 	5.3644375e-08 	0.0029131682 	8.7721892e-08 	0.0010445579
0.69565217 	0.0031566488 	0.001364726 	6.9264011e-07 	0.0030545512 	1.5695932e-06 	0.0020246304
0.70652174 	0.0033028013 	0.0014259097 	9.1222289e-08 	0.0031978027 	1.543327e-07 	0.00063828905
0.7173913 	0.0034564187 	0.0014897635 	1.9966012e-08 	0.0033538088 	3.377912e-08 	0.0019536398
0.72826087 	0.0036175532 	0.0015525834 	4.9761427e-09 	0.0035157893 	1.3888914e-08 	0.0023026824
0.73913043 	0.0037858141 	0.0016126893 	1.167306e-07 	0.0036811112 	2.2334619e-07 	0.00052004676
0.75 	0.0039621731 	0.0016765575 	6.0183975e-07 	0.0038621626 	1.9757992e-06 	0.0025900172
0.76086957 	0.0041402088 	0.0017363799 	1.0160403e-07 	0.0040380559 	2.3603946e-07 	0.0007781119
0.77173913 	0.0043258125 	0.0017995836 	3.2184609e-08 	0.0042293031 	1.1827689e-07 	0.0028777468
0.7826087 	0.0045097349 	0.0018585921 	4.637792e-08 	0.0044138049 	1.3843182e-07 	0.0018335466
0.79347826 	0.0046960735 	0.0019182761 	3.0101325e-08 	0.0046043582 	8.9848387e-08 	0.0024084954
0.80434783 	0.0048783864 	0.0019750416 	1.7910671e-08 	0.0047910637 	7.5866042e-08 	0.0025354254
0.81521739 	0.0050559513 	0.0020293335 	2.8661634e-08 	0.0049733375 	1.2140498e-07 	0.0023315816
0.82608696 	0.0052231103 	0.0020796219 	8.032274e-09 	0.0051475165 	7.3408837e-08 	0.0026448045
0.83695652 	0.0053783703 	0.0021257886 	6.482427e-09 	0.0053111143 	5.9244421e-08 	0.0029554733
0.84782609 	0.0055066462 	0.0021628415 	-1.6707486e-08 	0.0054469205 	9.3136615e-08 	0.001913477
0.85869565 	0.0056159681 	0.0021955378 	-2.6356459e-08 	0.0055708505 	9.4679133e-08 	0.003741479
0.86956522 	0.0056752945 	0.0022119035 	-1.14783e-07 	0.0056364468 	5.189778e-09 	0.00012331154
0.88043478 	0.0057036582 	0.0022223489 	-8.3868971e-08 	0.0056868542 	-1.6598374e-07 	0.0038024841
0.89130435 	0.0056726411 	0.0022142514 	-3.9707353e-08 	0.0056707151 	-3.8068608e-08 	0.0030424834
0.90217391 	0.0055883353 	0.0021869325 	-2.320041e-07 	0.0055988782 	-2.7859874e-07 	0.00063417208
0.91304348 	0.005461381 	0.0021458907 	-1.1315952e-08 	0.0054952133 	-2.8968472e-08 	0.0036804987
0.92391304 	0.0052873107 	0.0020830535 	-4.5400727e-07 	0.0053355413 	-1.0969733e-06 	0.0035339526
0.93478261 	0.0050769908 	0.0019938898 	-4.6783785e-08 	0.0051327414 	-5.4705977e-08 	0.0029315215
0.94565217 	0.0047888471 	0.0018834636 	-6.5064862e-07 	0.0048494546 	-1.7972914e-06 	0.0032240492
0.95652174 	0.004413255 	0.00175846 	-2.5376386e-07 	0.0044655396 	-3.2775326e-07 	0.00041905341
0.9673913 	0.0038921168 	0.0016153359 	-3.5297901e-08 	0.003929325 	-5.3283816e-08 	0.0022223684
0.97826087 	0.0031340097 	0.0014441341 	-1.1215442e-07 	0.0031526133 	-1.9959786e-07 	0.0003190917
0.98913043 	0.0016332039 	0.00075986393 	-3.8762459e-08 	0.0016351806 	-8.5962452e-08 	0.00017149425
