0.4742268 	0.20167744 	3.7161014e-05 	-4.6783702e-08
0.48453608 	0.78592877 	0.00052726497 	-9.9446396e-08
0.49484536 	1.2124491 	0.0013595053 	2.8503918e-06
0.50515464 	1.4262127 	0.0019711454 	-1.4567347e-07
0.51546392 	1.4857837 	0.0020966048 	-8.3446759e-08
0.5257732 	1.4951344 	0.0020036911 	-1.4041233e-06
0.53608247 	1.4929282 	0.0018632673 	-4.4097106e-07
0.54639175 	1.4889386 	0.001719686 	-4.4083888e-08
0.55670103 	1.4846244 	0.0015849065 	-5.527576e-08
0.56701031 	1.480065 	0.0014503779 	-2.098376e-07
0.57731959 	1.4752974 	0.0013206888 	-1.05181e-06
0.58762887 	1.4705458 	0.0012109565 	-1.4895613e-06
0.59793814 	1.4659161 	0.0011186333 	-9.0252984e-08
0.60824742 	1.4612518 	0.0010439662 	-2.3303521e-07
0.6185567 	1.4566022 	0.00098915104 	-2.3864694e-07
0.62886598 	1.4516693 	0.0009572587 	-4.4399531e-07
0.63917526 	1.4465095 	0.00093355917 	1.7177738e-09
0.64948454 	1.4413204 	0.000929138 	-1.4758563e-07
0.65979381 	1.4359794 	0.00093494108 	-6.435629e-08
0.67010309 	1.4304806 	0.00090746295 	4.3352715e-08
0.68041237 	1.4249137 	0.00085322207 	-8.7875519e-07
0.69072165 	1.4189004 	0.00078721394 	9.7281006e-08
0.70103093 	1.4126527 	0.00072222829 	-1.1996187e-06
0.71134021 	1.4057889 	0.00065988499 	9.1274175e-08
0.72164948 	1.398863 	0.00060499583 	-9.9443791e-07
0.73195876 	1.3919495 	0.00054553692 	1.7390257e-08
0.74226804 	1.3851859 	0.00047469895 	-8.9007625e-07
0.75257732 	1.3790153 	0.00037928857 	-3.0580931e-09
0.7628866 	1.3734151 	0.00025105639 	-5.3294672e-07
0.77319588 	1.3681244 	0.00012939968 	-3.242592e-09
0.78350515 	1.3632225 	1.4183357e-05 	-5.8471279e-07
0.79381443 	1.3583799 	-8.4748026e-05 	-1.3479555e-08
0.80412371 	1.353531 	-0.00017314512 	-1.1829742e-06
0.81443299 	1.3487249 	-0.00026766551 	-2.6184372e-08
0.82474227 	1.343716 	-0.00036248951 	-1.0264226e-06
0.83505155 	1.3385857 	-0.00044012217 	-1.7337479e-09
0.84536082 	1.3331714 	-0.00050672492 	-8.1671748e-09
0.8556701 	1.3272982 	-0.0005655138 	-5.5457181e-07
0.86597938 	1.3209487 	-0.00061300252 	-1.2943217e-07
0.87628866 	1.313934 	-0.00064825955 	1.6737257e-08
0.88659794 	1.3059738 	-0.00067295063 	2.4538651e-08
0.89690722 	1.2968171 	-0.00068358144 	1.3631585e-09
0.90721649 	1.2860184 	-0.00067600744 	1.2142303e-07
0.91752577 	1.2729985 	-0.00064742955 	3.0299938e-07
0.92783505 	1.2568029 	-0.00059213795 	3.4920244e-07
0.93814433 	1.2360648 	-0.00050427409 	1.0231675e-08
0.94845361 	1.2085061 	-0.00039155122 	2.1568576e-07
0.95876289 	1.1712472 	-0.00018599035 	3.5616407e-07
0.96907216 	1.1178698 	-8.6077917e-05 	1.1901566e-07
0.97938144 	1.0125246 	4.4107628e-05 	4.7657803e-08
0.98969072 	0.75022055 	8.6971293e-05 	-9.0580413e-08
