1.4213861e-19 	0.0071087187 	-4.8278798e-16 	-1.7548065e-22 	3.2788501e-29 	1.1917752e-35 	4.3317875e-42
0.010869565 	0.0071115167 	-0.00022626825 	-1.2158848e-08 	0.0080987763 	-1.0453254e-05 	0.0051699443
0.02173913 	0.0071366692 	-0.00048079085 	-4.3094081e-08 	0.0081181923 	-1.390222e-05 	0.0047629746
0.032608696 	0.0071664209 	-0.00073453728 	-5.6631522e-09 	0.0081375415 	-2.3004861e-06 	0.0043689133
0.043478261 	0.0071937728 	-0.00098516272 	-7.5176974e-09 	0.0081498597 	-1.1328662e-05 	0.0039857038
0.054347826 	0.0072152198 	-0.0012343142 	1.2997436e-07 	0.0081485756 	-3.3270857e-07 	0.0021511974
0.065217391 	0.0072319357 	-0.0014950138 	2.2794523e-07 	0.0081364475 	-4.8026801e-07 	0.001055237
0.076086957 	0.0072494513 	-0.0017143415 	7.7184541e-08 	0.0081294729 	-1.3086684e-07 	0.0022530057
0.086956522 	0.0072755721 	-0.0019431467 	2.1330659e-07 	0.0081241043 	-1.2870427e-05 	0.0025320715
0.097826087 	0.0073048933 	-0.0021645518 	3.6983858e-07 	0.0081172009 	-1.2379921e-05 	0.0021986836
0.10869565 	0.0073352121 	-0.0023791005 	2.2012671e-07 	0.0081049155 	-2.5046312e-07 	0.00055108749
0.11956522 	0.0073626589 	-0.0025772676 	5.5140191e-07 	0.0080905882 	-1.1037103e-05 	0.0015615575
0.13043478 	0.0073864343 	-0.0027642428 	9.6501989e-07 	0.0080664325 	-1.2087146e-05 	0.0012573027
0.14130435 	0.0074061491 	-0.0029398763 	1.3250648e-07 	0.008033902 	-1.659681e-06 	0.00096438569
0.15217391 	0.0074143006 	-0.0030904425 	2.6997955e-06 	0.0079870937 	-2.195103e-05 	0.00068343503
0.16304348 	0.0074186102 	-0.003233922 	6.8261667e-08 	0.0079364066 	-3.9724188e-07 	0.0004068699
0.17391304 	0.0074030787 	-0.0033474303 	3.3472862e-06 	0.0078650352 	-1.9479194e-05 	0.00015436421
0.18478261 	0.0073843884 	-0.0034558655 	7.6042973e-07 	0.0077895445 	-3.3341986e-06 	0.00012385095
0.19565217 	0.0073458398 	-0.00353267 	4.3538812e-06 	0.0076860873 	-1.9090133e-05 	0.00035467869
0.20652174 	0.0073050628 	-0.0036053771 	9.7147462e-08 	0.0075787079 	-2.9751657e-07 	0.00056771757
0.2173913 	0.0072308378 	-0.003619995 	7.0032562e-06 	0.0074358423 	-2.144765e-05 	0.00077350247
0.22826087 	0.0071558719 	-0.003633413 	4.2351403e-08 	0.0072919663 	-1.8040258e-08 	0.00080747974
0.23913043 	0.007031793 	-0.0035736508 	7.5514675e-06 	0.0071119072 	-1.6428306e-05 	0.0011165358
0.25 	0.0068983483 	-0.0035026999 	2.6512615e-06 	0.0069248707 	-5.7678507e-06 	0.0012950855
0.26086957 	0.0067253772 	-0.0033861068 	3.4527933e-06 	0.0067080785 	-6.1998801e-06 	0.0013592583
0.27173913 	0.0065134526 	-0.0032347228 	8.7969313e-06 	0.0064615247 	-1.5795883e-05 	0.0015080606
0.2826087 	0.0062842541 	-0.003068322 	1.279507e-07 	0.0061969259 	2.2654608e-08 	0.00011933745
0.29347826 	0.0060073999 	-0.0028713744 	8.7260443e-06 	0.0059016421 	-1.4835323e-05 	0.0015877341
0.30434783 	0.0057140702 	-0.0026656923 	4.7063115e-06 	0.0055895735 	-8.0012946e-06 	0.0017047017
0.31521739 	0.0053896288 	-0.0024420292 	-1.1661267e-08 	0.0052496227 	9.1752873e-08 	0.00086568993
0.32608696 	0.0050462512 	-0.0022168873 	1.07206e-05 	0.004902053 	-1.8395778e-05 	0.0016000619
0.33695652 	0.0046973044 	-0.0019897798 	2.3176521e-06 	0.0045489786 	-3.9769243e-06 	0.0016850679
0.34782609 	0.004329647 	-0.0017567641 	-7.2604656e-08 	0.0041819559 	1.5272445e-07 	0.00080992136
0.35869565 	0.0039849353 	-0.0015435007 	8.7687169e-06 	0.00384495 	-1.5346006e-05 	0.0014225862
0.36956522 	0.0036419787 	-0.0013320971 	2.2974837e-06 	0.0035096572 	-4.0207934e-06 	0.0014789201
0.38043478 	0.0033123583 	-0.001130828 	-1.5332697e-07 	0.003189403 	2.5771583e-07 	0.00032989755
0.39130435 	0.0030274748 	-0.00095626773 	4.3224467e-06 	0.0029171127 	-7.5787054e-06 	0.0011588096
0.40217391 	0.0027610582 	-0.00079072013 	3.7060545e-06 	0.0026613073 	-6.4979622e-06 	0.0011935139
0.41304348 	0.0025200444 	-0.00063739723 	-1.1567551e-07 	0.0024285879 	1.5283776e-07 	0.00028709717
0.42391304 	0.0023168887 	-0.00050553103 	1.2318135e-07 	0.0022353713 	-1.9973806e-07 	0.00093539054
0.43478261 	0.0021593051 	-0.0003897309 	5.0510844e-06 	0.0020839309 	-8.190313e-06 	0.00095663573
0.44565217 	0.0020045648 	-0.00027492388 	-4.458488e-09 	0.0019350433 	3.4180827e-09 	0.0009114685
0.45652174 	0.0019004225 	-0.00017902714 	-5.0210903e-08 	0.0018326148 	3.8493996e-08 	0.00020562396
0.4673913 	0.0018140429 	-9.0962413e-05 	1.107839e-06 	0.0017497443 	-1.2601002e-06 	0.00083229523
0.47826087 	0.0017550935 	-6.3294095e-06 	2.4849373e-06 	0.0016919396 	-2.8264668e-06 	0.00084630059
0.48913043 	0.0017095503 	7.6195727e-05 	-2.4245881e-09 	0.0016463426 	3.7282456e-10 	0.00057207477
0.5 	0.0016932931 	0.00015340562 	-4.6012965e-09 	0.0016286377 	7.0753308e-10 	0.00031354269
0.51086957 	0.001687521 	0.00022870251 	1.130785e-06 	0.0016227173 	-3.9629267e-07 	0.00084966958
0.52173913 	0.0016994822 	0.00030284833 	1.4459424e-06 	0.0016331899 	-5.0674212e-07 	0.00086025259
0.5326087 	0.0017262289 	0.00037564488 	1.2569203e-08 	0.0016572439 	6.9320629e-09 	0.0004308781
0.54347826 	0.0017682727 	0.00044857474 	1.2029407e-08 	0.0016971192 	6.6343588e-09 	0.00050050972
0.55434783 	0.0018201306 	0.00052147589 	1.4484006e-06 	0.0017474996 	5.4772285e-07 	0.00096871831
0.56521739 	0.0018801317 	0.00059307269 	3.5047676e-07 	0.0018051438 	1.3253524e-07 	0.00097767831
0.57608696 	0.0019551599 	0.00066183264 	3.7263664e-08 	0.0018760619 	4.0057334e-08 	0.00010744885
0.58695652 	0.0020351827 	0.00073319461 	1.8431945e-09 	0.0019553615 	1.9813794e-09 	0.0010908846
0.59782609 	0.0021259917 	0.00080237034 	1.2679438e-06 	0.0020438654 	1.2006287e-06 	0.0011487669
0.60869565 	0.0022220444 	0.00087004276 	2.7052609e-08 	0.0021365337 	3.862574e-08 	0.00058871509
0.61956522 	0.0023260657 	0.0009380981 	2.2574889e-08 	0.0022386678 	3.2232447e-08 	0.00079963279
0.63043478 	0.0024365097 	0.0010063276 	1.4123086e-06 	0.0023480948 	1.9947953e-06 	0.0013566808
0.64130435 	0.0025511528 	0.0010727888 	2.0912623e-08 	0.0024601793 	3.3955907e-08 	0.00095473728
0.65217391 	0.0026724366 	0.0011386706 	3.8293887e-08 	0.0025795074 	6.2177933e-08 	0.00071510269
0.66304348 	0.0028001149 	0.0012059329 	1.104719e-06 	0.0027075276 	2.0214759e-06 	0.0015842995
0.67391304 	0.0029318034 	0.0012712285 	2.8325477e-08 	0.0028372665 	5.0789208e-08 	0.0010584732
0.68478261 	0.0030698132 	0.0013365951 	3.7508704e-08 	0.0029745678 	6.7255261e-08 	0.0010162335
0.69565217 	0.0032161361 	0.0014027496 	9.4555254e-07 	0.0031220747 	2.1870191e-06 	0.0018252607
0.70652174 	0.0033680331 	0.0014661942 	5.9401293e-08 	0.0032718628 	1.2458576e-07 	0.00069731166
0.7173913 	0.0035284338 	0.0015317181 	6.1536562e-09 	0.0034348849 	1.2906418e-08 	0.0019451478
0.72826087 	0.0036977246 	0.0015951529 	2.0220699e-07 	0.003605167 	5.9715754e-07 	0.0020827489
0.73913043 	0.003873341 	0.0016556838 	7.8317151e-08 	0.003778845 	2.0702815e-07 	0.00047415232
0.75 	0.0040578477 	0.0017187944 	6.9178057e-07 	0.003968447 	2.5152083e-06 	0.0023497198
0.76086957 	0.0042428461 	0.001777411 	5.5625055e-08 	0.0041528153 	1.9668432e-07 	0.00085344143
0.77173913 	0.0044345597 	0.0018378358 	1.2370411e-07 	0.0043505948 	5.2898033e-07 	0.0026143363
0.7826087 	0.0046218452 	0.001893381 	1.6025604e-08 	0.0045403378 	8.3429686e-08 	0.0019431348
0.79347826 	0.0048088743 	0.0019479523 	9.8807068e-09 	0.0047326968 	5.1439201e-08 	0.0024050872
0.80434783 	0.0049865968 	0.0019981177 	1.5807101e-09 	0.004916515 	1.9695932e-08 	0.0026631259
0.81521739 	0.0051541204 	0.002043967 	5.6142633e-09 	0.0050900458 	6.9954727e-08 	0.0023118821
0.82608696 	0.0053044594 	0.0020842962 	-2.9543302e-09 	0.0052492503 	1.8181552e-08 	0.0027621732
0.83695652 	0.0054354703 	0.002118496 	-2.7435804e-09 	0.0053899311 	1.6884555e-08 	0.0029218167
0.84782609 	0.0055321857 	0.0021421812 	-3.4337948e-08 	0.0054957559 	1.2360702e-08 	0.0019972039
0.85869565 	0.0056015776 	0.0021589966 	-1.494645e-07 	0.0055799332 	-1.4230832e-07 	0.003306635
0.86956522 	0.005624137 	0.0021607342 	-1.436903e-07 	0.0056099642 	-1.194207e-07 	0.0001820015
0.88043478 	0.0056118877 	0.0021541495 	-2.5123352e-07 	0.005618183 	-5.3287905e-07 	0.0033209433
0.89130435 	0.0055532629 	0.0021315953 	-2.1779247e-08 	0.0055731517 	-2.6127934e-08 	0.0029240181
0.90217391 	0.0054529539 	0.002092154 	-1.9281941e-07 	0.0054820571 	-2.4591621e-07 	0.00067085437
0.91304348 	0.0053176929 	0.0020408003 	-2.1977625e-07 	0.0053641031 	-5.3952422e-07 	0.0031753647
0.92391304 	0.0051464993 	0.0019737336 	-6.4318573e-07 	0.0052014122 	-1.5596959e-06 	0.0030448023
0.93478261 	0.0049424725 	0.0018862727 	-8.9779671e-09 	0.0050000027 	-1.1740029e-08 	0.002803807
0.94565217 	0.0046623324 	0.0017847241 	-7.6079512e-07 	0.0047186715 	-2.2935442e-06 	0.0027757545
0.95652174 	0.0042985857 	0.0016754947 	-1.464091e-07 	0.0043439606 	-2.4318662e-07 	0.00044671125
0.9673913 	0.0037942841 	0.0015544808 	-5.0027881e-09 	0.0038236133 	-1.039713e-08 	0.0021959033
0.97826087 	0.0030658196 	0.0014085465 	-5.9479199e-08 	0.003078978 	-1.4182302e-07 	0.00033388522
0.98913043 	0.0016036324 	0.00074592654 	-2.8371167e-08 	0.0016044144 	-6.2229137e-08 	0.00015820108
