0.47916667 	2.0078036e-06 	-6.7006662e-07 	6.7698042e-10 	2.0048722e-06 	-1.8229547e-09 	1.4524675e-06
0.48958333 	2.1643251e-08 	-2.4582027e-11 	-4.0842144e-13 	2.1605633e-08 	1.2439945e-11 	1.9939216e-09
0.5 	1.5149482e-08 	-2.349739e-14 	1.0840085e-16 	1.5137436e-08 	-3.5204122e-12 	8.8307595e-09
0.51041667 	3.5544442e-09 	-4.762846e-16 	2.1826467e-18 	3.5516777e-09 	-3.3168127e-11 	2.1031733e-09
0.52083333 	2.3292515e-10 	-1.8472985e-16 	-3.823995e-18 	2.3256738e-10 	2.6032158e-12 	4.523805e-11
0.53125 	8.0088915e-11 	1.7774978e-15 	6.0813494e-18 	7.9993184e-11 	1.786651e-13 	2.9714434e-11
0.54166667 	2.5040467e-09 	1.4094901e-11 	6.0597334e-13 	2.5009549e-09 	9.7606395e-11 	1.2968449e-10
0.55208333 	4.4009063e-07 	1.4639819e-08 	6.1689998e-10 	4.4064726e-07 	1.5814698e-08 	5.1103855e-08
0.5625 	7.943451e-06 	1.0078083e-06 	3.7136158e-08 	8.0254674e-06 	1.2014018e-07 	3.3189405e-06
0.57291667 	5.3560283e-05 	1.6616336e-05 	-1.0756024e-09 	5.5031164e-05 	-3.9650614e-09 	3.3377478e-05
0.58333333 	0.00018782494 	2.1294846e-05 	-2.5957929e-08 	0.00018928852 	-2.4771591e-07 	5.9723234e-05
0.59375 	0.00041800321 	3.7666677e-05 	-4.6100722e-08 	0.00041929284 	-6.2509262e-07 	3.0836852e-05
0.60416667 	0.0006888455 	7.8050269e-05 	8.8654599e-08 	0.00069095606 	4.8293322e-07 	0.00031443129
0.61458333 	0.00094012834 	0.00014304322 	7.8766778e-07 	0.00094259928 	2.2052286e-06 	0.00049998205
0.625 	0.0011417884 	0.00022279551 	-6.8923818e-08 	0.0011435906 	-2.5203821e-07 	0.00035060886
0.63541667 	0.0013023666 	0.0003104458 	-5.0795366e-08 	0.001302976 	-9.0334526e-08 	0.00047601271
0.64583333 	0.0014314189 	0.00040269362 	1.1457375e-06 	0.0014307761 	1.1148825e-06 	0.00075393286
0.65625 	0.0015335268 	0.00050041841 	-1.9674206e-07 	0.0015313787 	-1.5340986e-07 	0.00019261631
0.66666667 	0.0016140976 	0.00060103369 	7.0873013e-07 	0.0016168788 	4.0207908e-07 	0.00083556694
0.67708333 	0.0016760237 	0.00070995399 	-6.4200146e-08 	0.0016874399 	-2.2252835e-08 	0.00070138918
0.6875 	0.0017256946 	0.00078251296 	-4.1692591e-09 	0.0017446487 	-6.9056595e-10 	0.00086818045
0.69791667 	0.0017673983 	0.00082136895 	7.5015033e-09 	0.00179088 	8.7929908e-09 	0.00093847352
0.70833333 	0.0018027917 	0.00084380283 	3.2013445e-09 	0.0018296585 	6.0785304e-09 	0.00081023247
0.71875 	0.0018344061 	0.00085979552 	1.7026123e-10 	0.0018656494 	6.4444572e-10 	0.00097659629
0.72916667 	0.0018619908 	0.00087423574 	9.0540712e-10 	0.001900232 	3.427003e-09 	0.00097666221
0.73958333 	0.0018868414 	0.00088795882 	7.5719047e-09 	0.001935538 	1.6401527e-08 	0.00080039927
0.75 	0.0019115585 	0.00090156924 	4.8675469e-09 	0.0019713901 	4.3509186e-08 	0.0010094394
0.76041667 	0.0019359374 	0.00091412346 	1.153601e-08 	0.0020055559 	3.1273154e-08 	0.00064952502
0.77083333 	0.0019647197 	0.00090831483 	-1.3968824e-07 	0.0020397986 	3.0056141e-08 	0.0010413947
0.78125 	0.0019977473 	0.00087647385 	1.5271142e-08 	0.0020679826 	2.2194407e-08 	0.00076953802
0.79166667 	0.0020337267 	0.00085128977 	-3.1042605e-08 	0.0020996376 	3.1977731e-09 	0.0010751905
0.80208333 	0.0020718487 	0.00084241337 	-3.7299258e-08 	0.0021336004 	1.8917108e-08 	0.0011089
0.8125 	0.0021134734 	0.00083651598 	7.2444179e-08 	0.002169381 	4.6316883e-08 	0.00055492169
0.82291667 	0.0021601475 	0.00083616129 	-1.239108e-07 	0.002211514 	2.2747744e-07 	0.0011453777
0.83333333 	0.0022122751 	0.00084223296 	9.4515999e-08 	0.00225457 	6.3725943e-08 	0.00050928132
0.84375 	0.0022715755 	0.00085639376 	2.5258286e-08 	0.0023066155 	2.003421e-08 	0.0010162832
0.85416667 	0.0023396828 	0.00087967591 	2.1967849e-07 	0.0023675244 	4.6848166e-07 	0.0012345433
0.86458333 	0.0024169987 	0.00091110873 	4.1893392e-08 	0.0024365229 	4.068837e-08 	0.00099205463
0.875 	0.0025072226 	0.00095242094 	1.633616e-07 	0.0025173918 	1.9659198e-07 	0.00017820378
0.88541667 	0.0026143146 	0.00100492 	3.1183219e-08 	0.002618476 	4.6095278e-08 	0.0011416706
0.89583333 	0.002744908 	0.0010695278 	2.738178e-07 	0.0027417306 	4.8056961e-07 	0.0014267114
0.90625 	0.0029055272 	0.0011475854 	6.0950323e-07 	0.0028946628 	1.1401627e-06 	0.0015154626
0.91666667 	0.003102523 	0.0012410831 	7.984385e-07 	0.003084282 	1.5692462e-06 	0.0016196941
0.92708333 	0.0033378818 	0.0013521943 	7.0892696e-07 	0.0033132361 	1.4042028e-06 	0.0017371286
0.9375 	0.003601554 	0.0014820084 	2.1102926e-07 	0.0035727703 	3.9725077e-07 	0.0018606639
0.94791667 	0.0038637474 	0.0016283771 	1.55296e-07 	0.003830788 	3.6811525e-07 	0.0007183248
0.95833333 	0.0040798407 	0.0017884746 	1.919312e-08 	0.0040501396 	4.5011241e-08 	0.0019601422
0.96875 	0.0041676943 	0.0019334743 	1.6334178e-07 	0.0041495991 	3.5425794e-07 	9.4588922e-05
0.97916667 	0.0039844299 	0.0018512721 	-1.9270428e-07 	0.0039779006 	-4.085291e-07 	0.0020978836
0.98958333 	0.0029137144 	0.0013556943 	-9.8307842e-07 	0.0029123864 	-2.1091801e-06 	0.0015712889
