0.4742268 	2.7728117e-06 	-1.0256777e-06 	-4.4129848e-08 	2.7682601e-06 	1.157441e-07 	5.7417023e-08
0.48453608 	2.2462398e-08 	-7.5962666e-13 	-1.1285318e-14 	2.2433754e-08 	3.0268375e-12 	7.4382161e-09
0.49484536 	2.0125993e-10 	-4.0426454e-18 	9.5812649e-20 	2.0094087e-10 	-4.9986409e-12 	3.3887063e-11
0.50515464 	3.5535401e-12 	-4.809394e-17 	-2.8414265e-22 	3.5497959e-12 	3.4637588e-18 	1.5896992e-12
0.51546392 	2.7317255e-12 	-2.0522007e-16 	1.6457814e-18 	2.7284744e-12 	8.3674432e-15 	1.0171349e-12
0.5257732 	2.9034327e-10 	9.2008124e-13 	3.2473969e-14 	2.8992111e-10 	1.0026806e-11 	3.2933043e-12
0.53608247 	2.1650525e-08 	9.6877655e-10 	8.7885721e-12 	2.1729419e-08 	1.8784302e-10 	5.9224201e-10
0.54639175 	4.6249963e-07 	1.2881493e-08 	1.9399751e-11 	4.631757e-07 	6.894382e-10 	3.4697377e-08
0.55670103 	5.754346e-06 	2.1947891e-07 	2.0188878e-10 	5.7681217e-06 	5.0266451e-09 	6.0321288e-07
0.56701031 	3.1122782e-05 	1.934027e-06 	8.1924477e-09 	3.1277415e-05 	1.0658958e-07 	7.1215634e-06
0.57731959 	7.8798496e-05 	6.5942813e-06 	4.3908344e-08 	7.9395072e-05 	3.6023309e-07 	3.2814266e-05
0.58762887 	0.00010796369 	1.1422266e-05 	2.1467792e-08 	0.00010906513 	1.127955e-07 	5.0583329e-05
0.59793814 	0.00010812297 	1.1461012e-05 	-4.6225143e-09 	0.00010924536 	-2.4707682e-08 	4.7163594e-05
0.60824742 	0.0001103551 	1.1525295e-05 	1.0858147e-07 	0.00011136087 	7.8659005e-07 	1.6670431e-06
0.6185567 	0.00011936366 	1.2038483e-05 	1.2062198e-08 	0.00012042967 	1.0576894e-07 	4.831591e-05
0.62886598 	0.00016311666 	1.8590355e-05 	1.1789833e-07 	0.00016456652 	6.9024473e-07 	7.3235968e-05
0.63917526 	0.00023287228 	3.2560635e-05 	2.0215399e-07 	0.00023486904 	9.6726059e-07 	2.9475847e-05
0.64948454 	0.00029435246 	4.7637222e-05 	1.7222601e-07 	0.00029726749 	6.3922812e-07 	0.00012216505
0.65979381 	0.00035788568 	7.0298434e-05 	8.8511077e-08 	0.00036187773 	1.8571984e-07 	0.00016569385
0.67010309 	0.00039827719 	8.8817768e-05 	6.6423054e-08 	0.00040295465 	1.8524875e-07 	0.00014920021
0.68041237 	0.00043137494 	0.00010989775 	2.8125568e-07 	0.0004364588 	4.2026587e-07 	0.00018913796
0.69072165 	0.00047091405 	0.00013449215 	5.068137e-07 	0.00047528396 	1.1370667e-06 	8.6258015e-05
0.70103093 	0.0005324461 	0.0001673094 	8.1092396e-07 	0.00053575656 	1.5065383e-06 	0.00022503985
0.71134021 	0.00062551533 	0.00021791165 	6.7672633e-07 	0.00062719251 	1.2232365e-06 	9.4489441e-05
0.72164948 	0.00075430492 	0.00028395364 	1.320444e-06 	0.00075554914 	2.6789724e-06 	0.00031722713
0.73195876 	0.00090371409 	0.000357518 	3.0022111e-07 	0.00090627442 	4.6503549e-07 	0.00023445259
0.74226804 	0.0010686543 	0.00043495704 	8.1355831e-07 	0.0010768035 	2.0936702e-06 	0.00045178108
0.75257732 	0.0012357102 	0.00050203998 	8.9462893e-08 	0.0012493851 	2.3023033e-07 	0.00045211007
0.7628866 	0.0013822536 	0.00054330349 	2.5651502e-07 	0.0014042818 	1.0881428e-06 	0.0005697595
0.77319588 	0.0015260026 	0.00058140988 	7.6947393e-08 	0.0015544885 	3.2641267e-07 	0.00057004584
0.78350515 	0.0016420987 	0.00060162311 	1.4100386e-07 	0.0016755273 	8.9345309e-07 	0.00065636684
0.79381443 	0.0017522934 	0.00062376081 	5.3736505e-08 	0.0017898486 	8.5755929e-08 	0.0005584091
0.80412371 	0.0018413703 	0.0006402651 	1.9445969e-07 	0.0018819684 	1.0918363e-06 	0.00071836963
0.81443299 	0.0019247716 	0.00065894526 	2.0737544e-07 	0.001965203 	3.3864975e-07 	8.7237703e-05
0.82474227 	0.002000908 	0.00067982902 	2.1642253e-07 	0.002041466 	7.563653e-07 	0.00076589205
0.83505155 	0.0020718334 	0.00070271913 	4.1225546e-08 	0.0021098078 	8.8889855e-08 	0.00080555856
0.84536082 	0.0021413976 	0.00073026325 	4.6726248e-08 	0.0021752387 	7.2640646e-08 	0.00051502828
0.8556701 	0.0022105324 	0.00076216362 	3.5299268e-07 	0.0022403602 	5.5653805e-07 	0.00084173561
0.86597938 	0.0022816859 	0.00079836972 	2.0879535e-07 	0.0023063802 	2.7938347e-07 	0.00087693257
0.87628866 	0.0023572116 	0.00084014429 	7.0370844e-08 	0.0023752797 	1.0697572e-07 	0.00031077902
0.88659794 	0.0024401624 	0.00088918185 	3.5627808e-08 	0.0024529464 	5.5987618e-08 	0.00061876783
0.89690722 	0.0025334849 	0.00094631158 	1.9417698e-07 	0.0025405651 	2.4388824e-07 	0.00095219396
0.90721649 	0.002642969 	0.0010131282 	4.7046615e-07 	0.0026431866 	6.2766527e-07 	0.00099518537
0.91752577 	0.0027770733 	0.0010924058 	6.376637e-07 	0.0027698061 	9.3381905e-07 	0.0010453001
0.92783505 	0.0029462969 	0.0011879004 	5.9469734e-07 	0.0029311105 	9.5218731e-07 	0.0011050409
0.93814433 	0.0031586997 	0.0013040599 	1.9829188e-07 	0.0031362902 	3.3442163e-07 	0.0011753104
0.94845361 	0.0034128928 	0.001445378 	1.7549634e-07 	0.003381287 	4.234063e-07 	0.00020761355
0.95876289 	0.0036750671 	0.0016195897 	5.6942155e-07 	0.0036434827 	6.2575613e-07 	0.0014060074
0.96907216 	0.0038538559 	0.0017867617 	1.1977384e-07 	0.0038320764 	2.5945781e-07 	0.00049510663
0.97938144 	0.0037595841 	0.0017458478 	-1.6410721e-07 	0.0037492813 	-3.4537187e-07 	0.001432576
0.98969072 	0.0027569198 	0.0012827554 	-1.1414655e-06 	0.0027544131 	-2.443418e-06 	0.0010867258
