0 	0.0080468361 	-5.4650014e-16 	-1.9863833e-22 	3.7115507e-29 	1.3490504e-35 	4.9034412e-42
0.010869565 	0.0080324086 	-0.00035094041 	1.1244595e-08 	0.010249014 	-8.4945067e-06 	0.0080825953
0.02173913 	0.0080226063 	-0.00071560269 	-7.3267629e-09 	0.010222753 	-8.7430993e-06 	0.0073576519
0.032608696 	0.0079935468 	-0.0010812009 	1.0727384e-07 	0.010162424 	-9.8341056e-07 	0.0048842563
0.043478261 	0.0079449274 	-0.0014425859 	5.5857108e-09 	0.010071743 	-1.4364386e-05 	0.0059435507
0.054347826 	0.0078749111 	-0.0018084754 	4.1794735e-07 	0.0099409123 	-1.9948094e-06 	0.0011383043
0.065217391 	0.0078009874 	-0.0021882298 	2.9442702e-07 	0.0097932936 	-1.0790783e-06 	0.0021900886
0.076086957 	0.0077587812 	-0.0025213339 	3.6568804e-07 	0.0096721349 	-9.8267486e-07 	0.0015763069
0.086956522 	0.0077477694 	-0.0028635533 	1.494252e-07 	0.0095718273 	-1.0763381e-05 	0.0034205348
0.097826087 	0.0077592664 	-0.0031989052 	4.236235e-07 	0.0094866178 	-1.8546714e-05 	0.0028731882
0.10869565 	0.0077836317 	-0.0035302494 	1.5016643e-07 	0.0094157903 	-2.317041e-07 	0.0016927719
0.11956522 	0.007827127 	-0.00387125 	1.4950365e-07 	0.0093500766 	-9.6685969e-06 	0.0018776067
0.13043478 	0.0078804529 	-0.004207349 	5.5027809e-07 	0.0092751683 	-1.8838432e-05 	0.0014087232
0.14130435 	0.0079415216 	-0.0045368679 	1.3096285e-07 	0.0091888278 	-1.0402218e-07 	0.00059930182
0.15217391 	0.0079926617 	-0.0047826648 	3.4106121e-06 	0.0090853712 	-2.4236177e-05 	0.00054157688
0.16304348 	0.0080334823 	-0.0049940315 	1.7439855e-06 	0.0089741062 	-5.2568135e-06 	0.00013141409
0.17391304 	0.0080333768 	-0.0050859354 	6.7920353e-06 	0.0088367753 	-2.0472913e-05 	0.00028487389
0.18478261 	0.0080119212 	-0.0051388975 	3.1016191e-06 	0.0086822414 	-6.1432154e-06 	0.00063995323
0.19565217 	0.0079233839 	-0.0050805292 	9.7686499e-06 	0.0084735612 	-1.9348256e-05 	0.00098306579
0.20652174 	0.0078098144 	-0.0049905431 	1.0089954e-06 	0.0082418699 	-1.6343748e-06 	0.0012401785
0.2173913 	0.0075999666 	-0.0047952988 	1.4437027e-05 	0.0079316936 	-2.3385154e-05 	0.0015353294
0.22826087 	0.0073678593 	-0.0045783661 	1.7329427e-07 	0.0075981078 	-8.9622299e-09 	8.4123219e-05
0.23913043 	0.0070562355 	-0.0042899408 	1.6183358e-05 	0.0072139732 	-2.3625368e-05 	0.0018857633
0.25 	0.0067292993 	-0.0039890704 	5.4981043e-07 	0.0068169028 	-8.026439e-07 	0.0021263119
0.26086957 	0.0063462827 	-0.0036429263 	5.4081232e-06 	0.0063835322 	-7.5358706e-06 	0.0020097951
0.27173913 	0.0059563907 	-0.0032987698 	9.4008339e-06 	0.0059580366 	-1.3099455e-05 	0.0021942458
0.2826087 	0.0055544287 	-0.0029468398 	-7.4120197e-08 	0.0055251303 	3.5461679e-07 	0.00041350048
0.29347826 	0.0051778066 	-0.002626246 	1.0433387e-05 	0.0051351468 	-1.4649665e-05 	0.0020853312
0.30434783 	0.0048037736 	-0.0023127607 	9.3805039e-07 	0.0047486221 	-1.3171297e-06 	0.0022194893
0.31521739 	0.0044590477 	-0.0020285316 	-2.7914406e-08 	0.0043938207 	1.5179617e-07 	0.0010890053
0.32608696 	0.0041468522 	-0.0017797855 	9.3901773e-06 	0.0040788431 	-1.3936692e-05 	0.0019878068
0.33695652 	0.0038451601 	-0.0015438923 	9.382104e-09 	0.0037737742 	2.3945606e-08 	0.0016096641
0.34782609 	0.0035820471 	-0.0013435626 	1.9043644e-08 	0.0035081177 	4.8604406e-08 	0.000974677
0.35869565 	0.0033417477 	-0.0011662849 	5.6655597e-06 	0.0032697415 	-9.1897866e-06 	0.0018108575
0.36956522 	0.0031121366 	-0.0010015575 	2.7444298e-08 	0.0030410917 	-1.5418797e-08 	0.0015096099
0.38043478 	0.0029106241 	-0.00086281325 	9.7769797e-08 	0.0028394224 	-5.4929178e-08 	0.00050859266
0.39130435 	0.0027263107 	-0.00073660499 	1.9442604e-06 	0.0026587165 	-3.492689e-06 	0.0016007857
0.40217391 	0.0025536909 	-0.00062059309 	2.9534766e-07 	0.0024874091 	-5.3056552e-07 	0.0016449788
0.41304348 	0.0024019635 	-0.00052148272 	2.0519936e-07 	0.0023317987 	-1.389311e-07 	8.7576609e-05
0.42391304 	0.0022631272 	-0.00043035399 	3.9840608e-08 	0.0021943299 	-2.6974254e-08 	0.001144252
0.43478261 	0.0021426936 	-0.00034578769 	1.9639498e-06 	0.0020727177 	-3.6351018e-06 	0.0014249311
0.44565217 	0.0020394625 	-0.0002675923 	1.181881e-07 	0.0019649786 	-4.5238685e-08 	0.00082057512
0.45652174 	0.0019510795 	-0.00019586256 	2.0465702e-07 	0.0018712458 	-7.8336268e-08 	0.00032505426
0.4673913 	0.0018675709 	-0.00012760449 	1.9235927e-10 	0.0017857071 	-7.362907e-11 	0.001270666
0.47826087 	0.0018126299 	-5.994665e-05 	6.0209159e-07 	0.0017254147 	-8.7039785e-07 	0.0012914379
0.48913043 	0.0017814957 	6.6815868e-06 	1.9680602e-07 	0.0016851187 	6.599661e-09 	0.00051879481
0.5 	0.0017566172 	7.2718948e-05 	2.1871008e-07 	0.0016522125 	7.3341884e-09 	0.00042136778
0.51086957 	0.0017333626 	0.00013847359 	1.5208517e-07 	0.0016231819 	-9.7709206e-08 	0.001263177
0.52173913 	0.0017347143 	0.0002057805 	1.2023173e-08 	0.0016167655 	-7.7244525e-09 	0.0012778047
0.5326087 	0.0017624722 	0.00027458378 	2.5370821e-07 	0.001633114 	1.1696367e-07 	0.00036901754
0.54347826 	0.0017907277 	0.00034569015 	2.0084509e-07 	0.0016525362 	9.2592898e-08 	0.00060242998
0.55434783 	0.0018232172 	0.00041778484 	6.1694045e-07 	0.0016777716 	5.29332e-08 	0.0013816354
0.56521739 	0.001875501 	0.00048721551 	8.6632405e-08 	0.0017215269 	7.7365513e-08 	0.0010443244
0.57608696 	0.0019395298 	0.00055514834 	3.4357817e-07 	0.0017755782 	3.0682631e-07 	2.0532854e-05
0.58695652 	0.0020055637 	0.00062743899 	8.8491292e-08 	0.0018368511 	7.9025558e-08 	0.0011778501
0.59782609 	0.0020796531 	0.00069641852 	2.2349321e-07 	0.0019054098 	1.5259321e-07 	0.0015852856
0.60869565 	0.0021683925 	0.00075922154 	2.3339683e-07 	0.0019859985 	2.9527288e-07 	0.00048351578
0.61956522 	0.0022602377 	0.0008244185 	1.7288464e-07 	0.0020734413 	2.1871824e-07 	0.00088754151
0.63043478 	0.0023562431 	0.00088965712 	6.2047375e-07 	0.0021668403 	7.9500276e-07 	0.0018335354
0.64130435 	0.0024628625 	0.00094786079 	1.9137998e-07 	0.0022673804 	2.7736618e-07 	0.00081518744
0.65217391 	0.0025738923 	0.0010066266 	2.1196114e-07 	0.0023750282 	3.0719437e-07 	0.00081135914
0.66304348 	0.0026887917 	0.0010671099 	4.8154855e-07 	0.0024899771 	9.0196986e-07 	0.0021153343
0.67391304 	0.0028112522 	0.0011220873 	2.1391565e-07 	0.002607306 	3.1320698e-07 	0.00089227962
0.68478261 	0.0029381223 	0.0011783948 	2.0041575e-07 	0.0027326431 	2.9344094e-07 	0.0011043821
0.69565217 	0.0030696309 	0.0012362676 	2.1930985e-07 	0.0028654662 	5.2367519e-07 	0.0024155733
0.70652174 	0.0032083487 	0.0012898311 	3.1146993e-07 	0.0029984561 	4.4769883e-07 	0.00053014499
0.7173913 	0.003352516 	0.0013472706 	1.0906321e-07 	0.0031447767 	1.5676464e-07 	0.0019810132
0.72826087 	0.0035031578 	0.0014041526 	9.3530692e-08 	0.0032948422 	1.3364272e-07 	0.0021267964
0.73913043 	0.0036605031 	0.0014598052 	3.3923359e-07 	0.0034480218 	4.8471895e-07 	0.00060854615
0.75 	0.0038241207 	0.0015201409 	3.4882006e-07 	0.0036166723 	1.0573158e-06 	0.0030544949
0.76086957 	0.0039898389 	0.0015778852 	3.4669939e-07 	0.0037770317 	5.0255236e-07 	0.00064238675
0.77173913 	0.0041621523 	0.0016406858 	5.7663844e-08 	0.0039546601 	8.358567e-08 	0.0029346948
0.7826087 	0.0043333141 	0.0017023053 	2.2681126e-07 	0.0041239296 	3.4645026e-07 	0.0016376794
0.79347826 	0.0045074504 	0.0017669583 	1.525507e-07 	0.0043011215 	2.3301855e-07 	0.0024097495
0.80434783 	0.0046806886 	0.0018320275 	1.5983212e-07 	0.0044763403 	2.7067852e-07 	0.002293967
0.81521739 	0.0048530205 	0.0018984473 	1.7380272e-07 	0.004651796 	2.9433797e-07 	0.0023410573
0.82608696 	0.0050231561 	0.0019648885 	1.5195502e-07 	0.0048262758 	3.0004023e-07 	0.0023957512
0.83695652 	0.005190347 	0.0020319771 	1.1602541e-07 	0.005000098 	2.2909604e-07 	0.0029521999
0.84782609 	0.0053486639 	0.0020953023 	1.8717545e-07 	0.0051631096 	4.5096533e-07 	0.0017120898
0.85869565 	0.0055042629 	0.0021608225 	6.5516928e-10 	0.0053332624 	1.7792002e-09 	0.0044693048
0.86956522 	0.005631858 	0.0022131251 	2.1396603e-07 	0.0054633826 	6.7239567e-07 	1.5675751e-05
0.88043478 	0.0057486106 	0.0022674864 	8.1107852e-09 	0.0056027437 	4.5157248e-08 	0.0041974577
0.89130435 	0.0058212771 	0.0023064467 	2.6903086e-08 	0.0056905826 	1.4978443e-07 	0.0032227813
0.90217391 	0.0058348205 	0.0023281364 	-6.5660621e-08 	0.0057194591 	1.1505066e-07 	0.0005439944
0.91304348 	0.0057929813 	0.0023379511 	-4.9867879e-08 	0.005708886 	-4.7494558e-08 	0.0037865841
0.92391304 	0.0056654938 	0.0023227303 	-4.5514433e-08 	0.0056117539 	-1.4599118e-07 	0.0046234814
0.93478261 	0.0054573549 	0.0022685432 	-1.0840534e-07 	0.0054290121 	-1.2227453e-07 	0.0032399874
0.94565217 	0.005151804 	0.0021771312 	-2.6241386e-07 	0.0051548078 	-7.3360642e-07 	0.0042429179
0.95652174 	0.0047430262 	0.0020433694 	-5.3319935e-07 	0.0047565834 	-4.860903e-07 	0.00036303582
0.9673913 	0.004169192 	0.0018798098 	-1.9006239e-07 	0.0041983519 	-1.8368816e-07 	0.0023072689
0.97826087 	0.0033313288 	0.0015545121 	-1.9398238e-07 	0.0033546402 	-4.0292013e-07 	0.00029147595
0.98913043 	0.0017181823 	0.00080035365 	-8.4961475e-08 	0.0017250733 	-1.8606434e-07 	0.00020242964
