1.640171e-35 	0.72777313 	-4.9426646e-14 	-1.7965277e-20
0.010869565 	0.72829643 	-0.00067951765 	5.7993905e-08
0.02173913 	0.72968699 	-0.0013508209 	2.7790639e-08
0.032608696 	0.73207485 	-0.002020113 	4.4266646e-09
0.043478261 	0.73546191 	-0.002678895 	1.1827323e-07
0.054347826 	0.73986671 	-0.0033350447 	8.7951179e-07
0.065217391 	0.74567102 	-0.0040123337 	1.0402205e-06
0.076086957 	0.7517081 	-0.0045847399 	6.334481e-07
0.086956522 	0.7591808 	-0.0051720321 	7.6323435e-07
0.097826087 	0.7676283 	-0.0057379456 	1.3934152e-06
0.10869565 	0.7770222 	-0.0062849516 	8.3060615e-07
0.11956522 	0.78759484 	-0.006780331 	1.713237e-06
0.13043478 	0.79904796 	-0.0072383613 	3.4658628e-06
0.14130435 	0.81130223 	-0.0076642498 	2.1200458e-07
0.15217391 	0.82489188 	-0.0080384877 	7.2102911e-06
0.16304348 	0.83888185 	-0.0084023509 	8.11731e-07
0.17391304 	0.85449827 	-0.0086773722 	9.1764049e-06
0.18478261 	0.87034479 	-0.0089262466 	2.8284009e-06
0.19565217 	0.88756029 	-0.0090427923 	1.3146158e-05
0.20652174 	0.90503699 	-0.0091384199 	5.6716554e-07
0.2173913 	0.92345001 	-0.0091113278 	1.8923912e-05
0.22826087 	0.94203813 	-0.0090782595 	7.8028124e-07
0.23913043 	0.96086432 	-0.008942327 	1.8245142e-05
0.25 	0.97969987 	-0.0087885349 	4.4711686e-06
0.26086957 	0.99858273 	-0.0085591199 	7.2605558e-06
0.27173913 	1.0169415 	-0.0082870809 	1.663366e-05
0.2826087 	1.0355304 	-0.0079903902 	1.8330612e-06
0.29347826 	1.0525354 	-0.0076659897 	1.6718648e-05
0.30434783 	1.0693786 	-0.007334911 	6.6767744e-06
0.31521739 	1.0857163 	-0.0069859469 	8.8328025e-07
0.32608696 	1.1002184 	-0.0066277533 	2.0036128e-05
0.33695652 	1.114507 	-0.0062637261 	1.7156144e-06
0.34782609 	1.1275447 	-0.0058746497 	8.978037e-07
0.35869565 	1.1387707 	-0.0055191552 	1.6464043e-05
0.36956522 	1.1496102 	-0.0051707617 	1.8818834e-06
0.38043478 	1.1588709 	-0.0048491636 	1.5798308e-06
0.39130435 	1.1666774 	-0.0045612129 	7.7963743e-06
0.40217391 	1.1736178 	-0.004293625 	5.3658532e-06
0.41304348 	1.1793597 	-0.0040529955 	2.0883543e-06
0.42391304 	1.1841484 	-0.0038345863 	1.5048695e-07
0.43478261 	1.1874588 	-0.0036333638 	9.8897256e-06
0.44565217 	1.1903459 	-0.0034363157 	5.6446163e-07
0.45652174 	1.1918773 	-0.0032538757 	1.9483711e-06
0.4673913 	1.1930702 	-0.0030787657 	2.0319452e-06
0.47826087 	1.1932399 	-0.0029114385 	5.2376931e-06
0.48913043 	1.1927657 	-0.0027469952 	1.1359276e-06
0.5 	1.1915956 	-0.0025843458 	1.6558205e-06
0.51086957 	1.1902298 	-0.0024229481 	2.375919e-06
0.52173913 	1.1882609 	-0.0022707841 	2.8446488e-06
0.5326087 	1.1857244 	-0.0021237453 	1.4201308e-06
0.54347826 	1.1828515 	-0.0019722468 	1.2420174e-06
0.55434783 	1.1797345 	-0.0018213158 	3.3813454e-06
0.56521739 	1.1763417 	-0.0016794851 	4.5218734e-08
0.57608696 	1.1724894 	-0.001547828 	2.0572007e-06
0.58695652 	1.1684947 	-0.0014037457 	2.8829333e-07
0.59782609 	1.164203 	-0.0012684467 	2.6405535e-06
0.60869565 	1.1596651 	-0.0011386147 	1.1569815e-06
0.61956522 	1.1548835 	-0.0010036041 	9.1135591e-07
0.63043478 	1.1498519 	-0.00086827493 	3.493731e-06
0.64130435 	1.144568 	-0.00074049531 	7.3947792e-07
0.65217391 	1.1390085 	-0.00061060273 	1.0518267e-06
0.66304348 	1.1331678 	-0.00047680536 	2.693803e-06
0.67391304 	1.1270526 	-0.00035117285 	7.1607558e-07
0.68478261 	1.120627 	-0.0002220921 	7.9637702e-07
0.69565217 	1.1138705 	-9.1223249e-05 	2.1095026e-06
0.70652174 	1.1068149 	3.1018483e-05 	1.0086088e-06
0.7173913 	1.0993795 	0.00016175993 	2.2075632e-07
0.72826087 	1.0915807 	0.00028765919 	1.5200771e-08
0.73913043 	1.0833873 	0.00040922341 	1.0320041e-06
0.75 	1.0747105 	0.00053979047 	1.8548825e-06
0.76086957 	1.0656849 	0.00065989689 	7.7161767e-07
0.77173913 	1.056123 	0.00078927043 	1.0041091e-07
0.7826087 	1.0460868 	0.00090716587 	3.2695565e-07
0.79347826 	1.0355181 	0.0010281926 	2.122087e-07
0.80434783 	1.0244182 	0.0011421999 	1.334071e-07
0.81521739 	1.0127257 	0.0012529889 	2.1348532e-07
0.82608696 	1.0004474 	0.0013556442 	9.83781e-08
0.83695652 	0.98750674 	0.0014524534 	7.9395804e-08
0.84782609 	0.97398022 	0.0015321688 	8.8692415e-08
0.85869565 	0.95965784 	0.0016056745 	1.6625218e-07
0.86956522 	0.94489959 	0.0016501369 	-7.3590552e-08
0.88043478 	0.92911505 	0.0016835644 	-1.5673421e-08
0.89130435 	0.91276566 	0.0016827516 	-6.619978e-08
0.90217391 	0.89584257 	0.0016482146 	-4.8063781e-07
0.91304348 	0.87787436 	0.0015848173 	-1.5478945e-08
0.92391304 	0.85921029 	0.0014697509 	-6.6975295e-07
0.93478261 	0.83978694 	0.0013231501 	-1.1286004e-07
0.94565217 	0.81717576 	0.0011362078 	-1.0262263e-06
0.95652174 	0.79222863 	0.0009153847 	-7.3727969e-07
0.9673913 	0.76028401 	0.00064822242 	-1.2361574e-07
0.97826087 	0.71026709 	0.00041878395 	-4.6788525e-07
0.98913043 	0.5495635 	0.0001333433 	-2.1206741e-07
