0.47826087 	0.42389777 	4.8416725e-05 	-1.5017763e-07
0.48913043 	0.96402512 	0.00063044759 	-3.798555e-07
0.5 	1.3145224 	0.0013325351 	8.2854158e-09
0.51086957 	1.4606778 	0.0017108512 	2.7581369e-07
0.52173913 	1.4959802 	0.0017121483 	-1.4171926e-06
0.5326087 	1.4987596 	0.0016009996 	-2.344839e-07
0.54347826 	1.4951341 	0.0014716222 	-1.4044733e-06
0.55434783 	1.4906019 	0.0013251718 	-9.9015951e-07
0.56521739 	1.4855399 	0.0012107075 	-8.93256e-07
0.57608696 	1.4803713 	0.0010862426 	-1.4665313e-06
0.58695652 	1.4749361 	0.00095496149 	-8.1411663e-07
0.59782609 	1.4689637 	0.00086454708 	-1.8713022e-07
0.60869565 	1.4629243 	0.00079379159 	-1.1867708e-06
0.61956522 	1.4570934 	0.00075330533 	-2.766011e-07
0.63043478 	1.4513211 	0.00073463474 	-5.1812765e-07
0.64130435 	1.4455562 	0.00070329489 	-4.8220387e-07
0.65217391 	1.439908 	0.00069634708 	-4.4337322e-07
0.66304348 	1.434392 	0.00070934321 	-9.0140363e-08
0.67391304 	1.4289063 	0.00070748874 	-9.9943254e-07
0.68478261 	1.4234997 	0.00068982984 	-3.9747101e-07
0.69565217 	1.4177149 	0.00063952335 	-4.0128746e-07
0.70652174 	1.4115294 	0.00058684019 	-1.8131851e-07
0.7173913 	1.4047372 	0.00053145329 	-2.3376347e-07
0.72826087 	1.3980291 	0.00047142408 	-1.7139308e-07
0.73913043 	1.3912493 	0.00040044546 	-2.4932088e-07
0.75 	1.3849884 	0.00030821226 	-3.8230019e-07
0.76086957 	1.3793394 	0.00018399064 	-2.1199884e-07
0.77173913 	1.3738599 	6.3768048e-05 	-9.0880516e-08
0.7826087 	1.3687069 	-4.3270228e-05 	-4.1067624e-08
0.79347826 	1.363498 	-0.00013565797 	-1.4889103e-07
0.80434783 	1.358156 	-0.00021514898 	-8.4385597e-07
0.81521739 	1.3527689 	-0.00030707965 	-2.951598e-07
0.82608696 	1.3470939 	-0.0003955008 	-2.6409152e-07
0.83695652 	1.3411782 	-0.00046441605 	-2.3264884e-07
0.84782609 	1.3349218 	-0.00052529098 	-1.5210103e-07
0.85869565 	1.3280865 	-0.00057585103 	-2.7740888e-08
0.86956522 	1.3205501 	-0.00061194476 	-2.0334745e-07
0.88043478 	1.312121 	-0.00063403083 	-2.9657178e-08
0.89130435 	1.3024871 	-0.00063987847 	-1.4541258e-09
0.90217391 	1.2911328 	-0.00062589845 	1.0011841e-08
0.91304348 	1.2774428 	-0.00058881301 	2.9109707e-08
0.92391304 	1.2604744 	-0.00052382829 	1.6503297e-08
0.93478261 	1.2387956 	-0.00042860706 	4.8815458e-07
0.94565217 	1.2107107 	-0.00030737958 	3.3124668e-07
0.95652174 	1.1735987 	-0.0001495775 	1.209929e-07
0.9673913 	1.1220836 	-1.8104738e-05 	6.0739654e-09
0.97826087 	1.0257317 	6.7684815e-05 	9.554851e-08
0.98913043 	0.77543964 	0.00010034755 	-1.9689029e-07
