0.4742268 	1.2799638e-07 	-2.0995464e-08 	-5.4075503e-10 	1.2773892e-07 	3.0963631e-09 	7.6509026e-09
0.48453608 	1.8857625e-08 	-2.9079011e-11 	-1.4283047e-13 	1.8834287e-08 	7.5375253e-12 	6.6939025e-09
0.49484536 	1.1421828e-08 	-1.9294462e-14 	4.4664782e-16 	1.1411344e-08 	-5.2429536e-11 	5.9222006e-09
0.50515464 	6.3505824e-10 	-1.1131723e-18 	-1.2560402e-20 	6.3459972e-10 	2.006765e-12 	3.9452754e-10
0.51546392 	2.1992324e-11 	-7.9472462e-19 	-7.5878765e-22 	2.1969909e-11 	-7.6141497e-15 	1.0233936e-11
0.5257732 	1.6525678e-11 	3.3665366e-17 	1.2101285e-18 	1.6510354e-11 	-1.5975914e-14 	8.4838794e-12
0.53608247 	9.3815111e-11 	8.2668301e-15 	4.7085272e-17 	9.3654023e-11 	4.502202e-13 	8.7719906e-12
0.54639175 	2.3504639e-07 	1.2546965e-09 	-1.3639298e-12 	2.3474106e-07 	-2.1176757e-10 	5.4276844e-10
0.55670103 	6.7912717e-06 	1.0863145e-06 	-4.5183527e-10 	6.8901425e-06 	-3.4862507e-09 	2.3132291e-07
0.56701031 	5.0141031e-05 	6.1674555e-06 	5.8017521e-09 	5.0669818e-05 	8.1733754e-08 	9.4895462e-06
0.57731959 	0.00017992585 	1.3827349e-05 	7.9626819e-08 	0.00018089747 	1.2021843e-06 	6.0752515e-05
0.58762887 	0.00040398227 	3.1972752e-05 	3.3124193e-07 	0.00040593264 	2.7075065e-06 	0.00019385159
0.59793814 	0.00064311738 	6.6617477e-05 	4.3645923e-08 	0.00064651549 	1.7159284e-07 	0.00034233588
0.60824742 	0.0008331473 	0.00011987119 	1.4636963e-08 	0.00083676037 	4.6407002e-07 	1.287398e-05
0.6185567 	0.0010066004 	0.00018676008 	2.2137185e-07 	0.0010108714 	4.824227e-07 	0.00046479769
0.62886598 	0.0011519376 	0.00026736112 	8.351797e-07 	0.0011549089 	1.1229933e-06 	0.00056678434
0.63917526 	0.0012696216 	0.00035568076 	1.5228237e-07 	0.0012697059 	7.3886014e-07 	0.00012713958
0.64948454 	0.00137892 	0.00045398489 	6.6779361e-07 	0.0013792705 	5.8128487e-07 	0.00065127093
0.65979381 	0.0014616638 	0.00055316191 	1.3953839e-07 	0.0014650884 	8.6587016e-08 	0.00071455076
0.67010309 	0.0015247735 	0.00064116837 	9.6383155e-08 	0.001534363 	2.5257368e-07 	0.00051863159
0.68041237 	0.0015758556 	0.00071642864 	4.6617881e-07 	0.0015946666 	3.2987187e-07 	0.00076057303
0.69072165 	0.0016160637 	0.00075568243 	2.6195488e-07 	0.0016384252 	5.6928769e-07 	0.00027968273
0.70103093 	0.0016581276 	0.00077619205 	1.2283284e-07 	0.0016834428 	2.6376991e-07 	0.00079790687
0.71134021 	0.0016925008 	0.00079239759 	2.511927e-07 	0.0017178693 	5.499346e-07 	0.00026984285
0.72164948 	0.0017308441 	0.00081114369 	1.0799153e-07 	0.0017597632 	2.6792352e-07 	0.00083244514
0.73195876 	0.0017658198 	0.0008285224 	1.2530716e-07 	0.0017999024 	2.7766931e-07 	0.00049557055
0.74226804 	0.0018007872 	0.00084668153 	5.8835081e-08 	0.0018453906 	2.0476508e-07 	0.0008687289
0.75257732 	0.0018374331 	0.00086453494 	3.1305581e-08 	0.0018928677 	6.299552e-08 	0.00075964138
0.7628866 	0.0018706012 	0.00087886442 	-8.8357346e-08 	0.001938685 	8.3432663e-08 	0.00090580727
0.77319588 	0.0019106003 	0.00086863718 	1.495236e-08 	0.0019836987 	2.3809903e-08 	0.00084275561
0.78350515 	0.0019504884 	0.00083123599 	-2.1049806e-07 	0.0020203956 	7.875616e-08 	0.00094234855
0.79381443 	0.0019932894 	0.00080691292 	6.2398134e-08 	0.0020591615 	7.3878219e-08 	0.00064621778
0.80412371 	0.002036525 	0.00079515444 	-2.4145268e-07 	0.0020986729 	1.8357238e-07 	0.00097594028
0.81443299 	0.0020812246 	0.000787732 	1.7365077e-07 	0.0021367659 	1.6062123e-07 	9.5515122e-05
0.82474227 	0.0021304193 	0.00078831053 	-8.4510527e-08 	0.002181619 	2.0078945e-07 	0.0010096383
0.83505155 	0.0021824338 	0.00079555686 	9.5871469e-09 	0.002225636 	8.2790887e-09 	0.00098896596
0.84536082 	0.002240059 	0.00081185132 	7.8789361e-08 	0.0022747568 	7.1932557e-08 	0.00053909401
0.8556701 	0.0023045545 	0.00083671433 	2.0540426e-07 	0.0023329737 	3.655173e-07 	0.0010858469
0.86597938 	0.0023763526 	0.00086925212 	1.1683033e-07 	0.0023975275 	1.7364648e-07 	0.001130274
0.87628866 	0.0024579079 	0.0009104631 	1.1273587e-07 	0.0024704021 	1.3809089e-07 	0.00032378388
0.88659794 	0.0025532558 	0.00096165246 	7.391942e-08 	0.0025591198 	1.0794355e-07 	0.00064468385
0.89690722 	0.0026672839 	0.0010237653 	9.4011814e-08 	0.0026668607 	1.4343109e-07 	0.0012384144
0.90721649 	0.0028081362 	0.0010985345 	3.9163324e-07 	0.0028002518 	6.4847892e-07 	0.0013070346
0.91752577 	0.0029828301 	0.0011879559 	5.6129616e-07 	0.002967455 	1.004528e-06 	0.0013887412
0.92783505 	0.003197297 	0.0012948106 	4.8052617e-07 	0.0031748932 	8.9843179e-07 	0.0014838422
0.93814433 	0.0034482054 	0.0014215235 	1.1610869e-08 	0.0034206273 	2.1432171e-08 	0.0015887269
0.94845361 	0.0037136531 	0.0015682434 	2.0371268e-07 	0.0036794943 	4.9249146e-07 	0.0002262753
0.95876289 	0.0039480389 	0.0017362896 	3.0420254e-07 	0.0039177282 	2.6750921e-07 	0.0018657679
0.96907216 	0.0040635932 	0.0018849233 	1.2767113e-07 	0.0040446632 	2.7670225e-07 	0.00051981585
0.97938144 	0.0039038025 	0.0018135149 	-8.8471659e-08 	0.0038961343 	-1.8717685e-07 	0.0018448948
0.98969072 	0.0028435909 	0.0013230426 	-7.2740666e-07 	0.0028418695 	-1.5597415e-06 	0.0013872792
