0.47777778 	0.68383335 	-0.00016428822 	4.0142029e-09
0.48888889 	1.0334155 	-0.0005630526 	-1.0717797e-06
0.5 	1.2234931 	-0.00089594508 	-6.4454389e-07
0.51111111 	1.3445064 	-0.00074179172 	1.7363378e-06
0.52222222 	1.4030458 	-0.00055362816 	5.465141e-07
0.53333333 	1.4340615 	-0.00011945036 	5.7640235e-06
0.54444444 	1.454561 	0.00028298457 	4.1838057e-06
0.55555556 	1.4671482 	0.00056705119 	2.5281563e-06
0.56666667 	1.4733345 	0.00080370383 	1.9794087e-06
0.57777778 	1.4746191 	0.00095741748 	1.3390157e-06
0.58888889 	1.4725905 	0.0010293466 	4.0195459e-07
0.6 	1.4687196 	0.0010420948 	-6.2041413e-07
0.61111111 	1.4640421 	0.0010193103 	-4.7105094e-07
0.62222222 	1.4591519 	0.00097589974 	1.7747695e-08
0.63333333 	1.4543983 	0.00092333517 	-1.086733e-06
0.64444444 	1.4497311 	0.00086823261 	-1.3937652e-06
0.65555556 	1.4451189 	0.00081044065 	3.7197338e-08
0.66666667 	1.440579 	0.00075419413 	-1.4039657e-06
0.67777778 	1.4360132 	0.0006982565 	-9.054843e-07
0.68888889 	1.4314103 	0.00064086547 	-5.7003521e-07
0.7 	1.4266901 	0.00057986059 	-1.7677998e-06
0.71111111 	1.4218933 	0.00051759149 	-1.1878834e-07
0.72222222 	1.4168769 	0.00045810331 	-1.9992505e-06
0.73333333 	1.4118123 	0.00040039087 	-4.1285228e-08
0.74444444 	1.4063798 	0.0003463024 	-1.8683546e-06
0.75555556 	1.4009117 	0.00029220417 	5.3077462e-11
0.76666667 	1.3949849 	0.00024235175 	-1.6685988e-06
0.77777778 	1.3889918 	0.00019594117 	5.2799436e-08
0.78888889 	1.3825332 	0.00015806827 	-1.0366715e-06
0.8 	1.3758903 	0.00012153283 	-2.5612113e-07
0.81111111 	1.3687763 	8.8846403e-05 	-3.3004201e-07
0.82222222 	1.3610679 	6.32638e-05 	-5.5508994e-07
0.83333333 	1.3528724 	4.3869476e-05 	-3.1640958e-08
0.84444444 	1.3437137 	3.2498206e-05 	-7.9307332e-08
0.85555556 	1.3335347 	2.7181924e-05 	-6.7949275e-08
0.86666667 	1.3223282 	2.8814297e-05 	1.0620754e-07
0.87777778 	1.3098576 	3.7730478e-05 	8.213374e-08
0.88888889 	1.2958369 	5.3210339e-05 	9.4024347e-09
0.9 	1.27991 	7.3955964e-05 	4.272844e-08
0.91111111 	1.2617852 	9.7559482e-05 	3.7148145e-08
0.92222222 	1.2409892 	0.00012113832 	3.9753123e-10
0.93333333 	1.2167027 	0.00014240232 	7.3856523e-08
0.94444444 	1.1879045 	0.00015865356 	3.0370592e-07
0.95555556 	1.1528412 	0.00015982912 	-3.9191533e-08
0.96666667 	1.1069042 	0.00017745891 	6.711608e-07
0.97777778 	1.0308835 	0.00013412193 	-9.5253429e-09
0.98888889 	0.80942676 	0.00011378741 	-3.744657e-07
