5.39189 	0.60137 	0 	0 	0 	0
5.39189 	0.615497 	0 	0 	0 	0
5.39189 	0.630628 	0 	0 	0 	0
5.39189 	0.646835 	0 	0 	0 	0
5.39189 	0.664193 	0 	0 	0 	0
5.39189 	0.682786 	0 	0 	0 	0
5.39189 	0.7027 	0 	0 	0 	0
5.39189 	0.72403 	0 	0 	0 	0
5.39189 	0.746084 	0 	0 	0 	0
5.39189 	0.7674 	0 	0 	0 	0
4.7973 	0.787302 	0 	0 	0 	0
12.8163 	0.936544 	0 	0 	0 	0
