14.7887 	0.36098 	0 	0 	0 	0
14.7912 	0.396322 	0 	0 	0 	0
14.7934 	0.434216 	0 	0 	0 	0
20.1595 	0.478925 	0 	0 	0 	0
