20.1595 	0.725726 	0 	0 	0 	0
14.1061 	0.775354 	0 	0 	0 	0
14.1062 	0.798849 	0 	0 	0 	0
14.1062 	0.820785 	0 	0 	0 	0
14.1063 	0.841267 	0 	0 	0 	0
14.1063 	0.86039 	0 	0 	0 	0
14.1063 	0.878245 	0 	0 	0 	0
14.1063 	0.894916 	0 	0 	0 	0
14.1063 	0.91048 	0 	0 	0 	0
14.1063 	0.925012 	0 	0 	0 	0
14.1063 	0.936664 	0 	0 	0 	0
14.1063 	0.945417 	0 	0 	0 	0
14.1063 	0.960021 	0 	0 	0 	0
14.1063 	0.96609 	0 	0 	0 	0
14.1063 	0.980424 	0 	0 	0 	0
20.1595 	0.992073 	0 	0 	0 	0
