16.2865 	0.517887 	0 	0 	0 	0
16.2894 	0.994037 	0 	0 	0 	0
20.1595 	0.998052 	0 	0 	0 	0
