8.56306 	0.494994 	0 	0 	0 	0
8.56306 	0.50364 	0 	0 	0 	0
8.56306 	0.517368 	0 	0 	0 	0
8.56306 	0.525523 	0 	0 	0 	0
8.56306 	0.534259 	0 	0 	0 	0
8.56306 	0.543615 	0 	0 	0 	0
8.56306 	0.56437 	0 	0 	0 	0
8.56306 	0.575867 	0 	0 	0 	0
8.56306 	0.588181 	0 	0 	0 	0
8.56306 	0.60137 	0 	0 	0 	0
20.1595 	0.478925 	0 	0 	0 	0
