15.7853 	0.397168 	0 	0 	0 	0
15.7871 	0.435022 	0 	0 	0 	0
15.7887 	0.475593 	0 	0 	0 	0
20.1595 	0.478925 	0 	0 	0 	0
