10.0537 	0.839367 	0 	0 	0 	0
10.0537 	0.854497 	0 	0 	0 	0
10.0536 	0.868624 	0 	0 	0 	0
10.0536 	0.881813 	0 	0 	0 	0
10.0535 	0.894127 	0 	0 	0 	0
10.0535 	0.905625 	0 	0 	0 	0
10.0535 	0.91636 	0 	0 	0 	0
10.0534 	0.926382 	0 	0 	0 	0
10.0534 	0.935739 	0 	0 	0 	0
10.0534 	0.944476 	0 	0 	0 	0
10.0533 	0.960248 	0 	0 	0 	0
10.0533 	0.966357 	0 	0 	0 	0
10.0533 	0.978597 	0 	0 	0 	0
20.1595 	0.992073 	0 	0 	0 	0
