5.39189 	0.499054 	0 	0 	0 	0
5.39189 	0.509753 	0 	0 	0 	0
5.39189 	0.517368 	0 	0 	0 	0
5.39189 	0.534259 	0 	0 	0 	0
5.39189 	0.543615 	0 	0 	0 	0
5.39189 	0.553636 	0 	0 	0 	0
5.39189 	0.56437 	0 	0 	0 	0
20.1595 	0.478925 	0 	0 	0 	0
