12.6088 	0.941929 	0 	0 	0 	0
14.3026 	0.59504 	0 	0 	0 	0
14.3033 	0.630476 	0 	0 	0 	0
14.3037 	0.663568 	0 	0 	0 	0
14.3041 	0.694469 	0 	0 	0 	0
12.8163 	0.936544 	0 	0 	0 	0
