8.86036 	0.646835 	0 	0 	0 	0
8.86036 	0.664193 	0 	0 	0 	0
8.86036 	0.682786 	0 	0 	0 	0
8.86036 	0.7027 	0 	0 	0 	0
8.86036 	0.72403 	0 	0 	0 	0
8.86036 	0.746084 	0 	0 	0 	0
12.8163 	0.936544 	0 	0 	0 	0
