4.6982 	0.588181 	0 	0 	0 	0
4.6982 	0.60137 	0 	0 	0 	0
4.6982 	0.615497 	0 	0 	0 	0
4.6982 	0.630628 	0 	0 	0 	0
4.6982 	0.646835 	0 	0 	0 	0
4.6982 	0.664193 	0 	0 	0 	0
4.6982 	0.682786 	0 	0 	0 	0
4.6982 	0.7027 	0 	0 	0 	0
4.6982 	0.72403 	0 	0 	0 	0
4.6982 	0.746084 	0 	0 	0 	0
4.6982 	0.7674 	0 	0 	0 	0
4.4009 	0.787302 	0 	0 	0 	0
12.8163 	0.936544 	0 	0 	0 	0
