15.79 	0.517536 	0 	0 	0 	0
15.7933 	0.994034 	0 	0 	0 	0
20.1595 	0.998052 	0 	0 	0 	0
