20.1595 	0.633681 	0 	0 	0 	0
13.3116 	0.694019 	0 	0 	0 	0
13.3119 	0.722915 	0 	0 	0 	0
13.3121 	0.749897 	0 	0 	0 	0
13.3122 	0.77509 	0 	0 	0 	0
13.3123 	0.798612 	0 	0 	0 	0
13.3124 	0.820575 	0 	0 	0 	0
13.3124 	0.841081 	0 	0 	0 	0
13.3124 	0.860227 	0 	0 	0 	0
12.8163 	0.936544 	0 	0 	0 	0
