8.26669228e-36 	0.009095647822 	-6.177300888e-16 	-2.245285373e-22 	4.195308241e-29 	1.524883505e-35 	5.542547936e-42
0.001897455474 	0.009086781525 	-5.796242917e-05 	-2.062796699e-08 	0.01084352192 	-5.199877921e-06 	2.067076658e-05
0.003794892374 	0.009085927367 	-0.0001693976267 	8.14931834e-08 	0.01091396463 	-5.23184472e-06 	2.080504997e-05
0.005692310628 	0.009095352294 	-0.0002563125267 	1.289372567e-07 	0.01092544572 	-5.165984113e-06 	2.082693611e-05
0.007589710222 	0.00910049568 	-0.0003418185663 	1.71430061e-07 	0.01093738605 	-5.098814106e-06 	2.08496977e-05
0.009487091198 	0.009110505155 	-0.0004389043561 	2.17142668e-07 	0.01094611826 	-5.024095105e-06 	2.086634373e-05
0.01240800929 	0.009127085481 	-0.0005631595447 	2.721194008e-07 	0.01095956658 	-4.908535415e-06 	2.089197996e-05
0.01570810102 	0.009151925135 	-0.0007116984769 	3.350575894e-07 	0.01098111579 	-4.783859042e-06 	2.093305873e-05
0.01943658229 	0.009186561192 	-0.0008795317181 	4.018053189e-07 	0.01101118128 	-4.648201444e-06 	2.099037193e-05
0.02367094077 	0.009234027954 	-0.001068898183 	4.709442851e-07 	0.01105254975 	-4.497849148e-06 	2.106923173e-05
0.02846027043 	0.009298040822 	-0.001282007833 	5.41205492e-07 	0.01110848583 	-4.334768241e-06 	2.117586144e-05
0.03387129226 	0.009383032802 	-0.001521320863 	6.111015345e-07 	0.01118292255 	-4.1584085e-06 	2.131775852e-05
0.03998469373 	0.009494547011 	-0.001789670037 	6.78327198e-07 	0.01128066426 	-3.966873804e-06 	2.150408137e-05
0.04692959072 	0.009639132402 	-0.002090168663 	7.392644406e-07 	0.01140720663 	-3.75382833e-06 	2.174530631e-05
0.05477825357 	0.009823706085 	-0.002424643849 	7.896152018e-07 	0.01156825495 	-3.519250208e-06 	2.205230916e-05
0.06366252918 	0.01007953507 	-0.00282985697 	8.343507675e-07 	0.01178941242 	-3.263011542e-06 	2.247389677e-05
0.07713370694 	0.0104402992 	-0.003333698338 	8.316970721e-07 	0.01209705812 	-2.848940416e-06 	2.306035499e-05
0.09161486344 	0.01087938393 	-0.003883080314 	7.865732837e-07 	0.01246277968 	-2.395633468e-06 	2.375752193e-05
0.1071709409 	0.01135295545 	-0.004429325051 	6.838032809e-07 	0.0128405576 	-1.886140757e-06 	2.447767163e-05
0.1238870721 	0.01182673527 	-0.004954674424 	5.223667418e-07 	0.01319118427 	-1.321446082e-06 	2.514606352e-05
0.1418521582 	0.01224957253 	-0.005433078588 	3.085592882e-07 	0.01345882798 	-7.21595415e-07 	2.565626682e-05
0.1611593353 	0.0125494241 	-0.00582724492 	6.214243037e-08 	0.01356880999 	-1.349192926e-07 	2.586592309e-05
0.1663236545 	0.01256974563 	-0.005891580995 	5.408095259e-06 	0.01353382844 	-2.06507778e-05 	2.579923854e-05
0.1819064892 	0.01263049669 	-0.006085675289 	1.858677692e-07 	0.01342762794 	-3.781904971e-07 	2.559679087e-05
0.2041968131 	0.01237389921 	-0.006139814563 	3.451698846e-07 	0.01292560389 	-6.547972046e-07 	2.46397935e-05
0.2281394077 	0.01165254123 	-0.005909010033 	3.099115387e-07 	0.01195730734 	-5.594158061e-07 	2.279395115e-05
0.2538499191 	0.01037745926 	-0.005323722925 	1.991212851e-08 	0.01046951141 	-8.154650968e-08 	1.99577986e-05
0.2814521981 	0.008601049289 	-0.004392693122 	-3.969307691e-07 	0.008554957199 	5.105140371e-07 	1.630812615e-05
0.3110878587 	0.006630149895 	-0.003292377454 	-6.052670463e-07 	0.006535483332 	7.276593049e-07 	1.245844767e-05
0.3428858929 	0.004909977521 	-0.002302431337 	-4.462878572e-07 	0.004824985493 	4.083977323e-07 	9.197763386e-06
0.3770024796 	0.003662299227 	-0.001572455237 	-1.379526463e-07 	0.003597496822 	-4.832090647e-08 	6.857828816e-06
0.4135933852 	0.002798069974 	-0.001054579302 	8.119709628e-08 	0.00274057247 	-2.697161056e-07 	5.22429283e-06
0.4528269635 	0.002201865201 	-0.0006515844944 	1.733004973e-07 	0.002138908263 	-2.504846432e-07 	4.077353628e-06
0.4948837842 	0.001883825851 	-0.0003047308648 	2.14540558e-07 	0.001805485044 	-1.35493778e-07 	3.441756302e-06
0.5369652409 	0.00184996023 	2.257384672e-05 	2.585099214e-07 	0.001747566878 	-6.081035602e-09 	3.331348181e-06
0.5762689992 	0.002020110055 	0.0003475403093 	3.051274004e-07 	0.001890090867 	1.296630606e-07 	3.603038516e-06
0.6129728545 	0.002320350366 	0.000671383736 	3.455720857e-07 	0.002164693369 	2.716112454e-07 	4.126507207e-06
0.647245611 	0.002712036935 	0.0009934762218 	3.674271267e-07 	0.00253568498 	4.060457995e-07 	4.83372033e-06
0.6792465651 	0.003167046444 	0.001312468829 	3.725474792e-07 	0.002976301103 	5.138614166e-07 	5.673657123e-06
0.7091254687 	0.003665677234 	0.001625123494 	2.938918528e-07 	0.003467454144 	5.962726741e-07 	6.609931328e-06
0.7370223283 	0.004197077379 	0.001905840228 	2.297717181e-07 	0.003997963371 	6.694807544e-07 	7.621229361e-06
0.7630684005 	0.004758195617 	0.002166331709 	2.734691354e-07 	0.004559894198 	7.612136947e-07 	8.692425698e-06
0.7873862966 	0.005340767331 	0.002436610524 	3.292427911e-07 	0.005142403601 	8.736034423e-07 	9.802850521e-06
0.8100905866 	0.005926460374 	0.002708891557 	3.767340185e-07 	0.00572982277 	9.699456446e-07 	1.092263472e-05
0.8312882979 	0.006494226938 	0.002973708701 	3.968454754e-07 	0.006302510482 	1.010896711e-06 	1.201433667e-05
0.8510793781 	0.007016309429 	0.003218608409 	3.630419894e-07 	0.00683463933 	9.423175128e-07 	1.302872215e-05
0.8695571553 	0.007454636062 	0.00342670865 	2.485620999e-07 	0.007291622493 	7.074180429e-07 	1.389985907e-05
0.8868087717 	0.007762081637 	0.003577059762 	4.7511626e-08 	0.007630518931 	2.927554017e-07 	1.454588988e-05
0.9029155904 	0.007895476321 	0.003649959638 	-2.050868657e-07 	0.007809797217 	-2.382187353e-07 	1.488764412e-05
0.9179535776 	0.007835612576 	0.003632194792 	-5.342009578e-07 	0.007804749944 	-7.663935186e-07 	1.487802261e-05
0.931993659 	0.007609972341 	0.003493533562 	-8.371747468e-07 	0.007627006367 	-1.165486185e-06 	1.453919395e-05
0.9412842046 	0.007309928565 	0.0032966344 	-9.36027123e-07 	0.007356823231 	-1.394211247e-06 	1.40241498e-05
0.9495071555 	0.00698156855 	0.003106335046 	-9.199296211e-07 	0.007044364422 	-1.505104081e-06 	1.342851647e-05
0.9567851912 	0.006616789908 	0.002906149752 	-8.795524877e-07 	0.006686347665 	-1.537660016e-06 	1.274603702e-05
0.9632268937 	0.006224958641 	0.002704108714 	-8.019447366e-07 	0.006293537807 	-1.504853067e-06 	1.199723226e-05
0.9689283675 	0.005810180123 	0.002504931479 	-6.97176802e-07 	0.005871604399 	-1.416098327e-06 	1.119290991e-05
0.973974674 	0.005370537941 	0.002309645291 	-5.760118961e-07 	0.005420587389 	-1.279847223e-06 	1.033314614e-05
0.9784410995 	0.004896080991 	0.002114147576 	-4.491944761e-07 	0.004932665912 	-1.103382409e-06 	9.403032193e-06
0.9823942794 	0.004363136482 	0.001905194728 	-3.271210396e-07 	0.004386245065 	-8.940501179e-07 	8.361402188e-06
0.9858931917 	0.003719852772 	0.001659170583 	-2.201488422e-07 	0.003731364513 	-6.631296315e-07 	7.11301784e-06
0.9889900372 	0.002891458116 	0.001294129402 	-1.34190425e-07 	0.002895025906 	-4.445110934e-07 	5.518724007e-06
0.991001674 	0.001905961819 	0.0008077818131 	-6.8703072e-08 	0.00190584173 	-2.640702814e-07 	3.633064039e-06
0.9930133109 	0.0008804281489 	0.0003208171344 	-2.221029789e-08 	0.0008796774667 	-1.156641931e-07 	1.676909745e-06
0.9950249478 	0.0001981616146 	4.641471157e-05 	-1.817603335e-09 	0.0001978720477 	-2.577686634e-08 	3.771991187e-07
0.9970365847 	1.313465238e-05 	9.210762727e-07 	4.690730788e-12 	1.311072662e-05 	-1.717890469e-09 	2.499268887e-08
0.9990482216 	9.318927083e-08 	5.356015715e-10 	2.758202499e-14 	9.301221029e-08 	-1.20124265e-11 	1.773071242e-10
