0.2971421875 	2.71451703e-07 	-3.212227509e-09 	-6.136596488e-12 	2.680135908e-07 	7.499020171e-10 	5.109083947e-10
0.2984004715 	2.76190665e-05 	-2.828772133e-06 	-2.221580552e-09 	2.499983508e-05 	5.062208605e-08 	4.765663402e-08
0.2996588726 	0.0003565372944 	-8.997085452e-05 	-8.46420317e-08 	0.0002740821338 	5.359676951e-07 	5.224767241e-07
0.3009171386 	0.001439161137 	-0.0004823358149 	-8.002133758e-07 	0.0009999623977 	2.286777032e-06 	1.906206255e-06
0.3021750194 	0.002833821808 	-0.001050655152 	-2.45121668e-06 	0.001882136696 	5.23231479e-06 	3.587875655e-06
0.3034322672 	0.003731569704 	-0.001440086308 	-4.816025176e-06 	0.002437329004 	8.180233995e-06 	4.646226502e-06
0.3053659544 	0.003757705626 	-0.001449479084 	-5.887262788e-06 	0.002476324259 	8.550874792e-06 	4.720562297e-06
0.3075470768 	0.003160002854 	-0.001175772252 	-4.08298933e-06 	0.002169798301 	5.041142308e-06 	4.136238626e-06
0.3100052365 	0.0026038989 	-0.0009010623078 	-2.325881231e-06 	0.001956753706 	-2.771187788e-07 	3.730116415e-06
0.3127725449 	0.002270829194 	-0.0006676545127 	-1.75012234e-06 	0.001998921789 	-4.44706124e-06 	3.810500501e-06
0.3159581696 	0.00209293265 	-0.0004684919831 	-1.2277719e-06 	0.002222548752 	-6.260706136e-06 	4.236795647e-06
0.3195728889 	0.001989004367 	-0.0003147076726 	-8.622524934e-07 	0.002500987155 	-6.369055154e-06 	4.767576632e-06
0.3236393977 	0.001909441156 	-0.0001916793562 	-6.393467824e-07 	0.002743916391 	-5.137456265e-06 	5.230667274e-06
0.3282122583 	0.00183652377 	-8.517776461e-05 	-4.616563416e-07 	0.002899759708 	-3.232129857e-06 	5.527747951e-06
0.3334593818 	0.00176725107 	7.720006713e-06 	-1.8391531e-07 	0.002950742266 	-1.841300623e-06 	5.624934875e-06
0.3394059475 	0.001699230553 	7.952150471e-05 	8.504725451e-08 	0.00292163173 	-1.089449159e-06 	5.569442103e-06
0.3483965305 	0.001633719341 	0.0001269487227 	1.864923648e-07 	0.002857200554 	-5.784619667e-07 	5.446618374e-06
0.3581269251 	0.001580058692 	0.0001526695474 	1.15077586e-07 	0.002792664463 	-2.346195405e-07 	5.323594647e-06
0.3666486922 	0.001547992782 	0.0001634237986 	4.392346617e-08 	0.002753787426 	-9.913631564e-07 	5.249484209e-06
0.3686062448 	0.001540423952 	0.0001658383446 	2.31680532e-08 	0.002744591074 	-4.679405539e-08 	5.231953406e-06
0.379768926 	0.001510113565 	0.0001758037182 	1.61981234e-07 	0.002712099452 	-2.820949241e-07 	5.170015345e-06
0.3918314255 	0.001487036925 	0.0001864336389 	3.146913739e-07 	0.002692410547 	-4.955301013e-07 	5.132482819e-06
0.4049179264 	0.001469772536 	0.0001984703034 	4.812116803e-07 	0.002683498425 	-6.925598862e-07 	5.115493837e-06
0.4190519956 	0.001457336113 	0.0002123970891 	6.599993288e-07 	0.002683733815 	-8.77069064e-07 	5.115942556e-06
0.434325357 	0.001448973788 	0.0002285224468 	8.478321516e-07 	0.002691811278 	-1.053291389e-06 	5.131340445e-06
0.450827461 	0.001443953967 	0.0002470220864 	1.039164109e-06 	0.002706387512 	-1.224320902e-06 	5.1591268e-06
0.4686904931 	0.001441652235 	0.0002680283454 	1.226358191e-06 	0.002726190332 	-1.391799727e-06 	5.196876478e-06
0.4879732028 	0.001441436 	0.0002916030251 	1.269936483e-06 	0.002749693394 	-1.412647968e-06 	5.241679847e-06
0.5087551152 	0.001442711428 	0.0003178386955 	1.122900485e-06 	0.002775309915 	-1.246370786e-06 	5.290512055e-06
0.5311953169 	0.001445013129 	0.0003470864418 	9.734597921e-07 	0.002801266583 	-1.099552734e-06 	5.339992679e-06
0.5553404792 	0.00144796494 	0.0003800336757 	8.26178195e-07 	0.002825067293 	-9.716560594e-07 	5.385363448e-06
0.5813069819 	0.00145143474 	0.0004172587073 	6.842173987e-07 	0.002843993724 	-8.622928043e-07 	5.421442486e-06
0.6092019685 	0.001455114975 	0.000458908551 	5.51273654e-07 	0.002854161399 	-7.699485984e-07 	5.4408249e-06
0.6391328417 	0.001458830194 	0.0005042264036 	4.324538315e-07 	0.002850875682 	-6.919992884e-07 	5.434561409e-06
0.6690889292 	0.001462807832 	0.0005502633953 	3.335945842e-07 	0.002831481585 	-6.292986441e-07 	5.39759087e-06
0.6970675957 	0.001468052271 	0.0005941120549 	2.537095157e-07 	0.002797974724 	-5.761379169e-07 	5.333717481e-06
0.7231945774 	0.001476234553 	0.0006353506578 	1.890946864e-07 	0.002754068649 	-5.226086252e-07 	5.250020299e-06
0.7475921406 	0.001489359263 	0.0006746139918 	1.376889274e-07 	0.00270376692 	-4.607632945e-07 	5.154131223e-06
0.7703766453 	0.001509546462 	0.0007124795212 	9.918360249e-08 	0.002652343865 	-3.856118659e-07 	5.056104588e-06
0.7916578666 	0.001539099249 	0.000749752084 	7.420451866e-08 	0.00260589348 	-2.957943737e-07 	4.967557243e-06
0.8115364187 	0.001580564611 	0.0007877218764 	6.332204241e-08 	0.002570506389 	-1.922479572e-07 	4.900099613e-06
0.8301065661 	0.001636658736 	0.0008280820296 	6.645444508e-08 	0.002551856179 	-7.826084103e-08 	4.864547129e-06
0.8474552181 	0.001710299044 	0.0008727864374 	8.276831414e-08 	0.002554712415 	4.182047007e-08 	4.869991908e-06
0.8636633531 	0.00180462932 	0.0009239134014 	1.106815571e-07 	0.002582524387 	1.648804483e-07 	4.923009257e-06
0.8788061369 	0.001922814411 	0.000983414378 	1.469061416e-07 	0.002637548139 	2.87671558e-07 	5.027899822e-06
0.8929535143 	0.002067327057 	0.001052701292 	1.851293784e-07 	0.002720994432 	4.03708776e-07 	5.186971648e-06
0.906170736 	0.002238260912 	0.001132000607 	2.151787471e-07 	0.002832557067 	4.980734119e-07 	5.399641038e-06
0.9185186828 	0.002430994379 	0.001219490396 	2.238039754e-07 	0.002968648909 	5.43424495e-07 	5.659069914e-06
0.930054209 	0.00263441859 	0.001310479716 	1.98997032e-07 	0.003119507615 	5.100793505e-07 	5.946648536e-06
0.9408304396 	0.002831198146 	0.00139728299 	1.375831125e-07 	0.003267724075 	3.862508819e-07 	6.229190305e-06
0.9508970316 	0.002990370393 	0.00146605638 	6.060911296e-08 	0.003383604012 	2.128482893e-07 	6.45008967e-06
0.9575611767 	0.003097471378 	0.001510183271 	-4.514423472e-09 	0.003451970495 	5.353634069e-08 	6.58041519e-06
0.9634614836 	0.003171515955 	0.001534407476 	-9.402777789e-08 	0.003484727656 	-6.248273011e-08 	6.642859442e-06
0.9686853062 	0.003225568241 	0.001545049174 	-1.232617135e-07 	0.003492142376 	-1.118787589e-07 	6.65699396e-06
0.9733100526 	0.003260311884 	0.001550217752 	-3.952515049e-08 	0.003478488505 	-7.432748998e-08 	6.630965886e-06
0.9774043036 	0.003273466682 	0.001553377941 	5.350742623e-08 	0.003444363847 	3.505491687e-08 	6.565914804e-06
0.981028816 	0.003255267293 	0.001541176634 	1.343758335e-07 	0.003381077965 	1.992854074e-07 	6.445274324e-06
0.9842374086 	0.003180063667 	0.001497821909 	2.094166437e-07 	0.003265280094 	3.787972539e-07 	6.224531398e-06
0.9870777503 	0.002995483885 	0.001405744531 	2.563331921e-07 	0.003047638615 	4.93667846e-07 	5.809646248e-06
0.989592059 	0.002610781182 	0.001221474311 	2.244854803e-07 	0.002638358228 	4.45765753e-07 	5.029444076e-06
0.9918177227 	0.001966574674 	0.0009109385356 	1.318806981e-07 	0.001978469349 	2.517654738e-07 	3.771512467e-06
0.9932636011 	0.001189319216 	0.0005154291264 	3.378515601e-08 	0.001193104595 	6.436156918e-08 	2.274388964e-06
0.9947095902 	0.0005009760935 	0.0001773335549 	-7.001895936e-09 	0.0005015220603 	9.429252217e-10 	9.560404379e-07
0.99615569 	0.0001092467956 	2.385743581e-05 	-7.492339101e-10 	0.0001091798696 	5.567465085e-09 	2.081271765e-07
0.9976019004 	8.235349363e-06 	5.855029178e-07 	1.675150194e-10 	8.222186526e-06 	2.447536035e-09 	1.567377276e-08
0.9990482216 	7.882361371e-08 	5.794843234e-10 	6.35828232e-13 	7.867373804e-08 	6.815756606e-11 	1.499740109e-10
