0.47916667 	0.0025236132 	-0.0011756939 	-1.2790187e-07 	0.0025334033 	2.4931381e-07 	0.0013177548
0.48958333 	0.0022771273 	-0.0010716243 	-6.880892e-07 	0.0022678748 	1.8218824e-06 	0.00021922312
0.5 	0.00041683434 	-0.00037988725 	3.4930808e-07 	0.0004074562 	-5.1221793e-07 	0.00029836304
0.51041667 	5.6048557e-06 	-3.2897268e-06 	7.6886607e-08 	5.546397e-06 	-1.3926028e-07 	1.7299658e-06
0.52083333 	2.5031916e-07 	-1.152694e-07 	-6.959732e-11 	2.5094732e-07 	2.0823409e-10 	8.033929e-08
0.53125 	2.4537555e-09 	-2.5597423e-11 	-7.194171e-13 	2.4584018e-09 	2.9855661e-11 	3.5134831e-10
0.54166667 	9.7154733e-09 	2.1324184e-10 	2.5299038e-12 	9.7304051e-09 	1.1290959e-10 	4.9717332e-09
0.55208333 	2.2194233e-07 	5.2876787e-09 	1.1870526e-10 	2.2222723e-07 	4.8197684e-09 	7.7503861e-08
0.5625 	3.181154e-06 	8.4768343e-08 	1.4848799e-09 	3.1864323e-06 	5.1049003e-08 	1.3950611e-06
0.57291667 	2.682999e-05 	7.9460101e-07 	3.5499331e-11 	2.6891723e-05 	7.3070393e-10 	1.8107696e-05
0.58333333 	0.0001410939 	5.6215968e-06 	5.9856473e-09 	0.00014135339 	1.0656892e-07 	5.2417897e-05
0.59375 	0.00033528428 	2.0669893e-05 	3.2733244e-08 	0.00033560004 	4.8008152e-07 	2.7027024e-05
0.60416667 	0.00058119989 	5.5692042e-05 	8.0057315e-08 	0.00058181723 	4.3480189e-07 	0.00027944118
0.61458333 	0.00083526586 	0.00012291355 	7.9886058e-07 	0.00083570253 	2.4122954e-06 	0.00046502664
0.625 	0.0010531712 	0.00020279964 	3.655949e-08 	0.0010534553 	4.8771529e-07 	0.00033999203
0.63541667 	0.0012413951 	0.00028307039 	3.0972223e-09 	0.0012428758 	2.252764e-07 	0.00046170295
0.64583333 	0.0013887416 	0.00035667572 	8.7030029e-07 	0.0013927565 	1.4665713e-06 	0.00074840233
0.65625 	0.001504584 	0.00042944672 	-2.4342903e-08 	0.0015097183 	4.8391895e-07 	0.00019332863
0.66666667 	0.00160075 	0.00049586112 	4.2809137e-07 	0.0016098219 	5.092073e-07 	0.00083886071
0.67708333 	0.0016717705 	0.00055728778 	-4.3608228e-09 	0.0016836166 	9.6154218e-08 	0.00070963822
0.6875 	0.001733672 	0.00061295319 	3.226605e-10 	0.0017485843 	9.0836491e-09 	0.00087841541
0.69791667 	0.0017814175 	0.0006650481 	2.6007798e-08 	0.0017988588 	1.3787047e-08 	0.0009526549
0.70833333 	0.0018258979 	0.00071228339 	5.8356626e-09 	0.0018445349 	3.4826171e-08 	0.00082248303
0.71875 	0.0018639197 	0.00075679899 	2.8956011e-09 	0.0018839212 	9.2634529e-10 	0.00099446711
0.72916667 	0.0019008602 	0.00080190899 	1.5398091e-08 	0.0019220196 	4.9260752e-09 	0.00099453974
0.73958333 	0.0019348448 	0.00084888258 	9.2879164e-09 	0.0019572454 	4.2848355e-08 	0.00081905815
0.75 	0.0019698191 	0.00089034651 	1.5617932e-07 	0.0019942468 	4.8912844e-08 	0.0010329837
0.76041667 	0.002003989 	0.00092558729 	1.8883261e-08 	0.0020292395 	6.4531066e-08 	0.00066785801
0.77083333 	0.0020409579 	0.00095433262 	8.4046678e-08 	0.0020682527 	6.2340553e-08 	0.0010708336
0.78125 	0.0020786061 	0.00097314604 	1.7793453e-08 	0.0021056621 	4.1325357e-08 	0.00079413426
0.79166667 	0.0021200053 	0.00099248588 	5.5327689e-09 	0.0021472314 	1.1420376e-08 	0.0011095947
0.80208333 	0.0021648406 	0.0010128891 	1.9288368e-08 	0.0021901082 	3.7519161e-08 	0.001150263
0.8125 	0.0022148878 	0.0010350192 	2.9654978e-08 	0.0022352259 	6.5547196e-08 	0.00057561399
0.82291667 	0.0022714692 	0.0010603739 	2.0458932e-07 	0.0022877083 	3.964782e-07 	0.0011951364
0.83333333 	0.0023342842 	0.0010880007 	3.8240595e-08 	0.0023437313 	8.4415913e-08 	0.00053465473
0.84375 	0.0024062382 	0.0011206275 	1.1842807e-08 	0.0024121601 	2.5868416e-08 	0.0010669871
0.85416667 	0.0024905193 	0.00115928 	3.6083135e-07 	0.0024941667 	7.6241919e-07 	0.0013070039
0.86458333 	0.0025886373 	0.0012044203 	2.441846e-08 	0.0025901326 	5.2399294e-08 	0.0010618579
0.875 	0.0027075127 	0.0012588657 	1.1956116e-07 	0.0027052346 	2.5377717e-07 	0.00019076901
0.88541667 	0.0028531449 	0.0013263674 	2.8158062e-08 	0.0028499221 	5.9822509e-08 	0.0012389738
0.89583333 	0.0030357207 	0.0014063633 	3.1083984e-07 	0.0030290383 	7.5338724e-07 	0.0015730276
0.90625 	0.0032634812 	0.0014854767 	4.7543559e-07 	0.0032497905 	1.7252391e-06 	0.0017001647
0.91666667 	0.0035406371 	0.0015557189 	5.9394185e-07 	0.0035178903 	2.283902e-06 	0.0018481372
0.92708333 	0.0038606619 	0.0016569877 	6.2014502e-07 	0.0038325633 	1.9497734e-06 	0.0020087135
0.9375 	0.0042029537 	0.0017732099 	1.7786424e-07 	0.0041720892 	5.1785451e-07 	0.0021698662
0.94791667 	0.0045259441 	0.0018986091 	1.5302492e-07 	0.0044918634 	3.8951156e-07 	0.00084132269
0.95833333 	0.0047833638 	0.0020291423 	1.8359343e-08 	0.0047564524 	4.6417487e-08 	0.0022988693
0.96875 	0.0049075688 	0.0021249002 	1.3263715e-07 	0.0048826371 	3.5178949e-07 	0.00011120967
0.97916667 	0.0047545509 	0.0021863634 	-3.2651328e-08 	0.0047447241 	-3.8303718e-07 	0.0024981127
0.98958333 	0.0037657278 	0.0017510839 	-9.4258105e-07 	0.0037622356 	-2.0235749e-06 	0.002016124
