0.4742268 	0.00039476673 	-0.00010254284 	-7.7312512e-08 	0.00039460302 	2.5672705e-07 	0.00012062483
0.48453608 	0.0024139982 	-0.0011272907 	-2.5514779e-07 	0.0024151244 	5.641441e-07 	0.00084140686
0.49484536 	0.00077516694 	-0.00049614997 	4.4127797e-06 	0.00076585043 	-7.1344369e-06 	0.00036498363
0.50515464 	7.2848812e-06 	-2.8123357e-06 	-4.3562808e-09 	7.2500186e-06 	9.750604e-09 	4.3120087e-06
0.51546392 	1.2037079e-07 	-5.719664e-08 	4.5452916e-11 	1.2005409e-07 	-9.2907138e-11 	4.3500873e-08
0.5257732 	7.1762396e-09 	-2.4516626e-09 	1.0652448e-10 	7.1664583e-09 	-2.2605629e-10 	1.3909622e-09
0.53608247 	1.4843311e-09 	2.3576872e-11 	9.8045872e-14 	1.4845288e-09 	2.6320221e-12 	3.4983988e-10
0.54639175 	2.5653442e-08 	4.798021e-10 	5.5327629e-13 	2.5650991e-08 	2.2444734e-11 	2.1776356e-09
0.55670103 	4.8384974e-07 	1.022986e-08 	1.4178428e-11 	4.8390325e-07 	5.3547216e-10 	3.8275526e-08
0.56701031 	5.5172387e-06 	1.3855881e-07 	1.8025423e-10 	5.5202166e-06 	6.9133759e-09 	8.3226917e-07
0.57731959 	3.2383734e-05 	1.0694491e-06 	9.9885708e-09 	3.2425836e-05 	2.544098e-07 	1.066289e-05
0.58762887 	0.00010880244 	5.2953996e-06 	8.9573553e-08 	0.00010902235 	1.0255789e-06 	5.7532646e-05
0.59793814 	0.00023334186 	1.783175e-05 	1.1935417e-08 	0.0002338827 	5.7266464e-08 	0.00014789525
0.60824742 	0.00040644348 	5.714093e-05 	1.4992524e-07 	0.00040620927 	1.6170942e-06 	7.5093928e-06
0.6185567 	0.00061487079 	0.00012093422 	1.9179867e-07 	0.00061388202 	5.6992406e-07 	0.00028832251
0.62886598 	0.00083949421 	0.00020759536 	8.292399e-07 	0.00083749005 	1.9640668e-06 	0.00045143952
0.63917526 	0.0010417168 	0.00029458572 	1.2550432e-07 	0.0010396651 	1.3790473e-06 	0.00011218782
0.64948454 	0.0012217142 	0.00037638537 	5.0698843e-07 	0.0012224989 	1.0779775e-06 	0.00059779332
0.65979381 	0.0013617463 	0.00044760413 	5.5861027e-08 	0.0013655491 	1.0577333e-07 	0.00070917815
0.67010309 	0.0014782298 	0.00050820271 	3.7570714e-08 	0.0014848642 	2.969695e-07 	0.00049560777
0.68041237 	0.0015665743 	0.00056249194 	4.619897e-07 	0.0015767386 	6.7966476e-07 	0.00078955192
0.69072165 	0.0016416022 	0.00061109035 	1.1223126e-07 	0.0016529679 	4.7799684e-07 	0.00027954777
0.70103093 	0.001703526 	0.00065791654 	5.4359006e-07 	0.0017171723 	5.3721965e-07 	0.0008487738
0.71134021 	0.0017573314 	0.00070093928 	1.3395238e-07 	0.0017701242 	3.8902381e-07 	0.00027636129
0.72164948 	0.0018049964 	0.00074507763 	5.0896937e-07 	0.0018190056 	2.9617251e-07 	0.00089638108
0.73195876 	0.0018490936 	0.00079166672 	7.21519e-08 	0.0018629361 	1.9480666e-07 	0.00051372428
0.74226804 	0.0018905219 	0.00084075009 	2.4651673e-07 	0.001906573 	1.3828002e-07 	0.00093860961
0.75257732 	0.0019318465 	0.00088187884 	2.1315682e-08 	0.001949199 	5.588242e-08 	0.00079011053
0.7628866 	0.0019716036 	0.00091494614 	5.1520834e-08 	0.0019911786 	5.981237e-08 	0.0009789511
0.77319588 	0.0020134985 	0.0009416254 	1.2167658e-08 	0.0020348268 	2.792194e-08 	0.0008768181
0.78350515 	0.0020547629 	0.00096127841 	4.1797767e-08 	0.0020778363 	9.0813728e-08 	0.0010183399
0.79381443 	0.0020992023 	0.00098191414 	3.1012268e-08 	0.0021220723 	6.9943974e-08 	0.0006722691
0.80412371 	0.0021467694 	0.0010038563 	1.2442737e-07 	0.0021689275 	2.4955054e-07 	0.001057959
0.81443299 	0.0021978045 	0.0010263161 	6.9814446e-08 	0.0022145278 	1.5563676e-07 	9.9653909e-05
0.82474227 	0.0022557179 	0.0010524501 	1.538927e-07 	0.0022690693 	2.9955466e-07 	0.0010999633
0.83505155 	0.0023180747 	0.0010801242 	6.5547355e-09 	0.0023258146 	1.4592172e-08 	0.0010434438
0.84536082 	0.0023882048 	0.0011116272 	3.9989217e-08 	0.0023912893 	8.8109462e-08 	0.00056879686
0.8556701 	0.0024685198 	0.0011488078 	2.7633709e-07 	0.0024709591 	5.881713e-07 	0.0011997258
0.86597938 	0.0025611935 	0.0011918259 	1.2122332e-07 	0.0025632504 	2.5919391e-07 	0.0012626735
0.87628866 	0.0026720281 	0.0012427537 	8.8868493e-08 	0.0026712214 	1.8837459e-07 	0.0003532225
0.88659794 	0.0028077051 	0.0013054386 	7.4221702e-08 	0.0028051944 	1.5680023e-07 	0.00070341537
0.89690722 	0.0029763254 	0.0013785537 	7.585852e-08 	0.0029708084 	1.8266523e-07 	0.001427855
0.90721649 	0.0031895883 	0.0014506597 	2.7223697e-07 	0.0031763852 	9.9398392e-07 	0.0015367403
0.91752577 	0.0034519664 	0.0015168339 	3.8881429e-07 	0.0034292534 	1.494851e-06 	0.0016658079
0.92783505 	0.0037609135 	0.0016158775 	3.94223e-07 	0.0037321242 	1.2316323e-06 	0.0018096961
0.93814433 	0.0041001557 	0.0017314149 	7.0225389e-09 	0.0040673699 	1.7600407e-08 	0.0019066575
0.94845361 	0.0044297256 	0.0018595525 	2.1423938e-07 	0.0043924296 	5.3052366e-07 	0.00026988762
0.95876289 	0.0047017851 	0.0019964989 	1.5411599e-07 	0.0046722328 	2.4911365e-07 	0.0023062221
0.96907216 	0.0048432224 	0.0021019411 	1.0732337e-07 	0.0048167193 	2.7301964e-07 	0.00061959257
0.97938144 	0.0047046465 	0.0021709746 	-1.0434595e-08 	0.0046934547 	-1.3342424e-07 	0.0023031062
0.98969072 	0.0037169088 	0.0017282994 	-6.1647823e-07 	0.0037129782 	-1.3232879e-06 	0.0018648392
