0.47191011 	0.88281119 	-0.025051779 	-1.6917528e-05
0.48314607 	1.165396 	-0.032371189 	-0.00011388384
0.49438202 	1.2526339 	-0.033875097 	-0.00015823361
0.50561798 	1.3062609 	-0.034338635 	-0.00016420228
0.51685393 	1.3451638 	-0.034089062 	-4.2880816e-05
0.52808989 	1.3750599 	-0.033818725 	-3.2470975e-05
0.53932584 	1.3986692 	-0.033592905 	-0.00012449106
0.5505618 	1.417783 	-0.033147797 	-0.00017005712
0.56179775 	1.43314 	-0.03253313 	-0.00017630597
0.57303371 	1.4452578 	-0.031785527 	-0.00015026807
0.58426966 	1.4544591 	-0.030933696 	-9.876273e-05
0.59550562 	1.4609727 	-0.030006427 	-2.841087e-05
0.60674157 	1.4643024 	-0.029226685 	-5.2294851e-05
0.61797753 	1.4649501 	-0.028554111 	-0.00014893877
0.62921348 	1.4642948 	-0.027643851 	-0.00012115677
0.64044944 	1.4627818 	-0.026563928 	3.0050256e-07
0.65168539 	1.4595727 	-0.025939387 	-0.00012033777
0.66292135 	1.4564235 	-0.025037799 	-8.531882e-05
0.6741573 	1.4529316 	-0.02413389 	-4.4545955e-05
0.68539326 	1.4487052 	-0.023483174 	-0.00013072671
0.69662921 	1.445018 	-0.022472245 	-6.3017284e-06
0.70786517 	1.4399782 	-0.021922268 	-0.00013767658
0.71910112 	1.4358604 	-0.020924915 	-1.0089279e-06
0.73033708 	1.4299663 	-0.020371752 	-0.00012665112
0.74157303 	1.4247773 	-0.019369312 	-2.3098158e-06
0.75280899 	1.4174838 	-0.018794079 	-0.00011466032
0.76404494 	1.410271 	-0.017779827 	-8.892659e-06
0.7752809 	1.4005474 	-0.01709212 	-8.5672292e-05
0.78651685 	1.3901048 	-0.016122556 	-2.9226466e-05
0.79775281 	1.3774063 	-0.015267072 	-4.3911905e-05
0.80898876 	1.3634208 	-0.014402731 	-6.1006043e-05
0.82022472 	1.3485604 	-0.013380515 	6.5081639e-07
0.83146067 	1.3335952 	-0.012571271 	-4.3714883e-05
0.84269663 	1.3192228 	-0.011732168 	-5.1171455e-05
0.85393258 	1.3054046 	-0.010849757 	-1.3048989e-05
0.86516854 	1.2915471 	-0.010049738 	-3.349644e-06
0.87640449 	1.2763836 	-0.0092565901 	-2.251155e-05
0.88764045 	1.2599017 	-0.0084649953 	-3.2624541e-05
0.8988764 	1.2418535 	-0.00766894 	-3.5033486e-05
0.91011236 	1.2219214 	-0.0068611008 	-3.0994774e-05
0.92134831 	1.1996454 	-0.006043866 	-2.1749753e-05
0.93258427 	1.1743447 	-0.0052175712 	-8.5415686e-06
0.94382022 	1.1447228 	-0.0043866361 	1.3818916e-06
0.95505618 	1.1079465 	-0.0035904861 	-1.3276671e-05
0.96629213 	1.0602981 	-0.0027219003 	-4.3413515e-07
0.97752809 	0.988409 	-0.0018290702 	-2.0396127e-06
0.98876404 	0.82286132 	-0.00079856581 	-4.9380094e-07
