0.17894737 	7.8137745e-07 	-8.3136773e-08 	3.4425673e-09 	3.5193384e-07 	-1.2286396e-08 	5.6632004e-08
0.18947368 	1.4360361e-09 	-1.983894e-11 	2.2573458e-13 	2.7497785e-09 	-3.1287924e-11 	5.2419048e-12
0.2 	6.8817387e-16 	-8.849398e-18 	9.7591037e-21 	7.588308e-16 	-3.2773447e-18 	4.5181768e-17
0.21052632 	3.5616352e-15 	-3.4586112e-20 	1.7683396e-22 	3.5551813e-15 	8.4699324e-17 	7.1820197e-17
0.22105263 	1.7074706e-14 	-1.3805671e-20 	9.612352e-23 	1.7043098e-14 	1.69799e-17 	4.5605386e-16
0.23157895 	1.9286547e-14 	-6.259927e-23 	2.1683314e-24 	1.925025e-14 	-1.0829556e-16 	2.4550911e-16
0.24210526 	9.9728272e-15 	-3.7710382e-22 	-7.3180017e-24 	9.9539654e-15 	-1.1387575e-16 	7.7619475e-17
0.25263158 	3.6092797e-15 	-3.0174428e-21 	-8.3272988e-23 	3.6026597e-15 	-9.732877e-17 	1.2791365e-16
0.26315789 	1.2904207e-15 	-1.7226911e-20 	-2.5081414e-22 	1.288754e-15 	-6.9185082e-18 	3.7133863e-16
0.27368421 	1.03652e-15 	-2.1354986e-20 	9.8893845e-23 	1.0353444e-15 	1.33159e-18 	3.8158289e-16
0.28421053 	1.6589749e-15 	-2.1456179e-19 	3.8891339e-21 	1.6566871e-15 	-1.4211024e-18 	1.540803e-16
0.29473684 	2.4205174e-15 	-2.6219615e-19 	-2.1363308e-22 	2.4193956e-15 	6.2380862e-19 	1.4570859e-15
0.30526316 	3.0777192e-15 	-2.6471216e-19 	4.5396066e-21 	3.0761785e-15 	-6.1104076e-18 	1.8803094e-15
0.31578947 	3.3766988e-15 	-3.3775383e-19 	1.4054915e-20 	3.3715588e-15 	-2.2422952e-17 	2.0582613e-16
0.32631579 	2.941625e-15 	-5.7194318e-21 	1.0926871e-22 	2.9406005e-15 	1.6876273e-18 	2.3905656e-15
0.33684211 	3.6504845e-15 	-1.284553e-20 	5.1224042e-22 	3.6458544e-15 	7.9114225e-18 	1.2007921e-15
0.34736842 	4.0673794e-15 	-1.6367142e-21 	5.4020616e-23 	4.0631221e-15 	6.9562173e-18 	1.8307584e-15
0.35789474 	4.4945328e-15 	-7.1070107e-22 	2.5179641e-23 	4.4904695e-15 	3.2423741e-18 	2.3613625e-15
0.36842105 	4.3985227e-15 	-4.4725536e-22 	1.8321826e-23 	4.3930815e-15 	2.1271201e-18 	1.5434656e-15
0.37894737 	4.9869018e-15 	-3.0897882e-23 	-4.8328374e-25 	4.9826271e-15 	-1.9944138e-18 	2.7441813e-15
0.38947368 	4.5748561e-15 	-1.4253292e-22 	2.8060745e-25 	4.5699324e-15 	4.0048822e-19 	1.9899779e-15
0.4 	4.9192907e-15 	-4.0013342e-22 	-1.102794e-23 	4.9122384e-15 	4.5585403e-17 	1.2040018e-15
0.41052632 	1.0159569e-14 	-1.6432369e-21 	-1.1110053e-23 	1.014223e-14 	4.5924827e-17 	9.8152039e-16
0.42105263 	1.867069e-14 	6.6896468e-22 	1.3288362e-22 	1.8644074e-14 	1.2206468e-16 	4.5392902e-15
0.43157895 	3.5184265e-14 	1.8449049e-20 	4.7709162e-22 	3.5124577e-14 	4.382484e-16 	3.329944e-15
0.44210526 	5.2639561e-14 	3.041811e-20 	6.0504417e-24 	5.2553567e-14 	1.0863018e-18 	6.6826699e-15
0.45263158 	5.7114848e-14 	7.3997562e-20 	1.7428266e-21 	5.7014915e-14 	1.7797802e-16 	3.415803e-15
0.46315789 	6.1678939e-14 	1.1789107e-19 	5.6665614e-22 	6.1565556e-14 	5.786711e-17 	4.8834197e-16
0.47368421 	1.1392924e-13 	1.343936e-18 	5.2141385e-20 	1.1376137e-13 	2.2597025e-15 	1.4013029e-15
0.48421053 	1.9947914e-13 	3.3431513e-18 	7.7250846e-20 	1.9922193e-13 	3.3478959e-15 	2.573137e-15
0.49473684 	2.8976599e-13 	5.4083612e-18 	-1.239793e-20 	2.8940517e-13 	-7.8171978e-16 	7.1856726e-16
0.50526316 	1.8232043e-12 	5.3043639e-18 	2.1254486e-20 	1.8199255e-12 	6.7789835e-14 	1.0864886e-14
0.51578947 	3.8006296e-12 	5.8382825e-18 	1.495032e-20 	3.7935931e-12 	4.7683096e-14 	1.6113043e-14
0.52631579 	7.0282262e-12 	6.6816447e-18 	-2.341432e-20 	7.0180801e-12 	-7.9012021e-15 	1.604954e-12
0.53684211 	2.0379753e-11 	1.8689417e-17 	5.4454995e-19 	2.0349e-11 	5.0692322e-13 	4.1034167e-12
0.54736842 	3.5543798e-11 	3.4542296e-17 	3.0020712e-19 	3.5485076e-11 	2.7946373e-13 	4.5300475e-12
0.55789474 	5.7391565e-11 	4.7335867e-17 	-3.1562285e-19 	5.7300282e-11 	-6.3875748e-14 	9.2335585e-12
0.56842105 	1.9852978e-10 	4.6727861e-17 	2.9191943e-19 	1.9822779e-10 	5.350024e-12 	3.9850543e-11
0.57894737 	4.0556828e-10 	5.7923126e-17 	2.6358329e-19 	4.0487647e-10 	4.8307058e-12 	4.2345658e-11
0.58947368 	6.3856625e-10 	7.7829696e-17 	-6.6380053e-19 	6.3736871e-10 	-2.8002117e-12 	9.9538077e-12
0.6 	9.4927735e-10 	5.8015557e-17 	-1.8492551e-19 	9.4811436e-10 	6.4294835e-12 	3.3889512e-10
0.61052632 	1.5148558e-09 	4.2900662e-17 	-4.8701873e-19 	1.512634e-09 	1.693265e-11 	3.4914769e-10
0.62105263 	2.1867673e-09 	3.6651369e-17 	-2.094361e-19 	2.1829842e-09 	-2.0798345e-12 	2.0207737e-10
0.63157895 	3.3606123e-09 	3.2692146e-17 	5.7366536e-21 	3.3576398e-09 	6.9315425e-13 	1.8011624e-09
0.64210526 	4.0100095e-09 	3.8310984e-17 	1.5747084e-19 	4.0058367e-09 	1.9027047e-11 	1.8209312e-09
0.65263158 	4.5274474e-09 	4.8345474e-17 	-2.4173252e-19 	4.5209516e-09 	-6.8932872e-13 	1.1197882e-09
0.66315789 	5.2948575e-09 	1.3796828e-16 	3.9012932e-18 	5.2891838e-09 	1.381029e-11 	2.3183897e-09
0.67368421 	1.4171804e-08 	2.621366e-15 	6.3489125e-17 	1.4149239e-08 	2.2474681e-10 	2.331623e-09
0.68421053 	2.3020771e-08 	5.1471378e-15 	-4.3710284e-17 	2.2978438e-08 	-1.5065572e-10 	8.0807567e-10
0.69473684 	3.9623304e-08 	2.0529313e-13 	8.7769439e-15 	3.95527e-08 	8.5905128e-10 	2.4173656e-09
0.70526316 	1.1452991e-07 	9.634897e-13 	9.2042948e-15 	1.1431791e-07 	9.0087863e-10 	2.5343908e-09
0.71578947 	1.6544733e-07 	1.4517389e-12 	-1.1351448e-14 	1.6513583e-07 	-1.2538996e-09 	8.5315566e-10
0.72631579 	7.9122058e-07 	9.7720156e-11 	4.2128563e-12 	7.898463e-07 	2.8360032e-08 	2.9503572e-09
0.73684211 	1.7696111e-06 	2.3860958e-10 	-1.2349418e-12 	1.7665588e-06 	-8.8142857e-09 	4.1917981e-09
0.74736842 	2.2804239e-06 	2.4697545e-10 	1.3627722e-12 	2.2766396e-06 	2.4876882e-08 	1.2538866e-07
0.75789474 	4.2945432e-06 	3.6225796e-10 	6.5681108e-13 	4.2870706e-06 	1.1989833e-08 	1.2609005e-07
0.76842105 	7.1819124e-06 	3.1570746e-09 	1.2103738e-10 	7.1720829e-06 	1.1350361e-07 	4.6203306e-08
0.77894737 	5.5054921e-05 	5.3997336e-08 	7.1840765e-10 	5.5013977e-05 	6.7369159e-07 	1.3635275e-07
0.78947368 	7.5043609e-05 	7.425897e-08 	-8.5573477e-11 	7.4989979e-05 	-8.4940575e-08 	9.2960534e-07
0.8 	0.00051792885 	2.1422445e-05 	3.57637e-07 	0.00053605117 	7.7086835e-06 	1.8685409e-06
0.81052632 	0.0012880047 	5.9389701e-05 	3.086243e-08 	0.0013408998 	2.3353493e-07 	0.00058756715
0.82105263 	0.001699337 	0.00011872287 	7.470511e-07 	0.001791995 	5.6529096e-06 	0.00056194766
0.83157895 	0.0017354773 	0.00014230284 	9.3906334e-07 	0.0018353431 	1.9252331e-07 	0.00044519561
0.84210526 	0.0017180727 	0.0002620943 	4.257355e-07 	0.0018888218 	8.7282727e-08 	0.00042207085
0.85263158 	0.0017647734 	0.00038804079 	4.5047173e-06 	0.002008569 	2.8591716e-06 	0.00042806218
0.86315789 	0.001829033 	0.00071322265 	-9.0318974e-07 	0.0022698222 	-5.2165859e-07 	0.00015322304
0.87368421 	0.0018864832 	0.00090212661 	1.8688392e-06 	0.0024266588 	1.3387732e-06 	0.00045920509
0.88421053 	0.0019467406 	0.00096354513 	6.1119747e-08 	0.0024946863 	1.0228938e-07 	0.0004480974
0.89473684 	0.0020149612 	0.00097952851 	2.7900452e-08 	0.0025306763 	5.0580279e-08 	0.00037368684
0.90526316 	0.0020991625 	0.0010012062 	5.1149523e-08 	0.0025774894 	8.6716096e-08 	0.00039507258
0.91578947 	0.0021954634 	0.0010173631 	1.1431366e-07 	0.0026257438 	3.173796e-07 	0.00037411324
0.92631579 	0.0022919777 	0.0010359509 	1.308424e-07 	0.0026727791 	3.0530174e-07 	0.00034841533
0.93684211 	0.0023816656 	0.0010526051 	4.5209638e-08 	0.0027132321 	3.7151545e-08 	0.00031728171
0.94736842 	0.002455748 	0.0010697438 	1.1814647e-07 	0.0027397989 	-2.0685955e-07 	0.0002801735
0.95789474 	0.0024839217 	0.0010919159 	1.8980646e-08 	0.0027180959 	-1.3889347e-07 	0.00023696816
0.96842105 	0.0024110548 	0.0011079767 	5.4551889e-08 	0.0025857138 	-1.0162436e-06 	0.00018596954
0.97894737 	0.0022325357 	0.0010573933 	-1.8494917e-07 	0.0023205409 	-4.5297338e-07 	0.00012758647
0.98947368 	0.0015374289 	0.0007193784 	-3.8779586e-06 	0.0015563588 	-8.4341121e-06 	6.3182031e-05
