8.2204959e-36 	0.7852512 	-5.3330277e-14 	-1.9384139e-20
0.010869565 	0.78577922 	-0.00059284094 	1.7691488e-07
0.02173913 	0.7872322 	-0.0011706719 	4.6045301e-08
0.032608696 	0.78963156 	-0.0017445811 	1.9223293e-08
0.043478261 	0.79298936 	-0.0023095336 	1.6224519e-07
0.054347826 	0.79727735 	-0.0028660586 	1.0996325e-06
0.065217391 	0.80289453 	-0.0034374139 	1.5286737e-06
0.076086957 	0.80865383 	-0.0039132669 	1.8195796e-06
0.086956522 	0.81550504 	-0.0043923918 	1.0647992e-07
0.097826087 	0.82338675 	-0.0048566441 	2.4872413e-08
0.10869565 	0.83237481 	-0.0052940845 	3.7396742e-06
0.11956522 	0.84166283 	-0.0056830116 	1.3645569e-06
0.13043478 	0.85193557 	-0.0060454668 	1.2419264e-06
0.14130435 	0.86329221 	-0.006369217 	5.2191005e-06
0.15217391 	0.87438018 	-0.0066504931 	5.2943313e-07
0.16304348 	0.88737479 	-0.006884905 	6.0197971e-06
0.17391304 	0.89968045 	-0.0070823226 	1.056167e-06
0.18478261 	0.91371031 	-0.0072224785 	5.450954e-06
0.19565217 	0.92703872 	-0.0073337491 	5.8430335e-07
0.20652174 	0.9420236 	-0.0073756461 	5.2521034e-06
0.2173913 	0.95598973 	-0.0074007714 	1.9841116e-06
0.22826087 	0.97174481 	-0.0073434048 	5.0648616e-06
0.23913043 	0.98610919 	-0.0072840575 	7.4116657e-08
0.25 	1.001885 	-0.0071416443 	2.3577358e-06
0.26086957 	1.0170679 	-0.0069839628 	1.6757308e-06
0.27173913 	1.0321547 	-0.0067937051 	1.2076953e-06
0.2826087 	1.0478761 	-0.0065425545 	3.1458837e-06
0.29347826 	1.0621967 	-0.0063053388 	2.6537703e-06
0.30434783 	1.0768645 	-0.0060191218 	5.2764825e-07
0.31521739 	1.091128 	-0.0057160832 	1.5680255e-06
0.32608696 	1.1043195 	-0.0054237406 	9.2403805e-06
0.33695652 	1.117214 	-0.0051180078 	5.2597187e-07
0.34782609 	1.1293173 	-0.0048149752 	1.0264506e-06
0.35869565 	1.1402512 	-0.0045339147 	9.736105e-06
0.36956522 	1.1506361 	-0.0042612184 	1.5943861e-07
0.38043478 	1.1599527 	-0.0040070375 	1.1341964e-06
0.39130435 	1.1681439 	-0.0037745767 	5.8656887e-06
0.40217391 	1.1755392 	-0.0035560132 	4.0324436e-06
0.41304348 	1.1820792 	-0.0033517746 	1.3061749e-06
0.42391304 	1.1877055 	-0.0031644091 	5.3980704e-07
0.43478261 	1.1918821 	-0.0029899773 	9.6390555e-06
0.44565217 	1.1959671 	-0.0028163074 	1.1368848e-07
0.45652174 	1.1986504 	-0.0026560348 	9.0234042e-07
0.4673913 	1.2005013 	-0.0025000405 	4.5705298e-06
0.47826087 	1.2015633 	-0.0023423054 	7.1951979e-06
0.48913043 	1.2023593 	-0.002184286 	2.8577427e-07
0.5 	1.2019546 	-0.0020244024 	5.3685323e-07
0.51086957 	1.2008437 	-0.0018660613 	5.9884463e-06
0.52173913 	1.1993683 	-0.001708914 	6.0311687e-06
0.5326087 	1.1976086 	-0.001553498 	3.6825964e-07
0.54347826 	1.1949713 	-0.0013968314 	1.621035e-07
0.55434783 	1.1917165 	-0.001238908 	7.4383063e-06
0.56521739 	1.1883938 	-0.0010814365 	3.3515345e-06
0.57608696 	1.1846947 	-0.00092869583 	7.6036447e-07
0.58695652 	1.1803918 	-0.00077145718 	2.6922365e-06
0.59782609 	1.1758005 	-0.00061957496 	6.1021207e-06
0.60869565 	1.1711554 	-0.00046931142 	1.5203158e-07
0.61956522 	1.1659626 	-0.00032420388 	3.1768793e-07
0.63043478 	1.1602105 	-0.00018227681 	6.6775302e-06
0.64130435 	1.1544584 	-4.034975e-05 	5.1991916e-07
0.65217391 	1.1481249 	9.5274879e-05 	6.6597584e-08
0.66304348 	1.1409711 	0.00023462403 	5.7739241e-06
0.67391304 	1.1337841 	0.00037381325 	3.9925603e-07
0.68478261 	1.1257733 	0.00051389096 	2.9845755e-07
0.69565217 	1.1170724 	0.00066102042 	4.9887511e-06
0.70652174 	1.1083003 	0.000807793 	1.6695145e-07
0.7173913 	1.0987502 	0.00095678394 	1.8712197e-06
0.72826087 	1.0890331 	0.0010961578 	2.3808277e-06
0.73913043 	1.0792036 	0.0012241852 	2.1484462e-07
0.75 	1.0688768 	0.0013434048 	3.4916382e-06
0.76086957 	1.0585418 	0.0014578409 	1.091506e-07
0.77173913 	1.0476475 	0.0015654282 	1.6695105e-06
0.7826087 	1.0364843 	0.001673655 	4.8117198e-07
0.79347826 	1.0247411 	0.0017768717 	7.0832501e-07
0.80434783 	1.0124756 	0.0018719125 	7.2646015e-07
0.81521739 	0.99970564 	0.0019521607 	3.1065993e-07
0.82608696 	0.98631348 	0.0020215921 	3.8909747e-07
0.83695652 	0.9723923 	0.0020753993 	1.5424275e-07
0.84782609 	0.95791699 	0.0021172425 	3.0271059e-08
0.85869565 	0.94276624 	0.002133266 	-3.8786763e-07
0.86956522 	0.92728965 	0.0021329968 	-1.4579293e-07
0.88043478 	0.91085796 	0.0021012378 	-1.001761e-06
0.89130435 	0.89408327 	0.0020416679 	-8.9095199e-07
0.90217391 	0.8767193 	0.0019518878 	-1.9412958e-07
0.91304348 	0.85841782 	0.0018207759 	-1.7818815e-06
0.92391304 	0.83983958 	0.0016583441 	-2.966295e-06
0.93478261 	0.82016303 	0.0014647897 	-1.4071713e-06
0.94565217 	0.79703105 	0.0012217616 	-2.8650649e-06
0.95652174 	0.7719197 	0.00095630113 	-2.0685557e-07
0.9673913 	0.74010891 	0.00066312149 	-9.0112068e-07
0.97826087 	0.69223208 	0.00038212111 	-1.0226982e-07
0.98913043 	0.56172872 	0.00010747267 	-3.0352251e-08
