0.36082474 	2.9158934e-06 	-1.818293e-07 	2.5507673e-09 	2.7987864e-06 	-4.9511549e-09 	2.651635e-06
0.37113402 	7.524557e-13 	-4.6142421e-18 	2.0135941e-19 	7.5105627e-13 	-3.277926e-14 	1.5586785e-15
0.3814433 	1.2923627e-15 	4.5661819e-20 	2.8794803e-22 	1.2915231e-15 	-2.6978255e-18 	7.5634592e-16
0.39175258 	1.9166895e-15 	1.6905695e-19 	-4.1869835e-21 	1.9154071e-15 	-6.0677817e-18 	7.3536949e-16
0.40206186 	2.4012466e-15 	2.4657547e-20 	-1.0328684e-22 	2.3991575e-15 	1.5695253e-17 	1.2400147e-15
0.41237113 	7.0846859e-15 	1.790651e-21 	-6.8955313e-23 	7.0777895e-15 	3.1670312e-17 	3.4623868e-15
0.42268041 	8.3561366e-15 	2.3617887e-22 	1.5403237e-24 	8.3466547e-15 	-7.1569192e-18 	3.3816067e-15
0.43298969 	5.3847697e-15 	4.4086264e-20 	1.1982434e-21 	5.3766465e-15 	-3.6972437e-17 	1.045089e-15
0.44329897 	4.4394447e-15 	1.0333724e-19 	9.0700326e-22 	4.4322652e-15 	-3.292533e-18 	4.9037656e-16
0.45360825 	5.4024086e-15 	1.3410961e-19 	-3.6612976e-22 	5.3930577e-15 	3.3522512e-17 	2.6139031e-16
0.46391753 	8.7035736e-15 	1.2238004e-19 	-2.5213202e-22 	8.6880023e-15 	4.6385795e-17 	3.2225619e-16
0.4742268 	1.7597778e-14 	9.0304216e-20 	-2.9396249e-22 	1.7567094e-14 	5.4081525e-17 	1.3450118e-15
0.48453608 	3.3184625e-14 	2.4831342e-20 	-1.0198162e-21 	3.3133782e-14 	3.6783804e-16 	6.4703558e-15
0.49484536 	5.51253e-14 	7.3774888e-22 	-3.4791784e-24 	5.5055747e-14 	1.6701424e-16 	1.8638078e-14
0.50515464 	8.7059231e-14 	9.584213e-23 	-4.4052561e-25 	8.6938269e-14 	2.1146961e-17 	2.3604621e-14
0.51546392 	1.2954237e-13 	3.655382e-22 	1.4400323e-23 	1.294135e-13 	3.7055465e-16 	6.1937945e-14
0.5257732 	1.5051582e-13 	2.1236907e-21 	2.7504743e-23 	1.5023628e-13 	7.4148827e-16 	3.8718376e-15
0.53608247 	1.4276261e-13 	5.0954691e-21 	6.605508e-23 	1.4263668e-13 	-9.7510294e-17 	7.6698832e-14
0.54639175 	1.3388345e-13 	1.3403884e-20 	9.9877647e-23 	1.336679e-13 	3.523888e-16 	2.0795686e-14
0.55670103 	1.2148922e-13 	6.6206151e-20 	9.4153185e-22 	1.2139257e-13 	-7.1009025e-17 	7.0702089e-14
0.56701031 	1.2176952e-13 	3.3273079e-19 	6.9340267e-21 	1.2157381e-13 	1.2986063e-16 	1.8707127e-14
0.57731959 	1.1559419e-13 	3.2630445e-19 	4.7769866e-21 	1.1552578e-13 	-1.4807004e-16 	7.9301496e-14
0.58762887 	9.9710792e-14 	1.3142083e-18 	1.2093348e-20 	9.9525278e-14 	1.0968788e-16 	8.0202635e-16
0.59793814 	1.7396445e-13 	2.6882159e-18 	1.3513999e-21 	1.7381228e-13 	2.4202135e-15 	9.0817164e-14
0.60824742 	5.0160709e-13 	2.0386054e-18 	1.7244494e-21 	5.0072474e-13 	-6.9685744e-15 	3.6206002e-14
0.6185567 	6.2348427e-13 	2.0576661e-18 	8.3245535e-22 	6.2287833e-13 	-3.3639879e-15 	3.0298516e-13
0.62886598 	2.4052556e-12 	1.9271148e-18 	1.3291315e-21 	2.4013913e-12 	-1.137271e-14 	3.7564432e-13
0.63917526 	5.0820558e-12 	7.8887364e-19 	7.4603416e-21 	5.0734963e-12 	-6.383439e-14 	5.9090256e-13
0.64948454 	8.9417413e-12 	1.8271187e-19 	-6.854837e-22 	8.9316363e-12 	1.7621028e-13 	3.6406139e-12
0.65979381 	8.5097897e-11 	3.0358057e-19 	7.6404925e-21 	8.4939244e-11 	-5.1151082e-13 	1.8712804e-12
0.67010309 	1.7153927e-10 	4.1659914e-19 	8.2234624e-21 	1.7137514e-10 	-5.5053911e-13 	8.5442513e-11
0.68041237 	3.4176979e-10 	3.3053492e-19 	4.1131274e-23 	3.4149956e-10 	1.1275725e-12 	2.0000836e-10
0.69072165 	9.0147395e-10 	3.6931563e-19 	6.4734881e-21 	8.998283e-10 	-2.4765844e-12 	3.8197045e-11
0.70103093 	1.4865021e-09 	2.6886959e-19 	2.090757e-21 	1.485766e-09 	-7.9986804e-13 	1.100318e-09
0.71134021 	2.2542746e-09 	1.1822093e-18 	1.9124599e-20 	2.2519182e-09 	-1.3958715e-12 	1.0181909e-09
0.72164948 	3.190202e-09 	3.0859378e-18 	4.3331562e-20 	3.1859256e-09 	-3.1626961e-12 	9.4686211e-10
0.73195876 	4.0668293e-09 	5.3880871e-18 	2.0635321e-20 	4.0656236e-09 	2.2280172e-12 	3.4342898e-09
0.74226804 	4.5123022e-09 	2.6385693e-17 	5.1182406e-19 	4.5042232e-09 	-3.579633e-12 	2.741965e-10
0.75257732 	4.9411572e-09 	3.7867328e-17 	2.4287701e-21 	4.9397319e-09 	-1.6986512e-14 	4.1934324e-09
0.7628866 	5.1446243e-09 	1.8780791e-16 	3.1026163e-18 	5.1372317e-09 	-1.8476267e-12 	1.266411e-09
0.77319588 	5.3090803e-09 	3.212646e-16 	6.460524e-19 	5.30616e-09 	-3.847281e-13 	3.7769266e-09
0.78350515 	5.4192928e-09 	1.4533263e-15 	2.0775782e-17 	5.4122491e-09 	-9.232821e-13 	1.7232868e-09
0.79381443 	5.5148762e-09 	2.7591967e-15 	4.4640034e-18 	5.5117737e-09 	-1.9838168e-13 	3.8854019e-09
0.80412371 	5.6051101e-09 	1.4693093e-14 	1.9989467e-16 	5.5971654e-09 	-3.1500517e-13 	1.4276622e-09
0.81443299 	5.6978824e-09 	3.1785015e-14 	1.7771653e-16 	5.6956118e-09 	6.5618209e-14 	4.4859376e-09
0.82474227 	5.852142e-09 	2.2015382e-13 	3.1126697e-15 	5.8416596e-09 	1.587866e-12 	2.3419126e-10
0.83505155 	1.9155296e-08 	1.2250301e-11 	1.1800358e-13 	1.9136787e-08 	1.3125985e-10 	4.4868094e-09
0.84536082 	1.5380548e-07 	1.3199948e-10 	6.9875863e-14 	1.5381653e-07 	4.3951053e-11 	1.066782e-07
0.8556701 	9.3320921e-07 	6.8812388e-09 	3.3379642e-11 	9.3573164e-07 	-8.5304264e-10 	1.0046974e-07
0.86597938 	7.2833725e-06 	1.8062589e-07 	7.0048955e-09 	7.3838427e-06 	2.2921355e-07 	1.7154587e-06
0.87628866 	3.0049801e-05 	1.037622e-06 	-5.3703088e-09 	3.0647018e-05 	-1.9537369e-07 	1.1586526e-05
0.88659794 	0.00031434623 	2.2045846e-05 	-1.013074e-07 	0.00032946284 	-2.505115e-06 	4.583872e-06
0.89690722 	0.00075405913 	8.1200963e-05 	-3.7209032e-08 	0.00081090665 	-6.5904398e-07 	0.0003185973
0.90721649 	0.0012745591 	0.00021100992 	1.0670916e-06 	0.0014195342 	3.6905209e-06 	0.00083198194
0.91752577 	0.0016819207 	0.00037059523 	6.6422198e-07 	0.0019220055 	1.3674607e-06 	0.001146868
0.92783505 	0.0019551332 	0.00053876495 	8.2688018e-08 	0.0022648404 	1.0552022e-07 	0.0013167213
0.93814433 	0.0021402893 	0.00069405434 	1.9790051e-08 	0.0024606822 	1.1634532e-08 	0.0013934135
0.94845361 	0.0022595977 	0.00081356935 	2.2259638e-07 	0.0025406975 	4.0699937e-08 	0.0014108288
0.95876289 	0.0023901882 	0.00093028855 	3.9920248e-08 	0.0026286831 	1.7307877e-08 	0.0014355328
0.96907216 	0.0024994326 	0.0010520986 	1.7940929e-07 	0.0026996381 	-1.1561096e-07 	0.001466354
0.97938144 	0.0023985786 	0.0011201865 	3.9046912e-07 	0.0025080192 	7.895134e-07 	0.00057251563
0.98969072 	0.0019148488 	0.00089488808 	7.0390221e-09 	0.0019303564 	1.508624e-08 	0.0010579837
