0 	0.0082280643 	-5.5880895e-16 	-2.03112e-22 	2.1121565e-18 	1.4965774e-32 	2.1473157e-18
0.010869565 	0.0082483247 	-0.00033489253 	1.1039485e-07 	0.0095329141 	-4.1034819e-05 	0.0022784027
0.02173913 	0.0083116838 	-0.00066063434 	2.7877167e-08 	0.0095875454 	-2.3680861e-05 	0.0029244919
0.032608696 	0.008381887 	-0.00098351178 	1.1292625e-08 	0.0096389573 	-4.481535e-06 	0.0035517801
0.043478261 	0.0084457377 	-0.0012999434 	1.1446223e-07 	0.0096737535 	-1.8576438e-05 	0.0041634481
0.054347826 	0.0084996367 	-0.0016102308 	4.930117e-07 	0.0096837307 	-1.3631602e-06 	0.0013610089
0.065217391 	0.008546869 	-0.0019236162 	5.4899873e-07 	0.0096800519 	-1.2614746e-06 	0.0020422176
0.076086957 	0.0085968414 	-0.0021852369 	7.929019e-07 	0.009678435 	-1.5087124e-06 	0.0017704672
0.086956522 	0.0086593606 	-0.0024454126 	3.8601888e-08 	0.0096907894 	-9.5241874e-07 	0.0063839078
0.097826087 	0.0087337078 	-0.0026922885 	1.2999556e-07 	0.0097012541 	-2.0088049e-06 	0.0069115262
0.10869565 	0.0088136242 	-0.0029187583 	1.4059974e-06 	0.0097015395 	-2.0397893e-06 	0.0015823048
0.11956522 	0.0088877329 	-0.0031179202 	6.3438098e-07 	0.009710468 	-8.5502742e-07 	0.0054225706
0.13043478 	0.008959583 	-0.0032958904 	3.9356324e-07 	0.0097081777 	-5.3044996e-07 	0.0068321129
0.14130435 	0.0090192527 	-0.0034434142 	2.0847442e-06 	0.0096760155 	-2.702908e-06 	0.00084109133
0.15217391 	0.0090667623 	-0.0035701886 	1.7026545e-07 	0.0096605918 	-8.5458753e-07 	0.0092189816
0.16304348 	0.0090843826 	-0.0036522155 	2.0462507e-06 	0.0095800851 	-2.6238154e-06 	0.0015615657
0.17391304 	0.0090868458 	-0.0037183494 	3.8502973e-07 	0.0095149418 	-4.9849022e-07 	0.0078418438
0.18478261 	0.0090424949 	-0.0037351803 	1.5763768e-06 	0.009379765 	-2.0409032e-06 	0.0022420247
0.19565217 	0.0089811393 	-0.0037385035 	1.7975623e-07 	0.0092531089 	-2.3746289e-07 	0.007611982
0.20652174 	0.0088498311 	-0.0036845741 	1.2319852e-06 	0.00903853 	-1.627486e-06 	0.0015850493
0.2173913 	0.0087108741 	-0.0036275093 	1.2556734e-06 	0.0088444492 	-3.1822773e-06 	0.0075648998
0.22826087 	0.0084671919 	-0.0035012528 	8.7717395e-07 	0.0085282496 	-1.1612401e-06 	9.5131277e-05
0.23913043 	0.0082381276 	-0.003387426 	9.6552738e-07 	0.0082581746 	-2.2406206e-06 	0.0064659642
0.25 	0.0078938927 	-0.0032080853 	1.2936001e-07 	0.0078658647 	-1.4270107e-07 	0.0027298054
0.26086957 	0.0075422561 	-0.0030277089 	6.9875256e-08 	0.0074803805 	-7.7081581e-08 	0.0036126881
0.27173913 	0.0071519226 	-0.0028283482 	9.0746368e-07 	0.0070663285 	-2.0131916e-06 	0.0050637835
0.2826087 	0.0066948446 	-0.0025960376 	-2.3317282e-07 	0.0065863244 	3.6497865e-07 	0.00039523965
0.29347826 	0.0062715836 	-0.0023849086 	3.0458528e-06 	0.0061581508 	-6.6413676e-06 	0.0039060338
0.30434783 	0.0058243236 	-0.0021615828 	-8.9945033e-08 	0.0057068831 	1.1400953e-07 	0.0029813219
0.31521739 	0.0053767724 	-0.0019405686 	-2.4461024e-07 	0.0052598865 	3.1005492e-07 	0.0012028704
0.32608696 	0.0049684863 	-0.0017409662 	6.1343247e-06 	0.004859515 	-1.3444076e-05 	0.0027581999
0.33695652 	0.0045746164 	-0.0015485568 	-8.8445833e-08 	0.0044717645 	7.8604182e-08 	0.0019509281
0.34782609 	0.0042081151 	-0.0013710835 	-1.5141111e-07 	0.0041132384 	1.3456311e-07 	0.0010495626
0.35869565 	0.0038844781 	-0.0012154426 	5.4632765e-06 	0.0037994646 	-1.2270898e-05 	0.0019048067
0.36956522 	0.0035763508 	-0.00106722 	-6.9499866e-09 	0.0034989569 	6.0241508e-10 	0.0017511928
0.38043478 	0.0033035213 	-0.00093588384 	-9.3654613e-08 	0.0032311296 	8.1178503e-09 	0.00051715766
0.39130435 	0.0030650782 	-0.00082031355 	3.2227848e-06 	0.0029996972 	-7.3639516e-06 	0.0013154381
0.40217391 	0.0028429778 	-0.00071117824 	1.9714165e-06 	0.0027819486 	-4.5046183e-06 	0.0012682958
0.41304348 	0.0026389769 	-0.00060810813 	-2.3996646e-08 	0.0025793199 	-9.8510198e-08 	0.00012921823
0.42391304 	0.002467002 	-0.0005178187 	8.8048445e-07 	0.0024110274 	-1.8476076e-06 	0.00092281791
0.43478261 	0.002322914 	-0.00043265461 	3.9992968e-06 	0.0022671909 	-8.3921198e-06 	0.00089252326
0.44565217 	0.0021788259 	-0.00034749052 	6.278166e-08 	0.0021233544 	-1.3174096e-07 	0.00086222862
0.45652174 	0.0020688904 	-0.00026787938 	1.9879306e-08 	0.0020109835 	-5.9401547e-08 	0.00031388947
0.4673913 	0.0019879358 	-0.00019188553 	2.3167349e-06 	0.0019280031 	-3.3437874e-06 	0.00066628701
0.47826087 	0.0019205042 	-0.00011522608 	3.0037608e-06 	0.0018570482 	-4.335385e-06 	0.00064640757
0.48913043 	0.0018560884 	-3.8325815e-05 	8.4352191e-09 	0.0017888154 	-8.1403298e-09 	0.00054556479
0.5 	0.0018252343 	4.0373433e-05 	1.749996e-08 	0.0017525849 	-1.6888174e-08 	0.00041031729
0.51086957 	0.0018194731 	0.0001211194 	2.9869753e-06 	0.0017412499 	-1.6901962e-06 	0.00055229048
0.52173913 	0.0018188203 	0.0002025018 	2.7353909e-06 	0.0017345649 	-1.5478358e-06 	0.00053796997
0.5326087 	0.0018228391 	0.00028450166 	1.7833343e-08 	0.0017322207 	-2.5246237e-09 	0.00038710528
0.54347826 	0.001854869 	0.0003720184 	1.9646926e-07 	0.001757977 	2.2482738e-08 	0.00054018826
0.55434783 	0.0019057162 	0.00045961688 	3.7823293e-06 	0.0018027232 	4.328266e-07 	0.00052865899
0.56521739 	0.0019565634 	0.00054721535 	1.7760062e-06 	0.0018474695 	2.0323527e-07 	0.00051712972
0.57608696 	0.0020169158 	0.00063395595 	5.0290922e-08 	0.0019013239 	2.8024243e-08 	3.6028969e-05
0.58695652 	0.0020978695 	0.00072291699 	1.7181637e-06 	0.0019788826 	1.0738497e-06 	0.00056069398
0.59782609 	0.0021852229 	0.00081105056 	3.0382603e-06 	0.0020624631 	1.8989081e-06 	0.00055083058
0.60869565 	0.0022728713 	0.00089913258 	1.9754849e-09 	0.0021463233 	2.7560713e-09 	0.00051515747
0.61956522 	0.0023785999 	0.00098596463 	5.4607814e-07 	0.0022504788 	6.3110968e-07 	0.00061526065
0.63043478 	0.0024927886 	0.0010672136 	3.1371012e-06 	0.0023640889 	3.6255891e-06 	0.00060667464
0.64130435 	0.0026069774 	0.0011484626 	4.7379003e-07 	0.002477699 	5.4756536e-07 	0.00059808862
0.65217391 	0.0027319341 	0.0012233378 	1.8609062e-07 	0.0026036438 	3.4163703e-07 	0.00068245599
0.66304348 	0.0028674683 	0.0012942752 	2.4217625e-06 	0.0027399492 	4.4460262e-06 	0.00067503824
0.67391304 	0.0030030026 	0.0013652127 	3.341836e-07 	0.0028762546 	6.1351558e-07 	0.00066762049
0.68478261 	0.0031491104 	0.0014343809 	3.8165521e-07 	0.0030228771 	8.3043562e-07 	0.00075748027
0.69565217 	0.0033048667 	0.0015065751 	1.9461036e-06 	0.0031783749 	4.2344862e-06 	0.00075118424
0.70652174 	0.0034610756 	0.0015788988 	7.3544567e-09 	0.0033339867 	1.9242961e-08 	0.00059543943
0.7173913 	0.0036329451 	0.0016585168 	1.1480974e-06 	0.0035054998 	2.4908908e-06 	0.00083949805
0.72826087 	0.003810284 	0.0017405682 	1.274433e-06 	0.003682086 	2.7649863e-06 	0.00083428225
0.73913043 	0.0039930174 	0.0018250775 	1.3907525e-08 	0.0038638946 	3.5585893e-08 	0.000640494
0.75 	0.0041896431 	0.0019052026 	2.0869619e-06 	0.0040616962 	5.6192252e-06 	0.00092954426
0.76086957 	0.0043866769 	0.0019835381 	8.6573363e-09 	0.0042591171 	2.77728e-08 	0.00073657012
0.77173913 	0.004594721 	0.0020504864 	8.4635316e-07 	0.0044705659 	3.5762902e-06 	0.001027833
0.7826087 	0.0048040134 	0.0021147711 	3.053113e-07 	0.0046832822 	1.2901019e-06 	0.001024512
0.79347826 	0.0050170671 	0.0021736692 	3.8659494e-07 	0.0049016562 	2.1657835e-06 	0.0011246929
0.80434783 	0.0052304978 	0.0022306761 	3.5755057e-07 	0.0051214077 	2.003071e-06 	0.0011221693
0.81521739 	0.0054421876 	0.0022852307 	2.1797296e-07 	0.0053408757 	1.5893789e-06 	0.0012156617
0.82608696 	0.0056489409 	0.0023354445 	2.3046776e-07 	0.0055562021 	1.6804864e-06 	0.0012138146
0.83695652 	0.0058449905 	0.0023787104 	8.9171407e-08 	0.0057620749 	1.6601874e-06 	0.0012958064
0.84782609 	0.0060284514 	0.0024159837 	2.9402131e-08 	0.0059561626 	5.4740694e-07 	0.0012945008
0.85869565 	0.0061795709 	0.0024412529 	-2.3428124e-07 	0.0061201055 	1.6198119e-06 	0.0013580595
0.86956522 	0.0063078741 	0.0024588893 	-3.9009541e-08 	0.0062596791 	4.5034368e-08 	3.8914643e-05
0.88043478 	0.00637682 	0.0024598837 	-5.7533373e-07 	0.0063480292 	9.6682006e-09 	0.0013943385
0.89130435 	0.006399341 	0.0024469893 	-6.2988391e-07 	0.0063886053 	-9.426357e-07 	0.0014006601
0.90217391 	0.006366514 	0.0024173072 	-5.4467016e-08 	0.0063737923 	-6.7835855e-08 	0.00063103248
0.91304348 	0.0062543383 	0.0023623938 	-1.1389282e-06 	0.0062831197 	-2.3218871e-06 	0.0013775619
0.92391304 	0.0060903059 	0.002288022 	-2.0088072e-06 	0.0061365726 	-4.4373413e-06 	0.0013307733
0.93478261 	0.005862656 	0.0021875109 	-1.1241796e-06 	0.005922893 	-2.6584053e-06 	0.0012726485
0.94565217 	0.0055191995 	0.0020518122 	-1.9724655e-06 	0.0055880835 	-5.2981459e-06 	0.0012135462
0.95652174 	0.005071974 	0.0018975358 	-7.2760825e-08 	0.0051386996 	-1.3477326e-07 	0.00041206447
0.9673913 	0.0044474061 	0.0017142621 	-7.9849795e-07 	0.004501902 	-2.8659653e-06 	0.0009945608
0.97826087 	0.0035692006 	0.0014885428 	-2.9934609e-08 	0.0035922047 	-8.2188266e-08 	0.00032379554
0.98913043 	0.0019567331 	0.00091059786 	-8.5238999e-09 	0.0019602638 	-1.879554e-08 	0.00022927301
