2.3823985e-19 	0.73134122 	-4.9661745e-14 	-7.7670154e-18 	1.2991739e-16 	-1.5968704e-17 	1.3792213e-16
0.011627907 	1.2591496 	-0.092173072 	-1.9180206e-05 	0.50241277 	1.5474542e-06 	0.056725744
0.023255814 	0.97128356 	-0.078182776 	0.00058924815 	0.65372319 	-0.00058552537 	0.14825767
0.034883721 	0.91919919 	-0.030406923 	0.00032029747 	0.67384013 	-0.0015860196 	0.21971777
0.046511628 	0.90883732 	-0.034475915 	0.00069391722 	0.59112313 	-0.013333973 	0.19505824
0.058139535 	0.83064427 	-0.026969634 	0.0003628919 	0.49128803 	-0.011685716 	0.06881747
0.069767442 	0.62483604 	-0.024399493 	0.000360941 	0.39211707 	-0.0069639249 	0.12689528
0.081395349 	0.46170015 	-0.017806737 	0.0001905251 	0.29620351 	-0.0043560961 	0.10069835
0.093023256 	0.34001273 	-0.010852126 	-9.1970571e-07 	0.21495745 	-0.0031510711 	0.043185102
0.10465116 	0.23286153 	-0.0065514872 	-5.8437918e-05 	0.15039978 	-0.0020875017 	0.018063349
0.11627907 	0.10999911 	-0.0081264545 	4.0619416e-05 	0.098594641 	-0.00013152314 	0.058579853
0.12790698 	0.070216972 	-0.005640383 	2.3617083e-05 	0.06527515 	-0.00029105812 	0.020451579
0.13953488 	0.04701009 	-0.0039628708 	1.2278414e-05 	0.044600681 	-0.00015324042 	0.0076955385
0.15116279 	0.02964249 	-0.0026239961 	3.136775e-05 	0.028869407 	-0.00037026832 	0.00065584389
0.1627907 	0.01734096 	-0.0016302022 	1.3335157e-06 	0.01740392 	-1.422277e-05 	0.0016224406
0.1744186 	0.011304609 	-0.0010714714 	2.2720196e-06 	0.011665977 	-2.4231853e-05 	0.0027208064
0.18604651 	0.0096920293 	-0.00091178359 	3.233452e-06 	0.010126183 	-3.1239949e-05 	0.0035761928
0.19767442 	0.0088233812 	-0.00078520439 	4.9486333e-06 	0.0093320699 	-2.1678008e-05 	0.00078995444
0.20930233 	0.008463206 	-0.0007644952 	1.8353608e-07 	0.0091101656 	-1.5218922e-06 	0.0055902678
0.22093023 	0.0084956708 	-0.00072249532 	3.2050556e-06 	0.0092682722 	-8.2385071e-06 	0.0036176508
0.23255814 	0.0085161401 	-0.0006996456 	4.2293295e-06 	0.0094287462 	-7.8742288e-06 	0.0038066406
0.24418605 	0.0085432626 	-0.00067717836 	2.4646114e-06 	0.0096463561 	-4.5892738e-06 	0.0052807996
0.25581395 	0.0085871847 	-0.00062533365 	4.4733659e-06 	0.0098147175 	-6.3081699e-06 	0.0026340985
0.26744186 	0.0086051168 	-0.00060223561 	4.4112801e-07 	0.01008326 	-6.2197287e-07 	0.0059794979
0.27906977 	0.0086611967 	-0.00052980022 	3.4412083e-06 	0.010263671 	-3.4996305e-06 	0.0024766254
0.29069767 	0.0086820684 	-0.00047876801 	4.1861923e-07 	0.01055335 	-7.7067527e-07 	0.0047647045
0.30232558 	0.0087378178 	-0.00039248311 	8.5485334e-07 	0.010789682 	-6.1306707e-07 	0.003258791
0.31395349 	0.0087753488 	-0.00030935464 	8.6008349e-07 	0.011072804 	-9.4326158e-07 	0.0031592431
0.3255814 	0.0088339321 	-0.00019734442 	1.2524552e-06 	0.011346269 	-1.3735553e-06 	0.0023394036
0.3372093 	0.0088846557 	-8.3239174e-05 	9.639077e-07 	0.011636304 	-5.8896198e-07 	0.0016015469
0.34883721 	0.0089520747 	6.4472351e-05 	4.2734812e-06 	0.011931685 	-2.6111101e-06 	0.00083190742
0.36046512 	0.009019532 	0.00021383076 	2.6695093e-07 	0.012228048 	-9.4297944e-08 	6.763221e-05
0.37209302 	0.0091033967 	0.00041147713 	7.1325406e-06 	0.012545709 	-2.519503e-06 	0.00071487431
0.38372093 	0.0091872484 	0.00060915528 	1.182694e-06 	0.012864099 	-4.1776897e-07 	0.0014520919
0.39534884 	0.0093096025 	0.00085555867 	4.276114e-06 	0.01316442 	-1.198969e-06 	0.0022119003
0.40697674 	0.0094273762 	0.0011212876 	4.9552387e-06 	0.013472662 	-1.3893863e-06 	0.0028788487
0.41860465 	0.0095894723 	0.0014021026 	2.3740232e-06 	0.013743934 	-3.454108e-06 	0.0013665399
0.43023256 	0.0097826845 	0.0017594133 	9.1996287e-06 	0.014010192 	-3.2128904e-06 	0.0042796235
0.44186047 	0.00997933 	0.0021246559 	1.2373124e-07 	0.01426496 	-3.2603166e-07 	0.0046758644
0.45348837 	0.010279906 	0.0025186097 	9.9574472e-07 	0.014444564 	-2.6238028e-06 	0.0040405299
0.46511628 	0.010654122 	0.002947577 	9.9491188e-06 	0.014562198 	-7.4107733e-06 	0.0061693728
0.47674419 	0.011080999 	0.0033619628 	8.7077645e-07 	0.014621223 	-4.5370946e-06 	0.0033235621
0.48837209 	0.011557554 	0.0038637822 	5.5916018e-07 	0.014676874 	-2.9134518e-06 	0.0051954539
0.5 	0.012145307 	0.0042888762 	5.5242775e-06 	0.014631305 	-9.3176333e-06 	0.0078591058
0.51162791 	0.012848007 	0.0045809788 	2.3872055e-06 	0.014461553 	-2.891712e-06 	0.0035843348
0.52325581 	0.013564186 	0.0051145902 	2.0478837e-06 	0.014325984 	-2.4806781e-06 	0.0048073101
0.53488372 	0.014275535 	0.0056031266 	1.072266e-06 	0.014207161 	-9.8980972e-06 	0.0093220275
0.54651163 	0.015046553 	0.0055524918 	4.8416778e-06 	0.013986175 	-6.0330369e-07 	0.0054724796
0.55813953 	0.015852498 	0.0054768019 	8.1210922e-06 	0.013747644 	-1.0119385e-06 	0.0030844906
0.56976744 	0.016660766 	0.005782841 	-5.8963086e-07 	0.013566104 	-2.5118263e-06 	0.010646844
0.58139535 	0.017405047 	0.0057174078 	5.4616603e-06 	0.013416404 	-2.4428463e-07 	0.0077002707
0.59302326 	0.018155667 	0.0055488294 	1.6846137e-05 	0.013269733 	-7.5348048e-07 	0.0013894094
0.60465116 	0.018993293 	0.0057056544 	8.0385721e-07 	0.01311331 	-3.5954062e-08 	0.011278229
0.61627907 	0.019748148 	0.0056566145 	6.6351501e-06 	0.013027464 	-5.0091257e-07 	0.0085982784
0.62790698 	0.020510348 	0.0055437856 	2.0917448e-05 	0.012962634 	-1.5791378e-06 	0.0017151325
0.63953488 	0.021295779 	0.0055442732 	-1.36811e-07 	0.012918225 	-2.6855206e-07 	0.012686605
0.65116279 	0.022101178 	0.0054881595 	1.0786104e-05 	0.012902779 	-7.5653819e-07 	0.0072369846
0.6627907 	0.02292999 	0.0054157725 	1.6207939e-05 	0.012924413 	-1.1368261e-06 	0.0047556814
0.6744186 	0.023735779 	0.0053569407 	-1.0054326e-06 	0.012998928 	-1.2850009e-06 	0.013460887
0.68604651 	0.024686358 	0.005291906 	1.8038676e-05 	0.013081329 	2.8178707e-07 	0.0029162948
0.69767442 	0.025598877 	0.0052208549 	4.4997035e-06 	0.013265967 	7.0291084e-08 	0.011462715
0.70930233 	0.026604253 	0.0051614613 	6.7785174e-06 	0.013481325 	1.360523e-06 	0.0095630789
0.72093023 	0.027724126 	0.0050887855 	1.2271049e-05 	0.013790619 	2.4629344e-06 	0.0061835206
0.73255814 	0.028831302 	0.0050288311 	-1.3710733e-07 	0.014184456 	1.8862465e-07 	0.015061205
0.74418605 	0.030180312 	0.004941742 	1.5964049e-05 	0.014718888 	8.2123915e-06 	0.0021221578
0.75581395 	0.031530496 	0.004877485 	-1.126582e-06 	0.01539625 	4.0130036e-06 	0.016168503
0.76744186 	0.033124112 	0.0047744818 	1.6062745e-05 	0.016224677 	1.5031169e-05 	9.7006503e-05
0.77906977 	0.034810649 	0.0046984948 	-1.4759514e-06 	0.017295977 	8.8734131e-06 	0.017555802
0.79069767 	0.0367905 	0.0045815944 	1.3613063e-05 	0.018530913 	1.9276407e-05 	0.00086615412
0.80232558 	0.038951606 	0.0044912276 	-9.9901474e-07 	0.020098391 	8.807524e-06 	0.019256769
0.81395349 	0.041557907 	0.0043741223 	8.6868934e-06 	0.0218746 	1.6238717e-05 	0.0068582023
0.8255814 	0.044457342 	0.0042860931 	1.0935592e-06 	0.023974259 	2.3803966e-06 	0.019308677
0.8372093 	0.04806812 	0.004201484 	1.463866e-06 	0.026393941 	3.1864593e-06 	0.021009291
0.84883721 	0.052272715 	0.0041528749 	8.2260025e-06 	0.028925813 	1.8725342e-05 	0.006175433
0.86046512 	0.057410568 	0.0041499328 	-2.3630352e-07 	0.031933528 	1.7419479e-05 	0.026609364
0.87209302 	0.063716657 	0.0041947728 	1.8372999e-06 	0.035000296 	4.0278086e-06 	0.024786824
0.88372093 	0.071214343 	0.0042864579 	9.3151073e-06 	0.038073329 	1.8541051e-05 	0.0028824559
0.89534884 	0.080529157 	0.0044579281 	9.121001e-07 	0.041485383 	1.6306935e-06 	0.029817936
0.90697674 	0.091754718 	0.0046871329 	2.0752543e-06 	0.044780549 	2.6619788e-05 	0.036473085
0.91860465 	0.10477942 	0.0049993272 	1.1344726e-06 	0.048104957 	1.2211857e-05 	0.040188318
0.93023256 	0.1195392 	0.0053118516 	4.7526412e-07 	0.051604129 	8.4328983e-07 	0.041424523
0.94186047 	0.13498585 	0.0055199654 	1.8553788e-07 	0.055682979 	2.7047056e-06 	0.046831143
0.95348837 	0.15431329 	0.0058677417 	1.126361e-06 	0.058984746 	3.8561152e-06 	0.039154365
0.96511628 	0.17556547 	0.0061999827 	5.4888604e-07 	0.060717318 	1.2050911e-06 	0.052175568
0.97674419 	0.1906146 	0.005897882 	4.3008375e-06 	0.062136287 	-7.1831731e-06 	0.00044201171
0.98837209 	0.17402744 	0.004529291 	-3.7927495e-06 	0.057084739 	-1.5589393e-05 	0.046973296
