0.4742268 	0.2244622 	-0.0040924194 	9.716586e-08 	0.14339157 	-4.343586e-06 	0.041791119
0.48453608 	0.64384449 	-0.011205603 	6.1471871e-07 	0.21566023 	-2.9840119e-07 	0.12958469
0.49484536 	0.71045059 	-0.011128619 	3.1297796e-06 	0.23042009 	-1.4824586e-05 	0.16911953
0.50515464 	0.67502037 	-0.0094198653 	1.3978134e-06 	0.21884148 	4.3658942e-07 	0.149157
0.51546392 	0.59548691 	-0.0078027557 	2.6134878e-06 	0.19339368 	-4.8609365e-05 	0.13818882
0.5257732 	0.48760624 	-0.006786027 	2.3923237e-05 	0.17647618 	-4.8359393e-05 	0.12138376
0.53608247 	0.35427613 	-0.003590822 	1.0005052e-05 	0.18382256 	8.9213571e-06 	0.10609567
0.54639175 	0.24558138 	-0.0019328067 	-1.7419652e-07 	0.17899159 	-3.053025e-06 	0.08978946
0.55670103 	0.17224376 	-0.00099142128 	-4.0664494e-07 	0.15780281 	7.8736459e-07 	0.072171374
0.56701031 	0.12798877 	4.7236308e-05 	2.3940194e-06 	0.12620587 	-8.9239105e-05 	0.056955083
0.57731959 	0.098270595 	0.00068317926 	3.4807743e-06 	0.094705813 	-0.00026648488 	0.041986414
0.58762887 	0.073961174 	0.00078504751 	-1.7368238e-06 	0.06900663 	-0.00031516891 	0.029241642
0.59793814 	0.053317053 	0.00057699726 	-5.1387433e-07 	0.049424145 	-3.6602454e-05 	0.019165854
0.60824742 	0.038952331 	0.0003844065 	5.5169957e-07 	0.03638547 	3.6024497e-05 	0.00042096658
0.6185567 	0.03049517 	0.00029990376 	-3.1813217e-07 	0.028546078 	-3.7240448e-05 	0.01279949
0.62886598 	0.026604034 	0.00031623098 	9.4716854e-07 	0.02431027 	-3.8535916e-05 	0.010153511
0.63917526 	0.025569451 	0.00042051814 	-2.7967092e-07 	0.021882284 	8.40174e-06 	0.0020698195
0.64948454 	0.026311662 	0.00059430495 	1.7151047e-06 	0.020296903 	-1.7355402e-05 	0.0093552381
0.65979381 	0.027941621 	0.00081209624 	7.4898432e-07 	0.018922354 	-5.2643222e-06 	0.0092022743
0.67010309 	0.029851359 	0.001016998 	-1.361508e-07 	0.017846288 	1.278336e-06 	0.0075531432
0.68041237 	0.031640883 	0.0011838612 	1.6085465e-06 	0.0170897 	-1.0456358e-05 	0.0093031694
0.69072165 	0.03315716 	0.0013055773 	-3.4816688e-07 	0.016666922 	3.1369755e-06 	0.0038635605
0.70103093 	0.034266066 	0.001377114 	5.2567332e-07 	0.01665301 	-7.3930241e-07 	0.009587663
0.71134021 	0.035082365 	0.0014159823 	-2.7463989e-07 	0.016932674 	2.385359e-06 	0.0036612692
0.72164948 	0.035554935 	0.0014203836 	-5.9642685e-07 	0.017536248 	8.97203e-06 	0.010038895
0.73195876 	0.035848493 	0.001402601 	-1.2127055e-07 	0.018324856 	9.8582694e-07 	0.0067589801
0.74226804 	0.035950093 	0.0013601073 	-8.362096e-07 	0.019356232 	9.8675602e-06 	0.010630709
0.75257732 	0.036004497 	0.0013062002 	-3.0919175e-09 	0.020482295 	3.1093618e-08 	0.010519453
0.7628866 	0.036007843 	0.001232782 	-6.5811814e-07 	0.021798545 	7.4399587e-06 	0.011329683
0.77319588 	0.036070905 	0.0011507163 	-9.2250722e-08 	0.023209862 	1.0393266e-06 	0.011332373
0.78350515 	0.036239098 	0.0010525711 	-9.0074001e-07 	0.024794426 	1.0899029e-05 	0.012161603
0.79381443 	0.036585145 	0.00095377573 	-1.1335916e-07 	0.026492232 	9.5573219e-07 	0.0094370691
0.80412371 	0.037268253 	0.00085537699 	-1.5308283e-06 	0.028447053 	2.5693607e-05 	0.013209095
0.81443299 	0.03832505 	0.00077207554 	-3.5601721e-07 	0.030564521 	4.9822399e-06 	0.0014594623
0.82474227 	0.040023762 	0.00070569931 	-1.0081424e-06 	0.033191462 	3.3013252e-05 	0.014605289
0.83505155 	0.042430354 	0.00065750396 	-3.8555534e-08 	0.036331471 	3.3857356e-06 	0.01660065
0.84536082 	0.045950713 	0.00062867625 	-6.7759181e-08 	0.040384657 	5.5794959e-06 	0.0096853791
0.8556701 	0.051092871 	0.00062551706 	-3.0788006e-08 	0.045838712 	7.0288497e-05 	0.01953713
0.86597938 	0.058153928 	0.00065580684 	3.3333084e-07 	0.052807869 	4.2877837e-05 	0.023689864
0.87628866 	0.067862889 	0.00074121358 	1.3695299e-07 	0.061590248 	1.8494808e-05 	0.0090602702
0.88659794 	0.08128004 	0.00090852282 	1.8302288e-07 	0.07245567 	1.2223505e-05 	0.018070265
0.89690722 	0.10005577 	0.0011916023 	9.2107007e-07 	0.08514017 	3.7275887e-05 	0.03615126
0.90721649 	0.12669764 	0.0016199156 	3.2715294e-06 	0.09836244 	8.5433053e-05 	0.044285398
0.91752577 	0.16430464 	0.0021770586 	4.2871019e-06 	0.11014296 	7.7043139e-05 	0.053350736
0.92783505 	0.21598926 	0.0027229579 	3.2012947e-06 	0.11835584 	3.2746858e-05 	0.06301971
0.93814433 	0.28249575 	0.0035949586 	1.2324764e-06 	0.12169887 	6.3743208e-07 	0.072961164
0.94845361 	0.35722563 	0.0051353225 	1.5068122e-06 	0.12309676 	1.0519543e-05 	0.012361711
0.95876289 	0.42010807 	0.0058677935 	1.571632e-06 	0.13617493 	4.1286151e-05 	0.10241653
0.96907216 	0.46702583 	0.0070297199 	1.2367011e-06 	0.15135942 	6.3480708e-06 	0.034663411
0.97938144 	0.47995214 	0.0079106785 	1.1352427e-07 	0.15568734 	-4.4291492e-06 	0.11452901
0.98969072 	0.40049093 	0.0068249596 	-2.8093539e-06 	0.14131576 	-1.8880548e-05 	0.099638353
