0.4742268 	0.7721249 	0.0024379264 	-3.0875666e-07
0.48453608 	1.6190691 	0.00050493824 	-6.4815646e-07
0.49484536 	2.0950701 	0.0012689751 	5.6371898e-06
0.50515464 	2.4848162 	0.0025896926 	1.3989647e-06
0.51546392 	2.765149 	0.0049639471 	5.9257462e-06
0.5257732 	2.9704639 	0.0054347199 	2.5273495e-06
0.53608247 	3.1153216 	0.0059065115 	8.9115224e-06
0.54639175 	3.2116614 	0.0081823106 	4.4476874e-06
0.55670103 	3.2658522 	0.0090743794 	3.4716169e-06
0.56701031 	3.28586 	0.0095400959 	3.3757126e-06
0.57731959 	3.2814059 	0.009120708 	-5.4395245e-06
0.58762887 	3.2636771 	0.0079370012 	-1.6814934e-05
0.59793814 	3.2414531 	0.0067280306 	-1.2254532e-06
0.60824742 	3.2220565 	0.0059769144 	-9.2401638e-07
0.6185567 	3.2073687 	0.0054763936 	-2.3483362e-06
0.62886598 	3.1965033 	0.0050429171 	-5.3197246e-06
0.63917526 	3.1871318 	0.0046466256 	-1.0885329e-06
0.64948454 	3.1783028 	0.0042840391 	-3.4453102e-06
0.65979381 	3.1692347 	0.003934352 	-1.0481783e-06
0.67010309 	3.1598003 	0.0035232922 	-1.2021731e-07
0.68041237 	3.1502662 	0.0030854609 	-6.2853026e-06
0.69072165 	3.1404547 	0.0026225556 	-2.6496062e-07
0.70103093 	3.1308185 	0.0021706545 	-8.3245019e-06
0.71134021 	3.1209488 	0.0017185227 	-2.2382186e-07
0.72164948 	3.1114395 	0.0012904146 	-7.1428081e-06
0.73195876 	3.1019297 	0.00086051208 	-9.0779546e-08
0.74226804 	3.0924699 	0.00043209194 	-4.2265916e-06
0.75257732 	3.0831662 	7.0745717e-06 	-1.624452e-08
0.7628866 	3.073789 	-0.00042337664 	-2.1415266e-06
0.77319588 	3.0643696 	-0.00085162254 	-2.9946088e-09
0.78350515 	3.0548637 	-0.0012691129 	-2.5551354e-06
0.79381443 	3.0451839 	-0.001675022 	7.4610476e-08
0.80412371 	3.0351205 	-0.0020641402 	-4.9372394e-06
0.81443299 	3.024833 	-0.0024431637 	3.8231453e-07
0.82474227 	3.013883 	-0.0028252915 	-4.4661239e-06
0.83505155 	3.0026076 	-0.0032022372 	8.6033679e-09
0.84536082 	2.9908269 	-0.0035805473 	2.6932315e-07
0.8556701 	2.9783674 	-0.003969007 	-4.1984258e-06
0.86597938 	2.9652028 	-0.0043705445 	-1.6271851e-06
0.87628866 	2.9504366 	-0.0047773464 	4.7914041e-07
0.88659794 	2.9324092 	-0.0051577458 	4.2820302e-07
0.89690722 	2.9086361 	-0.0054187933 	-3.4206264e-07
0.90721649 	2.8749031 	-0.0054371372 	6.3110867e-07
0.91752577 	2.8265811 	-0.0052516856 	2.1940463e-06
0.92783505 	2.7574823 	-0.0047412979 	4.5004572e-06
0.93814433 	2.6609094 	-0.0035996299 	4.7601275e-07
0.94845361 	2.5272187 	-0.0031778262 	1.1712675e-06
0.95876289 	2.3424359 	-0.0023568997 	2.8425895e-06
0.96907216 	2.088897 	-0.001161565 	5.787282e-07
0.97938144 	1.7477479 	-0.00041447346 	5.1096919e-07
0.98969072 	1.2523658 	0.00011475194 	9.6450591e-07
