0.37113402 	1.5808759 	0.22266617 	0.00020046817
0.3814433 	2.8217933 	0.39030794 	-0.00053016112
0.39175258 	2.972776 	0.40076213 	-0.00021944451
0.40206186 	2.9590566 	0.38462726 	-9.2489946e-05
0.41237113 	2.9483652 	0.3708772 	-0.00061290386
0.42268041 	2.9394512 	0.3577145 	-0.00012473807
0.43298969 	2.9309864 	0.34529989 	-5.6311639e-05
0.44329897 	2.923228 	0.3335397 	-0.00010574043
0.45360825 	2.9152385 	0.32215804 	-9.7450755e-05
0.46391753 	2.9063201 	0.31101936 	-2.955582e-05
0.4742268 	2.8965856 	0.30020411 	-9.1285278e-05
0.48453608 	2.8866903 	0.2898428 	-0.00019067047
0.49484536 	2.8766791 	0.2797976 	-0.00041127636
0.50515464 	2.866641 	0.27010145 	-0.00011128835
0.51546392 	2.856641 	0.26076673 	-0.00014458501
0.5257732 	2.8466497 	0.25182309 	-0.00030758137
0.53608247 	2.8365388 	0.24295564 	-0.00011378675
0.54639175 	2.8267648 	0.23468791 	-0.00030051184
0.55670103 	2.8167617 	0.22647827 	-6.0690586e-05
0.56701031 	2.8070232 	0.21863674 	-0.00020732902
0.57731959 	2.7970471 	0.21092643 	-7.7602858e-05
0.58762887 	2.7873719 	0.2035698 	-0.00019649279
0.59793814 	2.7772846 	0.19619162 	-0.00013775192
0.60824742 	2.7676922 	0.18938102 	-0.00025031664
0.6185567 	2.7575319 	0.18233453 	-0.00013155884
0.62886598 	2.7478347 	0.17595918 	-7.7129721e-05
0.63917526 	2.7377797 	0.16935939 	-1.9972603e-05
0.64948454 	2.7274179 	0.16304015 	-8.1579554e-05
0.65979381 	2.7174485 	0.15705325 	-0.00016866763
0.67010309 	2.7068928 	0.15096857 	-0.00011290711
0.68041237 	2.6963575 	0.14523855 	-5.7621441e-06
0.69072165 	2.6856909 	0.1395077 	-2.0556151e-05
0.70103093 	2.6744731 	0.13396039 	-0.00011748376
0.71134021 	2.6629476 	0.12847519 	-0.00012323904
0.72164948 	2.6511743 	0.12307843 	-7.2737019e-05
0.73195876 	2.6389325 	0.11786923 	-6.4213288e-06
0.74226804 	2.6266181 	0.11265979 	-1.2269319e-05
0.75257732 	2.6139592 	0.10766242 	-4.7490585e-05
0.7628866 	2.6013066 	0.10268286 	-3.602701e-05
0.77319588 	2.5890081 	0.097851463 	-6.0488955e-05
0.78350515 	2.5766296 	0.093052928 	-5.1499941e-05
0.79381443 	2.5648697 	0.088320755 	-5.0860373e-05
0.80412371 	2.5527837 	0.083625049 	-3.2223348e-05
0.81443299 	2.5405855 	0.079029413 	-2.198151e-05
0.82474227 	2.5276272 	0.074440574 	-9.0936291e-06
0.83505155 	2.5137466 	0.069948562 	-3.7406623e-05
0.84536082 	2.4988917 	0.065417869 	-5.0559264e-05
0.8556701 	2.4826727 	0.060917333 	-4.3453603e-05
0.86597938 	2.4651245 	0.056466545 	-1.7568828e-05
0.87628866 	2.445911 	0.052009763 	-4.2569899e-05
0.88659794 	2.4245762 	0.047560878 	-6.0741757e-06
0.89690722 	2.4006966 	0.043138985 	-6.5514346e-05
0.90721649 	2.3739669 	0.038710878 	-3.7237111e-05
0.91752577 	2.3435094 	0.034259848 	-7.2251001e-06
0.92783505 	2.3079495 	0.029772142 	-3.5513104e-06
0.93814433 	2.2655526 	0.025256951 	-2.6955122e-06
0.94845361 	2.2135501 	0.020581999 	-9.843199e-06
0.95876289 	2.1474542 	0.015886457 	-3.786968e-05
0.96907216 	2.0529188 	0.011008608 	-3.1841051e-05
0.97938144 	1.895726 	0.0064268874 	-5.5528706e-06
0.98969072 	1.5087614 	0.0022004613 	-3.1834846e-06
