0.4742268 	0.77635352 	0.0024405002 	-3.3660797e-07
0.48453608 	1.6316171 	0.00059819115 	-5.2191038e-07
0.49484536 	2.1199198 	0.0015301482 	5.9587792e-06
0.50515464 	2.517836 	0.003063706 	2.1907405e-06
0.51546392 	2.7991635 	0.005396308 	6.741059e-06
0.5257732 	3.0018929 	0.0058920583 	6.29552e-06
0.53608247 	3.1418428 	0.0068405328 	1.1105325e-05
0.54639175 	3.2304341 	0.0091319896 	5.4904011e-06
0.55670103 	3.2745991 	0.010033479 	4.0710936e-06
0.56701031 	3.2841278 	0.010152821 	1.9026633e-06
0.57731959 	3.2717274 	0.0092142688 	-1.0441867e-05
0.58762887 	3.2498949 	0.0078087654 	-1.8230661e-05
0.59793814 	3.2275696 	0.0067479285 	-1.9647998e-06
0.60824742 	3.210836 	0.0061255432 	-3.7446727e-07
0.6185567 	3.1988968 	0.0056811046 	-2.8209144e-06
0.62886598 	3.1895184 	0.0052435564 	-5.8310707e-06
0.63917526 	3.1805716 	0.0048548431 	-4.1928947e-07
0.64948454 	3.1716159 	0.0044851357 	-4.2791374e-06
0.65979381 	3.1622883 	0.0040676843 	-1.9216284e-06
0.67010309 	3.1526151 	0.0036039706 	6.4510601e-08
0.68041237 	3.1428328 	0.0031271382 	-7.3194901e-06
0.69072165 	3.1328264 	0.0026485981 	1.0031499e-07
0.70103093 	3.1229835 	0.0021971981 	-9.2377633e-06
0.71134021 	3.112954 	0.0017330971 	1.3098945e-07
0.72164948 	3.1032849 	0.0012947574 	-8.1157883e-06
0.73195876 	3.0936436 	0.00085236468 	9.9682482e-08
0.74226804 	3.0840685 	0.00041565904 	-5.0586151e-06
0.75257732 	3.0746584 	-1.7764877e-05 	4.8500885e-10
0.7628866 	3.0652231 	-0.00045585488 	-2.8934098e-06
0.77319588 	3.0557702 	-0.00089618526 	-4.0715412e-07
0.78350515 	3.0463017 	-0.0013344422 	-3.3196465e-06
0.79381443 	3.036695 	-0.0017658935 	1.4289975e-07
0.80412371 	3.0267593 	-0.0021805056 	-5.7716123e-06
0.81443299 	3.0165998 	-0.0025843856 	7.4777656e-07
0.82474227 	3.0057532 	-0.0029776253 	-5.0784236e-06
0.83505155 	2.9945197 	-0.0033671565 	-3.3704593e-07
0.84536082 	2.9826884 	-0.0037567295 	4.266759e-07
0.8556701 	2.9700985 	-0.0041487947 	-4.6026201e-06
0.86597938 	2.9568485 	-0.0045511203 	-2.0219063e-06
0.87628866 	2.9423739 	-0.0049701929 	7.4209264e-07
0.88659794 	2.9253304 	-0.0053870607 	4.812366e-07
0.89690722 	2.9035764 	-0.0057315694 	-7.7743549e-07
0.90721649 	2.8732711 	-0.005870068 	-3.2224192e-08
0.91752577 	2.829598 	-0.0057676963 	1.9019491e-06
0.92783505 	2.7660136 	-0.0053521694 	4.2282351e-06
0.93814433 	2.6749861 	-0.0042798814 	1.3467487e-06
0.94845361 	2.546039 	-0.0035405639 	1.6168131e-06
0.95876289 	2.3639486 	-0.002876544 	3.6850153e-06
0.96907216 	2.108151 	-0.0013930632 	9.2298181e-07
0.97938144 	1.7593442 	-0.0004941325 	7.6167708e-07
0.98969072 	1.2561435 	7.4048346e-05 	1.1355834e-06
