0.47777778 	1.1255591 	-0.00017856693 	-1.1653968e-07
0.48888889 	1.7221711 	1.7254978e-05 	-4.2202507e-07
0.5 	2.0732278 	-3.1797726e-05 	-9.4233871e-07
0.51111111 	2.3419116 	0.0002915131 	-1.4795932e-06
0.52222222 	2.5583315 	0.00050706254 	-1.6509098e-06
0.53333333 	2.7345107 	0.0009568394 	-2.1523751e-06
0.54444444 	2.8773954 	0.0016425796 	-2.0514163e-06
0.55555556 	2.9922942 	0.001644577 	-2.1361885e-06
0.56666667 	3.0856526 	0.0019285664 	-2.0795176e-06
0.57777778 	3.1608332 	0.002604957 	-1.6125214e-06
0.58888889 	3.2196217 	0.0028764294 	-4.5250258e-07
0.6 	3.2632245 	0.0031421388 	-4.4258259e-07
0.61111111 	3.2929608 	0.0033689005 	-1.6997364e-06
0.62222222 	3.3120334 	0.0035100289 	-2.9065153e-06
0.63333333 	3.3225502 	0.0035690217 	-3.320845e-07
0.64444444 	3.324444 	0.003500568 	3.1653827e-08
0.65555556 	3.3194492 	0.0032724986 	-2.1510291e-06
0.66666667 	3.3117623 	0.002997432 	1.7799879e-07
0.67777778 	3.299781 	0.0025921607 	-5.3585363e-07
0.68888889 	3.2868447 	0.0021677383 	-6.600346e-07
0.7 	3.2733113 	0.0017352644 	7.000321e-09
0.71111111 	3.2598522 	0.0013175095 	-1.0372009e-06
0.72222222 	3.2471312 	0.00093690776 	-2.8480103e-07
0.73333333 	3.2355725 	0.00058846924 	-1.1512347e-06
0.74444444 	3.2243547 	0.00025958347 	-5.0479027e-07
0.75555556 	3.2142909 	-4.0272299e-05 	-1.1881393e-06
0.76666667 	3.2039961 	-0.00033722582 	-1.2792548e-06
0.77777778 	3.1937415 	-0.00059767616 	-1.3007946e-06
0.78888889 	3.1826656 	-0.00084832536 	-1.5572856e-07
0.8 	3.1700424 	-0.0010520576 	-6.5841521e-07
0.81111111 	3.1553001 	-0.0012253476 	-4.5222077e-07
0.82222222 	3.1380923 	-0.0013629725 	-1.7717899e-07
0.83333333 	3.1162561 	-0.0014458676 	-5.0543524e-07
0.84444444 	3.0900833 	-0.0014929283 	-2.9351315e-07
0.85555556 	3.058598 	-0.0014989663 	4.8913557e-08
0.86666667 	3.0195969 	-0.0014573985 	-5.4734895e-08
0.87777778 	2.9721831 	-0.0013775176 	-1.9960327e-07
0.88888889 	2.9154626 	-0.001257307 	-2.9626169e-07
0.9 	2.8474444 	-0.0011119831 	-3.3288328e-07
0.91111111 	2.7659424 	-0.00096215987 	-3.8105543e-07
0.92222222 	2.6683796 	-0.00070219654 	-3.6293395e-07
0.93333333 	2.5516584 	-0.00056003815 	-1.6486933e-07
0.94444444 	2.4110333 	-0.00055880986 	5.2167542e-07
0.95555556 	2.2372613 	-0.00024219199 	-2.2673096e-07
0.96666667 	2.0193953 	-0.00015028154 	-2.0834651e-09
0.97777778 	1.7307471 	-7.8481403e-05 	-8.0448781e-08
0.98888889 	1.2722857 	0.00012293515 	-2.9703844e-08
