4.0776948e-36 	1.4095361 	-9.5728518e-14 	-3.4794782e-20
0.010869565 	1.4442687 	0.00023362549 	-0.00049293924
0.02173913 	1.4748809 	-1.2847896e-05 	-0.00027613686
0.032608696 	1.4948905 	-0.00023524709 	-0.00017146317
0.043478261 	1.5089467 	-0.00050834825 	-0.0001005874
0.054347826 	1.5197586 	-0.0008546489 	-3.9067876e-05
0.065217391 	1.5292384 	-0.0012920354 	-6.385192e-06
0.076086957 	1.5367628 	-0.0017143035 	-1.8312196e-05
0.086956522 	1.5445683 	-0.002206525 	-2.8966348e-05
0.097826087 	1.5524439 	-0.0027713956 	-1.453424e-05
0.10869565 	1.5609471 	-0.0034005725 	4.7625215e-06
0.11956522 	1.5696739 	-0.0039839758 	-6.6145387e-06
0.13043478 	1.579218 	-0.0046483108 	-1.1171158e-07
0.14130435 	1.589886 	-0.005351078 	7.2166017e-06
0.15217391 	1.6007267 	-0.0059874839 	-6.5938129e-07
0.16304348 	1.6139614 	-0.0067680201 	1.3506708e-05
0.17391304 	1.6268227 	-0.0074001982 	1.9256737e-06
0.18478261 	1.6428592 	-0.0081770924 	1.5687341e-05
0.19565217 	1.6582583 	-0.0088053667 	2.7653827e-06
0.20652174 	1.6777639 	-0.0096219751 	1.8014534e-05
0.2173913 	1.695995 	-0.010260427 	1.4315761e-06
0.22826087 	1.7195979 	-0.011101194 	1.7959643e-05
0.23913043 	1.7419341 	-0.011780701 	4.7524593e-06
0.25 	1.7688125 	-0.012210393 	1.1626564e-05
0.26086957 	1.7968928 	-0.012438127 	1.2014352e-05
0.27173913 	1.8256907 	-0.012747312 	1.4706906e-06
0.2826087 	1.8606459 	-0.01352554 	2.1061589e-05
0.29347826 	1.892904 	-0.01413424 	2.8376312e-06
0.30434783 	1.931198 	-0.015041256 	5.7483713e-06
0.31521739 	1.9730014 	-0.01611198 	1.6781287e-05
0.32608696 	2.0132808 	-0.016944746 	1.149768e-06
0.33695652 	2.0613833 	-0.017326086 	7.5176375e-06
0.34782609 	2.1125397 	-0.017364691 	1.6127628e-05
0.35869565 	2.1623888 	-0.017352766 	5.9020297e-06
0.36956522 	2.2187155 	-0.017464312 	4.3158653e-06
0.38043478 	2.27929 	-0.017640794 	1.8883674e-05
0.39130435 	2.3360659 	-0.017689576 	3.481603e-06
0.40217391 	2.3974854 	-0.017554329 	4.7810533e-06
0.41304348 	2.4622476 	-0.017264469 	1.6683567e-05
0.42391304 	2.5231109 	-0.016887775 	4.7335041e-06
0.43478261 	2.583662 	-0.016134067 	4.0661219e-05
0.44565217 	2.6444188 	-0.015159045 	3.6564876e-06
0.45652174 	2.7039072 	-0.013851003 	1.3635762e-05
0.4673913 	2.7586995 	-0.012660281 	5.3904416e-06
0.47826087 	2.809708 	-0.012060748 	2.3439644e-05
0.48913043 	2.8587413 	-0.011737595 	4.7608233e-06
0.5 	2.9039844 	-0.011850854 	8.7521548e-06
0.51086957 	2.9459638 	-0.011788894 	8.1306708e-06
0.52173913 	2.9830773 	-0.011468978 	1.2118019e-05
0.5326087 	3.0165585 	-0.010984724 	5.3342705e-06
0.54347826 	3.0462954 	-0.010265416 	5.2077291e-06
0.55434783 	3.0710495 	-0.0090689332 	4.3486334e-05
0.56521739 	3.0917715 	-0.0075544431 	1.6377648e-05
0.57608696 	3.1050899 	-0.0055105586 	7.7472475e-06
0.58695652 	3.1158369 	-0.0031943192 	4.30723e-06
0.59782609 	3.1172507 	-0.0014533652 	5.1557838e-05
0.60869565 	3.1155793 	6.822064e-05 	2.3908505e-06
0.61956522 	3.1069359 	0.0011719769 	1.9495886e-06
0.63043478 	3.0918658 	0.0021284013 	2.9430779e-05
0.64130435 	3.074042 	0.0029930167 	7.8525788e-07
0.65217391 	3.0486867 	0.0036551531 	3.0390947e-06
0.66304348 	3.0187956 	0.0042700111 	1.5088941e-05
0.67391304 	2.9865381 	0.0048148514 	9.7194393e-07
0.68478261 	2.948716 	0.0052420625 	2.061827e-06
0.69565217 	2.9068831 	0.005603639 	7.3536745e-06
0.70652174 	2.8631083 	0.0058734969 	2.2684239e-06
0.7173913 	2.8147056 	0.0060579031 	1.5837073e-06
0.72826087 	2.7623325 	0.0064870934 	4.1957773e-06
0.73913043 	2.7066648 	0.00709271 	2.9326817e-06
0.75 	2.6449275 	0.0079378128 	2.1220105e-05
0.76086957 	2.5804322 	0.0089141304 	1.6478395e-06
0.77173913 	2.5090784 	0.010054497 	1.0144702e-05
0.7826087 	2.4343841 	0.011167246 	1.1118791e-07
0.79347826 	2.3536692 	0.01214042 	1.4410003e-06
0.80434783 	2.2691046 	0.013131793 	3.8309815e-06
0.81521739 	2.1809259 	0.014017906 	1.8169901e-08
0.82608696 	2.0901079 	0.01485482 	2.3667008e-06
0.83695652 	1.9984532 	0.01552341 	1.6422995e-06
0.84782609 	1.9075724 	0.016231486 	-1.215803e-06
0.85869565 	1.8196368 	0.016658449 	-3.8992359e-06
0.86956522 	1.7362523 	0.016197792 	-1.0477908e-05
0.88043478 	1.6546522 	0.015044354 	-1.4844559e-05
0.89130435 	1.5771404 	0.01374897 	-2.6158986e-06
0.90217391 	1.5008527 	0.012938403 	-1.0605462e-05
0.91304348 	1.4235235 	0.012111713 	-7.9131333e-06
0.92391304 	1.3474762 	0.010711495 	-1.6072942e-05
0.93478261 	1.2703895 	0.0092334033 	-3.904762e-06
0.94565217 	1.1836053 	0.0076222955 	-1.4808352e-05
0.95652174 	1.0925209 	0.0059771291 	-1.0167345e-05
0.9673913 	0.98469356 	0.0042714109 	-2.4461155e-06
0.97826087 	0.84364446 	0.00264707 	-5.7689669e-06
0.98913043 	0.61616377 	0.0011044217 	-2.6747047e-06
