0.36082474 	2.4383603 	0.37855729 	0.00019903384
0.37113402 	2.9234078 	0.44305821 	-8.2565817e-05
0.3814433 	2.9365177 	0.42841708 	-0.00027991494
0.39175258 	2.9249918 	0.41182509 	-0.00032818422
0.40206186 	2.916826 	0.39736791 	-0.00011428388
0.41237113 	2.9084642 	0.3832451 	-0.00015357795
0.42268041 	2.9007284 	0.36986171 	-0.00017024439
0.43298969 	2.8930307 	0.35701249 	-0.00025420406
0.44329897 	2.8846248 	0.3445331 	-0.00037308795
0.45360825 	2.8755792 	0.33244004 	-0.0002739926
0.46391753 	2.8661218 	0.32075898 	-9.0056927e-05
0.4742268 	2.8565142 	0.30955119 	-0.00010499297
0.48453608 	2.8468509 	0.29884959 	-0.00037764718
0.49484536 	2.8371591 	0.28851093 	-8.3900786e-05
0.50515464 	2.8275165 	0.27839577 	-1.0622719e-05
0.51546392 	2.8178152 	0.26889385 	-0.00026242005
0.5257732 	2.807883 	0.25932773 	-0.00021994316
0.53608247 	2.798525 	0.25057533 	-0.00022329785
0.54639175 	2.7886495 	0.24170432 	-0.00017717058
0.55670103 	2.7793389 	0.23347487 	-0.00014168142
0.56701031 	2.7694461 	0.22511245 	-0.00020270157
0.57731959 	2.7602132 	0.21746998 	-0.00014829454
0.58762887 	2.7501784 	0.2094267 	-0.00026521218
0.59793814 	2.7410449 	0.20243397 	-8.2098074e-05
0.60824742 	2.7311043 	0.19491371 	-0.00015921223
0.6185567 	2.7215558 	0.18809041 	-7.6857616e-05
0.62886598 	2.7118834 	0.18124825 	-3.6007442e-05
0.63917526 	2.7015437 	0.17431994 	-0.00020210777
0.64948454 	2.6920631 	0.16822879 	-3.0256993e-05
0.65979381 	2.6817876 	0.16179419 	-0.00011597184
0.67010309 	2.6713941 	0.15562769 	-0.00012482049
0.68041237 	2.6611347 	0.14971195 	-2.8290622e-05
0.69072165 	2.6503382 	0.14382791 	-0.00015809979
0.70103093 	2.6392052 	0.13810276 	-5.1061844e-05
0.71134021 	2.6278576 	0.13243802 	-5.4331247e-05
0.72164948 	2.616142 	0.12693021 	-0.00012310103
0.73195876 	2.6041296 	0.12154107 	-2.6045136e-05
0.74226804 	2.5919227 	0.11622723 	-0.000136558
0.75257732 	2.5792087 	0.1110958 	-6.4801169e-07
0.7628866 	2.5669109 	0.10599859 	-9.0491085e-05
0.77319588 	2.554197 	0.10108807 	-1.8842801e-05
0.78350515 	2.5421087 	0.096138252 	-6.9177989e-05
0.79381443 	2.5299047 	0.0913175 	-1.4863979e-05
0.80412371 	2.5177715 	0.086496557 	-6.7896178e-05
0.81443299 	2.5052378 	0.081805174 	-1.3467246e-05
0.82474227 	2.4920153 	0.077092976 	-8.3255701e-05
0.83505155 	2.477792 	0.072502053 	-1.8604103e-05
0.84536082 	2.4624972 	0.067857983 	-3.8189399e-05
0.8556701 	2.4459499 	0.06324776 	-3.5879322e-05
0.86597938 	2.427947 	0.058684317 	-4.858937e-05
0.87628866 	2.4082167 	0.054122447 	-2.575834e-05
0.88659794 	2.3864691 	0.049574818 	-4.2488293e-05
0.89690722 	2.3621629 	0.045044228 	-6.4411874e-06
0.90721649 	2.3347017 	0.040510461 	-3.7221739e-05
0.91752577 	2.303324 	0.035950665 	-2.0306998e-05
0.92783505 	2.2667789 	0.031349898 	-2.7534829e-06
0.93814433 	2.2231575 	0.0267144 	-8.9482153e-07
0.94845361 	2.1697931 	0.021883441 	-1.3142723e-05
0.95876289 	2.1011821 	0.016948578 	-2.0356629e-06
0.96907216 	2.0063638 	0.011928927 	-1.141337e-05
0.97938144 	1.8490165 	0.0071148567 	-6.2565484e-06
0.98969072 	1.4749891 	0.0024545954 	-4.0118093e-08
