0.24742268 	0.0028590825 	3.7178893e-06 	-6.4673067e-08 	0.0028129171 	-1.0621055e-05 	0.00099541173
0.25773196 	0.17695926 	0.013717087 	-0.00011343667 	0.10948596 	4.4437186e-06 	0.082368859
0.26804124 	0.086564664 	-0.00069981905 	3.5190772e-06 	0.0889327 	-0.00011939115 	0.025269246
0.27835052 	0.065583255 	-0.00023844981 	1.5750714e-07 	0.069625444 	-2.2427876e-05 	0.022924863
0.28865979 	0.044763642 	0.00029870031 	3.2753373e-07 	0.0487384 	-1.0520129e-05 	0.0058540819
0.29896907 	0.026222711 	0.00065945393 	2.3281678e-06 	0.029403654 	-0.00024354436 	0.0015350288
0.30927835 	0.015681969 	0.00073072509 	-1.9745199e-06 	0.018409785 	-0.0001360766 	0.0010814907
0.31958763 	0.011153663 	0.0006405452 	-1.6812109e-06 	0.013509062 	-2.5108456e-05 	0.0022639711
0.32989691 	0.010296385 	0.00060015547 	9.9573906e-08 	0.012484074 	-2.0486162e-06 	0.0034552662
0.34020619 	0.010309739 	0.00066510544 	1.9315888e-06 	0.012471087 	-1.7076379e-06 	0.0020052328
0.35051546 	0.010352585 	0.00076686754 	2.0819367e-06 	0.012493755 	-2.6973128e-06 	0.0028881454
0.36082474 	0.010403561 	0.00088230614 	3.4484963e-07 	0.012529286 	-1.4584586e-06 	0.0070587222
0.37113402 	0.010484253 	0.0010024892 	1.0568994e-06 	0.01255732 	-1.3676213e-06 	0.0066196616
0.3814433 	0.010596368 	0.0011196313 	5.9297489e-06 	0.01259085 	-7.558034e-06 	0.00062712948
0.39175258 	0.010713362 	0.0012529252 	8.8081333e-07 	0.012697158 	-1.1458187e-06 	0.008981925
0.40206186 	0.01087516 	0.0013815153 	4.0765479e-06 	0.012770812 	-5.3037587e-06 	0.0044992358
0.41237113 	0.011048196 	0.0015179742 	3.1219684e-06 	0.012874122 	-4.3137789e-06 	0.0049436383
0.42268041 	0.011234547 	0.0016610595 	1.1301477e-06 	0.012993289 	-1.5615619e-06 	0.0074149399
0.43298969 	0.011451702 	0.0018011074 	3.062342e-06 	0.01309566 	-4.6953967e-06 	0.0030665842
0.44329897 	0.011667913 	0.0019548195 	2.4038385e-07 	0.013232828 	-4.4835526e-07 	0.0078037342
0.45360825 	0.011917936 	0.0021015211 	1.9924286e-06 	0.013342293 	-3.5818674e-06 	0.0030564145
0.46391753 	0.012167665 	0.0022620634 	5.6860404e-07 	0.013479436 	-9.3845921e-07 	0.0064942081
0.4742268 	0.012446039 	0.0024179811 	4.4630616e-07 	0.013598083 	-1.020378e-06 	0.0047022786
0.48453608 	0.012727349 	0.0025855876 	2.3876437e-07 	0.013728138 	-3.6082933e-07 	0.0053278387
0.49484536 	0.013039221 	0.0027508059 	1.3604943e-06 	0.01384558 	-2.0560432e-06 	0.00473185
0.50515464 	0.013355465 	0.002925037 	5.0326595e-07 	0.013962363 	-1.7143715e-06 	0.0023741025
0.51546392 	0.013703989 	0.003103927 	4.2616042e-06 	0.014073822 	-6.140558e-06 	0.0037793873
0.5257732 	0.014060047 	0.0032827332 	6.4480741e-08 	0.014178832 	-5.5806355e-07 	0.0026532704
0.53608247 	0.01444672 	0.0034762344 	2.3284201e-06 	0.014273448 	-3.4264599e-06 	0.0029395745
0.54639175 	0.014859047 	0.0036667174 	3.5727434e-06 	0.014356556 	-5.2575825e-06 	0.0025243052
0.55670103 	0.015278476 	0.0038648553 	-1.6509837e-07 	0.01443371 	-1.3547709e-06 	0.0004943841
0.56701031 	0.01575545 	0.0040637604 	4.7430358e-06 	0.014489895 	-7.7259544e-06 	0.001875259
0.57731959 	0.016241532 	0.0042622759 	3.5346913e-06 	0.014541533 	-5.757676e-06 	0.0015554823
0.58762887 	0.016740201 	0.0044654694 	1.3992483e-07 	0.014584985 	-2.7752084e-07 	0.0013074819
0.59793814 	0.01730401 	0.0046567543 	5.2935019e-06 	0.014609204 	-1.0498901e-05 	0.0010852398
0.60824742 	0.017867818 	0.0048480393 	3.9251593e-06 	0.014633424 	-7.7849899e-06 	0.00086299761
0.6185567 	0.018440879 	0.0050404201 	7.0196512e-08 	0.014653529 	-1.6815996e-07 	0.00068024036
0.62886598 	0.019105529 	0.0052173299 	4.258301e-06 	0.014670176 	-1.0201016e-05 	0.00055283585
0.63917526 	0.01977018 	0.0053942397 	3.7565153e-06 	0.014686823 	-8.9989584e-06 	0.00042543134
0.64948454 	0.02043673 	0.0055715751 	-1.4482701e-07 	0.014701952 	-1.5749622e-08 	6.2795933e-05
0.65979381 	0.021246098 	0.0057350686 	3.2473518e-06 	0.014739354 	-8.378486e-06 	0.00027154283
0.67010309 	0.022057436 	0.0058987917 	2.7092387e-06 	0.014776957 	-6.9901015e-06 	0.00022974627
0.68041237 	0.022891288 	0.006061229 	3.0769573e-07 	0.01482107 	-6.0884715e-07 	0.00020798337
0.69072165 	0.023888065 	0.0062164922 	3.0602737e-06 	0.014920541 	-6.0554592e-06 	0.00024162549
0.70103093 	0.024884841 	0.0063717555 	1.4284114e-06 	0.015020012 	-2.8264422e-06 	0.00027526761
0.71134021 	0.025985266 	0.00652986 	1.2499004e-06 	0.015168989 	-2.3603003e-08 	0.00035920718
0.72164948 	0.027221204 	0.0066933096 	2.9850742e-06 	0.015385994 	-5.6369864e-08 	0.00046145526
0.73195876 	0.028457142 	0.0068567593 	7.9061604e-08 	0.015602998 	-1.4929919e-09 	0.00056370335
0.74226804 	0.029966037 	0.0070501433 	3.9005189e-06 	0.015974808 	6.6382698e-06 	0.00077537406
0.75257732 	0.031499243 	0.0072477612 	1.4856774e-06 	0.016361944 	2.5284655e-06 	0.0009430204
0.7628866 	0.033220598 	0.0074435713 	2.1854113e-06 	0.016878263 	9.3181554e-06 	0.0012499915
0.77319588 	0.035081076 	0.0076382481 	2.060068e-06 	0.017498209 	8.7837167e-06 	0.0014830518
0.78350515 	0.037008571 	0.0077481907 	-1.520269e-06 	0.018286633 	1.1915908e-05 	0.0019322735
0.79381443 	0.039062502 	0.0077448049 	-2.4324015e-06 	0.019347202 	1.9065226e-05 	0.0022346217
0.80412371 	0.041183606 	0.0076548846 	-3.2768033e-06 	0.020600618 	1.5296601e-05 	0.0028890639
0.81443299 	0.043533633 	0.0074710435 	-5.1082195e-06 	0.022163054 	2.3845922e-05 	0.0032688718
0.82474227 	0.0461306 	0.0072860618 	-4.0558593e-06 	0.023903989 	2.4969951e-05 	0.0041746013
0.83505155 	0.049073315 	0.0071037145 	-2.2121064e-06 	0.025861909 	1.3618862e-05 	0.0046395097
0.84536082 	0.052474868 	0.0069284645 	-5.9868842e-06 	0.028080356 	4.7781507e-05 	0.0058491403
0.8556701 	0.056169489 	0.0067562562 	1.7959907e-06 	0.030418326 	3.3148182e-06 	0.00073326341
0.86597938 	0.060716683 	0.0066374654 	-3.4033807e-06 	0.033055712 	3.808217e-05 	0.0079663459
0.87628866 	0.065801327 	0.006546844 	-1.817444e-06 	0.035783632 	3.2104246e-05 	0.0098011922
0.88659794 	0.071519807 	0.0064819272 	2.1104859e-06 	0.038583438 	3.6238799e-06 	0.00031468978
0.89690722 	0.078387839 	0.0064900705 	-6.2298092e-07 	0.041560664 	2.0314424e-05 	0.01280498
0.90721649 	0.086122353 	0.0065214158 	-8.56969e-07 	0.044539086 	4.9405529e-05 	0.015329501
0.91752577 	0.094733132 	0.0065694809 	-2.1247827e-07 	0.047554587 	2.3105518e-05 	0.018129955
0.92783505 	0.10419103 	0.0066394543 	-5.3418644e-08 	0.050629217 	2.8952166e-06 	0.021178654
0.93814433 	0.11421903 	0.0066586071 	3.1406006e-07 	0.053776829 	1.6504929e-07 	0.012316586
0.94845361 	0.12364972 	0.0065260938 	-5.9917532e-08 	0.057255987 	-7.5173582e-07 	0.011299227
0.95876289 	0.13504184 	0.0063134282 	-1.7124408e-06 	0.061128582 	1.5325667e-05 	0.030491127
0.96907216 	0.14793896 	0.0060779905 	-2.2059941e-06 	0.063346053 	1.7793657e-07 	0.034462339
0.97938144 	0.16519331 	0.0056001884 	-6.7098265e-07 	0.061240453 	-1.4556812e-06 	0.028528174
0.98969072 	0.16410746 	0.0039183465 	-1.3701608e-06 	0.053437825 	-1.3084975e-05 	0.036883809
