0.37113402 	0.32961026 	0.021089029 	3.7722982e-05 	0.1119951 	3.5020218e-05 	0.14473143
0.3814433 	0.18006313 	0.0079073498 	1.381281e-05 	0.096033995 	-7.315966e-06 	0.04834085
0.39175258 	0.049964849 	-6.1946679e-05 	-5.0261271e-07 	0.049766705 	2.1404376e-05 	0.034574689
0.40206186 	0.028360848 	0.0003462523 	2.3978879e-07 	0.028477708 	-4.7736967e-06 	0.021585357
0.41237113 	0.02170504 	0.00049064565 	-8.7106473e-07 	0.021964482 	-2.4593996e-05 	0.0025240212
0.42268041 	0.017945231 	0.00079637277 	-1.4787953e-07 	0.018317433 	-3.070012e-06 	0.0086296859
0.43298969 	0.015794999 	0.0013109706 	2.3796589e-06 	0.016325208 	-5.0730833e-06 	0.0080847021
0.44329897 	0.014688706 	0.0020770621 	3.3595656e-06 	0.015253381 	-7.2893513e-06 	0.006001259
0.45360825 	0.014284389 	0.0024316998 	1.0694817e-06 	0.01441593 	-5.8255476e-06 	0.0044604976
0.46391753 	0.014258012 	0.0026459566 	1.8921984e-07 	0.013814961 	-1.2107421e-06 	0.0032134485
0.4742268 	0.014395265 	0.0028001117 	4.3410488e-07 	0.013461725 	-7.5883041e-07 	0.00054673565
0.48453608 	0.014595596 	0.00291085 	5.2843235e-07 	0.013338927 	-4.9441628e-06 	0.0011723003
0.49484536 	0.014835824 	0.0030128659 	8.7079809e-07 	0.013295869 	-7.6181423e-06 	0.00025996884
0.50515464 	0.015100855 	0.0031116165 	2.6708151e-07 	0.013299971 	-1.7481098e-06 	0.00067631802
0.51546392 	0.015397377 	0.0032124302 	3.4714726e-07 	0.013341088 	-2.2709473e-06 	0.0015000232
0.5257732 	0.015714718 	0.0033134766 	8.1671633e-07 	0.013398278 	-4.4273521e-06 	0.0022909661
0.53608247 	0.016047523 	0.0034141311 	3.979655e-07 	0.013458141 	-1.655634e-06 	7.3078516e-05
0.54639175 	0.016394698 	0.0035181255 	8.6584018e-07 	0.013544789 	-4.0785641e-06 	0.0037395811
0.55670103 	0.016757165 	0.0036197949 	1.871162e-07 	0.013625426 	-9.3670094e-07 	0.0026741048
0.56701031 	0.017135689 	0.003726043 	6.7322241e-07 	0.013720376 	-2.7459552e-06 	0.005037432
0.57731959 	0.01753527 	0.0038305177 	1.9814153e-07 	0.013809175 	-1.2697269e-06 	0.003128052
0.58762887 	0.017952434 	0.0039412225 	7.5644339e-07 	0.013910415 	-2.6263851e-06 	0.0062024499
0.59793814 	0.018403938 	0.0040508761 	2.5213296e-07 	0.013998584 	-2.3651983e-06 	0.0015911748
0.60824742 	0.018867418 	0.0041666632 	1.1676257e-06 	0.014107289 	-3.4258471e-06 	0.0072589905
0.6185567 	0.019381683 	0.0042839553 	1.1610936e-07 	0.014198541 	-2.3079004e-06 	0.0019910457
0.62886598 	0.019906752 	0.0044040712 	4.4142519e-07 	0.014313262 	-1.044693e-06 	0.0082444747
0.63917526 	0.020485528 	0.004530239 	-4.715351e-09 	0.014418695 	-3.3996579e-07 	0.0075269935
0.64948454 	0.021134189 	0.0046582085 	-1.9259858e-08 	0.014532069 	-1.3886149e-06 	0.0049003417
0.65979381 	0.021797206 	0.0047901655 	1.1764959e-06 	0.01466096 	-2.0661247e-06 	0.0094127064
0.67010309 	0.022570302 	0.004926539 	-1.5634454e-07 	0.014787207 	-1.6914898e-06 	0.0028033377
0.68041237 	0.023381562 	0.0050699938 	-7.9789939e-09 	0.014951007 	-8.632416e-08 	0.0099878916
0.69072165 	0.024274337 	0.0052186555 	1.858514e-07 	0.0151219 	-1.4478067e-07 	0.010459635
0.70103093 	0.025345003 	0.0053728219 	-2.8070632e-07 	0.015323693 	-1.1691213e-06 	0.002108553
0.71134021 	0.026477199 	0.0055448387 	1.5811964e-06 	0.015588145 	8.4136001e-07 	0.011431101
0.72164948 	0.027745528 	0.0057248791 	-1.6991032e-07 	0.015897035 	1.4546737e-07 	0.0049095146
0.73195876 	0.029151774 	0.0059248559 	-1.499992e-08 	0.016296037 	1.2842074e-08 	0.011897018
0.74226804 	0.030630385 	0.0061519199 	2.3671714e-08 	0.016781767 	3.2885224e-07 	0.01109968
0.75257732 	0.032260779 	0.0064245556 	9.1625564e-08 	0.017442175 	1.2728812e-06 	0.0078565293
0.7628866 	0.033946694 	0.0067263484 	1.2109084e-06 	0.018194258 	2.916245e-06 	0.013588744
0.77319588 	0.035681006 	0.0070854431 	5.4730132e-07 	0.019132377 	3.4768284e-06 	0.0056363132
0.78350515 	0.037535239 	0.0074435778 	2.0418295e-06 	0.020172622 	6.4359322e-06 	0.014701383
0.79381443 	0.039368761 	0.0076834963 	-1.0232587e-06 	0.021323624 	5.1786583e-06 	0.0064719956
0.80412371 	0.04132716 	0.0078235071 	-1.2037075e-07 	0.022628226 	5.6163321e-06 	0.01577437
0.81443299 	0.043256525 	0.0076514582 	-1.2941164e-06 	0.024086234 	2.914316e-06 	0.012124232
0.82474227 	0.045539468 	0.0075175731 	-5.8295031e-07 	0.025571965 	1.175669e-06 	0.014540246
0.83505155 	0.048257512 	0.0074356455 	-1.2990933e-06 	0.027052577 	8.5560577e-06 	0.018304329
0.84536082 	0.05113829 	0.0073239563 	-3.6068137e-06 	0.028614024 	6.2678035e-06 	0.001934959
0.8556701 	0.054360959 	0.0072082504 	-1.8288771e-06 	0.030438935 	1.1987842e-05 	0.019210167
0.86597938 	0.057735935 	0.0070488697 	-8.8817899e-07 	0.032349346 	5.6860024e-06 	0.020531838
0.87628866 	0.061309934 	0.0068592361 	-3.6669739e-06 	0.03436676 	2.8730943e-06 	7.0723219e-05
0.88659794 	0.065258411 	0.0066684646 	-3.3923389e-07 	0.036650728 	2.2060735e-06 	0.021076326
0.89690722 	0.069416709 	0.0064509083 	-3.8742735e-06 	0.038977384 	2.5596029e-05 	0.022115217
0.90721649 	0.073878863 	0.0062237322 	-2.2674692e-06 	0.041387369 	1.5132272e-05 	0.023014655
0.91752577 	0.078723395 	0.0059873243 	-4.6716285e-07 	0.043867753 	3.0220891e-06 	0.0237708
0.92783505 	0.084052174 	0.0057269549 	-4.9056529e-07 	0.046428121 	-4.9302074e-07 	0.020792735
0.93814433 	0.089990869 	0.0054661254 	-4.2654281e-07 	0.049158484 	-4.308102e-07 	0.021688879
0.94845361 	0.096832502 	0.0051655178 	-9.1093268e-07 	0.05223318 	6.1132874e-06 	0.025481244
0.95876289 	0.10495645 	0.0047362207 	-3.6492629e-06 	0.056320395 	2.8840322e-05 	0.025917091
0.96907216 	0.11968696 	0.0044895898 	-8.9492158e-07 	0.060325657 	1.5103706e-05 	0.027560517
0.97938144 	0.15139589 	0.0043834395 	-4.7126742e-07 	0.060875358 	4.094214e-06 	0.0031967109
0.98969072 	0.18769921 	0.0037661658 	-4.4366703e-06 	0.060936557 	-1.7105329e-06 	0.033389254
