0.4742268 	0.22289053 	-0.00406457 	8.9245707e-08 	0.14238882 	-4.4174651e-06 	0.041513398
0.48453608 	0.63826486 	-0.011059481 	5.6953597e-07 	0.21561053 	-2.5161442e-07 	0.12888854
0.49484536 	0.70797519 	-0.011093449 	3.1480245e-06 	0.22961903 	-1.0392338e-05 	0.17591657
0.50515464 	0.67643078 	-0.0095861681 	1.2575001e-06 	0.21929868 	6.0082427e-07 	0.14927329
0.51546392 	0.60082928 	-0.0078372447 	1.9872017e-06 	0.19491569 	-4.3088297e-05 	0.14564305
0.5257732 	0.50069971 	-0.0072398327 	2.124185e-05 	0.1750373 	-6.2684027e-05 	0.12833162
0.53608247 	0.36942067 	-0.0039121293 	9.7025345e-06 	0.18323614 	1.2941621e-05 	0.11286182
0.54639175 	0.2595657 	-0.002128204 	-4.7975529e-07 	0.18072165 	2.9704521e-07 	0.094769171
0.55670103 	0.18285353 	-0.0012209847 	-5.0624691e-07 	0.16272847 	2.6157125e-06 	0.074882523
0.56701031 	0.13568574 	-0.0001392929 	2.0557177e-06 	0.13332415 	-7.1343268e-05 	0.062568836
0.57731959 	0.10503753 	0.00059076799 	4.2583093e-06 	0.10206415 	-0.00025525446 	0.046908131
0.58762887 	0.080633418 	0.00081823305 	-5.4586295e-07 	0.075588608 	-0.00031836222 	0.033367208
0.59793814 	0.059474057 	0.00066125516 	-4.0994281e-07 	0.054973948 	-3.1651827e-05 	0.022392529
0.60824742 	0.04366267 	0.00044924322 	6.4387595e-07 	0.040577868 	3.9961254e-05 	0.00046761386
0.6185567 	0.033513 	0.00032670365 	-4.513388e-07 	0.031366532 	-3.9377205e-05 	0.014829239
0.62886598 	0.028231891 	0.00031023626 	5.1878263e-07 	0.026064434 	-4.499218e-05 	0.011246084
0.63917526 	0.026244541 	0.00038025528 	-2.1082743e-07 	0.023096413 	1.0077296e-05 	0.0021349661
0.64948454 	0.026356468 	0.00052360335 	1.3720255e-06 	0.021297357 	-1.7801665e-05 	0.010068914
0.65979381 	0.027569635 	0.00071574048 	6.0300166e-07 	0.019858359 	-4.5778532e-06 	0.0097827598
0.67010309 	0.029327039 	0.00091850708 	-1.9075001e-07 	0.018702432 	1.7072127e-06 	0.0076921966
0.68041237 	0.031130198 	0.0011009346 	1.701114e-06 	0.017818376 	-1.1446121e-05 	0.0098225193
0.69072165 	0.032677504 	0.0012342623 	-4.170484e-07 	0.017293912 	3.6582206e-06 	0.003908131
0.70103093 	0.033847371 	0.0013180757 	6.7559758e-07 	0.017178027 	-2.3552854e-06 	0.010080867
0.71134021 	0.034708223 	0.0013637405 	-3.2742235e-07 	0.017382967 	2.7944756e-06 	0.0036880394
0.72164948 	0.03522354 	0.0013729768 	-4.9453757e-07 	0.017923064 	7.7064744e-06 	0.010528527
0.73195876 	0.035538056 	0.0013581018 	-1.5434238e-07 	0.018675121 	1.2133824e-06 	0.0067906253
0.74226804 	0.0356524 	0.0013176354 	-7.7388946e-07 	0.01968379 	9.0185877e-06 	0.011136573
0.75257732 	0.035709148 	0.0012626477 	-2.2458109e-08 	0.0208065 	1.6987577e-07 	0.010556601
0.7628866 	0.035712351 	0.0011857077 	-6.0263013e-07 	0.022135641 	6.6800319e-06 	0.011873398
0.77319588 	0.035779687 	0.0010989401 	-1.6316377e-08 	0.02357487 	1.777703e-07 	0.011876141
0.78350515 	0.035973548 	0.00099630197 	-8.2141783e-07 	0.025204256 	1.0203982e-05 	0.012772112
0.79381443 	0.036382392 	0.0008968022 	-1.2567259e-07 	0.026954393 	1.1738005e-06 	0.0094943951
0.80412371 	0.037183158 	0.00080397699 	-1.3556669e-06 	0.028973166 	2.5624304e-05 	0.013924577
0.81443299 	0.03841581 	0.00072844986 	-3.2089118e-07 	0.031192881 	5.5718996e-06 	0.0014744299
0.82474227 	0.040354927 	0.00067096171 	-8.3938129e-07 	0.033985526 	3.4024686e-05 	0.015499177
0.83505155 	0.043089482 	0.00063053993 	-1.1376669e-08 	0.037388479 	1.3890293e-06 	0.017796224
0.84536082 	0.047072679 	0.00061014697 	-5.2500903e-08 	0.041825922 	6.7546528e-06 	0.0099471597
0.8556701 	0.052800785 	0.00061704084 	1.1633445e-07 	0.047763955 	7.3590207e-05 	0.021176902
0.86597938 	0.060593097 	0.00066124171 	3.9299701e-07 	0.055294801 	4.1592793e-05 	0.025888133
0.87628866 	0.071195403 	0.00076682215 	1.9466292e-07 	0.064642565 	2.0196667e-05 	0.0095159624
0.88659794 	0.085692357 	0.00095939445 	2.3228936e-07 	0.075973335 	1.3447704e-05 	0.018979053
0.89690722 	0.10577488 	0.0012706129 	8.6428637e-07 	0.088854821 	3.2119773e-05 	0.039593627
0.90721649 	0.13409379 	0.0017290437 	3.2780347e-06 	0.10181996 	7.7427082e-05 	0.048306617
0.91752577 	0.1735857 	0.0023035601 	4.0240734e-06 	0.11286568 	6.648534e-05 	0.057870693
0.92783505 	0.2268315 	0.0028457629 	3.2075473e-06 	0.12010859 	2.5218595e-05 	0.067953512
0.93814433 	0.2939056 	0.0038306502 	9.5721117e-07 	0.12257359 	-2.5192407e-07 	0.078215313
0.94845361 	0.36651633 	0.0053386819 	1.5238151e-06 	0.12439212 	9.9804967e-06 	0.012621257
0.95876289 	0.42597998 	0.0060117597 	1.7090906e-06 	0.13809868 	3.5081781e-05 	0.10820845
0.96907216 	0.4699412 	0.0072145859 	1.0589266e-06 	0.15231883 	5.6624239e-06 	0.034820346
0.97938144 	0.4803486 	0.0079580689 	5.5960575e-08 	0.15582605 	-4.2774411e-06 	0.11966661
0.98969072 	0.39969992 	0.006808404 	-2.4265741e-06 	0.14149044 	-1.8121894e-05 	0.10392784
