0.47916667 	0.49375291 	-0.0085713161 	-7.5454609e-07 	0.19959431 	7.6313932e-06 	0.15784248
0.48958333 	0.67397136 	-0.011579215 	-5.9219356e-09 	0.21852229 	-1.0165528e-05 	0.033687713
0.5 	0.69539026 	-0.011080736 	1.5603176e-06 	0.22559367 	-2.8796021e-06 	0.20940887
0.51041667 	0.65263025 	-0.0092308676 	1.1050852e-05 	0.21164696 	-0.00010493141 	0.19799476
0.52083333 	0.57945306 	-0.0080075971 	2.1660452e-07 	0.18774448 	1.0043103e-05 	0.041370189
0.53125 	0.48331473 	-0.0067284692 	-3.695676e-07 	0.176146 	-8.1117107e-07 	0.093940277
0.54166667 	0.36897223 	-0.0041145881 	2.9591922e-06 	0.1821223 	-1.4212233e-06 	0.1280919
0.55208333 	0.27001437 	-0.0026399404 	4.2080011e-06 	0.18141222 	-5.0167814e-05 	0.10965365
0.5625 	0.19723999 	-0.0015414292 	3.3414416e-06 	0.16841668 	-8.0888173e-05 	0.091072383
0.57291667 	0.14959411 	-0.00049419828 	-1.2174589e-07 	0.14488108 	1.476197e-06 	0.070547198
0.58333333 	0.11907287 	0.00033806746 	-7.9546384e-07 	0.1169657 	3.2720777e-05 	0.025954785
0.59375 	0.095970245 	0.00078305758 	-3.6088683e-07 	0.091446451 	4.6504815e-05 	0.013194703
0.60416667 	0.076558712 	0.0008661692 	5.216721e-08 	0.070580269 	-3.9196985e-05 	0.041071692
0.61458333 	0.05954048 	0.00068394501 	-2.1705754e-06 	0.054515419 	-0.00015792575 	0.028973521
0.625 	0.045935103 	0.00049452179 	3.3221452e-07 	0.042318759 	1.8710215e-05 	0.010973093
0.63541667 	0.036800477 	0.00038261756 	8.6981326e-08 	0.034066969 	7.0011632e-06 	0.014868181
0.64583333 	0.031434825 	0.00035260389 	1.5686949e-07 	0.028827958 	-5.4831497e-05 	0.015252748
0.65625 	0.028948351 	0.00039266336 	-1.2504295e-07 	0.025666364 	1.1749473e-05 	0.0030794729
0.66666667 	0.028239628 	0.00048583722 	7.9589835e-07 	0.023665921 	-1.6177361e-05 	0.013344649
0.67708333 	0.028745033 	0.00062592382 	-1.3679852e-07 	0.022222546 	2.2184889e-06 	0.010023672
0.6875 	0.029791053 	0.00077715249 	-1.9658807e-08 	0.021184715 	2.3567779e-07 	0.012404639
0.69791667 	0.031082374 	0.00092857986 	7.0436447e-08 	0.020418717 	-4.2360609e-07 	0.012743356
0.70833333 	0.032134754 	0.0010259495 	-9.5898061e-08 	0.020132324 	9.1970961e-07 	0.010999425
0.71875 	0.03296188 	0.0010841012 	8.1372039e-09 	0.020179433 	1.3535462e-08 	0.013099659
0.72916667 	0.033504444 	0.001096138 	6.8323355e-09 	0.020620929 	6.7834991e-08 	0.0131005
0.73958333 	0.033829284 	0.0010691034 	-1.306295e-07 	0.021394233 	1.0914529e-06 	0.010922622
0.75 	0.034058925 	0.001017237 	-3.7996814e-07 	0.022427203 	4.1490362e-06 	0.013778827
0.76041667 	0.034242634 	0.00093707857 	-2.1994041e-07 	0.023744039 	1.8041267e-06 	0.0092134852
0.77083333 	0.03455281 	0.00085016516 	-6.0151872e-07 	0.02529239 	7.5058443e-06 	0.014779607
0.78125 	0.035135508 	0.00076516188 	-1.3228401e-07 	0.027057471 	1.5243335e-06 	0.011559661
0.79166667 	0.036088128 	0.0006898758 	-7.3759319e-08 	0.02909757 	1.4924657e-06 	0.016157069
0.80208333 	0.037696925 	0.00063745483 	-1.1330311e-07 	0.031535483 	5.3418211e-06 	0.018129509
0.8125 	0.040054376 	0.00059686892 	-8.5347059e-08 	0.034576075 	5.8774194e-06 	0.0090739476
0.82291667 	0.043430239 	0.0005717322 	-3.9309255e-07 	0.038523797 	6.1069033e-05 	0.021123702
0.83333333 	0.048090009 	0.00056513923 	-2.700226e-08 	0.043520236 	1.0309837e-05 	0.010943525
0.84375 	0.05431756 	0.0005821527 	1.6672847e-08 	0.049860658 	3.5927045e-06 	0.021857451
0.85416667 	0.062889633 	0.00064169668 	9.8894891e-07 	0.057995458 	0.0001061264 	0.031551474
0.86458333 	0.073852221 	0.00075667494 	8.1560733e-08 	0.067615109 	7.0693836e-06 	0.030155435
0.875 	0.088311298 	0.00095831773 	5.5931095e-07 	0.078665702 	2.8906678e-05 	0.0054230984
0.88541667 	0.10733466 	0.0012583595 	1.4718172e-07 	0.090986195 	4.9971406e-06 	0.040786732
0.89583333 	0.13311439 	0.0016809805 	2.153708e-06 	0.10326044 	5.2631045e-05 	0.058603903
0.90625 	0.16775952 	0.002247549 	5.215492e-06 	0.11392982 	7.1982648e-05 	0.06973153
0.91666667 	0.21322468 	0.0029152307 	4.958893e-06 	0.12156496 	4.3151444e-05 	0.081336173
0.92708333 	0.26983338 	0.0034869996 	5.3177882e-06 	0.12547029 	7.6657419e-06 	0.093094026
0.9375 	0.33549474 	0.0048449875 	2.8413533e-06 	0.12589134 	-3.9188731e-06 	0.10463382
0.94791667 	0.39873139 	0.0061939661 	5.5307829e-07 	0.12927277 	1.0600307e-05 	0.041818199
0.95833333 	0.4454754 	0.0065513689 	1.2399698e-07 	0.14445966 	1.1658492e-06 	0.12446152
0.96875 	0.47889794 	0.0077510417 	9.50694e-07 	0.15521508 	5.0575174e-06 	0.00597231
0.97916667 	0.48142269 	0.0081434672 	9.2446514e-08 	0.15621041 	-7.9324111e-06 	0.14509365
0.98958333 	0.39812969 	0.0067967995 	-2.1880787e-06 	0.14218419 	-2.2989616e-05 	0.125224
