0 	0.59215378 	-4.0216365e-14 	-2.7498138e-20
0.010869565 	0.57517659 	-0.0069128031 	7.7217003e-06
0.02173913 	0.55636647 	-0.013333049 	9.4200942e-06
0.032608696 	0.54215108 	-0.019525443 	9.1766823e-06
0.043478261 	0.53233366 	-0.025492321 	1.1920121e-05
0.054347826 	0.5262546 	-0.031236453 	-4.0168046e-06
0.065217391 	0.52314265 	-0.037211348 	-2.3625844e-06
0.076086957 	0.52327414 	-0.042326755 	-8.0688494e-06
0.086956522 	0.52521426 	-0.047812377 	5.5377591e-06
0.097826087 	0.53042407 	-0.053138917 	6.5306521e-06
0.10869565 	0.53864116 	-0.058248698 	-1.5769328e-05
0.11956522 	0.54783358 	-0.063568315 	-7.4623064e-06
0.13043478 	0.55928256 	-0.068867481 	-1.8883606e-06
0.14130435 	0.57454365 	-0.073736647 	-3.0329869e-05
0.15217391 	0.58890008 	-0.079338909 	6.4264804e-07
0.16304348 	0.60893412 	-0.084136138 	-2.8154338e-05
0.17391304 	0.62825127 	-0.089609263 	-6.331004e-06
0.18478261 	0.65228375 	-0.094465143 	-2.1290279e-05
0.19565217 	0.67622974 	-0.099945581 	-3.7104986e-06
0.20652174 	0.7052585 	-0.10480501 	-1.6477881e-05
0.2173913 	0.73374803 	-0.11047051 	-5.8690824e-07
0.22826087 	0.76892748 	-0.11512234 	-1.0694314e-05
0.23913043 	0.80261586 	-0.12078087 	3.2325704e-06
0.25 	0.84343278 	-0.12485921 	-1.184232e-07
0.26086957 	0.88444686 	-0.12917263 	-5.9437472e-07
0.27173913 	0.93027012 	-0.13384372 	1.3255812e-06
0.2826087 	0.98234991 	-0.13821371 	1.0916277e-05
0.29347826 	1.0352179 	-0.14353148 	1.1157909e-06
0.30434783 	1.0977592 	-0.1486583 	4.7479183e-06
0.31521739 	1.1666753 	-0.1536934 	1.2293676e-05
0.32608696 	1.2436835 	-0.15849455 	2.7819377e-05
0.33695652 	1.3299564 	-0.16247921 	9.4648863e-06
0.34782609 	1.4252008 	-0.16547245 	1.3255195e-05
0.35869565 	1.5281715 	-0.16890406 	6.26613e-05
0.36956522 	1.6349913 	-0.1722984 	9.4519603e-07
0.38043478 	1.7504769 	-0.17522756 	2.5714088e-05
0.39130435 	1.8653855 	-0.17826681 	6.7627403e-05
0.40217391 	1.9828227 	-0.18106522 	3.8344513e-05
0.41304348 	2.1020463 	-0.18309756 	5.8032712e-05
0.42391304 	2.2139917 	-0.18475826 	6.6403827e-05
0.43478261 	2.3252289 	-0.18530253 	0.0001841163
0.44565217 	2.4364661 	-0.1858468 	1.6147035e-05
0.45652174 	2.5401415 	-0.18472486 	2.4012829e-05
0.4673913 	2.6319211 	-0.18413208 	0.00017761909
0.47826087 	2.7219335 	-0.18358632 	0.00020149052
0.48913043 	2.811946 	-0.18304055 	2.788679e-06
0.5 	2.8889509 	-0.18283941 	4.0562266e-07
0.51086957 	2.9536701 	-0.18182138 	0.0002249808
0.52173913 	3.0183309 	-0.18079739 	0.00019236131
0.5326087 	3.0823173 	-0.17971955 	5.2401646e-06
0.54347826 	3.1301942 	-0.17746869 	6.9215246e-05
0.55434783 	3.1679162 	-0.17380968 	0.00039254677
0.56521739 	3.2056382 	-0.17015066 	0.00018973488
0.57608696 	3.2374569 	-0.16575401 	4.4950108e-05
0.58695652 	3.2515948 	-0.1611448 	0.00021909263
0.59782609 	3.26171 	-0.15683548 	0.00032832041
0.60869565 	3.2718252 	-0.15252615 	2.351602e-05
0.61956522 	3.2673568 	-0.14941895 	8.4105523e-05
0.63043478 	3.2577933 	-0.14642768 	0.00029818157
0.64130435 	3.2482297 	-0.14343641 	6.3651814e-05
0.65217391 	3.2328806 	-0.1404975 	5.2384942e-05
0.66304348 	3.21388 	-0.13743233 	0.00028272871
0.67391304 	3.1948794 	-0.13436716 	5.6033382e-05
0.68478261 	3.1731551 	-0.13114295 	7.2755855e-05
0.69565217 	3.1497538 	-0.12777955 	0.00023455593
0.70652174 	3.1263526 	-0.12441614 	4.8244949e-06
0.7173913 	3.0991778 	-0.12086556 	0.00013845654
0.72826087 	3.0709985 	-0.11726412 	0.00014046
0.73913043 	3.0411617 	-0.11360123 	6.0387571e-06
0.75 	3.0054368 	-0.10968076 	0.0002416662
0.76086957 	2.969712 	-0.10576029 	4.9370114e-06
0.77173913 	2.9254068 	-0.10138851 	0.00016750693
0.7826087 	2.8793973 	-0.096931142 	6.8729596e-05
0.79347826 	2.8260636 	-0.092307518 	0.0001085383
0.80434783 	2.7677641 	-0.08767723 	9.4434119e-05
0.81521739 	2.7020115 	-0.083047528 	8.7433714e-05
0.82608696 	2.6286147 	-0.078297838 	8.4263385e-05
0.83695652 	2.5446117 	-0.07302089 	0.0001177783
0.84782609 	2.4517629 	-0.067250934 	4.8106822e-05
0.85869565 	2.3417556 	-0.060766759 	0.00019279884
0.86956522 	2.2238999 	-0.054064522 	2.7753733e-05
0.88043478 	2.0825028 	-0.046897787 	0.00015904025
0.89130435 	1.9293717 	-0.039514872 	0.00011156492
0.90217391 	1.7623485 	-0.031910167 	9.7220847e-06
0.91304348 	1.5773883 	-0.024422084 	0.00011892015
0.92391304 	1.393242 	-0.017510017 	0.00013642339
0.93478261 	1.2066943 	-0.011095254 	5.4057656e-05
0.94565217 	1.013426 	-0.0065318298 	3.9486995e-05
0.95652174 	0.84159771 	-0.0041679465 	5.2757469e-06
0.9673913 	0.67350465 	-0.0021728602 	6.828359e-06
0.97826087 	0.5011215 	-0.0014402407 	2.0697726e-06
0.98913043 	0.30407395 	-0.00096304401 	9.2763446e-09
