0.47777778 	0.39994262 	-0.0070805491 	3.5675155e-09 	0.1671525 	-3.6585502e-07 	0.020003637
0.48888889 	0.57870955 	-0.010057426 	-3.4371322e-06 	0.19968594 	1.1799347e-05 	0.046673283
0.5 	0.62378058 	-0.010792853 	2.9902612e-06 	0.20227164 	-6.3105444e-07 	0.049438083
0.51111111 	0.61771131 	-0.01049379 	3.8985086e-06 	0.20028581 	-6.5851835e-05 	0.049307441
0.52222222 	0.59051428 	-0.0096379629 	1.9503875e-06 	0.19143432 	-2.2689491e-05 	0.046055891
0.53333333 	0.55037411 	-0.0084947275 	1.2143702e-05 	0.17838072 	-0.00021094539 	0.043462111
0.54444444 	0.5042424 	-0.007847102 	8.687257e-06 	0.1652049 	-0.00019832603 	0.040459727
0.55555556 	0.44871662 	-0.0069117448 	1.3813207e-05 	0.15900699 	-5.6454063e-05 	0.037339076
0.56666667 	0.38456367 	-0.0054262062 	1.5563118e-05 	0.16095407 	5.2277131e-08 	0.034372707
0.57777778 	0.32285864 	-0.0043369112 	1.2867686e-05 	0.16309127 	-1.8007414e-05 	0.031277645
0.58888889 	0.26776246 	-0.0034702647 	1.7276281e-05 	0.16318694 	-7.5197919e-05 	0.028162074
0.6 	0.22121671 	-0.0025847062 	1.6808134e-05 	0.16027547 	-0.00014496009 	0.025074646
0.61111111 	0.18364819 	-0.0017353797 	6.0689629e-06 	0.15410054 	-9.326201e-05 	0.022056692
0.62222222 	0.15521105 	-0.00097965136 	-8.8854505e-08 	0.14463359 	1.5592552e-06 	0.012285086
0.63333333 	0.13632355 	-0.00033256053 	1.0101997e-05 	0.13251427 	-0.00022969639 	0.019133012
0.64444444 	0.12205839 	0.00022944399 	9.3670415e-06 	0.11975557 	-0.00028955263 	0.016425544
0.65555556 	0.11121286 	0.00070866114 	-9.9984643e-08 	0.1068359 	4.4316469e-06 	0.0044282814
0.66666667 	0.10353297 	0.0010056948 	5.5465045e-06 	0.095725508 	-0.00025777299 	0.014006766
0.67777778 	0.096629992 	0.0012106824 	8.3339275e-07 	0.08598751 	-0.00012010119 	0.012038931
0.68888889 	0.090566628 	0.0012929612 	5.2806652e-07 	0.078271614 	-7.5607497e-05 	0.012024222
0.7 	0.085516438 	0.0012775748 	-1.8585011e-06 	0.073041916 	-0.000129321 	0.010609482
0.71111111 	0.080974225 	0.0012222796 	-1.1731612e-07 	0.06897567 	-8.6887015e-06 	0.010601731
0.72222222 	0.078437398 	0.0011329143 	-3.2888914e-06 	0.067649467 	-5.6592807e-05 	0.0098674557
0.73333333 	0.076399773 	0.0010436562 	-6.3983817e-08 	0.066858005 	-1.1680762e-06 	0.0098659469
0.74444444 	0.076971038 	0.00098193143 	-2.1068727e-06 	0.06836245 	2.6612837e-05 	0.0099290528
0.75555556 	0.0780383 	0.000929771 	9.5946087e-10 	0.070226756 	5.9297376e-09 	0.0099235378
0.76666667 	0.081970883 	0.00093905111 	2.2362524e-07 	0.074021715 	9.6500637e-05 	0.010726396
0.77777778 	0.086525315 	0.00096533927 	1.122182e-07 	0.078144583 	5.3189753e-06 	0.0012952205
0.78888889 	0.093932123 	0.0010699296 	2.4418477e-06 	0.083675289 	0.00011389587 	0.012048374
0.8 	0.10245668 	0.0012058948 	1.3748738e-06 	0.089515679 	3.8697381e-05 	0.01372187
0.81111111 	0.11344079 	0.0014071958 	1.7718559e-06 	0.09594883 	4.986612e-05 	0.013734133
0.82222222 	0.12705908 	0.0016692903 	6.6409525e-06 	0.10252723 	0.00012968208 	0.015653264
0.83333333 	0.14273255 	0.0019743923 	9.2047596e-07 	0.10908947 	1.2629747e-05 	0.017741933
0.84444444 	0.16225077 	0.0023480365 	2.3070759e-06 	0.11530792 	3.1656162e-05 	0.017753787
0.85555556 	0.18552756 	0.0027800056 	8.541931e-06 	0.12089855 	7.8834989e-05 	0.019959192
0.86666667 	0.21223535 	0.0032621108 	7.3738592e-06 	0.12582074 	4.2093673e-05 	0.022237945
0.87777778 	0.24271416 	0.0037989524 	3.076698e-06 	0.12994035 	9.5078003e-06 	0.024549954
0.88888889 	0.27701956 	0.0044007379 	2.8389516e-08 	0.13320123 	2.1393851e-07 	0.022270888
0.9 	0.31471907 	0.0050756356 	1.3795567e-07 	0.13568937 	1.0214986e-06 	0.0036028438
0.91111111 	0.35466618 	0.0057374818 	1.2401419e-07 	0.13780405 	1.0901689e-06 	0.0037259377
0.92222222 	0.39512052 	0.0064960653 	1.0523573e-09 	0.14009396 	1.5819136e-08 	0.032940829
0.93333333 	0.43321978 	0.0074049534 	3.0992241e-06 	0.14323132 	2.3914449e-05 	0.035151904
0.94444444 	0.46317132 	0.0078858215 	3.1797398e-06 	0.15018954 	9.2718484e-05 	0.03685667
0.95555556 	0.48574177 	0.0083159811 	7.7772082e-07 	0.1575103 	9.335928e-06 	0.038226264
0.96666667 	0.49669381 	0.0087339427 	9.7642299e-07 	0.16135256 	4.3637276e-06 	0.039505182
0.97777778 	0.48218345 	0.008443084 	-1.8340713e-06 	0.16217117 	-1.8318954e-05 	0.038651408
0.98888889 	0.40340353 	0.0069789149 	-5.5655831e-06 	0.14521728 	-6.7889641e-05 	0.0329302
