16.1667 0.9790 0.0210 0.7265 -0.0005 4.9595 0.5135 0.6169 
16.1667 0.9685 0.0315 0.7640 0.0013 5.1466 0.7043 0.7674 
16.1667 0.9580 0.0420 0.7916 0.0023 5.3766 0.8725 0.8870 
16.1667 0.9475 0.0525 0.8149 0.0004 5.5541 0.9962 0.9576 
16.1667 0.9370 0.0630 0.8355 -0.0021 5.7193 1.0886 1.0043 
16.1667 0.9265 0.0735 0.8543 -0.0024 5.8703 1.1795 1.0566 
16.1667 0.9160 0.0840 0.8718 0.0000 6.0110 1.2780 1.1233 
16.1667 0.9055 0.0945 0.8883 0.0019 6.1161 1.3638 1.1879 
16.1667 0.8950 0.1050 0.9042 0.0030 6.2011 1.4469 1.2452 
16.1667 0.8845 0.1155 0.9192 0.0041 6.2835 1.4951 1.2811 
16.1667 0.8740 0.1260 0.9335 0.0026 6.3392 1.4920 1.2924 
16.1667 0.8635 0.1365 0.9473 0.0003 6.3673 1.4890 1.3009 
16.1667 0.8530 0.1470 0.9606 -0.0007 6.3853 1.4975 1.3059 
16.1667 0.8425 0.1575 0.9734 -0.0009 6.3873 1.4804 1.2868 
16.1667 0.8320 0.1680 0.9861 0.0004 6.3653 1.4394 1.2474 
16.1667 0.8215 0.1785 0.9989 0.0029 6.3233 1.4052 1.2101 
16.1667 0.8110 0.1890 1.0113 0.0039 6.2633 1.3774 1.1842 
16.1667 0.8005 0.1995 1.0236 0.0021 6.1787 1.3446 1.1601 
16.1667 0.7900 0.2100 1.0358 -0.0012 6.0630 1.3201 1.1248 
16.1667 0.7795 0.2205 1.0474 -0.0023 5.9275 1.3035 1.0772 
16.1667 0.7690 0.2310 1.0590 -0.0006 5.7806 1.2797 1.0293 
16.1667 0.7585 0.2415 1.0706 0.0005 5.6206 1.2550 0.9901 
16.1667 0.7480 0.2520 1.0813 -0.0005 5.4557 1.2314 0.9551 
16.1667 0.7375 0.2625 1.0908 -0.0015 5.2707 1.2034 0.9195 
16.1667 0.7270 0.2730 1.1001 -0.0001 5.0566 1.1692 0.8868 
16.1667 0.7165 0.2835 1.1095 0.0015 4.8213 1.1333 0.8464 
16.1667 0.7060 0.2940 1.1188 0.0011 4.5902 1.0789 0.7794 
16.1667 0.6955 0.3045 1.1271 -0.0003 4.3759 1.0209 0.7052 
16.1667 0.6850 0.3150 1.1350 -0.0007 4.1686 0.9734 0.6498 
16.1667 0.6745 0.3255 1.1420 0.0008 3.9706 0.9284 0.6041 
16.1667 0.6640 0.3360 1.1477 0.0027 3.7731 0.8899 0.5587 
16.1667 0.6535 0.3465 1.1525 0.0027 3.5625 0.8649 0.5153 
16.1667 0.6430 0.3570 1.1576 0.0013 3.3648 0.8358 0.4669 
16.1667 0.6325 0.3675 1.1637 0.0006 3.1838 0.8040 0.4189 
16.1667 0.6220 0.3780 1.1701 0.0006 2.9941 0.7801 0.3776 
16.1667 0.6115 0.3885 1.1763 -0.0002 2.8005 0.7600 0.3388 
16.1667 0.6010 0.3990 1.1821 -0.0017 2.6264 0.7384 0.3014 
16.1667 0.5906 0.4094 1.1867 -0.0028 2.4785 0.7139 0.2650 
16.1667 0.5801 0.4199 1.1903 -0.0023 2.3497 0.6877 0.2277 
16.1667 0.5696 0.4304 1.1936 -0.0009 2.2312 0.6598 0.1895 
16.1667 0.5591 0.4409 1.1964 0.0001 2.1143 0.6379 0.1516 
16.1667 0.5486 0.4514 1.1979 -0.0000 1.9958 0.6206 0.1126 
16.1667 0.5381 0.4619 1.1984 -0.0012 1.8907 0.6076 0.0761 
16.1667 0.5276 0.4724 1.1989 -0.0026 1.8108 0.5957 0.0399 
16.1667 0.5171 0.4829 1.1997 -0.0034 1.7497 0.5835 0.0006 
16.1667 0.5066 0.4934 1.1996 -0.0034 1.7029 0.5787 -0.0407 
16.1667 0.4961 0.5039 1.1980 -0.0025 1.6764 0.5795 -0.0836 
16.1667 0.4856 0.5144 1.1955 -0.0012 1.6768 0.5829 -0.1285 
16.1667 0.4751 0.5249 1.1927 -0.0005 1.6945 0.5906 -0.1724 
16.1667 0.4646 0.5354 1.1898 -0.0002 1.7195 0.6029 -0.2153 
16.1667 0.4541 0.5459 1.1870 0.0002 1.7589 0.6197 -0.2609 
16.1667 0.4436 0.5564 1.1840 0.0003 1.8224 0.6366 -0.3073 
16.1667 0.4331 0.5669 1.1798 -0.0008 1.9183 0.6544 -0.3545 
16.1667 0.4226 0.5774 1.1737 -0.0024 2.0442 0.6754 -0.4030 
16.1667 0.4121 0.5879 1.1662 -0.0035 2.1854 0.6984 -0.4499 
16.1667 0.4016 0.5984 1.1574 -0.0039 2.3392 0.7224 -0.4945 
16.1667 0.3911 0.6089 1.1477 -0.0040 2.5069 0.7474 -0.5402 
16.1667 0.3806 0.6194 1.1376 -0.0040 2.6762 0.7788 -0.5892 
16.1667 0.3701 0.6299 1.1276 -0.0039 2.8400 0.8171 -0.6404 
16.1667 0.3596 0.6404 1.1176 -0.0035 3.0051 0.8509 -0.6931 
16.1667 0.3491 0.6509 1.1070 -0.0028 3.1712 0.8828 -0.7454 
16.1667 0.3386 0.6614 1.0961 -0.0020 3.3283 0.9219 -0.7979 
16.1667 0.3281 0.6719 1.0846 -0.0026 3.4921 0.9690 -0.8501 
16.1667 0.3176 0.6824 1.0720 -0.0042 3.6716 1.0141 -0.9025 
16.1667 0.3071 0.6929 1.0582 -0.0047 3.8475 1.0626 -0.9567 
16.1667 0.2966 0.7034 1.0437 -0.0040 3.9856 1.1020 -1.0010 
16.1667 0.2861 0.7139 1.0290 -0.0031 4.1228 1.1360 -1.0402 
16.1667 0.2756 0.7244 1.0147 -0.0022 4.2581 1.1654 -1.0742 
16.1667 0.2651 0.7349 1.0008 -0.0025 4.3575 1.1880 -1.0887 
16.1667 0.2546 0.7454 0.9870 -0.0043 4.4341 1.2147 -1.0983 
16.1667 0.2441 0.7559 0.9731 -0.0061 4.5160 1.2355 -1.1122 
16.1667 0.2336 0.7664 0.9592 -0.0062 4.5684 1.2461 -1.1198 
16.1667 0.2231 0.7769 0.9447 -0.0052 4.5635 1.2580 -1.1200 
16.1667 0.2126 0.7874 0.9295 -0.0045 4.5345 1.2692 -1.1219 
16.1667 0.2021 0.7979 0.9143 -0.0041 4.4945 1.2746 -1.1226 
16.1667 0.1916 0.8084 0.8992 -0.0036 4.4176 1.2818 -1.1131 
16.1667 0.1811 0.8189 0.8843 -0.0030 4.3128 1.2911 -1.0963 
16.1667 0.1706 0.8294 0.8699 -0.0029 4.2128 1.2904 -1.0751 
16.1667 0.1601 0.8399 0.8564 -0.0031 4.1089 1.2812 -1.0397 
16.1667 0.1496 0.8504 0.8435 -0.0033 3.9896 1.2615 -0.9826 
16.1667 0.1391 0.8609 0.8307 -0.0040 3.8679 1.2289 -0.9165 
16.1667 0.1286 0.8714 0.8179 -0.0043 3.7440 1.1984 -0.8576 
16.1667 0.1181 0.8819 0.8052 -0.0039 3.5980 1.1727 -0.7998 
16.1667 0.1076 0.8924 0.7931 -0.0036 3.4356 1.1544 -0.7382 
16.1667 0.0971 0.9029 0.7818 -0.0037 3.2897 1.1465 -0.6783 
16.1667 0.0866 0.9134 0.7713 -0.0034 3.1534 1.1339 -0.6145 
16.1667 0.0761 0.9239 0.7614 -0.0028 3.0045 1.1175 -0.5456 
16.1667 0.0656 0.9344 0.7523 -0.0020 2.8446 1.0926 -0.4747 
16.1667 0.0551 0.9449 0.7440 -0.0013 2.6884 1.0548 -0.3997 
16.1667 0.0446 0.9554 0.7372 -0.0017 2.5415 1.0188 -0.3189 
16.1667 0.0341 0.9659 0.7320 -0.0025 2.4343 1.0022 -0.2327 
16.1667 0.0236 0.9764 0.7279 -0.0026 2.3649 1.0054 -0.1430 
