0 	0.0016404595 	-1.1141166e-16 	-4.0495189e-23 	7.5665127e-30 	2.7502271e-36 	9.9963475e-43
0.010309278 	0.0015917234 	-0.00013760634 	1.5363625e-08 	0.00068651359 	-9.4334205e-08 	0.00020541602
0.020618557 	0.0015911685 	-0.00017149451 	2.1312076e-07 	0.00070205196 	-1.1945657e-06 	0.00040579021
0.030927835 	0.0015705895 	-0.00020423603 	3.247481e-08 	0.00071158004 	-1.7203158e-07 	0.00058634791
0.041237113 	0.0015525127 	-0.00023598313 	8.0392326e-08 	0.00071855874 	-4.3288135e-07 	0.00075090791
0.051546392 	0.0015397839 	-0.00023851688 	-2.8942321e-06 	0.00082414886 	2.9054781e-06 	0.00016510654
0.06185567 	0.0015362964 	-0.00026219085 	-2.2656656e-06 	0.00082751475 	2.085759e-06 	0.00028618318
0.072164948 	0.0015288926 	-0.0002938176 	-4.343419e-07 	0.00081331274 	3.8030381e-07 	0.00057571854
0.082474227 	0.0015265648 	-0.00031335874 	4.4895928e-07 	0.00084639728 	-1.3381596e-06 	0.00052099694
0.092783505 	0.0015302492 	-0.00032737859 	8.7304704e-08 	0.00088851624 	-2.5347849e-07 	0.00036666697
0.10309278 	0.0015412718 	-0.00033556057 	-5.0521682e-07 	0.0009400731 	4.1736012e-07 	8.6664584e-05
0.11340206 	0.0015455022 	-0.00035310944 	5.8619437e-07 	0.00096372919 	-1.6634873e-06 	8.5507718e-05
0.12371134 	0.0015534561 	-0.00036419413 	2.1126171e-07 	0.00099657187 	-5.83761e-07 	3.774694e-05
0.13402062 	0.001559513 	-0.00037282639 	7.1490501e-07 	0.0010230665 	-1.9754344e-06 	0.00013179187
0.1443299 	0.0015655699 	-0.00038145865 	9.8544153e-08 	0.001049561 	-2.7229843e-07 	0.0002258368
0.15463918 	0.0015657172 	-0.00038892603 	2.9171432e-07 	0.0010805069 	-3.1995482e-07 	0.00025272107
0.16494845 	0.0015802896 	-0.00039904969 	3.805867e-07 	0.0011029587 	-1.0154419e-06 	0.00041907419
0.17525773 	0.0015721138 	-0.00040480349 	5.5688788e-07 	0.0011418622 	-4.5456085e-07 	0.00034800547
0.18556701 	0.0015599285 	-0.00040990318 	1.2809602e-06 	0.0011844247 	-1.0455863e-06 	0.00023150377
0.19587629 	0.0016047442 	-0.00042626936 	6.5354311e-08 	0.0011866466 	-1.6592912e-07 	0.00070897543
0.20618557 	0.0015761376 	-0.00042701528 	1.0384426e-06 	0.001243862 	-5.1603706e-07 	0.00039565978
0.21649485 	0.0015562144 	-0.00042991747 	1.2764336e-06 	0.0012952581 	-6.3430277e-07 	0.00017711959
0.22680412 	0.0016061608 	-0.00044872563 	8.9466043e-08 	0.0012952452 	-4.4458685e-08 	0.00071810639
0.2371134 	0.0015868151 	-0.00044955208 	3.3741513e-07 	0.001349369 	-4.7415619e-08 	0.00047811305
0.24742268 	0.0015541422 	-0.00044758278 	8.4900713e-07 	0.0014138224 	-1.1930763e-07 	9.0962774e-05
0.25773196 	0.0015916395 	-0.00046453042 	8.845799e-08 	0.0014255839 	-1.8252278e-07 	0.00050249183
0.26804124 	0.0015869273 	-0.00046734962 	1.1919053e-07 	0.0014716486 	-2.459358e-07 	0.0004160796
0.27835052 	0.0015579325 	-0.00046263562 	4.6360535e-07 	0.001536888 	1.1291214e-07 	3.7287728e-05
0.28865979 	0.0015777025 	-0.00047452399 	1.9986465e-07 	0.0015651835 	-3.0172398e-07 	0.00025146374
0.29896907 	0.0015739998 	-0.00047551505 	4.2510409e-07 	0.0016134395 	-6.4175479e-07 	0.00017102432
0.30927835 	0.001570297 	-0.0004765061 	7.9558262e-08 	0.0016616956 	-1.2010446e-07 	9.0584911e-05
0.31958763 	0.0015667325 	-0.00047648819 	3.1432738e-07 	0.0017115377 	-2.9549579e-07 	1.4928281e-05
0.32989691 	0.0015653156 	-0.00047505022 	7.2518126e-07 	0.0017635376 	-6.8173511e-07 	5.723675e-05
0.34020619 	0.0015642689 	-0.00047369446 	1.4735316e-07 	0.0018157448 	-1.3852512e-07 	0.00012135826
0.35051546 	0.0015624167 	-0.00046725928 	1.9062068e-07 	0.0018694501 	-8.443537e-08 	0.0001844923
0.36082474 	0.001560297 	-0.00046131756 	8.242471e-07 	0.0019247111 	-3.6509999e-07 	0.00024197436
0.37113402 	0.0015581773 	-0.00045537584 	1.1337965e-07 	0.001979972 	-5.0221478e-08 	0.00029945642
0.3814433 	0.0015628778 	-0.0004389644 	4.8654137e-07 	0.0020257439 	3.3768659e-07 	0.00023938494
0.39175258 	0.0015512301 	-0.0004264181 	6.8386278e-07 	0.0020922546 	-6.7899692e-08 	0.00040942542
0.40206186 	0.0015472115 	-0.00041332895 	2.1160932e-07 	0.0021504999 	-2.1010367e-08 	0.00045957258
0.41237113 	0.001573594 	-0.00039071993 	2.0970504e-06 	0.0021692916 	1.1025573e-06 	2.9701093e-05
0.42268041 	0.001538098 	-0.00036307878 	1.8437905e-07 	0.0022578238 	-6.5449839e-08 	0.00055943018
0.43298969 	0.0015299202 	-0.00033031034 	8.0989352e-07 	0.0023030582 	-2.8749145e-07 	0.00060179384
0.44329897 	0.0015442645 	-0.0002946756 	1.2991195e-06 	0.0023148331 	7.3645714e-07 	0.00029586587
0.45360825 	0.0015481478 	-0.00025333076 	1.4357498e-06 	0.00233871 	8.1391139e-07 	0.00032013992
0.46391753 	0.0015293558 	-0.00020856623 	5.6139654e-07 	0.0023894232 	-3.9284483e-07 	0.00077178926
0.4742268 	0.0015266466 	-0.00016292015 	1.4779346e-07 	0.0024056199 	1.2994175e-07 	0.00074731331
0.48453608 	0.0015515502 	-0.00012201775 	1.7468841e-06 	0.0023759534 	1.5358812e-06 	0.00012445942
0.49484536 	0.0015571132 	-7.6594844e-05 	9.8971664e-07 	0.0023812826 	8.7017056e-07 	0.00053045526
0.50515464 	0.0015580868 	-3.135794e-05 	4.4704779e-07 	0.0023934238 	-4.5114344e-07 	0.0010269899
0.51546392 	0.0015633917 	5.7133518e-06 	4.4223317e-07 	0.0023929146 	4.6517209e-07 	0.00075580282
0.5257732 	0.0015743372 	3.7004401e-05 	1.4697515e-06 	0.002381764 	1.5459884e-06 	8.4254476e-05
0.53608247 	0.0015860624 	7.5855409e-05 	7.6877753e-07 	0.0023811833 	8.0865453e-07 	0.00064762678
0.54639175 	0.0015964939 	0.00011467711 	2.4557408e-07 	0.002382673 	-3.1300641e-07 	0.0012526649
0.55670103 	0.0016005535 	0.00014236469 	4.7983248e-07 	0.0023788924 	4.114444e-07 	0.00075502535
0.56701031 	0.0016046831 	0.00016702369 	1.1920481e-06 	0.0023711001 	1.0221515e-06 	4.6512419e-06
0.57731959 	0.0016210019 	0.00020136406 	4.7822428e-07 	0.0023674571 	4.100654e-07 	0.00085466323
0.58762887 	0.0016333247 	0.00023343638 	2.2689454e-08 	0.0023649863 	1.2467034e-08 	0.0013922357
0.59793814 	0.0016321429 	0.00025380086 	5.6152677e-07 	0.0023575735 	3.0853862e-07 	0.0005212833
0.60824742 	0.0016387814 	0.00027756492 	6.5615151e-07 	0.0023498984 	3.6053149e-07 	0.00039744039
0.6185567 	0.0016568315 	0.00030628977 	1.0256283e-07 	0.0023418406 	5.6354562e-08 	0.0013638106
0.62886598 	0.001657376 	0.00032702176 	2.6486041e-07 	0.002334504 	3.2580241e-08 	0.00092075333
0.63917526 	0.0016533173 	0.00034499275 	6.2264707e-07 	0.0023257948 	7.6591257e-08 	8.1344487e-05
0.64948454 	0.0016711919 	0.00036936865 	1.8473584e-07 	0.0023133093 	2.2724189e-08 	0.001159336
0.65979381 	0.0016749806 	0.00038937118 	1.4863544e-07 	0.0023026428 	-6.0965421e-08 	0.0011361415
0.67010309 	0.001665354 	0.00040498918 	4.896844e-07 	0.0022924679 	-2.008526e-07 	3.8309662e-05
0.68041237 	0.0016809186 	0.0004261577 	1.5051394e-07 	0.0022759841 	-6.173592e-08 	0.0011530194
0.69072165 	0.0016821796 	0.00044409128 	1.3289485e-07 	0.0022620734 	-1.280334e-07 	0.0011135416
0.70103093 	0.0016714147 	0.00045913097 	3.8382375e-07 	0.0022490832 	-3.6978302e-07 	0.00010621491
0.71134021 	0.0016854976 	0.00047869253 	6.3755302e-08 	0.002228514 	-6.1423057e-08 	0.0013948967
0.72164948 	0.0016780685 	0.00049450163 	1.8589356e-07 	0.0022128215 	-2.5730869e-07 	0.00080987368
0.73195876 	0.0016728566 	0.00051064121 	2.4501798e-07 	0.0021946448 	-3.3914707e-07 	0.00053714282
0.74226804 	0.0016807971 	0.00052902449 	7.6856661e-09 	0.0021720301 	-1.2123755e-08 	0.0015970021
0.75257732 	0.0016631239 	0.00054368768 	3.0853171e-07 	0.0021555283 	-4.8669338e-07 	0.00019012136
0.7628866 	0.0016685399 	0.00056243151 	6.709798e-08 	0.0021300504 	-1.0584372e-07 	0.0012949172
0.77319588 	0.0016581324 	0.00057886205 	1.8869721e-07 	0.002109769 	-2.9701987e-07 	0.00072910147
0.78350515 	0.0016524886 	0.00059684547 	1.6344225e-07 	0.0020861591 	-2.5726716e-07 	0.00082559576
0.79381443 	0.0016481259 	0.00061527872 	1.0298897e-07 	0.002061875 	-1.5177396e-07 	0.0010888843
0.80412371 	0.001636556 	0.0006330229 	2.1805426e-07 	0.0020394349 	-3.2134467e-07 	0.00054822909
0.81443299 	0.0016343994 	0.00065308176 	5.7210062e-08 	0.002013054 	-7.7615519e-08 	0.0012437468
0.82474227 	0.0016214587 	0.00067070959 	2.1396849e-07 	0.0019908952 	-2.9028592e-07 	0.00048971398
0.83505155 	0.0016186238 	0.00069107952 	5.614812e-08 	0.0019646177 	-7.1759272e-08 	0.0011699363
0.84536082 	0.0016080285 	0.00070847553 	1.4558885e-07 	0.0019422255 	-1.8606768e-07 	0.00067662293
0.8556701 	0.0016022083 	0.00072664484 	9.2551778e-08 	0.001918219 	-1.1429849e-07 	0.00084237547
0.86597938 	0.0015974707 	0.00074393742 	4.0483114e-08 	0.0018946424 	-4.9995353e-08 	0.0011381573
0.87628866 	0.0015879192 	0.00075691271 	8.6074855e-08 	0.0018731148 	-2.0171988e-07 	0.00023323307
0.88659794 	0.0015890795 	0.0007781037 	1.1231346e-08 	0.0018496028 	-1.1215955e-07 	0.0013434566
0.89690722 	0.0015877442 	0.00077567214 	-5.883837e-08 	0.0018250945 	-1.0463196e-07 	0.00073907876
0.90721649 	0.0015901039 	0.00077755009 	-1.6921347e-07 	0.0018009951 	-1.5926321e-07 	0.00032993321
0.91752577 	0.0016003731 	0.0007771013 	-3.10893e-09 	0.001777748 	-2.9352076e-09 	0.001255481
0.92783505 	0.0016131352 	0.0007782601 	-3.1416015e-09 	0.0017589234 	-1.4675345e-08 	0.0012638821
0.93814433 	0.0016307532 	0.0007820543 	-3.1316312e-08 	0.001749191 	-2.6150424e-08 	0.00085264197
0.94845361 	0.0016634295 	0.00079179009 	1.0521112e-08 	0.0017518535 	-4.1193085e-08 	0.001251122
0.95876289 	0.0016986573 	0.00080399663 	-3.0321812e-08 	0.0017641072 	-2.8284743e-08 	0.0002496209
0.96907216 	0.0017030447 	0.0008025572 	-2.729656e-08 	0.001748444 	-5.5243282e-08 	0.0010444855
0.97938144 	0.0014881202 	0.00070938078 	-2.8503879e-07 	0.0015144072 	-6.3764005e-07 	0.00018862621
0.98969072 	0.00057944141 	0.00027061174 	-3.1442818e-07 	0.00058351227 	-6.707281e-07 	5.7946017e-05
