0.47826087 	0.0018284699 	-0.0008508157 	1.0107409e-08 	0.0018252446 	-2.1425132e-08 	0.00092691679
0.48913043 	0.0037793371 	-0.0017726837 	-5.4131217e-09 	0.0037631475 	1.742005e-08 	0.0014823706
0.5 	0.0031224379 	-0.0014647124 	7.0645115e-09 	0.0031005606 	-1.5309337e-08 	0.001801792
0.51086957 	0.0020341764 	-0.00095442603 	9.0036535e-07 	0.0020160197 	-1.8819842e-06 	0.0011847406
0.52173913 	0.0013692014 	-0.00060977189 	-1.6323463e-07 	0.0013533866 	2.2165532e-07 	0.00013117378
0.5326087 	0.0011375207 	-0.00037135863 	2.9341279e-07 	0.0011314698 	-1.229168e-07 	0.0006201551
0.54347826 	0.001109163 	-0.0001935909 	1.3250372e-06 	0.0011108555 	-3.0212981e-08 	0.00061460425
0.55434783 	0.0011383873 	-4.587578e-05 	8.5558504e-07 	0.0011461784 	1.3773819e-07 	0.00063188062
0.56521739 	0.0011796121 	7.6407158e-05 	7.0961101e-07 	0.0011952637 	1.7008804e-07 	0.00065598619
0.57608696 	0.0012216708 	0.00017913437 	8.7448568e-07 	0.0012441796 	2.2994386e-07 	0.00068237562
0.58695652 	0.0012613416 	0.0002673847 	4.9008633e-07 	0.0012902137 	1.2730751e-07 	0.00070892317
0.59782609 	0.0012980739 	0.00034417393 	-1.6007206e-08 	0.0013323037 	-1.430784e-08 	0.00063532366
0.60869565 	0.0013316865 	0.00041096602 	-9.7579558e-08 	0.0013696389 	-8.8678414e-08 	0.00010099
0.61956522 	0.0013618814 	0.00046910253 	-2.227062e-08 	0.0014048392 	-2.0506337e-08 	0.00060077706
0.63043478 	0.0013891683 	0.00051967042 	5.0737282e-07 	0.0014359006 	5.6784551e-08 	0.00078357314
0.64130435 	0.0014137695 	0.00056387493 	-3.8077414e-08 	0.0014630572 	-3.583826e-08 	0.00049561034
0.65217391 	0.0014352753 	0.00060152852 	-3.172854e-08 	0.0014873236 	-3.0949316e-08 	0.00052041675
0.66304348 	0.0014540358 	0.00063375498 	2.213735e-07 	0.0015088919 	-6.7249357e-08 	0.00082429632
0.67391304 	0.0014704636 	0.00066186014 	-7.0217597e-08 	0.001525339 	-6.8035539e-08 	0.000124877
0.68478261 	0.001484117 	0.00068465123 	8.3445531e-08 	0.0015413659 	-9.4743879e-08 	0.00084052816
0.69565217 	0.0014954217 	0.00070122337 	-2.3466003e-08 	0.0015527995 	-3.1063156e-08 	0.00048842054
0.70652174 	0.0015042932 	0.00071146438 	-6.4387192e-09 	0.0015629613 	-4.2343263e-08 	0.00085299115
0.7173913 	0.0015109231 	0.0007149247 	-7.6619463e-09 	0.001569473 	-1.8167846e-08 	0.00061950737
0.72826087 	0.0015156716 	0.00071728623 	-2.1124806e-08 	0.0015743376 	-4.7844487e-08 	0.00086107631
0.73913043 	0.0015186631 	0.00071844063 	-7.9444648e-09 	0.0015756726 	-1.8450741e-08 	0.00057802891
0.75 	0.0015203371 	0.00071915855 	-3.7028138e-08 	0.0015764642 	-8.5168285e-08 	0.00086461486
0.76086957 	0.0015205148 	0.00071883248 	-7.2601587e-09 	0.0015742261 	-1.6781787e-08 	0.00057179236
0.77173913 	0.0015197291 	0.0007182893 	-8.2256998e-09 	0.0015720903 	-1.891533e-08 	0.00086445175
0.7826087 	0.001517795 	0.00071702606 	-1.5903674e-09 	0.0015680775 	-3.7000637e-09 	0.00079358584
0.79347826 	0.0015150708 	0.00071528099 	-7.0249804e-09 	0.001562809 	-1.6253537e-08 	0.00054916963
0.80434783 	0.0015116076 	0.00071339739 	-1.1763979e-07 	0.0015577332 	-2.6943355e-07 	0.00085822475
0.81521739 	0.0015075081 	0.00071070481 	-1.7352293e-08 	0.0015498234 	-3.9997639e-08 	7.3873968e-05
0.82608696 	0.0015027192 	0.00070833801 	-4.0399306e-08 	0.0015440779 	-9.2484883e-08 	0.00085351019
0.83695652 	0.0014972934 	0.00070529604 	-4.974741e-08 	0.0015360923 	-1.1380789e-07 	0.00084814177
0.84782609 	0.0014913455 	0.00070166446 	-1.565125e-08 	0.0015261259 	-3.5637258e-08 	0.00012494313
0.85869565 	0.0014849314 	0.00069832888 	-3.9382193e-09 	0.0015179618 	-8.9509569e-09 	0.00065220007
0.86956522 	0.0014785416 	0.00069481246 	-1.0300535e-07 	0.0015090366 	-2.3631963e-07 	0.00083668092
0.88043478 	0.0014731525 	0.00069160714 	-6.2719944e-08 	0.0015004891 	-1.4589041e-07 	0.00083192806
0.89130435 	0.0014706264 	0.00068956651 	-7.8151842e-10 	0.0014941194 	-1.8539071e-09 	0.00077135539
0.90217391 	0.0014751648 	0.00069046033 	-1.1967507e-09 	0.0014933521 	-3.6161062e-09 	0.00055636295
0.91304348 	0.0014938836 	0.00069763902 	3.3111821e-09 	0.0015055212 	5.7226242e-09 	0.000537294
0.92391304 	0.0015415143 	0.00071799311 	3.9639621e-09 	0.0015455995 	7.9945754e-09 	0.00075710338
0.93478261 	0.0016518754 	0.00076744312 	2.7737993e-07 	0.0016481935 	5.811325e-07 	0.00092858783
0.94565217 	0.0018810379 	0.00087307508 	3.5538333e-07 	0.0018710966 	7.4760564e-07 	0.001029248
0.95652174 	0.0022867779 	0.0010637623 	1.7870051e-07 	0.002270586 	3.8151572e-07 	3.7649258e-05
0.9673913 	0.00278526 	0.001299538 	4.8337767e-08 	0.0027711257 	1.0314019e-07 	0.001537009
0.97826087 	0.0029835201 	0.0013966958 	-1.7525081e-07 	0.0029743551 	-4.3292447e-07 	0.0016700797
0.98913043 	0.0017999438 	0.00084460888 	-1.6139316e-06 	0.0017969582 	-3.2208069e-06 	0.00098664114
