0 	0.014593075 	-9.9108829e-16 	-4.0210406e-22 	4.4576394e-18 	1.9462474e-19 	8.4974997e-21
0.010869565 	0.014625918 	-0.00084675658 	1.897005e-07 	0.02050958 	-9.0267315e-05 	0.0039209732
0.02173913 	0.014740075 	-0.0016951879 	3.2933565e-08 	0.020603 	-5.1077192e-05 	0.0054335943
0.032608696 	0.014920377 	-0.0025248881 	3.3375712e-08 	0.020740503 	-9.0209893e-06 	0.0069105001
0.043478261 	0.015162815 	-0.0033261597 	3.9505423e-07 	0.020919133 	-3.8205254e-05 	0.0083834582
0.054347826 	0.015456725 	-0.0041035506 	1.8277104e-06 	0.021132583 	-1.0259934e-05 	0.0019102083
0.065217391 	0.015817067 	-0.0048751247 	1.5732339e-06 	0.021384762 	-7.783992e-06 	0.005272313
0.076086957 	0.016166197 	-0.0055266305 	2.8222339e-06 	0.02162323 	-1.2271373e-05 	0.0031211699
0.086956522 	0.016551983 	-0.0061718636 	1.7664721e-08 	0.021879229 	-3.3618864e-07 	0.014147551
0.097826087 	0.016961298 	-0.006795902 	5.8032363e-07 	0.022134699 	-7.7847357e-06 	0.015633554
0.10869565 	0.017370791 	-0.0073881139 	4.4624975e-06 	0.022370513 	-1.5553316e-05 	0.0045327037
0.11956522 	0.017757651 	-0.0079240497 	2.5867563e-06 	0.022579074 	-8.2042413e-06 	0.011644028
0.13043478 	0.01812839 	-0.0084269398 	1.0567926e-06 	0.022757603 	-3.3517581e-06 	0.016936049
0.14130435 	0.018460967 	-0.0088822933 	8.1769635e-06 	0.022845309 	-2.3778696e-05 	0.00098949816
0.15217391 	0.018756898 	-0.0092810078 	1.741899e-07 	0.022911686 	-4.7295846e-07 	0.021636168
0.16304348 	0.018968986 	-0.009609376 	7.8817956e-06 	0.02282968 	-2.1400563e-05 	0.0045983659
0.17391304 	0.019131297 	-0.0098877298 	1.9590874e-06 	0.022726216 	-5.0200851e-06 	0.017753171
0.18478261 	0.019162273 	-0.010081855 	6.4590672e-06 	0.022476858 	-1.6551108e-05 	0.0061946235
0.19565217 	0.019136485 	-0.010228226 	1.1515011e-06 	0.022180357 	-2.7483536e-06 	0.017290403
0.20652174 	0.018937508 	-0.010269519 	6.1580309e-06 	0.021665325 	-1.4697725e-05 	0.0045498217
0.2173913 	0.018694135 	-0.010271478 	2.4588586e-06 	0.021130808 	-7.3500298e-06 	0.017416087
0.22826087 	0.018190702 	-0.010116028 	6.6937989e-06 	0.020283447 	-1.4710574e-05 	0.00056097778
0.23913043 	0.017678837 	-0.009941016 	5.2467891e-06 	0.019480097 	-1.3262999e-05 	0.014564851
0.25 	0.016846587 	-0.0095589798 	3.0610744e-06 	0.018329059 	-6.2834392e-06 	0.0057151825
0.26086957 	0.015967337 	-0.0091391952 	1.1312647e-06 	0.017172634 	-2.3221365e-06 	0.0087661886
0.27173913 	0.014878853 	-0.0085653475 	3.0254784e-06 	0.01581887 	-6.4978165e-06 	0.010835493
0.2826087 	0.013545923 	-0.0078200639 	2.4927487e-06 	0.014252716 	-5.0131596e-06 	0.0012089689
0.29347826 	0.012235718 	-0.0070750762 	1.614414e-05 	0.012756504 	-3.0525458e-05 	0.0075088464
0.30434783 	0.010767956 	-0.0062112755 	2.5369077e-07 	0.011123062 	-5.2689432e-07 	0.005765348
0.31521739 	0.0092316681 	-0.0052912328 	6.0876523e-07 	0.0094738725 	-1.264354e-06 	0.0022016843
0.32608696 	0.0078116675 	-0.0044388909 	2.9429642e-05 	0.0079675454 	-5.1971956e-05 	0.0041173012
0.33695652 	0.0064293823 	-0.0036079698 	1.3549711e-07 	0.0065110288 	-2.5856154e-07 	0.0029659557
0.34782609 	0.0051600955 	-0.0028475159 	1.8693701e-07 	0.0052053896 	-3.5672143e-07 	0.0012036454
0.35869565 	0.0041391508 	-0.0022402508 	2.2711012e-05 	0.0041565349 	-3.9666161e-05 	0.0017743649
0.36956522 	0.0031840546 	-0.001673826 	3.8426762e-07 	0.0031736694 	-6.7114671e-07 	0.0016912243
0.38043478 	0.0024969847 	-0.00127639 	1.6799699e-07 	0.002475124 	-2.2842011e-07 	0.00033819906
0.39130435 	0.0019933738 	-0.000982038 	8.7998013e-06 	0.0019616391 	-1.5545e-05 	0.00065654068
0.40217391 	0.0015648366 	-0.00072947015 	4.9934463e-06 	0.0015214997 	-8.8210084e-06 	0.000626635
0.41304348 	0.0012604961 	-0.00054632824 	1.8345062e-07 	0.0012059104 	-9.7508432e-08 	3.4466144e-05
0.42391304 	0.0010997136 	-0.00043732794 	1.5623964e-06 	0.0010345102 	-2.2726175e-06 	0.00032661976
0.43478261 	0.0010032585 	-0.00035125068 	4.3274089e-06 	0.00092074499 	-6.2945259e-06 	0.0003127817
0.44565217 	0.00090680346 	-0.00026517341 	3.8162858e-07 	0.00080697974 	-5.5510608e-07 	0.00029894363
0.45652174 	0.0009005622 	-0.00021104172 	5.9959116e-08 	0.00077904859 	4.151249e-08 	0.00018244815
0.4673913 	0.00091978728 	-0.00016518419 	1.7791956e-06 	0.00077604587 	-6.43568e-07 	0.00028301933
0.47826087 	0.00094349174 	-0.00012009727 	2.0180289e-06 	0.00077670203 	-7.299584e-07 	0.00027181763
0.48913043 	0.0009671962 	-7.5010343e-05 	2.9413829e-08 	0.00077735818 	-1.0639526e-08 	0.00026061592
0.5 	0.0010097652 	-3.1799651e-05 	1.7741827e-09 	0.00079962988 	1.8134023e-09 	0.00028928779
0.51086957 	0.0010494472 	1.9584971e-06 	1.5576758e-06 	0.00082343313 	2.9707662e-07 	0.00028222509
0.52173913 	0.0010891164 	3.5668108e-05 	1.3319828e-06 	0.00084723428 	2.5403292e-07 	0.00027208578
0.5326087 	0.001128566 	6.8960988e-05 	1.5659362e-08 	0.00087104557 	1.7010272e-08 	0.00023517999
0.54347826 	0.0011626048 	9.4001466e-05 	2.0646713e-07 	0.00089739873 	6.6833952e-08 	0.0002760726
0.55434783 	0.0011928885 	0.00011713029 	1.1682466e-06 	0.00092201819 	3.7816448e-07 	0.00026758722
0.56521739 	0.0012231722 	0.00014025911 	5.6493476e-07 	0.00094663764 	1.8287086e-07 	0.00025910184
0.57608696 	0.0012511084 	0.00016199706 	1.2618483e-07 	0.00096920753 	1.3016526e-07 	3.5126274e-06
0.58695652 	0.0012725177 	0.00018283927 	5.1793342e-07 	0.00099042397 	4.2925113e-08 	0.00025396111
0.59782609 	0.0012927984 	0.00020345715 	7.759842e-07 	0.0010099994 	6.4311759e-08 	0.00024721572
0.60869565 	0.0013130791 	0.00022407503 	5.5851818e-08 	0.0010295748 	4.6288683e-09 	0.00024047033
0.61956522 	0.0013289066 	0.00024477122 	2.55938e-07 	0.001045921 	-3.7788038e-08 	0.00023919338
0.63043478 	0.0013432469 	0.00026613532 	9.0693714e-07 	0.0010616022 	-1.3390499e-07 	0.00023397375
0.64130435 	0.0013575872 	0.00028749943 	1.9373078e-07 	0.0010772834 	-2.8603436e-08 	0.00022875412
0.65217391 	0.0013703026 	0.00030916348 	1.6888208e-07 	0.0010919044 	-3.2649202e-08 	0.00022675397
0.66304348 	0.0013818844 	0.00033175277 	9.1147011e-07 	0.0011066306 	-1.7621035e-07 	0.00022277833
0.67391304 	0.0013934663 	0.00035434205 	1.8064394e-07 	0.0011213569 	-3.4923067e-08 	0.0002188027
0.68478261 	0.0014046106 	0.00037745488 	2.4303329e-07 	0.0011364936 	-2.1781729e-08 	0.00021765466
0.69565217 	0.0014157527 	0.00040165846 	7.8370874e-07 	0.0011528372 	-7.0239478e-08 	0.000214656
0.70652174 	0.0014268948 	0.00042586205 	1.6035072e-08 	0.0011691807 	-1.4371348e-09 	0.00021165733
0.7173913 	0.0014396047 	0.00045197142 	5.1634399e-07 	0.0011887499 	8.1957899e-08 	0.00021228912
0.72826087 	0.0014529969 	0.00047911428 	5.2381839e-07 	0.0012099512 	8.3144291e-08 	0.0002100501
0.73913043 	0.0014675033 	0.0005069804 	2.8176843e-08 	0.001232638 	1.3554554e-08 	0.00021277483
0.75 	0.001488077 	0.00054067682 	1.1318347e-06 	0.0012633733 	5.4447244e-07 	0.0002111172
0.76086957 	0.0015086507 	0.00057437324 	2.3018132e-08 	0.0012941086 	1.1072941e-08 	0.00020945957
0.77173913 	0.0015414686 	0.00061537447 	9.6407345e-07 	0.0013385041 	8.4759538e-07 	0.00021692471
0.7826087 	0.0015777075 	0.00065797488 	3.9552657e-07 	0.0013871996 	3.4773958e-07 	0.00021571949
0.79347826 	0.0016300744 	0.00070314223 	6.9047539e-07 	0.001453618 	1.1277561e-06 	0.00023001181
0.80434783 	0.0016960033 	0.00075034225 	6.0074764e-07 	0.0015349211 	9.8120345e-07 	0.00022916945
0.81521739 	0.0017879086 	0.00080447006 	8.3014979e-07 	0.0016408732 	1.6802209e-06 	0.00025464724
0.82608696 	0.0019108386 	0.00087092805 	8.0004935e-07 	0.0017755222 	1.6192977e-06 	0.00025411774
0.83695652 	0.0020804472 	0.00096109663 	1.7253767e-06 	0.0019517506 	3.2990374e-06 	0.00029805748
0.84782609 	0.0022914159 	0.0010721478 	7.0477528e-07 	0.0021655528 	1.3475782e-06 	0.00029782289
0.85869565 	0.0025764309 	0.0012178033 	3.6824015e-06 	0.0024497945 	7.2311167e-06 	0.00036366657
0.86956522 	0.002895492 	0.00137807 	8.110506e-08 	0.0027661964 	2.0101414e-07 	2.5826782e-05
0.88043478 	0.0032971839 	0.0015698542 	3.5276619e-06 	0.0031666487 	7.4145271e-06 	0.00044917529
0.89130435 	0.0037245402 	0.0017675633 	2.4732298e-06 	0.0035934199 	5.5911598e-06 	0.00054530419
0.90217391 	0.0041733939 	0.0019684382 	3.7754954e-08 	0.0040430608 	1.0379049e-07 	0.00034559411
0.91304348 	0.0045905569 	0.0021485322 	2.3050948e-06 	0.0044678062 	5.565605e-06 	0.00063774728
0.92391304 	0.0049110278 	0.0022847778 	1.4864307e-06 	0.0048007369 	4.0291361e-06 	0.00070521648
0.93478261 	0.0050897223 	0.0023585794 	-1.735431e-07 	0.0049992199 	-1.3675895e-08 	0.00072452904
0.94565217 	0.0050076576 	0.002318308 	-1.7453092e-06 	0.0049477276 	-3.3731879e-06 	0.00071158011
0.95652174 	0.0046042601 	0.0021352646 	-6.9726337e-09 	0.0045783138 	3.3850501e-10 	0.00033312446
0.9673913 	0.0038040982 	0.0017708196 	-2.0219971e-06 	0.0038131147 	-4.2746511e-06 	0.0005549892
0.97826087 	0.0026264067 	0.0012276966 	-4.2044982e-09 	0.0026556084 	-3.8492317e-09 	0.00022815815
0.98913043 	0.00086404972 	0.00036717225 	-1.831137e-08 	0.00086993979 	-3.479886e-08 	9.0316118e-05
