1.4326613e-19 	0.74067635 	-5.0302971e-14 	-1.8283797e-20
0.010869565 	0.74120569 	-0.00037077411 	4.4588411e-08
0.02173913 	0.74259276 	-0.00073538 	1.4626187e-08
0.032608696 	0.74482213 	-0.0010995469 	1.3924338e-08
0.043478261 	0.74787442 	-0.001459076 	5.0940643e-08
0.054347826 	0.75173094 	-0.0018141831 	2.3046206e-08
0.065217391 	0.75679548 	-0.0021903944 	3.5958259e-07
0.076086957 	0.76177954 	-0.0025016739 	4.3791059e-08
0.086956522 	0.76795783 	-0.0028290145 	4.7428706e-07
0.097826087 	0.77477328 	-0.0031464175 	5.1470395e-07
0.10869565 	0.78229971 	-0.0034555937 	4.0974276e-07
0.11956522 	0.79052534 	-0.0037429389 	9.468104e-07
0.13043478 	0.7993228 	-0.0040196189 	1.0471585e-06
0.14130435 	0.80872073 	-0.0042822842 	3.5572292e-07
0.15217391 	0.81887122 	-0.0045270506 	2.6787274e-06
0.16304348 	0.82933189 	-0.0047679739 	1.6324458e-07
0.17391304 	0.84067266 	-0.0049720798 	3.996656e-06
0.18478261 	0.85216133 	-0.0051704275 	3.3849229e-07
0.19565217 	0.86460553 	-0.0053151268 	6.1844452e-06
0.20652174 	0.87702736 	-0.0054600324 	3.6262156e-08
0.2173913 	0.89043794 	-0.0055677295 	7.6294143e-06
0.22826087 	0.90386249 	-0.0056753118 	8.6950309e-07
0.23913043 	0.91814252 	-0.0057488739 	6.3870996e-06
0.25 	0.93261183 	-0.0058110391 	3.6066383e-06
0.26086957 	0.94756945 	-0.0058422349 	3.1353712e-06
0.27173913 	0.96309159 	-0.0058318064 	9.5014234e-06
0.2826087 	0.97875729 	-0.0058171349 	2.1782555e-07
0.29347826 	0.99512567 	-0.0057411618 	8.9634918e-06
0.30434783 	1.0116958 	-0.0056513258 	7.1252043e-06
0.31521739 	1.0286775 	-0.0055403003 	2.225796e-07
0.32608696 	1.0460873 	-0.0053658962 	1.3894275e-05
0.33695652 	1.0636456 	-0.0051838206 	6.2129861e-06
0.34782609 	1.0817068 	-0.0049669665 	1.5914338e-07
0.35869565 	1.0997765 	-0.0046810254 	1.6701902e-05
0.36956522 	1.1179629 	-0.0043845505 	8.4906088e-06
0.38043478 	1.1366367 	-0.0040415471 	1.3152922e-07
0.39130435 	1.1537466 	-0.0036688119 	1.3608268e-05
0.40217391 	1.17051 	-0.0032834239 	1.4919137e-05
0.41304348 	1.187054 	-0.002885316 	-3.0254357e-08
0.42391304 	1.2011866 	-0.0024983218 	2.8635585e-06
0.43478261 	1.2114874 	-0.002192415 	1.8982808e-05
0.44565217 	1.2217882 	-0.0018865082 	3.709018e-06
0.45652174 	1.2284587 	-0.0016553208 	7.2831663e-09
0.4673913 	1.2324337 	-0.0014849721 	3.8447701e-06
0.47826087 	1.235145 	-0.0013383062 	7.6037156e-06
0.48913043 	1.2378564 	-0.0011916403 	6.1253618e-08
0.5 	1.2378069 	-0.0010949606 	2.8177969e-08
0.51086957 	1.2373681 	-0.0010008588 	2.9526073e-06
0.52173913 	1.2366553 	-0.00090645595 	3.9974778e-06
0.5326087 	1.2358139 	-0.00081152015 	-5.8762321e-09
0.54347826 	1.2343359 	-0.00071292324 	-9.3652048e-09
0.55434783 	1.2326435 	-0.00062454868 	3.143904e-06
0.56521739 	1.2308831 	-0.00054046307 	1.8305341e-06
0.57608696 	1.2289685 	-0.00046470659 	-5.3783211e-08
0.58695652 	1.2268283 	-0.00039473641 	5.0010968e-07
0.59782609 	1.2245152 	-0.00032789438 	2.6208665e-06
0.60869565 	1.2221706 	-0.00026139149 	-3.052918e-08
0.61956522 	1.2196034 	-0.0001956973 	-3.6507216e-08
0.63043478 	1.2168263 	-0.00013373567 	2.3144103e-06
0.64130435 	1.2140161 	-7.284291e-05 	4.4890532e-08
0.65217391 	1.2109702 	-1.5189435e-05 	-9.0136067e-08
0.66304348 	1.2076729 	4.3524342e-05 	1.8372559e-06
0.67391304 	1.2043108 	0.00010217248 	-6.2916087e-09
0.68478261 	1.2006627 	0.00016339156 	-7.9156764e-08
0.69565217 	1.196667 	0.00021993107 	1.6835184e-06
0.70652174 	1.1925463 	0.00027366865 	-1.249616e-07
0.7173913 	1.1880026 	0.00032470345 	2.4058535e-07
0.72826087 	1.1829735 	0.00037913623 	7.3734838e-07
0.73913043 	1.1776246 	0.00043696564 	-2.7349053e-07
0.75 	1.1713141 	0.00050258227 	1.5881966e-06
0.76086957 	1.1644236 	0.00057246674 	-1.6272285e-07
0.77173913 	1.1561348 	0.00065081647 	7.2212314e-07
0.7826087 	1.1463473 	0.00073023902 	9.7135971e-08
0.79347826 	1.1344891 	0.00081310711 	1.4120408e-07
0.80434783 	1.1196262 	0.00091572861 	5.6329962e-07
0.81521739 	1.1021434 	0.0010371672 	-1.498109e-08
0.82608696 	1.0805879 	0.0011738707 	6.1126265e-07
0.83695652 	1.0554265 	0.0013229336 	4.1836242e-07
0.84782609 	1.0263173 	0.0014790948 	-4.521556e-08
0.85869565 	0.99263547 	0.0016403068 	1.645514e-06
0.86956522 	0.95606211 	0.001789897 	-4.091125e-07
0.88043478 	0.91510923 	0.0019202452 	1.149795e-06
0.89130435 	0.87168586 	0.0020168036 	5.3099798e-08
0.90217391 	0.82615911 	0.0020541385 	-4.1254361e-07
0.91304348 	0.77822006 	0.0020296589 	-5.352815e-07
0.92391304 	0.7301869 	0.0019352788 	-1.6536044e-06
0.93478261 	0.68213949 	0.00176096 	-5.9176491e-07
0.94565217 	0.63017795 	0.0014825941 	-2.9111939e-06
0.95652174 	0.57954876 	0.0011452055 	-3.6845022e-07
0.9673913 	0.52395887 	0.00075116713 	-6.8187592e-07
0.97826087 	0.45068393 	0.000347829 	-1.5991134e-07
0.98913043 	0.30059448 	0.0001590932 	-5.1925338e-08
