0.31958763 	1.7333302e-05 	-3.4185478e-06 	9.0870792e-09 	1.4543103e-05 	-1.0915146e-08 	6.077534e-06
0.32989691 	0.0012994568 	-0.00048855717 	-8.4573197e-08 	0.00096961629 	-1.1222648e-06 	3.9795184e-05
0.34020619 	0.0011404461 	-3.4141608e-05 	-4.0366705e-07 	0.0017722907 	-7.1383671e-07 	0.00042751645
0.35051546 	0.001116908 	0.00016057157 	6.6994262e-08 	0.0019555199 	5.5204727e-08 	0.00046207678
0.36082474 	0.0011407272 	0.0001337487 	-6.8438412e-08 	0.0020004706 	-7.9451225e-08 	0.00035234038
0.37113402 	0.0011488025 	0.00012992197 	-4.2639476e-08 	0.0020247137 	-3.395803e-07 	0.00025018841
0.3814433 	0.0011539681 	0.00013578426 	4.6768459e-08 	0.0020472198 	-4.1266632e-07 	0.00015119946
0.39175258 	0.0011595296 	0.00014504028 	9.4928752e-08 	0.0020712736 	-4.8861691e-07 	5.406971e-05
0.40206186 	0.0011661217 	0.00015575356 	1.1291689e-07 	0.0020975371 	-4.4852127e-07 	5.0941682e-05
0.41237113 	0.0011735672 	0.0001673906 	7.1870489e-08 	0.0021255077 	-2.4432317e-07 	0.00014907189
0.42268041 	0.0011815901 	0.00017964913 	3.2331513e-08 	0.0021540198 	-8.3045971e-08 	0.00020643242
0.43298969 	0.0011899789 	0.00019225106 	4.735273e-08 	0.0021831229 	-1.1483883e-07 	0.00027959828
0.44329897 	0.0011986945 	0.00020579794 	9.3398977e-08 	0.0022123325 	-2.6262499e-07 	0.00043538483
0.45360825 	0.0012074613 	0.00021980115 	1.736185e-08 	0.0022406935 	-4.010248e-08 	0.00051388759
0.46391753 	0.001215943 	0.00023345321 	3.1920087e-07 	0.0022670413 	-7.0991321e-07 	0.00022955565
0.4742268 	0.0012245854 	0.00024887105 	9.7401383e-08 	0.0022955294 	-2.5701493e-07 	0.00071654724
0.48453608 	0.0012327525 	0.00026315863 	4.9169462e-07 	0.0023186084 	-1.067275e-06 	0.00019544658
0.49484536 	0.0012409267 	0.00027933863 	5.5779665e-08 	0.0023455125 	-1.2011181e-07 	0.00082154677
0.50515464 	0.0012486231 	0.00029424609 	4.4735235e-07 	0.0023662556 	-9.6329549e-07 	0.00041049945
0.51546392 	0.0012561336 	0.00031023161 	2.4332072e-07 	0.0023890651 	-5.2920665e-07 	0.0007388513
0.5257732 	0.0012631556 	0.00032513758 	5.2214206e-07 	0.0024075992 	-1.1356248e-06 	0.00044702229
0.53608247 	0.0012699526 	0.00034099787 	2.5290779e-07 	0.0024276469 	-5.6591603e-07 	0.0008428037
0.54639175 	0.0012761013 	0.00035505251 	5.9225832e-07 	0.0024423056 	-1.3252596e-06 	0.00030850985
0.55670103 	0.0012822217 	0.00037112654 	2.3338577e-08 	0.0024609686 	-5.4787749e-08 	0.0011236584
0.56701031 	0.0012873604 	0.00038377718 	6.9243197e-07 	0.0024702816 	-1.6254971e-06 	5.4759076e-06
0.57731959 	0.0012925967 	0.00039966104 	2.9823704e-08 	0.0024866061 	-7.0011708e-08 	0.0010725264
0.58762887 	0.0012969547 	0.00041261618 	3.2814778e-07 	0.0024943325 	-8.2654299e-07 	0.00048984608
0.59793814 	0.0013010707 	0.00042644944 	2.7521291e-07 	0.0025033506 	-6.9320994e-07 	0.00057553642
0.60824742 	0.0013049072 	0.00044044808 	1.4851254e-08 	0.0025120848 	-1.0408331e-07 	0.0010654197
0.6185567 	0.0013079571 	0.00045261858 	4.457316e-07 	0.0025130593 	-1.2408615e-06 	8.7910113e-05
0.62886598 	0.0013110178 	0.00046679777 	5.9103164e-08 	0.002519409 	-1.6453588e-07 	0.0009254802
0.63917526 	0.0013134712 	0.00047925784 	4.2942205e-08 	0.0025200193 	-1.3725809e-07 	0.00092396381
0.64948454 	0.0013154818 	0.0004911549 	3.4947479e-07 	0.0025155244 	-1.1170419e-06 	0.00010354126
0.65979381 	0.0013175572 	0.00050513568 	1.5212457e-08 	0.0025160307 	-1.77991e-07 	0.0010430796
0.67010309 	0.0013189981 	0.00051674896 	7.5097471e-08 	0.0025092766 	-2.889273e-07 	0.00077507332
0.68041237 	0.0013202574 	0.00052859433 	2.1107278e-07 	0.0024997168 	-8.120738e-07 	0.00030845201
0.69072165 	0.001321404 	0.00054171283 	5.1307604e-08 	0.0024922773 	-7.4603792e-07 	0.001051101
0.70103093 	0.0013222478 	0.00055279221 	1.2769178e-07 	0.0024776781 	-6.2451197e-07 	0.00043971988
0.71134021 	0.0013229835 	0.00056509638 	5.963935e-08 	0.0024639261 	-2.9168274e-07 	0.00078221915
0.72164948 	0.0013235543 	0.00057660064 	7.8845122e-10 	0.0024478112 	-5.2652187e-09 	0.0010715724
0.73195876 	0.0013244201 	0.00058738024 	1.2127829e-07 	0.0024252166 	-8.0988738e-07 	0.00021457037
0.74226804 	0.0013249842 	0.00059923374 	3.2182052e-08 	0.0024057579 	-8.3751024e-07 	0.0011085608
0.75257732 	0.0013262205 	0.00060946731 	7.2627512e-08 	0.0023787646 	-7.5629607e-07 	0.00021139106
0.7628866 	0.001327137 	0.0006208822 	4.9787289e-09 	0.0023545669 	-1.9485256e-07 	0.001143316
0.77319588 	0.0013289805 	0.00063061247 	2.2396594e-08 	0.0023240367 	-5.1800309e-07 	0.00045540253
0.78350515 	0.0013306888 	0.00064108961 	2.3628707e-09 	0.002294957 	-5.4650022e-08 	0.0011068083
0.79381443 	0.0013334427 	0.00065013675 	-3.7555034e-09 	0.002261359 	-4.4511735e-07 	0.00050800265
0.80412371 	0.0013360985 	0.00065959912 	-2.818713e-10 	0.0022291916 	-3.3408519e-08 	0.0011702508
0.81443299 	0.0013400693 	0.0006675851 	-2.977203e-08 	0.0021927688 	-5.0375993e-07 	0.00033686472
0.82474227 	0.0013436159 	0.00067582672 	-6.5906611e-09 	0.0021594421 	-3.1630101e-07 	0.0012656421
0.83505155 	0.00134887 	0.00068256388 	-6.0806937e-08 	0.0021211794 	-5.6507739e-07 	0.00010423413
0.84536082 	0.0013533843 	0.00068937394 	-9.2640287e-09 	0.0020876893 	-6.1347962e-08 	0.0011613037
0.8556701 	0.0013593137 	0.00069514827 	-2.9005807e-08 	0.0020512188 	-1.9208135e-07 	0.00086523997
0.86597938 	0.0013663464 	0.00070037449 	-7.2497334e-08 	0.0020143679 	-3.8980879e-07 	0.00025550451
0.87628866 	0.0013735097 	0.00070566746 	-9.0141851e-09 	0.0019811942 	-4.2800055e-08 	0.0012407976
0.88659794 	0.0013834372 	0.00071069206 	-2.1024081e-08 	0.0019456436 	-9.982398e-08 	0.0010785551
0.89690722 	0.0013971359 	0.000716062 	-6.7776724e-08 	0.0019089534 	-2.9991724e-07 	0.00029280462
0.90721649 	0.0014145977 	0.00072240656 	-5.8252068e-08 	0.0018744824 	-2.4716013e-07 	0.00035238236
0.91752577 	0.0014377155 	0.00073010591 	-2.9373336e-08 	0.0018418627 	-1.2064084e-07 	0.0008365542
0.92783505 	0.0014683924 	0.00073940202 	-1.366291e-08 	0.0018112971 	-5.3779784e-08 	0.0011654223
0.93814433 	0.0015074846 	0.00075051485 	-8.8403248e-09 	0.0017855015 	-3.1628042e-08 	0.0013149606
0.94845361 	0.0015522153 	0.0007627623 	-1.538888e-08 	0.001767225 	-4.6499567e-08 	0.0012529903
0.95876289 	0.0015963111 	0.00077332631 	-9.916182e-08 	0.001750263 	-2.6061014e-07 	6.4046701e-05
0.96907216 	0.0016102438 	0.00077014406 	-1.612556e-07 	0.0017109398 	-3.8544544e-07 	0.00027700693
0.97938144 	0.0014732054 	0.00069931861 	-4.4145279e-08 	0.0015240908 	-1.0842433e-07 	0.0011841077
0.98969072 	0.00070407822 	0.0003291189 	-1.8711591e-07 	0.00071001717 	-4.1433184e-07 	0.00010628475
