0.47826087 	0.61447885 	7.1607614e-05 	-8.4437823e-09
0.48913043 	1.041166 	0.000510191 	-7.0969e-08
0.5 	1.2484996 	0.00099088577 	-1.2492535e-08
0.51086957 	1.3722891 	0.0014542267 	4.9377215e-07
0.52173913 	1.4335159 	0.001711348 	-4.4006091e-07
0.5326087 	1.4577692 	0.0018538124 	-4.2093604e-08
0.54347826 	1.4658131 	0.0018155873 	-6.0082004e-07
0.55434783 	1.4680616 	0.0017844545 	-4.5463783e-07
0.56521739 	1.4679363 	0.0017276998 	-5.6212761e-07
0.57608696 	1.4666939 	0.00166395 	-9.0342057e-07
0.58695652 	1.4648263 	0.0015932098 	-6.228821e-07
0.59782609 	1.4625362 	0.0015177418 	-3.5236896e-08
0.60869565 	1.4598957 	0.0014380069 	-1.7302006e-07
0.61956522 	1.4570787 	0.0013584889 	-4.1959067e-08
0.63043478 	1.4540288 	0.0012763218 	-1.3474237e-06
0.64130435 	1.4507537 	0.0011916122 	-6.4881413e-08
0.65217391 	1.4473191 	0.0011052838 	-4.9383868e-08
0.66304348 	1.4437576 	0.0010177885 	-1.1602467e-06
0.67391304 	1.4399447 	0.00092497762 	-9.2232795e-08
0.68478261 	1.4361218 	0.00083593208 	-8.4792976e-07
0.69565217 	1.4320427 	0.00074592006 	-3.9873455e-08
0.70652174 	1.4278721 	0.00065482142 	-2.1322775e-07
0.7173913 	1.4234577 	0.00055896844 	-1.2092497e-08
0.72826087 	1.4190192 	0.00046232738 	-1.7387372e-07
0.73913043 	1.4143292 	0.00036014218 	-1.1274795e-09
0.75 	1.4096144 	0.00026170698 	-2.9619548e-07
0.76086957 	1.4047407 	0.00016612676 	3.9459887e-09
0.77173913 	1.3997043 	7.0137221e-05 	-1.2817854e-09
0.7826087 	1.3945618 	-2.3644025e-05 	3.3105927e-09
0.79347826 	1.3892573 	-0.00011622392 	1.7503183e-08
0.80434783 	1.3837278 	-0.0002084017 	-8.1816426e-07
0.81521739 	1.3780498 	-0.0002978771 	5.6156869e-08
0.82608696 	1.371996 	-0.00038905806 	-2.3141322e-07
0.83695652 	1.3656807 	-0.0004778208 	-2.8194769e-07
0.84782609 	1.3590441 	-0.00056459496 	7.5829954e-08
0.85869565 	1.3518964 	-0.00065244471 	2.5104809e-08
0.86956522 	1.344242 	-0.0007386451 	-6.0762116e-07
0.88043478 	1.3359743 	-0.00082325003 	-3.791289e-07
0.89130435 	1.3268769 	-0.00090571515 	1.2329788e-08
0.90217391 	1.3165072 	-0.00098336151 	4.937204e-08
0.91304348 	1.3040614 	-0.001050951 	6.2788722e-08
0.92391304 	1.2877873 	-0.0010963644 	3.1561885e-08
0.93478261 	1.2636172 	-0.0010954612 	2.0316403e-07
0.94565217 	1.2241024 	-0.0010171984 	3.1305434e-07
0.95652174 	1.1575394 	-0.00083812068 	3.300992e-07
0.9673913 	1.0520611 	-0.00055701011 	1.1367326e-08
0.97826087 	0.88906201 	-0.00028955911 	3.6180843e-07
0.98913043 	0.5912254 	-5.7267579e-05 	2.0009338e-07
