0.47777778 	0.0013506709 	-0.00062796825 	6.8472427e-08 	0.0013494462 	-1.3528973e-07 	1.8131185e-05
0.48888889 	0.0036188568 	-0.0016910665 	3.1997356e-08 	0.0036203346 	-4.7557042e-08 	0.001692397
0.5 	0.0036611441 	-0.0017059046 	-1.3736748e-08 	0.0036607056 	5.3085273e-08 	0.0017676413
0.51111111 	0.003166847 	-0.001477428 	-5.0369335e-08 	0.0031637518 	1.2619591e-07 	0.0018539074
0.52222222 	0.0024779595 	-0.0011589408 	-1.369497e-07 	0.0024724121 	3.2394237e-07 	0.00065187371
0.53333333 	0.001812058 	-0.00084907317 	-5.8215459e-09 	0.0018101665 	1.3296986e-08 	0.0015321816
0.54444444 	0.0013440819 	-0.00062260995 	-2.680082e-08 	0.0013424856 	4.2470757e-08 	0.0010429336
0.55555556 	0.0010918174 	-0.0004448134 	-5.4055864e-08 	0.001093601 	5.0445417e-08 	0.00062804274
0.56666667 	0.00097983744 	-0.00028929319 	-3.2683005e-08 	0.00098770292 	7.1311745e-09 	0.00051444518
0.57777778 	0.00094875608 	-0.00017164375 	-1.5911814e-08 	0.00096133812 	-1.985435e-08 	0.00058464803
0.58888889 	0.00095609182 	-6.4904863e-05 	-1.5868039e-09 	0.00097387801 	-9.0098484e-09 	0.00079667814
0.6 	0.0009799367 	2.9697873e-05 	-9.3200193e-10 	0.0010028262 	-5.2918927e-09 	0.00085694604
0.61111111 	0.0010104534 	0.0001125601 	8.4122699e-09 	0.0010356693 	-6.4541177e-08 	0.00047702508
0.62222222 	0.0010426764 	0.0001862483 	4.7543019e-08 	0.0010692937 	-1.4642296e-07 	2.1675314e-05
0.63333333 	0.0010741327 	0.000249753 	2.5248874e-08 	0.001104402 	-5.582727e-08 	0.00065262337
0.64444444 	0.0011054277 	0.00030692137 	1.1927312e-08 	0.0011375887 	-2.6372236e-08 	0.00086705682
0.65555556 	0.0011362031 	0.00035858981 	8.4485216e-08 	0.0011667218 	-1.5958689e-07 	0.00010411618
0.66666667 	0.0011644067 	0.0004034997 	2.6884029e-08 	0.0011969872 	-4.7444113e-08 	0.0008029905
0.67777778 	0.0011915229 	0.00044417261 	4.5150876e-08 	0.0012232873 	-7.9680887e-08 	0.00064089203
0.68888889 	0.0012168815 	0.00048045265 	7.1489438e-08 	0.0012472827 	-1.2387056e-07 	0.00039763669
0.7 	0.0012400411 	0.00051262748 	1.6621652e-08 	0.0012713577 	-2.8800527e-08 	0.00098372861
0.71111111 	0.0012617798 	0.00054097931 	8.9368634e-08 	0.0012898465 	-1.6352128e-07 	0.00018536423
0.72222222 	0.0012810578 	0.00056598865 	4.9408013e-09 	0.0013109052 	-9.0403773e-09 	0.0011353399
0.73333333 	0.0012985281 	0.00058784384 	8.4836567e-08 	0.0013241476 	-1.6906693e-07 	0.00016147551
0.74444444 	0.0013145972 	0.00060855912 	2.9904723e-09 	0.001341711 	-5.9595762e-09 	0.001180445
0.75555556 	0.0013286334 	0.00061975782 	2.6741284e-08 	0.0013509461 	-1.6492219e-07 	0.00014821369
0.76666667 	0.0013419418 	0.00063052032 	-5.1527754e-09 	0.0013653632 	-1.9119946e-08 	0.0012360771
0.77777778 	0.0013534316 	0.00063478008 	-2.9390141e-08 	0.0013716152 	-1.6569453e-07 	6.085927e-05
0.78888889 	0.0013640679 	0.00063981613 	-2.6522326e-09 	0.0013830705 	-1.7143759e-08 	0.0011134463
0.8 	0.0013735623 	0.00064335331 	-1.4353691e-08 	0.0013888631 	-9.2780785e-08 	0.00052422571
0.81111111 	0.0013828232 	0.00064716111 	-9.8633901e-09 	0.001396169 	-7.8057069e-08 	0.00054328354
0.82222222 	0.0013917722 	0.00065123877 	-1.1149539e-09 	0.0014049836 	-2.5971492e-09 	0.0012641584
0.83333333 	0.0014033653 	0.00065554043 	-6.2891813e-09 	0.0014120978 	-7.9738864e-08 	0.00035685482
0.84444444 	0.0014181025 	0.00066181783 	1.1441709e-09 	0.0014246673 	-5.0190799e-08 	0.00047343477
0.85555556 	0.0014378944 	0.00067067407 	9.5808743e-10 	0.0014433099 	-2.562965e-09 	0.0012090039
0.86666667 	0.0014692097 	0.00068423337 	2.7545344e-09 	0.0014707262 	-7.3686127e-09 	0.0010821172
0.87777778 	0.0015188697 	0.00070604711 	1.8891127e-08 	0.0015154044 	5.0757787e-09 	0.00059401128
0.88888889 	0.0015953551 	0.00074039425 	4.8401098e-08 	0.0015871951 	6.0372245e-08 	0.00022707989
0.9 	0.0017130439 	0.00079405564 	8.5841179e-08 	0.0017007757 	1.421473e-07 	1.1220984e-05
0.91111111 	0.0018896264 	0.00087545401 	1.1561769e-07 	0.0018741777 	2.1206603e-07 	1.190974e-05
0.92222222 	0.002138831 	0.00099137117 	1.1418475e-07 	0.0021214922 	2.1772033e-07 	0.00035240376
0.93333333 	0.0024546249 	0.001139165 	6.5433514e-08 	0.0024372849 	1.2644624e-07 	0.0012147351
0.94444444 	0.0028022716 	0.0013018417 	2.7775099e-07 	0.0027870497 	5.9771288e-07 	0.0024531933
0.95555556 	0.0031105424 	0.0014443426 	5.7144625e-08 	0.0030928518 	1.0529618e-07 	0.0007551749
0.96666667 	0.0032974844 	0.001532636 	5.0504122e-10 	0.0032866164 	7.858403e-10 	0.0028346646
0.97777778 	0.0031497099 	0.0014664332 	5.1675378e-09 	0.003140474 	4.0727179e-09 	0.001641902
0.98888889 	0.0018004107 	0.00084200792 	-3.8233533e-09 	0.0017970867 	-1.1444775e-08 	0.0010637248
