0 	0.014938207 	-1.014527e-15 	-3.687537e-22 	6.8901506e-29 	2.5043874e-35 	9.1027852e-42
0.010869565 	0.014983623 	-0.00095844478 	2.6736612e-08 	0.023991676 	-1.6383766e-05 	0.020086789
0.02173913 	0.015121113 	-0.0019509574 	5.3236279e-09 	0.024094333 	-1.25618e-05 	0.018339689
0.032608696 	0.015342435 	-0.0029174166 	1.0558913e-06 	0.024243239 	-9.1307405e-06 	0.01043058
0.043478261 	0.015636581 	-0.0038287 	3.252638e-07 	0.024439178 	-2.6641547e-05 	0.015133884
0.054347826 	0.016000867 	-0.0047216813 	3.0055178e-06 	0.024670922 	-1.7359072e-05 	0.001550491
0.065217391 	0.0164352 	-0.0055861835 	1.6258109e-06 	0.024944823 	-8.3136196e-06 	0.0063648592
0.076086957 	0.016864256 	-0.0063254022 	2.3932136e-06 	0.025202136 	-1.0814259e-05 	0.0030546341
0.086956522 	0.017338412 	-0.0070523205 	1.151513e-06 	0.025476783 	-2.0351885e-05 	0.0092943515
0.097826087 	0.017825141 	-0.0077438861 	3.6196455e-06 	0.025740564 	-4.6382649e-05 	0.0079401079
0.10869565 	0.01831291 	-0.0084015735 	3.6858994e-07 	0.025986775 	-1.3482462e-06 	0.0055904996
0.11956522 	0.018785361 	-0.0090018202 	2.1390721e-06 	0.026179752 	-2.0466681e-05 	0.0051799992
0.13043478 	0.019221057 	-0.0095458465 	7.0391538e-06 	0.02631188 	-5.0618302e-05 	0.0038689109
0.14130435 	0.019635793 	-0.010055589 	8.3217681e-07 	0.026394872 	-2.584678e-06 	0.00055882438
0.15217391 	0.019949271 	-0.010454791 	1.1240779e-05 	0.026352628 	-6.0949395e-05 	0.0012862708
0.16304348 	0.02022339 	-0.010821877 	4.358717e-06 	0.026261611 	-1.8776971e-05 	5.298197e-05
0.17391304 	0.020374242 	-0.011089624 	1.2035684e-05 	0.026036081 	-5.1848671e-05 	0.0012848768
0.18478261 	0.020463697 	-0.011315035 	5.2275245e-06 	0.025733297 	-1.8996451e-05 	0.0024269395
0.19565217 	0.020394296 	-0.011434265 	1.3620734e-05 	0.025248213 	-4.9496775e-05 	0.0035366598
0.20652174 	0.020263089 	-0.011513329 	1.8955176e-06 	0.024678853 	-5.8336686e-06 	0.004389274
0.2173913 	0.019890287 	-0.011434806 	1.9897168e-05 	0.023860892 	-6.1235772e-05 	0.0053540834
0.22826087 	0.019455441 	-0.011315329 	2.5664042e-06 	0.022959658 	-5.9792644e-06 	0.0010412655
0.23913043 	0.018744555 	-0.011003429 	2.8237535e-05 	0.021808812 	-7.245619e-05 	0.0065300496
0.25 	0.01795675 	-0.010638729 	5.7952266e-07 	0.020583281 	-1.216081e-06 	0.0062087561
0.26086957 	0.016899603 	-0.010074524 	1.1701874e-05 	0.019093122 	-2.5340717e-05 	0.0068070114
0.27173913 	0.015688271 	-0.0093971597 	1.6831783e-05 	0.0175085 	-3.6449667e-05 	0.0074080093
0.2826087 	0.01430824 	-0.0085900375 	3.1475003e-06 	0.015752057 	-6.0198647e-06 	0.0015823351
0.29347826 	0.012847649 	-0.0077099064 	2.9561819e-05 	0.013992689 	-5.6477951e-05 	0.0064034091
0.30434783 	0.011331009 	-0.0067899014 	2.9837265e-07 	0.012210547 	-5.1962942e-07 	0.0062734742
0.31521739 	0.0097147067 	-0.0057787298 	1.7224269e-06 	0.010356408 	-2.9996841e-06 	0.0026119375
0.32608696 	0.0082363068 	-0.0048606163 	3.1416855e-05 	0.0087052125 	-5.6161893e-05 	0.0047555086
0.33695652 	0.0068205655 	-0.0039843569 	1.1255834e-06 	0.007144383 	-1.77543e-06 	0.0032155076
0.34782609 	0.0055164065 	-0.0031730935 	1.4901451e-06 	0.005721712 	-2.3504686e-06 	0.0014609588
0.35869565 	0.0044049496 	-0.0024892488 	1.7538336e-05 	0.0045259415 	-3.0876467e-05 	0.002745661
0.36956522 	0.003473816 	-0.0019244937 	6.5533514e-07 	0.0035324589 	-9.1973867e-07 	0.0019519094
0.38043478 	0.0027362741 	-0.0014818319 	1.4415883e-06 	0.0027482604 	-2.0232159e-06 	0.00042612912
0.39130435 	0.0020879731 	-0.0010928846 	3.6135205e-06 	0.0020637153 	-6.4278067e-06 	0.0013092027
0.40217391 	0.0016291129 	-0.00081855349 	7.974421e-08 	0.0015786086 	-7.6387401e-08 	0.0012380054
0.41304348 	0.0013681516 	-0.00066020571 	1.0248934e-06 	0.0012949254 	-9.8175078e-07 	1.738061e-05
0.42391304 	0.0011213776 	-0.0005110589 	2.3807808e-07 	0.0010313877 	-2.2805626e-07 	0.00056784321
0.43478261 	0.00096193207 	-0.00040001403 	1.5973031e-06 	0.00084884815 	-2.5859041e-06 	0.00074700697
0.44565217 	0.00091283727 	-0.0003365289 	2.9726057e-07 	0.00076417342 	1.7284651e-07 	0.00036970401
0.45652174 	0.00090362805 	-0.00029162112 	4.3460213e-07 	0.00071641762 	2.5270577e-07 	0.00019902405
0.4673913 	0.00089390935 	-0.0002489537 	3.9049833e-08 	0.00067207379 	2.2706097e-08 	0.00072425783
0.47826087 	0.00091306674 	-0.00020671715 	8.5577485e-08 	0.0006552028 	-5.3334166e-08 	0.00078690183
0.48913043 	0.00096676899 	-0.00016559439 	4.3256281e-07 	0.00066181202 	7.1703438e-07 	0.00026929329
0.5 	0.00102094 	-0.0001253093 	4.4362226e-07 	0.00067142137 	7.35367e-07 	0.00032467007
0.51086957 	0.0010742081 	-8.5800243e-05 	2.209641e-08 	0.00068308671 	3.6627943e-08 	0.0009655583
0.52173913 	0.0011206035 	-5.2522088e-05 	7.0172795e-08 	0.00070348353 	1.4550099e-07 	0.00090314204
0.5326087 	0.0011644681 	-2.439167e-05 	5.1012241e-07 	0.00072855524 	1.0577221e-06 	0.00024469187
0.54347826 	0.0012084424 	4.0605728e-06 	3.9172974e-07 	0.00075830761 	8.1223881e-07 	0.0004794076
0.55434783 	0.001251336 	3.2248728e-05 	1.2997358e-07 	0.00079017435 	6.2037867e-08 	0.0011470692
0.56521739 	0.0012823615 	5.589238e-05 	2.0091155e-07 	0.00081570401 	4.3873119e-07 	0.00076829181
0.57608696 	0.0013097564 	7.8258357e-05 	5.973657e-07 	0.00083952351 	1.3044694e-06 	1.1699052e-05
0.58695652 	0.0013361687 	0.00010079639 	1.8083118e-07 	0.00087113185 	3.9488163e-07 	0.00085087947
0.59782609 	0.0013596536 	0.00012334247 	2.0997897e-08 	0.00089779604 	4.3505205e-08 	0.0011727414
0.60869565 	0.0013769292 	0.00014675182 	4.0882455e-07 	0.00091586781 	8.4703702e-07 	0.0003162272
0.61956522 	0.0013933196 	0.00017042881 	2.9735122e-07 	0.00093859376 	6.1607722e-07 	0.00057541199
0.63043478 	0.0014088153 	0.0001942472 	1.4788079e-07 	0.00096234705 	1.568472e-08 	0.0012488511
0.64130435 	0.0014217184 	0.00021906101 	2.9584854e-07 	0.00097809292 	6.0994949e-07 	0.0004841655
0.65217391 	0.0014336084 	0.00024441206 	3.048782e-07 	0.00099653039 	6.285659e-07 	0.00046638227
0.66304348 	0.0014447066 	0.00027002469 	1.6448359e-07 	0.0010178342 	5.7451048e-09 	0.0012658354
0.67391304 	0.0014551007 	0.00029592868 	2.5801453e-07 	0.001033684 	5.5133188e-07 	0.00046542429
0.68478261 	0.0014645924 	0.00032243976 	2.302367e-07 	0.0010528189 	4.9197553e-07 	0.00055632009
0.69565217 	0.0014737443 	0.00034922306 	1.2582664e-08 	0.0010741547 	1.1803309e-09 	0.0012783641
0.70652174 	0.0014837154 	0.00037655551 	2.8371551e-07 	0.0010917823 	6.2324735e-07 	0.00023464541
0.7173913 	0.0014927165 	0.00040470635 	1.1096699e-07 	0.0011149056 	2.437649e-07 	0.00087844632
0.72826087 	0.0015033476 	0.00043405129 	9.4257484e-08 	0.001138858 	2.0608761e-07 	0.00089871067
0.73913043 	0.0015153443 	0.0004649668 	2.4849816e-07 	0.0011641661 	5.4332443e-07 	0.00026010699
0.75 	0.0015274228 	0.00049746018 	1.4537355e-07 	0.0011954829 	7.6245583e-08 	0.0013108879
0.76086957 	0.0015475305 	0.00053492913 	2.4411273e-07 	0.0012291026 	5.1528233e-07 	0.00023151195
0.77173913 	0.0015679728 	0.00057468313 	5.65194e-08 	0.0012697725 	1.1930327e-07 	0.0010929132
0.7826087 	0.001601427 	0.00062514725 	1.3213723e-07 	0.0013192693 	3.6426358e-07 	0.00057800511
0.79347826 	0.001641046 	0.00068305751 	8.9620675e-08 	0.0013777688 	2.4705791e-07 	0.00087320613
0.80434783 	0.0016961202 	0.00073233619 	9.1171556e-08 	0.0014556129 	3.1135525e-07 	0.00079058443
0.81521739 	0.0017652785 	0.00077444024 	9.1519365e-08 	0.00155317 	3.1254304e-07 	0.00086082862
0.82608696 	0.0018690941 	0.00083324065 	1.532571e-07 	0.0016771423 	3.9927474e-07 	0.00083709286
0.83695652 	0.0020077191 	0.00090913444 	1.1585012e-07 	0.001828925 	3.0181979e-07 	0.0011657654
0.84782609 	0.0022020062 	0.0010126065 	3.418535e-07 	0.002027338 	7.7624958e-07 	0.00063943014
0.85869565 	0.0024368856 	0.0011378921 	3.8599806e-08 	0.0022655908 	8.7648901e-08 	0.0019996135
0.86956522 	0.0027483927 	0.0012947726 	7.2870077e-07 	0.0025703884 	1.6395034e-06 	4.0314435e-05
0.88043478 	0.0031059152 	0.0014735119 	1.6705458e-07 	0.0029283355 	3.9448156e-07 	0.0021513623
0.89130435 	0.0035205397 	0.0016686258 	3.3151855e-07 	0.0033391455 	7.8284566e-07 	0.0020271714
0.90217391 	0.0039541717 	0.0018632452 	8.7463192e-07 	0.0037685453 	2.1905997e-06 	0.00030467471
0.91304348 	0.0043964065 	0.0020583077 	2.5382214e-07 	0.0042176364 	6.6943371e-07 	0.0027284592
0.92391304 	0.0047870819 	0.002223887 	4.4286875e-08 	0.0046194188 	1.1680276e-07 	0.0040534323
0.93478261 	0.0049932664 	0.0023069042 	2.285664e-07 	0.0048428479 	6.3405683e-07 	0.0030289552
0.94565217 	0.0049972277 	0.0023032226 	-5.3800553e-08 	0.0048806901 	-9.7163178e-08 	0.0044475437
0.95652174 	0.0046283314 	0.002133967 	6.0050795e-08 	0.0045441454 	3.8645027e-07 	0.00031106764
0.9673913 	0.0038676514 	0.0017905004 	-5.0424809e-08 	0.0038335126 	-2.5475732e-08 	0.0021133818
0.97826087 	0.0026575715 	0.0012360531 	-7.3432514e-08 	0.0026596986 	-3.9854673e-08 	0.00022055777
0.98913043 	0.00083950544 	0.00035456875 	7.081607e-08 	0.00084269637 	1.8482879e-07 	9.0650188e-05
