0 	0.0086894658 	-5.9017994e-16 	-1.7718661e-21 	4.2418296e-18 	1.8520228e-19 	8.0861062e-21
0.010869565 	0.0087026961 	-0.00041450248 	1.619487e-07 	0.0096574808 	-2.3072943e-05 	0.0042646107
0.02173913 	0.0087443562 	-0.00077784982 	1.0716184e-07 	0.009697695 	-1.8656835e-05 	0.0047026024
0.032608696 	0.0088053625 	-0.0011376941 	3.8507178e-08 	0.0097533257 	-5.3658855e-06 	0.0051348562
0.043478261 	0.0088843327 	-0.0014907865 	8.6966974e-08 	0.0098232999 	-7.979837e-06 	0.0055767582
0.054347826 	0.0089808142 	-0.0018368794 	2.4192024e-07 	0.0099021188 	-1.0659634e-06 	0.0033573671
0.065217391 	0.0091006975 	-0.0021968269 	5.9490148e-07 	0.0099994401 	-2.2702029e-06 	0.00083273184
0.076086957 	0.0092113233 	-0.0024896562 	4.3158326e-07 	0.01009666 	-1.4237667e-06 	0.0033715066
0.086956522 	0.0093382916 	-0.0027947609 	1.5726511e-07 	0.010208606 	-3.8396712e-06 	0.0073248588
0.097826087 	0.0094766779 	-0.0030914114 	1.9943043e-07 	0.010318627 	-5.783744e-07 	0.006368632
0.10869565 	0.0096218763 	-0.0033758338 	1.2685287e-06 	0.010421818 	-3.3079137e-06 	0.00012830767
0.11956522 	0.009757332 	-0.0036366882 	1.7933216e-07 	0.010540463 	-4.2775098e-07 	0.0075923141
0.13043478 	0.0098983821 	-0.0038883711 	5.6290907e-07 	0.010642148 	-1.3426756e-06 	0.0058060817
0.14130435 	0.010031776 	-0.0041227112 	1.249831e-06 	0.010734054 	-2.76782e-06 	0.0027417586
0.15217391 	0.010153607 	-0.004340369 	6.8649442e-08 	0.010834454 	-1.52028e-07 	0.0095177711
0.16304348 	0.010268636 	-0.0045375645 	1.9933831e-06 	0.010884438 	-4.1445451e-06 	0.00011023669
0.17391304 	0.010367544 	-0.0047187478 	3.658834e-08 	0.010958327 	-1.879368e-07 	0.010618346
0.18478261 	0.010447129 	-0.0048737168 	2.0365884e-06 	0.010961893 	-4.0018048e-06 	0.00098377935
0.19565217 	0.010514352 	-0.0050192278 	7.2029249e-08 	0.010994923 	-1.346483e-07 	0.010654974
0.20652174 	0.010537691 	-0.0051300771 	2.1761163e-06 	0.01095147 	-4.0679357e-06 	0.00035101492
0.2173913 	0.01055608 	-0.0052372894 	5.0522063e-08 	0.010945504 	-9.4443713e-08 	0.010185793
0.22826087 	0.010513215 	-0.0052972104 	1.7630571e-06 	0.010834581 	-3.1311909e-06 	0.0017955317
0.23913043 	0.010466568 	-0.0053539718 	4.9330895e-07 	0.010749781 	-8.7611711e-07 	0.0074521202
0.25 	0.010358601 	-0.0053674151 	9.0740509e-07 	0.010582487 	-1.5159317e-06 	0.0050746496
0.26086957 	0.010219871 	-0.0053584803 	1.1113202e-06 	0.010385102 	-1.8565971e-06 	0.0036996003
0.27173913 	0.010059982 	-0.005336481 	3.9891136e-07 	0.010181535 	-1.003288e-06 	0.0087296545
0.2826087 	0.0097897355 	-0.0052430446 	1.4538982e-06 	0.0098440688 	-2.2487713e-06 	0.00070866306
0.29347826 	0.0095401779 	-0.005162562 	2.722367e-07 	0.0095575909 	-4.2107355e-07 	0.0063649799
0.30434783 	0.0091887447 	-0.0050174453 	2.5838776e-07 	0.009159909 	-3.5073733e-07 	0.0057983612
0.31521739 	0.0087624308 	-0.0048236247 	9.0307644e-07 	0.0086825915 	-1.2258422e-06 	0.0010894228
0.32608696 	0.0083601717 	-0.00464403 	1.3027445e-06 	0.0082515855 	-2.6112241e-06 	0.0062949317
0.33695652 	0.0077999644 	-0.0043580555 	1.2158652e-07 	0.0076568541 	-8.9293946e-08 	0.0042355609
0.34782609 	0.0071861287 	-0.0040340778 	2.9099421e-07 	0.0070111886 	-2.1370808e-07 	0.0010976847
0.35869565 	0.0065977611 	-0.0037222336 	3.0971648e-06 	0.0064072761 	-5.4084674e-06 	0.004590796
0.36956522 	0.0058651252 	-0.0032911521 	-1.0565056e-07 	0.0056687564 	1.9831791e-07 	0.0035990534
0.38043478 	0.0050578941 	-0.0027940605 	-4.5402546e-07 	0.0048629174 	8.5225649e-07 	0.00031549789
0.39130435 	0.004315757 	-0.0023399601 	-9.9903964e-09 	0.0041316614 	1.875309e-08 	0.0025675547
0.40217391 	0.0036033606 	-0.0019024041 	2.4152915e-06 	0.0034382018 	-3.8851631e-06 	0.0025768924
0.41304348 	0.0029262031 	-0.0014851461 	-6.169987e-07 	0.0027858612 	1.0177181e-06 	0.00052397869
0.42391304 	0.0022996237 	-0.0011000292 	-2.6423117e-07 	0.0021873792 	4.3584021e-07 	0.00070041793
0.43478261 	0.0018155774 	-0.00079276775 	7.8895775e-06 	0.0017263269 	-1.1884808e-05 	0.001052301
0.44565217 	0.001480163 	-0.0005652047 	-1.0482227e-07 	0.0014070992 	1.5902629e-07 	0.00076333133
0.45652174 	0.0012895778 	-0.00041605476 	-3.3409991e-07 	0.0012263413 	5.0686434e-07 	8.9331831e-05
0.4673913 	0.0011119108 	-0.00027763098 	-9.693323e-09 	0.0010599067 	1.470578e-08 	0.00058226615
0.47826087 	0.0010210036 	-0.00017269826 	2.3977926e-06 	0.0009742346 	-2.382607e-06 	0.00059025218
0.48913043 	0.00096997027 	-8.294649e-05 	-6.1968715e-08 	0.00092566957 	3.3820732e-08 	0.00034813843
0.5 	0.00096096146 	-9.8157759e-06 	-1.102069e-07 	0.00091679725 	6.0147741e-08 	0.00015327632
0.51086957 	0.00095411531 	5.8995893e-05 	3.8538918e-07 	0.00091113382 	-1.0978265e-07 	0.00055204467
0.52173913 	0.00095880373 	0.00011234317 	9.3270112e-07 	0.0009159042 	-2.6569092e-07 	0.00054694595
0.5326087 	0.00096991467 	0.00015614225 	-3.263611e-08 	0.00092645179 	-1.6821054e-08 	0.00026692366
0.54347826 	0.00098611936 	0.00019335851 	-3.5773902e-08 	0.00094248999 	-1.8438311e-08 	0.00025064853
0.55434783 	0.0010027884 	0.00022832007 	4.9433888e-07 	0.00095981258 	-2.8613918e-08 	0.00056678992
0.56521739 	0.0010197757 	0.00025894861 	1.5151936e-07 	0.00097712882 	-8.7704263e-09 	0.00056265274
0.57608696 	0.0010368013 	0.00028380733 	-2.44997e-08 	0.00099402702 	-4.5188153e-08 	8.3201319e-05
0.58695652 	0.0010543454 	0.00030882315 	-2.8948236e-09 	0.0010132905 	-5.3393198e-09 	0.0005286719
0.59782609 	0.0010711659 	0.00033135803 	4.0566629e-07 	0.0010309952 	-3.0647105e-08 	0.00058483706
0.60869565 	0.0010875141 	0.00035250266 	-7.5642895e-09 	0.0010475816 	-2.3202171e-08 	0.00032446876
0.61956522 	0.0011036121 	0.00037267889 	-7.4683981e-09 	0.0010644049 	-2.290804e-08 	0.00034068749
0.63043478 	0.0011196578 	0.00039252092 	3.4700896e-07 	0.0010816671 	-5.8564384e-08 	0.00060430396
0.64130435 	0.0011353857 	0.00041146467 	-2.7060585e-09 	0.0010978516 	-1.0573894e-08 	0.00046486928
0.65217391 	0.001150977 	0.00042968734 	-6.7318118e-09 	0.0011138045 	-2.630448e-08 	0.00027007999
0.66304348 	0.0011671895 	0.00044833845 	2.6592106e-07 	0.0011315428 	-3.0333918e-08 	0.00062298375
0.67391304 	0.0011836867 	0.00046645056 	-2.0942526e-09 	0.0011487171 	-9.2376593e-09 	0.00046692769
0.68478261 	0.0012010168 	0.00048456821 	-3.7397508e-09 	0.0011669683 	-1.6495882e-08 	0.00035889197
0.69565217 	0.0012202432 	0.0005034644 	2.8161984e-07 	0.0011878699 	6.3375099e-08 	0.00064414118
0.70652174 	0.0012412319 	0.00052228093 	-2.8062985e-09 	0.0012092725 	-1.284061e-08 	0.00029191656
0.7173913 	0.0012645381 	0.00054223086 	-1.151115e-10 	0.0012343443 	-5.2670869e-10 	0.00065910837
0.72826087 	0.0012936381 	0.0005663785 	1.4230014e-07 	0.0012641426 	9.9061674e-08 	0.00067300163
0.73913043 	0.0013280795 	0.00059408078 	4.5614215e-09 	0.0012977955 	-1.9430124e-09 	0.00012972773
0.75 	0.0013706204 	0.0006243576 	4.3821719e-07 	0.0013418194 	6.1854997e-07 	0.00071907787
0.76086957 	0.0014232363 	0.0006540054 	1.1450353e-08 	0.0013943904 	1.8681507e-08 	0.00031545574
0.77173913 	0.0014891993 	0.00068672768 	1.9045796e-07 	0.0014621697 	3.863487e-07 	0.00079380463
0.7826087 	0.0015781608 	0.00073019655 	6.4250684e-09 	0.0015512371 	1.3289558e-08 	0.00068313408
0.79347826 	0.0016939055 	0.00078643203 	4.7815721e-09 	0.001666876 	9.8901639e-09 	0.00082844921
0.80434783 	0.0018490288 	0.00086220238 	1.1178341e-07 	0.0018211823 	2.2589273e-07 	0.00092355573
0.81521739 	0.0020520239 	0.00096159045 	1.7398073e-08 	0.0020223326 	3.6141622e-08 	0.00091623135
0.82608696 	0.0023013225 	0.0010821878 	9.370986e-08 	0.0022701716 	1.9215857e-07 	0.0011401223
0.83695652 	0.0026084661 	0.0012287937 	2.5753733e-09 	0.0025758916 	5.626731e-09 	0.001413043
0.84782609 	0.0029541025 	0.0013902133 	3.1817297e-08 	0.0029195805 	7.4567611e-08 	0.0010476214
0.85869565 	0.0033349353 	0.001565537 	1.4022453e-06 	0.0033015336 	3.0979534e-06 	0.0017940526
0.86956522 	0.003708545 	0.0017344885 	6.0025681e-08 	0.003673746 	1.5678116e-07 	0.00016455919
0.88043478 	0.00406765 	0.0018974234 	1.1497977e-06 	0.004040668 	2.6102275e-06 	0.002119212
0.89130435 	0.0043627504 	0.0020309144 	-5.6210003e-10 	0.0043432415 	-5.2546738e-10 	0.0022856522
0.90217391 	0.0045531666 	0.0021172891 	-8.788089e-08 	0.0045405908 	-1.787561e-07 	0.00060032336
0.91304348 	0.0046384598 	0.0021584175 	-1.5923675e-08 	0.0046419654 	1.8382997e-08 	0.0024527148
0.92391304 	0.0045819291 	0.0021344636 	-6.4663695e-07 	0.0045991764 	-1.3291289e-06 	0.002418656
0.93478261 	0.0043924124 	0.002049127 	-8.2803265e-08 	0.0044229478 	-1.7459928e-07 	0.0022892624
0.94565217 	0.0040473956 	0.0018912491 	-1.5288831e-06 	0.0040890395 	-3.2588942e-06 	0.0021426246
0.95652174 	0.0035937294 	0.0016805641 	-1.6032195e-07 	0.0036362066 	-3.514952e-07 	0.0004257096
0.9673913 	0.0030162677 	0.0014110412 	-1.7996922e-07 	0.0030539102 	-3.909895e-07 	0.0016338163
0.97826087 	0.0022472706 	0.0010483415 	-7.1382092e-08 	0.0022621009 	-1.5886404e-07 	0.00027525519
0.98913043 	0.00081687062 	0.00037955294 	-2.818144e-08 	0.00081558528 	-6.4003726e-08 	6.5609748e-05
