1.640171e-35 	0.011006106 	-7.4747869e-16 	-2.7168872e-22 	5.076516e-29 	2.3040664e-35 	3.2559073e-34
0.010869565 	0.011021888 	-0.00052385488 	5.0744318e-08 	0.012581638 	-1.4309474e-05 	0.0086454537
0.02173913 	0.011081935 	-0.0010334028 	3.6005723e-08 	0.012635162 	-1.8813662e-05 	0.0079559347
0.032608696 	0.011173493 	-0.0015365466 	2.0837901e-09 	0.012713251 	-1.5568224e-08 	0.007271723
0.043478261 	0.011294032 	-0.002026447 	1.5237156e-07 	0.01281421 	-1.784799e-05 	0.0066799761
0.054347826 	0.011443021 	-0.0025068498 	4.138657e-07 	0.012931603 	-1.9700275e-06 	0.0027514762
0.065217391 	0.011623745 	-0.0029950902 	4.8613344e-07 	0.013079076 	-2.012385e-06 	0.0021104328
0.076086957 	0.01179747 	-0.0034029371 	2.9292872e-07 	0.013220601 	-1.052131e-06 	0.0031234417
0.086956522 	0.011996323 	-0.003819753 	7.4673098e-07 	0.013379505 	-1.699808e-05 	0.004335727
0.097826087 	0.012204169 	-0.0042186548 	1.2684729e-06 	0.013538832 	-1.9653199e-05 	0.0037967823
0.10869565 	0.012417844 	-0.0046014781 	3.7357836e-07 	0.013695558 	-1.0638637e-06 	0.0014426118
0.11956522 	0.012625175 	-0.004953194 	1.3551023e-06 	0.013847427 	-1.4838102e-05 	0.0026762797
0.13043478 	0.012825046 	-0.0052836117 	2.4664423e-06 	0.013985087 	-1.9619754e-05 	0.0021501168
0.14130435 	0.013016712 	-0.0055957026 	1.5087068e-07 	0.014110228 	-1.2001276e-06 	0.0015926226
0.15217391 	0.013180571 	-0.0058656249 	5.4084137e-06 	0.014196373 	-3.2248744e-05 	0.001080985
0.16304348 	0.013335321 	-0.0061242375 	5.6483956e-07 	0.014269779 	-2.6249813e-06 	0.00055888171
0.17391304 	0.013440789 	-0.0063326739 	6.3853623e-06 	0.014286181 	-2.9674721e-05 	5.8810465e-05
0.18478261 	0.013533182 	-0.0065309376 	1.6419338e-06 	0.014291761 	-6.1587753e-06 	0.00050114018
0.19565217 	0.013558628 	-0.0066767274 	7.6315634e-06 	0.014232164 	-2.8625445e-05 	0.0009761579
0.20652174 	0.013570815 	-0.0068133529 	3.2649061e-07 	0.014159078 	-1.0217653e-06 	0.0014240784
0.2173913 	0.013483886 	-0.0068791936 	1.0893609e-05 	0.013984276 	-3.409198e-05 	0.0018529774
0.22826087 	0.013389611 	-0.0069401294 	3.3875172e-07 	0.013798549 	-6.4004626e-07 	0.00097475261
0.23913043 	0.013173847 	-0.0069187601 	1.1409276e-05 	0.01349281 	-3.0588044e-05 	0.0025734732
0.25 	0.012936142 	-0.0068825406 	2.7959662e-06 	0.013163496 	-7.4959298e-06 	0.0029481192
0.26086957 	0.012591078 	-0.0067772352 	5.179294e-06 	0.012728257 	-1.2115745e-05 	0.0030587083
0.27173913 	0.012153376 	-0.0066112027 	1.1865568e-05 	0.012208063 	-2.7756715e-05 	0.0033701927
0.2826087 	0.011657347 	-0.0064085746 	5.9102822e-07 	0.011624208 	-9.4561749e-07 	0.00020108908
0.29347826 	0.011026416 	-0.006114673 	1.5186199e-05 	0.010933406 	-3.1300701e-05 	0.0034382237
0.30434783 	0.010340102 	-0.0057827892 	6.0647741e-06 	0.010186428 	-1.2500276e-05 	0.003677721
0.31521739 	0.0095261937 	-0.0053645118 	7.9190413e-08 	0.0093179643 	-1.0020259e-07 	0.001731346
0.32608696 	0.0086119613 	-0.0048621217 	2.3637071e-05 	0.0083807613 	-4.2624594e-05 	0.0031804783
0.33695652 	0.0076653629 	-0.0043339701 	2.0239489e-06 	0.0074146242 	-3.6497753e-06 	0.0033413549
0.34782609 	0.0065701695 	-0.0036876678 	-2.4880547e-07 	0.0063233096 	3.7548465e-07 	0.0012303414
0.35869565 	0.0055501366 	-0.0030810194 	2.225326e-05 	0.0053247785 	-3.6659964e-05 	0.0022086268
0.36956522 	0.0045381759 	-0.0024768869 	2.5436061e-06 	0.0043369624 	-4.1903302e-06 	0.0022917522
0.38043478 	0.0035639443 	-0.001888212 	-6.1012977e-07 	0.003399285 	9.1482693e-07 	0.00030499154
0.39130435 	0.0027724626 	-0.0014092804 	8.601825e-06 	0.0026432282 	-1.375201e-05 	0.0010158332
0.40217391 	0.0021214298 	-0.0010131247 	5.9202045e-06 	0.00202072 	-9.4648181e-06 	0.0010443965
0.41304348 	0.0016715525 	-0.00073649353 	-3.8105171e-07 	0.001589489 	5.907444e-07 	0.00016921744
0.42391304 	0.0013425839 	-0.0005330821 	-2.745861e-08 	0.0012762803 	4.2569079e-08 	0.00047999022
0.43478261 	0.0011452627 	-0.00038077494 	5.4076858e-06 	0.0010868557 	-7.1331859e-06 	0.00052118569
0.44565217 	0.00098866568 	-0.00024449395 	-2.7837293e-08 	0.00093548688 	3.0518147e-08 	0.00041498332
0.45652174 	0.00096172772 	-0.00016129739 	-9.6086915e-08 	0.00090582398 	1.0534051e-07 	0.00012447073
0.4673913 	0.00094034363 	-8.5656107e-05 	5.7490003e-07 	0.00088303554 	-2.2723691e-07 	0.00049679212
0.47826087 	0.00093680409 	-2.0257981e-05 	1.4819051e-06 	0.00087706553 	-5.8574277e-07 	0.00050495825
0.48913043 	0.00094634922 	3.7714488e-05 	-1.7825893e-08 	0.00088323466 	-1.8809155e-09 	0.00028414949
0.5 	0.00097000058 	8.7073748e-05 	-2.5984473e-08 	0.0009032571 	-2.7417755e-09 	0.00020409393
0.51086957 	0.00099306994 	0.00013316976 	4.2132754e-07 	0.00092396074 	1.1043264e-08 	0.00057603776
0.52173913 	0.0010157726 	0.00017194131 	5.0444854e-07 	0.00094456205 	1.3221919e-08 	0.00058304017
0.5326087 	0.0010387704 	0.00020324536 	-4.9343275e-09 	0.00096552398 	-2.2647136e-08 	0.00024103229
0.54347826 	0.001062313 	0.00023154759 	-4.3154621e-09 	0.00098818517 	-1.9806723e-08 	0.0003148802
0.55434783 	0.001084959 	0.00025872871 	3.7793266e-07 	0.0010107244 	1.6240257e-08 	0.00065122681
0.56521739 	0.0011058846 	0.00028347202 	1.278041e-10 	0.0010312697 	-9.8126258e-10 	0.00064350651
0.57608696 	0.0011241495 	0.00030374272 	5.8143751e-09 	0.0010485612 	-4.4641985e-08 	4.6376134e-05
0.58695652 	0.001143012 	0.00032522355 	8.1481869e-10 	0.0010687333 	-6.2560676e-09 	0.00061404129
0.59782609 	0.0011600153 	0.00034519953 	2.2738984e-07 	0.0010863562 	-4.2651903e-08 	0.00071007072
0.60869565 	0.0011753318 	0.00036364522 	8.1569598e-09 	0.001101475 	-2.6874116e-08 	0.000303209
0.61956522 	0.0011900469 	0.00038202856 	6.4252482e-09 	0.0011171104 	-2.1168777e-08 	0.00041051279
0.63043478 	0.0012044015 	0.00040046135 	2.666353e-07 	0.0011329612 	-1.1402476e-07 	0.00075151648
0.64130435 	0.001217725 	0.00041794647 	6.9545806e-09 	0.0011466735 	-1.6485298e-08 	0.00044872804
0.65217391 	0.001230481 	0.00043536207 	9.8921326e-09 	0.001160324 	-2.344854e-08 	0.00033298293
0.66304348 	0.001243563 	0.00045339328 	2.0391658e-07 	0.0011755358 	-9.5005443e-08 	0.0007859738
0.67391304 	0.001256634 	0.00047082244 	7.0787668e-09 	0.001189338 	-1.3792234e-08 	0.00044548849
0.68478261 	0.0012698586 	0.00048866658 	7.8725869e-09 	0.0012040775 	-1.5338909e-08 	0.00042227865
0.69565217 	0.0012842132 	0.00050721659 	1.738116e-07 	0.0012209736 	-3.6069891e-08 	0.00081836394
0.70652174 	0.0012999608 	0.00052547745 	8.3603569e-09 	0.0012376839 	-1.4033171e-08 	0.00025790261
0.7173913 	0.0013166691 	0.00054499527 	1.8298487e-09 	0.0012576194 	-3.0714693e-09 	0.00072463332
0.72826087 	0.0013370335 	0.00056644194 	1.6697405e-09 	0.0012804926 	5.0522837e-10 	0.00085402268
0.73913043 	0.0013615178 	0.00059008186 	1.0014392e-08 	0.0013059771 	-4.3655439e-09 	0.00018065631
0.75 	0.0013899416 	0.00061578466 	2.7334808e-07 	0.001338333 	2.7011968e-07 	0.00089946499
0.76086957 	0.0014276301 	0.00064191037 	7.8868678e-09 	0.0013775761 	1.4302544e-08 	0.00027017829
0.77173913 	0.0014705162 	0.00067026642 	2.1671519e-08 	0.0014249463 	3.944485e-08 	0.00096876884
0.7826087 	0.0015346326 	0.00070416111 	9.0587834e-09 	0.0014912269 	2.5624961e-08 	0.00061725654
0.79347826 	0.0016120585 	0.00074248888 	5.8795518e-09 	0.0015720384 	1.6631735e-08 	0.00082822212
0.80434783 	0.0017228326 	0.00079766846 	1.4413243e-08 	0.0016847688 	3.2254464e-08 	0.00087196385
0.81521739 	0.0018681764 	0.00087051867 	2.3064857e-08 	0.0018310386 	5.1615354e-08 	0.00087942407
0.82608696 	0.0020628216 	0.00096785699 	3.0314463e-08 	0.0020259467 	6.7140512e-08 	0.00099782306
0.83695652 	0.0023119511 	0.0010925258 	2.4465213e-08 	0.0022748262 	5.4185585e-08 	0.0013090524
0.84782609 	0.0026246108 	0.0012442583 	8.8435873e-08 	0.0025854812 	2.0688682e-07 	0.00084795157
0.85869565 	0.0029919311 	0.0014204624 	8.3680343e-07 	0.0029538574 	1.7927357e-06 	0.0020174955
0.86956522 	0.0034048685 	0.0016104061 	1.9600957e-07 	0.0033629136 	4.9005989e-07 	6.711231e-05
0.88043478 	0.0038488293 	0.0018136195 	5.6966453e-07 	0.0038127456 	1.2766717e-06 	0.0024979584
0.89130435 	0.0042855596 	0.0020083729 	3.0470289e-08 	0.0042535647 	8.1954074e-08 	0.0023748052
0.90217391 	0.0046508765 	0.0021704876 	3.6938187e-08 	0.0046236306 	1.3610212e-07 	0.00049555275
0.91304348 	0.0049419347 	0.0023020456 	1.149376e-08 	0.0049321697 	2.7900197e-08 	0.0032750262
0.92391304 	0.0050612766 	0.0023571925 	-1.0796193e-07 	0.005068941 	-1.6271939e-07 	0.0034011411
0.93478261 	0.0049761804 	0.0023201229 	-3.2258233e-08 	0.0050028923 	-6.6550053e-08 	0.0028788723
0.94565217 	0.0046660214 	0.0021803658 	-1.0148698e-06 	0.0047145668 	-2.1375621e-06 	0.0031446239
0.95652174 	0.004142291 	0.0019390259 	-2.7877596e-07 	0.0042004095 	-6.0195797e-07 	0.00039955615
0.9673913 	0.0034135948 	0.0016015883 	-3.7822014e-08 	0.0034774792 	-8.3677418e-08 	0.001974867
0.97826087 	0.0024638279 	0.0011542304 	-1.0348292e-07 	0.0025021224 	-2.3842675e-07 	0.00025902741
0.98913043 	0.00088668481 	0.00040014576 	-9.1533633e-09 	0.00088842775 	-5.8668153e-08 	8.3592482e-05
