4.0776948e-36 	0.0094611595 	-6.4255378e-16 	-2.3355129e-22 	4.3638981e-29 	1.5861615e-35 	5.7652771e-42
0.010869565 	0.009475847 	-0.0004503044 	1.7222082e-07 	0.010594704 	-3.1092819e-05 	0.0041446063
0.02173913 	0.0095234829 	-0.00086175304 	1.0133359e-07 	0.010640261 	-2.475834e-05 	0.0046829875
0.032608696 	0.0095942227 	-0.0012689298 	3.2223993e-08 	0.010704207 	-5.6720257e-06 	0.0052133686
0.043478261 	0.0096865075 	-0.0016678418 	1.1629901e-07 	0.010785293 	-1.1918115e-05 	0.0057529126
0.054347826 	0.0097997393 	-0.0020585362 	3.1697589e-07 	0.010877156 	-1.433356e-06 	0.0031533585
0.065217391 	0.0099395802 	-0.0024620574 	6.518053e-07 	0.010991726 	-2.5554436e-06 	0.0012660904
0.076086957 	0.010070336 	-0.0027931321 	5.5131093e-07 	0.011103786 	-1.8704625e-06 	0.0032894086
0.086956522 	0.010218846 	-0.0031352945 	1.4315855e-07 	0.011233366 	-3.4284904e-06 	0.0078865436
0.097826087 	0.01038043 	-0.0034675932 	1.5699002e-07 	0.011361732 	-4.6857528e-07 	0.0074393712
0.10869565 	0.01055017 	-0.0037857271 	1.4474833e-06 	0.011481616 	-3.8843508e-06 	0.00057344021
0.11956522 	0.010708055 	-0.0040774577 	3.0077838e-07 	0.01161529 	-7.3875053e-07 	0.0078890874
0.13043478 	0.010870403 	-0.0043577557 	5.9602578e-07 	0.011732846 	-1.4639162e-06 	0.0068599633
0.14130435 	0.011024146 	-0.0046181664 	1.6160107e-06 	0.011834447 	-3.6823745e-06 	0.0025236125
0.15217391 	0.011162623 	-0.0048588888 	7.9243573e-09 	0.011946179 	-1.805709e-08 	0.010966321
0.16304348 	0.01129205 	-0.0050744594 	2.3235097e-06 	0.011995966 	-4.95572e-06 	0.00057954293
0.17391304 	0.011401785 	-0.00527198 	1.2885824e-07 	0.012068844 	-2.5920149e-07 	0.0113091
0.18478261 	0.011485265 	-0.0054379607 	2.3655906e-06 	0.012065887 	-4.7584434e-06 	0.0015338468
0.19565217 	0.011552437 	-0.0055922039 	1.3530776e-07 	0.012089403 	-2.5738212e-07 	0.011250194
0.20652174 	0.01156623 	-0.0057062886 	2.4265441e-06 	0.012026345 	-4.6157668e-06 	0.00081797737
0.2173913 	0.011573029 	-0.005815443 	4.6008599e-07 	0.01200003 	-1.5034175e-06 	0.011112166
0.22826087 	0.011503018 	-0.0058676613 	2.0894385e-06 	0.011846162 	-3.7480529e-06 	0.0015102954
0.23913043 	0.011431015 	-0.0059179991 	3.9665982e-07 	0.011726299 	-7.1153183e-07 	0.0085399476
0.25 	0.01127474 	-0.0059109581 	1.0362688e-06 	0.011496167 	-1.741608e-06 	0.005114861
0.26086957 	0.011086249 	-0.0058810159 	1.0909615e-06 	0.01123921 	-1.8335275e-06 	0.0043638897
0.27173913 	0.010861506 	-0.0058286894 	5.7772378e-07 	0.010959798 	-1.4133756e-06 	0.0089939764
0.2826087 	0.010506411 	-0.0056929171 	1.5430618e-06 	0.010528196 	-2.3784331e-06 	0.00038759843
0.29347826 	0.010179915 	-0.0055746667 	1.3866429e-07 	0.010159476 	-2.1373334e-07 	0.0070758848
0.30434783 	0.0097115359 	-0.00536592 	2.1443768e-07 	0.0096381037 	-2.775487e-07 	0.0058461829
0.31521739 	0.0091636821 	-0.0051047966 	7.1806057e-07 	0.009035769 	-9.2939252e-07 	0.0013635185
0.32608696 	0.0086276135 	-0.0048482376 	4.2490056e-06 	0.008467845 	-8.1931611e-06 	0.0060621658
0.33695652 	0.0079198036 	-0.0044709739 	-6.9202881e-09 	0.0077286128 	8.5662661e-08 	0.0041184899
0.34782609 	0.0071480551 	-0.0040456898 	-1.5755948e-08 	0.0069315476 	1.9503471e-07 	0.0012192981
0.35869565 	0.0063948744 	-0.0036245757 	7.1813503e-06 	0.0061708132 	-1.2126923e-05 	0.0040944325
0.36956522 	0.0055246528 	-0.0031030506 	-1.485563e-07 	0.0053070981 	2.4773446e-07 	0.0033126295
0.38043478 	0.0045856248 	-0.0025154949 	-7.0200282e-07 	0.0043866455 	1.1706692e-06 	0.00034015674
0.39130435 	0.0037349308 	-0.0019863922 	2.6616475e-06 	0.0035615571 	-4.2361493e-06 	0.0020048104
0.40217391 	0.0030095217 	-0.0015404955 	3.6876558e-06 	0.0028625886 	-5.8690945e-06 	0.0019650001
0.41304348 	0.0023977646 	-0.0011700544 	-6.1539988e-07 	0.0022770339 	9.8901329e-07 	0.00036396654
0.42391304 	0.0018523606 	-0.00084211334 	-1.7876713e-07 	0.0017596209 	2.8729785e-07 	0.00058501445
0.43478261 	0.0014823163 	-0.00059949863 	7.485997e-06 	0.0014086061 	-1.0885942e-05 	0.00075540563
0.44565217 	0.0012137291 	-0.00040521594 	-6.1427181e-08 	0.0011532872 	8.2875378e-08 	0.00058105243
0.45652174 	0.0011044824 	-0.00028766756 	-2.2353781e-07 	0.0010486924 	3.015893e-07 	0.00010153917
0.4673913 	0.0010098748 	-0.00018146242 	5.4239563e-07 	0.00095957921 	-3.9867847e-07 	0.00050596761
0.47826087 	0.00096682679 	-9.7291902e-05 	2.2621909e-06 	0.00091823336 	-1.6627841e-06 	0.00049865912
0.48913043 	0.00094297298 	-2.1275659e-05 	-3.8302621e-08 	0.00089468972 	9.0795101e-09 	0.00031398215
0.5 	0.00095111216 	4.0521926e-05 	-6.8709796e-08 	0.00090145942 	1.6287431e-08 	0.00017171881
0.51086957 	0.00096109801 	9.6340263e-05 	6.5803428e-07 	0.00091108287 	-8.8562624e-08 	0.0004942543
0.52173913 	0.00097549474 	0.00014201929 	9.6695359e-07 	0.00092471908 	-1.3013904e-07 	0.00048847054
0.5326087 	0.00099219475 	0.00018131549 	-1.9647567e-08 	0.00094045876 	-1.8298629e-08 	0.00025507062
0.54347826 	0.001011835 	0.00021390882 	-1.9175052e-08 	0.00095987628 	-1.7858555e-08 	0.00027420304
0.55434783 	0.0010311987 	0.00024390146 	5.9701007e-07 	0.00097965907 	-2.6610825e-09 	0.00050803667
0.56521739 	0.001050141 	0.0002714568 	2.2757803e-07 	0.00099874847 	-1.0143948e-09 	0.00050327962
0.57608696 	0.0010680692 	0.00029502413 	-1.7204714e-08 	0.0010163666 	-4.1879262e-08 	6.8846525e-05
0.58695652 	0.0010861436 	0.00031827945 	3.8088895e-08 	0.0010359551 	-4.3506666e-09 	0.00052411631
0.59782609 	0.0011029005 	0.00033933057 	4.3290471e-07 	0.0010533752 	-4.9448115e-08 	0.00052026922
0.60869565 	0.0011191952 	0.00035966455 	-4.6285205e-09 	0.0010699625 	-1.812579e-08 	0.00031541334
0.61956522 	0.0011347828 	0.00037907742 	-3.7411693e-09 	0.0010863726 	-1.4650826e-08 	0.0003667123
0.63043478 	0.0011499841 	0.00039803453 	4.0370033e-07 	0.0011026954 	-1.0939961e-07 	0.00053365217
0.64130435 	0.0011649003 	0.00041652386 	-1.1117846e-09 	0.0011182965 	-5.6354335e-09 	0.00045752503
0.65217391 	0.0011793858 	0.00043434591 	-3.7277581e-09 	0.0011333749 	-1.8895327e-08 	0.00029384204
0.66304348 	0.0011943273 	0.00045248217 	3.1825134e-07 	0.0011498537 	-8.3996882e-08 	0.00054609968
0.67391304 	0.0012093492 	0.00047027902 	-9.8114312e-10 	0.0011658371 	-5.2563425e-09 	0.00045759454
0.68478261 	0.0012250207 	0.00048805918 	-1.9700412e-09 	0.0011826593 	-1.0554231e-08 	0.00038283735
0.69565217 	0.0012424243 	0.00050648231 	3.0563022e-07 	0.0012018033 	1.0781546e-08 	0.00056060097
0.70652174 	0.0012608422 	0.00052478731 	-2.1486345e-09 	0.0012211075 	-1.1555212e-08 	0.00027802364
0.7173913 	0.0012818353 	0.00054441906 	6.4806519e-08 	0.0012441565 	3.5091953e-08 	0.00058243386
0.72826087 	0.0013072497 	0.00056705005 	1.7621127e-07 	0.0012708133 	9.5416289e-08 	0.00058102869
0.73913043 	0.0013366772 	0.00059213993 	1.8090907e-09 	0.0013003781 	-5.8359898e-09 	0.00014962934
0.75 	0.0013744064 	0.00061985231 	4.827338e-07 	0.0013401026 	6.0649503e-07 	0.00061471336
0.76086957 	0.0014189435 	0.00064740289 	6.0498655e-09 	0.001385349 	9.7259773e-09 	0.00029649838
0.77173913 	0.0014777811 	0.00067867553 	2.9172226e-07 	0.0014463366 	5.7104146e-07 	0.00066957996
0.7826087 	0.0015527706 	0.00071667174 	6.8484392e-10 	0.0015224109 	1.4592571e-09 	0.0006540411
0.79347826 	0.001653886 	0.00076593819 	9.4218145e-08 	0.0016242256 	1.8995887e-07 	0.00076539512
0.80434783 	0.0017919648 	0.00083379427 	2.6001479e-07 	0.0017621076 	5.2423144e-07 	0.00076491662
0.81521739 	0.0019699727 	0.00092172345 	2.0787721e-09 	0.0019393178 	4.3185232e-09 	0.00090114488
0.82608696 	0.0022021179 	0.0010352653 	3.5964748e-07 	0.0021700902 	7.2786062e-07 	0.00092957004
0.83695652 	0.002490873 	0.0011751843 	4.4830892e-07 	0.0024575186 	9.396523e-07 	0.0011740656
0.84782609 	0.0028276676 	0.0013348178 	2.042761e-08 	0.0027924123 	4.721728e-08 	0.00096748858
0.85869565 	0.0032159349 	0.0015151707 	2.0424167e-06 	0.0031808179 	4.4670646e-06 	0.0014757275
0.86956522 	0.0036152184 	0.0016969175 	8.2492502e-08 	0.003578178 	2.064921e-07 	0.00012414696
0.88043478 	0.0040164746 	0.0018786741 	1.6975034e-06 	0.0039856929 	3.8378525e-06 	0.0017804701
0.89130435 	0.0043722719 	0.0020387003 	2.4550502e-07 	0.0043480878 	5.7038498e-07 	0.0020231008
0.90217391 	0.0046359183 	0.0021573195 	-4.7999502e-08 	0.0046186505 	-8.9881257e-08 	0.00056460448
0.91304348 	0.0047852105 	0.0022268101 	1.8004474e-07 	0.0047840798 	4.8440953e-07 	0.002156492
0.92391304 	0.004783219 	0.0022277444 	-6.5736952e-07 	0.0047973959 	-1.3107931e-06 	0.0021611874
0.93478261 	0.0046264497 	0.002157867 	-3.4304391e-07 	0.0046565052 	-7.182395e-07 	0.0020624151
0.94565217 	0.0042816051 	0.0020008156 	-1.822109e-06 	0.00432642 	-3.8687937e-06 	0.0019359601
0.95652174 	0.0037966477 	0.001776501 	-1.5189982e-07 	0.0038463633 	-3.3261107e-07 	0.00041570321
0.9673913 	0.0031622953 	0.001481013 	-4.6433873e-07 	0.0032092857 	-1.0071699e-06 	0.0014652409
0.97826087 	0.0023324646 	0.0010895938 	-6.3405153e-08 	0.0023546399 	-1.4300172e-07 	0.00026894236
0.98913043 	0.00084735456 	0.00039055377 	-1.7038122e-08 	0.00084679062 	-4.9313493e-08 	7.2745828e-05
