0.4742268 	0.00019781089 	-6.1422853e-05 	4.2360863e-09 	0.00019764625 	-9.8662574e-09 	5.955752e-05
0.48453608 	0.0035564295 	-0.0016994405 	1.5767142e-08 	0.0035434301 	-2.578907e-08 	0.0012486161
0.49484536 	0.0034713247 	-0.0016282409 	1.5365403e-06 	0.0034495104 	-3.3337049e-06 	0.0016907761
0.50515464 	0.0023724815 	-0.0011161538 	-5.4375948e-08 	0.0023510922 	1.1568985e-07 	0.00097180069
0.51546392 	0.0015446782 	-0.0007180367 	1.6634257e-07 	0.001526952 	-2.7359877e-07 	0.00069101607
0.5257732 	0.0012017865 	-0.00045403956 	1.9081037e-06 	0.0011915232 	-1.5733284e-06 	0.00057384455
0.53608247 	0.001122111 	-0.000256446 	3.8416338e-07 	0.0011211731 	-9.0946529e-08 	0.00054055374
0.54639175 	0.0011393272 	-0.00010056943 	-1.6776866e-08 	0.0011442224 	-1.0294301e-08 	0.00047777475
0.55670103 	0.0011778245 	3.0414917e-05 	-2.0421612e-08 	0.0011905005 	-1.5250155e-08 	0.00047333797
0.56701031 	0.0012191533 	0.00013967198 	8.8906353e-08 	0.0012392799 	2.2330685e-08 	0.00058673024
0.57731959 	0.0012586597 	0.00023274816 	5.6565506e-07 	0.0012856439 	1.4840024e-07 	0.00060974587
0.58762887 	0.0012953584 	0.00031369564 	8.1326499e-07 	0.0013284299 	2.0230552e-07 	0.00063257162
0.59793814 	0.0013292406 	0.00038495783 	2.1725486e-08 	0.0013676601 	4.7106808e-09 	0.00065472663
0.60824742 	0.0013601764 	0.00044698788 	-1.0189957e-07 	0.0014019565 	-8.7217042e-08 	1.8461841e-05
0.6185567 	0.0013877986 	0.00050085421 	1.2712841e-07 	0.0014347634 	2.0536519e-08 	0.00067592134
0.62886598 	0.0014129081 	0.0005478959 	3.2893768e-07 	0.0014632316 	2.4034855e-08 	0.00069572486
0.63917526 	0.0014354944 	0.000588987 	-7.2343297e-08 	0.0014880039 	-6.5850351e-08 	0.00013437533
0.64948454 	0.0014550871 	0.00062404588 	1.6464258e-07 	0.0015113671 	-1.6605557e-08 	0.00071360931
0.65979381 	0.001472721 	0.00065439208 	1.6831986e-08 	0.0015308963 	-7.5875995e-09 	0.00072936411
0.67010309 	0.0014876293 	0.00068087182 	-2.0890204e-08 	0.0015467227 	-2.0667537e-08 	0.00050958389
0.68041237 	0.0015001578 	0.00070318343 	3.7504697e-08 	0.0015607235 	-1.3064412e-07 	0.00074253498
0.69072165 	0.001510432 	0.00071420411 	-2.7086066e-08 	0.0015712202 	-4.0537661e-08 	0.00026288065
0.70103093 	0.0015184034 	0.00071895785 	-1.1107057e-07 	0.0015810371 	-2.5194347e-07 	0.00075198259
0.71134021 	0.0015247283 	0.00072191358 	-1.5406917e-08 	0.0015865089 	-3.7069247e-08 	0.00024484406
0.72164948 	0.0015292626 	0.00072427141 	-1.2580899e-07 	0.0015915335 	-2.8955517e-07 	0.00075785418
0.73195876 	0.0015323941 	0.00072546757 	-8.6489104e-09 	0.0015928353 	-2.0329688e-08 	0.00043430874
0.74226804 	0.0015342076 	0.00072623337 	-8.0588025e-08 	0.0015935775 	-1.8605971e-07 	0.00076006145
0.75257732 	0.0015348055 	0.00072622579 	-2.9455069e-09 	0.0015923035 	-6.8840649e-09 	0.00063975762
0.7628866 	0.0015342025 	0.0007257452 	-3.6961099e-08 	0.0015903037 	-8.4812327e-08 	0.00075931202
0.77319588 	0.0015328238 	0.00072477896 	-1.8502176e-09 	0.001586991 	-4.3417926e-09 	0.00068003207
0.78350515 	0.0015306395 	0.0007234642 	-5.5564958e-08 	0.0015830016 	-1.2755907e-07 	0.00075693692
0.79381443 	0.0015278585 	0.00072169472 	-5.8608082e-09 	0.0015776766 	-1.3715238e-08 	0.00049965307
0.80412371 	0.001524422 	0.0007198074 	-1.4011192e-07 	0.0015725501 	-3.2158124e-07 	0.00075349894
0.81443299 	0.0015205134 	0.00071725655 	-1.5397323e-08 	0.0015650563 	-3.5752576e-08 	7.0947442e-05
0.82474227 	0.0015159551 	0.00071495769 	-1.3600711e-07 	0.0015593699 	-3.1203777e-07 	0.00074932024
0.83505155 	0.0015109187 	0.00071207709 	-1.5132044e-09 	0.0015516897 	-3.4903706e-09 	0.00067780654
0.84536082 	0.0015053003 	0.00070878943 	-8.4426366e-09 	0.0015428759 	-1.9360264e-08 	0.00036942022
0.8556701 	0.0014991044 	0.00070550081 	-1.3315198e-07 	0.0015346845 	-3.050222e-07 	0.00073945913
0.86597938 	0.001492564 	0.00070186257 	-4.2072567e-08 	0.0015253623 	-9.6446844e-08 	0.00073418411
0.87628866 	0.0014860746 	0.00069797007 	-1.1338208e-08 	0.0015149381 	-2.5825885e-08 	0.00019264961
0.88659794 	0.0014803745 	0.0006946904 	-6.1252031e-09 	0.0015064108 	-1.4165443e-08 	0.00038338008
0.89690722 	0.0014771979 	0.00069251345 	-1.312861e-08 	0.0015001408 	-3.1069834e-08 	0.0007256117
0.90721649 	0.0014805371 	0.0006929486 	-3.3553284e-08 	0.0014986277 	-8.7209816e-08 	0.00072496741
0.91752577 	0.0014971233 	0.00069916695 	1.0836899e-08 	0.0015088155 	6.8059881e-10 	0.00073017515
0.92783505 	0.0015410867 	0.000717753 	7.774481e-08 	0.0015449651 	1.4949593e-07 	0.00074627781
0.93814433 	0.001641613 	0.000762568 	2.1989152e-09 	0.0016374637 	4.6506817e-09 	0.00076141253
0.94845361 	0.0018605013 	0.0008632167 	1.1556987e-07 	0.0018486706 	2.4460312e-07 	0.00010959817
0.95876289 	0.0022520994 	0.0010486787 	3.3351761e-07 	0.0022375539 	6.9738687e-07 	0.0011302375
0.96907216 	0.0027354121 	0.0012771978 	1.0985207e-07 	0.0027186581 	2.4265972e-07 	0.00036052352
0.97938144 	0.0029120561 	0.0013677198 	-2.6383122e-08 	0.0029022556 	-7.072112e-08 	0.0014296924
0.98969072 	0.0016603161 	0.00077578914 	-7.3615029e-07 	0.0016573894 	-1.4588148e-06 	0.00085859957
