0.4742268 	0.32196336 	4.7314856e-05 	-3.7671781e-09
0.48453608 	0.96338922 	0.00055105143 	-8.5821482e-09
0.49484536 	1.2304249 	0.0011958394 	3.1549891e-06
0.50515464 	1.3777398 	0.0018098076 	8.3348683e-08
0.51546392 	1.4380213 	0.0021367387 	4.5510889e-07
0.5257732 	1.4584824 	0.0022511545 	-5.2696021e-07
0.53608247 	1.4646718 	0.0021981126 	-4.3619354e-07
0.54639175 	1.4658713 	0.0021567297 	-1.1950887e-07
0.55670103 	1.4651712 	0.0020895756 	-1.144635e-07
0.56701031 	1.4635824 	0.0020145299 	-4.3673765e-07
0.57731959 	1.4614815 	0.0019330832 	-1.1647007e-06
0.58762887 	1.4590356 	0.0018476206 	-1.8246752e-06
0.59793814 	1.4563329 	0.0017591995 	-4.9625256e-07
0.60824742 	1.4533617 	0.0016669976 	-1.7128171e-07
0.6185567 	1.4502464 	0.0015745967 	-8.1785252e-07
0.62886598 	1.4469363 	0.0014783407 	-1.7298398e-06
0.63917526 	1.4434532 	0.0013774813 	-9.6535622e-08
0.64948454 	1.4398547 	0.0012786036 	-1.3636222e-06
0.65979381 	1.4361054 	0.001179895 	-7.1902183e-07
0.67010309 	1.4321735 	0.001076621 	-3.2526712e-09
0.68041237 	1.4280865 	0.00096923026 	-2.0755905e-06
0.69072165 	1.4238628 	0.00085544254 	-1.0204286e-08
0.70103093 	1.4195941 	0.00074186205 	-2.633196e-06
0.71134021 	1.4152181 	0.00062918667 	-1.9041792e-09
0.72164948 	1.4108846 	0.00052313291 	-2.2936797e-06
0.73195876 	1.4065106 	0.0004175194 	4.1608355e-09
0.74226804 	1.4020226 	0.00031321404 	-1.5088679e-06
0.75257732 	1.3975224 	0.00021054934 	-2.4444343e-07
0.7628866 	1.392843 	0.00010821943 	-9.3786666e-07
0.77319588 	1.3880598 	6.2339378e-06 	-3.3653228e-07
0.78350515 	1.383132 	-9.4030868e-05 	-1.0092017e-06
0.79381443 	1.3780806 	-0.00019375086 	8.204335e-09
0.80412371 	1.3728045 	-0.00029197572 	-1.6186854e-06
0.81443299 	1.3674167 	-0.00038867232 	8.1623122e-08
0.82474227 	1.3616674 	-0.00048573518 	-1.4572787e-06
0.83505155 	1.3557374 	-0.00058097444 	-2.4358194e-07
0.84536082 	1.3494834 	-0.00067509465 	4.0209657e-08
0.8556701 	1.3427935 	-0.00076847074 	-1.2539059e-06
0.86597938 	1.3357342 	-0.00086058421 	-5.8441572e-07
0.87628866 	1.3281971 	-0.00095112968 	9.4083358e-08
0.88659794 	1.3199638 	-0.0010413706 	4.5249984e-08
0.89690722 	1.3109122 	-0.0011299299 	-3.3935922e-07
0.90721649 	1.3007965 	-0.001215843 	-6.0067316e-07
0.91752577 	1.2890906 	-0.0012966555 	-5.8351433e-07
0.92783505 	1.2746709 	-0.0013647974 	-3.2402061e-07
0.93814433 	1.2550437 	-0.0014024861 	-2.0392908e-08
0.94845361 	1.2239424 	-0.0013712731 	2.5417451e-07
0.95876289 	1.1681655 	-0.001221055 	9.1148182e-07
0.96907216 	1.0690317 	-0.00089820881 	2.3116257e-07
0.97938144 	0.90085516 	-0.00048391761 	5.2380212e-07
0.98969072 	0.58966623 	-0.00010507675 	3.5217691e-07
