0.26666667 	1.7935306e-06 	2.7214347e-08 	5.5582046e-10 	1.7346449e-06 	3.1533217e-08 	3.5241879e-09
0.27777778 	0.0018656414 	-2.0036019e-06 	-1.0607393e-06 	0.0017242004 	2.1824107e-05 	0.00016387193
0.28888889 	0.0031081512 	-0.00068476142 	-5.8520356e-06 	0.0038229473 	3.4348073e-05 	0.0008372586
0.3 	0.0035740626 	-0.0012287896 	-4.13522e-07 	0.0049405244 	2.1424711e-06 	0.0033803791
0.31111111 	0.0043003242 	-0.0019328986 	-7.4042076e-06 	0.006098391 	3.5883992e-05 	0.002311556
0.32222222 	0.0048550959 	-0.0025012187 	-4.2933002e-07 	0.0067816018 	2.4144364e-06 	0.0051310115
0.33333333 	0.0061127558 	-0.0031905469 	7.5935063e-09 	0.0083314271 	3.6800561e-07 	0.006369236
0.34444444 	0.007922589 	-0.0043213732 	-2.7640917e-06 	0.010662273 	3.8037574e-06 	0.0080856112
0.35555556 	0.0097868854 	-0.0058990497 	4.0333455e-07 	0.013038865 	1.8089835e-06 	0.0089020765
0.36666667 	0.01067766 	-0.0070529047 	-5.0785415e-07 	0.013995518 	1.6826093e-05 	0.0059264702
0.37777778 	0.010480192 	-0.0072342748 	-1.8954544e-05 	0.013492507 	6.2773603e-05 	0.00069802328
0.38888889 	0.010138936 	-0.0073120616 	-1.5497911e-05 	0.012738357 	3.2066647e-05 	0.005842086
0.4 	0.0089632689 	-0.0062603917 	1.3242286e-05 	0.010786467 	-2.3034803e-05 	0.0072424344
0.41111111 	0.0072725384 	-0.0049821271 	-1.8001965e-05 	0.0085449032 	3.2545099e-05 	0.0030877982
0.42222222 	0.0058431555 	-0.0039108621 	-1.9004966e-05 	0.0066937518 	3.3722207e-05 	0.0023787031
0.43333333 	0.0042669233 	-0.0027605369 	1.1711583e-05 	0.0047014427 	-1.9569671e-05 	0.0028881642
0.44444444 	0.0032828879 	-0.0020636715 	-1.5403957e-05 	0.0035608503 	2.6753778e-05 	0.00058561968
0.45555556 	0.0023134588 	-0.001371711 	2.59275e-06 	0.0024019603 	-4.2033328e-06 	0.0015083004
0.46666667 	0.0016476251 	-0.00090485723 	6.9341365e-08 	0.0016450508 	-1.0571496e-07 	0.0008170612
0.47777778 	0.0013420243 	-0.00066332857 	-4.2590844e-07 	0.0012854006 	6.8557984e-07 	0.00072167431
0.48888889 	0.0010913133 	-0.00046173292 	1.1031785e-06 	0.00098975426 	-1.3800688e-06 	0.0005032797
0.5 	0.0010009154 	-0.00033767872 	-3.5719378e-07 	0.00084807583 	4.612824e-07 	0.00040422505
0.51111111 	0.00095331273 	-0.00023467614 	9.0695398e-07 	0.00074882007 	-7.5331113e-07 	0.00042335089
0.52222222 	0.00096286312 	-0.0001497045 	8.4408037e-08 	0.00069071831 	-7.0108864e-08 	0.00040958236
0.53333333 	0.00099637202 	-6.8143004e-05 	4.1647092e-07 	0.000652019 	-2.3852603e-07 	0.00043589178
0.54444444 	0.0010451824 	-2.7318112e-06 	6.9040167e-07 	0.00062721501 	-3.9541482e-07 	0.00042535144
0.55555556 	0.0010992128 	6.1716743e-05 	-1.1720952e-07 	0.00060493902 	7.8922397e-08 	0.0003662985
0.56666667 	0.0011533652 	0.00011121442 	1.186032e-06 	0.00059952967 	-4.1366531e-07 	0.00045932609
0.57777778 	0.0012033466 	0.00015582426 	-1.3406707e-07 	0.00059761965 	1.4274883e-07 	4.1282348e-05
0.58888889 	0.0012549635 	0.00019522411 	7.572852e-07 	0.00060341102 	1.8998066e-08 	0.00048502723
0.6 	0.0012992483 	0.00023202694 	1.9683733e-07 	0.00061568576 	4.9380719e-09 	0.000482641
0.61111111 	0.0013406881 	0.00026578953 	-1.8144364e-09 	0.00063193612 	2.6404175e-09 	0.00044611258
0.62222222 	0.0013738325 	0.00029675262 	9.0463395e-07 	0.0006553356 	4.2850489e-07 	0.00050555473
0.63333333 	0.0014047904 	0.00032694489 	-1.9285304e-08 	0.00068031628 	-8.4924739e-09 	0.0003189749
0.64444444 	0.001432771 	0.0003540981 	1.9551423e-07 	0.00071043085 	1.7584503e-07 	0.00052175532
0.65555556 	0.0014556971 	0.00038013931 	4.4404605e-07 	0.00074061139 	3.9937395e-07 	0.00052872269
0.66666667 	0.0014761842 	0.00040407859 	-7.0554148e-08 	0.0007696162 	-4.6490693e-08 	1.1037712e-05
0.67777778 	0.0014962792 	0.0004284782 	3.5415189e-07 	0.00080231958 	4.1456492e-07 	0.00054901373
0.68888889 	0.0015129985 	0.00045079091 	4.4715966e-08 	0.00083336906 	5.2343842e-08 	0.00055969075
0.7 	0.0015280239 	0.00047117649 	2.6715752e-09 	0.00086365978 	3.87893e-09 	0.00057101656
0.71111111 	0.0015398669 	0.0004898559 	2.1074794e-07 	0.00089363007 	3.0599046e-07 	0.00058455722
0.72222222 	0.0015507636 	0.0005065523 	-3.1351795e-08 	0.00092111559 	-4.4231729e-08 	0.00013118318
0.73333333 	0.0015601796 	0.00052394908 	2.2962952e-07 	0.00095216904 	4.2059633e-07 	0.0006116615
0.74444444 	0.0015683911 	0.00053868763 	-1.9381126e-08 	0.0009792711 	-4.3043454e-08 	0.00015208594
0.75555556 	0.0015756848 	0.00055435308 	1.2826932e-07 	0.0010103792 	2.9813155e-07 	0.00064187865
0.76666667 	0.0015826326 	0.00056824568 	-1.159799e-08 	0.0010388871 	-4.096286e-08 	0.00025229502
0.77777778 	0.0015895903 	0.00058337163 	1.162805e-07 	0.0010720528 	3.2125811e-07 	0.0006762548
0.78888889 	0.0015976716 	0.00059780968 	-1.6811698e-08 	0.00110458 	-7.207744e-08 	0.00015627626
0.8 	0.0016075251 	0.00061505163 	1.8977184e-07 	0.0011457125 	5.5500571e-07 	0.0007165184
0.81111111 	0.0016208864 	0.0006328726 	-2.6876373e-08 	0.001188876 	-1.0790474e-07 	0.0001821567
0.82222222 	0.001640972 	0.00065577611 	1.0313576e-07 	0.0012463114 	2.9530932e-07 	0.0007662162
0.83333333 	0.0016689029 	0.0006816319 	1.1175228e-08 	0.0013114485 	2.9911141e-08 	0.00081042769
0.84444444 	0.0017180966 	0.00071597418 	-6.3071258e-08 	0.0013957351 	-1.9044752e-07 	0.00031217417
0.85555556 	0.0017893756 	0.00076052995 	4.0060238e-07 	0.0015032215 	9.7738954e-07 	0.00090341673
0.86666667 	0.0018913345 	0.00081721209 	-3.2683567e-09 	0.0016341185 	-8.6117245e-09 	0.00099096346
0.87777778 	0.0020444979 	0.00089593933 	-2.1557541e-07 	0.0018042291 	-5.1966488e-07 	1.0203312e-05
0.88888889 	0.0022467497 	0.00099870647 	-6.0520963e-08 	0.0020213469 	-1.4398017e-07 	0.00090095999
0.9 	0.0025017245 	0.0011255255 	6.4238157e-07 	0.0022827144 	1.3293871e-06 	0.0014050833
0.91111111 	0.0028002627 	0.0012705286 	1.0470717e-06 	0.0025830675 	2.2050726e-06 	0.0016478247
0.92222222 	0.0031291946 	0.0014264795 	4.3531116e-07 	0.0029130955 	9.4014705e-07 	0.0019097999
0.93333333 	0.0034745466 	0.0015874516 	2.3057687e-07 	0.0032612559 	5.0956499e-07 	0.0021784075
0.94444444 	0.003811712 	0.0017433214 	3.5941449e-07 	0.0036057113 	8.1698134e-07 	0.0024392853
0.95555556 	0.0040764239 	0.0018655427 	1.6310964e-07 	0.0038853734 	3.1587585e-07 	0.0019047467
0.96666667 	0.0040874411 	0.0018727973 	2.3515517e-08 	0.003933744 	4.8231852e-08 	0.0026507475
0.97777778 	0.0033815936 	0.0015550134 	3.5484972e-07 	0.0032905213 	7.5185985e-07 	0.0010105817
0.98888889 	0.001310128 	0.00060527222 	1.5796408e-07 	0.0012924628 	3.3367897e-07 	0.00070800554
