0.4742268 	0.00019973206 	-6.2274477e-05 	4.1305344e-09 	0.00019956393 	-9.5736853e-09 	6.0123105e-05
0.48453608 	0.0035639491 	-0.0017039975 	1.3883603e-08 	0.0035506179 	-2.2331314e-08 	0.0012504571
0.49484536 	0.0034432648 	-0.0016160334 	1.6615919e-06 	0.0034208903 	-3.6026953e-06 	0.0016149204
0.50515464 	0.0023222384 	-0.0010927332 	-4.6584784e-08 	0.0023010079 	9.8702932e-08 	0.00095295947
0.51546392 	0.0015134569 	-0.00070239138 	2.5554221e-07 	0.0014955186 	-4.0448544e-07 	0.00065255199
0.5257732 	0.0011933401 	-0.00043900134 	1.9804235e-06 	0.0011836583 	-1.4815449e-06 	0.00054830959
0.53608247 	0.0011254215 	-0.00024369936 	4.4362016e-07 	0.0011250808 	-8.5914873e-08 	0.00052139916
0.54639175 	0.0011463881 	-8.75637e-05 	-1.2004888e-08 	0.001151777 	-7.4383368e-09 	0.00048060626
0.55670103 	0.0011858403 	4.2708412e-05 	-1.5990591e-08 	0.0011994933 	-1.1905275e-08 	0.0004765605
0.56701031 	0.0012274146 	0.00015130403 	1.3127049e-07 	0.0012484695 	3.3210734e-08 	0.00056875068
0.57731959 	0.0012667951 	0.00024392798 	5.9936829e-07 	0.0012948089 	1.5662296e-07 	0.00059088229
0.58762887 	0.0013032777 	0.00032449155 	8.4094585e-07 	0.00133741 	2.0630439e-07 	0.00061276323
0.59793814 	0.0013368952 	0.00039538147 	5.1193199e-08 	0.0013764011 	1.0820745e-08 	0.0006339551
0.60824742 	0.001367557 	0.0004570567 	-9.9758767e-08 	0.0014104613 	-8.3910609e-08 	1.8562992e-05
0.6185567 	0.0013948663 	0.00051045645 	1.4965988e-07 	0.0014429395 	2.3157119e-08 	0.00065420972
0.62886598 	0.0014196253 	0.00055698086 	3.4191398e-07 	0.0014711665 	2.1140245e-08 	0.00067306222
0.63917526 	0.0014419041 	0.00059748781 	-7.0096033e-08 	0.0014956678 	-6.2768729e-08 	0.00013498349
0.64948454 	0.0014611742 	0.00063198212 	1.7575819e-07 	0.0015185759 	-2.1912274e-08 	0.00069009096
0.65979381 	0.0014784975 	0.00066207215 	2.5740169e-08 	0.0015377018 	-1.3517234e-08 	0.00070502613
0.67010309 	0.0014930782 	0.00068711828 	-1.5093715e-08 	0.0015532967 	-1.8084837e-08 	0.00051166629
0.68041237 	0.0015051992 	0.00070717622 	2.1958567e-08 	0.001566961 	-1.4438049e-07 	0.00071739752
0.69072165 	0.001515186 	0.00071723599 	-1.7176866e-08 	0.0015771937 	-3.7836292e-08 	0.00026382282
0.70103093 	0.0015228565 	0.00072132895 	-1.2169863e-07 	0.001586537 	-2.7276756e-07 	0.00072625255
0.71134021 	0.0015289726 	0.00072408811 	-1.442768e-08 	0.0015916993 	-3.4244982e-08 	0.00024562905
0.72164948 	0.0015332801 	0.0007262912 	-1.3552767e-07 	0.001596261 	-3.1241871e-07 	0.0007316197
0.73195876 	0.0015362401 	0.00072740907 	-7.8552931e-09 	0.001597391 	-1.8439876e-08 	0.00043552059
0.74226804 	0.001537846 	0.00072806337 	-9.0024771e-08 	0.0015978625 	-2.0779184e-07 	0.0007335346
0.75257732 	0.0015383287 	0.00072801374 	-2.2545373e-09 	0.0015965192 	-5.3195605e-09 	0.00064135418
0.7628866 	0.0015376124 	0.00072746538 	-4.5823348e-08 	0.0015943274 	-1.0518478e-07 	0.00073271979
0.77319588 	0.0015361698 	0.00072648058 	-1.1964617e-09 	0.0015909912 	-2.8163054e-09 	0.00068164416
0.78350515 	0.0015339168 	0.00072512054 	-6.4163564e-08 	0.0015868741 	-1.473471e-07 	0.00073037598
0.79381443 	0.0015311018 	0.0007233449 	-5.2557162e-09 	0.0015815517 	-1.2336066e-08 	0.00050080226
0.80412371 	0.0015276333 	0.00072142543 	-1.4855743e-07 	0.0015763105 	-3.4116937e-07 	0.00072703455
0.81443299 	0.0015237158 	0.00071887611 	-1.4847657e-08 	0.0015688298 	-3.462468e-08 	7.1108657e-05
0.82474227 	0.001519149 	0.00071655521 	-1.4374244e-07 	0.0015630518 	-3.2999776e-07 	0.00072299455
0.83505155 	0.0015141211 	0.00071368463 	-8.8965256e-10 	0.0015554029 	-2.0597695e-09 	0.00067933978
0.84536082 	0.001508507 	0.0007103928 	-7.8984809e-09 	0.0015465613 	-1.8148202e-08 	0.00037025603
0.8556701 	0.0015023002 	0.00070708112 	-1.402448e-07 	0.0015382768 	-3.2145156e-07 	0.00071348521
0.86597938 	0.0014957123 	0.00070341436 	-4.8765916e-08 	0.0015288771 	-1.1181205e-07 	0.00070836191
0.87628866 	0.0014890622 	0.00069945524 	-1.107533e-08 	0.0015183229 	-2.5233242e-08 	0.00019304297
0.88659794 	0.0014830009 	0.00069600835 	-5.970069e-09 	0.0015094414 	-1.3751507e-08 	0.00038416169
0.89690722 	0.0014791289 	0.00069350755 	-1.8300985e-08 	0.0015024757 	-4.3102625e-08 	0.00069966656
0.90721649 	0.0014810975 	0.00069333283 	-4.0541482e-08 	0.001499709 	-1.0305503e-07 	0.00069844986
0.91752577 	0.0014952279 	0.00069844357 	2.0389986e-09 	0.0015075787 	-1.9287729e-08 	0.00070240077
0.92783505 	0.001534807 	0.00071500317 	7.2083647e-08 	0.0015393837 	1.3575652e-07 	0.00071607512
0.93814433 	0.0016273785 	0.0007560875 	4.2686285e-09 	0.0016238108 	8.8003391e-09 	0.00074764478
0.94845361 	0.0018342018 	0.0008509557 	1.0874163e-07 	0.0018227221 	2.3005604e-07 	0.00010827407
0.95876289 	0.0022153052 	0.0010314027 	3.8880724e-07 	0.0022007608 	8.1135415e-07 	0.0010704005
0.96907216 	0.0027035211 	0.0012626633 	1.1010414e-07 	0.0026865455 	2.4281148e-07 	0.00035686171
0.97938144 	0.002897932 	0.0013618362 	-3.0184453e-08 	0.0028877582 	-8.4163713e-08 	0.0013694863
0.98969072 	0.0016599021 	0.0007758567 	-8.3951862e-07 	0.0016568455 	-1.660262e-06 	0.0008264598
