0.47916667 	0.0022220979 	-0.0010412628 	-2.7623999e-07 	0.0022173946 	5.6596397e-07 	0.0010764546
0.48958333 	0.0037659791 	-0.0017663311 	-2.0608077e-08 	0.0037463399 	6.1456857e-08 	0.000336072
0.5 	0.0030502955 	-0.001432437 	1.7516225e-07 	0.0030276504 	-3.7858059e-07 	0.0016506366
0.51041667 	0.0019834414 	-0.00093039229 	1.9103896e-06 	0.0019648674 	-3.977816e-06 	0.0010589076
0.52083333 	0.0013587534 	-0.00059924278 	-1.386588e-07 	0.0013430744 	1.8027413e-07 	0.00017586618
0.53125 	0.001144417 	-0.00036957228 	-6.0428127e-08 	0.0011379353 	1.9999367e-08 	0.00037376464
0.54166667 	0.0011163091 	-0.00019449766 	2.4312157e-07 	0.0011175748 	6.8793578e-09 	0.00058050972
0.55208333 	0.0011448711 	-5.0156464e-05 	5.0942828e-07 	0.0011527052 	9.3543618e-08 	0.00059857749
0.5625 	0.0011849538 	7.0635584e-05 	3.5375129e-07 	0.0012002632 	8.7160931e-08 	0.00062184412
0.57291667 	0.0012258773 	0.00017275549 	-3.9080752e-09 	0.0012481498 	-3.1933665e-09 	0.00062632984
0.58333333 	0.0012646495 	0.00026041493 	-6.3850315e-08 	0.0012926629 	-5.4589913e-08 	0.00031185116
0.59375 	0.0013004548 	0.00033674769 	-8.7157277e-08 	0.0013337629 	-7.5986232e-08 	0.00015909333
0.60416667 	0.0013330211 	0.00040330738 	1.0855832e-07 	0.001372207 	2.459595e-08 	0.00069544626
0.61458333 	0.0013628144 	0.00046158158 	5.0667171e-07 	0.0014062348 	8.8781843e-08 	0.00071848884
0.625 	0.0013901005 	0.00051305323 	-4.6464002e-08 	0.001436431 	-4.1743662e-08 	0.00040347247
0.63541667 	0.0014143114 	0.00055762912 	-2.4638912e-08 	0.0014641245 	-2.2717628e-08 	0.00054740501
0.64583333 	0.0014357485 	0.000596055 	3.2575076e-07 	0.0014888939 	-1.9125697e-08 	0.00075990844
0.65625 	0.0014549573 	0.00062908014 	-6.6271734e-08 	0.001509337 	-6.2542391e-08 	0.00017934656
0.66666667 	0.0014713939 	0.00065780554 	1.3091874e-07 	0.0015286084 	-4.8711011e-08 	0.00077734886
0.67708333 	0.0014858233 	0.00068344594 	-1.7401128e-08 	0.0015437544 	-1.583133e-08 	0.00062220964
0.6875 	0.0014976068 	0.00070104486 	-1.4867911e-09 	0.0015568022 	-1.8737583e-09 	0.00077007874
0.69791667 	0.0015071879 	0.00071133469 	-3.3279466e-09 	0.001567401 	-1.0694478e-08 	0.00080287421
0.70833333 	0.0015145051 	0.00071687231 	-3.4213881e-09 	0.0015749783 	-8.2618489e-09 	0.00069312304
0.71875 	0.0015201495 	0.00071969212 	-7.3479636e-10 	0.0015809167 	-1.6782023e-09 	0.00080983529
0.72916667 	0.0015239944 	0.00072145159 	-3.9074654e-09 	0.0015840127 	-8.9242647e-09 	0.00080984119
0.73958333 	0.0015264106 	0.00072233666 	-4.5649617e-09 	0.001584715 	-1.0687031e-08 	0.00064440863
0.75 	0.0015275692 	0.00072273886 	-5.4125921e-08 	0.0015846592 	-1.2472646e-07 	0.00081264038
0.76041667 	0.0015274687 	0.00072229873 	-7.5194711e-09 	0.0015822742 	-1.7419921e-08 	0.00050657741
0.77083333 	0.0015264816 	0.00072168543 	-6.4567686e-08 	0.0015800784 	-1.4829727e-07 	0.00081212827
0.78125 	0.0015246007 	0.00072038738 	-5.3644885e-09 	0.0015758434 	-1.2541692e-08 	0.00057956994
0.79166667 	0.0015220399 	0.00071894344 	-9.8247654e-09 	0.0015717073 	-2.2537437e-08 	0.00080970175
0.80208333 	0.0015187682 	0.00071703086 	-2.454473e-08 	0.0015663144 	-5.6258051e-08 	0.00080608909
0.8125 	0.0015149139 	0.00071463506 	-8.99491e-09 	0.0015594495 	-2.0816745e-08 	0.00040333943
0.82291667 	0.0015104396 	0.00071226486 	-1.834442e-07 	0.0015533691 	-4.204013e-07 	0.00080163805
0.83333333 	0.0015054542 	0.00070925242 	-1.0178998e-08 	0.001545049 	-2.3410406e-08 	0.00034178788
0.84375 	0.0014998645 	0.0007062753 	-2.535159e-09 	0.0015375419 	-5.7945256e-09 	0.00068190393
0.85416667 	0.0014937291 	0.00070291227 	-1.5888664e-07 	0.0015289621 	-3.6361003e-07 	0.00079110624
0.86458333 	0.0014873162 	0.00069926124 	-3.9180987e-09 	0.0015194642 	-8.9230899e-09 	0.00060466528
0.875 	0.0014811214 	0.00069552935 	-1.3353385e-08 	0.0015094367 	-3.0477929e-08 	0.0001085576
0.88541667 	0.0014758939 	0.00069262842 	-1.9032562e-09 	0.0015020608 	-4.4348577e-09 	0.00065911626
0.89583333 	0.0014739886 	0.0006909239 	-4.4555748e-08 	0.0014965411 	-1.0674142e-07 	0.00077754157
0.90625 	0.0014793823 	0.00069227908 	-3.9209432e-08 	0.0014969296 	-1.0928817e-07 	0.00077832602
0.91666667 	0.0014996294 	0.00070015664 	4.3067696e-08 	0.0015106052 	5.9364836e-08 	0.00078648627
0.92708333 	0.0015502681 	0.00072183621 	1.5608848e-07 	0.001553399 	3.0883906e-07 	0.00080812192
0.9375 	0.00166258 	0.00077220491 	9.9019069e-08 	0.0016579384 	2.0647752e-07 	0.00085377942
0.94791667 	0.0018976404 	0.000880628 	9.2969756e-08 	0.0018858817 	1.9692038e-07 	0.00034076708
0.95833333 	0.0023044542 	0.0010730648 	1.591402e-08 	0.0022898844 	3.3883143e-08 	0.001141301
0.96875 	0.0027805367 	0.0012974029 	1.3738697e-07 	0.0027635581 	3.0430661e-07 	6.1187701e-05
0.97916667 	0.002941233 	0.0013796738 	-8.9644953e-08 	0.0029319949 	-2.284202e-07 	0.0015499891
0.98958333 	0.0016873374 	0.00078883697 	-1.1166503e-06 	0.0016845498 	-2.2210899e-06 	0.00092269393
