4.1667976e-36 	-0.20659983 	1.4031209e-14 	5.0999729e-21
0.010869565 	-0.20641293 	-0.0066491654 	2.8962202e-07
0.02173913 	-0.20264524 	-0.01302973 	9.8259859e-08
0.032608696 	-0.19410549 	-0.018968442 	6.0046088e-06
0.043478261 	-0.18680468 	-0.025045133 	1.1764973e-06
0.054347826 	-0.17017458 	-0.030580868 	1.4638976e-05
0.065217391 	-0.15807744 	-0.036840069 	7.2842642e-06
0.076086957 	-0.14049962 	-0.042418322 	1.6085127e-05
0.086956522 	-0.12538883 	-0.04838697 	2.4118198e-07
0.097826087 	-0.10420995 	-0.054280599 	-1.7695489e-06
0.10869565 	-0.080941168 	-0.060236784 	6.2484405e-07
0.11956522 	-0.055422889 	-0.066864884 	-1.850899e-06
0.13043478 	-0.027997361 	-0.073275954 	-1.0230891e-05
0.14130435 	0.0011084883 	-0.08031858 	1.3974708e-05
0.15217391 	0.031803994 	-0.087189606 	-1.3765008e-05
0.16304348 	0.06402025 	-0.094372975 	-2.3507295e-06
0.17391304 	0.098915719 	-0.10147055 	-5.3415203e-06
0.18478261 	0.13527409 	-0.10862674 	4.8670721e-06
0.19565217 	0.17518976 	-0.11511591 	1.0471472e-05
0.20652174 	0.21675467 	-0.12156177 	4.7372541e-06
0.2173913 	0.26289024 	-0.12700415 	3.7635598e-05
0.22826087 	0.30843851 	-0.13021043 	5.2495195e-05
0.23913043 	0.36298652 	-0.13654961 	7.5923536e-05
0.25 	0.41569252 	-0.13957113 	3.1619552e-05
0.26086957 	0.47444139 	-0.14387855 	3.257514e-05
0.27173913 	0.53318416 	-0.1469655 	3.6468295e-05
0.2826087 	0.59422246 	-0.14655727 	7.8203768e-05
0.29347826 	0.6579468 	-0.15101295 	9.4375215e-05
0.30434783 	0.72021163 	-0.1517759 	2.6225225e-05
0.31521739 	0.78528284 	-0.15135973 	5.2928681e-05
0.32608696 	0.84712196 	-0.153265 	0.00013418117
0.33695652 	0.90664039 	-0.15138348 	6.0230308e-05
0.34782609 	0.96605774 	-0.15000328 	6.2336406e-05
0.35869565 	1.0200819 	-0.15014248 	0.00014246934
0.36956522 	1.0680008 	-0.14707651 	5.9700537e-05
0.38043478 	1.1133248 	-0.14354177 	9.917334e-05
0.39130435 	1.1557922 	-0.14237182 	5.8923659e-05
0.40217391 	1.1879063 	-0.13899027 	2.9463528e-05
0.41304348 	1.2149495 	-0.1338396 	0.00015723182
0.42391304 	1.2411229 	-0.13115651 	4.2896636e-05
0.43478261 	1.261684 	-0.12788305 	6.0066196e-05
0.44565217 	1.2739085 	-0.12335011 	9.5342144e-05
0.45652174 	1.2846636 	-0.1190936 	0.00012327049
0.4673913 	1.2951465 	-0.11556216 	2.0299196e-05
0.47826087 	1.3014067 	-0.11191655 	1.2140056e-05
0.48913043 	1.303613 	-0.10799308 	0.00011528136
0.5 	1.305706 	-0.10426721 	0.00011119865
0.51086957 	1.3077021 	-0.10071067 	1.5237439e-05
0.52173913 	1.3081521 	-0.097415192 	2.977597e-05
0.5326087 	1.3076561 	-0.094211373 	0.00012188231
0.54347826 	1.3068077 	-0.090983464 	9.1429001e-05
0.55434783 	1.3057787 	-0.087749403 	3.6031092e-06
0.56521739 	1.3047188 	-0.084928094 	5.6429516e-05
0.57608696 	1.3036265 	-0.082143124 	0.00013587587
0.58695652 	1.3018475 	-0.079323546 	4.7252416e-05
0.59782609 	1.3002223 	-0.076645972 	1.6482766e-05
0.60869565 	1.2988755 	-0.074153434 	9.7419441e-05
0.61956522 	1.2970111 	-0.071678918 	6.9880426e-05
0.63043478 	1.2949168 	-0.069247056 	4.2767099e-06
0.64130435 	1.2931626 	-0.066951739 	7.3451584e-05
0.65217391 	1.2910016 	-0.064704835 	7.1684938e-05
0.66304348 	1.2884475 	-0.062519203 	7.423321e-06
0.67391304 	1.2861477 	-0.060380809 	6.7077088e-05
0.68478261 	1.2833954 	-0.05833111 	5.7710864e-05
0.69565217 	1.2803081 	-0.056359029 	7.4379065e-06
0.70652174 	1.2773723 	-0.054331555 	7.4786727e-05
0.7173913 	1.2737676 	-0.052488029 	3.1633383e-05
0.72826087 	1.2700559 	-0.050631074 	2.9659073e-05
0.73913043 	1.2661987 	-0.048765429 	6.35989e-05
0.75 	1.2616707 	-0.047115595 	1.4775297e-06
0.76086957 	1.2570815 	-0.045259212 	6.0904312e-05
0.77173913 	1.2517253 	-0.043680548 	1.7205125e-05
0.7826087 	1.2457982 	-0.041949221 	4.0231846e-05
0.79347826 	1.2390981 	-0.040361739 	2.7448313e-05
0.80434783 	1.2310523 	-0.038709587 	2.9938334e-05
0.81521739 	1.2216253 	-0.037098151 	2.8469587e-05
0.82608696 	1.2097875 	-0.035428598 	2.8582729e-05
0.83695652 	1.1954722 	-0.033795137 	2.1466986e-05
0.84782609 	1.1769437 	-0.031938682 	3.5512585e-05
0.85869565 	1.1549589 	-0.030311205 	6.9869511e-06
0.86956522 	1.1259843 	-0.028055688 	4.8601108e-05
0.88043478 	1.0916012 	-0.026270938 	1.2658504e-05
0.89130435 	1.0491891 	-0.024028221 	1.9840544e-05
0.90217391 	0.99840715 	-0.021461178 	4.3874028e-05
0.91304348 	0.93790982 	-0.019220391 	1.6091666e-05
0.92391304 	0.86631107 	-0.016655673 	5.3949601e-06
0.93478261 	0.78365429 	-0.013748416 	1.6456261e-05
0.94565217 	0.68149902 	-0.010794538 	2.384669e-06
0.95652174 	0.57092588 	-0.0075007728 	3.6299716e-05
0.9673913 	0.44424892 	-0.0049273572 	1.4897311e-05
0.97826087 	0.30757216 	-0.0024579879 	2.3851313e-05
0.98913043 	0.14075099 	-0.00053759692 	1.2625291e-05
