0.27835052 	0.79141855 	0.19642591 	-0.00022274334
0.28865979 	1.2676992 	0.30418094 	-8.5725995e-06
0.29896907 	1.2680462 	0.29107744 	-2.3880189e-05
0.30927835 	1.2633247 	0.27756645 	-0.00012134832
0.31958763 	1.2607159 	0.26480043 	-6.2450041e-06
0.32989691 	1.2588567 	0.25397715 	-0.00010650856
0.34020619 	1.2569319 	0.24328718 	-0.00011975649
0.35051546 	1.2549867 	0.23319739 	-3.5959601e-05
0.36082474 	1.2528173 	0.22348975 	-0.00016279909
0.37113402 	1.2510054 	0.2144479 	-3.9565173e-05
0.3814433 	1.2489844 	0.2060216 	-0.00010929332
0.39175258 	1.2467937 	0.1980569 	-2.8470793e-05
0.40206186 	1.2441472 	0.1898766 	-0.00028624027
0.41237113 	1.2422496 	0.18286897 	-5.9475744e-05
0.42268041 	1.2397663 	0.17594215 	-0.00010087953
0.43298969 	1.2370386 	0.16885559 	-0.00026430761
0.44329897 	1.2349434 	0.1631153 	-9.4093072e-06
0.45360825 	1.2318229 	0.1562785 	-0.00023112467
0.46391753 	1.2295155 	0.15114515 	-2.6957722e-05
0.4742268 	1.2264165 	0.14491011 	-0.00014969123
0.48453608 	1.2238244 	0.14011106 	-7.4049781e-05
0.49484536 	1.2206483 	0.13433465 	-0.00011626105
0.50515464 	1.2178941 	0.12993467 	-0.00010905827
0.51546392 	1.2146874 	0.12482672 	-5.5000626e-05
0.5257732 	1.2117427 	0.1205181 	-4.4060671e-05
0.53608247 	1.2084826 	0.11613309 	-1.4306528e-05
0.54639175 	1.2053105 	0.11166469 	-1.8551135e-05
0.55670103 	1.2020393 	0.10773811 	-0.00017490669
0.56701031 	1.198684 	0.10355779 	-1.7738735e-05
0.57731959 	1.195429 	0.099884221 	-6.4360386e-05
0.58762887 	1.191977 	0.096204979 	-0.00012556114
0.59793814 	1.1885364 	0.092321159 	-1.8742467e-05
0.60824742 	1.1851436 	0.089146316 	-0.00011422286
0.6185567 	1.1816424 	0.085839793 	-0.00011863087
0.62886598 	1.178178 	0.082401075 	-1.147891e-05
0.63917526 	1.174575 	0.079453197 	-0.00011572125
0.64948454 	1.1709372 	0.076424832 	-0.00011329902
0.65979381 	1.1673732 	0.07332839 	-7.0934349e-06
0.67010309 	1.1634888 	0.070545931 	-0.00011650691
0.68041237 	1.1596067 	0.06770177 	-7.6127876e-05
0.69072165 	1.1557591 	0.06489404 	-1.4833004e-06
0.70103093 	1.1516455 	0.062256433 	-0.00014324922
0.71134021 	1.1475357 	0.059599455 	-1.2147718e-05
0.72164948 	1.1433288 	0.057051734 	-4.5179269e-05
0.73195876 	1.1389377 	0.054545024 	-7.3582217e-05
0.74226804 	1.1345639 	0.052053092 	-1.0367629e-06
0.75257732 	1.1298169 	0.049695025 	-0.00010490845
0.7628866 	1.1251404 	0.047279861 	-1.3490076e-06
0.77319588 	1.1200265 	0.045037637 	-7.6407012e-05
0.78350515 	1.1148937 	0.042738816 	-4.714474e-07
0.79381443 	1.1093807 	0.040551921 	-5.7117307e-05
0.80412371 	1.103753 	0.038330538 	-4.819269e-07
0.81443299 	1.0976551 	0.036217224 	-5.5896835e-05
0.82474227 	1.0914902 	0.034040743 	-1.005414e-06
0.83505155 	1.0845972 	0.032010589 	-5.0403632e-05
0.84536082 	1.0775971 	0.029936087 	-3.5513965e-07
0.8556701 	1.0699308 	0.027909749 	-8.4418746e-06
0.86597938 	1.0618287 	0.025907924 	-2.9578615e-05
0.87628866 	1.0533271 	0.02387849 	-1.0040527e-06
0.88659794 	1.0437844 	0.021935249 	-9.0755303e-07
0.89690722 	1.033466 	0.019985708 	-3.213948e-05
0.90721649 	1.0220959 	0.01804613 	-6.2775503e-06
0.91752577 	1.0091142 	0.01608508 	-1.173024e-06
0.92783505 	0.99362121 	0.014132988 	-2.2312088e-06
0.93814433 	0.97415013 	0.012190485 	-1.7718533e-06
0.94845361 	0.95028539 	0.010318989 	-1.8728595e-06
0.95876289 	0.912661 	0.008188952 	-6.5081957e-06
0.96907216 	0.8573947 	0.0060227231 	-2.8989056e-07
0.97938144 	0.76184524 	0.0036583772 	-1.533832e-07
0.98969072 	0.54154759 	0.0012442756 	-9.8823976e-07
