0.4742268 	0.3175795 	4.5036644e-05 	-4.0791572e-09
0.48453608 	0.95204333 	0.00050581376 	-2.3081626e-08
0.49484536 	1.2172868 	0.0010982422 	2.7176379e-06
0.50515464 	1.3673575 	0.0016968678 	-2.2036788e-08
0.51546392 	1.4332313 	0.0020159302 	4.6217166e-07
0.5257732 	1.4569113 	0.0021796715 	-2.6628423e-07
0.53608247 	1.46449 	0.0021207252 	-3.7216164e-07
0.54639175 	1.4662538 	0.0020916734 	-4.7316368e-08
0.55670103 	1.4658258 	0.0020273963 	-2.7421474e-08
0.56701031 	1.464404 	0.0019568926 	-3.2433779e-07
0.57731959 	1.4624265 	0.0018791418 	-1.0170436e-06
0.58762887 	1.4600835 	0.0017971771 	-1.6426126e-06
0.59793814 	1.4574731 	0.001712264 	-3.5593663e-07
0.60824742 	1.454582 	0.0016229298 	-1.7012439e-07
0.6185567 	1.4515532 	0.0015346894 	-6.5425642e-07
0.62886598 	1.4483203 	0.0014433734 	-1.5243526e-06
0.63917526 	1.4449025 	0.0013455438 	-9.7976173e-08
0.64948454 	1.4413862 	0.0012493296 	-1.1789656e-06
0.65979381 	1.4377215 	0.0011542539 	-5.1742745e-07
0.67010309 	1.4338757 	0.001057433 	-1.2231804e-08
0.68041237 	1.4298903 	0.00095747676 	-1.7965934e-06
0.69072165 	1.4257258 	0.00084888562 	-1.8474001e-08
0.70103093 	1.4215033 	0.00073903778 	-2.3803729e-06
0.71134021 	1.4171377 	0.00062886008 	2.7317667e-09
0.72164948 	1.4128127 	0.00052507106 	-2.0566695e-06
0.73195876 	1.4084335 	0.00042163413 	4.7167887e-09
0.74226804 	1.4039467 	0.00031922835 	-1.2979901e-06
0.75257732 	1.3994483 	0.00021878517 	-6.5779064e-08
0.7628866 	1.3947711 	0.00011895996 	-7.5401634e-07
0.77319588 	1.3899924 	1.9508191e-05 	-1.7225941e-07
0.78350515 	1.3850701 	-7.8289287e-05 	-8.4199164e-07
0.79381443 	1.3800227 	-0.00017543656 	1.3937617e-08
0.80412371 	1.3747506 	-0.00027142905 	-1.4538983e-06
0.81443299 	1.3693648 	-0.00036570849 	7.9858217e-08
0.82474227 	1.3636187 	-0.00046055772 	-1.3130077e-06
0.83505155 	1.3576907 	-0.00055353427 	-1.3458174e-07
0.84536082 	1.3514357 	-0.00064531245 	4.6264689e-08
0.8556701 	1.3447481 	-0.00073659706 	-1.1356216e-06
0.86597938 	1.3376881 	-0.00082654592 	-4.8784186e-07
0.87628866 	1.3301446 	-0.00091489041 	9.6011553e-08
0.88659794 	1.3219036 	-0.0010030208 	5.3955882e-08
0.89690722 	1.312838 	-0.0010895526 	-2.6483121e-07
0.90721649 	1.3026696 	-0.0011729958 	-5.2341853e-07
0.91752577 	1.290816 	-0.0012502898 	-5.0217152e-07
0.92783505 	1.2760092 	-0.0013125418 	-2.4830421e-07
0.93814433 	1.2554568 	-0.0013402709 	2.1487783e-09
0.94845361 	1.2222684 	-0.0012944431 	2.661618e-07
0.95876289 	1.1634596 	-0.0011316881 	7.885278e-07
0.96907216 	1.0617794 	-0.00081076993 	2.3402046e-07
0.97938144 	0.89380135 	-0.00043065164 	3.7735613e-07
0.98969072 	0.58494773 	-9.1285084e-05 	2.6905221e-07
