0.47916667 	0.6786578 	0.00010488205 	3.6717941e-08
0.48958333 	1.0661357 	0.00058857237 	-1.9774863e-07
0.5 	1.2631652 	0.0010978317 	1.8047041e-07
0.51041667 	1.3804795 	0.001539807 	1.2677995e-06
0.52083333 	1.4365928 	0.0018192206 	-3.8760156e-07
0.53125 	1.4582278 	0.0019289838 	-1.2544245e-07
0.54166667 	1.4655827 	0.0019029858 	-1.1455962e-07
0.55208333 	1.4675192 	0.0018643511 	-3.3423196e-07
0.5625 	1.4673317 	0.0018096049 	-3.1931702e-07
0.57291667 	1.4661137 	0.0017459158 	-7.8130912e-09
0.58333333 	1.4642659 	0.0016747056 	-1.2323679e-07
0.59375 	1.4620412 	0.0015997033 	-1.6200786e-07
0.60416667 	1.4595696 	0.0015235202 	-1.9718137e-07
0.61458333 	1.4568267 	0.0014436937 	-1.1648465e-06
0.625 	1.4538676 	0.00136082 	-7.9108353e-08
0.63541667 	1.4507503 	0.0012779428 	-4.019376e-08
0.64583333 	1.447476 	0.0011939379 	-1.3709257e-06
0.65625 	1.4439881 	0.0011033416 	-9.5563682e-08
0.66666667 	1.4404535 	0.0010149184 	-7.8944377e-07
0.67708333 	1.4367357 	0.00092592141 	-2.1984141e-08
0.6875 	1.4328823 	0.00083723823 	-2.3555558e-09
0.69791667 	1.4288909 	0.00074813997 	-7.422503e-08
0.70833333 	1.4246972 	0.0006514349 	-4.1328612e-09
0.71875 	1.420408 	0.00055155016 	-9.002461e-09
0.72916667 	1.4160543 	0.00045335672 	-4.7872862e-08
0.73958333 	1.4115274 	0.00035531261 	1.5000928e-09
0.75 	1.4069898 	0.00026006499 	-5.4548489e-07
0.76041667 	1.4023289 	0.00016560334 	6.5673708e-09
0.77083333 	1.397503 	7.1015566e-05 	-5.7877849e-07
0.78125 	1.3926023 	-2.0867978e-05 	1.0446386e-08
0.79166667 	1.3875169 	-0.00011280332 	-8.0091949e-08
0.80208333 	1.3822741 	-0.00020302604 	-1.8638929e-07
0.8125 	1.3768466 	-0.00029198924 	3.4553376e-08
0.82291667 	1.371125 	-0.00038115218 	-1.309234e-06
0.83333333 	1.3652091 	-0.00046813554 	4.775801e-08
0.84375 	1.3589138 	-0.00055558998 	1.3919787e-08
0.85416667 	1.3522417 	-0.00064151891 	-1.0224481e-06
0.86458333 	1.3451902 	-0.00072615012 	2.5012198e-08
0.875 	1.3376117 	-0.00080934286 	1.0317542e-07
0.88541667 	1.329317 	-0.00089290726 	2.0399938e-08
0.89583333 	1.3201656 	-0.00097357781 	-3.3428638e-07
0.90625 	1.3097481 	-0.0010494547 	-5.2137408e-07
0.91666667 	1.2972246 	-0.0011148345 	-4.09751e-07
0.92708333 	1.2807828 	-0.0011571285 	-9.6211532e-08
0.9375 	1.2566544 	-0.0011539169 	6.6859247e-08
0.94791667 	1.2167865 	-0.00107107 	2.0915596e-07
0.95833333 	1.1500297 	-0.00088491893 	3.0979559e-08
0.96875 	1.0440013 	-0.00059365451 	2.7383734e-07
0.97916667 	0.87823816 	-0.00030713218 	2.7047492e-07
0.98958333 	0.57662163 	-5.9742245e-05 	1.6838794e-07
