/*--------------------------------*- C++ -*----------------------------------*\
  =========                 |
  \\      /  F ield         | OpenFOAM: The Open Source CFD Toolbox
   \\    /   O peration     | Website:  https://openfoam.org
    \\  /    A nd           | Version:  7
     \\/     M anipulation  |
\*---------------------------------------------------------------------------*/
FoamFile
{
    version     2.0;
    format      ascii;
    class       volScalarField;
    location    "2000";
    object      k;
}
// * * * * * * * * * * * * * * * * * * * * * * * * * * * * * * * * * * * * * //

dimensions      [0 2 -2 0 0 0 0];

internalField   nonuniform List<scalar> 
15296
(
0.0016938546
0.001688523
0.0016833965
0.0016784488
0.0016736528
0.0016689885
0.0016644402
0.0016599962
0.0016556472
0.0016513862
0.0016472082
0.0016431092
0.0016390861
0.0016351365
0.0016312579
0.0016274488
0.0016237028
0.0016200232
0.0016163814
0.0016128211
0.0016094366
0.0016063834
0.0016031362
0.0015999183
0.0015890074
0.0015713234
0.001552019
0.0015359276
0.0015366899
0.0014490956
0.0013479937
0.0012245676
0.0010618978
0.00083200767
0.00091696478
0.0010008635
0.0009582731
0.00092863786
0.0016939144
0.0016885819
0.0016834612
0.0016785185
0.0016737282
0.00166907
0.0016645283
0.0016600908
0.0016557481
0.001651493
0.0016473203
0.001643226
0.001639207
0.0016352607
0.0016313848
0.0016275778
0.001623833
0.0016201551
0.0016165138
0.0016129525
0.0016095804
0.0016065151
0.0016032463
0.0016001104
0.0015890136
0.0015703742
0.0015505206
0.0015337296
0.0015344744
0.0014486585
0.0013477777
0.0012255897
0.0010660157
0.00083889956
0.0009081359
0.00098897244
0.00095149812
0.00091824468
0.0016940402
0.0016887096
0.0016835985
0.001678665
0.0016738853
0.0016692392
0.0016647104
0.001660286
0.001655956
0.0016517128
0.0016475509
0.001643466
0.0016394551
0.0016355154
0.0016316446
0.0016278415
0.0016240989
0.0016204237
0.001616783
0.0016132185
0.0016098797
0.0016067877
0.0016034613
0.0016004688
0.0015889643
0.0015681152
0.0015469406
0.0015285975
0.001528744
0.0014466414
0.0013461447
0.0012262079
0.0010725925
0.00085341581
0.00089004299
0.00096337639
0.00093385444
0.00091575422
0.0016942257
0.0016889035
0.0016838038
0.0016788827
0.0016741177
0.0016694885
0.001664978
0.0016605724
0.0016562609
0.0016520352
0.0016478892
0.0016438184
0.0016398196
0.0016358899
0.0016320269
0.0016282299
0.0016244908
0.00162082
0.0016171812
0.0016136103
0.0016103304
0.0016072002
0.0016037738
0.0016009599
0.0015889931
0.0015648505
0.0015415475
0.0015208222
0.0015194957
0.0014430793
0.0013431949
0.0012261392
0.0010803613
0.00087318794
0.00086742347
0.00092939373
0.00090775571
0.000915992
0.0016944688
0.001689163
0.0016840758
0.0016791695
0.0016744229
0.0016698151
0.0016653284
0.0016609477
0.0016566609
0.0016524588
0.0016483346
0.0016442835
0.0016403017
0.0016363865
0.0016325351
0.0016287473
0.0016250141
0.0016213503
0.0016177167
0.0016141343
0.0016109489
0.0016077753
0.0016041945
0.0016015583
0.001589271
0.0015608495
0.0015344843
0.0015103954
0.0015061284
0.0014377179
0.0013393305
0.0012257458
0.0010889983
0.00089750701
0.00084427989
0.00088998703
0.00087431581
0.00089906805
0.0016948566
0.0016895816
0.0016845108
0.0016796254
0.0016749053
0.0016703291
0.001665878
0.0016615352
0.0016572869
0.0016531221
0.0016490329
0.0016450137
0.0016410603
0.0016371696
0.0016333385
0.0016295673
0.0016258456
0.0016221949
0.001618574
0.0016149673
0.001611956
0.0016087414
0.001604893
0.0016023993
0.0015901158
0.00155543
0.001524084
0.0014944528
0.001483599
0.0014277454
0.0013331215
0.0012242862
0.0010985529
0.00092974753
0.00082026784
0.00084157923
0.00082419542
0.00087691237
0.0016955018
0.0016902776
0.001685226
0.0016803656
0.0016756764
0.0016711375
0.0016667289
0.0016624325
0.001658232
0.0016541144
0.0016500703
0.0016460929
0.0016421773
0.00163832
0.0016345171
0.0016307697
0.0016270651
0.0016234329
0.0016198329
0.0016161801
0.0016134403
0.001610249
0.0016060223
0.0016034223
0.0015916706
0.0015491759
0.0015112885
0.0014741457
0.0014496603
0.0014068545
0.0013189803
0.0012143865
0.0010966351
0.00095045667
0.00080181992
0.0007916742
0.00075205734
0.00078101546
0.0016964465
0.001691266
0.0016862393
0.0016814052
0.0016767473
0.0016722461
0.0016678818
0.0016636344
0.0016594857
0.0016554206
0.0016514275
0.0016474985
0.0016436275
0.0016398105
0.0016360428
0.0016323259
0.0016286445
0.001625036
0.0016214682
0.0016177426
0.0016153617
0.0016123182
0.0016076622
0.0016044902
0.0015938773
0.001543089
0.0014986347
0.0014540206
0.0014102356
0.0013699785
0.0012921495
0.00119237
0.0010794726
0.0009493043
0.0007829482
0.0007368618
0.00065157271
0.00064863853
0.0016978017
0.0016926371
0.0016876466
0.0016828405
0.0016782133
0.0016737493
0.0016694295
0.0016652332
0.00166114
0.0016571323
0.0016531966
0.0016493231
0.0016455047
0.0016417362
0.0016380123
0.0016343348
0.0016306848
0.0016271072
0.0016235886
0.0016197542
0.0016178271
0.0016151353
0.0016100624
0.0016055944
0.0015966879
0.0015371677
0.0014871179
0.001436467
0.0013728957
0.0013141364
0.0012426427
0.0011498944
0.0010412297
0.00091996322
0.00074582065
0.00069581413
0.00051202499
0.00048333128
0.0016996384
0.0016945285
0.0016895758
0.0016847982
0.0016802008
0.0016757725
0.0016714964
0.0016673516
0.0016633162
0.0016593704
0.0016554982
0.0016516877
0.0016479302
0.0016442199
0.0016405499
0.0016369227
0.001633315
0.0016297775
0.001626331
0.0016223445
0.0016209662
0.0016189264
0.0016135628
0.0016067817
0.001599927
0.0015308913
0.001476796
0.0014215032
0.0013423675
0.0012470457
0.0011594816
0.0010708373
0.00096703929
0.00084743929
0.00067126206
0.00065740977
0.00030382703
0.00019098891
0.0017021016
0.0016971067
0.0016921918
0.0016874438
0.001682875
0.0016784797
0.0016742442
0.0016701489
0.0016661711
0.0016622891
0.0016584843
0.0016547426
0.0016510535
0.00164741
0.001643804
0.0016402385
0.0016366851
0.0016331975
0.0016298499
0.0016256647
0.0016249218
0.0016239256
0.001618553
0.0016081575
0.0016033038
0.0015231431
0.0014664627
0.0014056812
0.0013092889
0.0011741666
0.0010455708
0.00093895559
0.00082990888
0.00070013146
0.00054326814
0.00058073178
6.9261045e-05
2.3438603e-07
0.0017054926
0.0017005588
0.0016957018
0.001690988
0.0016864462
0.0016820792
0.0016778781
0.001673826
0.0016699008
0.0016660796
0.0016623415
0.0016586701
0.0016550527
0.0016514811
0.0016479458
0.0016444509
0.0016409617
0.0016375335
0.0016343095
0.0016298821
0.0016298601
0.0016303496
0.001625385
0.0016098592
0.0016065052
0.001511745
0.0014529631
0.0013788782
0.0012405765
0.001059559
0.00089954388
0.0007548874
0.00061444074
0.00046642939
0.0003889617
0.00034611303
5.152717e-06
1.9389106e-08
0.0017100214
0.0017051734
0.0017003802
0.0016957037
0.0016911873
0.0016868426
0.0016826666
0.0016786468
0.0016747635
0.001670994
0.0016673158
0.0016637101
0.0016601621
0.0016566621
0.0016531992
0.0016497792
0.0016463595
0.0016429994
0.0016399151
0.0016352092
0.0016360408
0.0016384414
0.0016341751
0.0016118626
0.0016091585
0.0014924794
0.0014264704
0.0012982851
0.0010454152
0.00083292762
0.000666434
0.00047796711
0.00032354365
0.00021221251
0.00022490535
0.00010391288
1.0774964e-07
2.372148e-09
0.0017160033
0.0017113202
0.0017065842
0.001701948
0.0016974585
0.0016931309
0.0016889695
0.0016849681
0.0016811115
0.0016773788
0.0016737476
0.001670197
0.0016667102
0.0016632758
0.0016598811
0.0016565349
0.001653185
0.0016499021
0.0016469571
0.0016419415
0.001643928
0.0016485359
0.0016444951
0.0016131978
0.0016099653
0.001481796
0.0013393611
0.00096301548
0.00057726062
0.0004825139
0.00027863033
0.00012548587
6.2877698e-05
4.2599379e-05
6.3410022e-05
2.0005773e-06
1.3420935e-08
1.3825526e-12
0.0017241136
0.0017194252
0.0017147626
0.0017101815
0.0017057233
0.0017014091
0.0016972512
0.0016932515
0.0016894012
0.0016856839
0.0016820788
0.0016785645
0.0016751221
0.0016717386
0.0016683993
0.0016651169
0.0016618254
0.0016586278
0.0016557899
0.0016504274
0.0016542643
0.0016610012
0.0016552108
0.0016093694
0.0016139299
0.0014759849
0.00055966184
0.00014800526
4.0368704e-05
6.2907779e-05
2.000931e-05
4.9130007e-06
1.9169315e-06
2.2881576e-06
5.3576781e-06
7.2804984e-08
1.9860995e-10
2.2432121e-13
0.0017367538
0.0017321198
0.0017275413
0.0017230313
0.0017186143
0.0017143115
0.0017101434
0.0017061218
0.0017022478
0.0016985126
0.0016949005
0.0016913918
0.0016879667
0.00168461
0.0016813043
0.0016780682
0.0016748096
0.0016717184
0.0016689051
0.0016630698
0.0016707338
0.001678842
0.0016663942
0.0015829287
0.0016712345
0.00052304983
9.230923e-06
1.9508225e-06
2.6239106e-06
3.6397879e-07
2.6358232e-07
6.703289e-08
1.5890449e-07
1.8952008e-07
8.1171066e-08
8.0804419e-11
2.5542778e-13
2.220446e-16
0.0017556437
0.0017511715
0.0017466998
0.0017422638
0.0017378891
0.0017335935
0.0017293998
0.0017253272
0.0017213858
0.0017175764
0.0017138914
0.0017103166
0.0017068346
0.0017034307
0.0017000844
0.0016968246
0.0016935072
0.0016905247
0.001687456
0.001681225
0.0016956062
0.0016981967
0.0016469136
0.0017225612
0.00089863325
1.6474089e-05
9.1582149e-07
1.5133616e-07
2.033354e-07
2.8443832e-08
2.2875027e-08
1.9981496e-10
2.466149e-12
2.220446e-16
6.2510625e-09
6.216724e-12
3.4748584e-15
2.220446e-16
0.0017799725
0.0017755737
0.0017711687
0.0017667821
0.0017624337
0.001758134
0.0017539033
0.0017497635
0.0017457302
0.0017418117
0.0017380083
0.0017343127
0.0017307122
0.0017271947
0.0017237378
0.0017203829
0.0017169208
0.0017140212
0.001710345
0.0017050357
0.0017197131
0.0017128796
0.0016361427
0.0017391105
0.0001708098
3.6879327e-08
1.3834926e-08
1.4701293e-09
1.4793883e-09
2.1559065e-11
8.2223664e-11
8.7628249e-13
1.2459666e-14
2.220446e-16
2.220446e-16
2.220446e-16
2.220446e-16
2.220446e-16
0.0018107619
0.0018063384
0.0018019333
0.0017975464
0.0017931862
0.0017888534
0.0017845626
0.0017803342
0.0017761856
0.0017721293
0.0017681713
0.0017643107
0.0017605401
0.0017568511
0.0017532214
0.0017497014
0.001746036
0.0017431042
0.0017387166
0.001735179
0.0017431618
0.0016989625
0.0018872916
0.00064639714
2.2984386e-06
3.304191e-08
1.6941314e-09
1.260876e-10
6.532308e-13
1.2269342e-13
7.2298796e-12
2.3816226e-16
2.2229649e-16
2.220446e-16
2.220446e-16
2.220446e-16
2.220446e-16
2.220446e-16
0.0018489817
0.0018445319
0.0018400797
0.0018356326
0.001831204
0.0018267905
0.001822401
0.0018180518
0.0018137588
0.0018095351
0.0018053897
0.001801326
0.0017973411
0.0017934302
0.0017895738
0.0017858205
0.001781931
0.0017787083
0.0017741195
0.001771069
0.0017698285
0.0017922883
0.0019271877
0.00082957357
5.4083499e-07
1.2163191e-08
6.3887088e-14
1.3099599e-14
5.4428352e-14
4.4505856e-15
6.4249976e-13
2.220446e-16
2.220446e-16
2.220446e-16
2.220446e-16
2.220446e-16
2.220446e-16
2.220446e-16
0.001895898
0.0018913559
0.0018867907
0.0018822176
0.0018776578
0.0018731068
0.0018685693
0.0018640574
0.0018595839
0.00185516
0.001850795
0.0018464939
0.0018422569
0.0018380818
0.0018339536
0.0018299068
0.0018257883
0.0018220048
0.0018178485
0.0018138897
0.0018038271
0.0018984192
0.00082385908
6.2769328e-06
8.5732308e-08
1.4219307e-10
4.6344425e-14
1.433534e-14
2.220446e-16
2.220446e-16
5.7968152e-14
2.220446e-16
2.220446e-16
2.220446e-16
2.220446e-16
2.220446e-16
2.220446e-16
2.220446e-16
0.0019528572
0.0019480883
0.0019433185
0.0019385467
0.0019337897
0.001929039
0.001924295
0.0019195672
0.0019148653
0.0019101984
0.0019055741
0.0019009973
0.0018964693
0.0018919888
0.0018875459
0.0018831557
0.0018787663
0.0018744025
0.0018703004
0.0018663485
0.0018521177
0.0018895571
0.0019448063
0.00031486035
3.90062e-06
1.0909309e-09
1.9923049e-14
4.0001693e-14
1.6975353e-15
2.220446e-16
2.220446e-16
2.220446e-16
2.220446e-16
2.220446e-16
2.220446e-16
2.220446e-16
2.220446e-16
2.220446e-16
0.0020210396
0.0020159882
0.0020109599
0.00200593
0.0020009094
0.001995889
0.0019908684
0.0019858569
0.0019808634
0.001975895
0.0019709577
0.0019660551
0.0019611878
0.0019563544
0.0019515487
0.0019467699
0.0019420261
0.0019372105
0.0019325741
0.0019286899
0.00191963
0.001906828
0.0020855147
0.00053047909
5.9228862e-07
1.3875107e-07
1.1601753e-14
4.5521572e-13
8.9983038e-15
2.220446e-16
2.220446e-16
2.220446e-16
2.220446e-16
2.220446e-16
2.220446e-16
2.220446e-16
2.220446e-16
2.220446e-16
0.002101748
0.0020964703
0.0020911483
0.0020857871
0.0020804174
0.0020750393
0.0020696553
0.0020642761
0.002058911
0.0020535662
0.0020482461
0.0020429528
0.0020376854
0.002032441
0.002027215
0.002022
0.0020168105
0.0020115991
0.0020062789
0.0020018268
0.0019962177
0.0019777693
0.0020581632
0.001762273
0.0002839872
1.3718777e-06
3.4070946e-08
4.7481076e-12
9.4555763e-15
4.5234143e-16
2.220446e-16
2.220446e-16
2.220446e-16
2.220446e-16
2.220446e-16
2.220446e-16
2.220446e-16
2.220446e-16
0.0021971272
0.0021912776
0.0021854494
0.0021796078
0.0021737659
0.0021679178
0.0021620635
0.0021562139
0.0021503789
0.0021445642
0.0021387733
0.0021330066
0.0021272614
0.0021215328
0.0021158156
0.0021101021
0.0021043923
0.0020987019
0.0020928586
0.0020872942
0.0020831597
0.0020683426
0.0020595464
0.0023137856
0.00029602389
7.2251322e-06
6.9945739e-07
4.4954629e-10
1.941786e-12
1.263312e-11
2.220446e-16
2.220446e-16
2.220446e-16
2.220446e-16
2.220446e-16
2.220446e-16
2.220446e-16
2.220446e-16
0.0023080434
0.0023016578
0.0022952571
0.0022888227
0.0022823793
0.0022759282
0.002269472
0.0022630236
0.0022565943
0.0022501901
0.0022438139
0.0022374648
0.0022311384
0.0022248277
0.0022185255
0.0022122247
0.002205916
0.002199622
0.0021932657
0.0021868162
0.0021814577
0.0021743266
0.0021500897
0.0022629188
0.0019482593
0.00013490689
5.2049888e-06
4.6450724e-09
2.5911002e-09
1.3064034e-10
6.5307087e-12
2.220446e-16
2.220446e-16
2.220446e-16
2.220446e-16
2.220446e-16
2.220446e-16
2.220446e-16
0.0024364293
0.0024292371
0.0024220518
0.0024148398
0.0024076197
0.0024003932
0.0023931648
0.0023859496
0.0023787614
0.0023716075
0.0023644911
0.0023574104
0.0023503597
0.0023433299
0.0023363115
0.0023292963
0.0023222744
0.002315251
0.0023082183
0.0023011162
0.0022941293
0.0022887144
0.0022714457
0.0022752069
0.0023781776
0.001732015
5.2230042e-05
5.1233323e-06
2.1826758e-06
6.9391538e-08
4.1690314e-09
1.517953e-09
5.3878421e-15
1.8025689e-12
2.7401506e-16
1.4714098e-15
2.220446e-16
2.220446e-16
0.002583685
0.0025754892
0.0025672963
0.0025590726
0.0025508389
0.0025426013
0.0025343682
0.0025261592
0.0025179911
0.0025098735
0.0025018102
0.0024937991
0.0024858327
0.0024779
0.0024699891
0.0024620892
0.0024541917
0.002446289
0.0024383909
0.0024305041
0.0024223315
0.0024160048
0.0024034272
0.0023997268
0.0024054118
0.0024583898
0.00071800353
3.4801852e-05
1.8124424e-05
2.2467659e-06
1.97083e-08
1.4767207e-08
8.565404e-12
1.6897575e-11
1.2619806e-12
3.2039794e-14
2.2755646e-16
2.220446e-16
0.0027516864
0.0027420728
0.0027324784
0.0027228671
0.0027132593
0.0027036634
0.0026940921
0.002684569
0.0026751136
0.0026657373
0.0026564442
0.0026472311
0.0026380884
0.0026290022
0.0026199576
0.0026109408
0.0026019411
0.0025929516
0.0025839649
0.002575022
0.0025660093
0.0025569353
0.0025495056
0.0025372832
0.002511369
0.0025932157
0.0022121583
0.0015243614
0.00070604896
0.0008513282
2.4982512e-05
3.2095198e-05
8.4713141e-07
2.9161857e-10
9.7347684e-12
6.4097432e-15
6.6996111e-15
7.3809955e-15
0.0029415785
0.0029300743
0.0029185998
0.002907125
0.002895675
0.0028842638
0.0028729108
0.0028616453
0.0028504905
0.0028394591
0.0028285551
0.0028177735
0.0028071016
0.0027965216
0.0027860143
0.0027755625
0.002765152
0.0027547766
0.0027444213
0.0027341177
0.0027238467
0.0027133988
0.0027036737
0.0026948218
0.0026705757
0.0026915699
0.0026528427
0.0026141437
0.0025235571
0.0023933309
0.0022351277
0.00032115786
8.7452629e-06
1.3664493e-06
2.0674579e-07
5.0447833e-09
1.0015597e-13
6.5963772e-14
0.0031543254
0.0031402787
0.0031262831
0.0031123206
0.0030984212
0.0030846032
0.0030708945
0.0030573314
0.0030439401
0.0030307346
0.0030177184
0.0030048838
0.0029922137
0.0029796853
0.0029672742
0.0029549588
0.0029427217
0.0029305526
0.0029184452
0.0029063956
0.0028944339
0.0028824878
0.0028704
0.0028599507
0.0028446745
0.0028315182
0.002837764
0.0028447282
0.0028424462
0.0027806757
0.0028825723
0.0020868465
0.00053778249
1.0451882e-05
2.0783759e-06
5.2551684e-08
4.8414084e-10
9.1209657e-14
0.0033910168
0.0033734786
0.0033560434
0.0033387137
0.0033215193
0.0033044779
0.0032876257
0.0032710045
0.0032546422
0.0032385528
0.0032227381
0.0032071865
0.0031918751
0.0031767744
0.003161854
0.003147087
0.0031324528
0.0031179385
0.0031035386
0.0030892493
0.0030750735
0.003061023
0.003046989
0.0030331344
0.0030195939
0.0030035105
0.0029879443
0.0029774113
0.0029763801
0.0029545315
0.0030277522
0.0026526895
0.0026821421
0.00090483888
6.0043526e-05
4.2363225e-08
2.8666485e-09
5.9803402e-10
0.0036433676
0.0036212832
0.003599354
0.0035776214
0.0035561165
0.0035348557
0.0035138884
0.0034932655
0.003473018
0.0034531619
0.0034336986
0.0034146124
0.0033958739
0.0033774459
0.0033592906
0.003341375
0.0033236751
0.0033061762
0.0032888723
0.0032717622
0.0032548415
0.0032381202
0.0032215603
0.0032051091
0.0031888613
0.0031724605
0.0031552743
0.0031379164
0.0031228965
0.0031039715
0.0031138552
0.0030720512
0.0031414664
0.0027205054
0.001746509
5.363286e-05
1.1785039e-06
6.6288151e-07
0.0038932817
0.0038656996
0.0038382793
0.0038111285
0.0037842933
0.0037578016
0.0037317316
0.0037061543
0.0036811113
0.0036566263
0.003632703
0.0036093226
0.0035864481
0.0035640323
0.0035420271
0.003520391
0.0034990944
0.0034781196
0.0034574591
0.0034371113
0.003417072
0.0033973422
0.0033779004
0.0033587049
0.0033397091
0.0033208456
0.003302102
0.0032834741
0.0032654359
0.003245922
0.0032295729
0.0032081087
0.0032179433
0.0032172259
0.0030912516
0.00076150118
1.2641643e-05
3.7508663e-05
0.0041308494
0.0040968053
0.0040628195
0.0040291488
0.0039958985
0.0039631385
0.003930998
0.0038995774
0.0038689326
0.0038390949
0.0038100675
0.0037818233
0.0037543112
0.0037274675
0.0037012272
0.0036755349
0.0036503503
0.0036256491
0.0036014196
0.003577657
0.0035543554
0.0035315097
0.0035091005
0.003487087
0.0034654207
0.0034440444
0.0034229792
0.0034022036
0.0033818563
0.0033609789
0.0033404664
0.0033186852
0.0032970939
0.0032764381
0.0033929411
0.0026971072
0.0011354926
0.00031483987
0.0043552078
0.004313064
0.0042709961
0.0042294559
0.0041886019
0.0041485425
0.0041094494
0.0040714363
0.0040345577
0.0039988377
0.0039642649
0.0039307913
0.0038983406
0.0038668226
0.0038361476
0.0038062398
0.0037770442
0.0037485269
0.0037206695
0.0036934628
0.0036668975
0.0036409632
0.0036156377
0.003590881
0.0035666446
0.003542875
0.0035195725
0.0034967088
0.0034742316
0.0034516851
0.0034287674
0.0034057226
0.0033828105
0.0033485186
0.0033679937
0.0033870814
0.0029817736
0.0025932906
0.0045663114
0.0045140487
0.0044620995
0.0044112247
0.0043616069
0.004313346
0.0042666044
0.0042214598
0.0041779279
0.0041359985
0.0040956258
0.0040567257
0.0040191861
0.0039828818
0.0039476928
0.0039135196
0.0038802908
0.0038479624
0.0038165102
0.0037859211
0.0037561827
0.00372728
0.0036991872
0.0036718629
0.0036452575
0.0036193177
0.0035940223
0.0035693202
0.0035451052
0.0035210109
0.0034968369
0.0034717214
0.0034496027
0.0034143191
0.0034044147
0.0033946026
0.003388639
0.0032080129
0.0047639684
0.004699376
0.0046361394
0.0045750308
0.0045160122
0.0044590549
0.0044042523
0.0043516169
0.0043011154
0.0042527004
0.0042062905
0.004161765
0.0041189744
0.0040777575
0.0040379626
0.0039994667
0.0039621837
0.0039260615
0.0038910727
0.0038572022
0.0038244354
0.0037927532
0.0037621248
0.0037325041
0.0037038367
0.0036760626
0.003649138
0.003622989
0.0035974763
0.0035722844
0.0035471546
0.0035215816
0.0034969482
0.0034680959
0.0034440092
0.0034184816
0.0034012347
0.0033637688
0.0049503631
0.0048728886
0.0047975633
0.0047253505
0.0046560607
0.0045895893
0.0045259812
0.0044651884
0.0044071314
0.0043517247
0.0042988484
0.0042483417
0.0042000134
0.0041536617
0.0041091011
0.0040661843
0.0040248116
0.0039849262
0.0039464997
0.0039095168
0.0038739607
0.0038398053
0.0038070103
0.0037755181
0.0037452605
0.0037161613
0.0036881488
0.0036611184
0.0036349057
0.0036092047
0.0035837549
0.0035581631
0.0035328923
0.003506229
0.0034797979
0.0034528495
0.0034254977
0.0034020786
0.0051269312
0.0050365792
0.0049485539
0.0048643227
0.0047837306
0.0047067305
0.0046333808
0.0045635984
0.0044972675
0.0044342649
0.0043744278
0.0043175489
0.0042633882
0.004211698
0.0041622555
0.0041148901
0.0040694923
0.0040260047
0.0039844022
0.0039446697
0.003906784
0.0038707044
0.0038363693
0.0038036956
0.0037725869
0.0037429361
0.0037146342
0.003687539
0.0036614564
0.0036360809
0.0036111413
0.0035863096
0.0035616704
0.0035365397
0.0035106496
0.0034845593
0.0034567136
0.0034280137
0.0052929658
0.0051885916
0.0050868205
0.0049896149
0.0048968268
0.0048084899
0.0047246849
0.0046453005
0.0045701912
0.0044991978
0.0044321127
0.0043686786
0.0043086025
0.0042515887
0.0041973797
0.004145789
0.0040967077
0.0040500877
0.0040059115
0.0039641606
0.0039247933
0.0038877357
0.0038528815
0.0038200987
0.0037892413
0.0037601547
0.0037326824
0.0037066409
0.0036818059
0.0036578694
0.0036345516
0.0036115632
0.0035888161
0.003565961
0.0035424001
0.0035182703
0.0034936242
0.0034633796
0.0054478174
0.0053269065
0.005209472
0.0050978791
0.0049918462
0.0048914113
0.0047966087
0.0047072581
0.0046231608
0.0045441038
0.004469822
0.004399997
0.0043342764
0.004272317
0.0042138369
0.0041586512
0.0041066707
0.0040578692
0.0040122356
0.0039697313
0.0039302653
0.0038936912
0.0038598197
0.0038284366
0.0037993227
0.0037722631
0.003747052
0.0037234693
0.0037012696
0.0036801472
0.0036598231
0.0036400269
0.0036206035
0.0036012699
0.003581506
0.0035608923
0.0035407945
0.0035117189
0.0055895408
0.0054490627
0.0053136718
0.005186018
0.0050655533
0.0049522375
0.0048459785
0.0047464748
0.0046534358
0.0045665602
0.0044854939
0.0044098325
0.0043391505
0.0042730603
0.004211277
0.0041536476
0.0041001277
0.0040507177
0.0040053896
0.0039640349
0.0039264481
0.003892345
0.0038614
0.0038332837
0.0038076914
0.0037843525
0.0037630278
0.0037434811
0.0037254647
0.003708685
0.0036928737
0.003677766
0.0036631799
0.0036488108
0.0036342437
0.0036186883
0.0036043384
0.0035781229
0.0057161099
0.0055529987
0.0053972158
0.0052516392
0.0051154112
0.0049883789
0.0048702676
0.0047606074
0.0046589618
0.004564879
0.0044778551
0.0043973521
0.0043228519
0.0042539396
0.0041903699
0.004132068
0.0040790535
0.0040313247
0.0039887596
0.003951072
0.0039178323
0.0038885336
0.0038626683
0.0038397852
0.0038195177
0.0038015773
0.0037857313
0.0037717606
0.0037594364
0.0037484844
0.003738646
0.0037296492
0.003721289
0.003713211
0.0037050564
0.0036958139
0.0036881502
0.0036663396
0.0058281526
0.0056384431
0.0054590499
0.0052930882
0.0051394182
0.004997748
0.0048675425
0.0047480713
0.0046386319
0.0045384901
0.0044468745
0.0043630413
0.0042863752
0.0042164924
0.0041532721
0.0040967717
0.0040470515
0.004003996
0.0039672164
0.0039360695
0.0039097675
0.0038875209
0.0038686526
0.0038526522
0.0038391713
0.0038279773
0.0038188968
0.0038117551
0.0038063484
0.0038024118
0.0037996813
0.0037978584
0.0037967057
0.0037958109
0.0037948273
0.0037926542
0.0037920427
0.0037761829
0.0059280626
0.0057054656
0.0054977587
0.0053081585
0.0051351686
0.0049782105
0.0048362825
0.0047081566
0.0045925951
0.0044883256
0.0043941291
0.004309001
0.004232307
0.0041638515
0.0041037724
0.0040522725
0.0040093042
0.0039743689
0.0039465212
0.0039245511
0.0039072404
0.0038935745
0.003882845
0.0038746373
0.0038687473
0.0038650732
0.0038635274
0.0038639705
0.0038661966
0.0038699174
0.0038748371
0.0038806125
0.0038869715
0.0038934483
0.0038996929
0.0039046535
0.0039107163
0.0039021445
0.0060157431
0.0057516332
0.005509705
0.0052930013
0.0050994326
0.0049277202
0.0047759095
0.0046417476
0.0045229476
0.0044173125
0.0043230216
0.0042389204
0.0041646524
0.0041005148
0.0040470217
0.0040043452
0.0039719152
0.0039483765
0.0039318944
0.0039206112
0.0039130287
0.0039081825
0.0039056105
0.0039051925
0.0039069619
0.0039109526
0.0039171146
0.0039252782
0.0039351771
0.0039464584
0.0039587778
0.0039717453
0.0039850737
0.0039982639
0.0040109839
0.0040223664
0.0040339867
0.0040335512
0.0060867628
0.0057705714
0.0054883906
0.0052423126
0.0050290197
0.0048456335
0.0046882104
0.004552464
0.0044342846
0.0043302273
0.004238066
0.0041570764
0.0040878313
0.0040314731
0.003988711
0.0039590307
0.003940535
0.0039304562
0.0039259803
0.0039249295
0.0039260441
0.0039288842
0.003933525
0.0039402288
0.0039492068
0.0039605005
0.0039739661
0.0039893063
0.0040061428
0.0040240457
0.00404264
0.0040615164
0.0040804203
0.0040988475
0.0041165449
0.0041329317
0.0041484091
0.0041563152
0.0061360622
0.0057555057
0.0054275447
0.0051524715
0.0049242231
0.0047360724
0.0045798823
0.0044477675
0.0043332425
0.004232099
0.0041429027
0.004066684
0.0040057392
0.0039618759
0.003934891
0.0039221379
0.00391939
0.0039223528
0.003927894
0.0039344747
0.0039418686
0.0039505639
0.0039612018
0.0039742237
0.0039897439
0.0040075771
0.0040273415
0.0040485607
0.0040707624
0.0040934924
0.004116412
0.0041391443
0.0041615332
0.004183086
0.0042037308
0.0042231947
0.0042404857
0.0042565038
0.0061579483
0.0057062636
0.0053344646
0.0050392168
0.0048073582
0.0046240424
0.0044745577
0.004347247
0.0042347393
0.0041343235
0.0040474149
0.0039778382
0.0039291597
0.0039020671
0.0038932791
0.0038967149
0.0039060225
0.0039167288
0.0039269536
0.0039368418
0.0039474942
0.003960055
0.0039752217
0.0039931362
0.0040135057
0.0040357959
0.0040594101
0.0040837948
0.0041085096
0.0041331861
0.004157601
0.0041814504
0.0042047103
0.0042269045
0.0042482093
0.0042685993
0.0042858345
0.0043081292
0.0061605734
0.0056437197
0.0052407381
0.0049390839
0.0047127235
0.0045366554
0.0043911638
0.0042638301
0.0041490271
0.0040469127
0.0039617755
0.0038991842
0.0038623931
0.0038496842
0.0038544835
0.0038682501
0.0038839812
0.0038981118
0.0039102871
0.0039219442
0.0039348568
0.0039502545
0.0039685654
0.0039895538
0.004012608
0.0040370051
0.0040620919
0.0040873568
0.0041124576
0.004137133
0.0041612657
0.0041846125
0.0042072614
0.0042287563
0.0042494844
0.0042696114
0.0042857976
0.0043126324
0.0061439481
0.0055612143
0.005139866
0.0048444695
0.0046279222
0.0044556855
0.0043076462
0.0041745441
0.0040542938
0.0039500557
0.0038681242
0.0038143788
0.0037902528
0.0037907348
0.003806175
0.0038266541
0.0038456827
0.0038612096
0.0038743417
0.0038873499
0.0039021699
0.0039197685
0.0039401752
0.0039628194
0.0039869007
0.004011653
0.0040364851
0.0040610012
0.004084989
0.0041082943
0.0041308925
0.0041525879
0.0041735762
0.0041934106
0.0042126926
0.0042316788
0.0042460807
0.004276311
0.0061050813
0.0054666948
0.0050464401
0.0047647771
0.0045514622
0.0043716541
0.0042124625
0.0040700405
0.0039448994
0.0038414095
0.0037660996
0.0037235877
0.0037124328
0.0037242634
0.0037472746
0.0037714349
0.0037916155
0.0038074192
0.0038210475
0.0038350949
0.0038512769
0.0038701382
0.0038913396
0.003914107
0.0039376036
0.0039611432
0.0039842731
0.0040067451
0.0040284743
0.0040493929
0.0040695452
0.0040887656
0.0041073508
0.0041248341
0.0041420491
0.0041591629
0.0041713048
0.0042035496
0.0060497653
0.0053777196
0.0049751626
0.0046984574
0.0044689084
0.0042676799
0.0040931505
0.0039438589
0.0038191038
0.0037218643
0.0036572978
0.0036277991
0.0036288756
0.0036495561
0.003677176
0.0037026563
0.0037226126
0.0037380677
0.0037518297
0.0037664026
0.0037830851
0.0038020093
0.003822595
0.0038440194
0.0038655336
0.0038866067
0.0039069531
0.0039264673
0.0039451655
0.0039630339
0.0039801621
0.0039963949
0.0040121241
0.0040268211
0.0040415876
0.004056251
0.0040659432
0.0040987052
0.0059864849
0.0053158917
0.0049291341
0.0046264909
0.00435663
0.0041274781
0.0039425336
0.0037951478
0.0036791154
0.0035942345
0.0035436326
0.0035274444
0.0035387795
0.0035653075
0.0035947581
0.0036196733
0.0036383971
0.0036529504
0.0036662986
0.0036805966
0.0036966907
0.0037144075
0.0037330758
0.0037519478
0.0037704356
0.0037881879
0.0038050775
0.003821111
0.0038363696
0.0038508599
0.0038646968
0.0038777179
0.0038904074
0.0039021218
0.0039142959
0.0039260934
0.0039334937
0.0039651271
0.0059311981
0.0052960575
0.0048873814
0.0045160156
0.0041920328
0.0039416022
0.0037594683
0.0036261322
0.003527272
0.0034592537
0.0034236793
0.0034192208
0.0034377169
0.003466752
0.0034953842
0.0035180597
0.0035345892
0.0035475446
0.003559712
0.0035727803
0.0035871998
0.0036026196
0.0036183944
0.0036339195
0.0036487865
0.003662811
0.003675993
0.0036884119
0.0037001761
0.0037112855
0.0037218683
0.0037317402
0.0037414818
0.003750275
0.0037599896
0.0037687249
0.0037744597
0.0038031149
0.0059057025
0.0053037109
0.0048050103
0.004332789
0.0039588322
0.0037049366
0.0035428445
0.0034349252
0.0033585876
0.0033083893
0.0032860014
0.003289851
0.0033115838
0.0033396378
0.0033649137
0.0033837617
0.0033971052
0.0034076789
0.0034178676
0.0034288646
0.0034408057
0.0034532604
0.0034656705
0.0034775885
0.0034887664
0.003499151
0.0035088282
0.0035179106
0.0035265046
0.0035345858
0.0035422961
0.0035494184
0.0035566461
0.0035629251
0.0035707025
0.0035765563
0.0035819025
0.0036056067
0.0059149925
0.0052799931
0.0046264168
0.0040427202
0.0036384032
0.0034050061
0.0032781632
0.0032008331
0.0031458718
0.003109642
0.0030958223
0.0031033745
0.0031242288
0.0031480947
0.0031678628
0.0031816248
0.0031910484
0.003198709
0.0032064496
0.0032149817
0.0032241965
0.0032336382
0.0032428472
0.0032515104
0.0032595025
0.0032668598
0.0032737146
0.0032801817
0.0032863483
0.0032921642
0.0032977976
0.0033029974
0.0033085996
0.0033132673
0.0033201889
0.003323991
0.0033310565
0.0033481868
0.0059280878
0.0051424191
0.0042797065
0.0035913014
0.0031881862
0.0029960894
0.0029077908
0.0028546769
0.0028127026
0.0027834312
0.0027729028
0.0027800519
0.0027968528
0.0028143888
0.0028275468
0.0028359172
0.0028415156
0.0028465076
0.0028521139
0.0028585913
0.0028656367
0.0028727929
0.0028796889
0.0028861146
0.002892031
0.0028975289
0.0029027586
0.002907819
0.0029127787
0.0029175781
0.0029224368
0.0029270885
0.0029325451
0.0029371943
0.0029450701
0.0029486875
0.0029603521
0.0029714332
0.0056890388
0.0047530962
0.0036573052
0.0028968933
0.0025171429
0.0023565748
0.0022857074
0.0022405236
0.0022028328
0.0021760896
0.0021655034
0.0021689743
0.0021790902
0.0021890188