1.4326613e-19 	0.0045405794 	-3.0837393e-16 	-1.1208544e-22 	5.4638095e-19 	-1.258275e-33 	5.5110392e-19
0.010869565 	0.004547319 	-0.0001216117 	1.3954263e-08 	0.0049587478 	-7.9799451e-06 	0.00266491
0.02173913 	0.0045799674 	-0.00024167865 	4.4957074e-09 	0.0049899316 	-8.7608847e-06 	0.0024793073
0.032608696 	0.0046337385 	-0.00036132686 	4.9428208e-09 	0.0050412146 	-4.2018468e-06 	0.0023047463
0.043478261 	0.0047065741 	-0.00047909775 	1.9303125e-08 	0.0051106393 	-6.3261271e-06 	0.0021474169
0.054347826 	0.0047965096 	-0.00059518198 	7.7871379e-09 	0.005195916 	-2.6162299e-08 	0.0018723826
0.065217391 	0.0049099533 	-0.00071728752 	1.2135898e-07 	0.0053002183 	-3.7534419e-07 	0.00035678348
0.076086957 	0.0050157081 	-0.00081754682 	1.5878624e-08 	0.0054023862 	-6.7746375e-07 	0.0016753054
0.086956522 	0.0051383488 	-0.00092251255 	1.8453295e-07 	0.0055173587 	-8.8719177e-06 	0.0015382571
0.097826087 	0.0052650968 	-0.0010237253 	1.9779663e-07 	0.0056353455 	-5.9956657e-06 	0.0014013327
0.10869565 	0.0053956259 	-0.001121611 	1.376939e-07 	0.0057535093 	-3.618545e-07 	6.348474e-05
0.11956522 	0.0055219771 	-0.0012116323 	3.6119889e-07 	0.0058704741 	-7.301344e-06 	0.0010850854
0.13043478 	0.0056455674 	-0.001297605 	3.9266925e-07 	0.0059813395 	-5.5557055e-06 	0.00094225779
0.14130435 	0.0057643883 	-0.0013785121 	1.3339094e-07 	0.0060861452 	-1.88729e-06 	0.00077083507
0.15217391 	0.0058709081 	-0.0014509724 	1.0837072e-06 	0.0061771503 	-1.1278642e-05 	0.00062496518
0.16304348 	0.0059735361 	-0.0015208107 	5.3969301e-08 	0.0062628997 	-1.319926e-07 	8.5899289e-05
0.17391304 	0.0060539266 	-0.0015786619 	1.5194021e-06 	0.0063261269 	-1.2202812e-05 	0.0003116425
0.18478261 	0.0061315694 	-0.0016351302 	1.1284624e-07 	0.0063856274 	-7.3086723e-07 	0.00015647227
0.19565217 	0.0061809909 	-0.001678197 	2.0617645e-06 	0.0064153545 	-1.3353357e-05 	1.7251017e-05
0.20652174 	0.0062304902 	-0.0017213221 	1.1969675e-08 	0.0064455915 	-2.7621229e-08 	9.1516877e-05
0.2173913 	0.006244123 	-0.0017485642 	2.6975749e-06 	0.0064390963 	-1.4634981e-05 	0.00030996535
0.22826087 	0.0062575034 	-0.00177569 	3.0743509e-07 	0.0064321853 	-1.667908e-06 	0.00045010741
0.23913043 	0.0062372733 	-0.0017883661 	2.3175964e-06 	0.0063911761 	-1.085807e-05 	0.00057545721
0.25 	0.0062084082 	-0.001797297 	1.3086898e-06 	0.0063415279 	-6.1312853e-06 	0.0007018098
0.26086957 	0.006159912 	-0.0017977787 	1.0610187e-06 	0.0062722623 	-4.3888874e-06 	0.00080156878
0.27173913 	0.0060852356 	-0.0017867412 	3.215309e-06 	0.0061773213 	-1.3300076e-05 	0.00091220627
0.2826087 	0.0060077312 	-0.0017744587 	7.1321483e-08 	0.0060785723 	-1.440243e-07 	0.00054046435
0.29347826 	0.005894584 	-0.0017458319 	2.8724174e-06 	0.0059473348 	-1.0631071e-05 	0.0010687152
0.30434783 	0.0057740567 	-0.0017135408 	2.2833245e-06 	0.0058082828 	-8.4507864e-06 	0.0011621652
0.31521739 	0.0056418678 	-0.001675721 	7.599601e-08 	0.0056567801 	-1.4339263e-07 	0.00065367573
0.32608696 	0.0054842945 	-0.0016237277 	4.152108e-06 	0.0054845082 	-1.3801968e-05 	0.0012359087
0.33695652 	0.0053236653 	-0.0015699691 	1.8566632e-06 	0.0053083994 	-6.1717097e-06 	0.0013114793
0.34782609 	0.0051499846 	-0.0015087942 	6.2785876e-08 	0.0051190953 	-1.091237e-07 	0.00079121039
0.35869565 	0.0049660888 	-0.0014371204 	4.4555264e-06 	0.0049242763 	-1.3196732e-05 	0.001297951
0.36956522 	0.0047802445 	-0.0013637124 	2.2650193e-06 	0.0047268962 	-6.7087142e-06 	0.0013560532
0.38043478 	0.0045859621 	-0.0012832358 	1.1498047e-07 	0.0045199925 	-1.8248502e-07 	0.00030273568
0.39130435 	0.0044002772 	-0.0011982106 	3.4023812e-06 	0.0043277905 	-8.7397419e-06 	0.0012676224
0.40217391 	0.0042152591 	-0.0011096769 	3.7301287e-06 	0.0041350003 	-9.5816312e-06 	0.0013100123
0.41304348 	0.0040296524 	-0.0010178725 	6.3337237e-08 	0.0039406957 	-9.3096677e-08 	0.00064175046
0.42391304 	0.0038584703 	-0.00092364087 	9.307524e-07 	0.0037646339 	-1.9561089e-06 	0.001182753
0.43478261 	0.0037076258 	-0.00082706909 	6.1700481e-06 	0.003608433 	-1.2967236e-05 	0.0012124255
0.44565217 	0.0035567813 	-0.00073049731 	1.205555e-06 	0.003452232 	-2.5336458e-06 	0.001242098
0.45652174 	0.0034216563 	-0.0006296191 	6.9161203e-08 	0.0033104225 	-9.849846e-08 	0.00026398244
0.4673913 	0.0033174425 	-0.00053381558 	2.320784e-06 	0.0032034253 	-3.4925284e-06 	0.0011229575
0.47826087 	0.0032316174 	-0.00043674834 	4.5897624e-06 	0.0031132824 	-6.907095e-06 	0.0011435758
0.48913043 	0.0031457922 	-0.0003396811 	3.697397e-08 	0.0030231395 	-5.5641817e-08 	0.0011641942
0.5 	0.0030957635 	-0.00023998541 	3.7685877e-08 	0.0029676259 	-5.4064427e-08 	0.00046455132
0.51086957 	0.0030680712 	-0.00014303776 	2.54088e-06 	0.0029375387 	-1.9889882e-06 	0.0011223435
0.52173913 	0.0030560259 	-4.6522073e-05 	3.4400482e-06 	0.002922292 	-2.6928526e-06 	0.0011374608
0.5326087 	0.0030504783 	4.995417e-05 	9.5507796e-09 	0.0029131894 	-1.4645742e-08 	0.0008783101
0.54347826 	0.0030762426 	0.00014774499 	1.522149e-08 	0.0029363245 	-2.3341551e-08 	0.00074915235
0.55434783 	0.0031218947 	0.00024397616 	2.9401853e-06 	0.0029812469 	-2.2946552e-07 	0.0012104465
0.56521739 	0.0031747117 	0.00033893493 	1.7119191e-06 	0.003032822 	-1.33606e-07 	0.0012225035
0.57608696 	0.0032423993 	0.00043169176 	1.0073857e-08 	0.0030981018 	-3.2015471e-08 	0.0002821854
0.58695652 	0.003327203 	0.00052508661 	5.321373e-07 	0.0031848213 	2.6827958e-07 	0.0013549977
0.59782609 	0.0034255251 	0.00061371758 	2.7887099e-06 	0.0032836893 	1.4059415e-06 	0.0013651392
0.60869565 	0.0035263573 	0.00070147524 	-4.2220265e-09 	0.0033845735 	-9.6289018e-09 	0.0010585196
0.61956522 	0.0036429937 	0.00078669557 	-5.0487577e-09 	0.0035024888 	-1.1514374e-08 	0.0011176801
0.63043478 	0.0037671049 	0.00086843102 	2.3967782e-06 	0.003629324 	2.3662671e-06 	0.0015476499
0.64130435 	0.0038922873 	0.00094887612 	4.6488146e-08 	0.0037566049 	4.589635e-08 	0.0015562999
0.65217391 	0.0040264514 	0.0010248247 	-2.3799059e-08 	0.0038925536 	-3.0775779e-08 	0.00093562145
0.66304348 	0.004164029 	0.0010984902 	1.6976115e-06 	0.0040353805 	2.3817423e-06 	0.0017437049
0.67391304 	0.0043012519 	0.0011698854 	-2.1066217e-09 	0.0041765575 	-2.8360676e-09 	0.0017068911
0.68478261 	0.0044416947 	0.0012368105 	-2.6504089e-08 	0.0043213301 	-3.5681484e-08 	0.0013193792
0.69565217 	0.0045808687 	0.0013003711 	1.3605485e-06 	0.0044674263 	2.4085377e-06 	0.0019348644
0.70652174 	0.0047177072 	0.0013608562 	-4.692926e-08 	0.0046088214 	-7.2375882e-08 	0.0011355581
0.7173913 	0.0048546691 	0.0014185938 	1.5065085e-07 	0.0047545162 	3.1640393e-07 	0.0021038155
0.72826087 	0.004984368 	0.0014710449 	4.6171623e-07 	0.0048915816 	9.6971791e-07 	0.002108716
0.73913043 	0.0051093968 	0.0015195062 	-1.0994907e-07 	0.0050212139 	-1.9449787e-07 	0.00046149315
0.75 	0.0052294569 	0.0015653025 	5.2088011e-07 	0.0051530171 	1.2568645e-06 	0.0022534173
0.76086957 	0.0053412652 	0.0016062984 	-7.0451787e-08 	0.0052713626 	-1.4056919e-07 	0.0012519965
0.77173913 	0.0054451214 	0.0016434649 	9.8727819e-08 	0.0053863087 	2.7583987e-07 	0.002370228
0.7826087 	0.0055386447 	0.0016761384 	1.3280315e-08 	0.0054888002 	3.7104439e-08 	0.0023731883
0.79347826 	0.0056212968 	0.0017039326 	-6.2687857e-10 	0.0055808696 	2.7233122e-09 	0.0024571804
0.80434783 	0.005690155 	0.0017267752 	-2.5007809e-09 	0.0056588148 	1.0863997e-08 	0.0024593791
0.81521739 	0.0057482515 	0.0017453812 	-6.9462729e-09 	0.0057259794 	-1.6748193e-08 	0.0024178673
0.82608696 	0.0057903953 	0.0017588321 	-4.8885313e-08 	0.005777097 	-1.2621724e-07 	0.0025161322
0.83695652 	0.005819186 	0.0017676269 	-5.563974e-08 	0.0058145776 	-1.6060007e-07 	0.0025442216
0.84782609 	0.0058326408 	0.0017717438 	-1.9277183e-08 	0.0058353072 	-5.3696082e-08 	0.0022704898
0.85869565 	0.005828689 	0.001770569 	-3.2189411e-07 	0.0058390037 	-9.9533554e-07 	0.0025492476
0.86956522 	0.0058107486 	0.0017649469 	-1.4830985e-07 	0.0058233413 	-4.4048979e-07 	0.00031296981
0.88043478 	0.0057750228 	0.0017558868 	-3.9347882e-07 	0.0057970915 	-1.3071757e-06 	0.0025328708
0.89130435 	0.0057245424 	0.0017425154 	-8.8341188e-08 	0.005749515 	-3.0926319e-07 	0.0024991706
0.90217391 	0.0056570291 	0.0017246342 	-9.3069157e-08 	0.0056809388 	-3.1416243e-07 	0.00079727109
0.91304348 	0.0055714502 	0.0017050012 	-3.1161594e-07 	0.0056000433 	-1.2087443e-06 	0.0024510094
0.92391304 	0.0054713002 	0.0016839849 	-4.6945084e-07 	0.0054992313 	-1.8003768e-06 	0.0023917119
0.93478261 	0.0053553829 	0.0016531161 	-1.1323639e-07 	0.0053782801 	-4.4529055e-07 	0.0023323348
0.94565217 	0.0052116995 	0.0016226496 	-4.2310957e-07 	0.0052296395 	-1.9095993e-06 	0.0022816945
0.95652174 	0.005053896 	0.0015912038 	-3.6334651e-08 	0.0050629833 	-1.6573164e-07 	0.00060330138
0.9673913 	0.0048624448 	0.001554618 	-9.7792817e-08 	0.0048677319 	-4.4857272e-07 	0.00213502
0.97826087 	0.004588035 	0.0014949 	-1.0068578e-08 	0.0045807469 	-5.2155331e-08 	0.00054590559
0.98913043 	0.0036181095 	0.0012176329 	-7.2617705e-10 	0.0036194213 	-6.4148661e-09 	0.00034873793
