4.0776948e-36 	0.0047582428 	-3.2315562e-16 	-1.1745852e-22 	2.1947085e-29 	7.9771844e-36 	2.8994954e-42
0.010869565 	0.0047696178 	-0.00015027038 	3.207996e-08 	0.0052512308 	-1.540308e-05 	0.0020463434
0.02173913 	0.0048173208 	-0.00029749439 	8.2671185e-09 	0.0052983659 	-1.2193105e-05 	0.0023240039
0.032608696 	0.0048948022 	-0.00044405359 	3.9907536e-09 	0.0053741538 	-2.7715403e-06 	0.0026071285
0.043478261 	0.0049995315 	-0.00058870888 	2.0943319e-08 	0.0054761488 	-5.7515493e-06 	0.0029154401
0.054347826 	0.005128487 	-0.00073158683 	1.2782105e-07 	0.0055980146 	-3.6901881e-07 	0.0016132754
0.065217391 	0.0052883788 	-0.00088071637 	2.6288302e-07 	0.0057489919 	-7.1685824e-07 	0.00066620558
0.076086957 	0.0054366452 	-0.0010039018 	2.2291375e-07 	0.0058922294 	-5.8122926e-07 	0.0017311259
0.086956522 	0.0056031289 	-0.0011318504 	3.9781718e-08 	0.0060551803 	-1.6007894e-06 	0.0042385506
0.097826087 	0.0057798489 	-0.0012564392 	6.3735732e-08 	0.0062213471 	-1.6131543e-07 	0.0040867718
0.10869565 	0.0059598801 	-0.0013758628 	5.899557e-07 	0.0063815386 	-1.4642227e-06 	0.00032178207
0.11956522 	0.0061273418 	-0.0014854662 	1.2297727e-07 	0.0065433705 	-3.0034699e-07 	0.0044286229
0.13043478 	0.0062944542 	-0.0015903999 	2.4369311e-07 	0.0066935308 	-5.9517093e-07 	0.0039295658
0.14130435 	0.0064504049 	-0.0016873645 	6.6280617e-07 	0.0068266153 	-1.5916589e-06 	0.0014457007
0.15217391 	0.0065922191 	-0.0017769697 	3.2501722e-09 	0.0069595541 	-7.8049447e-09 	0.0063972156
0.16304348 	0.0067182413 	-0.0018567401 	9.5516094e-07 	0.0070516983 	-2.2465006e-06 	0.00034305607
0.17391304 	0.0068282134 	-0.0019300693 	5.2936351e-08 	0.0071527721 	-1.2117791e-07 	0.0066962556
0.18478261 	0.0069124798 	-0.0019905007 	9.718101e-07 	0.007200812 	-2.2245945e-06 	0.00091941382
0.19565217 	0.0069852465 	-0.0020468562 	5.5536143e-08 	0.0072611879 	-1.226981e-07 	0.0067440341
0.20652174 	0.007021032 	-0.0020864205 	9.9595842e-07 	0.0072578 	-2.2004085e-06 	0.00049583107
0.2173913 	0.0070518215 	-0.0021247918 	1.7183331e-07 	0.0072755001 	-8.316748e-07 	0.0067366893
0.22826087 	0.007034698 	-0.0021422288 	8.6281928e-07 	0.0072191925 	-1.8204274e-06 	0.00091567962
0.23913043 	0.0070155791 	-0.0021594715 	1.6379795e-07 	0.0071822878 	-3.4559065e-07 	0.0052367933
0.25 	0.0069539287 	-0.0021582705 	4.3918595e-07 	0.0070895785 	-8.7343848e-07 	0.0031365769
0.26086957 	0.0068755998 	-0.0021499288 	4.6236552e-07 	0.0069841359 	-9.1953724e-07 	0.0027231941
0.27173913 	0.0067840755 	-0.0021359047 	1.9796849e-07 	0.0068729147 	-7.4896835e-07 	0.0056126831
0.2826087 	0.0066415188 	-0.0020984056 	7.1247621e-07 	0.0066951436 	-1.3152092e-06 	0.00024211619
0.29347826 	0.0065112455 	-0.0020666419 	6.4025311e-08 	0.0065502242 	-1.1818876e-07 	0.0045774882
0.30434783 	0.0063403283 	-0.0020146977 	1.3438579e-07 	0.00635621 	-2.2664748e-07 	0.0037822427
0.31521739 	0.0061471805 	-0.0019512066 	4.5000084e-07 	0.0061375927 	-7.5894597e-07 	0.00095699198
0.32608696 	0.0059632203 	-0.0018912937 	1.1555455e-06 	0.0059414865 	-3.5566523e-06 	0.0042565049
0.33695652 	0.0057469149 	-0.0018119995 	1.277164e-07 	0.0057066029 	-1.9600109e-07 	0.0028923064
0.34782609 	0.0055210425 	-0.0017257593 	2.9078167e-07 	0.0054630442 	-4.4625062e-07 	0.001043293
0.35869565 	0.0053063368 	-0.0016430335 	1.691038e-06 	0.0052402461 	-4.6686699e-06 	0.0035063466
0.36956522 	0.0050779589 	-0.0015469353 	4.7536363e-08 	0.0050001753 	-6.9430366e-08 	0.0028377707
0.38043478 	0.0048444048 	-0.0014427822 	2.246331e-07 	0.00475373 	-3.2809321e-07 	0.00047562604
0.39130435 	0.0046291901 	-0.0013468926 	7.4903883e-07 	0.0045352064 	-1.8149103e-06 	0.00281823
0.40217391 	0.0044174777 	-0.0012420425 	1.0377773e-06 	0.0043174475 	-2.5145195e-06 	0.0027637078
0.41304348 	0.0042109893 	-0.0011304716 	1.3930954e-07 	0.0041021489 	-2.1994697e-07 	0.00051351988
0.42391304 	0.0040204184 	-0.0010265809 	4.0467942e-08 	0.0039097249 	-6.3892259e-08 	0.0017106806
0.43478261 	0.0038499449 	-0.00092086185 	4.1482062e-06 	0.0037365477 	-8.3879936e-06 	0.0022112524
0.44565217 	0.0036903387 	-0.00081287445 	2.5630768e-08 	0.003572548 	-4.8143943e-08 	0.0017018208
0.45652174 	0.0035513814 	-0.00070378835 	9.3272158e-08 	0.0034279016 	-1.7519918e-07 	0.0003646288
0.4673913 	0.0034266357 	-0.00060251985 	7.12968e-07 	0.0033027569 	-1.0687559e-06 	0.001819928
0.47826087 	0.0033327787 	-0.00049933097 	2.9736039e-06 	0.0032053233 	-4.4575024e-06 	0.0017937336
0.48913043 	0.0032525 	-0.00039548783 	3.2090509e-08 	0.0031200659 	-6.4229322e-08 	0.0011293593
0.5 	0.0031954859 	-0.00029170608 	5.7566094e-08 	0.003057899 	-1.1521884e-07 	0.00055634543
0.51086957 	0.003151377 	-0.00019017071 	1.5747039e-06 	0.003011756 	-1.3267518e-06 	0.0016006724
0.52173913 	0.0031317359 	-8.8870434e-05 	2.3139609e-06 	0.0029882671 	-1.9496058e-06 	0.0015818137
0.5326087 	0.0031295763 	1.2091593e-05 	3.1684672e-08 	0.0029810493 	-5.4706645e-08 	0.00082587832
0.54347826 	0.0031478227 	0.00011439263 	3.0922669e-08 	0.0029957691 	-5.3390974e-08 	0.0008409975
0.55434783 	0.0031821744 	0.00021660396 	2.5212616e-06 	0.0030283668 	-4.3624488e-07 	0.0015580413
0.56521739 	0.0032282663 	0.00031741513 	9.6109559e-07 	0.0030717572 	-1.6629493e-07 	0.001543424
0.57608696 	0.003296453 	0.00041525127 	3.5067227e-08 	0.0031356966 	-4.7422764e-08 	0.00021116741
0.58695652 	0.0033750942 	0.00051568656 	2.1780737e-07 	0.0032154696 	8.8154678e-08 	0.0016406471
0.59782609 	0.0034710168 	0.00061201844 	2.4755204e-06 	0.0033105431 	1.0019344e-06 	0.0016286814
0.60869565 	0.0035728637 	0.00070652096 	2.7293704e-09 	0.0034106717 	-7.4284624e-09 	0.00098749017
0.61956522 	0.0036902348 	0.00079952288 	2.2061124e-09 	0.0035286106 	-6.0043237e-09 	0.0012188249
0.63043478 	0.0038173092 	0.00089045439 	2.5465826e-06 	0.0036575608 	2.3045601e-06 	0.0017738893
0.64130435 	0.0039476492 	0.00097927862 	-4.2701153e-09 	0.0037886045 	-2.2009278e-09 	0.0015209873
0.65217391 	0.0040890691 	0.001063713 	-1.4317483e-08 	0.003931352 	-7.3796009e-09 	0.0010475511
0.66304348 	0.0042366387 	0.0011470834 	1.9024175e-06 	0.0040836327 	2.5825778e-06 	0.0019472115
0.67391304 	0.004385352 	0.001227542 	-1.1049943e-08 	0.0042352733 	-7.0123406e-09 	0.0016318067
0.68478261 	0.0045390962 	0.0013033891 	-2.2187225e-08 	0.0043934226 	-1.4080107e-08 	0.0014526556
0.69565217 	0.0046952701 	0.0013768099 	1.4776275e-06 	0.0045564834 	2.6412164e-06 	0.0021274262
0.70652174 	0.0048495268 	0.001446175 	-5.3691341e-08 	0.0047148479 	-4.9635797e-08 	0.0010552308
0.7173913 	0.0050056951 	0.0015128799 	1.7592231e-07 	0.0048805259 	3.907737e-07 	0.0023055782
0.72826087 	0.0051582055 	0.0015747288 	4.7833912e-07 	0.0050409119 	1.0625278e-06 	0.0023001201
0.73913043 	0.0053047796 	0.0016310873 	-1.0643035e-07 	0.0051927075 	-1.3061064e-07 	0.00059863648
0.75 	0.0054494252 	0.001685225 	6.9078801e-07 	0.0053502028 	1.8800078e-06 	0.0024593994
0.76086957 	0.0055857124 	0.0017337087 	-8.7873082e-08 	0.005493686 	-1.334055e-07 	0.001186174
0.77173913 	0.0057142247 	0.0017778612 	1.4964666e-07 	0.0056352243 	5.3176436e-07 	0.0025919908
0.7826087 	0.0058342051 	0.0018173091 	-4.2814089e-09 	0.0057657592 	-7.6629424e-09 	0.0025315279
0.79347826 	0.0059396282 	0.0018501521 	3.8696729e-09 	0.0058825311 	4.0257844e-08 	0.0026941124
0.80434783 	0.0060332927 	0.0018778583 	1.0679176e-08 	0.0059875112 	1.1109999e-07 	0.0026917033
0.81521739 	0.0061115985 	0.001899664 	-6.48437e-09 	0.0060771406 	-1.3229154e-08 	0.0026791495
0.82608696 	0.0061740947 	0.001915478 	-3.418868e-08 	0.0061512723 	-2.5720043e-08 	0.0027624739
0.83695652 	0.0062178866 	0.0019249404 	-6.6248587e-08 	0.0062063708 	-1.3134519e-07 	0.0028026437
0.84782609 	0.0062441708 	0.0019282126 	-3.9261182e-08 	0.0062425103 	-9.7683474e-08 	0.002308178
0.85869565 	0.0062475834 	0.0019246354 	-3.9723357e-07 	0.0062569285 	-9.6961063e-07 	0.0028113044
0.86956522 	0.0062326013 	0.0019146973 	-1.9932794e-07 	0.0062465894 	-5.3738362e-07 	0.0002353871
0.88043478 	0.0061939234 	0.0018993712 	-4.6280712e-07 	0.0062210806 	-1.2801352e-06 	0.002792846
0.89130435 	0.0061348577 	0.0018780627 	-1.1835267e-07 	0.0061676482 	-3.5547613e-07 	0.0027519172
0.90217391 	0.0060511932 	0.0018495571 	-1.3363496e-07 	0.0060848885 	-4.1789818e-07 	0.0007674918
0.91304348 	0.0059423926 	0.0018174073 	-3.8640311e-07 	0.0059831865 	-1.291406e-06 	0.0026900078
0.92391304 	0.0058129588 	0.0017825593 	-6.3815733e-07 	0.0058541193 	-2.1904037e-06 	0.0026122281
0.93478261 	0.0056602272 	0.0017362614 	-1.5888591e-07 	0.0056965386 	-5.6918888e-07 	0.0025328207
0.94565217 	0.0054677087 	0.0016876175 	-5.7147672e-07 	0.0054980576 	-2.3182194e-06 	0.0024643252
0.95652174 	0.0052545975 	0.0016380617 	-5.4978639e-08 	0.0052734313 	-2.4400766e-07 	0.00055786455
0.9673913 	0.0049973644 	0.0015833764 	-1.061238e-07 	0.0050094412 	-4.7403782e-07 	0.0022643523
0.97826087 	0.0046520255 	0.0015072963 	-1.4113196e-08 	0.0046475763 	-7.8337842e-08 	0.00050506181
0.98913043 	0.0036191228 	0.0012163223 	6.245718e-10 	0.0036212738 	-4.9073585e-09 	0.00038570536
