0.17894737 	0.0035597973 	-0.00065496545 	1.2024876e-07 	0.0021019798 	-2.9203167e-07 	0.0018987418
0.18947368 	0.0045370178 	-0.00055441402 	7.18864e-07 	0.0053610856 	1.9817201e-06 	0.0020723221
0.2 	0.0035839372 	-0.00037990758 	2.6684525e-07 	0.0059310717 	-8.7510302e-07 	0.0011616167
0.21052632 	0.0029835817 	-0.00031550882 	2.3253666e-07 	0.0052309442 	-6.2067514e-06 	0.00065581737
0.22105263 	0.0026353659 	-0.00030780983 	-1.8520538e-08 	0.0046305354 	-2.2995751e-06 	0.00029783967
0.23157895 	0.0024105056 	-0.00030966571 	-1.2600212e-07 	0.0042057423 	-7.1435063e-06 	4.4773262e-05
0.24210526 	0.002255317 	-0.00030974561 	-8.3733347e-09 	0.0039189371 	-5.5422796e-06 	0.00020418645
0.25263158 	0.002135781 	-0.00030551344 	1.0428933e-07 	0.0037077882 	-5.6379103e-06 	0.00040217072
0.26315789 	0.002040184 	-0.00029873254 	9.6379776e-08 	0.0035469616 	-2.968191e-06 	0.0005738812
0.27368421 	0.0019662759 	-0.00029056355 	6.497029e-07 	0.003424869 	7.9231315e-08 	0.00053372217
0.28421053 	0.0019127791 	-0.00028123323 	2.2301371e-06 	0.0033325554 	3.548397e-07 	0.00021595039
0.29473684 	0.0018608679 	-0.00027255466 	5.5970558e-09 	0.0032800909 	-9.650434e-08 	0.001033365
0.30526316 	0.0018204209 	-0.00026279729 	9.535043e-07 	0.0032224364 	1.7897096e-07 	0.00087722758
0.31578947 	0.0017950476 	-0.00025175211 	4.0655482e-06 	0.0031702717 	8.7822714e-07 	9.8707326e-05
0.32631579 	0.0017577681 	-0.00024267888 	4.6705981e-07 	0.0031584939 	1.1262854e-07 	0.001167276
0.33684211 	0.0017427364 	-0.00023104283 	2.1895282e-06 	0.0031289201 	5.2799098e-07 	0.00046533172
0.34736842 	0.0017215456 	-0.00022021817 	1.0441103e-06 	0.0031206409 	2.6952764e-07 	0.00070740861
0.35789474 	0.0017075502 	-0.00020914017 	4.8667203e-07 	0.0031186409 	1.2562998e-07 	0.00075999326
0.36842105 	0.0016971758 	-0.00019648904 	9.4964677e-07 	0.0031142156 	2.5030528e-07 	0.00049791704
0.37894737 	0.0016872728 	-0.00018477305 	4.9779209e-08 	0.0031252197 	-4.4154926e-07 	0.00069097424
0.38947368 	0.0016803289 	-0.00017129074 	2.6413495e-07 	0.0031301388 	6.7510016e-08 	0.00050225863
0.4 	0.0016762826 	-0.0001579969 	1.0346094e-07 	0.0031455114 	-6.8809366e-07 	0.00049112103
0.41052632 	0.0016720369 	-0.00014367466 	1.042313e-07 	0.0031586336 	-6.9321713e-07 	0.00039675101
0.42105263 	0.001670587 	-0.00012897447 	9.7706114e-08 	0.0031768735 	-4.8994448e-07 	0.00031102296
0.43157895 	0.0016690976 	-0.00011333073 	3.5079393e-07 	0.0031953493 	-1.759046e-06 	0.00022704117
0.44210526 	0.0016684691 	-9.7507168e-05 	2.0160644e-08 	0.0032153738 	3.919569e-09 	0.00014016803
0.45263158 	0.0016688343 	-8.005355e-05 	6.6502224e-07 	0.0032375666 	-2.5209928e-06 	7.3514231e-05
0.46315789 	0.0016692493 	-6.2593357e-05 	2.1622285e-07 	0.003259682 	-8.1966622e-07 	1.2770961e-05
0.47368421 	0.0016703346 	-4.3391323e-05 	4.4097488e-07 	0.0032833578 	-1.2221217e-06 	8.4923677e-05
0.48421053 	0.0016720095 	-2.3002298e-05 	6.533329e-07 	0.0033081104 	-1.8106527e-06 	0.00015197842
0.49473684 	0.0016750744 	-3.1377216e-06 	4.8151253e-07 	0.0033305811 	-1.8280455e-08 	1.7432381e-05
0.50526316 	0.0016759758 	2.2560406e-05 	7.6403133e-07 	0.0033568099 	-1.4820315e-06 	0.00028088763
0.51578947 	0.00167858 	4.8550847e-05 	5.3741655e-07 	0.0033823286 	-1.042455e-06 	0.00033608186
0.52631579 	0.0016827949 	7.4618398e-05 	4.6347331e-07 	0.0034041381 	-5.5021342e-08 	0.00017900399
0.53684211 	0.0016844473 	0.00010802551 	1.0351598e-06 	0.0034287409 	-1.4624279e-06 	0.00044711084
0.54736842 	0.0016875288 	0.00014234606 	5.7067738e-07 	0.0034525121 	-8.0622773e-07 	0.0004902722
0.55789474 	0.0016936913 	0.00017644062 	6.9865657e-07 	0.0034708268 	-1.6075168e-07 	0.00014119335
0.56842105 	0.0016988953 	0.00021470695 	9.1842588e-07 	0.0034856639 	-1.4354973e-06 	0.00058883682
0.57894737 	0.0017078071 	0.00025477595 	8.2927577e-07 	0.0034949665 	-1.2961559e-06 	0.00061984546
0.58947368 	0.0017199768 	0.00029459767 	7.0435546e-07 	0.0034990252 	-4.8242491e-08 	0.00013556094
0.6 	0.001726483 	0.00033682906 	3.877725e-07 	0.0035120778 	-8.2825193e-07 	0.00071138196
0.61052632 	0.00174652 	0.00037619038 	1.0212354e-06 	0.0035029304 	-2.1812794e-06 	0.00073054801
0.62105263 	0.0017708841 	0.00041368527 	3.7476511e-07 	0.0034867443 	1.6881255e-07 	0.00042039305
0.63157895 	0.0017933145 	0.00045113526 	3.235604e-08 	0.0034748127 	-8.6074301e-08 	0.00082338451
0.64210526 	0.0018230854 	0.00048624735 	8.8817156e-07 	0.003458812 	-2.3627349e-06 	0.00083178806
0.65263158 	0.0018556121 	0.0005200621 	3.2641409e-07 	0.0034397743 	2.5940032e-07 	0.00051222865
0.66315789 	0.0018873838 	0.00055272522 	3.7517482e-08 	0.0034256542 	-1.0413681e-07 	0.00090299579
0.67368421 	0.0019226352 	0.00058475209 	6.1055449e-07 	0.0034141595 	-1.6947085e-06 	0.00090155386
0.68421053 	0.0019618333 	0.00061530986 	5.0924917e-07 	0.0033996193 	4.8301104e-07 	0.00030329722
0.69473684 	0.0019992314 	0.00064595262 	2.5757258e-07 	0.0033948199 	-6.4392372e-07 	0.00094785997
0.70526316 	0.0020394218 	0.00067713348 	2.7011383e-07 	0.0033911687 	-6.7527647e-07 	0.00093760364
0.71578947 	0.0020849008 	0.00070711288 	4.1935353e-07 	0.0033868931 	4.6163052e-07 	0.00036241254
0.72631579 	0.0021293395 	0.00073856454 	6.6526874e-07 	0.0033935648 	-1.323275e-06 	0.00096167699
0.73684211 	0.0021775533 	0.00076995988 	2.3432839e-07 	0.0033986277 	3.0397476e-07 	0.00055145783
0.74736842 	0.0022298474 	0.0008016245 	2.8556799e-07 	0.0034125311 	-4.0196545e-07 	0.00097302869
0.75789474 	0.0022836175 	0.00083435866 	1.3763432e-07 	0.0034290229 	-1.9373404e-07 	0.00094805996
0.76842105 	0.0023438384 	0.0008666884 	5.4023742e-08 	0.0034506519 	-4.5260038e-08 	0.00097205484
0.77894737 	0.0024064101 	0.00090036459 	3.2065359e-07 	0.0034784542 	-2.6863733e-07 	0.00094093071
0.78947368 	0.0024742774 	0.00093348326 	3.8913855e-08 	0.0035098611 	7.1541603e-08 	0.00085685131
0.8 	0.0025460185 	0.00096764097 	3.6389476e-07 	0.0035489564 	-1.1523511e-07 	0.00092179646
0.81052632 	0.0026225687 	0.001001054 	1.1210722e-08 	0.0035912533 	1.5806251e-09 	0.00093155775
0.82105263 	0.0027031689 	0.0010348767 	2.7136496e-07 	0.0036399273 	3.8260361e-08 	0.00088979523
0.83157895 	0.002788496 	0.0010675106 	1.5972054e-07 	0.0036920146 	8.4660638e-08 	0.00089028837
0.84210526 	0.0028762745 	0.0011000398 	7.2411203e-08 	0.0037480257 	3.8381904e-08 	0.00084394928
0.85263158 	0.0029684985 	0.0011303678 	3.5258342e-07 	0.0038066516 	2.9614058e-07 	0.00083400301
0.86315789 	0.0030616157 	0.0011594913 	7.5491058e-08 	0.0038643891 	2.8597937e-07 	0.00025470074
0.87368421 	0.0031564924 	0.0011869484 	1.729841e-07 	0.0039259804 	1.781797e-07 	0.00076259403
0.88421053 	0.0032510532 	0.0012115903 	1.5750704e-07 	0.0039827885 	1.5190818e-07 	0.00073396719
0.89473684 	0.0033445825 	0.001234205 	5.5690693e-09 	0.0040362648 	3.4452125e-08 	0.00060319811
0.90526316 	0.0034352536 	0.0012541261 	2.6592558e-08 	0.0040831809 	-4.4835144e-10 	0.0006376693
0.91578947 	0.0035218986 	0.0012709177 	2.8678692e-08 	0.0041195609 	-1.9465433e-07 	0.00059181746
0.92631579 	0.0036035899 	0.0012856054 	-1.4265558e-08 	0.0041458596 	-5.2411879e-07 	0.00053978789
0.93684211 	0.0036783266 	0.0012973391 	-9.813846e-08 	0.0041589148 	-5.8784357e-07 	0.0004828798
0.94736842 	0.0037478441 	0.0013036421 	-8.9120647e-08 	0.0041564686 	-6.2052456e-07 	0.00042163892
0.95789474 	0.0038184182 	0.0013129344 	-5.912851e-09 	0.0041422143 	-1.1406216e-07 	0.00035799941
0.96842105 	0.0038850207 	0.0013235167 	-1.9893822e-08 	0.0041151035 	-3.8759799e-07 	0.00029413585
0.97894737 	0.0039170461 	0.001324061 	-4.8777275e-08 	0.004045444 	-2.6601326e-07 	0.00022583945
0.98947368 	0.0033637167 	0.001151518 	-3.0622126e-06 	0.0033979384 	-9.4125198e-06 	0.00013770053
