0.47777778 	0.0076446554 	-0.0025915788 	6.9026407e-09 	0.0076304045 	-1.980866e-08 	0.00060998058
0.48888889 	0.008752639 	-0.0029112576 	1.7652951e-07 	0.0087425784 	-5.3897006e-07 	0.0028095948
0.5 	0.0083114493 	-0.0027746904 	4.6804537e-07 	0.0083006517 	-1.465476e-06 	0.0026778797
0.51111111 	0.0077348195 	-0.0026036212 	1.0060191e-06 	0.0077274793 	-3.1943038e-06 	0.0025029797
0.52222222 	0.0071398198 	-0.0024078188 	2.7353441e-09 	0.0071273413 	1.5501168e-08 	0.0015390518
0.53333333 	0.0065500742 	-0.0022143991 	2.0523984e-06 	0.0065399225 	-6.1065986e-06 	0.0020826594
0.54444444 	0.0059830366 	-0.0020215312 	2.2316371e-06 	0.0059721013 	-6.4901716e-06 	0.0019294104
0.55555556 	0.0054478742 	-0.0018314285 	1.4105941e-06 	0.0054368255 	-3.9460532e-06 	0.001773105
0.56666667 	0.0049528495 	-0.0016444753 	1.2539862e-06 	0.0049416168 	-3.3290744e-06 	0.0016170001
0.57777778 	0.0045046563 	-0.0014613985 	1.7401671e-06 	0.0044937394 	-4.2973565e-06 	0.001464676
0.58888889 	0.0041083421 	-0.0012823768 	2.8336283e-06 	0.0040978542 	-6.3349883e-06 	0.001320812
0.6 	0.0037658429 	-0.0011076346 	2.5093245e-06 	0.0037557656 	-4.9164221e-06 	0.0011906333
0.61111111 	0.0034756779 	-0.00093757579 	4.3810369e-07 	0.0034660952 	-7.1914653e-07 	0.0010792254
0.62222222 	0.0032434237 	-0.0007717461 	2.7148282e-09 	0.003232963 	6.7557482e-08 	0.0002605478
0.63333333 	0.0030703653 	-0.00061346102 	1.7166776e-06 	0.0030617246 	-2.2026462e-06 	0.0009912224
0.64444444 	0.0029439845 	-0.00045845243 	2.1171498e-06 	0.0029355568 	-1.9040362e-06 	0.00093133077
0.65555556 	0.0028591284 	-0.0003062077 	6.3564668e-09 	0.0028494123 	5.0578806e-08 	0.00012307931
0.66666667 	0.0028236639 	-0.00016159629 	2.0785648e-06 	0.0028162132 	-1.054861e-06 	0.00090113418
0.67777778 	0.0028187038 	-1.9034481e-05 	8.6355982e-07 	0.0028119832 	-1.0288122e-07 	0.0009016414
0.68888889 	0.0028473408 	0.00011965365 	2.2146909e-07 	0.0028416035 	-2.6384982e-08 	0.00090169787
0.7 	0.0029103128 	0.0002541549 	2.21766e-06 	0.0029055756 	5.8116445e-07 	0.0009330104
0.71111111 	0.0029925328 	0.00038685804 	6.6909062e-09 	0.0029878725 	7.5524201e-09 	0.00052665073
0.72222222 	0.003103061 	0.00051309689 	2.6633009e-06 	0.0031002637 	1.6739214e-06 	0.00099539528
0.73333333 	0.0032270728 	0.00063744095 	9.0308993e-09 	0.0032237618 	4.9650239e-09 	0.000478112
0.74444444 	0.0033768399 	0.00075864971 	2.5340464e-06 	0.0033751872 	2.5003471e-06 	0.0010859753
0.75555556 	0.0035361117 	0.00087691062 	1.0523601e-08 	0.0035331197 	2.8840996e-09 	0.00047026773
0.76666667 	0.0037208143 	0.00099485625 	2.5603874e-06 	0.0037191143 	3.3955621e-06 	0.0011944409
0.77777778 	0.0039129537 	0.0011093886 	1.8060434e-08 	0.0039081514 	3.1370964e-09 	6.1451576e-05
0.78888889 	0.0041253615 	0.0012233672 	1.8268114e-06 	0.0041227417 	2.9737356e-06 	0.0013110924
0.8 	0.0043452391 	0.0013346545 	8.978669e-08 	0.0043420961 	1.7051362e-07 	0.0014309834
0.81111111 	0.0045780227 	0.0014436318 	3.0151335e-07 	0.0045741717 	5.7260307e-07 	0.0014314258
0.82222222 	0.0048215957 	0.001550543 	1.591274e-06 	0.0048171958 	3.4077512e-06 	0.0015518182
0.83333333 	0.0050717851 	0.0016556487 	4.8227362e-09 	0.0050657739 	9.9169344e-10 	0.0011700817
0.84444444 	0.0053319179 	0.0017595107 	9.4516694e-08 	0.0053263271 	2.2275604e-07 	0.0016709423
0.85555556 	0.0055990325 	0.0018610949 	1.1890298e-06 	0.0055930098 	3.02819e-06 	0.0017862408
0.86666667 	0.0058712429 	0.0019611394 	7.7119863e-07 	0.0058648331 	2.0931163e-06 	0.0018970746
0.87777778 	0.006148122 	0.0020595053 	7.3426848e-08 	0.0061413793 	2.1003973e-07 	0.00200269
0.88888889 	0.0064279806 	0.002155279 	6.0712025e-09 	0.0064181283 	-1.1643684e-10 	0.00075576118
0.9 	0.006710827 	0.0022495778 	7.6694639e-09 	0.0066991963 	-1.3920459e-09 	0.00012570559
0.91111111 	0.006995159 	0.0023422878 	6.6747992e-09 	0.0069832259 	-2.3705961e-09 	0.00012595111
0.92222222 	0.0072796413 	0.0024332488 	3.5879995e-09 	0.0072687757 	-1.7664055e-09 	0.0010133873
0.93333333 	0.0075614106 	0.0025221016 	1.4544982e-07 	0.0075537096 	4.7699293e-07 	0.0024416118
0.94444444 	0.0078372653 	0.0026077081 	5.785344e-07 	0.00782685 	1.9708008e-06 	0.0025112537
0.95555556 	0.0080983994 	0.0026902505 	1.0061057e-09 	0.0080893159 	1.9186594e-10 	0.0021131248
0.96666667 	0.0083187585 	0.0027504777 	1.0101182e-07 	0.0083069424 	5.9705589e-07 	0.0026641115
0.97777778 	0.0084432054 	0.0027891631 	-4.63689e-08 	0.0084321556 	-1.559412e-07 	0.0027049284
0.98888889 	0.0079429348 	0.0026479497 	-7.7326284e-07 	0.0079168002 	-2.6100815e-06 	0.0025313051
