0.34020619 	0.0057644067 	-0.0016893206 	4.8080324e-07 	0.0045957627 	-1.1108587e-06 	0.0034688829
0.35051546 	0.0052196915 	-0.0015097909 	-2.8694679e-06 	0.0043002298 	3.4548942e-06 	0.00048706315
0.36082474 	0.003694651 	-0.00071258141 	-1.3920908e-06 	0.0037730364 	-4.0355484e-06 	0.00066940103
0.37113402 	0.0033860104 	-0.00032352495 	-1.0786563e-10 	0.0041629513 	-5.619294e-10 	0.0016596207
0.3814433 	0.0032268926 	-8.9739562e-05 	-9.9085274e-08 	0.0044735073 	-6.9742739e-07 	0.0010682927
0.39175258 	0.003060322 	7.9004244e-05 	-2.764109e-07 	0.00465332 	-2.1830859e-06 	0.00025047693
0.40206186 	0.0028938843 	0.00021002472 	-1.6034406e-07 	0.0047395508 	-1.3404048e-06 	4.5455281e-05
0.41237113 	0.0027377724 	0.00031664653 	-6.7716339e-10 	0.0047316056 	-2.6884595e-07 	4.5804596e-05
0.42268041 	0.0026067979 	0.00039339348 	2.4103998e-07 	0.0046218592 	-7.8002402e-07 	0.00011163791
0.43298969 	0.0025005677 	0.00044398349 	4.3395224e-07 	0.0044845475 	-2.9398558e-06 	0.00010073252
0.44329897 	0.0024134227 	0.00047989485 	3.1614059e-07 	0.0043628458 	-4.6368338e-06 	0.00028623602
0.45360825 	0.0023421932 	0.00050452778 	1.2654062e-08 	0.0042594355 	-2.087503e-06 	0.00045785614
0.46391753 	0.0022841948 	0.00051855058 	4.0649077e-07 	0.0041731259 	6.6771011e-08 	7.7527967e-05
0.4742268 	0.0022393182 	0.00053072277 	-3.2661472e-08 	0.0041120323 	-1.2623766e-06 	0.00076855126
0.48453608 	0.0022001401 	0.00054014144 	-3.1007353e-08 	0.0040578195 	-8.792196e-07 	0.00090479677
0.49484536 	0.0021673237 	0.00054859928 	6.5241126e-07 	0.004011296 	5.7771088e-08 	0.00026790885
0.50515464 	0.0021402081 	0.00055831744 	-5.6925008e-08 	0.0039801732 	-1.7252325e-06 	0.0011583865
0.51546392 	0.0021158607 	0.0005670186 	8.2590814e-07 	0.0039462959 	6.2127829e-08 	0.00028324034
0.5257732 	0.0020959817 	0.00057766264 	-1.1735194e-08 	0.0039277095 	-4.8102506e-07 	0.0013833865
0.53608247 	0.0020779844 	0.00058725084 	8.3241648e-07 	0.0039034238 	5.1452104e-08 	0.00045595263
0.54639175 	0.0020631738 	0.00059889152 	-7.1311964e-10 	0.0038924157 	-7.2161159e-08 	0.0015847103
0.55670103 	0.0020501518 	0.00060957145 	1.0456798e-06 	0.0038737535 	4.8772247e-08 	0.000328612
0.56701031 	0.002039302 	0.00062256324 	3.7737281e-09 	0.003868901 	-2.8054676e-07 	0.0017671789
0.57731959 	0.0020306932 	0.00063477394 	1.3047203e-06 	0.0038538248 	4.0815812e-08 	7.6864407e-05
0.58762887 	0.002023414 	0.00064926563 	1.9834832e-07 	0.0038530579 	6.2049678e-09 	0.0016626108
0.59793814 	0.002018951 	0.00066405153 	8.6739803e-07 	0.0038449737 	1.8778078e-08 	0.00074423899
0.60824742 	0.0020156074 	0.0006799447 	7.7213816e-07 	0.0038419071 	1.6715822e-08 	0.00095504685
0.6185567 	0.0020138762 	0.00069703643 	2.8915673e-07 	0.0038417864 	8.9912712e-09 	0.0016495111
0.62886598 	0.0020155059 	0.00071505179 	1.2786658e-06 	0.0038349208 	3.975986e-08 	2.8883743e-05
0.63917526 	0.0020171124 	0.00073446242 	3.0430076e-07 	0.0038397014 	9.4621719e-09 	0.0016053007
0.64948454 	0.0020224046 	0.00075472567 	4.8943873e-07 	0.0038391871 	4.4999993e-08 	0.0011928049
0.65979381 	0.0020299209 	0.00077628372 	9.0516064e-07 	0.003838412 	8.3222312e-08 	0.00043213077
0.67010309 	0.002037372 	0.00079959745 	2.6494009e-08 	0.0038455116 	2.4359131e-09 	0.0020690785
0.68041237 	0.0020500388 	0.00082246315 	5.8756888e-07 	0.0038469602 	1.4602857e-07 	0.00083645181
0.69072165 	0.0020640162 	0.00084748101 	5.6070716e-07 	0.0038529923 	1.3935262e-07 	0.00092395005
0.70103093 	0.0020800899 	0.00087411938 	6.5812931e-08 	0.0038627756 	3.0667827e-08 	0.0020044644
0.71134021 	0.0021021915 	0.00090089241 	7.4576081e-07 	0.0038656147 	3.4751322e-07 	0.00015056817
0.72164948 	0.0021246249 	0.00093247487 	1.3593731e-07 	0.0038814061 	6.3344724e-08 	0.0019023462
0.73195876 	0.0021597998 	0.00095859745 	3.5047658e-07 	0.0038822694 	2.3444633e-07 	0.001015983
0.74226804 	0.0021996956 	0.00098578797 	3.1989709e-07 	0.0038855259 	2.1399061e-07 	0.0011984134
0.75257732 	0.0022440727 	0.0010139491 	1.5633423e-07 	0.0038928369 	1.5065789e-07 	0.0017263591
0.7628866 	0.002295155 	0.0010411124 	3.9107911e-07 	0.0038984041 	3.768794e-07 	0.00069921166
0.77319588 	0.0023486222 	0.0010707523 	7.8092467e-08 	0.0039156908 	1.0505951e-07 	0.0022089682
0.78350515 	0.0024093945 	0.0010940535 	4.1713097e-07 	0.003927514 	5.6117544e-07 	0.00049007335
0.79381443 	0.0024724413 	0.0011214131 	7.3039615e-08 	0.003954819 	1.2385289e-07 	0.0023730335
0.80412371 	0.002542645 	0.0011417874 	3.6893437e-07 	0.0039753339 	6.2560009e-07 	0.00067478437
0.81443299 	0.0026157401 	0.0011654222 	1.3099547e-07 	0.0040099676 	2.6269573e-07 	0.0021088619
0.82474227 	0.0026942991 	0.0011845086 	2.4808825e-07 	0.0040415315 	4.9751128e-07 	0.0013755647
0.83505155 	0.0027761992 	0.0012033229 	2.1467349e-07 	0.0040780736 	5.0249275e-07 	0.0012885622
0.84536082 	0.0028617188 	0.0012221952 	5.529259e-08 	0.0041222691 	1.2942504e-07 	0.0027303282
0.8556701 	0.0029495783 	0.0012354329 	2.5490853e-07 	0.0041538844 	7.0058696e-07 	0.00027322122
0.86597938 	0.0030398983 	0.001251265 	7.3772318e-08 	0.0042001677 	2.4432475e-07 	0.0020340661
0.87628866 	0.0031310792 	0.0012640291 	2.4499183e-08 	0.0042413345 	8.1138249e-08 	0.002890206
0.88659794 	0.0032214756 	0.0012729025 	8.7875028e-08 	0.0042691311 	3.6793629e-07 	0.00095469567
0.89690722 	0.0033118633 	0.001281592 	5.127454e-08 	0.0042979809 	2.9465829e-07 	0.00077900335
0.90721649 	0.0034016051 	0.0012895405 	1.0351757e-08 	0.004325012 	8.9856158e-08 	0.0022093668
0.91752577 	0.0034898059 	0.0012961069 	-1.7959352e-09 	0.0043425103 	-8.6249346e-09 	0.0033116849
0.92783505 	0.0035779002 	0.0013025941 	-2.0493866e-08 	0.0043444561 	-1.28996e-07 	0.0033017307
0.93814433 	0.0036666728 	0.001309908 	-4.9493629e-09 	0.0043384133 	-9.1219227e-08 	0.0032796805
0.94845361 	0.0037600979 	0.0013262377 	-1.2222666e-08 	0.0043247702 	-2.2391292e-07 	0.0032507769
0.95876289 	0.0038689214 	0.0013399609 	1.6011597e-07 	0.0043006619 	2.2266756e-07 	0.0011731276
0.96907216 	0.0040066821 	0.0013796839 	1.847353e-07 	0.0043041558 	3.2259416e-07 	0.0019442459
0.97938144 	0.0042050431 	0.0014455996 	2.2663932e-07 	0.0043591536 	4.9326695e-07 	0.0022033829
0.98969072 	0.004111794 	0.0014217177 	5.0543217e-07 	0.0041420689 	1.398053e-06 	0.0013781453
