1.640171e-35 	0.78816561 	-5.3528195e-14 	-1.9456082e-20
0.010869565 	0.78872133 	-0.0005248091 	4.4905195e-08
0.02173913 	0.79019628 	-0.0010418311 	2.6548247e-08
0.032608696 	0.79264058 	-0.0015543268 	2.8988174e-09
0.043478261 	0.79601294 	-0.002054867 	1.322863e-07
0.054347826 	0.80029267 	-0.0025477561 	5.6591353e-07
0.065217391 	0.80574461 	-0.0030502103 	6.6230809e-07
0.076086957 	0.81122489 	-0.0034689741 	3.9738227e-07
0.086956522 	0.81777587 	-0.003895122 	7.5759837e-07
0.097826087 	0.82494434 	-0.0043027235 	1.3141627e-06
0.10869565 	0.83268781 	-0.0046925928 	5.0150671e-07
0.11956522 	0.8410306 	-0.0050473271 	1.4460796e-06
0.13043478 	0.8498042 	-0.0053781975 	2.6599072e-06
0.14130435 	0.85896953 	-0.0056890888 	1.627048e-07
0.15217391 	0.86867559 	-0.0059556777 	5.7831182e-06
0.16304348 	0.87854108 	-0.0062108049 	5.9485501e-07
0.17391304 	0.88894561 	-0.0064152526 	6.724679e-06
0.18478261 	0.89939939 	-0.0066099838 	1.6864119e-06
0.19565217 	0.91023809 	-0.0067545865 	7.8382936e-06
0.20652174 	0.92116751 	-0.0068909492 	3.1773252e-07
0.2173913 	0.93237584 	-0.006969167 	1.0601389e-05
0.22826087 	0.94367744 	-0.0070438228 	4.5314044e-07
0.23913043 	0.95506354 	-0.0070616335 	1.0161201e-05
0.25 	0.96647414 	-0.0070705837 	2.4901119e-06
0.26086957 	0.97800245 	-0.0070401615 	4.0792446e-06
0.27173913 	0.98937782 	-0.0069805463 	9.3453959e-06
0.2826087 	1.000984 	-0.0069041214 	1.1201452e-06
0.29347826 	1.0119552 	-0.0067942396 	1.0168227e-05
0.30434783 	1.0229604 	-0.0066721499 	4.0607923e-06
0.31521739 	1.0339689 	-0.0065227947 	5.3568217e-07
0.32608696 	1.044211 	-0.0063567721 	1.3149577e-05
0.33695652 	1.0544174 	-0.0061848131 	1.1259463e-06
0.34782609 	1.0643496 	-0.0059865295 	5.1215299e-07
0.35869565 	1.0733868 	-0.0057887925 	1.2065682e-05
0.36956522 	1.0823049 	-0.0055864557 	1.3791392e-06
0.38043478 	1.0907718 	-0.005366908 	7.9088188e-07
0.39130435 	1.0983221 	-0.0051597638 	7.0160293e-06
0.40217391 	1.1055032 	-0.004948287 	4.8287809e-06
0.41304348 	1.1122612 	-0.0047282435 	9.2084274e-07
0.42391304 	1.1183172 	-0.0045229221 	6.6355986e-08
0.43478261 	1.1234911 	-0.0043170709 	1.0668173e-05
0.44565217 	1.1284415 	-0.0041098305 	2.3785922e-07
0.45652174 	1.1326099 	-0.0039030017 	8.2102663e-07
0.4673913 	1.1363192 	-0.0037093491 	2.4084264e-06
0.47826087 	1.1392242 	-0.0035126177 	6.2081391e-06
0.48913043 	1.1416466 	-0.003313224 	4.8283761e-07
0.5 	1.1435151 	-0.003113266 	7.038234e-07
0.51086957 	1.145101 	-0.0029164269 	3.0354286e-06
0.52173913 	1.1459875 	-0.0027184948 	3.6342687e-06
0.5326087 	1.1462344 	-0.0025181197 	6.1000096e-07
0.54347826 	1.1461593 	-0.0023126294 	5.3349438e-07
0.55434783 	1.1457628 	-0.0021079741 	4.579797e-06
0.56521739 	1.1449235 	-0.0019090965 	1.8621982e-08
0.57608696 	1.1433587 	-0.0017170633 	8.4719648e-07
0.58695652 	1.1417331 	-0.001517224 	1.1872497e-07
0.59782609 	1.1396141 	-0.0013281929 	3.5682596e-06
0.60869565 	1.1370734 	-0.0011469266 	4.2844498e-07
0.61956522 	1.1342403 	-0.00096442673 	3.3748669e-07
0.63043478 	1.1311086 	-0.00078422668 	4.5396194e-06
0.64130435 	1.1275845 	-0.00061271148 	2.3154472e-07
0.65217391 	1.1237145 	-0.00044191635 	3.2934712e-07
0.66304348 	1.1195716 	-0.00027099957 	3.3446955e-06
0.67391304 	1.1150664 	-0.00011087697 	1.7079936e-07
0.68478261 	1.1102209 	4.8936687e-05 	1.8995298e-07
0.69565217 	1.1050774 	0.00020595409 	2.4440079e-06
0.70652174 	1.099598 	0.00035005139 	1.4302288e-07
0.7173913 	1.0937715 	0.00049780113 	3.1303717e-08
0.72826087 	1.0876507 	0.00063394992 	1.5798893e-08
0.73913043 	1.0811505 	0.00075775263 	1.7956716e-08
0.75 	1.0742765 	0.00088377293 	1.6383642e-06
0.76086957 	1.0671397 	0.00099095065 	-1.1246866e-07
0.77173913 	1.0595623 	0.0010994771 	7.0980838e-08
0.7826087 	1.0516867 	0.0011876667 	-1.2182288e-07
0.79347826 	1.0433883 	0.0012703211 	-7.9068446e-08
0.80434783 	1.0347567 	0.0013384938 	-9.7116603e-08
0.81521739 	1.0256911 	0.0013939061 	-1.5541129e-07
0.82608696 	1.0162555 	0.0014353759 	-1.4086055e-07
0.83695652 	1.0063502 	0.0014625151 	-1.1368116e-07
0.84782609 	0.99607299 	0.0014699651 	-3.4987559e-07
0.85869565 	0.98521986 	0.0014641802 	-1.9059884e-07
0.86956522 	0.97405141 	0.0014360971 	-7.9828832e-07
0.88043478 	0.96209324 	0.0013936645 	-2.2992036e-07
0.89130435 	0.94961048 	0.0013219856 	-1.6884522e-07
0.90217391 	0.93646231 	0.0012407876 	-7.2232935e-07
0.91304348 	0.92227705 	0.0011424835 	-1.8827992e-08
0.92391304 	0.90707965 	0.0010036175 	-6.7327687e-07
0.93478261 	0.89056226 	0.00086008828 	-9.9913997e-08
0.94565217 	0.87040325 	0.00070538011 	-8.05896e-07
0.95652174 	0.84686391 	0.00053157547 	-4.372423e-07
0.9673913 	0.8150997 	0.00035727046 	-5.6475637e-08
0.97826087 	0.76452782 	0.00019019663 	-1.7450049e-07
0.98913043 	0.64121358 	0.00040883918 	-4.9851911e-08
