0 	0.0046171967 	-3.1358633e-16 	-5.4353208e-22 	2.2297863e-18 	9.735457e-20 	4.2505923e-21
0.010869565 	0.0046253256 	-0.00013076273 	2.22762e-08 	0.005058748 	-1.2089734e-05 	0.0022279955
0.02173913 	0.0046623416 	-0.00025919205 	5.4890852e-09 	0.0050950994 	-9.732558e-06 	0.0024650963
0.032608696 	0.0047228121 	-0.00038702091 	3.4886023e-09 	0.005153841 	-2.7823958e-06 	0.0027062157
0.043478261 	0.0048048915 	-0.00051321069 	1.3178108e-08 	0.0052332355 	-4.0978982e-06 	0.0029675887
0.054347826 	0.0049064974 	-0.00063775146 	1.0583591e-07 	0.0053283048 	-3.3478801e-07 	0.0017991381
0.065217391 	0.0050340639 	-0.00076853404 	2.597703e-07 	0.0054467689 	-7.6317389e-07 	0.0004558195
0.076086957 	0.0051516876 	-0.00087553377 	1.8855517e-07 	0.0055606658 	-5.2035543e-07 	0.0018457647
0.086956522 	0.0052856238 	-0.00098749209 	4.1927044e-08 	0.0056913957 	-1.9177102e-06 	0.0040758722
0.097826087 	0.0054289394 	-0.001096625 	8.7345122e-08 	0.0058247698 	-2.3050605e-07 	0.0036056392
0.10869565 	0.0055758816 	-0.001201407 	5.5742521e-07 	0.0059540701 	-1.4272613e-06 	7.3823872e-05
0.11956522 	0.0057130129 	-0.0012975228 	7.904507e-08 	0.0060879446 	-1.9784611e-07 	0.004374033
0.13043478 	0.0058519838 	-0.0013900422 	2.4811605e-07 	0.0062114172 	-6.2102287e-07 	0.0034008409
0.14130435 	0.0059823304 	-0.0014757343 	5.5240984e-07 	0.0063231721 	-1.3553502e-06 	0.0016060395
0.15217391 	0.006102139 	-0.0015551845 	3.0342205e-08 	0.0064352405 	-7.4445293e-08 	0.0056610152
0.16304348 	0.0062109439 	-0.0016268263 	8.8542769e-07 	0.0065147825 	-2.1279062e-06 	6.6329778e-05
0.17391304 	0.0063062963 	-0.0016927121 	1.3040275e-08 	0.0066047568 	-1.0080659e-07 	0.0063968845
0.18478261 	0.0063820731 	-0.0017479378 	9.107767e-07 	0.0066483726 	-2.1366689e-06 	0.00059890528
0.19565217 	0.0064487229 	-0.0017998675 	3.2381574e-08 	0.0067067535 	-7.3742311e-08 	0.006487088
0.20652174 	0.0064854826 	-0.0018376286 	9.7829801e-07 	0.0067086244 	-2.2278706e-06 	0.00021577368
0.2173913 	0.0065181355 	-0.0018744006 	2.2712772e-08 	0.0067319049 	-5.1723623e-08 	0.0062627266
0.22826087 	0.0065123223 	-0.0018940584 	7.9902764e-07 	0.0066925419 	-1.7528756e-06 	0.0011040394
0.23913043 	0.0065032262 	-0.0019127983 	2.2357046e-07 	0.0066680001 	-4.9046012e-07 	0.004627085
0.25 	0.0064615266 	-0.00191741 	4.2110286e-07 	0.0066003624 	-8.8130213e-07 	0.0031509582
0.26086957 	0.0064030159 	-0.001914794 	5.1573454e-07 	0.0065174525 	-1.0793514e-06 	0.0023295748
0.27173913 	0.006336017 	-0.0019086913 	1.3775299e-07 	0.0064345842 	-5.5133627e-07 	0.0054970571
0.2826087 	0.0062224295 	-0.0018815291 	7.1926226e-07 	0.006289133 	-1.4190105e-06 	0.00044641329
0.29347826 	0.0061179353 	-0.0018586147 	1.3467902e-07 	0.0061711483 	-2.6570411e-07 	0.0041202807
0.30434783 	0.0059805643 	-0.0018199383 	1.5392827e-07 	0.0060132559 	-2.8236894e-07 	0.0037536751
0.31521739 	0.0058192008 	-0.001769387 	5.3798597e-07 	0.0058273119 	-9.868917e-07 	0.00074935014
0.32608696 	0.0056684398 	-0.0017235023 	3.7423606e-07 	0.00566588 	-1.2105103e-06 	0.0043315129
0.33695652 	0.0054819818 	-0.0016576656 	1.5989286e-07 	0.0054610871 	-2.6930394e-07 	0.0029148518
0.34782609 	0.0052850656 	-0.0015851408 	3.8267314e-07 	0.0052459807 	-6.4452775e-07 	0.00087186148
0.35869565 	0.0050995033 	-0.0015171709 	7.588242e-07 	0.0050524702 	-2.1932356e-06 	0.0036488744
0.36956522 	0.0048945983 	-0.0014333536 	7.3309089e-08 	0.0048349513 	-1.1331674e-07 	0.0028613015
0.38043478 	0.0046818874 	-0.0013412278 	3.1504037e-07 	0.004607919 	-4.8697031e-07 	0.00035859915
0.39130435 	0.0044861213 	-0.0012577775 	6.9321623e-09 	0.0044080455 	-1.0715316e-08 	0.002932417
0.40217391 	0.0042895486 	-0.0011629515 	6.2392563e-07 	0.0042041707 	-1.5705587e-06 	0.0029442052
0.41304348 	0.0040954988 	-0.0010594737 	1.8953121e-07 	0.0039997099 	-2.7848626e-07 	0.00060011797
0.42391304 	0.0039150983 	-0.00096292423 	8.1167195e-08 	0.003815644 	-1.1926241e-07 	0.0015890767
0.43478261 	0.00374997 	-0.00086454055 	3.3998053e-06 	0.0036469904 	-7.0493363e-06 	0.0023901934
0.44565217 	0.0035990034 	-0.00076168778 	4.1453439e-08 	0.0034901703 	-6.2134379e-08 	0.0017347682
0.45652174 	0.003464998 	-0.00065671426 	1.3212451e-07 	0.0033491981 	-1.9804085e-07 	0.00029623609
0.4673913 	0.0033405858 	-0.00055986757 	3.8333608e-09 	0.0032238137 	-5.7458079e-09 	0.0019394393
0.47826087 	0.0032503945 	-0.00045996774 	2.4312675e-06 	0.0031296374 	-3.6504065e-06 	0.0019664122
0.48913043 	0.0031784642 	-0.00035890816 	4.1592565e-08 	0.0030521166 	-6.4973611e-08 	0.0011598853
0.5 	0.0031264299 	-0.00025766101 	7.3969386e-08 	0.0029947073 	-1.155509e-07 	0.0004936431
0.51086957 	0.0030812778 	-0.00015864202 	7.4857357e-07 	0.002947958 	-5.989601e-07 	0.0017776547
0.52173913 	0.0030669394 	-5.9868905e-05 	1.8116632e-06 	0.0029302006 	-1.4495756e-06 	0.0017611733
0.5326087 	0.0030741598 	3.8339974e-05 	3.2346927e-08 	0.0029327981 	-5.1070247e-08 	0.00085941935
0.54347826 	0.003098131 	0.00013769664 	3.5456916e-08 	0.0029539421 	-5.5980386e-08 	0.00077857463
0.55434783 	0.003133643 	0.00023734443 	1.7452276e-06 	0.0029889576 	-1.8486756e-07 	0.0017604862
0.56521739 	0.0031848919 	0.000334771 	5.3492813e-07 	0.0030384735 	-5.6663589e-08 	0.0017476278
0.57608696 	0.003260138 	0.00042820646 	2.1396033e-08 	0.0031102937 	-4.8719514e-08 	0.00025847
0.58695652 	0.0033418458 	0.00052454168 	2.5281021e-09 	0.0031941281 	-5.7565766e-09 	0.0016858724
0.59782609 	0.003438749 	0.00061666096 	2.0068679e-06 	0.0032913988 	9.5620935e-07 	0.0018650618
0.60869565 	0.0035440263 	0.0007056467 	-7.4135812e-09 	0.0033955523 	-2.0016091e-08 	0.0010348407
0.61956522 	0.0036615315 	0.00079311661 	-7.3196003e-09 	0.0035141905 	-1.976235e-08 	0.0011517964
0.63043478 	0.003786301 	0.00087921495 	1.9104042e-06 	0.0036420705 	1.8492359e-06 	0.0020432887
0.64130435 	0.0039153307 	0.00096159429 	-1.3616312e-08 	0.0037721749 	-1.5368814e-08 	0.0015719654
0.65217391 	0.0040521865 	0.0010398216 	-3.3873049e-08 	0.003910702 	-3.8232715e-08 	0.000973295
0.66304348 	0.0041938115 	0.0011177462 	1.3815006e-06 	0.0040581163 	1.9343618e-06 	0.0022454825
0.67391304 	0.0043358177 	0.0011912125 	-2.5100442e-08 	0.0042031214 	-2.9628029e-08 	0.0016831427
0.68478261 	0.0044803815 	0.0012605332 	-4.4822386e-08 	0.0043521044 	-5.2907393e-08 	0.0013639381
0.69565217 	0.0046265455 	0.0013282949 	1.1503622e-06 	0.0045059906 	2.0646262e-06 	0.0024482714
0.70652174 	0.0047688835 	0.0013906259 	-7.5681237e-08 	0.0046520502 	-1.0538972e-07 	0.0011096394
0.7173913 	0.0049124328 	0.0014515321 	-3.1043669e-09 	0.0048053518 	-4.3229784e-09 	0.0025821287
0.72826087 	0.0050506373 	0.0015072403 	3.0016895e-07 	0.0049512705 	6.512966e-07 	0.0026366139
0.73913043 	0.0051809553 	0.0015569689 	-1.4011968e-07 	0.005085598 	-2.2912179e-07 	0.00050597651
0.75 	0.0053101175 	0.001606011 	4.6550815e-07 	0.0052278096 	1.1948639e-06 	0.0028043498
0.76086957 	0.0054284955 	0.0016484304 	-1.1062859e-07 	0.0053521056 	-2.0747577e-07 	0.0012300943
0.77173913 	0.0055405597 	0.0016881225 	6.3944869e-08 	0.0054768298 	2.0326042e-07 	0.0029399235
0.7826087 	0.0056416401 	0.0017222494 	-3.0046177e-08 	0.005586741 	-6.31915e-08 	0.0025296427
0.79347826 	0.005730198 	0.0017512767 	-2.2360535e-08 	0.0056854577 	-4.7027471e-08 	0.002726587
0.80434783 	0.0058077228 	0.0017758708 	2.967836e-10 	0.0057734955 	1.4837223e-08 	0.003038757
0.81521739 	0.0058691875 	0.0017944089 	-4.4821366e-08 	0.0058436682 	-1.0381379e-07 	0.002496726
0.82608696 	0.0059185539 	0.001808886 	-8.7155061e-09 	0.0059039664 	-1.7408499e-08 	0.0031054999
0.83695652 	0.0059502308 	0.0018174372 	-4.9865821e-09 	0.0059449497 	-1.2545965e-08 	0.0030727668
0.84782609 	0.0059657161 	0.0018204367 	-6.285429e-08 	0.0059676545 	-1.7014819e-07 	0.0022769192
0.85869565 	0.0059638157 	0.0018187052 	-2.5980972e-07 	0.0059753842 	-7.4079108e-07 	0.0031435162
0.86956522 	0.0059446224 	0.0018109763 	-1.981205e-07 	0.0059581519 	-5.7389641e-07 	0.00028739354
0.88043478 	0.0059075404 	0.0017999865 	-3.1813667e-07 	0.0059327495 	-9.8975486e-07 	0.0031205261
0.89130435 	0.0058534353 	0.0017840586 	-5.5997961e-09 	0.0058819364 	-1.7326694e-08 	0.0029907201
0.90217391 	0.0057790415 	0.0017622631 	-1.3280872e-07 	0.0058062121 	-4.3936189e-07 	0.00078515251
0.91304348 	0.0056857904 	0.0017386655 	-2.2489791e-07 	0.0057192842 	-8.2507365e-07 	0.0030131595
0.92391304 	0.0055758062 	0.0017138756 	-4.0484141e-07 	0.0056088927 	-1.4909354e-06 	0.0029356721
0.93478261 	0.0054478139 	0.0016776764 	-3.0272524e-08 	0.0054755426 	-1.1512251e-07 	0.0028578807
0.94565217 	0.0052887069 	0.0016419996 	-3.9927507e-07 	0.0053111635 	-1.7330107e-06 	0.002791445
0.95652174 	0.0051137463 	0.0016050042 	-5.1520359e-08 	0.0051256144 	-2.3370944e-07 	0.00058698366
0.9673913 	0.004902153 	0.001563248 	-3.7608221e-08 	0.004910209 	-1.7116687e-07 	0.002599089
0.97826087 	0.004606904 	0.0014986446 	-1.385918e-08 	0.0046003964 	-7.3421115e-08 	0.00053181552
0.98913043 	0.0036187524 	0.0012173784 	-4.1325393e-10 	0.0036203103 	-7.2772133e-09 	0.0003611242
