0.4 	5.041129e-05 	-4.0293013e-06 	3.7055894e-09 	5.3094933e-05 	-1.4971574e-08 	3.6730265e-06
0.41111111 	0.0070697331 	-0.0025040818 	-1.7481986e-07 	0.0084446879 	2.3998344e-06 	0.0012185401
0.42222222 	0.0073034941 	-0.0025502844 	1.8217782e-07 	0.0082926994 	-9.7911293e-07 	0.0049763589
0.43333333 	0.007028798 	-0.0024029707 	-9.4857092e-07 	0.0075747596 	2.8821866e-06 	0.0014094924
0.44444444 	0.0067056127 	-0.0022486178 	-4.1377769e-07 	0.0068854486 	8.4105015e-07 	0.0039811296
0.45555556 	0.0063882365 	-0.0020788768 	-1.833942e-06 	0.0062325684 	2.9103252e-06 	3.4063827e-05
0.46666667 	0.0060790782 	-0.0019154946 	-1.2525437e-06 	0.0056455556 	1.5449927e-06 	0.002037828
0.47777778 	0.0057828191 	-0.0017613237 	-1.0418749e-06 	0.0051116539 	9.8989631e-07 	0.002804464
0.48888889 	0.0054996873 	-0.0016164659 	-1.2009465e-06 	0.0046238279 	8.6861125e-07 	0.0026165464
0.5 	0.0052300976 	-0.0014797055 	-1.7240591e-06 	0.0041771742 	9.2773428e-07 	0.0017290463
0.51111111 	0.0049756933 	-0.0013501938 	-2.6025635e-06 	0.0037681224 	9.9803409e-07 	0.00036629335
0.52222222 	0.0047378925 	-0.0012230004 	-2.1084897e-06 	0.003393212 	5.2280455e-07 	0.0015002412
0.53333333 	0.0045190261 	-0.0010988975 	-8.1971013e-07 	0.0030492911 	1.0088797e-07 	0.0035795406
0.54444444 	0.0043261406 	-0.00098347898 	-7.7760655e-07 	0.0027438437 	9.5705962e-08 	0.0034089671
0.55555556 	0.0041639013 	-0.00087646422 	-2.6805582e-06 	0.0024819978 	1.8773232e-08 	0.00074139177
0.56666667 	0.0040247996 	-0.00076390724 	-1.671412e-06 	0.0022463628 	-1.5849988e-07 	0.0020898141
0.57777778 	0.0039140385 	-0.00065186035 	-5.5575756e-07 	0.0020430643 	-5.2702449e-08 	0.0031826019
0.58888889 	0.0038406244 	-0.00054238843 	-3.3809986e-06 	0.0018948037 	-6.2077157e-07 	0.00016376006
0.6 	0.003789561 	-0.00041547388 	-5.1821338e-07 	0.001754722 	-1.4451394e-07 	0.0030617935
0.61111111 	0.0037779833 	-0.00028519967 	-2.2336571e-06 	0.0016708136 	-6.2289897e-07 	0.0013139866
0.62222222 	0.003789999 	-0.00013969025 	-1.3345285e-06 	0.001605274 	-5.413433e-07 	0.0021100487
0.63333333 	0.0038319683 	1.6083142e-05 	-1.5810412e-06 	0.0015766971 	-6.4133967e-07 	0.0018479882
0.64444444 	0.0038972981 	0.00017695012 	-1.3764199e-06 	0.0015791728 	-8.0753147e-07 	0.0018310335
0.65555556 	0.0039847892 	0.00034218909 	-1.3617613e-06 	0.0016117847 	-7.9893143e-07 	0.0018854151
0.66666667 	0.00408889 	0.00050031163 	-9.1618526e-07 	0.0016730438 	-7.2166732e-07 	0.0021232993
0.67777778 	0.004211371 	0.00064940763 	-1.4022339e-06 	0.0017670523 	-1.1045216e-06 	0.0014677378
0.68888889 	0.0043423007 	0.00079330569 	-3.3928361e-07 	0.0018683981 	-3.5069981e-07 	0.002962148
0.7 	0.0044868643 	0.00091018907 	-1.4982003e-06 	0.0020155477 	-1.5486117e-06 	0.00061492683
0.71111111 	0.0046451511 	0.0010424481 	1.6042583e-07 	0.0021533535 	2.1799761e-07 	0.0039352153
0.72222222 	0.0048007676 	0.0011328359 	-1.2304042e-06 	0.0023343405 	-1.7080933e-06 	0.00033693963
0.73333333 	0.0049799267 	0.001245203 	-1.3037289e-07 	0.0025196542 	-1.8098855e-07 	0.0038666562
0.74444444 	0.0051491596 	0.0013282096 	-8.8857527e-07 	0.0027270411 	-1.4504173e-06 	0.00083228733
0.75555556 	0.0053373652 	0.001423742 	-1.7912148e-07 	0.0029471762 	-2.9237915e-07 	0.0039185654
0.76666667 	0.0055158739 	0.0015009811 	-8.0893586e-07 	0.0031780948 	-1.3668544e-06 	0.00078261847
0.77777778 	0.0057146006 	0.0015912632 	-8.391164e-08 	0.0034250457 	-1.4178503e-07 	0.0046679099
0.78888889 	0.0058983503 	0.0016637556 	-8.1909961e-07 	0.00367359 	-1.4170649e-06 	4.1795691e-05
0.8 	0.0061061462 	0.0017522451 	-9.8048877e-08 	0.0039421953 	-1.7688266e-07 	0.0045178191
0.81111111 	0.0063023126 	0.0018284727 	-4.0770632e-07 	0.0042095273 	-7.3551256e-07 	0.0020887572
0.82222222 	0.0065069077 	0.0019095946 	-2.9339946e-07 	0.004486731 	-5.7244487e-07 	0.0022532117
0.83333333 	0.0067196878 	0.0019942661 	-6.1732255e-09 	0.004776255 	-1.2044437e-08 	0.005580525
0.84444444 	0.006920762 	0.0020706646 	-2.4286807e-07 	0.0050588034 	-5.4060869e-07 	0.0017586453
0.85555556 	0.0071306385 	0.0021525772 	-1.4277779e-07 	0.0053536118 	-4.0127428e-07 	0.0018962073
0.86666667 	0.007345692 	0.0022376795 	-9.7587889e-09 	0.0056598973 	-4.6569429e-08 	0.0052634366
0.87777778 	0.0075559514 	0.0023195702 	-6.7951187e-09 	0.0059651348 	-3.2426646e-08 	0.0055725155
0.88888889 	0.0077617128 	0.0023999242 	7.4518336e-09 	0.0062697734 	-1.2202139e-07 	0.0034094554
0.9 	0.0079669141 	0.0024809892 	7.6326539e-08 	0.0065798522 	-9.2030957e-08 	0.0018154947
0.91111111 	0.0081701921 	0.0025620208 	1.525374e-07 	0.0068950614 	3.3915286e-09 	0.0010011588
0.92222222 	0.0083684463 	0.0026421937 	1.9076885e-07 	0.0072156717 	9.9000078e-08 	0.0011969132
0.93333333 	0.0085579594 	0.0027201175 	1.5482923e-07 	0.0075368855 	1.2660689e-07 	0.0026531624
0.94444444 	0.0087269239 	0.0027899399 	3.1368215e-08 	0.0078552095 	3.2052099e-08 	0.005632497
0.95555556 	0.0088471082 	0.0028493548 	-3.0961316e-13 	0.0081370836 	8.6454062e-08 	0.0063446089
0.96666667 	0.0088613218 	0.0028553405 	-9.2925827e-08 	0.0083305025 	2.2770081e-08 	0.0062757793
0.97777778 	0.0086112621 	0.0027816084 	-1.8401958e-07 	0.0082751308 	-4.9156328e-07 	0.001107497
0.98888889 	0.0073024185 	0.0023932558 	-5.300418e-07 	0.0071702686 	-1.3737105e-06 	0.0010630049
