0.47916667 	0.00844833 	-0.0028352133 	-1.9350131e-07 	0.0084177072 	6.5580189e-07 	0.004217762
0.48958333 	0.0088051529 	-0.0029403574 	7.6512636e-09 	0.0087745649 	3.9038712e-09 	0.00078867151
0.5 	0.0081229171 	-0.0027413042 	1.4704304e-07 	0.0080864851 	-4.884552e-07 	0.0041332145
0.51041667 	0.0072856722 	-0.00250041 	1.3937343e-06 	0.0072422015 	-4.6004213e-06 	0.0037040923
0.52083333 	0.0064292723 	-0.0022294234 	-1.0668753e-07 	0.0063703844 	4.0039666e-07 	0.00079894652
0.53125 	0.0056127111 	-0.0019645654 	-5.8895087e-08 	0.0055534121 	2.0535679e-07 	0.0018118153
0.54166667 	0.004880912 	-0.0017053795 	5.5671942e-07 	0.0048234966 	-1.4457976e-06 	0.0023889961
0.55208333 	0.0042640956 	-0.0014551782 	1.1664405e-06 	0.0042087074 	-2.6427874e-06 	0.0020970142
0.5625 	0.0037708477 	-0.001219354 	9.2207285e-07 	0.0037188186 	-1.7767709e-06 	0.0018500026
0.57291667 	0.0033930085 	-0.0010036592 	9.6661205e-09 	0.0033477716 	-1.5246976e-08 	0.0016544974
0.58333333 	0.0031228105 	-0.00080860072 	-1.4401519e-07 	0.0030855037 	1.7901044e-07 	0.00072812955
0.59375 	0.0029363488 	-0.00063138276 	-2.0371901e-07 	0.0029085731 	1.4880054e-07 	0.00037100421
0.60416667 	0.0028143831 	-0.00047112341 	3.9784296e-07 	0.0027988514 	-3.4701402e-07 	0.0014212532
0.61458333 	0.0027425358 	-0.00032376564 	1.6786818e-06 	0.0027374298 	-9.8665126e-07 	0.0013711744
0.625 	0.0027045126 	-0.00018719961 	-1.0204386e-07 	0.0027086309 	-1.4935147e-08 	0.000764101
0.63541667 	0.0026932165 	-6.2592054e-05 	-4.9306646e-08 	0.0027074108 	-2.4799479e-08 	0.0010365879
0.64583333 	0.0027021316 	5.2757902e-05 	1.480378e-06 	0.0027254998 	-2.3787023e-07 	0.0013602453
0.65625 	0.0027260134 	0.00016220803 	-1.4021205e-07 	0.0027551937 	-1.151379e-07 	0.00033157965
0.66666667 	0.0027601333 	0.00026245865 	7.761337e-07 	0.0027980567 	2.7248624e-09 	0.001387522
0.67708333 	0.0028039661 	0.00035871724 	-2.8791752e-08 	0.0028473705 	-3.2018749e-08 	0.001164776
0.6875 	0.0028545167 	0.00044877868 	1.2147212e-08 	0.0029034219 	1.7735953e-09 	0.0014312677
0.69791667 	0.002911781 	0.00053508861 	1.1004065e-07 	0.0029648791 	3.0499601e-08 	0.001489035
0.70833333 	0.0029737411 	0.0006170936 	-8.994011e-09 	0.0030297761 	-1.5080838e-08 	0.0013318022
0.71875 	0.0030403926 	0.00069628791 	6.0453656e-08 	0.0030992972 	2.4234112e-08 	0.0015601937
0.72916667 	0.0031096513 	0.00077095156 	8.1900503e-08 	0.0031701332 	3.2831528e-08 	0.0015603288
0.73958333 	0.0031855001 	0.00084518544 	-8.133438e-09 	0.0032463692 	-1.6688159e-08 	0.0013495278
0.75 	0.0032636398 	0.00091615058 	3.679696e-07 	0.0033251215 	2.0478871e-07 	0.0016429439
0.76041667 	0.0033485349 	0.00098661605 	-1.9779068e-09 	0.0034083058 	-8.9814844e-09 	0.00111957
0.77083333 	0.0034390781 	0.0010570326 	3.8070322e-07 	0.0034986405 	2.8974095e-07 	0.0017328257
0.78125 	0.0035366289 	0.0011265575 	8.3131633e-09 	0.0035934154 	1.4199645e-08 	0.0013555295
0.79166667 	0.0036411006 	0.0011963643 	8.6586693e-08 	0.0036960794 	8.6281365e-08 	0.001828309
0.80208333 	0.0037561669 	0.0012668071 	1.5310468e-07 	0.0038079753 	1.9446478e-07 	0.0019308628
0.8125 	0.0038800146 	0.0013369665 	4.6678536e-08 	0.0039260299 	1.1239659e-07 	0.0010010674
0.82291667 	0.0040183536 	0.0014103266 	9.0128514e-07 	0.004061698 	1.4161309e-06 	0.0020425547
0.83333333 	0.0041685414 	0.0014837537 	6.8348981e-08 	0.0042046467 	1.801192e-07 	0.00096183585
0.84375 	0.0043355775 	0.0015608738 	1.6327938e-08 	0.0043677213 	4.6512391e-08 	0.0019195923
0.85416667 	0.0045234687 	0.0016407915 	8.3524518e-07 	0.0045500764 	1.8392192e-06 	0.002297259
0.86458333 	0.0047297706 	0.0017230493 	3.2466402e-08 	0.0047491604 	9.916073e-08 	0.0019465458
0.875 	0.0049592831 	0.0018081756 	1.4612217e-07 	0.0049689212 	4.7537172e-07 	0.00034972674
0.88541667 	0.0052164712 	0.0018995205 	2.191376e-08 	0.0052230485 	7.5540834e-08 	0.0022710312
0.89583333 	0.0055013848 	0.0019939592 	3.861524e-07 	0.0055026314 	1.1910572e-06 	0.0027604028
0.90625 	0.0058136973 	0.0020917931 	6.8020639e-07 	0.0058097713 	2.2755407e-06 	0.0029314887
0.91666667 	0.0061528407 	0.0021927949 	7.413052e-07 	0.0061449444 	2.657896e-06 	0.0031064929
0.92708333 	0.0065160293 	0.0022958137 	5.6292104e-07 	0.0065051601 	2.1453778e-06 	0.003281935
0.9375 	0.0068964181 	0.00239971 	1.636748e-07 	0.0068849124 	6.482716e-07 	0.0034531668
0.94791667 	0.0072815737 	0.0024999834 	6.3869823e-08 	0.0072642845 	2.7578614e-07 	0.00136053
0.95833333 	0.0076555607 	0.0026020894 	4.7031729e-09 	0.0076477157 	2.0482363e-08 	0.0036830459
0.96875 	0.0079732214 	0.0026679125 	5.3165438e-08 	0.0079560501 	2.29714e-07 	0.00017975163
0.97916667 	0.0081607021 	0.0027116475 	-2.4527204e-08 	0.0081535271 	-2.6060557e-08 	0.0041208821
0.98958333 	0.0076090791 	0.0025447532 	-5.6188866e-07 	0.0075836731 	-1.8752692e-06 	0.0038809932
