/*--------------------------------*- C++ -*----------------------------------*\
  =========                 |
  \\      /  F ield         | OpenFOAM: The Open Source CFD Toolbox
   \\    /   O peration     | Website:  https://openfoam.org
    \\  /    A nd           | Version:  7
     \\/     M anipulation  |
\*---------------------------------------------------------------------------*/
FoamFile
{
    version     2.0;
    format      ascii;
    class       volSymmTensorField;
    location    "2000";
    object      R;
}
// * * * * * * * * * * * * * * * * * * * * * * * * * * * * * * * * * * * * * //

dimensions      [0 2 -2 0 0 0 0];

internalField   nonuniform List<symmTensor> 
15296
(
(0.0063163522 1.0170411e-05 2.8286377e-14 0.0063122319 7.1541805e-16 0.0063123029)
(0.0062767664 1.4232866e-05 2.8670917e-14 0.0062986962 6.9806986e-16 0.0063023786)
(0.0062660622 1.4072645e-05 -2.0822327e-19 0.0062725359 -5.9452242e-17 0.0062733277)
(0.0062477603 1.370485e-05 -7.166134e-19 0.0062520317 6.7000229e-16 0.0062523028)
(0.0062297682 1.3473154e-05 3.0072334e-14 0.0062342251 -8.939243e-18 0.0062343825)
(0.0062159309 1.318508e-05 -6.0065055e-18 0.0062173252 6.6335899e-16 0.0062168349)
(0.0062046279 1.2818705e-05 2.2235411e-18 0.0062016546 1.2196203e-15 0.0062003043)
(0.0061949864 1.252633e-05 1.2219461e-17 0.0061873017 -4.884106e-17 0.0061850359)
(0.0061868502 1.1949812e-05 2.0575713e-19 0.0061741274 -4.4958518e-16 0.0061708933)
(0.006179951 1.162417e-05 -5.431418e-18 0.0061620749 6.6172746e-16 0.0061578552)
(0.0061740072 1.0794232e-05 -3.5117795e-19 0.0061511227 -1.1685002e-16 0.0061459455)
(0.0061688373 1.0180417e-05 3.0811505e-18 0.0061412339 -1.1967862e-16 0.0061351546)
(0.0061643405 9.7786638e-06 -1.7268089e-14 0.006132357 -1.0703848e-15 0.006125445)
(0.0061604457 9.9690378e-06 1.7566211e-14 0.0061244466 7.4029111e-16 0.0061167745)
(0.0061571434 1.0767235e-05 4.4431264e-19 0.0061174438 -3.9582477e-16 0.0061090755)
(0.006154495 1.2005572e-05 1.8182842e-14 0.0061112703 7.4031522e-16 0.0061022489)
(0.0061526255 1.352472e-05 3.7009935e-14 0.0061058216 2.2982926e-16 0.0060961565)
(0.0061517579 1.5382658e-05 3.7661036e-14 0.0061009744 6.4336738e-16 0.0060906234)
(0.0061522043 1.7263526e-05 2.1347684e-18 0.0060965709 -2.5100351e-16 0.006085419)
(0.0061543918 1.8671516e-05 1.851373e-18 0.0060924144 -1.9267086e-16 0.0060802468)
(0.006158915 1.9973932e-05 -1.985461e-14 0.0060882464 -1.0395783e-15 0.0060747141)
(0.006166617 2.12224e-05 -1.0446446e-17 0.0060837113 4.0714604e-16 0.0060682837)
(0.0061787184 2.2393181e-05 2.0576731e-14 0.0060783044 9.8998237e-16 0.0060601978)
(0.0061970038 2.3666447e-05 -2.0935934e-14 0.0060712989 -7.798505e-16 0.0060493659)
(0.0062241528 2.599426e-05 1.2033017e-18 0.0060616181 -3.7757427e-16 0.0060341691)
(0.0062641827 2.9355914e-05 -4.3436357e-14 0.0060476667 -8.7416878e-16 0.0060121992)
(0.0063233352 3.5036797e-05 -4.4246066e-14 0.0060270047 -8.7511764e-16 0.0059797372)
(0.0064111275 4.3917892e-05 -5.2410792e-18 0.0059959701 -2.5669111e-17 0.0059311546)
(0.0065433278 5.7852835e-05 3.7342108e-18 0.0059486791 5.2254706e-17 0.0058571957)
(0.0067442284 7.9494428e-05 -2.3389636e-14 0.0058760335 -2.4063551e-16 0.0057434095)
(0.0070592018 0.00011310481 -2.836415e-18 0.0057622115 -2.0006996e-16 0.0055630945)
(0.0075621892 0.00016421807 -9.1900587e-18 0.0055836943 1.0118014e-16 0.0052735019)
(0.0084148786 0.00024346977 -2.4803421e-14 0.0052965332 3.3944442e-15 0.0047788154)
(0.0095091532 0.00033360144 -2.2768843e-14 0.0049754221 2.5278743e-15 0.0041829395)
(0.0096839243 0.00035157087 2.5798039e-18 0.004972619 -1.5756022e-16 0.0043355757)
(0.009888086 0.00038389011 -1.9991127e-17 0.0048955069 -1.5561135e-16 0.0045914636)
(0.011336085 0.00040577821 4.2222482e-15 0.0052867446 3.1054795e-15 0.0055996441)
(0.0078175905 -0.00091106675 -1.2005435e-15 0.0029902711 -1.1305381e-14 0.0068698264)
(0.0063197061 2.4685399e-05 3.6147266e-18 0.0063106642 2.7240132e-16 0.0063121297)
(0.0062767998 3.2655238e-05 -9.5597598e-15 0.006300379 -6.0372428e-17 0.0063011505)
(0.0062661568 3.261142e-05 -1.276407e-18 0.0062732059 3.6012116e-16 0.0062733098)
(0.006247876 3.2405204e-05 -1.9390738e-18 0.0062525149 2.509103e-16 0.0062525258)
(0.0062298676 3.1960781e-05 -3.6599532e-18 0.0062346915 -1.1250114e-16 0.0062346833)
(0.0062160419 3.1387919e-05 1.0196597e-14 0.0062175352 1.5749453e-16 0.0062174131)
(0.0062047682 3.0814467e-05 1.03805e-14 0.0062015071 7.4255825e-16 0.0062012345)
(0.0061951556 3.0017682e-05 2.3337911e-17 0.0061867711 4.051495e-17 0.0061863374)
(0.0061870534 2.90854e-05 -1.0737931e-14 0.0061731878 -4.0710914e-16 0.0061725811)
(0.0061801857 2.8013769e-05 -1.5733648e-17 0.0061607189 -1.0310366e-16 0.0061599352)
(0.006174272 2.6517418e-05 -1.1221671e-17 0.0061493592 -1.7820171e-16 0.0061484063)
(0.006169144 2.5291226e-05 -1.7171512e-19 0.0061390751 4.640505e-16 0.0061379694)
(0.006164695 2.4486324e-05 1.1515309e-14 0.0061298232 3.154821e-17 0.0061285848)
(0.0061608532 2.4319106e-05 1.0011716e-17 0.0061215614 4.8858945e-16 0.0061202084)
(0.006157599 2.4961847e-05 -1.1918432e-14 0.006114235 -6.0757141e-16 0.006112779)
(0.0061549913 2.6498145e-05 6.0650868e-15 0.0061077611 5.6989819e-16 0.0061062052)
(0.0061531605 2.8551197e-05 8.5623253e-18 0.0061020197 1.971122e-16 0.0061003582)
(0.0061523316 3.0861356e-05 3.1301851e-18 0.0060968652 7.1726693e-16 0.0060950839)
(0.006152814 3.2795843e-05 -6.3923761e-15 0.0060921097 -3.3792853e-16 0.0060901847)
(0.0061550533 3.4452121e-05 1.3004661e-14 0.0060875039 3.2401274e-16 0.0060853977)
(0.0061596627 3.5277834e-05 -6.6279764e-15 0.0060827227 -3.6045626e-16 0.0060803779)
(0.0061674938 3.5559529e-05 -1.4712539e-17 0.0060773302 -4.3986228e-17 0.0060746605)
(0.0061797904 3.5443651e-05 7.5087056e-18 0.0060707041 2.7585483e-16 0.0060675815)
(0.0061983837 3.4946528e-05 1.4329488e-17 0.0060619424 -2.2652817e-16 0.0060581791)
(0.0062259963 3.4124526e-05 -7.1082877e-15 0.0060497197 -4.6814367e-16 0.0060450396)
(0.0062667177 3.3405428e-05 -7.2479441e-15 0.0060320636 -2.9671555e-16 0.0060260594)
(0.0063269018 3.2561057e-05 1.4738308e-14 0.0060059395 -2.3669817e-16 0.0059980003)
(0.0064162129 3.1667535e-05 1.501878e-14 0.0059667809 2.9724328e-16 0.0059559884)
(0.0065506514 3.0970036e-05 1.1369852e-17 0.0059071597 2.5126492e-17 0.0058920775)
(0.0067547934 3.0119107e-05 7.3738095e-19 0.0058155436 -2.9008736e-16 0.0057939548)
(0.0070743521 2.8124229e-05 7.9435784e-15 0.0056712388 3.0883668e-16 0.0056394101)
(0.007583308 2.2987568e-05 8.1120092e-15 0.005442164 4.7923031e-16 0.0053941069)
(0.0084421267 1.0168531e-05 2.0220743e-17 0.0050612681 4.1010219e-16 0.0049861752)
(0.009561855 -1.585951e-05 -7.6428864e-15 0.0046042214 -3.7298301e-16 0.0044992537)
(0.0097272685 -3.1879301e-05 -8.6533315e-18 0.0046716437 2.0466882e-16 0.004589499)
(0.009916957 -2.7258817e-05 -1.564755e-17 0.0047400614 -8.3485547e-17 0.004701642)
(0.01137934 -0.00015404473 8.9174024e-17 0.0054052524 1.5813079e-16 0.0054379533)
(0.0073667876 -0.0011660414 -3.7213192e-16 0.0029810349 -3.8815801e-15 0.0059853739)
(0.0063229195 4.2224235e-05 5.7996315e-18 0.0063101461 1.1655112e-16 0.0063120837)
(0.006277617 5.2768115e-05 3.0320999e-18 0.0063007337 1.1660402e-16 0.0063012869)
(0.0062667419 5.319318e-05 -5.8210865e-15 0.0062737203 9.2281509e-17 0.006273801)
(0.0062484861 5.306085e-05 -1.1064686e-17 0.0062530645 -2.1767272e-16 0.0062530977)
(0.0062305042 5.2527324e-05 6.0127953e-15 0.0062352622 1.5743283e-16 0.006235295)
(0.0062166781 5.186592e-05 -6.1244135e-15 0.0062181045 -1.4568909e-16 0.0062180892)
(0.0062053856 5.0901027e-05 -1.588934e-18 0.0062020673 5.0631093e-16 0.0062019843)
(0.0061957465 5.0056177e-05 2.3087093e-17 0.0061873184 7.1222761e-17 0.0061871598)
(0.00618761 4.8998997e-05 -6.440514e-15 0.0061737197 -6.2802525e-16 0.0061734764)
(0.0061807005 4.7499422e-05 -6.5862239e-15 0.0061612344 -3.0795213e-16 0.0061609035)
(0.0061747554 4.5776554e-05 -6.6854946e-15 0.0061498499 -1.258825e-16 0.0061494393)
(0.00616961 4.4170789e-05 5.1095417e-18 0.0061395312 5.7093369e-17 0.006139057)
(0.0061651534 4.3071579e-05 -3.4572172e-15 0.0061302384 -1.3271497e-16 0.0061297198)
(0.0061613123 4.2484925e-05 -3.5114526e-15 0.0061219311 1.0173376e-16 0.0061213836)
(0.006158067 4.3121872e-05 2.7590762e-18 0.0061145568 -4.3160762e-16 0.0061139862)
(0.0061554622 4.4697891e-05 1.2569178e-17 0.0061080415 4.764501e-16 0.0061074426)
(0.0061536142 4.7034748e-05 -7.3921497e-15 0.0061022721 -1.5427439e-16 0.0061016303)
(0.0061527418 4.9667359e-05 -1.6927619e-18 0.006097105 3.3244709e-16 0.0060964005)
(0.0061531645 5.1871783e-05 -3.8439436e-15 0.0060923429 -5.8630463e-16 0.0060915537)
(0.0061553191 5.3681214e-05 -3.9058606e-15 0.0060877355 5.2359751e-17 0.0060868372)
(0.0061598104 5.4657028e-05 -2.0319755e-17 0.0060829554 -4.5864072e-16 0.006081917)
(0.0061674966 5.4844211e-05 4.0260381e-15 0.0060775556 1.8507016e-16 0.0060763318)
(0.0061795971 5.4612125e-05 8.2476034e-15 0.0060709166 4.4414508e-16 0.0060694393)
(0.0061979043 5.3980656e-05 -8.3697893e-15 0.0060621434 -3.904668e-16 0.0060603095)
(0.0062251102 5.2923461e-05 4.7759099e-18 0.0060499071 -4.7524763e-16 0.006047562)
(0.0062652345 5.1599572e-05 -4.4000103e-18 0.0060322419 -1.1101219e-16 0.0060291554)
(0.0063245222 5.0078987e-05 -4.4443917e-15 0.0060061231 -4.0088946e-16 0.0060019497)
(0.0064124954 4.8393098e-05 4.4982548e-15 0.0059669863 5.7360864e-16 0.0059612074)
(0.0065449014 4.6808576e-05 1.0546548e-17 0.0059074099 6.6865694e-17 0.0058992259)
(0.0067459018 4.456151e-05 -4.6768571e-15 0.0058158792 -5.2780336e-16 0.0058040763)
(0.0070605677 4.212985e-05 -4.7731434e-15 0.0056716067 -2.2298721e-17 0.0056542387)
(0.0075618302 3.8467441e-05 1.2839738e-18 0.0054423293 4.3744003e-16 0.0054164865)
(0.0084091589 3.3432057e-05 -9.9136944e-15 0.005059596 -5.392993e-16 0.0050209253)
(0.0095614885 2.132035e-05 1.0627929e-17 0.0045782668 -9.3016979e-16 0.0045239929)
(0.0097259895 -1.8784351e-06 -9.41116e-18 0.0046581772 1.6687203e-16 0.0046007032)
(0.0099096807 9.5169465e-06 1.4429917e-15 0.0047509227 5.2805855e-16 0.0046830168)
(0.011360162 -0.00017504921 8.2890281e-16 0.0054703855 6.420574e-16 0.0053549963)
(0.0072972415 -0.0010344297 -1.77331e-17 0.0029049475 -1.7873186e-15 0.0055912928)
(0.00632548 6.081722e-05 1.2343396e-17 0.0063104862 7.2833279e-17 0.0063125786)
(0.0062785403 7.3042815e-05 -4.098322e-15 0.0063014087 7.6667784e-17 0.0063018276)
(0.0062675527 7.4024308e-05 -4.1662672e-15 0.0062745277 -9.0364477e-17 0.0062745839)
(0.0062493388 7.4051779e-05 4.2194057e-15 0.0062539452 -1.939427e-16 0.0062539575)
(0.006231388 7.3384555e-05 -8.2216468e-18 0.0062361961 2.2491439e-16 0.0062361967)
(0.0062175846 7.2582283e-05 4.378657e-15 0.0062190578 -2.2489745e-17 0.0062190396)
(0.0062063198 7.1427583e-05 4.4553892e-15 0.0062030176 2.4979388e-16 0.0062029765)
(0.0061967058 7.0411871e-05 2.0483303e-17 0.0061882553 2.2434047e-16 0.0061881882)
(0.0061885775 6.8963609e-05 1.1234838e-17 0.0061746422 -5.0913167e-16 0.0061745449)
(0.0061816761 6.7196683e-05 -2.4502631e-17 0.0061621353 -3.2869217e-16 0.006162008)
(0.0061757439 6.5198936e-05 -9.5147898e-18 0.0061507219 1.0017712e-16 0.0061505728)
(0.0061706217 6.3064426e-05 4.4291156e-18 0.0061403652 -1.8502838e-16 0.0061402107)
(0.0061661969 6.1284657e-05 -2.4700686e-15 0.0061310265 -3.0634604e-16 0.006130887)
(0.0061624023 6.0423874e-05 7.3416581e-18 0.0061226633 -1.4713568e-16 0.0061225551)
(0.0061592065 6.0833733e-05 9.3314909e-18 0.0061152303 -1.319568e-16 0.0061151588)
(0.0061566385 6.2345235e-05 -2.5843226e-15 0.0061086637 1.2877085e-16 0.0061086201)
(0.0061548148 6.5016293e-05 1.878399e-17 0.0061028507 -2.8063369e-16 0.0061028153)
(0.0061539441 6.8099484e-05 -5.752114e-18 0.0060976526 8.1602103e-17 0.0060976013)
(0.0061543473 7.1022327e-05 -1.4160761e-17 0.0060928689 -4.6006119e-16 0.0060927802)
(0.0061564737 7.3054196e-05 -5.5812508e-15 0.0060882385 -3.0318424e-16 0.0060880974)
(0.0061609318 7.4492589e-05 -2.8634542e-15 0.0060834259 -7.0294732e-16 0.0060832225)
(0.0061685831 7.5177626e-05 -1.5164916e-17 0.0060779747 2.5374823e-16 0.0060777004)
(0.0061806496 7.4861765e-05 -2.9346896e-15 0.0060712546 4.4623047e-16 0.006070897)
(0.0061989201 7.4165632e-05 3.0076997e-15 0.0060623591 -2.5185276e-17 0.0060618966)
(0.0062260738 7.2801158e-05 -3.039498e-15 0.0060499467 -5.4145856e-16 0.0060493437)
(0.0062661254 7.110591e-05 -6.9481922e-18 0.0060320263 -1.2956292e-16 0.0060312265)
(0.0063253067 6.9098352e-05 6.3124259e-15 0.0060055369 -2.5903992e-16 0.0060044526)
(0.0064130966 6.6676804e-05 3.2122591e-15 0.0059658715 4.7966458e-16 0.0059643671)
(0.0065451763 6.3917039e-05 2.3905562e-18 0.0059055387 6.7447287e-17 0.005903399)
(0.0067455818 6.0381258e-05 4.2731405e-18 0.0058129362 -5.2608141e-16 0.0058098222)
(0.0070591337 5.5871006e-05 8.0285529e-18 0.0056671301 -2.4042802e-16 0.0056624661)
(0.0075580264 4.860919e-05 -2.5996211e-18 0.005435876 2.7164031e-16 0.0054287014)
(0.0084002528 3.7062254e-05 3.5566032e-15 0.0050509963 -3.1132477e-16 0.0050394121)
(0.0095613133 1.1911301e-05 2.3208438e-17 0.0045597739 -9.1342541e-16 0.0045419055)
(0.0097245612 -2.1947304e-05 -1.9512283e-15 0.0046372975 -2.5038194e-16 0.0046200735)
(0.009904239 -8.5166747e-06 1.0369844e-15 0.0047265875 7.0749673e-16 0.0047017107)
(0.011312619 -0.00023473674 5.8520822e-16 0.0054322651 1.5019884e-15 0.0053552822)
(0.0078993073 -0.0010383436 -8.5394039e-18 0.0031194298 -7.9662053e-16 0.0058482527)
(0.0063280378 7.9868369e-05 1.6114151e-17 0.0063112321 7.0817746e-17 0.0063133271)
(0.0062798659 9.3550923e-05 9.8061976e-19 0.0063021371 -1.7951742e-16 0.0063027412)
(0.0062686632 9.4958436e-05 -3.2442564e-15 0.0062755739 -9.7044368e-17 0.0062756395)
(0.0062504869 9.5122392e-05 -1.0965317e-17 0.0062550962 8.2727268e-17 0.0062551068)
(0.0062325708 9.4469242e-05 -8.533745e-18 0.0062374134 2.7102606e-16 0.006237409)
(0.0062187965 9.3411176e-05 1.6612974e-18 0.0062203196 1.3593552e-16 0.0062202967)
(0.0062075525 9.2341658e-05 3.9404455e-18 0.0062043091 1.4920223e-16 0.0062042695)
(0.0061979488 9.1012537e-05 3.5471524e-15 0.0061895685 4.198981e-16 0.0061895119)
(0.006189824 8.9299009e-05 7.4559385e-18 0.0061759715 -3.1257449e-16 0.0061758934)
(0.0061829237 8.7297001e-05 3.6259552e-15 0.006163476 -1.4511476e-16 0.0061633739)
(0.0061769891 8.4879269e-05 3.7041606e-15 0.0061520708 3.8146189e-16 0.0061519505)
(0.0061718702 8.2125979e-05 3.1136363e-19 0.0061417139 -1.1690814e-16 0.0061415926)
(0.0061674705 7.9569886e-05 -3.5774924e-19 0.0061323576 -1.5360171e-16 0.0061322611)
(0.0061637151 7.8110443e-05 1.9676584e-15 0.0061239626 1.0282636e-17 0.0061239159)
(0.0061605613 7.7979032e-05 -1.9763289e-15 0.0061164905 -8.545304e-17 0.006116507)
(0.0061580378 7.9561295e-05 -2.0048417e-15 0.0061098809 -1.9826912e-16 0.0061099548)
(0.0061562407 8.2489867e-05 -6.1547773e-15 0.0061040354 -5.5070829e-16 0.0061041429)
(0.0061553688 8.6018587e-05 -4.200513e-15 0.0060988223 -9.8121679e-17 0.00609893)
(0.0061557424 8.9654775e-05 -2.1562339e-15 0.0060940423 -4.8470954e-16 0.0060941179)
(0.0061578213 9.2448962e-05 -6.3532281e-18 0.0060894276 -3.8218886e-16 0.0060894473)
(0.0061622255 9.4449591e-05 2.1854782e-15 0.0060846343 -4.6441463e-16 0.0060845845)
(0.0061698016 9.5411465e-05 -7.9556298e-18 0.0060792106 1.445229e-16 0.0060790844)
(0.0061817807 9.5408475e-05 -4.5694106e-15 0.0060725192 8.1253955e-17 0.0060723103)
(0.0061999425 9.4556341e-05 2.3370173e-15 0.006063656 2.4801526e-16 0.0060633528)
(0.0062269514 9.3069392e-05 2.3845682e-15 0.0060512851 -3.3459284e-16 0.0060508649)
(0.0062668003 9.125275e-05 2.4141015e-15 0.0060334238 -1.7940115e-16 0.0060328471)
(0.0063256712 8.8786949e-05 4.9095114e-15 0.0060070324 8.6443641e-17 0.006006234)
(0.006412986 8.5720067e-05 -1.2844886e-17 0.0059675255 3.294657e-16 0.0059664017)
(0.0065443253 8.2039287e-05 -4.9769348e-18 0.0059074534 -2.4949741e-17 0.0059058345)
(0.0067435085 7.7478454e-05 5.2108901e-15 0.0058153054 -2.1822035e-16 0.0058129215)
(0.007054987 7.1201104e-05 1.6821619e-17 0.0056702922 -1.1563803e-16 0.0056666676)
(0.0075501401 6.1447279e-05 -2.7084509e-15 0.0054404796 -1.3974033e-16 0.0054348283)
(0.0083855311 4.5930924e-05 -2.7606192e-15 0.0050581358 -1.8617982e-16 0.0050488457)
(0.0095613541 1.36581e-05 2.2908574e-17 0.0045583464 -8.2272397e-16 0.0045433747)
(0.0097232726 -3.0360158e-05 2.3994215e-17 0.004636009 -3.3981187e-16 0.0046203086)
(0.0099006394 -1.5303009e-05 -8.5393106e-16 0.00472788 1.4694232e-16 0.0046970997)
(0.011243005 -0.00027012053 1.000038e-17 0.0054124588 9.9388746e-16 0.0053151862)
(0.0086594087 -0.0010743022 -2.6556561e-18 0.00340208 -2.2397223e-16 0.0062924503)
(0.0063313598 0.00010549609 1.8001148e-17 0.0063125289 7.2912221e-17 0.0063147235)
(0.0062820238 0.00012023548 -1.2921312e-18 0.006303297 -2.1287333e-16 0.00630431)
(0.0062704433 0.00012200961 -4.0479921e-19 0.006277279 -1.771295e-16 0.0062773501)
(0.0062523285 0.00012235688 -1.6772644e-15 0.0062569616 8.7326007e-17 0.0062569501)
(0.0062344728 0.00012172757 -1.7096378e-15 0.0062393793 -4.1366269e-17 0.0062393495)
(0.006220742 0.00012054387 -1.728231e-15 0.0062223653 1.0795958e-16 0.0062223011)
(0.0062095341 0.00011938107 9.6465417e-18 0.0062064128 1.0803001e-16 0.0062063169)
(0.006199949 0.00011785716 -1.7674295e-15 0.0061917198 1.90605e-16 0.0061915934)
(0.0061918316 0.00011619615 2.6391868e-18 0.0061781627 -4.2698598e-16 0.0061779987)
(0.006184926 0.00011390101 -2.1796778e-17 0.0061657028 -4.969695e-17 0.0061654966)
(0.0061789806 0.00011117812 -1.3902391e-17 0.0061543256 3.6126739e-16 0.0061540845)
(0.006173863 0.00010809366 -7.0749808e-18 0.0061439792 -8.6253671e-17 0.0061437277)
(0.0061694907 0.00010506634 2.5929608e-18 0.0061346072 -3.207481e-17 0.006134384)
(0.0061657916 0.00010296012 1.9979331e-15 0.0061261697 8.9246246e-17 0.0061260155)
(0.0061627151 0.00010224234 1.1356991e-17 0.0061186355 -1.2568908e-16 0.0061185758)
(0.0061602626 0.0001034869 1.6980351e-17 0.0061119637 -2.3155692e-16 0.0061119959)
(0.0061585076 0.00010622255 3.3554147e-17 0.006106074 -5.7580163e-16 0.0061061666)
(0.0061576462 0.00010990065 -4.2593183e-15 0.0061008397 -5.3306002e-16 0.0061009427)
(0.0061579909 0.00011371336 2.1316789e-15 0.0060960661 -3.0859813e-16 0.0060961283)
(0.006160007 0.000117034 -3.5198578e-18 0.006091481 -2.4278677e-16 0.0060914631)
(0.0061643239 0.00011928278 -2.2664425e-15 0.0060867326 -4.5562813e-16 0.0060866108)
(0.0061718031 0.00012039093 4.5531448e-15 0.0060813589 2.708354e-16 0.0060811204)
(0.0061836669 0.0001206297 1.5227465e-17 0.0060747267 -8.4875355e-17 0.0060743602)
(0.0062016881 0.00011986395 6.6212418e-18 0.0060659366 4.943178e-17 0.0060654221)
(0.0062285192 0.00011850502 2.4162482e-15 0.0060536614 2.7317818e-16 0.0060529616)
(0.0062681068 0.00011644425 2.4513045e-15 0.0060359454 -6.5683706e-17 0.0060349966)
(0.0063265944 0.00011380542 2.4828486e-15 0.0060097741 2.2085014e-16 0.0060084721)
(0.0064133249 0.00011046188 -2.0216768e-17 0.0059706096 1.2190711e-16 0.0059687909)
(0.0065437414 0.00010611837 2.5808041e-15 0.0059110867 1.3340729e-16 0.0059084835)
(0.0067414133 0.00010050643 2.64483e-15 0.0058198401 3.2276029e-16 0.0058160347)
(0.0070503364 9.272238e-05 1.7845605e-17 0.0056763393 -1.1272726e-17 0.0056705791)
(0.0075408652 8.0790501e-05 -5.1727093e-18 0.0054491515 -3.7514624e-16 0.005440243)
(0.0083677584 6.104026e-05 -4.5194875e-18 0.0050714532 -2.6158032e-16 0.0050568191)
(0.0095619022 2.0015724e-05 2.7620109e-17 0.0045636029 -2.9534702e-16 0.0045387565)
(0.0097220066 -3.6530396e-05 3.2483196e-17 0.0046410971 -6.5764431e-17 0.0046142296)
(0.0098985358 -2.1235848e-05 -1.2330916e-18 0.0047373719 -4.9236439e-16 0.0046858987)
(0.011137768 -0.00029254421 1.5861132e-17 0.0053835246 3.4896567e-16 0.0052492519)
(0.0095005555 -0.0011539081 -1.0171251e-16 0.0037393852 -3.4044668e-16 0.0068089893)
(0.0063365625 0.00013949892 2.138944e-17 0.0063142335 1.2672133e-16 0.0063169448)
(0.006285491 0.00015429946 -7.1862135e-18 0.0063055243 -1.934148e-16 0.0063068894)
(0.0062734375 0.00015638759 1.136658e-15 0.0062801107 -2.7539788e-17 0.00628022)
(0.0062554044 0.00015703003 -1.1245425e-17 0.0062600442 -4.7031568e-17 0.0062600242)
(0.0062376402 0.00015633429 1.1575931e-15 0.0062426311 -7.5332002e-17 0.0062425777)
(0.0062239863 0.00015510673 -1.1866317e-15 0.0062257355 -1.3638265e-16 0.006225639)
(0.0062128354 0.00015377533 1.082958e-17 0.006209869 7.2695449e-17 0.0062097367)
(0.0062032913 0.00015221191 -1.2183806e-15 0.0061952396 1.11201e-17 0.0061950735)
(0.0061951879 0.00015039231 -1.2534769e-15 0.0061817379 -4.2737808e-16 0.0061815279)
(0.0061882757 0.00014810496 1.2635707e-15 0.0061693267 -1.1139949e-16 0.0061690648)
(0.0061823273 0.00014531375 -1.8042113e-17 0.0061579811 2.2520346e-16 0.0061576746)
(0.0061772106 0.00014199361 1.3078618e-15 0.0061476482 1.005673e-16 0.006147328)
(0.0061728691 0.00013871009 5.4607852e-18 0.0061382576 -1.8175942e-16 0.0061379759)
(0.006169234 0.00013603817 1.7058649e-17 0.0061297677 -2.0445561e-17 0.0061295828)
(0.0061662474 0.00013473664 1.0512159e-17 0.0061221554 -9.7885469e-17 0.0061221078)
(0.0061638906 0.00013513937 1.6339089e-17 0.006115396 -1.1222781e-16 0.0061154891)
(0.0061622039 0.00013738952 -2.8481863e-15 0.006109435 -4.0401586e-16 0.0061096302)
(0.0061613595 0.00014081503 -2.9381266e-15 0.0061041616 -8.5235708e-16 0.0061043923)
(0.0061616708 0.00014452482 -3.0760659e-17 0.0060993819 -1.2471232e-16 0.0060995776)
(0.0061636093 0.00014786329 -1.5310191e-15 0.0060948174 -1.5939009e-16 0.0060949247)
(0.0061678186 0.00015021303 1.5218367e-15 0.0060901039 -3.4514611e-16 0.0060900943)
(0.0061751741 0.00015156021 -2.8192551e-18 0.006084768 2.9938792e-16 0.0060846323)
(0.0061868944 0.00015177434 1.230887e-17 0.006078175 -3.1021262e-18 0.0060779108)
(0.0062047404 0.00015123509 1.8010837e-17 0.0060694297 5.3383763e-17 0.0060690296)
(0.0062313373 0.00014982855 -4.9704996e-15 0.0060572162 8.0370327e-17 0.0060566581)
(0.0062706047 0.00014766135 -5.1717835e-18 0.0060395891 7.124951e-17 0.0060388294)
(0.0063286224 0.00014481443 -3.4636276e-15 0.0060135598 -2.7439722e-18 0.0060125223)
(0.0064146239 0.00014098034 1.7296932e-15 0.0059746339 3.5435401e-16 0.0059731984)
(0.0065439053 0.00013588578 1.7826969e-15 0.0059155036 4.8951633e-16 0.0059134655)
(0.0067397258 0.00012892144 1.8232425e-15 0.005824937 4.3810273e-16 0.005821982)
(0.0070455161 0.00011904163 9.1361983e-18 0.005682617 4.2567499e-18 0.0056781415)
(0.0075303492 0.00010351956 -1.0255358e-17 0.0054575948 -2.3941769e-16 0.0054506766)
(0.0083468248 7.7521254e-05 1.930408e-15 0.0050837346 1.9977968e-16 0.005072171)
(0.0095637383 2.4194845e-05 4.0555788e-17 0.0045622089 7.6519482e-17 0.0045419316)
(0.0097211 -4.8161954e-05 1.1292527e-15 0.0046376825 -9.4993708e-17 0.0046171361)
(0.0098999857 -3.7559568e-05 6.2265664e-16 0.0047378477 -6.3322093e-16 0.0046871666)
(0.011001512 -0.00031034504 3.1199878e-16 0.0053270402 -3.781103e-17 0.0051803774)
(0.010227736 -0.0012722 -9.054071e-18 0.004076615 -4.3536356e-16 0.0071978127)
(0.0063427121 0.00017994736 -1.5341448e-15 0.0063170186 -1.0075683e-16 0.0063202011)
(0.0062902472 0.00019317077 -1.0165001e-17 0.0063089375 -5.9481649e-17 0.0063106399)
(0.0062777504 0.00019528179 6.7685426e-18 0.0062841608 1.392373e-16 0.0062843546)
(0.0062598269 0.00019615978 -1.4994148e-17 0.0062644231 -9.8854783e-17 0.0062644281)
(0.0062421897 0.00019544326 -2.117511e-17 0.0062472444 1.7006436e-16 0.0062471891)
(0.0062286456 0.00019418317 1.6977155e-15 0.0062305119 -9.2202446e-17 0.0062304024)
(0.006217586 0.00019266231 1.9774338e-17 0.0062147593 1.1508599e-16 0.0062146103)
(0.0062081006 0.00019105024 1.1576597e-17 0.0062002178 6.7247718e-18 0.0062000329)
(0.0062000317 0.00018915063 -3.9141745e-19 0.0061867856 -3.1183563e-16 0.0061865518)
(0.0061931304 0.00018688414 -9.1220355e-16 0.0061744331 -7.8316272e-17 0.0061741364)
(0.0061871648 0.00018397785 -1.8586464e-15 0.0061631418 -9.8671325e-18 0.0061627844)
(0.0061820422 0.00018053552 9.1045885e-16 0.0061528392 2.3136796e-16 0.0061524526)
(0.0061777211 0.00017685771 1.9083779e-15 0.0061434456 6.7261765e-17 0.0061430921)
(0.0061741455 0.00017345564 2.5618233e-17 0.0061349118 -1.2866356e-17 0.0061346685)
(0.0061712526 0.00017137909 1.3442763e-17 0.0061272187 -1.0921079e-17 0.0061271479)
(0.0061690019 0.00017093221 1.498777e-17 0.0061203592 -5.7548515e-17 0.0061204795)
(0.0061674059 0.00017250194 -2.0167572e-15 0.0061143032 -4.9994362e-16 0.0061145775)
(0.0061665967 0.00017543433 -1.350221e-18 0.0061089664 -7.6251842e-16 0.0061093149)
(0.006166881 0.00017908932 -2.3840353e-17 0.0061041629 -7.1219952e-17 0.0061044941)
(0.0061687379 0.00018250228 -1.6121351e-17 0.0060996089 -2.1681872e-16 0.0060998498)
(0.0061728291 0.00018514545 1.0732661e-15 0.0060949261 4.2849602e-17 0.0060950368)
(0.0061800375 0.00018661531 1.1159466e-15 0.0060896319 3.386143e-16 0.0060896014)
(0.0061915898 0.00018697076 1.3169129e-17 0.0060830831 6.6369271e-17 0.0060829149)
(0.006209234 0.00018645226 -1.1384744e-15 0.006074389 1.3466013e-16 0.0060740848)
(0.0062355652 0.00018510369 1.5222319e-17 0.0060622479 -1.7985391e-16 0.0060617957)
(0.0062744635 0.00018291937 -4.7083633e-18 0.0060447315 9.2930056e-17 0.0060440998)
(0.0063319394 0.00017978909 -1.4683558e-17 0.0060188824 -1.7116524e-16 0.00601801)
(0.0064171193 0.00017550351 -1.2621245e-15 0.0059802518 3.4196782e-16 0.0059790401)
(0.0065451112 0.00016970607 -1.2782674e-15 0.0059216123 3.2084409e-16 0.0059198869)
(0.0067388356 0.00016137503 -9.1034887e-18 0.0058318975 2.8910997e-16 0.0058293913)
(0.0070410987 0.00014923995 2.9192362e-18 0.0056910375 8.53706e-18 0.0056872072)
(0.0075195153 0.00013004055 -1.3468267e-15 0.0054686917 -1.6654289e-16 0.005462705)
(0.0083243795 9.7471769e-05 3.5414206e-18 0.0050995147 2.3698903e-16 0.0050892449)
(0.0095671309 3.0880362e-05 3.7553168e-17 0.0045624504 1.8292864e-16 0.0045450297)
(0.0097210974 -5.8118831e-05 1.2319925e-17 0.00463622 -8.3223324e-17 0.0046189986)
(0.0099047068 -5.9126209e-05 4.5162863e-16 0.0047423226 -1.8444024e-16 0.0046880212)
(0.010866213 -0.00030998302 -2.194475e-16 0.005276582 -3.0472626e-16 0.0051032393)
(0.010719155 -0.0013916812 -1.4285575e-18 0.0043445107 -2.175313e-16 0.0074115445)
(0.0063498733 0.0002275513 -1.101711e-15 0.0063217121 -3.035058e-16 0.006324664)
(0.0062966004 0.00023750896 -2.0306933e-18 0.0063139643 7.2468969e-18 0.0063159588)
(0.0062837877 0.00023932332 -1.1572595e-15 0.0062898758 3.4914245e-17 0.0062901615)
(0.0062660302 0.00024033318 -1.6770753e-17 0.0062705447 -1.2052089e-16 0.0062705887)
(0.006248566 0.0002395927 -2.2707097e-17 0.0062536704 1.8918549e-16 0.0062536284)
(0.0062351741 0.0002382389 6.2426019e-18 0.0062371544 9.7172121e-17 0.0062370473)
(0.0062242388 0.0002366641 -1.2212615e-15 0.0062215556 7.2152492e-17 0.0062214072)
(0.0062148517 0.00023489875 4.6400059e-18 0.0062071245 -6.5080143e-18 0.0062069408)
(0.0062068374 0.00023297642 1.2869014e-15 0.0061937824 -1.3527826e-16 0.0061935482)
(0.0061999504 0.00023061493 -4.8611258e-18 0.0061815092 -7.8103897e-17 0.0061812036)
(0.006193983 0.000227679 -1.3626076e-17 0.0061702809 -1.8030011e-16 0.0061698976)
(0.0061888474 0.0002241455 -2.3006317e-17 0.0061600252 1.5628569e-16 0.0061595908)
(0.0061845247 0.00022005782 1.3763826e-15 0.0061506493 4.0541974e-16 0.0061502314)
(0.0061809972 0.00021609212 2.5301065e-17 0.0061420817 9.7627039e-17 0.0061417757)
(0.0061782002 0.00021294221 -1.4127284e-15 0.0061343041 -6.2187196e-17 0.0061341996)
(0.0061760715 0.0002115633 5.2486254e-18 0.0061273255 -7.4014041e-17 0.0061274662)
(0.0061745852 0.00021218251 1.498656e-15 0.0061211478 -4.0297912e-16 0.0061215076)
(0.0061738371 0.00021452046 1.0443264e-17 0.0061157142 -5.4910451e-16 0.006116204)
(0.006174114 0.00021796543 -1.5513396e-15 0.0061108581 -1.7355361e-16 0.0061113621)
(0.006175891 0.00022144385 -1.5194956e-17 0.0061062991 -2.2026985e-16 0.0061067161)
(0.006179844 0.00022426986 -1.4522569e-17 0.006101647 1.6840943e-16 0.0061019156)
(0.0061868779 0.00022599483 1.611475e-15 0.0060964009 4.7154744e-16 0.0060965003)
(0.006198232 0.00022658163 -1.6321291e-15 0.0060899059 -6.1465567e-18 0.0060898395)
(0.0062156388 0.00022616165 -1.6548588e-15 0.006081276 8.99082e-17 0.0060810502)
(0.0062416627 0.00022483958 -1.6852439e-15 0.0060692239 -2.0004437e-16 0.0060688322)
(0.0062801334 0.00022258873 -1.7404028e-15 0.0060518461 -1.2082204e-16 0.0060512605)
(0.0063369924 0.00021916297 -1.6224989e-17 0.0060262173 -1.5793938e-16 0.0060253794)
(0.0064212392 0.00021437646 -1.8160829e-15 0.0059879458 -8.4768854e-17 0.005986762)
(0.0065477761 0.00020764762 -1.240706e-17 0.0059298926 2.2068654e-17 0.0059281955)
(0.0067391514 0.0001978639 -1.3160632e-17 0.0058411823 1.7455628e-16 0.0058387239)
(0.0070374896 0.00018321964 9.4728694e-16 0.0057020155 1.4699041e-16 0.00569827)
(0.0075087648 0.00016007804 -9.754126e-16 0.0054827518 -6.8349362e-17 0.0054769091)
(0.0083008071 0.00011981804 1.0900786e-17 0.005118902 2.8088483e-17 0.0051088251)
(0.0095726129 3.8214704e-05 4.6076152e-17 0.0045667807 2.4931284e-16 0.0045461077)
(0.0097225473 -6.7239316e-05 -5.6852181e-16 0.0046363036 -2.0514116e-16 0.00462074)
(0.0099117369 -8.9120761e-05 -1.2558681e-17 0.0047481241 6.0503354e-17 0.0046906234)
(0.01074444 -0.00029505071 1.5360449e-16 0.0052334332 -1.5253719e-17 0.0050289149)
(0.011016452 -0.0014994643 1.4633882e-18 0.0045421295 -9.2591812e-17 0.0075191521)
(0.0063574929 0.0002816442 2.2085757e-17 0.0063293116 -1.9946742e-16 0.0063313241)
(0.0063049458 0.00028832935 4.1944973e-18 0.0063211989 -9.6410642e-17 0.0063233705)
(0.0062920691 0.00028927994 3.0825842e-18 0.0062978551 -6.3704023e-18 0.0062981856)
(0.006274568 0.00029028372 8.5179218e-16 0.0062790238 -3.3497608e-17 0.006279068)
(0.0062573418 0.00028948622 -2.0949246e-17 0.0062625393 -2.3586987e-17 0.0062624691)
(0.0062441641 0.00028792079 -8.9224522e-16 0.0062463051 -2.1019355e-17 0.006246156)
(0.0062334042 0.00028625967 -8.8696942e-16 0.0062309102 -1.6111417e-16 0.006230717)
(0.0062241473 0.0002844754 -9.2167769e-16 0.0062166317 -1.6901551e-17 0.0062164043)
(0.0062162225 0.00028245177 -9.4544997e-16 0.006203407 -1.405015e-16 0.0062031283)