/*--------------------------------*- C++ -*----------------------------------*\
| =========                 |                                                 |
| \\      /  F ield         | OpenFOAM: The Open Source CFD Toolbox           |
|  \\    /   O peration     | Version:  2.4.0                                 |
|   \\  /    A nd           | Web:      www.OpenFOAM.org                      |
|    \\/     M anipulation  |                                                 |
\*---------------------------------------------------------------------------*/
FoamFile
{
    version     2.0;
    format      ascii;
    class       volSymmTensorField;
    location    "2000";
    object      Ax;
}
// * * * * * * * * * * * * * * * * * * * * * * * * * * * * * * * * * * * * * //

dimensions      [0 0 0 0 0 0 0];

internalField   nonuniform List<symmTensor> 
15296
(
(0.0049447275 0.0011577712 -1.8678892e-13 -0.0023286148 -2.4088136e-13 -0.0026161127)
(0.000192448 0.00030786654 -7.5262833e-14 -5.8324764e-05 -8.965377e-13 -0.00013412324)
(-0.00012332732 0.00026120827 -5.7588051e-13 6.3233977e-05 -9.9698685e-13 6.0093346e-05)
(-0.00035832368 0.00023155641 -6.0129788e-14 0.00015011773 -9.7976471e-13 0.00020820595)
(-0.00055651791 0.00020640498 -5.6202851e-14 0.00022023878 -1.0228202e-12 0.00033627913)
(-0.00061654108 0.00019311739 1.8902333e-13 0.00024134502 -1.0084591e-12 0.00037519606)
(-0.00059918338 0.00018748459 -5.1656807e-14 0.00023650813 -1.0417598e-12 0.00036267525)
(-0.00054893093 0.00018574395 -5.1321767e-14 0.00022050488 -1.0473663e-12 0.00032842604)
(-0.00047784101 0.00018662263 -5.1679123e-14 0.00019687806 -1.0571199e-12 0.00028096296)
(-0.00039557962 0.0001892289 -5.1957082e-14 0.00016861262 -1.0459179e-12 0.000226967)
(-0.00031181525 0.00019271267 -3.334764e-13 0.00013905481 -1.0828279e-12 0.00017276044)
(-0.000232226 0.00019652443 -5.3749349e-14 0.00011036402 -1.044007e-12 0.00012186198)
(-0.00015904924 0.00020038917 2.4368976e-13 8.3528975e-05 -1.0089067e-12 7.5520267e-05)
(-9.2554911e-05 0.00020420286 2.5148185e-13 5.880593e-05 -1.0064828e-12 3.3748981e-05)
(-3.1597752e-05 0.00020799807 -3.7289879e-13 3.5873603e-05 -1.0818443e-12 -4.2758517e-06)
(2.6186105e-05 0.00021194111 -5.8550438e-14 1.3882145e-05 -1.0477434e-12 -4.006825e-05)
(8.423853e-05 0.00021633522 -6.0021054e-14 -8.5060972e-06 -1.0536635e-12 -7.5732433e-05)
(0.0001471623 0.00022164591 -6.1161879e-14 -3.3164332e-05 -1.0473561e-12 -0.00011399797)
(0.00022115263 0.00022856754 -6.3125412e-14 -6.2705261e-05 -1.0487353e-12 -0.00015844737)
(0.0003148393 0.00023814598 2.9746533e-13 -0.00010088718 -1.002006e-12 -0.00021395212)
(0.00044074951 0.00025199273 3.0594613e-13 -0.00015334595 -9.9363912e-13 -0.00028740356)
(0.00061781404 0.00027265722 -5.9887837e-14 -0.00022890501 -9.7482484e-13 -0.00038890903)
(0.00087586012 0.00030430443 1.8684587e-13 -0.00034202231 -1.358635e-12 -0.00053383781)
(0.0012637094 0.00035395849 1.2399271e-12 -0.00051742589 2.7536559e-12 -0.00074628351)
(0.0018650777 0.00043395549 -1.3131426e-11 -0.00079957605 -3.0645278e-11 -0.0010655017)
(0.0028292271 0.00056672025 1.2644878e-10 -0.0012719882 2.2894711e-10 -0.0015572389)
(0.0044378407 0.00079498886 -1.4368597e-09 -0.002101274 -1.6389582e-09 -0.0023365668)
(0.0072414 0.0012025906 1.9212829e-08 -0.0036355987 7.9628917e-09 -0.0036058013)
(0.012393253 0.0019625969 -3.1965531e-07 -0.0066699667 1.0491706e-07 -0.0057232865)
(0.022317337 0.0034320655 7.1640684e-06 -0.013145745 -8.0982774e-06 -0.0091715915)
(0.042580012 0.0069755714 -0.0001159718 -0.029054545 0.0004547212 -0.013525468)
(-0.082106125 0.016462759 -0.0015965585 -0.13210576 0.030372947 0.21421188)
(-0.089771248 0.016370752 0.0043095014 -0.12705015 -0.029218243 0.2168214)
(-0.018126872 0.025102186 -0.015229305 -0.18718818 0.015778664 0.20531506)
(-0.027198205 0.023272186 -0.011885742 -0.050865264 0.18489344 0.078063468)
(-0.09908279 0.022921008 -0.015067443 0.030348259 0.17129838 0.068734531)
(0.1390265 0.019168463 0.014689174 -0.18573532 -0.21774198 0.046708822)
(0.20945158 0.0458062 -0.046622065 -0.29011932 -0.089899738 0.080667742)
(0.0045867045 0.0024499427 -1.7988686e-13 -0.0018966792 -1.077541e-13 -0.0026900253)
(0.00018193137 0.00073611014 -8.3864483e-14 1.4301883e-06 -4.0640738e-13 -0.00018336156)
(-0.0001316123 0.00061378279 -7.0870789e-14 0.0001320816 -4.2956148e-13 -4.6929705e-07)
(-0.00036997287 0.00055187505 -1.4862518e-13 0.00023867773 -4.7083818e-13 0.00013129515)
(-0.00057118036 0.00050208635 -1.4270624e-13 0.00032858323 -4.9094157e-13 0.00024259714)
(-0.00063244775 0.00047671017 -5.961833e-14 0.0003538642 -4.6867242e-13 0.00027858355)
(-0.00061536259 0.00046659679 -5.8846902e-14 0.00034361603 -4.7803614e-13 0.00027174656)
(-0.00056495303 0.00046370624 -2.2635704e-13 0.00031842242 -5.2116117e-13 0.00024653061)
(-0.00049338056 0.0004650608 1.146334e-13 0.00028360706 -4.399293e-13 0.0002097735)
(-0.00041038605 0.00046875335 -1.4930314e-13 0.00024353495 -4.9976554e-13 0.00016685111)
(-0.00032576606 0.00047322697 -2.4649247e-13 0.0002027222 -5.2455069e-13 0.00012304386)
(-0.00024530295 0.00047759011 -6.0391522e-14 0.00016386916 -4.7766366e-13 8.1433783e-05)
(-0.00017129283 0.00048146717 -6.0501215e-14 0.00012806239 -4.6981524e-13 4.3230439e-05)
(-0.00010403139 0.00048476076 -6.083678e-14 9.5449475e-05 -4.6649978e-13 8.5819135e-06)
(-4.2370912e-05 0.00048754583 -2.7390519e-13 6.5487907e-05 -5.2022923e-13 -2.3116995e-05)
(1.6083098e-05 0.00049002537 -6.3523587e-14 3.7030157e-05 -4.7567167e-13 -5.3113256e-05)
(7.4829985e-05 0.00049250074 -6.3754154e-14 8.3871932e-06 -4.7484066e-13 -8.3217178e-05)
(0.00013855889 0.00049536396 1.6514539e-13 -2.2717564e-05 -4.3081214e-13 -0.00011584133)
(0.00021359075 0.00049912062 5.4419903e-14 -5.9369598e-05 -4.4609627e-13 -0.00015422115)
(0.00030874192 0.00050443826 -1.8648963e-13 -0.0001058959 -4.8505663e-13 -0.00020284602)
(0.00043682711 0.00051222404 -6.8588916e-14 -0.00016862243 -4.5278009e-13 -0.00026820468)
(0.0006172378 0.00052373698 -3.3078999e-14 -0.00025718404 -4.7615016e-13 -0.00036005376)
(0.00088056968 0.00054075091 -3.8765121e-13 -0.00038689319 -3.2391755e-13 -0.00049367649)
(0.001276969 0.00056576462 2.73067e-12 -0.00058305053 -7.8341046e-13 -0.00069391849)
(0.001892507 0.00060228769 -2.494816e-11 -0.00088944847 -1.8585874e-13 -0.0010030585)
(0.0028806781 0.00065504952 2.350499e-10 -0.0013848528 1.7783018e-11 -0.0014958253)
(0.0045307726 0.00072997215 -2.4868326e-09 -0.0022188344 -3.1790289e-10 -0.0023119383)
(0.0074058933 0.00083260572 3.1145654e-08 -0.0036843492 4.4224799e-09 -0.0037215441)
(0.012675731 0.00096138219 -4.9104003e-07 -0.0063916403 -4.6466196e-08 -0.0062840903)
(0.022762961 0.0010793702 1.005803e-05 -0.011598242 -1.0307955e-06 -0.011164719)
(0.042792289 0.0015218519 -5.140338e-06 -0.021816972 -3.6198838e-05 -0.020975318)
(0.049947251 -0.00041704224 -0.00013443075 -0.017971498 0.022856982 -0.031975753)
(-0.073524634 -0.0018350863 -0.0068148945 0.092314498 -0.16671713 -0.018789864)
(0.63140582 -0.0094633748 -0.0019354662 -0.31094052 -0.094382507 -0.32046529)
(0.11983714 -0.006426452 -0.0023620405 -0.16231978 -0.1778456 0.042482643)
(0.51825981 -0.0025304545 -0.010480185 -0.20676915 0.070944631 -0.31149066)
(0.58685209 -0.021193618 -0.015338542 -0.37044442 -0.058548479 -0.21640767)
(0.14408241 0.057128687 -0.12856422 -0.056185281 -0.17393173 -0.087897133)
(0.0040482692 0.0036864487 -2.7145456e-13 -0.0010994971 -1.4194745e-13 -0.0029487721)
(0.00015101823 0.0012260505 -9.7971011e-14 0.00017146736 -3.1728122e-13 -0.00032248559)
(-0.0001403246 0.001002259 -8.0831223e-14 0.00024960648 -3.3100863e-13 -0.00010928187)
(-0.00037406829 0.00090031218 -7.54332e-14 0.00034426872 -3.4699722e-13 2.9799569e-05)
(-0.00057238736 0.00082011728 -7.1227806e-14 0.00042685006 -3.6071691e-13 0.0001455373)
(-0.00063260254 0.00077912884 -1.1609268e-13 0.00044609032 -3.8205677e-13 0.00018651222)
(-0.00061532344 0.00076262771 3.1494063e-14 0.00043087333 -3.2606863e-13 0.00018445012)
(-0.00056510181 0.00075769936 -1.5817985e-14 0.00040158681 -3.4837117e-13 0.00016351501)
(-0.00049399277 0.00075955817 -1.1794072e-13 0.0003633005 -3.8036222e-13 0.00013069227)
(-0.00041161798 0.00076516005 -6.8053061e-14 0.00032027173 -3.7096138e-13 9.1346251e-05)
(-0.00032766052 0.00077202538 -6.8656569e-14 0.00027694831 -3.7432702e-13 5.0712211e-05)
(-0.00024784146 0.00077873473 -6.788592e-14 0.0002359504 -3.6302395e-13 1.1891061e-05)
(-0.00017443221 0.00078468924 -6.8652627e-14 0.00019828631 -3.5987207e-13 -2.3854103e-05)
(-0.00010772429 0.00078972976 -6.9397086e-14 0.00016403653 -3.5722299e-13 -5.6312245e-05)
(-4.6583673e-05 0.00079396729 -7.2484237e-14 0.00013260396 -3.7081021e-13 -8.6020282e-05)
(1.1353328e-05 0.00079771363 -7.2142867e-14 0.00010279963 -3.6254177e-13 -0.00011415296)
(6.9538722e-05 0.00080143613 -7.2716741e-14 7.2905662e-05 -3.6450483e-13 -0.00014244438)
(0.00013259471 0.00080574575 -7.2159568e-14 4.0628812e-05 -3.565768e-13 -0.00017322352)
(0.00020674675 0.00081143313 -7.2069772e-14 2.8817047e-06 -3.5392398e-13 -0.00020962845)
(0.00030067106 0.00081954405 -1.4796855e-13 -4.4643482e-05 -3.8537327e-13 -0.00025602757)
(0.00042696863 0.00083150279 -8.0472188e-14 -0.00010821631 -3.4459484e-13 -0.00031875232)
(0.00060469251 0.00084929503 -1.7792228e-13 -0.00019734384 -4.3332093e-13 -0.00040734867)
(0.0008638829 0.00087574734 -5.4377719e-13 -0.00032706812 -1.5467079e-13 -0.00053681478)
(0.0012537451 0.00091492255 4.7520006e-12 -0.00052212738 -6.2961581e-13 -0.00073161775)
(0.0018587175 0.00097275823 -4.3089513e-11 -0.00082515071 -2.8062808e-12 -0.0010335668)
(0.0028294382 0.0010579266 4.1000161e-10 -0.0013124941 5.1013014e-11 -0.0015169441)
(0.0044503622 0.001183402 -4.3842424e-09 -0.0021287786 -6.4227429e-10 -0.0023215836)
(0.0072776028 0.0013685133 5.5745868e-08 -0.0035570841 6.9304902e-09 -0.0037205187)
(0.012478609 0.0016432339 -8.9133174e-07 -0.0061902908 -3.6749531e-08 -0.0062883182)
(0.022539524 0.0020432361 1.7868284e-05 -0.011277241 -2.8315334e-06 -0.011262282)
(0.043363108 0.0027397959 -0.00014379556 -0.021650341 8.2190091e-06 -0.021712767)
(0.091713283 0.0030161394 0.00014221305 -0.021825183 0.036590974 -0.0698881)
(0.064994628 0.0039916135 0.0020174002 0.13604626 -0.12769774 -0.20104088)
(0.72706178 0.0039947956 -0.002376532 -0.27723787 0.0010526888 -0.4498239)
(-0.0027429308 -0.0031604978 -0.00063129347 0.12781866 -0.15769182 -0.12507572)
(0.023512217 -0.0051418301 -0.00092868305 -0.027647371 -0.20780442 0.0041351536)
(0.18847426 -0.019054924 -0.013261371 -0.23303551 -0.15058131 0.044561254)
(0.12536687 0.063270737 -0.10431353 0.017676689 -0.15705567 -0.14304356)
(0.0036317209 0.0047595897 -1.8190033e-13 -0.00022043936 -8.8046964e-14 -0.0034112816)
(0.00010955224 0.0017334163 -1.018662e-13 0.00043680697 -2.4258126e-13 -0.00054635921)
(-0.000156386 0.0013977942 -4.4737749e-14 0.00042829259 -2.256079e-13 -0.00027190658)
(-0.00038728069 0.0012528545 -7.622543e-14 0.00050355881 -2.5878038e-13 -0.00011627812)
(-0.00058518987 0.0011415332 -1.0663494e-13 0.0005754428 -2.8905652e-13 9.7470765e-06)
(-0.00064497215 0.0010846651 -5.2998986e-16 0.0005859884 -2.3835608e-13 5.8983749e-05)
(-0.00062710841 0.0010617481 -6.6264629e-14 0.00056379802 -2.6503828e-13 6.3310386e-05)
(-0.00057629086 0.001054866 -6.6251894e-14 0.00052889208 -2.6815289e-13 4.7398782e-05)
(-0.00050459489 0.0010573778 -6.7284404e-14 0.00048586279 -2.7482317e-13 1.87321e-05)
(-0.00042162893 0.0010650736 -6.8794318e-14 0.00043875924 -2.7606825e-13 -1.7130305e-05)
(-0.00033709142 0.0010745194 -6.8912762e-14 0.00039192762 -2.7772418e-13 -5.4836195e-05)
(-0.00025672451 0.0010837452 -6.8553734e-14 0.00034788642 -2.7054643e-13 -9.1161909e-05)
(-0.00018281058 0.0010919186 -6.9481489e-14 0.00030754769 -2.674319e-13 -0.00012473711)
(-0.00011564471 0.0010988172 -1.1573415e-13 0.00027091005 -2.9022309e-13 -0.00015526535)
(-5.4092696e-05 0.0011045922 -7.3683196e-14 0.0002373058 -2.757161e-13 -0.0001832131)
(4.2124355e-06 0.0011096713 -1.6733998e-13 0.00020548208 -3.0982144e-13 -0.00020969452)
(6.27283e-05 0.0011146955 -7.4545535e-14 0.00017366159 -2.747422e-13 -0.00023638989)
(0.00012608358 0.0011205 -1.2372503e-13 0.00013949287 -2.895763e-13 -0.00026557645)
(0.00020050956 0.0011281621 -7.4480548e-14 9.9828585e-05 -2.6891311e-13 -0.00030033815)
(0.00029468633 0.0011391025 -7.7469826e-14 5.0296844e-05 -2.8476565e-13 -0.00034498317)
(0.00042121404 0.0011552485 -2.9847748e-14 -1.5439617e-05 -2.2967955e-13 -0.00040577442)
(0.00059913456 0.001179277 4.7222049e-15 -0.00010695201 -3.3922416e-13 -0.00049218254)
(0.00085845467 0.0012149799 -8.7573572e-13 -0.00023932032 -2.2755934e-15 -0.00061913436)
(0.0012482931 0.0012677695 6.9976939e-12 -0.00043723405 -5.9719536e-13 -0.000811059)
(0.0018528765 0.0013454757 -6.2949721e-11 -0.00074304539 -5.7608819e-12 -0.0011098312)
(0.0028222918 0.0014593457 6.019741e-10 -0.0012322615 9.7187835e-11 -0.0015900303)
(0.0044395369 0.0016257747 -6.4881614e-09 -0.0020473433 -1.1764992e-09 -0.0023921936)
(0.0072563464 0.0018678945 8.3255888e-08 -0.0034661939 1.2172867e-08 -0.0037901525)
(0.012425831 0.0022184594 -1.3341605e-06 -0.0060702901 -4.5320504e-08 -0.0063555407)
(0.022377575 0.0027051502 2.6155138e-05 -0.011088467 -5.6559116e-06 -0.011289108)
(0.04259771 0.0034288211 -0.00036603749 -0.021351248 0.00021259023 -0.021246462)
(0.082926915 0.0026292084 0.0011793654 -0.028108895 0.031005639 -0.05481802)
(0.21232332 0.00082164145 0.0090306004 0.078013345 -0.091770178 -0.29033666)
(0.72697752 0.0014800087 0.0065833299 -0.33625317 0.010996489 -0.39072435)
(0.12453258 0.0025574762 -0.0021116026 0.10785212 -0.13086828 -0.2323847)
(-0.048676355 -0.0060641663 -5.1464936e-05 0.12399711 -0.16394273 -0.07532075)
(-0.0054899838 -0.024546265 -0.018376195 -0.027078154 -0.19977413 0.032568138)
(0.10972794 0.069507044 -0.10045995 0.042251844 -0.14771617 -0.15197978)
(0.0032293015 0.005688048 -1.6470159e-13 0.0007512361 -7.5322483e-14 -0.0039805376)
(5.6916944e-05 0.0022433292 -1.6189523e-13 0.00079637443 -2.3957947e-13 -0.00085329138)
(-0.00017846233 0.0017965337 -1.0980399e-13 0.0006679862 -2.1245617e-13 -0.00048952387)
(-0.00040340847 0.0016067642 -7.5647539e-14 0.00071151074 -2.0336334e-13 -0.00030810228)
(-0.00059957501 0.0014641173 -7.2713264e-14 0.00076558688 -2.1844406e-13 -0.00016601186)
(-0.00065845896 0.0013914032 -9.4195491e-14 0.00076360554 -2.2855593e-13 -0.00010514658)
(-0.00063989094 0.0013621223 -6.5814166e-14 0.00073257837 -2.0811538e-13 -9.2687429e-05)
(-0.00058851295 0.0013533392 -6.5967426e-14 0.00069116025 -2.1143223e-13 -0.0001026473)
(-0.00051637942 0.0013565638 -3.7371374e-14 0.00064308713 -1.9756475e-13 -0.00012670771)
(-0.00043304075 0.0013664192 -6.8252527e-14 0.00059194038 -2.1659081e-13 -0.00015889963)
(-0.00034816741 0.0013785092 -6.9033405e-14 0.00054176126 -2.227543e-13 -0.00019359385)
(-0.00026749745 0.0013903061 -6.8290754e-14 0.0004948563 -2.1466063e-13 -0.00022735885)
(-0.00019331271 0.0014007411 -1.0305627e-13 0.00045199591 -2.3010162e-13 -0.00025868319)
(-0.00012590865 0.0014095305 -3.7777653e-14 0.00041308469 -1.9955545e-13 -0.00028717604)
(-6.41539e-05 0.0014168703 -1.0948446e-13 0.00037738991 -2.3730483e-13 -0.00031323601)
(-5.6865924e-06 0.0014233104 -7.5495616e-14 0.00034361218 -2.214935e-13 -0.00033792559)
(5.2943169e-05 0.00142967 -7.4732981e-14 0.00030993935 -2.1764932e-13 -0.00036288251)
(0.00011635157 0.0014370136 -7.62244e-14 0.00027399221 -2.2201879e-13 -0.00039034378)
(0.00019074877 0.0014467096 -3.5456347e-14 0.000232601 -1.9550147e-13 -0.00042334977)
(0.00028477862 0.0014605594 4.5611503e-14 0.00018137748 -1.7181001e-13 -0.0004661561)
(0.00041097975 0.0014810058 -1.7158224e-13 0.00011397614 -2.2120567e-13 -0.00052495589)
(0.000588288 0.0015114378 3.3473813e-14 2.0831565e-05 -3.0932524e-13 -0.00060911956)
(0.00084652352 0.0015566503 -1.1475892e-12 -0.00011310314 1.0292576e-13 -0.00073342038)
(0.0012344642 0.0016234756 9.3221771e-12 -0.00031242579 -2.9196892e-13 -0.00092203841)
(0.0018356944 0.0017217788 -8.4481653e-11 -0.00061926957 -1.1941523e-11 -0.0012164249)
(0.0027990273 0.0018656794 8.1176114e-10 -0.0011086354 1.7489297e-10 -0.0016903918)
(0.0044048672 0.0020757038 -8.7977347e-09 -0.0019218366 -2.0345026e-09 -0.0024830306)
(0.007199371 0.0023806346 1.1341573e-07 -0.0033340714 2.0673048e-08 -0.0038652996)
(0.012323541 0.0028215273 -1.8100692e-06 -0.0059203554 -6.8950734e-08 -0.0064031852)
(0.022182859 0.0034347207 3.4804275e-05 -0.010894264 -9.7126839e-06 -0.011288595)
(0.04225507 0.0042992362 -0.00060688772 -0.021039741 0.00054407947 -0.021215329)
(0.088505026 0.003133392 0.0025684834 -0.038707561 0.014155769 -0.049797466)
(0.2794521 -0.00015435916 0.016489343 -0.022219045 -0.059399442 -0.25723306)
(0.76601542 0.0038759564 0.014479308 -0.36106991 -0.019745793 -0.40494551)
(0.29052084 0.0086847161 -0.0019419529 0.034999541 -0.10320426 -0.32552039)
(0.031681876 -0.0023793876 -0.0023682032 0.12961644 -0.14941024 -0.16129832)
(-0.025156864 -0.02875093 -0.019031075 0.040257894 -0.19563061 -0.01510103)
(0.085686435 0.070764113 -0.085069852 0.081162165 -0.13250839 -0.1668486)
(0.0027646626 0.0066829155 -1.8411778e-13 0.0020292222 -1.050581e-13 -0.0047938848)
(-2.2794869e-05 0.0028927446 -1.3668859e-13 0.0013898651 -1.9478035e-13 -0.0013670702)
(-0.00021684495 0.0023130175 -5.3433168e-14 0.0010686206 -1.3383495e-13 -0.00085177561)
(-0.00043118426 0.0020634496 -7.4536111e-14 0.0010553683 -1.5864584e-13 -0.00062418402)
(-0.00062426615 0.0018802612 -4.3565009e-14 0.001079133 -1.458276e-13 -0.00045486688)
(-0.00068165217 0.0017873237 -6.6464817e-14 0.0010565208 -1.6570277e-13 -0.00037486867)
(-0.00066190372 0.0017500203 -9.3145141e-14 0.0010111399 -1.8620093e-13 -0.00034923618)
(-0.00060955394 0.0017389198 -6.5337208e-14 0.0009592098 -1.6578442e-13 -0.00034965586)
(-0.00053663909 0.0017431685 -6.4266434e-14 0.00090305776 -1.6296387e-13 -0.00036641867)
(-0.00045262802 0.0017559008 -6.7530606e-14 0.00084548822 -1.6906012e-13 -0.00039286021)
(-0.00036715052 0.0017714882 -3.3225984e-15 0.00079002279 -1.2629414e-13 -0.00042287227)
(-0.0002859385 0.001786689 -6.6672412e-14 0.0007386101 -1.6603705e-13 -0.0004526716)
(-0.00021127153 0.0018001324 -6.9930568e-14 0.00069178521 -1.6953474e-13 -0.00048051368)
(-0.00014344254 0.0018114545 -1.4129099e-13 0.00064929655 -2.1514221e-13 -0.00050585402)
(-8.1320325e-05 0.0018209065 -7.4818653e-14 0.00061030433 -1.754612e-13 -0.000528984)
(-2.2546253e-05 0.0018291924 -7.534479e-14 0.00057343428 -1.7436528e-13 -0.00055088803)
(3.6323059e-05 0.0018373617 -7.501124e-14 0.00053682087 -1.7242995e-13 -0.00057314393)
(9.9891546e-05 0.0018467778 -3.6086275e-14 0.00049804481 -1.486319e-13 -0.00059793636)
(0.00017434695 0.001859194 -7.4665355e-14 0.00045390537 -1.6713595e-13 -0.00062825232)
(0.00026829365 0.001876918 -3.1611414e-14 0.00039999029 -1.4679672e-13 -0.00066828394)
(0.00039420173 0.001903078 -1.3773761e-13 0.00032993832 -1.6870921e-13 -0.00072414005)
(0.00057088715 0.0019420144 8.6902394e-14 0.00023418096 -2.502289e-13 -0.00080506811)
(0.00082795726 0.0019998676 -1.5914037e-12 9.7691393e-05 -3.6123742e-14 -0.00092564865)
(0.0012137985 0.0020853874 1.2951189e-11 -0.00010406111 1.51332e-12 -0.0011097374)
(0.0018112524 0.0022112121 -1.1667943e-10 -0.00041304077 -2.8940114e-11 -0.0013982116)
(0.0027676476 0.0023954359 1.1184046e-09 -0.00090384995 3.3814882e-10 -0.0018637977)
(0.0043603316 0.0026644266 -1.21343e-08 -0.0017168838 -3.6450964e-09 -0.0026434478)
(0.0071287739 0.0030551174 1.5634337e-07 -0.0031251699 3.5354894e-08 -0.0040036041)
(0.012198831 0.0036208644 -2.4603384e-06 -0.0056984678 -7.6900347e-08 -0.0065003635)
(0.02194079 0.0044110961 4.5563337e-05 -0.010638943 -1.7896538e-05 -0.011301847)
(0.041713066 0.0054576561 -0.00086070842 -0.020713003 0.0010907692 -0.021000064)
(0.08243673 0.0042759868 0.0036539247 -0.047503989 -0.015531271 -0.034932741)
(0.24840794 -0.004519193 0.018371253 -0.15474997 0.0047236108 -0.093657969)
(0.73216228 0.0075527101 0.022646214 -0.43072917 -0.021319827 -0.30143311)
(0.47243163 0.016202188 0.0036256879 -0.089738821 -0.079381857 -0.38269281)
(0.17660834 0.0026484229 -0.0057139214 0.082254394 -0.12963594 -0.25886274)
(0.025072363 -0.033765785 -0.017555922 0.050248174 -0.19561693 -0.075320537)
(0.088570569 0.054152488 -0.075263451 0.10682985 -0.11214735 -0.19540041)
(0.0022650778 0.0077288063 -1.2000148e-13 0.0036538722 -4.9214303e-14 -0.0059189501)
(-0.0001430727 0.0036881671 -8.6520768e-14 0.0023324375 -1.1339056e-13 -0.0021893648)
(-0.00028060344 0.002969002 -5.8693841e-14 0.0017214621 -9.9710676e-14 -0.0014408586)
(-0.00047677169 0.0026451739 -7.2803055e-14 0.0016138088 -1.2401411e-13 -0.0011370371)
(-0.00066448349 0.0024111796 -6.7622917e-14 0.0015890488 -1.2808309e-13 -0.00092456528)
(-0.00071933751 0.0022931176 -6.4316315e-14 0.0015336945 -1.2778681e-13 -0.00081435701)
(-0.00069763323 0.002245946 -6.494868e-14 0.0014653561 -1.3070877e-13 -0.0007677229)
(-0.00064369703 0.002232059 -6.395112e-14 0.0013965021 -1.2956618e-13 -0.00075280512)
(-0.0005695089 0.0022376555 -8.4338302e-14 0.0013272152 -1.4917168e-13 -0.00075770626)
(-0.00048440886 0.0022540275 -6.5823301e-14 0.0012591079 -1.3066385e-13 -0.00077469907)
(-0.0003979652 0.0022740152 -1.66776e-14 0.0011949251 -8.0931856e-14 -0.00079695994)
(-0.00031589626 0.0022934878 -6.455997e-14 0.0011360648 -1.2738588e-13 -0.00082016856)
(-0.00024047273 0.002310699 -6.8507833e-14 0.0010826885 -1.3165044e-13 -0.00084221578)
(-0.00017197882 0.0023251849 -7.2032352e-14 0.0010342902 -1.3690108e-13 -0.00086231138)
(-0.00010927939 0.0023372628 -7.3524967e-14 0.00098984922 -1.3637779e-13 -0.00088056983)
(-5.0016566e-05 0.0023478256 -7.4696868e-14 0.00094785892 -1.3706975e-13 -0.00089784236)
(9.2470886e-06 0.0023582062 -7.5465691e-14 0.00090635487 -1.3905207e-13 -0.00091560195)
(7.3101476e-05 0.0023701387 -7.2996541e-14 0.00086283976 -1.3135895e-13 -0.00093594123)
(0.00014770707 0.0023858529 -7.4276889e-14 0.0008140468 -1.3163567e-13 -0.00096175387)
(0.0002416195 0.0024082822 -6.9522493e-14 0.00075550409 -1.297031e-13 -0.00099712359)
(0.00036722345 0.0024413997 -1.0616181e-13 0.00068079534 -1.1790948e-13 -0.0010480188)
(0.00054318512 0.0024907101 1.7301505e-13 0.00058030393 -1.5913226e-13 -0.0011234891)
(0.00079884514 0.0025639924 -2.2646302e-12 0.00043897498 -4.5169474e-13 -0.0012378201)
(0.0011820994 0.0026723143 1.8406274e-11 0.00023230443 5.2424893e-12 -0.0014144038)
(0.0017748596 0.0028316413 -1.6343903e-10 -8.1501289e-05 -6.0689719e-11 -0.0016933583)
(0.0027226014 0.0030647709 1.5597687e-09 -0.00057651637 6.2698221e-10 -0.0021460851)
(0.0042988714 0.0034048675 -1.6869837e-08 -0.0013917341 -6.3948666e-09 -0.0029071373)
(0.0070348676 0.0038980321 2.1482099e-07 -0.002796624 5.9027223e-08 -0.0042382437)
(0.012037765 0.0046110016 -3.2524892e-06 -0.005351812 -7.1824119e-08 -0.0066859527)
(0.021632295 0.0056059936 5.5529378e-05 -0.010237432 -2.8867091e-05 -0.011394864)
(0.040929914 0.006931174 -0.00098868331 -0.020113667 0.0016011354 -0.020816247)
(0.063679707 0.0074246979 0.0040074997 -0.036295507 -0.042992308 -0.0273842)
(0.021454756 -0.019189859 0.0035323182 -0.078933999 0.19210292 0.057479242)
(0.12719831 -0.0048969991 0.0082644049 -0.19204548 0.16622998 0.064847167)
(0.62753136 0.019127931 0.015588336 -0.3327982 -0.043249501 -0.29473316)
(0.48175315 0.015621489 -0.0070540266 -0.1495094 -0.10046249 -0.33224375)
(0.12553804 -0.033023463 -0.012845508 0.031587299 -0.18530246 -0.15712533)
(0.12544066 0.032327705 -0.067260955 0.10737784 -0.090037397 -0.23281851)
(0.0017906998 0.0086776848 -1.3505477e-13 0.0054196191 -9.4780304e-14 -0.0072103189)
(-0.00029565669 0.0045302527 -9.9128186e-14 0.0035950773 -1.0924276e-13 -0.0032994207)
(-0.00037061177 0.0037015097 -8.9145359e-14 0.0026396323 -1.1426406e-13 -0.0022690206)
(-0.00054136551 0.003300435 -7.1053218e-14 0.0024003945 -1.0001671e-13 -0.001859029)
(-0.00072119987 0.0030107225 -5.1458094e-14 0.0023078104 -8.3597131e-14 -0.0015866105)
(-0.00077243864 0.0028653308 -6.1718709e-14 0.0022074844 -1.0041343e-13 -0.0014350458)
(-0.00074797525 0.0028076758 -7.7898223e-14 0.0021076912 -1.2407657e-13 -0.001359716)
(-0.00069181178 0.0027910351 -6.2148906e-14 0.0020156155 -1.0322849e-13 -0.0013238037)
(-0.0006158245 0.0027983818 -6.3827476e-14 0.0019282485 -1.0829874e-13 -0.001312424)
(-0.00052917882 0.0028190012 -7.9980863e-14 0.0018455882 -1.2357799e-13 -0.0013164094)
(-0.00044136575 0.0028440432 -5.7687578e-14 0.0017693314 -9.198543e-14 -0.0013279656)
(-0.00035808561 0.0028683902 -6.1862891e-14 0.0017001265 -9.8830909e-14 -0.0013420409)
(-0.00028159483 0.0028898806 -8.4198517e-14 0.001637625 -1.2354569e-13 -0.0013560302)
(-0.00021216332 0.0029079439 -7.0570056e-14 0.0015809747 -1.096872e-13 -0.0013688113)
(-0.00014864704 0.0029229762 -1.0794669e-13 0.0015289083 -1.453681e-13 -0.0013802612)
(-8.8684756e-05 0.0029360857 -7.4510615e-14 0.0014797381 -1.1199369e-13 -0.0013910534)
(-2.8841626e-05 0.0029489255 -3.6520182e-14 0.0014313627 -7.517311e-14 -0.0014025211)
(3.5460214e-05 0.0029636454 -7.2248552e-14 0.0013811753 -1.0630719e-13 -0.0014166355)
(0.00011035352 0.0029830078 -7.3792724e-14 0.0013258148 -1.066465e-13 -0.0014361683)
(0.00020434104 0.0030106439 -6.7056668e-14 0.0012607228 -1.0404058e-13 -0.0014650638)
(0.00032971288 0.0030514682 -1.4204027e-13 0.0011793996 -1.2307877e-13 -0.0015091124)
(0.00050496765 0.0031122834 2.4115473e-13 0.0010721482 -8.4175073e-14 -0.0015771158)
(0.00075914638 0.0032026959 -3.1428374e-12 0.00092384704 -1.146218e-12 -0.0016829934)
(0.0011395922 0.0033363621 2.5497056e-11 0.00070997131 1.1103121e-11 -0.0018495635)
(0.0017271686 0.0035329698 -2.2340523e-10 0.00038883954 -1.0960728e-10 -0.0021160082)
(0.0026652604 0.003820596 2.1197615e-09 -0.00011316192 1.0633684e-09 -0.0025520984)
(0.0042231279 0.0042400901 -2.270436e-08 -0.00093368418 -1.0387115e-08 -0.0032894437)
(0.0069226558 0.0048480398 2.8134042e-07 -0.0023386765 8.9743822e-08 -0.0045839793)
(0.011850017 0.0057267994 -3.9889142e-06 -0.0048794234 -2.9486798e-09 -0.0069705932)
(0.021281227 0.0069555465 6.0410861e-05 -0.0097139267 -4.0945011e-05 -0.011567301)
(0.040039009 0.0087186747 -0.00092106838 -0.019325513 0.0018877874 -0.020713496)
(0.053680639 0.01103599 0.0046968136 -0.021236019 -0.053747304 -0.03244462)
(-0.067837265 -0.011269055 -0.0057066534 0.073579344 0.18107591 -0.0057420791)
(-0.069928533 -0.011612175 -0.00042111607 0.025273417 0.18462301 0.044655117)
(0.087102686 -0.0045672807 0.0055009961 -0.12164441 0.1948606 0.034541721)
(0.23217339 0.016660506 -0.00082731191 -0.2211652 0.1576337 -0.011008189)
(0.27586777 -0.029548224 -0.005151836 -0.065546207 -0.16078206 -0.21032157)
(0.19827448 0.016370289 -0.050270255 0.077989429 -0.060608829 -0.27626391)
(0.001328656 0.0094970441 -7.8765677e-14 0.0072587984 -2.9185363e-14 -0.0085874545)
(-0.00047903873 0.0054088202 -9.3388236e-14 0.0052058801 -9.0881271e-14 -0.0047268413)
(-0.00049251356 0.0045109891 -7.4401614e-14 0.0038841051 -8.2141235e-14 -0.0033915916)
(-0.00063052459 0.004036151 -6.7829354e-14 0.003477062 -8.0562229e-14 -0.0028465375)
(-0.00079925545 0.0036872232 -6.1565581e-14 0.0032943607 -8.068063e-14 -0.0024951052)
(-0.00084549569 0.003512741 -5.918039e-14 0.0031346607 -8.0584038e-14 -0.002289165)
(-0.00081727567 0.0034443088 -6.1361515e-14 0.0029933824 -8.5985144e-14 -0.0021761067)
(-0.00075806918 0.0034251806 -8.0706116e-14 0.0028705245 -1.140451e-13 -0.0021124553)
(-0.000679604 0.0034348519 -3.8667429e-14 0.0027590446 -5.4788246e-14 -0.0020794406)
(-0.0005908207 0.0034604609 -6.3246021e-14 0.0026568716 -8.7940197e-14 -0.0020660509)
(-0.00050111346 0.0034913145 -3.3533589e-14 0.0025643501 -4.5115008e-14 -0.0020632367)
(-0.00041615931 0.0035212123 -8.3579367e-14 0.0024811504 -1.1018319e-13 -0.0020649911)
(-0.0003381943 0.0035475417 -6.6936703e-14 0.0024062553 -8.8501469e-14 -0.002068061)
(-0.00026746718 0.0035696216 -6.8706002e-14 0.002338358 -8.9027661e-14 -0.0020708908)
(-0.00020281951 0.0035879421 -7.2805544e-14 0.0022758683 -9.2882621e-14 -0.0020730488)
(-0.00014188223 0.0036038563 -5.9273438e-14 0.0022168599 -7.4931085e-14 -0.0020749777)
(-8.1219722e-05 0.0036193759 -5.6266631e-14 0.002159049 -7.0512751e-14 -0.0020778293)
(-1.6264719e-05 0.0036371153 -7.1524475e-14 0.0020996826 -8.8058896e-14 -0.0020834179)
(5.908698e-05 0.0036604264 -5.8691387e-14 0.002035269 -7.1806483e-14 -0.002094356)
(0.00015328066 0.0036937106 -6.387274e-14 0.0019611257 -8.3985314e-14 -0.0021144063)
(0.00027850125 0.0037429178 -1.4124209e-13 0.0018706266 -1.0595005e-13 -0.0021491278)
(0.00045305888 0.0038162758 4.6892042e-13 0.0017539425 1.5084744e-13 -0.0022070013)
(0.00070565615 0.0039253925 -4.2914116e-12 0.0015958177 -2.2390462e-12 -0.0023014739)
(0.0010830108 0.0040867524 3.4555901e-11 0.0013716167 1.9828552e-11 -0.0024546274)
(0.0016648005 0.0043241032 -2.9972746e-10 0.0010396512 -1.8130108e-10 -0.0027044516)
(0.0025920461 0.0046712594 2.8140295e-09 0.00052661075 1.6794655e-09 -0.0031186569)
(0.0041291703 0.0051773999 -2.9508017e-08 -0.00030399595 -1.5610024e-08 -0.0038251743)
(0.0067875824 0.0059104039 3.4808161e-07 -0.0017147972 1.223348e-07 -0.0050727852)
(0.011629806 0.0069692792 -4.4668289e-06 -0.0042476335 1.8632714e-07 -0.007382173)
(0.020884417 0.0084535133 5.7166608e-05 -0.0090399298 -5.1158527e-05 -0.011844487)
(0.039158687 0.010688251 -0.00067620977 -0.018398138 0.0018623531 -0.020760549)
(0.05856247 0.014726372 0.0049525792 -0.019692049 -0.046888317 -0.038870421)
(-0.041258613 -0.00031777026 -0.0059883295 0.10789994 0.17268251 -0.066641332)
(-0.07792514 -0.0079270479 -0.0034152749 0.073460721 0.17869223 0.0044644192)
(-0.046553584 -0.0078209898 0.0020200312 0.043576368 0.19198833 0.002977216)
(-0.0023811653 -8.367866e-05 0.0039718297 0.011294235 0.20411508 -0.0089130701)
(0.3892512 -0.031342633 0.0071320266 -0.23017811 0.0013403832 -0.15907309)
(0.26902165 0.0091666154 -0.00019772878 0.031053322 0.013162518 -0.30007497)
(0.00093480731 0.010234668 -6.5672678e-14 0.0090930505 -2.4439257e-14 -0.010027858)
(-0.00068856383 0.0063132965 -6.8542512e-14 0.0071723324 -4.0859577e-14 -0.0064837686)