/*--------------------------------*- C++ -*----------------------------------*\
| =========                 |                                                 |
| \\      /  F ield         | OpenFOAM: The Open Source CFD Toolbox           |
|  \\    /   O peration     | Version:  2.4.0                                 |
|   \\  /    A nd           | Web:      www.OpenFOAM.org                      |
|    \\/     M anipulation  |                                                 |
\*---------------------------------------------------------------------------*/
FoamFile
{
    version     2.0;
    format      ascii;
    class       volSymmTensorField;
    location    "2000";
    object      R;
}
// * * * * * * * * * * * * * * * * * * * * * * * * * * * * * * * * * * * * * //

dimensions      [0 2 -2 0 0 0 0];

internalField   nonuniform List<symmTensor> 
15296
(
(0.0011896822 1.1997041e-05 -4.7825763e-16 0.0011062318 -1.5586324e-14 0.0010930137)
(0.0011286694 4.7003802e-06 -2.7165242e-16 0.001124616 -1.4625346e-14 0.0011237584)
(0.0011203243 4.1892872e-06 -8.3831522e-15 0.0011231271 -1.4739195e-14 0.0011233716)
(0.0011131637 3.8732763e-06 -2.0436629e-16 0.0011213365 -1.4375392e-14 0.0011224283)
(0.0011065794 3.5942465e-06 -1.9034339e-16 0.0011194907 -1.4433749e-14 0.0011213235)
(0.0011024872 3.4013224e-06 3.9823583e-15 0.0011168647 -1.4257835e-14 0.0011188989)
(0.0010998918 3.2791512e-06 -1.7088089e-16 0.0011138237 -1.4504848e-14 0.0011157408)
(0.0010979768 3.2017363e-06 -1.6902106e-16 0.0011106656 -1.4678153e-14 0.0011123342)
(0.0010965038 3.1572213e-06 -1.6959565e-16 0.0011074732 -1.4968125e-14 0.00110882)
(0.0010952857 3.137081e-06 -1.6956038e-16 0.0011043117 -1.4996048e-14 0.0011053068)
(0.0010941493 3.1327802e-06 -4.6921669e-15 0.0011012423 -1.5489293e-14 0.0011018935)
(0.0010930009 3.1380139e-06 -1.7672417e-16 0.0010982973 -1.534482e-14 0.0010986317)
(0.0010918086 3.1489835e-06 4.499159e-15 0.0010954861 -1.5243925e-14 0.001095536)
(0.0010905728 3.1636832e-06 4.5793762e-15 0.0010928061 -1.5364862e-14 0.0010926024)
(0.0010893152 3.1816215e-06 -5.0247563e-15 0.0010902463 -1.6114421e-14 0.001089814)
(0.0010880744 3.2038028e-06 -1.909743e-16 0.0010877894 -1.6000928e-14 0.0010871447)
(0.0010869021 3.2327576e-06 -1.9511925e-16 0.0010854117 -1.6230852e-14 0.0010845594)
(0.001085866 3.2727808e-06 -1.9848657e-16 0.0010830851 -1.6289651e-14 0.0010820163)
(0.001085053 3.3305365e-06 -2.0377834e-16 0.0010807727 -1.6504548e-14 0.0010794617)
(0.0010845798 3.4161482e-06 5.0709748e-15 0.0010784261 -1.6347681e-14 0.0010768252)
(0.0010846089 3.5449881e-06 5.1511888e-15 0.0010759784 -1.6586901e-14 0.0010740109)
(0.0010853729 3.7405288e-06 -8.8336266e-17 0.0010733341 -1.6470945e-14 0.0010708837)
(0.0010872153 4.0390298e-06 4.0131944e-15 0.0010703521 -2.4001296e-14 0.001067247)
(0.0010906528 4.4970881e-06 1.1634515e-14 0.0010668181 4.6550565e-14 0.0010628092)
(0.0010964882 5.2048527e-06 -1.1369041e-13 0.001062395 -5.8413802e-13 0.0010571233)
(0.0011059946 6.3080911e-06 1.0375662e-12 0.0010565358 5.0324785e-12 0.0010494923)
(0.0011212909 8.0510064e-06 -1.1292352e-11 0.0010483041 -4.7877238e-11 0.0010387768)
(0.0011459854 1.0851065e-05 1.4514582e-10 0.0010360359 5.0398525e-10 0.0010230849)
(0.0011867355 1.5461841e-05 -2.3389587e-09 0.0010164878 -6.2114476e-09 0.00099902899)
(0.0012557271 2.3227487e-05 5.2460405e-08 0.0009830561 9.5850604e-08 0.00096073156)
(0.0013784941 3.9633489e-05 -5.0880386e-09 0.00091860301 -1.7079531e-06 0.00089729426)
(0.0010526305 6.701586e-05 -6.4838097e-06 0.00083144308 -1.3440889e-05 0.0011372347)
(0.0010297233 6.6771866e-05 1.6105432e-05 0.00082505189 0.00012530435 0.0012056315)
(0.0013924713 0.00011538126 -4.7538659e-05 0.00051196763 -0.00038720007 0.0010734681)
(0.0013272934 0.00010350739 -3.8963241e-05 0.00089852258 0.00025477951 0.00094669539)
(0.0010571592 0.00010334619 -5.2708835e-05 0.0011597761 0.00014613174 0.0010195059)
(0.0023912427 0.00011541384 4.9576778e-05 5.8693991e-05 -0.00052868252 0.0017148426)
(0.0013072397 7.7579257e-05 -8.8669059e-05 3.3349604e-06 2.2662482e-05 0.00064806368)
(0.0011853891 2.6451415e-05 -3.9660368e-16 0.0011042432 -6.9421661e-15 0.0010976397)
(0.0011285474 1.1274727e-05 -3.0072088e-16 0.0011246547 -6.6273909e-15 0.0011238349)
(0.0011203308 9.8340189e-06 -2.4536068e-16 0.0011235948 -6.5825552e-15 0.0011231726)
(0.0011131644 9.195353e-06 -1.5901213e-15 0.0011222154 -6.6750213e-15 0.0011220078)
(0.0011065718 8.6859411e-06 -1.5848108e-15 0.0011207413 -6.6963558e-15 0.001120718)
(0.001102476 8.3361484e-06 -2.0121541e-16 0.0011182226 -6.4768284e-15 0.0011182652)
(0.0010998802 8.1077645e-06 -1.9452453e-16 0.0011151313 -6.6102433e-15 0.0011151678)
(0.0010979662 7.9500556e-06 -3.0485644e-15 0.0011118576 -6.8981372e-15 0.0011118573)
(0.0010964952 7.8361245e-06 2.7127854e-15 0.0011085121 -6.5588525e-15 0.0011084579)
(0.0010952801 7.7508324e-06 -1.6713482e-15 0.0011051814 -6.9445388e-15 0.0011050657)
(0.0010941472 7.6829974e-06 -3.2089285e-15 0.0011019459 -7.2050978e-15 0.0011017692)
(0.0010930024 7.6251572e-06 -1.9701234e-16 0.0010988478 -6.9991156e-15 0.001098615)
(0.0010918135 7.5729999e-06 -1.9569326e-16 0.0010958995 -6.9662021e-15 0.0010956165)
(0.0010905809 7.5241575e-06 -1.9414127e-16 0.0010930976 -6.9913075e-15 0.0010927701)
(0.0010893261 7.4774625e-06 -3.4319938e-15 0.0010904284 -7.4519912e-15 0.0010900611)
(0.0010880876 7.432582e-06 -2.0814222e-16 0.0010878699 -7.2636424e-15 0.0010874659)
(0.0010869174 7.3897687e-06 -2.0841416e-16 0.0010853924 -7.3189393e-15 0.0010849525)
(0.0010858832 7.3497178e-06 3.1918546e-15 0.0010829602 -7.1599068e-15 0.0010824831)
(0.0010850722 7.3135423e-06 1.5277345e-15 0.0010805274 -7.2682669e-15 0.0010800084)
(0.0010846015 7.282858e-06 -1.9663225e-15 0.0010780332 -7.5419969e-15 0.0010774641)
(0.0010846338 7.2599588e-06 -2.4960594e-16 0.0010753944 -7.4299494e-15 0.001074762)
(0.0010854028 7.2480538e-06 2.137358e-16 0.0010724928 -8.1436338e-15 0.0010717774)
(0.001087253 7.2515493e-06 -3.980865e-15 0.0010691554 -5.2765181e-15 0.0010683291)
(0.001090704 7.2762318e-06 3.2000648e-14 0.0010651226 -2.0435793e-14 0.0010641467)
(0.0010965632 7.3291544e-06 -2.8261774e-13 0.0010599929 5.3392062e-14 0.0010588159)
(0.0011061127 7.4171795e-06 2.649396e-12 0.0010531304 -2.6893412e-13 0.0010516881)
(0.0011214882 7.5420019e-06 -2.7847969e-11 0.0010434794 3.0727984e-13 0.0010417019)
(0.0011463249 7.68732e-06 3.4501696e-10 0.0010292504 1.8654769e-11 0.0010270903)
(0.0011873101 7.7740759e-06 -5.3095864e-09 0.0010071816 -5.6569121e-10 0.0010046939)
(0.0012566214 7.5295996e-06 1.0350728e-07 0.00097143023 1.5527299e-08 0.00096899883)
(0.0013780854 9.4354491e-06 6.9526511e-08 0.00091183501 -2.3995704e-08 0.00091053381)
(0.0014902978 -3.2243907e-06 -2.0110748e-06 0.00094972502 -1.0376659e-05 0.00092615653)
(0.0012174129 -2.1357454e-05 -1.53552e-05 0.0012730102 -0.00012552006 0.000948258)
(0.0036757595 -3.5345062e-05 -1.0971306e-05 -2.3662202e-05 -0.00026459227 -0.00024007726)
(0.0019992418 -2.2809637e-05 -1.8128063e-05 0.00048590275 -0.00027894915 0.00097787168)
(0.0033967546 -1.8320134e-05 -4.9748541e-05 0.00018991159 0.00012264115 -0.00019925197)
(0.0041601563 -0.00010104304 -6.9541166e-05 -0.00058364464 -7.2822455e-05 5.4646593e-05)
(0.00091028808 1.8166594e-06 -0.00019702107 0.00021979241 -0.00015898584 0.00041414888)
(0.0011805609 4.0718127e-05 -1.3374163e-15 0.0011091311 -5.4760233e-15 0.0010991263)
(0.0011282709 1.8819832e-05 -3.4308475e-16 0.0011254946 -5.1473258e-15 0.0011235669)
(0.0011203614 1.6050455e-05 -2.811269e-16 0.0011240839 -5.0673887e-15 0.0011228688)
(0.0011132285 1.4977989e-05 -2.5724828e-16 0.0011226284 -5.0666805e-15 0.0011216425)
(0.00110665 1.4152116e-05 -2.4239875e-16 0.0011211001 -5.0572483e-15 0.0011202908)
(0.00110256 1.3586265e-05 -1.0609651e-15 0.0011185479 -5.1053071e-15 0.001117834)
(0.0010999668 1.3216536e-05 1.4647418e-15 0.001115437 -4.8586651e-15 0.0011147642)
(0.0010980536 1.2960222e-05 6.3899724e-16 0.0011121506 -5.0283223e-15 0.0011114924)
(0.001096582 1.2773861e-05 -1.0859293e-15 0.0011087973 -5.1794486e-15 0.0011081378)
(0.0010953657 1.2633276e-05 -2.2343193e-16 0.0011054617 -5.2946328e-15 0.0011047922)
(0.0010942315 1.2520723e-05 -2.2624162e-16 0.0011022227 -5.4157294e-15 0.0011015401)
(0.0010930855 1.2424388e-05 -2.1929434e-16 0.0010991217 -5.3214248e-15 0.001098426)
(0.0010918954 1.233743e-05 -2.2035016e-16 0.0010961707 -5.3381644e-15 0.0010954631)
(0.0010906616 1.2256031e-05 -2.2200042e-16 0.0010933661 -5.3556282e-15 0.0010926483)
(0.0010894054 1.2178212e-05 -2.3413836e-16 0.0010906942 -5.6128647e-15 0.0010899677)
(0.0010881654 1.2103277e-05 -2.3598705e-16 0.0010881331 -5.5375594e-15 0.0010873988)
(0.001086993 1.2031447e-05 -2.3753145e-16 0.0010856534 -5.619643e-15 0.0010849113)
(0.0010859558 1.1963651e-05 -2.3519696e-16 0.0010832201 -5.5546862e-15 0.0010824689)
(0.0010851403 1.1901475e-05 -2.3113949e-16 0.0010807877 -5.5841945e-15 0.0010800248)
(0.0010846629 1.1847292e-05 -1.2910937e-15 0.0010782965 -5.9507059e-15 0.0010775173)
(0.0010846853 1.1804552e-05 -3.1476501e-16 0.0010756647 -5.6460721e-15 0.0010748621)
(0.0010854393 1.1778236e-05 -1.6996138e-15 0.001072776 -6.9783664e-15 0.0010719398)
(0.0010872666 1.1775602e-05 -5.6950936e-15 0.0010694605 -1.8681946e-15 0.0010685761)
(0.0010906822 1.1807219e-05 5.5748656e-14 0.001065463 -2.3237213e-14 0.0010645108)
(0.0010964855 1.1888695e-05 -4.8952851e-13 0.0010603876 5.1288808e-14 0.0010593426)
(0.0011059456 1.2042976e-05 4.6144348e-12 0.0010536062 1.4386929e-14 0.0010524393)
(0.0011211762 1.2304437e-05 -4.8852058e-11 0.0010440706 -4.0200668e-12 0.0010427554)
(0.0011457793 1.2725993e-05 6.1160851e-10 0.001029987 7.948765e-11 0.0010285207)
(0.0011864186 1.3388966e-05 -9.4737164e-09 0.0010080202 -1.5121993e-09 0.0010064761)
(0.0012554528 1.435556e-05 1.785046e-07 0.00097187982 3.0382952e-08 0.00097053506)
(0.0013791328 1.6462017e-05 -1.1748894e-06 0.0009076717 -6.2663328e-08 0.00090707003)
(0.0016223603 1.6671566e-05 2.7986838e-06 0.00079971335 1.7406671e-05 0.00070637977)
(0.0016248186 9.7889199e-07 1.8712126e-05 0.0012430469 -3.8121858e-05 0.00025275292)
(0.0040068396 1.5320599e-05 -9.1827331e-06 -0.00012690156 0.00010044852 -0.0006407512)
(0.0014535389 1.414228e-06 -1.4122376e-05 0.0012986706 -0.00011888673 0.00054988266)
(0.0015629347 -8.3124877e-06 -1.9419117e-05 0.00079257256 -0.00030646822 0.00091743912)
(0.0025296258 -9.1423499e-05 -5.9890367e-05 0.00015781586 -0.0002103096 0.0011678064)
(0.00055979001 1.2006889e-05 -0.00010178885 0.00020720782 -8.3469718e-05 0.00019077296)
(0.0011764593 5.3449989e-05 -4.1681505e-16 0.0011134863 -4.0266854e-15 0.0010988492)
(0.0011279052 2.6668617e-05 -3.4980146e-16 0.0011267347 -3.909602e-15 0.0011230285)
(0.0011203856 2.2379912e-05 3.0015665e-16 0.0011248657 -3.6633846e-15 0.0011224626)
(0.0011132972 2.0829983e-05 -2.5950246e-16 0.0011233643 -3.7738521e-15 0.0011212831)
(0.0011067279 1.9681847e-05 -8.3507785e-16 0.0011218342 -3.866477e-15 0.0011199616)
(0.0011026438 1.8897183e-05 9.5530574e-16 0.0011192615 -3.6389578e-15 0.0011175331)
(0.001100056 1.8384693e-05 -2.199897e-16 0.0011161207 -3.6622792e-15 0.0011144876)
(0.0010981471 1.8029248e-05 -2.1919466e-16 0.0011128029 -3.7317001e-15 0.0011112361)
(0.0010966792 1.777049e-05 -2.1931078e-16 0.0011094179 -3.8680901e-15 0.0011078993)
(0.0010954661 1.7575004e-05 -2.2678564e-16 0.0011060513 -3.9371353e-15 0.0011045692)
(0.0010943351 1.7418235e-05 -2.2686687e-16 0.0011027836 -4.0155165e-15 0.0011013303)
(0.001093192 1.7283802e-05 -2.1923363e-16 0.0010996568 -3.9647094e-15 0.0010982277)
(0.0010920044 1.7162223e-05 -2.2127303e-16 0.0010966827 -3.9662367e-15 0.0010952747)
(0.0010907727 1.7048209e-05 -9.1007182e-16 0.0010938575 -4.1508951e-15 0.0010924687)
(0.0010895183 1.6939004e-05 -2.3777403e-16 0.0010911669 -4.1727409e-15 0.0010897959)
(0.0010882795 1.6833611e-05 -1.6525123e-15 0.0010885885 -4.3141056e-15 0.0010872344)
(0.0010871077 1.6732267e-05 -2.4384157e-16 0.0010860921 -4.2350854e-15 0.0010847541)
(0.0010860704 1.6636137e-05 -9.721834e-16 0.0010836419 -4.2922483e-15 0.0010823189)
(0.0010852539 1.6547221e-05 -2.4080929e-16 0.0010811915 -4.2429206e-15 0.0010798827)
(0.0010847744 1.6468497e-05 -2.3669605e-16 0.0010786799 -4.5727725e-15 0.0010773841)
(0.0010847931 1.6404257e-05 4.1077947e-16 0.001076024 -3.9871256e-15 0.0010747396)
(0.0010855411 1.6360649e-05 8.8249143e-16 0.0010731056 -6.0289336e-15 0.0010718307)
(0.0010873589 1.6346538e-05 -9.9908956e-15 0.0010697524 2.277393e-15 0.0010684845)
(0.0010907593 1.6374636e-05 8.285157e-14 0.0010657067 -3.3123091e-14 0.0010644421)
(0.0010965389 1.6463316e-05 -7.1924036e-13 0.0010605703 8.6602981e-14 0.0010593046)
(0.0011059604 1.6638631e-05 6.7767552e-12 0.0010537146 1.1731519e-13 0.0010524426)
(0.0011211264 1.6937512e-05 -7.205512e-11 0.0010440979 -8.1202639e-12 0.0010428142)
(0.0011456134 1.7410484e-05 9.0754985e-10 0.0010299554 1.566534e-10 0.0010286573)
(0.0011860212 1.8121194e-05 -1.4047835e-08 0.0010080497 -2.9430076e-09 0.0010067431)
(0.0012545009 1.9049924e-05 2.5867759e-07 0.00097242409 5.6478016e-08 0.00097115432)
(0.001375915 2.0622464e-05 -3.2124359e-06 0.0009111386 -4.6398315e-07 0.00091000366)
(0.0015924971 1.6603223e-05 1.062527e-05 0.00084806639 1.1571524e-05 0.00075790818)
(0.0021516952 -1.8811162e-05 5.0727434e-05 0.0010885426 2.0831508e-05 -6.7233868e-05)
(0.0039981578 2.052005e-06 2.7003162e-05 -0.00034642799 6.2653751e-05 -0.00047906442)
(0.0018993818 1.9344965e-05 -1.5404844e-05 0.0012042322 -6.8200773e-05 0.00012448595)
(0.0012582193 -7.6759675e-06 -1.5300719e-05 0.0013179763 -0.0001188768 0.00068370961)
(0.0016702345 -0.00012648873 -7.840997e-05 0.00093614547 -0.00030821583 0.0011710014)
(0.00060293496 2.3293462e-05 -0.00010685038 0.00026384395 -7.3769011e-05 0.00020339062)
(0.001172734 6.4784551e-05 -3.707553e-16 0.0011186508 -3.1040456e-15 0.0010981097)
(0.0011274712 3.4605842e-05 -1.252679e-15 0.0011283828 -3.3001018e-15 0.0011222749)
(0.0011204053 2.8758304e-05 -7.3833041e-16 0.0011259128 -3.021801e-15 0.001121918)
(0.0011133904 2.6697686e-05 -2.590494e-16 0.0011242629 -2.9614977e-15 0.0011208153)
(0.0011068385 2.5225591e-05 -2.484973e-16 0.0011226622 -3.0554152e-15 0.0011195454)
(0.001102764 2.4223432e-05 -6.8814676e-16 0.0011200433 -2.9802434e-15 0.0011171572)
(0.0011001834 2.3569078e-05 -2.1843254e-16 0.00111687 -2.874301e-15 0.0011141416)
(0.0010982797 2.3115186e-05 -2.1939935e-16 0.0011135279 -2.9406517e-15 0.0011109131)
(0.0010968154 2.2784687e-05 2.6848424e-16 0.0011101241 -2.9562207e-15 0.0011075951)
(0.0010956054 2.2534937e-05 -2.2567249e-16 0.0011067423 -3.0873436e-15 0.0011042805)
(0.001094477 2.2334509e-05 -2.2745254e-16 0.0011034616 -3.2192572e-15 0.0011010545)
(0.0010933361 2.2162396e-05 -2.1605647e-16 0.0011003234 -3.1459339e-15 0.0010979629)
(0.0010921503 2.200646e-05 -7.4249218e-16 0.0010973392 -3.2179916e-15 0.0010950195)
(0.0010909201 2.1859982e-05 3.0008337e-16 0.0010945046 -3.1897148e-15 0.001092222)
(0.0010896666 2.171951e-05 -7.7824499e-16 0.0010918054 -3.3871076e-15 0.0010895571)
(0.0010884282 2.158383e-05 -2.4779409e-16 0.001089219 -3.3806279e-15 0.0010870028)
(0.0010872562 2.1453269e-05 -2.4472454e-16 0.0010867152 -3.353311e-15 0.0010845296)
(0.0010862178 2.1329284e-05 -2.4831398e-16 0.001084258 -3.4567676e-15 0.0010821017)
(0.0010853993 2.1214339e-05 3.3375342e-16 0.0010818012 -3.306243e-15 0.001079673)
(0.0010849162 2.1112091e-05 1.5403711e-15 0.0010792839 -3.4557319e-15 0.0010771829)
(0.0010849291 2.1027815e-05 -1.6161074e-15 0.0010766231 -3.1001393e-15 0.0010745483)
(0.0010856681 2.0969079e-05 1.3277443e-15 0.0010737014 -5.7264037e-15 0.0010716518)
(0.0010874721 2.0946778e-05 -1.3567509e-14 0.0010703472 5.905467e-15 0.0010683217)
(0.0010908512 2.0976504e-05 1.1113028e-13 0.001066304 -4.231955e-14 0.0010643014)
(0.0010965971 2.1080758e-05 -9.6870765e-13 0.0010611761 1.0206635e-13 0.0010591951)
(0.0011059645 2.129125e-05 9.1275065e-12 0.0010543391 4.5776281e-13 0.0010523789)
(0.0011210409 2.1652968e-05 -9.7257865e-11 0.0010447583 -1.5275711e-11 0.0010428204)
(0.0011453739 2.2226974e-05 1.2268116e-09 0.0010306825 2.782455e-10 0.0010287739)
(0.0011855066 2.3094016e-05 -1.8845657e-08 0.0010088981 -5.1090189e-09 0.0010070405)
(0.0012534869 2.4242728e-05 3.3924998e-07 0.00097347609 9.5540502e-08 0.00097174803)
(0.0013741054 2.5880675e-05 -5.3145378e-06 0.00091222899 -1.0720643e-06 0.00091093882)
(0.0016085964 1.8953233e-05 1.9228533e-05 0.00081490484 5.9002667e-06 0.00077566179)
(0.0023640984 -2.2899776e-05 8.1541733e-05 0.00077326828 1.0063649e-05 3.375836e-05)
(0.0041365207 8.8913077e-06 6.0021444e-05 -0.0003594262 -3.4760777e-05 -0.00053445792)
(0.0025212609 3.6882134e-05 -9.384463e-06 0.00096228488 -3.3858591e-05 -0.00020620893)
(0.0015595413 6.1918376e-06 -2.2775127e-05 0.0013161964 -9.694019e-05 0.00038133243)
(0.0015653576 -0.00014733608 -8.0152081e-05 0.0012019179 -0.00028012676 0.0009804954)
(0.00084950359 4.7244049e-05 -0.00013356372 0.00044349432 -7.8310056e-05 0.00027627918)
(0.001168529 7.7326062e-05 -8.0577445e-16 0.0011253276 -2.4807473e-15 0.0010967361)
(0.0011268568 4.4778435e-05 -8.1251926e-16 0.0011310268 -2.740968e-15 0.0011209558)
(0.0011204175 3.70167e-05 1.7396515e-16 0.001127689 -2.3096785e-15 0.0011210137)
(0.0011135312 3.4256928e-05 -2.5609653e-16 0.0011257654 -2.3044824e-15 0.0011200562)
(0.0011070106 3.2365959e-05 2.2171215e-16 0.0011240361 -2.2688333e-15 0.001118881)
(0.0011029521 3.1088055e-05 -2.2022011e-16 0.0011213388 -2.2847163e-15 0.0011165611)
(0.0011003835 3.0254173e-05 -6.9244617e-16 0.0011181125 -2.345681e-15 0.0011135925)
(0.0010984885 2.9675522e-05 -2.1828124e-16 0.0011147312 -2.303148e-15 0.001110398)
(0.0010970305 2.9253985e-05 -2.0973292e-16 0.0011112975 -2.291349e-15 0.0011071059)
(0.0010958255 2.8935341e-05 -2.2596244e-16 0.0011078921 -2.40655e-15 0.0011038115)
(0.0010947014 2.8679536e-05 7.9989715e-16 0.0011045918 -2.3035957e-15 0.0011006018)
(0.001093564 2.8459757e-05 -2.0744211e-16 0.0011014366 -2.4341343e-15 0.0010975236)
(0.0010923812 2.8260522e-05 -2.2019934e-16 0.0010984371 -2.514027e-15 0.0010945919)
(0.0010911531 2.8073275e-05 -1.3033276e-15 0.0010955886 -2.705971e-15 0.0010918049)
(0.0010899012 2.7893624e-05 -2.4147675e-16 0.0010928764 -2.6529098e-15 0.0010891495)
(0.0010886635 2.772003e-05 -2.4728363e-16 0.0010902778 -2.658774e-15 0.0010866043)
(0.0010874914 2.7552922e-05 -2.4686119e-16 0.0010877626 -2.6535007e-15 0.0010841398)
(0.0010864518 2.7394183e-05 3.3180754e-16 0.0010852946 -2.5951023e-15 0.0010817204)
(0.0010856305 2.7247e-05 -2.4460908e-16 0.0010828277 -2.6320347e-15 0.0010793005)
(0.0010851428 2.7116104e-05 3.9419838e-16 0.0010803013 -2.6670921e-15 0.0010768196)
(0.0010851484 2.7008326e-05 -1.1206489e-15 0.0010776328 -2.3551249e-15 0.0010741952)
(0.0010858761 2.6933458e-05 2.0302237e-15 0.0010747052 -5.1149565e-15 0.0010713105)
(0.0010876627 2.6905604e-05 -1.8923754e-14 0.001071348 6.6372442e-15 0.0010679949)
(0.001091015 2.6944934e-05 1.5273543e-13 0.0010673066 -3.4849977e-14 0.0010639937)
(0.0010967189 2.7080563e-05 -1.3252418e-12 0.0010621878 -7.4078862e-16 0.0010589141)
(0.0011060189 2.7353516e-05 1.2430192e-11 0.0010553722 1.7689002e-12 0.0010521378)
(0.0011209844 2.7822413e-05 -1.3225284e-10 0.0010458337 -3.2442186e-11 0.0010426419)
(0.0011451272 2.856603e-05 1.6608588e-09 0.0010318369 5.3204066e-10 0.0010287006)
(0.0011849188 2.9693455e-05 -2.5023418e-08 0.0010102012 -9.3707551e-09 0.0010071547)
(0.0012522563 3.12068e-05 4.3165608e-07 0.00097506058 1.6803235e-07 0.00097221951)
(0.0013714497 3.2843818e-05 -7.3767456e-06 0.00091438654 -2.1054008e-06 0.00091228073)
(0.0015869258 1.971893e-05 2.741662e-05 0.00079237038 -3.902178e-06 0.00082499152)
(0.0022610404 -2.7199333e-05 9.6373954e-05 0.00041383949 -2.8465822e-05 0.00055763358)
(0.0040402352 2.2116916e-05 9.6055782e-05 -0.0005302958 -0.00013525053 -0.00019438213)
(0.0031720906 5.8462721e-05 1.8820694e-05 0.00052860088 -3.9748086e-05 -0.00044172571)
(0.0021005935 2.0974878e-05 -3.169056e-05 0.0011327443 -8.3009154e-05 2.5446353e-05)
(0.0017772262 -0.00016774986 -7.3854372e-05 0.0012271812 -0.00029878651 0.0007303315)
(0.0012340029 2.7018599e-05 -0.00017211831 0.00069587837 -7.1812799e-05 0.00032561)
(0.0011642271 9.1068948e-05 -2.5573838e-16 0.00113334 -1.7145182e-15 0.0010947742)
(0.0011260303 5.7357606e-05 -3.1156364e-17 0.0011352093 -2.075346e-15 0.0011188471)
(0.001120422 4.7511287e-05 4.7852581e-17 0.0011305791 -1.7488574e-15 0.0011195636)
(0.0011137589 4.3858595e-05 -2.495088e-16 0.0011282155 -1.7948489e-15 0.0011188335)
(0.0011072956 4.1440421e-05 -2.3250991e-16 0.0011262863 -1.782689e-15 0.0011177995)
(0.0011032651 3.982168e-05 -2.1225393e-16 0.0011234644 -1.7595332e-15 0.0011155845)
(0.0011007168 3.8766325e-05 -2.1491617e-16 0.0011201518 -1.8010758e-15 0.001112691)
(0.0010988362 3.8033189e-05 -2.1340913e-16 0.0011167059 -1.7971861e-15 0.0011095521)
(0.0010973886 3.7498284e-05 -5.4835819e-16 0.0011132218 -1.8929628e-15 0.0011063038)
(0.0010961918 3.7093302e-05 -2.2206962e-16 0.0011097758 -1.8558606e-15 0.0011030447)
(0.0010950743 3.6767696e-05 5.0436772e-16 0.0011064414 -1.5901006e-15 0.001099864)
(0.0010939424 3.6487592e-05 -1.9898778e-16 0.0011032566 -1.8684403e-15 0.0010968104)
(0.0010927639 3.6233431e-05 -2.149993e-16 0.0011002306 -1.9519689e-15 0.0010939)
(0.0010915391 3.5994382e-05 -2.2900944e-16 0.0010973579 -2.0498784e-15 0.0010911319)
(0.0010902893 3.5764851e-05 -2.3672969e-16 0.0010946231 -2.0602202e-15 0.0010884939)
(0.0010890527 3.5542832e-05 -2.4542533e-16 0.0010920032 -2.0868148e-15 0.001085965)
(0.0010878804 3.5328822e-05 -2.4821972e-16 0.0010894675 -2.1364742e-15 0.0010835163)
(0.001086839 3.5125181e-05 -2.3705796e-16 0.00108698 -2.0407732e-15 0.0010811125)
(0.0010860141 3.4935942e-05 -2.4509939e-16 0.0010844941 -2.068413e-15 0.0010787085)
(0.0010855201 3.4767098e-05 -1.7605137e-16 0.0010819494 -2.1037766e-15 0.0010762446)
(0.0010855161 3.4627282e-05 -6.5623586e-16 0.0010792633 -1.7376263e-15 0.0010736392)
(0.0010862289 3.452882e-05 3.073135e-15 0.0010763192 -4.2917737e-15 0.0010707767)
(0.001087993 3.4489405e-05 -2.6651403e-14 0.0010729471 4.9787191e-15 0.0010674886)
(0.0010913107 3.4534233e-05 2.1289073e-13 0.0010688935 -1.1907508e-14 0.0010635232)
(0.0010969608 3.4699584e-05 -1.8236394e-12 0.0010637676 -2.2745073e-13 0.0010584927)
(0.0011061751 3.5036229e-05 1.6993585e-11 0.001056954 4.2452934e-12 0.0010517865)
(0.0011210002 3.5616636e-05 -1.7947082e-10 0.0010474354 -6.2849756e-11 0.0010423954)
(0.0011449033 3.6536036e-05 2.2120846e-09 0.001033494 9.6029475e-10 0.0010286181)
(0.001184267 3.7929486e-05 -3.1777583e-08 0.0010119894 -1.595657e-08 0.0010073409)
(0.0012507859 3.9803271e-05 5.0087438e-07 0.00097714884 2.6293557e-07 0.00097287929)
(0.0013676688 4.1843015e-05 -8.0788859e-06 0.00091756778 -3.1337866e-06 0.00091413515)
(0.0015245428 2.9055651e-05 3.0202231e-05 0.00082800708 -1.587775e-05 0.00085286038)
(0.0015298952 -4.6929001e-05 5.5583831e-05 0.00066071945 0.00024662821 0.0010651522)
(0.0019176376 -8.6806559e-06 5.3687926e-05 0.0002517829 0.00019216605 0.0010850229)
(0.0037713636 6.5004668e-05 7.5304948e-05 -0.00019390937 -0.00013580102 -0.00018618225)
(0.0032440843 6.2153186e-05 -3.1111715e-05 0.00037212616 -0.00015584165 -0.00029418161)
(0.0021743198 -0.00016046885 -5.3637929e-05 0.0010812268 -0.00030861176 0.00040021007)
(0.0016887258 -4.677076e-05 -0.00019762991 0.00089134709 -4.8985674e-05 0.00028362402)
(0.0011603896 0.00010406259 -6.7414814e-16 0.0011418601 -1.4506727e-15 0.0010924021)
(0.0011251264 7.082215e-05 -3.1540647e-16 0.0011407888 -1.6883715e-15 0.0011160159)
(0.0011204293 5.9234772e-05 -4.7817371e-16 0.0011346362 -1.4972747e-15 0.0011175345)
(0.001114078 5.4632721e-05 -2.4419749e-16 0.0011316662 -1.439499e-15 0.0011171208)
(0.0011077022 5.1636425e-05 3.8086524e-18 0.0011294567 -1.3378258e-15 0.0011162832)
(0.0011037128 4.9649649e-05 -2.0300806e-16 0.0011264619 -1.3802682e-15 0.0011142113)
(0.0011011935 4.8356538e-05 -4.4568665e-16 0.0011230297 -1.5328988e-15 0.0011114195)
(0.0010993335 4.7457266e-05 -2.0866349e-16 0.0011194951 -1.4279734e-15 0.0011083559)
(0.0010979006 4.6800056e-05 -2.0820288e-16 0.0011159418 -1.5189913e-15 0.0011051669)
(0.0010967152 4.6301638e-05 -4.6181062e-16 0.0011124397 -1.5711865e-15 0.0011019557)
(0.0010956071 4.5900167e-05 -1.9079671e-16 0.001109058 -1.3236013e-15 0.0010988144)
(0.0010944825 4.5554113e-05 -1.9105323e-16 0.001105832 -1.4498477e-15 0.0010957941)
(0.0010933098 4.5239515e-05 -4.7072027e-16 0.0011027692 -1.63426e-15 0.0010929128)
(0.0010920893 4.4943138e-05 -2.2364503e-16 0.0010998628 -1.6416338e-15 0.0010901707)
(0.0010908423 4.4658157e-05 -7.688868e-16 0.0010970964 -1.7825526e-15 0.0010875566)
(0.001089607 4.4382141e-05 -2.4679945e-16 0.0010944466 -1.7002017e-15 0.00108505)
(0.0010884345 4.4115732e-05 3.118871e-16 0.0010918824 -1.5815494e-15 0.0010826228)
(0.001087391 4.3861872e-05 -2.3299946e-16 0.001089367 -1.6497837e-15 0.0010802402)
(0.0010865617 4.3625571e-05 -2.4584748e-16 0.0010868541 -1.6698203e-15 0.0010778576)
(0.0010860604 4.3414263e-05 -1.4676759e-16 0.001084283 -1.7129472e-15 0.0010754162)
(0.001086045 4.3238635e-05 -1.1428892e-15 0.0010815714 -1.4219047e-15 0.0010728353)
(0.0010867407 4.3113914e-05 3.7919178e-15 0.0010786027 -3.6582919e-15 0.0010700011)
(0.0010884788 4.3061912e-05 -3.637461e-14 0.0010752079 1.5616735e-15 0.0010667471)
(0.0010917571 4.3113634e-05 2.8797215e-13 0.0010711345 2.5377919e-14 0.0010628252)
(0.0010973462 4.3313668e-05 -2.4315039e-12 0.0010659943 -5.9051104e-13 0.001057853)
(0.0011064637 4.3724213e-05 2.2423305e-11 0.0010591767 8.1497833e-12 0.0010512292)
(0.0011211307 4.4434251e-05 -2.3274732e-10 0.0010496738 -1.0971962e-10 0.00104196)
(0.0011447646 4.5559375e-05 2.7610167e-09 0.0010357873 1.5831257e-09 0.001028372)
(0.0011836483 4.7267701e-05 -3.6641372e-08 0.0010144207 -2.4370944e-08 0.0010074042)
(0.0012492657 4.9586339e-05 5.0467537e-07 0.00097988916 3.5760872e-07 0.00097348288)
(0.0013634684 5.2966762e-05 -6.8905685e-06 0.00092161445 -3.728278e-06 0.00091596278)
(0.0014909818 4.7758316e-05 2.8092895e-05 0.00087073918 -1.916015e-05 0.00083806924)
(0.0011668334 -6.7882463e-06 1.4066551e-05 0.0011298064 0.00016911098 0.00089882915)
(0.0011566692 -2.157043e-05 2.4863319e-05 0.00095937765 0.00018048704 0.0010651269)
(0.0018028056 -5.273252e-06 4.4524283e-05 0.00048273375 0.00028746383 0.0010054701)
(0.0023764605 6.5092223e-05 1.8877838e-06 0.00018464363 0.00024898914 0.00079777704)
(0.002778014 -0.00014107664 -1.9468029e-05 0.00069358038 -0.0003194161 0.00014661067)
(0.0021673923 -0.00012794915 -0.00016747045 0.00090040825 -1.636168e-05 0.00015345889)
(0.0011568852 0.00011596501 -1.5762228e-16 0.0011508037 -9.3622665e-16 0.0010899826)
(0.0011242422 8.502762e-05 -2.9241718e-16 0.0011478529 -1.3874698e-15 0.0011124133)
(0.0011204727 7.2191318e-05 -2.4687098e-16 0.0011401527 -1.2217125e-15 0.0011148063)
(0.0011145216 6.6668067e-05 -2.3264623e-16 0.0011364134 -1.1517114e-15 0.0011147944)
(0.0011082714 6.3063397e-05 -2.122186e-16 0.001133823 -1.1121176e-15 0.0011142156)
(0.0011043405 6.0689008e-05 -1.9564132e-16 0.0011305949 -1.1041064e-15 0.0011123317)
(0.0011018614 5.9146912e-05 -2.0349946e-16 0.0011270017 -1.1791821e-15 0.0011096733)
(0.0011000296 5.8073142e-05 -5.4595165e-16 0.0011233471 -1.2656609e-15 0.001106709)
(0.001098617 5.7286649e-05 1.5275491e-16 0.0011196998 -1.0798197e-15 0.0011035984)
(0.0010974473 5.6688765e-05 -2.0866891e-16 0.0011161211 -1.2457539e-15 0.0011004507)
(0.0010963516 5.6205845e-05 1.7757635e-16 0.0011126749 -9.770192e-16 0.0010973618)
(0.001095237 5.5788291e-05 -5.5437162e-16 0.0011093926 -1.2763463e-15 0.0010943861)
(0.0010940718 5.5407535e-05 -2.1090106e-16 0.0011062792 -1.3106735e-15 0.0010915439)
(0.0010928568 5.5047865e-05 -2.1711365e-16 0.0011033264 -1.3319435e-15 0.0010888369)
(0.0010916135 5.4701231e-05 -2.3373441e-16 0.0011005167 -1.3998071e-15 0.0010862549)
(0.0010903798 5.4364835e-05 -4.2865437e-17 0.0010978257 -1.3183222e-15 0.0010837785)
(0.0010892071 5.4039549e-05 -2.8366794e-17 0.0010952221 -1.2672863e-15 0.0010813803)
(0.001088161 5.3728994e-05 -2.3033257e-16 0.0010926686 -1.3642023e-15 0.0010790261)
(0.0010873263 5.343927e-05 -3.8887293e-17 0.0010901186 -1.3148636e-15 0.001076672)
(0.0010868164 5.3179382e-05 -1.092609e-16 0.0010875114 -1.425374e-15 0.0010742602)
(0.0010867875 5.2962234e-05 -1.0911119e-15 0.0010847646 -1.1373182e-15 0.0010717113)
(0.0010874632 5.2806169e-05 6.5376087e-15 0.0010817622 -2.408491e-15 0.0010689132)
(0.0010891715 5.273742e-05 -4.8475047e-14 0.0010783356 -4.4523308e-15 0.001065702)
(0.0010924046 5.2793197e-05 3.7829556e-13 0.0010742338 8.3353604e-14 0.0010618339)
(0.0010979244 5.3026967e-05 -3.1523646e-12 0.0010690711 -1.1430644e-12 0.0010569327)
(0.0011069325 5.351309e-05 2.854448e-11 0.001062242 1.3923072e-11 0.0010504079)
(0.0011214213 5.4358078e-05 -2.8662767e-10 0.0010527484 -1.7574532e-10 0.0010412838)
(0.0011447532 5.5698849e-05 3.1833711e-09 0.0010389124 2.3740217e-09 0.0010279202)
(0.0011830991 5.7737319e-05 -3.7412967e-08 0.0010176845 -3.3015143e-08 0.0010073173)
(0.0012477573 6.0536988e-05 4.2214118e-07 0.00098344836 4.1726398e-07 0.00097401191)
(0.0013595515 6.5444463e-05 -4.2475438e-06 0.00092629163 -3.5697403e-06 0.00091761516)
(0.0015053606 7.2577578e-05 2.2175258e-05 0.00087801101 -1.4248428e-05 0.00081835138)
(0.0012593616 3.1512605e-05 4.5500766e-06 0.0012230047 0.00015057092 0.00069417044)
(0.0011307665 -4.4570139e-06 1.3391955e-05 0.0011493898 0.0001575523 0.000925148)
(0.0012592858 -1.4427145e-05 2.6516472e-05 0.0010164068 0.00021840971 0.00092793251)
(0.0014389915 7.0489268e-06 2.6095847e-05 0.00089894607 0.00027798648 0.00087666386)
(0.0032535839 -0.00014683915 3.5626316e-05 0.00011788895 -1.0765011e-05 0.00028404966)
(0.0025483846 -0.00018338624 -5.2751008e-06 0.00076600283 8.198965e-05 6.267125e-05)
(0.0011545312 0.00012695438 -1.3566247e-16 0.0011597389 -7.419465e-16 0.0010876184)
(0.0011235542 9.9778343e-05 -2.1685731e-17 0.0011564595 -9.9213454e-16 0.0011080692)
(0.0011206136 8.6334932e-05 -2.185571e-16 0.0011474251 -9.6914005e-16 0.0011112832)