0 	0.07279040927 	-4.943553979e-15 	-1.796851026e-21 	3.357410157e-28 	1.220329729e-34 	4.435575569e-41
0.001897455474 	0.0726974436 	-0.0001432349358 	-7.120077141e-07 	0.09267791972 	-7.810744632e-05 	0.0001766698735
0.003794892374 	0.072648377 	-0.0008727613421 	2.475091862e-07 	0.09344191143 	-7.872133386e-05 	0.000178126254
0.005692310628 	0.07266913769 	-0.001370755218 	6.079033514e-07 	0.09358168922 	-7.775702397e-05 	0.0001783927093
0.007589710222 	0.0726323649 	-0.001838482515 	8.534543309e-07 	0.09372457968 	-7.673411651e-05 	0.0001786650983
0.009487091198 	0.07259819378 	-0.002364556585 	1.095771893e-06 	0.09386183421 	-7.566268703e-05 	0.0001789267435
0.01240800929 	0.07254386384 	-0.003036898792 	1.38346654e-06 	0.09407982663 	-7.401536912e-05 	0.0001793422977
0.01570810102 	0.07246179694 	-0.003842758992 	1.718458216e-06 	0.09441921262 	-7.226849131e-05 	0.0001799892617
0.01943658229 	0.07234507324 	-0.004755645317 	2.079597404e-06 	0.09489394406 	-7.039984643e-05 	0.0001808942318
0.02367094077 	0.07218291174 	-0.005787262563 	2.456157509e-06 	0.09554794164 	-6.837598367e-05 	0.000182140933
0.02846027043 	0.07196132864 	-0.006950994657 	2.842553365e-06 	0.09643493583 	-6.621514297e-05 	0.0001838317904
0.03387129226 	0.0716612745 	-0.00826299766 	3.234885309e-06 	0.09762214239 	-6.391400966e-05 	0.0001860949361
0.03998469373 	0.07125969848 	-0.009742087906 	3.62413882e-06 	0.09919214441 	-6.144785791e-05 	0.0001890877963
0.04692959072 	0.07072380774 	-0.01141208988 	3.996776353e-06 	0.1012503343 	-5.874157977e-05 	0.0001930112782
0.05477825357 	0.07000136873 	-0.01328963835 	4.328968798e-06 	0.1039346812 	-5.579783373e-05 	0.0001981283896
0.06366252918 	0.06887480097 	-0.0156055859 	4.659580479e-06 	0.1078155719 	-5.277691198e-05 	0.0002055264458
0.07713370694 	0.06706237453 	-0.01853379935 	4.733421914e-06 	0.1135701101 	-4.751141458e-05 	0.0002164961951
0.09161486344 	0.06448317055 	-0.021749068 	4.477409821e-06 	0.121016154 	-4.142600053e-05 	0.0002306904242
0.1071709409 	0.0612014121 	-0.02493218536 	3.892361457e-06 	0.1295398697 	-3.353057534e-05 	0.0002469389954
0.1238870721 	0.05759349403 	-0.02792019998 	2.864585165e-06 	0.138171096 	-2.366049395e-05 	0.0002633925117
0.1418521582 	0.05487778898 	-0.03057259669 	1.753427819e-06 	0.144742641 	-1.221964263e-05 	0.000275919703
0.1611593353 	0.05428723636 	-0.03301573985 	3.711848659e-07 	0.1468407987 	-2.194252053e-06 	0.0002799193746
0.1663236545 	0.05434048608 	-0.03350830902 	2.506957495e-05 	0.146358529 	-0.0002287668053 	0.0002790000345
0.1819064892 	0.05449910067 	-0.03499306503 	1.052671759e-06 	0.1449030328 	-6.600755591e-06 	0.0002762254543
0.2041968131 	0.05365114771 	-0.0360570157 	2.518615354e-06 	0.1397856798 	-1.371732261e-05 	0.0002664703572
0.2281394077 	0.0511874391 	-0.03580934319 	3.727950134e-06 	0.1303671436 	-1.782905501e-05 	0.0002485160094
0.2538499191 	0.04633728908 	-0.03347265812 	4.00793992e-06 	0.1151886642 	-1.715787051e-05 	0.0002195816091
0.2814521981 	0.03826950186 	-0.02817931881 	2.282827187e-06 	0.09274025147 	-1.045641884e-05 	0.0001767886951
0.3110878587 	0.02663742161 	-0.0192323379 	-9.003944752e-07 	0.06307696516 	4.717214593e-08 	0.0001202422269
0.3428858929 	0.01459596673 	-0.009218594048 	-1.868075197e-06 	0.03211928401 	5.230537625e-06 	6.122828242e-05
0.3770024796 	0.008222109625 	-0.003118935794 	-2.082102813e-07 	0.01280229672 	2.242123498e-06 	2.440473576e-05
0.4135933852 	0.007173293898 	-0.00080023864 	9.149766143e-07 	0.007298484142 	1.333589183e-07 	1.391293928e-05
0.4528269635 	0.007350742819 	0.0002850377083 	1.397263023e-06 	0.006872523347 	7.592796306e-07 	1.310093962e-05
0.4948837842 	0.00773774526 	0.0008825267788 	1.515298155e-06 	0.007551919556 	1.22033949e-06 	1.439605762e-05
0.5369652409 	0.008018195849 	0.001478544461 	1.182724548e-06 	0.008408415633 	1.542496526e-06 	1.602877719e-05
0.5762689992 	0.00816306538 	0.002017065905 	7.320660345e-07 	0.009299267854 	1.672583926e-06 	1.772698913e-05
0.6129728545 	0.008191273093 	0.002468329847 	2.810400349e-07 	0.01014245456 	1.651409202e-06 	1.933433735e-05
0.647245611 	0.008130023942 	0.002833040528 	-1.198386161e-07 	0.01090802356 	1.521159739e-06 	2.079372464e-05
0.6792465651 	0.008012428839 	0.003117739688 	-4.267563918e-07 	0.01158784696 	1.35343065e-06 	2.208965698e-05
0.7091254687 	0.007872029267 	0.003335570402 	-6.160926167e-07 	0.01219130074 	1.230677861e-06 	2.324000761e-05
0.7370223283 	0.00773561306 	0.003509777456 	-6.843620058e-07 	0.01275179876 	1.225522683e-06 	2.430847262e-05
0.7630684005 	0.00761265396 	0.003667630508 	-6.96241987e-07 	0.01334822624 	1.387087341e-06 	2.544542916e-05
0.7873862966 	0.007499876006 	0.003843545192 	-6.545853099e-07 	0.01409569839 	1.621752124e-06 	2.687031882e-05
0.8100905866 	0.007356626875 	0.004095982975 	-5.356246528e-07 	0.01517126562 	2.019037244e-06 	2.892064891e-05
0.8312882979 	0.007389950065 	0.004385388919 	-6.374416787e-07 	0.01649199974 	1.617472322e-06 	3.143833522e-05
0.8510793781 	0.007851690427 	0.004691400157 	-5.575317406e-07 	0.01800449904 	1.405215368e-06 	3.432157926e-05
0.8695571553 	0.00869723866 	0.005143267602 	-5.42255943e-08 	0.02006298215 	2.539668536e-06 	3.82456202e-05
0.8868087717 	0.009882398919 	0.005811633858 	4.249020322e-07 	0.02289697175 	4.054244823e-06 	4.364799204e-05
0.9029155904 	0.01137445601 	0.006665318017 	8.191557237e-07 	0.02644126578 	5.571888234e-06 	5.040440154e-05
0.9179535776 	0.01300869856 	0.007600473771 	9.411767788e-07 	0.03032908812 	6.086033751e-06 	5.781567149e-05
0.931993659 	0.01434854575 	0.008358136686 	6.259632528e-07 	0.03355373393 	4.880399317e-06 	6.396274264e-05
0.9412842046 	0.01506240403 	0.008747458261 	6.202240916e-08 	0.03532937791 	2.611301948e-06 	6.734761359e-05
0.9495071555 	0.01521110682 	0.008809710631 	-5.237300944e-07 	0.03578251384 	1.678005003e-07 	6.821141661e-05
0.9567851912 	0.01489678447 	0.008606390388 	-1.042976158e-06 	0.03514718934 	-2.079690633e-06 	6.700031153e-05
0.9632268937 	0.01419849568 	0.008183128893 	-1.415093029e-06 	0.03360078932 	-3.78937921e-06 	6.40524433e-05
0.9689283675 	0.01321629713 	0.007598581345 	-1.601595234e-06 	0.03136992326 	-4.802192124e-06 	5.979979256e-05
0.973974674 	0.01204720623 	0.006910512414 	-1.594537084e-06 	0.02867405758 	-5.084218651e-06 	5.466072329e-05
0.9784410995 	0.01076491681 	0.006162402113 	-1.411957981e-06 	0.02567961487 	-4.704809525e-06 	4.895248322e-05
0.9823942794 	0.009398268203 	0.005369153253 	-1.09378411e-06 	0.02245269054 	-3.822475887e-06 	4.280106858e-05
0.9858931917 	0.00791209344 	0.004514822568 	-7.195798133e-07 	0.01890551259 	-2.643985177e-06 	3.603916151e-05
0.9889900372 	0.006312477231 	0.003641729292 	-4.105656032e-07 	0.0150070361 	-1.520020685e-06 	2.860758179e-05
0.991001674 	0.004646389329 	0.002724431449 	-1.735425318e-07 	0.01095647077 	-6.545280848e-07 	2.088607847e-05
0.9930133109 	0.002845237732 	0.001476488949 	4.01682026e-08 	0.006010427046 	2.516295844e-08 	1.145754446e-05
0.9950249478 	0.001042562544 	0.0003707877087 	7.482257897e-08 	0.001648746246 	1.703876019e-07 	3.14296859e-06
0.9970365847 	9.688701534e-05 	1.134973607e-05 	5.603033978e-09 	0.000102878196 	6.878537786e-09 	1.961144351e-07
0.9990482216 	7.112096682e-07 	6.765874767e-09 	5.21183251e-12 	7.099811275e-07 	2.760945926e-11 	1.353421358e-09
0.9990482216 	7.112096682e-07 	6.765874767e-09 	5.21183251e-12 	7.099811275e-07 	2.760945926e-11 	1.353421358e-09
