/*--------------------------------*- C++ -*----------------------------------*\
  =========                 |
  \\      /  F ield         | OpenFOAM: The Open Source CFD Toolbox
   \\    /   O peration     | Website:  https://openfoam.org
    \\  /    A nd           | Version:  7
     \\/     M anipulation  |
\*---------------------------------------------------------------------------*/
FoamFile
{
    version     2.0;
    format      ascii;
    class       volScalarField;
    location    "2000";
    object      k;
}
// * * * * * * * * * * * * * * * * * * * * * * * * * * * * * * * * * * * * * //

dimensions      [0 2 -2 0 0 0 0];

internalField   nonuniform List<scalar> 
15296
(
0.0016937273
0.0016882293
0.0016829773
0.0016779172
0.0016730106
0.0016682395
0.0016635928
0.0016590622
0.0016546405
0.0016503213
0.0016460989
0.0016419683
0.0016379251
0.0016339655
0.0016300859
0.0016262832
0.0016225534
0.0016188946
0.0016153022
0.0016117819
0.0016083412
0.001604727
0.0016012018
0.0015998707
0.0015883358
0.0015732333
0.0015622065
0.0015584607
0.0015604113
0.0015432094
0.0014600854
0.0012902433
0.0010718741
0.00097041415
0.0010034874
0.00083332832
0.00019842381
5.2258091e-06
0.0016937849
0.0016882799
0.0016830269
0.001677965
0.0016730574
0.0016682857
0.0016636389
0.0016591085
0.0016546872
0.0016503687
0.0016461472
0.0016420175
0.0016379753
0.0016340167
0.001630138
0.0016263362
0.0016226071
0.0016189492
0.001615357
0.001611838
0.0016084043
0.0016047632
0.001601177
0.0016001335
0.0015882708
0.0015722608
0.0015601504
0.0015556447
0.0015574405
0.0015402002
0.0014599577
0.0012924089
0.0010713748
0.00095759818
0.00098755182
0.00083040785
0.00016337984
2.2611476e-07
0.0016939058
0.0016883894
0.0016831307
0.0016780626
0.0016731504
0.0016683755
0.0016637265
0.0016591947
0.0016547729
0.0016504544
0.0016462333
0.0016421045
0.0016380633
0.0016341057
0.001630228
0.0016264271
0.0016226988
0.0016190418
0.0016154494
0.0016119322
0.0016085146
0.0016048116
0.0016010769
0.0016006589
0.0015880924
0.0015700417
0.0015554064
0.0015490737
0.0015502562
0.0015328324
0.0014580806
0.0012957028
0.0010707954
0.00093156766
0.00094598669
0.00080951728
9.722817e-05
9.2480344e-08
0.001694084
0.0016885566
0.001683287
0.001678208
0.0016732874
0.001668506
0.0016638521
0.0016593169
0.0016548929
0.0016505733
0.001646352
0.0016422235
0.001638183
0.0016342263
0.0016303496
0.0016265497
0.0016228221
0.0016191662
0.0016155727
0.0016120575
0.0016086678
0.0016048738
0.0016008774
0.0016013922
0.0015879973
0.0015670024
0.0015483707
0.0015388983
0.0015385496
0.001521314
0.0014538736
0.0012999564
0.0010733761
0.00090144329
0.00089655611
0.00077460271
3.7150473e-05
4.6162915e-08
0.0016943179
0.001688782
0.0016834952
0.0016783998
0.0016734657
0.0016686735
0.0016640111
0.0016594693
0.0016550406
0.001650718
0.0016464951
0.0016423661
0.0016383259
0.0016343699
0.0016304941
0.0016266951
0.0016229684
0.0016193139
0.0016157185
0.0016122045
0.0016088604
0.0016049529
0.00160053
0.0016022804
0.0015882369
0.001563641
0.0015393396
0.0015248121
0.001521073
0.0015051815
0.0014464425
0.001305389
0.0010830122
0.00087622648
0.00084951449
0.00072151009
9.1457686e-06
1.3690883e-08
0.001694692
0.0016891496
0.0016838339
0.0016787104
0.0016737521
0.0016689396
0.0016642604
0.0016597051
0.0016552661
0.0016509362
0.0016467087
0.0016425772
0.0016385361
0.0016345803
0.0016307054
0.0016269076
0.0016231819
0.0016195299
0.0016159308
0.0016124152
0.0016091572
0.001605102
0.0015998801
0.0016034683
0.0015892338
0.0015599327
0.001526551
0.0015025414
0.0014905178
0.0014789654
0.0014310253
0.001309914
0.0011011403
0.00085782764
0.00080744055
0.00052819889
1.1601298e-06
2.3323011e-09
0.0016953173
0.0016897781
0.0016844241
0.001679262
0.001674268
0.0016694241
0.0016647175
0.0016601392
0.0016556815
0.001651337
0.001647099
0.0016429605
0.0016389151
0.0016349571
0.0016310813
0.0016272835
0.0016235576
0.0016199084
0.0016163027
0.0016127767
0.0016096513
0.0016054704
0.0015990002
0.0016047354
0.0015912201
0.0015572613
0.0015117051
0.0014719279
0.0014420388
0.0014403829
0.0014004685
0.0012961583
0.001097795
0.00083567033
0.0007746422
0.000145
3.7801706e-09
9.4137208e-12
0.0016962376
0.001690687
0.0016852944
0.0016800865
0.0016750467
0.00167016
0.0016654148
0.0016608022
0.0016563149
0.0016519462
0.0016476889
0.0016435361
0.0016394807
0.001635516
0.001631636
0.0016278357
0.0016241073
0.0016204607
0.0016168458
0.0016132933
0.0016103409
0.001606157
0.0015980176
0.0016056988
0.0015939684
0.0015571084
0.001499566
0.00143979
0.0013792557
0.0013810823
0.0013483141
0.0012526114
0.0010479448
0.00077756343
0.00070357538
1.5527691e-05
2.2619082e-08
6.8107792e-11
0.0016975631
0.0016919638
0.0016865366
0.0016812756
0.0016761775
0.0016712335
0.0016664342
0.0016617716
0.0016572394
0.0016528315
0.0016485416
0.0016443627
0.0016402874
0.0016363082
0.001632418
0.0016286109
0.0016248759
0.0016212312
0.0016176052
0.0016139992
0.0016112553
0.0016073237
0.001597063
0.0016060351
0.001597016
0.001559598
0.001492911
0.0014132695
0.0013096075
0.0012886359
0.001260547
0.0011538701
0.00091791395
0.00062267126
0.00050797292
5.4243498e-06
4.8503626e-10
1.734591e-12
0.0016993641
0.0016937426
0.0016882733
0.0016829498
0.00167778
0.001672762
0.0016678898
0.0016631573
0.0016585596
0.0016540921
0.0016497499
0.001645527
0.0016414163
0.0016374098
0.0016334991
0.0016296777
0.0016259297
0.0016222848
0.0016186486
0.0016149487
0.001612422
0.0016091825
0.0015964503
0.0016053532
0.0015994209
0.0015632736
0.0014909518
0.0013962679
0.0012469512
0.0011556558
0.0011079729
0.0009335107
0.00064698687
0.00045715076
0.00011509632
3.0854115e-08
6.7738932e-11
2.9355097e-13
0.0017017844
0.0016961849
0.0016906617
0.0016852661
0.0016800109
0.0016749008
0.0016699344
0.0016651081
0.0016604193
0.0016558656
0.0016514445
0.001647152
0.0016429825
0.0016389284
0.0016349807
0.0016311324
0.0016273602
0.0016237098
0.0016200685
0.0016162229
0.0016138613
0.0016119521
0.0015967764
0.0016032582
0.0015996901
0.001564891
0.0014876726
0.0013799369
0.0011821984
0.0010697012
0.00084341653
0.00049991904
0.00024485355
0.00029195721
1.2731658e-05
3.0108003e-08
2.3797504e-11
9.2842581e-14
0.0017051246
0.0016994725
0.0016938992
0.0016884233
0.0016830682
0.0016778467
0.0016727621
0.0016678147
0.0016630041
0.0016583311
0.0016537961
0.0016493987
0.0016451363
0.0016410036
0.0016369916
0.0016330948
0.0016292794
0.0016256107
0.0016219739
0.0016179268
0.0016155871
0.0016157487
0.0015989637
0.0015994611
0.0015956682
0.0015586783
0.0014706563
0.0013315881
0.0010891665
0.001031309
0.00032404439
5.4321279e-05
2.0028462e-06
9.362378e-05
1.3697703e-06
3.7607474e-09
4.4030885e-13
1.6588388e-13
0.0017095929
0.0017038874
0.0016982473
0.0016926768
0.001687206
0.0016818526
0.0016766245
0.0016715256
0.0016665586
0.001661727
0.0016570353
0.0016524873
0.0016480854
0.0016438287
0.0016397107
0.0016357302
0.0016318401
0.0016281271
0.0016245056
0.0016202102
0.0016176645
0.0016204528
0.0016042152
0.001592736
0.0015839455
0.0015314861
0.0014055351
0.0011780966
0.00091757345
0.0009196259
5.3613554e-05
1.774231e-07
1.8753911e-07
2.2335837e-06
5.655979e-09
1.3753526e-11
4.6063317e-13
3.2734939e-13
0.0017155005
0.001709791
0.0017040473
0.0016983604
0.0016927561
0.0016872498
0.0016818522
0.0016765705
0.0016714103
0.0016663779
0.0016614808
0.0016567278
0.0016521274
0.0016476859
0.0016434024
0.0016392845
0.0016352718
0.0016314688
0.0016278648
0.0016232951
0.0016203278
0.0016255111
0.0016137043
0.0015778264
0.0015570864
0.0014356277
0.0011661311
0.00079937571
0.00061211196
0.00046798792
6.2417551e-06
6.1259448e-08
2.220446e-16
1.9534776e-07
1.3134973e-11
6.9006149e-13
4.5968795e-13
3.924534e-13
0.0017235196
0.0017175991
0.0017117283
0.0017059052
0.0017001448
0.0016944613
0.0016888665
0.0016833698
0.0016779791
0.0016727022
0.0016675489
0.0016625315
0.0016576644
0.0016529631
0.0016484352
0.0016441037
0.0016398985
0.0016359335
0.0016323205
0.0016274657
0.0016241338
0.0016299224
0.0016280345
0.0015361686
0.0014817368
0.0010454543
0.00044362458
0.00014687977
0.0001217644
4.1470067e-05
6.5797342e-08
5.5247105e-10
1.0592648e-13
2.220446e-16
1.1634801e-12
4.3141731e-13
4.5799785e-13
4.3268286e-13
0.0017360265
0.0017298609
0.0017237763
0.0017177416
0.0017117539
0.0017058208
0.0016999524
0.0016941588
0.001688449
0.0016828316
0.0016773167
0.0016719177
0.0016666537
0.0016615501
0.0016566263
0.0016519299
0.0016473888
0.0016431214
0.001639398
0.0016341541
0.0016310892
0.001634951
0.0016547407
0.0012564165
0.00084519839
7.2376568e-05
1.2389969e-05
8.6598806e-07
1.7736052e-06
1.9666803e-07
7.5335735e-09
8.1698858e-13
1.4611179e-12
5.1718672e-14
3.8798364e-14
4.581756e-13
4.5801522e-13
4.4839575e-13
0.001754721
0.0017483052
0.0017419128
0.0017355539
0.0017292328
0.0017229536
0.001716722
0.0017105457
0.0017044328
0.0016983912
0.0016924293
0.0016865593
0.0016808002
0.0016751834
0.0016697376
0.001664537
0.0016595104
0.0016548153
0.0016507646
0.0016449336
0.0016430909
0.0016519491
0.0015451568
0.00098266547
0.00010406065
4.0577835e-06
1.9614963e-08
4.758739e-08
1.3835051e-07
1.5249062e-08
3.8115467e-12
1.0630385e-11
3.85639e-12
4.7522215e-13
4.4742358e-13
4.7906338e-13
4.6044504e-13
4.5249847e-13
0.0017787998
0.0017719609
0.0017651435
0.0017583568
0.0017516061
0.0017448935
0.0017382214
0.0017315945
0.0017250186
0.0017185
0.0017120447
0.0017056611
0.0016993645
0.0016931852
0.0016871551
0.001681366
0.0016757533
0.0016705404
0.0016658904
0.0016598195
0.0016573571
0.0016699395
0.0014734817
0.0014451053
3.0508945e-05
7.4925849e-07
5.0901684e-12
4.5733623e-09
5.1238108e-09
3.868422e-10
9.8721645e-12
1.068292e-11
7.9647791e-12
5.30711e-13
4.646269e-13
5.0060459e-13
4.6643735e-13
4.5566264e-13
0.0018092824
0.00180182
0.0017944203
0.0017870697
0.0017797638
0.0017725006
0.0017652797
0.001758103
0.001750974
0.0017438968
0.0017368751
0.0017299132
0.0017230199
0.0017162189
0.0017095381
0.0017030719
0.0016967742
0.001690918
0.0016853986
0.0016795708
0.0016754127
0.001653934
0.0016631325
0.00026838522
1.3379873e-06
1.6297948e-09
4.8243208e-11
2.7639701e-11
2.5176204e-11
1.7202286e-11
1.0358401e-11
1.0657745e-11
9.6509847e-12
1.0043434e-12
4.5740905e-13
5.806746e-13
4.9651467e-13
4.6134966e-13
0.0018471355
0.0018389347
0.0018308015
0.0018227303
0.0018147174
0.0018067595
0.0017988538
0.0017909996
0.0017831982
0.0017754517
0.0017677618
0.0017601299
0.0017525584
0.0017450607
0.0017376566
0.0017304242
0.0017233498
0.0017167039
0.0017101258
0.0017047212
0.0016962749
0.0017129663
0.001507711
6.4186577e-05
1.9726909e-08
1.5801249e-12
4.8952518e-11
5.4016928e-11
4.1733882e-11
1.4126371e-11
1.14201e-11
1.0759041e-11
1.1225866e-11
4.4888932e-12
6.0387249e-13
7.0087892e-14
4.634414e-13
4.8450843e-13
0.001893621
0.0018844963
0.0018754503
0.0018664841
0.0018575956
0.0018487806
0.001840034
0.0018313531
0.0018227367
0.0018141856
0.0018057001
0.0017972799
0.0017889232
0.0017806336
0.0017724211
0.0017643354
0.0017563914
0.0017488237
0.0017411548
0.0017352517
0.0017267739
0.0017199634
0.0018354541
0.0002016753
1.5314951e-06
4.0892129e-10
4.9618189e-11
4.7644985e-11
4.5318487e-11
1.3245134e-11
8.9696018e-12
1.2647273e-11
1.2016623e-11
8.3437804e-12
1.2617857e-12
8.2640002e-14
5.2661994e-13
4.7730414e-13
0.0019500891
0.0019397828
0.0019296076
0.0019195518
0.0019096039
0.0018997538
0.0018899932
0.0018803169
0.0018707222
0.0018612081
0.0018517747
0.0018424209
0.0018331436
0.0018239399
0.0018148105
0.0018057779
0.0017968615
0.0017882563
0.0017795531
0.0017720473
0.0017664857
0.001735051
0.0019595187
0.00048654312
9.9116865e-07
1.406547e-07
5.0571114e-11
5.0710496e-11
2.9491615e-11
1.1602599e-11
1.2434396e-11
1.2459903e-11
1.137399e-11
1.012883e-11
3.4714509e-12
5.2719673e-13
2.3805397e-13
4.9663447e-13
0.0020177215
0.0020060469
0.0019945531
0.0019832152
0.001972014
0.0019609357
0.0019499699
0.0019391101
0.0019283526
0.0019176957
0.0019071386
0.0018966806
0.001886319
0.0018760483
0.0018658627
0.0018557678
0.001845764
0.0018360071
0.0018262436
0.0018170228
0.0018110742
0.0017835901
0.0018422704
0.0019451871
0.00031253172
1.4577544e-06
3.4744767e-08
3.7746428e-11
3.9330188e-11
1.3190553e-11
1.1336026e-11
1.48694e-11
1.121923e-11
1.1232557e-11
8.846034e-12
7.9302425e-13
4.6548216e-13
5.6838023e-13
0.0020977935
0.0020846582
0.002071674
0.0020588495
0.0020461811
0.0020336603
0.0020212777
0.0020090264
0.0019969021
0.0019849024
0.0019730259
0.0019612717
0.001949638
0.0019381203
0.0019267092
0.0019154031
0.001904182
0.0018931454
0.0018822223
0.0018713908
0.0018629009
0.0018459684
0.0018313276
0.0020058958
0.0010593768
2.3353403e-06
1.9503799e-07
9.4146252e-11
4.7823312e-11
1.4674843e-11
1.1499214e-11
1.3026883e-11
1.1506891e-11
1.1588401e-11
1.1885391e-11
2.0304841e-12
4.4652552e-13
4.9206754e-13
0.0021924521
0.0021773513
0.0021625151
0.0021479137
0.0021335196
0.0021193126
0.0021052776
0.0020914046
0.0020776882
0.002064125
0.002050713
0.0020374508
0.0020243367
0.0020113678
0.0019985351
0.0019858336
0.0019732389
0.0019607789
0.0019485275
0.0019361789
0.0019248916
0.0019146919
0.0018863053
0.001994739
0.0014669584
6.8700745e-05
1.3913731e-06
3.7669432e-08
4.5381175e-11
2.5619034e-11
1.2191186e-11
1.2235683e-11
1.2394424e-11
1.2008981e-11
5.9555515e-12
3.2799298e-12
9.2619963e-13
5.4577484e-13
0.0023025641
0.0022853711
0.002268461
0.0022518219
0.0022354313
0.0022192686
0.0022033162
0.0021875624
0.0021720003
0.0021566256
0.0021414355
0.0021264277
0.0021116001
0.0020969507
0.0020824725
0.0020681587
0.0020539911
0.0020399503
0.0020261336
0.0020122751
0.0019989494
0.0019868427
0.0019699036
0.0019617046
0.002118125
0.00075254904
7.1229076e-06
2.0913121e-07
5.3463552e-11
5.6698618e-11
2.0966895e-11
2.9817476e-11
1.9383361e-11
8.6474644e-12
3.6716571e-12
2.9379029e-12
3.2187658e-12
5.8148653e-13
0.0024300629
0.0024103463
0.0023909945
0.0023719811
0.0023532721
0.0023348401
0.0023166633
0.0022987276
0.002281025
0.0022635505
0.0022463008
0.0022292729
0.0022124637
0.0021958707
0.0021794889
0.0021633116
0.0021473254
0.0021315021
0.0021158824
0.0021003379
0.0020852423
0.0020698422
0.0020569511
0.0020279374
0.0021255325
0.0012571572
4.6320219e-05
1.4712516e-06
5.644058e-11
5.979291e-11
6.1090872e-11
4.6381446e-11
3.0731369e-11
5.2561648e-12
2.3314624e-12
4.2489001e-12
3.9184412e-12
9.4412255e-13
0.0025763481
0.0025537433
0.0025315647
0.0025097879
0.002488376
0.002467298
0.0024465292
0.0024260535
0.0024058615
0.0023859479
0.0023663086
0.0023469399
0.0023278376
0.0023089979
0.0022904159
0.0022720858
0.0022539961
0.0022361284
0.0022184594
0.0022010121
0.0021837169
0.0021668024
0.0021501614
0.0021289842
0.0021747602
0.0017835047
2.9301245e-05
1.014304e-06
3.6256451e-11
6.233192e-11
6.262736e-11
5.919855e-11
4.8119788e-11
1.087344e-11
1.7368945e-12
2.5283504e-12
2.8819947e-12
2.376926e-12
0.0027432651
0.0027171623
0.002691597
0.0026665332
0.0026419218
0.0026177224
0.0025939042
0.0025704471
0.0025473395
0.0025245745
0.0025021469
0.0024800519
0.0024582837
0.0024368365
0.0024157042
0.0023948807
0.0023743551
0.0023541191
0.0023341154
0.0023144377
0.002294814
0.0022757669
0.0022571131
0.0022325992
0.0022552345
0.002108117
0.0002677056
9.1242353e-08
1.0738155e-08
6.5218425e-11
6.5230389e-11
6.4622969e-11
6.0848471e-11
1.3540412e-11
5.827264e-13
2.1979354e-12
3.0366938e-12
2.8599862e-12
0.0029319663
0.002901701
0.0028721035
0.0028431278
0.0028147128
0.0027868084
0.002759377
0.002732394
0.002705845
0.0026797211
0.0026540154
0.0026287215
0.0026038318
0.0025793379
0.0025552312
0.0025315041
0.0025081451
0.0024851489
0.0024624625
0.0024401433
0.0024180044
0.0023963715
0.0023743681
0.0023569379
0.002296018
0.002600377
0.00099372085
1.8535379e-05
1.0911357e-07
3.7176901e-11
6.6596273e-11
6.8125172e-11
6.6937199e-11
3.1611704e-11
4.6497723e-12
7.5131835e-13
3.1644086e-12
3.0566647e-12
0.0031434279
0.003108177
0.0030737512
0.0030400925
0.003007127
0.0029747942
0.0029430492
0.0029118635
0.0028812198
0.0028511069
0.0028215159
0.0027924384
0.0027638643
0.0027357824
0.0027081808
0.0026810486
0.002654374
0.002628146
0.0026023367
0.0025769201
0.0025519315
0.0025270878
0.0025027867
0.0024820651
0.0024308474
0.0025604491
0.001986354
0.0001343278
1.2113017e-06
3.3236013e-10
1.39187e-11
7.0375978e-11
7.1839976e-11
6.457626e-11
1.3583295e-11
2.3416047e-12
2.8058664e-12
1.2403097e-12
0.0033787192
0.0033373391
0.0032969969
0.003257616
0.0032191046
0.0031813878
0.0031444112
0.0031081409
0.0030725557
0.0030376413
0.0030033858
0.0029697773
0.0029368025
0.0029044463
0.0028726925
0.0028415261
0.0028109323
0.0027808951
0.0027513946
0.0027223881
0.0026938966
0.0026657755
0.0026379825
0.0026119831
0.0025838962
0.002530201
0.0028007362
0.0013074346
0.00023950331
1.1378843e-05
2.6610751e-08
9.9526722e-07
5.4281796e-08
8.5928317e-08
3.1382366e-11
1.9236752e-11
2.0853857e-09
1.1369569e-07
0.0036295335
0.0035807526
0.003533279
0.0034870141
0.0034418464
0.0033976841
0.0033544621
0.0033121402
0.0032706926
0.0032301003
0.0031903469
0.0031514159
0.0031132885
0.0030759441
0.0030393612
0.003003519
0.0029683975
0.0029339763
0.0029002273
0.0028671213
0.0028346035
0.0028027151
0.0027711656
0.0027406034
0.0027126513
0.0026670587
0.0026949799
0.002623456
0.0025875482
0.00020687742
3.8570613e-05
1.0017484e-05
5.3730139e-07
8.3652399e-07
1.0112325e-07
1.1366509e-06
2.9617045e-08
1.1464808e-06
0.0038777704
0.0038204574
0.003764792
0.0037106477
0.0036578884
0.0036064019
0.0035561101
0.0035069646
0.003458933
0.0034119897
0.0033661116
0.0033212748
0.0032774531
0.0032346181
0.0031927408
0.0031517934
0.0031117486
0.0030725784
0.0030342452
0.0029967123
0.0029599222
0.0029238652
0.0028885507
0.0028536453
0.0028216351
0.0027834511
0.0027636916
0.0027087375
0.0029118032
0.0013989193
0.0011517618
0.00040550171
0.000132286
2.1535512e-05
0.00010988189
3.8915156e-05
7.3157744e-05
2.266337e-05
0.0041135369
0.0040466933
0.0039819059
0.003919017
0.0038578638
0.0037983111
0.0037402662
0.0036836707
0.0036284827
0.0035746674
0.0035221919
0.003471022
0.0034211207
0.0033724496
0.0033249699
0.0032786446
0.0032334368
0.003189307
0.0031462068
0.0031040836
0.0030628875
0.0030225793
0.0029832159
0.0029447652
0.002907469
0.0028720939
0.0028359478
0.0027959583
0.0028203106
0.0027441428
0.0027138957
0.0022670271
0.0019267767
0.001761542
0.0015154868
0.00129395
0.0010641996
0.00058751197
0.0043363139
0.0042587744
0.0041837906
0.0041111694
0.0040407165
0.0039722694
0.0039057173
0.003840988
0.003778026
0.0037167827
0.0036572109
0.003599262
0.0035428846
0.0034880267
0.0034346371
0.0033826663
0.003332065
0.0032827783
0.003234743
0.0031878929
0.0031421732
0.0030975616
0.0030540921
0.0030119002
0.0029710075
0.0029318251
0.0028955353
0.0028541206
0.0028320745
0.0028109776
0.0028131534
0.0027412487
0.0026796109
0.0026216558
0.0025491467
0.0024418628
0.0023465974
0.0019358157
0.0045460891
0.0044565053
0.004370091
0.0042866146
0.0042058427
0.0041275784
0.0040516877
0.0039780781
0.0039066747
0.0038374088
0.0037702136
0.0037050206
0.0036417595
0.0035803606
0.0035207563
0.0034628816
0.0034066696
0.0033520468
0.0032989315
0.0032472443
0.0031969277
0.0031479748
0.0031004411
0.0030544702
0.0030102354
0.0029678351
0.0029280599
0.002889149
0.0028541311
0.0028217788
0.0027979885
0.0027805017
0.0027656418
0.002756156
0.0027414636
0.0027085349
0.0026715414
0.0025322146
0.0047431501
0.0046399781
0.0045407267
0.0044451185
0.0043528713
0.0042637479
0.0041775856
0.004094266
0.004013687
0.0039357534
0.0038603713
0.0037874456
0.0037168814
0.0036485858
0.0035824704
0.0035184489
0.0034564323
0.003396323
0.0033380181
0.0032814252
0.0032264885
0.003173217
0.003121697
0.0030720858
0.0030245924
0.0029793599
0.0029366628
0.0028964424
0.0028585668
0.0028230692
0.0027907695
0.0027634177
0.0027421306
0.0027305215
0.0027267397
0.0027206732
0.0027083927
0.0026640067
0.0049280176
0.0048094509
0.0046956846
0.0045864181
0.0044813239
0.0043801226
0.0042826165
0.0041886506
0.0040980852
0.0040107869
0.0039266241
0.0038454657
0.003767183
0.0036916531
0.0036187591
0.0035483869
0.0034804181
0.0034147256
0.0033511824
0.0032896839
0.0032301792
0.0031726973
0.0031173525
0.0030643229
0.003013815
0.0029659926
0.0029209765
0.0028787934
0.002839272
0.0028023013
0.0027677823
0.0027356127
0.002706622
0.0026837867
0.0026695791
0.0026617971
0.0026548863
0.0026464403
0.0051012189
0.0049648562
0.0048344758
0.0047097134
0.0045901631
0.0044754854
0.0043654314
0.0042597933
0.0041583768
0.0040609938
0.0039674591
0.0038775915
0.0037912167
0.0037081704
0.003628298
0.0035514477
0.003477463
0.0034061812
0.0033374485
0.0032711491
0.0032072401
0.0031457726
0.0030868851
0.00303077
0.0029776208
0.0029275756
0.0028806849
0.0028368947
0.0027960331
0.0027578985
0.0027222837
0.0026888649
0.0026575602
0.0026292807
0.0026058352
0.0025884849
0.0025731409
0.0025735353
0.005262922
0.0051059296
0.0049563589
0.0048138365
0.0046778861
0.0045480953
0.0044241374
0.0043057188
0.0041925586
0.0040843844
0.0039809319
0.0038819482
0.0037871953
0.0036964526
0.0036095138
0.0035261776
0.0034462391
0.0033694935
0.0032957577
0.0032249063
0.0031569063
0.0030918298
0.0030298337
0.0029711116
0.0029158312
0.0028640797
0.0028158369
0.0027709677
0.0027292428
0.0026903988
0.002654198
0.0026203785
0.0025887551
0.0025594138
0.0025326626
0.0025099893
0.0024875956
0.0024849013
0.0054125957
0.0052312157
0.0050593402
0.0048964873
0.0047420273
0.0045954104
0.0044561755
0.0043238962
0.0041981629
0.0040785819
0.0039647784
0.0038564015
0.0037531277
0.0036546617
0.003560729
0.0034710645
0.0033854045
0.0033034957
0.0032251244
0.0031501566
0.0030785688
0.0030104501
0.0029459649
0.0028852923
0.0028285572
0.0027757791
0.0027268569
0.0026815749
0.0026396379
0.0026007336
0.0025645999
0.002531004
0.0024997957
0.0024709345
0.0024442832
0.0024209643
0.0023970705
0.0023911752
0.0055484795
0.0053386544
0.0051410552
0.0049550514
0.0047798005
0.0046145562
0.0044586567
0.0043114803
0.004172436
0.0040409615
0.0039165315
0.003798664
0.0036869224
0.0035809127
0.0034802724
0.0033846562
0.0032937305
0.0032071888
0.0031247862
0.0030463798
0.0029719527
0.0029016016
0.0028354834
0.0027737443
0.0027164477
0.0026635312
0.002614806
0.0025699763
0.0025286845
0.0024905774
0.0024553715
0.0024228377
0.0023928536
0.0023653799
0.0023402231
0.0023183289
0.0022958733
0.0022902726
0.0056682658
0.0054256392
0.0051986192
0.0049864016
0.004787905
0.0046021398
0.0044281833
0.0042651526
0.0041122032
0.0039685432
0.0038334445
0.0037062499
0.0035863721
0.0034732874
0.0033665204
0.0032656287
0.0031701994
0.00307987
0.0029943655
0.0029135334
0.0028373553
0.0027659214
0.002699362
0.0026377679
0.0025811161
0.002529254
0.0024819063
0.0024386977
0.0023992059
0.0023630333
0.0023298664
0.0022994767
0.0022717918
0.0022467417
0.0022241226
0.0022047791
0.0021850399
0.0021816146
0.0057721338
0.0054908421
0.0052295096
0.004987166
0.0047624484
0.0045540235
0.004360584
0.0041808639
0.0040136547
0.0038578357
0.0037123931
0.0035764302
0.0034491582
0.0033298839
0.0032179933
0.0031129324
0.0030142043
0.0029213967
0.0028342102
0.0027524755
0.002676157
0.002605329
0.0025400641
0.0024803541
0.0024260343
0.00237693
0.0023326687
0.0022927337
0.0022565965
0.002223793
0.0021939819
0.0021669116
0.0021424404
0.0021205133
0.0021009706
0.0020846291
0.0020679559
0.0020672234
0.0058618633
0.0055329285
0.0052303362
0.0049527156
0.0046981718
0.0044647546
0.0042505184
0.0040535937
0.0038722205
0.0037048004
0.003549918
0.0034063488
0.0032730353
0.003149076
0.0030337026
0.0029262463
0.0028261318
0.002732935
0.0026463329
0.0025660853
0.0024921538
0.0024246479
0.0023633973
0.0023081357
0.0022585071
0.0022140494
0.0021742286
0.0021384941
0.0021063304
0.0020773042
0.0020511138
0.0020275325
0.0020063715
0.0019876277
0.0019711968
0.0019578877
0.001944295
0.0019462161
0.0059367389
0.0055479643
0.0051951251
0.004875992
0.0045876485
0.0043270397
0.0040911685
0.003877221
0.0036826081
0.0035050438
0.003342548
0.0031934742
0.0030564236
0.0029302997
0.0028142089
0.0027073375
0.0026090833
0.0025192151
0.0024371254
0.0023622756
0.0022942596
0.0022327445
0.0021774037
0.0021278737
0.002083755
0.0020443905
0.0020091825
0.0019776334
0.0019493032
0.0019238369
0.0019009945
0.0018806277
0.0018626701
0.0018471284
0.0018339172
0.0018237733
0.001813544
0.001818027
0.0059919683
0.0055279801
0.0051141121
0.004746513
0.0044205085
0.0041312215
0.0038739959
0.0036445762
0.0034391386
0.0032544377
0.0030877117
0.0029369095
0.0028001917
0.0026766198
0.002565064
0.0024642158
0.0023729753
0.0022904553
0.0022158972
0.0021486972
0.0020882088
0.002033709
0.0019848235
0.0019411917
0.0019024108
0.0018680134
0.0018375012
0.001810392
0.0017862654
0.0017647975
0.0017457813
0.0017290973
0.0017147198
0.0017026804
0.0016929515
0.0016861595
0.0016796463
0.0016862193
0.0060211768
0.0054618074
0.0049732356
0.0045492963
0.0041824648
0.0038648008
0.0035889252
0.0033483389
0.0031373395
0.0029515032
0.0027869816
0.0026420783
0.0025138775
0.0023997924
0.0022979179
0.0022069199
0.0021255896
0.0020525114
0.0019869465
0.0019282832
0.001875942
0.0018293468
0.0017879579
0.0017512797
0.0017188549
0.0016902477
0.0016650477
0.0016428798
0.001623425
0.0016064405
0.0015917763
0.0015793458
0.0015691415
0.0015611847
0.001555491
0.0015524854
0.0015502781
0.0015582753
0.0060196638
0.0053520075
0.0047834768
0.0043041266
0.0039017596
0.0035637182
0.0032786436
0.0030371187
0.002830895
0.0026550751
0.0025038005
0.0023717287
0.0022556955
0.0021527855
0.0020612528
0.0019801301
0.0019085096
0.0018453467
0.0017896207
0.0017404156
0.0016969478
0.0016585556
0.0016246797
0.0015948562
0.0015686937
0.001545844
0.0015259904
0.0015088532
0.0014942029
0.0014818703
0.0014717564
0.0014638003
0.0014580012
0.0014543552
0.0014528964
0.0014538613
0.0014559556
0.0014659058
0.0059964611
0.0052211197
0.0045793906
0.0040551345
0.0036292967
0.0032829176
0.0030000388
0.0027684291
0.0025768939
0.0024153324
0.0022770775
0.0021557182
0.0020488947
0.0019549868
0.0018725967
0.001800519
0.0017376468
0.0016828824
0.0016351531
0.0015934752
0.0015570047
0.001525053
0.0014970763
0.0014726452
0.0014514282
0.0014331693
0.0014176303
0.0014045944
0.0013938824
0.0013853621
0.0013789563
0.0013746125
0.00137233
0.0013720887
0.0013739374
0.0013780162
0.0013832986
0.0013955761
0.0059478044
0.0050484394
0.0043314046
0.0037697597
0.0033330972
0.0029927549
0.0027272611
0.0025149203
0.0023408055
0.0021927917
0.0020651171
0.0019539905
0.0018569056
0.0017721687
0.0016984871
0.0016347294
0.0015797998
0.0015325877
0.0014920014
0.0014570361
0.0014268325
0.0014006996
0.001378111
0.0013586723
0.001342079
0.0013281278
0.001316643
0.0013074474
0.0013003895
0.0012953548
0.0012922758
0.0012911007
0.0012918291
0.0012944321
0.0012989772
0.0013055563
0.0013132607
0.0013276808
0.0058681711
0.0048311549
0.0040447661
0.0034630894
0.0030370231
0.0027210957
0.0024786068
0.0022842106
0.0021230458
0.0019865799
0.0018693822
0.0017678733
0.0016796747
0.0016031692
0.0015371684
0.0014806626
0.0014326489
0.0013920583
0.0013578036
0.0013288675
0.0013043638
0.0012835764
0.0012659715
0.0012511741
0.0012389022
0.0012289614
0.0012212156
0.0012155114
0.001211718
0.0012097367
0.0012095091
0.0012109834
0.0012141666
0.0012190305
0.0012256698
0.0012341414
0.0012435377
0.0012598205
0.0057553666
0.0045732488
0.0037387497
0.003168617
0.0027720597
0.0024820411
0.0022559872
0.002073442
0.001922238
0.0017946676
0.0016856649
0.0015918092
0.0015108032
0.0014410917
0.0013815652
0.0013313081
0.001289358
0.0012546269
0.0012260324
0.0012025465
0.0011831863
0.0011671665
0.0011539554
0.0011432172
0.0011347
0.0011282122
0.001123635
0.0011208532
0.0011197802
0.00112034
0.0011224817
0.0011261494
0.0011313948
0.0011381958
0.0011466713
0.0011568182
0.0011675463
0.0011862839
0.0056069377
0.0042944129
0.0034570425
0.002921389
0.0025511775
0.002273463
0.0020541106
0.0018756218
0.0017277658
0.0016037872
0.0014989041
0.0014096389
0.0013335394
0.0012689277
0.0012146418
0.0011697548
0.0011333304
0.0011042394
0.0010811548
0.0010627745
0.0010477564
0.0010354851
0.0010256673
0.0010180243
0.0010122972
0.0010083281
0.0010060764
0.0010055103
0.0010065634
0.0010091487
0.0010132201
0.0010187601
0.001026034
0.0010348718
0.0010453264
0.0010573128
0.0010693047
0.0010922746
0.0054311548
0.0040453814
0.0032433359
0.0027342909
0.0023666995
0.0020790957
0.0018472151
0.0016588355
0.0015051851
0.001379095
0.0012748248
0.0011879988
0.0011155209
0.0010553033
0.0010059198
0.00096624024
0.00093523879
0.0009118069
0.0008945032
0.00088180677
0.00087242517
0.00086551045
0.0008604269
0.00085662672
0.00085387437
0.00085227292
0.00085206988
0.00085334138
0.00085588324
0.00085956236
0.00086438399
0.0008703607
0.00087769415
0.00088626918
0.00089666189
0.00090860843
0.00092044827
0.00094906509
0.0052616536
0.0038850119
0.0031100888
0.0025774678
0.0021586149
0.0018222668
0.0015581114
0.0013539323
0.0011958451
0.001071793
0.00097284913
0.00089290721
0.00082801166
0.0007755973
0.00073387771
0.0007014007
0.0006767983
0.00065871514
0.00064580365
0.0006368375
0.00063137426
0.00062828671
0.00062653659
0.00062555885
0.00062512987
0.00062529076
0.00062623939
0.00062815808
0.00063110804
0.00063506667
0.00064003809
0.00064591142
0.00065249416
0.00066003447
0.00067022666
0.00068220066
0.00069485685
0.00072947152
0.0051547443
0.0038152579
0.0029701707
0.0022991402
0.0017685053
0.0013801021
0.0011097048
0.00092186566
0.00078726879
0.00068691336
0.00060969366
0.00054919008
0.00050156656
0.00046431312
0.00043558624
0.00041387446
0.00039783807
0.0003862703
0.00037812389
0.00037251219
0.0003689331
0.00036692682
0.00036600375
0.00036576849
0.00036599409
0.00036665544
0.00036782632
0.00036962282
0.00037214362
0.0003754241
0.00037952674
0.00038443677
0.00039031873
0.00039696505
0.00040590622
0.00041590926
0.00042742105
0.00045976501
0.0050889133
0.0036513667
0.0025302549
0.0016674546
0.0011068435
0.00077892634
0.00058853253
0.0004704137
0.00039050694
0.00033275049
0.00028943771
0.00025645066
0.00023128444
0.00021220569
0.00019790613
0.00018734776
0.00017967966
0.00017420111
0.00017035592
0.00016770884
0.00016599213
0.00016501323
0.00016458641
0.00016454372
0.00016478236
0.00016527786
0.00016605348
0.00016715699
0.00016864162
0.00017053055
0.00017287467
0.00017567615
0.00017912806
0.00018304432
0.00018849356
0.0001943003