/*--------------------------------*- C++ -*----------------------------------*\
  =========                 |
  \\      /  F ield         | OpenFOAM: The Open Source CFD Toolbox
   \\    /   O peration     | Website:  https://openfoam.org
    \\  /    A nd           | Version:  7
     \\/     M anipulation  |
\*---------------------------------------------------------------------------*/
FoamFile
{
    version     2.0;
    format      ascii;
    class       surfaceScalarField;
    location    "2000";
    object      phi;
}
// * * * * * * * * * * * * * * * * * * * * * * * * * * * * * * * * * * * * * //

dimensions      [0 3 -1 0 0 0 0];

internalField   nonuniform List<scalar> 
30289
(
2.080848e-07
2.6410642e-09
2.0559074e-07
2.4940583e-09
2.0316071e-07
2.4300318e-09
2.0080278e-07
2.3579237e-09
1.9849338e-07
2.3094034e-09
1.9616326e-07
2.330118e-09
1.9377651e-07
2.3867497e-09
1.913278e-07
2.4487162e-09
1.8883217e-07
2.495626e-09
1.8630565e-07
2.5265236e-09
1.8377952e-07
2.5261259e-09
1.813078e-07
2.4717173e-09
1.7890115e-07
2.4066545e-09
1.7652245e-07
2.3786947e-09
1.7416911e-07
2.3533447e-09
1.7183456e-07
2.3345501e-09
1.6950294e-07
2.3316183e-09
1.6718493e-07
2.31801e-09
1.6488219e-07
2.3027437e-09
1.6258478e-07
2.2974073e-09
1.6029475e-07
2.2900327e-09
1.5803088e-07
2.2638625e-09
1.5578781e-07
2.2430728e-09
1.5354111e-07
2.2467009e-09
1.5127587e-07
2.2652384e-09
1.4899532e-07
2.2805511e-09
1.4670559e-07
2.2897295e-09
1.4439022e-07
2.3153691e-09
1.4204609e-07
2.3441334e-09
1.3963057e-07
2.4155223e-09
1.3704355e-07
2.5870167e-09
1.3421026e-07
2.8332937e-09
1.3097512e-07
3.2351341e-09
1.2707463e-07
3.9004917e-09
1.2192481e-07
5.1498152e-09
1.1369448e-07
8.2303333e-09
9.8673161e-08
1.502132e-08
1.4223235e-08
8.4449926e-08
6.2423064e-07
1.0541514e-08
6.1674165e-07
9.9830458e-09
6.0944127e-07
9.730409e-09
6.0234396e-07
9.4552415e-09
5.9539687e-07
9.2564898e-09
5.8841969e-07
9.3072999e-09
5.8128308e-07
9.5233598e-09
5.739761e-07
9.7556903e-09
5.6654309e-07
9.9286435e-09
5.5901844e-07
1.005117e-08
5.5147795e-07
1.0066617e-08
5.440731e-07
9.8765634e-09
5.3682649e-07
9.6532703e-09
5.2968201e-07
9.523174e-09
5.2260333e-07
9.4320175e-09
5.1556891e-07
9.3689718e-09
5.0859266e-07
9.3078658e-09
5.0165926e-07
9.2514162e-09
4.9474937e-07
9.2126336e-09
4.8785447e-07
9.1923088e-09
4.8098434e-07
9.1601591e-09
4.7418775e-07
9.0604508e-09
4.6744833e-07
8.9824938e-09
4.6068856e-07
9.0064734e-09
4.5388079e-07
9.0730036e-09
4.4704682e-07
9.1145263e-09
4.4016859e-07
9.1679585e-09
4.3322445e-07
9.2595085e-09
4.2619933e-07
9.3692575e-09
4.1894367e-07
9.6711731e-09
4.111843e-07
1.0346391e-08
4.0273491e-07
1.1282686e-08
3.930824e-07
1.2887638e-08
3.8140741e-07
1.5575488e-08
3.6607137e-07
2.0485853e-08
3.4230806e-07
3.1993641e-08
2.9702517e-07
6.0304214e-08
6.7392147e-09
3.0450919e-07
1.0403198e-06
2.369061e-08
1.0278233e-06
2.2479541e-08
1.0156238e-06
2.1929934e-08
1.0037428e-06
2.1336217e-08
9.9211007e-07
2.0889229e-08
9.8047689e-07
2.0940488e-08
9.6864015e-07
2.1360095e-08
9.565683e-07
2.1827545e-08
9.4431068e-07
2.2186257e-08
9.3190678e-07
2.2455077e-08
9.1944805e-07
2.2525348e-08
9.0714393e-07
2.2180682e-08
8.9505752e-07
2.1739678e-08
8.8312726e-07
2.1453438e-08
8.7130884e-07
2.1250437e-08
8.5958013e-07
2.109768e-08
8.4793378e-07
2.0954216e-08
8.36372e-07
2.0813193e-08
8.248688e-07
2.0715839e-08
8.1337453e-07
2.0686577e-08
8.0191939e-07
2.0615299e-08
7.9058499e-07
2.0394852e-08
7.7933313e-07
2.0234348e-08
7.6802966e-07
2.0309942e-08
7.5667338e-07
2.0429287e-08
7.453063e-07
2.0481609e-08
7.3386368e-07
2.0610572e-08
7.2228903e-07
2.0834163e-08
7.1054359e-07
2.11147e-08
6.9841318e-07
2.1801582e-08
6.854692e-07
2.3290371e-08
6.7141324e-07
2.5338642e-08
6.5537963e-07
2.8921254e-08
6.3602237e-07
3.493274e-08
6.1065682e-07
4.5851409e-08
5.7191752e-07
7.0732939e-08
4.9707256e-07
1.3514917e-07
9.5444674e-09
4.9426731e-07
1.4563318e-06
4.2098477e-08
1.4388109e-06
4.0000389e-08
1.4216739e-06
3.9066957e-08
1.4049485e-06
3.8061581e-08
1.3885626e-06
3.7275153e-08
1.3722353e-06
3.7267755e-08
1.3557269e-06
3.7868484e-08
1.3389725e-06
3.8582017e-08
1.3220124e-06
3.914628e-08
1.3048825e-06
3.958507e-08
1.2876455e-06
3.9762336e-08
1.2704996e-06
3.9326589e-08
1.2535846e-06
3.8654608e-08
1.2368647e-06
3.8173374e-08
1.2203049e-06
3.7810218e-08
1.2038807e-06
3.7521851e-08
1.187557e-06
3.727792e-08
1.1713478e-06
3.7022448e-08
1.1552304e-06
3.6833184e-08
1.1391314e-06
3.6785639e-08
1.1230819e-06
3.6664776e-08
1.1072128e-06
3.6263925e-08
1.0914369e-06
3.6010301e-08
1.0755802e-06
3.6166562e-08
1.0596924e-06
3.6317178e-08
1.0438139e-06
3.6360048e-08
1.0278428e-06
3.6581658e-08
1.01164e-06
3.7037032e-08
9.9513126e-07
3.7623405e-08
9.7807047e-07
3.8862367e-08
9.599634e-07
4.1397447e-08
9.4032895e-07
4.4973088e-08
9.1796524e-07
5.1284961e-08
8.9100424e-07
6.1893742e-08
8.5572883e-07
8.1126818e-08
8.0248207e-07
1.239797e-07
6.9854445e-07
2.3908679e-07
3.1930752e-08
6.7615817e-07
1.8722565e-06
6.5783714e-08
1.8496928e-06
6.256408e-08
1.8275869e-06
6.1172872e-08
1.8059531e-06
5.9695337e-08
1.7847364e-06
5.8491855e-08
1.7636652e-06
5.8338954e-08
1.7424861e-06
5.9047597e-08
1.721103e-06
5.9965088e-08
1.6995449e-06
6.0704389e-08
1.6778443e-06
6.1285715e-08
1.6560033e-06
6.1603319e-08
1.6341315e-06
6.1198334e-08
1.6124117e-06
6.0374479e-08
1.5908978e-06
5.9687216e-08
1.5695887e-06
5.911937e-08
1.5484559e-06
5.86546e-08
1.5274552e-06
5.827865e-08
1.5065962e-06
5.7881489e-08
1.485857e-06
5.7572333e-08
1.465145e-06
5.749768e-08
1.4444898e-06
5.7319973e-08
1.4240782e-06
5.667553e-08
1.4037685e-06
5.6319995e-08
1.3833789e-06
5.6556117e-08
1.3629898e-06
5.6706296e-08
1.3426159e-06
5.6733936e-08
1.322138e-06
5.7059559e-08
1.3013295e-06
5.784554e-08
1.2800583e-06
5.8894648e-08
1.2580461e-06
6.0874474e-08
1.2347616e-06
6.4682043e-08
1.2095454e-06
7.0189235e-08
1.1808932e-06
7.9937164e-08
1.1464015e-06
9.6385472e-08
1.1014493e-06
1.2607899e-07
1.0341847e-06
1.9124432e-07
9.0158446e-07
3.7168701e-07
7.5745376e-08
8.5776983e-07
3.6951093e-06
1.1256527e-07
3.6504757e-06
1.0719767e-07
3.6066798e-06
1.0496878e-07
3.5636799e-06
1.0269526e-07
3.5214341e-06
1.0073764e-07
3.4796047e-06
1.0016837e-07
3.4378272e-06
1.0082506e-07
3.3959055e-06
1.0188675e-07
3.353857e-06
1.0275287e-07
3.3117397e-06
1.0340302e-07
3.2694306e-06
1.0391246e-07
3.226846e-06
1.0378295e-07
3.1842121e-06
1.0300836e-07
3.1417961e-06
1.0210322e-07
3.0997169e-06
1.0119856e-07
3.0579589e-06
1.004126e-07
3.0164786e-06
9.9758909e-08
2.9752749e-06
9.9085178e-08
2.9343035e-06
9.8543809e-08
2.8933824e-06
9.8418746e-08
2.8525689e-06
9.8133483e-08
2.8122541e-06
9.6990364e-08
2.772135e-06
9.6439047e-08
2.7319416e-06
9.6749509e-08
2.6917874e-06
9.6860543e-08
2.6516491e-06
9.6872248e-08
2.6113291e-06
9.7379526e-08
2.570379e-06
9.8795653e-08
2.5284472e-06
1.0082643e-07
2.4848722e-06
1.0444946e-07
2.4388072e-06
1.10747e-07
2.3890748e-06
1.1992165e-07
2.3328063e-06
1.3620571e-07
2.264913e-06
1.6427874e-07
2.178336e-06
2.1265605e-07
2.0485308e-06
3.2104947e-07
1.7902837e-06
6.2993414e-07
2.1905889e-07
1.6469702e-06
5.3602862e-06
1.8049986e-07
5.2953959e-06
1.7208797e-07
5.2316346e-06
1.6873002e-07
5.1688503e-06
1.654796e-07
5.1070198e-06
1.6256809e-07
5.0458807e-06
1.6130752e-07
4.9851156e-06
1.6159016e-07
4.9245013e-06
1.6250109e-07
4.8640141e-06
1.6324002e-07
4.803724e-06
1.636931e-07
4.7434399e-06
1.6419658e-07
4.6827815e-06
1.6444141e-07
4.6217611e-06
1.6402875e-07
4.5607217e-06
1.6314261e-07
4.4998883e-06
1.6203193e-07
4.4393652e-06
1.6093575e-07
4.3791988e-06
1.5992526e-07
4.3193912e-06
1.5889284e-07
4.2598971e-06
1.5803791e-07
4.2004662e-06
1.5784961e-07
4.141211e-06
1.5738866e-07
4.0826773e-06
1.5552406e-07
4.0245279e-06
1.5458844e-07
3.9663576e-06
1.549198e-07
3.9081496e-06
1.5506858e-07
3.8499622e-06
1.5505969e-07
3.7915262e-06
1.558155e-07
3.7323841e-06
1.5793778e-07
3.6718232e-06
1.6138731e-07
3.6084015e-06
1.6787118e-07
3.5414392e-06
1.7770922e-07
3.4693585e-06
1.9200242e-07
3.3881788e-06
2.1738541e-07
3.2899128e-06
2.6254467e-07
3.1662948e-06
3.3627406e-07
2.9826995e-06
5.0464479e-07
2.6166766e-06
9.9595705e-07
4.7111673e-07
2.3646187e-06
7.5690068e-06
2.7647716e-07
7.4772258e-06
2.6386898e-07
7.3869676e-06
2.5898827e-07
7.2979224e-06
2.5452479e-07
7.2100378e-06
2.5045273e-07
7.123096e-06
2.4824931e-07
7.03688e-06
2.4780615e-07
6.9512209e-06
2.4816016e-07
6.8660587e-06
2.4840219e-07
6.7814506e-06
2.4830119e-07
6.6972448e-06
2.4840244e-07
6.612907e-06
2.4877916e-07
6.5281196e-06
2.4881615e-07
6.4430484e-06
2.482138e-07
6.3579452e-06
2.4713519e-07
6.2730187e-06
2.4586222e-07
6.1883804e-06
2.4456351e-07
6.1040734e-06
2.4319986e-07
6.0201066e-06
2.4200469e-07
5.9361699e-06
2.4178635e-07
5.8525024e-06
2.4105611e-07
5.7698665e-06
2.3815997e-07
5.6879299e-06
2.3652511e-07
5.6059296e-06
2.3692007e-07
5.523657e-06
2.3734114e-07
5.4414631e-06
2.3725367e-07
5.3588777e-06
2.3840085e-07
5.2756054e-06
2.4121009e-07
5.1902345e-06
2.4675816e-07
5.1005991e-06
2.5750665e-07
5.0062995e-06
2.7200881e-07
4.904747e-06
2.9355493e-07
4.7908248e-06
3.3130759e-07
4.6528305e-06
4.0053899e-07
4.4794043e-06
5.0970023e-07
4.2281926e-06
7.5585654e-07
3.7258264e-06
1.4983232e-06
8.7042737e-07
3.3265158e-06
1.0482167e-05
4.0932653e-07
1.0354927e-05
3.9110808e-07
1.0229764e-05
3.8415152e-07
1.010617e-05
3.7811884e-07
9.9840087e-06
3.7261418e-07
9.8629995e-06
3.6925853e-07
9.7429993e-06
3.6780637e-07
9.6239503e-06
3.6720911e-07
9.5058104e-06
3.6654215e-07
9.3886244e-06
3.6548715e-07
9.2723477e-06
3.646791e-07
9.1564995e-06
3.646274e-07
9.04053e-06
3.6478569e-07
8.9242865e-06
3.6445727e-07
8.8078588e-06
3.6356294e-07
8.6914321e-06
3.6228883e-07
8.575152e-06
3.6084362e-07
8.4591022e-06
3.5924967e-07
8.3433054e-06
3.5780156e-07
8.2273571e-06
3.5773458e-07
8.1117111e-06
3.5670212e-07
7.9976094e-06
3.5226172e-07
7.8844255e-06
3.4970898e-07
7.770858e-06
3.5048763e-07
7.6568947e-06
3.5130442e-07
7.5430214e-06
3.5112698e-07
7.4284726e-06
3.5294963e-07
7.3129729e-06
3.5670976e-07
7.1945653e-06
3.6516577e-07
7.0710988e-06
3.8097312e-07
6.9412642e-06
4.0184345e-07
6.8010768e-06
4.3374227e-07
6.6437472e-06
4.8863721e-07
6.4567356e-06
5.8755061e-07
6.2168074e-06
7.4962837e-07
5.8803891e-06
1.0922749e-06
5.2075268e-06
2.1711854e-06
1.4693435e-06
4.6086107e-06
1.4313172e-05
5.8376562e-07
1.4146095e-05
5.5818425e-07
1.3981801e-05
5.4844562e-07
1.3819547e-05
5.4037335e-07
1.3659086e-05
5.3307482e-07
1.3499941e-05
5.2840372e-07
1.3341908e-05
5.2583946e-07
1.3185e-05
5.2411745e-07
1.3029243e-05
5.2229864e-07
1.2874706e-05
5.2002421e-07
1.2721491e-05
5.1789432e-07
1.2569372e-05
5.1674605e-07
1.2417784e-05
5.1637408e-07
1.2266278e-05
5.159626e-07
1.2114686e-05
5.1515592e-07
1.1963032e-05
5.1394225e-07
1.1811391e-05
5.1248466e-07
1.1659818e-05
5.1082288e-07
1.1508277e-05
5.0934221e-07
1.1356176e-05
5.0983622e-07
1.120423e-05
5.0864802e-07
1.1054489e-05
5.0200287e-07
1.0905594e-05
4.9860321e-07
1.0755707e-05
5.0037511e-07
1.0605317e-05
5.0169432e-07
1.0454619e-05
5.0182523e-07
1.0302709e-05
5.0485936e-07
1.0148952e-05
5.1046654e-07
9.9913291e-06
5.2278882e-07
9.8282258e-06
5.4407636e-07
9.65573e-06
5.7433923e-07
9.4687776e-06
6.2069471e-07
9.2566372e-06
7.0077757e-07
9.0109012e-06
8.3328663e-07
8.6849479e-06
1.0755817e-06
8.2396755e-06
1.5375473e-06
7.3438521e-06
3.0670089e-06
2.3508057e-06
6.4623898e-06
1.93205e-05
8.1455673e-07
1.9099422e-05
7.7926208e-07
1.8882141e-05
7.6572632e-07
1.8667616e-05
7.5489898e-07
1.8455507e-05
7.4518382e-07
1.8245045e-05
7.3886539e-07
1.803579e-05
7.3509488e-07
1.7827675e-05
7.3223241e-07
1.7620752e-05
7.2922071e-07
1.7415117e-05
7.2565985e-07
1.7210992e-05
7.2201886e-07
1.7008534e-05
7.1920475e-07
1.6807475e-05
7.1743272e-07
1.6607289e-05
7.1614818e-07
1.6407561e-05
7.1488478e-07
1.6208084e-05
7.1341894e-07
1.6008775e-05
7.1179329e-07
1.5809606e-05
7.0999175e-07
1.5610419e-05
7.0852989e-07
1.5410284e-05
7.099706e-07
1.5210144e-05
7.0878794e-07
1.5012965e-05
6.9918241e-07
1.4816655e-05
6.9491305e-07
1.4618846e-05
6.9818365e-07
1.4419894e-05
7.0064638e-07
1.4219946e-05
7.017731e-07
1.4018161e-05
7.0664499e-07
1.3813694e-05
7.1493292e-07
1.3603105e-05
7.3337862e-07
1.3386128e-05
7.6105286e-07
1.3156937e-05
8.0353047e-07
1.2909145e-05
8.6848637e-07
1.262682e-05
9.8310283e-07
1.2301173e-05
1.1589336e-06
1.1870483e-05
1.5062717e-06
1.1290951e-05
2.1170796e-06
1.0131082e-05
4.2268774e-06
3.5824208e-06
8.8994672e-06
2.5843463e-05
1.1208332e-06
2.5549593e-05
1.0731321e-06
2.5260908e-05
1.0544116e-06
2.4975982e-05
1.0398248e-06
2.4694415e-05
1.0267509e-06
2.4415127e-05
1.0181535e-06
2.4137326e-05
1.0128958e-06
2.3860698e-05
1.0088599e-06
2.358518e-05
1.0047393e-06
2.3310815e-05
1.0000247e-06
2.3037832e-05
9.9500188e-07
2.2766656e-05
9.9038085e-07
2.249752e-05
9.8656863e-07
2.2230214e-05
9.8345337e-07
2.1964317e-05
9.8078227e-07
2.1699441e-05
9.7829468e-07
2.1435307e-05
9.7592777e-07
2.1171761e-05
9.7353704e-07
2.0908479e-05
9.7181225e-07
2.0644169e-05
9.7428018e-07
2.0379893e-05
9.7306445e-07
2.0119342e-05
9.5973301e-07
1.985983e-05
9.5442566e-07
1.9598214e-05
9.597995e-07
1.9334799e-05
9.6406092e-07
1.9069633e-05
9.6693933e-07
1.8801911e-05
9.7436668e-07
1.8530204e-05
9.8664029e-07
1.825087e-05
1.0127125e-06
1.7963582e-05
1.0483405e-06
1.7659075e-05
1.1080379e-06
1.7330878e-05
1.1966837e-06
1.6960129e-05
1.3538519e-06
1.6528994e-05
1.590068e-06
1.5966802e-05
2.0684636e-06
1.5221928e-05
2.8619542e-06
1.3752498e-05
5.6963073e-06
5.2422687e-06
1.209265e-05
3.4319831e-05
1.5248421e-06
3.3931533e-05
1.4614309e-06
3.3550294e-05
1.4356504e-06
3.3174114e-05
1.4160051e-06
3.2802527e-05
1.3983378e-06
3.2434161e-05
1.3865192e-06
3.206787e-05
1.379187e-06
3.1703013e-05
1.3737171e-06
3.1339269e-05
1.3684831e-06
3.0976518e-05
1.362776e-06
3.0614845e-05
1.3566742e-06
3.0254657e-05
1.3505693e-06
2.9896513e-05
1.344712e-06
2.9540739e-05
1.3392278e-06
2.918729e-05
1.3342308e-06
2.8835894e-05
1.3296909e-06
2.848619e-05
1.3256315e-06
2.8137942e-05
1.321785e-06
2.7790571e-05
1.3191839e-06
2.7442727e-05
1.3221242e-06
2.7095299e-05
1.3204921e-06
2.6751596e-05
1.3034357e-06
2.6409883e-05
1.2961387e-06
2.6065451e-05
1.304232e-06
2.5718541e-05
1.3109707e-06
2.5369314e-05
1.3161659e-06
2.5016782e-05
1.3268988e-06
2.4658544e-05
1.3448785e-06
2.4291797e-05
1.3794597e-06
2.3913682e-05
1.4264559e-06
2.3513676e-05
1.508043e-06
2.3082575e-05
1.6277849e-06
2.2600255e-05
1.8361718e-06
2.2034738e-05
2.1555854e-06
2.1308093e-05
2.7951086e-06
2.0359279e-05
3.810768e-06
1.8524913e-05
7.5306732e-06
7.4279061e-06
1.6339276e-05
4.5326629e-05
2.0359625e-06
4.4835356e-05
1.952704e-06
4.4353497e-05
1.9175101e-06
4.3878136e-05
1.8913655e-06
4.3408684e-05
1.8677902e-06
4.2943458e-05
1.8517447e-06
4.2480999e-05
1.841646e-06
4.202038e-05
1.8343366e-06
4.1560991e-05
1.8278713e-06
4.1102476e-05
1.8212914e-06
4.0644699e-05
1.8144509e-06
4.0187812e-05
1.8074563e-06
3.9732302e-05
1.800222e-06
3.9278787e-05
1.7927431e-06
3.8827716e-05
1.7853015e-06
3.8379237e-05
1.7781698e-06
3.7933189e-05
1.7716801e-06
3.7489477e-05
1.7654974e-06
3.7047165e-05
1.7614958e-06
3.6605547e-05
1.7637421e-06
3.6165036e-05
1.7610029e-06
3.5725641e-05
1.7428309e-06
3.5290856e-05
1.7309236e-06
3.4854789e-05
1.7402992e-06
3.44137e-05
1.7520597e-06
3.3969173e-05
1.7606929e-06
3.3520345e-05
1.7757269e-06
3.3063972e-05
1.8012512e-06
3.2596685e-05
1.8467469e-06
3.2112515e-05
1.9106256e-06
3.1601932e-05
2.0186259e-06
3.1050335e-05
2.1793817e-06
3.0432548e-05
2.4539591e-06
2.9708961e-05
2.8791725e-06
2.8778118e-05
3.725952e-06
2.7576197e-05
5.0126889e-06
2.5294274e-05
9.8125958e-06
1.0294036e-05
2.2428144e-05
5.9558008e-05
2.6880201e-06
5.8929228e-05
2.5814842e-06
5.8313019e-05
2.5337187e-06
5.7705239e-05
2.4991459e-06
5.710499e-05
2.4680394e-06
5.6510196e-05
2.4465387e-06
5.5919068e-05
2.4327741e-06
5.5330469e-05
2.4229356e-06
5.4743593e-05
2.4147465e-06
5.415789e-05
2.4069949e-06
5.3573043e-05
2.3992975e-06
5.298894e-05
2.39156e-06
5.2405736e-05
2.3834259e-06
5.1823887e-05
2.3745921e-06
5.1243987e-05
2.3652017e-06
5.0666526e-05
2.3556302e-06
5.0091685e-05
2.346521e-06
4.9519768e-05
2.3374144e-06
4.8949485e-05
2.3317787e-06
4.8381307e-05
2.3319199e-06
4.7815842e-05
2.3264685e-06
4.7247402e-05
2.3112704e-06
4.6681706e-05
2.2966195e-06
4.6120013e-05
2.3019927e-06
4.5556992e-05
2.3150809e-06
4.4987702e-05
2.3299826e-06
4.4412057e-05
2.3513717e-06
4.382656e-05
2.3867485e-06
4.3226788e-05
2.4465186e-06
4.2604722e-05
2.5326919e-06
4.1949345e-05
2.6740028e-06
4.1241933e-05
2.8867938e-06
4.045061e-05
3.2452822e-06
3.9527645e-05
3.8021367e-06
3.8344356e-05
4.9092416e-06
3.6836596e-05
6.5204491e-06
3.4053395e-05
1.2595796e-05
1.3941758e-05
3.0405674e-05
0.00010678643
3.8161452e-06
0.00010568905
3.678868e-06
0.0001046155
3.607269e-06
0.00010355728
3.5573694e-06
0.00010251184
3.5134715e-06
0.00010147577
3.4826177e-06
0.00010044605
3.4624947e-06
9.9420832e-05
3.4481491e-06
9.8398897e-05
3.4366811e-06
9.7379384e-05
3.426508e-06
9.636177e-05
3.4169118e-06
9.5345723e-05
3.4076072e-06
9.4331015e-05
3.3981332e-06
9.3317635e-05
3.3879727e-06
9.2305909e-05
3.3769273e-06
9.1296387e-05
3.3651526e-06
9.0289556e-05
3.3533517e-06
8.9286323e-05
3.3406469e-06
8.8284988e-05
3.3331142e-06
8.7286621e-05
3.3302871e-06
8.6291493e-05
3.3215962e-06
8.5291391e-05
3.3113724e-06
8.4300744e-05
3.287267e-06
8.3315147e-05
3.2875896e-06
8.2326008e-05
3.30422e-06
8.1329679e-05
3.3263115e-06
8.032249e-05
3.3585603e-06
7.9298063e-05
3.4111757e-06
7.8248421e-05
3.4961607e-06
7.7160461e-05
3.6206517e-06
7.6015038e-05
3.8194259e-06
7.4780672e-05
4.1211597e-06
7.340333e-05
4.6226242e-06
7.1806759e-05
5.3987075e-06
6.9775407e-05
6.9405943e-06
6.7220608e-05
9.0752474e-06
6.2735462e-05
1.7080942e-05
2.035405e-05
5.632317e-05
0.00013676814
5.1803643e-06
0.00013543976
5.0072486e-06
0.00013414152
4.9055108e-06
0.0001328625
4.8363825e-06
0.00013159888
4.7770958e-06
0.00013034635
4.7351488e-06
0.00012910108
4.707758e-06
0.00012786076
4.6884701e-06
0.00012662399
4.673452e-06
0.0001253899
4.6605955e-06
0.00012415805
4.6487621e-06
0.00012292824
4.6374228e-06
0.00012170027
4.6260973e-06
0.00012047393
4.6143142e-06
0.00011924908
4.6017853e-06
0.00011802568
4.5885503e-06
0.00011680398
4.5750495e-06
0.0001155841
4.5605259e-06
0.00011436656
4.5506548e-06
0.00011314941
4.5474415e-06
0.00011192208
4.5489234e-06
0.00011069897
4.5344838e-06
0.0001094956
4.4906362e-06
0.00010829681
4.4863821e-06
0.00010708983
4.5111921e-06
0.00010587219
4.5439579e-06
0.00010464011
4.5906346e-06
0.00010338614
4.6651496e-06
0.00010210029
4.7820128e-06
0.00010076677
4.9541712e-06
9.9361946e-05
5.2242467e-06
9.7848369e-05
5.6347377e-06
9.6160644e-05
6.3103489e-06
9.4212726e-05
7.3466252e-06
9.1748831e-05
9.4044898e-06
8.867968e-05
1.2144398e-05
8.3550827e-05
2.2209795e-05
2.782307e-05
7.6081806e-05
0.00017212053
6.798943e-06
0.00017054458
6.5831906e-06
0.00016900555
6.4445469e-06
0.00016749015
6.3517787e-06
0.00016599304
6.2742109e-06
0.00016450891
6.2192762e-06
0.00016303294
6.1837237e-06
0.00016156214
6.1592725e-06
0.00016009475
6.1408405e-06
0.00015862976
6.1255834e-06
0.00015716674
6.1117832e-06
0.00015570564
6.0985288e-06
0.00015424651
6.0852212e-06
0.00015278938
6.0714463e-06
0.00015133417
6.0570001e-06
0.00014988065
6.0420659e-06
0.000148429
6.0267023e-06
0.00014697766
6.0118632e-06
0.00014553194
5.9963745e-06
0.00014408376
5.9956213e-06
0.00014260818
6.0245093e-06
0.00014115036
5.9923024e-06
0.00013971178
5.9292089e-06
0.00013827961
5.9185531e-06
0.00013683722
5.9535837e-06
0.00013538055
6.0006318e-06
0.00013390495
6.0662284e-06
0.0001324015
6.1686028e-06
0.00013085833
6.3251858e-06
0.00012925684
6.5556623e-06
0.00012756881
6.912276e-06
0.00012575068
7.4528605e-06
0.00012372528
8.3357499e-06
0.00012139729
9.67462e-06
0.00011847497
1.2326805e-05
0.00011485975
1.5759622e-05
0.00010912551
2.7944039e-05
3.627732e-05
0.00010067126
0.00021366324
8.6959289e-06
0.00021181644
8.4299856e-06
0.00021001406
8.2469294e-06
0.00020824039
8.1254498e-06
0.00020648818
8.0264173e-06
0.00020475103
7.9564268e-06
0.00020302302
7.9117359e-06
0.00020130037
7.8819202e-06
0.00019958087
7.8603399e-06
0.00019786322
7.8432319e-06
0.00019614686
7.8281481e-06
0.00019443173
7.8136569e-06
0.00019271804
7.7989128e-06
0.00019100605
7.7834332e-06
0.00018929597
7.7670765e-06
0.00018758783
7.7502112e-06
0.00018588203
7.7324962e-06
0.0001841763
7.7175947e-06
0.00018247576
7.6969133e-06
0.00018077562
7.695769e-06
0.00017904832
7.7518075e-06
0.00017733658
7.7040423e-06
0.00017563991
7.625877e-06
0.00017394799
7.6104772e-06
0.0001722452
7.656371e-06
0.00017052498
7.7208484e-06
0.00016878131
7.8098977e-06
0.00016700342
7.9464975e-06
0.00016517723
8.1513744e-06
0.00016328116
8.4517306e-06
0.00016128224
8.9111992e-06
0.00015913087
9.6042315e-06
0.00015673833
1.072829e-05
0.00015400064
1.2412304e-05
0.00015059844
1.5729009e-05
0.00014641099
1.9947072e-05
0.00014012374
3.4231285e-05
4.5627436e-05
0.00013077363
0.00026236835
1.0864388e-05
0.00026025899
1.0539338e-05
0.00025820249
1.0303433e-05
0.00025618042
1.0147521e-05
0.0002541831
1.0023735e-05
0.00025220278
9.9367449e-06
0.00025023233
9.8821913e-06
0.0002482671
9.8471512e-06
0.00024630437
9.8230629e-06
0.00024434254
9.8050612e-06
0.00024238084
9.7898469e-06
0.00024041914
9.7753663e-06
0.0002384576
9.7604497e-06
0.00023649658
9.7444526e-06
0.00023453643
9.7272288e-06
0.00023257742
9.7092134e-06
0.00023062021
9.6897076e-06
0.00022866324
9.6745698e-06
0.00022670799
9.6521621e-06
0.00022475928
9.6444824e-06
0.00022279602
9.7150635e-06
0.00022080765
9.6924102e-06
0.00021885315
9.5803796e-06
0.0002169016
9.5620228e-06
0.00021493866
9.6193106e-06
0.00021295469
9.7048217e-06
0.00021094192
9.8226636e-06
0.0002088879
1.0000524e-05
0.00020677621
1.0263058e-05
0.00020458197
1.0645978e-05
0.00020226701
1.1226157e-05
0.00019977541
1.209583e-05
0.00019700696
1.3496742e-05
0.00019384846
1.55708e-05
0.00018996189
1.9615578e-05
0.00018518859
2.4720381e-05
0.00017839941
4.1020459e-05
5.5784309e-05
0.00016824254
0.0003193279
1.3268906e-05
0.00031699256
1.2874684e-05
0.00031471924
1.2576744e-05
0.00031248665
1.2380116e-05
0.00031028209
1.2228293e-05
0.00030809616
1.2122681e-05
0.00030592032
1.2058032e-05
0.00030374894
1.2018527e-05
0.00030157877
1.1993233e-05
0.00029940788
1.1975949e-05
0.00029723534
1.1962394e-05
0.0002950609
1.1949798e-05
0.00029288473
1.1936623e-05
0.00029070715
1.1922038e-05
0.00028852851
1.1905867e-05
0.00028634918
1.1888545e-05
0.00028416964
1.1869246e-05
0.0002819902
1.1854011e-05
0.00027980637
1.1835984e-05
0.00027763859
1.1812267e-05
0.0002754837
1.1869955e-05
0.00027324223
1.1933873e-05
0.00027103381
1.17888e-05
0.00026885254
1.1743299e-05
0.00026665618
1.1815664e-05
0.00026443543
1.1925576e-05
0.00026217758
1.2080511e-05
0.00025986818
1.230993e-05
0.000257489
1.2642239e-05
0.00025501212
1.312285e-05
0.00025239428
1.3844004e-05
0.00024957299
1.4917116e-05
0.00024643702
1.6632713e-05
0.00024286256
1.9145257e-05
0.00023850414
2.3973996e-05
0.00023314679
3.0077731e-05
0.00022591103
4.8256221e-05
6.6635902e-05
0.00021505944
0.00038570329
1.5914272e-05
0.00038313916
1.5438813e-05
0.00038064734
1.5068565e-05
0.00037820335
1.4824103e-05
0.00037579099
1.4640657e-05
0.00037339885
1.4514819e-05
0.00037101686
1.4440021e-05
0.00036863828
1.4397113e-05
0.00036625923
1.4372279e-05
0.00036387748
1.4357695e-05
0.00036149194
1.4347933e-05
0.00035910235
1.4339396e-05
0.00035670886
1.4330114e-05
0.00035431182
1.4319074e-05
0.00035191163
1.4306061e-05
0.00034950867
1.4291502e-05
0.00034710291
1.4275006e-05
0.00034469687
1.426005e-05
0.00034228151
1.4251346e-05
0.00033987886
1.4214917e-05
0.00033752885
1.4219963e-05
0.00033507813
1.4384594e-05
0.0003325494
1.4317533e-05
0.00033008563
1.4207063e-05
0.00032762345
1.4277841e-05
0.00032515348
1.4395551e-05
0.00032264449
1.4589504e-05
0.00032007542
1.4878995e-05
0.00031742452
1.5293146e-05
0.00031466026
1.5887104e-05
0.00031173421
1.6770055e-05
0.00030857743
1.8073894e-05
0.00030506943
2.0140717e-05
0.00030107506
2.3139624e-05
0.00029625665
2.8792409e-05
0.00029033046
3.6003921e-05
0.00028271515
5.5871528e-05
7.7981829e-05
0.00027136922
0.00046289658
1.8761663e-05
0.00046014468
1.8190706e-05
0.00045747655
1.7736702e-05
0.00045486414
1.7436505e-05
0.00045228714
1.7217663e-05
0.00044973168
1.707028e-05
0.00044718592
1.698578e-05
0.00044464185
1.6941179e-05
0.00044209494
1.6919191e-05
0.0004395426
1.6910035e-05
0.00043698359
1.6906946e-05
0.00043441762
1.6905366e-05
0.00043184492
1.6902811e-05
0.00042926592
1.6898073e-05
0.00042668109
1.6890891e-05
0.00042409096
1.6881629e-05
0.00042149495
1.6871023e-05
0.00041889682
1.6858179e-05
0.00041628794
1.686022e-05
0.00041367936
1.6823502e-05
0.00041113312
1.6766201e-05
0.00040851622
1.7001499e-05
0.00040575069
1.7083058e-05
0.00040308159
1.687616e-05
0.00040038801
1.6971423e-05
0.00039769149
1.7092072e-05
0.00039495011
1.7330888e-05
0.00039213881
1.7690296e-05
0.00038923261
1.819934e-05
0.00038619653
1.8923185e-05
0.00038297703
1.9989552e-05
0.00037949837
2.1552554e-05
0.00037563251
2.4006585e-05
0.00037123117
2.7540964e-05
0.0003659777
3.4045875e-05
0.00035951217
4.2469448e-05
0.00035156457
6.3819131e-05
8.9635493e-05
0.00033991091
0.00055244536
2.1762354e-05
0.00054955958
2.1076487e-05
0.00054677179
2.0524496e-05
0.00054404898
2.0159309e-05
0.00054136574
1.990091e-05
0.00053870505
1.9730965e-05
0.00053605302
1.9637809e-05
0.00053340024
1.959396e-05
0.00053074143
1.9578007e-05
0.00052807364
1.9577821e-05
0.00052539549
1.9585091e-05
0.00052270671
1.9594154e-05
0.00052000759
1.9601928e-05
0.00051729868
1.9606979e-05
0.00051458056
1.9609014e-05
0.00051185394
1.9608248e-05
0.00050911818
1.9606784e-05
0.00050637591
1.9600454e-05
0.00050362621
1.9609915e-05
0.00050084972
1.9599989e-05
0.00049810899
1.9506933e-05
0.00049537212
1.9738373e-05
0.00049245445
2.0000721e-05
0.00048962242
1.9708198e-05
0.00048677896
1.9814882e-05
0.00048391892
1.9952105e-05
0.00048100052
2.0249289e-05
0.00047799754
2.069328e-05
0.00047488267
2.1314212e-05
0.00047161868
2.2187174e-05
0.00046814788
2.3460353e-05
0.00046438766
2.531277e-05
0.00046020488
2.8189367e-05
0.00045543699
3.2308854e-05
0.00044980075
3.9682111e-05
0.00044286005
4.9410156e-05
0.00043464999
7.2029183e-05
0.00010142208
0.00042286341
0.00065609102
2.4802523e-05
0.00065318648
2.3981022e-05
0.00065039442
2.3316557e-05
0.00064767655
2.2877182e-05
0.00064500205
2.2575408e-05
0.00064235031
2.2382707e-05
0.00063970512
2.2283002e-05
0.0006370556
2.2243481e-05
0.0006343957
2.2237903e-05
0.00063172215
2.225137e-05
0.00062903345
2.227379e-05
0.00062632936
2.2298249e-05
0.00062361029
2.2320996e-05
0.00062087694
2.234033e-05
0.00061813
2.2355949e-05
0.00061537028
2.2367973e-05
0.00061259775
2.2379312e-05
0.0006098123
2.23859e-05
0.0006070203
2.2401914e-05
0.00060419284
2.2427454e-05
0.00060134949
2.2350278e-05
0.00059859889
2.2488977e-05
0.00059570377
2.2895837e-05
0.00059268604
2.272593e-05
0.00058969231
2.2808617e-05
0.00058672382
2.2920589e-05
0.00058371441
2.32587e-05
0.00058061507
2.3792622e-05
0.00057738808
2.4541205e-05
0.00057399265
2.5582603e-05
0.00057036722
2.7085777e-05
0.00056642203
2.9257968e-05
0.00056202146
3.258993e-05
0.0005569889
3.7341412e-05
0.00055108482
4.5586192e-05
0.00054380755
5.6687431e-05
0.0005354772
8.0359536e-05
0.00011308626
0.00052381302
0.0007756836
2.7822607e-05
0.00077282953
2.6835095e-05
0.00077010755
2.603854e-05
0.00076747102
2.5513706e-05
0.00076488233
2.5164105e-05
0.00076231617
2.4948859e-05
0.00075975361
2.484557e-05
0.0007571822
2.4814885e-05
0.00075459517
2.4824935e-05
0.00075198895
2.4857591e-05
0.00074936202
2.4900721e-05
0.00074671425
2.4946019e-05
0.00074404624
2.4989005e-05
0.00074135888
2.5027694e-05
0.00073865306
2.5061766e-05
0.00073592956
2.5091474e-05
0.00073318922
2.5119653e-05
0.00073042996
2.5145158e-05
0.00072765878
2.5173096e-05
0.00072486111
2.5225119e-05
0.00072201096
2.5200424e-05
0.00071923644
2.52635e-05
0.00071642297
2.5709309e-05
0.00071335933
2.5789572e-05
0.00071032274
2.5845207e-05
0.0007073122
2.5931122e-05
0.00070426981
2.6301094e-05
0.00070113236
2.6930076e-05
0.00069784989
2.7823673e-05
0.000694379
2.9053495e-05
0.0006906556
3.0809169e-05
0.00068658267
3.3330905e-05
0.00068202533
3.7147268e-05
0.00067679507
4.2571671e-05
0.00067070284
5.1678426e-05
0.00066320528
6.4184993e-05
0.00065485904
8.8705772e-05
0.00012436739
0.0006435779
0.00091332244
3.0725284e-05
0.00091062151
2.9536026e-05
0.00090807443
2.8585612e-05
0.00090562444
2.7963703e-05
0.00090322645
2.7562089e-05
0.0009008498
2.7325514e-05
0.00089847241
2.7222955e-05
0.00089608041
2.7206888e-05
0.00089366637
2.7238975e-05
0.00089122656
2.7297396e-05
0.00088875959
2.7367699e-05
0.00088626554
2.744006e-05
0.00088374531
2.7509235e-05
0.00088120004
2.7572966e-05
0.00087863091
2.7630897e-05
0.00087603873
2.7683657e-05
0.00087342489
2.7733494e-05
0.00087078699
2.7783052e-05
0.00086812916
2.7830926e-05
0.00086545188
2.7902406e-05
0.00086270073
2.7951566e-05
0.00085997239
2.7991845e-05
0.00085725112
2.8430579e-05
0.00085422286
2.8817829e-05
0.00085127868
2.8789388e-05
0.00084836303
2.8846773e-05
0.00084539311
2.9271017e-05
0.00084231464
3.0008548e-05
0.00083906914
3.1069165e-05
0.00083561465
3.2507987e-05
0.00083188777
3.4536053e-05
0.00082778442
3.7434253e-05
0.00082317326
4.1758426e-05
0.00081785848
4.7886455e-05
0.00081170269
5.7834207e-05
0.00080415261
7.1735074e-05
0.00079593741
9.6920972e-05
0.00013501038
0.00078529442
0.0010714201
3.3317573e-05
0.0010690783
3.187785e-05
0.0010669179
3.0746006e-05
0.0010648675
3.0014054e-05
0.0010628731
2.9556527e-05
0.0010608972
2.9301403e-05
0.0010589142
2.9205965e-05
0.0010569088
2.9212219e-05
0.0010548734
2.9274468e-05
0.001052804
2.936677e-05
0.0010506996
2.9472054e-05
0.0010485608
2.9578877e-05
0.0010463888
2.9681243e-05
0.0010441851
2.9776661e-05
0.0010419512
2.9864764e-05
0.0010396882
2.9946651e-05
0.0010373975
3.0024204e-05
0.0010350781
3.0102521e-05
0.0010327288
3.0180198e-05
0.0010303619
3.02693e-05
0.0010279163
3.0397205e-05
0.0010254514
3.0456716e-05
0.0010230688
3.0813203e-05
0.0010202901
3.1596521e-05
0.0010175224
3.1557039e-05
0.0010149033
3.1465897e-05
0.0010121985
3.1975778e-05
0.0010093768
3.2830244e-05
0.0010063657
3.4080311e-05
0.0010031226