0.4709558481 	1.539626415e-05 	-6.682000255e-07 	2.48228612e-11 	1.537616935e-05 	-4.154595392e-10 	2.931125237e-08
0.4720092239 	0.001233474348 	-0.0003281167689 	1.053074557e-08 	0.001261406349 	-3.373681923e-08 	2.404591091e-06
0.4730625996 	0.008561023974 	-0.003338634646 	6.844602663e-08 	0.008975826793 	-1.737988149e-07 	1.711042057e-05
0.4741159754 	0.01748998973 	-0.007170360869 	1.109002825e-07 	0.01839631289 	-2.804186216e-07 	3.506848536e-05
0.4751693511 	0.02145265544 	-0.008689052006 	1.054478425e-07 	0.02257260705 	-2.780007757e-07 	4.302966277e-05
0.4762227269 	0.02341427382 	-0.009448761381 	1.040067058e-07 	0.02466320847 	-2.698211955e-07 	4.701493014e-05
0.4778443634 	0.02451419765 	-0.009865405006 	9.929922834e-08 	0.02579534918 	-2.52361637e-07 	4.917310499e-05
0.4796765386 	0.02489407129 	-0.009934996487 	9.167901338e-08 	0.02616584043 	-2.270071025e-07 	4.987936429e-05
0.4817465869 	0.02493465561 	-0.00995691139 	8.288164382e-08 	0.02619934465 	-1.951820913e-07 	4.994323263e-05
0.4840853915 	0.0247580825 	-0.009891623495 	7.203861503e-08 	0.02600235021 	-1.559253809e-07 	4.956770648e-05
0.4867278453 	0.02442649023 	-0.009777453346 	5.897662521e-08 	0.02565100563 	-1.08191985e-07 	4.889794606e-05
0.4897133715 	0.02397180123 	-0.009619519759 	4.330370544e-08 	0.02516915449 	-5.069335528e-08 	4.797940387e-05
0.4930865115 	0.02340726353 	-0.009422058064 	2.46086228e-08 	0.02457206543 	1.793664181e-08 	4.684118617e-05
0.4968975894 	0.02273845953 	-0.009186804923 	2.405131994e-09 	0.02386525956 	9.902902093e-08 	4.549381772e-05
0.5012034633 	0.02196639721 	-0.008905600272 	-2.370215279e-08 	0.02304818582 	1.935571409e-07 	4.393624809e-05
0.506068373 	0.02101018791 	-0.008573946711 	-5.778252586e-08 	0.02203915171 	3.119267304e-07 	4.201274863e-05
0.5134203412 	0.01979668641 	-0.008128654825 	-1.023135202e-07 	0.02075415262 	4.595885523e-07 	3.956318321e-05
0.5212948542 	0.01844248907 	-0.007593001162 	-1.528278794e-07 	0.01931460861 	6.150159115e-07 	3.681901223e-05
0.529729052 	0.01706913521 	-0.007039411612 	-2.05252271e-07 	0.01785303031 	7.545040757e-07 	3.403283776e-05
0.5387627144 	0.01570787759 	-0.006455109002 	-2.574179198e-07 	0.01639735839 	8.637762034e-07 	3.12579225e-05
0.5484384488 	0.01439291717 	-0.005846043111 	-3.071922493e-07 	0.01498397026 	9.29696862e-07 	2.85636119e-05
0.5588018907 	0.0131604473 	-0.005214414554 	-3.524733794e-07 	0.0136479539 	9.429119118e-07 	2.601679339e-05
0.5699019192 	0.01204413639 	-0.004563580507 	-3.91573789e-07 	0.01242459272 	9.000658009e-07 	2.368472696e-05
0.5817908876 	0.01107245656 	-0.0038965043 	-4.23413412e-07 	0.01134514659 	8.04430825e-07 	2.162700263e-05
0.5945248701 	0.01026624518 	-0.003215675791 	-4.475296487e-07 	0.01043576922 	6.647842414e-07 	1.989347661e-05
0.6081639266 	0.00963859738 	-0.002522869796 	-4.638447737e-07 	0.00971702398 	4.932694144e-07 	1.852334841e-05
0.6227723857 	0.009196408882 	-0.001819182333 	-4.723460424e-07 	0.009204606127 	3.034895412e-07 	1.754653757e-05
0.638419148 	0.008942575416 	-0.001105226618 	-4.728564338e-07 	0.008909851032 	1.09615012e-07 	1.698465243e-05
0.6551780116 	0.008877385398 	-0.0003813842938 	-4.650110532e-07 	0.008839366565 	-7.379048072e-08 	1.685028945e-05
0.6731280194 	0.008998688659 	0.0003520316645 	-4.484158258e-07 	0.008993928216 	-2.32183045e-07 	1.714492691e-05
0.6923538328 	0.009301716895 	0.001094786341 	-4.22848427e-07 	0.009367760547 	-3.522233185e-07 	1.785755524e-05
0.7129461301 	0.00977977513 	0.001846859181 	-3.883630839e-07 	0.009949376436 	-4.232734027e-07 	1.896627677e-05
0.7350020349 	0.01041418891 	0.002596155928 	-3.461451735e-07 	0.0107100696 	-4.386896064e-07 	2.041636936e-05
0.7570579485 	0.01115316785 	0.003306866591 	-2.997992853e-07 	0.01158155693 	-4.015556783e-07 	2.207766644e-05
0.7776502527 	0.01193485936 	0.003950722109 	-2.534325385e-07 	0.01248715856 	-3.266244889e-07 	2.380399483e-05
0.7968760713 	0.01272797078 	0.004528799708 	-2.091802558e-07 	0.01338947343 	-2.301016949e-07 	2.552405777e-05
0.814826083 	0.01352262202 	0.005051630967 	-1.680068688e-07 	0.014277712 	-1.241355327e-07 	2.721728736e-05
0.831584949 	0.01431385434 	0.005527649044 	-1.306209066e-07 	0.01514777827 	-1.798323197e-08 	2.887587548e-05
0.8472317127 	0.01509894847 	0.005963571032 	-9.755239735e-08 	0.01599867793 	8.123122469e-08 	3.049792673e-05
0.8618401721 	0.01587591715 	0.006364705709 	-6.915472649e-08 	0.0168304726 	1.680896459e-07 	3.208355856e-05
0.8754792281 	0.01664270504 	0.006735195576 	-4.557419615e-08 	0.01764315878 	2.387108091e-07 	3.36327643e-05
0.8882132094 	0.0173968336 	0.007078231953 	-2.67193493e-08 	0.01843609896 	2.907253709e-07 	3.514432866e-05
0.9001021759 	0.01813529931 	0.007396254355 	-1.225115852e-08 	0.01920784565 	3.232848446e-07 	3.661549236e-05
0.9112022019 	0.01885468325 	0.007691120627 	-1.60369498e-09 	0.01995607688 	3.370227631e-07 	3.804182903e-05
0.9215656407 	0.0195511732 	0.007964332436 	5.966133623e-09 	0.02067799032 	3.339164905e-07 	3.94179967e-05
0.9312413717 	0.02022095633 	0.008216872155 	1.130310815e-08 	0.02136986139 	3.17039122e-07 	4.073689526e-05
0.9402750304 	0.02085951427 	0.008450661813 	1.528156085e-08 	0.02202892277 	2.902217318e-07 	4.199324942e-05
0.9487092242 	0.02146281004 	0.008662772263 	1.866883191e-08 	0.02264871606 	2.576501869e-07 	4.317474769e-05
0.9565837329 	0.0220256285 	0.008870205062 	2.228852121e-08 	0.02322739026 	2.234999661e-07 	4.427786156e-05
0.9639356968 	0.0225011457 	0.009021701535 	2.581018549e-08 	0.02371138403 	1.935896494e-07 	4.52004882e-05
0.9688006083 	0.02285421389 	0.009120356915 	2.914060845e-08 	0.02406676174 	1.720822217e-07 	4.587793688e-05
0.9731064834 	0.02312340456 	0.009213317024 	3.273901127e-08 	0.02433991034 	1.57292806e-07 	4.639863404e-05
0.976917562 	0.02333699797 	0.00928092762 	3.635250734e-08 	0.02455475505 	1.46991126e-07 	4.680818777e-05
0.9802907021 	0.02349128145 	0.009330014856 	3.993076609e-08 	0.0247090022 	1.406387766e-07 	4.710222571e-05
0.9832762282 	0.02357765724 	0.009357008086 	4.334708127e-08 	0.02479384294 	1.375654136e-07 	4.726395573e-05
0.9859186816 	0.02357987307 	0.009355967036 	4.651335706e-08 	0.02479085574 	1.370588655e-07 	4.725826131e-05
0.9882574856 	0.02346354317 	0.009320498651 	4.934768792e-08 	0.02467334707 	1.384312131e-07 	4.703425711e-05
0.990327533 	0.02316475039 	0.009211200705 	5.174691839e-08 	0.02436286809 	1.410115731e-07 	4.644239788e-05
0.9921597073 	0.02256020172 	0.009060762881 	5.413691587e-08 	0.02375061696 	1.442664563e-07 	4.527527706e-05
0.9937813429 	0.02129276394 	0.00858818618 	5.531373303e-08 	0.02243294552 	1.466951432e-07 	4.276342908e-05
0.9948347186 	0.01922502757 	0.007799696617 	5.530487702e-08 	0.02023327948 	1.467556138e-07 	3.857025425e-05
0.9958880943 	0.0152169387 	0.006222428086 	5.65378995e-08 	0.01600585148 	1.433537598e-07 	3.051160151e-05
0.9969414701 	0.007156953986 	0.002756695478 	3.326406527e-08 	0.007498317601 	8.49992107e-08 	1.42938774e-05
0.9979948458 	0.0009639907675 	0.0002426553272 	4.452131155e-09 	0.0009834073346 	1.48889297e-08 	1.874647704e-06
0.9990482216 	1.312609889e-05 	5.15955994e-07 	1.084193937e-11 	1.3107416e-05 	1.998789474e-10 	2.498637792e-08
0.9990482216 	1.312609889e-05 	5.15955994e-07 	1.084193937e-11 	1.3107416e-05 	1.998789474e-10 	2.498637792e-08
