9.528931517e-21 	0.5470478235 	-3.715270283e-14 	-1.350402413e-20
9.528931517e-21 	0.5470478235 	-3.715131837e-14 	-7.395082556e-20
9.528931517e-21 	0.5470478235 	-3.715131837e-14 	-7.395082556e-20
0.003981987539 	0.685150794 	0.2268337711 	-0.009074874801
0.007949179987 	0.7328297564 	0.2935141283 	-0.01065193793
0.01189912993 	0.7375920156 	0.285138023 	-0.009296047664
0.01582944772 	0.7399814538 	0.2769303642 	-0.008090154035
0.0197378005 	0.7460527198 	0.2723289359 	-0.007122223225
0.02570640847 	0.7545928466 	0.2701218315 	-0.00594303848
0.03237071847 	0.7652034929 	0.2689573742 	-0.004848663084
0.03978568909 	0.7785591093 	0.2679587183 	-0.003828757223
0.04799854963 	0.7923398269 	0.2685149823 	-0.002937532159
0.05725865866 	0.806006655 	0.2703567248 	-0.002168705015
0.06756258972 	0.8198902316 	0.2718979471 	-0.001538098427
0.07891282918 	0.8340208423 	0.2721801604 	-0.001016631277
0.0913817957 	0.850581132 	0.2708425093 	-0.000610023079
0.1053091069 	0.8694424404 	0.2690884396 	-0.0003150387927
0.1206301975 	0.8933416923 	0.2644591501 	-0.0001197269756
0.1429220515 	0.9231284944 	0.2602328818 	-5.010034859e-06
0.1465637075 	0.9278360032 	0.2593660641 	-0.0003222126477
0.1605773678 	0.9637840669 	0.2413358885 	-9.498505195e-05
0.1781825226 	1.000169299 	0.2224359921 	-0.0001218480746
0.1967503729 	1.030560528 	0.2053226763 	-7.97592704e-05
0.2163810895 	1.055680963 	0.1897623306 	-5.334523788e-06
0.2372043321 	1.076455267 	0.174997836 	7.018748793e-05
0.2591793737 	1.092712945 	0.1615228926 	9.808646683e-05
0.2823715889 	1.105783422 	0.1484172547 	9.118399244e-05
0.3068383465 	1.115206486 	0.1363931855 	6.963509597e-05
0.3326983097 	1.122095748 	0.1248583993 	3.611472384e-05
0.359958224 	1.126502435 	0.1138800905 	1.423301064e-06
0.3611857636 	1.12660299 	0.1134596879 	-3.67393641e-05
0.3874849937 	1.128356893 	0.1035917601 	3.943021649e-05
0.4167953141 	1.128888556 	0.09375181161 	7.60912932e-05
0.4479749189 	1.127551163 	0.08506723232 	0.0001035856496
0.4811563471 	1.124714828 	0.07654415012 	0.0001241460096
0.5164683896 	1.119709273 	0.06838474562 	0.0001339670204
0.5540504391 	1.112502862 	0.06063712908 	0.0001317923031
0.591419292 	1.103435499 	0.05370648326 	0.0001231973498
0.626157779 	1.093116796 	0.04772125191 	0.0001118279178
0.6584952642 	1.081925239 	0.04255606144 	9.977427019e-05
0.6886312233 	1.070067951 	0.03804419437 	8.788806645e-05
0.7167404184 	1.057726091 	0.03405810702 	7.673411006e-05
0.7429778671 	1.045053198 	0.03050226012 	6.652683917e-05
0.7674795692 	1.032172886 	0.02730372532 	5.733738298e-05
0.7903685635 	1.019179104 	0.02440512825 	4.915845952e-05
0.8117556941 	1.006138246 	0.02176160971 	4.193935147e-05
0.8317424657 	0.9930901684 	0.01933780539 	3.559536117e-05
0.850421967 	0.9800462856 	0.01710548184 	3.003431539e-05
0.8678801688 	0.9669849081 	0.01504179335 	2.517028346e-05
0.8841968874 	0.953843482 	0.01312784181 	2.092412009e-05
0.8994463817 	0.9405080205 	0.01134890465 	1.722568267e-05
0.9136979056 	0.9267927388 	0.009691341953 	1.400894315e-05
0.9270161484 	0.9124222986 	0.008149195973 	1.122070647e-05
0.9394615884 	0.8980472506 	0.006809418039 	8.951037839e-06
0.9477028058 	0.8850333255 	0.005762519131 	7.316585982e-06
0.95500093 	0.8727430065 	0.004917238908 	6.054497729e-06
0.9614634858 	0.8599173927 	0.004173598519 	4.990637817e-06
0.9671858302 	0.8462667928 	0.003518522919 	4.084761931e-06
0.9722524981 	0.8314191928 	0.002943757657 	3.306025282e-06
0.9767384256 	0.8148597155 	0.002438802035 	2.627240286e-06
0.9807100262 	0.7958417284 	0.002000586836 	2.02820529e-06
0.9842261508 	0.7731653982 	0.001602777302 	1.480184691e-06
0.9873389416 	0.7449583168 	0.001252501312 	1.006370142e-06
0.9900945924 	0.7095829481 	0.0009479283747 	5.909598748e-07
0.9918848773 	0.6665213891 	0.0006189592133 	3.940676407e-07
0.9936753828 	0.6027244889 	0.0006601590061 	2.73856658e-07
0.9954661087 	0.4783666476 	0.0007241752575 	-1.840537113e-07
0.997257055 	0.2652035007 	1.795192561e-05 	-2.864520838e-07
0.9990482216 	0.07599092005 	-0.0002975906089 	-3.616544366e-08
0.9990482216 	0.07599092005 	-0.0002975906089 	-3.616544366e-08
