0.4709558481 	1.549695783e-05 	-6.742211962e-07 	2.553833263e-11 	1.547678074e-05 	-4.263688751e-10 	2.950304564e-08
0.4720092239 	0.001241386487 	-0.0003306686069 	1.081768996e-08 	0.001269575584 	-3.461768111e-08 	2.420163923e-06
0.4730625996 	0.008601006734 	-0.003355181229 	7.005564261e-08 	0.009017836363 	-1.778506316e-07 	1.719050249e-05
0.4741159754 	0.01755457897 	-0.007197145756 	1.133496025e-07 	0.01846403427 	-2.865765355e-07 	3.519758113e-05
0.4751693511 	0.02151688847 	-0.008714501598 	1.076623209e-07 	0.02263969152 	-2.837769226e-07 	4.315754442e-05
0.4762227269 	0.02347675694 	-0.009473848474 	1.061016559e-07 	0.02472826345 	-2.750855498e-07 	4.7138943e-05
0.4778443634 	0.02457319249 	-0.009889333179 	1.011556391e-07 	0.02585610837 	-2.567529951e-07 	4.928892889e-05
0.4796765386 	0.02494769693 	-0.009957055673 	9.319168172e-08 	0.02622036659 	-2.301575358e-07 	4.998330629e-05
0.4817465869 	0.0249814512 	-0.009976810147 	8.397960302e-08 	0.02624604033 	-1.967241765e-07 	5.003224758e-05
0.4840853915 	0.02479636985 	-0.009908860024 	7.262734318e-08 	0.02603937526 	-1.553994632e-07 	4.963828652e-05
0.4867278453 	0.02445434492 	-0.009791480668 	5.893597621e-08 	0.02567625397 	-1.050246268e-07 	4.894607641e-05
0.4897133715 	0.02398698592 	-0.009629693429 	4.248600374e-08 	0.02518019477 	-4.418824323e-08 	4.800044971e-05
0.4930865115 	0.02340720157 	-0.009427630628 	2.283233917e-08 	0.02456612345 	2.859309358e-08 	4.682985909e-05
0.4968975894 	0.02272025305 	-0.00918690816 	-5.445942121e-10 	0.02383923301 	1.147257451e-07 	4.544420388e-05
0.5012034633 	0.02192691375 	-0.008899266851 	-2.807349024e-08 	0.02299874408 	2.151626539e-07 	4.384199838e-05
0.506068373 	0.02094398891 	-0.008559210449 	-6.401829622e-08 	0.02196042681 	3.406987133e-07 	4.186267709e-05
0.5134203412 	0.01969715463 	-0.008102953121 	-1.108998682e-07 	0.02063905207 	4.963025884e-07 	3.934376958e-05
0.5212948542 	0.01830808655 	-0.007554901475 	-1.638202351e-07 	0.0191615431 	6.579761498e-07 	3.652722681e-05
0.529729052 	0.01690406877 	-0.006988516284 	-2.182825677e-07 	0.0176664109 	7.996866534e-07 	3.367708931e-05
0.5387627144 	0.01551989618 	-0.006391575972 	-2.718637301e-07 	0.01618517681 	9.059837974e-07 	3.085344544e-05
0.5484384488 	0.014192877 	-0.005770565032 	-3.222585472e-07 	0.01475736759 	9.636094201e-07 	2.813164423e-05
0.5588018907 	0.01296111028 	-0.005128186137 	-3.673587115e-07 	0.01342012406 	9.643667344e-07 	2.558248639e-05
0.5699019192 	0.01185841779 	-0.004468176521 	-4.056210023e-07 	0.01220920101 	9.070424079e-07 	2.327413049e-05
0.5817908876 	0.01091161017 	-0.00379372005 	-4.362036676e-07 	0.01115470955 	7.973031827e-07 	2.12639767e-05
0.5945248701 	0.01013854519 	-0.003107380309 	-4.588779328e-07 	0.01028042308 	6.457886153e-07 	1.959734369e-05
0.6081639266 	0.009548827911 	-0.002410930977 	-4.736894191e-07 	0.009603863075 	4.65592107e-07 	1.830763228e-05
0.6227723857 	0.009146045046 	-0.00170547108 	-4.806225846e-07 	0.009137454885 	2.705002942e-07 	1.741852864e-05
0.638419148 	0.008930231261 	-0.0009916690607 	-4.794150948e-07 	0.00888918535 	7.451326865e-08 	1.69452579e-05
0.6551780116 	0.008899158576 	-0.0002700098083 	-4.695972288e-07 	0.00886222788 	-1.080197807e-07 	1.689386947e-05
0.6731280194 	0.0090483569 	0.0004590867567 	-4.506909933e-07 	0.009053927698 	-2.627681328e-07 	1.72593026e-05
0.6923538328 	0.009370959259 	0.001195323656 	-4.224141342e-07 	0.009455378468 	-3.766924906e-07 	1.802457935e-05
0.7129461301 	0.009858527519 	0.00193868705 	-3.847771486e-07 	0.0100526237 	-4.395773276e-07 	1.916309475e-05
0.7350020349 	0.01049123671 	0.002677370005 	-3.38990628e-07 	0.01081547087 	-4.45402781e-07 	2.061729349e-05
0.7570579485 	0.01121803867 	0.003376454666 	-2.888685921e-07 	0.01167650801 	-3.981194246e-07 	2.225866959e-05
0.7776502527 	0.011980132 	0.004008695475 	-2.388082796e-07 	0.01256266621 	-3.130810584e-07 	2.39479334e-05
0.7968760713 	0.01274950873 	0.004575701361 	-1.910973031e-07 	0.0134404041 	-2.064744881e-07 	2.562114578e-05
0.814826083 	0.01351881877 	0.005088241016 	-1.467524918e-07 	0.01430178833 	-9.019940518e-08 	2.726318353e-05
0.831584949 	0.01428513743 	0.005554923381 	-1.065317098e-07 	0.01514490726 	2.662356761e-08 	2.887040254e-05
0.8472317127 	0.01504735924 	0.005982600809 	-7.102595015e-08 	0.01597047431 	1.368028088e-07 	3.04441628e-05
0.8618401721 	0.01580472935 	0.006376678351 	-4.066838093e-08 	0.0167798894 	2.346143732e-07 	3.198713292e-05
0.8754792281 	0.01655605949 	0.006741347837 	-1.569998995e-08 	0.01757415566 	3.156475346e-07 	3.350122517e-05
0.8882132094 	0.0172993781 	0.007079793565 	3.874043624e-09 	0.01835330718 	3.768384119e-07 	3.498650452e-05
0.9001021759 	0.01803183392 	0.007394386372 	1.831286171e-08 	0.01911621567 	4.165757101e-07 	3.644082015e-05
0.9112022019 	0.01874982192 	0.007686855612 	2.813905728e-08 	0.01986051646 	4.347820825e-07 	3.785966431e-05
0.9215656407 	0.01944904011 	0.007958524072 	3.41048786e-08 	0.02058301709 	4.328964396e-07 	3.923695133e-05
0.9312413717 	0.0201249393 	0.008210161686 	3.712468257e-08 	0.02127929993 	4.137223782e-07 	4.056425994e-05
0.9402750304 	0.0207720935 	0.008443461937 	3.820147468e-08 	0.02194567467 	3.811413916e-07 	4.183455541e-05
0.9487092242 	0.02138547307 	0.008655286005 	3.827535141e-08 	0.02257462662 	3.397090237e-07 	4.303351264e-05
0.9565837329 	0.02195886756 	0.008862406008 	3.83839871e-08 	0.0231632095 	2.94242766e-07 	4.41555152e-05
0.9639356968 	0.02244386678 	0.009013580418 	3.859545877e-08 	0.02365620144 	2.523275174e-07 	4.509529484e-05
0.9688006083 	0.0228040615 	0.009111854358 	3.92843017e-08 	0.02401833581 	2.203244294e-07 	4.578562361e-05
0.9731064834 	0.02307851022 	0.009204277979 	4.082438294e-08 	0.02429639456 	1.966091028e-07 	4.631568086e-05
0.976917562 	0.0232961682 	0.009271299641 	4.269328604e-08 	0.02451493616 	1.783030612e-07 	4.67322819e-05
0.9802907021 	0.02345343373 	0.009319760249 	4.482326009e-08 	0.02467178008 	1.649691163e-07 	4.703127e-05
0.9832762282 	0.02354185565 	0.009346124383 	4.705553509e-08 	0.02475827453 	1.559567487e-07 	4.719615245e-05
0.9859186816 	0.02354534207 	0.009344478538 	4.926488186e-08 	0.02475617373 	1.505163182e-07 	4.719214775e-05
0.9882574856 	0.02342967444 	0.009308454162 	5.133713652e-08 	0.02463895867 	1.478921737e-07 	4.696870328e-05
0.990327533 	0.02313109448 	0.009198681409 	5.311861945e-08 	0.02432835524 	1.473177658e-07 	4.637660681e-05
0.9921597073 	0.02252645888 	0.009047748611 	5.503556654e-08 	0.02371570253 	1.481702469e-07 	4.520872046e-05
0.9937813429 	0.02125900258 	0.008574945711 	5.586691489e-08 	0.02239770986 	1.48945998e-07 	4.269626012e-05
0.9948347186 	0.01919147763 	0.00778649573 	5.561714698e-08 	0.02019819008 	1.479716301e-07 	3.85033641e-05
0.9958880943 	0.01518438227 	0.006208963602 	5.666034584e-08 	0.01597168325 	1.438488604e-07 	3.044646737e-05
0.9969414701 	0.007137712435 	0.002748785435 	3.32608007e-08 	0.007478093223 	8.506790465e-08 	1.425532411e-05
0.9979948458 	0.0009605545059 	0.0002415985595 	4.439414276e-09 	0.0009798697364 	1.4869023e-08 	1.867904058e-06
0.9990482216 	1.307855962e-05 	5.133842834e-07 	1.079979504e-11 	1.305992548e-05 	1.996087644e-10 	2.489584779e-08
