0.4327753378 	1.178311872e-05 	-4.59906812e-07 	6.45577644e-10 	1.19640672e-05 	-9.405210789e-09 	2.280683732e-08
0.4327753378 	1.178311872e-05 	-4.59906812e-07 	6.45577644e-10 	1.19640672e-05 	-9.405210789e-09 	2.280683732e-08
0.4338772721 	0.0009488693213 	-0.0002488136957 	1.76603846e-07 	0.001076961001 	-2.233379376e-07 	2.052986994e-06
0.4349792558 	0.006772704958 	-0.002750096369 	1.097602367e-06 	0.008304603206 	9.096599818e-07 	1.583088186e-05
0.4360812236 	0.0141245784 	-0.006086736038 	2.014819562e-06 	0.0175073999 	3.135238696e-06 	3.337397013e-05
0.4371831111 	0.01763430065 	-0.007516924162 	2.171028824e-06 	0.02177541763 	4.38612806e-06 	4.150999817e-05
0.438284854 	0.01941250597 	-0.008227363512 	2.093908856e-06 	0.02387907722 	5.120965985e-06 	4.552015802e-05
0.439980521 	0.02044632254 	-0.00863159543 	1.845521067e-06 	0.02497552637 	5.5891863e-06 	4.761029484e-05
0.4418954567 	0.02086164718 	-0.008710843262 	1.493731549e-06 	0.02523834107 	5.72009961e-06 	4.811129272e-05
0.4440574903 	0.02095998618 	-0.008732960654 	1.154803039e-06 	0.02513605249 	5.654893492e-06 	4.791630225e-05
0.4465121601 	0.02086957413 	-0.008668014968 	8.206779261e-07 	0.0247708633 	5.365429235e-06 	4.722015016e-05
0.4492868824 	0.0206474013 	-0.008545531566 	5.136067553e-07 	0.02422835263 	4.881457558e-06 	4.618597403e-05
0.4524193417 	0.02033065673 	-0.008375114158 	2.344451568e-07 	0.02354534438 	4.232513815e-06 	4.488397047e-05
0.4559554006 	0.01993942212 	-0.008162462426 	-1.540439152e-08 	0.02274703565 	3.44638413e-06 	4.336217216e-05
0.4599707967 	0.01948683449 	-0.007910791856 	-2.356219529e-07 	0.02184891153 	2.552563612e-06 	4.165009796e-05
0.464503981 	0.01898412033 	-0.007615635737 	-4.311689952e-07 	0.02086129259 	1.589632335e-06 	3.976742177e-05
0.4696303012 	0.01838537187 	-0.007272915699 	-6.097487873e-07 	0.01970652344 	5.26105442e-07 	3.756611083e-05
0.477393966 	0.0176623971 	-0.006828767586 	-7.725843033e-07 	0.01831589195 	-6.390230878e-07 	3.49151807e-05
0.4857273663 	0.01689425062 	-0.006315230373 	-9.187000746e-07 	0.01683551844 	-1.696897816e-06 	3.209317733e-05
0.494665021 	0.01613992307 	-0.005802494368 	-1.030315435e-06 	0.01539261632 	-2.530774627e-06 	2.934260486e-05
0.5042536707 	0.01540478695 	-0.005277964128 	-1.115294324e-06 	0.01398631894 	-3.1541496e-06 	2.666181119e-05
0.5145418952 	0.01469250449 	-0.004744345521 	-1.174735574e-06 	0.0126214348 	-3.592060702e-06 	2.405996268e-05
0.5255804116 	0.01401051112 	-0.004200202562 	-1.209341504e-06 	0.01130202124 	-3.87429829e-06 	2.154479372e-05
0.5374224194 	0.01336965513 	-0.00364452074 	-1.219541076e-06 	0.01003642463 	-4.033796413e-06 	1.913221482e-05
0.5501239917 	0.01278555053 	-0.003075880886 	-1.206929616e-06 	0.008837024054 	-4.103312825e-06 	1.684582397e-05
0.5637445137 	0.01227822988 	-0.002492740465 	-1.174730393e-06 	0.00772164319 	-4.113705955e-06 	1.471959804e-05
0.5783471685 	0.01187098842 	-0.001893489345 	-1.127739256e-06 	0.006714046289 	-4.092387014e-06 	1.27988383e-05
0.5940000683 	0.01158779063 	-0.001276506457 	-1.071444753e-06 	0.005843962959 	-4.062448825e-06 	1.114021765e-05
0.6107820558 	0.01144986764 	-0.0006403794901 	-1.010770644e-06 	0.005146148176 	-4.042434089e-06 	9.809988722e-06
0.6287644862 	0.0114721921 	1.575924251e-05 	-9.489031263e-07 	0.004658046015 	-4.045995904e-06 	8.879530341e-06
0.6480354667 	0.01166118619 	0.0006922170524 	-8.861185949e-07 	0.004416603682 	-4.080203696e-06 	8.41927415e-06
0.6686833505 	0.01201498824 	0.001388752522 	-8.195525215e-07 	0.004456064499 	-4.141440062e-06 	8.494497434e-06
0.6908046552 	0.012527307 	0.002104656377 	-7.444232517e-07 	0.004805958974 	-4.210481048e-06 	9.161493551e-06
0.7145040182 	0.01318162351 	0.002826350175 	-6.613236731e-07 	0.005474943856 	-4.254679652e-06 	1.043676467e-05
0.7382093303 	0.01393074932 	0.003515935549 	-5.73168546e-07 	0.00640957214 	-4.238212773e-06 	1.221842595e-05
0.7603476902 	0.01471713519 	0.004143637402 	-4.810747883e-07 	0.007509958296 	-4.148437854e-06 	1.43160678e-05
0.7810231972 	0.01551130721 	0.0047093838 	-3.893743567e-07 	0.008697885145 	-4.004143836e-06 	1.658058654e-05
0.8003330468 	0.01630202669 	0.005222233138 	-2.998887729e-07 	0.009925351341 	-3.826644847e-06 	1.892047826e-05
0.8183678884 	0.0170799218 	0.005689452994 	-2.142456946e-07 	0.01115926144 	-3.632829605e-06 	2.127265385e-05
0.8352122747 	0.01783658701 	0.006116951221 	-1.337230224e-07 	0.01237798833 	-3.432947798e-06 	2.359588605e-05
0.8509448023 	0.01856502308 	0.006509485202 	-5.982956027e-08 	0.01356750931 	-3.232893548e-06 	2.586344364e-05
0.8656389188 	0.01925978561 	0.006870845561 	5.483368465e-09 	0.01471884535 	-3.036139412e-06 	2.805821012e-05
0.8793630728 	0.01991685919 	0.0072040038 	5.964164058e-08 	0.01582631156 	-2.845421053e-06 	3.016934852e-05
0.8921811598 	0.02053333015 	0.007511209941 	9.937120057e-08 	0.0168863411 	-2.663747596e-06 	3.219005945e-05
0.9041528421 	0.02110702885 	0.007794075165 	1.206620618e-07 	0.01789652479 	-2.495419642e-06 	3.411575034e-05
0.9153338379 	0.02163599724 	0.008053676419 	1.187019039e-07 	0.01885507784 	-2.347130472e-06 	3.594301885e-05
0.9257761958 	0.02211818578 	0.008290268844 	8.784022687e-08 	0.01975969683 	-2.228762768e-06 	3.766747408e-05
0.9355285441 	0.02255024002 	0.008504603564 	2.133126495e-08 	0.02060836365 	-2.15510583e-06 	3.928526891e-05
0.9446363202 	0.02292750564 	0.008692218958 	-8.763932402e-08 	0.02139491881 	-2.144647745e-06 	4.078466165e-05
0.9531419822 	0.02324302982 	0.008866669065 	-2.521863943e-07 	0.02211403162 	-2.225047199e-06 	4.215549054e-05
0.9610852055 	0.02346313653 	0.008979631581 	-4.549494053e-07 	0.02270159739 	-2.414905225e-06 	4.327555421e-05
0.9663424224 	0.02358211923 	0.009037785591 	-6.592483554e-07 	0.02311725554 	-2.657117421e-06 	4.406791416e-05
0.9709962279 	0.02363259793 	0.009085867051 	-8.798897588e-07 	0.02341635665 	-2.968088721e-06 	4.463808402e-05
0.9751158091 	0.02362195941 	0.00910330763 	-1.115751563e-06 	0.02363007978 	-3.347663123e-06 	4.504549969e-05
0.9787624354 	0.02354637359 	0.009096690689 	-1.364256675e-06 	0.02375583852 	-3.789703683e-06 	4.528523082e-05
0.9819903612 	0.02339735889 	0.009063084992 	-1.619282467e-06 	0.02378586905 	-4.283448414e-06 	4.534247735e-05
0.9848476266 	0.0231599922 	0.008997691809 	-1.87433934e-06 	0.02370365055 	-4.814260308e-06 	4.518574604e-05
0.9873767673 	0.02280342643 	0.008895337205 	-2.119680143e-06 	0.02348567756 	-5.361120574e-06 	4.477022893e-05
0.9896154434 	0.02227164937 	0.008721301661 	-2.341422528e-06 	0.02306305804 	-5.883123546e-06 	4.396459866e-05
0.9915969973 	0.02145815607 	0.008509741064 	-2.533029458e-06 	0.02234254343 	-6.313685677e-06 	4.259109756e-05
0.9933509477 	0.02006251878 	0.008010363653 	-2.571974571e-06 	0.02097957995 	-6.423978215e-06 	3.999291035e-05
0.9944903227 	0.01798800086 	0.007238741743 	-2.436583082e-06 	0.01883689363 	-6.079669179e-06 	3.59083547e-05
0.9956297375 	0.01418415852 	0.005767379701 	-1.955672186e-06 	0.01487077647 	-4.902600728e-06 	2.834783307e-05
0.9967691923 	0.006632713598 	0.002547998877 	-8.87936742e-07 	0.006935985766 	-2.402064741e-06 	1.322191663e-05
0.997908687 	0.000865018072 	0.0002150994724 	-1.087936802e-07 	0.0008815646567 	-4.127219006e-07 	1.680507254e-06
0.9990482216 	1.075213248e-05 	3.963804e-07 	-3.935313903e-10 	1.073580144e-05 	-8.276452347e-09 	2.046542141e-08
0.9990482216 	1.075213248e-05 	3.963804e-07 	-3.935313903e-10 	1.073580144e-05 	-8.276452347e-09 	2.046542141e-08
