0.4709460472 	1.447939556e-05 	-6.142590776e-07 	-4.587675821e-12 	1.446086974e-05 	3.517040012e-10 	2.756643692e-08
0.4709460472 	1.447939556e-05 	-6.142590776e-07 	-4.587675821e-12 	1.446086974e-05 	3.517040012e-10 	2.756643692e-08
0.4719924022 	0.001159144643 	-0.0003039613337 	2.191407522e-08 	0.001185025468 	-4.950814734e-08 	2.258987904e-06
0.4730387601 	0.008180919388 	-0.003181074649 	1.190659658e-07 	0.008580947726 	-2.139398555e-07 	1.635767132e-05
0.4740851209 	0.01689136271 	-0.006925371923 	6.13457208e-08 	0.01778006999 	-6.407075489e-08 	3.389375511e-05
0.4751314845 	0.02087773279 	-0.008468509156 	-9.677125475e-08 	0.02198798317 	2.856974199e-07 	4.191520716e-05
0.4761778509 	0.02285824796 	-0.009233316266 	-1.384936332e-07 	0.02410366258 	4.216403834e-07 	4.594828014e-05
0.4777887022 	0.02398227988 	-0.00965825327 	-1.47596298e-07 	0.02527114538 	4.65373409e-07 	4.817382684e-05
0.4796086996 	0.02439532355 	-0.009739000595 	-1.247294532e-07 	0.02568611743 	4.358008035e-07 	4.89648789e-05
0.4816649984 	0.02447801866 	-0.009773119073 	-8.937821598e-08 	0.02577485849 	3.861548846e-07 	4.913404403e-05
0.4839898925 	0.02435542358 	-0.009723351502 	-4.410704737e-08 	0.02564670187 	3.322294581e-07 	4.888974189e-05
0.4866170339 	0.02409181666 	-0.00962847634 	7.421694007e-09 	0.02538002411 	2.868031806e-07 	4.838137997e-05
0.4895852754 	0.02372149648 	-0.009494544076 	6.233467686e-08 	0.0250011688 	2.577148757e-07 	4.765917645e-05
0.492938906 	0.02326002501 	-0.009326616598 	1.189015612e-07 	0.02452780669 	2.486944419e-07 	4.67568167e-05
0.4967307534 	0.02271532382 	-0.009127243912 	1.775596924e-07 	0.02396763913 	2.587837043e-07 	4.568898164e-05
0.5010150927 	0.02209070234 	-0.008888906872 	2.370361875e-07 	0.02332205878 	2.893782814e-07 	4.445832607e-05
0.5058569357 	0.02132285203 	-0.00861434698 	2.991206635e-07 	0.02252958144 	3.431812518e-07 	4.294764401e-05
0.5131774231 	0.02035237905 	-0.008245215883 	3.668984266e-07 	0.02152048295 	4.230992246e-07 	4.10240218e-05
0.5210221424 	0.0192673075 	-0.007798212381 	4.328118291e-07 	0.02038317852 	5.114358348e-07 	3.885600348e-05
0.5294278369 	0.01815479371 	-0.007340080965 	4.900326231e-07 	0.01921316241 	5.940977947e-07 	3.662562758e-05
0.5384349972 	0.01702524821 	-0.006855218552 	5.408644286e-07 	0.01801695106 	6.624077155e-07 	3.434531626e-05
0.5480868191 	0.01588966239 	-0.00634677071 	5.867752947e-07 	0.01680745644 	7.106391555e-07 	3.203968336e-05
0.5584294125 	0.01476200746 	-0.005813575056 	6.290324948e-07 	0.0155967055 	7.344132304e-07 	2.973165556e-05
0.5695120252 	0.01365858786 	-0.005255548986 	6.68492704e-07 	0.01440096561 	7.306781049e-07 	2.7452243e-05
0.5813872839 	0.01259908724 	-0.004672479622 	7.055923779e-07 	0.01323969672 	6.973664209e-07 	2.523854173e-05
0.5941114518 	0.01160629558 	-0.00406427788 	7.403604374e-07 	0.01213652924 	6.334880664e-07 	2.31355979e-05
0.6077447052 	0.01070580684 	-0.00343089064 	7.724717199e-07 	0.01111929191 	5.393936485e-07 	2.119646083e-05
0.6223514991 	0.009925236317 	-0.002772241279 	8.013815901e-07 	0.01022011135 	4.170398236e-07 	1.948237277e-05
0.6380015177 	0.009293330096 	-0.002088149758 	8.263162911e-07 	0.009475024453 	2.704900927e-07 	1.806203005e-05
0.6547677711 	0.008838921742 	-0.001378279045 	8.460267492e-07 	0.008922739647 	1.065039114e-07 	1.700922172e-05
0.6727297628 	0.008589526604 	-0.0006421417568 	8.59033237e-07 	0.008601822127 	-6.635892094e-08 	1.639746373e-05
0.6919718284 	0.008569295691 	0.0001207776772 	8.632668478e-07 	0.008546218031 	-2.374104774e-07 	1.629146687e-05
0.7125844168 	0.008796819999 	0.000910928274 	8.558750851e-07 	0.008780482376 	-3.947105819e-07 	1.673803982e-05
0.7346644336 	0.009274215283 	0.001715046365 	8.336767446e-07 	0.009305950505 	-5.248733652e-07 	1.773972812e-05
0.756746148 	0.00995695601 	0.002492443439 	7.962781239e-07 	0.0100673084 	-6.150163555e-07 	1.919108788e-05
0.7773635624 	0.01076643431 	0.003208276993 	7.47672735e-07 	0.01096991542 	-6.619963054e-07 	2.091170772e-05
0.7966134053 	0.01164424482 	0.003859347538 	6.923193129e-07 	0.01194364479 	-6.729084673e-07 	2.276790653e-05
0.814586177 	0.01255748715 	0.004453840803 	6.33558088e-07 	0.01294955291 	-6.570250802e-07 	2.468544698e-05
0.8313664872 	0.01348317296 	0.004998437769 	5.740122151e-07 	0.01396196554 	-6.225306824e-07 	2.661538684e-05
0.8470333997 	0.0144050274 	0.00549865027 	5.156141247e-07 	0.01496382777 	-5.758891677e-07 	2.852521471e-05
0.8616607424 	0.01531155005 	0.005959093462 	4.596882568e-07 	0.01594375526 	-5.220172283e-07 	3.039322886e-05
0.8753174814 	0.01619471901 	0.006383676231 	4.070516988e-07 	0.01689420363 	-4.645771271e-07 	3.220504762e-05
0.8880680093 	0.01704906898 	0.006775741528 	3.581108027e-07 	0.01781028161 	-4.06249499e-07 	3.395134687e-05
0.8999724522 	0.01787098758 	0.007138172389 	3.129539172e-07 	0.01868897408 	-3.489841033e-07 	3.562637893e-05
0.9110869503 	0.01865821844 	0.007473457947 	2.714319847e-07 	0.01952847684 	-2.942032153e-07 	3.722670452e-05
0.9214639198 	0.01940930692 	0.007783813616 	2.332307141e-07 	0.0203279839 	-2.429792444e-07 	3.875078719e-05
0.9311522995 	0.02012345617 	0.008070924889 	1.979289076e-07 	0.02108668677 	-1.96148784e-07 	4.019708573e-05
0.9401977815 	0.02079938175 	0.008337315727 	1.650572716e-07 	0.02180510246 	-1.544855682e-07 	4.156658571e-05
0.9486430259 	0.02143609275 	0.008580540755 	1.341350709e-07 	0.02248004209 	-1.186575915e-07 	4.285320824e-05
0.9565278625 	0.02203103778 	0.0088177906 	1.046830556e-07 	0.0231124055 	-8.997273756e-08 	4.405866865e-05
0.9638894781 	0.02253690807 	0.008995788607 	7.822099416e-08 	0.02364689061 	-7.100081292e-08 	4.507754582e-05
0.9687607812 	0.02291629892 	0.009115518425 	5.70412708e-08 	0.0240453641 	-6.088767131e-08 	4.583714703e-05
0.9730723166 	0.02320912653 	0.009225736586 	3.901050538e-08 	0.02435637013 	-5.787888327e-08 	4.643001096e-05
0.9768884077 	0.02344553823 	0.009308593057 	2.246270635e-08 	0.02460718697 	-5.991288945e-08 	4.690813759e-05
0.9802659863 	0.02362152311 	0.009370959743 	7.227306391e-09 	0.02479513765 	-6.653908126e-08 	4.726642382e-05
0.9832554423 	0.02372812756 	0.009409348901 	-6.833638863e-09 	0.0249110478 	-7.698921215e-08 	4.748738078e-05
0.9859013753 	0.02374876145 	0.00941793875 	-1.973933906e-08 	0.0249361494 	-9.038075705e-08 	4.753523141e-05
0.98824326 	0.02364872125 	0.00939038931 	-3.177652182e-08 	0.02484343683 	-1.058013587e-07 	4.735849547e-05
0.990316035 	0.02336388362 	0.009287502299 	-4.215627491e-08 	0.02455429137 	-1.211653439e-07 	4.680730385e-05
0.9921506239 	0.02277086587 	0.009142700404 	-5.073250719e-08 	0.02395991338 	-1.336982158e-07 	4.567425422e-05
0.9937743971 	0.02151088474 	0.008673430041 	-5.376035074e-08 	0.02265509121 	-1.345402505e-07 	4.31869005e-05
0.9948291616 	0.01944705077 	0.00788635033 	-4.966235146e-08 	0.02046209286 	-1.184827427e-07 	3.900643613e-05
0.9958839263 	0.01543860838 	0.006313843661 	-2.657009774e-08 	0.01623675128 	-6.643848912e-08 	3.095176071e-05
0.9969386912 	0.007290320361 	0.0028117318 	-3.814260007e-09 	0.007638065039 	-1.69107123e-08 	1.456027486e-05
0.9979934563 	0.0009878421779 	0.000250070667 	-5.669580685e-10 	0.00100795608 	-4.145550953e-09 	1.921444435e-06
0.9990482216 	1.326681395e-05 	5.261907712e-07 	-1.280484158e-11 	1.324804455e-05 	-2.526370918e-10 	2.525445502e-08
