0.3359950097 	2.176746325e-05 	-1.04433923e-06 	2.502699441e-09 	2.099296082e-05 	-4.225062399e-08 	4.001841802e-08
0.3359950097 	2.176746325e-05 	-1.04433923e-06 	2.502699441e-09 	2.099296082e-05 	-4.225062399e-08 	4.001841802e-08
0.3371488821 	0.002054340746 	-0.0005312467881 	1.611844134e-06 	0.001729539138 	-4.303469729e-06 	3.296982298e-06
0.3383029084 	0.01246977388 	-0.004257915347 	7.753782984e-06 	0.01002515269 	-1.562670186e-05 	1.911072738e-05
0.339456909 	0.02298367367 	-0.008084337297 	9.931217024e-06 	0.01840131286 	-1.936591672e-05 	3.507801669e-05
0.3406107058 	0.02566584925 	-0.008904043336 	6.923261982e-06 	0.02073688579 	-1.378958522e-05 	3.953026783e-05
0.3417641219 	0.02637265781 	-0.009219805593 	5.145206998e-06 	0.0214126173 	-9.115354245e-06 	4.081839991e-05
0.3435386191 	0.02598408889 	-0.009105710229 	2.849382769e-06 	0.02120856943 	-5.057229157e-06 	4.042942796e-05
0.345541121 	0.02481743065 	-0.008677093627 	9.923124179e-07 	0.02047825838 	-3.296551316e-06 	3.903725211e-05
0.3477994817 	0.02347346976 	-0.008228320729 	-5.344981881e-07 	0.01964585057 	-4.250201008e-06 	3.745045147e-05
0.3503442295 	0.02209568362 	-0.007692426576 	-1.743790364e-06 	0.01889689146 	-7.814228062e-06 	3.602272725e-05
0.3532733514 	0.02079951315 	-0.007116664579 	-2.529708379e-06 	0.01833797437 	-1.303446868e-05 	3.495727592e-05
0.356598976 	0.01963629736 	-0.006510770953 	-2.986390522e-06 	0.01800607347 	-1.862316992e-05 	3.432458057e-05
0.3603444458 	0.01861415234 	-0.005890686526 	-3.201932523e-06 	0.01788876417 	-2.333283759e-05 	3.410095643e-05
0.3645614832 	0.01770072213 	-0.0052567655 	-3.288151908e-06 	0.01793647079 	-2.633338954e-05 	3.419189852e-05
0.3694015871 	0.01684623633 	-0.004595753056 	-3.29152871e-06 	0.01808812575 	-2.719047394e-05 	3.448099501e-05
0.3748927519 	0.01594259386 	-0.003866692964 	-3.276009003e-06 	0.01830115197 	-2.599899634e-05 	3.488708219e-05
0.3832077724 	0.01488178265 	-0.003008762093 	-2.992692135e-06 	0.01849874842 	-2.158998562e-05 	3.526375594e-05
0.3922194226 	0.01370953793 	-0.00210221631 	-2.458008507e-06 	0.01858936605 	-1.580311401e-05 	3.543649833e-05
0.4019645111 	0.01248230741 	-0.001252812636 	-1.728245666e-06 	0.01853809534 	-9.896508535e-06 	3.533876212e-05
0.41246846 	0.01119040052 	-0.0004600005383 	-9.057713539e-07 	0.01835677223 	-4.819633745e-06 	3.499310987e-05
0.4238250473 	0.009839473514 	0.0002639814321 	-1.859239248e-07 	0.01806674787 	-1.021585517e-06 	3.444024283e-05
0.4281449265 	0.009349144055 	0.0004900448145 	9.940482774e-06 	0.01793205705 	-1.288876802e-05 	3.418348469e-05
0.4360921644 	0.008433915811 	0.000909243547 	-3.946078466e-07 	0.01768313886 	-1.673023404e-06 	3.370897745e-05
0.4493258187 	0.007014099111 	0.00146971133 	-7.065990239e-07 	0.01724342717 	-3.512785916e-06 	3.287076475e-05
0.4636467224 	0.005648336354 	0.001956356143 	-5.887784588e-07 	0.01676174814 	-4.668631718e-06 	3.195255063e-05
0.479142112 	0.004377827145 	0.002426025495 	-5.008665248e-07 	0.01627480378 	-5.786056654e-06 	3.102429935e-05
0.495937783 	0.003272123284 	0.002874652849 	-1.628487511e-07 	0.01564775331 	-4.882225196e-06 	2.982896689e-05
0.5140945125 	0.002423876672 	0.003222052378 	1.966871013e-06 	0.0147781096 	3.970591121e-07 	2.817118426e-05
0.5336915725 	0.001871498789 	0.003423526792 	5.703928427e-06 	0.01386623465 	5.731307957e-06 	2.643289716e-05
0.5548794993 	0.001578931169 	0.003498291476 	8.286226877e-06 	0.01316282 	6.305013625e-06 	2.509199334e-05
0.577708027 	0.001430452674 	0.003550765142 	9.022608656e-06 	0.01284883902 	4.271813346e-06 	2.449345832e-05
0.6022888803 	0.001410208116 	0.003664034062 	8.519516438e-06 	0.01283814904 	2.415955316e-06 	2.447308024e-05
0.6287248958 	0.001743094408 	0.003782403236 	6.666698746e-06 	0.01278356826 	1.228391611e-06 	2.436903411e-05
0.6571183725 	0.002418104979 	0.003934487155 	5.499161308e-06 	0.01272990934 	2.308740435e-06 	2.42667453e-05
0.6855585609 	0.00321721686 	0.004138507233 	4.822681166e-06 	0.01287105432 	3.846075143e-06 	2.453580686e-05
0.7121365164 	0.004043692254 	0.004316348869 	4.377455949e-06 	0.01314706126 	5.25475355e-06 	2.506195279e-05
0.7369645634 	0.004841242112 	0.004461469171 	4.037164605e-06 	0.01349692958 	6.207872167e-06 	2.572889906e-05
0.7601541182 	0.00560175705 	0.004575299993 	3.71456747e-06 	0.01384839476 	6.737194716e-06 	2.639888937e-05
0.781812674 	0.006311862357 	0.004661672402 	3.388682808e-06 	0.01417048373 	6.924874517e-06 	2.701288047e-05
0.8020426129 	0.006962809967 	0.004724224671 	3.069214861e-06 	0.01444354684 	6.840221535e-06 	2.753341465e-05
0.8209384831 	0.007549479717 	0.004766658413 	2.773011198e-06 	0.0146570774 	6.562477353e-06 	2.794046326e-05
0.8385893071 	0.008071757184 	0.004792760356 	2.407989117e-06 	0.01480512612 	5.894908257e-06 	2.822268525e-05
0.8550774756 	0.008533644736 	0.004806425809 	2.117353437e-06 	0.01488622367 	5.21710182e-06 	2.837727973e-05
0.8704799455 	0.008942478053 	0.004811711399 	1.911634542e-06 	0.01490267191 	4.608255902e-06 	2.840863465e-05
0.8848682824 	0.009307980363 	0.004812747701 	1.788790164e-06 	0.0148599672 	4.110197854e-06 	2.83272276e-05
0.898309154 	0.009641240404 	0.004813743241 	1.744229266e-06 	0.01476664125 	3.751375015e-06 	2.814932241e-05
0.9108647908 	0.009954213242 	0.004818849113 	1.77219453e-06 	0.01463357515 	3.552152928e-06 	2.789566142e-05
0.922593274 	0.01025874718 	0.004832950354 	1.867764921e-06 	0.01447531237 	3.530947058e-06 	2.759396859e-05
0.9335488469 	0.0105678794 	0.004858388232 	2.023223593e-06 	0.01430672789 	3.704228693e-06 	2.727259971e-05
0.9437821903 	0.0108944478 	0.004910212883 	2.244758228e-06 	0.01415067521 	4.092356966e-06 	2.697511993e-05
0.9533406678 	0.01122692033 	0.004962556763 	2.481718916e-06 	0.01402976953 	4.655840263e-06 	2.67446401e-05
0.9596679154 	0.01153198031 	0.005015670893 	2.705349499e-06 	0.01396503756 	5.286662973e-06 	2.662124298e-05
0.9652695907 	0.01182123851 	0.005089562195 	2.926589121e-06 	0.01395719203 	5.950259867e-06 	2.660628722e-05
0.9702287469 	0.01212022238 	0.005167199405 	3.138525965e-06 	0.01399391206 	6.662541718e-06 	2.667628579e-05
0.9746189643 	0.01242614921 	0.005250789083 	3.33902833e-06 	0.01407272932 	7.392370825e-06 	2.682653339e-05
0.9785054204 	0.01273267702 	0.005336006879 	3.520187437e-06 	0.0141846894 	8.103620975e-06 	2.703996042e-05
0.9819458465 	0.01302748198 	0.005417239139 	3.673815289e-06 	0.01431350908 	8.755306944e-06 	2.728552655e-05
0.9849913737 	0.01328558984 	0.005488030321 	3.793070537e-06 	0.01443626432 	9.303203465e-06 	2.751953215e-05
0.9876872839 	0.01346261925 	0.005523222481 	3.857784366e-06 	0.01449648592 	9.682917997e-06 	2.763433125e-05
0.9900736765 	0.01347499692 	0.005543740441 	3.87154448e-06 	0.01441824432 	9.817701315e-06 	2.748518102e-05
0.9921860593 	0.01305453631 	0.005355771153 	3.710833195e-06 	0.01390234599 	9.494454487e-06 	2.650173541e-05
0.9935583211 	0.01207124782 	0.004954506369 	3.380968859e-06 	0.01279210731 	8.649515528e-06 	2.438531192e-05
0.9949306682 	0.009765530871 	0.004028750891 	2.674664046e-06 	0.01031687278 	6.828319006e-06 	1.966682695e-05
0.9963031006 	0.004585520382 	0.001788096104 	1.19270231e-06 	0.004819838288 	3.24863114e-06 	9.187951381e-06
0.9976756184 	0.0005547251287 	0.0001388520323 	1.233427741e-07 	0.0005662259916 	4.880222607e-07 	1.079384114e-06
0.9990482216 	5.69020571e-06 	2.007880416e-07 	3.038310833e-10 	5.681676401e-06 	7.358867882e-09 	1.083085436e-08
0.9990482216 	5.69020571e-06 	2.007880416e-07 	3.038310833e-10 	5.681676401e-06 	7.358867882e-09 	1.083085436e-08
