0.4641652576 	0.08766619259 	-0.002342606627 	-1.174544005e-05
0.4651990941 	0.3331625386 	-0.009790759003 	-4.487708023e-05
0.4662329504 	0.6103103959 	-0.01844678683 	-8.252177438e-05
0.467266816 	0.7829521006 	-0.02313022049 	-0.0001062402481
0.4683006803 	0.8772334631 	-0.02547236094 	-0.0001194232412
0.4693345329 	0.9424602478 	-0.02739246265 	-0.0001286110947
0.4709260673 	0.9970556926 	-0.02888557876 	-0.000136609121
0.4727241214 	1.041302731 	-0.03002256252 	-0.0001432191497
0.4747554116 	1.077429895 	-0.03089832122 	-0.0001487734345
0.4770589516 	1.10815111 	-0.0315619223 	-0.0001536323129
0.4796634245 	1.135099697 	-0.03208760668 	-0.0001580154928
0.4826056984 	1.159266428 	-0.03249536056 	-0.0001620469208
0.4859295513 	1.181340119 	-0.03280455515 	-0.0001658043369
0.4896996368 	1.20178357 	-0.03302282377 	-0.0001693497487
0.4939594095 	1.220897846 	-0.03315713629 	-0.0001726721766
0.4987781099 	1.240433993 	-0.03320848887 	-0.0001757251184
0.5060766604 	1.260868091 	-0.03313866774 	-0.0001794550888
0.5139128031 	1.279873468 	-0.03294203948 	-0.0001823476473
0.5223216845 	1.296548804 	-0.03263573101 	-0.0001844673729
0.5313471393 	1.311313617 	-0.03222576609 	-0.0001857988422
0.5410351781 	1.324452935 	-0.03172067453 	-0.0001863008612
0.5514342349 	1.336143653 	-0.03112255507 	-0.0001859157158
0.5625954391 	1.346493029 	-0.03043277655 	-0.0001845763195
0.5745729139 	1.355558398 	-0.0296509182 	-0.0001822123528
0.5874240993 	1.363361987 	-0.0287759282 	-0.0001787566946
0.6012101002 	1.369902262 	-0.02780632366 	-0.0001741523968
0.6159964431 	1.375163578 	-0.02674065788 	-0.0001683595878
0.6318568963 	1.379122576 	-0.0255779898 	-0.0001613600574
0.6488617476 	1.381750948 	-0.02431822832 	-0.0001531617613
0.6670934663 	1.383011733 	-0.02296184058 	-0.0001438038726
0.6866360874 	1.382844709 	-0.02150966928 	-0.0001333617991
0.7075804079 	1.381142637 	-0.01996285902 	-0.0001219520229
0.7300239977 	1.377792511 	-0.01834922366 	-0.0001099099448
0.7524754674 	1.372894773 	-0.01675304748 	-9.80578907e-05
0.7734422652 	1.366776016 	-0.01525381965 	-8.714490725e-05
0.7930211359 	1.359685008 	-0.01387004923 	-7.731932662e-05
0.8113031807 	1.351743565 	-0.01259275351 	-6.851014214e-05
0.8283739048 	1.343035579 	-0.01141250352 	-6.062553577e-05
0.844313407 	1.333616099 	-0.01032048814 	-5.35703615e-05
0.8591964582 	1.323515718 	-0.009308767278 	-4.725282394e-05
0.8730930293 	1.312742391 	-0.008370231584 	-4.158849478e-05
0.8860684419 	1.301281497 	-0.007498506574 	-3.650086752e-05
0.8981837067 	1.28909425 	-0.00668783416 	-3.192203656e-05
0.9094958036 	1.276114121 	-0.005933069646 	-2.779209722e-05
0.9200579402 	1.262240629 	-0.00522939698 	-2.405854899e-05
0.9299198015 	1.247328732 	-0.004572881417 	-2.067552125e-05
0.9391277838 	1.231173073 	-0.00395896246 	-1.760346293e-05
0.9477252122 	1.213473991 	-0.003386721831 	-1.480780684e-05
0.9557525438 	1.193812994 	-0.002850303412 	-1.226254304e-05
0.9632475577 	1.173131405 	-0.00237954247 	-1.008707587e-05
0.968207324 	1.15367787 	-0.002013755456 	-8.434059491e-06
0.9725972846 	1.134867365 	-0.001716676237 	-7.1111263e-06
0.9764828888 	1.114951161 	-0.001452344194 	-5.958962175e-06
0.9799220711 	1.093610503 	-0.001219068613 	-4.954072204e-06
0.9829661133 	1.070407252 	-0.001011665007 	-4.078237846e-06
0.9856604081 	1.044697335 	-0.0008300373685 	-3.315123728e-06
0.9880451351 	1.015502172 	-0.0006656033149 	-2.651621136e-06
0.9901558588 	0.9812009999 	-0.0005433384038 	-2.073507319e-06
0.9920240589 	0.9391814696 	-0.0004344719446 	-1.573024404e-06
0.9936775992 	0.887278771 	-0.0003644135456 	-1.162999357e-06
0.9947517089 	0.8251171877 	-0.0003713649919 	-8.425899652e-07
0.995825826 	0.7348386862 	4.734424302e-05 	-5.825244767e-07
0.9968999504 	0.5700427677 	0.0003882895044 	-3.295511846e-07
0.9979740823 	0.3091023286 	-0.0001101042663 	-1.340708525e-07
0.9990482216 	0.08811901702 	-0.0002937854283 	-4.0952863e-08
0.9990482216 	0.08811901702 	-0.0002937854283 	-4.0952863e-08
