8.200855087e-36 	0.9725486064 	-6.605113726e-14 	-4.966836485e-20
8.200855087e-36 	0.9725486064 	-6.605113726e-14 	-4.966836485e-20
0.001912604907 	0.9725547485 	-9.84254485e-06 	1.68968074e-07
0.003825194192 	0.9725713547 	-0.0001775217197 	3.959560208e-08
0.005737767794 	0.9725986217 	-0.0001750984706 	1.237758137e-07
0.007650325701 	0.9726375215 	-0.0002334037737 	2.1861364e-07
0.00956286795 	0.9726957806 	-0.0002968405491 	2.79392965e-07
0.01250713205 	0.9727911943 	-0.0003825778314 	3.427962948e-07
0.01583360909 	0.9729345763 	-0.0004831343629 	4.174131943e-07
0.01959191156 	0.973135287 	-0.0005966961273 	4.991344338e-07
0.02385649769 	0.9734108819 	-0.0007245434974 	5.845161078e-07
0.02867914987 	0.9737829146 	-0.0008684231421 	6.712709412e-07
0.03412783817 	0.9742779378 	-0.001029766588 	7.570569834e-07
0.04028381842 	0.9749300347 	-0.001210455129 	8.391173142e-07
0.04727081711 	0.9757816629 	-0.001412317644 	9.12973785e-07
0.05516671354 	0.9768832985 	-0.0016366355 	9.73663937e-07
0.0641017149 	0.9784466969 	-0.001908925416 	1.027100405e-06
0.07764239172 	0.9807491029 	-0.00224651189 	1.024666693e-06
0.09218964228 	0.9837557272 	-0.002613393099 	9.739772848e-07
0.1078092542 	0.9873743257 	-0.002980758315 	8.613428752e-07
0.1245847907 	0.9916492189 	-0.003342220136 	6.882175692e-07
0.1426038343 	0.9966163227 	-0.003689868331 	4.59562427e-07
0.1619584402 	1.002299315 	-0.004014543916 	1.844346616e-07
0.17459936 	1.006191623 	-0.004191587335 	3.512159433e-06
0.1827456333 	1.008703086 	-0.00430602175 	1.337151841e-07
0.2050679472 	1.015812556 	-0.004552819764 	4.822253529e-07
0.229034003 	1.02358583 	-0.004742033136 	8.225801035e-07
0.2547591248 	1.031935521 	-0.004860657569 	1.128875909e-06
0.2823668212 	1.040717903 	-0.004896027956 	1.37512542e-06
0.3119969157 	1.049712252 	-0.004837033331 	1.53882889e-06
0.3437800877 	1.058596915 	-0.004675862089 	1.605589367e-06
0.3778714604 	1.06693221 	-0.004410024203 	1.573647053e-06
0.4144274988 	1.074157358 	-0.004044209087 	1.455174247e-06
0.4536170638 	1.079625028 	-0.003590770919 	1.271777947e-06
0.4956212291 	1.082657471 	-0.003076697171 	1.049351155e-06
0.5376461177 	1.082900274 	-0.002553393485 	8.133093168e-07
0.5768947117 	1.080712543 	-0.002065762315 	5.822180305e-07
0.6135457513 	1.076703508 	-0.001627899112 	3.617421258e-07
0.6477684763 	1.071324891 	-0.001242091852 	1.539105592e-07
0.6797223209 	1.064882093 	-0.0009086191826 	-3.77884473e-08
0.7095570023 	1.057586816 	-0.0006263063896 	-2.094029706e-07
0.7374124644 	1.049593068 	-0.0003929665639 	-3.576257376e-07
0.7634198193 	1.041015984 	-0.0002056582148 	-4.801778591e-07
0.7877015329 	1.031940423 	-6.086324045e-05 	-5.757645938e-07
0.8103720244 	1.022423517 	4.541130867e-05 	-6.439335201e-07
0.8315381713 	1.012493332 	0.000117493159 	-6.849447201e-07
0.851299777 	1.002144623 	0.0001600905033 	-6.996808752e-07
0.8697500334 	0.9913312768 	0.000177816923 	-6.896648041e-07
0.8869759541 	0.979955223 	0.000176043772 	-6.569527524e-07
0.9030587819 	0.967843545 	0.0001581713024 	-6.044723098e-07
0.9180743698 	0.9547303465 	0.0001309699059 	-5.353900674e-07
0.9320935383 	0.9412062331 	0.0001019403773 	-4.594049263e-07
0.9413702454 	0.928673115 	7.482867369e-05 	-3.907969437e-07
0.9495809481 	0.9166169981 	5.292640633e-05 	-3.301212191e-07
0.9568481429 	0.9038751358 	3.523940103e-05 	-2.735910736e-07
0.9632802503 	0.8902030374 	2.052289742e-05 	-2.224799319e-07
0.9689732317 	0.8752840559 	9.98115427e-06 	-1.772851228e-07
0.9740120216 	0.8586738511 	1.6602637e-06 	-1.383654638e-07
0.9784717943 	0.8397213021 	-1.586208003e-07 	-1.053218919e-07
0.9824190858 	0.8173524914 	-9.214188918e-06 	-7.833325105e-08
0.9859127864 	0.7898786358 	-2.215870481e-05 	-5.661926361e-08
0.9890050191 	0.7559493071 	-3.039337205e-05 	-4.032382156e-08
0.9910136596 	0.7150434093 	-0.0001754272658 	-2.799782492e-08
0.9930223001 	0.6552861007 	3.977420901e-05 	-1.694563468e-08
0.9950309406 	0.5323009709 	0.0005343365621 	-1.283973903e-08
0.9970395811 	0.2999932348 	6.073917576e-05 	-5.378845489e-09
0.9990482216 	0.08745949125 	-0.0003163502775 	1.753243832e-09
0.9990482216 	0.08745949125 	-0.0003163502775 	1.753243832e-09
