15.1865 	0.36133 	-4.4247678e-18 	2.3936499 	-0.0074195113 	1.7654293e-09
15.1888 	0.396661 	3.2715324e-18 	2.449591 	-0.0062084257 	9.6187093e-10
15.1909 	0.434538 	-1.4552026e-18 	2.4873958 	-0.0052049841 	2.1417073e-08
15.1927 	0.475138 	3.8416332e-17 	2.5084454 	-0.0043125021 	2.0860329e-08
