14.8881 	0.361068 	-2.3012615e-17 	0.020737248 	-0.0067352697 	2.6352946e-08 	0.02028787 	-5.5101498e-08 	0.020666249
14.8906 	0.396407 	-2.533645e-17 	0.017045277 	-0.0046198118 	3.4869108e-08 	0.016709356 	-6.6101746e-08 	0.0170196
14.8927 	0.434296 	-2.1189217e-17 	0.014887849 	-0.0029438623 	3.7703633e-08 	0.014598112 	-5.94587e-08 	0.014873445
