14.6892 	0.360893 	-4.1888903e-17 	2.4009977 	-0.00818484 	3.5701252e-09
14.6917 	0.396238 	-1.0204502e-16 	2.4556197 	-0.0070242056 	2.8260236e-08
14.694 	0.434135 	-1.1157594e-16 	2.492882 	-0.0060065867 	3.125584e-09
