16.1829 	0.397506 	3.0315309e-18 	2.4345873 	-0.0056135842 	1.9783346e-08
16.1846 	0.435344 	-4.8280878e-20 	2.4750176 	-0.0045533763 	1.0376829e-08
16.186 	0.475896 	-1.495119e-18 	2.4970046 	-0.0036787093 	1.0098957e-08
