15.8847 	0.397252 	-2.4745009e-17 	2.43935 	-0.0057322148 	6.3709776e-09
15.8865 	0.435102 	2.9960402e-17 	2.4789478 	-0.0046908088 	1.9564979e-08
15.888 	0.475668 	8.0849295e-19 	2.500487 	-0.0038217928 	6.8056394e-09
