15.1865 	0.36133 	-4.4247678e-18 	0.021222206 	-0.0070751669 	2.8744047e-09 	0.020728701 	-6.1136353e-09 	0.021125572
15.1888 	0.396661 	3.2715324e-18 	0.017047847 	-0.004774537 	1.4109034e-09 	0.016687636 	-2.6880934e-09 	0.017009831
15.1909 	0.434538 	-1.4552026e-18 	0.014622099 	-0.0029756764 	2.9633289e-08 	0.01432917 	-4.648438e-08 	0.014599361
15.1927 	0.475138 	3.8416332e-17 	0.013536369 	-0.0014444593 	2.738408e-08 	0.013249021 	-3.0094352e-08 	0.013501211
