14.3908 	0.36063 	-2.3318923e-17 	2.4042285 	-0.0092495963 	2.6617434e-08
14.3935 	0.395984 	-5.1912796e-18 	2.458487 	-0.0080974499 	3.772339e-10
