0.4709558481 	0.06966158693 	0.001229114563 	-2.839884874e-07
0.4720092239 	0.2664270368 	0.002110386166 	-8.539498486e-07
0.4730625996 	0.5155119416 	-0.001405860384 	-1.987263696e-06
0.4741159754 	0.710780029 	-0.003673643546 	-2.979320649e-06
0.4751693511 	0.8372784186 	-0.00170469159 	4.51752882e-06
0.4762227269 	0.9264578417 	-0.0003576328546 	2.584173196e-05
0.4778443634 	0.9995094494 	0.002937898111 	2.837799608e-05
0.4796765386 	1.052906375 	0.005780241896 	-1.861556372e-05
0.4817465869 	1.092192657 	0.001590841562 	-5.955154025e-05
0.4840853915 	1.128391988 	-0.005472127067 	-2.477597469e-05
0.4867278453 	1.164709043 	-0.005659754564 	4.649755558e-05
0.4897133715 	1.195260988 	0.001450520626 	5.704523363e-05
0.4930865115 	1.217166052 	0.005833367377 	-1.135790187e-06
0.4968975894 	1.236157315 	0.002999305281 	-4.09526593e-05
0.5012034633 	1.257127738 	-0.001165053547 	-2.485406333e-05
0.506068373 	1.280563685 	-0.001721571495 	5.837787386e-06
0.5134203412 	1.303755105 	2.055992069e-05 	1.293564751e-05
0.5212948542 	1.32339608 	0.001178301773 	2.36595032e-06
0.529729052 	1.339848069 	0.001145705317 	-3.522786171e-06
0.5387627144 	1.35408317 	0.0008889132172 	-2.148784111e-06
0.5484384488 	1.366076489 	0.0009147639132 	3.699076847e-08
0.5588018907 	1.375828601 	0.001105660721 	1.44268729e-07
0.5699019192 	1.383611968 	0.001233242136 	-4.441428095e-07
0.5817908876 	1.389727885 	0.00128940079 	-5.733208249e-07
0.5945248701 	1.394375308 	0.00133306416 	-4.644819942e-07
0.6081639266 	1.397701851 	0.001373813631 	-4.350339312e-07
0.6227723857 	1.399830743 	0.001400970213 	-4.547270581e-07
0.638419148 	1.400839502 	0.001414489533 	-4.611614843e-07
0.6551780116 	1.400746884 	0.001416344339 	-4.581537599e-07
0.6731280194 	1.399515519 	0.001405644654 	-4.510261023e-07
0.6923538328 	1.397054016 	0.001380840744 	-4.372878097e-07
0.7129461301 	1.393216074 	0.001340381246 	-4.160257861e-07
0.7350020349 	1.38789823 	0.00128436676 	-3.876555979e-07
0.7570579485 	1.381290213 	0.001216021892 	-3.517976433e-07
0.7776502527 	1.373789142 	0.001139866333 	-3.065365506e-07
0.7968760713 	1.365635958 	0.001059894802 	-2.669747778e-07
0.814826083 	1.35691603 	0.0009799541328 	-2.698376009e-07
0.831584949 	1.347670761 	0.0009018646722 	-2.778637855e-07
0.8472317127 	1.337906833 	0.0008229301246 	-1.326844436e-07
0.8618401721 	1.32760729 	0.000742321701 	1.207954825e-07
0.8754792281 	1.316734886 	0.0006712872087 	-4.591158477e-08
0.8882132094 	1.305216038 	0.0006241385584 	-8.428709118e-07
0.9001021759 	1.292931805 	0.0005884419171 	-1.029640947e-06
0.9112022019 	1.27977136 	0.0005153395239 	8.158118062e-07
0.9215656407 	1.265677516 	0.0003818501458 	2.989140755e-06
0.9312413717 	1.250541169 	0.0002781039181 	7.512355147e-07
0.9402750304 	1.233993533 	0.000389166096 	-6.552688797e-06
0.9487092242 	1.215381501 	0.0006302702146 	-8.369265776e-06
0.9565837329 	1.194390839 	0.0005178618665 	7.860640447e-06
0.9639356968 	1.172805605 	-0.0003587120999 	2.933250102e-05
0.9688006083 	1.153107236 	-0.001195369349 	2.18872574e-05
0.9731064834 	1.133949903 	-0.000220927938 	-2.692461976e-05
0.976917562 	1.112115349 	0.002015496161 	-6.680737865e-05
0.9802907021 	1.08733593 	0.002135361146 	-2.26294398e-05
0.9832762282 	1.061774337 	-0.0004027378083 	6.22050328e-05
0.9859186816 	1.034850089 	-0.002226503582 	6.269814058e-05
0.9882574856 	1.002277897 	-0.001189860658 	-1.249195688e-05
0.990327533 	0.9600797969 	0.0005809079965 	-5.061405535e-05
0.9921597073 	0.9055265083 	0.000532017032 	-2.148970807e-05
0.9937813429 	0.8368652036 	-0.0005030930323 	1.061435872e-05
0.9948347186 	0.7531100242 	0.0004235675983 	1.23945867e-05
0.9958880943 	0.6327875971 	0.002561216566 	5.247587256e-06
0.9969414701 	0.4531557659 	0.0005288945445 	1.909085788e-06
0.9979948458 	0.2323228501 	-0.002015292094 	8.114094122e-07
0.9990482216 	0.06658042124 	-0.001037727363 	2.019762068e-07
0.9990482216 	0.06658042124 	-0.001037727363 	2.019762068e-07
