0.4709558481 	1.709637852e-06 	-7.247104387e-08 	4.878541125e-12 	1.710408637e-06 	-8.483494811e-11 	3.260514246e-09
0.4709558481 	1.709637852e-06 	-7.247104387e-08 	4.878541125e-12 	1.710408637e-06 	-8.483494811e-11 	3.260514246e-09
0.4720092239 	0.0001349130689 	-4.660604306e-05 	2.574934735e-09 	0.0001627592838 	-8.236609576e-09 	3.102644316e-07
0.4730625996 	0.001173649004 	-0.0009524460276 	2.127877666e-08 	0.002360244113 	-9.181327676e-08 	4.499281275e-06
0.4741159754 	0.003147892578 	-0.003286503746 	-3.095335032e-08 	0.007597624681 	-3.595528425e-07 	1.448318429e-05
0.4751693511 	0.004937775535 	-0.00545956459 	3.372328289e-07 	0.01225157697 	-1.267543881e-06 	2.335491086e-05
0.4762227269 	0.006241284945 	-0.006599275994 	2.053984412e-06 	0.01477640309 	-1.430716948e-06 	2.816793118e-05
0.4778443634 	0.006999491027 	-0.006757486922 	2.550949943e-06 	0.0161797283 	2.660867223e-06 	3.084305907e-05
0.4796765386 	0.00676505371 	-0.006368274155 	-2.706179151e-06 	0.01757487113 	6.875400595e-06 	3.350258906e-05
0.4817465869 	0.006246578621 	-0.00715801473 	-9.750248797e-06 	0.01923086137 	-1.192942628e-06 	3.665936672e-05
0.4840853915 	0.006939871949 	-0.008922350621 	-2.621811902e-06 	0.01842378986 	-1.568853204e-05 	3.51208641e-05
0.4867278453 	0.008378685768 	-0.008768553313 	1.199212101e-05 	0.01539589267 	-8.758228222e-06 	2.934885049e-05
0.4897133715 	0.008320636114 	-0.006495937983 	1.061571871e-05 	0.01453530336 	1.229620583e-05 	2.770832808e-05
0.4930865115 	0.006735891745 	-0.005247450598 	-2.708391982e-06 	0.01667347148 	1.534511588e-05 	3.17842708e-05
0.4968975894 	0.005696555823 	-0.006118984203 	-1.053869555e-05 	0.01785818682 	8.392153215e-07 	3.404266751e-05
0.5012034633 	0.005858470298 	-0.00731255368 	-5.167664112e-06 	0.01634050294 	-9.640247595e-06 	3.114954021e-05
0.506068373 	0.006159190584 	-0.007055060946 	2.915864222e-06 	0.01411272993 	-6.161569028e-06 	2.690278568e-05
0.5134203412 	0.005798699954 	-0.00584592647 	3.079089723e-06 	0.01285435768 	1.699849053e-06 	2.450397842e-05
0.5212948542 	0.005111736514 	-0.005019951411 	5.567991696e-08 	0.01220553062 	3.722749685e-06 	2.326713371e-05
0.529729052 	0.004600069215 	-0.004715893668 	-1.186647713e-06 	0.01133561615 	1.116081853e-06 	2.160883495e-05
0.5387627144 	0.004348901714 	-0.004375262895 	-6.799076131e-07 	0.01005477781 	-3.767925157e-07 	1.916720108e-05
0.5484384488 	0.004204832977 	-0.00382485358 	-1.139941096e-07 	0.00873664765 	2.528639509e-07 	1.665447865e-05
0.5588018907 	0.004087209846 	-0.003220328426 	-1.814633425e-07 	0.00759327064 	9.041669867e-07 	1.447488428e-05
0.5699019192 	0.004018974042 	-0.002668868919 	-3.891006461e-07 	0.006581157954 	7.944206244e-07 	1.25455162e-05
0.5817908876 	0.004009701921 	-0.002136361385 	-4.243358547e-07 	0.005666340972 	5.098508151e-07 	1.080162077e-05
0.5945248701 	0.00402841879 	-0.001587166442 	-4.119119811e-07 	0.004917032697 	3.523616692e-07 	9.37323094e-06
0.6081639266 	0.004056490932 	-0.00103110819 	-4.32353352e-07 	0.004394416976 	1.893015991e-07 	8.376980122e-06
0.6227723857 	0.004093035396 	-0.0004777980877 	-4.533275396e-07 	0.004118680724 	-2.712097973e-08 	7.851350189e-06
0.638419148 	0.004136560404 	7.275703071e-05 	-4.620369201e-07 	0.004096359925 	-2.470203963e-07 	7.808800542e-06
0.6551780116 	0.004182718793 	0.0006196866927 	-4.633961052e-07 	0.004321115544 	-4.446601072e-07 	8.237247218e-06
0.6731280194 	0.004226278175 	0.001160693918 	-4.557138117e-07 	0.004770108081 	-6.056904817e-07 	9.093151786e-06
0.6923538328 	0.004261093835 	0.001693732871 	-4.359746471e-07 	0.005409978398 	-7.153257939e-07 	1.031292245e-05
0.7129461301 	0.004281560384 	0.002217077119 	-4.021749951e-07 	0.006202378536 	-7.645535727e-07 	1.182345735e-05
0.7350020349 	0.004284815735 	0.002721390163 	-3.533649245e-07 	0.007092962342 	-7.499991761e-07 	1.352115761e-05
0.7570579485 	0.004273719938 	0.003183859741 	-2.932609019e-07 	0.007998225155 	-6.775382682e-07 	1.524684014e-05
0.7776502527 	0.004257081312 	0.003590018083 	-2.317353097e-07 	0.008848310417 	-5.693608684e-07 	1.686733892e-05
0.7968760713 	0.004245392619 	0.00394531827 	-1.74891046e-07 	0.009622618614 	-4.598386779e-07 	1.834338555e-05
0.814826083 	0.004248044842 	0.004259096981 	-1.065352428e-07 	0.01032392578 	-3.551249592e-07 	1.968027191e-05
0.831584949 	0.004273180301 	0.004537546316 	-9.473273352e-09 	0.01095702642 	-1.955999488e-07 	2.088713771e-05
0.8472317127 	0.004327214865 	0.004789536419 	4.736588216e-08 	0.01152728721 	3.259470679e-08 	2.197421327e-05
0.8618401721 	0.00441232903 	0.005027920576 	-5.225603895e-08 	0.01204583951 	1.41359773e-07 	2.296271807e-05
0.8754792281 	0.004525161395 	0.005253807136 	-1.598473675e-07 	0.01253157578 	-4.76783366e-08 	2.388866641e-05
0.8882132094 	0.004662279315 	0.005447553274 	1.621715836e-07 	0.01299701625 	-2.389508299e-07 	2.477592531e-05
0.9001021759 	0.0048313235 	0.005603146543 	8.197339124e-07 	0.01342494746 	1.97267829e-07 	2.559168113e-05
0.9112022019 	0.005048016548 	0.005770501673 	6.485170811e-07 	0.0137799229 	1.258846226e-06 	2.626836299e-05
0.9215656407 	0.005296071515 	0.005994607093 	-9.48499126e-07 	0.01408957131 	1.650446974e-06 	2.685863891e-05
0.9312413717 	0.005515394759 	0.006222151671 	-1.837795584e-06 	0.01447942351 	-2.246011026e-07 	2.760180556e-05
0.9402750304 	0.005671741365 	0.006331397831 	4.595942592e-07 	0.01500620355 	-3.164509544e-06 	2.860599473e-05
0.9487092242 	0.005876875436 	0.006265276421 	4.448592988e-06 	0.01541469157 	-1.94099072e-06 	2.938468642e-05
0.9565837329 	0.006277371495 	0.006309396922 	3.425283717e-06 	0.01541053754 	5.686495727e-06 	2.93767677e-05
0.9639356968 	0.006741625044 	0.006676612922 	-5.944708692e-06 	0.01515686839 	1.034981803e-05 	2.889320379e-05
0.9688006083 	0.006949890702 	0.00710658004 	-1.151394503e-05 	0.01536272889 	4.835051342e-07 	2.928563111e-05
0.9731064834 	0.006667403888 	0.007293554539 	-3.763040781e-06 	0.01639868513 	-1.65092212e-05 	3.126045163e-05
0.976917562 	0.006434043536 	0.006623470029 	1.080259722e-05 	0.01704199173 	-1.665857649e-05 	3.248677282e-05
0.9802907021 	0.006901053475 	0.0059498265 	1.570402631e-05 	0.01616018739 	8.291841356e-06 	3.080580866e-05
0.9832762282 	0.007333675623 	0.00648979747 	-1.274282647e-06 	0.01525994648 	2.127534573e-05 	2.908969927e-05
0.9859186816 	0.007165197233 	0.007086667247 	-1.314879256e-05 	0.01540803351 	4.007950905e-06 	2.93719943e-05
0.9882574856 	0.006584909158 	0.006976958254 	-4.629968341e-06 	0.01588393477 	-9.765965383e-06 	3.027919439e-05
0.990327533 	0.006039938803 	0.006432891389 	3.62185427e-06 	0.01566019671 	-5.823648382e-06 	2.985268745e-05
0.9921597073 	0.005702059786 	0.005918760545 	3.511966751e-06 	0.01447391986 	1.309271769e-06 	2.759131408e-05
0.9937813429 	0.005083976736 	0.005361293183 	2.694510308e-07 	0.01250842957 	2.20250811e-06 	2.384454331e-05
0.9948347186 	0.004002252624 	0.004304805947 	-5.331229808e-07 	0.009821920449 	4.597208551e-07 	1.872331024e-05
0.9958880943 	0.002429945355 	0.0024409867 	-1.164250104e-07 	0.005686707202 	1.740245874e-08 	1.084044447e-05
0.9969414701 	0.0008452801489 	0.0006349607009 	1.294797845e-08 	0.001595579298 	3.28582836e-08 	3.041617609e-06
0.9979948458 	9.20162377e-05 	2.787032504e-05 	1.159459313e-09 	0.0001065629138 	3.628560619e-09 	2.031385314e-07
0.9990482216 	1.264873707e-06 	4.58144158e-08 	2.032362576e-12 	1.264461546e-06 	4.064795027e-11 	2.410415145e-09
0.9990482216 	1.264873707e-06 	4.58144158e-08 	2.032362576e-12 	1.264461546e-06 	4.064795027e-11 	2.410415145e-09
