0.4709558481 	0.06680679368 	0.001107788674 	-1.613869574e-07
0.4709558481 	0.06680679368 	0.001107788674 	-1.613869574e-07
0.4720092239 	0.2555471733 	0.002002915754 	-4.92085331e-07
0.4730625996 	0.4955420628 	-0.001312486632 	-1.359360795e-06
0.4741159754 	0.686144379 	-0.003668100262 	-7.772805364e-07
0.4751693511 	0.8115187117 	-0.001134824454 	1.16942953e-05
0.4762227269 	0.8994106777 	0.001923069753 	3.540667484e-05
0.4778443634 	0.9691879891 	0.004687861828 	2.166015973e-05
0.4796765386 	1.020359741 	0.003079490566 	-4.686279543e-05
0.4817465869 	1.061855721 	-0.003737892945 	-7.742155483e-05
0.4840853915 	1.101478551 	-0.006530366583 	-2.070159611e-06
0.4867278453 	1.136225236 	-0.0005718801596 	8.699082612e-05
0.4897133715 	1.161043975 	0.005930882945 	6.089295815e-05
0.4930865115 	1.180242871 	0.004273897183 	-3.454521606e-05
0.4968975894 	1.201023639 	-0.001442559068 	-6.41342049e-05
0.5012034633 	1.223789947 	-0.003364048467 	-2.053787715e-05
0.506068373 	1.246806289 	-0.001132749791 	1.943940142e-05
0.5134203412 	1.26868703 	0.0008331377732 	1.888587301e-05
0.5212948542 	1.288128031 	0.0007238934147 	-2.027413761e-08
0.529729052 	1.305757909 	9.580304733e-05 	-6.585131989e-06
0.5387627144 	1.321799591 	-4.603150013e-05 	-2.624101372e-06
0.5484384488 	1.335971822 	0.0001041104337 	6.846593571e-07
0.5588018907 	1.348333338 	0.0002153193361 	3.124290566e-07
0.5699019192 	1.35913068 	0.000231270884 	-7.52106021e-07
0.5817908876 	1.368494319 	0.0002331609826 	-8.987500682e-07
0.5945248701 	1.376432795 	0.0002520434146 	-6.765068218e-07
0.6081639266 	1.382953971 	0.0002752204037 	-6.166701191e-07
0.6227723857 	1.388094385 	0.0002900349464 	-6.580224916e-07
0.638419148 	1.39189575 	0.0002946495334 	-6.731370603e-07
0.6551780116 	1.394387797 	0.0002899976453 	-6.663519844e-07
0.6731280194 	1.39557694 	0.0002773425125 	-6.611535613e-07
0.6923538328 	1.395427814 	0.0002593294342 	-6.556724962e-07
0.7129461301 	1.39384132 	0.0002393788809 	-6.44212324e-07
0.7350020349 	1.390699379 	0.0002212153145 	-6.264461801e-07
0.7570579485 	1.386082226 	0.0002057669261 	-6.052540907e-07
0.7776502527 	1.380288698 	0.000190460828 	-5.807427762e-07
0.7968760713 	1.373548049 	0.0001734392859 	-5.558536317e-07
0.814826083 	1.365971192 	0.000154593516 	-5.514420865e-07
0.831584949 	1.357631659 	0.0001354458857 	-5.696750788e-07
0.8472317127 	1.348572841 	0.0001191525618 	-5.187216404e-07
0.8618401721 	1.338812624 	0.0001054715967 	-3.211919036e-07
0.8754792281 	1.328348287 	8.589525685e-05 	-2.395914472e-07
0.8882132094 	1.317158929 	5.732879249e-05 	-7.414382066e-07
0.9001021759 	1.305195148 	4.526211798e-05 	-1.431865645e-06
0.9112022019 	1.292361013 	7.571028666e-05 	-6.071763014e-07
0.9215656407 	1.278509014 	0.0001013902322 	2.309963346e-06
0.9312413717 	1.263493747 	7.656571683e-06 	3.135219296e-06
0.9402750304 	1.247198184 	-0.0001636233209 	-4.027991015e-06
0.9487092242 	1.229297814 	-0.0001277410538 	-1.320951441e-05
0.9565837329 	1.20906554 	0.0003768703634 	-2.345878946e-06
0.9639356968 	1.187108351 	0.0007784241475 	3.265922536e-05
0.9688006083 	1.166110882 	8.812373132e-05 	4.550270775e-05
0.9731064834 	1.146697872 	-0.001211440922 	-7.369728017e-06
0.976917562 	1.126711181 	-0.001294861376 	-8.262662158e-05
0.9802907021 	1.103829941 	0.0003518464106 	-6.490799768e-05
0.9832762282 	1.077085256 	0.001873259267 	5.066917732e-05
0.9859186816 	1.046934734 	0.0009873488309 	9.81369668e-05
0.9882574856 	1.013328109 	-0.001189607033 	1.66082947e-05
0.990327533 	0.9728598055 	-0.001803100581 	-5.839337507e-05
0.9921597073 	0.9193580019 	-0.0008061980457 	-4.266025266e-05
0.9937813429 	0.8496967556 	-0.000233577801 	1.292469824e-06
0.9948347186 	0.7646006129 	0.0009203792557 	1.41903097e-05
0.9958880943 	0.6432116769 	0.002879848134 	8.297266105e-06
0.9969414701 	0.4613925315 	0.000705210351 	3.312077898e-06
0.9979948458 	0.2367638498 	-0.002006273502 	1.427349984e-06
0.9990482216 	0.06785949957 	-0.001070060699 	4.029100584e-07
0.9990482216 	0.06785949957 	-0.001070060699 	4.029100584e-07
