1.640171017e-35 	0.004652127736 	-3.204555718e-16 	-1.968834743e-19 	1.297454853e-15 	5.664810227e-17 	2.473309559e-18
0.001912604907 	0.003249260936 	-2.537410417e-05 	1.809381162e-08 	0.007148035845 	-1.206373603e-06 	1.362614301e-05
0.003825194192 	0.002394875776 	-9.296557601e-05 	6.654671123e-08 	0.004510604807 	-7.778566454e-07 	8.59846642e-06
0.005737767794 	0.003086243787 	-0.0001931399794 	1.334899492e-07 	0.003386957333 	-6.386533264e-07 	6.456482033e-06
0.007650325701 	0.003167907663 	-0.0002610677682 	1.743892417e-07 	0.003541389656 	-6.911758776e-07 	6.750872962e-06
0.00956286795 	0.00305440331 	-0.0003032938132 	1.995987027e-07 	0.003860452178 	-7.413961342e-07 	7.359094808e-06
0.01250713205 	0.002993085748 	-0.0003686690298 	2.400348891e-07 	0.004007538318 	-7.621398532e-07 	7.639481871e-06
0.01583360909 	0.002998466549 	-0.0004669478117 	2.972775096e-07 	0.004046845354 	-7.980882865e-07 	7.714412007e-06
0.01959191156 	0.003027480984 	-0.0005849752733 	3.591033167e-07 	0.00409463337 	-8.641397789e-07 	7.805509247e-06
0.02385649769 	0.003054684869 	-0.0007127705712 	4.196857634e-07 	0.004195657421 	-9.487647651e-07 	7.998089167e-06
0.02867914987 	0.003084084456 	-0.0008514008001 	4.798082254e-07 	0.004342063174 	-1.045531549e-06 	8.277179224e-06
0.03412783817 	0.003123486618 	-0.001005810653 	5.391369717e-07 	0.004528052955 	-1.155233243e-06 	8.63172744e-06
0.04028381842 	0.003175563083 	-0.001178205157 	5.946807122e-07 	0.00475934857 	-1.274221727e-06 	9.072641167e-06
0.04727081711 	0.003241464799 	-0.001368752442 	6.425213482e-07 	0.005041897175 	-1.389779586e-06 	9.611257339e-06
0.05516671354 	0.003322265701 	-0.001577310466 	6.792865365e-07 	0.005378234109 	-1.488377983e-06 	1.025240901e-05
0.0641017149 	0.00342931211 	-0.001823144845 	7.06820659e-07 	0.005802111563 	-1.569546897e-06 	1.106043725e-05
0.07764239172 	0.003570970711 	-0.002118723893 	6.919258234e-07 	0.006333192101 	-1.551558441e-06 	1.207282436e-05
0.09218964228 	0.003728643284 	-0.002426739054 	6.423677189e-07 	0.006900488971 	-1.445980636e-06 	1.315424987e-05
0.1078092542 	0.003880852539 	-0.002714694485 	5.514049006e-07 	0.00743425264 	-1.238940453e-06 	1.417175178e-05
0.1245847907 	0.00401570202 	-0.002972618732 	4.243816141e-07 	0.00790058792 	-9.465960486e-07 	1.506071643e-05
0.1426038343 	0.004121676746 	-0.003187741053 	2.700826491e-07 	0.008264385668 	-5.954235715e-07 	1.575421605e-05
0.1619584402 	0.004187919746 	-0.003345896926 	1.018158638e-07 	0.008492462615 	-2.211559276e-07 	1.61889941e-05
0.17459936 	0.00419947613 	-0.003398389011 	5.265734808e-06 	0.008530037088 	-1.572775372e-05 	1.626062149e-05
0.1827456333 	0.004206897713 	-0.003432178956 	6.390693688e-08 	0.008554112268 	-1.362856734e-07 	1.630651547e-05
0.2050679472 	0.004176504809 	-0.003432431296 	2.054005031e-07 	0.008425444719 	-4.309309349e-07 	1.606123937e-05
0.229034003 	0.004102379232 	-0.00333612562 	3.02381594e-07 	0.008095685027 	-6.270527703e-07 	1.543262574e-05
0.2547591248 	0.003998379709 	-0.003139940855 	3.463561255e-07 	0.007575041348 	-7.188636498e-07 	1.444013418e-05
0.2823668212 	0.003883820024 	-0.002850684535 	3.43309682e-07 	0.006900043541 	-7.318531667e-07 	1.315340076e-05
0.3119969157 	0.003777379572 	-0.00248534324 	3.12077308e-07 	0.00613247181 	-7.128935081e-07 	1.16901957e-05
0.3437800877 	0.003690941934 	-0.002066691578 	2.748728879e-07 	0.005349281046 	-7.048560706e-07 	1.019721643e-05
0.3778714604 	0.003627664047 	-0.001615907714 	2.464788738e-07 	0.004627027246 	-7.215884932e-07 	8.820399947e-06
0.4144274988 	0.003585175612 	-0.001146632624 	2.303300552e-07 	0.004029421609 	-7.429725773e-07 	7.681197506e-06
0.4536170638 	0.003560093382 	-0.0006632608265 	2.219441387e-07 	0.003604491118 	-7.325090416e-07 	6.871161887e-06
0.4956212291 	0.003550714715 	-0.0001695836489 	2.139730677e-07 	0.003390637969 	-6.637562145e-07 	6.463498349e-06
0.5376461177 	0.003556057852 	0.0003150004635 	1.992319239e-07 	0.003405721395 	-5.410524358e-07 	6.49225155e-06
0.5768947117 	0.003573509639 	0.0007714603677 	1.728368694e-07 	0.003624111416 	-3.998045908e-07 	6.908563628e-06
0.6135457513 	0.003600368777 	0.00119723262 	1.316134327e-07 	0.003999770977 	-2.797785603e-07 	7.624675162e-06
0.6477684763 	0.003635730325 	0.001592830995 	7.428648707e-08 	0.004487132017 	-2.103531382e-07 	8.553720759e-06
0.6797223209 	0.003680701904 	0.001956856446 	2.036174269e-09 	0.005042926185 	-2.066802111e-07 	9.613218918e-06
0.7095570023 	0.003737228711 	0.002287194664 	-8.154386242e-08 	0.005627785398 	-2.690566999e-07 	1.072812313e-05
0.7374124644 	0.003806074034 	0.002581747268 	-1.709189435e-07 	0.00620799453 	-3.859747749e-07 	1.1834163e-05
0.7634198193 	0.003885265656 	0.002839132831 	-2.597469113e-07 	0.0067568717 	-5.391411721e-07 	1.288047544e-05
0.7877015329 	0.003969728093 	0.003059065623 	-3.419965972e-07 	0.007255202845 	-7.083951324e-07 	1.38304331e-05
0.8103720244 	0.004052057041 	0.003242105633 	-4.126891016e-07 	0.007690645226 	-8.751378416e-07 	1.466050731e-05
0.8315381713 	0.004124213361 	0.003390019595 	-4.680194978e-07 	0.008056237958 	-1.023936171e-06 	1.535742866e-05
0.851299777 	0.004178428445 	0.003504660452 	-5.054440188e-07 	0.008350303197 	-1.142522511e-06 	1.591799874e-05
0.8697500334 	0.004209730478 	0.00358932073 	-5.232051253e-07 	0.008572361719 	-1.221930243e-06 	1.6341304e-05
0.8869759541 	0.004213258736 	0.003647284621 	-5.205083392e-07 	0.008729931555 	-1.254750764e-06 	1.66416759e-05
0.9030587819 	0.004190240909 	0.003680465811 	-4.97694149e-07 	0.008822086703 	-1.237788601e-06 	1.681734923e-05
0.9180743698 	0.004139224749 	0.003700991583 	-4.546129576e-07 	0.008864865371 	-1.168070087e-06 	1.689889726e-05
0.9320935383 	0.004070984506 	0.003697335956 	-4.00314544e-07 	0.008853632892 	-1.058892022e-06 	1.687748503e-05
0.9413702454 	0.004001660772 	0.003681537367 	-3.465916276e-07 	0.008810796848 	-9.380505974e-07 	1.679582763e-05
0.9495809481 	0.003931629402 	0.003672600657 	-2.947871011e-07 	0.008768225721 	-8.136967772e-07 	1.671467523e-05
0.9568481429 	0.003860664702 	0.003657368768 	-2.450431091e-07 	0.008715102904 	-6.863817855e-07 	1.661340837e-05
0.9632802503 	0.00378913512 	0.003642263291 	-1.988219699e-07 	0.008657592819 	-5.620251265e-07 	1.650377817e-05
0.9689732317 	0.00371500666 	0.00362025116 	-1.573467184e-07 	0.00859797251 	-4.466736133e-07 	1.639012529e-05
0.9740120216 	0.003640642247 	0.003595914207 	-1.219418699e-07 	0.008523772237 	-3.437474792e-07 	1.624867894e-05
0.9784717943 	0.003544623051 	0.003555468101 	-9.215184881e-08 	0.008459442124 	-2.56956242e-07 	1.612604787e-05
0.9824190858 	0.003435761394 	0.003484766652 	-6.732184589e-08 	0.008309184476 	-1.849999997e-07 	1.583961503e-05
0.9859127864 	0.003263791274 	0.003395960238 	-4.935334152e-08 	0.008078790141 	-1.306911066e-07 	1.540041939e-05
0.9890050191 	0.002991187861 	0.003148242457 	-3.596987055e-08 	0.007440841456 	-9.290816125e-08 	1.418431189e-05
0.9910136596 	0.002584578826 	0.002774488137 	-2.800154281e-08 	0.006361942221 	-6.730684912e-08 	1.212763008e-05
0.9930223001 	0.001794881031 	0.001900883735 	-2.232386021e-08 	0.004342824698 	-5.044415923e-08 	8.2786309e-06
0.9950309406 	0.0006962453111 	0.0006262120937 	-9.57166735e-09 	0.001512904819 	-2.26159181e-08 	2.884017075e-06
0.9970395811 	6.525201816e-05 	2.461007222e-05 	-4.600335866e-10 	8.129456816e-05 	-1.369090716e-09 	1.549700416e-07
0.9990482216 	4.856897034e-07 	1.720008945e-08 	-2.90945983e-13 	4.855398048e-07 	-6.757822792e-12 	9.255738166e-10
0.9990482216 	4.856897034e-07 	1.720008945e-08 	-2.90945983e-13 	4.855398048e-07 	-6.757822792e-12 	9.255738166e-10
