0.4709558481 	1.655431518e-06 	-2.309031891e-08 	1.558243574e-12 	1.651915885e-06 	-7.545126499e-11 	3.149010803e-09
0.4720092239 	0.000135376007 	-1.502466314e-05 	8.667992649e-10 	0.0001355408403 	-5.527204593e-09 	2.583785132e-07
0.4730625996 	0.001383792945 	-0.0003153976922 	7.872055046e-09 	0.001388511656 	-3.440547155e-08 	2.646889132e-06
0.4741159754 	0.004057941962 	-0.001079082031 	-3.07949769e-08 	0.004032799689 	-5.234639466e-08 	7.687637065e-06
0.4751693511 	0.006484118831 	-0.001789072799 	-3.408067055e-08 	0.006415628535 	-3.903172828e-07 	1.222997112e-05
0.4762227269 	0.008024447356 	-0.002213845576 	4.411512363e-07 	0.007881017885 	-1.121348053e-06 	1.50234105e-05
0.4778443634 	0.008924752662 	-0.002374407289 	1.035515432e-06 	0.008677382479 	-2.231292242e-07 	1.654150276e-05
0.4796765386 	0.009121593677 	-0.002284202215 	-6.746747638e-08 	0.009187437662 	2.416611721e-06 	1.75138097e-05
0.4817465869 	0.009127628223 	-0.002357452681 	-2.470871192e-06 	0.009817910894 	1.340464559e-06 	1.871566691e-05
0.4840853915 	0.009410112416 	-0.002705822334 	-2.148710693e-06 	0.00993079757 	-3.888568414e-06 	1.893086029e-05
0.4867278453 	0.009836287732 	-0.00285135913 	1.871224135e-06 	0.009240595456 	-4.66381243e-06 	1.761514323e-05
0.4897133715 	0.00978166542 	-0.002465359692 	3.86005436e-06 	0.008676821325 	1.716116998e-06 	1.654043304e-05
0.4930865115 	0.009121414399 	-0.002041358315 	7.211411687e-07 	0.008897391011 	5.922016893e-06 	1.696090017e-05
0.4968975894 	0.008475503135 	-0.00207536587 	-2.415702427e-06 	0.009159887545 	2.122763066e-06 	1.746129152e-05
0.5012034633 	0.008198833679 	-0.002299058483 	-1.888465534e-06 	0.008713036745 	-2.685887901e-06 	1.66094697e-05
0.506068373 	0.007978071208 	-0.002290557135 	1.216539006e-08 	0.007881847726 	-2.404544442e-06 	1.502499241e-05
0.5134203412 	0.007494239304 	-0.002046920702 	7.593811559e-07 	0.007189686143 	2.295865942e-07 	1.370554006e-05
0.5212948542 	0.00684594788 	-0.001802962607 	2.763866568e-07 	0.006694087967 	1.236352384e-06 	1.276079219e-05
0.529729052 	0.006232345856 	-0.001655696868 	-2.634071268e-07 	0.006221575606 	5.655308781e-07 	1.18600523e-05
0.5387627144 	0.005709080361 	-0.001521481632 	-2.807383611e-07 	0.005696751744 	-1.482315389e-08 	1.085959215e-05
0.5484384488 	0.005258069402 	-0.001351901141 	-1.156290934e-07 	0.005193470969 	2.842367543e-08 	9.900199118e-06
0.5588018907 	0.00486214191 	-0.001163370482 	-6.984575366e-08 	0.004781960194 	1.999161123e-07 	9.115745208e-06
0.5699019192 	0.00452978201 	-0.0009790484381 	-1.19485846e-07 	0.004466417222 	1.582342511e-07 	8.514232602e-06
0.5817908876 	0.004274801773 	-0.0007999521624 	-1.526488138e-07 	0.004224428874 	2.045649625e-08 	8.052935554e-06
0.5945248701 	0.004096466614 	-0.0006198539844 	-1.523377771e-07 	0.004050337905 	-7.020388049e-08 	7.721069781e-06
0.6081639266 	0.003986487835 	-0.0004383950124 	-1.495223303e-07 	0.00394530378 	-1.26525294e-07 	7.520845545e-06
0.6227723857 	0.003938053138 	-0.0002573238775 	-1.516777042e-07 	0.003904258826 	-1.840325729e-07 	7.442602456e-06
0.638419148 	0.003945888889 	-7.645267567e-05 	-1.53108561e-07 	0.003919811642 	-2.383215984e-07 	7.472250446e-06
0.6551780116 	0.004004819436 	0.0001052643752 	-1.52582506e-07 	0.003986658439 	-2.804881331e-07 	7.599679019e-06
0.6731280194 	0.0041102797 	0.000288523037 	-1.503728679e-07 	0.004100581592 	-3.091372652e-07 	7.816848213e-06
0.6923538328 	0.004258478963 	0.0004737144425 	-1.457635537e-07 	0.004257622372 	-3.221459902e-07 	8.116211586e-06
0.7129461301 	0.004446204894 	0.0006609222602 	-1.380465291e-07 	0.004454157334 	-3.157244521e-07 	8.490861847e-06
0.7350020349 	0.004666983832 	0.0008468086583 	-1.26958872e-07 	0.004683198386 	-2.870061676e-07 	8.927477751e-06
0.7570579485 	0.004905507528 	0.001021999505 	-1.130153759e-07 	0.004928923433 	-2.378687882e-07 	9.395897986e-06
0.7776502527 	0.005146351765 	0.001179103753 	-9.770731858e-08 	0.005175357607 	-1.733320447e-07 	9.865670016e-06
0.7968760713 	0.005384625497 	0.001318148832 	-8.356589594e-08 	0.00541712472 	-9.627035857e-08 	1.032654533e-05
0.814826083 	0.005621065362 	0.001441774652 	-7.221275667e-08 	0.005655097985 	-1.796528661e-08 	1.078018851e-05
0.831584949 	0.005856813378 	0.001552260133 	-5.907420168e-08 	0.005891470329 	3.658385042e-08 	1.12307799e-05
0.8472317127 	0.006093275631 	0.001651079462 	-3.511449697e-08 	0.006128007251 	7.547099155e-08 	1.168168501e-05
0.8618401721 	0.006332324388 	0.001739273296 	-7.088235715e-09 	0.006364371846 	1.703832892e-07 	1.213226162e-05
0.8754792281 	0.006575115236 	0.00181943421 	-1.329172385e-08 	0.006599888431 	3.263636956e-07 	1.258122169e-05
0.8882132094 	0.00682010883 	0.001895741583 	-7.604953273e-08 	0.006837592695 	3.478154002e-07 	1.303435209e-05
0.9001021759 	0.007063502396 	0.001967631733 	-9.998478462e-08 	0.007083194255 	9.434259128e-08 	1.350253692e-05
0.9112022019 	0.007303974301 	0.00202701345 	7.51613032e-08 	0.00733512853 	-9.704919583e-08 	1.398279367e-05
0.9215656407 	0.007547152212 	0.002071744558 	3.204809651e-07 	0.007578040006 	3.204095819e-07 	1.444585046e-05
0.9312413717 	0.00780054753 	0.002119396487 	1.406743641e-07 	0.007795123455 	1.097970534e-06 	1.485967185e-05
0.9402750304 	0.008054472157 	0.002192106959 	-6.05630322e-07 	0.008006853061 	8.985806487e-07 	1.526328732e-05
0.9487092242 	0.008280083527 	0.002262948305 	-8.923463325e-07 	0.008261310475 	-9.233595598e-07 	1.574835388e-05
0.9565837329 	0.008463247203 	0.002271643714 	6.858337868e-07 	0.00856738861 	-2.216806126e-06 	1.633182387e-05
0.9639356968 	0.008650740272 	0.002221796977 	2.47364729e-06 	0.008819903454 	-1.024689796e-07 	1.681318735e-05
0.9688006083 	0.008906599363 	0.002204310068 	1.030361345e-06 	0.008852582283 	4.637461896e-06 	1.687548228e-05
0.9731064834 	0.009171747203 	0.002304313386 	-2.808665707e-06 	0.008795911452 	5.924675225e-06 	1.676745192e-05
0.976917562 	0.009249103142 	0.002444604257 	-4.089590081e-06 	0.008999192447 	-1.028711004e-06 	1.7154962e-05
0.9802907021 	0.009097130193 	0.002408425166 	-4.956393157e-08 	0.009319894066 	-7.531668763e-06 	1.776630842e-05
0.9832762282 	0.008956908467 	0.002233560348 	4.211018641e-06 	0.009312812321 	-3.088550774e-06 	1.775280865e-05
0.9859186816 	0.00892972669 	0.002182584342 	2.508885598e-06 	0.008970688114 	4.15051393e-06 	1.710062482e-05
0.9882574856 	0.008823703745 	0.002262168775 	-1.466103788e-06 	0.008637126357 	3.270798904e-06 	1.64647634e-05
0.990327533 	0.008467315044 	0.002269472692 	-1.87189275e-06 	0.008365926582 	-1.004868759e-06 	1.594778125e-05
0.9921597073 	0.007819128989 	0.002134812034 	-1.901242632e-07 	0.007840277417 	-1.371143355e-06 	1.494574785e-05
0.9937813429 	0.006788773296 	0.001853458233 	4.752104402e-07 	0.006783785237 	1.844407665e-07 	1.293178012e-05
0.9948347186 	0.005346775505 	0.001457433204 	2.183222182e-07 	0.005291824898 	4.53063404e-07 	1.008768904e-05
0.9958880943 	0.003191420631 	0.0008359150583 	2.511990675e-08 	0.003168043507 	1.49074749e-07 	6.039171437e-06
0.9969414701 	0.001017410271 	0.0002216452139 	1.458100251e-09 	0.001020510123 	2.193666011e-08 	1.945375931e-06
0.9979948458 	9.634576354e-05 	9.586969897e-06 	2.04311163e-10 	9.638306172e-05 	1.940586104e-09 	1.837329039e-07
0.9990482216 	1.289329889e-06 	1.567273705e-08 	4.844530026e-13 	1.286604935e-06 	2.835439516e-11 	2.452626598e-09
0.9990482216 	1.289329889e-06 	1.567273705e-08 	4.844530026e-13 	1.286604935e-06 	2.835439516e-11 	2.452626598e-09
