0.3809068052 	2.039112275e-06 	-3.110946657e-08 	1.48316804e-11 	2.018464516e-06 	-7.868555182e-10 	3.84775437e-09
0.3809068052 	2.039112275e-06 	-3.110946657e-08 	1.48316804e-11 	2.018464516e-06 	-7.868555182e-10 	3.84775437e-09
0.3819639198 	0.0001734952444 	-1.989365372e-05 	1.657897236e-08 	0.0001634216597 	-1.058754108e-07 	3.115271041e-07
0.3830211992 	0.001769749106 	-0.0003824053213 	2.927208902e-07 	0.001573382314 	-1.027093846e-06 	2.99930399e-06
0.3840785339 	0.004928969962 	-0.00119706047 	6.801019006e-07 	0.004259144505 	-2.111472967e-06 	8.119113194e-06
0.385135815 	0.007460173542 	-0.001849986765 	6.818926057e-07 	0.006413426523 	-1.939555207e-06 	1.222577347e-05
0.3861929345 	0.008790093545 	-0.002177257035 	1.16068597e-07 	0.007633836244 	-8.974844471e-07 	1.45522136e-05
0.3878197712 	0.009439227842 	-0.002337170168 	-3.653637802e-07 	0.00831136486 	-1.027950684e-06 	1.584377145e-05
0.3896565669 	0.009567879651 	-0.00237490612 	6.847423265e-07 	0.008510656259 	-2.24513476e-06 	1.622367625e-05
0.3917295634 	0.009483764733 	-0.002312485374 	2.285845945e-06 	0.008342978741 	6.343007843e-08 	1.590403629e-05
0.394067843 	0.009118164413 	-0.002131218425 	1.539520076e-06 	0.008009725687 	5.674831307e-06 	1.526876335e-05
0.396755554 	0.008591961513 	-0.002005236915 	-2.290765451e-06 	0.007763407045 	7.764181927e-06 	1.479921156e-05
0.3998076713 	0.008040686518 	-0.001866150339 	-5.226182964e-06 	0.007385663003 	2.297181126e-06 	1.407912642e-05
0.4032493224 	0.007431832083 	-0.001723837828 	-2.111599475e-06 	0.00694285021 	-5.564641031e-06 	1.323500217e-05
0.4071295106 	0.006867794439 	-0.001701636301 	2.725653896e-06 	0.006603303386 	-4.606653314e-06 	1.258773155e-05
0.4115792059 	0.006397213631 	-0.00158864372 	2.373474958e-06 	0.006187191148 	3.01566286e-06 	1.179450597e-05
0.4166308648 	0.005904044045 	-0.001370870039 	-1.027333902e-06 	0.005850314828 	3.933218769e-06 	1.115232607e-05
0.4242899957 	0.005375608231 	-0.001175782474 	-3.207305379e-06 	0.005773901897 	-2.209425726e-06 	1.100666179e-05
0.4325944199 	0.004936064984 	-0.0009039867396 	-3.388028863e-06 	0.005782597434 	-5.752686008e-06 	1.10232379e-05
0.4415815424 	0.004605960628 	-0.0005657188871 	-2.364682774e-06 	0.00580680422 	-4.947521572e-06 	1.106938276e-05
0.4512802035 	0.00434548181 	-0.0002569350948 	-1.78564468e-06 	0.005888617677 	-3.649124936e-06 	1.122534195e-05
0.4617756613 	0.004141529865 	2.368227729e-06 	-1.453710084e-06 	0.005986687697 	-3.3424402e-06 	1.141229066e-05
0.4731719825 	0.003964579175 	0.0002347706231 	-1.161692971e-06 	0.006083104911 	-2.843662124e-06 	1.159608867e-05
0.485500853 	0.003784740706 	0.0004639610811 	-9.979040956e-07 	0.006169704285 	-1.868985044e-06 	1.176117115e-05
0.4988448325 	0.003598628331 	0.0007020819464 	-5.651402779e-07 	0.00620703194 	-7.477807007e-07 	1.183232803e-05
0.5132858996 	0.003423041074 	0.0009084383001 	1.466575651e-08 	0.006149031352 	-6.090634137e-09 	1.172176279e-05
0.5289386969 	0.003278942258 	0.001022068657 	1.365838001e-07 	0.005993626252 	8.530204274e-08 	1.142551748e-05
0.5418282751 	0.003193584274 	0.001053492602 	4.397226878e-08 	0.005851779265 	-3.847943374e-06 	1.11551177e-05
0.5458547894 	0.003166789177 	0.001063368419 	4.507259083e-08 	0.005806886433 	1.780918029e-08 	1.106953948e-05
0.5640944687 	0.003080443121 	0.001092650457 	2.513246726e-07 	0.005630570444 	1.201041959e-07 	1.07334322e-05
0.5838275065 	0.003014562093 	0.00113213466 	3.900167259e-07 	0.005476633157 	2.303415007e-07 	1.043998495e-05
0.605107761 	0.00296850714 	0.001176781341 	5.076603901e-07 	0.005350595514 	3.241211256e-07 	1.019972217e-05
0.6280406075 	0.002946403571 	0.001227153726 	6.196043332e-07 	0.00525454857 	3.982740417e-07 	1.001663e-05
0.6527238598 	0.002953174634 	0.001286251467 	6.987116303e-07 	0.005191807323 	4.742017606e-07 	9.897027745e-06
0.6792545965 	0.002991640562 	0.001357430517 	7.530422583e-07 	0.005156836953 	5.224587189e-07 	9.830364501e-06
0.7058458787 	0.00305560196 	0.001436931652 	7.209485897e-07 	0.005135531391 	5.117843207e-07 	9.789750178e-06
0.7307074168 	0.003139716701 	0.001459901571 	5.246675013e-07 	0.00511912591 	5.077738679e-07 	9.758476773e-06
0.7539388743 	0.003239637022 	0.00141039604 	3.521579301e-07 	0.00510804105 	5.016441768e-07 	9.737345948e-06
0.7756407309 	0.003352167129 	0.001356449597 	2.760787508e-07 	0.005097055249 	4.401685067e-07 	9.716403958e-06
0.7959110465 	0.003473803191 	0.001325202428 	2.101512471e-07 	0.005089724402 	3.767155746e-07 	9.702429326e-06
0.8148439719 	0.003595132831 	0.001313294206 	1.638690321e-07 	0.005098890229 	3.238728572e-07 	9.71990194e-06
0.8325271295 	0.003712255694 	0.001311727089 	1.300241431e-07 	0.005116706792 	2.70793957e-07 	9.753865262e-06
0.8490433661 	0.003821610286 	0.001312323075 	1.047859829e-07 	0.005133033656 	2.30418676e-07 	9.784988802e-06
0.8644696653 	0.00392054673 	0.001312214043 	8.483946212e-08 	0.005141859749 	1.892694501e-07 	9.801813787e-06
0.878878094 	0.004008184042 	0.0013107433 	7.293798682e-08 	0.005140044978 	1.439691795e-07 	9.79835433e-06
0.8923357983 	0.004085387473 	0.001307121938 	8.150314166e-08 	0.00512636868 	1.134579797e-07 	9.772283505e-06
0.9049053983 	0.004154953274 	0.001301225908 	1.029884838e-07 	0.005100431408 	1.255432905e-07 	9.722839856e-06
0.9166453775 	0.004221682516 	0.001298156519 	1.019823121e-07 	0.005062447638 	1.757755007e-07 	9.650432233e-06
0.9276103354 	0.004289479259 	0.001300586877 	6.332636894e-08 	0.005019448625 	2.080990313e-07 	9.568464162e-06
0.9378512652 	0.004358926913 	0.001302720046 	4.096859536e-08 	0.004987301167 	1.841805208e-07 	9.507182173e-06
0.9474158034 	0.00443648548 	0.001307581818 	9.631131161e-08 	0.004983113529 	1.643825632e-07 	9.499199371e-06
0.9563484579 	0.004537209895 	0.001295374226 	1.689518792e-07 	0.004985624225 	2.339784925e-07 	9.503985455e-06
0.9622608402 	0.004661236418 	0.001290400682 	1.661536702e-07 	0.004983551753 	4.107237338e-07 	9.500034747e-06
0.9674948231 	0.004788334828 	0.001327967673 	9.216803664e-08 	0.005027009514 	5.531402868e-07 	9.582877318e-06
0.9721281468 	0.004901711298 	0.001357329405 	2.89186939e-08 	0.005092558824 	5.011943663e-07 	9.707832522e-06
0.9762296655 	0.005005006532 	0.001372941598 	7.009237742e-08 	0.005170556994 	3.698487993e-07 	9.856518712e-06
0.9798603561 	0.005091692367 	0.001391783486 	1.630479373e-07 	0.005260404898 	3.867309575e-07 	1.002779379e-05
0.9830742178 	0.00517267478 	0.00140406043 	1.781111041e-07 	0.005288841944 	4.945181097e-07 	1.00820027e-05
0.9859190669 	0.005240359774 	0.001428938979 	1.251982841e-07 	0.005291073755 	5.130025371e-07 	1.008625715e-05
0.988437243 	0.005218004475 	0.001438370007 	9.155443278e-08 	0.005260032464 	4.352039742e-07 	1.002708383e-05
0.990666234 	0.00503369782 	0.001398099236 	9.29614294e-08 	0.005066215168 	3.63815753e-07 	9.657614192e-06
0.992639231 	0.004532433882 	0.001258127132 	8.988262176e-08 	0.004524993199 	3.118919233e-07 	8.625894695e-06
0.9939209151 	0.003654691627 	0.00101127794 	6.902466489e-08 	0.003621620405 	2.425014735e-07 	6.903815069e-06
0.9952026562 	0.002202782429 	0.0005849706824 	3.704298576e-08 	0.002190257464 	1.408897807e-07 	4.175239478e-06
0.9964844543 	0.0006936254149 	0.0001541547751 	9.611984353e-09 	0.0006963555719 	4.51947268e-08 	1.327447262e-06
0.9977663094 	6.038754376e-05 	6.076953836e-06 	4.8226105e-10 	6.042310337e-05 	4.767596841e-09 	1.151832288e-07
0.9990482216 	6.523072379e-07 	7.541284572e-09 	9.499156203e-13 	6.509525969e-07 	7.290639603e-11 	1.240896573e-09
