0.4709558481 	0.06719962505 	0.001188254695 	3.40521674e-07
0.4720092239 	0.2571044713 	0.002261919567 	1.25720153e-06
0.4730625996 	0.4986504004 	-0.0007542897958 	3.332744112e-06
0.4741159754 	0.6901037963 	-0.002328348183 	3.945029275e-06
0.4751693511 	0.8142818658 	0.0007021929428 	-1.211657558e-05
0.4762227269 	0.8988677682 	0.001011604962 	-4.979978033e-05
0.4778443634 	0.9686883707 	-0.002393149618 	-4.967377576e-05
0.4796765386 	1.027075418 	-0.003775470661 	4.433625205e-05
0.4817465869 	1.073672352 	0.001371084475 	0.000120586449
0.4840853915 	1.106575509 	0.006739501098 	3.238252172e-05
0.4867278453 	1.13136942 	0.003501623687 	-0.0001091927951
0.4897133715 	1.157102023 	-0.003764862347 	-0.0001023500234
0.4930865115 	1.185082319 	-0.005252829508 	1.792908298e-05
0.4968975894 	1.210099723 	-0.0007181573369 	8.353445367e-05
0.5012034633 	1.229810401 	0.002725122474 	4.570774599e-05
0.506068373 	1.248743219 	0.002041156953 	-1.650226736e-05
0.5134203412 	1.270244071 	0.0001628476566 	-2.84554615e-05
0.5212948542 	1.291481762 	-0.0004029753253 	-4.639939892e-06
0.529729052 	1.30986187 	8.125853656e-06 	7.352926587e-06
0.5387627144 	1.32553553 	0.0003660712228 	3.525916252e-06
0.5484384488 	1.339263334 	0.0003900319416 	-1.228839009e-06
0.5588018907 	1.351432136 	0.0003278725603 	-1.414370677e-06
0.5699019192 	1.362055187 	0.0003322769044 	-1.933117181e-07
0.5817908876 	1.371116023 	0.0003856824942 	1.057620808e-07
0.5945248701 	1.378672915 	0.0004303040023 	-1.457960721e-07
0.6081639266 	1.384798673 	0.0004553003761 	-2.600396551e-07
0.6227723857 	1.389547583 	0.000470771994 	-2.292817744e-07
0.638419148 	1.392967453 	0.0004785484724 	-2.096220129e-07
0.6551780116 	1.395097531 	0.0004765571144 	-2.154970327e-07
0.6731280194 	1.395949155 	0.0004660555158 	-2.215689441e-07
0.6923538328 	1.395485332 	0.0004497103845 	-2.253695316e-07
0.7129461301 	1.393603136 	0.0004296675745 	-2.275267056e-07
0.7350020349 	1.390186831 	0.0004083794929 	-2.253484026e-07
0.7570579485 	1.385329391 	0.0003866229658 	-2.202960027e-07
0.7776502527 	1.379339541 	0.0003628389011 	-2.187739443e-07
0.7968760713 	1.372445414 	0.0003364230772 	-2.133660016e-07
0.814826083 	1.364752448 	0.0003081440189 	-1.735029241e-07
0.831584949 	1.356329163 	0.0002788477218 	-1.307775016e-07
0.8472317127 	1.347215788 	0.0002495925338 	-2.426339699e-07
0.8618401721 	1.337426052 	0.0002229130759 	-4.562678909e-07
0.8754792281 	1.32694669 	0.000201270024 	-1.44261564e-07
0.8882132094 	1.315745877 	0.000179316794 	8.888455946e-07
0.9001021759 	1.303783745 	0.000143453439 	7.701101086e-07
0.9112022019 	1.290993941 	0.0001004292455 	-2.283530756e-06
0.9215656407 	1.277225657 	0.0001075371617 	-4.343978821e-06
0.9312413717 	1.262250319 	0.0001770806577 	2.086283574e-06
0.9402750304 	1.245845247 	0.0001676134764 	1.30297564e-05
0.9487092242 	1.227845188 	-9.945012733e-05 	6.559361365e-06
0.9565837329 	1.207961455 	-0.0003407777607 	-2.855291153e-05
0.9639356968 	1.186666662 	6.819372222e-05 	-4.699930298e-05
0.9688006083 	1.165911372 	0.0008974478265 	3.968151616e-06
0.9731064834 	1.145372332 	0.0009735787662 	8.546429775e-05
0.976917562 	1.123957297 	-0.0004563270503 	8.148947474e-05
0.9802907021 	1.102060926 	-0.001622687864 	-3.604641486e-05
0.9832762282 	1.077617452 	-0.0005524510291 	-0.0001256927268
0.9859186816 	1.047949117 	0.001103522982 	-5.378458543e-05
0.9882574856 	1.012682432 	0.001148994466 	7.954907337e-05
0.990327533 	0.9707522493 	-0.0005129707055 	8.217896804e-05
0.9921597073 	0.917871069 	-0.001615080415 	-4.881476473e-06
0.9937813429 	0.8493587865 	-0.001231429411 	-3.817332054e-05
0.9948347186 	0.7644131584 	0.0006483251535 	-1.915394417e-05
0.9958880943 	0.6428153483 	0.002908086321 	-3.886277778e-06
0.9969414701 	0.4609719383 	0.000739107514 	-5.892313213e-07
0.9979948458 	0.2365285413 	-0.001989946233 	-3.388782704e-07
0.9990482216 	0.06779316224 	-0.001062830585 	-7.052433463e-08
0.9990482216 	0.06779316224 	-0.001062830585 	-7.052433463e-08
