0.3673995292 	2.02997991e-06 	-3.11752322e-08 	2.020057388e-11 	2.007563791e-06 	-1.03953754e-09 	3.826974559e-09
0.3673995292 	2.02997991e-06 	-3.11752322e-08 	2.020057388e-11 	2.007563791e-06 	-1.03953754e-09 	3.826974559e-09
0.3684829761 	0.0001773576861 	-2.049853852e-05 	2.331934936e-08 	0.0001658516482 	-1.452277361e-07 	3.161593376e-07
0.3695665877 	0.001817185451 	-0.0003906061507 	3.880346204e-07 	0.001594417725 	-1.371667412e-06 	3.03940333e-06
0.3706502347 	0.004998178609 	-0.001200400942 	7.963969862e-07 	0.004258651989 	-2.686692229e-06 	8.118174322e-06
0.3717337888 	0.007475703517 	-0.001831905736 	8.505435465e-07 	0.006334669051 	-2.766269357e-06 	1.207563984e-05
0.3728171224 	0.008725009479 	-0.002135064728 	8.612747742e-07 	0.007458417866 	-1.942698012e-06 	1.421781741e-05
0.3744841553 	0.009257816236 	-0.002261253339 	3.690692455e-07 	0.008037586995 	3.156618444e-07 	1.532187474e-05
0.3763660564 	0.009261002196 	-0.002277566881 	-9.772054236e-07 	0.008187453092 	2.563401623e-06 	1.560756118e-05
0.3784895005 	0.009106260064 	-0.002234097108 	-1.671245453e-06 	0.00798201432 	2.551472244e-06 	1.521593778e-05
0.3808839529 	0.008755932091 	-0.002085326283 	-3.039668331e-07 	0.007559856865 	1.972463598e-06 	1.441118834e-05
0.3836378911 	0.008251933148 	-0.001918132398 	1.126806674e-06 	0.007229874669 	3.950086967e-06 	1.378215056e-05
0.3867652482 	0.007641159918 	-0.001699661039 	4.151253301e-07 	0.006934662692 	6.489258989e-06 	1.321939448e-05
0.390290462 	0.006989678719 	-0.001589284483 	-1.41228124e-06 	0.00671190273 	5.727739505e-06 	1.279475208e-05
0.3942632783 	0.006498394794 	-0.001647200852 	-2.668325032e-06 	0.006457717365 	1.706346032e-06 	1.231020413e-05
0.3988211095 	0.006149448806 	-0.001538182798 	-2.353006229e-06 	0.005991071086 	-2.733129591e-06 	1.142064662e-05
0.4039948728 	0.005732945358 	-0.001276964795 	-1.223458175e-06 	0.005684516234 	-4.571040978e-06 	1.083626787e-05
0.4118367251 	0.005213288552 	-0.001014515091 	-1.617611508e-06 	0.005742087625 	-3.3120048e-06 	1.094601494e-05
0.420339507 	0.004767671288 	-0.0007093274614 	-2.441917357e-06 	0.00587666319 	-2.873177958e-06 	1.120255337e-05
0.429540511 	0.00446982572 	-0.0004045187084 	-2.198968101e-06 	0.005931769814 	-3.653731172e-06 	1.130760192e-05
0.4394675757 	0.004243293631 	-0.0001290787982 	-1.428749422e-06 	0.005995205736 	-3.495480464e-06 	1.142852841e-05
0.450208819 	0.004032485152 	0.0001154848286 	-1.001271725e-06 	0.00610238322 	-2.539436701e-06 	1.163283849e-05
0.4618721886 	0.003828103976 	0.0003406162878 	-7.91885029e-07 	0.006198822929 	-1.421865655e-06 	1.181667938e-05
0.4744877587 	0.003623259358 	0.000570582697 	-3.7659733e-07 	0.006242082739 	-3.96552984e-07 	1.18991446e-05
0.488139843 	0.003427854681 	0.0007763951591 	9.184333684e-09 	0.006191263389 	4.853997867e-08 	1.180226879e-05
0.4975745988 	0.003326148198 	0.0008465370855 	1.319913976e-06 	0.006086549587 	-5.419676035e-06 	1.160265518e-05
0.5028917562 	0.003268222045 	0.0008862158432 	3.426560761e-09 	0.006026101311 	-1.423037941e-09 	1.148742397e-05
0.5188499572 	0.003142538596 	0.0009183805633 	2.80084337e-07 	0.005826724234 	1.749238642e-07 	1.110735584e-05
0.5361130653 	0.003039865357 	0.0009434604537 	5.725384667e-07 	0.005644510306 	3.343073538e-07 	1.076000545e-05
0.5547594807 	0.002956646603 	0.0009829255788 	7.166291191e-07 	0.005478755494 	4.661684666e-07 	1.044403071e-05
0.574931013 	0.002891156361 	0.001029035731 	8.441417222e-07 	0.005335560213 	5.743359301e-07 	1.017106071e-05
0.596680164 	0.002844937294 	0.00107574249 	9.86387089e-07 	0.005220711214 	6.475470194e-07 	9.952126596e-06
0.6201143357 	0.002822027375 	0.001128620435 	1.088530999e-06 	0.005133532912 	7.204936663e-07 	9.785940522e-06
0.645332846 	0.002826686933 	0.001191339746 	1.140260859e-06 	0.005075935873 	8.189861514e-07 	9.676144557e-06
0.6724342449 	0.002861053922 	0.001264627521 	1.182059924e-06 	0.005046185512 	8.951441296e-07 	9.619432101e-06
0.6995933348 	0.002921145745 	0.001346758372 	1.203932863e-06 	0.005032912515 	8.970437419e-07 	9.59413008e-06
0.7249828856 	0.003005750783 	0.001386617333 	9.874135375e-07 	0.005023674398 	8.664492043e-07 	9.57651966e-06
0.7487060318 	0.003112536142 	0.001356955551 	6.922029588e-07 	0.005016877369 	8.603713801e-07 	9.563562634e-06
0.7708663551 	0.003234317241 	0.00131346085 	5.328179237e-07 	0.005012517607 	8.10715249e-07 	9.555251716e-06
0.7915646598 	0.003364954969 	0.001290905404 	4.009384329e-07 	0.005013246575 	7.218766724e-07 	9.556641332e-06
0.8108975394 	0.003495255921 	0.001285320827 	3.062673422e-07 	0.005028966857 	6.48354534e-07 	9.586608558e-06
0.8289546918 	0.00362008365 	0.001288315058 	2.40597017e-07 	0.005054055523 	5.604847688e-07 	9.634434529e-06
0.8458208373 	0.003736406054 	0.001292091101 	1.974341763e-07 	0.005077355276 	4.749805644e-07 	9.678850335e-06
0.861574609 	0.003841714441 	0.001293416439 	1.807614547e-07 	0.005092259438 	4.068665614e-07 	9.707261809e-06
0.8762895743 	0.00393544047 	0.001292198103 	1.782522592e-07 	0.005094423263 	3.723466808e-07 	9.71138666e-06
0.8900342399 	0.004018175893 	0.001289802339 	1.563189584e-07 	0.005082353733 	3.647377936e-07 	9.688378783e-06
0.9028724742 	0.004090644113 	0.001287032684 	1.090287959e-07 	0.005058366012 	3.391769038e-07 	9.642651519e-06
0.9148639184 	0.004154475892 	0.001283742867 	1.106426521e-07 	0.005026103576 	2.60270566e-07 	9.58115035e-06
0.9260642485 	0.004214217384 	0.001277232067 	2.165444569e-07 	0.00498767673 	2.04569125e-07 	9.5078981e-06
0.9365254628 	0.004278344245 	0.001268801779 	3.242835977e-07 	0.004942230036 	3.520746714e-07 	9.42126407e-06
0.9462961394 	0.004357547437 	0.001275939682 	2.76187721e-07 	0.004898682695 	7.404457879e-07 	9.338250736e-06
0.9554216696 	0.004450249418 	0.001282208404 	7.586051405e-08 	0.004870292067 	9.915334881e-07 	9.284130307e-06
0.9614619036 	0.004535735137 	0.001284338329 	1.084200323e-08 	0.004884686064 	7.783477588e-07 	9.311569266e-06
0.9668091954 	0.004613131495 	0.00129372261 	2.761207748e-07 	0.004947584792 	5.594404098e-07 	9.431471724e-06
0.9715429241 	0.004708477165 	0.001288156261 	5.831507217e-07 	0.004975537573 	8.828415632e-07 	9.484757493e-06
0.9757334019 	0.004830135202 	0.001304809918 	5.533818138e-07 	0.004977503693 	1.52960088e-06 	9.488505464e-06
0.9794429011 	0.004930016676 	0.001351716451 	2.939132067e-07 	0.005030790289 	1.796965384e-06 	9.590084527e-06
0.9827265717 	0.00499009604 	0.001376798522 	1.82915322e-07 	0.005088656893 	1.507610225e-06 	9.700394357e-06
0.9856332522 	0.005024168064 	0.001383627105 	3.329171473e-07 	0.005114627673 	1.292398574e-06 	9.749901881e-06
0.9882061891 	0.004996096236 	0.001375662259 	4.699056147e-07 	0.005067669186 	1.412391071e-06 	9.660385954e-06
0.9904836754 	0.004836020181 	0.001339851587 	4.293545941e-07 	0.004868629386 	1.447452338e-06 	9.280960775e-06
0.9924996163 	0.004368559755 	0.001212831833 	3.267896208e-07 	0.004356328026 	1.220993354e-06 	8.304371997e-06
0.9938092065 	0.003527909269 	0.0009771167832 	2.44357891e-07 	0.003494743222 	9.100669908e-07 	6.661951894e-06
0.9951188621 	0.002126769847 	0.000565305327 	1.400784569e-07 	0.00211482646 	5.375414882e-07 	4.031447018e-06
0.9964285831 	0.0006685008475 	0.0001487721584 	3.81451623e-08 	0.0006712117777 	1.781472969e-07 	1.279516202e-06
0.9977383696 	5.765672923e-05 	5.799268049e-06 	1.955624486e-09 	5.769241555e-05 	1.92267213e-08 	1.099777788e-07
0.9990482216 	6.098462723e-07 	6.990365403e-09 	3.85062246e-12 	6.085821239e-07 	2.961714012e-10 	1.160126675e-09
0.9990482216 	6.098462723e-07 	6.990365403e-09 	3.85062246e-12 	6.085821239e-07 	2.961714012e-10 	1.160126675e-09
