0.4709558481 	0.07092692469 	0.001294609845 	-2.735670463e-07
0.4720092239 	0.2712515568 	0.002199531867 	-8.329616067e-07
0.4730625996 	0.524383027 	-0.001338681164 	-1.868788187e-06
0.4741159754 	0.7217354566 	-0.003415105628 	-3.656277624e-06
0.4751693511 	0.8485340529 	-0.001558762147 	-1.120121911e-06
0.4762227269 	0.9376891717 	-0.001365166031 	1.325916761e-05
0.4778443634 	1.012130139 	0.0009759538677 	2.508371284e-05
0.4796765386 	1.067760818 	0.00557545122 	2.619907449e-06
0.4817465869 	1.107183945 	0.004463704998 	-3.563181851e-05
0.4840853915 	1.141197656 	-0.002808365818 	-3.198631208e-05
0.4867278453 	1.176399452 	-0.006632035168 	1.365634801e-05
0.4897133715 	1.208992107 	-0.001683281855 	4.021159667e-05
0.4930865115 	1.233406557 	0.004648625227 	1.552915974e-05
0.4968975894 	1.252414901 	0.004616043844 	-1.90541553e-05
0.5012034633 	1.272073405 	0.0006880331787 	-2.106064064e-05
0.506068373 	1.294746861 	-0.001306850985 	-2.433942679e-06
0.5134203412 	1.317835288 	-0.0002886034365 	6.877180856e-06
0.5212948542 	1.337246502 	0.001212150552 	2.700838669e-06
0.529729052 	1.352803677 	0.001536699472 	-1.573853147e-06
0.5387627144 	1.365755679 	0.001314977343 	-1.593254649e-06
0.5484384488 	1.37641065 	0.001277216607 	-3.449761396e-07
0.5588018907 	1.384848632 	0.001460664665 	-7.912960213e-08
0.5699019192 	1.391348686 	0.001611255315 	-3.705518139e-07
0.5817908876 	1.396250129 	0.001681374612 	-4.741353687e-07
0.5945248701 	1.39978717 	0.001731048558 	-4.288444023e-07
0.6081639266 	1.402110245 	0.001776921417 	-4.180992942e-07
0.6227723857 	1.403323101 	0.001808968067 	-4.33354684e-07
0.638419148 	1.403476159 	0.001825526165 	-4.40509797e-07
0.6551780116 	1.402562059 	0.001826626503 	-4.407738076e-07
0.6731280194 	1.400523358 	0.001809761615 	-4.352163267e-07
0.6923538328 	1.397257849 	0.001771958274 	-4.211965478e-07
0.7129461301 	1.39261891 	0.00171020511 	-3.973224392e-07
0.7350020349 	1.386525393 	0.001623704924 	-3.631374841e-07
0.7570579485 	1.379216863 	0.001517336428 	-3.177249211e-07
0.7776502527 	1.371126991 	0.001399391324 	-2.601736805e-07
0.7968760713 	1.362498822 	0.00127715092 	-2.0665216e-07
0.814826083 	1.353409113 	0.001156794209 	-1.905250347e-07
0.831584949 	1.343892177 	0.001040689499 	-1.757636171e-07
0.8472317127 	1.333948798 	0.0009247283613 	-2.867508728e-08
0.8618401721 	1.323556243 	0.0008092772954 	2.019208964e-07
0.8754792281 	1.312667222 	0.0007118900421 	9.030487321e-08
0.8882132094 	1.301188504 	0.0006493674029 	-5.12063501e-07
0.9001021759 	1.288974405 	0.0006001315449 	-6.886566375e-07
0.9112022019 	1.275893859 	0.0005072027972 	5.719740812e-07
0.9215656407 	1.261877539 	0.0003535797725 	2.220985318e-06
0.9312413717 	1.246785361 	0.0002405321024 	1.214006424e-06
0.9402750304 	1.230208279 	0.0003653133641 	-3.555567297e-06
0.9487092242 	1.211463404 	0.000642674267 	-6.389268749e-06
0.9565837329 	1.190192704 	0.0005609244398 	2.219615394e-06
0.9639356968 	1.168312914 	-0.0003167503537 	1.846546533e-05
0.9688006083 	1.148377062 	-0.001253365887 	1.959034741e-05
0.9731064834 	1.129025905 	-0.0004462219654 	-9.330270491e-06
0.976917562 	1.107125433 	0.001966985188 	-4.2908555e-05
0.9802907021 	1.082016874 	0.002436864243 	-2.682306703e-05
0.9832762282 	1.055965542 	-0.0001836627356 	3.092941067e-05
0.9859186816 	1.028929797 	-0.002272102157 	4.69937926e-05
0.9882574856 	0.9964217023 	-0.001400795087 	3.432652815e-06
0.990327533 	0.9542985739 	0.0004064826435 	-3.010435596e-05
0.9921597073 	0.8997228782 	0.0006070985395 	-1.935008003e-05
0.9937813429 	0.8309851245 	-0.0003397920723 	2.019839843e-06
0.9948347186 	0.7473336901 	0.0004946154529 	7.109687353e-06
0.9958880943 	0.6274352635 	0.002534642291 	3.906058228e-06
0.9969414701 	0.4489639991 	0.0004890250342 	1.575142047e-06
0.9979948458 	0.230080492 	-0.001996387525 	6.493505628e-07
0.9990482216 	0.06593604823 	-0.001014993598 	1.646090285e-07
0.9990482216 	0.06593604823 	-0.001014993598 	1.646090285e-07
