0.3440231802 	0.04123916574 	-0.009829359698 	-5.759653706e-06
0.3453619003 	0.1699248943 	-0.04216110961 	-3.072956486e-05
0.346700708 	0.3456126539 	-0.09019576747 	-7.61852578e-05
0.348039379 	0.4970968665 	-0.1311060819 	-0.0001250331606
0.3493776909 	0.6033463509 	-0.1550030279 	-0.0001587385381
0.3507154234 	0.6804929288 	-0.170539471 	-0.0001823335825
0.3527731822 	0.7445771449 	-0.184112958 	-0.0002057077659
0.3550948411 	0.7956932077 	-0.1975698922 	-0.0002198807551
0.3577124116 	0.8400137568 	-0.210110462 	-0.0002123272257
0.3606824659 	0.882026024 	-0.2164541414 	-0.0001959653467
0.3640355815 	0.9185516249 	-0.2167803458 	-0.0001920234802
0.3678149006 	0.9475101403 	-0.217853514 	-0.0001945988257
0.3720736319 	0.9736317306 	-0.2228172248 	-0.0001831573654
0.3769056112 	1.001088787 	-0.2269816693 	-0.0001582283237
0.3823489685 	1.028313173 	-0.2269075109 	-0.0001335896005
0.3884922639 	1.05480487 	-0.2243056823 	-0.0001117890173
0.3977735322 	1.081412996 	-0.2211960912 	-8.002420343e-05
0.4077064413 	1.105994473 	-0.2176034147 	-4.786442543e-05
0.4183256322 	1.127734005 	-0.2127079019 	-1.823271886e-05
0.4261058455 	1.140794663 	-0.2085107965 	0.0001513380055
0.4296566751 	1.146739582 	-0.2065547531 	-8.667260269e-06
0.441725473 	1.163296185 	-0.1995980252 	-3.363197397e-05
0.4546437824 	1.177892236 	-0.192087716 	-5.451944405e-05
0.4684694852 	1.190739533 	-0.1840466559 	-7.104313743e-05
0.483263504 	1.201938088 	-0.1755197178 	-8.319657529e-05
0.4990904661 	1.211563168 	-0.1665857397 	-9.106607289e-05
0.5160194649 	1.21968613 	-0.1573009774 	-9.471852898e-05
0.534125736 	1.226360663 	-0.1477406255 	-9.463193949e-05
0.5534985534 	1.231674743 	-0.138019552 	-9.161423213e-05
0.5742165405 	1.235776901 	-0.128163977 	-8.556048368e-05
0.5963809076 	1.238699265 	-0.11814704 	-7.690300627e-05
0.6200931186 	1.24033309 	-0.1080311327 	-6.727104819e-05
0.6454657031 	1.240562158 	-0.09783907022 	-5.712134338e-05
0.6726223762 	1.239418634 	-0.08784381876 	-4.687977796e-05
0.6997690552 	1.237062089 	-0.07861404235 	-3.770547058e-05
0.7251139532 	1.233559656 	-0.07034252245 	-3.008142585e-05
0.7487832758 	1.22891518 	-0.06295419273 	-2.377177214e-05
0.7708923052 	1.22315838 	-0.05637473371 	-1.859865562e-05
0.7915468462 	1.216320345 	-0.05047930017 	-1.442111759e-05
0.8108444999 	1.20842731 	-0.04516542503 	-1.105377128e-05
0.8288752071 	1.199495005 	-0.04035262646 	-8.368431461e-06
0.8457226162 	1.189524056 	-0.03597008614 	-6.226979938e-06
0.8614643852 	1.178492883 	-0.03195732076 	-4.478721557e-06
0.8761728768 	1.166367442 	-0.02829003959 	-3.102740363e-06
0.8899155937 	1.153114973 	-0.02496074036 	-2.175363039e-06
0.9027555604 	1.138647364 	-0.02186541868 	-1.525663913e-06
0.9147516662 	1.122729534 	-0.01885186208 	-8.098944585e-07
0.9259589634 	1.105065138 	-0.01605269254 	-1.886773495e-07
0.9364289334 	1.085573303 	-0.01397583888 	-4.962184497e-08
0.9418620584 	1.073787802 	-0.01310997157 	3.277266368e-05
0.9462086608 	1.064361688 	-0.01241533042 	4.63228952e-08
0.9553436498 	1.042212151 	-0.009809919806 	-4.666718201e-07
0.961391458 	1.020337559 	-0.00614910433 	-1.594370264e-06
0.9667463238 	0.9978628076 	-0.004274859594 	-5.1071264e-07
0.971487438 	0.9753631154 	-0.006328932432 	3.465637995e-06
0.9756849854 	0.9548631113 	-0.008838818885 	4.182910704e-06
0.9794011587 	0.9330176006 	-0.006086462741 	-2.194193056e-06
0.9826910629 	0.904555912 	-0.0002483747373 	-6.990859718e-06
0.9856035161 	0.8700102909 	0.001245175231 	-2.181735465e-06
0.9881817623 	0.8325585584 	-0.002517700857 	4.846668299e-06
0.9904641044 	0.7890435451 	-0.004746268838 	4.2497725e-06
0.9924844658 	0.7324196034 	-0.003224718177 	-3.169357814e-07
0.993796989 	0.6610178303 	-0.0001696050643 	-1.959984372e-06
0.9951096262 	0.5569229331 	0.002788105146 	-1.050667595e-06
0.9964223774 	0.3970657502 	0.0008944098118 	-2.00699816e-07
0.9977352425 	0.1999385166 	-0.0020708737 	-1.459058092e-07
0.9990482216 	0.05504210287 	-0.001178203383 	-1.149169491e-07
0.9990482216 	0.05504210287 	-0.001178203383 	-1.149169491e-07
