0.4690207273 	1.479205878e-06 	-5.920751443e-08 	2.345273261e-12 	1.482206272e-06 	4.098655246e-12 	2.825497112e-09
0.4690207273 	1.479205878e-06 	-5.920751443e-08 	2.345273261e-12 	1.482206272e-06 	4.098655246e-12 	2.825497112e-09
0.4700518427 	0.0001146710634 	-3.740777631e-05 	2.296244979e-09 	0.0001376409806 	4.564056478e-09 	2.623819643e-07
0.4710829708 	0.001002794758 	-0.0007875100661 	3.418810171e-08 	0.002014282244 	1.641349983e-07 	3.839781797e-06
0.4721141081 	0.002745076594 	-0.002851063617 	-1.955010211e-07 	0.006815868858 	4.904919508e-07 	1.299294042e-05
0.4731452512 	0.004378491279 	-0.004911245362 	-2.617709862e-09 	0.01140923946 	-1.073717496e-06 	2.174918145e-05
0.4741763967 	0.005626149777 	-0.006137034513 	4.19393879e-06 	0.01406979255 	-3.234517898e-06 	2.68209351e-05
0.475763807 	0.006553144141 	-0.00645372689 	9.11824778e-06 	0.01540053125 	5.551527258e-06 	2.935769292e-05
0.4775572933 	0.006586949084 	-0.005957805935 	-6.573413738e-07 	0.01651083523 	2.142260891e-05 	3.147424089e-05
0.4795835831 	0.006003876181 	-0.006286600367 	-2.305404125e-05 	0.01830460368 	9.310222238e-06 	3.489366211e-05
0.481879263 	0.006287461728 	-0.007949419621 	-1.766524905e-05 	0.01839882543 	-3.253116876e-05 	3.507327497e-05
0.4844744806 	0.007653272273 	-0.008620181821 	2.183974847e-05 	0.01584061183 	-3.485896037e-05 	3.019660883e-05
0.4874065619 	0.008243166134 	-0.006869866838 	3.517909385e-05 	0.01409914431 	1.69073352e-05 	2.687688771e-05
0.4907192246 	0.007143450463 	-0.005071485123 	5.275654495e-06 	0.01554991439 	4.379707399e-05 	2.964245871e-05
0.4944728854 	0.005905531342 	-0.005370556994 	-2.262354277e-05 	0.01740378565 	1.512035317e-05 	3.317645258e-05
0.4987143778 	0.00576605924 	-0.006639161849 	-1.799986854e-05 	0.01689085895 	-1.984048657e-05 	3.219867173e-05
0.5035112163 	0.006122032601 	-0.00691012832 	2.230861257e-06 	0.01498822908 	-2.085851517e-05 	2.857173039e-05
0.5107730215 	0.006099120141 	-0.006045239079 	9.189112246e-06 	0.01357766625 	-2.119602431e-06 	2.588280559e-05
0.5185656539 	0.005654443532 	-0.005225388582 	4.037779327e-06 	0.01300350023 	6.127455606e-06 	2.478828557e-05
0.5269247196 	0.005156263267 	-0.004917659145 	-7.107766819e-07 	0.01256578504 	1.136902358e-06 	2.395387877e-05
0.5358928449 	0.004822743873 	-0.004710458314 	-8.653751278e-07 	0.01172351331 	-3.631878232e-06 	2.234827475e-05
0.5455150046 	0.004598636679 	-0.004353364854 	7.504842978e-07 	0.01062540462 	-3.463040182e-06 	2.025497438e-05
0.5558387535 	0.00438153658 	-0.003896487863 	1.314496124e-06 	0.009547451233 	-2.078454061e-06 	1.820009563e-05
0.5669144801 	0.004157902843 	-0.003437960598 	9.053416807e-07 	0.008540557808 	-1.93317376e-06 	1.628067691e-05
0.5787956804 	0.003969805362 	-0.002990187851 	5.819570898e-07 	0.007522630309 	-2.381286254e-06 	1.434022418e-05
0.5915392544 	0.003834862115 	-0.002525021999 	5.838236473e-07 	0.006475532926 	-2.559465609e-06 	1.234416554e-05
0.6052058224 	0.003741600114 	-0.00203267089 	6.476413622e-07 	0.005454782385 	-2.505158182e-06 	1.03983313e-05
0.6198603429 	0.003676532246 	-0.001517374692 	6.713828424e-07 	0.004524204207 	-2.449311324e-06 	8.624390657e-06
0.6355749705 	0.00363350785 	-0.0009815028011 	7.083260583e-07 	0.003742902211 	-2.402811868e-06 	7.1350119e-06
0.6524206021 	0.003610890129 	-0.000424355231 	7.820044973e-07 	0.003178158217 	-2.325299623e-06 	6.058452885e-06
0.6704783553 	0.003610679593 	0.0001533415265 	8.807388078e-07 	0.002896307285 	-2.236138709e-06 	5.521166673e-06
0.6898319307 	0.003636558112 	0.0007489108397 	9.940851245e-07 	0.002941678137 	-2.171490312e-06 	5.607656126e-06
0.7105714937 	0.003690736044 	0.001358479206 	1.112147896e-06 	0.003324927122 	-2.154031938e-06 	6.338235209e-06
0.7327937836 	0.003773151566 	0.001966753457 	1.221296346e-06 	0.004010221177 	-2.185140984e-06 	7.644596147e-06
0.7550223282 	0.003880276887 	0.002539241468 	1.304543803e-06 	0.004896224514 	-2.23887088e-06 	9.333564758e-06
0.7757797241 	0.004006796868 	0.003050676118 	1.353826635e-06 	0.005860855961 	-2.278869956e-06 	1.11724204e-05
0.7951620546 	0.004150512795 	0.003502227284 	1.378550256e-06 	0.006829346562 	-2.280428161e-06 	1.301863266e-05
0.8132596963 	0.004311070385 	0.003903523773 	1.37639799e-06 	0.007766995013 	-2.229696263e-06 	1.480605122e-05
0.8301574244 	0.00448713183 	0.004263592649 	1.313507557e-06 	0.008655183307 	-2.135851989e-06 	1.649918497e-05
0.8459346261 	0.004674407961 	0.004590607571 	1.209989811e-06 	0.009489519523 	-2.06125628e-06 	1.808966169e-05
0.86066544 	0.004864881765 	0.004887631204 	1.236123526e-06 	0.01027943929 	-2.052080378e-06 	1.95954683e-05
0.8744192184 	0.005056504282 	0.00515237379 	1.426333724e-06 	0.01102567317 	-1.914095361e-06 	2.10179975e-05
0.8872607168 	0.005261152855 	0.005391421786 	1.246515892e-06 	0.01169919522 	-1.322613309e-06 	2.230191771e-05
0.8992504152 	0.005480706175 	0.00562837547 	2.789387435e-07 	0.01229110029 	-7.763982262e-07 	2.343025328e-05
0.9104447947 	0.005679279198 	0.00587359854 	-2.574020221e-07 	0.01288290383 	-1.801419185e-06 	2.455839531e-05
0.9208965944 	0.005827033932 	0.006077125613 	1.51840377e-06 	0.01355297725 	-3.984763074e-06 	2.583574149e-05
0.9306550585 	0.005990054433 	0.006174502929 	4.076416511e-06 	0.01416503996 	-2.689688452e-06 	2.700250314e-05
0.9397661676 	0.006276645413 	0.006239385873 	1.803095843e-06 	0.01446625074 	4.508816566e-06 	2.75766946e-05
0.9482728542 	0.006641211045 	0.006480096223 	-6.281534271e-06 	0.01454722863 	7.835822528e-06 	2.773106097e-05
0.9562152047 	0.006819210414 	0.006956580727 	-8.485695417e-06 	0.01504986359 	-6.633168917e-06 	2.86892229e-05
0.9636306481 	0.006697541439 	0.007193614713 	4.397890651e-06 	0.01613695787 	-2.602486023e-05 	3.076152673e-05
0.9685376396 	0.006607745206 	0.006629018016 	2.373357661e-05 	0.01691311979 	-1.361737568e-05 	3.224110708e-05
0.9728808087 	0.007038090832 	0.00594073692 	2.042228039e-05 	0.01638390886 	2.978999771e-05 	3.123228396e-05
0.9767249346 	0.007788921612 	0.006381906098 	-1.675620271e-05 	0.01515050673 	4.198761327e-05 	2.88810767e-05
0.9801273551 	0.008007896243 	0.007520280474 	-3.438077904e-05 	0.01505046081 	-1.749595883e-06 	2.869036136e-05
0.9831388207 	0.007270981097 	0.007893210503 	-7.30487699e-06 	0.01650410267 	-4.003124628e-05 	3.146140676e-05
0.9858042517 	0.006543632245 	0.006993801542 	2.274817652e-05 	0.01737852674 	-2.321945206e-05 	3.312830208e-05
0.9881634075 	0.006617621087 	0.00616101801 	1.860402891e-05 	0.01646083967 	1.580987959e-05 	3.137893547e-05
0.9902514797 	0.006738146361 	0.006283563372 	-4.491713154e-06 	0.01526542219 	1.850582738e-05 	2.91001375e-05
0.9920996164 	0.006209480411 	0.00638435729 	-8.85728492e-06 	0.01457772971 	-7.211790716e-07 	2.778920449e-05
0.9937353873 	0.005248705404 	0.005719641996 	-1.560841637e-06 	0.01305188959 	-5.090661813e-06 	2.488052914e-05
0.9947979485 	0.004110307556 	0.004499655198 	9.661530624e-07 	0.01030926865 	-1.439131164e-06 	1.965233136e-05
0.9958605126 	0.002541316348 	0.002570902047 	3.575595703e-07 	0.00600989959 	-5.103027317e-08 	1.145653898e-05
0.9969230794 	0.000898877718 	0.0006841013657 	-3.506030839e-09 	0.00171616195 	-3.538705615e-08 	3.271481658e-06
0.9979856491 	9.839648861e-05 	3.044463934e-05 	-2.799827503e-09 	0.000114654736 	-8.461774718e-09 	2.185637935e-07
0.9990482216 	1.325760945e-06 	4.887349142e-08 	-9.001287422e-12 	1.325414087e-06 	-1.490094297e-10 	2.52660763e-09
