0.4709558481 	1.690572696e-06 	-7.137410645e-08 	4.349305803e-12 	1.691196572e-06 	-7.600157389e-11 	3.22389071e-09
0.4709558481 	1.690572696e-06 	-7.137410645e-08 	4.349305803e-12 	1.691196572e-06 	-7.600157389e-11 	3.22389071e-09
0.4720092239 	0.0001335586254 	-4.603019907e-05 	2.473063428e-09 	0.0001608895379 	-7.693696622e-09 	3.067001762e-07
0.4730625996 	0.001167462495 	-0.0009461815855 	4.795383883e-08 	0.002335647156 	-1.303765862e-07 	4.452392639e-06
0.4741159754 	0.003171886126 	-0.003263533798 	3.335569274e-07 	0.007496808138 	-4.527922943e-07 	1.429099994e-05
0.4751693511 	0.004989768414 	-0.005290758613 	1.055885851e-06 	0.01200607283 	-2.669104308e-07 	2.288691173e-05
0.4762227269 	0.006021220082 	-0.006144009496 	7.708692573e-07 	0.01471484477 	1.833081859e-06 	2.805058391e-05
0.4778443634 	0.006286629237 	-0.006606926052 	-3.285054364e-06 	0.01700160012 	2.995975331e-06 	3.240977517e-05
0.4796765386 	0.00638915577 	-0.007580382571 	-6.429217051e-06 	0.01841501776 	-5.247386912e-06 	3.510414204e-05
0.4817465869 	0.007407013701 	-0.008762967775 	2.917049219e-06 	0.01753602216 	-1.358295964e-05 	3.342853213e-05
0.4840853915 	0.00854807244 	-0.007961022843 	1.302082289e-05 	0.01533067399 	-5.517848568e-07 	2.922452556e-05
0.4867278453 	0.007960212193 	-0.005884678148 	6.350460104e-06 	0.01571761928 	1.753772712e-05 	2.996215084e-05
0.4897133715 	0.006375684245 	-0.005465217322 	-9.079659514e-06 	0.01819337759 	1.288625178e-05 	3.468163427e-05
0.4930865115 	0.005810446491 	-0.00713435551 	-1.368410485e-05 	0.0187489195 	-7.645601431e-06 	3.574065157e-05
0.4968975894 	0.006511809981 	-0.008307350089 	-9.458129361e-07 	0.016371097 	-1.63543998e-05 	3.120786099e-05
0.5012034633 	0.007019739092 	-0.007357577094 	8.623429569e-06 	0.01399352919 	-4.670813642e-06 	2.667555594e-05
0.506068373 	0.006454843975 	-0.00594990141 	4.939747396e-06 	0.01354780351 	6.217665965e-06 	2.582587892e-05
0.5134203412 	0.00547696031 	-0.005386759129 	-1.127467373e-06 	0.01368728053 	5.013920587e-06 	2.609176088e-05
0.5212948542 	0.00487048872 	-0.005269596024 	-2.659018088e-06 	0.01290566766 	8.422578374e-08 	2.46017895e-05
0.529729052 	0.004646488819 	-0.005000394246 	-6.97529794e-07 	0.01139677354 	-1.121564976e-06 	2.172541793e-05
0.5387627144 	0.004455613014 	-0.004438999994 	4.951628051e-07 	0.00997441293 	2.554161012e-07 	1.901400329e-05
0.5484384488 	0.004211794004 	-0.003823646588 	5.280500585e-08 	0.008865011294 	1.125600399e-06 	1.689917543e-05
0.5588018907 	0.004036956004 	-0.003286580979 	-4.877537667e-07 	0.007823407108 	9.351221622e-07 	1.491358835e-05
0.5699019192 	0.003972963766 	-0.002774019089 	-4.97156218e-07 	0.006759970613 	6.152694271e-07 	1.288638283e-05
0.5817908876 	0.003966711481 	-0.002235560397 	-3.884735292e-07 	0.005788782716 	5.369038681e-07 	1.103502877e-05
0.5945248701 	0.003976989238 	-0.00168394544 	-4.002272975e-07 	0.005008313858 	4.447640268e-07 	9.547238201e-06
0.6081639266 	0.003999838421 	-0.001134894811 	-4.413492156e-07 	0.004444053595 	2.380681989e-07 	8.471601312e-06
0.6227723857 	0.004034694721 	-0.0005863678977 	-4.571227625e-07 	0.004115111735 	4.80453391e-09 	7.844546703e-06
0.638419148 	0.004077313152 	-3.753711397e-05 	-4.626536503e-07 	0.004040042803 	-2.178819036e-07 	7.701444454e-06
0.6551780116 	0.004124396945 	0.0005092358657 	-4.62663938e-07 	0.004217076806 	-4.225980841e-07 	8.038920468e-06
0.6731280194 	0.004171640327 	0.001052242578 	-4.533495971e-07 	0.004627131045 	-5.897140852e-07 	8.820597817e-06
0.6923538328 	0.004213173327 	0.001590096123 	-4.327789651e-07 	0.005240512122 	-7.03615177e-07 	9.98987263e-06
0.7129461301 	0.004243647023 	0.00212149943 	-3.991727331e-07 	0.006020985618 	-7.56366981e-07 	1.147767203e-05
0.7350020349 	0.004260240932 	0.002637225907 	-3.527543721e-07 	0.006914747777 	-7.45424461e-07 	1.318143112e-05
0.7570579485 	0.004265111501 	0.003113665586 	-2.990336492e-07 	0.007836151891 	-6.800345113e-07 	1.493788345e-05
0.7776502527 	0.004265789719 	0.003534694465 	-2.415982508e-07 	0.008710926413 	-5.855547552e-07 	1.660544682e-05
0.7968760713 	0.004271924561 	0.003904079505 	-1.733384192e-07 	0.009514215573 	-4.851666322e-07 	1.813673922e-05
0.814826083 	0.004292998345 	0.004231198432 	-1.021895836e-07 	0.01024461155 	-3.632876665e-07 	1.952907695e-05
0.831584949 	0.004337116373 	0.004524805827 	-7.855465314e-08 	0.01090392774 	-1.863746591e-07 	2.078591687e-05
0.8472317127 	0.004407510695 	0.004792828725 	-1.111706262e-07 	0.01150167318 	-4.767157655e-08 	2.19253858e-05
0.8618401721 	0.004501729204 	0.00503840562 	-5.587294528e-08 	0.01205696207 	-1.531471088e-07 	2.298392076e-05
0.8754792281 	0.004621496649 	0.005258035419 	2.070550987e-07 	0.0125764503 	-3.317627137e-07 	2.397420971e-05
0.8882132094 	0.004778781504 	0.005452044359 	4.198271036e-07 	0.01303701342 	1.247663343e-07 	2.485217104e-05
0.9001021759 	0.00497553739 	0.005641055614 	8.236650205e-08 	0.01342835049 	1.208274218e-06 	2.559816824e-05
0.9112022019 	0.005182255039 	0.005852097713 	-6.957776945e-07 	0.01381248449 	1.160403957e-06 	2.633043441e-05
0.9215656407 	0.005365425549 	0.006065112723 	-7.487600585e-07 	0.01426745957 	-1.216676819e-06 	2.719774338e-05
0.9312413717 	0.005548615117 	0.006194199744 	8.678845604e-07 	0.01473331757 	-2.95271691e-06 	2.80857982e-05
0.9402750304 	0.005799825632 	0.006201991636 	2.976612709e-06 	0.01503768457 	5.737872429e-07 	2.866600629e-05
0.9487092242 	0.006149015573 	0.006291329753 	1.34572695e-06 	0.01510001643 	6.969917945e-06 	2.878482815e-05
0.9565837329 	0.00649115038 	0.006649863688 	-5.222743681e-06 	0.01518547179 	6.064689692e-06 	2.894772982e-05
0.9639356968 	0.006620467947 	0.007039824154 	-7.107869091e-06 	0.01568627129 	-6.401013097e-06 	2.990239285e-05
0.9688006083 	0.006460266862 	0.007007857249 	1.972218138e-06 	0.01653753925 	-1.833409839e-05 	3.152514618e-05
0.9731064834 	0.006520051667 	0.006298063104 	1.558366597e-05 	0.01673498592 	-8.817331615e-06 	3.190153441e-05
0.976917562 	0.007069477285 	0.006044114891 	1.279622403e-05 	0.01585561229 	1.845594137e-05 	3.022520387e-05
0.9802907021 	0.007448158143 	0.006766401141 	-1.020605229e-05 	0.01522610911 	2.187682947e-05 	2.902519585e-05
0.9832762282 	0.007309083263 	0.007315221515 	-1.692842145e-05 	0.0155650715 	-2.679367186e-06 	2.967135236e-05
0.9859186816 	0.006698173076 	0.007172966509 	-2.085318704e-06 	0.01637369466 	-1.651802465e-05 	3.121281286e-05
0.9882574856 	0.006264828816 	0.00648215551 	8.782348407e-06 	0.01637129331 	-7.383734857e-06 	3.120823522e-05
0.990327533 	0.0062700593 	0.006084664595 	6.257052421e-06 	0.01529648142 	5.5989997e-06 	2.915934502e-05
0.9921597073 	0.005932805851 	0.006057726592 	-1.117577766e-06 	0.01425344116 	4.927399989e-06 	2.717102039e-05
0.9937813429 	0.005111138019 	0.005494193023 	-2.015324866e-06 	0.01260076179 	-2.405355414e-07 	2.402055418e-05
0.9948347186 	0.003986442313 	0.004339263989 	-3.455570224e-07 	0.009907419785 	-6.681856196e-07 	1.888629574e-05
0.9958880943 	0.002430202375 	0.002449155711 	1.175692115e-07 	0.005720734075 	1.455497623e-08 	1.090530914e-05
0.9969414701 	0.0008491928732 	0.0006382982915 	3.908446112e-08 	0.001605447841 	6.296853525e-08 	3.060429797e-06
0.9979948458 	9.258160936e-05 	2.808949517e-05 	1.493736051e-09 	0.0001072849218 	4.063731005e-09 	2.045148792e-07
0.9990482216 	1.273109789e-06 	4.622108202e-08 	2.128884146e-12 	1.272723532e-06 	4.096341354e-11 	2.426164788e-09
