0 	0.675318811 	-4.58642152e-14 	-1.66704283e-20
0 	0.675318811 	-4.58642152e-14 	-1.66704283e-20
0.001889880757 	0.6753698127 	0.000801206161 	-6.329626604e-07
0.003779741465 	0.6755047877 	-0.001035102772 	2.022850034e-06
0.005669582045 	0.6757875065 	-0.001085087149 	2.279753055e-06
0.007559402482 	0.6762431124 	-0.0009347855669 	2.411366851e-06
0.009449202822 	0.6768908508 	-0.001089683965 	2.992920501e-06
0.0123584479 	0.6779054971 	-0.001469235528 	3.808760163e-06
0.01564534699 	0.6794176727 	-0.001915761848 	4.656471934e-06
0.01935891766 	0.68153263 	-0.002365002227 	5.503081271e-06
0.02357816231 	0.684399207 	-0.002853954394 	6.366993575e-06
0.02835083071 	0.6881784644 	-0.003398272103 	7.202130468e-06
0.0337430193 	0.6930577825 	-0.003994366363 	7.96929776e-06
0.03983513139 	0.6992607071 	-0.004642625221 	8.641424836e-06
0.04675897752 	0.707034788 	-0.005345990172 	9.175965156e-06
0.05458402359 	0.7166308517 	-0.006098626531 	9.522596032e-06
0.06344293631 	0.7295406134 	-0.006968686943 	9.716986307e-06
0.07687936455 	0.7473585921 	-0.007965227393 	9.23723466e-06
0.09132747402 	0.7690062205 	-0.008930430086 	8.291241126e-06
0.1068517842 	0.7931946385 	-0.009781240482 	6.853340463e-06
0.1235382128 	0.8196989598 	-0.01050068897 	4.993571374e-06
0.1414763202 	0.848146141 	-0.01106682741 	2.783826381e-06
0.1607597829 	0.8779941471 	-0.0114747481 	2.870422764e-07
0.1630177224 	0.8813140257 	-0.01150194823 	6.140224966e-06
0.1814869171 	0.9084746035 	-0.01174956992 	3.444689922e-06
0.203761246 	0.9387885919 	-0.01188555491 	7.572095282e-06
0.22769211 	0.9680220176 	-0.0118942229 	1.18511056e-05
0.2533953163 	0.9952921426 	-0.01179147664 	1.612393682e-05
0.2809948866 	1.019869482 	-0.01159239697 	2.022373496e-05
0.3106333302 	1.041258454 	-0.0113089062 	2.398792369e-05
0.3424387954 	1.059213843 	-0.01094759459 	2.72625414e-05
0.3765679891 	1.073699015 	-0.01050931925 	2.99084788e-05
0.4131763284 	1.084805935 	-0.009991778982 	3.180530309e-05
0.4524319133 	1.092689261 	-0.009390861208 	3.28579165e-05
0.4945150618 	1.097465605 	-0.008711798925 	3.303278306e-05
0.5366248026 	1.099331394 	-0.007990574807 	3.236100163e-05
0.5759561429 	1.098833046 	-0.007266746668 	3.106001617e-05
0.6126864062 	1.096533202 	-0.006552094425 	2.937024436e-05
0.6469841783 	1.092755459 	-0.005849387394 	2.744307801e-05
0.6790086872 	1.087654134 	-0.005161683032 	2.538547453e-05
0.7089097018 	1.081295011 	-0.004491877876 	2.327117019e-05
0.7368272602 	1.073705612 	-0.003843267279 	2.114809976e-05
0.7628926911 	1.064901217 	-0.003220155079 	1.904632266e-05
0.7872286785 	1.054897477 	-0.00262799105 	1.698361363e-05
0.8099498676 	1.043714146 	-0.002072861422 	1.497072429e-05
0.8311633612 	1.031374548 	-0.001562168202 	1.301613503e-05
0.8509691787 	1.017899408 	-0.001101287396 	1.112859256e-05
0.8694607163 	1.003300646 	-0.000700031814 	9.320513214e-06
0.8867251805 	0.9875696676 	-0.0003574848997 	7.605038585e-06
0.9028439947 	0.9706519715 	-8.885208695e-05 	6.004995433e-06
0.9178931816 	0.9524476413 	0.0001138835564 	4.55254479e-06
0.9319437194 	0.9341008992 	0.0002480791124 	3.365696056e-06
0.9412411842 	0.9176427535 	0.0002968187744 	2.504510414e-06
0.9494702593 	0.9023821563 	0.0003126614856 	1.814388563e-06
0.9567537154 	0.8868290006 	0.0003118558543 	1.245995156e-06
0.9632002153 	0.8707066505 	0.0002792966359 	8.977539076e-07
0.9689059355 	0.8535961132 	0.0002440831473 	7.225826824e-07
0.9739560002 	0.8348796558 	0.0001692333033 	5.202989332e-07
0.9784257521 	0.8135460725 	0.0001541080479 	2.37609287e-07
0.9823818762 	0.7879149574 	-0.0001054026253 	5.285573794e-08
0.9858833943 	0.7554231814 	-0.0002875268713 	6.395206843e-08
0.9889825462 	0.7131044914 	-0.0006049564023 	8.341294815e-08
0.9909956813 	0.6599646734 	-0.0004528752225 	1.741939725e-07
0.9930088164 	0.5776722017 	0.002339056611 	-4.478032908e-08
0.9950219514 	0.4317032991 	0.002033853696 	-3.179241446e-07
0.9970350865 	0.2259555291 	-0.001632617338 	9.067739997e-08
0.9990482216 	0.06456050477 	-0.001597104826 	2.478820152e-07
0.9990482216 	0.06456050477 	-0.001597104826 	2.478820152e-07
