0.4709558481 	1.500958861e-06 	-2.016646506e-08 	1.48033176e-13 	1.497776063e-06 	-5.509625635e-12 	2.855177462e-09
0.4709558481 	1.500958861e-06 	-2.016646506e-08 	1.48033176e-13 	1.497776063e-06 	-5.509625635e-12 	2.855177462e-09
0.4720092239 	0.0001227730221 	-1.322442424e-05 	5.899656635e-11 	0.000122893227 	-1.811756586e-10 	2.342686471e-07
0.4730625996 	0.001265917118 	-0.0002849793188 	-1.634781405e-09 	0.001270404265 	5.5969527e-09 	2.42174362e-06
0.4741159754 	0.003781444504 	-0.001001478244 	-2.762735766e-08 	0.00376161199 	3.02606968e-08 	7.170677939e-06
0.4751693511 	0.006129319542 	-0.001689940111 	-4.449776284e-08 	0.006079432447 	-9.056211285e-08 	1.158908793e-05
0.4762227269 	0.007668486342 	-0.002122830934 	1.563593295e-07 	0.007554894615 	-4.381607337e-07 	1.440172891e-05
0.4778443634 	0.008624736948 	-0.002309822289 	4.716135092e-07 	0.008355906713 	-1.161352759e-07 	1.59286806e-05
0.4796765386 	0.008875567234 	-0.002211133236 	4.268127998e-08 	0.008819670408 	1.129648237e-06 	1.68127431e-05
0.4817465869 	0.008851669147 	-0.002221529289 	-1.113861394e-06 	0.009486733589 	8.156900788e-07 	1.808435092e-05
0.4840853915 	0.009080466696 	-0.002564274815 	-1.132269794e-06 	0.00978719939 	-1.658125313e-06 	1.865712225e-05
0.4867278453 	0.009573097039 	-0.002819512716 	7.158461845e-07 	0.009204498204 	-2.318983638e-06 	1.754633184e-05
0.4897133715 	0.009705801256 	-0.002517303501 	1.853095607e-06 	0.00854983959 	5.870291701e-07 	1.629837056e-05
0.4930865115 	0.009173907565 	-0.002038244133 	5.046157786e-07 	0.008714133687 	2.828813803e-06 	1.661156078e-05
0.4968975894 	0.008527980619 	-0.001999752658 	-1.093499402e-06 	0.009138322353 	1.198729723e-06 	1.742018227e-05
0.5012034633 	0.008252249861 	-0.002253458048 	-9.727955097e-07 	0.008907638625 	-1.249499959e-06 	1.698043497e-05
0.506068373 	0.008130731489 	-0.002325195761 	-5.386763909e-08 	0.008175412352 	-1.301890974e-06 	1.558460818e-05
0.5134203412 	0.007802027169 	-0.002137677248 	3.861522365e-07 	0.007527951295 	-4.822580067e-08 	1.435036745e-05
0.5212948542 	0.007277736838 	-0.0019190256 	1.985451428e-07 	0.007113771752 	4.968716266e-07 	1.356082613e-05
0.529729052 	0.006733699286 	-0.001793892862 	-7.476991558e-08 	0.006741783969 	2.081135753e-07 	1.285171403e-05
0.5387627144 	0.006241972441 	-0.001694293696 	-1.025733876e-07 	0.006277052539 	-6.830557906e-08 	1.196580676e-05
0.5484384488 	0.00578491141 	-0.001564380007 	-2.014307363e-08 	0.005767723082 	-5.040457796e-08 	1.099488325e-05
0.5588018907 	0.005336277396 	-0.001409957359 	1.636533924e-08 	0.005291070246 	5.008926388e-08 	1.008625047e-05
0.5699019192 	0.004901958553 	-0.001250807232 	-5.445000749e-10 	0.004866659992 	7.173381201e-08 	9.277206563e-06
0.5817908876 	0.004505534694 	-0.001091106083 	-1.898175205e-08 	0.004482530228 	4.576136931e-08 	8.54494847e-06
0.5945248701 	0.004162956857 	-0.0009270143333 	-2.049298549e-08 	0.004141981779 	2.848114331e-08 	7.895768475e-06
0.6081639266 	0.003881415946 	-0.0007573277445 	-1.732624568e-08 	0.003860443393 	2.236049724e-08 	7.359078061e-06
0.6227723857 	0.003666293258 	-0.0005834775308 	-1.730437667e-08 	0.003648609242 	1.408138848e-08 	6.955263294e-06
0.638419148 	0.003522544403 	-0.0004065184047 	-1.854241822e-08 	0.003509669105 	2.279340936e-09 	6.690404777e-06
0.6551780116 	0.00345291725 	-0.0002263513174 	-1.909751894e-08 	0.003444389963 	-9.451856672e-09 	6.565964588e-06
0.6731280194 	0.00345818482 	-4.236787418e-05 	-1.919728312e-08 	0.003453207493 	-2.010667513e-08 	6.582773251e-06
0.6923538328 	0.00353856666 	0.0001462700485 	-1.915889321e-08 	0.003536354699 	-3.000010521e-08 	6.741274935e-06
0.7129461301 	0.003694648799 	0.0003404977961 	-1.892201723e-08 	0.00369434486 	-3.906129317e-08 	7.042448093e-06
0.7350020349 	0.003923125331 	0.0005377614859 	-1.839586766e-08 	0.003924129167 	-4.672460463e-08 	7.480480848e-06
0.7570579485 	0.004206131932 	0.0007284230518 	-1.758737426e-08 	0.004208432629 	-5.207090965e-08 	8.022442264e-06
0.7776502527 	0.004517676014 	0.000903921066 	-1.660522813e-08 	0.004521370422 	-5.488080543e-08 	8.618988675e-06
0.7968760713 	0.004841183337 	0.001063214164 	-1.541769114e-08 	0.004846013709 	-5.625708364e-08 	9.23784901e-06
0.814826083 	0.005168469534 	0.00120798572 	-1.356099056e-08 	0.005173841601 	-5.598136084e-08 	9.862780086e-06
0.831584949 	0.005494094607 	0.001339712663 	-1.115341689e-08 	0.005498915794 	-4.992097911e-08 	1.048246185e-05
0.8472317127 	0.005814345008 	0.001460110587 	-1.105430142e-08 	0.005817391962 	-3.8746805e-08 	1.108956594e-05
0.8618401721 	0.006126230857 	0.001571118244 	-1.545038788e-08 	0.006127964186 	-3.980481366e-08 	1.168160292e-05
0.8754792281 	0.006427478183 	0.001673078195 	-1.424346893e-08 	0.006430787097 	-6.320144854e-08 	1.225886755e-05
0.8882132094 	0.00671809986 	0.001764061504 	8.587501051e-09 	0.006723341122 	-6.420263255e-08 	1.281655683e-05
0.9001021759 	0.007000859971 	0.001845358015 	3.027573478e-08 	0.006999204354 	1.570073322e-08 	1.334242883e-05
0.9112022019 	0.007276791663 	0.001926817483 	-1.661333157e-08 	0.007257502315 	1.008542979e-07 	1.383481653e-05
0.9215656407 	0.007538392212 	0.002013384455 	-1.179323963e-07 	0.007515716009 	-9.290054583e-09 	1.43270436e-05
0.9312413717 	0.007776567324 	0.002083680923 	-7.149167977e-08 	0.00779162185 	-2.945038288e-07 	1.485299682e-05
0.9402750304 	0.008003928965 	0.002115623533 	2.267710702e-07 	0.008062855622 	-2.916656225e-07 	1.537004377e-05
0.9487092242 	0.008263309059 	0.002138553552 	3.434256869e-07 	0.008262870061 	3.583193461e-07 	1.575132688e-05
0.9565837329 	0.008568037287 	0.002227599605 	-2.126410254e-07 	0.00839362148 	1.018313634e-06 	1.600057543e-05
0.9639356968 	0.008809291436 	0.002367662124 	-9.568761273e-07 	0.008619713211 	2.32411975e-07 	1.64315691e-05
0.9688006083 	0.008875632134 	0.00240090019 	-5.350126148e-07 	0.009020250421 	-1.968728807e-06 	1.719510435e-05
0.9731064834 	0.008893603883 	0.002254794904 	1.179533644e-06 	0.009332198486 	-2.346478822e-06 	1.778976406e-05
0.976917562 	0.009080629629 	0.002134402622 	1.72208387e-06 	0.009269789933 	5.872956703e-07 	1.767079602e-05
0.9802907021 	0.009357199828 	0.002238457145 	-8.605109532e-08 	0.008981937477 	2.906548935e-06 	1.712206923e-05
0.9832762282 	0.009414576554 	0.002445534745 	-1.651211325e-06 	0.008941626462 	1.304575992e-06 	1.704522523e-05
0.9859186816 	0.009131724946 	0.002479668675 	-9.686634997e-07 	0.00914325623 	-1.545837126e-06 	1.742958761e-05
0.9882574856 	0.008730541224 	0.002314482797 	5.531067385e-07 	0.009046866031 	-1.372456589e-06 	1.72458411e-05
0.990327533 	0.008396219105 	0.002177270329 	7.992957547e-07 	0.008533012572 	4.621640992e-07 	1.626629359e-05
0.9921597073 	0.00793899685 	0.002117396213 	9.924471869e-08 	0.00787510478 	6.433772099e-07 	1.501213848e-05
0.9937813429 	0.00699504511 	0.001911926311 	-1.956991571e-07 	0.006903047807 	-4.23306907e-08 	1.315912772e-05
0.9948347186 	0.005524057656 	0.001514113691 	-7.763191587e-08 	0.005452596554 	-1.526583276e-07 	1.03941645e-05
0.9958880943 	0.003307847714 	0.0008694681567 	-8.262449633e-10 	0.003285501534 	-2.943658316e-08 	6.263079082e-06
0.9969414701 	0.00106215585 	0.0002328873594 	2.700340211e-09 	0.001065960607 	3.942160338e-09 	2.032017185e-06
0.9979948458 	0.0001009323865 	1.019262267e-05 	9.168104307e-11 	0.000100990559 	5.259404368e-10 	1.925160744e-07
0.9990482216 	1.350885123e-06 	1.672243906e-08 	1.002631504e-13 	1.34803684e-06 	5.931335854e-12 	2.569732884e-09
