0.3440231802 	6.655173109e-07 	-5.436101952e-09 	1.32589436e-11 	6.700799252e-07 	-8.026748642e-10 	1.277358576e-09
0.3453619003 	6.515084046e-05 	-5.382079447e-06 	8.889075147e-09 	7.114057702e-05 	-5.684966537e-08 	1.356137123e-07
0.346700708 	0.000716222933 	-0.0001503235978 	1.556184878e-07 	0.0008844575626 	-4.134600901e-07 	1.686021937e-06
0.348039379 	0.002288033087 	-0.000608006695 	3.795640769e-07 	0.002917116742 	-4.957161809e-07 	5.56083528e-06
0.3493776909 	0.003885223294 	-0.001096362925 	4.634420757e-07 	0.004948223266 	2.601163753e-08 	9.432688833e-06
0.3507154234 	0.004950706696 	-0.001382175337 	4.544398395e-07 	0.006259673343 	7.894361641e-07 	1.193267718e-05
0.3527731822 	0.005629391038 	-0.001513350964 	1.996055794e-07 	0.007146029413 	1.707837942e-06 	1.36223182e-05
0.3550948411 	0.006000305466 	-0.001597373283 	-3.231534935e-07 	0.007721408392 	2.044126177e-06 	1.471915045e-05
0.3577124116 	0.006313568023 	-0.00180455527 	-4.31170891e-07 	0.007988549566 	1.597066692e-06 	1.522839578e-05
0.3606824659 	0.006612866991 	-0.001957297823 	9.818326849e-08 	0.007789553869 	1.555659828e-06 	1.484905467e-05
0.3640355815 	0.006705323357 	-0.001819411497 	2.661083528e-07 	0.007469569862 	2.242127884e-06 	1.423907622e-05
0.3678149006 	0.006515117307 	-0.001584281223 	-3.587060962e-07 	0.00741441753 	2.35986757e-06 	1.413394054e-05
0.3720736319 	0.006291954415 	-0.001584218699 	-8.121294645e-07 	0.007402941789 	1.607206655e-06 	1.411206459e-05
0.3769056112 	0.006249397463 	-0.001734075152 	-6.081762237e-07 	0.007074248843 	1.166142776e-06 	1.348548448e-05
0.3823489685 	0.006278484075 	-0.001751423422 	-3.175068525e-07 	0.006576322967 	1.282441935e-06 	1.253629937e-05
0.3884922639 	0.006191300315 	-0.001624981813 	-3.15764556e-07 	0.006160225697 	1.278882134e-06 	1.174310232e-05
0.3977735322 	0.005998103503 	-0.001501228204 	-3.529955348e-07 	0.005784475186 	9.074360747e-07 	1.102681742e-05
0.4077064413 	0.005820769053 	-0.001432858587 	-2.632349432e-07 	0.005360461265 	5.376429933e-07 	1.021852903e-05
0.4183256322 	0.005696108342 	-0.001375802005 	-1.112868845e-07 	0.004909451315 	2.193524275e-07 	9.358778719e-06
0.4261058455 	0.005619237104 	-0.001321507341 	1.513543852e-06 	0.004618088165 	-7.393877452e-06 	8.803359573e-06
0.4296566751 	0.005583624385 	-0.001296522178 	-4.553097017e-08 	0.00448430985 	6.562108858e-08 	8.548340923e-06
0.441725473 	0.005465993529 	-0.001209908385 	-2.120015913e-07 	0.004097163948 	2.842645897e-07 	7.810333232e-06
0.4546437824 	0.005352857366 	-0.001123916316 	-4.130446233e-07 	0.003729037874 	4.995746894e-07 	7.10858262e-06
0.4684694852 	0.005252221086 	-0.001034585389 	-6.292163645e-07 	0.00337406473 	7.055229958e-07 	6.431905149e-06
0.483263504 	0.00516694225 	-0.0009389234409 	-8.50048576e-07 	0.003037070068 	8.913595617e-07 	5.789499659e-06
0.4990904661 	0.005102026113 	-0.0008378713798 	-1.068658987e-06 	0.002722139263 	1.019896587e-06 	5.189154016e-06
0.5160194649 	0.005063970924 	-0.0007319860263 	-1.266270177e-06 	0.002433581901 	1.059505019e-06 	4.639083482e-06
0.534125736 	0.005055185036 	-0.0006213959027 	-1.427060994e-06 	0.002181320148 	9.98110835e-07 	4.158202469e-06
0.5534985534 	0.005062825275 	-0.000503609727 	-1.527953947e-06 	0.001997162528 	9.581377101e-07 	3.807146861e-06
0.5742165405 	0.005071116568 	-0.000376320969 	-1.53659706e-06 	0.001913578795 	1.011331355e-06 	3.647813034e-06
0.5963809076 	0.005098274168 	-0.0002421964055 	-1.466041888e-06 	0.001913770206 	9.105482119e-07 	3.648177917e-06
0.6200931186 	0.00517999356 	-0.0001022192499 	-1.366528012e-06 	0.001965987219 	6.556414064e-07 	3.747718057e-06
0.6454657031 	0.00533585655 	4.046258453e-05 	-1.284879787e-06 	0.002061329826 	4.275544188e-07 	3.929467566e-06
0.6726223762 	0.005561589181 	0.00018559282 	-1.22599338e-06 	0.002201521482 	2.266467954e-07 	4.196711826e-06
0.6997690552 	0.005788006795 	0.0003352110349 	-1.115950785e-06 	0.00244033049 	7.493879489e-08 	4.651948168e-06
0.7251139532 	0.005978555782 	0.0004889969081 	-9.518458305e-07 	0.00278434928 	-1.590682191e-08 	5.307743597e-06
0.7487832758 	0.006165386487 	0.0006458342787 	-7.977674202e-07 	0.003173816813 	-5.226195442e-08 	6.050176963e-06
0.7708923052 	0.006362739157 	0.000801715679 	-6.577171592e-07 	0.003580017335 	-8.745267817e-08 	6.824508055e-06
0.7915468462 	0.00657170393 	0.000953738139 	-5.338384748e-07 	0.003990609014 	-1.119269235e-07 	7.607209913e-06
0.8108444999 	0.006788521362 	0.001100322649 	-4.2417464e-07 	0.004400720383 	-1.248390696e-07 	8.388996167e-06
0.8288752071 	0.007009337945 	0.001240602669 	-3.311231602e-07 	0.004806122682 	-1.275582099e-07 	9.161805625e-06
0.8457226162 	0.007230676213 	0.001374204303 	-2.533999783e-07 	0.005203155497 	-1.284577774e-07 	9.918660519e-06
0.8614643852 	0.007447963067 	0.001500084139 	-1.845023261e-07 	0.005591578242 	-1.221635748e-07 	1.065910223e-05
0.8761728768 	0.007657124513 	0.001615428998 	-1.267931427e-07 	0.005971956339 	-9.355918622e-08 	1.13842086e-05
0.8899155937 	0.007860562866 	0.001720159034 	-9.269614961e-08 	0.006334464576 	-6.203173201e-08 	1.207525005e-05
0.9027555604 	0.008061795602 	0.001821658581 	-7.273435245e-08 	0.006666829125 	-6.788495463e-08 	1.270882926e-05
0.9147516662 	0.00824651087 	0.00192290914 	-3.902075912e-08 	0.006986816142 	-8.262904767e-08 	1.331881345e-05
0.9259589634 	0.008387602436 	0.002003677963 	-4.104732808e-09 	0.007333959792 	-4.355553611e-08 	1.398056573e-05
0.9364289334 	0.008501706032 	0.00203626419 	-1.522293066e-09 	0.007669603331 	1.973081366e-09 	1.46203956e-05
0.9418620584 	0.008593952385 	0.002050155727 	7.301460844e-08 	0.007772004737 	1.999936002e-06 	1.481560115e-05
0.9462086608 	0.008667688392 	0.002061290624 	-2.794510974e-10 	0.0078539574 	2.97581087e-09 	1.49718257e-05
0.9553436498 	0.008859964385 	0.002156206423 	-5.456544598e-08 	0.007891336675 	3.550407668e-08 	1.504308099e-05
0.961391458 	0.008895588008 	0.00230136532 	-1.175198295e-07 	0.008061538515 	-1.052834469e-07 	1.5367533e-05
0.9667463238 	0.008689989109 	0.002305038263 	-1.182344307e-08 	0.008488154833 	-4.125658526e-07 	1.618078227e-05
0.971487438 	0.00848305753 	0.002068899277 	2.070630193e-07 	0.008712375067 	-3.464179538e-07 	1.660820836e-05
0.9756849854 	0.00856226038 	0.001900414315 	1.337714219e-07 	0.008341415297 	1.794741665e-07 	1.590105593e-05
0.9794011587 	0.008720491593 	0.002061783266 	-2.661984351e-07 	0.007870409274 	2.486419464e-07 	1.500318754e-05
0.9826910629 	0.008506014455 	0.002266361767 	-3.930581653e-07 	0.007870756933 	-3.882675633e-07 	1.500385028e-05
0.9856035161 	0.007931282776 	0.002168428013 	-7.77121628e-08 	0.007975718898 	-7.020029721e-07 	1.520393696e-05
0.9881817623 	0.007352898765 	0.00191215683 	1.214350724e-07 	0.007580803335 	-3.47570963e-07 	1.445111813e-05
0.9904641044 	0.006832021777 	0.001762828428 	-3.849120343e-09 	0.006820800899 	-1.178092475e-07 	1.300234226e-05
0.9924844658 	0.006031607939 	0.001601845694 	-1.20058586e-07 	0.005889011029 	-2.154794871e-07 	1.122609179e-05
0.993796989 	0.004809849185 	0.001300706167 	-8.49993383e-08 	0.004695511183 	-2.187009881e-07 	8.950949364e-06
0.9951096262 	0.002910066564 	0.0007632921253 	-2.069899859e-08 	0.002873631811 	-8.859790028e-08 	5.477940916e-06
0.9964223774 	0.0009327939633 	0.0002066912838 	1.668759323e-09 	0.0009353265326 	-9.010540303e-09 	1.782992332e-06
0.9977352425 	8.108321599e-05 	7.975703256e-06 	-7.962314659e-11 	8.115361645e-05 	-2.59421411e-09 	1.547013484e-07
0.9990482216 	8.636672057e-07 	9.00433302e-09 	-1.115057392e-12 	8.618315311e-07 	-9.462530556e-11 	1.642890432e-09
0.9990482216 	8.636672057e-07 	9.00433302e-09 	-1.115057392e-12 	8.618315311e-07 	-9.462530556e-11 	1.642890432e-09
