0.470659737 	1.48585727e-06 	-1.988605216e-08 	1.358919403e-14 	1.482916514e-06 	-3.358076182e-13 	2.826851031e-09
0.4716964622 	0.0001202348651 	-1.283527736e-05 	1.362935406e-10 	0.0001204643509 	-8.297802047e-10 	2.296385342e-07
0.4727331945 	0.001235927919 	-0.0002773642308 	4.274577482e-09 	0.00124172971 	-1.309928565e-08 	2.367081949e-06
0.4737699337 	0.003706710805 	-0.0009793780975 	2.155607856e-08 	0.003686347311 	-3.228722153e-08 	7.027202543e-06
0.4748066793 	0.005986116542 	-0.001630412676 	2.767700786e-08 	0.00596634221 	4.09789107e-08 	1.137350651e-05
0.4758434311 	0.007433945492 	-0.002036259438 	-8.834353361e-08 	0.007550392726 	2.429269162e-07 	1.439314706e-05
0.4774394867 	0.008535620958 	-0.002391161248 	-2.788141719e-07 	0.008639412031 	6.22201607e-08 	1.646912053e-05
0.4792427742 	0.009282651827 	-0.002552929275 	-1.340912571e-08 	0.008925219236 	-6.951772066e-07 	1.70139485e-05
0.4812801995 	0.009507912735 	-0.002349200926 	7.318933815e-07 	0.008900412324 	-5.120101565e-07 	1.696665963e-05
0.48358615 	0.009188761821 	-0.002048575515 	7.046166112e-07 	0.009390359744 	1.124998873e-06 	1.790063559e-05
0.486192473 	0.008903132985 	-0.002200417478 	-5.128242003e-07 	0.01002052545 	1.496175242e-06 	1.910190657e-05
0.4891372032 	0.009101757111 	-0.002633335102 	-1.2375109e-06 	0.009725978899 	-5.692506582e-07 	1.854041898e-05
0.4924642826 	0.009400347704 	-0.002688310585 	-3.543196591e-07 	0.00878622608 	-2.032574483e-06 	1.674898891e-05
0.496230251 	0.009201629295 	-0.002299219373 	8.34863079e-07 	0.008318046736 	-8.917992018e-07 	1.585650896e-05
0.5004856092 	0.008592932072 	-0.001991704909 	8.302839582e-07 	0.008461734477 	8.937072598e-07 	1.613041773e-05
0.505296538 	0.008039735465 	-0.002000239194 	7.665634434e-08 	0.008435576145 	1.067147056e-06 	1.608055268e-05
0.512575218 	0.007660367573 	-0.002076946546 	-3.108321257e-07 	0.007920156469 	8.026315095e-08 	1.509801952e-05
0.5203808573 	0.00728959924 	-0.002006091378 	-1.494070153e-07 	0.0072802703 	-4.444806561e-07 	1.387821864e-05
0.5287496252 	0.006835174297 	-0.001828013871 	1.104326875e-07 	0.006766272017 	-1.76006151e-07 	1.289839505e-05
0.5377230685 	0.006338050139 	-0.001657024715 	1.679279653e-07 	0.006331126017 	1.300621913e-07 	1.206888583e-05
0.547345261 	0.005855002333 	-0.001523988882 	8.932835065e-08 	0.00588847254 	1.347577635e-07 	1.122506528e-05
0.5576630227 	0.005401377118 	-0.001391874757 	4.10963381e-08 	0.005424737867 	2.917809899e-08 	1.03410581e-05
0.5687261579 	0.004972304882 	-0.001239767854 	6.173531402e-08 	0.004973833331 	-6.283319691e-09 	9.481508734e-06
0.5805877104 	0.004570943291 	-0.001075425255 	9.380827805e-08 	0.004560984253 	8.347474519e-09 	8.694503647e-06
0.5933042393 	0.004209685483 	-0.0009080917329 	1.048461734e-07 	0.004195187241 	1.144344816e-08 	7.997192874e-06
0.6069361121 	0.003902294789 	-0.0007382033804 	1.06800498e-07 	0.003881544552 	-5.357659025e-09 	7.399302736e-06
0.6215479937 	0.003658602972 	-0.0005641150927 	1.123262108e-07 	0.003628820506 	-2.691574862e-08 	6.917540463e-06
0.6372107484 	0.003485071203 	-0.0003862451614 	1.194992038e-07 	0.003445635905 	-4.779785432e-08 	6.5683397e-06
0.6539962598 	0.003386260581 	-0.0002054407853 	1.240488958e-07 	0.003336859492 	-6.954142853e-08 	6.360981624e-06
0.6719847469 	0.003365083279 	-2.174504988e-05 	1.251209682e-07 	0.003304711739 	-9.197129247e-08 	6.299699072e-06
0.6912601121 	0.003423159091 	0.0001653311485 	1.2261988e-07 	0.003350890693 	-1.131406145e-07 	6.387728992e-06
0.7119125193 	0.003561768018 	0.000356543076 	1.162156827e-07 	0.003477472368 	-1.313112493e-07 	6.629028848e-06
0.7340386155 	0.003778202188 	0.0005495664742 	1.061493689e-07 	0.003683259453 	-1.444748892e-07 	7.021316226e-06
0.7561688545 	0.004055089485 	0.0007355541413 	9.390144726e-08 	0.003952790541 	-1.501765476e-07 	7.535117393e-06
0.7768330656 	0.004366011837 	0.0009068058098 	8.167371697e-08 	0.004260173028 	-1.48528651e-07 	8.121073845e-06
0.7961274613 	0.004693316505 	0.001062691393 	7.110193757e-08 	0.004586691372 	-1.425564825e-07 	8.74350856e-06
0.814142334 	0.005027754831 	0.001204884531 	6.216649452e-08 	0.004922047392 	-1.324436616e-07 	9.382790341e-06
0.8309622617 	0.005362713025 	0.001334487156 	5.204521548e-08 	0.005259230918 	-1.134687103e-07 	1.002555586e-05
0.8466663774 	0.005693830827 	0.001453074848 	3.976799479e-08 	0.00559291176 	-9.236245379e-08 	1.066164428e-05
0.8613285871 	0.006018649682 	0.001563575108 	3.367613457e-08 	0.005918536111 	-9.585312669e-08 	1.12823748e-05
0.8750179829 	0.006334282593 	0.001667298704 	4.327930849e-08 	0.006235609861 	-1.184534498e-07 	1.188680549e-05
0.8877990797 	0.006636142539 	0.001760048929 	5.445441619e-08 	0.006549588692 	-7.967292441e-08 	1.248533641e-05
0.8997321264 	0.006925358475 	0.001838649427 	2.959753065e-08 	0.006858069369 	4.779278833e-08 	1.307338632e-05
0.9108733837 	0.007215473374 	0.001914404839 	-3.491615538e-08 	0.00713777896 	7.975873695e-08 	1.360659054e-05
0.9212753826 	0.007511618632 	0.00200488152 	-4.953322991e-08 	0.007382270822 	-1.545787471e-07 	1.407265998e-05
0.9309871706 	0.007783466696 	0.002101370348 	8.967827745e-08 	0.007651250712 	-3.656083247e-07 	1.458541041e-05
0.9400545422 	0.007999860708 	0.002158206925 	2.590401888e-07 	0.008007918104 	-1.482589002e-08 	1.526531759e-05
0.9485202539 	0.008214956504 	0.002148755705 	1.02789858e-07 	0.0083652518 	7.329552347e-07 	1.594649493e-05
0.9564242262 	0.008559050099 	0.002152767705 	-4.365361598e-07 	0.008521140497 	7.126023388e-07 	1.624366212e-05
0.9638037307 	0.009001182144 	0.002268420933 	-6.619716184e-07 	0.008507568827 	-6.856615114e-07 	1.621779074e-05
0.9686868836 	0.009272905434 	0.002487987584 	2.226200209e-07 	0.008716099144 	-1.99841703e-06 	1.661530748e-05
0.9730089153 	0.009209032083 	0.002571015051 	1.399228787e-06 	0.009372231982 	-9.701524695e-07 	1.786607903e-05
0.976834303 	0.009051026947 	0.002293226738 	9.239131048e-07 	0.009905378628 	1.693113326e-06 	1.888240472e-05
0.9802201149 	0.009224514633 	0.002000506359 	-8.698373701e-07 	0.009664186212 	2.332197301e-06 	1.842262494e-05
0.9832168622 	0.00961687094 	0.002148116954 	-1.490459518e-06 	0.009058410998 	-1.090608451e-07 	1.726784902e-05
0.9858692517 	0.009658063521 	0.002499364066 	-2.467057462e-07 	0.008922259229 	-1.892546087e-06 	1.70083059e-05
0.9882168534 	0.009173019627 	0.002546656123 	8.549766495e-07 	0.009136512924 	-6.74784691e-07 	1.7416733e-05
0.9902946903 	0.008510899498 	0.002296541002 	5.301015625e-07 	0.008874405553 	7.256465843e-07 	1.69170835e-05
0.992133761 	0.007898666637 	0.002086666253 	-1.312732613e-07 	0.008041912542 	3.507426744e-07 	1.533012044e-05
0.9937615021 	0.00700742695 	0.001883148161 	-1.987104156e-07 	0.006915392887 	-2.194531058e-07 	1.318266088e-05
0.9948188447 	0.00558836179 	0.001524495153 	-4.185375464e-08 	0.005481101945 	-1.513175279e-07 	1.04485037e-05
0.9958761879 	0.003359941914 	0.0008841976298 	7.241480234e-09 	0.003327948371 	-1.684722501e-08 	6.343994551e-06
0.9969335318 	0.001080937625 	0.0002377482668 	2.131463209e-09 	0.00108447115 	2.723092363e-09 	2.067303426e-06
0.9979908764 	0.0001025979885 	1.040511861e-05 	1.270962816e-11 	0.0001026623007 	2.204956029e-12 	1.957028787e-07
0.9990482216 	1.350009408e-06 	1.673907512e-08 	-1.255315639e-13 	1.347159399e-06 	-5.827520088e-12 	2.568060238e-09
0.9990482216 	1.350009408e-06 	1.673907512e-08 	-1.255315639e-13 	1.347159399e-06 	-5.827520087e-12 	2.568060238e-09
