1.640171017e-35 	0.8764694558 	-5.943588633e-14 	3.884118902e-18
0.001912604907 	0.8764840141 	0.0004974828007 	-2.015602036e-07
0.003825194192 	0.8765201043 	-0.0004633709405 	2.636185152e-07
0.005737767794 	0.8765970377 	-0.0004640311981 	2.722637137e-07
0.007650325701 	0.8767256939 	-0.0003258097314 	2.329332285e-07
0.00956286795 	0.8769105604 	-0.0003348706113 	2.7061179e-07
0.01250713205 	0.8771984372 	-0.0004678824142 	3.577513248e-07
0.01583360909 	0.8776280535 	-0.0006435738333 	4.517322541e-07
0.01959191156 	0.8782387926 	-0.000806973335 	5.38002539e-07
0.02385649769 	0.8790852361 	-0.0009718375824 	6.270753706e-07
0.02867914987 	0.8802279203 	-0.00115792324 	7.191408624e-07
0.03412783817 	0.8817435999 	-0.001369011883 	8.074966302e-07
0.04028381842 	0.8837314107 	-0.001603479385 	8.882625067e-07
0.04727081711 	0.8863093183 	-0.001862039113 	9.579021539e-07
0.05516671354 	0.889608207 	-0.002144670944 	1.010437297e-06
0.0641017149 	0.8942170291 	-0.002482042931 	1.049880639e-06
0.07764239172 	0.9008508458 	-0.002886159903 	1.023243784e-06
0.09218964228 	0.9092609249 	-0.003298362572 	9.421629564e-07
0.1078092542 	0.9190513499 	-0.003683534069 	8.03998874e-07
0.1245847907 	0.930232589 	-0.004034518477 	6.173606995e-07
0.1426038343 	0.9427894024 	-0.004337353806 	3.934045398e-07
0.1619584402 	0.9566671099 	-0.004578261327 	1.492621341e-07
0.17459936 	0.9658323018 	-0.004677806174 	6.520144427e-06
0.1827456333 	0.9717465032 	-0.00474200799 	9.837122128e-08
0.2050679472 	0.9878150664 	-0.00481526416 	3.258872073e-07
0.229034003 	1.004530913 	-0.004788825791 	5.039623292e-07
0.2547591248 	1.021395364 	-0.004662347975 	6.235917365e-07
0.2823668212 	1.037765289 	-0.004447048477 	6.922700067e-07
0.3119969157 	1.052916754 	-0.004164367122 	7.281388724e-07
0.3437800877 	1.066161548 	-0.00383902148 	7.462759233e-07
0.3778714604 	1.076972821 	-0.003490375161 	7.510127063e-07
0.4144274988 	1.085043235 	-0.003129584269 	7.406261283e-07
0.4536170638 	1.090256326 	-0.002760548027 	7.13944475e-07
0.4956212291 	1.092585155 	-0.00238862797 	6.718896862e-07
0.5376461177 	1.092217065 	-0.002031566346 	6.160301248e-07
0.5768947117 	1.089718095 	-0.001701809491 	5.495652633e-07
0.6135457513 	1.085631819 	-0.001397370725 	4.737836767e-07
0.6477684763 	1.080277137 	-0.001115751252 	3.88119151e-07
0.6797223209 	1.073837773 	-0.0008568554261 	2.925998159e-07
0.7095570023 	1.066432539 	-0.0006218225139 	1.885511378e-07
0.7374124644 	1.058152712 	-0.000412601138 	7.894940259e-08
0.7634198193 	1.04907673 	-0.0002312630141 	-3.164544658e-08
0.7877015329 	1.039274361 	-7.935616603e-05 	-1.379046389e-07
0.8103720244 	1.028805059 	4.26974236e-05 	-2.346004598e-07
0.8315381713 	1.017714788 	0.0001345347969 	-3.173811728e-07
0.851299777 	1.00602803 	0.0001989826536 	-3.823972696e-07
0.8697500334 	0.9937396598 	0.0002340273778 	-4.277339407e-07
0.8869759541 	0.980798713 	0.0002492779688 	-4.504019232e-07
0.9030587819 	0.9670746803 	0.000234785806 	-4.518847652e-07
0.9180743698 	0.9523497091 	0.0002074882914 	-4.302412309e-07
0.9320935383 	0.93733013 	0.000183576405 	-3.882770875e-07
0.9413702454 	0.9235289442 	0.0001412701403 	-3.431898992e-07
0.9495809481 	0.9103227991 	0.0001062192302 	-2.965037535e-07
0.9568481429 	0.8963753792 	8.115397903e-05 	-2.476567203e-07
0.9632802503 	0.8813423532 	5.305721646e-05 	-2.012167103e-07
0.9689732317 	0.864752684 	4.664200942e-05 	-1.566762356e-07
0.9740120216 	0.8459672921 	2.315990598e-06 	-1.17910565e-07
0.9784717943 	0.8239909719 	1.163479438e-05 	-8.505427457e-08
0.9824190858 	0.7971932887 	-0.0002245421695 	-6.170367986e-08
0.9859127864 	0.7630855642 	-0.0003683667463 	-4.175468072e-08
0.9890050191 	0.7189509425 	-0.0006595285923 	-2.90574594e-08
0.9910136596 	0.6641252041 	-0.0004601244376 	-3.471033819e-09
0.9930223001 	0.5802593128 	0.002314831666 	-6.494319293e-09
0.9950309406 	0.4332570686 	0.001962030845 	-3.562498295e-08
0.9970395811 	0.227082183 	-0.001614570197 	-3.203372087e-10
0.9990482216 	0.06509724091 	-0.001545526887 	2.044602697e-08
0.9990482216 	0.06509724091 	-0.001545526887 	2.044602697e-08
