0.4709558481 	1.505340231e-06 	-2.022572892e-08 	-3.291951149e-13 	1.502116925e-06 	1.065831047e-12 	2.86345235e-09
0.4709558481 	1.505340231e-06 	-2.022572892e-08 	-3.291951149e-13 	1.502116925e-06 	1.065831047e-12 	2.86345235e-09
0.4720092239 	0.0001232246069 	-1.328433582e-05 	-7.128336124e-11 	0.0001233197475 	4.245191659e-10 	2.350817136e-07
0.4730625996 	0.001271380708 	-0.0002867097068 	7.833863706e-09 	0.001273639363 	-8.992849512e-09 	2.427910615e-06
0.4741159754 	0.003787942006 	-0.001000921431 	4.219693537e-08 	0.003748385758 	4.83645274e-08 	7.145465065e-06
0.4751693511 	0.006072217728 	-0.001646309273 	-1.141187745e-07 	0.006012204318 	5.715279156e-07 	1.146093244e-05
0.4762227269 	0.007477985871 	-0.002026438085 	-7.467178776e-07 	0.007575624923 	1.00700438e-06 	1.444124664e-05
0.4778443634 	0.008544950475 	-0.00237964044 	-7.299528515e-07 	0.008738896756 	-9.571997946e-07 	1.665876607e-05
0.4796765386 	0.009370956637 	-0.002625670665 	1.606715978e-06 	0.00912175471 	-2.911546424e-06 	1.738859974e-05
0.4817465869 	0.009774346221 	-0.002496394086 	3.390412757e-06 	0.008975146216 	1.386522473e-06 	1.71091232e-05
0.4840853915 	0.009505788943 	-0.002091786777 	1.524571224e-07 	0.009264387098 	6.694744045e-06 	1.766049671e-05
0.4867278453 	0.009031072571 	-0.002070763245 	-4.517947756e-06 	0.01001747174 	2.298876819e-06 	1.909608534e-05
0.4897133715 	0.009022930124 	-0.002520332593 	-3.524496325e-06 	0.01001808134 	-6.084134182e-06 	1.909724741e-05
0.4930865115 	0.009340115257 	-0.002767870399 	1.770462291e-06 	0.00906593882 	-5.604087532e-06 	1.728219914e-05
0.4968975894 	0.009300347394 	-0.002478290053 	3.944078739e-06 	0.008295912932 	1.841473888e-06 	1.581431578e-05
0.5012034633 	0.008742610159 	-0.002076179708 	1.253559473e-06 	0.008249348934 	5.523932979e-06 	1.572555186e-05
0.506068373 	0.008094620166 	-0.001981942602 	-1.31792611e-06 	0.008294031084 	2.773818467e-06 	1.581072845e-05
0.5134203412 	0.007621093064 	-0.00206402225 	-1.163543309e-06 	0.007907396184 	-8.002987394e-07 	1.507369487e-05
0.5212948542 	0.007240401594 	-0.002035723113 	-8.155498456e-08 	0.00728021409 	-1.262603444e-06 	1.387811149e-05
0.529729052 	0.006816398126 	-0.001872120102 	3.257316453e-07 	0.006713656003 	2.348669772e-08 	1.279809431e-05
0.5387627144 	0.00633197418 	-0.00169358302 	1.366404597e-07 	0.006260803752 	6.10262606e-07 	1.193483205e-05
0.5484384488 	0.005842304329 	-0.001555165691 	-7.295564251e-08 	0.005836289286 	3.214527424e-07 	1.112558949e-05
0.5588018907 	0.005382701096 	-0.001426578019 	-8.528923447e-08 	0.005389065747 	2.27524211e-08 	1.027305713e-05
0.5699019192 	0.004954415399 	-0.001280505569 	-1.527143223e-08 	0.004943866273 	2.947513966e-08 	9.424383194e-06
0.5817908876 	0.00455618288 	-0.001120347265 	1.89908823e-08 	0.004536779465 	1.185570247e-07 	8.648362593e-06
0.5945248701 	0.004198003168 	-0.0009557829863 	1.364296644e-08 	0.004182363069 	1.313310802e-07 	7.972746437e-06
0.6081639266 	0.003894467418 	-0.000788418158 	5.702170601e-09 	0.003883778252 	1.004401768e-07 	7.403560788e-06
0.6227723857 	0.003655802885 	-0.0006166735213 	7.544040338e-09 	0.003647635182 	7.680002596e-08 	6.953406464e-06
0.638419148 	0.003487667611 	-0.0004405976232 	1.211475033e-08 	0.003481881684 	6.077254649e-08 	6.637434228e-06
0.6551780116 	0.003393724069 	-0.0002607896046 	1.523428815e-08 	0.003390714627 	4.185986552e-08 	6.46364448e-06
0.6731280194 	0.003376390198 	-7.704063478e-05 	1.761952633e-08 	0.003375431528 	1.964146065e-08 	6.434510645e-06
0.6923538328 	0.003437128512 	0.000111471981 	1.971856003e-08 	0.003436877982 	-3.991122487e-09 	6.551644664e-06
0.7129461301 	0.003577287727 	0.0003057195362 	2.129218658e-08 	0.003576365566 	-2.874091404e-08 	6.817546769e-06
0.7350020349 	0.003794310179 	0.0005032609532 	2.205715428e-08 	0.003791879924 	-5.34054737e-08 	7.228377034e-06
0.7570579485 	0.004070882739 	0.000694604781 	2.206344319e-08 	0.004067172587 	-7.449580091e-08 	7.753161362e-06
0.7776502527 	0.004380644473 	0.0008712108924 	2.199279659e-08 	0.004376315402 	-8.877142305e-08 	8.342473491e-06
0.7968760713 	0.004706087813 	0.001031939139 	2.261900808e-08 	0.00470135627 	-9.475591374e-08 	8.962091725e-06
0.814826083 	0.005038146108 	0.001178499124 	2.240127539e-08 	0.005032703418 	-9.241534001e-08 	9.593731483e-06
0.831584949 	0.005370495905 	0.00131258029 	1.73401182e-08 	0.005363812762 	-8.758457837e-08 	1.022491792e-05
0.8472317127 	0.005698526969 	0.001435440091 	1.270214244e-08 	0.005690686641 	-9.002539799e-08 	1.084803038e-05
0.8618401721 	0.006018858182 	0.001547477025 	2.743012414e-08 	0.006011219644 	-9.274333247e-08 	1.145905537e-05
0.8754792281 	0.00633013919 	0.001649499078 	5.24585797e-08 	0.006322617827 	-5.968680906e-08 	1.205266686e-05
0.8882132094 	0.006633267582 	0.001744744241 	1.971544152e-08 	0.006620061313 	1.798018629e-08 	1.261967681e-05
0.9001021759 	0.006927160497 	0.00183635793 	-8.548429232e-08 	0.006903984344 	3.197478602e-08 	1.316091302e-05
0.9112022019 	0.007205044241 	0.001920627259 	-7.951283226e-08 	0.00718690307 	-1.540754883e-07 	1.370023475e-05
0.9215656407 	0.007464022592 	0.00198886806 	1.938943366e-07 	0.007476067065 	-3.572036019e-07 	1.425146169e-05
0.9312413717 	0.007722766018 	0.002044220696 	3.83566017e-07 	0.007740504181 	-1.479867076e-08 	1.475555233e-05
0.9402750304 	0.008001568859 	0.002109243265 	-7.510716651e-08 	0.007949349333 	8.535964367e-07 	1.515366924e-05
0.9487092242 	0.008277570187 	0.00220095767 	-9.042778312e-07 	0.008154860368 	7.707031115e-07 	1.554543039e-05
0.9565837329 	0.008492195895 	0.002280897256 	-6.409090436e-07 	0.008465918307 	-1.421948681e-06 	1.613839327e-05
0.9639356968 	0.00863801504 	0.00226669654 	1.381100932e-06 	0.008837261384 	-2.957277127e-06 	1.684627639e-05
0.9688006083 	0.008817724306 	0.002192188913 	2.670607325e-06 	0.009039886146 	3.898944869e-08 	1.72325355e-05
0.9731064834 	0.009108448245 	0.002195777653 	5.299335342e-07 	0.008960671199 	5.073698101e-06 	1.70815298e-05
0.976917562 	0.009366088505 	0.002348573318 	-3.005388995e-06 	0.008886933253 	4.708713975e-06 	1.694096478e-05
0.9802907021 	0.009354425528 	0.002495880937 	-3.140486479e-06 	0.009145653632 	-2.2864921e-06 	1.743415773e-05
0.9832762282 	0.009114660418 	0.002412745573 	7.781494865e-07 	0.009411588227 	-5.688166789e-06 	1.794110298e-05
0.9859186816 	0.008937166574 	0.002238590845 	3.198102722e-06 	0.009239548721 	-6.218506554e-07 	1.761314786e-05
0.9882574856 	0.008844350454 	0.002220323607 	1.1280836e-06 	0.008823606957 	3.332398323e-06 	1.682024725e-05
0.990327533 	0.008593648563 	0.002260821524 	-1.13174719e-06 	0.00844916709 	1.2457825e-06 	1.61064608e-05
0.9921597073 	0.008017895894 	0.002184430479 	-8.185601686e-07 	0.007957701283 	-9.486123603e-07 	1.516959037e-05
0.9937813429 	0.006978850896 	0.001913948436 	5.269476383e-08 	0.006957168083 	-5.165209397e-07 	1.326229601e-05
0.9948347186 	0.005503388203 	0.001503990118 	1.781486501e-07 	0.005455364538 	1.201499268e-07 	1.039944105e-05
0.9958880943 	0.003305610294 	0.0008675518125 	4.826545495e-08 	0.003283673468 	1.143823013e-07 	6.25959428e-06
0.9969414701 	0.001063948251 	0.0002333376171 	1.942153688e-09 	0.001067255801 	1.617540884e-08 	2.034486186e-06
0.9979948458 	0.0001011539113 	1.022398225e-05 	-1.629560794e-11 	0.0001012033337 	4.917854931e-10 	1.929216821e-07
0.9990482216 	1.352329734e-06 	1.675231614e-08 	-9.531170962e-13 	1.349467475e-06 	-6.964823052e-11 	2.572460072e-09
