0 	0.004450333045 	-3.022439612e-16 	-1.098576801e-22 	2.052687094e-29 	7.460974286e-36 	2.711866677e-42
0 	0.004450333045 	-3.022439612e-16 	-1.098576801e-22 	2.052687094e-29 	7.460974286e-36 	2.711866677e-42
0.001889880757 	0.003864945393 	-3.287786741e-05 	3.759689137e-08 	0.005712179943 	-1.252299549e-06 	1.088900259e-05
0.003779741465 	0.003480465887 	-8.232181988e-05 	1.061104313e-07 	0.004416852333 	-1.031263067e-06 	8.419748148e-06
0.005669582045 	0.003728216502 	-0.0001405613935 	1.672234815e-07 	0.004014815158 	-9.995714002e-07 	7.653353551e-06
0.007559402482 	0.003755415523 	-0.0001899442534 	2.154165916e-07 	0.004088146998 	-1.04028009e-06 	7.79314442e-06
0.009449202822 	0.003731784721 	-0.0002326128362 	2.615355091e-07 	0.004211669125 	-1.063438902e-06 	8.028611926e-06
0.0123584479 	0.003751627571 	-0.0002910544656 	3.224930712e-07 	0.004280053384 	-1.100829743e-06 	8.15897133e-06
0.01564534699 	0.003816398534 	-0.0003669607212 	3.90170523e-07 	0.004335999145 	-1.19921691e-06 	8.265619499e-06
0.01935891766 	0.003911431758 	-0.0004524941242 	4.533513705e-07 	0.00442100668 	-1.343428899e-06 	8.427667488e-06
0.02357816231 	0.004035905424 	-0.0005446268553 	5.107652222e-07 	0.004545860683 	-1.509261634e-06 	8.665673918e-06
0.02835083071 	0.004195939142 	-0.0006441491447 	5.612613175e-07 	0.004708202795 	-1.685113608e-06 	8.975143105e-06
0.0337430193 	0.004394793327 	-0.0007518841642 	6.013336002e-07 	0.004908247361 	-1.855627057e-06 	9.356483646e-06
0.03983513139 	0.00463279448 	-0.0008674768164 	6.27597138e-07 	0.005146763394 	-1.997080771e-06 	9.811161498e-06
0.04675897752 	0.004907850667 	-0.0009898932418 	6.366616682e-07 	0.005420509449 	-2.081569623e-06 	1.033299756e-05
0.05458402359 	0.005214013084 	-0.001117460205 	6.256205296e-07 	0.005721582125 	-2.088233304e-06 	1.090692576e-05
0.06344293631 	0.005573072433 	-0.001257792139 	5.922468519e-07 	0.00606787121 	-2.0110715e-06 	1.1567049e-05
0.07687936455 	0.005980928477 	-0.001411272126 	5.080527458e-07 	0.006449988304 	-1.751152473e-06 	1.229547039e-05
0.09132747402 	0.006360597799 	-0.001551548112 	4.000152205e-07 	0.006792266283 	-1.405522922e-06 	1.294794735e-05
0.1068517842 	0.006657780335 	-0.001658832557 	2.810790804e-07 	0.007044186212 	-1.025819784e-06 	1.342817675e-05
0.1235382128 	0.006856495604 	-0.001727576529 	1.67907787e-07 	0.007191444297 	-6.585786835e-07 	1.370889159e-05
0.1414763202 	0.006949175421 	-0.001753736414 	7.418573636e-08 	0.007230246153 	-3.275886017e-07 	1.378285871e-05
0.1607597829 	0.006938009856 	-0.001736725852 	5.9620694e-09 	0.007167074546 	-3.0958715e-08 	1.366243607e-05
0.1630177224 	0.006926763184 	-0.001730499619 	1.342912684e-06 	0.007150694636 	-5.141667568e-06 	1.363121141e-05
0.1814869171 	0.006834962102 	-0.001679435787 	4.273282126e-08 	0.007017410425 	-2.832222058e-07 	1.337713466e-05
0.203761246 	0.006659032445 	-0.00158801099 	8.815448361e-08 	0.006801336445 	-6.09256266e-07 	1.29652376e-05
0.22769211 	0.006432974549 	-0.001470475626 	1.412363531e-07 	0.006541670045 	-9.391806585e-07 	1.247024127e-05
0.2533953163 	0.006179397694 	-0.001335316895 	2.067406743e-07 	0.006260252016 	-1.252537094e-06 	1.193378029e-05
0.2809948866 	0.005916822284 	-0.001190069481 	2.840318993e-07 	0.005974162595 	-1.522101765e-06 	1.138841434e-05
0.3106333302 	0.005656915136 	-0.001040243483 	3.697168993e-07 	0.005693178267 	-1.721581783e-06 	1.085278011e-05
0.3424387954 	0.005404631783 	-0.000888803169 	4.592440482e-07 	0.005420156413 	-1.829582798e-06 	1.033232458e-05
0.3765679891 	0.005161660121 	-0.0007362271249 	5.470423479e-07 	0.005154878138 	-1.832991546e-06 	9.826630456e-06
0.4131763284 	0.004931604564 	-0.0005811543405 	6.264760092e-07 	0.004899506894 	-1.732513175e-06 	9.339821887e-06
0.4524319133 	0.004723387346 	-0.0004212503391 	6.905713796e-07 	0.004662040323 	-1.548297302e-06 	8.887144603e-06
0.4945150618 	0.004552682744 	-0.0002559540779 	7.32703656e-07 	0.004458506905 	-1.321435198e-06 	8.499153338e-06
0.5366248026 	0.004436896609 	-9.123556041e-05 	7.475342752e-07 	0.004308904331 	-1.098996682e-06 	8.213969254e-06
0.5759561429 	0.004380736914 	6.675974853e-05 	7.373803233e-07 	0.004221213305 	-9.102481148e-07 	8.046805785e-06
0.6126864062 	0.004378435251 	0.0002183062172 	7.082684899e-07 	0.004192024211 	-7.591545453e-07 	7.991163259e-06
0.6469841783 	0.00442430419 	0.0003654148498 	6.646442297e-07 	0.004217018938 	-6.403085298e-07 	8.038810156e-06
0.6790086872 	0.004514489121 	0.0005094534072 	6.093270374e-07 	0.004292534073 	-5.477216425e-07 	8.182762992e-06
0.7089097018 	0.004645820671 	0.0006509831064 	5.432568918e-07 	0.004414995196 	-4.776689511e-07 	8.416207929e-06
0.7368272602 	0.004814430819 	0.0007895546045 	4.658678259e-07 	0.004580163912 	-4.30260233e-07 	8.731065407e-06
0.7628926911 	0.005014708518 	0.000923780854 	3.758402267e-07 	0.00478225372 	-4.096756381e-07 	9.116304748e-06
0.7872286785 	0.005238837748 	0.001051544611 	2.72040235e-07 	0.005013352172 	-4.237304597e-07 	9.556842629e-06
0.8099498676 	0.005476728819 	0.001170223658 	1.545744167e-07 	0.005263334873 	-4.829348457e-07 	1.003337914e-05
0.8311633612 	0.005716369859 	0.001277039774 	2.563641723e-08 	0.005519804803 	-5.984065201e-07 	1.052228211e-05
0.8509691787 	0.005944026435 	0.001369299808 	-1.1017634e-07 	0.00576883262 	-7.787143408e-07 	1.099699834e-05
0.8694607163 	0.006145188337 	0.001444600011 	-2.461884817e-07 	0.005994579639 	-1.025744249e-06 	1.14273349e-05
0.8867251805 	0.006304575999 	0.001501421922 	-3.744798862e-07 	0.006181461911 	-1.33130383e-06 	1.178358445e-05
0.9028439947 	0.006407466668 	0.001537653958 	-4.857570853e-07 	0.006312919807 	-1.674280745e-06 	1.203417974e-05
0.9178931816 	0.006441095115 	0.001554522617 	-5.707638299e-07 	0.006373325948 	-2.019059787e-06 	1.214933063e-05
0.9319437194 	0.006397789125 	0.001549641742 	-6.198945374e-07 	0.006355123436 	-2.296205615e-06 	1.211463158e-05
0.9412411842 	0.006303183941 	0.001530836345 	-6.364073836e-07 	0.006278673046 	-2.458047689e-06 	1.196889589e-05
0.9494702593 	0.006180004599 	0.00150756061 	-6.329252324e-07 	0.006165962511 	-2.527190724e-06 	1.175403829e-05
0.9567537154 	0.00602743288 	0.001477786853 	-6.100300667e-07 	0.006022355164 	-2.528362097e-06 	1.148028277e-05
0.9632002153 	0.005852743281 	0.001444142649 	-5.650991497e-07 	0.005853001243 	-2.458313337e-06 	1.115744713e-05
0.9689059355 	0.005660302682 	0.001407737167 	-5.069883973e-07 	0.005664448173 	-2.308142771e-06 	1.079801257e-05
0.9739560002 	0.005454788853 	0.00137053287 	-4.492223996e-07 	0.005456591589 	-2.090249847e-06 	1.040178015e-05
0.9784257521 	0.005230012573 	0.001334216157 	-3.926257618e-07 	0.005239760101 	-1.833865441e-06 	9.988439068e-06
0.9823818762 	0.004976000589 	0.001287218069 	-3.283738423e-07 	0.004990299407 	-1.544321573e-06 	9.512897652e-06
0.9858833943 	0.004670465188 	0.001235132074 	-2.636043977e-07 	0.004680608756 	-1.222852126e-06 	8.922541197e-06
0.9889825462 	0.004214804731 	0.001127924423 	-2.034028139e-07 	0.004213444948 	-9.147010832e-07 	8.031997138e-06
0.9909956813 	0.003589313121 	0.0009691960809 	-1.547521447e-07 	0.003547194407 	-6.570124602e-07 	6.761938432e-06
0.9930088164 	0.00246280951 	0.000661251871 	-1.077990106e-07 	0.002428803568 	-4.287513276e-07 	4.629974652e-06
0.9950219514 	0.0009094689134 	0.0002226319308 	-4.121392906e-08 	0.0009089690116 	-1.724210699e-07 	1.732747571e-06
0.9970350865 	7.108370095e-05 	8.652794609e-06 	-1.76398017e-09 	7.12570036e-05 	-1.454022038e-08 	1.358356537e-07
0.9990482216 	5.060997169e-07 	5.94272917e-09 	-1.072296773e-12 	5.050509939e-07 	-1.019135189e-10 	9.62767566e-10
0.9990482216 	5.060997169e-07 	5.94272917e-09 	-1.072296773e-12 	5.050509939e-07 	-1.019135189e-10 	9.62767566e-10
