0.1768325896 	1.746347991e-06 	-8.448231867e-08 	3.225234926e-10 	1.548169716e-06 	-8.814037637e-09 	2.951241771e-09
0.1785907938 	0.000294762238 	-0.000104604274 	5.881875708e-07 	0.0001902710973 	-1.01309821e-06 	3.627095946e-07
0.1803486209 	0.002823465998 	-0.001585586032 	4.245145873e-06 	0.002064243063 	-7.092396178e-06 	3.935021005e-06
0.1821054395 	0.005947047454 	-0.003431637558 	5.455482474e-06 	0.004893528054 	-2.588997295e-05 	9.328424557e-06
0.1838606252 	0.007055225574 	-0.003916115647 	1.014913866e-05 	0.006998439042 	-5.56902439e-05 	1.334096993e-05
0.1856135605 	0.007429519494 	-0.003938532033 	1.93419715e-05 	0.008919809533 	-8.078219282e-05 	1.70036361e-05
0.1883063411 	0.007339388594 	-0.003655032146 	2.462244168e-05 	0.01035281659 	-8.558870454e-05 	1.973534584e-05
0.191337819 	0.006697159673 	-0.003103273162 	2.436637242e-05 	0.01101905056 	-6.641767192e-05 	2.100537296e-05
0.1947451987 	0.005850975229 	-0.002574242432 	1.761744922e-05 	0.01107727467 	-3.566413693e-05 	2.111636429e-05
0.1985670993 	0.004967035831 	-0.002101657224 	1.122646241e-05 	0.01088659713 	-1.276161853e-05 	2.075287991e-05
0.2029500116 	0.004124509017 	-0.001768931223 	8.34372346e-06 	0.01068164244 	-2.459766541e-06 	2.03621793e-05
0.2079040511 	0.003359198999 	-0.00153745715 	6.778331578e-06 	0.0101962525 	2.507956928e-06 	1.943689117e-05
0.2134522109 	0.002719008813 	-0.001374015471 	4.678932081e-06 	0.009510283409 	5.731965108e-06 	1.812924342e-05
0.2196601811 	0.002266369812 	-0.001276384297 	2.384163101e-06 	0.008779332382 	5.845902181e-06 	1.673584761e-05
0.2267486692 	0.00207346641 	-0.0012659633 	1.054537568e-06 	0.008312081744 	2.495395302e-06 	1.584513803e-05
0.2332577037 	0.002016979536 	-0.001274134338 	3.217763204e-08 	0.008106177511 	-4.873040854e-06 	1.545262733e-05
0.234647839 	0.002004260833 	-0.001274608928 	2.784445789e-07 	0.0080473114 	2.226717565e-07 	1.534041216e-05
0.245957996 	0.001850813533 	-0.001223221971 	2.268558155e-06 	0.007403189909 	2.108835239e-06 	1.411253758e-05
0.2581327455 	0.001671441503 	-0.001161391469 	3.873609015e-06 	0.006686574864 	4.851796583e-06 	1.274647013e-05
0.2712030149 	0.001615329914 	-0.001149876136 	5.905906855e-06 	0.006416456997 	5.960657344e-06 	1.22315504e-05
0.2851802459 	0.00160310821 	-0.001180821308 	8.696171445e-06 	0.006340083731 	4.99060976e-06 	1.208596173e-05
0.3001737618 	0.001490203149 	-0.001150725252 	1.045837362e-05 	0.00594795459 	6.91977123e-06 	1.13384546e-05
0.3163208608 	0.001485022917 	-0.001186101406 	1.29587418e-05 	0.005954428688 	8.142541247e-06 	1.135079603e-05
0.3336263772 	0.001446574194 	-0.001191820218 	1.085023461e-05 	0.005882644375 	8.198741979e-06 	1.121395517e-05
0.3521814245 	0.001438509367 	-0.001234092791 	8.667854168e-06 	0.005946418272 	7.853925447e-06 	1.133552595e-05
0.3720724044 	0.001465187385 	-0.001293478008 	6.874459989e-06 	0.006143504715 	6.495741111e-06 	1.171122749e-05
0.3934380589 	0.001424174139 	-0.001308251646 	4.693316947e-06 	0.006093178434 	5.068651278e-06 	1.161529161e-05
0.4163236383 	0.001451105828 	-0.001372577474 	2.975315549e-06 	0.006263848074 	3.03268504e-06 	1.194063538e-05
0.4408019705 	0.001433494853 	-0.00140318404 	1.230103576e-06 	0.006289399402 	1.351496412e-06 	1.198934331e-05
0.4622799629 	0.001444122091 	-0.001466199744 	-2.227122462e-07 	0.006408741143 	-2.021323264e-06 	1.221684184e-05
0.4669995683 	0.001449674264 	-0.001480353379 	2.605870287e-07 	0.006432155163 	2.075259857e-07 	1.226147547e-05
0.4948343623 	0.001475866223 	-0.001577328025 	1.595289569e-06 	0.006601562317 	1.226410045e-06 	1.258441259e-05
0.5246517747 	0.001471352059 	-0.001690666286 	2.843956711e-06 	0.006838041985 	2.042107714e-06 	1.303520856e-05
0.5565711163 	0.001425920105 	-0.001771336737 	3.721185666e-06 	0.007193432111 	2.56135441e-06 	1.371268092e-05
0.5907153384 	0.001299817799 	-0.001602854889 	2.683943636e-06 	0.007576673571 	3.540463283e-06 	1.444324565e-05
0.6248041875 	0.001187613948 	-0.001138711852 	7.679568839e-07 	0.007835414327 	4.555239461e-06 	1.493647745e-05
0.6565865215 	0.001142592701 	-0.0006019220074 	1.557132011e-07 	0.008012665641 	4.348073408e-06 	1.527436772e-05
0.6862306008 	0.001120473008 	-0.0001292074078 	1.514140419e-07 	0.008210965035 	3.707291782e-06 	1.565238148e-05
0.7138920104 	0.001127700093 	0.0002862508518 	1.381744284e-07 	0.0084177446 	3.327844192e-06 	1.60465608e-05
0.7397136074 	0.001168996444 	0.0006616678806 	4.717401268e-08 	0.008611924743 	3.02868679e-06 	1.641672212e-05
0.7638267275 	0.001241695268 	0.001004213057 	-3.938191362e-08 	0.008784345485 	2.686143887e-06 	1.674540398e-05
0.7863495136 	0.001340057986 	0.001314113337 	-1.054618151e-07 	0.008932119587 	2.304935473e-06 	1.702710249e-05
0.8073911058 	0.00145794368 	0.001591252271 	-1.516477032e-07 	0.009052148626 	1.930003964e-06 	1.72559112e-05
0.8270511595 	0.001589109815 	0.001835971963 	-1.774764525e-07 	0.009141463633 	1.574908047e-06 	1.742617042e-05
0.845421889 	0.001728031094 	0.002049439626 	-1.851349123e-07 	0.009196607513 	1.251118696e-06 	1.753128998e-05
0.8625884684 	0.001871045128 	0.002234250109 	-1.82650266e-07 	0.009212754497 	9.905459372e-07 	1.756207062e-05
0.8786299155 	0.002015166408 	0.002392930985 	-1.845734719e-07 	0.009186792401 	8.045423284e-07 	1.751257965e-05
0.8936198082 	0.002156402185 	0.002529349831 	-1.984094564e-07 	0.009120569691 	6.277655066e-07 	1.738634076e-05
0.9076267231 	0.002287067151 	0.002642558063 	-1.939081698e-07 	0.009025847598 	3.92292372e-07 	1.720577413e-05
0.9207146719 	0.00241067532 	0.002729051318 	-1.075695666e-07 	0.008891398491 	1.828404331e-07 	1.694947676e-05
0.9329434662 	0.002534492268 	0.002801277128 	3.796345954e-08 	0.008707508577 	1.894412038e-07 	1.659893147e-05
0.9443690234 	0.002658027426 	0.002864069658 	6.067701063e-08 	0.008478058005 	3.714267254e-07 	1.616153491e-05
0.9519339113 	0.002749096589 	0.002940658952 	-9.163940844e-08 	0.008287949903 	4.344774383e-07 	1.579913603e-05
0.9586324528 	0.00278685838 	0.003006042365 	-1.923432122e-07 	0.008190741437 	2.05446229e-07 	1.561382968e-05
0.9645635659 	0.002806041542 	0.003007368749 	-5.015059318e-08 	0.008108678248 	-6.308083434e-08 	1.545739443e-05
0.9698149412 	0.002846393249 	0.002992895429 	1.793318375e-07 	0.007975192978 	-2.995446672e-09 	1.520293441e-05
0.9744642952 	0.002910160291 	0.003019375184 	1.98640973e-07 	0.007807787236 	2.449333417e-07 	1.488381253e-05
0.9785804997 	0.002947933934 	0.00308807406 	6.214298473e-08 	0.007696832407 	3.104179147e-07 	1.467230179e-05
0.9822245787 	0.002918007275 	0.003117597008 	1.986408206e-09 	0.00766836295 	2.039218442e-07 	1.461803109e-05
0.9854505955 	0.002860642191 	0.00306913903 	3.612709329e-08 	0.007542282313 	1.305753645e-07 	1.437768636e-05
0.9883064419 	0.002747443758 	0.00298347575 	6.772501572e-08 	0.00724421078 	1.272043234e-07 	1.380947917e-05
0.9908345383 	0.002505869325 	0.002740152289 	5.828655802e-08 	0.006492813583 	1.150719924e-07 	1.237710727e-05
0.9924769413 	0.00207229724 	0.002283174267 	3.067136097e-08 	0.005271011959 	7.08829513e-08 	1.00480138e-05
0.9941195111 	0.001307883081 	0.001361367906 	6.15520806e-09 	0.00317291129 	1.806543421e-08 	6.048450784e-06
0.9957622477 	0.0004539505103 	0.0003649417623 	-1.317378814e-09 	0.0009072557694 	-2.130813717e-09 	1.729481655e-06
0.9974051512 	4.19748926e-05 	1.320442896e-05 	4.817729618e-11 	4.91874338e-05 	3.748437785e-10 	9.376491976e-08
0.9990482216 	3.653615501e-07 	1.165182458e-08 	3.876076603e-13 	3.651183361e-07 	1.054130865e-11 	6.960170279e-10
0.9990482216 	3.653615501e-07 	1.165182458e-08 	3.876076603e-13 	3.651183361e-07 	1.054130865e-11 	6.960170279e-10
