0.4709558481 	1.628829774e-06 	-2.257703656e-08 	1.452219016e-12 	1.625336991e-06 	-8.002100876e-11 	3.098344044e-09
0.4720092239 	0.0001332781875 	-1.473436538e-05 	1.031805096e-09 	0.0001334036972 	-7.352189439e-09 	2.543045245e-07
0.4730625996 	0.001365368844 	-0.0003111309988 	2.519353942e-08 	0.00136756735 	-8.321615232e-08 	2.606963466e-06
0.4741159754 	0.004004244617 	-0.001061761217 	1.014671432e-07 	0.003960972045 	-1.653477344e-07 	7.550713612e-06
0.4751693511 	0.006340946302 	-0.001722563377 	3.757814564e-08 	0.006273523983 	2.339398769e-07 	1.195908035e-05
0.4762227269 	0.00774368953 	-0.002101332776 	-5.555568142e-07 	0.007824786353 	8.805553338e-07 	1.491621758e-05
0.4778443634 	0.008762066692 	-0.002436998223 	-9.374603674e-07 	0.008939177955 	-6.007185418e-07 	1.70405577e-05
0.4796765386 	0.00949398452 	-0.002663521334 	9.151651154e-07 	0.0092815915 	-3.234871097e-06 	1.769329308e-05
0.4817465869 	0.009819514743 	-0.002554008757 	3.296576723e-06 	0.009096468959 	-4.571973835e-07 	1.734039807e-05
0.4840853915 	0.009531003392 	-0.002188012458 	1.319710383e-06 	0.00927524404 	5.627962212e-06 	1.768119306e-05
0.4867278453 	0.009054480676 	-0.002151174122 	-3.346092754e-06 	0.009895318982 	3.686513707e-06 	1.886322824e-05
0.4897133715 	0.008995238124 	-0.002528427592 	-3.90469987e-06 	0.0098649628 	-4.470056748e-06 	1.880536092e-05
0.4930865115 	0.009224412515 	-0.002729253656 	4.15616432e-07 	0.008980853158 	-6.306328272e-06 	1.712000222e-05
0.4968975894 	0.009128902921 	-0.002456477024 	3.417345216e-06 	0.008247492786 	-4.472990811e-07 	1.572201352e-05
0.5012034633 	0.008565760326 	-0.002087661289 	1.76752148e-06 	0.00813401042 	4.125396246e-06 	1.550568459e-05
0.506068373 	0.007908486613 	-0.001983331309 	-7.80758881e-07 	0.008059365838 	2.846123032e-06 	1.536339127e-05
0.5134203412 	0.007368036823 	-0.002009205595 	-1.055969632e-06 	0.007565239289 	-3.5597888e-07 	1.442144873e-05
0.5212948542 	0.006880865726 	-0.001928000408 	-2.183128699e-07 	0.006861969023 	-1.06966595e-06 	1.308082014e-05
0.529729052 	0.006363441183 	-0.001737646085 	2.052244319e-07 	0.006236010794 	4.92207952e-08 	1.188756978e-05
0.5387627144 	0.005826624712 	-0.001537910451 	7.382860149e-08 	0.005731305728 	6.655860828e-07 	1.092546165e-05
0.5484384488 	0.005330921778 	-0.001370040019 	-1.456603761e-07 	0.005284441022 	4.317806387e-07 	1.007361332e-05
0.5588018907 	0.004909555323 	-0.001208684823 	-1.869676705e-07 	0.004867899289 	1.145698277e-07 	9.279569007e-06
0.5699019192 	0.004562458465 	-0.001034295081 	-1.408311272e-07 	0.004509330625 	5.159095643e-08 	8.596037475e-06
0.5817908876 	0.004285072532 	-0.0008523774289 	-1.271775688e-07 	0.004231584135 	5.676884182e-08 	8.06657547e-06
0.5945248701 	0.004078057976 	-0.0006714960363 	-1.422277635e-07 	0.004033068479 	-9.520423884e-09 	7.688149455e-06
0.6081639266 	0.003941392842 	-0.0004920878305 	-1.511253639e-07 	0.003904078087 	-1.034461337e-07 	7.442257917e-06
0.6227723857 	0.003870462832 	-0.000312166289 	-1.515146348e-07 	0.003839351068 	-1.759806956e-07 	7.318870228e-06
0.638419148 	0.003859475663 	-0.0001313076054 	-1.510915806e-07 	0.003834947864 	-2.31141668e-07 	7.310476497e-06
0.6551780116 	0.003903783434 	5.076639879e-05 	-1.503935053e-07 	0.003886209458 	-2.763197186e-07 	7.408195343e-06
0.6731280194 	0.003999663726 	0.0002348454873 	-1.481818337e-07 	0.003989233565 	-3.085436886e-07 	7.604587926e-06
0.6923538328 	0.004144144751 	0.0004216452813 	-1.440862277e-07 	0.004141102811 	-3.245059151e-07 	7.894092918e-06
0.7129461301 	0.004335075058 	0.000611469778 	-1.376231882e-07 	0.004339403145 	-3.216270429e-07 	8.272108468e-06
0.7350020349 	0.004566862681 	0.0008010464986 	-1.286267493e-07 	0.004578128525 	-2.972706223e-07 	8.727185395e-06
0.7570579485 	0.004823514867 	0.0009807390119 	-1.18040163e-07 	0.0048409035 	-2.524628047e-07 	9.22810753e-06
0.7776502527 	0.005087116725 	0.001142729443 	-1.067017192e-07 	0.005109447514 	-1.952809896e-07 	9.740027058e-06
0.7968760713 	0.00535019108 	0.001286718526 	-9.353124204e-08 	0.005376138118 	-1.364791819e-07 	1.024841347e-05
0.814826083 	0.0056117179 	0.001414982811 	-7.860120456e-08 	0.005639758807 	-7.495356703e-08 	1.075094778e-05
0.831584949 	0.005871883575 	0.001529600121 	-6.888112645e-08 	0.005899815676 	5.491120057e-09 	1.124668845e-05
0.8472317127 	0.006130901304 	0.001632829048 	-7.168725078e-08 	0.006156728419 	8.652643042e-08 	1.173643554e-05
0.8618401721 	0.006388087737 	0.001726757062 	-7.233295574e-08 	0.006412553783 	8.66737846e-08 	1.222410979e-05
0.8754792281 	0.00664273134 	0.001811682786 	-3.278690274e-08 	0.006668632499 	8.014012454e-09 	1.271226699e-05
0.8882132094 	0.006895939074 	0.001886461314 	4.29972232e-08 	0.006921416689 	7.726825041e-08 	1.319414392e-05
0.9001021759 	0.007149487407 	0.001953398947 	4.102362717e-08 	0.007164905764 	4.234345862e-07 	1.365830177e-05
0.9112022019 	0.007401369797 	0.002020939071 	-1.494730611e-07 	0.007400474275 	5.818378519e-07 	1.410736082e-05
0.9215656407 	0.007643143307 	0.002090914183 	-3.328643384e-07 	0.007642186705 	-4.760639461e-08 	1.45681319e-05
0.9312413717 	0.007868142294 	0.002145570507 	7.775471446e-10 	0.007897958887 	-9.037489019e-07 	1.505570476e-05
0.9402750304 	0.008087382354 	0.002171128413 	7.677083815e-07 	0.008144874652 	-3.426038496e-07 	1.552639484e-05
0.9487092242 	0.008330001665 	0.002189041523 	6.793098491e-07 	0.008334770859 	1.909360405e-06 	1.588838979e-05
0.9565837329 	0.008601070295 	0.0022595262 	-1.081144654e-06 	0.008480127582 	2.844321035e-06 	1.61654801e-05
0.9639356968 	0.008818955557 	0.002363074786 	-2.62481634e-06 	0.008695018886 	-9.373799503e-07 	1.657512265e-05
0.9688006083 	0.008903024956 	0.002374618516 	-3.637091067e-07 	0.009010479449 	-6.509070715e-06 	1.717647816e-05
0.9731064834 	0.00894544564 	0.002267022986 	4.350300984e-06 	0.009264648907 	-4.884533514e-06 	1.766099579e-05
0.976917562 	0.009091900861 	0.002180030027 	4.103815955e-06 	0.009243598347 	4.171636605e-06 	1.762086758e-05
0.9802907021 	0.009290549696 	0.002243170046 	-1.792538439e-06 	0.00901562673 	8.479646416e-06 	1.718629031e-05
0.9832762282 	0.00931381555 	0.002395169295 	-4.976687571e-06 	0.008962201871 	1.773805133e-06 	1.708444768e-05
0.9859186816 	0.009052140251 	0.002420277547 	-1.737865827e-06 	0.009065915614 	-5.485871091e-06 	1.72821549e-05
0.9882574856 	0.008682155931 	0.002287733253 	2.383062088e-06 	0.008915344845 	-2.917464367e-06 	1.699512517e-05
0.990327533 	0.008329687488 	0.00217118897 	2.129267972e-06 	0.00843325286 	2.220851619e-06 	1.607612385e-05
0.9921597073 	0.007827236188 	0.002094918212 	-7.039532726e-08 	0.00778401303 	1.685185405e-06 	1.483849229e-05
0.9937813429 	0.006867913446 	0.001875918155 	-5.917643239e-07 	0.006790038633 	-3.345121861e-07 	1.294370083e-05
0.9948347186 	0.005405805521 	0.001479990829 	-1.470954515e-07 	0.005337402711 	-3.666373691e-07 	1.017457302e-05
0.9958880943 	0.003220339423 	0.0008449316362 	3.260553697e-08 	0.003198771428 	7.543724771e-09 	6.097747394e-06
0.9969414701 	0.00102690344 	0.0002239687895 	1.4559818e-08 	0.001030555297 	4.002575597e-08 	1.964524825e-06
0.9979948458 	9.73040423e-05 	9.709722964e-06 	5.643393207e-10 	9.735194041e-05 	4.009922749e-09 	1.85579856e-07
0.9990482216 	1.302190269e-06 	1.58878607e-08 	7.943659787e-13 	1.299446775e-06 	4.869033859e-11 	2.477106716e-09
0.9990482216 	1.302190269e-06 	1.58878607e-08 	7.943659787e-13 	1.299446775e-06 	4.869033859e-11 	2.477106716e-09
