0.4709460472 	1.490480706e-06 	-1.998670722e-08 	1.31686413e-12 	1.487355395e-06 	-5.002042157e-11 	2.835312771e-09
0.4709460472 	1.490480706e-06 	-1.998670722e-08 	1.31686413e-12 	1.487355395e-06 	-5.002042157e-11 	2.835312771e-09
0.4719924022 	0.0001217230078 	-1.30509102e-05 	1.843373455e-09 	0.0001218642175 	-1.078726188e-08 	2.32307069e-07
0.4730387601 	0.001254921306 	-0.0002820138626 	2.06812772e-08 	0.00125994945 	-9.217432491e-08 	2.401813837e-06
0.4740851209 	0.003769399504 	-0.0009992638215 	-5.862342343e-08 	0.003743734495 	-1.968415533e-07 	7.136598464e-06
0.4751314845 	0.006131363064 	-0.001687748219 	5.897569273e-08 	0.006040945945 	-1.134648481e-06 	1.151572196e-05
0.4761778509 	0.007630256955 	-0.002083267481 	1.349276006e-06 	0.00748013708 	-2.621748622e-06 	1.425922027e-05
0.4777887022 	0.008495755957 	-0.002231820967 	2.297513319e-06 	0.008398618002 	4.748765617e-07 	1.601010019e-05
0.4796086996 	0.008807601236 	-0.002242667577 	-1.517625502e-06 	0.009108480689 	6.25003184e-06 	1.736329577e-05
0.4816649984 	0.009091451269 	-0.002445860179 	-7.052642101e-06 	0.009674802704 	5.882514625e-07 	1.844286293e-05
0.4839898925 	0.009568875544 	-0.002707471806 	-3.577745707e-06 	0.009562330737 	-1.274787613e-05 	1.82284601e-05
0.4866170339 	0.009876343996 	-0.002605130764 	7.249497433e-06 	0.009034552236 	-9.925770487e-06 	1.722236759e-05
0.4895852754 	0.009606609291 	-0.002202504297 	9.529339855e-06 	0.008983344474 	8.489004574e-06 	1.712475136e-05
0.492938906 	0.009017316286 	-0.002035381508 	-2.419067485e-07 	0.009382373847 	1.486986104e-05 	1.788541225e-05
0.4967307534 	0.00865123154 	-0.002230108166 	-7.368150484e-06 	0.009368930359 	1.945129147e-06 	1.785978522e-05
0.5010150927 	0.008545223289 	-0.002395298843 	-4.402150682e-06 	0.008758383775 	-9.026013021e-06 	1.669591374e-05
0.5058569357 	0.008332914563 	-0.002302936023 	1.10082479e-06 	0.00809490956 	-6.302964095e-06 	1.543114749e-05
0.5131774231 	0.007857458417 	-0.002078268591 	2.49454054e-06 	0.007653000217 	1.177253891e-06 	1.458874546e-05
0.5210221424 	0.007296267658 	-0.001911509468 	8.311663064e-07 	0.00728952784 	3.477002545e-06 	1.389586608e-05
0.5294278369 	0.006789819995 	-0.001822723108 	-5.060320974e-07 	0.006854552658 	1.278492797e-06 	1.306668249e-05
0.5384349972 	0.00632416977 	-0.001720191202 	-4.62408405e-07 	0.006355203963 	-3.370705084e-07 	1.211478509e-05
0.5480868191 	0.005866388618 	-0.001579242377 	4.529798268e-08 	0.005859105413 	-8.914035523e-08 	1.116908337e-05
0.5584294125 	0.005410464979 	-0.001422981245 	2.530043548e-07 	0.005397617635 	5.223963887e-07 	1.02893594e-05
0.5695120252 	0.004970614965 	-0.001268222842 	1.678679568e-07 	0.004968661818 	5.919245978e-07 	9.471650394e-06
0.5813872839 	0.004564463946 	-0.001112149121 	8.578894077e-08 	0.004567894056 	4.013329787e-07 	8.707675651e-06
0.5941114518 	0.00420401037 	-0.0009493814989 	1.057225467e-07 	0.004205434895 	2.951876476e-07 	8.016727751e-06
0.6077447052 	0.003897972659 	-0.0007802803523 	1.515950869e-07 	0.003896693836 	2.629106134e-07 	7.428181482e-06
0.6223514991 	0.003654572625 	-0.0006069188627 	1.729568631e-07 	0.003652739264 	2.116763144e-07 	6.963136264e-06
0.6380015177 	0.003481100415 	-0.0004301106336 	1.812038023e-07 	0.003479330588 	1.325994633e-07 	6.632571131e-06
0.6547677711 	0.003382393422 	-0.0002497655976 	1.900097225e-07 	0.003379830251 	4.90732763e-08 	6.442895835e-06
0.6727297628 	0.003361054279 	-6.558194903e-05 	1.977786138e-07 	0.003356355953 	-3.231724454e-08 	6.398147297e-06
0.6919718284 	0.003418636045 	0.0001230046275 	2.011260393e-07 	0.003410271567 	-1.135762615e-07 	6.500925443e-06
0.7125844168 	0.003556582942 	0.0003168423625 	1.993124795e-07 	0.003543104455 	-1.935356209e-07 	6.754141847e-06
0.7346644336 	0.00377233344 	0.0005135003565 	1.924535177e-07 	0.003753184132 	-2.665376143e-07 	7.1546121e-06
0.756746148 	0.004048552528 	0.0007036708584 	1.821306747e-07 	0.004024745088 	-3.227530505e-07 	7.672282757e-06
0.7773635624 	0.004358792347 	0.0008790504673 	1.698581738e-07 	0.004332007962 	-3.541713012e-07 	8.258011196e-06
0.7966134053 	0.004685384633 	0.001038625613 	1.538321689e-07 	0.004656638718 	-3.602281138e-07 	8.876847642e-06
0.814586177 	0.005019071723 	0.001184203336 	1.377357608e-07 	0.004988744974 	-3.540299342e-07 	9.509934471e-06
0.8313664872 	0.00535312378 	0.001317483964 	1.385875072e-07 	0.005321998411 	-3.55352162e-07 	1.014520814e-05
0.8470333997 	0.005682804282 	0.001439375391 	1.520464478e-07 	0.005652245809 	-3.367724161e-07 	1.077475147e-05
0.8616607424 	0.006005638205 	0.001549888772 	1.154427426e-07 	0.005975135699 	-2.202449923e-07 	1.139026935e-05
0.8753174814 	0.006320887315 	0.001651117476 	3.834729239e-09 	0.006286013815 	-8.166867262e-08 	1.198288944e-05
0.8880680093 	0.006626719991 	0.001748823105 	-1.759214142e-08 	0.006585203297 	-2.527761322e-07 	1.255322775e-05
0.8999724522 	0.006917951562 	0.001843363608 	2.370668596e-07 	0.006881596753 	-7.060443634e-07 	1.311823605e-05
0.9110869503 	0.00719176311 	0.001921272694 	5.008124436e-07 	0.007179714786 	-4.548039347e-07 	1.368653188e-05
0.9214639198 	0.007458926121 	0.001975179796 	1.364817221e-07 	0.007459903923 	1.060819764e-06 	1.422065025e-05
0.9311522995 	0.007740210787 	0.002035349892 	-8.296379093e-07 	0.007690517756 	1.711826432e-06 	1.466026431e-05
0.9401977815 	0.008028129491 	0.002140395263 	-9.910268594e-07 	0.007900144619 	-1.167631751e-06 	1.505987137e-05
0.9486430259 	0.008270069104 	0.002251706041 	1.115413951e-06 	0.008189696637 	-4.703306373e-06 	1.5611838e-05
0.9565278625 	0.008441007716 	0.002265333554 	3.52889291e-06 	0.008594422096 	-1.126158096e-06 	1.638335721e-05
0.9638894781 	0.008640645743 	0.002164767184 	1.565353268e-06 	0.008909657985 	9.219858229e-06 	1.698428443e-05
0.9687607812 	0.008995901386 	0.002131251761 	-5.295699893e-06 	0.008890371797 	1.267215589e-05 	1.69475196e-05
0.9730723166 	0.009397348165 	0.002320519443 	-8.826591789e-06 	0.008771250814 	-1.072886744e-06 	1.672044189e-05
0.9768884077 	0.009517556113 	0.00255459642 	-5.325595478e-07 	0.009042723757 	-1.626651142e-05 	1.723794478e-05
0.9802659863 	0.009294091266 	0.00251642894 	1.051449768e-05 	0.009593133044 	-8.268683098e-06 	1.828717785e-05
0.9832554423 	0.009081514864 	0.002248727031 	7.675067572e-06 	0.009717103513 	1.174991578e-05 	1.852350002e-05
0.9859013753 	0.009111798335 	0.002133135162 	-3.801315024e-06 	0.00923664311 	1.376002147e-05 	1.760760896e-05
0.98824326 	0.009125265122 	0.002277032172 	-6.874395063e-06 	0.008786387619 	-1.712164287e-07 	1.674929685e-05
0.990316035 	0.008779900091 	0.002358949504 	-1.269684269e-06 	0.008568637958 	-5.60326549e-06 	1.633420548e-05
0.9921506239 	0.008061453413 	0.002214796563 	2.213796782e-06 	0.008090590086 	-3.861694908e-08 	1.542291337e-05
0.9937743971 	0.006980226898 	0.001905118582 	1.220573255e-06 	0.007004171829 	2.617853369e-06 	1.335189821e-05
0.9948291616 	0.005522256984 	0.001503166168 	4.449929123e-08 	0.005473425525 	1.076307338e-06 	1.043387031e-05
0.9958839263 	0.003328082714 	0.0008731012978 	-5.706231575e-08 	0.003302512413 	1.62524284e-07 	6.295506545e-06
0.9969386912 	0.001073444766 	0.000235740448 	9.303570788e-09 	0.00107640842 	5.829577824e-08 	2.051933621e-06
0.9979934563 	0.0001020650393 	1.033927601e-05 	1.081944132e-09 	0.0001021126465 	8.109893539e-09 	1.94655085e-07
0.9990482216 	1.346905172e-06 	1.6710574e-08 	1.740457313e-12 	1.3440464e-06 	1.039437895e-10 	2.562125997e-09
