0.46067416 	0.0041455164 	-0.0019231469 	-4.0869865e-07 	0.0045740173 	9.6317487e-07 	6.6465912e-05
0.47191011 	0.0052001289 	-0.0023307792 	2.5259541e-07 	0.0055926337 	-5.7035108e-07 	0.00032541558
0.48314607 	0.0049588107 	-0.0021706692 	6.1424309e-07 	0.0052164673 	-1.4474279e-06 	0.00053015717
0.49438202 	0.0046377524 	-0.001988784 	1.245172e-06 	0.0047769679 	-2.9658247e-06 	0.00068629093
0.50561798 	0.004313897 	-0.0017990691 	4.7774236e-07 	0.0043428732 	-1.1054199e-06 	0.00077337173
0.51685393 	0.0039937086 	-0.0016162341 	2.5386322e-06 	0.003927936 	-5.785532e-06 	0.00085833919
0.52808989 	0.0036878706 	-0.0014404972 	2.1522016e-06 	0.0035358801 	-4.8501644e-06 	0.00091289082
0.53932584 	0.0034013133 	-0.0012722212 	1.4041009e-06 	0.00317213 	-3.0723326e-06 	0.00093947874
0.5505618 	0.0031392302 	-0.0011107467 	1.2638204e-06 	0.0028397434 	-2.651587e-06 	0.0009424813
0.56179775 	0.0029053379 	-0.00095602811 	1.6717372e-06 	0.0025418151 	-3.2997898e-06 	0.00092695564
0.57303371 	0.002701921 	-0.00080760426 	2.5616227e-06 	0.0022795035 	-4.6424898e-06 	0.00089899781
0.58426966 	0.002529236 	-0.00066495238 	1.585287e-06 	0.0020522632 	-2.5516495e-06 	0.000865122
0.59550562 	0.0023866341 	-0.00052751361 	1.3843221e-08 	0.0018581441 	-1.0522007e-07 	0.00070526449
0.60674157 	0.0022785834 	-0.00039554975 	2.7807883e-08 	0.0017008158 	-2.9136446e-07 	0.00052664576
0.61797753 	0.0022000617 	-0.00026605801 	1.8594805e-06 	0.0015798757 	-1.9907161e-06 	0.0008231308
0.62921348 	0.0021450529 	-0.00013823579 	7.2935462e-07 	0.0014838522 	-5.521675e-07 	0.00080027377
0.64044944 	0.0021171193 	-1.1887657e-05 	4.7485952e-08 	0.0014143019 	-4.9262431e-07 	0.00035911922
0.65168539 	0.0021122841 	0.00011367078 	2.4922658e-06 	0.0013762645 	-1.1102425e-06 	0.00079821311
0.66292135 	0.0021244522 	0.00023756212 	4.8052743e-08 	0.0013544591 	-3.3106677e-07 	0.00051697137
0.6741573 	0.0021569809 	0.00035808614 	1.0781002e-06 	0.0013596969 	-1.4999388e-07 	0.0008020326
0.68539326 	0.00220329 	0.00047414097 	3.6668574e-07 	0.0013814043 	7.2840705e-08 	0.0008187938
0.69662921 	0.0022642032 	0.00058336945 	4.225563e-07 	0.0014238067 	8.3939174e-08 	0.0008136888
0.70786517 	0.0023369544 	0.00068518716 	5.668294e-07 	0.0014831807 	3.7619138e-07 	0.00084450307
0.71910112 	0.002416761 	0.00077552097 	3.9674696e-07 	0.0015590214 	2.6331165e-07 	0.00083391794
0.73033708 	0.0025089096 	0.00086380642 	3.5914225e-07 	0.0016489654 	4.8305261e-07 	0.00087738977
0.74157303 	0.0026058683 	0.00093679679 	4.2609716e-07 	0.0017544646 	5.7310813e-07 	0.00086110268
0.75280899 	0.002713744 	0.0010072007 	3.1557063e-07 	0.0018724516 	6.1801964e-07 	0.00090902271
0.76404494 	0.0028303762 	0.0010741723 	2.4125636e-07 	0.0020020504 	4.7248114e-07 	0.00088705791
0.7752809 	0.0029575416 	0.0011413072 	6.4800646e-07 	0.0021417657 	1.397325e-06 	0.00093333518
0.78651685 	0.00309188 	0.0012113369 	-3.2676801e-08 	0.0022882822 	-1.3639594e-07 	0.00066182848
0.79775281 	0.0032378238 	0.0012859229 	1.3648833e-06 	0.0024470985 	2.9970884e-06 	0.00094663509
0.80898876 	0.0033888156 	0.0013619863 	-3.5907197e-08 	0.0026096138 	-1.8852419e-07 	0.00056357721
0.82022472 	0.0035493431 	0.001443112 	5.1335524e-07 	0.0027839766 	1.141301e-06 	0.00094627238
0.83146067 	0.0037157416 	0.0015260575 	1.0825165e-06 	0.0029636237 	2.4277364e-06 	0.00097328805
0.84269663 	0.0038867221 	0.0016107876 	-8.3027334e-09 	0.0031473862 	-7.8236585e-08 	0.00076174283
0.85393258 	0.0040622348 	0.0016985276 	1.2633175e-07 	0.0033391855 	2.8626343e-07 	0.00094508127
0.86516854 	0.0042396138 	0.0017877293 	9.4013458e-07 	0.0035369462 	2.1731467e-06 	0.00095081419
0.87640449 	0.0044166546 	0.0018759919 	1.0617478e-06 	0.0037398442 	2.7261824e-06 	0.00094709993
0.88764045 	0.0045923196 	0.001956056 	5.0048361e-07 	0.0039468125 	1.6208498e-06 	0.0009347879
0.8988764 	0.0047657313 	0.0020283296 	2.7048043e-07 	0.0041580133 	1.0355143e-06 	0.00091365059
0.91011236 	0.0049360396 	0.0020962211 	2.3704371e-07 	0.0043733811 	9.3833281e-07 	0.00088388873
0.92134831 	0.0051026787 	0.0021633632 	3.2485882e-07 	0.0045901166 	1.3050783e-06 	0.0008464341
0.93258427 	0.0052634476 	0.0022301591 	5.2332213e-07 	0.0048063005 	2.0533525e-06 	0.00080146896
0.94382022 	0.0054155522 	0.0022952254 	3.0751131e-07 	0.0050171937 	1.2889278e-06 	0.00075004277
0.95505618 	0.0055494032 	0.0023581651 	2.2521092e-08 	0.0052206418 	-1.8077122e-08 	0.00030192023
0.96629213 	0.0056374703 	0.0023931404 	-1.2275039e-08 	0.0053818668 	3.5278615e-07 	0.00063536522
0.97752809 	0.0056043691 	0.0023885465 	-4.7005384e-07 	0.0054394135 	-7.7937608e-07 	0.00055868357
0.98876404 	0.0048553448 	0.0021041493 	-3.0487892e-06 	0.004780182 	-7.1624493e-06 	0.00042109166
