0.47777778 	0.84191658 	-0.00061848279 	-3.0256762e-09
0.48888889 	1.1007314 	5.4718843e-05 	-1.8047011e-08
0.5 	1.1958269 	0.00011004649 	-3.2123662e-08
0.51111111 	1.2536289 	0.00018778141 	-3.8662382e-08
0.52222222 	1.294199 	0.00024391785 	-1.164232e-07
0.53333333 	1.3251228 	0.00030600284 	-2.254437e-08
0.54444444 	1.3492325 	0.00037626694 	-2.0870094e-08
0.55555556 	1.3682673 	0.00042815404 	-7.9098541e-08
0.56666667 	1.3834524 	0.00047593132 	-9.7200692e-08
0.57777778 	1.3955481 	0.00051403334 	-7.3092719e-08
0.58888889 	1.4051561 	0.00054591377 	-6.4891922e-09
0.6 	1.4125545 	0.00056911351 	-3.5186314e-08
0.61111111 	1.4181758 	0.00058313833 	-1.6384709e-07
0.62222222 	1.422465 	0.0005916787 	-2.6411598e-07
0.63333333 	1.4256509 	0.00059610389 	-7.689759e-08
0.64444444 	1.4278078 	0.00059476242 	-5.7890463e-08
0.65555556 	1.4290252 	0.00058747149 	-2.3712181e-07
0.66666667 	1.4297073 	0.00057845469 	-4.3985536e-08
0.67777778 	1.4295833 	0.00056392045 	-1.0139047e-07
0.68888889 	1.4289018 	0.00054695398 	-1.0644385e-07
0.7 	1.4278133 	0.00052849979 	-3.3009222e-08
0.71111111 	1.4259394 	0.0005062843 	-1.0885222e-07
0.72222222 	1.4239361 	0.00048479823 	-1.0675063e-08
0.73333333 	1.4210678 	0.00045989743 	-7.9630394e-08
0.74444444 	1.4180544 	0.00043521011 	-5.9372119e-09
0.75555556 	1.4142856 	0.00041018894 	-5.193534e-08
0.76666667 	1.4101862 	0.00038463328 	-2.5354871e-08
0.77777778 	1.4053857 	0.00036092561 	-3.2697697e-08
0.78888889 	1.4001489 	0.00033736787 	-9.0077464e-10
0.8 	1.3942085 	0.0003159243 	-6.8235221e-09
0.81111111 	1.3876799 	0.00029574641 	3.0659355e-09
0.82222222 	1.3804931 	0.00027704385 	1.7880579e-10
0.83333333 	1.3724061 	0.00026085711 	1.2873966e-08
0.84444444 	1.3634695 	0.00024600623 	1.43794e-08
0.85555556 	1.3535764 	0.00023271658 	1.3314351e-09
0.86666667 	1.3424548 	0.00022092421 	5.9194363e-09
0.87777778 	1.3300135 	0.00021018828 	1.6112173e-08
0.88888889 	1.316065 	0.00019955683 	2.1955914e-08
0.9 	1.3002693 	0.0001887458 	2.1967635e-08
0.91111111 	1.2822261 	0.00017754986 	1.8627488e-08
0.92222222 	1.2613731 	0.00016227355 	1.2900901e-08
0.93333333 	1.2369097 	0.00015335427 	5.4400616e-09
0.94444444 	1.2076358 	0.00011392403 	-3.3711277e-09
0.95555556 	1.1706886 	0.00012678219 	2.495948e-10
0.96666667 	1.1213431 	6.7327687e-05 	-1.0408465e-10
0.97777778 	1.0455514 	6.0339613e-05 	-1.8100184e-09
0.98888889 	0.8821446 	0.00015783007 	-1.320636e-09
