0.4742268 	0.0012979073 	-0.00047790669 	1.0459161e-08 	0.0012920981 	-2.4854766e-08 	0.00038055622
0.48453608 	0.0058598026 	-0.0025530108 	6.0639381e-09 	0.0058363521 	-1.0190286e-08 	0.0020080968
0.49484536 	0.0055355359 	-0.0024329007 	1.0468015e-06 	0.0055052144 	-2.7951424e-06 	0.0023871211
0.50515464 	0.0048712156 	-0.0021817316 	-1.1319146e-08 	0.0048268304 	3.6550802e-08 	0.0018822189
0.51546392 	0.0042109019 	-0.0019158579 	4.7270883e-07 	0.0041607981 	-1.0733942e-06 	0.0017607203
0.5257732 	0.00359772 	-0.0016358284 	2.7719893e-06 	0.0035433081 	-5.6886255e-06 	0.0015502153
0.53608247 	0.0031007425 	-0.0013680129 	8.9691916e-07 	0.0030483901 	-1.5798521e-06 	0.0013614069
0.54639175 	0.002734349 	-0.0011243241 	-3.6802138e-09 	0.0026842009 	4.6574325e-09 	0.0011880182
0.55670103 	0.0024816781 	-0.00090937803 	-1.3621523e-08 	0.0024395899 	1.1412672e-08 	0.0010265765
0.56701031 	0.0023169888 	-0.00071934563 	4.2240513e-07 	0.0022836266 	-3.8220171e-07 	0.0010038905
0.57731959 	0.002213841 	-0.00055212778 	1.3691984e-06 	0.002190692 	-9.2029482e-07 	0.00094992771
0.58762887 	0.0021510653 	-0.00040412116 	1.9164647e-06 	0.0021390098 	-9.372495e-07 	0.0009185006
0.59793814 	0.0021153045 	-0.00027183201 	2.4495367e-07 	0.0021141087 	-8.6045964e-08 	0.00090386806
0.60824742 	0.002100512 	-0.0001533585 	-1.905916e-07 	0.0021078861 	-1.0013079e-07 	2.7730041e-05
0.6185567 	0.0020978645 	-4.8712187e-05 	4.7405768e-07 	0.0021161569 	-1.1941812e-07 	0.00090140867
0.62886598 	0.0021038717 	4.7161337e-05 	1.0329622e-06 	0.0021306657 	-1.9493056e-07 	0.00090749172
0.63917526 	0.0021154436 	0.00013580769 	-1.2880253e-07 	0.0021487152 	-1.2661664e-07 	0.00019490858
0.64948454 	0.0021301946 	0.00021501306 	6.5948427e-07 	0.002171765 	-1.0680021e-07 	0.00091929305
0.65979381 	0.0021470876 	0.00028919692 	1.9821069e-07 	0.0021949562 	-3.4346287e-08 	0.00093447405
0.67010309 	0.0021649799 	0.00035717897 	-2.6898351e-08 	0.0022179666 	-3.6341843e-08 	0.00073515425
0.68041237 	0.0021831709 	0.00041964794 	7.0703483e-07 	0.0022412439 	-1.5834902e-07 	0.00095136796
0.69072165 	0.0022013213 	0.00047852342 	-6.3140434e-08 	0.0022623606 	-9.6702538e-08 	0.00037925581
0.70103093 	0.0022187862 	0.00053227877 	7.9357355e-07 	0.0022841762 	-2.4779691e-07 	0.00096869086
0.71134021 	0.0022360674 	0.00058362344 	-5.1824328e-08 	0.002302931 	-9.0801617e-08 	0.00035515775
0.72164948 	0.0022525017 	0.00063062404 	6.024009e-07 	0.002322423 	-2.6768684e-07 	0.00098579616
0.73195876 	0.0022685106 	0.0006751523 	-2.0070106e-08 	0.0023390314 	-4.2314633e-08 	0.00063614783
0.74226804 	0.0022847858 	0.00071795336 	3.233982e-07 	0.00235655 	-1.8025228e-07 	0.0010022333
0.75257732 	0.0023006071 	0.00075822572 	-1.5769511e-09 	0.0023722642 	-4.7270457e-09 	0.00094993469
0.7628866 	0.0023177697 	0.00079787162 	1.6105049e-07 	0.0023887871 	-9.4104474e-08 	0.001018036
0.77319588 	0.0023352546 	0.00083614619 	4.2866554e-09 	0.0024049952 	-2.5047638e-09 	0.0010180669
0.78350515 	0.0023550386 	0.00087412239 	1.8705932e-07 	0.0024228325 	-9.7108598e-08 	0.0010342635
0.79381443 	0.0023762328 	0.00091133074 	5.6054023e-09 	0.0024410093 	-6.0897897e-09 	0.00076879182
0.80412371 	0.0024013678 	0.00094960519 	3.7277335e-07 	0.0024635103 	-1.2012305e-07 	0.0010525669
0.81443299 	0.002429485 	0.00098747275 	4.1891833e-08 	0.0024861698 	1.264983e-08 	0.00011164438
0.82474227 	0.0024637132 	0.0010282754 	3.7443079e-07 	0.0025178761 	-7.3992788e-09 	0.0010745539
0.83505155 	0.002503832 	0.0010701722 	1.1166357e-08 	0.0025532806 	3.9028756e-09 	0.0011017936
0.84536082 	0.0025526004 	0.0011143508 	4.2107832e-08 	0.0025957 	4.6690005e-08 	0.00061560379
0.8556701 	0.0026135117 	0.0011631123 	4.4946126e-07 	0.0026512765 	3.2903775e-07 	0.0011362031
0.86597938 	0.0026875894 	0.0012152116 	2.1388301e-07 	0.0027181391 	2.3717627e-07 	0.0011795134
0.87628866 	0.0027785671 	0.0012735228 	1.0351526e-07 	0.0028009911 	1.5820995e-07 	0.00036677969
0.88659794 	0.0028935994 	0.0013405488 	6.7056812e-08 	0.0029094202 	1.1836924e-07 	0.00073030276
0.89690722 	0.0030424808 	0.0014157255 	1.6247932e-07 	0.003047562 	2.9222519e-07 	0.0013013712
0.90721649 	0.003235427 	0.0015021205 	5.0612618e-07 	0.0032237362 	1.0314254e-06 	0.0013868729
0.91752577 	0.0034722321 	0.0016093828 	7.3688777e-07 	0.003448152 	1.5503139e-06 	0.0014896648
0.92783505 	0.003744242 	0.0017352457 	6.2646138e-07 	0.0037185938 	1.3591362e-06 	0.0016024989
0.93814433 	0.004040231 	0.0018689667 	8.8122936e-08 	0.0040200739 	2.0781892e-07 	0.0017169516
0.94845361 	0.0043579066 	0.0019859755 	1.1035095e-07 	0.0043309046 	3.3135316e-07 	0.00026518124
0.95876289 	0.0046854092 	0.0021046694 	1.8713339e-07 	0.0046675645 	6.3019169e-07 	0.0020475621
0.96907216 	0.0049814312 	0.0021918978 	4.7107338e-08 	0.0049621085 	1.5586461e-07 	0.00064282004
0.97938144 	0.0051522219 	0.0022400439 	-1.2978003e-08 	0.0051418148 	5.4929814e-09 	0.0022273147
0.98969072 	0.0045891405 	0.00201263 	-6.1440243e-07 	0.0045671746 	-1.4848309e-06 	0.0020251951
