0.34020619 	0.0028255546 	-0.0010100213 	3.3007008e-07 	0.0021143747 	-4.5483492e-07 	0.0016082882
0.35051546 	0.0033520716 	-0.0011334012 	-2.4552354e-06 	0.0026833772 	6.5085218e-07 	0.00030706286
0.36082474 	0.0026158613 	-0.00048197824 	-1.1558861e-06 	0.002862012 	-3.7937235e-06 	0.00045932853
0.37113402 	0.0024759537 	-0.00018363306 	-8.437171e-11 	0.0033166595 	-4.6042533e-10 	0.0011492214
0.3814433 	0.0023865319 	-3.7880719e-06 	-8.0341118e-08 	0.0036210543 	-5.2267833e-07 	0.00073902258
0.39175258 	0.0022830311 	0.00013081307 	-1.9220288e-07 	0.0037713732 	-1.2422456e-06 	0.0001737575
0.40206186 	0.0021881553 	0.00023041466 	-4.0207166e-08 	0.0037845535 	-5.4852936e-07 	3.6082327e-05
0.41237113 	0.0021071614 	0.00030171401 	5.4677757e-08 	0.0037221646 	-1.6164459e-07 	3.6252279e-05
0.42268041 	0.0020398426 	0.00034923831 	1.3610493e-07 	0.003640635 	-6.024744e-07 	8.9037954e-05
0.43298969 	0.0019843024 	0.00037898819 	2.0682834e-07 	0.0035670882 	-1.861348e-06 	8.1010009e-05
0.44329897 	0.0019380838 	0.00039995806 	1.0955898e-07 	0.0035050647 	-2.9634378e-06 	0.00023097651
0.45360825 	0.0018994526 	0.0004151242 	-8.3320075e-10 	0.0034532878 	-1.3781489e-06 	0.0003718324
0.46391753 	0.0018670657 	0.00042617982 	3.4452666e-07 	0.0034091841 	-1.4052881e-07 	6.3456646e-05
0.4742268 	0.0018417571 	0.00043696232 	-1.3400816e-08 	0.0033799966 	-8.6244197e-07 	0.00062922241
0.48453608 	0.0018194402 	0.00044650963 	-1.2287799e-08 	0.0033536016 	-6.1833734e-07 	0.0007469133
0.49484536 	0.0018003043 	0.00045534491 	5.0571687e-07 	0.0033302473 	-1.8027615e-07 	0.00022119372
0.50515464 	0.0017847137 	0.00046515709 	-2.3308768e-08 	0.003317475 	-1.2456346e-06 	0.00096349313
0.51546392 	0.0017701846 	0.00047367879 	6.3910991e-07 	0.0033006322 	-2.2647371e-07 	0.00023707069
0.5257732 	0.0017585777 	0.00048383693 	-4.87763e-09 	0.0032948513 	-3.5686982e-07 	0.0011579242
0.53608247 	0.001747351 	0.00049245893 	6.4443515e-07 	0.0032827331 	-2.3540038e-07 	0.00038350489
0.54639175 	0.0017383582 	0.0005029564 	-2.1886192e-10 	0.0032806075 	-5.5282715e-08 	0.0013329266
0.55670103 	0.0017293945 	0.00051182754 	8.0697259e-07 	0.003270109 	-3.1418521e-07 	0.00027728327
0.56701031 	0.0017222807 	0.00052301881 	2.8477114e-09 	0.003270728 	-2.2385211e-07 	0.0014911449
0.57731959 	0.0017150624 	0.00053249 	9.9786661e-07 	0.0032600047 	-4.2701801e-07 	6.4873225e-05
0.58762887 	0.00170937 	0.00054441372 	1.516993e-07 	0.0032614037 	-6.4916828e-08 	0.0014043477
0.59793814 	0.0017039659 	0.00055557725 	6.5268494e-07 	0.0032535404 	-3.1447735e-07 	0.00062863728
0.60824742 	0.0016992295 	0.0005676714 	5.810054e-07 	0.0032492502 	-2.7994064e-07 	0.0008051691
0.6185567 	0.0016951926 	0.00058061828 	2.1241205e-07 	0.0032461389 	-1.1702585e-07 	0.0013906294
0.62886598 	0.0016915984 	0.00059332878 	9.392969e-07 	0.0032334793 	-5.1749427e-07 	2.4244824e-05
0.63917526 	0.0016888649 	0.00060774879 	2.2353672e-07 	0.0032316617 	-1.2315485e-07 	0.0013454519
0.64948454 	0.0016869447 	0.00062206153 	3.5064632e-07 	0.0032210813 	-2.2037326e-07 	0.00099971377
0.65979381 	0.0016857233 	0.0006370373 	6.4848004e-07 	0.0032080909 	-4.0755501e-07 	0.00035834155
0.67010309 	0.0016847995 	0.00065360735 	1.898098e-08 	0.0032023971 	-1.1929116e-08 	0.001715563
0.68041237 	0.0016858607 	0.00066940042 	4.1476681e-07 	0.0031849531 	-2.9125067e-07 	0.00069351888
0.69072165 	0.0016874519 	0.00068676002 	3.9580503e-07 	0.0031705167 	-2.7793564e-07 	0.00075445192
0.70103093 	0.0016897506 	0.00070509243 	4.7116125e-08 	0.0031578682 	-3.5417734e-08 	0.0016366525
0.71134021 	0.0016946538 	0.00072248345 	5.3389751e-07 	0.0031354041 	-4.0133691e-07 	0.00012289911
0.72164948 	0.0016997908 	0.00074243172 	9.7318859e-08 	0.0031215602 	-7.3155708e-08 	0.0015223759
0.73195876 	0.0017075075 	0.00076106839 	2.6873667e-07 	0.0031001024 	-2.0161279e-07 	0.00081302441
0.74226804 	0.0017164421 	0.00078065417 	2.4528907e-07 	0.0030804742 	-1.8402183e-07 	0.00093426712
0.75257732 	0.001727005 	0.00080051799 	1.2183575e-07 	0.0030616138 	-8.3029138e-08 	0.0013457564
0.7628866 	0.0017400578 	0.00081972699 	3.0477917e-07 	0.0030392073 	-2.0770218e-07 	0.00053040943
0.77319588 	0.0017541945 	0.00084019464 	5.717363e-08 	0.0030226497 	-3.1005572e-08 	0.0016752862
0.78350515 	0.0017717296 	0.00085924546 	3.0539298e-07 	0.0030005925 	-1.6561629e-07 	0.00036176503
0.79381443 	0.0017902075 	0.00087983959 	5.084021e-08 	0.0029866905 	-1.6538588e-08 	0.0017509201
0.80412371 	0.0018120633 	0.00089887776 	2.5680175e-07 	0.0029683082 	-8.3538964e-08 	0.00048512216
0.81443299 	0.001834941 	0.00091900615 	8.4844861e-08 	0.0029578822 	1.9202975e-09 	0.001515603
0.82474227 	0.0018599441 	0.00093783769 	1.6068504e-07 	0.0029470879 	3.6367918e-09 	0.0009649509
0.83505155 	0.0018863592 	0.00095673828 	1.2934582e-07 	0.0029404323 	6.5353879e-08 	0.00090387116
0.84536082 	0.0019144368 	0.00097625152 	3.3315084e-08 	0.0029394353 	1.6832937e-08 	0.0018747133
0.8556701 	0.0019479551 	0.00099138437 	1.1458477e-07 	0.0029305487 	1.1518519e-07 	0.00018460381
0.86597938 	0.0019848498 	0.0010076463 	1.913568e-08 	0.0029300607 	3.7752156e-08 	0.0013727021
0.87628866 	0.002026102 	0.0010219505 	6.3548026e-09 	0.002927226 	1.2537182e-08 	0.0019244319
0.88659794 	0.0020705979 	0.0010333324 	1.269727e-08 	0.0029188968 	6.1628388e-08 	0.00062951003
0.89690722 	0.0021174727 	0.0010440513 	-1.2268293e-08 	0.00291323 	4.1186151e-08 	0.00051365122
0.90721649 	0.0021667984 	0.0010539164 	-1.3898787e-08 	0.0029088871 	4.0135887e-09 	0.0014462891
0.91752577 	0.0022182512 	0.0010623701 	-8.1279926e-10 	0.0029011856 	-1.0181043e-08 	0.0021571185
0.92783505 	0.0022726828 	0.0010700615 	-1.1278334e-08 	0.002884762 	-1.313026e-07 	0.0021433182
0.93814433 	0.0023286729 	0.0010771698 	-2.8046368e-09 	0.002864336 	-8.6910055e-08 	0.0021227254
0.94845361 	0.0023872488 	0.0010902823 	-1.2451294e-08 	0.0028375014 	-2.1103344e-07 	0.0020971975
0.95876289 	0.0024525461 	0.0010989687 	4.5187145e-08 	0.0027964381 	-1.5593331e-08 	0.00075413215
0.96907216 	0.0025276053 	0.001126529 	9.6066339e-08 	0.0027632772 	7.9591254e-08 	0.0012385495
0.97938144 	0.0026190911 	0.0011720652 	1.4470936e-07 	0.0027361334 	1.9978718e-07 	0.0013742733
0.98969072 	0.0023609317 	0.0010717661 	3.2647257e-07 	0.0023868223 	6.6777338e-07 	0.00080767088
