0 	0.7989684 	-5.4261898e-14 	-2.1146401e-20
0.010869565 	0.79940906 	-0.00038676407 	6.8278848e-08
0.02173913 	0.80065909 	-0.00076481971 	1.9989605e-08
0.032608696 	0.80272885 	-0.0011407903 	1.2169496e-08
0.043478261 	0.80560113 	-0.0015113815 	4.3011133e-08
0.054347826 	0.80926983 	-0.0018765666 	3.0898589e-07
0.065217391 	0.81406806 	-0.0022586255 	7.5590107e-07
0.076086957 	0.81875731 	-0.0025690333 	5.459212e-07
0.086956522 	0.82436987 	-0.0028924485 	1.340617e-07
0.097826087 	0.83077368 	-0.0032099868 	2.5164242e-07
0.10869565 	0.83793148 	-0.0035149442 	1.5983394e-06
0.11956522 	0.84511512 	-0.003794495 	2.2544723e-07
0.13043478 	0.85319731 	-0.0040642784 	7.0766052e-07
0.14130435 	0.86178663 	-0.0043146693 	1.5647685e-06
0.15217391 	0.87031375 	-0.0045468124 	8.5948014e-08
0.16304348 	0.88009173 	-0.004757662 	2.4894736e-06
0.17391304 	0.88915231 	-0.00495137 	3.719048e-08
0.18478261 	0.89974516 	-0.0051184494 	2.5421272e-06
0.19565217 	0.90946506 	-0.0052751549 	8.8870706e-08
0.20652174 	0.92074731 	-0.0053874615 	2.6849229e-06
0.2173913 	0.93096413 	-0.005496366 	6.2334837e-08
0.22826087 	0.94269536 	-0.0055736901 	2.2246247e-06
0.23913043 	0.95360831 	-0.005648311 	6.2245701e-07
0.25 	0.96532953 	-0.0056657368 	1.072818e-06
0.26086957 	0.97706496 	-0.0056539631 	1.3139053e-06
0.27173913 	0.98846324 	-0.0056406523 	3.7981397e-07
0.2826087 	1.0008759 	-0.0056012148 	1.807686e-06
0.29347826 	1.01223 	-0.0055719442 	3.3848206e-07
0.30434783 	1.0241517 	-0.0055051451 	4.6296823e-07
0.31521739 	1.0362769 	-0.005407071 	1.618094e-06
0.32608696 	1.0474941 	-0.0053195526 	1.0569118e-06
0.33695652 	1.0591202 	-0.0051395223 	3.6155167e-07
0.34782609 	1.0705296 	-0.0049267225 	8.6530515e-07
0.35869565 	1.0811118 	-0.0047340088 	2.0125671e-06
0.36956522 	1.0913402 	-0.0045457123 	9.7886019e-08
0.38043478 	1.1010933 	-0.0043709191 	4.206579e-07
0.39130435 	1.110081 	-0.0042132509 	9.256176e-09
0.40217391 	1.1182353 	-0.0040300249 	1.4421547e-06
0.41304348 	1.1255659 	-0.0038217691 	4.2376787e-07
0.42391304 	1.1322981 	-0.0036274331 	1.814796e-07
0.43478261 	1.1382145 	-0.0034385471 	7.6202435e-06
0.44565217 	1.1433271 	-0.0032505848 	1.1978591e-07
0.45652174 	1.1475682 	-0.0030671421 	3.8179351e-07
0.4673913 	1.1515073 	-0.0028984647 	1.107707e-08
0.47826087 	1.1542645 	-0.0027292505 	5.0981072e-06
0.48913043 	1.1564006 	-0.0025599902 	1.6295224e-07
0.5 	1.1578627 	-0.0023927323 	2.8979885e-07
0.51086957 	1.1591299 	-0.0022287675 	1.58901e-06
0.52173913 	1.1595305 	-0.0020592285 	3.8456486e-06
0.5326087 	1.1593243 	-0.0018856222 	2.0775083e-07
0.54347826 	1.1586451 	-0.0017067308 	2.2772499e-07
0.55434783 	1.1576445 	-0.0015315268 	3.7011247e-06
0.56521739 	1.1562086 	-0.001365176 	1.1344284e-06
0.57608696 	1.154104 	-0.0012135037 	2.6883258e-07
0.58695652 	1.1518167 	-0.0010598509 	3.1764589e-08
0.59782609 	1.149015 	-0.00091165489 	4.0979761e-06
0.60869565 	1.1459242 	-0.00076784578 	9.7724459e-08
0.61956522 	1.142421 	-0.00062664366 	9.648562e-08
0.63043478 	1.138564 	-0.00048539351 	4.1150888e-06
0.64130435 	1.1344479 	-0.00034727728 	2.8503271e-08
0.65217391 	1.1298939 	-0.00021270281 	7.090706e-08
0.66304348 	1.1249987 	-7.8158405e-05 	3.2271623e-06
0.67391304 	1.1198635 	5.0869816e-05 	7.4879295e-09
0.68478261 	1.1143273 	0.00017421827 	1.3371353e-08
0.69565217 	1.1084179 	0.00029542745 	2.9198079e-06
0.70652174 	1.1022894 	0.00040897898 	-3.2188736e-08
0.7173913 	1.0957653 	0.00051982152 	-1.320349e-09
0.72826087 	1.0888637 	0.00062322098 	8.5196374e-07
0.73913043 	1.0817363 	0.00071713944 	-1.184954e-07
0.75 	1.074107 	0.00080820053 	1.5427427e-06
0.76086957 	1.0663006 	0.00088754589 	-1.2518993e-07
0.77173913 	1.0580402 	0.00095965319 	2.8907382e-07
0.7826087 	1.0494852 	0.0010216662 	-4.0259799e-08
0.79347826 	1.0405841 	0.0010725155 	-2.996157e-08
0.80434783 	1.0312848 	0.0011137706 	4.379016e-08
0.81521739 	1.0216929 	0.0011412232 	-6.7877727e-08
0.82608696 	1.0116587 	0.0011590825 	1.1518131e-09
0.83695652 	1.0013105 	0.001162674 	-8.322987e-09
0.84782609 	0.99052687 	0.0011522921 	-1.1406299e-07
0.85869565 	0.97929158 	0.0011276979 	-4.1894483e-07
0.86956522 	0.96773724 	0.0010921792 	-3.871431e-07
0.88043478 	0.95541503 	0.0010411905 	-6.3870206e-07
0.89130435 	0.9426742 	0.00096817979 	-1.1721054e-08
0.90217391 	0.92915842 	0.00089679483 	-2.954775e-07
0.91304348 	0.91456091 	0.00081344914 	-5.2550698e-07
0.92391304 	0.89900548 	0.00069546922 	-9.8238072e-07
0.93478261 	0.88184891 	0.00058022473 	-6.3315372e-08
0.94565217 	0.86049944 	0.00047045838 	-9.3096326e-07
0.95652174 	0.835204 	0.00034207715 	-1.465718e-07
0.9673913 	0.80019205 	0.0002239415 	-7.4469199e-08
0.97826087 	0.74274544 	0.00015056702 	-5.2257615e-08
0.98913043 	0.59889104 	0.00027535124 	-1.2841519e-08
