0.4 	1.5617444e-05 	-9.8066859e-07 	1.641516e-09 	1.6267208e-05 	-9.9779337e-09 	1.1419646e-06
0.41111111 	0.0042486151 	-0.0020742741 	-1.7767054e-07 	0.0053918256 	1.5884932e-06 	0.00076546519
0.42222222 	0.0045261829 	-0.0021780372 	1.5457685e-07 	0.005402522 	-6.8931556e-07 	0.0031809858
0.43333333 	0.0043650129 	-0.0020482686 	-8.6080547e-07 	0.0048847287 	1.6763951e-06 	0.00090113125
0.44444444 	0.0041746878 	-0.0019147071 	-3.5422038e-07 	0.004398829 	4.0545397e-07 	0.0025468376
0.45555556 	0.0039918378 	-0.0017714849 	-1.5610678e-06 	0.0039467665 	1.2448291e-06 	2.177238e-05
0.46666667 	0.0038146488 	-0.0016324531 	-1.0675223e-06 	0.0035416032 	5.6889492e-07 	0.0013111089
0.47777778 	0.0036411121 	-0.0015011628 	-8.97153e-07 	0.0031738059 	3.1118787e-07 	0.0018070751
0.48888889 	0.0034708632 	-0.0013790284 	-1.0543919e-06 	0.002838457 	2.4677718e-07 	0.0016878328
0.5 	0.0033052464 	-0.0012624259 	-1.4614115e-06 	0.0025332953 	2.853418e-07 	0.0011165202
0.51111111 	0.0031463141 	-0.0011470585 	-1.9757539e-06 	0.0022586722 	4.3846074e-07 	0.00023656301
0.52222222 	0.0030004934 	-0.0010388159 	-1.4099979e-06 	0.002006566 	4.2406929e-07 	0.00096993424
0.53333333 	0.0028687094 	-0.00094377541 	-4.8070595e-07 	0.0017725465 	1.9827602e-07 	0.0023186844
0.54444444 	0.0027484746 	-0.00083673634 	-4.5601498e-07 	0.0015785443 	1.8809177e-07 	0.0022076361
0.55555556 	0.0026413875 	-0.00072210677 	-1.3805266e-06 	0.0014271075 	7.2366566e-07 	0.00047890435
0.56666667 	0.0025576089 	-0.00062483878 	-7.9275142e-07 	0.0012783987 	4.7551875e-07 	0.0013505435
0.57777778 	0.002489116 	-0.00052848549 	-2.6359605e-07 	0.0011558362 	1.5811371e-07 	0.0020510234
0.58888889 	0.0024377541 	-0.00043096546 	-1.6543348e-06 	0.0010729252 	9.5736352e-07 	0.00010488561
0.6 	0.0024075795 	-0.00033849239 	-2.9672088e-07 	0.0009851015 	1.3290023e-07 	0.0019658846
0.61111111 	0.0023953511 	-0.00023294941 	-1.2789571e-06 	0.00093444578 	5.7284038e-07 	0.00083904204
0.62222222 	0.0023968458 	-0.00012111198 	-9.3250612e-07 	0.00089575481 	1.9014737e-07 	0.0013475244
0.63333333 	0.0024109767 	2.8828814e-06 	-1.1047577e-06 	0.00088405624 	2.252712e-07 	0.0011652447
0.64444444 	0.0024333919 	0.00012194365 	-1.0933265e-06 	0.00089849201 	-1.1864939e-07 	0.0011545766
0.65555556 	0.0024636528 	0.00023743877 	-1.0816828e-06 	0.00093669939 	-1.1738579e-07 	0.0011641582
0.66666667 	0.0025054014 	0.00033875186 	-7.578249e-07 	0.00098963278 	-3.2711176e-07 	0.0013110838
0.67777778 	0.0025589768 	0.00042498707 	-1.1598613e-06 	0.001058183 	-5.0064897e-07 	0.00089120364
0.68888889 	0.0026208304 	0.00050689821 	-2.9599914e-07 	0.0011305421 	-2.1722589e-07 	0.001798652
0.7 	0.0027005643 	0.00057823032 	-1.3070658e-06 	0.0012167205 	-9.5922084e-07 	0.0003711634
0.71111111 	0.0027860905 	0.00065261123 	1.0395849e-07 	0.0013052023 	1.3383661e-07 	0.0023752632
0.72222222 	0.0028839331 	0.00072278657 	-1.1905582e-06 	0.0014080546 	-1.204382e-06 	0.0002033713
0.73333333 	0.0029945539 	0.00080008018 	-1.2615084e-07 	0.0015196381 	-1.2761559e-07 	0.0023382366
0.74444444 	0.003109013 	0.00087481725 	-8.8722205e-07 	0.001640525 	-1.1351813e-06 	0.00050328445
0.75555556 	0.0032367596 	0.0009557238 	-1.7884869e-07 	0.0017724521 	-2.28833e-07 	0.0023850424
0.76666667 	0.003365322 	0.0010347478 	-7.6293464e-07 	0.0019104031 	-1.1841858e-06 	0.00047630467
0.77777778 	0.0035085218 	0.0011203404 	-7.9139893e-08 	0.0020617244 	-1.2283665e-07 	0.0028666681
0.78888889 	0.0036472792 	0.0012027101 	-7.3035191e-07 	0.0022149264 	-1.3449799e-06 	2.5799568e-05
0.8 	0.0038032521 	0.0012929209 	-8.4117289e-08 	0.0023848539 	-1.8207395e-07 	0.0028016816
0.81111111 	0.003954572 	0.0013804841 	-3.4977606e-07 	0.0025557227 	-7.5709895e-07 	0.0013076711
0.82222222 	0.0041126028 	0.0014712802 	-2.4842631e-07 	0.0027358042 	-6.3412413e-07 	0.0014106527
0.83333333 	0.0042775415 	0.0015652211 	-5.226975e-09 	0.0029262629 	-1.334219e-08 	0.0035244883
0.84444444 	0.0044340325 	0.0016561289 	-2.0990204e-07 	0.0031146786 	-6.4416372e-07 	0.0011189425
0.85555556 	0.0045968603 	0.0017500138 	-1.3320929e-07 	0.0033122849 	-5.1635551e-07 	0.0012065014
0.86666667 	0.0047632316 	0.0018460283 	-1.2032095e-08 	0.0035183037 	-6.7175952e-08 	0.0033714346
0.87777778 	0.0049231387 	0.0019409204 	-8.378039e-09 	0.0037270789 	-4.6775125e-08 	0.0035866523
0.88888889 	0.0050751846 	0.0020335771 	-1.8773421e-08 	0.003939114 	-2.1510731e-07 	0.0022021907
0.9 	0.0052222422 	0.0021121659 	2.6592894e-08 	0.0041572036 	-2.4803454e-07 	0.0011765214
0.91111111 	0.0053661383 	0.0021864179 	1.1165373e-07 	0.004381953 	-1.8211121e-07 	0.00065060171
0.92222222 	0.0055059614 	0.0022602731 	1.734537e-07 	0.0046143104 	-7.0763533e-08 	0.00077976763
0.93333333 	0.0056409491 	0.0023326348 	1.5914071e-07 	0.0048475592 	2.0910726e-08 	0.0017333231
0.94444444 	0.0057627832 	0.002398735 	3.5990059e-08 	0.0050816508 	1.6999729e-08 	0.0036886773
0.95555556 	0.0058519976 	0.0024567603 	3.8900328e-09 	0.0052951254 	7.3752451e-08 	0.004164374
0.96666667 	0.0058640401 	0.0024647454 	-8.3955183e-08 	0.0054445152 	5.0946006e-08 	0.0041281797
0.97777778 	0.0056617161 	0.0023861111 	-2.9078213e-08 	0.0053975384 	-7.7808406e-08 	0.00072361357
0.98888889 	0.0045094401 	0.0019317463 	-3.3950177e-07 	0.0044114215 	-6.2419392e-07 	0.00066543548
