0 	0.0030190715 	-2.0505055e-16 	-5.3699045e-22 	1.4930234e-18 	6.5186808e-20 	2.8461175e-21
0.010869565 	0.0030273811 	-0.00013585908 	2.3408317e-08 	0.0033906788 	-8.0928907e-06 	0.0014919007
0.02173913 	0.003062562 	-0.00026936664 	4.1623877e-09 	0.00342561 	-6.4943903e-06 	0.001655909
0.032608696 	0.003119851 	-0.0004029795 	2.11218e-09 	0.0034819545 	-1.8489311e-06 	0.0018259013
0.043478261 	0.0031973913 	-0.00053573521 	7.9627014e-09 	0.0035579409 	-2.7045323e-06 	0.0020170078
0.054347826 	0.0032933924 	-0.00066797738 	7.4544184e-08 	0.0036496365 	-1.4882271e-07 	0.0012291366
0.065217391 	0.0034137802 	-0.00080825343 	1.84756e-07 	0.0037634582 	-3.5184574e-07 	0.00031611343
0.076086957 	0.0035248051 	-0.00092408372 	1.3566036e-07 	0.0038717148 	-2.4972632e-07 	0.0012801869
0.086956522 	0.003651087 	-0.001046078 	3.1603922e-08 	0.0039957002 	-1.2384636e-06 	0.0028585211
0.097826087 	0.0037859797 	-0.0011660655 	6.3590826e-08 	0.0041232033 	-1.1475968e-07 	0.0025581937
0.10869565 	0.0039245497 	-0.0012825262 	4.1045659e-07 	0.0042482469 	-7.3166674e-07 	5.2934853e-05
0.11956522 	0.0040541367 	-0.0013901298 	5.8806119e-08 	0.0043742684 	-1.036047e-07 	0.0031391899
0.13043478 	0.0041852269 	-0.0014946516 	1.8458763e-07 	0.0044923966 	-3.2520673e-07 	0.0024670523
0.14130435 	0.0043084419 	-0.0015922817 	4.1439988e-07 	0.004599732 	-7.1905662e-07 	0.0011650964
0.15217391 	0.0044218108 	-0.0016832282 	2.2761735e-08 	0.0047049441 	-3.949561e-08 	0.0041454307
0.16304348 	0.0045244111 	-0.0017661351 	6.6833664e-07 	0.0047827646 	-1.1330942e-06 	4.8885835e-05
0.17391304 	0.0046146348 	-0.0018425569 	1.2881591e-08 	0.0048659829 	-7.0212486e-08 	0.0047187998
0.18478261 	0.0046853443 	-0.0019069066 	6.8672583e-07 	0.0049080744 	-1.1262849e-06 	0.00044377233
0.19565217 	0.0047478146 	-0.0019674426 	2.4159296e-08 	0.00496005 	-3.793881e-08 	0.0048071184
0.20652174 	0.004779301 	-0.0020112023 	7.2989012e-07 	0.0049615494 	-1.1461908e-06 	0.00015991964
0.2173913 	0.0048076684 	-0.0020538193 	1.6945581e-08 	0.0049792305 	-2.6610675e-08 	0.0046421881
0.22826087 	0.0047963684 	-0.0020756494 	5.7927008e-07 	0.0049365357 	-8.4315398e-07 	0.00081831632
0.23913043 	0.0047825038 	-0.0020965357 	1.620816e-07 	0.0049050331 	-2.3591715e-07 	0.0034121634
0.25 	0.0047338493 	-0.0020981176 	2.8463607e-07 	0.0048321878 	-3.7855972e-07 	0.0023235682
0.26086957 	0.0046676074 	-0.0020900156 	3.4860046e-07 	0.0047437128 	-4.6363095e-07 	0.0016942332
0.27173913 	0.0045925745 	-0.0020780718 	1.5852052e-07 	0.0046536169 	-4.5117069e-07 	0.0039977858
0.2826087 	0.0044675125 	-0.002040624 	4.6806768e-07 	0.0045037882 	-5.1602238e-07 	0.00032452862
0.29347826 	0.0043526812 	-0.0020085077 	8.7643824e-08 	0.0043778341 	-9.6623153e-08 	0.0029205034
0.30434783 	0.0042051962 	-0.0019575584 	9.7919284e-08 	0.0042104685 	-5.8648813e-08 	0.0026605439
0.31521739 	0.0040339724 	-0.0018920131 	3.4223214e-07 	0.0040135973 	-2.0498015e-07 	0.00050938531
0.32608696 	0.0038744747 	-0.0018318965 	4.5422897e-07 	0.0038390663 	-1.0377958e-06 	0.0029438221
0.33695652 	0.003680322 	-0.001740948 	7.2580988e-08 	0.0036294498 	1.2547741e-08 	0.0019808765
0.34782609 	0.0034762481 	-0.0016391431 	1.7370879e-07 	0.0034125547 	3.003063e-08 	0.00055591693
0.35869565 	0.0032858846 	-0.0015440276 	9.3441785e-07 	0.003216315 	-1.789861e-06 	0.0023260436
0.36956522 	0.0030879688 	-0.0014310858 	9.3729748e-09 	0.0030134294 	2.7536037e-08 	0.0018238662
0.38043478 	0.002889224 	-0.0013095171 	4.0279664e-08 	0.0028104746 	1.1833408e-07 	0.00021302639
0.39130435 	0.0027064715 	-0.0011991576 	8.863155e-10 	0.0026292134 	2.6038282e-09 	0.0017408618
0.40217391 	0.0025403836 	-0.0010864592 	7.017111e-07 	0.0024624583 	-1.1538114e-06 	0.0017477727
0.41304348 	0.0023893618 	-0.00097249144 	-5.6576667e-09 	0.0023081842 	6.6772191e-08 	0.00035613555
0.42391304 	0.0022504641 	-0.0008669878 	-2.4229093e-09 	0.0021696152 	2.859535e-08 	0.0008976068
0.43478261 	0.0021303296 	-0.00076505727 	3.3360117e-06 	0.0020497422 	-4.4955719e-06 	0.0013500653
0.44565217 	0.0020283935 	-0.00066424095 	5.3658166e-09 	0.0019466836 	1.5376274e-09 	0.00097982515
0.45652174 	0.0019450868 	-0.00056590374 	1.7102462e-08 	0.0018615975 	4.9008784e-09 	0.00016501289
0.4673913 	0.0018676422 	-0.00047507461 	4.9619794e-10 	0.0017855507 	1.421904e-10 	0.0010803608
0.47826087 	0.0018177075 	-0.00038461731 	2.1842358e-06 	0.0017338432 	-2.0114828e-06 	0.0010953877
0.48913043 	0.0017816525 	-0.00029404966 	2.0419353e-08 	0.0016943687 	-1.1146723e-08 	0.00064611235
0.5 	0.0017604818 	-0.00020421924 	3.6314351e-08 	0.0016691203 	-1.9823646e-08 	0.0002796025
0.51086957 	0.0017436475 	-0.0001163212 	6.5995419e-07 	0.001650273 	-2.5915716e-07 	0.0010070251
0.52173913 	0.0017476539 	-2.8716035e-05 	1.5971907e-06 	0.0016508197 	-6.2720022e-07 	0.0009977084
0.5326087 	0.0017660857 	5.8899648e-05 	3.3285265e-08 	0.0016648677 	-1.8883573e-10 	0.0004868779
0.54347826 	0.0017959199 	0.00014796499 	3.648547e-08 	0.0016911421 	-2.069913e-10 	0.00045515354
0.55434783 	0.0018336959 	0.00023785217 	1.5791865e-06 	0.0017267729 	2.1151522e-07 	0.001029293
0.56521739 	0.001881988 	0.00032649388 	4.8403503e-07 	0.001772367 	6.4831339e-08 	0.0010218066
0.57608696 	0.0019466719 	0.00041328137 	5.3081876e-08 	0.0018337032 	4.1322894e-08 	0.00015115283
0.58695652 	0.0020161681 	0.00050309724 	6.2720224e-09 	0.0019031578 	4.8826104e-09 	0.0010208117
0.59782609 	0.0020968082 	0.00059031704 	1.9005582e-06 	0.0019824791 	1.0971663e-06 	0.0011293578
0.60869565 	0.0021838651 	0.00067557016 	1.8900825e-08 	0.0020672233 	3.8129083e-08 	0.00062666324
0.61956522 	0.0022804769 	0.00076067188 	1.8661222e-08 	0.0021627845 	3.7645726e-08 	0.00072175189
0.63043478 	0.0023830336 	0.00084518774 	1.8974061e-06 	0.0022656509 	1.8187314e-06 	0.0012804907
0.64130435 	0.0024892814 	0.00092684793 	2.7482763e-09 	0.0023711441 	2.334167e-08 	0.0009851595
0.65217391 	0.0026027224 	0.0010057677 	6.836836e-09 	0.0024845432 	5.8066642e-08 	0.00062911735
0.66304348 	0.0027207114 	0.0010848376 	1.4319733e-06 	0.0026052798 	1.8981527e-06 	0.0014515896
0.67391304 	0.0028399768 	0.0011600046 	-6.254651e-09 	0.0027257925 	2.3426776e-08 	0.0010881081
0.68478261 	0.0029631777 	0.0012318518 	-1.1169062e-08 	0.0028516002 	4.1833685e-08 	0.00090660912
0.69565217 	0.0030888777 	0.0013021738 	1.2267665e-06 	0.0029822308 	2.1172952e-06 	0.001627482
0.70652174 	0.0032129404 	0.0013670077 	-3.4781214e-08 	0.0031088312 	3.3451955e-08 	0.00073767238
0.7173913 	0.0033397997 	0.0014304866 	-1.4266898e-09 	0.0032425436 	1.372165e-09 	0.0017595027
0.72826087 	0.0034635333 	0.0014886281 	3.2498379e-07 	0.0033720826 	7.1750204e-07 	0.0017966884
0.73913043 	0.0035822119 	0.0015405719 	-8.1412652e-08 	0.0034944364 	6.1209791e-09 	0.00035204964
0.75 	0.0037012337 	0.0015916685 	5.0752006e-07 	0.003623599 	1.4693335e-06 	0.001951664
0.76086957 	0.003811945 	0.0016355665 	-7.3344721e-08 	0.0037397697 	-3.3722721e-08 	0.00085611474
0.77173913 	0.003918658 	0.0016762729 	6.7607516e-08 	0.003856992 	3.0947295e-07 	0.0020817879
0.7826087 	0.0040165081 	0.0017107541 	-2.1713696e-08 	0.0039627587 	-1.8643484e-08 	0.0017913118
0.79347826 	0.0041043444 	0.0017392988 	-1.6159455e-08 	0.0040597253 	-1.3874586e-08 	0.0019573648
0.80434783 	0.0041829445 	0.001762651 	-1.5707673e-09 	0.00414782 	5.3285807e-08 	0.0021815179
0.81521739 	0.0042474045 	0.0017787593 	-3.4548845e-08 	0.0042207496 	-4.0889816e-08 	0.0018106937
0.82608696 	0.0043012965 	0.0017899385 	-1.1420587e-08 	0.0042848348 	4.8112312e-09 	0.00225224
0.83695652 	0.0043386273 	0.0017937422 	-4.0515617e-09 	0.0043314218 	-5.9148902e-09 	0.0022436118
0.84782609 	0.0043609298 	0.0017907529 	-5.3432129e-08 	0.0043614012 	-9.0891727e-08 	0.0016625366
0.85869565 	0.0043662527 	0.001781386 	-3.326574e-07 	0.0043762402 	-4.7962849e-07 	0.0023033501
0.86956522 	0.0043544058 	0.0017646252 	-1.7519038e-07 	0.0043684648 	-3.3606091e-07 	0.00021058759
0.88043478 	0.0043249112 	0.0017428196 	-4.1159144e-07 	0.0043501322 	-7.3825767e-07 	0.0022871927
0.89130435 	0.0042775089 	0.00171442 	-5.1199747e-09 	0.0043070558 	-1.0878809e-08 	0.0021862388
0.90217391 	0.0042093776 	0.0016784441 	-1.2477745e-07 	0.0042398255 	-2.9113903e-07 	0.00057394006
0.91304348 	0.0041215383 	0.001638592 	-3.0192788e-07 	0.0041583481 	-6.993996e-07 	0.0021901711
0.92391304 	0.0040152795 	0.0015960262 	-5.288409e-07 	0.0040527698 	-1.3071513e-06 	0.002115551
0.93478261 	0.0038902181 	0.0015424083 	-3.9864045e-08 	0.0039227373 	-1.0473725e-07 	0.0020393032
0.94565217 	0.0037318766 	0.0014859759 	-5.4092038e-07 	0.0037593586 	-1.6023916e-06 	0.0019727835
0.95652174 	0.0035539929 	0.0014283104 	-4.9415696e-08 	0.0035716301 	-1.7624611e-07 	0.00041044378
0.9673913 	0.0033347848 	0.0013647556 	-4.8994232e-08 	0.0033461262 	-1.6731192e-07 	0.0017744044
0.97826087 	0.0030281117 	0.0012754828 	-1.1465786e-08 	0.0030230218 	-5.4790725e-08 	0.0003525763
0.98913043 	0.0020838507 	0.00091221643 	1.2646934e-09 	0.0020974541 	-2.6738537e-09 	0.00019931424
