0.27835052 	0.0026869177 	-0.00087532788 	4.4121977e-07 	0.0017771733 	-8.4790373e-07 	0.0015510789
0.28865979 	0.0029610526 	-0.00068283138 	6.5810938e-07 	0.0026626717 	5.521615e-07 	0.0014153915
0.29896907 	0.002635583 	-0.00024827138 	3.3516796e-07 	0.0035099313 	6.3078036e-07 	0.00089173093
0.30927835 	0.0024302117 	-6.3981574e-05 	1.0110603e-06 	0.0038777525 	5.5495985e-07 	0.0005414059
0.31958763 	0.0022449607 	3.9635647e-05 	2.0610761e-08 	0.0038318243 	-8.5199191e-08 	0.00031930899
0.32989691 	0.0021206354 	8.6779313e-05 	1.5873402e-07 	0.0037139253 	-1.5656695e-06 	0.00011591977
0.34020619 	0.0020205305 	0.0001135359 	4.0914813e-08 	0.0035891395 	-1.6297411e-06 	8.5108833e-05
0.35051546 	0.001941968 	0.0001273423 	-2.254228e-09 	0.0034840209 	-4.4833016e-07 	0.00026052422
0.36082474 	0.0018786749 	0.00013410919 	4.6383204e-07 	0.0033951442 	-3.2238319e-07 	5.8674916e-05
0.37113402 	0.0018271951 	0.00014337195 	1.3630732e-07 	0.0033274731 	-7.3481848e-08 	0.0004815798
0.3814433 	0.0017833358 	0.00015258097 	2.1562362e-09 	0.0032705895 	-1.1572198e-06 	0.00071712188
0.39175258 	0.0017455704 	0.00016233702 	3.3824786e-09 	0.0032228968 	-2.7596162e-07 	0.00084736798
0.40206186 	0.0017141441 	0.00017054732 	1.3125055e-06 	0.0031810146 	-4.9190388e-07 	0.00010464261
0.41237113 	0.0016894793 	0.00018271216 	3.1600839e-07 	0.0031582762 	-1.0352235e-07 	0.00089052566
0.42268041 	0.0016681323 	0.00019337215 	5.3599628e-07 	0.0031366511 	-1.75589e-07 	0.00086290081
0.43298969 	0.001650693 	0.00020246579 	1.6458669e-06 	0.0031181715 	-4.8935115e-07 	0.00025123117
0.44329897 	0.0016363431 	0.00021615091 	5.8592587e-08 	0.0031140603 	-1.742082e-08 	0.0013220233
0.45360825 	0.0016244914 	0.00022377488 	1.7081385e-06 	0.003101037 	-4.8036903e-07 	9.0149209e-05
0.46391753 	0.0016145391 	0.00023780134 	6.6079659e-09 	0.0031040827 	-2.3033589e-07 	0.0011805172
0.4742268 	0.0016066476 	0.00024629263 	1.3300896e-06 	0.0030984783 	-3.7056352e-07 	0.00017090032
0.48453608 	0.0015997033 	0.00026005023 	2.5923876e-08 	0.0031047454 	-6.1379531e-07 	0.0010245679
0.49484536 	0.0015943224 	0.00026918765 	1.2584978e-06 	0.0031029776 	-3.6438892e-07 	5.3209258e-05
0.50515464 	0.0015896338 	0.00028349304 	5.6397086e-08 	0.0031121905 	-8.9964344e-07 	0.00089160259
0.51546392 	0.0015858047 	0.00029440842 	7.3484577e-07 	0.003114069 	-2.3124347e-07 	0.00028116478
0.5257732 	0.001582841 	0.00030875896 	3.4602198e-08 	0.0031232385 	-3.717575e-07 	0.00077896867
0.53608247 	0.0015798489 	0.00032203722 	1.1235356e-08 	0.0031280114 	-1.207099e-07 	0.00072025289
0.54639175 	0.0015784046 	0.00033587313 	3.0893633e-07 	0.0031338268 	-1.1023166e-07 	0.00043663647
0.55670103 	0.0015767479 	0.00035146153 	2.0831033e-07 	0.0031400338 	-1.5627877e-06 	0.000636683
0.56701031 	0.0015756358 	0.0003663999 	3.6846207e-07 	0.0031435263 	-1.5497162e-07 	0.0002739356
0.57731959 	0.0015752041 	0.00038418342 	1.1403835e-07 	0.0031499319 	-6.3353251e-07 	0.00056886135
0.58762887 	0.0015748137 	0.00040171714 	2.2247824e-07 	0.0031522923 	-1.2359632e-06 	0.00053270513
0.59793814 	0.001575191 	0.00041962229 	4.7791709e-07 	0.0031528573 	-2.4524601e-07 	2.2487093e-05
0.60824742 	0.0015758646 	0.00044031329 	2.811521e-07 	0.0031552131 	-1.3011127e-06 	0.00048988354
0.6185567 	0.0015768129 	0.00046022091 	2.9200214e-07 	0.0031536168 	-1.3513243e-06 	0.0004651767
0.62886598 	0.0015784772 	0.0004808104 	3.4778556e-07 	0.0031500092 	-2.2208644e-07 	1.0071144e-05
0.63917526 	0.001580834 	0.00050402506 	3.7266655e-07 	0.0031464903 	-1.5414355e-06 	0.00044425275
0.64948454 	0.0015836018 	0.0005263086 	3.6486604e-07 	0.0031396567 	-1.5091708e-06 	0.00043056826
0.65979381 	0.0015871312 	0.00054915201 	2.4315594e-07 	0.0031307367 	-1.933432e-07 	1.3897664e-05
0.67010309 	0.0015920519 	0.0005744093 	4.5415869e-07 	0.0031206596 	-1.7927206e-06 	0.00042936154
0.68041237 	0.0015974065 	0.00059865507 	2.967561e-07 	0.0031081207 	-1.1713984e-06 	0.00042548336
0.69072165 	0.0016038376 	0.00062387515 	5.4358495e-08 	0.0030939701 	-5.2504725e-08 	0.00030629614
0.70103093 	0.0016121688 	0.00064882749 	6.0560225e-07 	0.0030774912 	-2.4978131e-06 	0.00044305932
0.71134021 	0.0016206522 	0.00067348284 	5.1355849e-08 	0.0030604428 	-2.1181776e-07 	0.00044752247
0.72164948 	0.001631512 	0.00069862932 	1.9066862e-07 	0.0030415484 	-8.5607911e-07 	0.00047079895
0.73195876 	0.0016434292 	0.00072261292 	3.1053667e-07 	0.0030220777 	-1.3942722e-06 	0.00048228683
0.74226804 	0.0016567453 	0.00074625805 	5.4750263e-08 	0.0030012926 	-2.5515287e-08 	0.00030607056
0.75257732 	0.0016717532 	0.00076978444 	4.221784e-07 	0.0029825996 	-2.0686749e-06 	0.00052633222
0.7628866 	0.0016888955 	0.00079124451 	1.0284683e-07 	0.0029607467 	9.9255787e-09 	0.00017244972
0.77319588 	0.0017069324 	0.00081463784 	2.8017395e-07 	0.0029441998 	-1.5339801e-06 	0.00057993395
0.78350515 	0.0017280661 	0.00083518615 	5.0245927e-08 	0.0029242819 	2.3881928e-08 	0.00042123281
0.79381443 	0.0017519969 	0.00085579483 	1.9457705e-07 	0.0029073228 	-1.1247554e-06 	0.0006433015
0.80412371 	0.0017780398 	0.0008753041 	6.666977e-08 	0.0028900536 	5.0348419e-08 	0.00042538347
0.81443299 	0.001806077 	0.00089581783 	1.8919185e-07 	0.0028780424 	-1.0216208e-06 	0.00071549248
0.82474227 	0.0018371031 	0.00091421896 	1.5905459e-07 	0.0028645704 	1.6247764e-07 	0.00012674473
0.83505155 	0.0018692828 	0.0009345782 	1.531627e-07 	0.0028591985 	-8.5285268e-07 	0.00079611903
0.84536082 	0.0019048288 	0.00095304955 	5.4120168e-08 	0.0028524643 	7.0324367e-08 	0.00060123434
0.8556701 	0.0019432016 	0.0009711295 	2.1215805e-08 	0.0028498081 	-1.3323939e-07 	0.00088450745
0.86597938 	0.0019845926 	0.00098878658 	6.1740622e-08 	0.0028489373 	-4.3567633e-07 	0.00094258832
0.87628866 	0.0020289288 	0.0010049862 	8.6638904e-08 	0.002847187 	1.8584007e-07 	0.00030292428
0.88659794 	0.0020751791 	0.0010212939 	1.3579761e-09 	0.0028505156 	-1.3061715e-08 	0.0010415754
0.89690722 	0.0021244477 	0.0010363465 	2.725942e-08 	0.0028521209 	-4.7477012e-07 	0.00110469
0.90721649 	0.0021756078 	0.0010503994 	1.7310535e-09 	0.002852971 	-1.0251431e-07 	0.0011679775
0.91752577 	0.0022293828 	0.001062715 	9.5409884e-09 	0.0028478533 	1.1267887e-07 	0.00055871777
0.92783505 	0.0022842795 	0.0010736877 	-1.0207369e-08 	0.0028394988 	1.5394735e-07 	0.00010274284
0.93814433 	0.0023395605 	0.0010852187 	-1.8902804e-08 	0.0028284165 	8.4209511e-08 	0.00046453897
0.94845361 	0.0023923833 	0.0010932482 	-2.1568382e-08 	0.0028080107 	6.0394493e-08 	0.00052531209
0.95876289 	0.0024506443 	0.0011003724 	-9.9271456e-10 	0.0027761807 	-1.9957417e-07 	0.0014549733
0.96907216 	0.0025034458 	0.0011108649 	6.1944392e-10 	0.0027308108 	4.7567569e-09 	0.00138039
0.97938144 	0.0025288974 	0.0011199608 	-5.0921187e-10 	0.0026470282 	-9.1181253e-09 	0.0015365479
0.98969072 	0.0021049199 	0.00095311679 	1.1317429e-07 	0.0021378157 	1.9469857e-07 	0.0006493
