1.4326613e-19 	0.0029991668 	-2.0368927e-16 	-7.4035247e-23 	3.6918074e-19 	5.2536221e-33 	3.7323427e-19
0.010869565 	0.0030065722 	-0.00012946027 	1.5129165e-08 	0.0033554813 	-5.3829177e-06 	0.0018051017
0.02173913 	0.0030388939 	-0.00025715644 	3.7340269e-09 	0.0033869895 	-5.89122e-06 	0.001684701
0.032608696 	0.0030917891 	-0.00038500128 	3.2482795e-09 	0.0034383773 	-2.8139174e-06 	0.0015729638
0.043478261 	0.0031632779 	-0.00051173331 	1.2484608e-08 	0.0035077447 	-4.2080255e-06 	0.001476349
0.054347826 	0.0032512662 	-0.00063753481 	5.6772966e-09 	0.0035926343 	-1.1768426e-08 	0.0012938828
0.065217391 	0.0033622998 	-0.00077132116 	8.9246015e-08 	0.0036969763 	-1.750058e-07 	0.00025027332
0.076086957 	0.0034654597 	-0.00088196715 	1.4312919e-08 	0.0037973963 	-4.4606358e-07 	0.0011753853
0.086956522 	0.0035850925 	-0.00099885576 	1.441874e-07 	0.0039114395 	-5.7760605e-06 	0.0010914209
0.097826087 	0.0037086601 	-0.0011124209 	1.6339086e-07 	0.0040283253 	-3.8967945e-06 	0.0010060361
0.10869565 	0.0038356974 	-0.0012230513 	1.0453887e-07 	0.0041456613 	-1.8797558e-07 	4.5606678e-05
0.11956522 	0.0039588277 	-0.0013259476 	3.1427674e-07 	0.0042606415 	-4.7677974e-06 	0.00078822527
0.13043478 	0.0040793709 	-0.0014248818 	3.593673e-07 	0.0043702344 	-3.6763811e-06 	0.00069207564
0.14130435 	0.0041951514 	-0.0015185999 	1.2207817e-07 	0.0044736499 	-1.2488778e-06 	0.00056621028
0.15217391 	0.0042991799 	-0.0016034076 	1.0397265e-06 	0.0045635984 	-7.6373062e-06 	0.00046356516
0.16304348 	0.0043993075 	-0.0016853677 	4.1925764e-08 	0.0046484116 	-7.1604037e-08 	6.3725212e-05
0.17391304 	0.004477669 	-0.0017540008 	1.5228863e-06 	0.0047104878 	-8.5358927e-06 	0.00023298071
0.18478261 	0.0045532547 	-0.0018210386 	1.1804032e-07 	0.0047689663 	-5.319541e-07 	0.00011755075
0.19565217 	0.0046005848 	-0.0018724245 	2.1566633e-06 	0.0047973669 	-9.7191015e-06 	1.2901763e-05
0.20652174 	0.004647976 	-0.0019238639 	9.114683e-09 	0.0048261648 	-1.4475103e-08 	6.8537731e-05
0.2173913 	0.004658686 	-0.0019560232 	2.9374181e-06 	0.0048172985 	-1.1125038e-05 	0.00023213314
0.22826087 	0.0046691349 	-0.0019880409 	3.3476935e-07 	0.004808045 	-1.2678896e-06 	0.00033708223
0.23913043 	0.0046444718 	-0.0020017237 	2.6260771e-06 	0.0047630689 	-8.6318623e-06 	0.00042909267
0.25 	0.0046108187 	-0.0020106151 	1.4828813e-06 	0.0047090287 	-4.8742007e-06 	0.00052327678
0.26086957 	0.0045563042 	-0.0020083121 	1.2469555e-06 	0.0046342012 	-3.630879e-06 	0.00059048995
0.27173913 	0.0044738866 	-0.0019908808 	3.7787718e-06 	0.0045323967 	-1.1003009e-05 	0.00067192865
0.2826087 	0.0043883799 	-0.0019717827 	4.6633263e-08 	0.004426896 	-5.6047537e-08 	0.00039802811
0.29347826 	0.0042649203 	-0.0019313329 	3.4509914e-06 	0.0042871962 	-9.0580867e-06 	0.00076895626
0.30434783 	0.0041336514 	-0.001886287 	2.7432411e-06 	0.0041396877 	-7.200399e-06 	0.00083610309
0.31521739 	0.0039902058 	-0.0018344484 	4.6837066e-08 	0.0039796802 	-3.732133e-08 	0.00045217744
0.32608696 	0.0038222943 	-0.0017629495 	5.1085834e-06 	0.0037995221 	-1.1923968e-05 	0.00085470333
0.33695652 	0.0036514428 	-0.00168893 	2.2843623e-06 	0.0036159545 	-5.3319405e-06 	0.00090684626
0.34782609 	0.0034687597 	-0.0016045083 	3.266552e-08 	0.0034205512 	-5.2847106e-09 	0.00051549905
0.35869565 	0.0032832203 	-0.0015071835 	5.5236095e-06 	0.003226958 	-1.1134385e-05 	0.0008454243
0.36956522 	0.0030967709 	-0.0014078122 	2.807992e-06 	0.0030321813 	-5.6602957e-06 	0.00088314141
0.38043478 	0.0029068381 	-0.0013000841 	3.2862599e-08 	0.002834162 	2.7358688e-08 	0.00018382977
0.39130435 	0.0027363004 	-0.001192728 	3.9612672e-06 	0.0026609277 	-6.7730931e-06 	0.00076906898
0.40217391 	0.0025706026 	-0.0010839896 	4.3428515e-06 	0.0024921952 	-7.4255373e-06 	0.00079468603
0.41304348 	0.0024084731 	-0.00097375406 	5.9213841e-09 	0.0023269891 	1.9423207e-08 	0.00038919571
0.42391304 	0.0022706809 	-0.00086813672 	9.6366357e-07 	0.0021892423 	-1.3239305e-06 	0.00067788605
0.43478261 	0.0021563002 	-0.00076589055 	6.3882194e-06 	0.0020743259 	-8.7764639e-06 	0.00069484268
0.44565217 	0.0020419195 	-0.00066364438 	1.2481832e-06 	0.0019594095 	-1.7148181e-06 	0.00071179931
0.45652174 	0.001949223 	-0.00056352705 	1.0208333e-08 	0.0018652126 	5.7127325e-09 	0.00014817807
0.4673913 	0.0018828448 	-0.00047140604 	2.1858588e-06 	0.0017985389 	-2.0251712e-06 	0.00063027897
0.47826087 	0.0018311845 	-0.00037926746 	4.3229239e-06 	0.0017449261 	-4.0051356e-06 	0.00064184558
0.48913043 	0.0017795242 	-0.00028712888 	3.4824386e-08 	0.0016913133 	-3.2264363e-08 	0.0006534122
0.5 	0.0017581453 	-0.0001962677 	1.6469677e-08 	0.0016657742 	-6.5571775e-09 	0.00026451185
0.51086957 	0.0017519641 	-0.00010750599 	2.3204763e-06 	0.0016570649 	-8.6289653e-07 	0.00063913505
0.52173913 	0.0017566167 	-1.8872301e-05 	3.1416479e-06 	0.0016586487 	-1.1682589e-06 	0.00064776383
0.5326087 	0.0017658289 	6.9651284e-05 	9.2627579e-09 	0.0016645375 	1.10169e-09 	0.00050020077
0.54347826 	0.0017971949 	0.00015906144 	1.4762457e-08 	0.0016928388 	1.7558109e-09 	0.00044069782
0.55434783 	0.0018427411 	0.00024835934 	2.7296781e-06 	0.00173654 	4.6673424e-07 	0.00071213333
0.56521739 	0.0018933135 	0.00033696081 	1.5893516e-06 	0.0017850337 	2.7175541e-07 	0.00071926166
0.57608696 	0.0019540962 	0.00042411054 	2.9696267e-08 	0.0018431282 	2.8053702e-08 	0.00016606269
0.58695652 	0.0020272973 	0.00051269548 	5.128913e-07 	0.0019162171 	3.1823868e-07 	0.00082714576
0.59782609 	0.002111162 	0.00059826408 	2.6878496e-06 	0.0019990073 	1.6677563e-06 	0.00083337973
0.60869565 	0.0021968829 	0.0006832096 	5.6770406e-09 	0.0020833234 	1.4034703e-08 	0.00064623785
0.61956522 	0.0022944995 	0.00076693637 	6.7886837e-09 	0.0021801225 	1.6782892e-08 	0.00070698953
0.63043478 	0.0023990921 	0.00084834812 	2.406386e-06 	0.0022850511 	2.4220234e-06 	0.00097904051
0.64130435 	0.0025047458 	0.00092873269 	4.6674501e-08 	0.00239072 	4.6977805e-08 	0.00098456055
0.65217391 	0.0026179232 	0.0010057984 	7.1307459e-10 	0.0025040629 	3.2384832e-08 	0.00061091934
0.66304348 	0.0027353819 	0.0010811325 	1.7650208e-06 	0.0026241916 	2.4315011e-06 	0.0011386756
0.67391304 	0.0028531361 	0.0011543993 	-6.8918416e-10 	0.0027439218 	1.5067173e-09 	0.0011146875
0.68478261 	0.0029747508 	0.0012238433 	-8.6708488e-09 	0.0028682164 	1.8956498e-08 	0.00088603758
0.69565217 	0.0030971482 	0.0012898823 	1.4448332e-06 	0.0029952723 	2.5671234e-06 	0.0012994561
0.70652174 	0.0032183275 	0.0013527814 	-2.3871172e-08 	0.0031196796 	1.2571588e-08 	0.00076269364
0.7173913 	0.0033411484 	0.0014129193 	1.6115514e-07 	0.00324889 	3.6291823e-07 	0.0014477538
0.72826087 	0.0034592869 	0.0014674626 	4.9390987e-07 	0.0033728302 	1.1122754e-06 	0.0014511827
0.73913043 	0.0035742295 	0.0015178435 	-6.7972445e-08 	0.0034919324 	-1.1915941e-08 	0.00032406631
0.75 	0.0036862877 	0.0015651515 	5.5105684e-07 	0.0036134418 	1.6261272e-06 	0.0015826904
0.76086957 	0.0037917338 	0.0016071687 	-4.8974541e-08 	0.0037248804 	-3.1208602e-08 	0.00087939036
0.77173913 	0.0038913708 	0.0016447451 	9.5022832e-08 	0.0038340562 	4.6335743e-07 	0.001692377
0.7826087 	0.003982215 	0.0016770834 	1.2781941e-08 	0.0039330602 	6.2328254e-08 	0.00169454
0.79347826 	0.0040641691 	0.0017037921 	-4.1102442e-09 	0.0040237276 	3.5676795e-08 	0.0017769001
0.80434783 	0.0041336046 	0.0017243811 	-1.6396828e-08 	0.0041017922 	1.4232397e-07 	0.0017785314
0.81521739 	0.0041936763 	0.0017399369 	-5.5475856e-09 	0.0041706562 	-7.1431972e-09 	0.0017644412
0.82608696 	0.0042385002 	0.0017488818 	-7.1028895e-08 	0.0042243606 	-1.0545599e-08 	0.001836182
0.83695652 	0.0042710343 	0.0017521111 	-7.6303057e-08 	0.0042657238 	-8.832246e-08 	0.0018671493
0.84782609 	0.0042881713 	0.0017491208 	-1.681307e-08 	0.004290597 	-2.9668356e-08 	0.0016662816
0.85869565 	0.0042884779 	0.0017392662 	-4.3744519e-07 	0.0042989244 	-7.0195983e-07 	0.0018753097
0.86956522 	0.0042741883 	0.0017235991 	-1.3377309e-07 	0.0042888235 	-2.6361459e-07 	0.00023023951
0.88043478 	0.0042418529 	0.0017026099 	-5.3678621e-07 	0.004265824 	-1.0308347e-06 	0.0018618318
0.89130435 	0.004194256 	0.0016759493 	-1.2115078e-07 	0.004222097 	-2.602184e-07 	0.0018304278
0.90217391 	0.0041281992 	0.0016430468 	-8.8146235e-08 	0.0041568337 	-2.095349e-07 	0.00058391837
0.91304348 	0.0040431266 	0.0016064529 	-4.3856464e-07 	0.0040765994 	-1.0615136e-06 	0.001783476
0.92391304 	0.003942249 	0.0015673981 	-6.3622034e-07 	0.0039758998 	-1.6267277e-06 	0.0017241813
0.93478261 	0.0038244384 	0.0015187287 	-1.5437198e-07 	0.0038531936 	-4.1732826e-07 	0.0016640876
0.94565217 	0.0036757989 	0.0014673571 	-5.9485913e-07 	0.0036995189 	-1.8152337e-06 	0.0016118265
0.95652174 	0.0035096299 	0.0014152132 	-3.4230027e-08 	0.003524743 	-1.2366656e-07 	0.00042158069
0.9673913 	0.0033050222 	0.0013569571 	-1.3044249e-07 	0.0033139947 	-4.4841264e-07 	0.0014564889
0.97826087 	0.0030144439 	0.0012725029 	-7.8197632e-09 	0.0030086928 	-3.7435815e-08 	0.0003617479
0.98913043 	0.0020844562 	0.00091304552 	9.8329887e-10 	0.0020978777 	-1.6012894e-09 	0.00019254908
