0.47777778 	0.0045346643 	-0.0020072895 	2.6059558e-08 	0.0045395792 	-5.7682879e-08 	0.00035076145
0.48888889 	0.0057442709 	-0.0024895586 	5.4256101e-09 	0.0057350359 	-8.7092461e-09 	0.0031845995
0.5 	0.0054637654 	-0.0023783295 	-2.4916164e-09 	0.0054496978 	1.4518158e-08 	0.0030809437
0.51111111 	0.005043235 	-0.0022208301 	-9.6931951e-09 	0.0050307504 	3.3253651e-08 	0.0032111636
0.52222222 	0.0045883245 	-0.0020280765 	-3.6772952e-08 	0.0045643468 	1.1582038e-07 	0.00098256994
0.53333333 	0.0041441401 	-0.001841358 	-8.2624542e-09 	0.0041254872 	2.4235466e-08 	0.0032621554
0.54444444 	0.0037244021 	-0.0016534853 	-9.1490186e-09 	0.0037032239 	2.2790869e-08 	0.0031000664
0.55555556 	0.0033417799 	-0.0014690222 	-3.6980903e-08 	0.0033202572 	8.2412404e-08 	0.0021335406
0.56666667 	0.0030053132 	-0.0012908877 	-4.7826355e-08 	0.0029844257 	9.2258448e-08 	0.0017897706
0.57777778 	0.0027174805 	-0.0011202237 	-3.6669291e-08 	0.0026988736 	5.9035512e-08 	0.0018636555
0.58888889 	0.0024770506 	-0.00095773334 	-3.2720717e-09 	0.0024616008 	4.1856568e-09 	0.002202082
0.6 	0.002284444 	-0.00080386094 	-1.7742138e-08 	0.002271513 	2.2695866e-08 	0.001801585
0.61111111 	0.0021352059 	-0.00065809548 	-8.2246815e-08 	0.0021238008 	7.6754209e-08 	0.00083554315
0.62222222 	0.0020208436 	-0.00052050803 	-1.2963545e-07 	0.0020114322 	7.5375156e-08 	0.00016028593
0.63333333 	0.0019361373 	-0.00039303806 	-3.6672333e-08 	0.0019319866 	8.6604354e-09 	0.0012704138
0.64444444 	0.0018798133 	-0.00027107413 	-2.7607866e-08 	0.001878968 	6.5197962e-09 	0.0013356465
0.65555556 	0.0018494364 	-0.0001533806 	-1.0964739e-07 	0.0018491895 	-1.0024355e-08 	8.003078e-05
0.66666667 	0.0018334281 	-4.3939673e-05 	-1.9541747e-08 	0.0018382567 	-7.590275e-09 	0.0013246853
0.67777778 	0.0018389072 	6.3117146e-05 	-4.504542e-08 	0.0018452877 	-1.7496242e-08 	0.00088836847
0.68888889 	0.0018582234 	0.00016662705 	-4.4152045e-08 	0.0018662055 	-2.7784047e-08 	0.0006691562
0.7 	0.0018875476 	0.00026600144 	-1.3691958e-08 	0.0018986566 	-8.61609e-09 	0.0014024568
0.71111111 	0.0019348555 	0.00036516461 	-3.8705933e-08 	0.0019452609 	-2.8296425e-08 	0.0003427136
0.72222222 	0.0019848048 	0.00045944095 	-3.7958642e-09 	0.0019988873 	-2.775011e-09 	0.0016711955
0.73333333 	0.0020528933 	0.0005527208 	-1.8058224e-08 	0.0020649271 	-3.4549552e-09 	0.00030694832
0.74444444 	0.0021238682 	0.00064608562 	-1.3464143e-09 	0.0021392485 	-2.5760015e-10 	0.0018226517
0.75555556 	0.0022091518 	0.00073499359 	2.7418231e-09 	0.0022213776 	3.5883312e-08 	0.00029645563
0.76666667 	0.0023012817 	0.00082874719 	6.726663e-08 	0.0023165809 	5.5395289e-08 	0.002100368
0.77777778 	0.0024053274 	0.00091630217 	2.3578622e-08 	0.002415766 	9.3758261e-08 	3.7633207e-05
0.78888889 	0.0025179303 	0.0010092527 	3.2107071e-09 	0.0025312323 	1.1988331e-08 	0.0020903566
0.8 	0.0026414817 	0.0010976027 	2.4321656e-08 	0.0026511944 	9.0813662e-08 	0.00094415805
0.81111111 	0.0027746752 	0.0011877418 	2.6869995e-08 	0.00278322 	1.0431969e-07 	0.0011304098
0.82222222 	0.0029182535 	0.0012791399 	1.5670617e-09 	0.0029278937 	6.0839381e-09 	0.0025818547
0.83333333 	0.0030728234 	0.0013668458 	4.1574836e-08 	0.0030772186 	1.7186256e-07 	0.00070952247
0.84444444 	0.0032384483 	0.0014570602 	3.4555078e-08 	0.003242024 	1.5257726e-07 	0.0011349386
0.85555556 	0.0034150431 	0.0015483339 	2.8174051e-09 	0.003420522 	1.3217931e-08 	0.00293467
0.86666667 	0.0036012933 	0.0016368653 	1.252592e-08 	0.0036047936 	5.8765689e-08 	0.0025693826
0.87777778 	0.0037957837 	0.0017238679 	3.243651e-08 	0.0037960841 	1.5998031e-07 	0.00139891
0.88888889 	0.0039978415 	0.0018100188 	4.4315091e-08 	0.0039956682 	2.2567158e-07 	0.00047170531
0.9 	0.0042062866 	0.0018949385 	4.6528108e-08 	0.0042028475 	2.3950375e-07 	7.8502709e-05
0.91111111 	0.0044186259 	0.0019779953 	4.3402372e-08 	0.0044151113 	2.2175902e-07 	7.9303552e-05
0.92222222 	0.0046323001 	0.0020585843 	3.4959513e-08 	0.0046293076 	1.7418005e-07 	0.00064666657
0.93333333 	0.0048433268 	0.002136426 	1.8756219e-08 	0.0048444545 	8.9472996e-08 	0.0022671031
0.94444444 	0.0050486044 	0.002211457 	5.5961938e-08 	0.0050502934 	1.7659786e-07 	0.0045902754
0.95555556 	0.0052302396 	0.0022754255 	2.2236473e-08 	0.0052292361 	8.4295513e-08 	0.0013645115
0.96666667 	0.0053782099 	0.0023193067 	9.4100211e-10 	0.0053780331 	3.0290737e-09 	0.0047229434
0.97777778 	0.0054194563 	0.002332832 	1.1700748e-08 	0.0054165851 	3.3059324e-08 	0.0027666061
0.98888889 	0.0048768048 	0.0021296469 	8.2028025e-09 	0.0048550366 	1.9743188e-08 	0.0029445649
