0.4742268 	0.55217619 	0.00086315075 	-3.0074605e-08
0.48453608 	1.078405 	0.00014733878 	-1.2710391e-08
0.49484536 	1.205377 	0.0004057163 	8.824677e-07
0.50515464 	1.2782835 	0.0006746516 	-2.4975749e-08
0.51546392 	1.3235202 	0.00087454697 	3.7690732e-07
0.5257732 	1.3557596 	0.0011164644 	1.768018e-06
0.53608247 	1.378463 	0.001283278 	4.8226323e-07
0.54639175 	1.3941228 	0.0014426279 	2.7880227e-08
0.55670103 	1.40467 	0.0015453765 	-6.9662254e-09
0.56701031 	1.4117176 	0.0016142527 	8.2746221e-08
0.57731959 	1.4164402 	0.0016535419 	-9.0103692e-09
0.58762887 	1.4195913 	0.0016656015 	-4.1906143e-07
0.59793814 	1.4216352 	0.0016572235 	-1.3259193e-07
0.60824742 	1.4227354 	0.0016297721 	-3.5173951e-07
0.6185567 	1.4231586 	0.0015912826 	-3.5036236e-07
0.62886598 	1.4230342 	0.0015415601 	-9.9476846e-07
0.63917526 	1.4224607 	0.0014824488 	-2.2749052e-07
0.64948454 	1.4214763 	0.0014172565 	-8.5523338e-07
0.65979381 	1.4201746 	0.0013457248 	-3.7714788e-07
0.67010309 	1.4185198 	0.0012674925 	-3.8512775e-08
0.68041237 	1.4165776 	0.001185443 	-1.4639646e-06
0.69072165 	1.4143687 	0.0010982444 	-1.0140946e-07
0.70103093 	1.4119249 	0.0010096939 	-2.0167135e-06
0.71134021 	1.4092201 	0.00091635818 	-7.9690274e-08
0.72164948 	1.4063312 	0.00082379566 	-1.8822813e-06
0.73195876 	1.4032381 	0.00072875791 	-2.6677208e-08
0.74226804 	1.3998597 	0.00063228172 	-1.213767e-06
0.75257732 	1.3963265 	0.0005356706 	-3.5770539e-10
0.7628866 	1.3924463 	0.00043818822 	-6.9224804e-07
0.77319588 	1.3883466 	0.00034016047 	-9.6706987e-08
0.78350515 	1.3839406 	0.00024410518 	-7.914197e-07
0.79381443 	1.3792943 	0.00014866073 	1.3157838e-08
0.80412371 	1.3742641 	5.593991e-05 	-1.392104e-06
0.81443299 	1.368999 	-3.3520151e-05 	8.867798e-08
0.82474227 	1.3632135 	-0.00012110627 	-1.2142653e-06
0.83505155 	1.357096 	-0.00020515389 	-7.2253845e-08
0.84536082 	1.3504565 	-0.00028102651 	6.9697053e-08
0.8556701 	1.343149 	-0.0003518959 	-9.0147374e-07
0.86597938 	1.3352168 	-0.00042135577 	-2.844544e-07
0.87628866 	1.3264678 	-0.00047012315 	1.7706325e-07
0.88659794 	1.3165984 	-0.00051127923 	9.1221814e-08
0.89690722 	1.3052533 	-0.00055511184 	-1.1120729e-07
0.90721649 	1.2916485 	-0.00056563436 	1.2807588e-07
0.91752577 	1.2748831 	-0.00051059837 	5.7067084e-07
0.92783505 	1.2543383 	-0.00042743385 	6.0964785e-07
0.93814433 	1.2297425 	-0.00034559567 	7.0665144e-08
0.94845361 	1.1998588 	-0.00029622434 	2.6815759e-07
0.95876289 	1.1613663 	-0.00019667193 	1.5998951e-07
0.96907216 	1.108655 	-0.00011491531 	1.0963494e-07
0.97938144 	1.0273033 	-4.0447712e-05 	7.503193e-08
0.98969072 	0.85288992 	0.00026604413 	1.3009151e-06
