0 	0.95728803 	-6.5014129e-14 	-2.3630915e-20
0.010309278 	0.9506335 	0.002904081 	2.5843078e-07
0.020618557 	0.95071431 	0.0081979984 	6.7840383e-06
0.030927835 	0.9566567 	0.014486501 	2.6410612e-07
0.041237113 	0.96470271 	0.020389508 	-1.2627774e-06
0.051546392 	0.96835327 	0.065287999 	0.0017607772
0.06185567 	0.97860633 	0.065790139 	0.0012036196
0.072164948 	0.99049197 	0.059915234 	0.00020547298
0.082474227 	0.99903376 	0.068867858 	-0.00023126899
0.092783505 	1.007569 	0.078568367 	-4.19185e-05
0.10309278 	1.0177787 	0.087135592 	0.00019646265
0.11340206 	1.0264427 	0.088677679 	-0.00026841687
0.12371134 	1.03355 	0.092055857 	-9.3176486e-05
0.13402062 	1.0371071 	0.095075637 	-0.00031530719
0.1443299 	1.0406642 	0.098095416 	-4.3462669e-05
0.15463918 	1.0479368 	0.098674402 	4.2546697e-05
0.16494845 	1.0489857 	0.10099458 	-0.00016276585
0.17525773 	1.0567006 	0.1022908 	8.8009388e-05
0.18556701 	1.0666056 	0.10175962 	0.00020244025
0.19587629 	1.0605714 	0.10339211 	-2.718041e-05
0.20618557 	1.0721027 	0.10288342 	0.00017081618
0.21649485 	1.0821522 	0.10189695 	0.00020996395
0.22680412 	1.0764527 	0.10302749 	1.4716507e-05
0.2371134 	1.0843892 	0.1012675 	5.6115424e-05
0.24742268 	1.0950217 	0.099766767 	0.00014119816
0.25773196 	1.092658 	0.10000756 	-6.352844e-05
0.26804124 	1.096769 	0.098069566 	-8.5599825e-05
0.27835052 	1.1046128 	0.096138339 	7.5739478e-05
0.28865979 	1.1048449 	0.095527361 	-0.00011424618
0.29896907 	1.1076239 	0.093655116 	-0.00024299703
0.30927835 	1.1104029 	0.09178287 	-4.5476912e-05
0.31958763 	1.1125819 	0.090141358 	-0.00013476186
0.32989691 	1.1143604 	0.087985168 	-0.00031090761
0.34020619 	1.1161708 	0.085764736 	-6.3174852e-05
0.35051546 	1.1171656 	0.083316289 	-5.6815591e-05
0.36082474 	1.1180057 	0.081289421 	-0.00024567159
0.37113402 	1.1188459 	0.079262554 	-3.3793456e-05
0.3814433 	1.1192867 	0.076742286 	2.5555202e-05
0.39175258 	1.1194047 	0.074851467 	-0.00013108576
0.40206186 	1.1196856 	0.073005905 	-4.0562186e-05
0.41237113 	1.1202202 	0.070605863 	9.5822244e-05
0.42268041 	1.119503 	0.06874412 	-1.6238601e-05
0.43298969 	1.1193674 	0.067094659 	-7.1328807e-05
0.44329897 	1.1193442 	0.065136391 	6.287379e-05
0.45360825 	1.1186801 	0.063177599 	6.9486317e-05
0.46391753 	1.1174957 	0.061526021 	-3.3244161e-05
0.4742268 	1.1167455 	0.059996571 	9.1618322e-06
0.48453608 	1.1161215 	0.058033051 	0.00010829072
0.49484536 	1.1143804 	0.056373089 	6.1353311e-05
0.50515464 	1.1125225 	0.054843718 	-2.6955465e-05
0.51546392 	1.1112375 	0.053340966 	3.5600327e-05
0.5257732 	1.1101157 	0.051642031 	0.00011831684
0.53608247 	1.1076813 	0.050092754 	6.1887559e-05
0.54639175 	1.1051906 	0.048609949 	-1.6903438e-05
0.55670103 	1.1035589 	0.047199532 	4.9776582e-05
0.56701031 	1.1020711 	0.045719674 	0.00012365999
0.57731959 	1.0988029 	0.044270584 	4.9609751e-05
0.58762887 	1.0958411 	0.04289209 	2.9825125e-06
0.59793814 	1.0941195 	0.041499199 	7.3812291e-05
0.60824742 	1.0916087 	0.040107033 	8.6250646e-05
0.6185567 	1.0879463 	0.038715924 	1.3481811e-05
0.62886598 	1.0856628 	0.03744169 	4.2549071e-05
0.63917526 	1.0837435 	0.036157015 	0.00010002648
0.64948454 	1.0799328 	0.03479587 	2.9677286e-05
0.65979381 	1.0770225 	0.033631624 	2.6478599e-05
0.67010309 	1.0749299 	0.032600385 	8.7234623e-05
0.68041237 	1.0704455 	0.031392977 	2.6813243e-05
0.69072165 	1.0673793 	0.030423773 	2.4422192e-05
0.70103093 	1.0654773 	0.029638144 	7.0535593e-05
0.71134021 	1.0614042 	0.028860362 	1.1716362e-05
0.72164948 	1.0584247 	0.027893688 	3.5505873e-05
0.73195876 	1.0551671 	0.02693585 	4.6798702e-05
0.74226804 	1.0508352 	0.02610074 	1.5221746e-06
0.75257732 	1.046804 	0.024836689 	6.1105845e-05
0.7628866 	1.0406954 	0.023733298 	1.3289003e-05
0.77319588 	1.0357971 	0.0225963 	3.542088e-05
0.78350515 	1.0298805 	0.021413788 	3.06802e-05
0.79381443 	1.0237051 	0.020318258 	1.7167846e-05
0.80412371 	1.0180965 	0.019248559 	3.6348764e-05
0.81443299 	1.0110349 	0.018221457 	8.859184e-06
0.82474227 	1.0050128 	0.017191981 	3.3133792e-05
0.83505155 	0.99725123 	0.016195654 	8.7263448e-06
0.84536082 	0.99013605 	0.015186741 	2.2626911e-05
0.8556701 	0.98194351 	0.014216436 	1.5095727e-05
0.86597938 	0.97299143 	0.013206179 	6.6030287e-06
0.87628866 	0.96469264 	0.012269293 	2.6183477e-05
0.88659794 	0.95356139 	0.011274262 	-2.5011439e-06
0.89690722 	0.94323224 	0.010300413 	1.1557555e-05
0.90721649 	0.93175426 	0.0093657276 	1.6200513e-05
0.91752577 	0.91757527 	0.0083529747 	3.3295498e-07
0.92783505 	0.90256961 	0.0073305992 	-3.9409661e-07
0.93814433 	0.88659547 	0.0064278552 	4.2688756e-06
0.94845361 	0.86529669 	0.0053751111 	-3.9650382e-06
0.95876289 	0.84164819 	0.0044444916 	5.4692174e-06
0.96907216 	0.80736416 	0.0033567493 	6.3100597e-07
0.97938144 	0.75475924 	0.0023171516 	1.7046645e-06
0.98969072 	0.6152592 	0.0011424267 	-3.576837e-07
