0 	0.00085251545 	-5.7898509e-17 	-2.1044576e-23 	3.9321719e-30 	1.4292404e-36 	5.1949106e-43
0.010309278 	0.00075787342 	-4.7305804e-05 	9.8138466e-09 	0.00034424019 	-6.0347593e-08 	9.5992953e-05
0.020618557 	0.00019448377 	-8.3101182e-06 	1.4961361e-07 	0.00015274399 	-1.3643953e-06 	4.8143321e-05
0.030927835 	8.4413825e-07 	-9.2917234e-11 	3.6624488e-12 	8.4045296e-07 	-1.9312397e-08 	8.9173791e-09
0.041237113 	3.7261286e-09 	-8.1090329e-15 	2.037327e-16 	3.7188756e-09 	-8.1360345e-11 	7.7807832e-12
0.051546392 	1.5942224e-11 	-3.8194164e-19 	1.3694152e-20 	1.5911933e-11 	-5.8077714e-13 	5.5126483e-14
0.06185567 	1.4257158e-14 	-1.9946692e-22 	-4.2747308e-24 	1.4230114e-14 	-6.1483201e-16 	7.0475169e-17
0.072164948 	1.8340447e-16 	-2.1564112e-23 	-1.1190452e-25 	1.83226e-16 	-1.538933e-18 	8.9799927e-17
0.082474227 	1.4802981e-16 	-8.0790962e-23 	-2.025317e-24 	1.4790575e-16 	-2.2336984e-19 	8.2994013e-17
0.092783505 	1.4803002e-16 	-2.8962353e-22 	-3.9623139e-24 	1.4786059e-16 	-4.3511156e-20 	5.9317146e-17
0.10309278 	1.4803225e-16 	-2.2448871e-21 	-3.8230673e-24 	1.4777388e-16 	3.02488e-21 	1.4010033e-17
0.11340206 	1.4804289e-16 	-1.4044404e-20 	-2.6735395e-22 	1.477729e-16 	-2.9697794e-19 	1.3967509e-17
0.12371134 	1.4878994e-16 	-4.4955617e-20 	-8.0567437e-22 	1.4847375e-16 	-7.7720389e-20 	6.6427554e-18
0.13402062 	1.5055069e-16 	-9.7026847e-20 	-2.7263844e-21 	1.5021155e-16 	-2.6300409e-19 	2.3321808e-17
0.1443299 	1.5231145e-16 	-1.4909808e-19 	-3.7581111e-22 	1.5194934e-16 	-3.625309e-20 	4.000086e-17
0.15463918 	1.6457142e-16 	-3.4598408e-19 	-5.0682361e-22 	1.6405162e-16 	8.9629693e-21 	5.1652827e-17
0.16494845 	1.6487292e-16 	-4.5317628e-19 	-9.6687084e-22 	1.6428899e-16 	-2.0035761e-19 	8.5716724e-17
0.17525773 	1.6843325e-16 	-5.8011918e-19 	-4.6775486e-21 	1.6793202e-16 	-9.6259914e-20 	7.1152284e-17
0.18556701 	1.6495334e-16 	-6.5323224e-19 	-1.0759353e-20 	1.6464378e-16 	-2.2141821e-19 	3.9306043e-17
0.19587629 	1.4946627e-16 	-4.9697066e-19 	3.487689e-22 	1.4896585e-16 	-4.8768501e-20 	1.2048806e-16
0.20618557 	1.4829853e-16 	-6.54522e-19 	-1.1950785e-20 	1.4817363e-16 	-5.4771897e-19 	6.7176488e-17
0.21649485 	1.4810887e-16 	-7.0345017e-19 	-1.4689674e-20 	1.4834241e-16 	-6.7324557e-19 	2.944611e-17
0.22680412 	1.480723e-16 	-2.8563543e-19 	-1.0296086e-21 	1.4818356e-16 	-4.7188211e-20 	1.1978038e-16
0.2371134 	1.6356633e-16 	-7.500544e-18 	-7.2467122e-20 	1.7173594e-16 	5.582304e-20 	7.9733698e-17
0.24742268 	1.7570314e-16 	-1.3355482e-17 	-1.8234245e-19 	1.9024629e-16 	1.4046246e-19 	1.4760888e-17
0.25773196 	1.6765143e-16 	-1.0183976e-17 	-2.1813702e-20 	1.7865056e-16 	-2.3151757e-20 	8.1863789e-17
0.26804124 	1.7170703e-16 	-1.539291e-17 	-2.9392334e-20 	1.88912e-16 	-3.1195263e-20 	6.7773454e-17
0.27835052 	1.83002e-16 	-2.405111e-17 	-1.5449423e-19 	2.1023574e-16 	1.7767917e-19 	6.0052471e-18
0.28865979 	1.8277427e-16 	-1.9213917e-17 	1.4275039e-19 	2.0410594e-16 	-1.3816431e-19 	3.9804215e-17
0.29896907 	1.933808e-16 	-1.4427429e-17 	3.0362435e-19 	2.0962156e-16 	-2.9386993e-19 	2.7040441e-17
0.30927835 	2.0398734e-16 	-9.6409407e-18 	5.6823319e-20 	2.1513717e-16 	-5.499778e-20 	1.4276667e-17
0.31958763 	2.2945424e-16 	-7.3470089e-18 	7.8614542e-20 	2.3808594e-16 	5.9670348e-19 	2.2824947e-18
0.32989691 	2.7366198e-16 	-4.19737e-18 	1.8137075e-19 	2.7836991e-16 	1.3766481e-18 	2.334215e-17
0.34020619 	3.1862765e-16 	-8.9501876e-19 	3.6853618e-20 	3.1923395e-16 	2.7972792e-19 	5.052796e-17
0.35051546 	3.9873137e-16 	-3.2258748e-20 	1.4077695e-22 	3.9822144e-16 	1.4145053e-18 	1.0529643e-16
0.36082474 	5.3101361e-16 	-2.106733e-20 	6.0872193e-22 	5.3029893e-16 	6.1163452e-18 	1.3869944e-16
0.37113402 	6.6329586e-16 	-9.8759128e-21 	8.3732994e-23 	6.6237642e-16 	8.4133635e-19 	1.7210246e-16
0.3814433 	7.0774291e-16 	-6.3545541e-21 	-1.3115712e-22 	7.0654566e-16 	3.2147031e-18 	6.9636621e-17
0.39175258 	5.6092768e-15 	-2.8038704e-21 	-3.926127e-24 	5.5988342e-15 	2.1955953e-16 	1.2822899e-16
0.40206186 	1.1994197e-14 	-2.8142897e-21 	-1.214871e-24 	1.1971635e-14 	6.7938839e-17 	1.5488524e-16
0.41237113 	2.2927047e-14 	-2.4113463e-20 	-8.0971931e-22 	2.2884364e-14 	-8.2280868e-17 	4.7825822e-16
0.42268041 	2.1578982e-12 	-2.2596426e-19 	-9.2723265e-21 	2.1538111e-12 	9.3125032e-14 	1.354324e-14
0.43298969 	2.1007543e-11 	-2.0999582e-18 	-4.0729125e-20 	2.0967598e-11 	4.0905603e-13 	5.0126287e-14
0.44329897 	4.1056683e-11 	-4.7479423e-18 	2.6082586e-20 	4.0978592e-11 	-5.5148635e-13 	8.3071464e-14
0.45360825 	4.3399429e-11 	-8.4853882e-18 	2.8825729e-20 	4.3323744e-11 	-6.0948696e-13 	3.6774724e-12
0.46391753 	4.5431516e-11 	-1.6161001e-17 	-1.9955119e-19 	4.5361814e-11 	5.6450049e-13 	8.8234993e-12
0.4742268 	9.5238151e-11 	-3.3224243e-17 	9.2821518e-20 	9.5073263e-11 	-3.3189054e-13 	8.639187e-12
0.48453608 	1.6398476e-10 	-4.7017325e-17 	1.0971287e-18 	1.636757e-10 	-3.9228687e-12 	1.6777392e-12
0.49484536 	1.2918462e-10 	-3.2474728e-17 	6.2159045e-19 	1.2896496e-10 	-2.2225449e-12 	1.3673517e-11
0.50515464 	9.5144025e-09 	7.2101784e-14 	3.1487483e-15 	9.49686e-09 	4.1095985e-10 	4.4208249e-11
0.51546392 	4.9714138e-08 	4.9397872e-13 	-1.1750502e-15 	4.9622895e-08 	-8.0824565e-10 	1.1377571e-10
0.5257732 	9.3139208e-08 	1.0919743e-12 	-3.9052516e-15 	9.2969111e-08 	-2.6861853e-09 	1.7926023e-10
0.53608247 	7.872064e-08 	2.4510773e-12 	-2.0427057e-15 	7.862416e-08 	-1.4050531e-09 	2.0560697e-08
0.54639175 	2.3937847e-07 	1.2308554e-11 	3.7730483e-13 	2.3904375e-07 	7.7906508e-09 	4.0069587e-08
0.55670103 	1.320318e-06 	6.2247735e-11 	-1.6925914e-12 	1.3180349e-06 	-3.5745527e-08 	2.6332197e-08
0.56701031 	2.4343516e-06 	1.1265519e-10 	-4.2049055e-12 	2.4300421e-06 	-8.880263e-08 	4.6365018e-09
0.57731959 	1.2840932e-06 	5.5568711e-11 	-1.6869185e-12 	1.282e-06 	-3.5625722e-08 	1.0270553e-07
0.58762887 	1.7660673e-05 	2.9522642e-08 	-1.8463241e-10 	1.7686959e-05 	-1.0747297e-07 	1.9737661e-07
0.59793814 	7.4075928e-05 	1.2340699e-07 	-4.5693493e-09 	7.4184141e-05 	-2.6597798e-06 	2.0236264e-07
0.60824742 	8.5876783e-05 	1.3806454e-07 	-5.3393456e-09 	8.5997908e-05 	-3.1079881e-06 	3.2423864e-06
0.6185567 	3.2574453e-05 	3.7111053e-08 	-8.3459138e-10 	3.2607778e-05 	-4.8580862e-07 	1.0711263e-05
0.62886598 	0.0001931815 	5.0288854e-07 	-1.7760945e-08 	0.00019365268 	-5.8012437e-06 	7.5474636e-06
0.63917526 	0.00039531611 	1.038156e-06 	-4.1753317e-08 	0.00039628427 	-1.3637853e-05 	9.8553139e-06
0.64948454 	0.00027395484 	4.0600001e-07 	-1.2387971e-08 	0.00027436114 	-4.0462733e-06 	0.00013717074
0.65979381 	0.0004439017 	1.9348596e-05 	-6.5282449e-07 	0.00046426866 	-6.9970733e-06 	0.00013479085
0.67010309 	0.00088614266 	5.3195288e-05 	-2.1507519e-06 	0.00094202858 	-2.305209e-05 	5.8114074e-06
0.68041237 	0.0011279886 	2.0902997e-05 	-6.6107507e-07 	0.0011500921 	-7.0855043e-06 	0.00081329148
0.69072165 	0.0013269681 	0.00015464683 	-2.1622878e-06 	0.0014735707 	-7.4610133e-06 	0.00078605097
0.70103093 	0.001527264 	0.00045041549 	-6.2450681e-06 	0.0019509294 	-2.1548721e-05 	0.00012252269
0.71134021 	0.0019954217 	0.00086420872 	-1.0373412e-06 	0.0027875387 	-3.5793648e-06 	0.001626212
0.72164948 	0.0019782286 	0.00088274391 	-2.2502306e-06 	0.0027879727 	-5.1672466e-06 	0.00094436245
0.73195876 	0.0018990113 	0.00085322931 	-2.9659282e-06 	0.0026690492 	-6.8107166e-06 	0.00063452035
0.74226804 	0.0019715082 	0.00094534729 	1.8882814e-08 	0.0027876746 	3.0897111e-09 	0.0018865062
0.75257732 	0.0019818577 	0.00083663811 	7.5802758e-07 	0.0027099033 	1.2403269e-07 	0.00022484902
0.7628866 	0.002015813 	0.00079288879 	1.6485216e-07 	0.0026624888 	2.6974028e-08 	0.0016063678
0.77319588 	0.0020428349 	0.00076945217 	4.2371909e-07 	0.0026383834 	1.6237902e-07 	0.00090448215
0.78350515 	0.0020763674 	0.00076359119 	3.6700913e-07 	0.0026253283 	1.4064645e-07 	0.0010548507
0.79381443 	0.0021091668 	0.00077146376 	2.3792713e-07 	0.0026223904 	1.8056971e-07 	0.0013913284
0.80412371 	0.002138714 	0.00078246455 	5.0375319e-07 	0.0026288092 	3.8231271e-07 	0.00072654706
0.81443299 	0.0021805738 	0.00079842769 	9.8618507e-08 	0.0026364466 	1.2906873e-07 	0.0016485516
0.82474227 	0.0022129562 	0.00081867976 	3.6883815e-07 	0.0026578218 	4.8272349e-07 	0.00067669808
0.83505155 	0.0022613169 	0.00084195784 	8.8804092e-08 	0.0026791445 	1.7507687e-07 	0.0016170037
0.84536082 	0.0023051728 	0.00086460053 	2.3026392e-07 	0.0027103178 	4.5396429e-07 	0.00097886326
0.8556701 	0.0023584667 	0.0008882142 	1.4724919e-07 	0.0027433947 	3.9093485e-07 	0.0012188317
0.86597938 	0.0024187432 	0.00091203808 	6.4408336e-08 	0.0027828111 	1.7099899e-07 	0.0017253176
0.87628866 	0.0024710032 	0.00093116539 	2.4759561e-07 	0.0028230033 	8.199673e-07 	0.00035355805
0.88659794 	0.0025442359 	0.00095514789 	2.3677279e-08 	0.002868307 	2.5048454e-08 	0.0021282932
0.89690722 	0.0026030804 	0.00097193159 	1.050211e-07 	0.0029097985 	4.0984966e-07 	0.0012164992
0.90721649 	0.0026614368 	0.00098756689 	1.3893212e-07 	0.0029468729 	6.0804352e-07 	0.00054310554
0.91752577 	0.0027254476 	0.0010052006 	2.7112429e-09 	0.0029831421 	1.2081911e-08 	0.0021276795
0.92783505 	0.0027706438 	0.001014249 	-2.197766e-09 	0.0030009892 	-8.9562155e-09 	0.0021750417
0.93814433 	0.0027952292 	0.001015552 	3.5083791e-08 	0.0029989264 	1.2881635e-07 	0.0014639155
0.94845361 	0.0027953456 	0.001021732 	-2.6135839e-08 	0.0029667005 	-3.35071e-07 	0.0021118337
0.95876289 	0.0027394644 	0.0010217498 	1.1051119e-07 	0.0028796646 	-3.34167e-08 	0.00040980781
0.96907216 	0.0026220968 	0.0010225505 	3.7725628e-08 	0.0027226211 	-1.4065788e-08 	0.0016200218
0.97938144 	0.0024080944 	0.0010106133 	2.6843056e-07 	0.0024633417 	5.2298144e-08 	0.00029867808
0.98969072 	0.0017182741 	0.00078748309 	-1.6048436e-07 	0.0017324585 	-2.6514865e-07 	0.00020912478
