0.47777778 	2.4572431e-11 	-2.1942735e-17 	1.061959e-19 	2.4530386e-11 	1.9410659e-15 	2.5161581e-12
0.48888889 	2.459892e-11 	-1.1806037e-18 	-2.2085853e-22 	2.4556536e-11 	-5.2213241e-16 	2.3647431e-12
0.5 	4.7703938e-12 	-4.8527978e-17 	1.6765659e-21 	4.7623345e-12 	-8.8260687e-15 	5.4248601e-13
0.51111111 	1.4198297e-12 	-8.4853163e-16 	-2.1082981e-18 	1.4176486e-12 	-1.9178266e-15 	2.7357274e-13
0.52222222 	1.321886e-12 	-8.998768e-16 	1.8472705e-18 	1.3199233e-12 	-5.6833524e-16 	2.8897043e-13
0.53333333 	1.1320926e-12 	-2.4048149e-16 	5.9148435e-18 	1.1303842e-12 	-2.7662254e-15 	2.3432231e-13
0.54444444 	9.7054043e-13 	-2.5720246e-17 	1.0228356e-18 	9.6911164e-13 	-1.2727227e-15 	2.2039049e-13
0.55555556 	8.6361697e-13 	2.3510769e-17 	1.3087488e-19 	8.6236084e-13 	-3.767532e-16 	2.0394996e-13
0.56666667 	8.5011669e-13 	1.2344704e-16 	3.759197e-19 	8.488586e-13 	1.907416e-17 	1.8825471e-13
0.57777778 	9.2631647e-13 	5.7452372e-16 	3.1972892e-18 	9.2491849e-13 	5.3323131e-16 	1.8714487e-13
0.58888889 	1.0100979e-11 	5.4540656e-14 	9.6581786e-16 	1.0082756e-11 	1.6280558e-13 	2.8605135e-13
0.6 	1.578877e-09 	2.2894509e-11 	9.95446e-13 	1.5759962e-09 	6.7984041e-11 	8.216083e-12
0.61111111 	9.3132103e-08 	2.6807375e-09 	1.1406629e-10 	9.2970482e-08 	3.8383845e-09 	2.0175983e-09
0.62222222 	6.3518994e-07 	1.8245794e-08 	1.2879477e-11 	6.3428279e-07 	3.2217927e-11 	9.6868414e-08
0.63333333 	2.1959845e-05 	1.0597377e-06 	8.0452708e-09 	2.192223e-05 	1.640446e-07 	3.5393899e-07
0.64444444 	0.00012914658 	7.7266187e-06 	2.3994268e-07 	0.00012886668 	3.6002881e-06 	2.0963693e-05
0.65555556 	0.00037127339 	2.4180275e-05 	-8.6005994e-09 	0.00037045513 	-1.0394709e-07 	0.0001042009
0.66666667 	0.00071909642 	6.5334888e-05 	4.6131893e-07 	0.00071502239 	3.6885432e-06 	0.00017027424
0.67777778 	0.0010671155 	0.00013488711 	1.1460701e-06 	0.0010556627 	3.4224965e-06 	0.00034303789
0.68888889 	0.0013778874 	0.00023264095 	-2.8420532e-08 	0.0013518498 	-1.1502443e-08 	0.00030512911
0.7 	0.0016088907 	0.00036795099 	3.1292042e-06 	0.0015603985 	4.0153899e-06 	0.00046058822
0.71111111 	0.0018265497 	0.00051412881 	-2.3009798e-07 	0.0017528074 	3.383819e-09 	0.00013281732
0.72222222 	0.0020100923 	0.00067917008 	4.6983096e-06 	0.0019166156 	3.8539748e-06 	0.00055242128
0.73333333 	0.0021906876 	0.00085698702 	-1.482335e-07 	0.0020798111 	8.8317902e-09 	0.0001328242
0.74444444 	0.0023632433 	0.0010177642 	3.7935727e-06 	0.0022502629 	4.0653299e-06 	0.00063567896
0.75555556 	0.0025354317 	0.0011475154 	9.9845722e-09 	0.0024228513 	2.3158046e-08 	0.00013559947
0.76666667 	0.0027187247 	0.0012392716 	2.170927e-06 	0.0026185064 	4.5991263e-06 	0.00071544058
0.77777778 	0.0029086225 	0.0013323918 	4.3630947e-08 	0.0028177138 	4.7548513e-08 	0.00029787483
0.78888889 	0.0031265926 	0.0014364928 	1.5668492e-06 	0.0030475961 	3.4815906e-06 	0.00079209158
0.8 	0.0033635522 	0.0015401789 	2.6905415e-07 	0.003294462 	1.4238543e-06 	0.00088683061
0.81111111 	0.0036358472 	0.0016052919 	1.3170347e-07 	0.0035732397 	6.9698446e-07 	0.00087315244
0.82222222 	0.0039443365 	0.0016271526 	-4.6192093e-08 	0.0038840761 	6.3381506e-06 	0.00097740562
0.83333333 	0.0042689624 	0.0016502167 	1.7742167e-08 	0.0042097079 	4.8169823e-07 	0.0010802604
0.84444444 	0.0045980735 	0.0016823506 	1.3925753e-08 	0.0045400779 	3.7808296e-07 	0.0010603045
0.85555556 	0.0049133308 	0.001718636 	2.2611649e-07 	0.0048574518 	3.9430484e-06 	0.0011444299
0.86666667 	0.0052111107 	0.0017566776 	2.5558657e-07 	0.0051570668 	3.2977481e-06 	0.0012087143
0.87777778 	0.0054932889 	0.0017973434 	1.008129e-07 	0.0054413571 	1.0648455e-06 	0.001258284
0.88888889 	0.0057635698 	0.0018396105 	3.6932488e-09 	0.005713923 	1.6396938e-08 	0.0010729546
0.9 	0.0060178053 	0.0018808744 	1.3254014e-08 	0.0059698101 	6.6685689e-08 	0.00030036973
0.91111111 	0.0062473821 	0.0019207942 	1.0429975e-08 	0.0062030882 	5.9552951e-08 	0.00029599011
0.92222222 	0.0064393699 	0.0019598246 	5.1889525e-10 	0.0064010869 	3.3502372e-09 	0.0012684678
0.93333333 	0.0065736648 	0.0019973692 	7.4621267e-08 	0.0065398874 	8.2166455e-08 	0.0013226233
0.94444444 	0.0066348254 	0.0020338509 	1.4789255e-07 	0.0066053733 	-6.7936988e-07 	0.0012970538
0.95555556 	0.0066071923 	0.002071009 	7.2032612e-09 	0.0065824783 	-6.237857e-08 	0.0012599516
0.96666667 	0.0064498423 	0.0020962283 	-1.76993e-08 	0.0064291213 	-2.0663451e-06 	0.0011950014
0.97777778 	0.0059925837 	0.0021203368 	-4.2021746e-08 	0.0059766341 	-2.0379095e-06 	0.0010687103
0.98888889 	0.0047772043 	0.0020046842 	-1.2087511e-06 	0.0047651579 	-4.7767375e-06 	0.00082412136
