0.4742268 	1.7298648e-08 	-5.7774735e-09 	-2.2585699e-11 	1.7267544e-08 	6.2188046e-11 	4.8873228e-09
0.48453608 	1.2061527e-13 	-2.2980071e-18 	-6.9619836e-20 	1.2045948e-13 	5.8249473e-18 	3.8898799e-14
0.49484536 	2.1308408e-14 	-5.2350491e-20 	4.4269875e-22 	2.1284656e-14 	-2.6347971e-16 	8.848954e-15
0.50515464 	4.2571503e-16 	-5.4531637e-20 	1.4223135e-24 	4.2527581e-16 	9.7323374e-20 	1.9566534e-16
0.51546392 	2.6693899e-13 	1.6773014e-17 	2.0902209e-18 	2.6649812e-13 	1.0570617e-14 	1.8121065e-14
0.5257732 	2.4120421e-10 	9.9370198e-13 	3.4635711e-14 	2.4091733e-10 	8.1243998e-12 	5.8334217e-12
0.53608247 	2.0935414e-08 	9.1103458e-10 	7.1132353e-12 	2.1026963e-08 	1.5481358e-10 	9.4467788e-10
0.54639175 	2.6842381e-07 	7.4667659e-09 	2.3081171e-12 	2.6900825e-07 	8.7146478e-11 	4.0699057e-08
0.55670103 	1.8263479e-06 	4.8098311e-08 	6.4245454e-12 	1.8297711e-06 	6.5252001e-11 	3.1625763e-07
0.56701031 	5.9492484e-06 	1.7114204e-07 	3.6252459e-10 	5.9637292e-06 	1.0835494e-08 	1.9831143e-06
0.57731959 	1.5139085e-05 	6.1866558e-07 	5.5318042e-09 	1.5199478e-05 	9.9502368e-08 	5.212354e-06
0.58762887 	3.7604565e-05 	2.27457e-06 	3.6557509e-08 	3.7859109e-05 	3.3973889e-07 	1.7591173e-05
0.59793814 	7.1241744e-05 	6.363266e-06 	1.3232944e-08 	7.200168e-05 	6.2237499e-08 	3.9529667e-05
0.60824742 	0.00010064741 	1.2843227e-05 	5.5825475e-08 	0.00010211691 	6.4882507e-07 	1.7131816e-06
0.6185567 	0.00010904727 	1.842647e-05 	2.2838783e-08 	0.00011134787 	2.5452085e-08 	5.5255807e-05
0.62886598 	0.00010647895 	2.3188725e-05 	1.5304516e-08 	0.00010936053 	-1.4102639e-07 	5.5050511e-05
0.63917526 	0.00010254913 	2.6647757e-05 	2.1051822e-07 	0.00010556261 	9.4015198e-07 	1.0599384e-05
0.64948454 	8.6387787e-05 	2.6772545e-05 	2.5278079e-09 	8.9477803e-05 	-9.5894278e-08 	4.793675e-05
0.65979381 	8.2986047e-05 	3.0025761e-05 	1.823055e-08 	8.6123859e-05 	1.8767763e-08 	4.6033526e-05
0.67010309 	9.2652863e-05 	3.6803817e-05 	1.1946732e-07 	9.5890585e-05 	3.0177286e-07 	3.7809856e-05
0.68041237 	0.00012052509 	5.3126034e-05 	3.200678e-07 	0.00012405593 	6.0596605e-07 	6.4081236e-05
0.69072165 	0.00018303486 	8.5315378e-05 	5.4038716e-07 	0.00018661209 	1.1998469e-06 	2.6744514e-05
0.70103093 	0.00027547126 	0.00013317792 	1.0407126e-06 	0.00027861981 	2.1560824e-06 	0.00013407256
0.71134021 	0.00041585923 	0.00019833185 	6.6487357e-07 	0.00041749861 	1.4542878e-06 	5.1510058e-05
0.72164948 	0.00059265622 	0.00027802392 	1.4724278e-06 	0.00059199338 	3.1819861e-06 	0.00028587904
0.73195876 	0.00078692008 	0.00036703621 	3.336418e-07 	0.00078381963 	7.3236718e-07 	0.0001928572
0.74226804 	0.0010008512 	0.00046546925 	1.0435461e-06 	0.00099606242 	2.2556102e-06 	0.00047598285
0.75257732 	0.0012120559 	0.00056218617 	8.6355152e-09 	0.0012049477 	1.8763873e-08 	0.00047130615
0.7628866 	0.0014047458 	0.00065146836 	5.3562768e-07 	0.0013964392 	1.1490771e-06 	0.00064035748
0.77319588 	0.0015969282 	0.00074044145 	7.4827137e-08 	0.0015872841 	1.6052596e-07 	0.00064072129
0.78350515 	0.0017609788 	0.00081673291 	5.2144302e-07 	0.0017516142 	1.1344706e-06 	0.00077086312
0.79381443 	0.0019198229 	0.00089129902 	9.3492692e-08 	0.001913547 	2.0536826e-07 	0.00059834938
0.80412371 	0.0020566451 	0.00095718391 	8.1403361e-07 	0.0020599757 	1.8416294e-06 	0.00087569241
0.81443299 	0.0021850401 	0.0010196725 	2.6474978e-07 	0.0022003247 	5.830327e-07 	9.705101e-05
0.82474227 	0.002308487 	0.001081212 	6.798602e-07 	0.002341825 	1.5739936e-06 	0.00096428424
0.83505155 	0.0024287903 	0.0011391262 	-2.1674559e-11 	0.0024756858 	1.0014979e-07 	0.0010450649
0.84536082 	0.0025602639 	0.0011466211 	9.4690587e-08 	0.0026073598 	1.6101e-07 	0.00060964119
0.8556701 	0.0027068572 	0.001125903 	-3.0986916e-07 	0.0027455777 	1.4682606e-06 	0.001127608
0.86597938 	0.0028714258 	0.0011362749 	6.6376923e-08 	0.0029011406 	7.9915719e-07 	0.0012191033
0.87628866 	0.0030653189 	0.0011636564 	1.7664387e-07 	0.0030844548 	3.0498571e-07 	0.00041225404
0.88659794 	0.0032973166 	0.0012019509 	9.4099556e-08 	0.0033071953 	1.9772931e-07 	0.00082116226
0.89690722 	0.003568339 	0.0012494954 	1.1118906e-07 	0.0035683664 	7.0702553e-07 	0.0014552297
0.90721649 	0.0038657084 	0.0013067043 	3.3189891e-07 	0.0038555191 	1.7711396e-06 	0.001589712
0.91752577 	0.0041701406 	0.0013753939 	4.7140979e-07 	0.0041505043 	1.9895063e-06 	0.0017196657
0.92783505 	0.0044671577 	0.0014583269 	4.3515913e-07 	0.0044401697 	1.4208976e-06 	0.0018375837
0.93814433 	0.0047532564 	0.001557716 	9.9350384e-08 	0.0047222645 	2.6008722e-07 	0.0019443568
0.94845361 	0.0050159111 	0.0016679991 	1.2493709e-07 	0.0049814767 	4.0506807e-07 	0.00030820783
0.95876289 	0.0052286279 	0.0017849158 	2.2771379e-07 	0.0052011801 	2.8764561e-07 	0.0021781061
0.96907216 	0.0053387594 	0.001884156 	5.097748e-08 	0.0053143547 	1.9928412e-07 	0.00068245154
0.97938144 	0.0051767973 	0.0019722618 	4.0969016e-08 	0.0051635739 	-3.4574841e-07 	0.0021561583
0.98969072 	0.0042610002 	0.0018565828 	-4.9591321e-07 	0.0042531871 	-1.7348046e-06 	0.0018032303
