0.47777778 	0.33497272 	3.1474147e-05 	-9.133518e-09
0.48888889 	0.80952574 	0.00021970853 	-3.2616767e-08
0.5 	1.1730307 	0.00052688192 	-7.7064805e-08
0.51111111 	1.3999123 	0.00079859207 	-7.3710649e-08
0.52222222 	1.5042102 	0.00091056238 	-2.3524529e-07
0.53333333 	1.5404018 	0.00088533432 	-8.1452888e-09
0.54444444 	1.5458373 	0.00077735625 	-2.6350885e-08
0.55555556 	1.5425938 	0.00065198574 	-6.4461368e-08
0.56666667 	1.537236 	0.00052165349 	-7.876919e-08
0.57777778 	1.5307389 	0.00039848776 	-4.9851082e-08
0.58888889 	1.5228955 	0.00027417476 	-2.1687832e-07
0.6 	1.5128203 	0.00016133751 	-5.8920554e-09
0.61111111 	1.5011568 	3.6048458e-05 	-9.960357e-08
0.62222222 	1.4882086 	-6.9582477e-05 	-1.777293e-07
0.63333333 	1.4753885 	-0.00016222978 	-2.6888998e-08
0.64444444 	1.4638851 	-0.0002589193 	-1.6574876e-08
0.65555556 	1.4541406 	-0.00030228084 	-9.663326e-09
0.66666667 	1.4458675 	-0.00031760033 	9.4086083e-09
0.67777778 	1.4392522 	-0.00028483208 	3.3522163e-08
0.68888889 	1.4333269 	-0.00025088173 	9.773962e-08
0.7 	1.4280484 	-0.00021835959 	1.6848223e-08
0.71111111 	1.42272 	-0.00013630437 	9.2223903e-08
0.72222222 	1.4176722 	-4.5005602e-05 	6.7144494e-08
0.73333333 	1.4124689 	2.7057658e-05 	-1.7953618e-08
0.74444444 	1.4072319 	9.4405595e-05 	8.9737588e-08
0.75555556 	1.4006128 	0.00015053813 	-4.756992e-08
0.76666667 	1.3932013 	0.00020814889 	2.6290139e-07
0.77777778 	1.3830241 	0.00026886491 	6.6755182e-09
0.78888889 	1.3717775 	0.00033043746 	2.954761e-08
0.8 	1.3597941 	0.00036946793 	1.6226641e-08
0.81111111 	1.3485169 	0.00037434536 	6.1349357e-09
0.82222222 	1.3381899 	0.00033842525 	-7.590124e-08
0.83333333 	1.3286861 	0.00030867739 	1.5204154e-08
0.84444444 	1.3187379 	0.00029394309 	3.7215487e-08
0.85555556 	1.3081567 	0.00029417821 	-1.6289867e-08
0.86666667 	1.2968027 	0.00027227028 	1.3058668e-08
0.87777778 	1.2844159 	0.00026262247 	5.6264998e-08
0.88888889 	1.2708552 	0.00025478036 	8.8788536e-08
0.9 	1.2559071 	0.00024646195 	9.1166098e-08
0.91111111 	1.2393254 	0.00023722667 	8.1307721e-08
0.92222222 	1.2206934 	0.00022531802 	6.0468048e-08
0.93333333 	1.1993581 	0.00021024767 	2.748036e-08
0.94444444 	1.1743157 	0.00018935708 	-6.7799551e-08
0.95555556 	1.1434332 	0.00016492439 	2.7417508e-08
0.96666667 	1.1028313 	0.00013005992 	-2.2490001e-08
0.97777778 	1.041379 	9.0633828e-05 	2.9134904e-09
0.98888889 	0.90470529 	5.6227837e-05 	-3.3639714e-09
