0.47777778 	8.1688448e-12 	-1.0366147e-15 	1.3796958e-18 	8.1536453e-12 	-6.8092122e-15 	1.9588206e-13
0.48888889 	3.4650013e-12 	-8.9889671e-18 	8.5028934e-20 	3.4593226e-12 	1.5868392e-16 	4.8609434e-13
0.5 	2.9006105e-12 	-3.1332638e-20 	8.3496235e-22 	2.8959312e-12 	-4.2164112e-15 	4.4594737e-13
0.51111111 	1.2576907e-12 	-5.1444921e-22 	1.8515802e-23 	1.2557651e-12 	-1.1574852e-14 	2.4753959e-13
0.52222222 	1.9972168e-13 	-1.2923575e-22 	-8.2680961e-28 	1.993745e-13 	-2.2124994e-16 	1.7599302e-14
0.53333333 	9.1116394e-14 	-8.1612492e-23 	2.2225681e-24 	9.0967364e-14 	-2.8089593e-16 	1.2937986e-14
0.54444444 	7.3791249e-14 	3.7264537e-21 	1.0622058e-22 	7.3670895e-14 	-1.7928278e-16 	1.0655077e-14
0.55555556 	1.0696841e-13 	6.0930037e-18 	1.0333105e-19 	1.0678344e-13 	6.2921842e-16 	9.667149e-15
0.56666667 	1.3748196e-11 	8.076498e-15 	1.2045845e-16 	1.372262e-11 	2.0303161e-13 	3.8605763e-14
0.57777778 	1.0697733e-08 	3.1303777e-10 	6.0718479e-12 	1.0693942e-08 	2.0696438e-10 	2.5912776e-11
0.58888889 	2.3763692e-07 	1.5126525e-08 	4.7787678e-10 	2.3785245e-07 	7.118583e-09 	5.0811868e-09
0.6 	3.2215796e-06 	2.0914581e-07 	7.5339756e-09 	3.2233144e-06 	1.1757782e-07 	1.3250549e-07
0.61111111 	1.9716942e-05 	1.3743046e-06 	3.2720839e-08 	1.9730025e-05 	4.3960407e-07 	2.2695932e-06
0.62222222 	7.9233559e-05 	5.8197255e-06 	2.9684918e-10 	7.9275292e-05 	-3.2377489e-09 	1.3827888e-06
0.63333333 	0.00025158565 	1.8714261e-05 	2.1061183e-07 	0.00025172527 	2.8288492e-06 	2.1154209e-05
0.64444444 	0.00049903729 	4.0061893e-05 	5.3577409e-07 	0.00049909923 	5.5222304e-06 	7.277374e-05
0.65555556 	0.00079876249 	6.9829017e-05 	4.2936893e-09 	0.00079821098 	-5.4089793e-08 	4.4553885e-05
0.66666667 	0.001084195 	0.00013147344 	1.2559301e-06 	0.0010814652 	5.3571898e-06 	0.00014287663
0.67777778 	0.0013358152 	0.00020979182 	1.1690896e-06 	0.0013291374 	2.2858246e-06 	0.00020044782
0.68888889 	0.0015379108 	0.00030207051 	7.359843e-07 	0.0015245414 	1.4390095e-06 	0.00020082031
0.7 	0.0016999628 	0.00040480929 	2.5579993e-06 	0.0016771728 	2.7339092e-06 	0.00024019759
0.71111111 	0.001847688 	0.00051464525 	1.7188625e-07 	0.0018142547 	1.8370662e-07 	0.00024045891
0.72222222 	0.0019778581 	0.00065787261 	4.40803e-06 	0.0019366164 	2.807612e-06 	0.00027486273
0.73333333 	0.0021048335 	0.00081082098 	9.1027376e-08 	0.0020573266 	5.7978178e-08 	0.00027509284
0.74444444 	0.0022285743 	0.00095234021 	3.5013099e-06 	0.0021834185 	2.9858198e-06 	0.0003083391
0.75555556 	0.0023518503 	0.0010774604 	-5.3955458e-12 	0.0023106805 	2.560046e-11 	0.00030830017
0.76666667 	0.0024892203 	0.0011473791 	1.7242711e-06 	0.0024557847 	3.6562051e-06 	0.00034409885
0.77777778 	0.0026311785 	0.0012170899 	1.8553511e-08 	0.0026042312 	3.6825743e-08 	4.1451294e-05
0.78888889 	0.002803769 	0.0012989718 	1.6648876e-06 	0.0027838384 	3.6692954e-06 	0.00038374601
0.8 	0.0029910825 	0.0013876968 	6.4115433e-07 	0.0029785946 	1.4166097e-06 	0.0004295906
0.81111111 	0.0032134171 	0.0014929917 	8.2620229e-07 	0.0032100202 	1.8254672e-06 	0.00043003176
0.82222222 	0.0034742807 	0.0015716005 	7.7092854e-07 	0.0034776771 	5.8586739e-06 	0.00048543033
0.83333333 	0.0037623498 	0.0016058012 	-4.9076386e-08 	0.0037682884 	7.1069443e-07 	0.00054812671
0.84444444 	0.0040836566 	0.0016087179 	-1.2300883e-07 	0.0040866836 	1.7813392e-06 	0.00054873366
0.85555556 	0.004411673 	0.0016353865 	2.1569477e-07 	0.0044120936 	5.5303543e-06 	0.00061124972
0.86666667 	0.0047313697 	0.0016706376 	2.7585586e-07 	0.004729711 	3.776702e-06 	0.00066725567
0.87777778 	0.0050348626 	0.0017110868 	1.2872917e-07 	0.0050309374 	1.2436491e-06 	0.00071544434
0.88888889 	0.0053210704 	0.0017560387 	3.100116e-09 	0.0053149575 	1.3975913e-08 	0.00062928195
0.9 	0.0055946448 	0.0018044085 	1.476667e-08 	0.0055868459 	7.0901553e-08 	0.00010469349
0.91111111 	0.0058519627 	0.001853144 	1.3422153e-08 	0.0058442248 	6.970552e-08 	0.00010548864
0.92222222 	0.006077927 	0.0019005239 	1.5740123e-10 	0.0060720649 	8.5749207e-10 	0.00084599248
0.93333333 	0.0062510326 	0.0019464067 	1.2811263e-07 	0.006245913 	3.148099e-07 	0.00087400704
0.94444444 	0.0063541047 	0.0019910274 	2.8412545e-07 	0.0063494859 	-1.7600143e-07 	0.00088447623
0.95555556 	0.0063705209 	0.0020356482 	4.2512087e-08 	0.006366447 	-1.6284579e-07 	0.00088690065
0.96666667 	0.0062619919 	0.002067215 	2.4435679e-08 	0.0062573972 	-2.0033439e-06 	0.00087147478
0.97777778 	0.0058612497 	0.002095085 	-3.5449278e-08 	0.0058558746 	-1.8800202e-06 	0.00080775426
0.98888889 	0.0047047043 	0.001981096 	-1.2121632e-06 	0.0046965192 	-4.6696977e-06 	0.00064511816
