/*--------------------------------*- C++ -*----------------------------------*\
  =========                 |
  \\      /  F ield         | OpenFOAM: The Open Source CFD Toolbox
   \\    /   O peration     | Website:  https://openfoam.org
    \\  /    A nd           | Version:  7
     \\/     M anipulation  |
\*---------------------------------------------------------------------------*/
FoamFile
{
    version     2.0;
    format      ascii;
    class       volScalarField;
    location    "2000";
    object      omega;
}
// * * * * * * * * * * * * * * * * * * * * * * * * * * * * * * * * * * * * * //

dimensions      [0 0 -1 0 0 0 0];

internalField   nonuniform List<scalar> 
15296
(
0.85606298
0.85306354
0.85013627
0.84728494
0.84450508
0.84179528
0.83915451
0.83658175
0.834076
0.83163621
0.82926127
0.82695002
0.82470131
0.82251398
0.82038682
0.81831871
0.81630761
0.81435292
0.81245338
0.8106078
0.80881518
0.8070746
0.80538536
0.80374711
0.80216019
0.80062628
0.79914999
0.79774174
0.7964278
0.79523622
0.79428473
0.7938328
0.79499922
0.79863007
0.82255641
0.84671549
1.2093363
2.3460122
0.85608913
0.85308858
0.85016333
0.84731316
0.84453432
0.84182548
0.8391856
0.83661366
0.83410867
0.83166958
0.82929526
0.82698457
0.82473634
0.82254943
0.82042265
0.8183549
0.81634413
0.81438977
0.81249054
0.81064527
0.80885293
0.8071126
0.80542358
0.80378548
0.80219864
0.80066471
0.79918825
0.79777956
0.79646481
0.79527159
0.79431631
0.79385294
0.79499568
0.79850593
0.82228347
0.84412772
1.249109
0.41214735
0.85614369
0.85314267
0.85022012
0.84737143
0.8445939
0.84188626
0.83924747
0.83667655
0.83417248
0.83173421
0.82936061
0.82705052
0.8248028
0.82261629
0.82048984
0.81842242
0.81641194
0.81445789
0.81255898
0.81071404
0.80892201
0.80718198
0.80549318
0.80385524
0.80226844
0.80073441
0.79925762
0.79784824
0.79653232
0.79533694
0.79437688
0.79389998
0.79501402
0.79839455
0.82190945
0.84113531
1.2816209
0.10714593
0.8562237
0.85322479
0.85030505
0.84745806
0.84468202
0.84197575
0.8393382
0.83676839
0.83426534
0.83182797
0.82945515
0.82714569
0.82489845
0.8227123
0.82058611
0.81851891
0.81650864
0.81455482
0.81265618
0.81081152
0.8090198
0.80728004
0.80559148
0.80395368
0.80236688
0.80083267
0.79935545
0.79794523
0.7966279
0.79543014
0.79446503
0.79397438
0.79505901
0.79832102
0.82152993
0.83873178
1.2919775
0.090763037
0.85632816
0.85333492
0.85041786
0.84757275
0.84479841
0.84209365
0.83945747
0.83688889
0.83438694
0.83195054
0.82957856
0.82726977
0.82502302
0.82283718
0.82071116
0.81864403
0.81663387
0.81468016
0.81278166
0.81093721
0.80914573
0.80740622
0.80571787
0.80408019
0.80249338
0.80095895
0.79948121
0.79807001
0.79675107
0.79555074
0.79458027
0.79407557
0.79512956
0.79828362
0.82111863
0.8372027
1.2871055
0.25862789
0.85649435
0.85351296
0.85059915
0.84775671
0.84498483
0.84228223
0.83964796
0.8370811
0.83458067
0.83214563
0.82977482
0.82746698
0.8252209
0.82303545
0.82090959
0.8188424
0.81683219
0.8148784
0.81297986
0.81113548
0.80934414
0.80760483
0.80591666
0.80427907
0.80269218
0.8011574
0.7996789
0.79826631
0.79694502
0.79574118
0.7947635
0.79424047
0.79525355
0.79828246
0.8205428
0.83642882
1.2681704
0.56080203
0.85677008
0.85380948
0.85089979
0.84806139
0.84529314
0.8425937
0.83996222
0.83739781
0.83489956
0.83246646
0.83009732
0.82779087
0.82554583
0.823361
0.82123534
0.81916801
0.81715755
0.81520334
0.81330437
0.81145962
0.80966802
0.8079285
0.80624011
0.80460221
0.8030148
0.80147915
0.79999924
0.79858441
0.79725942
0.79605071
0.79506321
0.79451646
0.79547455
0.79837159
0.81971395
0.83748114
1.2307994
0.80014679
0.85717448
0.85423026
0.85132777
0.84849512
0.84573165
0.84303632
0.84040842
0.83784716
0.83535166
0.83292096
0.83055393
0.82824928
0.82600562
0.82382169
0.82169638
0.81962884
0.81761791
0.81566285
0.81376287
0.8119171
0.81012454
0.80838412
0.80669484
0.80505596
0.80346736
0.80193014
0.80044804
0.79903006
0.79769989
0.79648523
0.79548587
0.79491198
0.79580437
0.79858532
0.81868732
0.84040179
1.1823979
0.99061135
0.85775549
0.85481281
0.85192355
0.84909904
0.84634184
0.84365185
0.8410286
0.83847137
0.83597933
0.8335516
0.83118718
0.82888479
0.82664297
0.8244603
0.82233558
0.82026784
0.81825626
0.81629981
0.81439807
0.81255037
0.81075585
0.80901348
0.80732225
0.80568136
0.80409055
0.80255072
0.80106532
0.79964295
0.79830588
0.79708371
0.79606995
0.79546508
0.79627901
0.79896459
0.81749776
0.84469809
1.126635
1.1734306
0.8585382
0.85561503
0.85274073
0.84992676
0.84717805
0.84449531
0.84187838
0.83932659
0.83683917
0.83441538
0.83205437
0.82975499
0.82751576
0.82533509
0.82321156
0.82114403
0.81913197
0.81717381
0.81526966
0.81341912
0.8116215
0.80987595
0.80818149
0.80653731
0.804943
0.80339927
0.8019092
0.80048091
0.79913515
0.79790333
0.7968721
0.79623173
0.7969518
0.7995614
0.81624174
0.84933707
1.0662934
1.363747
0.85958019
0.85670544
0.85384773
0.85104743
0.84831039
0.84563767
0.84302948
0.84048526
0.83800426
0.83558585
0.83322944
0.83093413
0.82869854
0.82652096
0.82439968
0.82233322
0.82032142
0.81836155
0.81645466
0.81460046
0.81279859
0.81104842
0.80934916
0.80770003
0.80610056
0.80455119
0.80305465
0.80161848
0.80026161
0.79901758
0.79796503
0.79728373
0.79789235
0.80043294
0.81509572
0.85344668
1.0103389
1.4885364
0.86100942
0.85815904
0.85532892
0.85254807
0.84982667
0.84716743
0.84457102
0.84203699
0.8395646
0.83715331
0.8348028
0.83251256
0.83028152
0.82810798
0.82598998
0.8239256
0.82191445
0.8199535
0.81804362
0.81618486
0.81437724
0.8126205
0.81091415
0.80925757
0.80765029
0.80609259
0.80458674
0.80313965
0.80176818
0.80050826
0.79942931
0.79870042
0.79917969
0.80163337
0.81430304
0.85623064
0.9670892
1.5335444
0.86290453
0.86009219
0.85729572
0.85453989
0.85183932
0.84919805
0.84661727
0.84409677
0.84163579
0.83923382
0.83689078
0.83460666
0.83238093
0.83021217
0.82809831
0.826037
0.82402682
0.82206595
0.82015306
0.81828891
0.81647392
0.81470824
0.81299182
0.81132439
0.8097056
0.80813563
0.80661633
0.80515393
0.80376298
0.80248197
0.8013699
0.80058486
0.80091696
0.80324461
0.81411151
0.85722629
0.93806712
1.5253196
0.86538457
0.86265187
0.85989149
0.85716712
0.85449486
0.85187814
0.84931866
0.84681664
0.84437143
0.84198247
0.83964977
0.83737381
0.8351548
0.83299199
0.83088353
0.82882683
0.82681942
0.82486045
0.82294534
0.82107608
0.81925301
0.81747662
0.81574741
0.81406561
0.81243119
0.81084435
0.80930661
0.80782346
0.80640705
0.8050983
0.80394478
0.80309276
0.80325941
0.80540781
0.81473991
0.85661416
0.92043948
1.4853715
0.86872423
0.86600454
0.86329252
0.86061329
0.85798001
0.85539672
0.85286619
0.85038945
0.84796616
0.84559565
0.84327784
0.84101347
0.83880355
0.83664836
0.83454682
0.83249648
0.83049418
0.82853871
0.82662425
0.82475173
0.82292116
0.82113333
0.81938929
0.81768986
0.81603547
0.81442655
0.81286442
0.81135383
0.80990457
0.80855919
0.80735391
0.80642138
0.80640511
0.80830064
0.81637108
0.85510477
0.90997805
1.432954
0.87387714
0.87121307
0.86856973
0.86595811
0.86338546
0.86085461
0.85836948
0.85593246
0.85354393
0.85120331
0.84891017
0.84666517
0.84446995
0.84232616
0.8402342
0.83819261
0.83619818
0.83424757
0.83233802
0.83046422
0.82862618
0.82682484
0.82506156
0.82333766
0.82165417
0.82001195
0.81841227
0.81685903
0.81535965
0.81395565
0.81267376
0.81162617
0.81137385
0.81286711
0.81971101
0.85337348
0.90310414
1.3641724
0.88147793
0.87893417
0.87639627
0.87387952
0.87139276
0.86893793
0.86651939
0.86414081
0.86180368
0.85950797
0.85725316
0.85503956
0.85286891
0.85074375
0.84866604
0.84663588
0.84465108
0.84270763
0.840803
0.83893144
0.83708717
0.83527277
0.83348894
0.83173665
0.83001716
0.82833159
0.82668113
0.82506841
0.82349973
0.8220023
0.82061809
0.8194171
0.81888537
0.81981633
0.8255392
0.85278709
0.9012745
1.2838567
0.89114981
0.88871616
0.88629031
0.88388079
0.88149449
0.87913086
0.87679365
0.87448728
0.87221426
0.86997529
0.86777004
0.86559849
0.86346206
0.86136356
0.85930604
0.85729119
0.8553183
0.85338419
0.85148451
0.84961659
0.84777048
0.84594771
0.84414658
0.84236752
0.84061172
0.83888023
0.83717387
0.83549364
0.83384513
0.83223524
0.83073457
0.82935929
0.82853607
0.82885149
0.83357081
0.85441075
0.90303217
1.2119354
0.90325253
0.90092244
0.89860988
0.89631349
0.89403673
0.89177535
0.88953127
0.88730887
0.88511122
0.88293966
0.88079416
0.87867443
0.87658135
0.87451753
0.8724865
0.87049125
0.86853271
0.86660912
0.86471644
0.86284964
0.86100537
0.85917777
0.85736041
0.85555529
0.85376284
0.85198332
0.85021661
0.84846173
0.8467225
0.84499375
0.84335688
0.8417842
0.84064928
0.84034147
0.84402288
0.85915998
0.90631486
1.1557057
0.91812578
0.91593196
0.9137472
0.91157094
0.90940951
0.90725738
0.90511471
0.90298524
0.90087206
0.89877676
0.89669952
0.89463987
0.8925981
0.89057626
0.88857788
0.8866067
0.88466508
0.88275286
0.88086719
0.87900268
0.87715707
0.87532171
0.8734917
0.87166126
0.86983171
0.86800246
0.86617178
0.86433621
0.86249647
0.86063969
0.85884736
0.85705769
0.85558613
0.8546928
0.85706437
0.86818195
0.90656448
1.1076505
0.93623342
0.9341866
0.93213857
0.93008914
0.92804886
0.92601218
0.92397784
0.92194883
0.91992786
0.91791649
0.91591495
0.91392261
0.91193926
0.90996626
0.90800676
0.90606471
0.90414346
0.90224426
0.90036569
0.89850342
0.89665248
0.89480598
0.89296134
0.89110985
0.88924372
0.8873645
0.88546765
0.88354719
0.88159949
0.87960878
0.87762452
0.87560907
0.87378441
0.87233627
0.87322583
0.88158631
0.90815218
1.0674907
0.95808375
0.95617076
0.95425939
0.95234189
0.95042871
0.94851321
0.94659248
0.94466886
0.94274477
0.94082165
0.93889976
0.93697837
0.93505693
0.93313622
0.93121883
0.92930854
0.92740913
0.92552291
0.92364976
0.92178667
0.9199285
0.91806856
0.91620006
0.91432038
0.91241834
0.91048962
0.90852191
0.90651132
0.9044491
0.90231636
0.90011363
0.89786381
0.89567492
0.89366504
0.89317088
0.89913967
0.91559108
1.0401257
0.98415036
0.98238378
0.98062499
0.9788522
0.97707412
0.97528402
0.97347855
0.97166032
0.96983213
0.96799557
0.96615103
0.96429784
0.96243532
0.96056388
0.95868563
0.95680398
0.95492274
0.9530448
0.95117101
0.94929956
0.94742604
0.94554396
0.94364569
0.94172346
0.93977389
0.93778382
0.93574204
0.93363709
0.93145423
0.92916403
0.92674647
0.92423743
0.921669
0.91907915
0.9173901
0.92095878
0.92932281
1.0265943
1.0150021
1.0134426
1.011862
1.0102422
1.008599
1.0069302
1.0052335
1.0035128
1.0017716
1.0000121
0.99823485
0.99643934
0.99462493
0.99279194
0.99094218
0.98907875
0.98720526
0.98532475
0.98343867
0.9815461
0.97964346
0.97772475
0.97578222
0.97380671
0.97178956
0.9697191
0.96758772
0.96537334
0.96305388
0.96059673
0.9579673
0.95513512
0.95218824
0.94901497
0.94632516
0.94711656
0.95168766
1.0128625
1.0516467
1.0502035
1.0487514
1.0472549
1.0457251
1.0441583
1.0425517
1.0409093
1.0392357
1.0375334
1.0358034
1.0340452
1.0322584
1.0304434
1.028602
1.0267372
1.0248522
1.0229502
1.0210327
1.0190993
1.0171472
1.0151709
1.0131627
1.011113
1.0090109
1.0068431
1.0045947
1.0022447
0.99976559
0.99712047
0.99426524
0.99108005
0.98774912
0.98399527
0.9803872
0.97853738
0.98116313
1.0113357
1.0947188
1.0934342
1.0921151
1.0907259
1.089283
1.0877873
1.0862378
1.08464
1.0829998
1.0813207
1.0796038
1.0778488
1.0760554
1.0742244
1.0723578
1.0704585
1.06853
1.0665751
1.0645955
1.0625908
1.0605586
1.0584938
1.0563889
1.054234
1.052017
1.0497229
1.0473333
1.0448227
1.0421597
1.0392918
1.0361763
1.0326702
1.0288722
1.0245443
1.0200473
1.0160477
1.0164454
1.0253686
1.1455275
1.1442922
1.1430267
1.1416813
1.1402686
1.1387898
1.1372436
1.1356366
1.1339761
1.1322665
1.1305091
1.1287038
1.1268505
1.1249505
1.1230063
1.1210213
1.1189989
1.1169422
1.1148525
1.1127297
1.1105713
1.1083724
1.1061256
1.1038208
1.1014451
1.0989818
1.09641
1.0937003
1.090816
1.0876959
1.0842821
1.0804357
1.076107
1.0712074
1.0658643
1.0600034
1.0582005
1.0530141
1.2052183
1.204001
1.2027403
1.2013786
1.1999284
1.198394
1.1967761
1.1950837
1.1933264
1.19151
1.1896363
1.1877054
1.1857175
1.1836744
1.1815796
1.1794371
1.1772509
1.1750241
1.1727582
1.1704529
1.1681056
1.1657113
1.1632626
1.1607489
1.1581569
1.1554685
1.1526605
1.1497
1.1465452
1.1431279
1.1393758
1.1351417
1.1303181
1.124724
1.1185636
1.1111013
1.1073292
1.0921484
1.275721
1.2744046
1.2730299
1.2715324
1.2699254
1.2682168
1.26641
1.2645167
1.2625494
1.2605154
1.2584169
1.2562536
1.2540258
1.2517362
1.2493892
1.2469899
1.2445432
1.2420524
1.2395193
1.2369435
1.2343222
1.23165
1.2289191
1.226119
1.2232352
1.2202488
1.2171345
1.2138564
1.2103677
1.2065939
1.202451
1.197776
1.1924513
1.1861126
1.1790863
1.170279
1.1646824
1.1425246
1.3594698
1.3578776
1.3562103
1.3543987
1.3524585
1.3504018
1.3482357
1.3459748
1.3436353
1.3412261
1.338749
1.3362029
1.3335878
1.3309073
1.3281672
1.325374
1.3225337
1.3196504
1.3167263
1.3137606
1.3107504
1.3076899
1.3045709
1.3013822
1.2981087
1.2947304
1.2912202
1.2875396
1.2836373
1.2794329
1.2748312
1.2696596
1.2637679
1.2567794
1.2487489
1.2387229
1.2315653
1.2042727
1.459756
1.4576308
1.4554191
1.4530483
1.4505357
1.4478963
1.4451401
1.4422856
1.4393531
1.4363538
1.4332883
1.4301538
1.42695
1.4236816
1.4203568
1.4169842
1.4135715
1.4101242
1.4066446
1.4031322
1.3995836
1.3959924
1.3923497
1.3886435
1.3848582
1.3809726
1.376958
1.3727733
1.3683631
1.363642
1.3585036
1.3527687
1.346253
1.3385896
1.3296459
1.3182456
1.3097617
1.2786021
1.5812859
1.5782775
1.5751774
1.5719124
1.5684994
1.5649539
1.5612876
1.5575239
1.5536894
1.5497982
1.5458499
1.5418389
1.5377647
1.5336344
1.52946
1.5252539
1.5210268
1.5167855
1.5125333
1.5082694
1.5039896
1.4996867
1.4953507
1.4909687
1.4865241
1.4819945
1.4773496
1.4725459
1.4675236
1.4621923
1.4564352
1.4500656
1.4428753
1.434478
1.4247403
1.4120683
1.4021236
1.3677762
1.7258543
1.7215702
1.7171728
1.7125959
1.7078606
1.702983
1.6979782
1.6928794
1.6877259
1.6825392
1.6773179
1.6720532
1.6667447
1.661404
1.6560492
1.6506987
1.6453671
1.6400636
1.6347915
1.6295492
1.6243309
1.6191274
1.613927
1.6087151
1.6034735
1.5981783
1.5927971
1.5872834
1.5815726
1.5755687
1.5691445
1.5621043
1.5542198
1.5450873
1.5345545
1.5209187
1.5097863
1.4722569
1.889123
1.8831289
1.8769603
1.8705729
1.8640066
1.8572855
1.8504343
1.8435053
1.8365613
1.8296369
1.8227293
1.8158242
1.8089206
1.8020353
1.7951945
1.7884239
1.7817425
1.7751607
1.7686809
1.7622986
1.7560049
1.749787
1.7436298
1.7375161
1.7314249
1.7253297
1.7191948
1.7129697
1.7065837
1.6999335
1.6928807
1.6852181
1.6767
1.6669008
1.6556721
1.64114
1.6294368
1.5888978
2.0680509
2.059924
2.0514592
2.0426909
2.0337202
2.0245982
2.0153686
2.0061132
1.9969291
1.9878668
1.9789173
1.9700546
1.9612732
1.9525947
1.9440538
1.9356833
1.9275058
1.9195311
1.9117579
1.904177
1.8967735
1.8895294
1.8824245
1.875437
1.868542
1.8617085
1.8548959
1.8480473
1.8410841
1.8338926
1.8263218
1.8181493
1.8091127
1.7987597
1.7869569
1.7716482
1.7595685
1.7163808
2.2653963
2.2541996
2.2425574
2.2306192
2.2185542
2.2064297
2.1942921
2.1822476
2.1704285
2.1588965
2.1476253
2.1365655
2.1257017
2.1150594
2.1046827
2.0946124
2.084873
2.0754717
2.0664006
2.0576422
2.0491732
2.0409675
2.0329974
2.0252347
2.0176479
2.0101996
2.0028415
1.9955073
1.9881068
1.9805126
1.9725572
1.9639992
1.9545575
1.9437494
1.9314606
1.915447
1.9031094
1.8571874
2.4846636
2.469119
2.4531426
2.4370796
2.4211593
2.4054229
2.3898749
2.374623
2.359829
2.3455564
2.3317442
2.3183062
2.3052111
2.2924891
2.2801974
2.2683862
2.2570818
2.2462847
2.2359765
2.2261268
2.2166989
2.2076545
2.1989553
2.190563
2.1824367
2.174529
2.16678
2.1591097
2.1514121
2.1435408
2.1353078
2.1264484
2.116661
2.1054296
2.0926619
2.0759221
2.0633319
2.0144479
2.7291964
2.7077121
2.6863826
2.6655409
2.6453112
2.6255985
2.6063013
2.5875175
2.5694557
2.5521906
2.5356219
2.5196198
2.5041384
2.4892199
2.4749419
2.4613677
2.4485229
2.4363958
2.4249484
2.4141287
2.403879
2.394142
2.3848631
2.3759894
2.3674662
2.3592315
2.351209
2.3432996
2.3353758
2.3272673
2.3187619
2.3095684
2.2993652
2.2876032
2.2742155
2.256582
2.2435632
2.191425
3.0037149
2.9763852
2.9494069
2.9232923
2.8981803
2.8738861
2.8502141
2.827288
2.8054108
2.7846911
2.7649844
2.7461062
2.7279932
2.710705
2.6943439
2.6789835
2.6646382
2.6512678
2.6387975
2.6271373
2.6161958
2.6058873
2.596134
2.5868633
2.5780023
2.5694694
2.5611668
2.5529708
2.544728
2.5362403
2.5272704
2.5175014
2.5065956
2.4939776
2.4796108
2.4607125
2.4468529
2.3911122
3.3199669
3.2855783
3.2516184
3.218922
3.187718
3.1577312
3.1286447
3.1006313
3.0741403
3.0493345
3.0260071
3.0038932
2.9828993
2.963099
2.9446139
2.9275121
2.9117701
2.8972879
2.8839245
2.8715298
2.8599641
2.8491057
2.83885
2.8291031
2.8197718
2.8107526
2.8019228
2.7931314
2.7841973
2.7748961
2.7649692
2.7540811
2.7418891
2.727803
2.7118251
2.6910448
2.6756661
2.6159092
3.6778263
3.6374464
3.5966976
3.5570836
3.5191798
3.4827466
3.447405
3.4134838
3.3816993
3.3523234
3.3250721
3.2995646
3.2756533
3.2534113
3.2329586
3.2143206
3.1973879
3.1819536
3.1677754
3.1546247
3.1423092
3.1306758
3.1196013
3.1089776
3.0986959
3.0886332
3.0786432
3.0685498
3.058149
3.0471979
3.0354295
3.0225036
3.0080896
2.9915988
2.973083
2.9495447
2.9317098
2.8674396
4.0980346
4.0474369
3.9966064
3.947555
3.9010341
3.8566561
3.8138338
3.7730579
3.7353848
3.701198
3.6700568
3.6413686
3.6148633
3.5905636
3.568531
3.5486778
3.5307375
3.5143452
3.499138
3.4848175
3.471165
3.458027
3.4452882
3.4328454
3.4205862
3.4083756
3.3960508
3.3834193
3.3702671
3.3563497
3.3414115
3.3251279
3.3072009
3.2870597
3.2648153
3.2374208
3.2159986
3.1466122
4.5832013
4.5207861
4.4580705
4.3978811
4.3413322
4.2879073
4.2367645
4.1886379
4.1450347
4.1064237
4.0720517
4.0409443
4.0125852
3.9868519
3.9636507
3.9426857
3.9234694
3.9054691
3.888243
3.8714949
3.8550564
3.8388365
3.8227709
3.8067865
3.7907815
3.7746183
3.7581286
3.7411191
3.7233867
3.7047088
3.6848653
3.663568
3.6405689
3.6153246
3.5880104
3.5555485
3.5293588
3.4541283
5.1504327
5.0729436
4.9955007
4.9218619
4.853639
4.7901721
4.7302618
4.6749185
4.6261284
4.5842736
4.5479757
4.5155976
4.4861897
4.459348
4.43471
4.4117073
4.3896543
4.3679607
4.3462653
4.3244333
4.3024708
4.280428
4.2583317
4.2361538
4.2138074
4.191158
4.1680434
4.1442888
4.1197262
4.0941784
4.0674809
4.0393926
4.009721
3.9779425
3.944294
3.9056453
3.8736991
3.7917662
5.8240038
5.7281387
5.6324424
5.5422289
5.4601997
5.3857633
5.3172181
5.2556791
5.2033403
5.1600165
5.1231903
5.0902131
5.0595163
5.0303046
5.0019108
4.9735867
4.9446814
4.9148568
4.8841282
4.8527424
4.8210063
4.7891602
4.7573225
4.7254906
4.6935731
4.6614296
4.6289092
4.5958698
4.5621937
4.5277598
4.4924591
4.4560867
4.4184874
4.3791265
4.3382869
4.2927073
4.2545081
4.1648747
6.6495482
6.5268905
6.4056372
6.2933238
6.1944665
6.1086566
6.0329993
5.9677008
5.9141052
5.8705766
5.8329759
5.7975333
5.7620958
5.725555
5.6871466
5.6463528
5.603093
5.5577867
5.5111848
5.4640975
5.4171715
5.3707889
5.3250742
5.2799648
5.2352997
5.1908942
5.1465906
5.1022714
5.057859
5.0132685
4.9684153
4.9230894
4.8771272
4.8299258
4.7817906
4.7291754
4.6849841
4.5864086
7.6796355
7.518497
7.3621167
7.2215771
7.104366
7.0099318
6.9319424
6.8667311
6.8126748
6.7661185
6.7218713
6.675859
6.6258905
6.5709389
6.5107003
6.4456526
6.3770452
6.3065896
6.2360074
6.1666564
6.0993529
6.0343858
5.9716528
5.91084
5.8515819
5.7935652
5.7365736
5.6804744
5.6251889
5.5706185
5.5166442
5.4629868
5.4094104
5.3551701
5.300569
5.241536
5.1924665
5.0830385
8.9911477
8.771112
8.5680819
8.3962295
8.2652598
8.1716825
8.0994553
8.0349836
7.9719706
7.90724
7.8381857
7.7628017
7.6797228
7.5883593
7.4894623
7.3853209
7.279185
7.1743381
7.0733432
6.9776914
6.8878264
6.8034106
6.72368
6.6477659
6.5749151
6.5045867
6.4364516
6.3703224
6.3060767
6.2435514
6.1825318
6.122605
6.0633912
6.0039306
5.9444986
5.880181
5.8280397
5.7041231
10.683184
10.386767
10.136484
9.9443603
9.8165197
9.7383592
9.6719105
9.5874722
9.4795661
9.3565353
9.2265249
9.092034
8.9514583
8.8032861
8.6490811
8.4934616
8.3421009
8.199669
8.0687626
7.9498672
7.8419379
7.7431545
7.6515638
7.5654902
7.4837181
7.4054931
7.3304164
7.2582831
7.1889378
7.1221354
7.0575144
6.9944714
6.9323985
6.8700636
6.8076651
6.7391174
6.6856416
6.5409664
12.627651
12.254379
11.981451
11.798785
11.690496
11.619581
11.519242
11.352012
11.134441
10.904052
10.684697
10.4784
10.276
10.070752
9.8643126
9.6643515
9.4791052
9.3135404
9.1684724
9.0416875
8.9296068
8.8285722
8.7355318
8.6482764
8.5654226
8.4862569
8.4105026
8.3380614
8.2687964
8.2023783
8.1382529
8.0755918
8.0134902
7.950468
7.886548
7.814473
7.7600374
7.5920272
14.63392
14.190099
13.937064
13.776466
13.653126
13.528627
13.328965
13.025106
12.666607
12.322859
12.027163
11.77069
11.529084
11.287991
11.049777
10.825779
10.626229
10.455149
10.310634
10.187629
10.080519
9.9845157
9.8960603
9.8127908
9.7333693
9.6572384
9.5843066
9.5146095
9.448034
9.3841652
9.3222643
9.2613019
9.2001196
9.1370239
9.071941
8.9963234
8.9412419
8.7466246
17.045389
16.581789
16.412825
16.239617
15.993587
15.709777
15.335449
14.847946
14.329321
13.880737
13.535546
13.259724
13.005183
12.749663
12.499153
12.270241
12.074521
11.913633
11.782138
11.672327
11.577298
11.491894
11.41257
11.337097
11.264346
11.194025
11.126294
11.061345
10.999071
10.938941
10.880002
10.821012
10.760549
10.696695
10.629304
10.548158
10.491331
10.260342
20.01134
19.602765
19.543346
19.200925
18.643494
18.101548
17.53097
16.869585
16.218716
15.710801
15.367855
15.1166
14.881558
14.63709
14.397303
14.184913
14.011461
13.874937
13.766416
13.676559
13.598364
13.527132
13.459753
13.394327
13.33005
13.266979
13.205573
13.146176
13.088648
13.032299
12.975924
12.918057
12.857
12.790569
12.71861
12.62858
12.568183
12.286937
23.659218
23.444608
23.340004
22.524881
21.494687
20.719947
20.045863
19.291771
18.578844
18.082725
17.805813
17.626272
17.444253
17.238227
17.033823
16.858976
16.723436
16.6213
16.541437
16.474618
16.415041
16.359119
16.304392
16.249362
16.193609
16.137602
16.082113
16.0276
15.973828
15.919889
15.864292
15.805315
15.740983
15.668739
15.58855
15.484498
15.418089
15.065555
28.366488
28.15081
27.516809
25.993884
24.598011
23.837166
23.267333
22.55078
21.869376
21.466891
21.320603
21.257269
21.161225
21.022042
20.87707
20.757092
20.669294
20.605382
20.55447
20.509468
20.466847
20.424429
20.380402
20.333649
20.284187
20.232931
20.180943
20.128715
20.075822
20.021079
19.962627
19.89846
19.826341
19.743141
19.649154
19.523519
19.44813
18.990897
34.370549
33.231917
31.565564
29.686185
28.479487
28.1613
27.958639
27.43783
26.90178
26.682028
26.726978
26.819227
26.840148
26.793857
26.726361
26.66961
26.629907
26.599823
26.571642
26.542106
26.510448
26.47578
26.436752
26.392617
26.343901
26.292002
26.238196
26.182872
26.125293
26.06389
25.99628
25.920243
25.833297
25.731394
25.61545
25.457695
25.369566
24.754745
41.369349
37.45947
35.439279
34.595401
34.479414
35.074965
35.525022
35.418837
35.194365
35.259153
35.544342
35.818838
35.977045
36.035077
36.044506
36.041089
36.034732
36.022373
36.001488
35.973282
35.939447
35.899867
35.853421
35.799818
35.74024
35.67657
35.610158
35.541085
35.468161
35.389272
35.302469
35.204667
35.092974
34.961854
34.813371
34.611292
34.504244
33.662258
46.871272
39.722805
40.756769
43.261012
45.295006
47.268815
48.758877
49.471482
49.837917
50.291588
50.836628
51.300216
51.59144
51.728772
51.778888
51.793362
51.789393
51.767732
51.730257
51.681787
51.625337
51.560671
51.486696
51.40386
51.31434
51.220593
51.123877
51.023701
50.91819
50.80455
50.68082
50.543104
50.388352
50.209044
50.008949
49.743599
49.598388
48.445615
43.836418
41.577161
52.177831
61.075627
66.902415
70.887343
74.148444
76.540074
77.937987
78.800975
79.556178
80.191838
80.555685
80.671859
80.671916
80.639765
80.590291
80.518956
80.428695
80.326142
80.213764
80.090115
79.954253
79.808162
79.655692
79.500074
79.342271
79.180855
79.01297
78.835044
78.644107
78.435861
78.207815
77.950027
77.669182
77.316056
77.083851
75.64215
29.772875
50.695088
76.44769
94.726918
107.89341
114.4944
120.47492
125.98581
128.75639
129.65237
130.38049
131.12085
131.40418
131.3351
131.17862
131.02972
130.87511
130.69928
130.50573
130.30066
130.0841
129.8535
129.60928
129.35576
129.09831
128.84029
128.58176
128.32025
128.05225
127.77404
127.4828
127.17436
126.8479
126.49209
126.11879
125.68242
125.31068
124.06787
20.985861
78.798779
122.10937
148.49637
179.24698
189.68645
198.9029
209.35209
214.15538
214.71945
215.11531
215.9432
216.00663
215.66555
215.32665
215.03935
214.7491
214.4344
214.10087
213.75351
213.39078
213.01135
212.61878
212.22009
211.82163
211.42616
211.03266
210.63801
210.23896
209.83292
209.41889
208.99482
208.56352
208.11595
207.67198
207.19633
206.71678
206.36352
87.462585
190.01149
343.49256
261.86562
355.7259
375.54149
384.45084
402.55724
412.4071
412.48138
411.30335
412.08311
411.55202
410.82898
410.30156
409.85304
409.38508
408.87781
408.33781
407.76917
407.17409
406.55951
405.93721
405.31877
404.7109
404.11467
403.52769
402.94761
402.37407
401.81038
401.26172
400.73791
400.24807
399.81092
399.43854
399.18232
398.90454
400.24311
1108.6608
787.29605
2095.0101
604.41389
1032.5925
1114.3775
1120.4884
1186.4368
1231.8133
1231.1927
1222.2642
1225.6625
1223.5289
1220.9556
1218.6096
1216.3078
1213.9856
1211.6347
1209.2582
1206.8605
1204.4494
1202.0369
1199.6355
1197.254
1194.8955
1192.5597
1190.2455
1187.9541
1185.6891
1183.4613
1181.2781
1179.1678
1177.127
1175.2414
1173.4242
1172.0014
1170.4002
1170.8785
14871.185
14489.886
14488.576
14440.514
14382.641
14351.456
14325.05
14294.08
14265.251
14240.654
14216.779
14191.876
14167.6
14143.508
14119.505
14095.571
14071.7
14047.89
14024.142
14000.456
13976.833
13953.276
13929.784
13906.359
13883.001
13859.709
13836.484
13813.326
13790.235
13767.214
13744.263
13721.389
13698.586
13675.881
13653.233
13630.755
13608.231
13585.974
14908.876
16022.442
17981.059
19573.445
20962.86
22207.131
23327.577
24336.311
25240.362
26044.524
26751.958
27364.828
27884.847
28314.008
28653.848
28906.382
29074.161
29160.188
29167.915
29101.214
28964.319
28761.765
28498.3
28178.814
27808.186
27392.088
940.22036
1501.5508
1237.6843
1735.9453
2141.451
2399.1344
2596.6772
2762.0185
2907.7777
3037.6461
3152.7197
3253.5184
3340.2595
3410.4024
3465.8106
3507.338
3535.1145
3549.4271
3550.7049
3539.5072
3516.4984
3482.4288
3438.0757
3384.2758
3321.5266
3250.8586
155.80689
328.70276
499.69443
692.38703
834.06263
928.14858
998.72373
1058.1315
1110.8954
1157.9672
1199.5314
1235.7445
1266.8004
1292.0234
1312.0288
1327.0343
1337.073
1342.2122
1342.5628
1338.2816
1329.5648
1316.6459
1299.7553
1279.1881
1254.9658
1227.5235
81.509638
105.86563
207.73475
336.68543
431.36102
494.01222
538.90591
575.77548
608.68851
638.49062
665.05541
688.18234
707.8156
723.7438
736.2475
745.53229
751.7
754.83543
755.03127
752.39913
747.07256
739.21178
728.98019
716.61575
702.23873
686.14999
44.222211
54.335303
96.906983
176.43725
248.52484
298.64429
332.77185
358.65803
380.83779
400.88366
418.99555
434.98478
448.66375
459.87925
468.69599
475.23252
479.58469
481.83711
482.07312
480.38384
476.87349
471.66628
464.89114
456.74358
447.37658
437.0042
15.443387
33.082468
48.547216
83.362137
129.68412
169.85734
199.88874
220.72137
236.63468
250.14769
262.17739
272.87026
282.13723
289.86711
296.02114
300.62808
303.74655
305.44627
305.79881
304.87769
302.76168
299.54193
295.31282
290.21946
284.41028
278.01289
8.8782795
24.881487
31.387875
43.401157
65.241602
92.714525
115.71469
134.15052
147.88107
158.34794
166.98001
174.43296
180.88894
186.35855
190.8102
194.22932
196.63275
198.06266
198.57341
198.22376
197.07475
195.19409
192.65072
189.54722
186.01212
182.1107
6.4104439
20.096351
24.018759
27.982593
36.740595
51.833615
68.616422
82.937363
94.948703
104.45485
111.78885
117.72773
122.69798
126.8805
130.32835
133.04988
135.05232
136.35798
137.00247
137.02896
136.48411
135.41946
133.8875
131.96231
129.75209
127.28247
5.086319
16.012504
19.471823
20.889304
24.100948
30.859382
41.074886
52.045148
61.49574
69.629244
76.483047
81.879261
86.18519
89.682194
92.524724
94.78879
96.511406
97.719847
98.442212
98.709414
98.554773
98.01582
97.132001
95.957427
94.583118
93.009531
4.2565734
12.471825
15.806745
16.660016
17.801557
20.578227
25.555854
32.492572
39.861882
46.341685
51.966784
56.861205
60.928166
64.188696
66.800643
68.880641
70.496992
71.695143
72.509533
72.969936
73.104381
72.942448
72.515067
71.86286
71.063419
70.099761
3.6538642
9.3813847
12.449753
13.55222
14.143905
15.262588
17.4842
21.031087
25.702187
30.68114
35.153928
39.091627
42.547186
45.540967
48.046717
50.089032
51.721832
52.991505
53.933832
54.578979
54.953805
55.084747
54.998456
54.727145
54.337744
53.800545
3.1771023
6.7564863
9.6569666
11.120116
11.690995
12.198377
13.156466
14.836596
17.301627
20.431421
23.743674
26.871536
29.642117
32.108419
34.295203
36.190644
37.783549
39.083664
40.112575
40.892797
41.445857
41.793569
41.958321
41.965853
41.87427
41.646069
2.7774513
5.2341207
7.7579712
9.2343305
9.8577694
10.18707
10.604382
11.362093
12.580722
14.272161
16.324471
18.521541
20.654975
22.623558
24.405399
26.006664
27.423499
28.645611
29.668908
30.498965
31.147239
31.628208
31.958345
32.156785
32.273211
32.264494
2.4580263
4.196946
6.4101378
7.7385538
8.4054454
8.6972709
8.903422
9.2257563
9.7873329
10.640763
11.770567
13.100784
14.535487
15.969762
17.338328
18.612766
19.779303
20.827517
21.749295
22.540459
23.201158
23.736243
24.15476
24.468737
24.719145
24.859041
2.1952795
3.4742804
5.3898586
6.5462756
7.2099934
7.4996745
7.6452879
7.7873791
8.0277251
8.4271117
9.0050449
9.7429168
10.600049
11.523512
12.467068
13.393554
14.277351
15.102742
15.858901
16.537763
17.134264
17.6472
18.079399
18.436274
18.749962
18.972189
1.948405
2.8881384
4.4391046
5.4109095
6.0006195
6.3164767
6.4634279
6.5422144
6.6227182
6.7574905
6.9785345
7.2960299
7.703071
8.1812186
8.7080481
9.2613138
9.821673
10.373451
10.90407
11.403897
11.865942
12.285753
12.661907
12.994448
13.306378
13.551379
1.7308163
2.4263841
3.5662441
4.3735992
4.8996875
5.2510419
5.4379792
5.5274733
5.5743082
5.616952
5.6840923
5.7937099
5.9531638
6.1609747
6.4100819
6.6906747
6.9923163
7.3052552
7.6208938
7.9319919
8.2326755
8.5185152
8.7871458
9.036679
9.2828558
9.4877311
1.5721761