/*--------------------------------*- C++ -*----------------------------------*\
| =========                 |                                                 |
| \\      /  F ield         | OpenFOAM: The Open Source CFD Toolbox           |
|  \\    /   O peration     | Version:  2.4.0                                 |
|   \\  /    A nd           | Web:      www.OpenFOAM.org                      |
|    \\/     M anipulation  |                                                 |
\*---------------------------------------------------------------------------*/
FoamFile
{
    version     2.0;
    format      ascii;
    class       volSymmTensorField;
    location    "2000";
    object      R;
}
// * * * * * * * * * * * * * * * * * * * * * * * * * * * * * * * * * * * * * //

dimensions      [0 2 -2 0 0 0 0];

internalField   nonuniform List<symmTensor> 
15296
(
(0.0063125144 6.5736145e-07 1.4241604e-15 0.0063138417 -1.8863467e-13 0.0063148394)
(0.0062867502 1.639107e-06 -1.6924559e-15 0.0062943394 -2.5760198e-13 0.0062982656)
(0.0062623439 1.6895281e-06 -6.7036493e-15 0.0062725235 -2.6818584e-13 0.0062778066)
(0.0062400187 1.6826522e-06 -2.1823374e-15 0.0062523482 -2.6872514e-13 0.0062587739)
(0.0062198306 1.6320197e-06 -1.8843738e-15 0.0062338518 -2.6230584e-13 0.0062411691)
(0.006201801 1.5659789e-06 1.6200522e-15 0.006216744 -3.0208184e-13 0.0062245176)
(0.0061856001 1.4855332e-06 6.5501849e-15 0.0062008517 -1.8749743e-14 0.0062087257)
(0.0061709229 1.3236871e-06 -5.1403288e-14 0.0061860375 -1.9254996e-12 0.006193748)
(0.0061575771 9.2521779e-07 2.3783611e-13 0.0061721714 9.6616208e-12 0.0061794893)
(0.0061454006 7.5898991e-08 -6.8680415e-13 0.0061591448 -5.037591e-11 0.006165882)
(0.0061341687 -1.3164292e-06 -6.0623501e-13 0.0061468939 1.7606641e-10 0.0061529906)
(0.00612352 -2.8269654e-06 1.0920359e-11 0.0061354327 -1.8525461e-10 0.0061410826)
(0.0061130751 -3.4029715e-06 -1.8790522e-13 0.0061248249 -1.8212027e-09 0.006130434)
(0.0061028918 -2.2688214e-06 -1.7790564e-10 0.0061150077 7.0656912e-09 0.0061208197)
(0.0060937357 -3.2177929e-07 4.7448956e-10 0.0061056716 2.273711e-08 0.006111297)
(0.006086427 -2.7137657e-07 3.4659921e-09 0.0060964739 -1.2254475e-07 0.0061008591)
(0.0060812934 -4.8879758e-06 2.6170396e-08 0.0060871426 -7.8611147e-07 0.0060891304)
(0.0060788619 -1.5026631e-05 1.4774021e-07 0.0060772543 -1.8692279e-06 0.0060761901)
(0.0060802365 -2.9461666e-05 3.751569e-07 0.0060663394 -2.4803499e-06 0.0060621981)
(0.006086565 -4.6401556e-05 5.0720569e-07 0.0060542966 -2.1150822e-06 0.0060473565)
(0.0060988872 -6.4795699e-05 4.4587895e-07 0.006041345 -1.3160196e-06 0.006031781)
(0.0061184402 -8.4453379e-05 3.3152205e-07 0.006027644 -7.3636474e-07 0.0060153991)
(0.0061467198 -0.00010559127 2.8331719e-07 0.0060132068 -4.8637182e-07 0.0059980477)
(0.0061853184 -0.00012848626 2.9299601e-07 0.0059980188 -3.9600902e-07 0.0059795945)
(0.0062359867 -0.00015348895 3.1949083e-07 0.0059819372 -3.4400566e-07 0.0059597402)
(0.0063051721 -0.00018386428 3.4812661e-07 0.0059619182 -2.898089e-07 0.0059338903)
(0.0065205393 -0.0002908277 3.7466906e-07 0.0058595274 -1.5377416e-07 0.0058123501)
(0.007584823 -0.00089422494 1.5080813e-07 0.005418857 -7.8130284e-08 0.0053112718)
(0.0077997839 -0.0010267499 4.6951653e-08 0.0055392199 -3.9473937e-08 0.0054297521)
(0.0089417237 -0.0016548315 1.8837141e-08 0.0060341815 -3.5502691e-08 0.0057732458)
(0.011490086 -0.002469155 5.0763329e-09 0.0074951488 -1.9600716e-08 0.0070558645)
(0.018687404 -0.0042902453 2.2662934e-09 0.01235561 -1.3160204e-10 0.01175667)
(0.03635618 -0.0054815984 6.7427734e-07 0.025387551 -5.77936e-07 0.024756853)
(0.063576246 -0.0055085524 -8.9280892e-05 0.04593863 2.6981388e-05 0.045544146)
(0.091025861 -0.0061245049 -0.0044864783 0.07286364 0.00062247792 0.070133985)
(0.12355463 -0.011941337 0.0053144096 0.094112127 -0.0015066092 0.088781152)
(0.18797255 -0.012591136 0.006601884 0.1505069 -0.0060331278 0.13370975)
(0.61123984 -0.018761166 0.00096839962 0.53700918 -0.0023581532 0.51295772)
(0.0063133257 2.0601919e-06 8.578423e-16 0.0063142705 -6.6140477e-14 0.0063145416)
(0.0062856077 3.9254645e-06 -1.6168275e-15 0.0062945214 -9.0756744e-14 0.0062946911)
(0.0062608543 4.2615863e-06 -2.1203056e-15 0.0062729191 -9.3839539e-14 0.0062731109)
(0.0062382209 4.4345399e-06 -2.2481772e-15 0.0062528793 -9.3558173e-14 0.0062531094)
(0.0062178061 4.5167218e-06 -2.0286474e-15 0.0062345092 -9.1345472e-14 0.0062347702)
(0.0061996873 4.551329e-06 -3.5728239e-15 0.0062174996 -1.0360124e-13 0.0062177754)
(0.0061835009 4.5411962e-06 6.6390351e-15 0.0062016766 -1.1336234e-14 0.0062019528)
(0.0061689031 4.3762903e-06 -5.4499926e-14 0.0061869138 -6.488825e-13 0.0061871763)
(0.0061556759 3.7898034e-06 2.5745513e-13 0.0061730925 3.3127982e-12 0.0061733256)
(0.0061436419 2.4016766e-06 -8.4066153e-13 0.0061601114 -1.7591249e-11 0.0061603021)
(0.0061325805 2.080731e-08 2.7460814e-13 0.006147893 6.252184e-11 0.0061480456)
(0.0061221292 -2.6723955e-06 9.7942976e-12 0.0061364173 -6.9192323e-11 0.0061365677)
(0.006111811 -3.8725427e-06 -1.4380074e-11 0.006125763 -6.3637425e-10 0.0061259609)
(0.0061016073 -2.1113393e-06 -1.3802017e-10 0.0061159333 2.5263731e-09 0.006116185)
(0.0060925015 1.271907e-06 4.9046149e-10 0.0061066113 7.9293256e-09 0.0061068375)
(0.0060854495 1.6278975e-06 2.7228761e-09 0.006097488 -4.3496937e-08 0.0060975506)
(0.0060809632 -6.0519057e-06 1.6183109e-08 0.0060882529 -2.7757377e-07 0.0060880493)
(0.0060815386 -2.3490765e-05 9.1240996e-08 0.0060775104 -6.6023925e-07 0.0060770715)
(0.0060920814 -4.8704279e-05 2.3338212e-07 0.006062879 -8.7583318e-07 0.0060623862)
(0.0061169621 -7.8641661e-05 3.0925696e-07 0.0060426235 -7.4398984e-07 0.0060423356)
(0.006158943 -0.00011146615 2.5752014e-07 0.0060160767 -4.5822597e-07 0.006016254)
(0.0062205266 -0.00014681231 1.7849257e-07 0.005982815 -2.5342651e-07 0.0059837125)
(0.0063047514 -0.00018505558 1.5095949e-07 0.0059422017 -1.69137e-07 0.0059440953)
(0.006414931 -0.00022670678 1.6404183e-07 0.0058935158 -1.4288537e-07 0.0058967158)
(0.0065547695 -0.0002723403 1.8838892e-07 0.0058358963 -1.3019169e-07 0.0058407215)
(0.0067401934 -0.00032667834 2.1459641e-07 0.0057632202 -1.1728784e-07 0.0057695068)
(0.0072581626 -0.0004712409 2.0364743e-07 0.0055477787 -7.8421745e-08 0.0055555648)
(0.0075671438 -0.00092091343 5.6459929e-09 0.0054299252 -2.2793991e-08 0.0054391001)
(0.0077220456 -0.00095531966 -4.6926829e-09 0.0055416653 -7.3282013e-09 0.0055589788)
(0.0086540356 -0.0015915148 -8.7391819e-09 0.0060216211 -4.5560542e-09 0.0060347258)
(0.011826864 -0.0048170685 -9.7567282e-09 0.0070974025 -4.7191881e-09 0.0069916541)
(0.01891272 -0.0083603943 2.1585074e-09 0.011628589 6.0458384e-09 0.011514137)
(0.036866764 -0.012447517 6.3603708e-08 0.024101511 -5.0573038e-07 0.024065583)
(0.065290111 -0.016279358 -2.644387e-05 0.044131486 2.8029869e-05 0.044228412)
(0.098774218 -0.018840462 -0.0013866549 0.066863147 0.0012895206 0.066819676)
(0.13220677 -0.024397116 0.0017131805 0.0870162 -0.0016378397 0.086747761)
(0.19843996 -0.023453123 0.0041284206 0.130892 -0.002742664 0.13001471)
(0.63901724 -0.035503324 -7.914687e-05 0.51009336 -0.00039504394 0.49402883)
(0.0063148227 4.1842808e-06 -6.9058403e-16 0.0063152816 -3.6982079e-14 0.0063155186)
(0.0062872233 6.3976784e-06 -1.8115936e-15 0.0062961655 -5.4268173e-14 0.0062961522)
(0.0062628937 7.0532876e-06 -2.3431551e-15 0.0062751061 -5.6549887e-14 0.0062750356)
(0.006240577 7.3918535e-06 -2.4989447e-15 0.0062554553 -5.6493226e-14 0.0062553617)
(0.0062203897 7.5811014e-06 -2.2747657e-15 0.0062373664 -5.5202496e-14 0.0062372586)
(0.0062023862 7.6921392e-06 -4.9224935e-15 0.0062204942 -6.300738e-14 0.00622038)
(0.0061862244 7.7402701e-06 7.8722233e-15 0.0062046979 -2.6392162e-15 0.0062045803)
(0.0061715726 7.6115405e-06 -5.7320371e-14 0.0061898874 -4.2512116e-13 0.0061897628)
(0.0061582023 7.0053411e-06 2.6463721e-13 0.0061759669 2.2211288e-12 0.0061758253)
(0.0061459272 5.466394e-06 -8.9605745e-13 0.0061628565 -1.1714656e-11 0.0061626883)
(0.0061345774 2.7050405e-06 6.3649367e-13 0.0061505029 4.1091877e-11 0.0061503168)
(0.0061239462 -6.1140832e-07 8.5284573e-12 0.0061389097 -4.2251119e-11 0.0061387506)
(0.0061136839 -2.4379043e-06 -1.4949695e-11 0.0061281823 -4.2868983e-10 0.0061281077)
(0.0061036468 -8.554327e-07 -1.1873093e-10 0.0061183271 1.6218929e-09 0.0061183379)
(0.0060945388 3.0137994e-06 4.2268754e-10 0.0061089141 5.4139251e-09 0.0061089101)
(0.0060870099 3.9933936e-06 2.0070201e-09 0.0060995098 -2.7104346e-08 0.0060993291)
(0.0060813562 -4.1311191e-06 1.0903044e-08 0.0060898277 -1.7649225e-07 0.0060893614)
(0.0060811054 -2.4200173e-05 6.7756608e-08 0.0060780984 -4.1797138e-07 0.0060774214)
(0.0060942317 -5.4564246e-05 1.7872919e-07 0.0060605991 -5.4911389e-07 0.0060600077)
(0.0061286219 -9.1830931e-05 2.3280996e-07 0.0060339118 -4.5956138e-07 0.0060338357)
(0.0061892543 -0.00013372398 1.7895739e-07 0.0059962063 -2.7531206e-07 0.0059971112)
(0.0062796883 -0.00017971433 1.0484241e-07 0.0059463995 -1.451472e-07 0.0059487743)
(0.0064036376 -0.00023029987 7.7519498e-08 0.0058833665 -9.2801647e-08 0.0058877573)
(0.0065649512 -0.00028625941 8.4882754e-08 0.0058059705 -7.7398066e-08 0.0058130019)
(0.0067676523 -0.00034849609 1.0007697e-07 0.0057129741 -7.006745e-08 0.005723316)
(0.007026059 -0.00042200769 1.111388e-07 0.0055977531 -6.1427935e-08 0.0056115621)
(0.0074519065 -0.0006012166 5.8081289e-08 0.0054059515 -3.8596505e-08 0.0054193955)
(0.0075150947 -0.00093078316 -1.2063007e-08 0.0054182925 -1.0190419e-08 0.0054245608)
(0.0076610039 -0.00094266711 -1.0090545e-08 0.0055164968 -2.934516e-09 0.005532574)
(0.0084511775 -0.0014636106 -9.8914554e-09 0.0059663677 -9.6881702e-10 0.0059858339)
(0.011539256 -0.0049356303 -1.1929461e-08 0.0069397335 -7.0861593e-10 0.0068644218)
(0.018109777 -0.0085104716 -6.1165231e-10 0.011130472 1.1689353e-08 0.011033264)
(0.035308378 -0.013091257 7.7413313e-08 0.022883568 -3.6754276e-07 0.022897417)
(0.063272655 -0.018325891 -1.033983e-05 0.042128435 1.0571228e-05 0.042337824)
(0.097186573 -0.023010938 -0.00042673852 0.064647084 0.0005036516 0.06477974)
(0.12751518 -0.025140681 0.00063875203 0.085094767 -0.00060508036 0.085156871)
(0.19166156 -0.026792835 0.0021634996 0.12573316 -0.001563148 0.1257435)
(0.6486102 -0.038936742 1.3225853e-05 0.50309642 -0.00021290897 0.4949861)
(0.0063161546 6.7547191e-06 -1.9352201e-16 0.0063161434 -2.1768045e-14 0.0063163756)
(0.0062878939 8.9767232e-06 -1.8046038e-15 0.0062962068 -3.5573582e-14 0.0062963463)
(0.0062635451 9.8931484e-06 -1.6844389e-15 0.0062750525 -3.7862889e-14 0.0062751734)
(0.0062412111 1.0371223e-05 -2.499369e-15 0.0062553192 -3.8064643e-14 0.0062554477)
(0.0062210011 1.0644752e-05 -2.9231344e-15 0.0062371592 -3.7159439e-14 0.0062372988)
(0.0062029956 1.0813357e-05 -3.4375981e-15 0.0062202566 -4.3715581e-14 0.0062204025)
(0.0061868476 1.090686e-05 7.567865e-15 0.0062044661 7.0122436e-15 0.0062046096)
(0.0061722106 1.0823405e-05 -6.0062275e-14 0.0061896941 -3.4441991e-13 0.0061898204)
(0.006158836 1.0265374e-05 2.7521632e-13 0.0061758532 1.8247292e-12 0.0061759393)
(0.0061465118 8.7519284e-06 -9.4026053e-13 0.006162873 -9.3139086e-12 0.006162896)
(0.00613506 5.9131901e-06 9.4756441e-13 0.0061506828 3.1261783e-11 0.0061506484)
(0.0061243334 2.2978161e-06 7.0477988e-12 0.0061392096 -2.5296851e-11 0.0061391848)
(0.0061140912 -6.250651e-08 -1.4281608e-11 0.0061284643 -3.4831868e-10 0.0061285509)
(0.0061041816 1.0183701e-06 -9.5732334e-11 0.0061184894 1.166572e-09 0.006118713)
(0.0060951723 4.8627597e-06 3.6160746e-10 0.0061090441 4.5041051e-09 0.0061092597)
(0.0060876004 6.4439102e-06 1.369182e-09 0.0060998828 -1.8671719e-08 0.0060998147)
(0.0060814794 -1.0042968e-06 6.5121956e-09 0.0060908872 -1.2960881e-07 0.0060903046)
(0.0060802671 -2.1340129e-05 4.9906535e-08 0.0060802172 -3.0989674e-07 0.0060791378)
(0.0060933554 -5.3670969e-05 1.4165086e-07 0.0060632973 -4.0822977e-07 0.0060620539)
(0.0061313875 -9.4740964e-05 1.8809856e-07 0.0060352504 -3.4156623e-07 0.0060343753)
(0.0062017689 -0.00014207692 1.3861713e-07 0.0059930136 -2.0219057e-07 0.0059930991)
(0.0063093961 -0.00019502036 6.6774103e-08 0.0059348433 -1.0193575e-07 0.0059365068)
(0.0064585882 -0.00025413833 3.4821107e-08 0.0058593203 -6.0643483e-08 0.0058632396)
(0.0066534022 -0.00032040352 3.4112715e-08 0.0057652088 -4.8134928e-08 0.0057721519)
(0.0068975701 -0.00039488673 3.9846195e-08 0.0056514604 -4.1938404e-08 0.0056622558)
(0.0071971247 -0.00048014801 3.8043161e-08 0.0055160524 -3.4135853e-08 0.0055310369)
(0.007449459 -0.00066365143 -1.061469e-08 0.0054129833 -1.8216674e-08 0.0054218779)
(0.0075098428 -0.00094837575 -2.1111167e-08 0.0054311474 -6.8895362e-09 0.0054236993)
(0.0076349928 -0.00092982846 -1.3281317e-08 0.0055073075 -1.9657641e-09 0.0055119773)
(0.0082775755 -0.0012888547 -1.0120426e-08 0.0059000704 -1.4396342e-10 0.0059146422)
(0.010995779 -0.0044568629 -1.159935e-08 0.0069030985 2.4277558e-10 0.0068262575)
(0.017126858 -0.0087604485 -4.4944715e-09 0.010587458 1.8317764e-08 0.010418496)
(0.033243005 -0.013720964 1.1914648e-07 0.021531205 -3.4521925e-07 0.021450213)
(0.060528832 -0.020161952 -5.3304119e-06 0.04013556 4.893528e-06 0.040206293)
(0.094283227 -0.026222338 -0.00016199508 0.062357915 0.00023591172 0.062357767)
(0.12243864 -0.025630209 0.00031962254 0.082781088 -0.00030134643 0.0826387)
(0.18162817 -0.028351274 0.0012330891 0.11879023 -0.00096100812 0.11886561)
(0.64012887 -0.039646199 0.00012641826 0.4885195 -0.00016019359 0.48413947)
(0.0063179567 9.6135921e-06 -3.1516044e-16 0.0063174062 -1.2985206e-14 0.0063175859)
(0.0062892867 1.1758792e-05 -2.1913273e-15 0.0062969614 -2.4258031e-14 0.006297098)
(0.0062650454 1.2819846e-05 -2.7046855e-15 0.0062758947 -2.6753146e-14 0.0062759887)
(0.0062428021 1.3401815e-05 -2.3892354e-15 0.0062562316 -2.7200638e-14 0.0062563162)
(0.0062226524 1.374153e-05 -2.1192616e-15 0.0062381153 -2.6447476e-14 0.0062382008)
(0.0062046891 1.39539e-05 -4.6848473e-15 0.0062212415 -3.2931141e-14 0.0062213284)
(0.0061885684 1.4081657e-05 8.3388727e-15 0.0062054705 1.5152639e-14 0.0062055529)
(0.0061739398 1.4042579e-05 -6.2318451e-14 0.0061907166 -3.0762135e-13 0.0061907795)
(0.0061605418 1.3564827e-05 2.8250697e-13 0.0061769039 1.6168679e-12 0.0061769209)
(0.0061481404 1.2180626e-05 -9.6944407e-13 0.0061639759 -7.8493389e-12 0.006163918)
(0.0061365444 9.4729177e-06 1.2206998e-12 0.0061518667 2.4613041e-11 0.0061517372)
(0.0061256538 5.8337666e-06 5.6430274e-12 0.0061404707 -1.1851362e-11 0.0061403484)
(0.0061153616 3.1170971e-06 -1.4838055e-11 0.006129725 -2.9967196e-10 0.0061297392)
(0.0061055673 3.5835121e-06 -6.8388241e-11 0.0061196558 8.4286746e-10 0.0061198526)
(0.00609666 7.0352184e-06 3.2110489e-10 0.0061101412 3.9725311e-09 0.0061103537)
(0.0060889909 9.007228e-06 8.3794669e-10 0.0061010567 -1.2872576e-08 0.0061009402)
(0.0060822767 2.7654747e-06 2.70978e-09 0.0060924315 -9.9664327e-08 0.0060916736)
(0.0060792898 -1.6235989e-05 3.3922019e-08 0.0060827363 -2.4456899e-07 0.0060813016)
(0.0060893292 -4.7969163e-05 1.1019051e-07 0.0060674126 -3.284546e-07 0.0060656282)
(0.0061244865 -8.9621885e-05 1.5698823e-07 0.0060408513 -2.8084666e-07 0.0060392855)
(0.0061943259 -0.00013873906 1.2073189e-07 0.0059989128 -1.6971462e-07 0.0059982158)
(0.006305467 -0.00019458987 5.5771622e-08 0.0059389884 -8.527251e-08 0.0059398426)
(0.0064633589 -0.00025778877 2.0005393e-08 0.005859079 -4.7859507e-08 0.0058622359)
(0.0066728197 -0.00032948029 1.1722855e-08 0.0057575462 -3.5242742e-08 0.0057638643)
(0.0069378209 -0.0004108465 9.7141296e-09 0.0056331916 -2.8698426e-08 0.0056436329)
(0.0072559791 -0.00050122544 2.2050133e-10 0.0054879382 -2.1125457e-08 0.0055032464)
(0.0074433464 -0.00067936266 -3.0787223e-08 0.0054154235 -1.0837744e-08 0.005423723)
(0.0075067287 -0.00095684952 -2.7488197e-08 0.0054277962 -6.6154509e-09 0.0054122118)
(0.0076128358 -0.00092133733 -1.6042721e-08 0.0054910851 -2.1726881e-09 0.0054821787)
(0.0080986309 -0.0011013866 -1.0205158e-08 0.0058070009 -1.3745278e-10 0.0058174397)
(0.010375072 -0.0037946092 -1.0331285e-08 0.0068125022 3.0700714e-10 0.0067414469)
(0.015970882 -0.0088823877 -8.6266124e-09 0.0099142173 2.4294203e-08 0.009671535)
(0.030604406 -0.014007704 1.4286161e-07 0.019780401 -3.2492901e-07 0.019629971)
(0.056786963 -0.021455738 -3.2849656e-06 0.037412021 2.4314415e-06 0.03744286)
(0.090250005 -0.028907153 -7.8534297e-05 0.059550646 0.00013665167 0.059392159)
(0.11657446 -0.025664488 0.00018536853 0.079281448 -0.00017338085 0.078963681)
(0.17000156 -0.028720304 0.00077541724 0.11106 -0.00063744771 0.11081876)
(0.62220332 -0.039619789 0.00020623594 0.47138194 -0.00013861962 0.46845642)
(0.0063206732 1.3638043e-05 -5.8297267e-16 0.0063191476 -6.9429847e-15 0.006319301)
(0.0062916329 1.5684379e-05 -1.7650381e-15 0.0062981388 -1.5329768e-14 0.0062983271)
(0.0062675332 1.6742273e-05 -1.7337419e-15 0.0062772112 -1.7899581e-14 0.0062773393)
(0.0062454203 1.7388239e-05 -2.2052364e-15 0.0062576523 -1.8724436e-14 0.0062577636)
(0.0062253615 1.7782298e-05 -1.6338322e-15 0.0062396001 -1.8009957e-14 0.0062397109)
(0.0062074626 1.803069e-05 -4.15681e-15 0.0062227706 -2.4857272e-14 0.0062228821)
(0.0061913842 1.8186893e-05 8.4951038e-15 0.0062070294 2.118196e-14 0.0062071356)
(0.0061767746 1.8200093e-05 -6.2544307e-14 0.0061922969 -2.6934725e-13 0.0061923811)
(0.0061633654 1.7859254e-05 2.7305735e-13 0.0061785073 1.3517293e-12 0.0061785381)
(0.006150907 1.6769127e-05 -9.2077413e-13 0.0061656176 -6.0379853e-12 0.0061655578)
(0.0061391855 1.4516755e-05 1.2874145e-12 0.0061535776 1.6735661e-11 0.0061534236)
(0.0061281131 1.1281052e-05 4.485691e-12 0.0061422756 1.9561632e-12 0.0061421125)
(0.0061177091 8.4877916e-06 -1.6778156e-11 0.0061315792 -2.3397177e-10 0.0061315645)
(0.0061079952 8.1731651e-06 -3.7882401e-11 0.0061214458 4.8127468e-10 0.0061216586)
(0.0060991822 1.0663098e-05 2.837819e-10 0.0061118427 3.2000568e-09 0.0061121117)
(0.0060913837 1.2679443e-05 4.0746977e-10 0.0061027838 -6.9313519e-09 0.0061026982)
(0.0060840696 8.4185662e-06 -9.1411839e-10 0.0060944481 -6.8045024e-08 0.006093593)
(0.0060786184 -6.8456457e-06 1.4078325e-08 0.0060859877 -1.7775132e-07 0.0060842327)
(0.0060819557 -3.4131213e-05 6.5484915e-08 0.0060739592 -2.5159734e-07 0.0060715725)
(0.0061050213 -7.154009e-05 1.1073519e-07 0.0060532512 -2.2880097e-07 0.0060507799)
(0.0061582429 -0.00011688246 1.0004051e-07 0.0060192537 -1.4909412e-07 0.0060173451)
(0.0062499424 -0.00016927694 5.6590156e-08 0.0059684991 -8.0358673e-08 0.0059678328)
(0.0063872351 -0.00022915195 2.4266947e-08 0.0058981551 -4.5138418e-08 0.0058994766)
(0.0065765191 -0.00029761051 1.0638046e-08 0.0058057911 -3.0861733e-08 0.0058099589)
(0.0068231261 -0.00037582687 2.8270854e-09 0.0056895152 -2.3163144e-08 0.0056975368)
(0.0071223195 -0.00046156176 -9.7647908e-09 0.0055523941 -1.5846615e-08 0.0055653264)
(0.0074281216 -0.00056586603 -2.8391012e-08 0.005422392 -8.5404837e-09 0.0054330452)
(0.0075036391 -0.00096626563 -2.7741889e-08 0.0054230808 -9.569963e-09 0.0054004916)
(0.0075916938 -0.00092878347 -1.8413218e-08 0.0054727193 -3.7639737e-09 0.0054396496)
(0.0079052469 -0.00090748643 -1.0442841e-08 0.0056877152 -8.4401628e-10 0.0056854089)
(0.0096379313 -0.0027836358 -8.7539454e-09 0.0065831042 -8.0685095e-10 0.0065157833)
(0.014345483 -0.0078590433 -1.3606711e-08 0.0089827656 2.5716638e-08 0.0086671198)
(0.026612104 -0.012164056 1.4712223e-07 0.017269139 -2.4573995e-07 0.017035931)
(0.050752693 -0.01957018 -1.8335028e-06 0.033401746 6.6065806e-07 0.033365106)
(0.08346458 -0.027902037 -4.47622e-05 0.055225445 7.9457187e-05 0.054996811)
(0.10868458 -0.025108937 0.00010478204 0.073619546 -9.4983142e-05 0.073066761)
(0.15385205 -0.027350216 0.00048676292 0.099651113 -0.00041157096 0.098931342)
(0.58694235 -0.037491854 0.00025797648 0.44295955 -0.0001251536 0.44082537)
(0.0063251955 1.9150355e-05 -2.6385421e-16 0.0063216794 -3.2232715e-15 0.006321875)
(0.0062956201 2.0984486e-05 -1.0538269e-15 0.0063001139 -8.7958778e-15 0.0063003424)
(0.0062716572 2.1914401e-05 -1.5079441e-15 0.006279351 -1.1242457e-14 0.006279507)
(0.0062497196 2.2577647e-05 -1.9654652e-15 0.0062599389 -1.24254e-14 0.0062600709)
(0.0062297908 2.3009139e-05 -1.6328673e-15 0.0062419848 -1.1780773e-14 0.0062421125)
(0.0062119861 2.3283377e-05 -4.0813694e-15 0.0062252244 -1.8766924e-14 0.006225351)
(0.006195973 2.3459433e-05 9.3497303e-15 0.0062095311 2.3595936e-14 0.0062096517)
(0.0061814042 2.3520021e-05 -5.9541311e-14 0.0061948309 -2.2330103e-13 0.0061949293)
(0.0061680147 2.3330076e-05 2.446431e-13 0.006181065 1.0353534e-12 0.006181108)
(0.0061555515 2.2601621e-05 -7.7894279e-13 0.0061681999 -4.1123836e-12 0.0061681448)
(0.0061437788 2.0972669e-05 1.0081051e-12 0.0061562005 9.2407723e-12 0.006156034)
(0.0061325782 1.8417353e-05 4.0898716e-12 0.0061449686 1.1458434e-11 0.0061447696)
(0.0061220195 1.5821139e-05 -1.7526377e-11 0.0061343381 -1.5951516e-10 0.0061342764)
(0.0061122581 1.4778597e-05 -2.1212727e-11 0.0061241942 1.7328142e-10 0.0061243824)
(0.0061034508 1.6026943e-05 2.5269261e-10 0.0061145391 2.2680032e-09 0.0061148329)
(0.0060955531 1.7716221e-05 2.3420167e-10 0.0061054916 -2.222038e-09 0.0061054605)
(0.0060879179 1.5555142e-05 -2.7546542e-09 0.0060973205 -3.9736328e-08 0.0060964735)
(0.0060805973 5.1822845e-06 -9.9639996e-10 0.0060898241 -1.1604121e-07 0.0060879177)
(0.0060772844 -1.5375384e-05 2.4330964e-08 0.0060810826 -1.7954591e-07 0.0060782638)
(0.0060858319 -4.5461216e-05 6.0469369e-08 0.0060674105 -1.8012923e-07 0.0060641206)
(0.0061156516 -8.3479679e-05 7.142073e-08 0.0060446309 -1.316539e-07 0.006041428)
(0.0061757295 -0.00012846634 5.4345765e-08 0.0060089201 -7.9586447e-08 0.0060063949)
(0.0062745415 -0.00018051554 3.2999827e-08 0.0059567632 -4.7232663e-08 0.0059555623)
(0.0064202827 -0.00024047457 1.9358746e-08 0.0058848353 -3.1309615e-08 0.0058857116)
(0.0066204757 -0.00030938962 9.5360498e-09 0.0057901513 -2.2321395e-08 0.0057940365)
(0.0068746116 -0.00038569971 -2.6200571e-09 0.005673657 -1.5128189e-08 0.0056816573)
(0.0071908895 -0.00047872353 -1.342439e-08 0.0055362307 -1.0333897e-08 0.0055457386)
(0.0074353933 -0.00055741963 -1.7876221e-08 0.0054457602 -6.7845266e-09 0.0054428079)
(0.0075864539 -0.00095080077 -1.7129277e-08 0.0054631813 -7.4410433e-09 0.0054032837)
(0.0077702794 -0.00079255073 -1.048995e-08 0.0055942186 -1.887205e-09 0.0055700188)
(0.0089233971 -0.0017906393 -7.0131998e-09 0.0062695826 -1.9658658e-09 0.0062116458)
(0.012664637 -0.0061292657 -1.9071178e-08 0.0080443612 2.1948618e-08 0.0076739659)
(0.02199512 -0.0091750617 1.2677051e-07 0.014416541 -1.4122191e-07 0.014112196)
(0.042995493 -0.015623418 -7.1951282e-07 0.028410199 -4.3396354e-07 0.028290545)
(0.074401508 -0.024286091 -2.7315598e-05 0.049418002 4.4770973e-05 0.04921627)
(0.099688134 -0.024032098 5.0984243e-05 0.066783263 -4.2328116e-05 0.065984486)
(0.13416556 -0.024186581 0.00029256159 0.086060804 -0.00024557478 0.084847939)
(0.53057322 -0.033650768 0.00027527702 0.39954352 -0.00010740017 0.39782762)
(0.0063313778 2.5885237e-05 -1.6396728e-16 0.0063247102 -1.396086e-15 0.0063249625)
(0.0063014882 2.7278277e-05 -8.9563068e-16 0.0063029582 -4.7508364e-15 0.0063032196)
(0.0062776615 2.7980189e-05 -1.600933e-15 0.0062824081 -6.8788749e-15 0.0062825965)
(0.0062559332 2.8596794e-05 -1.6946236e-15 0.0062631909 -8.1948353e-15 0.0062633542)
(0.0062361693 2.9026345e-05 -1.1013498e-15 0.0062453786 -7.6366149e-15 0.0062455353)
(0.006218484 2.9299877e-05 -3.916561e-15 0.0062287188 -1.4466633e-14 0.0062288732)
(0.0062025538 2.9474237e-05 9.109309e-15 0.0062130942 2.2782124e-14 0.0062132426)
(0.0061880396 2.9555165e-05 -5.3391559e-14 0.006198437 -1.7583312e-13 0.0061985649)
(0.0061746886 2.9471299e-05 2.0148483e-13 0.0061846931 7.3368568e-13 0.0061847689)
(0.0061622591 2.9038791e-05 -5.7379662e-13 0.0061718322 -2.501875e-12 0.0061718114)
(0.0061505119 2.7976818e-05 4.910928e-13 0.0061598305 3.8758846e-12 0.0061596901)
(0.0061392895 2.6139107e-05 4.0690696e-12 0.0061486149 1.4460071e-11 0.006148417)
(0.0061286276 2.395308e-05 -1.47685e-11 0.006138032 -9.4449553e-11 0.006137939)
(0.00611873 2.2505386e-05 -2.1602143e-11 0.0061279283 -9.7096658e-12 0.0061280774)
(0.0061097897 2.2670063e-05 2.0957965e-10 0.0061182777 1.4106369e-09 0.0061185747)
(0.0061017501 2.3745167e-05 2.6527456e-10 0.0061092175 3.3607968e-10 0.0061092645)
(0.0060940181 2.3000694e-05 -2.641136e-09 0.0061010288 -2.0087422e-08 0.0061003062)
(0.0060859789 1.6894668e-05 -7.0962358e-09 0.0060938706 -6.9633072e-08 0.0060920356)
(0.0060788758 2.9874876e-06 -1.0773983e-10 0.0060870172 -1.2153406e-07 0.0060840709)
(0.0060771693 -1.9202825e-05 2.190057e-08 0.0060783837 -1.3774815e-07 0.0060746147)
(0.006087791 -4.8922152e-05 4.0580093e-08 0.0060649301 -1.1493134e-07 0.006060757)
(0.0061187296 -8.5395283e-05 4.3003559e-08 0.0060432638 -7.9120544e-08 0.0060391423)
(0.0061785134 -0.00012848725 3.5449535e-08 0.0060098113 -5.1233282e-08 0.0060062407)
(0.00627623 -0.00017872542 2.7135921e-08 0.0059607915 -3.4655221e-08 0.0059583613)
(0.0064212624 -0.00023693964 1.948452e-08 0.0058922938 -2.4577459e-08 0.0058917741)
(0.0066196725 -0.00030298546 1.0286717e-08 0.0058021596 -1.7198707e-08 0.0058044641)
(0.006885947 -0.0003832108 3.1109723e-09 0.0056825257 -1.2890829e-08 0.0056879001)
(0.0071115289 -0.00044858889 -8.2708276e-10 0.0055944307 -9.8325034e-09 0.0055938802)
(0.0074141062 -0.00055119475 -4.5377372e-09 0.0055151759 -4.9387667e-09 0.0054866803)
(0.0076987552 -0.00077149449 -6.8472648e-09 0.0055484682 -3.1847378e-09 0.0054909821)
(0.008384207 -0.0011376233 -4.4902045e-09 0.0059904236 -2.806694e-09 0.0059370168)
(0.011295275 -0.0047309902 -2.2642071e-08 0.0072874123 1.4895913e-08 0.0068779305)
(0.017754635 -0.0065410174 8.5397496e-08 0.011789214 -4.8799795e-08 0.011425662)
(0.034819163 -0.011537636 -2.4165842e-09 0.023174447 -8.6948515e-07 0.022963756)
(0.064160496 -0.020017931 -1.7185051e-05 0.042712211 2.5246796e-05 0.042548389)
(0.090600859 -0.022924179 1.9582131e-05 0.059926029 -1.1852702e-05 0.058971287)
(0.11410634 -0.020536472 0.00017285168 0.072836168 -0.00014110293 0.071211964)
(0.46306461 -0.029299193 0.00026002751 0.34844773 -8.7737232e-05 0.34687109)
(0.0063401643 3.3874173e-05 -9.6695775e-17 0.0063287927 -6.065818e-16 0.006329022)
(0.0063098395 3.464787e-05 -5.9804779e-16 0.0063069028 -2.4126256e-15 0.006307185)
(0.0062861933 3.507376e-05 -1.0081753e-15 0.0062866537 -3.9882559e-15 0.0062868809)
(0.0062647094 3.5584198e-05 -1.3883531e-15 0.0062676941 -5.2492304e-15 0.0062679033)
(0.0062451361 3.5962281e-05 -1.0733742e-15 0.0062500726 -4.776976e-15 0.0062502781)
(0.0062275893 3.619851e-05 -3.6201702e-15 0.0062335504 -1.1058227e-14 0.0062337557)
(0.0062117544 3.6342323e-05 8.203009e-15 0.0062180196 1.9424126e-14 0.0062182213)
(0.0061973019 3.6410175e-05 -4.4164217e-14 0.0062034208 -1.2782311e-13 0.0062036063)
(0.0061839952 3.6374202e-05 1.4795035e-13 0.0061897039 4.6536122e-13 0.0061898452)
(0.0061716138 3.613495e-05 -3.4721558e-13 0.0061768396 -1.2831922e-12 0.0061768936)
(0.0061599331 3.5502333e-05 -2.6772341e-14 0.0061648083 6.6669445e-13 0.0061647445)
(0.0061487714 3.4295368e-05 3.7113284e-12 0.0061535602 1.2540061e-11 0.0061534191)
(0.0061380931 3.2627262e-05 -9.1528602e-12 0.006142979 -4.4695759e-11 0.0061429002)
(0.006128059 3.1114804e-05 -2.7386752e-11 0.0061329173 -8.4002581e-11 0.0061330465)
(0.0061188957 3.0529601e-05 1.4403257e-10 0.0061233096 7.2469689e-10 0.0061236091)
(0.0061106368 3.0892663e-05 3.3750385e-10 0.0061142465 1.22861e-09 0.0061143884)
(0.0061028625 3.0795817e-05 -1.6168574e-09 0.0061059582 -8.0659506e-09 0.006105445)
(0.00609482 2.7750884e-05 -7.2257976e-09 0.0060987114 -3.7122681e-08 0.0060971389)
(0.0060864004 1.9398658e-05 -1.0054613e-08 0.0060924511 -7.5855153e-08 0.0060896914)
(0.0060794052 4.506743e-06 -1.8638219e-09 0.0060863449 -9.9116205e-08 0.0060825336)
(0.0060778879 -1.7024771e-05 1.3193897e-08 0.0060786773 -9.5327947e-08 0.0060740887)
(0.0060876234 -4.4856096e-05 2.4245969e-08 0.0060670614 -7.5060272e-08 0.0060620133)
(0.006115693 -7.8844276e-05 2.7772436e-08 0.0060485755 -5.3805062e-08 0.0060434182)
(0.0061704781 -0.00011926711 2.6972296e-08 0.0060197431 -3.8340972e-08 0.006014898)
(0.0062616769 -0.00016668167 2.4222165e-08 0.0059764764 -2.7889027e-08 0.0059725205)
(0.0063997582 -0.00022184432 1.9680914e-08 0.0059145098 -2.0318385e-08 0.0059121479)
(0.0065971027 -0.00028771763 1.5600613e-08 0.0058275239 -1.5562007e-08 0.0058274597)
(0.0067827477 -0.00034112028 1.208503e-08 0.0057490591 -1.2154792e-08 0.0057468922)
(0.0070401417 -0.00042208989 9.840651e-09 0.0056750613 -8.2197411e-09 0.0056536346)
(0.0076168615 -0.00066242696 4.5743286e-09 0.0055389341 -2.8311332e-09 0.0054743925)
(0.0080375223 -0.00081889652 2.4085728e-10 0.0057934845 -3.423904e-09 0.0057346085)
(0.009945165 -0.0027244875 -1.8413873e-08 0.006759926 3.5401254e-09 0.0064629196)
(0.014254913 -0.0044921771 3.1535541e-08 0.0096093388 2.0905181e-08 0.0092033203)
(0.026791933 -0.0077488507 4.0101394e-07 0.018025207 -8.8642489e-07 0.01774241)
(0.052826787 -0.015297806 -1.0430178e-05 0.035266911 1.3331386e-05 0.035107548)
(0.080038877 -0.019510578 2.4452804e-06 0.053113587 3.1800763e-06 0.052248448)
(0.094461986 -0.016989355 9.6997013e-05 0.060298033 -7.6611923e-05 0.058436057)
(0.39169893 -0.024848533 0.00022055267 0.29481892 -6.6856539e-05 0.29324944)
(0.0063517501 4.282674e-05 -6.0279914e-17 0.0063340302 -2.8133216e-16 0.0063341709)
(0.0063214837 4.3180326e-05 -2.2246288e-16 0.006312291 -1.1163094e-15 0.0063125778)
(0.0062981269 4.3324586e-05 -6.6819369e-16 0.0062924867 -2.1097105e-15 0.0062927517)
(0.0062769283 4.3680122e-05 -1.2027058e-15 0.0062738745 -3.2130627e-15 0.0062741338)
(0.0062575697 4.3955169e-05 -6.5613005e-16 0.0062565139 -2.8267769e-15 0.0062567754)
(0.0062401783 4.4111089e-05 -3.1446372e-15 0.0062401837 -8.0883353e-15 0.0062404493)
(0.0062244489 4.4190069e-05 6.6274159e-15 0.0062247863 1.4446522e-14 0.0062250517)
(0.0062100616 4.4209939e-05 -3.2625325e-14 0.0062102723 -8.2869867e-14 0.0062105269)