0.3673995292 	1.136983041e-07 	-1.047130204e-09 	-5.041981831e-13 	1.128728061e-07 	9.742479963e-11 	2.151669398e-10
0.3673995292 	1.136983041e-07 	-1.047130204e-09 	-5.041981831e-13 	1.128728061e-07 	9.742479963e-11 	2.151669398e-10
0.3684829761 	9.885428818e-06 	-7.779505007e-07 	5.299281326e-11 	9.419736232e-06 	4.912462988e-09 	1.795663534e-08
0.3695665877 	0.0001197603066 	-2.672805871e-05 	4.311208506e-09 	0.0001042493945 	5.104180271e-08 	1.987283205e-07
0.3706502347 	0.0005385351232 	-0.0001910293187 	-8.301699476e-09 	0.0004280703774 	2.74727645e-07 	8.160211154e-07
0.3717337888 	0.001287655225 	-0.0005100311987 	-2.009098722e-07 	0.0009922029217 	7.731099196e-07 	1.891414537e-06
0.3728171224 	0.002250674949 	-0.0009326153065 	-4.482776283e-07 	0.001708137378 	1.665768972e-06 	3.256184595e-06
0.3744841553 	0.003145384555 	-0.001390369139 	-1.105053099e-06 	0.00233418106 	3.363994889e-06 	4.449597852e-06
0.3763660564 	0.00340667647 	-0.001568685765 	-2.561659135e-06 	0.002500652462 	5.386662075e-06 	4.766938613e-06
0.3784895005 	0.002944991682 	-0.00131955767 	-3.485343693e-06 	0.002207025858 	6.107331204e-06 	4.207204696e-06
0.3808839529 	0.002295053275 	-0.0009592214915 	-2.745182028e-06 	0.001788877361 	4.537178474e-06 	3.410097444e-06
0.3836378911 	0.001868153785 	-0.0007485084411 	-1.376807815e-06 	0.001523465344 	1.451334135e-06 	2.904148372e-06
0.3867652482 	0.001653679499 	-0.000591947983 	-8.899002671e-07 	0.001501574558 	-1.63511486e-06 	2.862418449e-06
0.390290462 	0.001533607857 	-0.000413858225 	-1.045961447e-06 	0.0016499402 	-3.741941057e-06 	3.145244599e-06
0.3942632783 	0.0014587321 	-0.0002426644126 	-1.3163102e-06 	0.001858902132 	-4.616469834e-06 	3.543584119e-06
0.3988211095 	0.001392275375 	-6.244105461e-05 	-1.583092925e-06 	0.002077809766 	-4.327692455e-06 	3.960882912e-06
0.4039948728 	0.001335878976 	0.0001117420588 	-9.878836604e-07 	0.00224466496 	-2.679481132e-06 	4.278955285e-06
0.4118367251 	0.001314082904 	0.000229575881 	-1.809256265e-08 	0.002306569974 	-1.563318265e-06 	4.396963449e-06
0.420339507 	0.001315775306 	0.0002762430507 	3.736075996e-07 	0.002316632441 	-1.332706672e-06 	4.416145306e-06
0.429540511 	0.001318657727 	0.0002905495294 	3.742305897e-07 	0.002329795075 	-1.044487834e-06 	4.441236946e-06
0.4394675757 	0.001320675724 	0.000301834159 	2.917942996e-07 	0.002343668165 	-7.988278206e-07 	4.467682911e-06
0.450208819 	0.00132362895 	0.0003164313919 	2.282498369e-07 	0.002359203139 	-6.030171459e-07 	4.497296889e-06
0.4618721886 	0.00132846623 	0.0003329307917 	1.699352592e-07 	0.002378311472 	-4.273102819e-07 	4.533722683e-06
0.4744877587 	0.001335340275 	0.000350913752 	1.074487744e-07 	0.002401125599 	-2.602233314e-07 	4.57721275e-06
0.488139843 	0.001344015927 	0.000370729026 	4.212461745e-08 	0.002426882049 	-9.938988752e-08 	4.626311703e-06
0.4975745988 	0.001350474495 	0.0003846449022 	1.385965256e-07 	0.002444666462 	-6.441248801e-07 	4.660213737e-06
0.5028917562 	0.001354129783 	0.0003924719556 	2.219615602e-08 	0.002454641762 	-5.406266123e-08 	4.679229431e-06
0.5188499572 	0.001365312452 	0.0004159886999 	8.14641572e-08 	0.002483435527 	-1.989810717e-07 	4.734118349e-06
0.5361130653 	0.00137717259 	0.0004411049293 	1.356678189e-07 	0.002512276043 	-3.357780709e-07 	4.789096389e-06
0.5547594807 	0.001389156162 	0.0004672821946 	1.821153614e-07 	0.002540104761 	-4.61462181e-07 	4.84214566e-06
0.574931013 	0.001400635794 	0.0004939962941 	2.187722864e-07 	0.002565693411 	-5.730060591e-07 	4.89092474e-06
0.596680164 	0.001411053279 	0.0005210584418 	2.435810266e-07 	0.002587226946 	-6.667435717e-07 	4.931973642e-06
0.6201143357 	0.001419865252 	0.0005483311195 	2.547533161e-07 	0.002602468429 	-7.391446943e-07 	4.961028145e-06
0.645332846 	0.001426427189 	0.00057555595 	2.509701977e-07 	0.002608573641 	-7.861657299e-07 	4.972666375e-06
0.6724342449 	0.001430023578 	0.0006020613258 	2.332803681e-07 	0.002601993324 	-8.039372733e-07 	4.960122462e-06
0.6995933348 	0.001430357802 	0.0006262727092 	2.056886097e-07 	0.002580950119 	-7.92525228e-07 	4.920008265e-06
0.7249828856 	0.001428243811 	0.0006471546761 	1.740850535e-07 	0.002547091494 	-7.588529176e-07 	4.855464315e-06
0.7487060318 	0.00142513843 	0.0006651642037 	1.426706787e-07 	0.002502873333 	-7.09398073e-07 	4.77117221e-06
0.7708663551 	0.0014223708 	0.0006810394902 	1.136020658e-07 	0.002450472707 	-6.494942649e-07 	4.671282054e-06
0.7915646598 	0.001421003198 	0.000695195118 	8.796548249e-08 	0.002392338822 	-5.831670247e-07 	4.560462711e-06
0.8108975394 	0.00142186445 	0.0007078915006 	6.633801927e-08 	0.002331023864 	-5.137374012e-07 	4.443579359e-06
0.8289546918 	0.001425604934 	0.0007193583184 	4.903793805e-08 	0.002269041419 	-4.441422607e-07 	4.325423592e-06
0.8458208373 	0.001432805759 	0.0007298924514 	3.613218517e-08 	0.00220878762 	-3.767985555e-07 	4.210563104e-06
0.861574609 	0.001444151822 	0.0007399410643 	2.755358365e-08 	0.002152491722 	-3.136066695e-07 	4.103247477e-06
0.8762895743 	0.001460716578 	0.0007502100674 	2.299071743e-08 	0.002102123346 	-2.556181699e-07 	4.007231352e-06
0.8900342399 	0.001484262014 	0.0007617234533 	2.176237305e-08 	0.002059430055 	-2.029959417e-07 	3.925846074e-06
0.9028724742 	0.001517401523 	0.0007757935693 	2.276237081e-08 	0.002026204191 	-1.553668805e-07 	3.862508343e-06
0.9148639184 	0.001563433949 	0.0007939065941 	2.44507712e-08 	0.002004765332 	-1.12490336e-07 	3.821639918e-06
0.9260642485 	0.001625580239 	0.0008175043402 	2.488953896e-08 	0.001998538349 	-7.575998683e-08 	3.809769557e-06
0.9365254628 	0.001705526291 	0.000847622141 	2.156522758e-08 	0.002011586655 	-5.049019813e-08 	3.834643256e-06
0.9462961394 	0.0018008888 	0.0008838936243 	1.123701877e-08 	0.002045410209 	-4.604562322e-08 	3.899120351e-06
0.9554216696 	0.001893889469 	0.0009196388504 	-6.339298704e-09 	0.00208910747 	-6.615621177e-08 	3.982419475e-06
0.9614619036 	0.001964970486 	0.0009466803224 	-2.563093204e-08 	0.002124810677 	-9.898463847e-08 	4.050479712e-06
0.9668091954 	0.002012391829 	0.0009634807844 	-4.053019161e-08 	0.002143714749 	-1.270202653e-07 	4.086516126e-06
0.9715429241 	0.002035540621 	0.0009691354585 	-4.850098357e-08 	0.002140574986 	-1.419054218e-07 	4.080530865e-06
0.9757334019 	0.002027627254 	0.0009605490728 	-4.725789997e-08 	0.002108009151 	-1.368518231e-07 	4.018451332e-06
0.9794429011 	0.00197955814 	0.0009345085386 	-3.467423278e-08 	0.002037360369 	-1.132094304e-07 	3.883775117e-06
0.9827265717 	0.001877981772 	0.0008894836843 	-2.453334295e-09 	0.001915875385 	-7.790253504e-08 	3.652190974e-06
0.9856332522 	0.001696754459 	0.0008043213907 	6.254213697e-10 	0.001718178246 	-6.325939273e-08 	3.27532528e-06
0.9882061891 	0.001409529665 	0.0006622844143 	-2.786726184e-08 	0.001419694938 	-7.795494593e-08 	2.706333135e-06
0.9904836754 	0.001023896098 	0.0004777321235 	-3.839985937e-08 	0.001027693945 	-8.761410238e-08 	1.959070291e-06
0.9924996163 	0.0006258267863 	0.0002912860128 	-3.332581187e-08 	0.0006267615584 	-7.319916837e-08 	1.19478173e-06
0.9938092065 	0.0003152747892 	0.0001362812898 	-1.9871113e-08 	0.0003156065517 	-4.393030318e-08 	6.016338058e-07
0.9951188621 	0.0001171168818 	3.790215394e-05 	-7.14378516e-09 	0.0001172041069 	-1.735404241e-08 	2.234236029e-07
0.9964285831 	2.434635177e-05 	4.374511578e-06 	-8.438280351e-10 	2.432160405e-05 	-3.144140905e-09 	4.636373715e-08
0.9977383696 	1.897178966e-06 	1.082722039e-07 	-1.377452065e-11 	1.893702086e-06 	-1.20447936e-10 	3.609922504e-09
0.9990482216 	1.999703376e-08 	1.234230088e-10 	8.400666714e-15 	1.995882629e-08 	1.728397903e-12 	3.804707018e-11
0.9990482216 	1.999703376e-08 	1.234230088e-10 	8.400666714e-15 	1.995882629e-08 	1.728397903e-12 	3.804707018e-11
