0.4709558481 	7.554241815e-08 	-4.177514971e-10 	5.444834921e-14 	7.539778483e-08 	-6.204132291e-12 	1.437291336e-10
0.4720092239 	6.206821918e-06 	-3.069737402e-07 	3.979334406e-11 	6.193879716e-06 	-5.096319656e-10 	1.180725624e-08
0.4730625996 	7.225675421e-05 	-1.154129587e-05 	1.435670489e-09 	7.216171665e-05 	-5.893528226e-09 	1.375602882e-07
0.4741159754 	0.0003332747484 	-9.993496928e-05 	1.100450723e-08 	0.0003333897521 	-2.555393268e-08 	6.355335284e-07
0.4751693511 	0.0008774500421 	-0.000370884582 	3.379934916e-08 	0.0008757164984 	-5.79124939e-08 	1.669359039e-06
0.4762227269 	0.001705598369 	-0.0007904913848 	4.907761688e-08 	0.001698456713 	-9.102585073e-08 	3.237730557e-06
0.4778443634 	0.002737004697 	-0.001272520029 	5.502137693e-08 	0.002726393644 	-1.157375993e-07 	5.197264047e-06
0.4796765386 	0.003729841709 	-0.001753624942 	6.348489382e-08 	0.003716018739 	-1.205992096e-07 	7.083764531e-06
0.4817465869 	0.004472527397 	-0.002106321245 	5.447876834e-08 	0.004455038224 	-9.385879405e-08 	8.49254107e-06
0.4840853915 	0.004939133003 	-0.002307776158 	2.345142968e-08 	0.004919251795 	-3.354483558e-08 	9.377461157e-06
0.4867278453 	0.005152793427 	-0.002399455608 	-2.152855268e-08 	0.005128143644 	6.009309564e-08 	9.77566708e-06
0.4897133715 	0.005115893928 	-0.002379451351 	-8.169699557e-08 	0.00508610124 	1.901014741e-07 	9.695522573e-06
0.4930865115 	0.004844907745 	-0.002253402724 	-1.566870844e-07 	0.004810989842 	3.5407934e-07 	9.171083784e-06
0.4968975894 	0.004366397097 	-0.002032309686 	-2.40562255e-07 	0.004329140134 	5.344342816e-07 	8.252544318e-06
0.5012034633 	0.003716481085 	-0.001732677431 	-3.133745335e-07 	0.003682268501 	6.860684347e-07 	7.019427196e-06
0.506068373 	0.002905963233 	-0.00135654346 	-3.38226631e-07 	0.002877736591 	7.301540769e-07 	5.485765767e-06
0.5134203412 	0.002103455592 	-0.0009766793746 	-3.014504224e-07 	0.00207508005 	5.855306078e-07 	3.955679314e-06
0.5212948542 	0.001568848589 	-0.0006297316097 	-2.47881566e-07 	0.001550293 	3.134810179e-07 	2.95528934e-06
0.529729052 	0.001331281138 	-0.0003515227991 	-1.950564588e-07 	0.00132960313 	8.003516477e-08 	2.534593111e-06
0.5387627144 	0.001279542771 	-0.0001758815756 	-1.476537273e-07 	0.001278946463 	-4.555472382e-08 	2.438027423e-06
0.5484384488 	0.001304314159 	-4.110565655e-05 	-1.229440868e-07 	0.001306239642 	-9.423279982e-08 	2.490055808e-06
0.5588018907 	0.001349842417 	7.326208845e-05 	-1.13597188e-07 	0.001363183908 	-1.104511239e-07 	2.598607405e-06
0.5699019192 	0.001401948174 	0.0001781922119 	-1.140690359e-07 	0.001424297098 	-1.143856417e-07 	2.715106131e-06
0.5817908876 	0.001454116331 	0.00027985499 	-1.180201873e-07 	0.001484964368 	-1.128181338e-07 	2.830754811e-06
0.5945248701 	0.00150396681 	0.0003798956987 	-1.224746823e-07 	0.001543017646 	-1.091928901e-07 	2.941420494e-06
0.6081639266 	0.001550198077 	0.0004776440928 	-1.249411719e-07 	0.001597143871 	-1.041342255e-07 	3.044600122e-06
0.6227723857 	0.001591785957 	0.0005702822184 	-1.225408015e-07 	0.001646075307 	-9.759403877e-08 	3.137877038e-06
0.638419148 	0.001627711447 	0.0006529791234 	-1.126118833e-07 	0.001688548352 	-8.970023965e-08 	3.218842467e-06
0.6551780116 	0.001657119196 	0.0007199870546 	-9.444982797e-08 	0.00172320949 	-8.0863613e-08 	3.28491623e-06
0.6731280194 	0.001679459959 	0.0007672866271 	-7.062770158e-08 	0.001748922674 	-7.168647178e-08 	3.333932705e-06
0.6923538328 	0.001694441757 	0.0007931195937 	-4.638224795e-08 	0.00176546077 	-6.281834507e-08 	3.365458912e-06
0.7129461301 	0.001702353607 	0.0008017423389 	-2.714335422e-08 	0.001772904496 	-5.502915247e-08 	3.379648723e-06
0.7350020349 	0.001703983677 	0.0008019846239 	-1.534731929e-08 	0.001771786148 	-4.837526686e-08 	3.377516841e-06
0.7570579485 	0.001700584704 	0.0007995683269 	-9.327166834e-09 	0.001764572656 	-4.325447685e-08 	3.36376592e-06
0.7776502527 	0.001694297978 	0.0007971949928 	-5.168923877e-09 	0.00175425522 	-3.938392589e-08 	3.344098019e-06
0.7968760713 	0.001687234938 	0.0007956849675 	-8.240698368e-09 	0.001742740133 	-3.476774856e-08 	3.322147064e-06
0.814826083 	0.001680643797 	0.0007932546207 	-1.256378687e-08 	0.001731636197 	-3.015164772e-08 	3.300979874e-06
0.831584949 	0.00167547917 	0.0007899230004 	-1.081291649e-08 	0.0017218973 	-2.661589568e-08 	3.28241483e-06
0.8472317127 	0.001672621604 	0.000787552477 	-9.028581763e-09 	0.001714028706 	-2.256564129e-08 	3.267415103e-06
0.8618401721 	0.001672777175 	0.0007865255711 	-6.93653336e-09 	0.001709035713 	-1.744708684e-08 	3.257897071e-06
0.8754792281 	0.001677053996 	0.0007873915204 	-3.997528844e-09 	0.001708218926 	-1.086611407e-08 	3.256340049e-06
0.8882132094 	0.001687553907 	0.0007910863116 	6.548505999e-10 	0.001713439489 	-8.69233019e-10 	3.266291892e-06
0.9001021759 	0.001707982278 	0.0007992568644 	8.373611644e-09 	0.001728051823 	1.534669897e-08 	3.294147063e-06
0.9112022019 	0.001744778315 	0.000814800971 	2.126056376e-08 	0.001758083929 	4.239006131e-08 	3.351396603e-06
0.9215656407 	0.001808940042 	0.0008427998449 	4.265531986e-08 	0.001814435622 	8.794224045e-08 	3.458818591e-06
0.9312413717 	0.001918905301 	0.0008919624868 	7.73277644e-08 	0.001916213973 	1.628122177e-07 	3.652836417e-06
0.9402750304 	0.002101952293 	0.0009752968301 	1.283615072e-07 	0.002092111392 	2.733740372e-07 	3.988145785e-06
0.9487092242 	0.002389421536 	0.001107776276 	1.905891425e-07 	0.002373838739 	4.069291599e-07 	4.525196411e-06
0.9565837329 	0.002794376014 	0.001295974428 	2.414117968e-07 	0.002773569004 	5.160990745e-07 	5.287193396e-06
0.9639356968 	0.003236860148 	0.001502460747 	2.505649585e-07 	0.003212472703 	5.392897938e-07 	6.123865832e-06
0.9688006083 	0.003593893191 	0.001669188676 	2.228842148e-07 	0.00356928401 	4.845317655e-07 	6.804047354e-06
0.9731064834 	0.003834348722 	0.001781576085 	1.82024833e-07 	0.003811800933 	3.991229686e-07 	7.266352014e-06
0.976917562 	0.003958891934 	0.001840308326 	1.387595763e-07 	0.003939046895 	3.069420442e-07 	7.508918183e-06
0.9802907021 	0.003944581387 	0.001835554188 	1.003041464e-07 	0.003927951096 	2.254020263e-07 	7.487766506e-06
0.9832762282 	0.003776837312 	0.001761914327 	6.855591955e-08 	0.003763428798 	1.604699352e-07 	7.174141281e-06
0.9859186816 	0.003452926229 	0.001619750231 	4.268195053e-08 	0.00344176632 	1.108097071e-07 	6.560963195e-06
0.9882574856 	0.002966127067 	0.001391604578 	2.903892768e-08 	0.002957252613 	7.659767308e-08 	5.637345405e-06
0.990327533 	0.00232451115 	0.001082720331 	2.365528145e-08 	0.00231670985 	5.372266303e-08 	4.416292871e-06
0.9921597073 	0.001584729147 	0.0007357368575 	1.613785713e-08 	0.001578480713 	3.467539371e-08 	3.009022954e-06
0.9937813429 	0.0009019580069 	0.000398580143 	6.636564587e-09 	0.000899836421 	1.866744636e-08 	1.715338315e-06
0.9948347186 	0.0004232081828 	0.0001521547536 	6.537510894e-10 	0.0004232089991 	7.863919937e-09 	8.067539772e-07
0.9958880943 	0.0001503413433 	3.59023601e-05 	-2.793782133e-12 	0.0001502489266 	2.5140829e-09 	2.864162136e-07
0.9969414701 	3.158589356e-05 	3.785706571e-06 	-1.248965053e-11 	3.15231581e-05 	5.033968782e-10 	6.009190074e-08
0.9979948458 	2.69420877e-06 	9.743082931e-08 	-4.483054874e-13 	2.688822373e-06 	4.2769155e-11 	5.125642763e-09
0.9990482216 	3.593358739e-08 	1.446711616e-10 	-7.304907557e-16 	3.586510876e-08 	5.706860621e-13 	6.836886548e-11
0.9990482216 	3.593358739e-08 	1.446711616e-10 	-7.304907557e-16 	3.586510876e-08 	5.706860621e-13 	6.836886548e-11
