0.4709558481 	5.696541623e-08 	-2.739090235e-10 	1.301946595e-14 	5.6856633e-08 	-2.228242514e-12 	1.08384545e-10
0.4709558481 	5.696541623e-08 	-2.739090235e-10 	1.301946595e-14 	5.6856633e-08 	-2.228242514e-12 	1.08384545e-10
0.4720092239 	4.68041805e-06 	-2.01538108e-07 	1.018295823e-11 	4.670846923e-06 	-1.832704746e-10 	8.90393243e-09
0.4730625996 	5.459833874e-05 	-7.68277556e-06 	3.993494579e-10 	5.450818872e-05 	-2.140189405e-09 	1.039077575e-07
0.4741159754 	0.0002552768594 	-6.926074086e-05 	3.447259433e-09 	0.0002553223455 	-9.752559488e-09 	4.867153536e-07
0.4751693511 	0.0006916680578 	-0.0002719216882 	1.213065059e-08 	0.0006913549745 	-2.429639345e-08 	1.317914734e-06
0.4762227269 	0.00139649893 	-0.0006326149914 	2.167453147e-08 	0.001392208128 	-4.323867167e-08 	2.653935637e-06
0.4778443634 	0.00232073505 	-0.001077779196 	2.999783177e-08 	0.002311908554 	-6.335943276e-08 	4.407140266e-06
0.4796765386 	0.003252765916 	-0.001518831488 	3.96359536e-08 	0.003243296305 	-7.930222111e-08 	6.182624185e-06
0.4817465869 	0.004010589707 	-0.001874847227 	4.363815639e-08 	0.004001177503 	-8.592643e-08 	7.627356391e-06
0.4840853915 	0.004568032772 	-0.002127433711 	4.123074508e-08 	0.004557602817 	-8.343224265e-08 	8.688057689e-06
0.4867278453 	0.004941985067 	-0.002297457701 	3.595931201e-08 	0.004929818893 	-7.228120608e-08 	9.397604982e-06
0.4897133715 	0.005147428025 	-0.002391394027 	2.601544648e-08 	0.005133269128 	-5.050753419e-08 	9.785437677e-06
0.4930865115 	0.005207253448 	-0.00241848016 	1.076921055e-08 	0.005191300004 	-1.715016271e-08 	9.896060655e-06
0.4968975894 	0.005143462779 	-0.002388317045 	-1.01955957e-08 	0.005125538144 	2.854318279e-08 	9.770700271e-06
0.5012034633 	0.004966844213 	-0.002305850512 	-3.717812785e-08 	0.004946689517 	8.724224817e-08 	9.429765081e-06
0.506068373 	0.004649705456 	-0.002158228509 	-7.352441315e-08 	0.0046268041 	1.661374736e-07 	8.819974568e-06
0.5134203412 	0.004134134587 	-0.001918970924 	-1.214999107e-07 	0.004109141197 	2.697045361e-07 	7.833165199e-06
0.5212948542 	0.003456015238 	-0.001605425396 	-1.671886655e-07 	0.003434151022 	3.664623581e-07 	6.546446321e-06
0.529729052 	0.002733863994 	-0.001271537023 	-1.888248247e-07 	0.002716556429 	4.132732679e-07 	5.178511582e-06
0.5387627144 	0.002090270043 	-0.0009720047715 	-1.747843476e-07 	0.002071380602 	3.840464923e-07 	3.948627137e-06
0.5484384488 	0.00160503151 	-0.0006930223008 	-1.903239577e-07 	0.001590720535 	2.822875006e-07 	3.032355458e-06
0.5588018907 	0.00129341244 	-0.0004365629461 	-1.848995058e-07 	0.001291335044 	1.534927093e-07 	2.461643502e-06
0.5699019192 	0.001139710946 	-0.0002524507011 	-1.243522405e-07 	0.001141587556 	4.131073172e-08 	2.17618317e-06
0.5817908876 	0.001095499017 	-0.0001219944539 	-8.899422844e-08 	0.001099290354 	-3.818733223e-08 	2.095552947e-06
0.5945248701 	0.001107895656 	-1.462631007e-05 	-7.225037669e-08 	0.001118453133 	-8.197248975e-08 	2.132082529e-06
0.6081639266 	0.001145186328 	8.049363704e-05 	-7.242771768e-08 	0.001162346468 	-1.057417667e-07 	2.215755425e-06
0.6227723857 	0.001192861076 	0.0001690753388 	-8.545756708e-08 	0.001215725943 	-1.266995203e-07 	2.317511542e-06
0.638419148 	0.001243752677 	0.0002547725317 	-9.98557866e-08 	0.001274023894 	-1.480149303e-07 	2.428643639e-06
0.6551780116 	0.001295418024 	0.000339771024 	-9.277087759e-08 	0.001332163023 	-1.724216089e-07 	2.539472977e-06
0.6731280194 	0.001347721386 	0.0004268487393 	-8.297116032e-08 	0.001383981052 	-1.916360588e-07 	2.638252543e-06
0.6923538328 	0.001398295398 	0.0004824521291 	-8.047470295e-08 	0.001434168764 	-1.869461479e-07 	2.73392427e-06
0.7129461301 	0.001447211135 	0.0005146703696 	-5.981632338e-08 	0.001484871389 	-1.420917827e-07 	2.830577565e-06
0.7350020349 	0.001491536634 	0.000570104599 	-2.928015886e-08 	0.001527031078 	-7.272314703e-08 	2.910945652e-06
0.7570579485 	0.001523949534 	0.0006439158664 	-5.278390681e-09 	0.001556050339 	-1.597910731e-08 	2.966264428e-06
0.7776502527 	0.001545544668 	0.0006908368835 	-6.864253288e-08 	0.001578070222 	2.161352455e-08 	3.008240444e-06
0.7968760713 	0.001564294294 	0.000682298612 	-1.771441557e-07 	0.001601036094 	3.6923914e-08 	3.05201978e-06
0.814826083 	0.001589388303 	0.0006643148342 	-2.133521528e-07 	0.0016242897 	2.781441011e-08 	3.096347615e-06
0.831584949 	0.001624581525 	0.0006754365052 	-1.800894759e-07 	0.001650998377 	2.252289824e-08 	3.147261778e-06
0.8472317127 	0.001671501585 	0.0007141268152 	-1.02802314e-07 	0.001690756245 	3.661310313e-08 	3.223051325e-06
0.8618401721 	0.001738427607 	0.0007768312461 	-1.351315536e-08 	0.001749707738 	6.59928635e-08 	3.335429255e-06
0.8754792281 	0.00183647261 	0.0008477716578 	5.119084235e-08 	0.001839895212 	1.133157375e-07 	3.507351646e-06
0.8882132094 	0.001980228788 	0.0009207867957 	8.605630375e-08 	0.00197887298 	1.764522246e-07 	3.772281899e-06
0.9001021759 	0.002186744843 	0.001015539726 	1.154293249e-07 	0.002180554666 	2.422072934e-07 	4.156743247e-06
0.9112022019 	0.002465860894 	0.001144094761 	1.405207986e-07 	0.002454305173 	2.966265683e-07 	4.678587799e-06
0.9215656407 	0.002812637041 	0.001304504837 	1.526995288e-07 	0.002796928324 	3.233149582e-07 	5.331722752e-06
0.9312413717 	0.003201138121 	0.001484751957 	1.471233435e-07 	0.003182772024 	3.122952438e-07 	6.067248083e-06
0.9402750304 	0.003591951414 	0.001666381672 	1.283599568e-07 	0.003572619231 	2.729408935e-07 	6.810405213e-06
0.9487092242 	0.003948942907 	0.001832383904 	1.035382174e-07 	0.003929715295 	2.200763523e-07 	7.491129561e-06
0.9565837329 	0.004241444122 	0.001968469343 	7.732015328e-08 	0.004222867456 	1.638985231e-07 	8.049959057e-06
0.9639356968 	0.004428043488 	0.002055549369 	5.459769599e-08 	0.004411256622 	1.151633124e-07 	8.409081167e-06
0.9688006083 	0.00450481338 	0.002091691602 	3.814344822e-08 	0.004490294372 	7.989680017e-08 	8.559749085e-06
0.9731064834 	0.00450160273 	0.002090596598 	2.615814731e-08 	0.004488755125 	5.428566966e-08 	8.556814852e-06
0.976917562 	0.004420575826 	0.00205335037 	1.673580905e-08 	0.004408980051 	3.426251287e-08 	8.40474139e-06
0.9802907021 	0.004248279127 	0.001973946555 	9.473238686e-09 	0.004237978816 	1.897090488e-08 	8.078765508e-06
0.9832762282 	0.003967481942 	0.001844931408 	3.940821196e-09 	0.003958384398 	7.566996852e-09 	7.545780839e-06
0.9859186816 	0.003564435694 	0.001661285718 	-3.520911286e-10 	0.003556168093 	-8.798484079e-10 	6.779044771e-06
0.9882574856 	0.003026335594 	0.00141125131 	-3.208646902e-09 	0.003019409005 	-6.767745924e-09 	5.755832764e-06
0.990327533 	0.002355053336 	0.001095048292 	-4.523464102e-09 	0.002347778531 	-1.000394103e-08 	4.475518412e-06
0.9921597073 	0.001596684994 	0.0007412231124 	-4.642716738e-09 	0.001590196451 	-1.031016485e-08 	3.031356408e-06
0.9937813429 	0.0009024851302 	0.0003949232108 	-4.276348231e-09 	0.0009005109944 	-8.112791553e-09 	1.716624239e-06
0.9948347186 	0.000419896784 	0.0001456737088 	-2.786328622e-09 	0.000420066329 	-4.878134677e-09 	8.007631744e-07
0.9958880943 	0.0001482915867 	3.388824168e-05 	-8.071305435e-10 	0.0001482050781 	-2.005152707e-09 	2.825200704e-07
0.9969414701 	3.108054437e-05 	3.538273755e-06 	-9.780096195e-11 	3.101719529e-05 	-4.460344041e-10 	5.9127395e-08
0.9979948458 	2.650224869e-06 	9.070362575e-08 	-2.73977148e-12 	2.644936398e-06 	-3.850395723e-11 	5.041983897e-09
0.9990482216 	3.534700283e-08 	1.344831309e-10 	-4.336126237e-15 	3.527965953e-08 	-5.145821048e-13 	6.725283653e-11
0.9990482216 	3.534700283e-08 	1.344831309e-10 	-4.336126237e-15 	3.527965953e-08 	-5.145821048e-13 	6.725283653e-11
