0.4709558481 	7.310121431e-08 	-3.967230988e-10 	5.50984184e-14 	7.297062856e-08 	-6.527725112e-12 	1.391022992e-10
0.4720092239 	5.977587033e-06 	-2.909009541e-07 	4.012603612e-11 	6.0269463e-06 	-5.422565584e-10 	1.148903475e-08
0.4730625996 	6.634237725e-05 	-1.064676969e-05 	1.383749828e-09 	7.39425839e-05 	-6.922523446e-09 	1.409551162e-07
0.4741159754 	0.0002664745904 	-8.496176411e-05 	9.348185827e-09 	0.0003883280476 	-3.673555939e-08 	7.402611889e-07
0.4751693511 	0.0005759898947 	-0.0002842533395 	2.477649323e-08 	0.001175150779 	-1.005017925e-07 	2.240164002e-06
0.4762227269 	0.001027980095 	-0.0005907729811 	3.779283921e-08 	0.002406885345 	-1.554125099e-07 	4.588192427e-06
0.4778443634 	0.001648765636 	-0.000955367806 	4.678347736e-08 	0.003890254769 	-1.872923508e-07 	7.415906829e-06
0.4796765386 	0.002255571354 	-0.001323631561 	5.615264937e-08 	0.005322066926 	-2.022842818e-07 	1.014533875e-05
0.4817465869 	0.002716335658 	-0.001596863693 	5.259203906e-08 	0.006407921469 	-1.734647869e-07 	1.221527931e-05
0.4840853915 	0.003015984782 	-0.001755972751 	3.17329282e-08 	0.007113034278 	-9.823085911e-08 	1.35594203e-05
0.4867278453 	0.003168165476 	-0.001838748737 	1.172936435e-09 	0.007467461557 	2.334124085e-08 	1.42350572e-05
0.4897133715 	0.003175344311 	-0.001842380983 	-4.065845441e-08 	0.007478500938 	1.970419083e-07 	1.425610133e-05
0.4930865115 	0.00304740168 	-0.001770014249 	-9.427751235e-08 	0.007170670222 	4.225232723e-07 	1.366929043e-05
0.4968975894 	0.002797408746 	-0.001628717189 	-1.569356673e-07 	0.00657463355 	6.845507334e-07 	1.253307887e-05
0.5012034633 	0.002438919768 	-0.001423695668 	-2.229145937e-07 	0.005726233759 	9.398038107e-07 	1.091579307e-05
0.506068373 	0.00196170358 	-0.001147787687 	-2.700181508e-07 	0.004601253219 	1.113506674e-06 	8.771267487e-06
0.5134203412 	0.001441400138 	-0.0008454266117 	-2.447114164e-07 	0.003373716391 	1.002860049e-06 	6.431241117e-06
0.5212948542 	0.001137985524 	-0.0005851939391 	-2.072621163e-07 	0.002350966577 	7.604151777e-07 	4.481595714e-06
0.529729052 	0.001105491161 	-0.0003816439218 	-1.771596648e-07 	0.001684799093 	4.62202926e-07 	3.211695338e-06
0.5387627144 	0.00117299061 	-0.000223438131 	-1.391068443e-07 	0.001377072046 	1.367998177e-07 	2.625082058e-06
0.5484384488 	0.001250423008 	-8.979668616e-05 	-1.311770026e-07 	0.001294097195 	-3.053613371e-08 	2.466908929e-06
0.5588018907 	0.001303635501 	2.694831575e-05 	-1.238132981e-07 	0.001325375556 	-1.234568684e-07 	2.526534178e-06
0.5699019192 	0.001330405402 	0.0001286423378 	-1.156432482e-07 	0.001411322424 	-1.718054553e-07 	2.690372797e-06
0.5817908876 	0.001333680017 	0.0002200849505 	-1.103875817e-07 	0.001528526021 	-2.060067677e-07 	2.913795428e-06
0.5945248701 	0.001315864452 	0.0003027423681 	-1.047718784e-07 	0.001667026733 	-2.332186433e-07 	3.177816279e-06
0.6081639266 	0.001279759317 	0.0003761118072 	-9.698548218e-08 	0.001820385501 	-2.545149845e-07 	3.470160714e-06
0.6227723857 	0.0012297512 	0.0004387168231 	-8.5921022e-08 	0.001981239221 	-2.668591464e-07 	3.776792612e-06
0.638419148 	0.001172717556 	0.0004889194032 	-7.169739527e-08 	0.002139230743 	-2.649305926e-07 	4.077968364e-06
0.6551780116 	0.001117806821 	0.0005259572389 	-5.595025859e-08 	0.002281024993 	-2.445013103e-07 	4.348267615e-06
0.6731280194 	0.001073769262 	0.0005509427769 	-4.115452032e-08 	0.002393669301 	-2.066299075e-07 	4.562998973e-06
0.6923538328 	0.001046916693 	0.0005658883647 	-2.918626907e-08 	0.002467906901 	-1.593116435e-07 	4.704516472e-06
0.7129461301 	0.001038123703 	0.000573091018 	-2.051183577e-08 	0.002502308515 	-1.143599868e-07 	4.77009551e-06
0.7350020349 	0.001037469374 	0.0005759663322 	-1.482821645e-08 	0.002509707943 	-8.073088308e-08 	4.784200877e-06
0.7570579485 	0.0010352098 	0.0005770831641 	-1.079467223e-08 	0.002505432842 	-5.942942277e-08 	4.776051346e-06
0.7776502527 	0.001029517726 	0.0005774728558 	-7.639733071e-09 	0.002497633068 	-4.599844836e-08 	4.761182809e-06
0.7968760713 	0.001023387035 	0.0005773347119 	-7.285935743e-09 	0.002487773752 	-4.487676325e-08 	4.742388212e-06
0.814826083 	0.001019504484 	0.0005768568817 	-7.310077626e-09 	0.002475878639 	-4.559901194e-08 	4.719712821e-06
0.831584949 	0.001017081792 	0.0005768661641 	-5.50750044e-09 	0.002465171845 	-3.844307521e-08 	4.699302696e-06
0.8472317127 	0.001016208485 	0.0005777743556 	-3.905813219e-09 	0.002457604718 	-3.040675276e-08 	4.684877649e-06
0.8618401721 	0.001017523766 	0.0005798517819 	-2.005486211e-09 	0.002454890926 	-2.020623098e-08 	4.679704406e-06
0.8754792281 	0.001022070733 	0.0005837380973 	1.305659487e-09 	0.002459479373 	-5.804981581e-09 	4.688451262e-06
0.8882132094 	0.001031663043 	0.000590567067 	6.927023761e-09 	0.002475377366 	1.637980049e-08 	4.718757256e-06
0.9001021759 	0.001049402838 	0.0006022321236 	1.618374389e-08 	0.002509418506 	5.16827495e-08 	4.783649128e-06
0.9112022019 	0.001080466554 	0.0006217672207 	3.079318018e-08 	0.002573450896 	1.085381963e-07 	4.905712662e-06
0.9215656407 	0.001133423695 	0.0006540147861 	5.329553206e-08 	0.002688009381 	2.000260949e-07 	5.124092974e-06
0.9312413717 	0.001221680811 	0.0007064180821 	8.634426435e-08 	0.002886004614 	3.387138879e-07 	5.501526918e-06
0.9402750304 	0.001362531682 	0.0007886884795 	1.301385801e-07 	0.003209900631 	5.224016779e-07 	6.118962748e-06
0.9487092242 	0.001570828046 	0.0009100546068 	1.76116499e-07 	0.003695222433 	7.118089984e-07 	7.044120992e-06
0.9565837329 	0.001841655711 	0.001068451943 	2.013113183e-07 	0.004330242597 	8.196144549e-07 	8.254645918e-06
0.9639356968 	0.002112975028 	0.00122669069 	1.896680912e-07 	0.004969638529 	7.841993362e-07 	9.473512276e-06
0.9688006083 	0.002314911453 	0.001343121945 	1.568595671e-07 	0.005448545784 	6.597175523e-07 	1.038644261e-05
0.9731064834 	0.002440345398 	0.001414613578 	1.216033873e-07 	0.005748275659 	5.18141896e-07 	1.095781106e-05
0.976917562 	0.002494530492 	0.001445298489 	8.877494929e-08 	0.005879875958 	3.832358662e-07 	1.12086778e-05
0.9802907021 	0.002466910338 	0.001429592977 	6.168780613e-08 	0.005818191091 	2.721505677e-07 	1.10910893e-05
0.9832762282 	0.002349491574 	0.001364207722 	4.038856295e-08 	0.005543925157 	1.882853473e-07 	1.05682622e-05
0.9859186816 	0.002139932942 	0.001249906233 	2.330736638e-08 	0.005050869029 	1.266591365e-07 	9.628360186e-06
0.9882574856 	0.001834060672 	0.001071565005 	1.499848792e-08 	0.004329844736 	8.499067166e-08 	8.253887486e-06
0.990327533 	0.001435859781 	0.0008330947687 	1.286925455e-08 	0.003389299404 	5.786976676e-08 	6.460946671e-06
0.9921597073 	0.0009783862047 	0.0005662525027 	8.890578282e-09 	0.002308819778 	3.622414349e-08 	4.4012522e-06
0.9937813429 	0.0005860015747 	0.0003133257594 	3.629734359e-09 	0.001279753719 	1.562110284e-08 	2.439566277e-06
0.9948347186 	0.0003210482693 	0.0001286882657 	3.129008729e-10 	0.0005463110616 	3.346668357e-09 	1.041420723e-06
0.9958880943 	0.0001336404034 	3.326486046e-05 	-1.387605733e-10 	0.0001710355414 	1.046201102e-09 	3.260412789e-07
0.9969414701 	3.080235155e-05 	3.712585921e-06 	-3.387305795e-11 	3.275779129e-05 	2.547916037e-10 	6.244545475e-08
0.9979948458 	2.70082886e-06 	9.704305741e-08 	-1.071615006e-12 	2.710658063e-06 	2.387620553e-11 	5.167267657e-09
0.9990482216 	3.611612951e-08 	1.442597968e-10 	-1.663809573e-15 	3.604980035e-08 	3.219302654e-13 	6.872093898e-11
0.9990482216 	3.611612951e-08 	1.442597968e-10 	-1.663809573e-15 	3.604980035e-08 	3.219302654e-13 	6.872093898e-11
