1.640171017e-35 	0.01417763042 	-9.725592314e-16 	-4.232830501e-19 	2.929481705e-15 	1.279039335e-16 	5.584406338e-18
0.001912604907 	0.01416611256 	-5.289741678e-05 	-2.968608836e-09 	0.01628592666 	-6.46237913e-06 	3.104550266e-05
0.003825194192 	0.01416022706 	-0.0001550286723 	6.157075672e-08 	0.01636988866 	-6.442218626e-06 	3.120555757e-05
0.005737767794 	0.0141630764 	-0.0002359502812 	9.77620033e-08 	0.01638653356 	-6.360802456e-06 	3.123728736e-05
0.007650325701 	0.01415863229 	-0.0003147806086 	1.297545372e-07 	0.01640477698 	-6.279214555e-06 	3.127206441e-05
0.00956286795 	0.01415438019 	-0.000404378183 	1.645393241e-07 	0.01642292544 	-6.196283739e-06 	3.13066604e-05
0.01250713205 	0.01414751547 	-0.0005190803804 	2.065208273e-07 	0.0164518979 	-6.068962303e-06 	3.136188996e-05
0.01583360909 	0.0141370677 	-0.0006563052609 	2.546086575e-07 	0.0164968377 	-5.93288291e-06 	3.144755772e-05
0.01959191156 	0.0141221125 	-0.0008115490266 	3.058430059e-07 	0.01655985008 	-5.787040651e-06 	3.156767683e-05
0.02385649769 	0.0141011731 	-0.0009870020069 	3.593259083e-07 	0.01664691763 	-5.627313718e-06 	3.173365177e-05
0.02867914987 	0.01407236833 	-0.001185019292 	4.142924071e-07 	0.01676542405 	-5.457131963e-06 	3.195955795e-05
0.03412783817 	0.0140332061 	-0.001408230422 	4.696983903e-07 	0.0169246651 	-5.276784526e-06 	3.226311566e-05
0.04028381842 	0.01398061973 	-0.00165975349 	5.240432114e-07 	0.01713628202 	-5.084863926e-06 	3.266651631e-05
0.04727081711 	0.0139103929 	-0.00194342046 	5.74943894e-07 	0.01741519495 	-4.874672663e-06 	3.319820187e-05
0.05516671354 	0.01381613748 	-0.00226229305 	6.196529578e-07 	0.01778099866 	-4.648102449e-06 	3.389552542e-05
0.0641017149 	0.01367164948 	-0.002655361103 	6.634348312e-07 	0.01831175787 	-4.417912625e-06 	3.490729998e-05
0.07764239172 	0.01344474909 	-0.003153897677 	6.765650631e-07 	0.01910386372 	-4.02019328e-06 	3.641727389e-05
0.09218964228 	0.01312371412 	-0.003712925162 	6.605780488e-07 	0.02014951497 	-3.589440911e-06 	3.841057581e-05
0.1078092542 	0.01268296094 	-0.004290830003 	5.980373854e-07 	0.02143280337 	-3.075760765e-06 	4.085688017e-05
0.1245847907 	0.01209239904 	-0.004864816984 	4.883809835e-07 	0.02295388015 	-2.421701397e-06 	4.375647527e-05
0.1426038343 	0.01138356911 	-0.005420712181 	3.278400735e-07 	0.02459689754 	-1.591287653e-06 	4.688852307e-05
0.1619584402 	0.01069727972 	-0.005910030708 	1.32052086e-07 	0.0260922144 	-6.007029187e-07 	4.97390126e-05
0.17459936 	0.01055173109 	-0.00619497963 	4.478292234e-06 	0.02652351143 	-4.039729541e-05 	5.056118461e-05
0.1827456333 	0.01045848781 	-0.006378850544 	9.55047593e-08 	0.02680123665 	-3.771721002e-07 	5.109060607e-05
0.2050679472 	0.0105359577 	-0.006789146401 	3.410934846e-07 	0.02667845302 	-1.263748445e-06 	5.085654635e-05
0.229034003 	0.01044609846 	-0.007028533873 	5.701963584e-07 	0.02606059237 	-1.953011139e-06 	4.967873223e-05
0.2547591248 	0.01010249146 	-0.007058091635 	7.246006692e-07 	0.02477651407 	-2.293694914e-06 	4.72309221e-05
0.2823668212 	0.009379054497 	-0.006762128125 	7.221114004e-07 	0.02259949801 	-2.064547697e-06 	4.308092442e-05
0.3119969157 	0.008128777378 	-0.006016853975 	4.41781252e-07 	0.01920358941 	-9.971744548e-07 	3.660737878e-05
0.3437800877 	0.006173660355 	-0.004599010889 	-3.451438059e-07 	0.0142809113 	1.056497696e-06 	2.72233861e-05
0.3778714604 	0.003606977326 	-0.002458060544 	-9.44209406e-07 	0.0080286976 	2.921022815e-06 	1.530492909e-05
0.4144274988 	0.001687909714 	-0.0007751442081 	-6.040700367e-07 	0.003052889844 	2.156311709e-06 	5.819656549e-06
0.4536170638 	0.001092665488 	-0.0001544843857 	-1.558781135e-07 	0.001213476798 	3.609234643e-07 	2.313224045e-06
0.4956212291 	0.001020433369 	8.667645308e-05 	-2.664679061e-08 	0.001013798411 	-2.738006679e-08 	1.932581542e-06
0.5376461177 	0.001017331424 	0.0002116591288 	1.797230548e-09 	0.00114037321 	-4.809366636e-08 	2.173868289e-06
0.5768947117 	0.00102137828 	0.0002987438427 	-7.273557102e-09 	0.001307161628 	-3.953046122e-08 	2.49181337e-06
0.6135457513 	0.001023547566 	0.0003654244846 	-1.580542424e-08 	0.001472213067 	-3.105897013e-08 	2.806447287e-06
0.6477684763 	0.001024677289 	0.0004194541927 	-2.201516469e-08 	0.001631002641 	-1.96991014e-08 	3.109144347e-06
0.6797223209 	0.001027823513 	0.0004667448801 	-2.472578498e-08 	0.001790844412 	-9.232149524e-10 	3.413847189e-06
0.7095570023 	0.001037864036 	0.0005127526278 	-2.137444944e-08 	0.001967326945 	2.882051923e-08 	3.750271947e-06
0.7374124644 	0.001062401684 	0.0005655374122 	-8.866897575e-09 	0.002185824571 	8.136769482e-08 	4.166789151e-06
0.7634198193 	0.001115205474 	0.0006366373444 	3.86302625e-09 	0.002479926661 	1.303573653e-07 	4.727429476e-06
0.7877015329 	0.001243419862 	0.0007324055552 	3.300808054e-08 	0.002871109272 	2.300856489e-07 	5.473132256e-06
0.8103720244 	0.001482159352 	0.0008743966575 	9.153427713e-08 	0.003436950883 	4.422465832e-07 	6.551783635e-06
0.8315381713 	0.001836439252 	0.001085822224 	1.554771998e-07 	0.004271432275 	7.082689127e-07 	8.1425371e-06
0.851299777 	0.002302464553 	0.00135852951 	2.05559515e-07 	0.005368827335 	9.458273615e-07 	1.023447709e-05
0.8697500334 	0.00283269883 	0.001661483603 	2.166269089e-07 	0.006621477096 	1.021409758e-06 	1.262237569e-05
0.8869759541 	0.003340239093 	0.00194602238 	1.628885856e-07 	0.007828977783 	8.122884065e-07 	1.492420761e-05
0.9030587819 	0.003728536462 	0.002160575211 	4.438577347e-08 	0.008766649804 	3.216726879e-07 	1.671167109e-05
0.9180743698 	0.003924004473 	0.002264821234 	-1.031020601e-07 	0.009260410851 	-2.948217114e-07 	1.765291688e-05
0.9320935383 	0.003903426941 	0.002244979787 	-2.201947817e-07 	0.00924898161 	-7.970228689e-07 	1.763112957e-05
0.9413702454 	0.003740280291 	0.002144545996 	-2.7803235e-07 	0.008894898481 	-1.065408715e-06 	1.695614871e-05
0.9495809481 	0.003509872178 	0.002007645063 	-2.909697556e-07 	0.008372659517 	-1.152351576e-06 	1.59606161e-05
0.9568481429 	0.003234401503 	0.001846381587 	-2.726807583e-07 	0.007736154617 	-1.112186903e-06 	1.474726085e-05
0.9632802503 	0.002937971243 	0.001674589715 	-2.326119669e-07 	0.007041495359 	-9.816988904e-07 	1.342304724e-05
0.9689732317 	0.00263519881 	0.001501155329 	-1.814889979e-07 	0.006322142824 	-7.996688063e-07 	1.205176137e-05
0.9740120216 	0.002329647141 	0.001327013037 	-1.281217816e-07 	0.005588340681 	-6.019178849e-07 	1.065293054e-05
0.9784717943 	0.002013894844 	0.001145887699 	-7.887598251e-08 	0.004827010296 	-4.177485358e-07 	9.201623223e-06
0.9824190858 	0.001673729477 	0.0009563691733 	-4.886517746e-08 	0.00399855777 	-2.656614349e-07 	7.622362451e-06
0.9859127864 	0.001287653187 	0.0007446892857 	-3.610033401e-08 	0.003056610591 	-1.659094548e-07 	5.826749328e-06
0.9890050191 	0.0009012017083 	0.0004894881125 	-7.24582046e-09 	0.00199099425 	-5.12984383e-08 	3.795388408e-06
0.9910136596 	0.0005544728138 	0.0002381859241 	1.532065251e-08 	0.0009981675345 	2.431357615e-08 	1.902784747e-06
0.9930223001 	0.0002432315048 	7.077360791e-05 	8.902442458e-09 	0.0003383109773 	1.006636064e-08 	6.449147513e-07
0.9950309406 	5.370056596e-05 	7.657203828e-06 	1.626547983e-09 	5.858669061e-05 	7.873172513e-10 	1.116825156e-07
0.9970395811 	3.618875358e-06 	1.331132949e-07 	3.704807914e-11 	3.632712211e-06 	-1.610520084e-11 	6.924959135e-09
0.9990482216 	2.577146894e-08 	7.543891012e-11 	2.462889703e-14 	2.572309922e-08 	-1.178242115e-13 	4.903537647e-11
0.9990482216 	2.577146894e-08 	7.543891012e-11 	2.462889703e-14 	2.572309922e-08 	-1.178242115e-13 	4.903537647e-11
