0.2158351985 	9.756597887e-08 	-1.442919068e-09 	1.504189932e-11 	9.483685992e-08 	-8.383274321e-10 	1.807854135e-10
0.2158351985 	9.756597887e-08 	-1.442919068e-09 	1.504189932e-11 	9.483685992e-08 	-8.383274321e-10 	1.807854135e-10
0.2173898312 	1.28361861e-05 	-1.48897403e-06 	1.559239057e-08 	1.019527335e-05 	-9.668399527e-08 	1.943502464e-08
0.218944359 	0.000178612559 	-4.165018276e-05 	3.300473181e-07 	0.0001070990013 	-9.192924976e-07 	2.041604632e-07
0.2204983132 	0.000635577297 	-0.0001714749121 	9.520715581e-07 	0.000353510469 	-2.3766751e-06 	6.73889207e-07
0.22205123 	0.001173241613 	-0.0003303244714 	1.183856314e-06 	0.0006678627594 	-3.890717368e-06 	1.273132042e-06
0.2236026504 	0.001575091971 	-0.0004559382615 	9.18082174e-07 	0.001006443487 	-6.677773178e-06 	1.918561013e-06
0.2259870383 	0.001756932628 	-0.0005056658327 	-3.013088345e-07 	0.001401494571 	-9.844975053e-06 	2.671638178e-06
0.2286733807 	0.001699648239 	-0.0004281893133 	-1.498529448e-06 	0.001852542216 	-1.005658629e-05 	3.531460352e-06
0.2316959752 	0.001560736663 	-0.0002719702417 	-1.120837603e-06 	0.002225029056 	-7.174019098e-06 	4.241523795e-06
0.2350910569 	0.001455006411 	-0.0001341878021 	7.69728106e-08 	0.002394400298 	-4.258058348e-06 	4.564392458e-06
0.2389916993 	0.001402459468 	-7.647281134e-05 	8.221366321e-07 	0.002416155024 	-2.739884881e-06 	4.605863011e-06
0.2434078721 	0.001378521484 	-7.853043364e-05 	8.327047604e-07 	0.002376682082 	-2.009416799e-06 	4.530616613e-06
0.2483623539 	0.001355266107 	-9.024283986e-05 	6.223637178e-07 	0.002329311364 	-1.48973163e-06 	4.440314858e-06
0.2539168455 	0.001326875036 	-8.981171938e-05 	4.504380334e-07 	0.002288312065 	-1.016414854e-06 	4.3621588e-06
0.2602735202 	0.001298095415 	-8.237059266e-05 	2.854702625e-07 	0.002256615966 	-5.607471256e-07 	4.301737225e-06
0.2674522301 	0.001271353642 	-7.574444414e-05 	7.972606183e-08 	0.002230931311 	-1.352400789e-07 	4.252775134e-06
0.2701019815 	0.001265747155 	-7.410493354e-05 	2.383108393e-08 	0.002226564156 	-1.019118364e-06 	4.244450123e-06
0.277968411 	0.001249068807 	-7.001506623e-05 	1.994211665e-07 	0.002210859115 	-3.790561492e-07 	4.21451195e-06
0.2892151638 	0.001234667779 	-6.589791678e-05 	5.017628338e-07 	0.002201440232 	-8.274025983e-07 	4.196556941e-06
0.3013211162 	0.001227418244 	-6.35313283e-05 	8.452151401e-07 	0.002203510197 	-1.213580545e-06 	4.200502869e-06
0.3143027377 	0.001225358985 	-6.105864003e-05 	1.230567409e-06 	0.002215605565 	-1.539861941e-06 	4.223560002e-06
0.3282678633 	0.001227543182 	-5.736844297e-05 	1.661605133e-06 	0.002236699387 	-1.813284039e-06 	4.263770691e-06
0.3433513408 	0.001233197633 	-5.201863136e-05 	2.139174358e-06 	0.002266176908 	-2.039545451e-06 	4.319963038e-06
0.359565347 	0.001241671711 	-4.443350238e-05 	2.525487492e-06 	0.002303422864 	-2.114076884e-06 	4.390964183e-06
0.3770029629 	0.001252273939 	-3.376623485e-05 	2.246328289e-06 	0.002347813421 	-1.667377229e-06 	4.475584921e-06
0.3957533827 	0.001264409017 	-1.92052757e-05 	1.928811189e-06 	0.002398667215 	-1.290616056e-06 	4.572526386e-06
0.4159554384 	0.001277421315 	3.647216105e-07 	1.577236842e-06 	0.002454980582 	-9.759267599e-07 	4.679875316e-06
0.4376602607 	0.001290721035 	2.598402805e-05 	1.203108287e-06 	0.002515257218 	-7.140371459e-07 	4.794779338e-06
0.4609443107 	0.001303771427 	5.866715183e-05 	8.218041465e-07 	0.002577387692 	-4.903208493e-07 	4.913217289e-06
0.4859777749 	0.001316292167 	9.893793051e-05 	4.555699575e-07 	0.002638919146 	-2.879452551e-07 	5.030513341e-06
0.5128005118 	0.001328213858 	0.0001468484175 	1.358109945e-07 	0.002696660447 	-9.569679128e-08 	5.140584311e-06
0.5281619985 	0.001334364869 	0.0001768312472 	8.084910677e-07 	0.002723689679 	-1.860269571e-06 	5.192109538e-06
0.5414840545 	0.001340086422 	0.0002021191493 	8.04691918e-08 	0.0027465898 	-9.250839899e-08 	5.235763534e-06
0.5721687136 	0.001352130185 	0.0002661759601 	1.899806288e-07 	0.002784049547 	-2.544223622e-07 	5.307172222e-06
0.6050359512 	0.001363951627 	0.0003386643255 	2.209317273e-07 	0.002802627221 	-3.668375932e-07 	5.342586432e-06
0.637884791 	0.001375354972 	0.0004126193718 	1.861514765e-07 	0.002797334149 	-4.133944612e-07 	5.332496366e-06
0.6685342863 	0.001390304245 	0.0004778760983 	1.411252025e-07 	0.002762693866 	-3.716750641e-07 	5.26646236e-06
0.6971361319 	0.001411006192 	0.0005289018196 	1.316332976e-07 	0.00269975932 	-2.535655698e-07 	5.146491622e-06
0.7238334956 	0.001434422137 	0.0005657866921 	1.334701985e-07 	0.002618773942 	-1.400792975e-07 	4.992110984e-06
0.7487597886 	0.001455793324 	0.0005935045352 	1.241360574e-07 	0.002531335389 	-6.920096836e-08 	4.8254288e-06
0.7720389899 	0.00147108518 	0.0006189269695 	1.043737753e-07 	0.002446538276 	-3.338830196e-08 	4.663781935e-06
0.7937834623 	0.001480822181 	0.0006442811181 	7.823852479e-08 	0.002366560912 	-1.84735466e-08 	4.51132285e-06
0.8140976249 	0.001486719011 	0.0006702966158 	5.369805981e-08 	0.002292129257 	-1.117146121e-08 	4.369435429e-06
0.8330771917 	0.001491032769 	0.0006981027401 	3.066561321e-08 	0.00222366081 	-8.124091393e-09 	4.238915539e-06
0.8508109857 	0.001496569981 	0.0007286849546 	1.086819705e-08 	0.002161337574 	-6.024919391e-09 	4.120110129e-06
0.8673812119 	0.001507528261 	0.0007562542034 	1.545153509e-10 	0.002104359936 	-2.50759305e-09 	4.011494914e-06
0.8789729725 	0.001522096262 	0.0007705956734 	6.100108306e-08 	0.002066470761 	-9.509128187e-07 	3.939267616e-06
0.8828624254 	0.001527005476 	0.0007754048957 	1.745713223e-10 	0.002053737523 	6.578898319e-11 	3.914994526e-06
0.897323651 	0.001556745032 	0.0007895873706 	-4.507152979e-09 	0.002013138389 	1.094382488e-09 	3.837601291e-06
0.9108370337 	0.001600664483 	0.0008052998847 	-7.116816195e-09 	0.001986405069 	5.234598963e-09 	3.786640154e-06
0.9234642351 	0.001664231134 	0.0008281685604 	-3.696992987e-09 	0.001979886672 	1.411739485e-08 	3.774214279e-06
0.9352628795 	0.001752633561 	0.0008612315029 	2.621378664e-09 	0.002002524203 	2.785306572e-08 	3.817367703e-06
0.9462868468 	0.001857494866 	0.0009024561304 	8.505033828e-09 	0.002055180064 	4.023165226e-08 	3.917744409e-06
0.9535860031 	0.001957887886 	0.0009434063929 	9.219295273e-09 	0.002120176214 	4.051265067e-08 	4.041645136e-06
0.9600493528 	0.002043917161 	0.0009789720675 	3.588392508e-09 	0.002180812236 	2.691798373e-08 	4.157234247e-06
0.9657723032 	0.00210721655 	0.001004668859 	-8.244631627e-09 	0.002223807897 	-8.341329809e-10 	4.239195927e-06
0.9708394384 	0.002131738263 	0.001012647199 	-2.396102098e-08 	0.002230438976 	-3.788431611e-08 	4.251836608e-06
0.9753257253 	0.002102599413 	0.0009957841176 	-3.992432793e-08 	0.002184006831 	-7.616015547e-08 	4.163324033e-06
0.9792976023 	0.002006315709 	0.0009482103325 	-5.201189641e-08 	0.00206990646 	-1.070413588e-07 	3.945817014e-06
0.9828139396 	0.001829984139 	0.000866083899 	-5.852764541e-08 	0.001875079601 	-1.263987924e-07 	3.574422871e-06
0.9859268946 	0.001552930453 	0.0007332486833 	-6.408768058e-08 	0.001580879389 	-1.376755343e-07 	3.013595497e-06
0.9886826718 	0.001166198484 	0.0005463190888 	-6.380853252e-08 	0.00118009541 	-1.356828822e-07 	2.249589843e-06
0.9911221987 	0.0007393355708 	0.0003451743131 	-5.064831e-08 	0.0007448143186 	-1.094334857e-07 	1.419823102e-06
0.9927070693 	0.0003820629341 	0.0001660219933 	-2.957056653e-08 	0.0003843379105 	-6.663221381e-08 	7.326548786e-07
0.9942921068 	0.0001429554203 	4.711819875e-05 	-9.85213094e-09 	0.0001436072618 	-2.646411283e-08 	2.737553546e-07
0.9958773114 	2.897536363e-05 	5.305364538e-06 	-9.177333019e-10 	2.899068804e-05 	-4.663851793e-09 	5.526430894e-08
0.997462683 	2.081286271e-06 	1.175663778e-07 	-5.687268688e-12 	2.077918434e-06 	-1.791988013e-10 	3.961090062e-09
0.9990482216 	1.818353633e-08 	1.027695585e-10 	2.151819696e-14 	1.814888588e-08 	1.466989072e-12 	3.45968207e-11
