0.4709558481 	5.669936048e-08 	-2.730041376e-10 	-1.25937716e-15 	5.659110667e-08 	-9.398841783e-13 	1.07878378e-10
0.4709558481 	5.669936048e-08 	-2.730041376e-10 	-1.25937716e-15 	5.659110667e-08 	-9.398841783e-13 	1.07878378e-10
0.4720092239 	4.659370968e-06 	-2.006705229e-07 	-3.933888786e-13 	4.649879538e-06 	-3.69992007e-11 	8.863962767e-09
0.4730625996 	5.434476666e-05 	-7.641967544e-06 	7.304131867e-11 	5.425672025e-05 	-6.084098552e-10 	1.034283887e-07
0.4741159754 	0.0002540722618 	-6.886583774e-05 	1.045311685e-09 	0.0002541380155 	-3.118794435e-09 	4.844576916e-07
0.4751693511 	0.000688476951 	-0.000270416727 	4.442274685e-09 	0.0006882799445 	-8.00048768e-09 	1.312052872e-06
0.4762227269 	0.001390413594 	-0.0006297198674 	7.730179551e-09 	0.001386447445 	-1.39352193e-08 	2.642954174e-06
0.4778443634 	0.002311113116 	-0.001073432226 	1.029939847e-08 	0.002302917219 	-2.007416323e-08 	4.390000283e-06
0.4796765386 	0.003239667636 	-0.001512605552 	1.511353977e-08 	0.003231279075 	-2.533668374e-08 	6.159716005e-06
0.4817465869 	0.003995222357 	-0.00186756188 	1.723795504e-08 	0.003987399516 	-2.716425709e-08 	7.601091718e-06
0.4840853915 	0.004551897231 	-0.002120200919 	1.572484848e-08 	0.004543535905 	-2.541389292e-08 	8.661242246e-06
0.4867278453 	0.004926553623 	-0.002290771731 	1.383579276e-08 	0.004916943303 	-2.088539866e-08 	9.37306053e-06
0.4897133715 	0.005134612764 	-0.002386071151 	1.016436047e-08 	0.0051234547 	-1.218740814e-08 	9.766728649e-06
0.4930865115 	0.005199169882 	-0.002415457279 	4.458233454e-09 	0.005186592956 	9.767591705e-10 	9.887087714e-06
0.4968975894 	0.005142383537 	-0.002388621982 	-3.526244351e-09 	0.005128148633 	1.900993584e-08 	9.77567659e-06
0.5012034633 	0.00497528351 	-0.002310615851 	-1.466622181e-08 	0.004959048087 	4.375018645e-08 	9.45332395e-06
0.506068373 	0.004671633318 	-0.002169243604 	-3.19794756e-08 	0.004652746896 	8.166768853e-08 	8.869428747e-06
0.5134203412 	0.004174558221 	-0.00193847456 	-5.831587173e-08 	0.004153410155 	1.386791786e-07 	7.917554137e-06
0.5212948542 	0.003514922379 	-0.001633279395 	-8.66030471e-08 	0.003496033754 	1.983182483e-07 	6.664412007e-06
0.529729052 	0.00280165236 	-0.001303465907 	-1.004959327e-07 	0.002786960081 	2.260572271e-07 	5.31272051e-06
0.5387627144 	0.00215155012 	-0.001001268127 	-8.92554352e-08 	0.002135887971 	1.991385398e-07 	4.071596111e-06
0.5484384488 	0.001649541572 	-0.0007228791866 	-8.041102793e-08 	0.001637163211 	1.378410937e-07 	3.120888107e-06
0.5588018907 	0.001317735655 	-0.0004640767053 	-6.590379175e-08 	0.00131659468 	7.896725413e-08 	2.509795388e-06
0.5699019192 	0.001144772332 	-0.0002709355714 	-4.545389355e-08 	0.001149030064 	2.996283115e-08 	2.190370658e-06
0.5817908876 	0.001087771358 	-0.0001360712518 	-4.23069219e-08 	0.001094129584 	-1.050053233e-08 	2.085715084e-06
0.5945248701 	0.001093672301 	-2.627835353e-05 	-3.692558383e-08 	0.001106541331 	-3.368598093e-08 	2.109375324e-06
0.6081639266 	0.001127674413 	7.004192878e-05 	-2.456609564e-08 	0.001147598939 	-4.015820919e-08 	2.187642536e-06
0.6227723857 	0.001173683255 	0.0001585995918 	-9.146484471e-09 	0.0011994305 	-3.775436494e-08 	2.286447898e-06
0.638419148 	0.00122364774 	0.0002432754836 	2.372294954e-09 	0.001256831519 	-2.765484091e-08 	2.395870194e-06
0.6551780116 	0.001274908715 	0.0003271498133 	-1.63407539e-09 	0.001314126674 	-1.08668652e-08 	2.505090683e-06
0.6731280194 	0.001327455291 	0.0004098121177 	-3.915095836e-08 	0.00136536651 	6.923780371e-09 	2.602768053e-06
0.6923538328 	0.001379741385 	0.0004568254912 	-1.259395243e-07 	0.001415776587 	1.534577214e-08 	2.69886367e-06
0.7129461301 	0.001432573359 	0.000483647824 	-2.132621431e-07 	0.001468141977 	-1.128410352e-10 	2.798686657e-06
0.7350020349 	0.001481372367 	0.0005425422707 	-2.18396095e-07 	0.001512822476 	-4.022617269e-08 	2.883860106e-06
0.7570579485 	0.001516383819 	0.0006274073199 	-1.342379305e-07 	0.001543522909 	-8.202079754e-08 	2.942383665e-06
0.7776502527 	0.00153890908 	0.0006764639477 	-6.601696739e-08 	0.001567698222 	-1.003917648e-07 	2.98846853e-06
0.7968760713 	0.001559273312 	0.0006599404517 	-6.086505651e-08 	0.001593843491 	-8.883787507e-08 	3.03830868e-06
0.814826083 	0.001588267826 	0.000639830251 	-6.01028589e-08 	0.001619744127 	-6.110495221e-08 	3.087682491e-06
0.831584949 	0.001628408822 	0.0006566282516 	-4.531969591e-08 	0.001649627124 	-3.233199242e-08 	3.144647788e-06
0.8472317127 	0.001680324437 	0.0007049654841 	-2.406468472e-08 	0.001693999609 	-7.635013901e-09 	3.229234078e-06
0.8618401721 	0.001753196222 	0.0007780601304 	5.756426103e-10 	0.001758841032 	1.488282282e-08 	3.352839852e-06
0.8754792281 	0.001858797644 	0.000856655704 	2.308663855e-08 	0.001857169598 	4.168750684e-08 	3.540281428e-06
0.8882132094 	0.002012150474 	0.0009347732991 	4.125343201e-08 	0.002006835838 	7.700216163e-08 	3.825586878e-06
0.9001021759 	0.00222987537 	0.001034871002 	6.026803304e-08 	0.002220390823 	1.194145609e-07 	4.232682034e-06
0.9112022019 	0.002519649533 	0.001168464182 	8.022595938e-08 	0.00250512407 	1.632992346e-07 	4.775462741e-06
0.9215656407 	0.002872820025 	0.001331920133 	9.475450767e-08 	0.002854427889 	1.952043802e-07 	5.441332904e-06
0.9312413717 	0.003260755654 	0.001511952959 	9.774239266e-08 	0.003240002957 	2.02364549e-07 	6.176346148e-06
0.9402750304 	0.003645097429 	0.001690593986 	8.93058062e-08 	0.003623626273 	1.850839193e-07 	6.907638811e-06
0.9487092242 	0.003992330874 	0.001852076569 	7.332639883e-08 	0.00397112707 	1.513853685e-07 	7.570071914e-06
0.9565837329 	0.004273933829 	0.001983123062 	5.39563821e-08 	0.00425350988 	1.102158531e-07 	8.108372034e-06
0.9639356968 	0.004450855189 	0.002065734156 	3.613645923e-08 	0.004432335708 	7.230998707e-08 	8.449263763e-06
0.9688006083 	0.004520571196 	0.00209862445 	2.312260807e-08 	0.004504423527 	4.469356496e-08 	8.586683182e-06
0.9731064834 	0.004512232336 	0.002095174776 	1.385683682e-08 	0.004497877107 	2.516000484e-08 	8.574203887e-06
0.976917562 	0.004427181406 	0.002056090987 	6.816807729e-09 	0.004414226644 	1.049514323e-08 	8.414742855e-06
0.9802907021 	0.004251769885 	0.00197527329 	1.556805807e-09 	0.004240279658 	-2.577501988e-10 	8.083151554e-06
0.9832762282 	0.003968575752 	0.001845173262 	-2.370478101e-09 	0.003958472755 	-8.06138487e-09 	7.545949271e-06
0.9859186816 	0.003563665006 	0.001660680477 	-5.33357552e-09 	0.003554594105 	-1.368714718e-08 	6.776044312e-06
0.9882574856 	0.003024172577 	0.001410048594 	-7.354575234e-09 	0.003016660647 	-1.734923256e-08 	5.750593631e-06
0.990327533 	0.002352092441 	0.001093558682 	-8.138172569e-09 	0.002344427603 	-1.860063958e-08 	4.46913061e-06
0.9921597073 	0.00159368456 	0.0007397765641 	-7.431741241e-09 	0.001586977576 	-1.664946942e-08 	3.025220337e-06
0.9937813429 	0.0009001325404 	0.0003936876587 	-5.955951954e-09 	0.0008980742634 	-1.204390358e-08 	1.711979153e-06
0.9948347186 	0.0004184950947 	0.0001449142594 	-3.518052119e-09 	0.0004186401938 	-6.876991465e-09 	7.980445644e-07
0.9958880943 	0.0001477188691 	3.366873761e-05 	-1.02574724e-09 	0.0001476265002 	-2.773952853e-09 	2.814171401e-07
0.9969414701 	3.095245846e-05 	3.511548692e-06 	-1.274434209e-10 	3.088880799e-05 	-6.212184847e-10 	5.888265313e-08
0.9979948458 	2.639090255e-06 	8.994644485e-08 	-3.738734435e-12 	2.633816836e-06 	-5.529920487e-11 	5.02078692e-09
0.9990482216 	3.515461255e-08 	1.331064705e-10 	-1.331854456e-14 	3.508763229e-08 	-2.634817996e-12 	6.688677925e-11
