0.4709558481 	0.02725801279 	1.038959766e-05 	-2.70931423e-09
0.4720092239 	0.1045018638 	0.0001077378942 	-1.698110511e-08
0.4730625996 	0.208110643 	0.0002904838563 	-2.749448013e-08
0.4741159754 	0.309577679 	8.800790917e-05 	2.114542075e-08
0.4751693511 	0.405690144 	-0.0003149940956 	3.118111857e-08
0.4762227269 	0.5043845101 	-0.0001834468589 	-5.786524802e-08
0.4778443634 	0.6131189178 	8.248855145e-05 	-6.146684425e-08
0.4796765386 	0.7206234635 	0.000193044103 	-4.254798304e-08
0.4817465869 	0.8187143867 	0.0003272049353 	-9.312456835e-08
0.4840853915 	0.9088888828 	0.0004058460016 	-1.299735197e-07
0.4867278453 	0.9927286646 	0.0004900272611 	-1.709374707e-07
0.4897133715 	1.071328705 	0.0006210436809 	-2.292016289e-07
0.4930865115 	1.145589837 	0.0007800182354 	-3.023035551e-07
0.4968975894 	1.215879178 	0.0009844109969 	-3.96816789e-07
0.5012034633 	1.281691447 	0.001256741049 	-4.836607589e-07
0.506068373 	1.346176968 	0.001430319206 	-3.703887644e-07
0.5134203412 	1.403312381 	0.001668303603 	-3.995029859e-07
0.5212948542 	1.440472583 	0.002013613691 	-5.239573404e-07
0.529729052 	1.458846943 	0.002012125056 	-3.187892865e-07
0.5387627144 	1.466229245 	0.001920662496 	-2.372460164e-07
0.5484384488 	1.468509782 	0.001942977722 	-2.960855789e-07
0.5588018907 	1.468544171 	0.001900203514 	-2.660520942e-07
0.5699019192 	1.467381652 	0.001834491798 	-2.391443699e-07
0.5817908876 	1.465378109 	0.001751359787 	-2.200601781e-07
0.5945248701 	1.462645333 	0.001653870449 	-2.030430033e-07
0.6081639266 	1.459190831 	0.001542685975 	-1.843551528e-07
0.6227723857 	1.454974594 	0.001417192015 	-1.636763515e-07
0.638419148 	1.449941861 	0.001276996311 	-1.414456646e-07
0.6551780116 	1.444049345 	0.001120889743 	-1.180292551e-07
0.6731280194 	1.437282269 	0.0009491993728 	-9.303597483e-08
0.6923538328 	1.429645633 	0.0007633854764 	-6.704536235e-08
0.7129461301 	1.421131978 	0.0005602646698 	-4.15264812e-08
0.7350020349 	1.411853157 	0.0003452081617 	-1.549719331e-08
0.7570579485 	1.402238005 	0.0001360074995 	3.477739539e-09
0.7776502527 	1.392714744 	-5.690309567e-05 	2.769266115e-08
0.7968760713 	1.383364108 	-0.0002310862504 	5.789618784e-08
0.814826083 	1.374099061 	-0.0003886967439 	7.018404983e-08
0.831584949 	1.364820465 	-0.0005339894006 	8.226242195e-08
0.8472317127 	1.355420428 	-0.000666546973 	1.003509899e-07
0.8618401721 	1.345782378 	-0.0007862503992 	1.12710825e-07
0.8754792281 	1.335768851 	-0.0008945086198 	1.237248153e-07
0.8882132094 	1.32519498 	-0.0009912991062 	1.350759288e-07
0.9001021759 	1.313766923 	-0.001075220422 	1.490500059e-07
0.9112022019 	1.300962869 	-0.00114228598 	1.695198645e-07
0.9215656407 	1.285836912 	-0.001185174613 	1.994426895e-07
0.9312413717 	1.266744431 	-0.001193134476 	2.375694414e-07
0.9402750304 	1.241091064 	-0.001157448214 	2.727368237e-07
0.9487092242 	1.205475984 	-0.001083623733 	2.97025024e-07
0.9565837329 	1.15662171 	-0.0009612634372 	3.266303309e-07
0.9639356968 	1.097560116 	-0.0007830550376 	3.357758775e-07
0.9688006083 	1.038371201 	-0.0006084615639 	2.963780939e-07
0.9731064834 	0.9802621159 	-0.0004767364779 	2.383856333e-07
0.976917562 	0.9190887255 	-0.0003723941907 	1.818329334e-07
0.9802907021 	0.8548009293 	-0.0002873878314 	1.320650021e-07
0.9832762282 	0.7869218624 	-0.0002286837006 	9.528685108e-08
0.9859186816 	0.7147809182 	-0.0001846203084 	6.691798375e-08
0.9882574856 	0.6374731315 	-0.0001290579096 	3.88724667e-08
0.990327533 	0.5541358486 	-8.636960457e-05 	1.607508491e-08
0.9921597073 	0.4650032291 	0.00010004425 	2.008355329e-08
0.9937813429 	0.3776598929 	0.0002684790968 	2.362080396e-08
0.9948347186 	0.3006937329 	8.11580841e-05 	2.24264185e-09
0.9958880943 	0.2279196492 	-0.000148661042 	-4.314585217e-09
0.9969414701 	0.1527048606 	-0.0001274868056 	1.81547733e-09
0.9979948458 	0.07656784861 	-2.794256769e-05 	1.5002407e-09
0.9990482216 	0.02192077629 	2.402256709e-07 	3.045528625e-10
0.9990482216 	0.02192077629 	2.402256709e-07 	3.045528625e-10
