/*--------------------------------*- C++ -*----------------------------------*\
| =========                 |                                                 |
| \\      /  F ield         | OpenFOAM: The Open Source CFD Toolbox           |
|  \\    /   O peration     | Version:  2.4.0                                 |
|   \\  /    A nd           | Web:      www.OpenFOAM.org                      |
|    \\/     M anipulation  |                                                 |
\*---------------------------------------------------------------------------*/
FoamFile
{
    version     2.0;
    format      ascii;
    class       volVectorField;
    location    "2000";
    object      U;
}
// * * * * * * * * * * * * * * * * * * * * * * * * * * * * * * * * * * * * * //

dimensions      [0 1 -1 0 0 0 0];

internalField   nonuniform List<vector> 
15296
(
(2.6702802 -3.6295117e-07 -1.787147e-14)
(2.6707995 -2.9183179e-06 -1.8539013e-14)
(2.6712384 -2.4082904e-06 -1.8964867e-14)
(2.6716068 -2.0917581e-06 -1.9661206e-14)
(2.6719438 -1.6545477e-06 -1.9785632e-14)
(2.6721691 -8.0902023e-07 -1.9366934e-14)
(2.6722298 2.5025581e-07 -1.9435075e-14)
(2.6721043 1.3183411e-06 -1.9568264e-14)
(2.6718078 1.8481889e-06 -1.9485377e-14)
(2.6715025 2.6267759e-06 -1.9707736e-14)
(2.6709375 3.9101158e-06 -1.9954313e-14)
(2.6701822 5.948115e-06 -2.0303141e-14)
(2.6689019 9.2959934e-06 -2.0672576e-14)
(2.6670064 1.3380568e-05 -2.2998242e-14)
(2.6643171 1.2339371e-05 -2.8719894e-14)
(2.6627566 5.5005793e-06 -2.990634e-14)
(2.6623493 1.9677667e-06 -3.1386888e-14)
(2.6625821 8.8244116e-06 -3.2561298e-14)
(2.6631498 1.1961183e-05 -1.6705854e-14)
(2.6624755 1.4989385e-06 -3.6174057e-14)
(2.662616 -1.2488988e-07 -3.1402903e-14)
(2.662883 1.9532944e-06 -3.4772071e-14)
(2.6631018 3.3700215e-06 -1.9868802e-14)
(2.6631965 1.1163804e-06 -2.5195486e-14)
(2.6630831 -5.0583471e-06 -4.0224875e-14)
(2.6626465 -1.5660352e-05 -3.3181381e-14)
(2.6617207 -3.2595606e-05 -4.2967364e-14)
(2.6600627 -5.9159837e-05 -3.4201852e-14)
(2.6573131 -0.000100488 -2.8793948e-14)
(2.6529229 -0.00016509522 -2.5362822e-14)
(2.6460298 -0.00026750957 -1.7611707e-14)
(2.6351954 -0.0004342164 -1.5441471e-14)
(2.6179802 -0.00071246602 2.131001e-14)
(2.5899826 -0.0011984144 2.5161158e-14)
(2.5421549 -0.0020880976 3.9442151e-14)
(2.4589457 -0.0037919484 9.8252538e-14)
(2.2803501 -0.0078036538 2.8034759e-13)
(1.9034422 -0.023793168 1.4253059e-12)
(2.6702749 -6.9220843e-07 -2.2779359e-14)
(2.6707832 -7.5251173e-06 -2.4732373e-14)
(2.6712247 -6.3443255e-06 -2.5313039e-14)
(2.6715981 -5.4903924e-06 -2.7754049e-14)
(2.6719369 -4.3447811e-06 -2.8048202e-14)
(2.6721623 -2.1966002e-06 -2.7166605e-14)
(2.6722233 4.941507e-07 -2.7115192e-14)
(2.6720979 3.2013536e-06 -2.722515e-14)
(2.6718017 4.5388572e-06 -2.7014977e-14)
(2.6714974 6.5017547e-06 -2.7500237e-14)
(2.670934 9.8022988e-06 -2.7898737e-14)
(2.6701801 1.5005726e-05 -2.8706945e-14)
(2.6688964 2.3264911e-05 -2.9616768e-14)
(2.6669969 3.3412178e-05 -3.5758914e-14)
(2.6642935 3.0866058e-05 -5.1587246e-14)
(2.6627145 1.4320314e-05 -5.5347775e-14)
(2.6623118 1.3495642e-06 -5.7624624e-14)
(2.66255 -5.1971392e-06 -5.1750039e-14)
(2.6631167 5.554899e-07 -2.6844627e-14)
(2.6624979 3.6610288e-06 -7.4202909e-14)
(2.6626374 -2.7846735e-06 -6.3813498e-14)
(2.6629017 -3.1646909e-06 -6.4021347e-14)
(2.6631202 -2.2505906e-06 -5.9521997e-14)
(2.6632153 -4.3997918e-07 -5.9532163e-14)
(2.6631044 2.780881e-06 -6.0344935e-14)
(2.6626719 7.8473894e-06 -6.0191928e-14)
(2.6617527 1.5413688e-05 -6.4911716e-14)
(2.6601046 2.6544792e-05 -7.1291073e-14)
(2.6573705 4.2940913e-05 -6.377183e-14)
(2.6530045 6.7342297e-05 -5.845611e-14)
(2.6461502 0.00010446726 -5.9293936e-14)
(2.6353795 0.00016260314 -6.5511851e-14)
(2.6182759 0.0002565214 -4.4135631e-14)
(2.5904719 0.00042002583 -3.8233417e-14)
(2.543074 0.00070156317 -4.3612691e-14)
(2.4605083 0.0013432376 -3.345209e-14)
(2.2861974 0.0030512903 -5.6341531e-14)
(1.9054031 -0.0066027262 5.9685995e-13)
(2.6702625 -4.5963504e-07 -2.1208217e-14)
(2.6707485 -1.1837263e-05 -2.4023861e-14)
(2.6711943 -1.0234657e-05 -2.4467011e-14)
(2.6715782 -8.8608787e-06 -2.7959384e-14)
(2.6719214 -6.9648181e-06 -2.8826967e-14)
(2.6721474 -3.5194769e-06 -2.8012507e-14)
(2.6722086 7.7387091e-07 -2.770336e-14)
(2.6720831 5.0938243e-06 -2.7619002e-14)
(2.6717872 7.2217974e-06 -2.7560602e-14)
(2.6714843 1.0338774e-05 -2.8004872e-14)
(2.670923 1.5611653e-05 -2.8471637e-14)
(2.6701704 2.398735e-05 -2.9690882e-14)
(2.6688728 3.7219909e-05 -3.1127763e-14)
(2.6669561 5.3518278e-05 -4.0469187e-14)
(2.6642171 4.9705443e-05 -6.635202e-14)
(2.6626106 2.3312269e-05 -7.4532647e-14)
(2.6622222 1.5257944e-06 -7.6846083e-14)
(2.6624738 -8.2213065e-06 -7.897715e-14)
(2.6630349 8.1227039e-07 -6.6124667e-14)
(2.6625241 5.2241525e-06 -1.0060991e-13)
(2.6626578 -4.4235269e-06 -8.6751511e-14)
(2.6629178 -5.2677599e-06 -8.9091484e-14)
(2.6631356 -3.4383158e-06 -8.2396316e-14)
(2.6632309 -1.0781532e-07 -8.1331758e-14)
(2.6631226 5.1125372e-06 -7.2191519e-14)
(2.6626947 1.2850499e-05 -8.3864416e-14)
(2.6617826 2.432447e-05 -7.6833468e-14)
(2.6601454 4.1210911e-05 -7.9566033e-14)
(2.657428 6.6135202e-05 -7.4951948e-14)
(2.6530879 0.00010341518 -8.8229002e-14)
(2.6462753 0.00016055023 -8.7465955e-14)
(2.6355722 0.00025095501 -9.8930671e-14)
(2.6185883 0.00039857824 -8.4529299e-14)
(2.5909795 0.00065983954 -8.0757407e-14)
(2.5440583 0.0011184293 -9.7564863e-14)
(2.4619748 0.0021771851 -9.2040996e-14)
(2.2921555 0.0049673781 -1.4309623e-13)
(1.9121438 6.77642e-05 6.7043788e-14)
(2.6702428 9.4946795e-08 -1.9065746e-14)
(2.6706968 -1.6214917e-05 -2.2130188e-14)
(2.6711472 -1.4450164e-05 -2.2494814e-14)
(2.671546 -1.2547404e-05 -2.6849394e-14)
(2.6718967 -9.7799399e-06 -2.822248e-14)
(2.6721245 -4.9190614e-06 -2.7464782e-14)
(2.672186 1.0764456e-06 -2.7343039e-14)
(2.6720602 7.0980439e-06 -2.7140723e-14)
(2.6717649 1.0047488e-05 -2.7010854e-14)
(2.6714639 1.4370791e-05 -2.7604019e-14)
(2.6709049 2.1723925e-05 -2.805006e-14)
(2.6701535 3.3583281e-05 -2.96682e-14)
(2.6688338 5.2232336e-05 -3.1687558e-14)
(2.6668845 7.5254849e-05 -4.3605894e-14)
(2.6640892 7.013222e-05 -8.0057728e-14)
(2.6624657 3.2792369e-05 -9.3413864e-14)
(2.6621011 1.5839261e-06 -9.6406386e-14)
(2.6623718 -1.177889e-05 -1.0348457e-13)
(2.6629224 -5.5891725e-07 -9.4075858e-14)
(2.6625523 6.2240669e-06 -1.206719e-13)
(2.6626736 -6.0009685e-06 -1.0892525e-13)
(2.6629301 -7.3829876e-06 -1.0986548e-13)
(2.663148 -4.8904244e-06 -1.0863752e-13)
(2.6632445 -2.1812614e-07 -1.038916e-13)
(2.663139 7.2856884e-06 -1.0471886e-13)
(2.6627158 1.8536034e-05 -1.0038027e-13)
(2.661811 3.5321009e-05 -9.487366e-14)
(2.6601849 6.0081356e-05 -9.6850867e-14)
(2.6574844 9.6674241e-05 -1.0359628e-13)
(2.6531707 0.00015145624 -1.1238398e-13)
(2.6464002 0.00023542308 -1.1550215e-13)
(2.6357648 0.00036822377 -1.1831156e-13)
(2.6189019 0.00058481952 -1.1537846e-13)
(2.5914843 0.00096616768 -1.0767023e-13)
(2.5450522 0.0016374338 -1.1528355e-13)
(2.4634054 0.0031317919 -1.2111097e-13)
(2.2978395 0.0072386541 -1.5847538e-13)
(1.9188107 2.7434889e-05 -1.1438062e-13)
(2.6702157 9.8574477e-07 -1.7041195e-14)
(2.6706291 -2.0381132e-05 -2.0226059e-14)
(2.6710828 -1.8813775e-05 -2.0702716e-14)
(2.6715002 -1.6407223e-05 -2.5178341e-14)
(2.6718618 -1.2666859e-05 -2.6844651e-14)
(2.6720934 -6.3350712e-06 -2.6744868e-14)
(2.6721558 1.3825165e-06 -2.673704e-14)
(2.67203 9.1044036e-06 -2.6512851e-14)
(2.6717357 1.2857366e-05 -2.6348653e-14)
(2.6714371 1.8372906e-05 -2.711002e-14)
(2.6708807 2.7810281e-05 -2.7558206e-14)
(2.6701304 4.335092e-05 -2.9467774e-14)
(2.6687825 6.7736363e-05 -3.2146457e-14)
(2.6667827 9.7744487e-05 -4.6182569e-14)
(2.6639145 9.109726e-05 -9.3987785e-14)
(2.6623054 4.2219882e-05 -1.1271759e-13)
(2.6619717 1.3025868e-06 -1.1775778e-13)
(2.6622641 -1.5331392e-05 -1.2010525e-13)
(2.6627991 -2.5674464e-06 -1.1043121e-13)
(2.6625781 6.3649036e-06 -1.3654035e-13)
(2.6626849 -7.3848862e-06 -1.3238682e-13)
(2.6629397 -9.4460297e-06 -1.3320668e-13)
(2.6631589 -6.3473306e-06 -1.321254e-13)
(2.6632577 -3.2622664e-07 -1.3495168e-13)
(2.6631555 9.4243398e-06 -1.319837e-13)
(2.6627373 2.4012784e-05 -1.2839448e-13)
(2.6618398 4.579048e-05 -1.2820685e-13)
(2.660225 7.7939892e-05 -1.277913e-13)
(2.6575417 0.00012547757 -1.2939916e-13)
(2.6532544 0.0001966706 -1.316711e-13)
(2.6465262 0.00030581592 -1.3850854e-13)
(2.6359586 0.00047841224 -1.3848798e-13)
(2.6192174 0.00076001472 -1.3912308e-13)
(2.5919887 0.0012544554 -1.4362011e-13)
(2.5460519 0.0021293061 -1.4329508e-13)
(2.4648212 0.0040403863 -1.5275177e-13)
(2.3034846 0.009395406 -1.7291838e-13)
(1.9246508 0.0010913784 -1.5338046e-13)
(2.6701704 2.5410878e-06 -1.4719964e-14)
(2.6705251 -2.5279707e-05 -1.7588375e-14)
(2.6709777 -2.4672468e-05 -1.7735294e-14)
(2.6714218 -2.1711548e-05 -2.2860324e-14)
(2.6718025 -1.6558651e-05 -2.4866976e-14)
(2.6720425 -8.2159921e-06 -2.5528668e-14)
(2.6721074 1.7736387e-06 -2.58891e-14)
(2.6719821 1.1693107e-05 -2.5713841e-14)
(2.67169 1.6461568e-05 -2.5680711e-14)
(2.6713953 2.3497043e-05 -2.6634495e-14)
(2.6708428 3.564578e-05 -2.7055423e-14)
(2.6700939 5.6224599e-05 -2.9284297e-14)
(2.6687045 8.8527174e-05 -3.2854297e-14)
(2.6666146 0.00012803437 -4.9492862e-14)
(2.6636424 0.000118594 -1.1283413e-13)
(2.6621093 5.3850362e-05 -1.3901318e-13)
(2.6618225 5.0976464e-07 -1.4562197e-13)
(2.6621396 -1.9377364e-05 -1.4236097e-13)
(2.6626493 -5.474148e-06 -1.3689018e-13)
(2.662597 4.7375555e-06 -1.5944117e-13)
(2.6626937 -9.5522895e-06 -1.6381907e-13)
(2.6629498 -1.1931296e-05 -1.661729e-13)
(2.6631717 -8.2218403e-06 -1.6528991e-13)
(2.6632744 -6.2526864e-07 -1.7105861e-13)
(2.6631769 1.1741959e-05 -1.7177357e-13)
(2.6627653 3.0156067e-05 -1.6430612e-13)
(2.6618777 5.755091e-05 -1.6538415e-13)
(2.6602776 9.7913376e-05 -1.699717e-13)
(2.6576167 0.00015749418 -1.6847909e-13)
(2.6533638 0.00024659049 -1.6613346e-13)
(2.6466905 0.0003829816 -1.6463967e-13)
(2.6362102 0.00059830176 -1.6499145e-13)
(2.6196264 0.00094910664 -1.678016e-13)
(2.5926401 0.0015626575 -1.7285512e-13)
(2.5473462 0.0026523523 -1.7592112e-13)
(2.4666429 0.0049757821 -1.7900409e-13)
(2.310832 0.011755366 -1.8464691e-13)
(1.9307936 0.0030968295 -1.6871099e-13)
(2.6700913 5.3960322e-06 -1.2072433e-14)
(2.6703708 -3.0354612e-05 -1.4204344e-14)
(2.6708044 -3.2387901e-05 -1.494836e-14)
(2.671283 -2.919487e-05 -1.9893531e-14)
(2.6716974 -2.2010548e-05 -2.2434394e-14)
(2.671956 -1.0829873e-05 -2.3959041e-14)
(2.6720275 2.2041661e-06 -2.4631315e-14)
(2.6719048 1.4936699e-05 -2.4753975e-14)
(2.6716176 2.0956981e-05 -2.4999844e-14)
(2.6713296 2.990548e-05 -2.6152735e-14)
(2.6707826 4.5564249e-05 -2.6801758e-14)
(2.6700355 7.3174406e-05 -2.9202391e-14)
(2.6685872 0.00011709269 -3.4106335e-14)
(2.6663345 0.00016970254 -5.3808486e-14)
(2.6632354 0.00015344438 -1.3958266e-13)
(2.661894 6.6021633e-05 -1.7433435e-13)
(2.66168 -1.5479892e-06 -1.8190533e-13)
(2.6620215 -2.498623e-05 -1.8376313e-13)
(2.662499 -1.1767664e-05 -1.7661585e-13)
(2.6626003 1.8645133e-06 -1.974107e-13)
(2.6626963 -1.2579398e-05 -2.0700932e-13)
(2.6629523 -1.4937714e-05 -2.099962e-13)
(2.6631778 -1.0264557e-05 -2.1002906e-13)
(2.6632861 -8.0762152e-07 -2.1371985e-13)
(2.6631952 1.4857995e-05 -2.1312734e-13)
(2.6627927 3.8467484e-05 -2.1091059e-13)
(2.6619183 7.3725708e-05 -2.091577e-13)
(2.6603375 0.00012575737 -2.0774157e-13)
(2.6577054 0.00020257347 -2.0658901e-13)
(2.6534964 0.00031739422 -2.0588844e-13)
(2.6468928 0.00049299325 -2.0447893e-13)
(2.6365233 0.00076979907 -2.0306056e-13)
(2.6201384 0.0012201424 -2.0196583e-13)
(2.5934586 0.0020029951 -2.0306849e-13)
(2.5489636 0.0034018409 -2.0325736e-13)
(2.4689647 0.006272331 -2.1047423e-13)
(2.319494 0.015002258 -2.1303132e-13)
(1.9411288 0.0066956791 -1.9965139e-13)
(2.6699713 9.7348961e-06 -9.7496308e-15)
(2.6701808 -3.4523145e-05 -1.1923335e-14)
(2.6705667 -4.0937898e-05 -1.2962686e-14)
(2.6710774 -3.8598497e-05 -1.6918736e-14)
(2.6715404 -2.902494e-05 -1.9667151e-14)
(2.6718297 -1.4226255e-05 -2.2087234e-14)
(2.6719142 2.5253316e-06 -2.3285971e-14)
(2.6717972 1.8482919e-05 -2.3684907e-14)
(2.6715183 2.5868934e-05 -2.4102561e-14)
(2.6712401 3.6981658e-05 -2.5578865e-14)
(2.6707002 5.668738e-05 -2.6644929e-14)
(2.6699558 9.3083085e-05 -2.9125298e-14)
(2.6684376 0.0001527905 -3.5685692e-14)
(2.6659538 0.00022102491 -5.9439453e-14)
(2.6627509 0.00019099232 -1.7306937e-13)
(2.6616804 7.6095002e-05 -2.15098e-13)
(2.6615433 -4.1163625e-06 -2.2276148e-13)
(2.6619073 -2.8918612e-05 -2.2438785e-13)
(2.6623652 -1.684404e-05 -2.1709206e-13)
(2.6626004 -1.4716747e-06 -2.4107488e-13)
(2.6627007 -1.4465249e-05 -2.5672184e-13)
(2.6629514 -2.0540459e-05 -2.6314871e-13)
(2.6631813 -1.4257614e-05 -2.6174098e-13)
(2.6632968 -1.7261754e-06 -2.5900663e-13)
(2.6632147 1.8072352e-05 -2.579987e-13)
(2.6628235 4.7535347e-05 -2.5434873e-13)
(2.6619643 9.1301576e-05 -2.5242422e-13)
(2.6604054 0.00015580543 -2.49677e-13)
(2.6578057 0.00025098699 -2.5107798e-13)
(2.6536457 0.00039321549 -2.5140938e-13)
(2.6471198 0.00061065878 -2.4888682e-13)
(2.6368739 0.00095309403 -2.4880476e-13)
(2.6207098 0.0015102029 -2.4558217e-13)
(2.5943745 0.0024731798 -2.4691848e-13)
(2.5507473 0.004209112 -2.4342986e-13)
(2.4716274 0.0076443766 -2.3935954e-13)
(2.328498 0.018496588 -2.3790143e-13)
(1.9543596 0.010854461 -2.2756161e-13)
(2.6697931 1.5465584e-05 -7.5009788e-15)
(2.6699528 -3.7182846e-05 -1.0000427e-14)
(2.6702557 -4.967547e-05 -1.0681367e-14)
(2.6707834 -5.0423924e-05 -1.4135091e-14)
(2.6713113 -3.8370727e-05 -1.686164e-14)
(2.6716476 -1.8901537e-05 -1.997567e-14)
(2.6717555 2.5192607e-06 -2.1532406e-14)
(2.6716496 2.2242632e-05 -2.2408916e-14)
(2.6713839 3.1129976e-05 -2.3084137e-14)
(2.6711194 4.4724593e-05 -2.4840078e-14)
(2.6705888 6.9126878e-05 -2.6333057e-14)
(2.669849 0.00011652845 -2.8890034e-14)
(2.6682521 0.00019792779 -3.7440227e-14)
(2.6654697 0.0002839293 -6.6822674e-14)
(2.6622339 0.00023218141 -2.1436867e-13)
(2.6614528 8.3521169e-05 -2.6181165e-13)
(2.661377 -1.4773131e-05 -2.697239e-13)
(2.6617693 -3.9666905e-05 -2.7243376e-13)
(2.6622081 -3.0431205e-05 -2.6485819e-13)
(2.6625931 -9.2247691e-06 -2.8518302e-13)
(2.6627121 -1.6719255e-05 -3.1125253e-13)
(2.6629867 -2.3530335e-05 -3.1394965e-13)
(2.6632236 -1.7388728e-05 -3.123872e-13)
(2.6633433 -2.7372669e-06 -3.1139847e-13)
(2.6632666 2.1219897e-05 -3.0956779e-13)
(2.6628838 5.7353939e-05 -3.0573308e-13)
(2.6620383 0.00011113737 -3.0510071e-13)
(2.6605007 0.00019036896 -3.036175e-13)
(2.6579343 0.00030708647 -3.03047e-13)
(2.6538266 0.00048110782 -3.0137353e-13)
(2.6473851 0.00074652351 -2.9487976e-13)
(2.637275 0.0011631517 -2.9430004e-13)
(2.6213536 0.0018397274 -2.9095367e-13)
(2.5954025 0.0029994135 -2.8677614e-13)
(2.5527146 0.0051062344 -2.8428844e-13)
(2.474654 0.0091154679 -2.7348774e-13)
(2.3379629 0.022204778 -2.6340756e-13)
(1.969911 0.01545641 -2.4920345e-13)
(2.6695337 2.186385e-05 -5.4130157e-15)
(2.669676 -3.7831621e-05 -8.2179094e-15)
(2.6698641 -5.735934e-05 -8.9543939e-15)
(2.670377 -6.4852485e-05 -1.1847162e-14)
(2.6709813 -5.1060314e-05 -1.4143948e-14)
(2.6713871 -2.5650965e-05 -1.7356216e-14)
(2.6715345 1.7839772e-06 -1.9518676e-14)
(2.671449 2.6026026e-05 -2.0795128e-14)
(2.6712037 3.6608295e-05 -2.198843e-14)
(2.6709582 5.3104406e-05 -2.3937638e-14)
(2.6704399 8.2978408e-05 -2.5875757e-14)
(2.6697083 0.00014418318 -2.8392209e-14)
(2.6680232 0.00025557144 -3.9371558e-14)
(2.6648758 0.0003587516 -7.6374781e-14)
(2.661783 0.00026955543 -2.6382687e-13)
(2.6613013 8.5952885e-05 -3.1608492e-13)
(2.6612834 -1.5849724e-05 -3.2655467e-13)
(2.6616889 -3.836454e-05 -3.2855863e-13)
(2.6621111 -3.5075009e-05 -3.2379889e-13)
(2.6625553 -1.8645275e-05 -3.3121681e-13)
(2.6627841 -2.3046226e-05 -3.5886093e-13)
(2.6630859 -2.8609351e-05 -3.6474902e-13)
(2.6633258 -2.0942558e-05 -3.6500285e-13)
(2.6634441 -3.1339361e-06 -3.6137517e-13)
(2.6633673 2.5446368e-05 -3.569208e-13)
(2.6629884 6.8412578e-05 -3.5396154e-13)
(2.662153 0.00013234773 -3.4948611e-13)
(2.6606346 0.00022667687 -3.4719694e-13)
(2.6581013 0.00036584346 -3.4458561e-13)
(2.6540482 0.00057356818 -3.4082283e-13)
(2.6476976 0.00089069789 -3.3776898e-13)
(2.6377362 0.0013884063 -3.3738539e-13)
(2.622082 0.0021977977 -3.3526768e-13)
(2.5965595 0.0035766481 -3.2921653e-13)
(2.5548959 0.0061091715 -3.2261644e-13)
(2.4780844 0.010748123 -3.1038736e-13)
(2.3480329 0.026322458 -2.9503388e-13)
(1.9880706 0.021176844 -2.7679653e-13)
(2.6691679 2.802868e-05 -3.7103039e-15)
(2.6693258 -3.6351965e-05 -6.9187715e-15)
(2.6693928 -6.2075885e-05 -7.8396969e-15)
(2.6698332 -8.142188e-05 -9.5474934e-15)
(2.6705105 -6.8533259e-05 -1.1612177e-14)
(2.6710161 -3.5920655e-05 -1.463654e-14)
(2.671228 -5.5771843e-07 -1.7075527e-14)
(2.6711783 2.9331741e-05 -1.8940122e-14)
(2.6709644 4.195932e-05 -2.0665183e-14)
(2.6707446 6.1949117e-05 -2.2882468e-14)
(2.6702424 9.8215063e-05 -2.5182087e-14)
(2.6695252 0.00017678528 -2.7688814e-14)
(2.6677376 0.00032954398 -4.1339067e-14)
(2.6641587 0.00044665076 -8.8470932e-14)
(2.6613839 0.0003059045 -3.2149435e-13)
(2.6611671 8.5104022e-05 -3.7716987e-13)
(2.6612015 -4.0088629e-05 -3.8874741e-13)
(2.6616111 -5.6259212e-05 -3.9012208e-13)
(2.6620303 -5.5933817e-05 -3.8843659e-13)
(2.6624528 -3.7682175e-05 -3.8721734e-13)
(2.6628335 -3.5814173e-05 -3.9482223e-13)
(2.663166 -3.8595349e-05 -3.9621001e-13)
(2.6634084 -2.8071764e-05 -3.9499927e-13)
(2.6635244 -6.1327856e-06 -3.9394864e-13)
(2.6634474 2.8339442e-05 -3.9353724e-13)
(2.6630732 7.9906822e-05 -3.9280685e-13)
(2.6622497 0.00015633469 -3.9273227e-13)
(2.6607538 0.00026876662 -3.9128307e-13)
(2.6582588 0.00043422561 -3.8964789e-13)
(2.6542685 0.00068060255 -3.8716694e-13)
(2.6480213 0.001055961 -3.8461457e-13)
(2.6382284 0.0016432123 -3.8084956e-13)
(2.6228745 0.0025973227 -3.7716826e-13)
(2.5978377 0.0042077598 -3.7336554e-13)
(2.557296 0.0071946111 -3.6687069e-13)
(2.4819816 0.012442366 -3.6098084e-13)
(2.3586565 0.030561151 -3.4105803e-13)
(2.0096146 0.02739614 -3.1600562e-13)
(2.6686642 3.3428601e-05 -2.6830547e-15)
(2.6688609 -3.3239511e-05 -5.5337967e-15)
(2.6688425 -6.1576079e-05 -6.6326353e-15)
(2.6691302 -9.8114947e-05 -6.9929696e-15)
(2.669851 -9.2114345e-05 -9.010084e-15)
(2.6704879 -5.1857645e-05 -1.1803461e-14)
(2.6708024 -6.0178278e-06 -1.4258858e-14)
(2.6708144 3.1245041e-05 -1.6985112e-14)
(2.6706486 4.662872e-05 -1.9314194e-14)
(2.670463 7.1017027e-05 -2.1636281e-14)
(2.6699819 0.00011469926 -2.4262843e-14)
(2.6692885 0.00021525148 -2.6685454e-14)
(2.6673756 0.00042442415 -4.3356581e-14)
(2.6632942 0.00054736162 -1.0351967e-13)
(2.6610275 0.00034618328 -3.8867875e-13)
(2.660775 0.00010253293 -4.4895389e-13)
(2.6608304 -4.2559764e-05 -4.6033091e-13)
(2.6612618 -5.2306737e-05 -4.6114178e-13)
(2.661709 -5.3524208e-05 -4.5880484e-13)
(2.6621257 -4.2909475e-05 -4.5872266e-13)
(2.6625417 -4.1627526e-05 -4.5671691e-13)
(2.6629066 -4.1678239e-05 -4.5427399e-13)
(2.6631794 -2.8936634e-05 -4.5454048e-13)
(2.6633246 -4.1389287e-06 -4.5107141e-13)
(2.663277 3.5016e-05 -4.4897771e-13)
(2.6629344 9.4360044e-05 -4.4631167e-13)
(2.6621475 0.00018306336 -4.4486873e-13)
(2.6606972 0.0003141741 -4.4084815e-13)
(2.6582632 0.00050752211 -4.3942233e-13)
(2.6543589 0.00079551483 -4.3482406e-13)
(2.6482413 0.0012341242 -4.3432817e-13)
(2.6386491 0.0019189018 -4.3149504e-13)
(2.6236389 0.0030314659 -4.2878729e-13)
(2.5991557 0.0048924007 -4.2088065e-13)
(2.5598367 0.0083785555 -4.1340058e-13)
(2.4862939 0.014255841 -4.0537583e-13)
(2.3697011 0.035010924 -3.806127e-13)
(2.034159 0.034207938 -3.5719607e-13)
(2.667986 3.7877683e-05 -2.0254765e-15)
(2.6682236 -2.9990587e-05 -4.2842985e-15)
(2.6681917 -5.5081296e-05 -5.7399001e-15)
(2.6682816 -0.00010998798 -6.2403432e-15)
(2.6689507 -0.00012182328 -6.9135359e-15)
(2.6697348 -7.671774e-05 -8.6574514e-15)
(2.6702067 -1.7357198e-05 -1.173187e-14)
(2.6703234 3.0000528e-05 -1.485546e-14)
(2.6702311 4.9611399e-05 -1.7531778e-14)
(2.6700918 7.9858265e-05 -2.0164567e-14)
(2.6696387 0.00013206712 -2.305036e-14)
(2.6689831 0.00026093856 -2.5272676e-14)
(2.6669083 0.00054474252 -4.5345669e-14)
(2.6622529 0.0006538466 -1.2254774e-13)
(2.6607798 0.00031664987 -4.6429641e-13)
(2.6604672 0.0001042929 -5.3807499e-13)
(2.6605173 -7.4896478e-05 -5.5030159e-13)
(2.6609482 -8.8138692e-05 -5.4984271e-13)
(2.6613979 -9.1187048e-05 -5.4550637e-13)
(2.6618167 -7.9476284e-05 -5.4247413e-13)
(2.6622353 -7.0559003e-05 -5.3744e-13)
(2.6626063 -6.2793442e-05 -5.3295675e-13)
(2.6628887 -4.3340174e-05 -5.2926277e-13)
(2.6630468 -1.117624e-05 -5.2556274e-13)
(2.6630166 3.6902224e-05 -5.2136191e-13)
(2.6626975 0.0001078801 -5.1779366e-13)
(2.6619428 0.00021251847 -5.1434001e-13)
(2.660537 0.00036608576 -5.1189396e-13)
(2.6581664 0.00059160305 -5.0864842e-13)
(2.6543548 0.00092643094 -5.0475109e-13)
(2.6483791 0.001435094 -4.9994417e-13)
(2.6390081 0.0022262554 -4.9769859e-13)
(2.6243757 0.0035102198 -4.9276001e-13)
(2.6005057 0.0056348001 -4.8584989e-13)
(2.5625012 0.0096523848 -4.7571331e-13)
(2.490996 0.016141653 -4.6519845e-13)
(2.3811214 0.039535076 -4.3901434e-13)
(2.061279 0.041312544 -4.1211411e-13)
(2.667086 4.1629765e-05 -1.2189474e-15)
(2.6673509 -2.8815121e-05 -3.3531324e-15)
(2.6673844 -4.4493012e-05 -4.7572867e-15)
(2.6673244 -0.00011014387 -5.044613e-15)
(2.6677617 -0.0001541971 -5.1322427e-15)
(2.6686629 -0.00011434855 -6.3184405e-15)
(2.6693601 -3.9334912e-05 -9.0803892e-15)
(2.6696512 2.2413088e-05 -1.2694387e-14)
(2.6696715 4.9233103e-05 -1.5517988e-14)
(2.6695984 8.7730733e-05 -1.8446051e-14)
(2.6691847 0.00014962803 -2.1410123e-14)
(2.668588 0.00031608746 -2.337011e-14)
(2.6662855 0.0007103254 -4.7404188e-14)
(2.6607611 0.00073954948 -1.4763386e-13)
(2.6608003 0.00030136699 -5.3985296e-13)
(2.6604844 0.00015968422 -5.5754564e-13)
(2.6605228 -3.9368085e-05 -5.6230227e-13)
(2.6609416 -6.065127e-05 -5.6536449e-13)
(2.6613771 -7.1494441e-05 -5.6654105e-13)
(2.6617819 -7.0258128e-05 -5.6860093e-13)
(2.6621867 -6.7582049e-05 -5.6792175e-13)
(2.6625462 -6.3892892e-05 -5.6920046e-13)
(2.6628199 -4.695257e-05 -5.696055e-13)
(2.6629721 -1.4235199e-05 -5.6872931e-13)
(2.6629407 3.7956501e-05 -5.6738828e-13)
(2.6626272 0.00011739206 -5.6698568e-13)
(2.6618879 0.00023611817 -5.6542724e-13)
(2.6605121 0.00041136371 -5.660126e-13)
(2.6581929 0.00066917862 -5.6556357e-13)
(2.6544662 0.0010518323 -5.6464141e-13)
(2.6486305 0.0016326949 -5.6053783e-13)
(2.6394881 0.0025337181 -5.5720626e-13)
(2.6252564 0.0039961617 -5.5341009e-13)
(2.6020504 0.0063915592 -5.4747347e-13)
(2.5654518 0.010966747 -5.3919939e-13)
(2.4962509 0.018065075 -5.2824055e-13)
(2.3931301 0.044036782 -4.9513784e-13)
(2.0910124 0.048854818 -4.7263073e-13)
(2.6659096 4.4669552e-05 -9.3623996e-16)
(2.6661848 -3.0907295e-05 -2.2342207e-15)
(2.6663212 -3.4406827e-05 -3.7741377e-15)
(2.6662255 -9.6316276e-05 -4.2234918e-15)
(2.6663355 -0.00017319764 -4.0667429e-15)
(2.6671477 -0.0001699566 -4.3005162e-15)
(2.6681343 -8.1651198e-05 -6.474144e-15)
(2.668708 2.7207161e-06 -1.0359263e-14)
(2.6689045 4.2618836e-05 -1.3160353e-14)
(2.6689323 9.3088942e-05 -1.6258273e-14)
(2.6685783 0.00016589966 -1.9523492e-14)
(2.6680744 0.00038320508 -2.1098104e-14)
(2.6654137 0.00094777209 -5.0364154e-14)
(2.6588135 0.00087938875 -1.1580228e-13)
(2.6608016 0.00030521061 -6.226184e-13)
(2.6607296 9.0220988e-05 -7.349482e-13)
(2.6607976 -0.00011447796 -7.5223641e-13)
(2.6612055 -0.0001328628 -7.4703608e-13)
(2.6616181 -0.00013229199 -7.37091e-13)
(2.6619981 -0.00011779571 -7.2754111e-13)
(2.6623786 -9.9411022e-05 -7.1653357e-13)
(2.6627169 -8.2075412e-05 -7.0705583e-13)
(2.6629724 -5.4644516e-05 -6.9844547e-13)
(2.6631101 -1.2446788e-05 -6.9040475e-13)
(2.6630692 4.9921102e-05 -6.8150987e-13)
(2.6627539 0.00014215564 -6.729736e-13)
(2.6620237 0.00027857869 -6.6590376e-13)
(2.660673 0.00047922224 -6.5968685e-13)
(2.658403 0.00077392993 -6.5335621e-13)
(2.6547626 0.0012106281 -6.4732747e-13)
(2.6490748 0.0018725663 -6.4086941e-13)
(2.6401793 0.0028957355 -6.3530222e-13)
(2.6263842 0.0045553419 -6.2888465e-13)
(2.6039108 0.0072415307 -6.2190956e-13)
(2.5688283 0.012417967 -6.0999429e-13)
(2.5022541 0.020112065 -5.9841201e-13)
(2.4058797 0.048652478 -5.6409812e-13)
(2.12371 0.056633126 -5.5054381e-13)
(2.6640987 4.3827283e-05 -5.8107151e-16)
(2.6643843 -3.5356006e-05 -1.3991976e-15)
(2.6646078 -3.0665373e-05 -2.7210052e-15)
(2.6646174 -7.1109155e-05 -3.2953645e-15)
(2.6645262 -0.00015806256 -3.2887422e-15)
(2.6648368 -0.0002291853 -3.668127e-15)
(2.6659822 -0.00017744728 -4.8605759e-15)
(2.6670641 -5.3111916e-05 -7.3208968e-15)
(2.6676104 2.0837256e-05 -1.0061252e-14)
(2.6678378 9.3394213e-05 -1.352369e-14)
(2.6676001 0.00018098062 -1.6822428e-14)
(2.6672789 0.00048709123 -1.7684447e-14)
(2.6638345 0.0012646518 -5.5536694e-14)
(2.6579176 0.00098585116 -1.2431171e-13)
(2.6588793 0.00022542584 -2.442755e-13)
(2.6587789 0.00011626855 -2.8695541e-13)
(2.6589125 -2.1575796e-05 -3.1204649e-13)
(2.6594187 -6.4139552e-05 -3.316241e-13)
(2.6599308 -0.00010370507 -3.4977884e-13)
(2.660406 -0.00011959604 -3.6651034e-13)
(2.6608761 -0.00011711765 -3.8195643e-13)
(2.6613012 -0.00010683497 -3.9679547e-13)
(2.6616417 -8.0889833e-05 -4.1092629e-13)
(2.6618633 -3.4736841e-05 -4.2378548e-13)
(2.6619078 3.6910064e-05 -4.3610597e-13)
(2.6616827 0.00014442857 -4.4658173e-13)
(2.6610521 0.00030382764 -4.5714703e-13)
(2.6598172 0.00053785838 -4.6637976e-13)
(2.6576903 0.00088049278 -4.7566778e-13)
(2.6542374 0.0013860886 -4.8582313e-13)
(2.6488136 0.0021496245 -4.9475098e-13)
(2.6403075 0.0033229779 -5.0389555e-13)
(2.6271436 0.005222993 -5.1164195e-13)
(2.6056882 0.0082516448 -5.1991749e-13)
(2.5725903 0.014141315 -5.2645867e-13)
(2.5095749 0.022494953 -5.3615417e-13)
(2.4212298 0.053563843 -5.3152212e-13)
(2.1645607 0.066603699 -5.7556733e-13)
(2.6614644 3.8188808e-05 -2.5732655e-16)
(2.6617676 -4.009271e-05 -6.9220018e-16)
(2.6620126 -3.7903579e-05 -1.2897394e-15)
(2.6621891 -5.2870291e-05 -2.1262894e-15)
(2.6621819 -0.00012295501 -2.7506568e-15)
(2.6621373 -0.00022472069 -3.3330475e-15)
(2.6626487 -0.00028997121 -3.4211878e-15)
(2.6640714 -0.00019434279 -3.9736454e-15)
(2.6652799 -5.7370338e-05 -6.3230242e-15)
(2.6659674 6.8597107e-05 -9.8501267e-15)
(2.6660006 0.00017492133 -1.3089216e-14)
(2.6660183 0.00069499771 -1.3262115e-14)
(2.6611282 0.0016579757 -6.412062e-14)
(2.6579704 0.00098055884 -1.4525536e-13)
(2.6595481 -6.1463223e-05 -1.943311e-13)
(2.6596253 -0.00017584512 -2.053544e-13)
(2.659692 -0.00019651833 -2.0790628e-13)
(2.6601058 -0.00015892815 -2.0938213e-13)
(2.6605312 -0.00015832272 -2.1071297e-13)
(2.6609272 -0.00014898926 -2.1369147e-13)
(2.6613235 -0.0001287078 -2.1809847e-13)
(2.6616826 -0.00010755808 -2.2281352e-13)
(2.6619658 -7.4885416e-05 -2.2783913e-13)
(2.6621392 -2.1997182e-05 -2.3370282e-13)
(2.6621469 5.9198475e-05 -2.4009642e-13)
(2.6619001 0.00018169481 -2.4741054e-13)
(2.6612679 0.00036464732 -2.5454389e-13)
(2.6600593 0.00063479017 -2.6141647e-13)
(2.6579989 0.0010315067 -2.6933986e-13)
(2.654673 0.0016170694 -2.7680778e-13)
(2.6494736 0.0025007515 -2.8549887e-13)
(2.641347 0.0038528048 -2.9493602e-13)
(2.6288509 0.0060401563 -3.0499203e-13)
(2.6085296 0.0094731251 -3.1526267e-13)
(2.5776362 0.01618307 -3.2963047e-13)
(2.5188254 0.025345797 -3.5001709e-13)
(2.4388738 0.058652135 -3.672405e-13)
(2.2108775 0.077871632 -4.5003136e-13)
(2.6581886 3.2791057e-05 -2.7830245e-16)
(2.6585207 -4.3437561e-05 -6.3358222e-16)
(2.6587793 -4.9979435e-05 -8.7587132e-16)
(2.6590113 -5.414744e-05 -1.6300352e-15)
(2.6592139 -9.3639215e-05 -2.0557368e-15)
(2.6592002 -0.00018308594 -2.6095721e-15)
(2.6591468 -0.00029999977 -2.12525e-15)
(2.6599335 -0.00035241871 -2.0924208e-15)
(2.661584 -0.00023676373 -3.2047984e-15)
(2.663038 -2.5723409e-05 -5.9884492e-15)
(2.6636494 0.00012507286 -9.3192358e-15)
(2.664041 0.00087715069 -1.0014761e-14)
(2.6608668 0.0018174761 -3.9910907e-14)
(2.6579966 0.001073402 -1.6367065e-13)
(2.6540653 0.00052157397 -1.4546603e-13)
(2.6535381 3.2801467e-05 -1.427351e-13)
(2.6536535 -0.00017385208 -1.4323766e-13)
(2.654263 -0.00018537155 -1.4456137e-13)
(2.6549179 -0.00021737107 -1.4609544e-13)
(2.6555471 -0.00021821434 -1.4726929e-13)
(2.656169 -0.00019234724 -1.4937047e-13)
(2.6567473 -0.00016016877 -1.515406e-13)
(2.6572452 -0.00011510322 -1.5357807e-13)
(2.6576299 -4.8118037e-05 -1.5593885e-13)
(2.6578481 5.0104785e-05 -1.5790074e-13)
(2.6578156 0.00019444223 -1.6063204e-13)
(2.6574078 0.0004068228 -1.6307318e-13)
(2.6564422 0.000717675 -1.64859e-13)
(2.6546574 0.0011713717 -1.6841889e-13)
(2.6516614 0.0018372001 -1.7224955e-13)
(2.646886 0.0028375618 -1.7543902e-13)
(2.6393379 0.0043574769 -1.7957189e-13)
(2.6277102 0.0068109219 -1.8411687e-13)
(2.6087402 0.010599501 -1.8990992e-13)
(2.5802285 0.018027658 -1.9726285e-13)
(2.5259693 0.027854252 -2.0824741e-13)
(2.4539744 0.062588233 -2.1849196e-13)
(2.2540547 0.08680517 -2.8126446e-13)
(2.6541824 2.8936368e-05 -2.4335348e-16)
(2.6545324 -4.4962604e-05 -5.0961485e-16)
(2.6548194 -5.9448576e-05 -7.8537912e-16)
(2.6550534 -6.6376073e-05 -1.0742114e-15)
(2.6553687 -8.7084164e-05 -1.5478969e-15)
(2.6555869 -0.00013956157 -2.0020706e-15)
(2.6555217 -0.00025133073 -1.7360377e-15)
(2.6555584 -0.00038460991 -1.1766851e-15)
(2.6565223 -0.00043944333 -1.2651187e-15)
(2.6584112 -0.00025062658 -2.3462749e-15)
(2.6599737 -1.6516368e-05 -4.8837684e-15)
(2.6609052 0.00083138788 -7.4217249e-15)
(2.6604318 0.0020635778 -1.206612e-14)
(2.6571973 0.0014772333 -1.6380236e-13)
(2.6541493 0.00057402562 -1.6831233e-13)
(2.6549498 0.00018007005 -1.6491362e-13)
(2.6551885 -0.00011484545 -1.6268803e-13)
(2.6555784 -0.0001150907 -1.6118586e-13)
(2.6559435 -0.00017174877 -1.6028592e-13)
(2.6562881 -0.00020426447 -1.5991638e-13)
(2.6566377 -0.00020152562 -1.5889626e-13)
(2.6569616 -0.00018355787 -1.57836e-13)
(2.6572257 -0.00014593311 -1.566102e-13)
(2.657398 -8.0077456e-05 -1.5541341e-13)
(2.6574272 2.3673657e-05 -1.54144e-13)
(2.6572319 0.00018128665 -1.5329469e-13)
(2.6566924 0.00041686509 -1.5291503e-13)
(2.6556333 0.00076409803 -1.5265409e-13)
(2.6538052 0.0012719358 -1.5239906e-13)
(2.6508355 0.0020160359 -1.5241987e-13)