0 	0.95754061 	-6.5031283e-14 	-2.363715e-20
0.010309278 	0.95463478 	0.0033246523 	3.2569395e-07
0.020618557 	0.95715649 	0.0092136634 	4.1483075e-06
0.030927835 	0.96215745 	0.015200685 	1.1866941e-07
0.041237113 	0.96998706 	0.021009884 	-1.6396805e-06
0.051546392 	0.97371946 	0.065910613 	0.0017702481
0.06185567 	0.98407936 	0.066409701 	0.001210088
0.072164948 	0.99610181 	0.060505227 	0.00020656626
0.082474227 	1.0050141 	0.069492463 	-0.0002327618
0.092783505 	1.0137864 	0.079232459 	-4.2182912e-05
0.10309278 	1.0240672 	0.087834639 	0.00019743928
0.11340206 	1.0327401 	0.089397157 	-0.0002700606
0.12371134 	1.0397661 	0.092789977 	-9.3762568e-05
0.13402062 	1.0431844 	0.095819717 	-0.00031729047
0.1443299 	1.0466026 	0.098849456 	-4.373605e-05
0.15463918 	1.0538764 	0.099434558 	4.243951e-05
0.16494845 	1.054825 	0.10175024 	-0.00016395413
0.17525773 	1.0624931 	0.10306642 	8.8087087e-05
0.18556701 	1.072546 	0.10257016 	0.00020261897
0.19587629 	1.0667002 	0.10418871 	-2.7320504e-05
0.20618557 	1.0784005 	0.10372878 	0.00017141869
0.21649485 	1.0885877 	0.10279493 	0.00021070454
0.22680412 	1.0830155 	0.10394079 	1.4768415e-05
0.2371134 	1.0910729 	0.10221951 	5.617133e-05
0.24742268 	1.1018131 	0.10075968 	0.00014133883
0.25773196 	1.0992735 	0.10098298 	-6.3757067e-05
0.26804124 	1.1035326 	0.099072027 	-8.5907883e-05
0.27835052 	1.1116043 	0.097198236 	7.5813697e-05
0.28865979 	1.1118912 	0.096565067 	-0.00011444852
0.29896907 	1.1150129 	0.09474048 	-0.00024342741
0.30927835 	1.1181345 	0.092915892 	-4.5557458e-05
0.31958763 	1.1207167 	0.091333248 	-0.00013448768
0.32989691 	1.1229658 	0.089243878 	-0.00031027505
0.34020619 	1.1252513 	0.087090223 	-6.3046319e-05
0.35051546 	1.1266539 	0.08469799 	-5.6577644e-05
0.36082474 	1.1278817 	0.082740806 	-0.00024464271
0.37113402 	1.1291096 	0.080783621 	-3.3651927e-05
0.3814433 	1.1295747 	0.078281867 	2.5746948e-05
0.39175258 	1.1297609 	0.076442483 	-0.00013082122
0.40206186 	1.1300806 	0.074648307 	-4.0480328e-05
0.41237113 	1.1302531 	0.072255611 	9.4803988e-05
0.42268041 	1.1291905 	0.070397013 	-1.637963e-05
0.43298969 	1.1287084 	0.06875626 	-7.1948283e-05
0.44329897 	1.1282833 	0.066802928 	6.1933758e-05
0.45360825 	1.1271317 	0.064832669 	6.8447421e-05
0.46391753 	1.125453 	0.063160431 	-3.3790612e-05
0.4742268 	1.1243046 	0.061621361 	9.146192e-06
0.48453608 	1.1235094 	0.059682614 	0.00010810585
0.49484536 	1.1214709 	0.058034567 	6.1248574e-05
0.50515464 	1.1193164 	0.056511003 	-2.7359665e-05
0.51546392 	1.1180014 	0.055014827 	3.6331317e-05
0.5257732 	1.1170803 	0.053335581 	0.00012074627
0.53608247 	1.1147697 	0.051819981 	6.3158313e-05
0.54639175 	1.1124102 	0.050368842 	-1.7055992e-05
0.55670103 	1.1112009 	0.048967554 	5.1519082e-05
0.56701031 	1.1102366 	0.047494701 	0.00012798888
0.57731959 	1.1076306 	0.046078238 	5.134641e-05
0.58762887 	1.1052899 	0.0447429 	3.0801299e-06
0.59793814 	1.1039343 	0.043435652 	7.6228162e-05
0.60824742 	1.1018797 	0.04214222 	8.9073623e-05
0.6185567 	1.098805 	0.04086895 	1.3923069e-05
0.62886598 	1.0965626 	0.039677171 	4.3977459e-05
0.63917526 	1.0944561 	0.03846812 	0.0001033844
0.64948454 	1.0905673 	0.037268448 	3.0673563e-05
0.65979381 	1.0874371 	0.036068959 	2.8976514e-05
0.67010309 	1.0850008 	0.034819611 	9.5464086e-05
0.68041237 	1.0804413 	0.033541347 	2.9342728e-05
0.69072165 	1.0770224 	0.032411333 	2.8839319e-05
0.70103093 	1.0745479 	0.031384624 	8.3293034e-05
0.71134021 	1.0699318 	0.030376195 	1.3835445e-05
0.72164948 	1.066798 	0.029341497 	4.1316517e-05
0.73195876 	1.063316 	0.028312305 	5.4457453e-05
0.74226804 	1.0585804 	0.027345734 	1.6317024e-06
0.75257732 	1.0552925 	0.026131381 	6.5502707e-05
0.7628866 	1.0497576 	0.025021792 	1.4245211e-05
0.77319588 	1.0454655 	0.023946663 	3.6646251e-05
0.78350515 	1.0403762 	0.022908262 	3.1741569e-05
0.79381443 	1.034971 	0.021910116 	1.8073329e-05
0.80412371 	1.0299795 	0.020860217 	3.8265906e-05
0.81443299 	1.023699 	0.019907414 	9.5230907e-06
0.82474227 	1.0182975 	0.018872111 	3.5616836e-05
0.83505155 	1.0113819 	0.017944193 	9.5936e-06
0.84536082 	1.0050685 	0.016934538 	2.4875654e-05
0.8556701 	0.99785819 	0.015995881 	1.7005737e-05
0.86597938 	0.99008108 	0.015028616 	7.4384869e-06
0.87628866 	0.98296802 	0.014051531 	3.0417987e-05
0.88659794 	0.97350712 	0.013162977 	-2.4973096e-06
0.89690722 	0.96473551 	0.01217226 	1.3880039e-05
0.90721649 	0.95475573 	0.011222644 	2.0210433e-05
0.91752577 	0.94216806 	0.010286683 	4.3833866e-07
0.92783505 	0.92780512 	0.0092701192 	-4.0043579e-07
0.93814433 	0.91076261 	0.0083296288 	5.9996187e-06
0.94845361 	0.88355711 	0.0072393258 	-4.3690469e-06
0.95876289 	0.83920497 	0.0061113817 	9.5531042e-06
0.96907216 	0.7512991 	0.0046791534 	1.4090225e-06
0.97938144 	0.59267228 	0.0029557389 	5.8942645e-06
0.98969072 	0.34196495 	0.00098186274 	3.4864044e-06
