0.31958763 	1.0632977e-10 	-2.1781894e-11 	-3.1349117e-13 	8.9475829e-11 	1.1042762e-12 	3.2791621e-11
0.32989691 	2.4118166e-10 	-9.1470325e-11 	-2.5915911e-12 	1.7916435e-10 	5.0753388e-12 	4.9873698e-13
0.34020619 	1.7718186e-13 	2.4683091e-15 	-8.3183127e-17 	1.87545e-13 	-7.9369255e-16 	5.0042253e-14
0.35051546 	3.4952639e-15 	5.6065221e-21 	-2.3802796e-22 	3.4920574e-15 	-3.6294308e-18 	1.7985866e-15
0.36082474 	4.9942839e-15 	6.9438173e-22 	4.9638763e-25 	4.9890977e-15 	9.671513e-18 	2.2716435e-15
0.37113402 	6.690383e-15 	9.515476e-22 	1.0311953e-24 	6.6818345e-15 	-4.542293e-18 	2.2032414e-15
0.3814433 	5.1208662e-15 	5.4149536e-21 	1.5242181e-22 	5.1125677e-15 	-3.1233536e-17 	7.5249349e-16
0.39175258 	4.9030991e-15 	4.5103932e-20 	1.3734049e-21 	4.8944514e-15 	1.5946394e-17 	2.4374286e-16
0.40206186 	6.3129247e-15 	1.9327098e-19 	4.3790365e-21 	6.3025751e-15 	3.3657798e-17 	3.6742608e-16
0.41237113 	8.1181172e-15 	4.2900418e-19 	-8.7042268e-23 	8.1075045e-15 	1.7108275e-17 	1.4079729e-15
0.42268041 	9.1154754e-15 	3.082119e-19 	1.8941197e-21 	9.1027949e-15 	1.0962432e-18 	1.6343237e-15
0.43298969 	9.2867476e-15 	8.7009635e-20 	1.316518e-22 	9.2737806e-15 	-2.3492579e-18 	2.2189405e-15
0.44329897 	8.8367075e-15 	3.2359448e-20 	-8.5668676e-22 	8.8267624e-15 	-1.164702e-17 	3.5195756e-15
0.45360825 	9.1102237e-15 	1.0333775e-20 	-8.0089642e-24 	9.1015829e-15 	-8.8765736e-20 	4.5469552e-15
0.46391753 	1.1839166e-14 	4.0321087e-21 	-4.86451e-23 	1.1820477e-14 	2.3218181e-17 	2.0244735e-15
0.4742268 	1.9950627e-14 	1.6208925e-21 	-2.439954e-23 	1.9933846e-14 	2.0870536e-16 	1.1143156e-14
0.48453608 	5.4345963e-14 	1.728042e-21 	-3.953566e-23 	5.4269887e-14 	2.2064019e-16 	1.443312e-14
0.49484536 	9.8733018e-14 	8.4621909e-23 	-4.9591506e-25 	9.8662004e-14 	8.5003559e-17 	6.1480149e-14
0.50515464 	1.8745675e-13 	1.4147111e-22 	-3.9772337e-24 	1.8726218e-13 	6.8172768e-16 	8.5386388e-14
0.51546392 	2.4303299e-13 	4.888685e-23 	-1.0388538e-24 	2.4286375e-13 	4.8543372e-16 	1.5425259e-13
0.5257732 	2.5451767e-13 	8.8624642e-23 	-2.2292769e-24 	2.5421639e-13 	1.0416925e-15 	9.6473247e-14
0.53608247 	3.0338355e-10 	1.2717231e-14 	-5.5521774e-16 	3.0285263e-10 	-1.3189041e-11 	7.5916897e-13
0.54639175 	7.1185855e-10 	2.978334e-14 	-1.3002064e-15 	7.1061512e-10 	-3.0886036e-11 	3.1033517e-12
0.55670103 	2.1535783e-10 	1.1418194e-14 	-4.9755535e-16 	2.1500063e-10 	-8.8886118e-12 	6.8496587e-12
0.56701031 	6.0931481e-09 	3.3822958e-13 	-1.4761964e-14 	6.0827484e-09 	-2.6371612e-10 	1.1624276e-11
0.57731959 	3.0908314e-10 	1.4877698e-14 	-6.3581185e-16 	3.0862402e-10 	-1.1358505e-11 	4.0783502e-11
0.58762887 	4.1844071e-08 	4.0916399e-12 	-1.3884055e-13 	4.1777987e-08 	-1.0799981e-10 	9.7900971e-11
0.59793814 	7.7866699e-08 	5.4223742e-12 	-1.1644361e-13 	7.7810655e-08 	-9.0577912e-11 	3.9449005e-08
0.60824742 	3.1342797e-07 	7.3927791e-11 	3.8344178e-13 	3.1316839e-07 	1.232681e-09 	7.3628028e-08
0.6185567 	5.9678282e-06 	2.8258913e-08 	-1.219609e-09 	6.0445589e-06 	-2.155797e-07 	1.7245906e-08
0.62886598 	3.2935698e-06 	4.686074e-09 	-1.6171783e-10 	3.3057317e-06 	-2.8585459e-08 	2.2319684e-06
0.63917526 	3.2915287e-05 	3.938435e-07 	-1.2351112e-08 	3.385724e-05 	-2.3324499e-07 	2.2865395e-06
0.64948454 	0.00011855381 	2.6243817e-06 	-1.0051655e-07 	0.00012521757 	-1.8982082e-06 	1.3421798e-05
0.65979381 	0.00017408728 	7.8474279e-07 	1.3947955e-08 	0.00017573837 	6.0948494e-07 	0.00013895121
0.67010309 	0.00034647282 	1.2667031e-05 	-3.3012727e-07 	0.00037324113 	-1.2445062e-06 	0.0001035492
0.68041237 	0.0006103894 	3.5413441e-05 	-9.2787254e-07 	0.00068564069 	-3.4978725e-06 	0.00019436786
0.69072165 	0.00087386443 	4.3276614e-05 	8.2919761e-07 	0.00095765873 	4.1514046e-06 	0.00066701477
0.70103093 	0.00096343269 	0.00013794124 	-8.7945565e-07 	0.0012268271 	-2.3331315e-06 	0.00027887628
0.71134021 	0.00098216062 	0.00030635755 	-4.10756e-07 	0.0015551518 	-1.0897056e-06 	0.00058595973
0.72164948 	0.0010524792 	0.00038749801 	-4.573889e-12 	0.0017709271 	-5.8179794e-09 	0.00080335449
0.73195876 	0.0011877878 	0.00025968159 	-7.0354841e-10 	0.0016675695 	-8.9491214e-07 	0.00018485601
0.74226804 	0.001256318 	0.00022996345 	4.1724363e-07 	0.0016805929 	8.1792944e-07 	0.00095852471
0.75257732 	0.0012324652 	0.0003243214 	-2.2878898e-08 	0.0018233437 	-8.408985e-07 	0.00018247839
0.7628866 	0.0012047267 	0.00042231988 	1.9880673e-07 	0.0019718578 	1.9399519e-07 	0.001008202
0.77319588 	0.0011851654 	0.00048052126 	-3.1056907e-07 	0.0020300128 	-8.1062761e-07 	0.00040162618
0.78350515 	0.0011668599 	0.00052766786 	-3.2765455e-08 	0.0020596443 	-8.5522302e-08 	0.00097723876
0.79381443 	0.0011589819 	0.00055176741 	-2.5277516e-08 	0.0020444423 	-3.698143e-07 	0.00044859494
0.80412371 	0.0011580963 	0.00056101949 	-1.8972174e-09 	0.0020047137 	-2.7756609e-08 	0.0010256605
0.81443299 	0.0011527813 	0.00056647389 	-2.654562e-08 	0.0019487958 	-3.7290261e-07 	0.00029526709
0.82474227 	0.0011437133 	0.00057031809 	-3.3533135e-08 	0.0018898531 	-4.2863095e-07 	0.0010877932
0.83505155 	0.0011300885 	0.00056814884 	-3.647334e-08 	0.001826979 	-3.9308399e-07 	8.7166756e-05
0.84536082 	0.0011126232 	0.0005640337 	-5.1229691e-09 	0.0017664801 	-4.0725113e-08 	0.00097002051
0.8556701 	0.0010933952 	0.0005572114 	-1.604009e-08 	0.0017041841 	-1.2751092e-07 	0.0007001561
0.86597938 	0.001072702 	0.00054877164 	-3.8863342e-08 	0.0016408784 	-2.4054539e-07 	0.00020675138
0.87628866 	0.0010490466 	0.00053882199 	-4.2894048e-09 	0.0015781312 	-2.3521407e-08 	0.00096979261
0.88659794 	0.0010246173 	0.00052735804 	-1.000432e-08 	0.0015103114 	-5.4859753e-08 	0.00081071168
0.89690722 	0.00099891707 	0.00051426043 	-2.4928721e-08 	0.0014359399 	-1.3551856e-07 	0.00021034583
0.90721649 	0.00097055621 	0.00049922016 	-1.1533836e-08 	0.0013558201 	-8.0743459e-08 	0.00025301454
0.91752577 	0.00093975395 	0.0004818623 	1.5769583e-09 	0.0012679152 	-2.1547787e-08 	0.00056880125
0.92783505 	0.00090696024 	0.00046177446 	5.4414096e-09 	0.0011714648 	-2.3018352e-11 	0.00074306227
0.93814433 	0.00087218365 	0.00043860573 	6.7743772e-09 	0.0010688886 	7.58977e-09 	0.00077880912
0.94845361 	0.00083621871 	0.00041328818 	1.4160385e-08 	0.0009681671 	2.3217823e-08 	0.00068549047
0.95876289 	0.00078903532 	0.00038201261 	8.0974496e-08 	0.00086416692 	1.5488293e-07 	3.0601052e-05
0.96907216 	0.00067607831 	0.00032188824 	8.2758191e-08 	0.00071111163 	1.71353e-07 	0.00012091678
0.97938144 	0.00041307904 	0.00019471123 	1.1991301e-08 	0.00042486209 	2.4410021e-08 	0.00032316621
0.98969072 	6.6168118e-05 	3.0918447e-05 	-3.7733143e-10 	6.68278e-05 	-1.9032371e-09 	1.1034514e-05
