0.47777778 	0.00010188731 	-4.7374758e-05 	2.2623356e-09 	0.00010187545 	-3.9783341e-09 	1.1811552e-06
0.48888889 	0.00094269251 	-0.00043855557 	-5.8832847e-09 	0.00094350799 	1.6914169e-08 	0.00042078473
0.5 	0.0013612702 	-0.00063313938 	-2.6262215e-08 	0.0013618016 	6.2333732e-08 	0.00064310008
0.51111111 	0.0014312918 	-0.00066545648 	-3.3035716e-08 	0.0014307942 	7.6229746e-08 	0.00081063973
0.52222222 	0.0014496153 	-0.00067315524 	-7.7030992e-08 	0.0014444084 	1.7795326e-07 	0.00041309409
0.53333333 	0.0014354861 	-0.00057376081 	-5.4225422e-09 	0.0014295209 	7.5123166e-09 	0.0012375339
0.54444444 	0.001392515 	-0.00031236639 	-2.926926e-08 	0.0013935651 	4.3295605e-08 	0.0010601552
0.55555556 	0.0013507888 	-0.00015000779 	-6.1908725e-08 	0.0013492938 	9.0118477e-08 	0.00076060951
0.56666667 	0.0013210007 	-2.0916766e-05 	-5.2211731e-08 	0.0013206251 	7.3541115e-08 	0.00068737269
0.57777778 	0.0013046138 	8.1244802e-05 	-2.4382548e-08 	0.0013082044 	3.6314188e-08 	0.00080221544
0.58888889 	0.0012985442 	0.00016277173 	-2.7842834e-09 	0.0013045726 	4.8152011e-09 	0.0010766615
0.6 	0.0013033576 	0.000230145 	-1.6353359e-09 	0.0013112742 	2.8281861e-09 	0.0011271498
0.61111111 	0.0013193628 	0.00029149646 	1.4601763e-09 	0.0013270649 	1.9197828e-09 	0.00061229957
0.62222222 	0.0013421831 	0.00035002844 	3.1473032e-08 	0.0013488578 	-3.6903164e-08 	2.7777055e-05
0.63333333 	0.0013684893 	0.00040485874 	1.8913318e-08 	0.0013769841 	-2.2400851e-08 	0.00082316169
0.64444444 	0.001398718 	0.0004591414 	8.9344596e-09 	0.0014072453 	-1.0581935e-08 	0.0010818401
0.65555556 	0.001432199 	0.00051358485 	6.4379278e-08 	0.0014376103 	-7.4887397e-08 	0.00012922625
0.66666667 	0.0014648616 	0.0005643691 	1.8905975e-08 	0.0014717449 	-2.2784451e-08 	0.00099678122
0.67777778 	0.0014996648 	0.00061430643 	3.1751987e-08 	0.0015050441 	-3.8265766e-08 	0.00079616716
0.68888889 	0.0015353893 	0.00066272392 	3.2403163e-08 	0.0015388956 	-5.4303734e-08 	0.00049397308
0.7 	0.0015703707 	0.00070900053 	7.5338977e-09 	0.0015748281 	-1.262589e-08 	0.0012308558
0.71111111 	0.0016076726 	0.00073982557 	1.86679e-08 	0.0016107132 	-5.9811094e-08 	0.0002319301
0.72222222 	0.0016424729 	0.00076568322 	1.0320666e-09 	0.0016504404 	-3.3066941e-09 	0.0014402973
0.73333333 	0.0016804652 	0.00078428607 	2.0119518e-08 	0.0016876104 	-4.8665108e-08 	0.00020486678
0.74444444 	0.0017176076 	0.00080295638 	7.0920905e-10 	0.0017308162 	-1.7154355e-09 	0.0015304906
0.75555556 	0.00175727 	0.00080590791 	3.7292963e-08 	0.0017681732 	-3.1747414e-08 	0.00019219827
0.76666667 	0.0017982389 	0.00080740824 	-3.3320876e-08 	0.0018140771 	3.4862021e-08 	0.001646348
0.77777778 	0.0018411258 	0.00079686445 	7.950892e-08 	0.0018526496 	-7.5585227e-09 	8.3400144e-05
0.78888889 	0.0018858951 	0.00078572439 	1.3395079e-08 	0.001900489 	3.0352368e-09 	0.0015268319
0.8 	0.0019334973 	0.00077529811 	7.2493198e-08 	0.0019439138 	1.6426482e-08 	0.00074130877
0.81111111 	0.0019830849 	0.00076604095 	8.1745713e-08 	0.0019912199 	3.8737149e-08 	0.00076833037
0.82222222 	0.0020346544 	0.00075802429 	-4.0773392e-09 	0.0020427041 	5.6263312e-09 	0.0018421395
0.83333333 	0.0020864442 	0.00075382966 	1.1426402e-07 	0.0020886903 	7.6617549e-08 	0.00053311558
0.84444444 	0.0021379815 	0.00075305566 	1.0780909e-07 	0.002137865 	8.8806184e-08 	0.00070734872
0.85555556 	0.0021881638 	0.00075673849 	1.145107e-08 	0.002187695 	1.073392e-08 	0.0018336228
0.86666667 	0.002232879 	0.00076691407 	3.2922222e-08 	0.0022290613 	3.0860391e-08 	0.0016403137
0.87777778 	0.0022691182 	0.00078389711 	1.0909664e-07 	0.0022613621 	1.1059672e-07 	0.00088016721
0.88888889 	0.0022948534 	0.00080774033 	1.6805319e-07 	0.002281763 	1.7820127e-07 	0.00031961518
0.9 	0.0023033313 	0.00083883236 	1.9926417e-07 	0.0022891458 	2.1983844e-07 	1.4652964e-05
0.91111111 	0.0022884243 	0.00087759714 	1.9665733e-07 	0.0022770202 	2.2325143e-07 	1.3878524e-05
0.92222222 	0.0022470461 	0.00097385907 	1.5749476e-07 	0.0022297032 	1.7897572e-07 	0.00034995601
0.93333333 	0.0021653888 	0.0010032673 	6.7962967e-08 	0.0021502594 	9.6422235e-08 	0.0010316106
0.94444444 	0.0020359459 	0.00094505554 	-1.6131284e-07 	0.0020287402 	-3.4238695e-07 	0.0017840854
0.95555556 	0.0018590459 	0.00086257553 	5.7184058e-08 	0.0018508297 	1.1478955e-07 	0.00047406805
0.96666667 	0.0016560877 	0.00076917621 	7.1160147e-10 	0.0016521501 	1.4248248e-09 	0.0014313242
0.97777778 	0.001240927 	0.00057634188 	1.0689728e-08 	0.0012379152 	2.0843027e-08 	0.00062873845
0.98888889 	0.00030166311 	0.00014015823 	-9.9105136e-10 	0.00030117981 	-2.4631825e-09 	0.00016600063
