0.36082474 	9.0478111e-09 	-4.2527241e-09 	5.4337009e-13 	6.3209132e-09 	-9.2870388e-13 	7.2927516e-09
0.37113402 	3.6400842e-14 	-7.7649166e-19 	1.4104009e-20 	3.6363596e-14 	-8.2236256e-16 	1.5231263e-14
0.3814433 	1.1008063e-14 	8.6419159e-22 	1.1385502e-23 	1.100076e-14 	1.4376667e-19 	7.1752074e-15
0.39175258 	9.3563727e-15 	2.3561848e-21 	6.3493255e-24 	9.344239e-15 	3.0578539e-17 	2.9858481e-15
0.40206186 	1.4281748e-14 	3.0184606e-19 	8.061124e-21 	1.427099e-14 	-5.8313768e-19 	8.0129692e-15
0.41237113 	1.0760596e-14 	1.5306525e-18 	1.4044074e-20 	1.0753421e-14 	-2.8716494e-17 	3.8398978e-15
0.42268041 	1.1162749e-14 	7.5606233e-18 	1.0712779e-19 	1.1173437e-14 	3.2565215e-17 	1.8728974e-15
0.43298969 	1.5497681e-14 	1.2232458e-17 	-8.9605041e-21 	1.5519973e-14 	2.2333834e-17 	2.8301025e-15
0.44329897 	1.5579413e-14 	9.0058528e-18 	-2.197002e-19 	1.5589557e-14 	-1.0104174e-16 	2.6885485e-15
0.45360825 	1.1383533e-14 	1.9592213e-18 	-3.1264225e-20 	1.1370878e-14 	-4.2762082e-17 	6.2367916e-16
0.46391753 	9.391489e-15 	2.6530741e-19 	-1.124083e-21 	9.3750795e-15 	3.6226057e-18 	2.4894575e-16
0.4742268 	1.0245396e-14 	4.9385371e-20 	-1.3105763e-21 	1.0227973e-14 	4.2236215e-18 	1.0108776e-15
0.48453608 	1.5326685e-14 	9.4990312e-21 	-2.163059e-22 	1.5302046e-14 	1.4972607e-16 	2.3852666e-15
0.49484536 	2.8569316e-14 	2.3066115e-21 	-1.0858573e-23 	2.8530964e-14 	2.1417946e-16 	8.4471821e-15
0.50515464 	6.7114572e-14 	3.0276501e-22 	-1.3748877e-24 	6.7007111e-14 	2.7118914e-17 	1.0742122e-14
0.51546392 	1.5404828e-13 	9.4950385e-23 	-1.4875882e-24 	1.5386773e-13 	1.8345308e-15 	5.9334921e-14
0.5257732 	2.8124763e-13 	4.4030523e-23 	9.1912322e-25 	2.8073106e-13 	6.3659303e-16 	1.0261122e-14
0.53608247 	3.8132864e-13 	2.1655128e-23 	1.3761638e-25 	3.8099832e-13 	1.0283128e-15 	2.0804392e-13
0.54639175 	4.1923092e-13 	5.8338526e-23 	5.3293392e-25 	4.1857732e-13 	8.3055608e-16 	7.6362849e-14
0.55670103 	3.902078e-13 	8.1261158e-22 	1.4153603e-23 	3.8995957e-13 	-7.1649787e-16 	2.5998798e-13
0.56701031 	3.0293421e-13 	2.0713016e-21 	-1.2251357e-23 	3.0243181e-13 	1.3902739e-15 	3.9382327e-14
0.57731959 	6.1542269e-12 	7.2427942e-18 	1.9751435e-19 	6.1428533e-12 	1.6037878e-13 	1.7781286e-13
0.58762887 	1.8772301e-11 	2.3864625e-17 	-4.6319332e-19 	1.8736648e-11 	-4.1639687e-13 	3.667158e-14
0.59793814 	2.8169356e-09 	2.2384421e-14 	9.7689205e-16 	2.8116354e-09 	1.2239757e-10 	5.5007876e-12
0.60824742 	2.0406806e-08 	1.6437784e-13 	-2.5582471e-15 	2.0368407e-08 	-3.3122996e-10 	3.8882788e-11
0.6185567 	1.4320325e-08 	1.1356253e-13 	-1.2349602e-15 	1.4293708e-08 	-1.5989692e-10 	2.0173518e-10
0.62886598 	8.2906877e-08 	4.3206894e-12 	-2.735315e-14 	8.2759727e-08 	-6.9931355e-10 	3.7229891e-10
0.63917526 	1.6683819e-07 	9.3441248e-12 	-1.5353172e-13 	1.6654287e-07 	-3.9252083e-09 	5.4594137e-10
0.64948454 	9.8214022e-07 	7.3323458e-09 	3.2001774e-10 	9.9510899e-07 	4.1007568e-08 	3.3212772e-09
0.65979381 	1.6974062e-05 	1.3236726e-07 	-1.4008761e-09 	1.7204603e-05 	-1.7714268e-07 	3.3468654e-08
0.67010309 	3.3623006e-05 	2.6545886e-07 	-1.507763e-09 	3.4104288e-05 	-1.9065867e-07 	1.6197103e-05
0.68041237 	7.8641017e-05 	7.626022e-07 	4.024001e-09 	7.9985554e-05 	3.4797391e-07 	3.7936884e-05
0.69072165 	0.00023188447 	2.6830184e-06 	-1.7715826e-08 	0.00023626426 	-1.8841191e-06 	7.364804e-06
0.70103093 	0.00037638077 	4.3670563e-06 	-5.7217202e-09 	0.00038385517 	-6.085182e-07 	0.0002738096
0.71134021 	0.00058742679 	1.8620121e-05 	-1.5881759e-07 	0.00061879625 	-1.2990915e-06 	0.0002534591
0.72164948 	0.00086001896 	3.6698493e-05 	-3.5984097e-07 	0.00092103726 	-2.9434168e-06 	0.0002618548
0.73195876 	0.0010953356 	6.4581003e-05 	2.9294093e-07 	0.0012033872 	8.614334e-07 	0.00094962631
0.74226804 	0.0010856702 	0.00023687081 	2.3112836e-07 	0.0014807421 	-1.7397989e-06 	7.6255719e-05
0.75257732 	0.0010579236 	0.00044662163 	1.0967786e-09 	0.0018039682 	-8.2559067e-09 	0.001046679
0.7628866 	0.0011059015 	0.00044593951 	6.4926279e-07 	0.0018565546 	-7.6321056e-08 	0.00031686354
0.77319588 	0.0011600035 	0.00042700153 	1.3519486e-07 	0.0018899202 	-1.5892201e-08 	0.0009708037
0.78350515 	0.0011620176 	0.00046830114 	1.4106066e-07 	0.0019422953 	-4.2647948e-07 	0.00044354029
0.79381443 	0.0011476663 	0.00052739889 	3.0309101e-08 	0.0019997397 	-9.1635822e-08 	0.00098418806
0.80412371 	0.0011463766 	0.00055440966 	-9.3280106e-09 	0.001990258 	-5.2396451e-07 	0.00036230316
0.81443299 	0.0011528122 	0.00056747713 	1.9317017e-09 	0.001957372 	-1.6385714e-07 	0.0011098473
0.82474227 	0.0011493692 	0.00057218604 	1.1314012e-08 	0.0019039298 	-5.1250815e-07 	5.8762553e-05
0.83505155 	0.0011421181 	0.00057520345 	-2.2152562e-08 	0.001850372 	-2.7157411e-07 	0.0010560607
0.84536082 	0.0011279253 	0.00057206855 	9.525354e-09 	0.0017878224 	-1.8594238e-07 	0.00050889025
0.8556701 	0.0011102898 	0.00056643494 	1.3434591e-08 	0.0017260824 	-1.5127617e-07 	0.00047219115
0.86597938 	0.0010890517 	0.00055812314 	-1.4152724e-07 	0.0016648865 	-7.4904571e-07 	0.000937871
0.87628866 	0.0010666663 	0.00054807404 	1.087513e-08 	0.0016012325 	-9.3757892e-08 	0.00050383861
0.88659794 	0.0010428974 	0.00053682048 	2.1525848e-08 	0.0015350796 	-1.2849477e-07 	0.00017476913
0.89690722 	0.0010168651 	0.00052420551 	4.2274746e-09 	0.0014659468 	-1.4604117e-08 	0.00070270762
0.90721649 	0.00098964535 	0.00050985135 	-1.5386848e-07 	0.0013892298 	-7.0767613e-07 	0.00075939225
0.91752577 	0.00096075746 	0.00049338318 	-9.4598999e-08 	0.0013036249 	-4.254598e-07 	0.00070432918
0.92783505 	0.00092992686 	0.00047420492 	-1.45131e-08 	0.0012083772 	-6.2225361e-08 	0.00064840534
0.93814433 	0.00089690636 	0.00045173618 	-5.1191664e-09 	0.0011053888 	-2.0292433e-08 	0.00059303412
0.94845361 	0.00086201597 	0.00042656374 	-7.8239976e-08 	0.0010020879 	-2.8052008e-07 	0.00054101741
0.95876289 	0.00082138853 	0.00039836909 	-1.4384939e-08 	0.00090294146 	-4.4784302e-08 	0.0004987942
0.96907216 	0.00072101673 	0.00034345585 	-1.7186659e-07 	0.00075911996 	-4.1257562e-07 	0.0004183636
0.97938144 	0.00046019276 	0.00021661593 	1.9997209e-08 	0.00047194806 	3.8984147e-08 	9.7767521e-05
0.98969072 	7.5375315e-05 	3.5185692e-05 	-2.4578427e-11 	7.5970482e-05 	-5.9016158e-11 	4.5041377e-05
