0 	0.78356195 	-5.3215538e-14 	-1.934244e-20
0.010869565 	0.78788953 	-0.00025551032 	7.6454058e-07
0.02173913 	0.80351756 	-0.00030534904 	7.5005182e-08
0.032608696 	0.82387126 	-0.00051991604 	-1.8795041e-07
0.043478261 	0.84065206 	-0.0011388184 	-3.8756977e-06
0.054347826 	0.84827359 	-0.0027645592 	6.8598368e-06
0.065217391 	0.84249156 	-0.0055835524 	5.6000162e-06
0.076086957 	0.83218474 	-0.0082760036 	-5.1639854e-07
0.086956522 	0.8178007 	-0.011187403 	-3.9007362e-06
0.097826087 	0.80292865 	-0.014636842 	-6.3840438e-07
0.10869565 	0.79134108 	-0.017734308 	-2.941265e-05
0.11956522 	0.77880342 	-0.020907024 	-1.3861296e-05
0.13043478 	0.77166533 	-0.023498228 	-1.8412929e-05
0.14130435 	0.7734797 	-0.025692369 	-9.0800603e-05
0.15217391 	0.77297741 	-0.028073628 	9.1659375e-10
0.16304348 	0.79099025 	-0.028254264 	-0.0001678247
0.17391304 	0.80146994 	-0.029170553 	-2.593818e-05
0.18478261 	0.82814533 	-0.028545543 	-0.00020586453
0.19565217 	0.84687295 	-0.02864876 	-2.0233132e-05
0.20652174 	0.87964042 	-0.027858317 	-0.00024809604
0.2173913 	0.90272306 	-0.027816651 	1.1439927e-05
0.22826087 	0.93898647 	-0.026268731 	-0.00028032228
0.23913043 	0.96578722 	-0.025647851 	-2.8449517e-05
0.25 	0.99971644 	-0.024051523 	-0.00017102323
0.26086957 	1.0311112 	-0.022781996 	-0.00015076214
0.27173913 	1.0598607 	-0.021486156 	4.1815465e-06
0.2826087 	1.0927331 	-0.019838632 	-0.00033696304
0.29347826 	1.1174231 	-0.018828235 	7.2892154e-07
0.30434783 	1.1429468 	-0.017450913 	-7.5900098e-05
0.31521739 	1.1672744 	-0.016309051 	-0.00024113645
0.32608696 	1.1865228 	-0.015391428 	1.4272475e-05
0.33695652 	1.2047818 	-0.014487783 	-9.734321e-05
0.34782609 	1.2210344 	-0.01381938 	-0.00020766978
0.35869565 	1.2334156 	-0.013246037 	8.2238424e-06
0.36956522 	1.2445238 	-0.012846498 	-4.4088296e-05
0.38043478 	1.2541975 	-0.012793001 	-0.00024137673
0.39130435 	1.2605769 	-0.0126021 	-3.7239797e-07
0.40217391 	1.2655651 	-0.012643631 	-3.1510771e-07
0.41304348 	1.2699119 	-0.013119148 	-0.00024925125
0.42391304 	1.271749 	-0.013272337 	-3.2182145e-05
0.43478261 	1.2720086 	-0.01358773 	-1.0375546e-05
0.44565217 	1.2720429 	-0.014014557 	-4.6276253e-05
0.45652174 	1.2710184 	-0.014742686 	-0.00021260691
0.4673913 	1.2682737 	-0.014979037 	-5.1040843e-06
0.47826087 	1.2652353 	-0.015450432 	-1.1014065e-05
0.48913043 	1.2621778 	-0.016119126 	-8.8057286e-05
0.5 	1.2582459 	-0.016887805 	-0.0001603485
0.51086957 	1.2531388 	-0.017193159 	-8.0514904e-06
0.52173913 	1.2481723 	-0.017697323 	-9.3418039e-06
0.5326087 	1.2432983 	-0.018514611 	-0.0001219478
0.54347826 	1.2372357 	-0.019091507 	-9.5857943e-05
0.55434783 	1.2305855 	-0.019348194 	-7.2119209e-06
0.56521739 	1.2241724 	-0.01975375 	-3.0535869e-06
0.57608696 	1.2180949 	-0.020912913 	-0.00025627213
0.58695652 	1.2099143 	-0.020562097 	1.7036861e-07
0.59782609 	1.2025731 	-0.020756943 	5.9508267e-07
0.60869565 	1.1953723 	-0.021298966 	-9.6183412e-05
0.61956522 	1.1871787 	-0.021267463 	-4.5003311e-05
0.63043478 	1.1790879 	-0.021060152 	1.1406069e-05
0.64130435 	1.1711459 	-0.021017871 	-4.4425651e-06
0.65217391 	1.1626932 	-0.021265389 	-0.00010058993
0.66304348 	1.1540256 	-0.020456563 	2.0818601e-05
0.67391304 	1.145642 	-0.020155512 	-1.1160795e-05
0.68478261 	1.1365109 	-0.019727719 	-4.7728962e-05
0.69565217 	1.1277922 	-0.018746563 	2.882066e-05
0.70652174 	1.1191526 	-0.019137197 	-0.00015369234
0.7173913 	1.1097093 	-0.016861412 	1.1692615e-05
0.72826087 	1.1011143 	-0.015817875 	1.880778e-05
0.73913043 	1.0921678 	-0.016793121 	-0.00024708388
0.75 	1.0830291 	-0.012992766 	4.6780159e-05
0.76086957 	1.0744072 	-0.01346082 	-0.00017855612
0.77173913 	1.0647796 	-0.0094961656 	2.7788507e-05
0.7826087 	1.0558483 	-0.0076845421 	4.7724422e-06
0.79347826 	1.0457268 	-0.0051763548 	1.3262555e-05
0.80434783 	1.0357479 	-0.0029076244 	1.6856421e-05
0.81521739 	1.0244434 	0.00016712464 	8.8415853e-06
0.82608696 	1.0123927 	0.0029227108 	1.6884769e-05
0.83695652 	0.99846571 	0.0066486163 	2.0698821e-05
0.84782609 	0.98286915 	0.0096339621 	-1.3838174e-05
0.85869565 	0.96403065 	0.014203094 	5.3258298e-05
0.86956522 	0.94003594 	0.012333925 	-0.00030823159
0.88043478 	0.91627494 	0.022678432 	4.7747385e-05
0.89130435 	0.88587217 	0.027794117 	1.8171555e-05
0.90217391 	0.84683684 	0.027883319 	-0.00014365416
0.91304348 	0.80529207 	0.036384248 	2.713018e-05
0.92391304 	0.75474888 	0.040898897 	3.2709079e-05
0.93478261 	0.69539966 	0.045494777 	9.3363586e-06
0.94565217 	0.63079835 	0.048192507 	-3.6903056e-06
0.95652174 	0.59243039 	0.042363241 	2.3852629e-05
0.9673913 	0.57212207 	0.038093825 	-1.8162563e-05
0.97826087 	0.55129791 	0.024735324 	3.6392036e-05
0.98913043 	0.43059062 	0.010373988 	2.046053e-05
