0.4742268 	0.00014999023 	-4.2247799e-05 	-2.7657137e-10 	0.00014977003 	2.0679343e-09 	4.5365277e-05
0.48453608 	0.0033362482 	-0.0016816763 	-7.2156578e-09 	0.0033234736 	1.8680673e-08 	0.0011772051
0.49484536 	0.0029892967 	-0.0015297479 	2.7817312e-06 	0.0029633759 	-5.2061842e-06 	0.0011340261
0.50515464 	0.0018408809 	-0.0008866205 	-9.3953881e-11 	0.0018183655 	1.5826902e-10 	0.00075963124
0.51546392 	0.0012700477 	-0.00049078118 	6.5511205e-07 	0.0012567846 	-5.3838538e-07 	0.00045006992
0.5257732 	0.0011613784 	-0.00026408395 	1.88856e-06 	0.0011567147 	-1.3811036e-07 	0.00043057102
0.53608247 	0.0012061223 	-0.00010659211 	5.9368444e-07 	0.0012091656 	1.9840444e-07 	0.00044693999
0.54639175 	0.0012778922 	1.0529262e-05 	1.0642116e-07 	0.0012878457 	5.3806273e-08 	0.0004722821
0.55670103 	0.0013477053 	0.00010306009 	5.7582224e-08 	0.0013639461 	3.2710369e-08 	0.00049918286
0.56701031 	0.0014107703 	0.00018132671 	2.4686551e-07 	0.0014327134 	1.3955301e-07 	0.00052557293
0.57731959 	0.0014667438 	0.00024948758 	5.7195194e-07 	0.0014938413 	3.0057534e-07 	0.00055070837
0.58762887 	0.0015161327 	0.00030954202 	7.4137518e-07 	0.0015478964 	3.3845246e-07 	0.00057416567
0.59793814 	0.0015596264 	0.0003627742 	1.4633229e-07 	0.0015956172 	5.1504994e-08 	0.00059558574
0.60824742 	0.0015972542 	0.00040936383 	-6.3352414e-08 	0.0016358879 	-1.2063744e-07 	2.1617726e-05
0.6185567 	0.0016286659 	0.00044933567 	1.9662017e-07 	0.0016716911 	3.7493593e-08 	0.00061467115
0.62886598 	0.0016553403 	0.0004840737 	3.1443984e-07 	0.0017012383 	-2.4477301e-08 	0.00063090762
0.63917526 	0.0016778781 	0.00051432445 	-4.3019089e-08 	0.0017253412 	-8.5705492e-08 	0.00015624278
0.64948454 	0.0016951911 	0.00053925511 	1.6704449e-07 	0.001745587 	-9.8203798e-08 	0.00064404882
0.65979381 	0.0017091517 	0.00056062363 	4.5920119e-08 	0.0017612164 	-8.3884944e-08 	0.00065367659
0.67010309 	0.0017192359 	0.00057809718 	-4.4978128e-09 	0.0017724339 	-9.8768738e-09 	0.00058838409
0.68041237 	0.0017254861 	0.00059181583 	4.4203762e-08 	0.0017796512 	-3.4598397e-07 	0.00065956354
0.69072165 	0.0017292201 	0.00060311034 	-2.0928547e-08 	0.0017832432 	-4.9834175e-08 	0.00030081696
0.70103093 	0.0017295455 	0.00061144225 	-4.138286e-08 	0.0017844109 	-5.6321298e-07 	0.00066145027
0.71134021 	0.0017278219 	0.00061790925 	-1.8622008e-08 	0.0017818488 	-4.9220519e-08 	0.00027744493
0.72164948 	0.0017233137 	0.00062220138 	-1.1206591e-07 	0.0017776359 	-6.1917026e-07 	0.00065917449
0.73195876 	0.0017172031 	0.00062510594 	-6.9329433e-09 	0.0017705552 	-2.0596492e-08 	0.00048666872
0.74226804 	0.0017085905 	0.00062643303 	-1.1050288e-07 	0.0017613192 	-4.6940754e-07 	0.00065284363
0.75257732 	0.0016986897 	0.0006267836 	-1.2151443e-08 	0.0017503169 	-5.1618373e-08 	0.00065282266
0.7628866 	0.0016865862 	0.00062591966 	-8.2705758e-08 	0.0017368337 	-3.1758341e-07 	0.00064350068
0.77319588 	0.0016731425 	0.000624369 	-2.4809434e-08 	0.0017218702 	-9.5266217e-08 	0.00064347216
0.78350515 	0.0016580481 	0.00062204117 	-1.0405245e-07 	0.0017050502 	-3.8356922e-07 	0.00063236892
0.79381443 	0.0016418251 	0.00061919803 	-2.8253618e-09 	0.0016868123 	-1.0046838e-08 	0.00053777397
0.80412371 	0.0016240094 	0.00061579013 	-1.9083074e-07 	0.0016671505 	-6.9113564e-07 	0.00062012122
0.81443299 	0.0016054106 	0.00061182711 	-1.660714e-08 	0.0016454104 	-5.7280723e-08 	7.5199829e-05
0.82474227 	0.0015851335 	0.00060768721 	-1.8657027e-07 	0.0016238743 	-6.6889777e-07 	0.00060720403
0.83505155 	0.0015640738 	0.00060301877 	-2.7256493e-08 	0.0016004137 	-9.7020709e-08 	0.00059396372
0.84536082 	0.0015418767 	0.00059787441 	-7.441187e-09 	0.0015752786 	-2.2757622e-08 	0.00037963767
0.8556701 	0.0015183971 	0.00059243722 	-1.8332596e-07 	0.0015494791 	-6.5114543e-07 	0.00058052006
0.86597938 	0.0014940934 	0.00058667618 	-8.5610442e-08 	0.0015222986 	-3.0754473e-07 	0.00056715261
0.87628866 	0.0014690398 	0.00058069019 	-1.4562494e-08 	0.0014934831 	-4.0850719e-08 	0.00018858541
0.88659794 	0.0014432821 	0.00057515296 	-6.8382789e-09 	0.0014647791 	-1.9396111e-08 	0.00037523323
0.89690722 	0.0014179296 	0.0005707825 	-4.2941106e-08 	0.0014361128 	-1.8386569e-07 	0.00054155769
0.90721649 	0.0013952882 	0.00056943676 	-5.1031017e-08 	0.0014093636 	-3.3259822e-07 	0.00053062673
0.91752577 	0.0013802738 	0.00057463181 	2.0103542e-08 	0.0013896032 	-2.7355972e-07 	0.00052286718
0.92783505 	0.0013847468 	0.00059345175 	1.3031168e-07 	0.0013885326 	-3.9019366e-08 	0.00052165605
0.93814433 	0.0014351343 	0.00064212381 	9.9106447e-08 	0.0014326127 	8.6225998e-08 	0.00053354772
0.94845361 	0.0015847686 	0.00074316442 	1.0383803e-07 	0.0015746294 	1.7272103e-07 	9.4261931e-05
0.95876289 	0.0018971815 	0.00092530051 	7.3820571e-07 	0.0018820596 	1.2360494e-06 	0.00073976828
0.96907216 	0.0023661762 	0.001195237 	1.3088318e-07 	0.0023472295 	3.0548107e-07 	0.00031574297
0.97938144 	0.0026608958 	0.0013615933 	-4.4101632e-08 	0.0026490374 	-3.4575798e-08 	0.0010159523
0.98969072 	0.0014342745 	0.00067305765 	-1.3445381e-06 	0.0014321004 	-2.6107529e-06 	0.00058200219
