0.47777778 	0.5389533 	3.0796084e-05 	-2.0629574e-08
0.48888889 	0.95829669 	0.00017102132 	-3.3028529e-08
0.5 	1.1419088 	0.00035889475 	-6.0598491e-08
0.51111111 	1.2606943 	0.00057775803 	-6.6560987e-08
0.52222222 	1.3444884 	0.00080370049 	-2.5305779e-07
0.53333333 	1.4041604 	0.0010076448 	-1.0337057e-08
0.54444444 	1.4420459 	0.0011544115 	1.7085425e-08
0.55555556 	1.461533 	0.0012130893 	-7.4618805e-08
0.56666667 	1.4699491 	0.0012074429 	-8.2776215e-08
0.57777778 	1.4730202 	0.0011707679 	-4.692313e-08
0.58888889 	1.4737389 	0.0011205249 	-1.3098604e-07
0.6 	1.473287 	0.0010627125 	-5.7113072e-09
0.61111111 	1.4721267 	0.00099924127 	-1.3059328e-07
0.62222222 	1.4705383 	0.00093326228 	-2.2680618e-07
0.63333333 	1.4686807 	0.00086841309 	-4.8836104e-08
0.64444444 	1.4664817 	0.00079986998 	-3.0103478e-08
0.65555556 	1.4639416 	0.00072699368 	-2.2171601e-07
0.66666667 	1.4613525 	0.0006581766 	-2.5807296e-08
0.67777778 	1.4584351 	0.00058457521 	-9.1949451e-08
0.68888889 	1.4553511 	0.00051061789 	-1.1818201e-07
0.7 	1.4521875 	0.00043789119 	-2.0372054e-08
0.71111111 	1.4486799 	0.0003606998 	-1.5544669e-07
0.72222222 	1.445252 	0.00028790136 	-6.7204043e-08
0.73333333 	1.4414928 	0.00021148012 	-1.5011462e-07
0.74444444 	1.4376814 	0.00013635035 	-1.1684333e-07
0.75555556 	1.4336856 	6.1227386e-05 	-1.4062772e-07
0.76666667 	1.4294436 	-1.6032215e-05 	-3.4855855e-07
0.77777778 	1.4250807 	-9.139639e-05 	-1.5068316e-07
0.78888889 	1.4204314 	-0.00016863831 	-4.5857909e-08
0.8 	1.4155895 	-0.00024386202 	-7.8945477e-08
0.81111111 	1.4104472 	-0.00031903346 	-5.912109e-08
0.82222222 	1.4049779 	-0.00039393181 	-1.3976792e-07
0.83333333 	1.3990538 	-0.00046516116 	-7.3935481e-08
0.84444444 	1.3925181 	-0.00053479449 	-4.5053534e-08
0.85555556 	1.3852291 	-0.00060114423 	-6.9768516e-08
0.86666667 	1.3766946 	-0.00065907024 	-7.3253985e-09
0.87777778 	1.3662003 	-0.00070422401 	-1.156529e-08
0.88888889 	1.3528563 	-0.00073183927 	1.6815333e-08
0.9 	1.3351359 	-0.00073392947 	6.147297e-08
0.91111111 	1.3109965 	-0.00070215733 	9.8285882e-08
0.92222222 	1.2780119 	-0.00063214033 	1.0260434e-07
0.93333333 	1.2338019 	-0.00052767188 	5.4849392e-08
0.94444444 	1.1762192 	-0.00040258346 	3.7317316e-07
0.95555556 	1.1015657 	-0.00027701713 	4.1384688e-08
0.96666667 	1.0038394 	-0.00016399942 	6.4848422e-08
0.97777778 	0.86280148 	-7.8416632e-05 	3.0520713e-10
0.98888889 	0.58727868 	-1.9880096e-05 	-2.136631e-09
