0.4 	2.3788211e-07 	1.4538454e-09 	9.6370745e-12 	2.3633875e-07 	-1.4460363e-09 	1.7001701e-08
0.41111111 	0.0010950332 	-0.00053289556 	2.3315347e-06 	0.0013056306 	-4.0595085e-06 	0.00023785666
0.42222222 	0.0034902347 	-0.0020609694 	-1.400466e-06 	0.0041385752 	2.5188626e-06 	0.0023735685
0.43333333 	0.0044279601 	-0.0025347228 	-3.4928726e-06 	0.0050009973 	6.5971289e-06 	0.00086863672
0.44444444 	0.0043896077 	-0.0024330078 	-2.0305592e-06 	0.0047685536 	3.6325823e-06 	0.002435691
0.45555556 	0.0040069635 	-0.0021707856 	-8.0308756e-06 	0.0042616143 	1.4145174e-05 	2.0399775e-05
0.46666667 	0.0034732897 	-0.0018251131 	-4.5607744e-06 	0.003626404 	8.0570895e-06 	0.0010409565
0.47777778 	0.0029355203 	-0.0015055165 	-3.0664795e-06 	0.0030251371 	5.6005407e-06 	0.0012827263
0.48888889 	0.0024142882 	-0.001212762 	-2.9091918e-06 	0.0024538029 	5.5598722e-06 	0.0010279845
0.5 	0.001931208 	-0.00094259533 	-3.4971327e-06 	0.0019257871 	6.8377196e-06 	0.00055496226
0.51111111 	0.0015265383 	-0.00070790191 	-4.2324425e-06 	0.0014822139 	8.1137493e-06 	9.395163e-05
0.52222222 	0.0012101964 	-0.00051378209 	-2.4665699e-06 	0.0011306777 	4.3730831e-06 	0.0003812081
0.53333333 	0.00099578837 	-0.00036473672 	-6.347536e-07 	0.00088041696 	9.3776304e-07 	0.00075846961
0.54444444 	0.00092406786 	-0.00027027723 	-6.0215013e-07 	0.00076224807 	8.895958e-07 	0.00069806233
0.55555556 	0.00093535891 	-0.00019972722 	-1.4258124e-06 	0.00070729068 	1.6021463e-06 	0.00016758217
0.56666667 	0.00096078108 	-0.00013769483 	-6.4926037e-07 	0.00067093481 	6.3344757e-07 	0.00047189755
0.57777778 	0.0010139996 	-8.7907599e-05 	-2.1588415e-07 	0.00065943722 	2.1062627e-07 	0.00082183496
0.58888889 	0.0010648903 	-4.3660587e-05 	-9.9757323e-07 	0.00066197783 	1.0045947e-06 	4.7490144e-05
0.6 	0.0011158364 	-8.1937685e-06 	-1.3498119e-07 	0.00067160194 	1.3492047e-07 	0.00088413004
0.61111111 	0.0011573247 	2.9943619e-05 	-5.8180992e-07 	0.00068861494 	5.8154821e-07 	0.00040993054
0.62222222 	0.0011962051 	6.3490195e-05 	-3.5929618e-07 	0.00070881823 	3.342491e-07 	0.00065816547
0.63333333 	0.0012293672 	9.8178496e-05 	-4.2566499e-07 	0.00073172315 	3.9599125e-07 	0.00060161328
0.64444444 	0.0012583031 	0.00013072789 	-4.1192129e-07 	0.00075621803 	3.6586929e-07 	0.00059614266
0.65555556 	0.0012834718 	0.00016241293 	-4.0753441e-07 	0.00078141022 	3.6197286e-07 	0.00062026328
0.66666667 	0.0013047919 	0.00019147012 	-3.1355338e-07 	0.0008067637 	2.7995845e-07 	0.00069847178
0.67777778 	0.0013218963 	0.00021983928 	-4.7989769e-07 	0.0008318772 	4.2848019e-07 	0.00047340593
0.68888889 	0.0013374567 	0.00024397824 	-1.330135e-07 	0.00085595776 	1.2370218e-07 	0.00095488892
0.7 	0.0013462681 	0.0002687797 	-5.873578e-07 	0.00087876018 	5.4624108e-07 	0.00018955162
0.71111111 	0.0013575738 	0.00028920708 	2.5860277e-08 	0.00090170265 	1.4185063e-08 	0.0012103291
0.72222222 	0.0013595761 	0.00030984331 	-5.4122308e-07 	0.00092114394 	5.3244885e-07 	0.0001039791
0.73333333 	0.0013649458 	0.0003276152 	-5.7347675e-08 	0.00094203492 	5.6417963e-08 	0.0011158996
0.74444444 	0.001363308 	0.00034499184 	-4.0117452e-07 	0.00095979774 	4.1489485e-07 	0.00024043604
0.75555556 	0.0013633058 	0.00036021692 	-8.0869876e-08 	0.00097838786 	8.3635658e-08 	0.0010542935
0.76666667 	0.0013590756 	0.00037570395 	-3.5054854e-07 	0.00099523472 	3.6667368e-07 	0.00021076123
0.77777778 	0.0013563731 	0.00038953135 	-3.6362713e-08 	0.001013483 	3.8035389e-08 	0.0011706506
0.78888889 	0.001351808 	0.0004055235 	-3.5329933e-07 	0.001031653 	3.4418463e-07 	1.0143822e-05
0.8 	0.0013502307 	0.00042101852 	-4.540415e-08 	0.0010532265 	3.515086e-08 	0.0010620452
0.81111111 	0.0013513818 	0.00044062792 	-1.887993e-07 	0.0010785165 	1.4616412e-07 	0.00046601759
0.82222222 	0.0013593916 	0.00046374861 	-1.6241985e-07 	0.001110588 	6.9335331e-08 	0.00050263097
0.83333333 	0.0013752342 	0.00049170069 	-3.4173696e-09 	0.0011514854 	1.4588392e-09 	0.0012050567
0.84444444 	0.0014129591 	0.00053172786 	-1.8563927e-07 	0.0012102342 	-5.7389064e-09 	0.00037914781
0.85555556 	0.0014743331 	0.00058382511 	-1.8393465e-07 	0.0012905667 	-9.1720699e-08 	0.00040881903
0.86666667 	0.0015685822 	0.00065295383 	-3.077837e-08 	0.0014010643 	-2.6987639e-08 	0.0011762525
0.87777778 	0.0017142565 	0.00074679694 	-2.1431213e-08 	0.0015567299 	-1.8791698e-08 	0.0013417144
0.88888889 	0.0019155762 	0.0008654983 	-1.2561394e-07 	0.0017624902 	-1.4403948e-07 	0.00090787619
0.9 	0.0021705485 	0.0010080971 	-1.9032323e-07 	0.0020189572 	-2.5062011e-07 	0.00054046938
0.91111111 	0.0024762079 	0.0011693525 	-1.587605e-07 	0.0023251318 	-2.8013908e-07 	0.00033210832
0.92222222 	0.0028195789 	0.0013360795 	-6.7936469e-08 	0.002670542 	-1.9932836e-07 	0.00043692169
0.93333333 	0.0031791112 	0.0015001611 	-2.1799749e-09 	0.0030349378 	-5.1262277e-08 	0.0010481413
0.94444444 	0.003528192 	0.0016567698 	1.0910956e-08 	0.0033928499 	1.4712274e-08 	0.0023691548
0.95555556 	0.0038213901 	0.0017885404 	5.612377e-08 	0.003698412 	1.3392198e-07 	0.0027957538
0.96666667 	0.0039779867 	0.0018630957 	-5.3175916e-09 	0.0038761401 	2.5436123e-08 	0.0028625047
0.97777778 	0.0036853033 	0.001742933 	4.1008249e-07 	0.0036179299 	1.0909691e-06 	0.00046612616
0.98888889 	0.001782467 	0.00081915326 	4.8212121e-07 	0.0017706037 	1.0704737e-06 	0.00028887294
