0.47777778 	0.001367181 	-0.00061791406 	2.8635588e-08 	0.0013643214 	-5.8383446e-08 	8.6498234e-05
0.48888889 	0.0039351739 	-0.0018965177 	7.4141894e-09 	0.0039259439 	-9.9374888e-10 	0.0021606885
0.5 	0.0038520284 	-0.0018322691 	-3.0673666e-08 	0.0038369082 	8.5373477e-08 	0.0021855079
0.51111111 	0.0031610765 	-0.0015239141 	-5.663812e-08 	0.0031433984 	1.3844326e-07 	0.0020521935
0.52222222 	0.0023497607 	-0.0011338355 	-1.9186558e-07 	0.0023304786 	4.0294126e-07 	0.0004670039
0.53333333 	0.0016474848 	-0.00075353911 	-3.6905437e-08 	0.0016341219 	6.5820494e-08 	0.0012617946
0.54444444 	0.0011897683 	-0.00046513276 	-1.7664223e-08 	0.0011816992 	1.6469093e-08 	0.00099414582
0.55555556 	0.0010063626 	-0.0002822126 	-4.5251492e-08 	0.0010033027 	-1.3684172e-09 	0.00063660954
0.56666667 	0.00097004096 	-0.00015833556 	-4.6054696e-08 	0.00097230811 	-3.8523442e-08 	0.00056494167
0.57777778 	0.00099097416 	-6.0120482e-05 	-2.9696774e-08 	0.00099871082 	-3.8495241e-08 	0.00066757431
0.58888889 	0.0010282553 	2.0600361e-05 	-2.3541597e-09 	0.0010412209 	-3.7492809e-09 	0.0009131787
0.6 	0.0010694737 	8.7710696e-05 	-1.2764948e-08 	0.0010865452 	-2.0329707e-08 	0.00086299551
0.61111111 	0.0011098956 	0.00014617672 	-5.6477584e-08 	0.0011298472 	-1.0001061e-07 	0.00045593399
0.62222222 	0.0011481158 	0.0001982333 	-8.9296839e-08 	0.0011705568 	-1.6852208e-07 	8.7613354e-05
0.63333333 	0.0011831475 	0.00024439397 	-2.6320053e-08 	0.0012096677 	-5.2064211e-08 	0.00077326484
0.64444444 	0.0012154778 	0.00028568154 	-1.9814406e-08 	0.0012445708 	-3.9195264e-08 	0.00088325213
0.65555556 	0.0012445511 	0.00032214949 	-8.5003519e-08 	0.0012740135 	-1.7505416e-07 	5.5832979e-05
0.66666667 	0.0012702425 	0.0003547457 	-1.7130514e-08 	0.0013030533 	-3.6621025e-08 	0.00092472653
0.67777778 	0.0012924969 	0.00038298607 	-3.9487318e-08 	0.0013260609 	-8.4414638e-08 	0.00063515601
0.68888889 	0.0013114194 	0.00040769532 	-4.7064314e-08 	0.001345704 	-1.0431345e-07 	0.00047843813
0.7 	0.0013275268 	0.00042955265 	-1.4595079e-08 	0.0013636045 	-3.2348566e-08 	0.00099647859
0.71111111 	0.0013394981 	0.00044729607 	-5.786906e-08 	0.0013745497 	-1.3277323e-07 	0.00024348486
0.72222222 	0.0013495717 	0.00046348538 	-5.6751789e-09 	0.0013866703 	-1.3020979e-08 	0.0011457915
0.73333333 	0.0013548162 	0.00047509683 	-5.4689575e-08 	0.0013900014 	-1.296737e-07 	0.00021039273
0.74444444 	0.0013590682 	0.0004864879 	-4.0776339e-09 	0.0013959354 	-9.6684216e-09 	0.0011743499
0.75555556 	0.0013587069 	0.00049335773 	-5.0474542e-08 	0.0013931048 	-1.2339329e-07 	0.00019093076
0.76666667 	0.0013574057 	0.00050053149 	-1.7052532e-09 	0.0013931763 	-2.0555321e-08 	0.0012499207
0.77777778 	0.0013522588 	0.00050372428 	-5.2588564e-08 	0.0013846144 	-1.3246197e-07 	2.0641771e-05
0.78888889 	0.0013460673 	0.00050733184 	-3.8246942e-09 	0.0013793929 	-1.0013251e-08 	0.0011393706
0.8 	0.0013373747 	0.00050836669 	-2.8972714e-08 	0.0013678692 	-7.585209e-08 	0.00046972629
0.81111111 	0.0013279071 	0.00050934481 	-2.1094076e-08 	0.0013567883 	-5.9123611e-08 	0.00056222328
0.82222222 	0.0013175045 	0.00051006608 	-1.2302093e-09 	0.0013454743 	-3.448097e-09 	0.0011722346
0.83333333 	0.0013082843 	0.00051128144 	-2.1119648e-08 	0.0013319996 	-6.9006361e-08 	0.00029535669
0.84444444 	0.0013010931 	0.0005147843 	-7.538062e-09 	0.0013221615 	-4.089087e-08 	0.00047223861
0.85555556 	0.001297578 	0.00052151199 	4.6114481e-10 	0.0013164138 	-1.6388445e-09 	0.0011293419
0.86666667 	0.0013042543 	0.0005352266 	2.0502068e-09 	0.0013185086 	-7.2861495e-09 	0.00092840708
0.87777778 	0.0013288777 	0.00055976542 	2.2830881e-08 	0.0013375088 	1.1500581e-08 	0.00048609794
0.88888889 	0.0013822417 	0.00060038004 	6.6412947e-08 	0.001385149 	8.2605198e-08 	0.00016315556
0.9 	0.0014829573 	0.00066657626 	1.2305891e-07 	0.0014804723 	1.8944277e-07 	2.7203007e-05
0.91111111 	0.0016544708 	0.00076841864 	1.6321037e-07 	0.0016471823 	2.9457384e-07 	2.8605364e-05
0.92222222 	0.0019182102 	0.00090860774 	1.6805939e-07 	0.0019072739 	3.3578721e-07 	0.00027862794
0.93333333 	0.0022818169 	0.0010890864 	1.0658698e-07 	0.0022694098 	2.2227827e-07 	0.0010959728
0.94444444 	0.0027196137 	0.0012971331 	2.5072152e-07 	0.0027083645 	5.4401103e-07 	0.0024678969
0.95555556 	0.0031497774 	0.0014910967 	9.633682e-08 	0.0031360258 	2.301067e-07 	0.00080092318
0.96666667 	0.0034601505 	0.0016311307 	2.2574892e-09 	0.0034530272 	5.7000188e-09 	0.0030332779
0.97777778 	0.0033787587 	0.0016042592 	1.3342764e-08 	0.0033727308 	3.8646606e-08 	0.0017092674
0.98888889 	0.0018777046 	0.00087661848 	1.9738698e-09 	0.0018758181 	6.2034668e-09 	0.0010812247
