0.31958763 	1.6421409e-05 	-2.9852202e-06 	1.5513825e-08 	1.3959276e-05 	-4.0166523e-08 	5.8128486e-06
0.32989691 	0.0015108863 	-0.00051900778 	-5.9087313e-07 	0.0011535677 	-2.3886519e-06 	4.7743819e-05
0.34020619 	0.0014967755 	-5.9866843e-05 	-2.0496807e-07 	0.0018977613 	-8.5387732e-07 	0.00070245169
0.35051546 	0.0015114695 	9.9669881e-05 	2.0050707e-07 	0.0023534331 	5.8233754e-07 	0.00064144103
0.36082474 	0.0014867426 	0.00014893083 	9.4569374e-08 	0.0025457862 	1.0665874e-07 	0.00045341702
0.37113402 	0.0014695173 	0.00016678534 	1.1140914e-07 	0.0025808004 	-6.5932537e-07 	0.00032017533
0.3814433 	0.0014555136 	0.00017797741 	5.8457338e-08 	0.0025809811 	-1.054249e-06 	0.00019089994
0.39175258 	0.0014440484 	0.00018835366 	7.2213708e-08 	0.002577813 	-1.3068562e-06 	6.7248623e-05
0.40206186 	0.0014347332 	0.00019970549 	9.262719e-08 	0.0025781512 	-1.2147654e-06 	6.297779e-05
0.41237113 	0.0014274467 	0.00021209948 	6.3380233e-08 	0.0025820736 	-6.511548e-07 	0.00018188733
0.42268041 	0.0014219949 	0.00022524259 	4.1955914e-08 	0.0025883372 	-7.6838975e-08 	0.00024854115
0.43298969 	0.0014183226 	0.00023864414 	6.0554104e-08 	0.0025973388 	-1.0142262e-07 	0.00033658546
0.44329897 	0.0014163643 	0.00025270933 	7.9417085e-08 	0.0026086347 	-6.310777e-07 	0.00051731954
0.45360825 	0.001415274 	0.00026687569 	2.1856157e-08 	0.0026203311 	-3.4033117e-08 	0.00060280462
0.46391753 	0.0014147549 	0.00028022168 	3.9545601e-07 	0.0026312413 	-5.8240285e-07 	0.00026922854
0.4742268 	0.0014155535 	0.00029504317 	7.2548313e-08 	0.0026469032 	-5.119774e-07 	0.00083000057
0.48453608 	0.001416085 	0.00030808159 	6.0066058e-07 	0.0026570798 	-8.5139811e-07 	0.00022365099
0.49484536 	0.0014176977 	0.00032303015 	6.7511288e-08 	0.0026737697 	-9.3780848e-08 	0.00094005105
0.50515464 	0.0014188901 	0.00033613941 	5.4143984e-07 	0.0026841587 	-7.5212145e-07 	0.00046428005
0.51546392 	0.0014206113 	0.0003504731 	2.936944e-07 	0.0026983426 	-4.074216e-07 	0.00083561583
0.5257732 	0.00142198 	0.00036359024 	6.3023897e-07 	0.0027083692 	-8.7428623e-07 	0.00050014945
0.53608247 	0.001423673 	0.00037789453 	3.062878e-07 	0.0027212211 	-4.3293367e-07 	0.000942925
0.54639175 	0.0014247837 	0.00039053822 	7.1726338e-07 	0.0027282991 	-1.0138421e-06 	0.00034186847
0.55670103 	0.0014263977 	0.00040541817 	2.8459995e-08 	0.0027409761 	-4.1952595e-08 	0.0012450303
0.56701031 	0.001426953 	0.00041722365 	8.4437928e-07 	0.0027428557 	-1.2446911e-06 	6.0712094e-06
0.57731959 	0.0014282899 	0.00043246017 	3.6368219e-08 	0.0027540414 	-5.361003e-08 	0.0011784409
0.58762887 	0.0014285516 	0.00044502275 	4.0337371e-07 	0.0027550605 	-6.3696344e-07 	0.00053822805
0.59793814 	0.0014289593 	0.00045867007 	3.3830383e-07 	0.0027582261 	-5.3421224e-07 	0.000627833
0.60824742 	0.001429159 	0.00047253752 	1.2441672e-08 	0.0027612955 	-1.3613543e-07 	0.0011621728
0.6185567 	0.0014285666 	0.00048477607 	5.5269355e-07 	0.0027554902 	-9.652818e-07 	9.5917368e-05
0.62886598 	0.0014284332 	0.0004991301 	7.3286115e-08 	0.0027566724 	-1.2799453e-07 	0.0010030425
0.63917526 	0.0014274383 	0.00051163994 	5.3864618e-08 	0.0027511193 	-1.0784001e-07 	0.0010013873
0.64948454 	0.0014261161 	0.00052368711 	4.3836422e-07 	0.0027401193 	-8.7762999e-07 	0.00011160538
0.65979381 	0.0014250156 	0.0005378561 	1.2571284e-08 	0.0027351289 	-2.1879165e-07 	0.0011237873
0.67010309 	0.0014230519 	0.0005493826 	9.6141921e-08 	0.002721851 	-2.2906379e-07 	0.00083504477
0.68041237 	0.0014210548 	0.00056116207 	2.7022139e-07 	0.0027058349 	-6.4381838e-07 	0.00033053952
0.69072165 	0.001418791 	0.00057412695 	3.7371551e-08 	0.0026921321 	-9.0045771e-07 	0.0011262305
0.70103093 	0.0014160637 	0.00058479896 	1.6938269e-07 	0.0026706006 	-4.9866946e-07 	0.00047116267
0.71134021 	0.0014132764 	0.00059668944 	7.9111387e-08 	0.0026503098 	-2.3290711e-07 	0.00083367441
0.72164948 	0.0014098802 	0.00060744817 	1.1085741e-09 	0.0026271118 	-4.2235663e-09 	0.0011420329
0.73195876 	0.0014066726 	0.00061728205 	1.7051906e-07 	0.0025971716 	-6.4966211e-07 	0.00022743405
0.74226804 	0.0014028473 	0.00062800062 	4.9939039e-09 	0.0025704731 	-9.9159642e-07 	0.0011747928
0.75257732 	0.0013991912 	0.00063674973 	1.1490089e-07 	0.0025352415 	-6.0905429e-07 	0.00022404069
0.7628866 	0.0013950545 	0.0006465139 	-4.3176415e-09 	0.0025030097 	-2.335284e-07 	0.0012039084
0.77319588 	0.0013920555 	0.00065256867 	8.9461025e-08 	0.0024614271 	-3.8481728e-07 	0.00047954676
0.78350515 	0.0013886786 	0.00065922847 	9.4382583e-09 	0.0024212586 	-4.059874e-08 	0.0011573377
0.79381443 	0.0013878299 	0.00066001368 	1.0191178e-07 	0.0023719119 	-2.9816792e-07 	0.0005311898
0.80412371 	0.0013867332 	0.00066039671 	7.6490425e-09 	0.0023234034 	-2.2379151e-08 	0.001214295
0.81443299 	0.0013861128 	0.0006585105 	1.1452735e-07 	0.0022692734 	-3.3966438e-07 	0.00034952606
0.82474227 	0.001383176 	0.0006585328 	-4.9284246e-08 	0.0022193403 	-4.1216519e-07 	0.0013004784
0.83505155 	0.0013817706 	0.00065633437 	1.2095233e-07 	0.002162991 	-3.9194715e-07 	0.00010592571
0.84536082 	0.0013776706 	0.0006562896 	1.1561414e-08 	0.0021118356 	-4.37892e-08 	0.0011799689
0.8556701 	0.0013749655 	0.00065560148 	3.6198955e-08 	0.0020570259 	-1.3710462e-07 	0.00086875439
0.86597938 	0.0013732622 	0.00065526598 	6.2276997e-08 	0.0020017048 	-2.8131203e-07 	0.00025650398
0.87628866 	0.0013710132 	0.00065684018 	5.7265104e-09 	0.0019501712 	-3.0406572e-08 	0.0012312839
0.88659794 	0.0013724867 	0.00065925815 	1.3356129e-08 	0.0018975794 	-7.091825e-08 	0.0010590482
0.89690722 	0.0013789121 	0.0006636745 	3.3792273e-08 	0.0018468952 	-2.0255857e-07 	0.00028515407
0.90721649 	0.0013902806 	0.00067160881 	2.2651543e-08 	0.0018025409 	-1.5191803e-07 	0.00034315936
0.91752577 	0.0014096339 	0.00068375158 	6.4856634e-09 	0.0017664639 	-6.4597343e-08 	0.00081118186
0.92783505 	0.0014403372 	0.00070067957 	-2.2358083e-09 	0.0017417419 	-2.5906934e-08 	0.0011310202
0.93814433 	0.0014850646 	0.00072284279 	-8.2267856e-09 	0.0017331229 	-1.8595531e-08 	0.0012847139
0.94845361 	0.0015417118 	0.00074762455 	-2.7775537e-08 	0.0017410545 	-4.4744166e-08 	0.0012381996
0.95876289 	0.0016005253 	0.00076545841 	-2.2240201e-07 	0.0017513499 	-3.4457559e-07 	6.4379642e-05
0.96907216 	0.0016216304 	0.00077339235 	-3.37341e-07 	0.0017280086 	-5.8224807e-07 	0.00027951399
0.97938144 	0.0014583084 	0.00068882481 	-8.0355425e-08 	0.0015098945 	-1.66262e-07 	0.0011708334
0.98969072 	0.00062396384 	0.00028694477 	-2.3496417e-07 	0.00062910254 	-5.3118405e-07 	9.5794857e-05
