0.4742268 	0.30867361 	1.8130321e-05 	-2.3633923e-09
0.48453608 	0.96542196 	0.00031712149 	-1.0537589e-08
0.49484536 	1.2349252 	0.00093738274 	3.0719003e-06
0.50515464 	1.3799369 	0.0016174475 	-1.4354419e-10
0.51546392 	1.4378071 	0.0019593843 	2.271903e-07
0.5257732 	1.4559123 	0.0020339609 	-3.092951e-07
0.53608247 	1.4607502 	0.0020112635 	-3.19894e-07
0.54639175 	1.4615042 	0.0019586569 	-9.1721695e-08
0.55670103 	1.460731 	0.001893468 	-6.7678497e-08
0.56701031 	1.4591851 	0.001820985 	-3.6547477e-07
0.57731959 	1.4571585 	0.0017436933 	-1.0367954e-06
0.58762887 	1.4547953 	0.0016628563 	-1.6446842e-06
0.59793814 	1.4521808 	0.0015792646 	-4.0396808e-07
0.60824742 	1.449308 	0.001491656 	-1.2278704e-07
0.6185567 	1.4463142 	0.0014046576 	-6.9763519e-07
0.62886598 	1.4431487 	0.0013148046 	-1.5113855e-06
0.63917526 	1.4398354 	0.0012224444 	-7.6424078e-08
0.64948454 	1.4364554 	0.0011310193 	-1.1881341e-06
0.65979381 	1.4329652 	0.0010378933 	-5.7546606e-07
0.67010309 	1.4293718 	0.00094360413 	-7.1684968e-09
0.68041237 	1.4257028 	0.00084944106 	-1.6824543e-06
0.69072165 	1.4219337 	0.00075379359 	-3.0671793e-08
0.70103093 	1.4181369 	0.00066000238 	-2.1456952e-06
0.71134021 	1.4142167 	0.00056424829 	-2.3720835e-08
0.72164948 	1.410306 	0.00047158118 	-1.9333898e-06
0.73195876 	1.4063281 	0.00037860888 	-6.7427949e-09
0.74226804 	1.402217 	0.00028573422 	-1.2669749e-06
0.75257732 	1.3980789 	0.00019400341 	-1.3932282e-07
0.7628866 	1.3937575 	0.00010181161 	-7.7123852e-07
0.77319588 	1.3893334 	9.8705768e-06 	-2.3135017e-07
0.78350515 	1.3847695 	-8.0988808e-05 	-8.4829663e-07
0.79381443 	1.3800881 	-0.00017132611 	1.3756534e-09
0.80412371 	1.3751972 	-0.00026079964 	-1.4142829e-06
0.81443299 	1.370202 	-0.00034893882 	1.5283213e-08
0.82474227 	1.364869 	-0.00043758824 	-1.2798114e-06
0.83505155 	1.3593645 	-0.00052480869 	-1.7473609e-07
0.84536082 	1.3535434 	-0.00061100169 	1.0991801e-08
0.8556701 	1.3472899 	-0.00069674212 	-1.1085345e-06
0.86597938 	1.3406471 	-0.00078131952 	-4.9646472e-07
0.87628866 	1.3334749 	-0.00086427628 	2.7078463e-08
0.88659794 	1.3255095 	-0.0009463987 	1.499333e-08
0.89690722 	1.3165448 	-0.0010259934 	-2.7210593e-07
0.90721649 	1.3062055 	-0.0011010776 	-4.8715183e-07
0.91752577 	1.2937979 	-0.0011681036 	-4.3699022e-07
0.92783505 	1.2779732 	-0.0012184839 	-1.8794564e-07
0.93814433 	1.2560984 	-0.0012342839 	2.1191619e-08
0.94845361 	1.2222237 	-0.0011759136 	1.7781541e-07
0.95876289 	1.164889 	-0.00098557557 	9.4783335e-07
0.96907216 	1.0677855 	-0.00064075113 	1.6461758e-07
0.97938144 	0.90395702 	-0.00024362736 	4.2385172e-07
0.98969072 	0.58059344 	-2.0887319e-05 	1.0651884e-07
