0.27835052 	0.00052512226 	-0.00016697734 	2.2711014e-07 	0.00034513638 	-4.5487566e-07 	0.00031464599
0.28865979 	0.0015799689 	-0.00025180427 	5.2978724e-07 	0.00160556 	8.9974908e-07 	0.00081104881
0.29896907 	0.0015384981 	6.3665346e-05 	1.2827895e-07 	0.0023988671 	4.7444768e-07 	0.00056401114
0.30927835 	0.0015006298 	9.1353047e-05 	-2.8205918e-08 	0.0025967871 	-2.041131e-08 	0.00037191163
0.31958763 	0.001470644 	7.9361354e-05 	-4.9418301e-09 	0.0025865035 	-3.8082481e-08 	0.00021954131
0.32989691 	0.0014478251 	7.3888243e-05 	-4.6860731e-08 	0.0025590019 	-6.1426159e-07 	8.1342062e-05
0.34020619 	0.0014272117 	7.3828625e-05 	-2.0618738e-08 	0.0025378488 	-6.452349e-07 	5.9894043e-05
0.35051546 	0.0014101352 	7.7628748e-05 	7.6432085e-11 	0.0025253087 	-1.7986304e-07 	0.00018775223
0.36082474 	0.0013961432 	8.3258492e-05 	3.3567824e-07 	0.0025180235 	-5.9108775e-07 	4.3452239e-05
0.37113402 	0.0013865783 	9.1553083e-05 	9.544909e-08 	0.0025201573 	-1.4685392e-07 	0.00035668042
0.3814433 	0.0013794778 	0.00010095889 	2.2688011e-08 	0.0025260386 	-4.8406611e-07 	0.00054597585
0.39175258 	0.0013741816 	0.00011122194 	8.3000291e-09 	0.0025345328 	-1.2050476e-07 	0.00066240183
0.40206186 	0.001369966 	0.00011972158 	9.7104136e-07 	0.002541275 	-1.1834393e-06 	8.3798841e-05
0.41237113 	0.0013686358 	0.00013235619 	2.4187191e-07 	0.0025583995 	-2.6869107e-07 	0.00071330208
0.42268041 	0.0013676179 	0.00014407546 	4.1025001e-07 	0.0025726424 	-4.5573921e-07 	0.00070649938
0.43298969 	0.0013673506 	0.00015444102 	1.2971937e-06 	0.0025851224 	-1.3389784e-06 	0.0002057541
0.44329897 	0.0013684543 	0.0001696739 	4.6179879e-08 	0.0026070744 	-4.7667409e-08 	0.0011040776
0.45360825 	0.0013693007 	0.00017932525 	1.3777001e-06 	0.0026175358 	-1.3503602e-06 	7.6600909e-05
0.46391753 	0.0013712057 	0.00019554119 	2.0439621e-08 	0.0026400667 	-1.2692423e-07 	0.0010035689
0.4742268 	0.0013729531 	0.00020635471 	1.0898457e-06 	0.0026519029 	-1.0393929e-06 	0.00014753715
0.48453608 	0.0013751311 	0.00022259613 	6.45719e-08 	0.0026726881 	-3.6938672e-07 	0.00088475903
0.49484536 	0.0013772599 	0.00023412052 	1.0390065e-06 	0.0026840383 	-9.9003138e-07 	4.6515252e-05
0.50515464 	0.0013794826 	0.00025083823 	1.1051901e-07 	0.0027034744 	-5.9328431e-07 	0.00078042135
0.51546392 	0.0013816345 	0.00026397733 	6.0578117e-07 	0.0027148845 	-5.9332223e-07 	0.00024609554
0.5257732 	0.001383776 	0.00028037305 	5.2930516e-08 	0.0027310352 	-2.6833746e-07 	0.0006895205
0.53608247 	0.0013856344 	0.00029540353 	1.7186573e-08 	0.0027423875 	-8.7129348e-08 	0.00063755572
0.54639175 	0.0013876786 	0.00031059349 	2.5200003e-07 	0.0027526928 	-2.6195165e-07 	0.00038979901
0.55670103 	0.0013892577 	0.0003269218 	2.4955735e-07 	0.0027623484 	-1.2277474e-06 	0.00056843445
0.56701031 	0.0013908731 	0.0003422381 	2.9554975e-07 	0.0027689172 	-3.3828893e-07 	0.00024453289
0.57731959 	0.0013922882 	0.00035959025 	1.0750033e-07 	0.0027764588 	-5.3462224e-07 	0.000510575
0.58762887 	0.0013933192 	0.00037585426 	2.0972317e-07 	0.0027798447 	-1.0429984e-06 	0.0004781196
0.59793814 	0.001394514 	0.00039190866 	3.7703129e-07 	0.0027809732 	-4.9643841e-07 	2.0092765e-05
0.60824742 	0.001395191 	0.00040963317 	2.1253801e-07 	0.0027824703 	-1.1573044e-06 	0.00044008526
0.6185567 	0.0013956407 	0.000425956 	2.2074014e-07 	0.0027802013 	-1.2019663e-06 	0.0004178833
0.62886598 	0.0013962592 	0.00044226447 	2.7021588e-07 	0.0027756839 	-4.3005477e-07 	8.9450511e-06
0.63917526 	0.0013963474 	0.00045987431 	2.3048145e-07 	0.0027701123 	-1.4231556e-06 	0.0003973002
0.64948454 	0.0013962465 	0.00047606534 	2.256571e-07 	0.0027613836 	-1.3933666e-06 	0.00038505441
0.65979381 	0.0013963757 	0.00049221664 	1.838742e-07 	0.0027504639 	-3.7388366e-07 	1.2268043e-05
0.67010309 	0.0013959101 	0.00050930219 	2.3596646e-07 	0.0027370227 	-1.7151539e-06 	0.00038032166
0.68041237 	0.0013952783 	0.00052515867 	1.5418507e-07 	0.0027210913 	-1.1207149e-06 	0.00037687676
0.69072165 	0.0013949065 	0.00054148936 	3.8364449e-08 	0.0027030995 	-1.0677886e-07 	0.00026763791
0.70103093 	0.0013938015 	0.00055669335 	2.6839566e-07 	0.0026806977 	-2.5047868e-06 	0.00038712502
0.71134021 	0.0013926582 	0.00057158033 	2.2760297e-08 	0.0026576205 	-2.1240914e-07 	0.00039100928
0.72164948 	0.0013921247 	0.00058596173 	4.4496362e-08 	0.0026296478 	-9.4807663e-07 	0.00040447338
0.73195876 	0.0013920099 	0.00059760232 	7.2469985e-08 	0.0025975841 	-1.544106e-06 	0.00041431284
0.74226804 	0.0013948703 	0.00060611763 	5.7459551e-08 	0.0025598619 	-7.5645184e-08 	0.00025866358
0.75257732 	0.0013968055 	0.00061266432 	-8.120875e-08 	0.002519054 	-2.6154042e-06 	0.00044472867
0.7628866 	0.0014001193 	0.00061754709 	1.0878949e-07 	0.0024750527 	-9.2822857e-08 	0.00014566266
0.77319588 	0.0014024384 	0.00062082533 	-1.5500269e-07 	0.0024293833 	-2.1153375e-06 	0.00047956416
0.78350515 	0.0014050019 	0.0006230274 	4.3846734e-08 	0.0023814117 	-3.7986885e-08 	0.00034826678
0.79381443 	0.0014057383 	0.00062548894 	-1.3215566e-07 	0.0023333921 	-1.6662827e-06 	0.00051749048
0.80412371 	0.0014063061 	0.00062712481 	4.664888e-08 	0.0022835088 	-4.5418852e-08 	0.00034211878
0.81443299 	0.0014047712 	0.00062951585 	-1.3411684e-07 	0.0022342225 	-1.6992851e-06 	0.00055749056
0.82474227 	0.001403765 	0.00063103316 	9.0463666e-08 	0.0021823725 	-1.0251715e-07 	9.8663851e-05
0.83505155 	0.0014000292 	0.00063364685 	-1.200148e-07 	0.0021324835 	-1.5840518e-06 	0.00059865685
0.84536082 	0.0013969565 	0.00063591451 	2.6624604e-08 	0.0020806106 	-3.5364812e-08 	0.00043533401
0.8556701 	0.0013933152 	0.00063842509 	-1.8922168e-08 	0.0020289857 	-2.7159804e-07 	0.0006403342
0.86597938 	0.0013901684 	0.00064172174 	-5.4356382e-08 	0.0019773792 	-9.5911538e-07 	0.00065663173
0.87628866 	0.0013889585 	0.00064525614 	4.1440171e-08 	0.0019251355 	-7.1297067e-08 	0.00020339207
0.88659794 	0.0013890668 	0.00065084476 	-8.6655883e-10 	0.0018764253 	-2.8888375e-08 	0.00069918285
0.89690722 	0.0013938048 	0.00065867171 	1.9170708e-08 	0.00183005 	-9.5906679e-07 	0.00071770961
0.90721649 	0.0014040569 	0.00066934257 	1.7793535e-08 	0.00178826 	-1.6153334e-07 	0.0007400272
0.91752577 	0.0014241728 	0.00068402531 	1.7670527e-08 	0.001754504 	-1.8612977e-08 	0.00034881718
0.92783505 	0.001455895 	0.00070374557 	2.0904567e-08 	0.0017338179 	-3.6812659e-09 	6.4077787e-05
0.93814433 	0.0015017939 	0.00072909733 	7.5547777e-09 	0.0017313846 	9.4639232e-09 	0.00028973784
0.94845361 	0.0015588241 	0.00075457847 	-9.1220182e-09 	0.0017456972 	-2.8718018e-09 	0.00033191493
0.95876289 	0.0016326013 	0.00078789836 	5.5619312e-08 	0.0017778324 	-4.658448e-09 	0.00095390689
0.96907216 	0.0016627133 	0.00079824993 	-1.1281782e-08 	0.0017672297 	-2.292252e-08 	0.0009065745
0.97938144 	0.0014817203 	0.00070393152 	-1.2210509e-08 	0.0015347349 	-2.7301584e-08 	0.00091981829
0.98969072 	0.00060488005 	0.00027646888 	-9.3683017e-08 	0.00061099288 	-2.0915485e-07 	0.00016334265
