8.2204959e-36 	0.0039314882 	-2.6700568e-16 	-9.7049854e-23 	1.0771193e-18 	3.3014998e-32 	1.1131624e-18
0.010869565 	0.0039557241 	-0.00024495903 	4.9400378e-08 	0.0049024583 	-1.9617111e-05 	0.0014243463
0.02173913 	0.0040365904 	-0.00049207697 	-1.4045527e-08 	0.0049816338 	-1.1853866e-05 	0.0017470005
0.032608696 	0.0041672647 	-0.00074204867 	-4.849005e-09 	0.0051089733 	-2.3168595e-06 	0.002081306
0.043478261 	0.0043457164 	-0.00099408766 	-2.8525173e-08 	0.0052831096 	-7.8901102e-06 	0.0024573088
0.054347826 	0.0045694543 	-0.0012507963 	1.1969712e-07 	0.0055003109 	-1.0966512e-06 	0.0010367964
0.065217391 	0.0048493815 	-0.0015247121 	1.6781567e-07 	0.0057738897 	-1.3478266e-06 	0.001051415
0.076086957 	0.0051234733 	-0.0017628507 	2.0299291e-07 	0.0060421281 	-1.4261528e-06 	0.0013036684
0.086956522 	0.0054337277 	-0.0020125907 	-8.3677218e-10 	0.0063483811 	-6.8621404e-07 	0.0042248333
0.097826087 	0.0057714188 	-0.0022649782 	7.3959963e-10 	0.0066778644 	-9.7587612e-08 	0.0048527821
0.10869565 	0.0061307086 	-0.0025188561 	4.5225134e-07 	0.0070203838 	-2.4963126e-06 	0.00090014317
0.11956522 	0.0064755843 	-0.0027586872 	1.7718348e-07 	0.0073548148 	-8.7229266e-07 	0.0043234951
0.13043478 	0.0068266032 	-0.002996622 	1.612603e-07 	0.0076881648 	-7.9390119e-07 	0.0051258587
0.14130435 	0.007169782 	-0.0032278446 	7.4037347e-07 	0.0080009201 	-3.2562463e-06 	0.0010015319
0.15217391 	0.0074828338 	-0.0034422155 	9.5559771e-08 	0.0082966583 	-7.9246774e-07 	0.0077630584
0.16304348 	0.0077701587 	-0.0036437763 	9.4811462e-07 	0.0085372404 	-3.7211566e-06 	0.0010800665
0.17391304 	0.0080179525 	-0.0038247791 	1.8646784e-07 	0.0087563856 	-6.5363065e-07 	0.0074477835
0.18478261 	0.0081996288 	-0.0039714147 	9.6237396e-07 	0.0088807165 	-3.3734348e-06 	0.0018021771
0.19565217 	0.0083417816 	-0.0040970702 	1.1198111e-07 	0.0089826408 	-3.5860623e-07 	0.007610358
0.20652174 	0.0083647255 	-0.004157157 	1.00656e-06 	0.0089366731 	-3.223389e-06 	0.0012458056
0.2173913 	0.0083655793 	-0.0042053256 	1.0281771e-06 	0.0088907687 	-2.9144055e-06 	0.0077259063
0.22826087 	0.0082084506 	-0.0041614086 	9.775716e-07 	0.008659522 	-2.9882462e-06 	0.00043550533
0.23913043 	0.0080522073 	-0.0041187633 	1.4305294e-08 	0.0084548308 	-4.3728501e-08 	0.0066947527
0.25 	0.0077316547 	-0.0039748771 	4.2135111e-07 	0.0080700374 	-1.2924688e-06 	0.0030534783
0.26086957 	0.0073753483 	-0.0038088535 	2.9946995e-07 	0.0076602656 	-9.1860576e-07 	0.0033824421
0.27173913 	0.0069651186 	-0.003607946 	9.0883343e-07 	0.0072022242 	-1.9427637e-06 	0.0053792146
0.2826087 	0.0064287177 	-0.0033261296 	4.9852192e-07 	0.006614519 	-1.5728012e-06 	0.00019926572
0.29347826 	0.005924162 	-0.0030629903 	2.0998422e-06 	0.0060773137 	-4.1911391e-06 	0.0040216787
0.30434783 	0.0053595196 	-0.0027603345 	7.8910942e-08 	0.0054772256 	-2.412586e-07 	0.00305366
0.31521739 	0.0047703486 	-0.0024402999 	2.3450162e-07 	0.0048586552 	-7.1695423e-07 	0.00091672567
0.32608696 	0.0042208411 	-0.0021429732 	6.9515619e-06 	0.004288642 	-1.3451932e-05 	0.0025871525
0.33695652 	0.003682962 	-0.0018508173 	7.8081209e-08 	0.0037297236 	-2.0645315e-07 	0.0018010549
0.34782609 	0.0031738905 	-0.001573784 	1.5237793e-07 	0.0032050622 	-4.028998e-07 	0.00066321833
0.35869565 	0.0027225254 	-0.0013291648 	6.3399644e-06 	0.0027428382 	-1.2189583e-05 	0.0014733793
0.36956522 	0.0023075658 	-0.0011044885 	2.0358976e-08 	0.0023164588 	-4.3907884e-08 	0.0012890196
0.38043478 	0.0019585839 	-0.0009157827 	1.4482739e-07 	0.0019589015 	-3.1234697e-07 	0.00023150778
0.39130435 	0.001660954 	-0.00075406409 	2.8989486e-06 	0.0016558151 	-5.521342e-06 	0.00076773576
0.40217391 	0.0014102688 	-0.00061571406 	1.9929197e-06 	0.0013985834 	-3.795718e-06 	0.00074513702
0.41304348 	0.001214188 	-0.00050423969 	1.1980549e-07 	0.0011959242 	-1.8629636e-07 	0.00010156749
0.42391304 	0.0010574021 	-0.00041291336 	1.7531904e-07 	0.0010350558 	-2.8197224e-07 	0.00043154435
0.43478261 	0.00095938096 	-0.00034073594 	3.1305816e-06 	0.00092955435 	-5.0350327e-06 	0.0004201949
0.44565217 	0.00086537473 	-0.00026980558 	8.8183145e-09 	0.00082789397 	-3.6412961e-09 	0.00037591714
0.45652174 	0.00083065002 	-0.00021823498 	6.999057e-08 	0.00078372563 	-2.8900805e-08 	0.00011793451
0.4673913 	0.00081059564 	-0.00016843177 	1.1611243e-06 	0.00075440223 	-7.3339558e-07 	0.00033508666
0.47826087 	0.000805482 	-0.00011718763 	1.8279104e-06 	0.00073803267 	-1.1545546e-06 	0.00032738167
0.48913043 	0.00080551893 	-6.5441695e-05 	2.4133306e-08 	0.00072644202 	1.1720749e-08 	0.00024516069
0.5 	0.00082864235 	-1.1831532e-05 	4.5336633e-08 	0.00073722224 	2.2018504e-08 	0.00019171194
0.51086957 	0.00085278659 	3.5150617e-05 	1.3155246e-06 	0.00075145421 	-1.6779296e-08 	0.00034060304
0.52173913 	0.00087764346 	7.9037869e-05 	1.3249097e-06 	0.00076695586 	-1.6899002e-08 	0.00033399433
0.5326087 	0.00090287183 	0.00012045918 	2.8381012e-08 	0.00078364958 	2.6832791e-08 	0.00021004667
0.54347826 	0.00092963491 	0.00015575244 	1.2492983e-08 	0.00080556199 	1.1811475e-08 	0.00029779375
0.55434783 	0.0009528874 	0.00018178336 	8.795249e-07 	0.00082588664 	1.5937185e-07 	0.00034920713
0.56521739 	0.00097568425 	0.0002066255 	3.9629425e-07 	0.0008458583 	7.1809392e-08 	0.00034361781
0.57608696 	0.0009955841 	0.00022483502 	5.3116505e-08 	0.00086380275 	5.6397668e-08 	3.4556214e-05
0.58695652 	0.0010123217 	0.00023742245 	9.0485876e-08 	0.00088185302 	-1.0360179e-08 	0.00035094499
0.59782609 	0.0010267772 	0.0002473099 	2.0509184e-07 	0.00089742102 	-2.3481987e-08 	0.00034645197
0.60869565 	0.0010407502 	0.00025668548 	1.2346336e-08 	0.00091241983 	9.8828902e-09 	0.00026922039
0.61956522 	0.0010511218 	0.00026281688 	3.4614033e-09 	0.00092497829 	-1.1143707e-08 	0.00034580784
0.63043478 	0.0010597432 	0.00026900021 	7.2755755e-08 	0.00093593219 	-2.3423125e-07 	0.00034231518
0.64130435 	0.0010683647 	0.00027518353 	5.6648356e-09 	0.00094688608 	-1.8237479e-08 	0.00033882253
0.65217391 	0.0010750925 	0.00028144413 	6.147884e-09 	0.00095585515 	3.7784998e-09 	0.00030199043
0.66304348 	0.0010814689 	0.00028969581 	1.5286751e-07 	0.00096510704 	-2.8126457e-07 	0.00033666775
0.67391304 	0.0010878374 	0.00029802386 	1.0570502e-08 	0.00097428176 	-1.9448918e-08 	0.00033400787
0.68478261 	0.0010942331 	0.00030831904 	1.8225326e-08 	0.00098356979 	-8.5117051e-09 	0.00033527069
0.69565217 	0.0011024328 	0.00032171271 	3.0463834e-07 	0.00099520255 	-1.4227409e-07 	0.00033326651
0.70652174 	0.0011109908 	0.00033543795 	1.6349485e-08 	0.0010069164 	9.5208799e-09 	0.00021484883
0.7173913 	0.0011235287 	0.00035353638 	2.3316414e-07 	0.001023373 	6.7195279e-08 	0.00033700261
0.72826087 	0.0011396633 	0.00037450734 	2.9666406e-07 	0.0010433928 	8.5495243e-08 	0.00033550448
0.73913043 	0.0011594947 	0.00039787841 	2.4339741e-08 	0.0010665592 	1.8170872e-08 	0.00016244286
0.75 	0.001191965 	0.00042950974 	9.4931525e-07 	0.0011030169 	7.9313886e-07 	0.00034930534
0.76086957 	0.0012283803 	0.00046312257 	1.898412e-08 	0.0011425554 	1.9602412e-08 	0.0002222719
0.77173913 	0.001286749 	0.00050895638 	8.6390604e-07 	0.0012036316 	1.0604761e-06 	0.00038061328
0.7826087 	0.0013566498 	0.00056082373 	2.4898758e-07 	0.0012754842 	3.0564131e-07 	0.00037980706
0.79347826 	0.0014552315 	0.00062749071 	7.1178945e-07 	0.0013747007 	1.0494071e-06 	0.00043939658
0.80434783 	0.0015795146 	0.00070733015 	7.3001329e-07 	0.0014985935 	1.0762749e-06 	0.00043884862
0.81521739 	0.0017358462 	0.00080331719 	7.3423014e-07 	0.0016535551 	1.1958019e-06 	0.00053234312
0.82608696 	0.0019279427 	0.00091687728 	9.1961358e-07 	0.0018431275 	1.4977262e-06 	0.00053203117
0.83695652 	0.0021590998 	0.0010493715 	1.3865664e-06 	0.0020712532 	2.4085477e-06 	0.00065926467
0.84782609 	0.002423402 	0.0011975371 	2.7212193e-07 	0.0023318669 	4.7269186e-07 	0.00065918147
0.85869565 	0.0027357229 	0.0013676568 	3.0437651e-06 	0.0026410387 	5.5623271e-06 	0.00081539437
0.86956522 	0.0030674484 	0.0015451659 	1.5740533e-07 	0.0029684423 	3.058511e-07 	4.6464637e-05
0.88043478 	0.0034339329 	0.0017308253 	2.5479889e-06 	0.0033361826 	5.1460002e-06 	0.00098725746
0.89130435 	0.0038077994 	0.0019042134 	1.0774052e-06 	0.0037120374 	2.6780481e-06 	0.0011590564
0.90217391 	0.0041791922 	0.0020573163 	6.3790244e-08 	0.0040862814 	2.3153959e-07 	0.00042175648
0.91304348 	0.0045215682 	0.0021822809 	1.0414381e-06 	0.0044387763 	3.2003435e-06 	0.0013157519
0.92391304 	0.0047842339 	0.0022730026 	5.2760789e-07 	0.004713917 	2.2978833e-06 	0.0014295166
0.93478261 	0.0049189363 	0.0023102889 	-2.3712117e-07 	0.0048663054 	-1.1792088e-07 	0.001459609
0.94565217 	0.0048320956 	0.0022540782 	-1.4681258e-06 	0.0048054601 	-2.6359267e-06 	0.0014326382
0.95652174 	0.0044592741 	0.0020767603 	-1.1687873e-07 	0.0044599305 	-2.0462819e-07 	0.00040172718
0.9673913 	0.0037398206 	0.0017144989 	-1.3315116e-06 	0.0037635662 	-2.566345e-06 	0.0011349467
0.97826087 	0.0026497844 	0.0011864148 	-1.0425881e-07 	0.0026705317 	-2.1209818e-07 	0.00026775936
0.98913043 	0.00084055883 	0.00033845744 	-2.0513788e-08 	0.00084316817 	-6.0505542e-08 	7.8275315e-05
