2.7909061e-19 	-0.4505279 	3.0597442e-14 	8.5059226e-21
0.010869565 	-0.44993801 	-0.0028747214 	8.3303595e-07
0.02173913 	-0.44729625 	-0.005686264 	-1.0730567e-07
0.032608696 	-0.44280512 	-0.0085194511 	-5.1211251e-08
0.043478261 	-0.43640575 	-0.011332545 	-4.3430919e-07
0.054347826 	-0.42663829 	-0.014173689 	-2.3234409e-05
0.065217391 	-0.41640945 	-0.017121445 	-1.5526496e-05
0.076086957 	-0.40382934 	-0.019810584 	-3.7957452e-05
0.086956522 	-0.39170746 	-0.022642892 	-1.9458741e-06
0.097826087 	-0.37590579 	-0.025413092 	-6.1848232e-07
0.10869565 	-0.35550632 	-0.028234017 	-5.7860319e-05
0.11956522 	-0.33646733 	-0.031085508 	-4.3467444e-05
0.13043478 	-0.3163245 	-0.033903707 	-1.0756409e-05
0.14130435 	-0.28786361 	-0.036695183 	-0.00013467835
0.15217391 	-0.26739665 	-0.039658622 	-1.1433916e-05
0.16304348 	-0.23524813 	-0.042468559 	-0.00012728631
0.17391304 	-0.20871327 	-0.04545148 	-4.1545321e-05
0.18478261 	-0.17375784 	-0.04839214 	-0.00011124502
0.19565217 	-0.14293421 	-0.051464298 	-2.8123928e-05
0.20652174 	-0.10264925 	-0.054567005 	-0.00011885968
0.2173913 	-0.068669628 	-0.057809181 	-2.4544625e-06
0.22826087 	-0.021414091 	-0.061207884 	-0.00015276644
0.23913043 	0.017059818 	-0.064728127 	-1.0398168e-05
0.25 	0.066758871 	-0.06848639 	-9.9549888e-05
0.26086957 	0.11397967 	-0.072513386 	-1.9781598e-05
0.27173913 	0.16505402 	-0.076564819 	-4.6157914e-06
0.2826087 	0.2242712 	-0.080893458 	-0.00011229606
0.29347826 	0.28040965 	-0.085612689 	-3.2957143e-05
0.30434783 	0.34244354 	-0.090154723 	-2.3430856e-05
0.31521739 	0.40914209 	-0.09497123 	-4.6314462e-05
0.32608696 	0.47722178 	-0.099959891 	-6.0797285e-05
0.33695652 	0.54817526 	-0.10464947 	-2.1309301e-05
0.34782609 	0.62131807 	-0.10924621 	-1.8854138e-05
0.35869565 	0.69533482 	-0.11349773 	-3.6704046e-05
0.36956522 	0.76994107 	-0.11759225 	-2.2890254e-06
0.38043478 	0.84281107 	-0.12052623 	-2.1346511e-05
0.39130435 	0.91150868 	-0.12298916 	4.1942839e-05
0.40217391 	0.97999822 	-0.12508966 	2.2585745e-05
0.41304348 	1.044716 	-0.12594395 	-3.1938803e-05
0.42391304 	1.0984881 	-0.12641826 	8.0606705e-05
0.43478261 	1.1491166 	-0.1259758 	0.00016680318
0.44565217 	1.1997451 	-0.12553334 	2.5213246e-05
0.45652174 	1.239057 	-0.12381288 	-1.7882763e-06
0.4673913 	1.2671322 	-0.12146655 	0.00022604609
0.47826087 	1.2947794 	-0.11904874 	0.00023233186
0.48913043 	1.3224265 	-0.11663093 	2.3667185e-05
0.5 	1.3382729 	-0.11335367 	4.185855e-05
0.51086957 	1.3479191 	-0.11001608 	0.00030166728
0.52173913 	1.3575652 	-0.10667848 	0.00024492959
0.5326087 	1.3672114 	-0.10334089 	1.4134591e-05
0.54347826 	1.3689092 	-0.099789118 	9.0841666e-05
0.55434783 	1.3689109 	-0.096363913 	0.00033341024
0.56521739 	1.3689127 	-0.092938709 	0.00016482876
0.57608696 	1.3682943 	-0.089463398 	-1.7577031e-06
0.58695652 	1.3652754 	-0.086410789 	0.00017185468
0.59782609 	1.3621847 	-0.083321111 	0.00022836355
0.60869565 	1.3590941 	-0.080231434 	3.4203136e-05
0.61956522 	1.3557029 	-0.077374841 	8.6813356e-05
0.63043478 	1.3522109 	-0.074655214 	0.00023108322
0.64130435 	1.3487188 	-0.071935587 	6.1872178e-05
0.65217391 	1.3453576 	-0.069369333 	5.5759879e-05
0.66304348 	1.3420186 	-0.066954917 	0.000199034
0.67391304 	1.3386796 	-0.0645405 	5.0107444e-05
0.68478261 	1.3353452 	-0.06224405 	6.0160531e-05
0.69565217 	1.3319196 	-0.06004797 	0.00014786898
0.70652174 	1.3284941 	-0.05785189 	1.410442e-05
0.7173913 	1.3247523 	-0.055786302 	8.8050701e-05
0.72826087 	1.3208866 	-0.053756856 	8.3783253e-05
0.73913043 	1.316872 	-0.051753838 	1.5726015e-05
0.75 	1.3122331 	-0.049850858 	0.00012329076
0.76086957 	1.3075942 	-0.047947878 	1.0825363e-05
0.77173913 	1.3019466 	-0.046112968 	8.1247048e-05
0.7826087 	1.2960568 	-0.044294776 	3.6256986e-05
0.79347826 	1.2889823 	-0.042496252 	5.3334805e-05
0.80434783 	1.2810265 	-0.040714715 	4.4566963e-05
0.81521739 	1.2714539 	-0.038921504 	4.3587447e-05
0.82608696 	1.260183 	-0.037120401 	3.9614351e-05
0.83695652 	1.2462701 	-0.03527583 	4.928528e-05
0.84782609 	1.2301064 	-0.033399498 	2.2693794e-05
0.85869565 	1.2092573 	-0.031434049 	6.977816e-05
0.86956522 	1.1863232 	-0.029420177 	-2.8468497e-07
0.88043478 	1.1558788 	-0.02729077 	5.6404282e-05
0.89130435 	1.1214211 	-0.02507957 	4.3162651e-05
0.90217391 	1.0818168 	-0.02278634 	1.3447686e-06
0.91304348 	1.0324681 	-0.020347945 	4.6649236e-05
0.92391304 	0.97848575 	-0.017915591 	5.9266234e-05
0.93478261 	0.91579534 	-0.015369792 	3.2181177e-05
0.94565217 	0.83602267 	-0.012531419 	4.061417e-05
0.95652174 	0.74764199 	-0.0097920134 	1.5019626e-08
0.9673913 	0.63979001 	-0.0069950028 	1.5441224e-05
0.97826087 	0.49837364 	-0.0040731163 	2.1261108e-07
0.98913043 	0.26861386 	-0.0012646533 	9.3489985e-07
