0.4742268 	0.00015157561 	-4.2425578e-05 	-6.1511988e-11 	0.00015135524 	1.5237347e-09 	4.5820147e-05
0.48453608 	0.0034041131 	-0.0017079279 	-1.2272397e-08 	0.0033921256 	3.4236774e-08 	0.0012024428
0.49484536 	0.0031826038 	-0.0016243902 	2.2669724e-06 	0.0031578595 	-4.3137125e-06 	0.0013796407
0.50515464 	0.0020462492 	-0.0010022534 	-4.2610856e-08 	0.0020224479 	7.639511e-08 	0.00084308923
0.51546392 	0.001348286 	-0.00055611459 	4.5717628e-07 	0.0013333961 	-5.0093239e-07 	0.00053875846
0.5257732 	0.001152527 	-0.000308544 	1.7975531e-06 	0.0011461754 	-6.0114434e-07 	0.00048785583
0.53608247 	0.0011697913 	-0.00014368301 	4.6885776e-07 	0.001171034 	9.8938198e-08 	0.00049647805
0.54639175 	0.001234592 	-2.0656153e-05 	-1.4595731e-09 	0.0012427283 	-2.0718607e-09 	0.00051430087
0.55670103 	0.0013023284 	7.4522069e-05 	-4.8647036e-09 	0.0013166758 	-7.9844345e-09 	0.00052100352
0.56701031 	0.0013648601 	0.00015415597 	1.5847477e-07 	0.0013849332 	8.8586225e-08 	0.00058163692
0.57731959 	0.001421028 	0.00022323241 	5.0023354e-07 	0.0014462122 	2.6668023e-07 	0.0006103783
0.58762887 	0.0014710569 	0.00028411974 	6.8283301e-07 	0.0015008609 	3.2520191e-07 	0.00063748284
0.59793814 	0.0015154972 	0.00033820586 	8.3653722e-08 	0.0015494825 	3.2271725e-08 	0.00066248917
0.60824742 	0.001554245 	0.00038562341 	-7.0423898e-08 	0.0015906845 	-1.3400297e-07 	2.1050859e-05
0.6185567 	0.0015870784 	0.00042668853 	1.5010986e-07 	0.0016280137 	3.6775082e-08 	0.00068501684
0.62886598 	0.0016152156 	0.00046252127 	2.8857952e-07 	0.0016590025 	3.8930992e-09 	0.00070445965
0.63917526 	0.0016391666 	0.0004938032 	-4.9895351e-08 	0.0016843418 	-9.9684306e-08 	0.00015275563
0.64948454 	0.0016581075 	0.00052006278 	1.5063085e-07 	0.0017063814 	-6.1820977e-08 	0.00072048241
0.65979381 	0.0016735976 	0.00054268262 	3.2245221e-08 	0.0017235595 	-4.365846e-08 	0.00073256343
0.67010309 	0.0016850298 	0.00056128363 	-1.0868898e-08 	0.0017359646 	-2.3749257e-08 	0.00057630084
0.68041237 	0.0016928113 	0.00057639562 	5.7465294e-08 	0.0017449546 	-2.7035282e-07 	0.00074038596
0.69072165 	0.0016977538 	0.00058879678 	-2.6515177e-08 	0.0017496304 	-6.2125706e-08 	0.00029512784
0.70103093 	0.0016994399 	0.00059842573 	-1.2565308e-08 	0.0017524191 	-4.6574522e-07 	0.00074359945
0.71134021 	0.0016987343 	0.00060589032 	-2.3647559e-08 	0.0017507728 	-6.0498127e-08 	0.00027259916
0.72164948 	0.0016953835 	0.000611305 	-7.8823461e-08 	0.001747996 	-5.119108e-07 	0.00074196841
0.73195876 	0.0016900751 	0.00061500876 	-1.1115459e-08 	0.0017416226 	-3.1366172e-08 	0.00047876645
0.74226804 	0.0016824078 	0.00061723896 	-8.0170709e-08 	0.0017336216 	-3.6453265e-07 	0.00073554894
0.75257732 	0.0016732164 	0.00061823968 	-1.3984792e-09 	0.001723351 	-4.3101771e-09 	0.00069712532
0.7628866 	0.0016617905 	0.00061794928 	-5.5368748e-08 	0.0017107191 	-2.18912e-07 	0.00072549212
0.77319588 	0.0016489436 	0.00061684388 	-1.4737412e-09 	0.0016964507 	-5.8267459e-09 	0.00072546492
0.78350515 	0.0016343502 	0.00061480219 	-7.721186e-08 	0.0016802187 	-2.8637118e-07 	0.00071322015
0.79381443 	0.0016185434 	0.00061210236 	-5.8146759e-09 	0.0016623093 	-1.9209713e-08 	0.00053009953
0.80412371 	0.0016011332 	0.00060881181 	-1.6506804e-07 	0.0016433017 	-5.9273293e-07 	0.000699539
0.81443299 	0.0015828315 	0.00060479018 	-2.005781e-08 	0.0016217701 	-6.4877429e-08 	7.4139775e-05
0.82474227 	0.001562824 	0.00060057793 	-1.6422945e-07 	0.0016007206 	-5.7861745e-07 	0.0006849837
0.83505155 	0.0015419571 	0.0005957316 	-4.5604022e-09 	0.0015775013 	-1.5896203e-08 	0.00066996508
0.84536082 	0.0015198964 	0.00059033161 	-1.0466241e-08 	0.0015523875 	-3.0941506e-08 	0.00037425279
0.8556701 	0.001496535 	0.00058470339 	-1.6362266e-07 	0.0015268913 	-5.7036932e-07 	0.00065466802
0.86597938 	0.0014723797 	0.00057877142 	-6.5044156e-08 	0.0014998702 	-2.3168377e-07 	0.00063946206
0.87628866 	0.0014476496 	0.00057276746 	-1.6801866e-08 	0.001471223 	-4.7466114e-08 	0.00018583592
0.88659794 	0.0014226103 	0.00056760286 	-8.7633844e-09 	0.0014431851 	-2.6037561e-08 	0.00036976391
0.89690722 	0.001398804 	0.00056432276 	-2.4751517e-08 	0.0014161023 	-1.1674502e-07 	0.00061099583
0.90721649 	0.0013796256 	0.00056542613 	-2.223884e-08 	0.0013926159 	-2.5063857e-07 	0.00059983559
0.91752577 	0.0013718278 	0.00057533113 	6.2346884e-08 	0.0013797924 	-1.663334e-07 	0.0005937814
0.92783505 	0.0013910774 	0.00060290028 	1.6903187e-07 	0.001393223 	7.079975e-08 	0.00059797483
0.93814433 	0.0014694881 	0.00066653872 	5.5864817e-08 	0.0014651858 	6.2844991e-08 	0.00062165159
0.94845361 	0.001666306 	0.00078915615 	1.2732719e-07 	0.0016544201 	2.3598596e-07 	9.808426e-05
0.95876289 	0.0020347853 	0.00099615792 	5.8210038e-07 	0.0020190219 	1.0305184e-06 	0.00090967719
0.96907216 	0.002529073 	0.001263518 	1.3993779e-07 	0.0025106363 	3.3963072e-07 	0.0003360296
0.97938144 	0.0027774726 	0.0014114696 	-3.7829324e-08 	0.0027664707 	-7.8383057e-08 	0.0012127731
0.98969072 	0.0014858019 	0.00069561818 	-1.0604829e-06 	0.0014837768 	-2.0738909e-06 	0.00068842475
