0 	0.0038170527 	-2.5923479e-16 	-9.4224983e-23 	1.7605907e-29 	6.3992811e-36 	2.3259693e-42
0.010869565 	0.0038412631 	-0.00022420668 	7.458115e-09 	0.0044159901 	-1.526973e-05 	0.0015012862
0.02173913 	0.0039167867 	-0.00046060132 	-3.8719503e-08 	0.0044905355 	-1.0612212e-05 	0.001770913
0.032608696 	0.0040376809 	-0.00069969786 	-1.0101789e-08 	0.0046094187 	-2.1829207e-06 	0.0020532603
0.043478261 	0.0042019019 	-0.00094056095 	-3.6741949e-08 	0.0047709652 	-5.857491e-06 	0.0023775156
0.054347826 	0.0044079078 	-0.0011854313 	7.2525365e-08 	0.0049714954 	-5.3163448e-07 	0.0011802328
0.065217391 	0.0046666414 	-0.0014476722 	1.2328456e-07 	0.0052248779 	-8.0283404e-07 	0.00078006615
0.076086957 	0.0049167705 	-0.0016732071 	1.2420905e-07 	0.0054711112 	-7.1584051e-07 	0.0013831087
0.086956522 	0.0052018717 	-0.0019111894 	-1.7680909e-09 	0.0057542922 	-8.8609543e-07 	0.0039137482
0.097826087 	0.0055124182 	-0.002150799 	1.5901471e-08 	0.0060579593 	-8.1832023e-08 	0.0042169521
0.10869565 	0.0058423022 	-0.0023902866 	3.125325e-07 	0.0063721856 	-1.4489165e-06 	0.00057111295
0.11956522 	0.006157162 	-0.0026156539 	9.4118395e-08 	0.0066814374 	-3.9516641e-07 	0.00420328
0.13043478 	0.0064794478 	-0.0028388445 	1.2502405e-07 	0.0069894261 	-5.2492718e-07 	0.004389144
0.14130435 	0.0067921522 	-0.0030536048 	4.5282796e-07 	0.0072781684 	-1.7291789e-06 	0.0012131312
0.15217391 	0.0070789943 	-0.0032540506 	4.7713196e-08 	0.0075550367 	-3.356671e-07 	0.0070102014
0.16304348 	0.0073410254 	-0.0034388134 	6.4074407e-07 	0.0077792207 	-2.2186035e-06 	0.00068330297
0.17391304 	0.0075682388 	-0.0036063224 	8.5755338e-08 	0.0079906624 	-2.6802036e-07 	0.0071217641
0.18478261 	0.0077333998 	-0.0037387787 	6.8061761e-07 	0.0081108393 	-2.1272073e-06 	0.0013428252
0.19565217 	0.0078688301 	-0.0038568546 	5.7361239e-08 	0.008222691 	-1.6560985e-07 	0.0072861072
0.20652174 	0.0079032415 	-0.003918866 	7.0335605e-07 	0.0082047974 	-2.0306865e-06 	0.00085223613
0.2173913 	0.0079235421 	-0.0039748898 	9.9382399e-07 	0.0081980047 	-2.7314995e-06 	0.0073438928
0.22826087 	0.0078034881 	-0.003950343 	5.7719067e-07 	0.0080235737 	-1.6330712e-06 	0.00071510699
0.23913043 	0.0076835488 	-0.0039274929 	5.8578274e-08 	0.0078733438 	-1.6573812e-07 	0.0059676503
0.25 	0.0074201614 	-0.003817319 	1.9035229e-07 	0.0075662927 	-6.076926e-07 	0.0031287112
0.26086957 	0.0071150462 	-0.0036819594 	1.6780129e-07 	0.0072249575 	-5.3569936e-07 	0.0029717097
0.27173913 	0.0067630775 	-0.0035166292 	7.1594795e-07 	0.0068447091 	-1.5030853e-06 	0.0053719307
0.2826087 	0.0062679353 	-0.0032593758 	6.9419419e-08 	0.0063142761 	-5.463329e-07 	1.7070211e-05
0.29347826 	0.0058130296 	-0.0030268073 	1.7845883e-07 	0.0058433512 	-3.4722949e-07 	0.0041132651
0.30434783 	0.0052728342 	-0.0027376964 	-2.4438718e-08 	0.0052849423 	-3.2145726e-08 	0.0031099642
0.31521739 	0.0046970449 	-0.0024237647 	-7.7642398e-08 	0.0046942435 	-1.0212775e-07 	0.00076862735
0.32608696 	0.0041605551 	-0.0021328004 	4.9614272e-06 	0.0041521529 	-9.299193e-06 	0.0026984591
0.33695652 	0.0036274379 	-0.0018408519 	-3.2288453e-08 	0.0036123574 	-8.7360749e-09 	0.0018538173
0.34782609 	0.0031135707 	-0.0015579196 	-6.8883446e-08 	0.0030946078 	-1.8637342e-08 	0.00056673809
0.35869565 	0.0026541617 	-0.0013061047 	4.7806956e-06 	0.0026356841 	-8.8735663e-06 	0.0015432576
0.36956522 	0.0022427795 	-0.0010803917 	-4.0465918e-09 	0.0022231723 	-8.7587386e-09 	0.0012945988
0.38043478 	0.0018912671 	-0.00088696216 	-2.2154475e-08 	0.0018704405 	-4.7952763e-08 	0.00018264314
0.39130435 	0.0015847118 	-0.00071786144 	1.8590924e-06 	0.0015654394 	-3.3918732e-06 	0.00079865331
0.40217391 	0.0013403893 	-0.00057955993 	1.5730869e-06 	0.0013206001 	-2.8700623e-06 	0.0007794255
0.41304348 	0.0011571587 	-0.00047094272 	1.9628359e-08 	0.0011353009 	-6.146814e-08 	0.00012750055
0.42391304 	0.0010053624 	-0.00037933151 	2.5343211e-09 	0.00098309983 	-7.9364761e-09 	0.00040593259
0.43478261 	0.00091022952 	-0.00030516961 	2.8345986e-06 	0.00088501111 	-4.1008924e-06 	0.00044627374
0.44565217 	0.00083012967 	-0.00023536763 	6.7416735e-09 	0.00080122304 	-6.0528349e-09 	0.00036784711
0.45652174 	0.00080252726 	-0.00018155383 	3.0973259e-08 	0.00076810243 	-2.7808529e-08 	9.8277535e-05
0.4673913 	0.00078372892 	-0.00013086576 	7.3927614e-07 	0.00074486249 	-3.5032911e-07 	0.00036980861
0.47826087 	0.0007817022 	-7.9348085e-05 	1.5952784e-06 	0.00073722096 	-7.5597253e-07 	0.00036313563
0.48913043 	0.00078629696 	-2.7515613e-05 	1.1498685e-08 	0.00073590989 	-1.8258435e-09 	0.00024723497
0.5 	0.00080789879 	2.4662788e-05 	2.0938608e-08 	0.00075154669 	-3.3247819e-09 	0.00016710842
0.51086957 	0.00082960331 	7.1139893e-05 	9.0902945e-07 	0.00076878733 	3.8413862e-08 	0.00038103567
0.52173913 	0.00085178881 	0.00011257358 	1.0547084e-06 	0.00078690609 	4.456998e-08 	0.00037534454
0.5326087 	0.00087417403 	0.00015024052 	7.5231064e-09 	0.00080570131 	-2.1689346e-10 	0.00021286491
0.54347826 	0.00089730769 	0.00018198574 	5.9135917e-09 	0.0008270762 	-1.7049066e-10 	0.0002647001
0.55434783 	0.00091802462 	0.00020764438 	6.468792e-07 	0.00084695624 	7.9078807e-08 	0.00039512366
0.56521739 	0.00093773896 	0.00023085115 	2.73894e-07 	0.00086583972 	3.3482621e-08 	0.0003903343
0.57608696 	0.00095470395 	0.00024783793 	1.0667456e-08 	0.00088212395 	-5.1639725e-09 	4.7550344e-05
0.58695652 	0.00097007379 	0.00026171012 	5.4898615e-08 	0.00089881102 	-2.5947798e-08 	0.00040262905
0.59782609 	0.00098298686 	0.00027236461 	1.9175606e-07 	0.00091259337 	-9.063339e-08 	0.00039876666
0.60869565 	0.00099517849 	0.00028216079 	6.0145246e-09 	0.00092547611 	-3.2067794e-09 	0.00026965946
0.61956522 	0.0010049114 	0.00028932135 	2.8141393e-09 	0.00093665755 	-1.5004218e-09 	0.00034241579
0.63043478 	0.001013345 	0.00029609199 	6.5503034e-08 	0.00094659006 	-2.6995102e-07 	0.00039967382
0.64130435 	0.0010216141 	0.00030277312 	3.3905424e-10 	0.00095622617 	-1.5670753e-10 	0.00039106979
0.65217391 	0.0010283826 	0.0003091405 	7.676971e-09 	0.00096414901 	-3.5482203e-09 	0.00027215053
0.66304348 	0.0010354592 	0.00031696861 	1.0347123e-07 	0.00097302691 	-2.6488094e-07 	0.00039851641
0.67391304 	0.0010425939 	0.00032502759 	8.7092148e-10 	0.00098168782 	-2.947824e-10 	0.00038279506
0.68478261 	0.0010502748 	0.00033478349 	3.7244819e-09 	0.00099087647 	-1.2606322e-09 	0.00034331106
0.69565217 	0.0010606028 	0.00034752612 	2.4596845e-07 	0.0010030639 	-1.1161015e-07 	0.00040000577
0.70652174 	0.0010719064 	0.00036108827 	1.2005986e-08 	0.0010157333 	-5.5565906e-10 	0.00022223809
0.7173913 	0.0010876075 	0.00037874301 	1.5270984e-07 	0.0010335598 	7.0668802e-08 	0.00041054413
0.72826087 	0.0011088419 	0.00040021584 	2.456365e-07 	0.0010565354 	1.1367203e-07 	0.00040922352
0.73913043 	0.0011353338 	0.00042495134 	2.187929e-08 	0.0010840582 	1.0387609e-08 	0.00014419569
0.75 	0.0011754477 	0.00045839875 	8.9587793e-07 	0.0011260622 	8.9846742e-07 	0.00043459429
0.76086957 	0.0012229945 	0.00049577219 	2.1275402e-08 	0.001174263 	2.1735691e-08 	0.00023631353
0.77173913 	0.0012928876 	0.00054594329 	7.5057669e-07 	0.0012450148 	1.0042581e-06 	0.00048579844
0.7826087 	0.0013783239 	0.00060432314 	1.2890523e-07 	0.0013304085 	1.7247287e-07 	0.00048508786
0.79347826 	0.0014944586 	0.00067896079 	4.6297813e-07 	0.0014457668 	7.1438865e-07 	0.00057549274
0.80434783 	0.0016386471 	0.00076790031 	5.8843518e-07 	0.0015884856 	9.0797251e-07 	0.00057502067
0.81521739 	0.0018153209 	0.00087327158 	3.675488e-07 	0.00176333 	6.1870998e-07 	0.00070898201
0.82608696 	0.0020307397 	0.00099740381 	7.0190766e-07 	0.0019762233 	1.18155e-06 	0.00070873868
0.83695652 	0.0022866275 	0.0011407267 	9.5976257e-07 	0.0022296775 	1.7262023e-06 	0.00088743073
0.84782609 	0.002575627 	0.0012986188 	5.5943824e-09 	0.002516073 	1.0778686e-08 	0.00085482271
0.85869565 	0.0029091183 	0.001475131 	2.5590162e-06 	0.0028484375 	4.8796075e-06 	0.0010997748
0.86956522 	0.0032588724 	0.0016553151 	1.1876194e-07 	0.0031957224 	3.0992709e-07 	8.0650744e-05
0.88043478 	0.0036357175 	0.0018317384 	1.97628e-06 	0.0035766668 	4.511428e-06 	0.001325501
0.89130435 	0.0040131864 	0.0019842182 	5.8547863e-07 	0.0039582332 	1.6655609e-06 	0.0015439252
0.90217391 	0.0043685833 	0.002117075 	3.9107681e-08 	0.0043176347 	1.8025328e-07 	0.00048283614
0.91304348 	0.0046659454 	0.0022247634 	6.4761742e-07 	0.0046272084 	2.0946782e-06 	0.0017250328
0.92391304 	0.0048442921 	0.0022832068 	-6.3469399e-08 	0.0048200099 	6.2184557e-07 	0.001823658
0.93478261 	0.0048565053 	0.0022731596 	-3.8925827e-07 	0.004851254 	-6.584179e-07 	0.0018070372
0.94565217 	0.0046283734 	0.002160702 	-1.8078675e-06 	0.0046469089 	-3.6060731e-06 	0.0017322051
0.95652174 	0.0041610114 	0.001925236 	-2.07652e-07 	0.0041949132 	-3.5937562e-07 	0.00041603596
0.9673913 	0.0034336007 	0.0015511206 	-9.0677999e-07 	0.0034715321 	-1.8566854e-06 	0.0013173709
0.97826087 	0.0024237229 	0.0010812448 	-1.00906e-07 	0.0024444094 	-2.3790208e-07 	0.000263504
0.98913043 	0.00076630038 	0.00031391149 	-2.6590947e-08 	0.00076777112 	-7.9440266e-08 	6.7001314e-05
