1.4326613e-19 	0.47043203 	-3.1949353e-14 	-1.1612742e-20
0.010869565 	0.47099263 	-0.00041472893 	5.004519e-08
0.02173913 	0.47292958 	-0.000822075 	1.6847825e-08
0.032608696 	0.47634059 	-0.0012289069 	1.5062427e-08
0.043478261 	0.48121648 	-0.0016311305 	5.1961909e-08
0.054347826 	0.48753858 	-0.0020291587 	1.8889259e-08
0.065217391 	0.49603152 	-0.0024519865 	2.9658486e-07
0.076086957 	0.50449056 	-0.0028016861 	4.7292285e-08
0.086956522 	0.51513345 	-0.0031709167 	4.8240065e-07
0.097826087 	0.52697186 	-0.0035304836 	5.192228e-07
0.10869565 	0.54013398 	-0.0038819989 	3.5135863e-07
0.11956522 	0.55462664 	-0.0042101831 	9.6659426e-07
0.13043478 	0.57021899 	-0.0045273329 	1.0803271e-06
0.14130435 	0.58694569 	-0.0048297389 	3.669904e-07
0.15217391 	0.60517743 	-0.0051061487 	3.087621e-06
0.16304348 	0.62401024 	-0.0053746377 	1.4759138e-07
0.17391304 	0.64466733 	-0.005603264 	4.5210359e-06
0.18478261 	0.66562488 	-0.0058272205 	3.5423155e-07
0.19565217 	0.68861217 	-0.0060030669 	6.4720102e-06
0.20652174 	0.7115539 	-0.0061791426 	3.6666564e-08
0.2173913 	0.73671195 	-0.0062928788 	9.0056781e-06
0.22826087 	0.76190035 	-0.0064061729 	1.026352e-06
0.23913043 	0.78904592 	-0.0064577092 	8.2787514e-06
0.25 	0.81665434 	-0.0064927406 	4.6748076e-06
0.26086957 	0.84531226 	-0.0064891516 	4.050212e-06
0.27173913 	0.87521615 	-0.0064314179 	1.2273755e-05
0.2826087 	0.90539001 	-0.0063682046 	2.3006159e-07
0.29347826 	0.93658682 	-0.0062277204 	1.14909e-05
0.30434783 	0.96803398 	-0.006070445 	9.1342759e-06
0.31521739 	0.99995784 	-0.0058889068 	2.4792484e-07
0.32608696 	1.030849 	-0.0056557077 	1.6436243e-05
0.33695652 	1.0617807 	-0.0054169883 	7.3496567e-06
0.34782609 	1.0923714 	-0.0051568688 	2.1959597e-07
0.35869565 	1.1192531 	-0.0048958864 	1.5597357e-05
0.36956522 	1.145825 	-0.0046345689 	7.9291004e-06
0.38043478 	1.1709731 	-0.0043736698 	4.9298853e-07
0.39130435 	1.1905019 	-0.0041443747 	9.4108858e-06
0.40217391 	1.208441 	-0.003922443 	1.0317426e-05
0.41304348 	1.2251517 	-0.0037059021 	3.6624817e-07
0.42391304 	1.2368891 	-0.0035186134 	2.0619456e-06
0.43478261 	1.2449456 	-0.0033424276 	1.3668838e-05
0.44565217 	1.2530022 	-0.0031662418 	2.6707306e-06
0.45652174 	1.2576806 	-0.0029968549 	5.2705451e-07
0.4673913 	1.2601133 	-0.00284592 	4.4791762e-06
0.47826087 	1.2615515 	-0.0027007971 	8.8583662e-06
0.48913043 	1.2629896 	-0.0025556741 	7.1360767e-08
0.5 	1.2624235 	-0.0024190348 	3.5794388e-07
0.51086957 	1.2615196 	-0.0022925222 	4.3223006e-06
0.52173913 	1.2603715 	-0.0021719181 	5.8518789e-06
0.5326087 	1.2591161 	-0.0020531479 	1.2237985e-07
0.54347826 	1.2573206 	-0.0019409989 	1.9504205e-07
0.55434783 	1.255327 	-0.0018345849 	4.5392454e-06
0.56521739 	1.2532738 	-0.0017312667 	2.6429698e-06
0.57608696 	1.2510862 	-0.0016325726 	3.279674e-07
0.58695652 	1.2486869 	-0.0015350554 	7.9941001e-07
0.59782609 	1.2461492 	-0.0014448387 	4.1893748e-06
0.60869565 	1.2435865 	-0.0013556591 	7.767434e-08
0.61956522 	1.240833 	-0.0012697382 	9.2884051e-08
0.63043478 	1.2378869 	-0.001186735 	3.738609e-06
0.64130435 	1.2349125 	-0.001104935 	7.2514431e-08
0.65217391 	1.2317291 	-0.0010252201 	1.1861712e-07
0.66304348 	1.2282684 	-0.00094575794 	2.9642817e-06
0.67391304 	1.2247337 	-0.0008677332 	4.5351493e-09
0.68478261 	1.2208876 	-0.00078969232 	5.7058178e-08
0.69565217 	1.2165704 	-0.00071048086 	2.9186064e-06
0.70652174 	1.2120704 	-0.00063160621 	4.6087681e-08
0.7173913 	1.2069982 	-0.00054871298 	4.5482924e-07
0.72826087 	1.2011371 	-0.00046325619 	1.3939652e-06
0.73913043 	1.1947529 	-0.00037502997 	4.1700933e-08
0.75 	1.1870073 	-0.00027683209 	2.7194603e-06
0.76086957 	1.1784291 	-0.00017462046 	3.6828483e-09
0.77173913 	1.168062 	-5.8982986e-05 	1.2899195e-06
0.7826087 	1.156077 	6.5937898e-05 	1.7351277e-07
0.79347826 	1.1418839 	0.00020642196 	2.3492085e-07
0.80434783 	1.1249909 	0.00036151063 	9.3716006e-07
0.81521739 	1.1057629 	0.00053097799 	-1.9324299e-09
0.82608696 	1.0832863 	0.00071018825 	8.5497999e-07
0.83695652 	1.0579848 	0.00089805093 	5.2218793e-07
0.84782609 	1.0298077 	0.001082802 	-1.7988058e-08
0.85869565 	0.99819443 	0.0012638707 	1.9132184e-06
0.86956522 	0.96426649 	0.0014292749 	-2.1741821e-07
0.88043478 	0.92636059 	0.0015787909 	1.4609357e-06
0.89130435 	0.88586016 	0.0017029213 	1.4276577e-07
0.90217391 	0.84284968 	0.0017762693 	-3.0344746e-07
0.91304348 	0.79707721 	0.0017915004 	-2.2399493e-07
0.92391304 	0.75081886 	0.0017315905 	-1.3149093e-06
0.93478261 	0.70421276 	0.0015885673 	-5.1256803e-07
0.94565217 	0.65264202 	0.0013454841 	-2.5821133e-06
0.95652174 	0.59970254 	0.00104459 	-3.6129908e-07
0.9673913 	0.53760697 	0.00069652317 	-5.9913574e-07
0.97826087 	0.45301505 	0.00034901236 	-1.5251292e-07
0.98913043 	0.28777075 	9.0425041e-05 	-4.8427512e-08
