0.29896907 	9.3281558e-06 	-9.6809903e-07 	-7.8130357e-10 	8.4410844e-06 	2.4394528e-09 	8.3910825e-06
0.30927835 	0.0015464756 	-0.00049093021 	-2.4373507e-07 	0.0011805196 	-9.099674e-07 	0.00074405391
0.31958763 	0.0015243551 	-1.4169804e-05 	-9.0366317e-07 	0.0020691401 	-5.3359167e-06 	1.2610049e-05
0.32989691 	0.0015126407 	0.00010369727 	9.9858724e-08 	0.0024792518 	3.6904463e-07 	0.00050355947
0.34020619 	0.0014841798 	0.00012257814 	1.0636654e-07 	0.0025790218 	-5.6841315e-07 	0.00019170222
0.35051546 	0.0014642469 	0.00012609304 	-1.5200374e-08 	0.0025793095 	-3.9858413e-07 	0.0002079716
0.36082474 	0.0014467787 	0.00012988876 	-9.0986981e-09 	0.0025657595 	-7.5247561e-07 	7.6468308e-05
0.37113402 	0.0014319921 	0.00013619635 	1.3696937e-08 	0.0025571343 	-6.6817086e-07 	6.0074404e-05
0.3814433 	0.0014198652 	0.00014472234 	9.4585878e-09 	0.0025541505 	-1.8643966e-07 	0.00018451928
0.39175258 	0.0014100838 	0.00015438825 	2.8692707e-07 	0.0025540078 	-5.2013849e-07 	1.947577e-05
0.40206186 	0.0014037192 	0.00016590016 	7.8003605e-09 	0.0025615842 	-1.0726797e-07 	0.00041944461
0.41237113 	0.0013990555 	0.00017799294 	6.7578176e-08 	0.0025703234 	-7.3321291e-07 	0.00053442947
0.42268041 	0.0013957406 	0.00019040769 	1.0517573e-07 	0.0025804238 	-1.5395204e-07 	0.00055057681
0.43298969 	0.001393559 	0.00020213665 	5.9655441e-07 	0.0025906183 	-8.038667e-07 	0.00020851679
0.44329897 	0.0013932214 	0.00021639192 	3.701342e-08 	0.0026075882 	-2.8834803e-07 	0.00086156509
0.45360825 	0.0013929114 	0.00022865676 	6.4823516e-07 	0.0026190242 	-8.1885446e-07 	0.00037787962
0.46391753 	0.0013937359 	0.00024253658 	4.5162731e-07 	0.0026353146 	-5.4525165e-07 	0.00065448465
0.4742268 	0.0013948332 	0.00025627501 	5.0084564e-07 	0.0026503612 	-6.0467316e-07 	0.00071050607
0.48453608 	0.0013961778 	0.00026936597 	8.1725708e-07 	0.0026639036 	-9.6278241e-07 	0.00044974161
0.49484536 	0.0013979537 	0.00028402346 	3.574822e-07 	0.0026804199 	-4.2113747e-07 	0.0008407476
0.50515464 	0.0013995773 	0.00029707529 	6.813725e-07 	0.0026924602 	-8.0064098e-07 	0.00044984591
0.51546392 	0.0014014779 	0.0003117501 	3.0250365e-07 	0.0027075958 	-3.5545436e-07 	0.00078399346
0.5257732 	0.0014031659 	0.00032553604 	3.7084896e-07 	0.0027191855 	-4.4497297e-07 	0.0006448653
0.53608247 	0.0014048603 	0.00033956111 	4.2498412e-07 	0.0027304573 	-5.0992849e-07 	0.00054993698
0.54639175 	0.001406464 	0.00035460892 	1.4359367e-08 	0.0027423763 	-9.6673716e-08 	0.00095459536
0.55670103 	0.0014077624 	0.00036762893 	6.7405707e-07 	0.0027479351 	-8.483818e-07 	0.00015115042
0.56701031 	0.0014091661 	0.00038361277 	9.1570571e-08 	0.0027588465 	-6.2653133e-07 	0.00089296057
0.57731959 	0.001410065 	0.00039740886 	3.2682826e-07 	0.0027625539 	-4.4512776e-07 	0.00044011243
0.58762887 	0.0014110662 	0.00041277695 	1.4233833e-07 	0.0027683274 	-1.9385943e-07 	0.00065892447
0.59793814 	0.0014115323 	0.00042753633 	9.3769856e-08 	0.0027708438 	-6.7559845e-07 	0.0008121079
0.60824742 	0.0014118354 	0.00044151438 	4.5917581e-07 	0.0027686155 	-7.0233181e-07 	0.00010565895
0.6185567 	0.0014121549 	0.00045750326 	3.9819323e-08 	0.0027703817 	-3.2789439e-07 	0.00078444418
0.62886598 	0.0014117869 	0.00047155295 	6.8924458e-08 	0.0027661868 	-5.6756222e-07 	0.00076283302
0.63917526 	0.0014114277 	0.00048540035 	4.0296171e-07 	0.0027579067 	-7.2180504e-07 	9.6264496e-06
0.64948454 	0.0014108986 	0.00050122949 	7.3096706e-08 	0.0027529444 	-7.0988312e-07 	0.00075306048
0.65979381 	0.0014098115 	0.00051489851 	5.1120889e-08 	0.0027426121 	-4.9646363e-07 	0.0007414571
0.67010309 	0.0014088717 	0.00052848792 	2.5717057e-07 	0.002728274 	-5.6427213e-07 	0.00012012306
0.68041237 	0.0014074711 	0.00054340379 	9.984468e-08 	0.0027150179 	-1.1926286e-06 	0.00074651658
0.69072165 	0.0014056637 	0.00055657424 	2.7658739e-09 	0.0026978148 	-7.8131966e-09 	0.00073444997
0.70103093 	0.0014041153 	0.00057021683 	7.6842042e-08 	0.0026770262 	-2.1706773e-07 	0.00049574108
0.71134021 	0.0014017901 	0.00058306574 	9.09394e-08 	0.0026545765 	-1.5077888e-06 	0.00076173656
0.72164948 	0.0013996455 	0.00059515002 	1.112803e-07 	0.0026279306 	-4.3402525e-07 	0.0001986811
0.73195876 	0.001397105 	0.00060789182 	3.2096598e-08 	0.0026012404 	-8.5174916e-07 	0.00078466292
0.74226804 	0.001394253 	0.00061887801 	1.1588998e-08 	0.0025703407 	-4.1177307e-08 	0.00072814089
0.75257732 	0.0013917013 	0.00063033233 	1.4654898e-08 	0.0025366002 	-5.2070871e-08 	0.00072723497
0.7628866 	0.0013897213 	0.00063814721 	-9.4406489e-09 	0.0024983678 	-5.7038131e-07 	0.00082710131
0.77319588 	0.0013919843 	0.00064052844 	8.5840995e-08 	0.0024515415 	-1.7620376e-07 	0.00044378863
0.78350515 	0.0013916799 	0.00064372272 	-6.9342075e-08 	0.0024063554 	-8.8600894e-07 	0.00086369422
0.79381443 	0.0013930801 	0.00064429199 	1.1262195e-07 	0.0023559166 	-1.7733491e-07 	0.00036339393
0.80412371 	0.0013921658 	0.00064527075 	-7.1309966e-08 	0.0023071442 	-6.9788709e-07 	0.00090114798
0.81443299 	0.0013918518 	0.00064525707 	7.2803731e-08 	0.0022549963 	-1.2154074e-07 	0.00051686737
0.82474227 	0.001389477 	0.00064569785 	-4.1816325e-09 	0.0022041372 	-4.0720133e-08 	0.00093877202
0.83505155 	0.0013869699 	0.00064637034 	3.026977e-09 	0.0021518874 	-5.678248e-09 	0.00093123662
0.84536082 	0.0013847548 	0.00064628725 	6.4552495e-08 	0.00209749 	-1.4062663e-07 	0.00039927254
0.8556701 	0.0013809283 	0.00064776875 	-8.9915032e-08 	0.002045755 	-1.0028915e-06 	0.00098826877
0.86597938 	0.0013789812 	0.00064892316 	4.4074714e-08 	0.0019915047 	-1.1162132e-07 	0.00048874007
0.87628866 	0.0013778282 	0.0006513283 	3.1748381e-08 	0.0019390972 	-9.0947051e-08 	0.00053371722
0.88659794 	0.0013783193 	0.00065550638 	-2.2386522e-08 	0.001888991 	-5.1782768e-07 	0.0010379849
0.89690722 	0.0013833817 	0.00066151187 	6.0935801e-09 	0.0018403636 	-1.8543231e-08 	0.00093228983
0.90721649 	0.0013957969 	0.00067049017 	3.0840688e-08 	0.0017961466 	-9.1661747e-08 	0.00026554413
0.91752577 	0.001415849 	0.0006838873 	2.2321591e-08 	0.0017612124 	-6.1698403e-08 	0.00025328394
0.92783505 	0.0014471104 	0.00070244908 	5.9211767e-09 	0.0017391289 	-2.0726775e-08 	0.00060404915
0.93814433 	0.0014926016 	0.0007262537 	-3.9345091e-09 	0.0017334206 	-1.1258012e-08 	0.00079322792
0.94845361 	0.0015496149 	0.00075143314 	-2.1370718e-08 	0.0017443707 	-2.9479479e-08 	0.00079129687
0.95876289 	0.0016168869 	0.00077732128 	-6.6195383e-08 	0.0017665453 	-9.0310919e-08 	0.00069060373
0.96907216 	0.0016416291 	0.00078685361 	-2.0503192e-07 	0.001747524 	-3.7443741e-07 	0.0002841841
0.97938144 	0.0014717812 	0.00069696898 	-1.5363827e-07 	0.0015249688 	-3.5462353e-07 	0.0012223731
0.98969072 	0.00061662051 	0.00028273841 	-2.2370385e-07 	0.00062219491 	-5.0441495e-07 	4.3234302e-05
