1.640171e-35 	0.3214039 	-2.1828116e-14 	-7.9339426e-21
0.010869565 	0.32241723 	-0.00083565097 	7.4211362e-08
0.02173913 	0.32481432 	-0.001663301 	3.592787e-08
0.032608696 	0.32889105 	-0.002493607 	1.1366549e-08
0.043478261 	0.33467117 	-0.0033137095 	1.1543946e-07
0.054347826 	0.34213878 	-0.0041454749 	2.2614508e-06
0.065217391 	0.35202117 	-0.0050099579 	2.6816367e-06
0.076086957 	0.36225007 	-0.0057580682 	1.6411349e-06
0.086956522 	0.37488424 	-0.0065385052 	5.4208155e-07
0.097826087 	0.38910668 	-0.0073105405 	9.5137789e-07
0.10869565 	0.40482432 	-0.0080829241 	2.1972544e-06
0.11956522 	0.42244836 	-0.0088206685 	1.0764263e-06
0.13043478 	0.44155166 	-0.0095386144 	2.0980955e-06
0.14130435 	0.46192207 	-0.010248468 	1.2833914e-07
0.15217391 	0.48464046 	-0.010907846 	4.9427332e-06
0.16304348 	0.50802329 	-0.011558276 	5.6451472e-07
0.17391304 	0.53413227 	-0.01215004 	6.38169e-06
0.18478261 	0.56065922 	-0.01272863 	1.8130158e-06
0.19565217 	0.58978892 	-0.013232747 	8.4267374e-06
0.20652174 	0.61939157 	-0.013730094 	3.9124585e-07
0.2173913 	0.65192533 	-0.014118469 	1.3054217e-05
0.22826087 	0.68480835 	-0.014511883 	3.5394854e-06
0.23913043 	0.72018069 	-0.014777833 	1.4289046e-05
0.25 	0.75605269 	-0.015024069 	3.5016846e-06
0.26086957 	0.7936623 	-0.015199796 	6.4248858e-06
0.27173913 	0.83208421 	-0.015288398 	1.4719172e-05
0.2826087 	0.87158753 	-0.015379647 	1.2100064e-05
0.29347826 	0.91015098 	-0.015329526 	1.7297851e-05
0.30434783 	0.94902951 	-0.015269986 	6.9080856e-06
0.31521739 	0.9880928 	-0.015185461 	7.1096112e-06
0.32608696 	1.0242309 	-0.015015298 	2.3184093e-05
0.33695652 	1.0600908 	-0.014844858 	1.9851622e-06
0.34782609 	1.094139 	-0.014656083 	8.4232703e-06
0.35869565 	1.1239126 	-0.014410764 	2.1719198e-05
0.36956522 	1.1527589 	-0.014170716 	2.4825613e-06
0.38043478 	1.1782152 	-0.0139295 	1.5571597e-05
0.39130435 	1.1997333 	-0.013626715 	1.3156888e-05
0.40217391 	1.2187384 	-0.013340616 	9.0552255e-06
0.41304348 	1.234652 	-0.013063232 	2.0036005e-05
0.42391304 	1.2480593 	-0.012715441 	1.4437958e-06
0.43478261 	1.2572996 	-0.012384767 	2.1648203e-05
0.44565217 	1.2654244 	-0.012054436 	5.2638208e-06
0.45652174 	1.2700284 	-0.01170089 	1.8169307e-05
0.4673913 	1.2738907 	-0.011309587 	5.1274523e-06
0.47826087 	1.2758136 	-0.010967176 	1.3216902e-05
0.48913043 	1.2765871 	-0.010633274 	1.045036e-05
0.5 	1.2760979 	-0.010276915 	1.5233296e-05
0.51086957 	1.2754241 	-0.0098958675 	6.1302929e-06
0.52173913 	1.2742217 	-0.0095777419 	7.3396989e-06
0.5326087 	1.2725425 	-0.009288861 	1.3213664e-05
0.54347826 	1.2705799 	-0.0089634504 	1.1556401e-05
0.55434783 	1.2685002 	-0.008628264 	8.6511119e-06
0.56521739 	1.2663127 	-0.0083399807 	4.3126278e-07
0.57608696 	1.2639546 	-0.00809143 	1.9620056e-05
0.58695652 	1.2614862 	-0.0077558508 	2.7495282e-06
0.59782609 	1.2589389 	-0.007478404 	6.7257307e-06
0.60869565 	1.2563427 	-0.0072344191 	1.1320307e-05
0.61956522 	1.2536402 	-0.0069537999 	8.9170212e-06
0.63043478 	1.2508244 	-0.0066690656 	8.7590266e-06
0.64130435 	1.2479448 	-0.0064295168 	7.4207951e-06
0.65217391 	1.2449587 	-0.0061718322 	1.0555272e-05
0.66304348 	1.241793 	-0.0058885834 	6.7311917e-06
0.67391304 	1.2384849 	-0.0056548143 	7.3827978e-06
0.68478261 	1.2350011 	-0.0053958613 	8.2107123e-06
0.69565217 	1.2312232 	-0.0051230889 	5.3183644e-06
0.70652174 	1.2271443 	-0.0048958876 	1.0758083e-05
0.7173913 	1.2227615 	-0.0046123891 	2.3546441e-06
0.72826087 	1.2177964 	-0.0043559393 	3.9245925e-08
0.73913043 	1.2121879 	-0.0041184089 	1.1556482e-05
0.75 	1.2058987 	-0.0038222122 	5.0091446e-06
0.76086957 	1.1984634 	-0.003575071 	9.2961787e-06
0.77173913 	1.1901864 	-0.0032656464 	2.9930674e-07
0.7826087 	1.1798114 	-0.0029890022 	4.4124962e-06
0.79347826 	1.1679587 	-0.0026721357 	2.8639055e-06
0.80434783 	1.1536005 	-0.0023518287 	2.161739e-06
0.81521739 	1.1366148 	-0.0020049102 	3.4593326e-06
0.82608696 	1.1165446 	-0.0016439815 	2.1971059e-06
0.83695652 	1.093064 	-0.0012512926 	1.7731689e-06
0.84782609 	1.0656292 	-0.00086042009 	4.0953056e-06
0.85869565 	1.0344118 	-0.000421856 	2.0311804e-06
0.86956522 	0.9991386 	-3.1347604e-05 	7.2886693e-06
0.88043478 	0.95942502 	0.00040974162 	1.2694105e-06
0.89130435 	0.91538441 	0.00081466291 	1.2269063e-06
0.90217391 	0.86665393 	0.0011754915 	4.2310911e-06
0.91304348 	0.81245937 	0.0015427967 	4.5190788e-08
0.92391304 	0.75329924 	0.0018456436 	8.5328235e-07
0.93478261 	0.69087278 	0.0020247811 	3.5248375e-07
0.94565217 	0.62044987 	0.0020587313 	-5.1416049e-07
0.95652174 	0.55069434 	0.0018731222 	2.6085214e-07
0.9673913 	0.4755374 	0.0014839432 	-6.1731637e-08
0.97826087 	0.38756568 	0.00092034274 	-4.6890521e-07
0.98913043 	0.2419994 	0.00031596389 	-2.7519058e-07
