0.47777778 	0.0013371328 	-0.00060332097 	1.7876697e-08 	0.0013345228 	-3.6196884e-08 	8.4421503e-05
0.48888889 	0.003918553 	-0.0018818023 	5.5926111e-09 	0.0039111683 	-5.7776876e-09 	0.0021495695
0.5 	0.0039258569 	-0.0018580925 	-7.9982785e-09 	0.0039135546 	2.4674824e-08 	0.0022221086
0.51111111 	0.0033388388 	-0.0015953511 	-1.3865861e-08 	0.0033239721 	3.5316055e-08 	0.0021580599
0.52222222 	0.0025936534 	-0.001251518 	-1.0644448e-07 	0.0025760764 	2.3411513e-07 	0.00052357364
0.53333333 	0.0019015421 	-0.00089519565 	4.405481e-07 	0.0018883 	-8.0348178e-07 	0.0013348852
0.54444444 	0.0013621451 	-0.0005847714 	5.421971e-07 	0.0013530232 	-8.873861e-07 	0.0010008787
0.55555556 	0.0010568153 	-0.00036611775 	-1.6662043e-08 	0.0010523004 	1.0237662e-08 	0.00067729703
0.56666667 	0.00094568459 	-0.00022467955 	-1.7255779e-08 	0.00094606531 	-6.0463661e-09 	0.00055559414
0.57777778 	0.00093166586 	-0.00011940251 	-5.3241758e-09 	0.0009373819 	-5.8586075e-09 	0.00062963659
0.58888889 	0.00095514553 	-3.3545284e-05 	3.1949112e-07 	0.00096593186 	5.783757e-08 	0.00069462988
0.6 	0.00098917914 	3.7714546e-05 	1.2745898e-07 	0.0010043754 	4.157155e-08 	0.00072603756
0.61111111 	0.0010258454 	9.8668057e-05 	-2.8571129e-08 	0.001044238 	-5.3963961e-08 	0.00042213209
0.62222222 	0.001061947 	0.00015246755 	-5.3040554e-08 	0.0010829271 	-1.1338101e-07 	8.1116947e-05
0.63333333 	0.0010959013 	0.00019991845 	-5.6308029e-09 	0.001120774 	-1.3168853e-08 	0.00071721
0.64444444 	0.0011279908 	0.00024252809 	-8.1111406e-10 	0.0011553243 	-1.896966e-09 	0.00082145599
0.65555556 	0.0011574864 	0.00028057786 	-4.8858241e-08 	0.0011852145 	-1.2323165e-07 	5.209218e-05
0.66666667 	0.0011839773 	0.0003144742 	-2.2638447e-10 	0.0012147223 	-6.1205825e-10 	0.00086288133
0.67777778 	0.0012075292 	0.00034428026 	-1.6252654e-08 	0.0012389273 	-4.3941049e-08 	0.00059486647
0.68888889 	0.0012280806 	0.00037056979 	-2.2236114e-08 	0.0012600404 	-6.4222857e-08 	0.00044809335
0.7 	0.0012459778 	0.00039387239 	7.3808276e-09 	0.0012794616 	-2.2831044e-09 	0.00092125871
0.71111111 	0.001260179 	0.00041333488 	-3.0399183e-08 	0.0012926069 	-9.3561087e-08 	0.00022894265
0.72222222 	0.0012721694 	0.00043066153 	4.1016112e-08 	0.0013060753 	-5.1057492e-08 	0.0009395223
0.73333333 	0.0012802172 	0.00044419744 	-2.8718828e-08 	0.0013124804 	-9.3790864e-08 	0.00019863637
0.74444444 	0.001286713 	0.00045669929 	1.9921856e-08 	0.0013200747 	-8.7485454e-08 	0.00094972945
0.75555556 	0.0012894667 	0.00046552694 	-2.6239641e-08 	0.0013206805 	-9.0540203e-08 	0.00018099611
0.76666667 	0.0012908137 	0.00047386135 	1.2247886e-10 	0.0013226872 	-1.6816205e-07 	0.00095197545
0.77777778 	0.0012892809 	0.00047923855 	-2.7619676e-08 	0.0013182234 	-1.0118667e-07 	1.9715642e-05
0.78888889 	0.0012866048 	0.00048451588 	-9.2885836e-09 	0.0013160098 	-9.2734511e-08 	0.00094856366
0.8 	0.0012821926 	0.00048797945 	-1.2059935e-08 	0.0013089785 	-4.8436303e-08 	0.00045098247
0.81111111 	0.0012777059 	0.00049170557 	-6.9269798e-09 	0.0013027072 	-3.3978959e-08 	0.00053979843
0.82222222 	0.0012732842 	0.00049577846 	-7.1108693e-09 	0.0012967596 	-1.1554885e-07 	0.0009358018
0.83333333 	0.0012717009 	0.00050169394 	-4.3441791e-09 	0.0012911462 	-4.2663388e-08 	0.0002877854
0.84444444 	0.0012745864 	0.00051127677 	3.9314772e-09 	0.0012911254 	-1.8615523e-08 	0.00046015902
0.85555556 	0.0012848489 	0.00052614595 	4.6480576e-08 	0.0012985414 	-1.4406848e-08 	0.00093871837
0.86666667 	0.001309598 	0.00054983488 	7.5699811e-10 	0.0013189448 	-2.169834e-11 	0.00093284911
0.87777778 	0.0013614708 	0.00058831914 	2.6162229e-08 	0.0013653172 	2.5484825e-08 	0.00050081641
0.88888889 	0.0014517608 	0.00064734475 	7.0919765e-08 	0.0014502876 	9.9523139e-08 	0.00017312454
0.9 	0.0015983247 	0.00073642166 	1.1595001e-07 	0.0015921385 	1.8783533e-07 	2.8911212e-05
0.91111111 	0.0018182805 	0.0008564175 	1.3844621e-07 	0.0018082014 	2.5519072e-07 	3.1187685e-05
0.92222222 	0.0021221024 	0.0010082643 	1.2359395e-07 	0.0021094006 	2.5153905e-07 	0.00030802823
0.93333333 	0.0025015008 	0.0011911098 	5.4858357e-08 	0.0024884187 	1.1709346e-07 	0.0011973889
0.94444444 	0.0029171786 	0.0013833614 	7.3337421e-07 	0.0029052972 	1.6238327e-06 	0.0021191438
0.95555556 	0.0032953051 	0.0015526193 	5.1441544e-08 	0.0032820347 	1.2033781e-07 	0.00084323081
0.96666667 	0.0035382592 	0.0016625859 	6.7731607e-08 	0.0035305871 	1.5265525e-07 	0.0025711781
0.97777778 	0.0034107018 	0.0016149459 	4.6380268e-09 	0.0034046597 	1.251319e-08 	0.001723934
0.98888889 	0.0018818237 	0.00087770425 	-2.1030074e-10 	0.001879822 	-1.2894859e-10 	0.0010833723
