0.47916667 	0.0020575502 	-0.00096310874 	-2.8879496e-07 	0.0020540799 	5.7431078e-07 	0.00099001141
0.48958333 	0.0037086581 	-0.001870711 	-6.521412e-08 	0.0036885458 	2.3624052e-07 	0.00033213244
0.5 	0.0029456468 	-0.0014864857 	1.991602e-07 	0.0029210326 	-3.844291e-07 	0.0015974562
0.51041667 	0.0018959485 	-0.00090956581 	2.2741952e-06 	0.0018747192 	-3.8843399e-06 	0.0010145434
0.52083333 	0.0012879741 	-0.00050427323 	-1.7561234e-07 	0.0012743297 	1.9499456e-07 	0.00016590654
0.53125 	0.0011261688 	-0.00028018005 	-5.2752145e-08 	0.0011210096 	3.6772823e-09 	0.00037349078
0.54166667 	0.0011456411 	-0.00012900093 	1.9814249e-07 	0.0011481453 	6.1585706e-08 	0.00060007788
0.55208333 	0.0012048995 	-1.4843677e-05 	3.845107e-07 	0.0012139986 	1.8185549e-07 	0.00063223206
0.5625 	0.0012674321 	7.5923135e-05 	2.6325857e-07 	0.0012825175 	1.4041527e-07 	0.00066682813
0.57291667 	0.0013262224 	0.00015249129 	-2.9743199e-09 	0.0013466886 	-5.0208158e-09 	0.00067919061
0.58333333 	0.0013796869 	0.00021897283 	-4.8624194e-08 	0.0014043076 	-8.6646263e-08 	0.00034102765
0.59375 	0.0014275449 	0.0002775095 	-6.6534252e-08 	0.001456145 	-1.2276927e-07 	0.00017398233
0.60416667 	0.0014697235 	0.00032901297 	8.3615594e-08 	0.0015032841 	3.5608586e-08 	0.00076509613
0.61458333 	0.0015068388 	0.00037439463 	3.925547e-07 	0.0015438371 	1.229339e-07 	0.00079331784
0.625 	0.0015394262 	0.00041456581 	-3.5795564e-08 	0.0015787506 	-6.9731872e-08 	0.00044603503
0.63541667 	0.0015670132 	0.00044937558 	-1.9089851e-08 	0.0016092184 	-3.8315706e-08 	0.00060515713
0.64583333 	0.0015900761 	0.00047938173 	2.5266319e-07 	0.001634902 	-4.9145292e-08 	0.00083937538
0.65625 	0.0016093044 	0.00050531511 	-5.160743e-08 	0.0016547085 	-1.073843e-07 	0.00019747484
0.66666667 	0.0016243234 	0.00052728842 	9.4606531e-08 	0.0016724431 	-8.0392663e-08 	0.00085596279
0.67708333 	0.0016359774 	0.00054584966 	-1.2910192e-08 	0.0016848686 	-2.8115993e-08 	0.00068149334
0.6875 	0.0016440147 	0.00056114441 	-1.4678189e-09 	0.0016939891 	-3.3842051e-09 	0.00084344417
0.69791667 	0.0016489875 	0.00057361715 	9.3281883e-10 	0.0016994744 	-1.6118218e-08 	0.00087342087
0.70833333 	0.00165073 	0.0005833542 	-6.2631608e-09 	0.0017011214 	-1.5463837e-08 	0.00075401208
0.71875 	0.0016501119 	0.00059113663 	-2.5714959e-10 	0.0017006194 	-2.4048194e-09 	0.00087343091
0.72916667 	0.0016467744 	0.00059666609 	-1.3674579e-09 	0.0016968912 	-1.2788235e-08 	0.0008734238
0.73958333 	0.0016410486 	0.00060044278 	-8.1340729e-09 	0.0016901565 	-2.1650245e-08 	0.00068782712
0.75 	0.0016334017 	0.00060285637 	-3.4316924e-08 	0.0016820091 	-1.7764041e-07 	0.00086737911
0.76041667 	0.001623648 	0.00060366976 	-1.28532e-08 	0.0016705338 	-3.6621452e-08 	0.0005343025
0.77083333 	0.0016120441 	0.00060364255 	-5.1970722e-08 	0.0016582809 	-2.1720521e-07 	0.00085655536
0.78125 	0.0015987602 	0.00060230884 	-8.7481032e-09 	0.0016430536 	-2.607612e-08 	0.00060319973
0.79166667 	0.0015838445 	0.00060029198 	-8.9920031e-09 	0.0016269733 	-3.3904588e-08 	0.0008426896
0.80208333 	0.0015673604 	0.00059728866 	-2.427536e-08 	0.0016086613 	-8.6627194e-08 	0.00082686424
0.8125 	0.0015495096 	0.00059342737 	-1.4147428e-08 	0.0015880639 	-4.2365503e-08 	0.00041371065
0.82291667 	0.0015301044 	0.0005891602 	-1.9039115e-07 	0.001567296 	-6.5865292e-07 	0.00080972458
0.83333333 	0.0015096811 	0.0005840548 	-1.6137614e-08 	0.0015437074 	-4.7228038e-08 	0.00033977322
0.84375 	0.001487824 	0.00057871473 	-4.0682085e-09 	0.0015200477 	-1.1644161e-08 	0.00067783874
0.85416667 	0.0014648625 	0.0005728997 	-1.69499e-07 	0.0014946166 	-5.8344491e-07 	0.00077366106
0.86458333 	0.0014412457 	0.00056693052 	-6.3486215e-09 	0.0014677798 	-1.8068878e-08 	0.00058168987
0.875 	0.0014174807 	0.00056137148 	-2.1568718e-08 	0.001439971 	-6.3813235e-08 	0.00010440763
0.88541667 	0.0013941353 	0.00055740988 	-2.9457647e-09 	0.0014141195 	-1.0179065e-08 	0.00062377458
0.89583333 	0.001374143 	0.00055669626 	-2.7599966e-08 	0.0013903236 	-1.8900829e-07 	0.00072437238
0.90625 	0.0013622757 	0.00056266915 	3.0606156e-08 	0.001373777 	-2.3263459e-07 	0.00071504992
0.91666667 	0.001368712 	0.00058114171 	1.8796469e-07 	0.0013747597 	-1.028638e-08 	0.00071573366
0.92708333 	0.001415387 	0.00062411269 	3.5522435e-07 	0.0014153244 	3.4866737e-07 	0.00073542161
0.9375 	0.0015416702 	0.00071166688 	1.7001919e-07 	0.0015351964 	2.4515533e-07 	0.00078780108
0.94791667 	0.0018070649 	0.00086286965 	1.2888968e-07 	0.001793629 	2.460998e-07 	0.00032161182
0.95833333 	0.0022454717 	0.0010982805 	2.1013041e-08 	0.0022293292 	4.3228897e-08 	0.0011165513
0.96875 	0.0027478977 	0.001350404 	1.7928434e-07 	0.0027298679 	4.5336873e-07 	6.0362017e-05
0.97916667 	0.0029296158 	0.00145945 	-7.9409767e-08 	0.0029200411 	-2.2481193e-07 	0.0015460225
0.98958333 	0.0015685686 	0.00073322009 	-1.1587902e-06 	0.0015666627 	-2.2884728e-06 	0.00086212919
