/*--------------------------------*- C++ -*----------------------------------*\
  =========                 |
  \\      /  F ield         | OpenFOAM: The Open Source CFD Toolbox
   \\    /   O peration     | Website:  https://openfoam.org
    \\  /    A nd           | Version:  7
     \\/     M anipulation  |
\*---------------------------------------------------------------------------*/
FoamFile
{
    version     2.0;
    format      ascii;
    class       volScalarField;
    location    "2000";
    object      k;
}
// * * * * * * * * * * * * * * * * * * * * * * * * * * * * * * * * * * * * * //

dimensions      [0 2 -2 0 0 0 0];

internalField   nonuniform List<scalar> 
15296
(
0.0016937333
0.0016882229
0.0016829487
0.0016778671
0.0016729427
0.0016681569
0.001663498
0.0016589574
0.0016545278
0.0016502028
0.0016459766
0.001641844
0.0016378002
0.001633841
0.0016299625
0.0016261615
0.0016224337
0.0016187771
0.0016151892
0.001611668
0.0016082144
0.0016048332
0.0016015438
0.0015987601
0.0016041184
0.0015601271
0.0013519828
0.00098953369
0.00061280174
0.00022143824
1.9875837e-07
0.00071954289
0.0013175629
0.001408779
0.0012855493
0.0010312229
0.0012256013
0.0012063178
0.0016937914
0.0016882754
0.0016830009
0.0016779174
0.0016729912
0.001668204
0.0016635441
0.0016590026
0.0016545725
0.0016502473
0.0016460211
0.0016418887
0.0016378454
0.0016338867
0.001630009
0.0016262087
0.0016224817
0.0016188259
0.0016152388
0.0016117185
0.001608266
0.0016048862
0.0016015897
0.0015987071
0.0016049027
0.0015628493
0.0013573461
0.00098823326
0.00061483637
0.00022446536
1.1054253e-06
0.00069298644
0.0012821684
0.0013972036
0.0012828271
0.00098406452
0.0012512125
0.0012545271
0.0016939137
0.0016883893
0.0016831107
0.0016780207
0.0016730887
0.0016682965
0.0016636322
0.0016590872
0.0016546543
0.0016503269
0.0016460993
0.001641966
0.0016379223
0.0016339637
0.0016300863
0.0016262866
0.0016225603
0.0016189053
0.0016153191
0.0016117999
0.0016083491
0.0016049715
0.0016016586
0.0015985213
0.0016063169
0.0015684334
0.0013705692
0.00099139328
0.00062525542
0.00026381088
1.625911e-05
0.00063467634
0.0012033891
0.0013737637
0.0013233907
0.00093642131
0.0012628499
0.0013791341
0.0016940939
0.0016885631
0.0016832761
0.0016781756
0.0016732336
0.0016684326
0.0016637607
0.0016592091
0.0016547706
0.0016504387
0.0016462077
0.001642072
0.0016380267
0.0016340673
0.0016301897
0.0016263902
0.0016226643
0.00161901
0.0016154247
0.0016119066
0.0016084579
0.001605083
0.0016017444
0.0015981525
0.0016073479
0.0015765347
0.0013871731
0.00099396582
0.00063407279
0.00031996379
6.1444165e-05
0.00054401529
0.001082144
0.00133506
0.0015156951
0.0010221927
0.0012534117
0.0016470991
0.0016943301
0.0016887971
0.0016834972
0.0016783814
0.001673425
0.0016686107
0.0016639269
0.0016593648
0.0016549172
0.0016505777
0.0016463405
0.0016422002
0.0016381515
0.00163419
0.0016303111
0.0016265111
0.0016227853
0.0016191315
0.0016155471
0.0016120303
0.0016085838
0.0016052124
0.0016018395
0.0015975588
0.0016076777
0.0015876174
0.0014104563
0.0010259576
0.00063825368
0.00038410756
0.00013384718
0.0004384259
0.00092322828
0.0012410554
0.0019845501
0.0013724313
0.0012930322
0.0021122281
0.0016947075
0.0016891778
0.0016838566
0.0016787162
0.0016737355
0.0016688986
0.0016641939
0.0016596129
0.0016551484
0.0016507944
0.001646545
0.0016423949
0.0016383388
0.0016343719
0.0016304895
0.0016266875
0.0016229609
0.0016193072
0.0016157237
0.0016122083
0.0016087648
0.0016053988
0.0016019816
0.0015966171
0.0016071368
0.0016060489
0.0014399569
0.0011315774
0.00071662745
0.00048989492
0.00025886743
0.00033640042
0.00071060816
0.0010328071
0.0027778028
0.0022906465
0.0016998342
0.0031206521
0.0016953369
0.0016898227
0.0016844742
0.0016793019
0.0016742881
0.0016694188
0.0016646834
0.0016600738
0.0016555831
0.0016512054
0.0016469354
0.0016427677
0.0016386974
0.0016347194
0.0016308287
0.0016270208
0.0016232904
0.0016196344
0.00161605
0.0016125345
0.0016090923
0.0016057319
0.001602279
0.0015956813
0.0016059249
0.0016229841
0.0014620105
0.0012210165
0.00085420576
0.00059144682
0.00038151733
0.00035399021
0.00054257364
0.0007291902
0.0036397903
0.0044217407
0.0033160587
0.005273161
0.0016962613
0.0016907493
0.0016853758
0.0016801684
0.001675115
0.0016702053
0.0016654304
0.0016607828
0.0016562561
0.0016518449
0.0016475445
0.0016433499
0.0016392565
0.0016352593
0.0016313532
0.0016275335
0.0016237945
0.0016201321
0.0016165434
0.0016130249
0.0016095806
0.0016062244
0.0016027687
0.0015949481
0.0016047066
0.0016305667
0.0014937513
0.001269441
0.00094275622
0.00066156825
0.00044866884
0.00042499702
0.00051569303
0.00039922988
0.0044384905
0.0070317468
0.0060854693
0.0088418325
0.001697591
0.0016920453
0.0016866537
0.0016814078
0.0016763076
0.001671348
0.0016665225
0.0016618249
0.0016572495
0.0016527917
0.0016484473
0.0016442124
0.0016400829
0.0016360543
0.001632122
0.0016282808
0.0016245249
0.0016208495
0.0016172509
0.0016137245
0.0016102732
0.0016069173
0.0016035138
0.0015944816
0.0016037967
0.0016353072
0.0015436547
0.0013158771
0.00099881527
0.00069776439
0.00048047208
0.00047909651
0.00052692357
4.9953544e-05
0.005192994
0.0089341265
0.0094184142
0.013550827
0.0016993964
0.0016938447
0.0016884301
0.0016831414
0.0016779868
0.001672967
0.0016680786
0.0016633169
0.0016586775
0.0016541565
0.0016497509
0.001645458
0.0016412747
0.0016371977
0.0016332229
0.0016293457
0.0016255603
0.0016218609
0.0016182435
0.0016147016
0.0016112358
0.0016078716
0.0016045934
0.0015944876
0.0016027227
0.0016415326
0.001566913
0.0013650562
0.0010478802
0.00072813643
0.00049669229
0.0004907712
0.00045234141
2.4368436e-05
0.0054600466
0.0098398011
0.011907659
0.018704497
0.0017018217
0.0016963095
0.0016908627
0.0016855258
0.0016803096
0.001675219
0.0016702544
0.001665413
0.001660692
0.0016560887
0.0016516013
0.0016472284
0.0016429687
0.0016388204
0.0016347808
0.0016308465
0.0016270126
0.0016232724
0.0016196218
0.0016160523
0.0016125608
0.0016091719
0.0016060892
0.0015953781
0.0016004878
0.0016498905
0.0015743778
0.0013953485
0.0010910237
0.00073040922
0.00050318857
0.00044059455
0.00021533901
2.5692294e-05
0.0051089543
0.0092759939
0.011598532
0.020063046
0.0017051674
0.0016996219
0.0016941488
0.0016887595
0.0016834733
0.0016783006
0.0016732451
0.0016683068
0.0016634844
0.0016587767
0.0016541831
0.0016497039
0.0016453395
0.0016410903
0.001636956
0.001632935
0.0016290245
0.001625218
0.0016215114
0.0016178946
0.0016143595
0.0016109203
0.0016080541
0.0015977106
0.0015962537
0.0016614669
0.0015439632
0.0013855879
0.0011327749
0.00078592334
0.00054870599
0.00030147242
6.0417266e-05
2.4272645e-05
0.0042784122
0.0070080964
0.0036209716
0.0068378873
0.0017096421
0.0017040649
0.0016985513
0.0016930984
0.0016877317
0.0016824641
0.0016773017
0.0016722473
0.0016673015
0.0016624646
0.0016577373
0.0016531213
0.0016486188
0.0016442326
0.0016399651
0.0016358179
0.0016317913
0.0016278811
0.001624084
0.0016203892
0.0016167825
0.0016132602
0.0016105197
0.0016019368
0.0015965154
0.0016835829
0.0013612154
0.0011532793
0.0010895907
0.00097402674
0.00075214887
0.00022213586
1.0470864e-05
2.0359627e-05
0.003148854
0.006102388
6.5661976e-05
1.4635475e-05
0.0017155578
0.0017100014
0.0017044135
0.0016988785
0.0016934178
0.0016880407
0.0016827544
0.0016775635
0.0016724708
0.0016674784
0.0016625879
0.0016578021
0.0016531246
0.0016485602
0.0016441142
0.001639792
0.0016355982
0.0016315334
0.0016275958
0.0016237782
0.0016200567
0.0016164218
0.001613543
0.0016082435
0.0016186281
0.0017423353
0.00087906502
0.0004440453
0.00082939656
0.0011475278
0.00095592349
7.753787e-05
1.487456e-06
1.7203588e-05
0.0023125334
0.0023829342
2.3723587e-05
1.2769816e-06
0.0017235872
0.0017178495
0.001712168
0.0017065347
0.0017009614
0.0016954559
0.001690025
0.0016846749
0.0016794101
0.0016742339
0.0016691491
0.0016641591
0.001659268
0.0016544817
0.0016498076
0.0016452547
0.0016408325
0.0016365479
0.0016324041
0.0016284017
0.0016244999
0.0016207449
0.0016172416
0.0016174302
0.0016622034
0.0017740841
0.00016057787
4.29561e-05
0.00026967698
0.00073585237
0.0001112532
1.3476e-06
1.312284e-08
1.2413429e-05
0.0014519785
0.00011702887
1.0114342e-06
2.2714564e-11
0.0017361097
0.0017301705
0.0017243226
0.0017185286
0.0017127847
0.0017070926
0.0017014569
0.0016958838
0.001690379
0.001684947
0.0016795916
0.0016743166
0.0016691259
0.0016640252
0.0016590226
0.0016541292
0.0016493601
0.0016447292
0.0016402497
0.0016359388
0.0016317142
0.0016278595
0.0016228283
0.0016349137
0.0017240773
0.00085497432
4.3343585e-06
1.8136076e-07
1.2884399e-05
0.00013193431
1.4093842e-06
8.4307854e-10
2.415191e-08
5.634033e-07
0.00022666702
3.7654591e-06
4.1392905e-08
1.9158899e-12
0.0017548292
0.001748701
0.0017426106
0.0017365588
0.0017305514
0.001724587
0.0017186664
0.0017127934
0.001706973
0.00170121
0.001695509
0.0016898737
0.0016843077
0.0016788153
0.0016734034
0.0016680828
0.0016628711
0.0016577878
0.0016528536
0.0016481178
0.0016433906
0.0016395516
0.001632577
0.0016552536
0.0017494082
0.00010034397
1.5720278e-06
2.6407656e-10
1.7130453e-08
1.0210704e-05
4.9836618e-08
5.842034e-11
2.3017043e-09
1.1374787e-07
4.1939075e-06
1.9448607e-09
3.0379766e-10
2.220446e-16
0.0017789418
0.0017724673
0.001766031
0.0017596296
0.0017532716
0.0017469544
0.0017406754
0.0017344362
0.00172824
0.0017220909
0.0017159929
0.0017099498
0.0017039645
0.0016980399
0.0016921803
0.001686394
0.0016806968
0.0016751101
0.0016696544
0.0016644236
0.0016590488
0.001655404
0.001645134
0.0016818918
0.0015802985
4.0918918e-05
3.2693823e-07
7.0412236e-10
2.4204234e-09
1.1147336e-08
2.714276e-12
4.3462888e-15
1.4230769e-11
5.819456e-11
3.6047154e-07
5.2632222e-09
2.4653589e-11
2.220446e-16
0.0018094671
0.001802465
0.0017955435
0.0017886721
0.0017818516
0.0017750757
0.001768339
0.001761641
0.0017549831
0.0017483679
0.0017417985
0.0017352781
0.001728809
0.0017223925
0.0017160305
0.0017097269
0.0017034933
0.0016973476
0.0016913057
0.0016854946
0.0016793785
0.0016759907
0.001659007
0.0017436768
0.00060054587
1.2178771e-06
1.2041301e-08
5.8246513e-10
5.2994764e-11
1.4095551e-12
2.6353112e-15
7.8405984e-15
6.5552056e-16
1.484326e-13
3.0661002e-08
2.6815395e-14
3.1446931e-14
2.220446e-16
0.0018473723
0.0018397493
0.0018322129
0.0018247341
0.0018173169
0.0018099538
0.0018026371
0.0017953641
0.0017881346
0.0017809496
0.001773811
0.0017667209
0.0017596809
0.0017526914
0.001745752
0.0017388626
0.0017320288
0.0017252611
0.0017185708
0.001712073
0.0017053035
0.0017009537
0.0016844655
0.0017424575
0.0016258535
8.9265006e-06
3.9504209e-09
6.9562959e-10
3.6037184e-10
2.3317144e-12
6.5765928e-15
9.4782946e-15
2.6337541e-15
1.6461921e-14
4.4228718e-11
3.0272832e-13
6.9531295e-15
2.220446e-16
0.001893921
0.0018855146
0.0018772074
0.0018689692
0.0018608076
0.0018527147
0.0018446801
0.0018366991
0.0018287699
0.0018208922
0.0018130668
0.0018052947
0.0017975767
0.0017899126
0.0017823007
0.0017747375
0.0017672239
0.0017597602
0.0017523562
0.0017450684
0.0017377318
0.0017312864
0.0017217701
0.0017221595
0.0018498608
0.00025345089
5.5325864e-06
5.9350269e-10
2.7533363e-10
1.8167838e-12
4.6526917e-15
9.3906505e-15
4.5960624e-15
2.1253555e-13
1.0925864e-11
2.220446e-16
8.301609e-16
2.220446e-16
0.0019504634
0.0019410402
0.0019317714
0.0019226044
0.0019135388
0.0019045616
0.0018956578
0.0018868204
0.0018780466
0.001869335
0.0018606857
0.001852099
0.0018435753
0.0018351135
0.0018267115
0.0018183641
0.0018100687
0.0018018168
0.0017936165
0.0017854658
0.0017774269
0.0017692374
0.0017630846
0.0017413755
0.0018217575
0.0017245077
8.1101478e-06
1.9022161e-07
2.5746287e-11
1.655128e-12
3.1515707e-13
5.56459e-15
7.2010557e-15
4.9380718e-16
2.220446e-16
2.220446e-16
2.220446e-16
2.220446e-16
0.0020181815
0.0020075812
0.0019971898
0.0019869292
0.0019767923
0.0019667629
0.0019568231
0.0019469642
0.0019371829
0.0019274776
0.0019178479
0.001908294
0.0018988157
0.0018894117
0.0018800795
0.0018708132
0.0018616088
0.0018524519
0.0018433464
0.0018342656
0.0018252814
0.0018161614
0.0018080428
0.0017950097
0.0018001528
0.0019436365
0.00052952559
2.2851958e-07
8.5452054e-09
6.0402726e-11
3.0077162e-14
9.1333931e-16
8.2922843e-15
3.4622415e-15
2.220446e-16
2.220446e-16
2.220446e-16
2.220446e-16
0.0020983548
0.0020865158
0.0020748598
0.0020633295
0.0020519343
0.0020406647
0.0020295025
0.0020184385
0.002007469
0.0019965922
0.0019858076
0.0019751154
0.0019645153
0.0019540054
0.0019435834
0.0019332426
0.001922979
0.0019127756
0.0019026304
0.0018925193
0.0018824193
0.0018725138
0.0018618092
0.0018546969
0.0018483149
0.0019012403
0.0011574513
2.5101349e-05
3.5119634e-08
6.3687911e-10
1.5994599e-11
1.2907944e-14
8.6339341e-15
7.0739625e-15
3.4229715e-15
5.6895654e-16
2.220446e-16
2.220446e-16
0.0021931322
0.0021795828
0.002166332
0.002153271
0.0021403867
0.0021276597
0.0021150652
0.0021025908
0.0020902319
0.0020779862
0.0020658531
0.0020538328
0.0020419248
0.0020301273
0.0020184372
0.0020068476
0.0019953544
0.0019839404
0.0019725966
0.0019613192
0.001949962
0.0019391144
0.0019264213
0.0019215315
0.001955433
0.0014816441
0.00019828558
2.3745285e-06
4.5268867e-09
2.5693054e-11
8.7306743e-13
1.3130785e-13
4.9172781e-15
4.2921769e-15
9.7242559e-15
1.9764277e-14
7.523136e-15
2.446681e-16
0.0023033775
0.0022880222
0.0022729869
0.0022581649
0.002243549
0.0022291218
0.0022148561
0.0022007372
0.0021867595
0.0021729203
0.0021592188
0.0021456551
0.0021322287
0.0021189375
0.0021057782
0.0020927431
0.0020798273
0.0020670155
0.0020542867
0.0020416871
0.0020288467
0.002017129
0.002001697
0.0020162136
0.0019276001
0.00034741782
9.8809951e-06
5.4408374e-07
1.0726472e-11
3.4808745e-11
1.5987332e-11
5.6837186e-13
9.2351862e-14
1.7578479e-15
7.8709343e-15
2.6398692e-14
2.4081273e-14
4.6381013e-15
0.0024310255
0.002413462
0.0023963022
0.0023794099
0.0023627667
0.002346351
0.0023301316
0.002314091
0.002298223
0.0022825248
0.0022669954
0.0022516349
0.0022364428
0.002221417
0.0022065537
0.0021918445
0.0021772829
0.0021628568
0.0021485238
0.0021344413
0.002119617
0.0021089697
0.0020761698
0.0022012841
0.0011264538
0.00013123385
3.248237e-06
4.6180799e-09
3.5211088e-11
3.7374894e-11
3.7982875e-11
1.7249403e-11
8.8747475e-13
2.6337e-14
1.5142293e-15
7.49848e-15
4.0735193e-14
4.8404686e-15
0.0025774722
0.0025573616
0.0025377187
0.0025183924
0.002499361
0.0024806026
0.0024620833
0.0024437836
0.0024256969
0.0024078201
0.0023901522
0.0023726933
0.0023554428
0.0023383981
0.002321555
0.0023049042
0.0022884378
0.002272143
0.0022559764
0.0022400798
0.0022236219
0.0022101251
0.0021862477
0.0021684295
0.0023381984
0.00028248985
6.4774193e-05
1.8232764e-08
3.6768924e-11
3.7045107e-11
3.3073886e-11
4.1439833e-12
1.0468494e-13
4.3636562e-14
1.0223717e-14
4.048548e-14
4.3951881e-13
6.1180326e-15
0.0027445682
0.0027213295
0.0026986667
0.0026764022
0.0026545026
0.0026329414
0.0026116793
0.0025906937
0.0025699763
0.0025495234
0.0025293331
0.0025094049
0.0024897378
0.0024703284
0.0024511714
0.0024322565
0.0024135744
0.0023951079
0.0023768287
0.0023587878
0.0023406079
0.0023236672
0.0023035288
0.0022866715
0.0022731631
0.0023389711
0.00055922137
1.2015059e-06
7.6357471e-08
4.0747158e-11
1.6528174e-11
1.1936818e-12
7.4151148e-13
4.7690161e-13
3.128675e-13
4.4921355e-14
2.0222232e-14
1.2070537e-13
0.0029334625
0.0029064533
0.0028801424
0.0028543287
0.0028289683
0.0028040303
0.0027794707
0.0027552635
0.0027313987
0.0027078715
0.0026846788
0.0026618191
0.00263929
0.002617087
0.0025952031
0.0025736266
0.0025523461
0.0025313406
0.0025105922
0.0024900838
0.0024697612
0.0024495469
0.0024301176
0.0024069047
0.002383112
0.0024660633
0.0019162654
1.3646932e-05
3.2708633e-07
1.3073772e-09
3.3573811e-11
2.8532221e-13
1.1091868e-12
1.0821745e-12
2.432051e-13
1.0036168e-10
2.6888729e-12
7.3127187e-12
0.0031451263
0.0031135348
0.0030827876
0.0030526598
0.0030230965
0.0029940628
0.0029655103
0.00293741
0.0029097504
0.002882525
0.0028557294
0.0028293602
0.0028034135
0.0027778825
0.0027527582
0.0027280266
0.0027036735
0.0026796757
0.0026560133
0.0026326639
0.0026095604
0.0025868491
0.0025635295
0.0025418504
0.002520896
0.002575646
0.0020623477
0.00017645152
2.8359076e-07
3.383588e-08
1.4245835e-09
1.3705575e-08
2.5101926e-10
1.1054216e-12
2.3958854e-13
1.0454679e-09
3.8984272e-11
4.8848698e-11
0.0033806318
0.0033433267
0.0033070595
0.0032715807
0.0032368212
0.0032027379
0.0031692767
0.0031364043
0.0031041062
0.0030723734
0.0030411984
0.0030105753
0.0029804969
0.0029509536
0.0029219328
0.0028934175
0.0028653897
0.0028378232
0.0028106968
0.0027839699
0.0027576588
0.0027314332
0.0027068528
0.002676333
0.0026618185
0.0026279364
0.0027806918
0.00098068498
8.0395171e-06
1.9129456e-06
5.2456998e-08
1.5122561e-07
3.9069697e-09
2.0464605e-07
7.1592537e-10
1.0767837e-08
1.5007888e-08
4.8514719e-10
0.0036316791
0.0035874096
0.0035444125
0.0035024195
0.0034613488
0.0034211475
0.0033817544
0.0033431321
0.0033052621
0.0032681311
0.0032317278
0.0031960419
0.0031610621
0.0031267741
0.0030931606
0.0030602
0.0030278689
0.0029961377
0.0029649789
0.0029343551
0.0029042424
0.0028745387
0.0028454304
0.0028161655
0.0027883645
0.0027399971
0.0028822263
0.0021768053
0.00023314576
1.4999345e-05
2.8334642e-06
1.8954918e-07
3.4719533e-07
2.049613e-06
1.6981019e-08
3.5024168e-08
4.4213207e-06
9.1467982e-07
0.003880172
0.0038278331
0.0037770492
0.0037275343
0.0036791946
0.0036319656
0.0035857791
0.0035405932
0.0034963849
0.0034531357
0.0034108292
0.0033694494
0.003328979
0.0032893976
0.0032506815
0.0032128024
0.0031757299
0.0031394289
0.0031038652
0.0030689985
0.0030347914
0.0030011879
0.0029681701
0.0029355451
0.0029038182
0.0028699681
0.0028231933
0.0030175401
0.0017665248
0.00040884066
1.9704719e-05
1.4756236e-06
1.5819914e-05
2.1651282e-05
4.2832351e-06
4.9168604e-05
4.1111148e-05
6.3099838e-05
0.0041162132
0.0040548066
0.0039952739
0.0039373217
0.0038808526
0.0038257919
0.0037720653
0.0037196267
0.0036684471
0.0036185011
0.0035697644
0.0035222131
0.0034758213
0.0034305599
0.0033863956
0.0033432912
0.0033012067
0.0032600988
0.0032199245
0.0031806383
0.0031421927
0.0031045446
0.0030676043
0.0030314449
0.0029952704
0.00296272
0.0029145666
0.0029183355
0.0029584273
0.0023130449
0.0019125144
0.0017731469
0.0017633316
0.0012157375
0.00076869983
0.00069658986
0.00062393907
0.00039803188
0.004339229
0.0042675004
0.0041980461
0.0041305738
0.0040649836
0.0040011889
0.0039391067
0.0038786825
0.0038198761
0.0037626488
0.0037069633
0.0036527821
0.0036000657
0.0035487715
0.0034988529
0.0034502596
0.0034029387
0.0033568352
0.0033118954
0.0032680646
0.0032252877
0.0031835114
0.0031426559
0.0031026955
0.003063374
0.0030251833
0.0029866739
0.0029461168
0.002934775
0.0028951838
0.0028177557
0.0027028176
0.0026205468
0.002511471
0.0023569824
0.0022102353
0.0020488273
0.0016182476
0.0045491769
0.0044656111
0.004384847
0.0043066174
0.0042308137
0.0041573229
0.0040860397
0.0040168887
0.0039498057
0.0038847292
0.0038215996
0.0037603587
0.0037009472
0.0036433034
0.0035873625
0.0035330568
0.003480317
0.0034290732
0.0033792578
0.0033308042
0.0032836467
0.0032377192
0.0031929417
0.0031492432
0.0031065227
0.0030646879
0.0030238768
0.0029829291
0.0029432896
0.0029147088
0.0028885579
0.0028505007
0.0028069077
0.0027511712
0.0026977165
0.0026338502
0.0025919658
0.0023636929
0.0047463044
0.0046492209
0.004555683
0.0044654258
0.0043782963
0.0042941291
0.0042127802
0.0041341397
0.00405811
0.003984598
0.0039135153
0.0038447763
0.0037782964
0.0037139896
0.0036517682
0.0035915425
0.0035332225
0.0034767197
0.0034219493
0.0033688294
0.0033172798
0.0032672187
0.0032185563
0.0031712038
0.0031250749
0.0030800728
0.0030361936
0.0029933771
0.002951158
0.0029116135
0.0028764454
0.0028445317
0.0028119936
0.0027758809
0.0027451622
0.0027141478
0.0026938503
0.0026371433
0.00493135
0.0048191505
0.0047113365
0.0046076672
0.0045079543
0.0044119819
0.0043195648
0.004230553
0.0041448079
0.0040621973
0.0039825956
0.0039058824
0.0038319398
0.0037606506
0.0036918971
0.0036255614
0.0035615274
0.0034996828
0.0034399212
0.0033821404
0.0033262406
0.0032721203
0.0032196736
0.0031687986
0.0031194049
0.0030714172
0.0030248113
0.0029796289
0.0029358295
0.0028936784
0.0028537243
0.0028167184
0.0027821787
0.0027485722
0.0027185785
0.0026921703
0.0026711543
0.0026536775
0.0051050853
0.0049758505
0.0048519602
0.0047332293
0.0046194508
0.0045103633
0.0044057368
0.0043053725
0.0042090797
0.0041166742
0.0040279812
0.0039428332
0.0038610678
0.0037825257
0.0037070497
0.0036344855
0.0035646833
0.0034975007
0.0034328034
0.0033704631
0.0033103545
0.0032523511
0.003196326
0.0031421632
0.0030897686
0.003039081
0.0029900957
0.0029428678
0.0028974828
0.0028540577
0.002812757
0.0027738451
0.0027375714
0.0027034963
0.0026719243
0.0026433929
0.0026178063
0.002605246
0.0052674577
0.0051186384
0.0049763757
0.0048405753
0.0047110087
0.0045873512
0.0044693034
0.0043565915
0.0042489479
0.0041461141
0.0040478452
0.0039539084
0.0038640809
0.0037781471
0.0036958981
0.0036171322
0.0035416574
0.0034692933
0.0033998709
0.0033332289
0.0032692098
0.0032076569
0.0031484187
0.0030913634
0.0030363939
0.0029834613
0.0029325811
0.0028838255
0.0028373092
0.0027931412
0.002751429
0.0027122496
0.0026757435
0.002641743
0.0026102928
0.0025813976
0.0025536832
0.0025391751
0.0054179379
0.0052459741
0.0050823984
0.0049271365
0.0047798499
0.0046400773
0.0045073889
0.0043813869
0.0042616859
0.004147919
0.0040397427
0.0039368349
0.0038388911
0.0037456216
0.0036567504
0.0035720161
0.0034911737
0.0034139959
0.0033402709
0.0032697971
0.003202378
0.0031378214
0.003075948
0.0030166088
0.0029597034
0.0029051922
0.002853106
0.0028035293
0.0027565792
0.0027123538
0.0026709341
0.0026323272
0.0025965636
0.00256345
0.0025330345
0.0025051274
0.0024779498
0.0024633886
0.0055547122
0.0053556969
0.0051675411
0.0049901639
0.0048230469
0.0046655149
0.0045169411
0.0043767449
0.0042443723
0.0041193046
0.0040010629
0.0038892035
0.0037833128
0.0036830028
0.0035879106
0.0034976982
0.0034120547
0.0033306948
0.0032533543
0.0031797828
0.0031097378
0.0030429862
0.0029793168
0.0029185611
0.0028606115
0.0028054313
0.0027530566
0.0027035723
0.0026570826
0.0026136591
0.0025733448
0.0025360898
0.0025018597
0.0024703865
0.0024417276
0.0024155814
0.0023901597
0.0023772339
0.0056755321
0.0054453133
0.0052290565
0.0050266797
0.0048374481
0.0046604193
0.0044947015
0.004339469
0.0041939414
0.0040573946
0.0039291657
0.0038086469
0.0036952772
0.0035885379
0.0034879514
0.0033930817
0.0033035343
0.0032189525
0.0031390091
0.0030633949
0.0029918127
0.0029239818
0.0028596536
0.0027986337
0.0027407988
0.0026861035
0.0026345746
0.0025862823
0.0025413032
0.0024996677
0.0024613706
0.0024263032
0.0023943843
0.0023652784
0.0023390582
0.002315301
0.0022923926
0.0022816975
0.0057806357
0.005513673
0.0052646976
0.0050336604
0.0048195524
0.0046210572
0.0044369092
0.0042659276
0.0041070046
0.0039591277
0.003821377
0.0036929158
0.0035729802
0.0034608735
0.0033559661
0.0032576951
0.0031655621
0.0030791241
0.0029979787
0.0029217468
0.0028500666
0.0027826015
0.0027190566
0.0026591996
0.0026028776
0.0025500212
0.0025006333
0.002454753
0.002412417
0.0023736105
0.0023382792
0.0023062584
0.0022774306
0.0022514036
0.0022282814
0.0022075008
0.0021877569
0.0021795206
0.0058719071
0.0055597081
0.0052714618
0.0050069575
0.0047646504
0.0045425776
0.0043388648
0.0041517828
0.0039797359
0.0038212812
0.0036751268
0.0035401095
0.0034151785
0.0032993927
0.0031919225
0.003092046
0.0029991427
0.0029126729
0.0028321473
0.0027571056
0.002687111
0.0026217586
0.0025607024
0.0025036655
0.002450453
0.0024009535
0.0023551263
0.0023129609
0.0022744731
0.0022396198
0.0022082657
0.002180178
0.0021552142
0.0021329399
0.0021135267
0.0020962326
0.0020801966
0.0020746633
0.0059487264
0.005579755
0.0052438069
0.0049400928
0.0046660281
0.0044185241
0.0041947147
0.0039920139
0.0038080823
0.0036408367
0.0034884279
0.0033492115
0.0032217309
0.0031047221
0.0029971105
0.0028979985
0.0028066392
0.0027224034
0.0026447267
0.002573068
0.002506902
0.0024457287
0.0023892412
0.0023370683
0.002288884
0.002244477
0.0022037444
0.0021666514
0.0021329628
0.0021025292
0.0020752969
0.0020511021
0.0020298588
0.0020111496
0.0019951905
0.0019811822
0.0019686275
0.0019659224
0.0060063783
0.0055661563
0.0051725839
0.0048234908
0.0045144852
0.0042406642
0.0039976083
0.0037813908
0.0035885089
0.0034158787
0.0032608039
0.0031209461
0.0029943134
0.0028792648
0.0027744997
0.0026790177
0.0025919968
0.0025128543
0.0024410031
0.002375652
0.0023160716
0.0022616384
0.0022114115
0.0021649991
0.0021222142
0.002082928
0.0020470754
0.0020146402
0.0019854593
0.0019593132
0.0019361128
0.0019157088
0.0018980652
0.0018828103
0.001870217
0.001859445
0.0018503493
0.0018504894
0.0060387627
0.0055085472
0.005045083
0.0046440039
0.0042980067
0.0039992014
0.0037405448
0.003515815
0.0033195619
0.0031471037
0.0029945148
0.0028585993
0.002736877
0.002627453
0.0025292133
0.0024411705
0.0023624252
0.0022916127
0.0022275074
0.0021693604
0.0021165482
0.0020685305
0.0020244873
0.0019839175
0.0019465979
0.001912419
0.0018813372
0.0018533514
0.0018284353
0.0018064853
0.0017873885
0.0017709661
0.0017571897
0.0017457184
0.001736889
0.0017298145
0.0017246533
0.0017279516
0.0060410662
0.0054089287
0.004871366
0.0044204193
0.0040439274
0.003729103
0.0034645883
0.0032405676
0.0030488493
0.0028829157
0.0027377047
0.0026096437
0.002496291
0.0023957549
0.0023060015
0.0022257501
0.0021543538
0.0020906979
0.0020334703
0.001981768
0.001934869
0.0018922201
0.0018533162
0.0018177544
0.0017852885
0.0017557977
0.0017292356
0.0017055912
0.0016848613
0.0016669999
0.0016519335
0.0016394997
0.0016296788
0.0016221563
0.001617283
0.0016141899
0.0016130379
0.001620188
0.006022247
0.0052897683
0.0046858377
0.0041964785
0.0038020239
0.0034826033
0.0032212176
0.0030041858
0.002820866
0.0026639659
0.0025275802
0.0024073686
0.002300358
0.0022054589
0.0021212313
0.0020464443
0.0019802927
0.0019218248
0.0018698534
0.0018232489
0.0017810901
0.0017427222
0.0017077209
0.0016758158
0.0016468523
0.0016207605
0.0015975188
0.0015771201
0.0015595589
0.0015448001
0.0015327924
0.001523396
0.0015166046
0.0015121235
0.0015102992
0.0015103085
0.0015121308
0.0015229704
0.0059789717
0.0051322795
0.004462582
0.0039444315
0.0035444775
0.0032316013
0.0029814247
0.0027770738
0.0026057069
0.0024574503
0.0023272648
0.0022118945
0.002108948
0.0020176195
0.0019372249
0.0018668151
0.0018053055
0.0017515213
0.0017041973
0.0016620999
0.0016241888
0.0015897112
0.0015582279
0.0015295478
0.001503611
0.001480427
0.0014600274
0.0014424313
0.0014276369
0.0014156051
0.0014062874
0.0013995526
0.001395402
0.0013935439
0.0013943274
0.0013969525
0.0014012622
0.0014154611
0.0059059788
0.0049349426
0.0042086253
0.0036790445
0.0032894521
0.002993879
0.0027603941
0.0025665248
0.0024016812
0.0022576669
0.0021301701
0.0020168142
0.0019161177
0.0018273093
0.001749839
0.0016828985
0.0016253005
0.0015756132
0.0015323452
0.0014941239
0.0014598435
0.0014287367
0.0014003644
0.0013745829
0.0013514103
0.0013309144
0.0013131645
0.001298198
0.0012860125
0.001276557
0.0012697719
0.0012655204
0.0012638038
0.00126432
0.0012674265
0.00127233
0.0012787769
0.0012961878
0.0058019757
0.0047033681
0.0039426787
0.0034261558
0.0030618593
0.0027824688
0.002555753
0.0023639167
0.0021986186
0.002054004
0.0019261212
0.0018127235
0.0017126754
0.0016253361
0.0015500867
0.0014859794
0.0014316292
0.0013853572
0.0013454544
0.0013104292
0.0012791592
0.0012509274
0.001225357
0.0012023339
0.0011819248
0.0011642136
0.0011492625
0.0011370891
0.0011276648
0.0011209106
0.0011167475
0.0011150291
0.0011157612
0.0011186243
0.0011240008
0.0011310835
0.001139548
0.0011605844
0.005665144
0.0044563736
0.0037009535
0.0032205605
0.0028705804
0.0025890195
0.0023529995
0.0021519255
0.0019789283
0.0018286556
0.0016971157
0.0015818161
0.0014814262
0.0013951136
0.0013219574
0.0012606168
0.0012093261
0.0011661252
0.0011291637
0.0010969408
0.0010684116
0.0010429646
0.0010203056
0.0010003403
0.00098311449
0.00096866916
0.00095700418
0.00094807335
0.00094179391
0.00093804724
0.00093673706
0.00093771964
0.00094102752
0.00094632509
0.00095405466
0.00096336483
0.00097392082
0.00099940092
0.005501892
0.0042389048
0.0035322343
0.0030655379
0.0026965461
0.002384413
0.0021198472
0.0018973934
0.0017101156
0.0015510852
0.0014149468
0.0012983011
0.0011991443
0.0011159894
0.0010472079
0.00099066384
0.00094403503
0.00090512446
0.00087209078
0.00084357791
0.00081871347
0.00079701152
0.00077822851
0.00076224645
0.00074903498
0.00073854301
0.00073067827
0.0007253219
0.00072234502
0.00072160734
0.00072302168
0.00072647749
0.00073206302
0.00073943162
0.00074913149
0.00076021879
0.00077258986
0.00080221158
0.0053395162
0.0041159686
0.0034360878
0.0029240539
0.0024812628
0.0021042834
0.0017962672
0.0015496926
0.0013517906
0.0011907894
0.001058336
0.00094922889
0.00086006533
0.00078801913
0.00073025508
0.00068388654
0.00064625179
0.00061517379
0.00058905551
0.0005668356
0.00054786781
0.00053178139
0.00051834876
0.00050741084
0.00049887674
0.00049261169
0.00048846432
0.00048628942
0.00048596068
0.00048736094
0.00049044865
0.00049517564
0.00050168945
0.00050964823
0.00051971434
0.00053084092
0.00054349591
0.00057363746
0.0052289712
0.0040814788
0.0033425554
0.0026802984
0.0021060048
0.0016565736
0.0013255334
0.0010845776
0.00090575087
0.00076932126
0.00066331887
0.00058062394
0.00051639627
0.00046670089
0.00042810664
0.0003977266
0.0003733252
0.00035331751
0.00033665889
0.00032269645
0.00031103306
0.0003014201
0.0002936707
0.00028764433
0.00028323239
0.00028030041
0.00027872071
0.00027838512
0.000279212
0.00028113337
0.00028415528
0.00028827801
0.00029365627
0.00029998673
0.0003079484
0.00031649716
0.00032672746
0.0003509822
0.005143438
0.0039892317
0.0030213348
0.0021262955
0.0014610273
0.0010310909
0.00076397209
0.00059264065
0.00047585543
0.00039206707
0.00033034305
0.0002845173
0.00025040743
0.00022481805
0.00020528496
0.00019000342
0.00017774265
0.00016771311
0.00015942409
0.00015257057
0.00014696112
0.00014246035
0.00013895258
0.00013635096
0.00013457396
0.00013354164
0.00013318315
0.00013344249
0.00013428208
0.00013567366
0.00013764089
0.00014019547
0.00014344243
0.00014716596
0.00015189498
0.0001568096