/*--------------------------------*- C++ -*----------------------------------*\
  =========                 |
  \\      /  F ield         | OpenFOAM: The Open Source CFD Toolbox
   \\    /   O peration     | Website:  https://openfoam.org
    \\  /    A nd           | Version:  7
     \\/     M anipulation  |
\*---------------------------------------------------------------------------*/
FoamFile
{
    version     2.0;
    format      ascii;
    class       volScalarField;
    location    "2000";
    object      nut;
}
// * * * * * * * * * * * * * * * * * * * * * * * * * * * * * * * * * * * * * //

dimensions      [0 2 -1 0 0 0 0];

internalField   nonuniform List<scalar> 
15296
(
0.0019786479
0.0019793477
0.0019802105
0.0019812014
0.0019822928
0.0019834673
0.0019847137
0.0019860243
0.0019873928
0.0019888136
0.0019902821
0.001991794
0.0019933457
0.0019949341
0.0019965565
0.0019982106
0.0019998945
0.0020016064
0.0020033453
0.0020051106
0.0020069053
0.0020087375
0.0020106334
0.002013115
0.0020258437
0.0019762726
0.0017149228
0.0012468108
0.00080990361
0.00026162505
8.4553288e-08
0.0001697104
0.00028283067
0.00043991364
0.00068995605
0.00032273205
0.00013644594
8.4786032e-05
0.0019786572
0.0019793568
0.0019802168
0.0019812042
0.001982292
0.0019834632
0.0019847066
0.0019860146
0.0019873807
0.0019887996
0.0019902664
0.001991777
0.0019933276
0.0019949152
0.001996537
0.0019981906
0.001999874
0.0020015856
0.0020033242
0.0020050893
0.0020068843
0.002008717
0.0020106029
0.0020129581
0.0020267439
0.0019797241
0.0017211684
0.001241964
0.00081677172
0.00027083328
4.6502897e-07
0.00015848061
0.00026005505
0.00040199775
0.00063160633
0.00029377831
0.00014257221
7.6914635e-05
0.0019786779
0.0019793772
0.0019802317
0.0019812116
0.0019822919
0.0019834561
0.0019846932
0.0019859956
0.0019873569
0.0019887717
0.0019902353
0.0019917435
0.0019932924
0.0019948788
0.0019964999
0.0019981531
0.0019998364
0.0020015479
0.0020032868
0.0020050524
0.0020068487
0.0020086834
0.0020105482
0.0020125798
0.0020283868
0.0019869061
0.0017365749
0.001238304
0.00083908193
0.00033155107
6.6819993e-06
0.00013663671
0.0002178165
0.0003336329
0.00054492499
0.00028982425
0.00015439298
8.6763373e-05
0.0019787097
0.0019794091
0.0019802561
0.0019812254
0.0019822947
0.0019834484
0.001984676
0.0019859698
0.0019873235
0.001988732
0.0019901905
0.0019916947
0.0019932409
0.0019948255
0.0019964456
0.0019980983
0.0019997816
0.0020014935
0.002003233
0.0020049997
0.0020067983
0.0020086362
0.0020104688
0.0020119234
0.0020294953
0.0019974897
0.0017552961
0.001228895
0.00086125542
0.00042852927
2.4801437e-05
0.0001097947
0.00017081826
0.00025994948
0.00048641432
0.00031836495
0.00017339047
0.00014604455
0.0019787525
0.0019794527
0.0019802908
0.0019812467
0.0019823014
0.0019834408
0.0019846549
0.0019859363
0.0019872789
0.0019886778
0.0019901283
0.0019916263
0.0019931678
0.0019947493
0.0019963675
0.0019980194
0.0019997026
0.002001415
0.0020031556
0.002004924
0.0020067256
0.002008568
0.0020103591
0.002010937
0.0020296563
0.0020122644
0.0017807942
0.0012490952
0.00087505373
0.00056476434
5.4543612e-05
8.5064665e-05
0.00012856092
0.00018957489
0.00046699279
0.00043536254
0.00020811795
0.00016010027
0.0019788222
0.0019795249
0.0019803511
0.0019812877
0.00198232
0.0019834366
0.0019846288
0.0019858893
0.0019872127
0.0019885943
0.0019900301
0.001991516
0.0019930482
0.0019946231
0.0019962369
0.0019978866
0.0019995689
0.0020012818
0.0020030241
0.002004795
0.002006601
0.0020084509
0.0020101906
0.0020093822
0.002028524
0.0020373337
0.001808556
0.001342029
0.00098224048
0.00084850381
0.00011228404
6.5725867e-05
8.9523129e-05
0.00011978113
0.00043013352
0.00080878858
0.0003289442
0.0002146759
0.0019789394
0.0019796497
0.0019804656
0.0019813809
0.0019823862
0.0019834737
0.0019846365
0.0019858682
0.001987164
0.00198852
0.0019899328
0.0019913991
0.0019929154
0.0019944781
0.0019960833
0.0019977276
0.0019994069
0.0020011191
0.0020028624
0.0020046357
0.0020064459
0.002008305
0.0020100109
0.0020076082
0.00202613
0.0020617503
0.001809856
0.0013944481
0.0011432381
0.0013212716
0.00018032816
7.0965817e-05
6.4286546e-05
6.623647e-05
0.0003484781
0.00086265886
0.00055423018
0.00035088623
0.0019791093
0.0019798323
0.0019806431
0.0019815394
0.0019825173
0.0019835731
0.001984702
0.0019858992
0.0019871605
0.001988483
0.0019898645
0.0019913026
0.0019927948
0.0019943378
0.001995928
0.0019975616
0.0019992341
0.0020009427
0.0020026853
0.0020044595
0.0020062723
0.00200814
0.002009866
0.0020058564
0.002023059
0.00207474
0.00176659
0.0013787652
0.0011878248
0.0020502315
0.00023292915
8.712245e-05
5.879906e-05
3.1281847e-05
0.0002829255
0.00071153455
0.00097538805
0.00053271514
0.0019793505
0.0019800922
0.0019809042
0.0019817853
0.0019827369
0.0019837593
0.0019848505
0.001986007
0.001987226
0.0019885055
0.0019898448
0.0019912431
0.0019926992
0.0019942111
0.001995776
0.0019973902
0.0019990487
0.0020007484
0.0020024865
0.0020042588
0.0020060711
0.002007943
0.0020097827
0.0020041578
0.0020191223
0.002080613
0.0015757188
0.0013117993
0.0011347881
0.0029802532
0.00027502561
9.7756424e-05
5.5904532e-05
3.4903973e-06
0.00025199831
0.00051814149
0.00098187543
0.000632077
0.0019796878
0.0019804561
0.0019812751
0.0019821463
0.0019830747
0.0019840641
0.001985115
0.001986226
0.001987395
0.0019886215
0.001989906
0.0019912499
0.0019926542
0.001994119
0.0019956431
0.0019972239
0.0019988564
0.0020005376
0.0020022635
0.0020040281
0.0020058351
0.0020076975
0.0020097875
0.0020027491
0.0020128716
0.0020737234
0.0010674227
0.0011011951
0.001067323
0.0039198769
0.0003184321
9.2818049e-05
4.0109614e-05
1.3769499e-06
0.00020474481
0.00044757372
0.00078970547
0.00053331602
0.0019801568
0.0019809593
0.0019817902
0.0019826576
0.001983568
0.001984527
0.0019855377
0.0019866002
0.0019877137
0.0019888782
0.0019900957
0.0019913694
0.0019927031
0.0019941002
0.0019955623
0.0019970892
0.001998677
0.0020003237
0.0020020245
0.0020037708
0.0020055646
0.002007387
0.0020098886
0.0020022502
0.0020034655
0.0020637092
0.00047236134
0.00065024016
0.0010088262
0.0042940672
0.00042089481
6.3625586e-05
1.2535431e-05
9.466827e-07
0.00013346608
0.00058573816
0.00031612556
0.00026531987
0.0019808126
0.0019816462
0.0019824951
0.0019833643
0.0019842623
0.0019851956
0.0019861687
0.0019871831
0.0019882387
0.0019893357
0.0019904763
0.001991665
0.0019929086
0.0019942141
0.0019955875
0.0019970327
0.0019985493
0.0020001364
0.0020017904
0.0020035004
0.0020052692
0.0020069959
0.0020100391
0.0020038525
0.0020035725
0.0025182997
0.00014298518
0.00022469278
0.00085622679
0.0038041959
0.0027459894
2.0016222e-05
1.5884494e-06
4.7386617e-07
7.8710655e-05
0.0022552395
1.3894082e-05
4.1624463e-05
0.0019817162
0.0019825829
0.0019834505
0.001984325
0.001985216
0.001986129
0.0019870689
0.0019880384
0.0019890377
0.0019900662
0.001991125
0.0019922183
0.0019933544
0.0019945439
0.0019957981
0.0019971269
0.0019985362
0.0020000272
0.0020016011
0.0020032453
0.0020049719
0.0020065171
0.0020101063
0.0020100002
0.0021350572
0.0056964708
3.5938606e-05
4.5095741e-05
0.00044061181
0.0013960583
0.0017277179
3.2628498e-06
9.3576509e-08
1.9850705e-07
5.2769786e-05
0.00038216839
2.7521912e-08
2.0139589e-09
0.0019829565
0.0019838578
0.0019847385
0.0019856197
0.0019865067
0.0019874036
0.0019883151
0.0019892445
0.0019901923
0.0019911565
0.0019921354
0.0019931305
0.0019941487
0.0019952022
0.0019963071
0.0019974801
0.0019987363
0.0020000825
0.0020015284
0.0020030611
0.0020047212
0.0020059729
0.00200991
0.0020298069
0.0042611305
0.001602492
5.7888725e-06
4.1424519e-06
0.00012068363
0.00018320046
0.00023325752
1.3988877e-07
3.7026689e-09
1.4243154e-07
0.00037810037
1.249273e-05
9.3712906e-10
1.4751856e-11
0.0019846779
0.0019855773
0.0019864703
0.0019873556
0.0019882377
0.0019891193
0.0019900046
0.0019908975
0.0019917992
0.0019927067
0.0019936146
0.001994519
0.0019954209
0.0019963299
0.0019972636
0.001998245
0.0019992992
0.0020004437
0.0020016982
0.0020030549
0.0020046154
0.0020054611
0.0020095259
0.0021154059
0.029323185
0.00015012149
1.1135945e-07
7.7839537e-08
1.0400158e-05
1.9894077e-05
1.2633169e-07
9.9653925e-11
6.3756903e-12
3.9879002e-08
4.5568352e-05
6.6960003e-08
5.9950016e-12
2.2263571e-17
0.0019874529
0.0019883391
0.00198923
0.0019901091
0.0019909767
0.0019918341
0.0019926845
0.0019935324
0.0019943806
0.0019952267
0.0019960625
0.0019968756
0.0019976563
0.0019984038
0.0019991304
0.0019998613
0.0020006313
0.0020014746
0.0020024235
0.0020034818
0.0020048754
0.0020051594
0.0020109074
0.0027466844
0.054625519
4.1282203e-06
2.1892635e-10
3.1006988e-11
2.2945202e-08
1.086105e-06
1.3319515e-10
1.1909525e-15
1.658306e-12
1.4384547e-10
5.1374752e-07
9.2916678e-10
5.4389303e-14
1.3540884e-19
0.0019917668
0.0019926366
0.0019934925
0.0019943313
0.0019951552
0.0019959634
0.0019967568
0.0019975397
0.0019983163
0.0019990867
0.0019998424
0.0020005655
0.0020012343
0.002001833
0.0020023608
0.0020028366
0.0020032981
0.0020037917
0.0020043668
0.0020050342
0.002006199
0.002005685
0.0020258973
0.009468495
0.057607953
3.9543164e-08
8.8913233e-12
5.5874689e-16
1.8713556e-13
5.7243599e-09
9.1047609e-13
8.4032502e-18
4.9839239e-14
1.5624461e-12
6.8242681e-10
7.4057602e-14
5.9266363e-17
1.1747949e-24
0.0019974804
0.0019982755
0.0019990556
0.0019998165
0.0020005617
0.0020012891
0.002001998
0.0020026913
0.0020033741
0.0020040496
0.0020047121
0.0020053429
0.0020059127
0.0020063912
0.0020067603
0.0020070237
0.002007212
0.002007374
0.0020075702
0.0020078174
0.0020087111
0.0020073654
0.0020775301
0.0092258856
2.2785409e-05
8.0307878e-09
2.0983013e-13
7.9387754e-18
5.3227966e-15
3.4830805e-13
1.4597197e-18
3.5031906e-24
2.1416604e-17
6.4315609e-17
5.6909961e-12
2.1575301e-14
1.6778477e-19
3.2921074e-25
0.002004844
0.0020054952
0.0020061481
0.002006786
0.0020074101
0.0020080173
0.0020086053
0.0020091756
0.0020097332
0.0020102834
0.0020108254
0.0020113448
0.0020118107
0.0020121825
0.0020124245
0.0020125193
0.0020124797
0.0020123453
0.0020121771
0.0020119884
0.0020125391
0.0020110512
0.0021846334
0.0071137733
1.1477389e-06
3.5533876e-11
9.1601045e-16
2.256623e-18
1.3182844e-17
1.4553277e-18
5.0078259e-23
3.2094773e-25
9.1762652e-25
1.3248788e-20
1.2269303e-12
1.1080324e-18
2.0791395e-21
8.4189858e-25
0.0020140481
0.0020145154
0.0020149893
0.0020154527
0.0020159075
0.0020163496
0.002016775
0.0020171833
0.0020175783
0.0020179663
0.0020183512
0.0020187255
0.0020190635
0.0020193215
0.0020194503
0.0020194103
0.0020191899
0.0020188067
0.0020183168
0.002017691
0.0020178377
0.0020155681
0.0020522084
0.0057500831
0.0064668455
3.4803867e-10
2.9787428e-15
5.3283638e-19
3.5930259e-17
2.2280053e-18
3.1947471e-21
5.4043476e-24
1.1512691e-23
2.3309629e-20
4.0393544e-16
1.1441835e-17
4.685982e-21
5.0710538e-24
0.002025276
0.0020255064
0.002025751
0.002025991
0.0020262295
0.0020264614
0.0020266811
0.0020268868
0.0020270802
0.0020272671
0.0020274543
0.0020276422
0.0020278139
0.0020279308
0.0020279381
0.0020277784
0.0020274146
0.0020268336
0.0020260777
0.0020250747
0.0020246898
0.0020222029
0.0020266317
0.0038903716
0.0060168255
1.9893647e-07
8.191223e-11
6.865493e-18
7.4488439e-17
1.0274349e-17
1.6183749e-20
1.0820904e-22
3.9185758e-22
6.6556975e-19
8.7387789e-18
1.5275181e-23
5.923508e-21
5.7491839e-23
0.0020386255
0.0020385564
0.0020385239
0.0020384984
0.0020384792
0.0020384598
0.0020384329
0.002038396
0.0020383496
0.0020382977
0.0020382482
0.0020382069
0.0020381675
0.0020381015
0.0020379577
0.0020376697
0.0020371794
0.0020364423
0.0020354721
0.0020341999
0.0020331662
0.0020308222
0.0020361399
0.0020683534
0.0042033668
0.0046789963
2.7241475e-10
1.6896004e-13
7.9378024e-17
2.7269916e-17
2.8432374e-18
1.3864813e-21
5.0142163e-21
8.2593821e-21
1.6114851e-23
1.3845479e-24
4.3449985e-22
7.2365139e-22
0.002054016
0.0020536244
0.0020532856
0.0020529605
0.0020526475
0.0020523397
0.0020520293
0.0020517135
0.0020513922
0.0020510681
0.0020507478
0.0020504398
0.0020501462
0.002049851
0.0020495134
0.0020490678
0.0020484442
0.0020475729
0.0020464303
0.002044973
0.0020433611
0.0020412041
0.002050998
0.0019283753
0.0034926309
0.00020751016
1.2853307e-06
2.131225e-12
2.019792e-13
1.0481867e-14
2.3369571e-18
8.8724608e-21
1.2392033e-19
7.1831733e-20
4.7386385e-24
1.5785453e-28
1.7276842e-24
4.2160792e-25
0.0020712275
0.0020705151
0.0020698477
0.0020691937
0.0020685565
0.0020679309
0.0020673081
0.0020666852
0.0020660618
0.0020654394
0.0020648228
0.0020642205
0.0020636396
0.0020630751
0.0020624996
0.0020618567
0.0020610745
0.002060068
0.0020587812
0.0020571758
0.0020551361
0.0020545481
0.0020518027
0.0020608061
0.0035827396
0.004199037
9.1809912e-06
4.7194601e-09
2.9028526e-13
1.7523409e-16
1.7480092e-15
7.5015618e-21
1.6895569e-22
3.4772904e-24
4.2339901e-26
1.9618729e-29
1.5660281e-28
3.9493436e-26
0.0020899035
0.0020887939
0.0020877645
0.0020867642
0.0020857895
0.0020848324
0.002083883
0.0020829376
0.0020819965
0.0020810608
0.0020801337
0.0020792221
0.0020783346
0.002077474
0.002076626
0.0020757475
0.0020747734
0.0020736144
0.0020721911
0.0020704755
0.0020679607
0.0020690571
0.0020544273
0.0026420754
0.0039329716
1.6390366e-05
2.209315e-07
9.8662181e-11
2.2083535e-15
6.7594179e-19
9.0981598e-18
2.9042495e-20
4.4001069e-20
9.7586468e-24
1.0921734e-24
4.8724694e-25
1.7634341e-24
1.6773874e-24
0.0021091671
0.0021076956
0.002106313
0.0021049665
0.0021036522
0.0021023617
0.0021010832
0.0020998123
0.0020985495
0.0020972964
0.0020960553
0.0020948311
0.0020936319
0.002092464
0.0020913235
0.0020901813
0.0020889843
0.0020876494
0.0020860771
0.0020843395
0.0020802613
0.0020935647
0.0020466411
0.0032780407
5.2373019e-05
5.096389e-07
2.1598613e-09
3.0515704e-12
5.6934217e-19
2.619903e-20
8.6675333e-19
1.2074983e-20
5.8133626e-20
4.0020074e-21
8.0297093e-24
6.7211411e-24
4.552887e-23
1.5557849e-22
0.0021278834
0.0021260974
0.0021244017
0.0021227386
0.0021211047
0.0021194937
0.0021178947
0.002116304
0.0021147235
0.002113156
0.0021116044
0.0021100723
0.0021085657
0.0021070922
0.0021056538
0.0021042338
0.0021027924
0.0021012603
0.0020995178
0.0020978682
0.002092463
0.0020785043
0.0030718579
0.00040194781
6.5451464e-06
1.631405e-07
1.4090828e-10
6.4513885e-15
2.8036523e-19
2.168722e-21
2.3521112e-20
3.5811135e-20
5.3973437e-20
5.9087615e-21
1.3301977e-21
1.9618627e-23
6.361762e-22
4.6649497e-20
0.0021448788
0.0021427519
0.0021407228
0.0021387301
0.0021367692
0.0021348342
0.0021329139
0.0021310047
0.0021291092
0.0021272315
0.002125375
0.0021235427
0.0021217388
0.0021199694
0.0021182394
0.0021165407
0.0021148463
0.0021131004
0.002111191
0.0021093843
0.0021026301
0.002138384
0.0019544581
0.0028991483
0.00014499087
2.6565282e-07
2.0895653e-09
2.1652472e-14
2.159272e-19
1.4795855e-20
4.4595372e-20
1.2892892e-19
3.8288154e-20
9.2344541e-20
7.9575948e-20
1.081288e-21
1.0025544e-19
5.6398958e-21
0.0021582491
0.0021557449
0.0021533555
0.0021510138
0.0021487122
0.0021464439
0.0021441971
0.0021419674
0.0021397577
0.0021375729
0.0021354171
0.002133293
0.0021312032
0.0021291515
0.0021271428
0.002125174
0.0021232287
0.0021212616
0.0021191887
0.0021171202
0.0021107794
0.0021569917
0.0018822878
0.002927141
0.0013965089
0.00013393962
1.1830882e-06
9.2536437e-11
2.6241649e-14
6.6125522e-20
1.0668376e-19
1.2463769e-18
2.2356639e-18
1.3834039e-18
3.2745782e-17
7.4404052e-19
1.2507156e-20
4.6120669e-19
0.0021651955
0.0021623426
0.0021596103
0.0021569307
0.0021542956
0.0021516995
0.0021491309
0.002146586
0.0021440681
0.0021415831
0.0021391362
0.0021367305
0.0021343675
0.0021320487
0.0021297774
0.0021275529
0.0021253657
0.0021231801
0.0021209363
0.0021185879
0.0021153348
0.0021193579
0.0020903912
0.0019449831
0.0028637918
0.00077099702
2.6526205e-05
7.6439513e-10
7.9139516e-13
4.2772326e-16
8.4373917e-17
2.465517e-18
7.0933706e-18
1.0057322e-18
2.8043263e-18
2.0722909e-14
7.7298523e-17
1.9796877e-15
0.0021624097
0.0021592346
0.0021561781
0.0021531741
0.0021502155
0.002147299
0.0021444149
0.0021415603
0.00213874
0.002135961
0.0021332299
0.0021305506
0.0021279241
0.0021253503
0.0021228306
0.0021203642
0.0021179455
0.0021155476
0.0021131221
0.0021106026
0.0021078197
0.0021091536
0.0020356537
0.0022771407
0.0028490822
0.00076967138
3.095871e-05
1.2686618e-07
6.419103e-12
8.2562871e-14
3.0774808e-14
7.4602666e-09
6.450929e-15
1.7265566e-19
1.0983502e-18
1.0715455e-13
1.1261537e-14
2.5558868e-14
0.0021461274
0.0021426018
0.0021391923
0.0021358378
0.0021325327
0.0021292753
0.0021260578
0.0021228783
0.0021197424
0.0021166586
0.0021136344
0.0021106746
0.0021077801
0.0021049497
0.0021021827
0.0020994777
0.0020968298
0.0020942171
0.0020916004
0.0020889076
0.002086067
0.0020829674
0.002092996
0.001857635
0.0028136532
0.0028381541
0.00021383994
3.4464382e-06
9.111177e-10
1.8359473e-11
2.962395e-12
1.3284664e-10
5.9509417e-13
3.5960591e-12
9.7802138e-15
2.3890338e-12
1.6509937e-11
3.1612058e-14
0.0021128095
0.0021088929
0.0021050862
0.0021013381
0.0020976462
0.0020940105
0.0020904249
0.0020868885
0.002083408
0.002079993
0.002076652
0.0020733905
0.0020702093
0.0020671067
0.0020640808
0.002061129
0.002058245
0.0020554077
0.0020525788
0.0020496943
0.0020466762
0.0020433685
0.0020424319
0.0020194486
0.0019340533
0.0027710036
0.0030248991
2.8080418e-05
2.2405189e-07
3.5309627e-09
1.5551924e-09
6.7441114e-10
8.9692501e-10
3.3793795e-10
6.0438183e-13
1.1699888e-11
2.1444473e-08
7.9761337e-10
0.0020627451
0.002058451
0.0020542445
0.0020500903
0.0020459926
0.002041956
0.0020379772
0.0020340577
0.0020302061
0.0020264341
0.002022752
0.002019166
0.0020156775
0.0020122847
0.0020089849
0.0020057743
0.0020026441
0.001999571
0.0019965136
0.0019934084
0.0019901763
0.0019867224
0.0019832097
0.0019785389
0.0019651683
0.0019278817
0.002726489
0.0030444609
1.4230586e-05
1.1185213e-06
8.8180785e-08
1.8944421e-08
2.060294e-07
3.1330018e-08
7.143256e-09
1.4603623e-07
4.7566579e-07
5.2470371e-07
0.0019994031
0.0019946497
0.0019899658
0.0019853352
0.0019807697
0.0019762781
0.0019718591
0.0019675149
0.0019632557
0.0019590949
0.0019550439
0.0019511096
0.0019472933
0.0019435927
0.0019400044
0.0019365229
0.0019331361
0.0019298172
0.001926521
0.0019231827
0.0019197225
0.0019160655
0.0019121302
0.0019080161
0.0019011045
0.0019103735
0.0017347714
0.0027057954
0.001368481
5.4749911e-05
0.00010202489
0.0014505098
0.00032765841
1.6124814e-05
1.1788417e-05
0.00034818336
5.8740992e-05
0.00015424053
0.0019244671
0.0019192037
0.0019139927
0.001908841
0.0019037697
0.0018987918
0.0018939069
0.0018891169
0.0018844327
0.0018798687
0.0018754373
0.0018711455
0.0018669942
0.0018629804
0.0018590992
0.001855343
0.0018516963
0.0018481284
0.0018445904
0.0018410161
0.0018373281
0.0018334545
0.0018293196
0.0018249148
0.0018197679
0.0018177068
0.0017962077
0.0018139186
0.0024474306
0.0027308123
0.0028248366
0.0028813531
0.0023966567
0.0030986919
0.003192392
0.003234771
0.00021273297
8.2940251e-05
0.0018397583
0.0018339515
0.0018281837
0.0018224896
0.0018168985
0.0018114266
0.0018060717
0.0018008336
0.0017957229
0.0017907549
0.001785943
0.0017812942
0.0017768092
0.001772484
0.0017683121
0.0017642835
0.001760379
0.0017565639
0.0017527862
0.0017489785
0.0017450663
0.0017409806
0.0017366585
0.0017320633
0.0017271759
0.0017217517
0.0017195973
0.0016956756
0.0016875732
0.0022137672
0.0026430317
0.0027673221
0.0023996544
0.0031281591
0.0034005984
0.0037413135
0.000692956
0.00024077512
0.0017474146
0.0017410381
0.0017346795
0.001728408
0.0017222661
0.0017162742
0.0017104273
0.0017047224
0.0016991695
0.0016937848
0.0016885826
0.0016835703
0.0016787479
0.0016741102
0.0016696488
0.0016653506
0.0016611922
0.0016571349
0.0016531232
0.001649089
0.00164496
0.0016406707
0.001636167
0.0016314164
0.001626421
0.0016211082
0.0016161266
0.0016094598
0.001596703
0.0016212112
0.0016806374
0.001754744
0.0016711417
0.0016619683
0.0022870194
0.0027682335
0.0021218969
0.0011751105
0.0016499166
0.0016426287
0.001635462
0.0016284767
0.0016216983
0.0016151325
0.0016087581
0.0016025619
0.0015965504
0.0015907388
0.0015851416
0.0015797659
0.0015746104
0.0015696682
0.0015649283
0.0015603738
0.0015559769
0.0015516943
0.001547467
0.0015432257
0.0015388997
0.0015344269
0.0015297601
0.0015248751
0.0015197788
0.0015144831
0.0015090646
0.0015036811
0.0014975102
0.0014930255
0.0014917203
0.0014990228
0.0014925865
0.0014715004
0.0015229251
0.0016515957
0.0018219324
0.002004548
0.0015462313
0.0015386603
0.0015310705
0.0015235953
0.0015163116
0.0015092514
0.0015024001
0.0014957482
0.0014893062
0.0014830936
0.0014771275
0.0014714161
0.0014659574
0.0014607426
0.001455758
0.0014509828
0.0014463845
0.0014419149
0.0014375118
0.0014331045
0.0014286231
0.001424009
0.0014192207
0.0014142426
0.0014090903
0.0014037994
0.0013984347
0.0013931621
0.0013880259
0.0013832077
0.0013788798
0.0013759791
0.0013749585
0.0013696141
0.0013660642
0.0013845077
0.0014274954
0.0015588416
0.0014412536
0.0014324936
0.0014239299
0.0014156494
0.0014076944
0.0014000633
0.0013927107
0.0013856093
0.0013787616
0.0013721844
0.0013658936
0.0013598958
0.0013541869
0.0013487552
0.0013435832
0.001338646
0.0013339063
0.0013293116
0.0013247963
0.0013202884
0.0013157192
0.0013110325
0.0013061927
0.0013011922
0.0012960563
0.0012908371
0.0012856183
0.0012805539
0.0012757663
0.001271388
0.0012675457
0.0012644156
0.0012625431
0.0012612745
0.0012599039
0.0012625032
0.0012655478
0.0013061301
0.0013315879
0.0013224598
0.0013134711
0.0013047488
0.0012963732
0.0012883521
0.0012806354
0.0012731948
0.0012660359
0.0012591794
0.0012526448
0.0012464398
0.0012405593
0.0012349893
0.0012297092
0.0012246901
0.0012198903
0.0012152535
0.0012107116
0.0012061917
0.0012016261
0.0011969614
0.0011921671
0.0011872435
0.0011822253
0.0011771775
0.0011721984
0.0011674388
0.001163028
0.0011590988
0.0011557698
0.00115319
0.0011515074
0.0011509083
0.0011511651
0.0011533446
0.0011528572
0.0011726909
0.0012218712
0.0012118983
0.0012022085
0.0011928927
0.001184023
0.0011755856
0.0011675088
0.0011597545
0.0011523256
0.0011452444
0.0011385316
0.0011321941
0.0011262244
0.0011206044
0.0011153087
0.0011103031
0.0011055412
0.001100963
0.0010964982
0.0010920739
0.0010876232
0.0010830957
0.0010784662
0.0010737413
0.0010689636
0.0010642077
0.0010595794
0.0010552252
0.0010512715
0.001047843
0.0010450439
0.0010429998
0.0010417958
0.0010415838
0.001042328
0.0010448248
0.00104492
0.001061765
0.0011121905
0.0011013484
0.0010908976
0.0010809245
0.0010715176
0.0010626444
0.0010542114
0.0010461699
0.0010385197
0.0010312817
0.0010244752
0.0010181033
0.0010121524
0.0010065965
0.0010014024
0.00099652865
0.00099192304
0.00098752221
0.00098325477
0.00097904828
0.00097483818
0.00097057773
0.00096624658
0.00096185656
0.00095745541
0.00095312273
0.00094896692
0.00094512615
0.00094171843
0.00093885277
0.00093661898
0.00093511532
0.00093440791
0.0009345997
0.00093566823
0.00093833298
0.00093887819
0.00095455332
0.0010030955
0.00099112712
0.00097978194
0.00096910346
0.00095917164
0.00094991568
0.00094121001
0.00093298841
0.00092524074
0.00091798405
0.00091123287
0.00090498244
0.00089920806
0.00089387198
0.00088892928
0.00088432954
0.00088001542
0.00087592261
0.00087198081
0.0008681211
0.00086428463
0.00086043103
0.00085654536
0.00085263973
0.00084876654
0.00084500794
0.00084146813
0.0008382698
0.00083551513
0.00083329044
0.00083169316
0.00083078995
0.00083062287
0.00083125366
0.00083266542
0.0008354959
0.00083641685
0.00085095125
0.00089385828
0.00088090588
0.00086880997
0.00085758044
0.00084729197
0.00083783026
0.00082903786
0.00082083163
0.00081319218
0.00080612872
0.00079964549
0.00079372351
0.0007883215
0.00078338525
0.00077885567
0.00077467507
0.0007707869
0.00076713291
0.00076364638
0.00076027026
0.00075695848
0.00075367604
0.00075041066
0.00074716155
0.00074401099
0.0007410328
0.00073830454
0.00073591692
0.00073395377
0.0007324905
0.00073159061
0.00073127193
0.00073156596
0.00073252315
0.00073414935
0.00073701254
0.00073810642
0.00075160851
0.00078562407
0.00077163159
0.00075884833
0.00074720368
0.00073673346
0.00072726275
0.00071859959
0.00071064135
0.00070335371
0.00069672993
0.00069075444
0.00068538315
0.00068054917
0.00067618242
0.00067221123
0.00066858526
0.00066526012
0.00066218874
0.00065930132
0.00065658925
0.00065401771
0.00065153096
0.00064912537
0.00064677872
0.00064453589
0.0006424129
0.00064046331
0.00063876982
0.00063734423
0.00063623379
0.00063547908
0.00063514449
0.00063529264
0.000635998
0.00063726721
0.00063967278
0.00064042811
0.00065290698
0.00067910677
0.00066429162
0.00065096525
0.00063903992
0.00062854262
0.00061925336
0.00061095235
0.00060350872
0.00059685515
0.00059094543
0.00058572661
0.00058111763
0.00057703139
0.00057339064
0.00057010764
0.0005671973
0.0005646228
0.0005623436
0.00056030135
0.00055844852
0.00055669442
0.00055497224
0.00055313925
0.00054817063
0.00054129354
0.00053486422
0.00052899995
0.00052381911
0.00051937717
0.00051574287
0.00051304136
0.00051142947
0.00051083868
0.00051165767
0.000513124
0.00051758509
0.00051880063
0.00052681852
0.00057621285
0.00056016886
0.00054609212
0.00053387636
0.00052350606
0.00051467603
0.00050709668
0.00050055695
0.00049491252
0.00049004185
0.00048584753
0.00048220485
0.00047904358
0.00047628905
0.00047388141
0.00047180402
0.00046998323
0.00046726137
0.00045798511
0.00044907558
0.00044061699
0.0004326648
0.00042517142
0.00041812411
0.00041152969
0.0004053987
0.00039976511
0.00039468265
0.00039020737
0.0003864036
0.00038334578
0.00038114118
0.0003797734
0.0003795524
0.0003799542
0.00038289552
0.00038331024
0.00039149561
0.00048929357
0.00047180137
0.00045704175
0.00044483676
0.00043504742
0.00042721856
0.00042090029
0.00041572065
0.00041142365
0.00040780643
0.00040476243
0.0004021532
0.00039984367
0.00039767841
0.00038831027
0.00037766553
0.00036753713
0.00035801089
0.00034907687
0.0003406338
0.00033260823
0.00032497411
0.00031770472
0.00031086381
0.00030450709
0.000298634
0.00029324716
0.00028836449
0.00028400058
0.00028020561
0.0002770313
0.00027454831
0.00027277201
0.00027191353
0.000271685
0.00027342992
0.00027344058
0.00028145013
0.00042238526
0.00040429487
0.00038945613
0.00037779508
0.00036906683
0.00036260678
0.00035773597
0.00035392777
0.00035084475
0.00034829197
0.0003459773
0.00033586053
0.00032290607
0.00031050056
0.00029884726
0.00028791836
0.00027768264
0.00026809712
0.00025929134
0.00025112545
0.00024346226
0.00023621742
0.0002293516
0.0002228646
0.00021678004
0.00021112558
0.00020592639
0.00020120697
0.00019699037
0.00019329594
0.00019016768
0.00018765367
0.00018578546
0.00018468788
0.00018425366
0.00018526743
0.00018537848
0.00019262741
0.00036160462
0.00034281425
0.00032839289
0.00031809443
0.00031127534
0.00030683383
0.00030373333
0.00030139974
0.00029692501
0.00028189235
0.00026731068
0.00025334478
0.00023998547
0.00022729469
0.00021564785
0.0002050528
0.0001953844
0.00018651197
0.00017835189
0.00017081835
0.0001638294
0.00015732207
0.00015126106
0.00014563366
0.00014043948
0.00013568531
0.0001313798
0.0001275306
0.00012414748
0.00012123614
0.00011880432
0.00011687425
0.00011547185
0.00011465423
0.00011441413
0.00011510897
0.00011555459
0.0001209561
0.00030609735
0.00028750958
0.00027455738
0.00026682632
0.00026280259
0.00026067845
0.00025585876
0.00023855264
0.00022220523
0.00020663189
0.00019174433
0.00017791062
0.00016522912
0.00015364681
0.00014318269
0.00013382642
0.00012550203
0.00011809241
0.00011146934
0.00010551692
0.00010014017
9.526733e-05
9.0848393e-05
8.6852885e-05
8.3261223e-05
8.0058552e-05
7.7232539e-05
7.4772239e-05
7.2667667e-05
7.0913429e-05
6.9502357e-05
6.8435588e-05
6.7726588e-05
6.7395002e-05
6.7464297e-05
6.8066184e-05
6.8700693e-05
7.2204057e-05
0.00025680213
0.00023893657
0.0002293259
0.00022574492
0.00022482481
0.00020834552
0.00018922952
0.00017135661
0.00015472902
0.00013972663
0.00012616963
0.00011401462
0.0001032649
9.3880877e-05
8.5776751e-05
7.8835268e-05
7.2910492e-05
6.7844273e-05
6.3484681e-05
5.9700848e-05
5.6389787e-05
5.3475822e-05
5.090535e-05
4.8641767e-05
4.6660698e-05
4.4942761e-05
4.3471734e-05
4.2233727e-05
4.1216729e-05
4.041132e-05
3.9811763e-05
3.9414921e-05
3.9228373e-05
3.9257505e-05
3.9527408e-05
4.0080737e-05
4.0715302e-05
4.292454e-05
0.00021246259
0.00019865186
0.0001955694
0.00019613733
0.00017170164
0.0001497318
0.00012992656
0.00011271429
9.7834552e-05
8.5128248e-05
7.438127e-05
6.5361104e-05
5.7853099e-05
5.1657847e-05
4.6581994e-05
4.2437399e-05
3.9046903e-05
3.6252908e-05
3.3923959e-05
3.1957467e-05
3.0278381e-05
2.8834575e-05
2.7590599e-05
2.6522279e-05
2.5613635e-05
2.485218e-05
2.4227412e-05
2.3730358e-05
2.335351e-05
2.3090737e-05
2.2938887e-05
2.2896906e-05
2.2970576e-05
2.3160919e-05
2.348737e-05
2.3963963e-05
2.4495156e-05
2.594964e-05
0.00017452263
0.00017063098
0.00017578047
0.00014559475
0.00011978656
9.7958018e-05
8.0053591e-05
6.5797034e-05
5.4623079e-05
4.5895362e-05
3.9060555e-05
3.3690098e-05
2.9466704e-05
2.6151452e-05
2.3554802e-05
2.1500952e-05
1.9868011e-05
1.8553061e-05
1.7476789e-05
1.6582093e-05
1.5830086e-05
1.5195389e-05
1.4661467e-05
1.4217176e-05
1.3855228e-05
1.3569675e-05
1.3355182e-05
1.3207083e-05
1.3121546e-05
1.3095437e-05
1.3127572e-05
1.3218086e-05
1.3371497e-05
1.3587022e-05
1.3878048e-05
1.4249787e-05
1.4645549e-05
1.5637751e-05
0.00014596242
0.00016196674
0.00013069269
9.8713479e-05
7.4159301e-05
5.5805063e-05
4.2648561e-05
3.3388885e-05
2.6825323e-05
2.2074984e-05
1.8556854e-05
1.5907589e-05
1.3895894e-05
1.23633e-05
1.1191714e-05
1.0288503e-05
9.5817476e-06
9.0181245e-06
8.5602105e-06
8.1831076e-06
7.870986e-06
7.6140042e-06
7.405739e-06
7.2417062e-06
7.1190787e-06
7.0349104e-06
6.9864055e-06
6.9711812e-06
6.9873987e-06
7.0336021e-06
7.1097637e-06
7.2164368e-06
7.3568744e-06
7.5295511e-06
7.7429496e-06
7.9994074e-06
8.261591e-06
8.9228972e-06
0.00013482731
0.0001297017
8.6079093e-05
5.7350874e-05
3.8585475e-05
2.6738359e-05
1.9393211e-05
1.4749459e-05
1.1680874e-05
9.5518156e-06
8.0179155e-06
6.8894596e-06
6.0521586e-06
5.427843e-06
4.9582419e-06
4.599309e-06
4.3189221e-06
4.0950318e-06
3.9133396e-06
3.7649676e-06
3.6445468e-06
3.5487825e-06
3.475314e-06
3.4224622e-06
3.3890057e-06
3.3734592e-06
3.3744369e-06
3.390805e-06
3.421746e-06
3.4666481e-06
3.5257681e-06
3.5996262e-06
3.6900619e-06
3.7953431e-06
3.9203604e-06