/*--------------------------------*- C++ -*----------------------------------*\
  =========                 |
  \\      /  F ield         | OpenFOAM: The Open Source CFD Toolbox
   \\    /   O peration     | Website:  https://openfoam.org
    \\  /    A nd           | Version:  7
     \\/     M anipulation  |
\*---------------------------------------------------------------------------*/
FoamFile
{
    version     2.0;
    format      ascii;
    class       volSymmTensorField;
    location    "2000";
    object      Rall;
}
// * * * * * * * * * * * * * * * * * * * * * * * * * * * * * * * * * * * * * //

dimensions      [0 2 -2 0 0 0 0];

internalField   nonuniform List<symmTensor> 
15296
(
(0.0011681222 9.6116664e-06 3.1612082e-15 0.0011149715 3.7913494e-16 0.0011043728)
(0.0011258124 3.9973996e-06 7.6363593e-19 0.001125401 2.9765829e-16 0.0011252323)
(0.0011165976 3.4490962e-06 -1.0185222e-18 0.0011240521 2.4886911e-16 0.0011252476)
(0.0011090282 3.1275608e-06 3.2557709e-15 0.0011222716 3.9659435e-16 0.0011244344)
(0.0011020053 2.846215e-06 -3.2966562e-15 0.0011204377 -2.2467366e-17 0.0011234424)
(0.0010969729 2.6188725e-06 6.6779642e-15 0.001117974 3.2757623e-16 0.0011213668)
(0.001093311 2.4419466e-06 3.3865713e-15 0.0011151041 2.9335145e-16 0.0011185809)
(0.0010903796 2.3014546e-06 3.3262691e-18 0.0011120639 -2.7734945e-17 0.0011154711)
(0.0010879692 2.1899731e-06 -4.3309125e-20 0.0011089255 -1.4744111e-16 0.0011121608)
(0.001085931 2.102898e-06 3.5277586e-15 0.0011057388 1.3929747e-16 0.0011087358)
(0.001084118 2.0354045e-06 -1.2450816e-19 0.0011025549 -7.1482058e-17 0.0011052804)
(0.0010824315 1.9834121e-06 -1.5097077e-19 0.0010994067 -2.973061e-17 0.0011018498)
(0.0010808179 1.9440528e-06 -3.6863848e-15 0.0010963106 -2.9746309e-16 0.0010984718)
(0.0010792483 1.9153253e-06 7.4765476e-15 0.0010932738 4.3802841e-16 0.0010951598)
(0.0010777113 1.8960434e-06 9.1437202e-19 0.0010902974 -1.1737449e-16 0.0010919164)
(0.0010762053 1.8855518e-06 7.6984966e-15 0.0010873787 2.8498565e-16 0.0010887389)
(0.0010747499 1.8848201e-06 3.9080526e-15 0.0010845066 1.1022741e-16 0.0010856109)
(0.0010733469 1.8934474e-06 3.9666816e-15 0.0010816778 3.9166088e-16 0.0010825295)
(0.001072125 1.9214478e-06 1.3929129e-18 0.0010788411 -1.2185093e-17 0.0010794123)
(0.0010709992 1.9607565e-06 6.3515938e-20 0.0010760231 -4.4271705e-17 0.0010763138)
(0.0010709034 2.0910822e-06 -1.760091e-18 0.0010728712 -1.0602901e-16 0.0010726541)
(0.0010708654 2.2624015e-06 -2.0075078e-18 0.0010697274 1.4696093e-17 0.0010690736)
(0.001067026 1.9998792e-06 4.284697e-15 0.0010681753 3.268154e-16 0.0010678862)
(0.0010700542 2.6248771e-06 -4.3528478e-15 0.0010645365 -3.0371276e-16 0.0010629295)
(0.001093541 6.5709535e-06 -9.157856e-20 0.0010603843 -1.1246429e-16 0.0010543116)
(0.0010781696 8.4662805e-06 -4.4373834e-15 0.0010253305 -2.8688544e-16 0.0010167541)
(0.00093668469 5.6644803e-06 -3.9126313e-15 0.00088725507 -3.2811232e-16 0.00088002581)
(0.00069043701 4.0370065e-06 -5.1233439e-19 0.00064705445 9.3718077e-17 0.00064157592)
(0.0004374296 4.0051363e-06 3.1044803e-18 0.00039603328 2.4840839e-17 0.00039214061)
(0.00016112129 2.3940194e-06 -6.3075841e-16 0.00014025755 -2.6752805e-16 0.00014149763)
(1.3621255e-07 1.0174916e-09 -4.740169e-22 1.2111074e-07 -2.9095056e-20 1.4019346e-07)
(0.00049990466 2.8292406e-06 1.7261294e-18 0.00046596183 8.1033977e-17 0.00047321928)
(0.00093445779 7.7949341e-06 -7.0674981e-16 0.00084689924 -4.9408823e-16 0.00085376885)
(0.0010866446 2.1260441e-05 -1.1474124e-15 0.00086539045 -4.7065946e-16 0.00086552292)
(0.0012653256 6.4043884e-05 -4.0967311e-18 0.00067104867 -2.441083e-17 0.00063472438)
(0.0010480153 6.6011964e-05 -3.1936867e-18 0.00049608478 -4.986058e-18 0.00051834562)
(0.0011027296 3.173617e-05 3.8451749e-16 0.00060999095 4.7823654e-16 0.00073848201)
(0.0011960956 5.3460371e-05 -2.1612285e-16 0.00047382035 -5.0472577e-16 0.00074271958)
(0.0011656481 2.1254917e-05 2.5887669e-18 0.0011128548 1.0355471e-16 0.0011090799)
(0.0011256808 9.6360829e-06 -1.0580406e-15 0.0011255096 -1.134638e-16 0.0011253605)
(0.0011165074 8.1753745e-06 1.0699045e-15 0.001124665 5.5570887e-17 0.0011248295)
(0.0011088774 7.5601374e-06 -2.6538763e-18 0.0011233111 1.5044691e-16 0.0011236463)
(0.0011017908 7.0961273e-06 -1.1007765e-15 0.0011218549 -9.9728394e-17 0.0011223368)
(0.0010967198 6.7393111e-06 -1.7472943e-18 0.0011195696 1.4350806e-16 0.0011201186)
(0.0010930384 6.4704016e-06 1.3995143e-18 0.0011167433 1.9254753e-16 0.0011173065)
(0.0010900975 6.2607495e-06 6.5179333e-18 0.0011136782 9.3601987e-18 0.0011142296)
(0.0010876851 6.0903001e-06 -1.1583459e-15 0.0011104689 -1.519644e-16 0.001110991)
(0.0010856508 5.9480976e-06 -1.1797285e-15 0.0011071811 -6.9980097e-17 0.0011076627)
(0.0010838453 5.826782e-06 -1.1960534e-15 0.0011038808 -1.8081908e-16 0.0011043161)
(0.0010821686 5.7209121e-06 2.4183865e-15 0.0011006108 7.9976893e-17 0.0011009981)
(0.001080566 5.6266895e-06 1.2252047e-15 0.0010973926 1.9834293e-17 0.0010977321)
(0.0010790081 5.5414687e-06 4.1246741e-18 0.0010942363 2.2867081e-16 0.001094529)
(0.0010774833 5.4633894e-06 -1.2634325e-15 0.0010911436 -1.6464527e-16 0.0010913911)
(0.0010759899 5.3910038e-06 1.283092e-15 0.0010881119 2.3189724e-16 0.0010883156)
(0.0010745478 5.3235963e-06 1.3064041e-15 0.0010851276 1.2852483e-16 0.001085288)
(0.0010731588 5.2596209e-06 -6.4337737e-19 0.0010821876 1.7478682e-16 0.0010823054)
(0.0010719536 5.2007325e-06 -1.3428979e-15 0.0010792268 -2.0494757e-17 0.0010792972)
(0.0010708453 5.1400105e-06 1.3625285e-15 0.0010762841 6.6037907e-17 0.0010763075)
(0.0010707838 5.0901985e-06 -5.7258175e-18 0.0010729052 -4.5475738e-17 0.0010728429)
(0.0010708135 5.1114291e-06 -2.4923612e-18 0.0010695436 2.0629584e-17 0.0010694151)
(0.0010669285 4.8262832e-06 4.0819522e-18 0.0010681623 1.2205712e-16 0.0010680885)
(0.0010698891 5.2177982e-06 4.210469e-18 0.0010638995 -9.2022338e-17 0.0010636255)
(0.001094266 1.0124663e-05 -1.4891321e-15 0.0010582825 -1.6816831e-16 0.001057257)
(0.0010806132 1.1273301e-05 -1.4860934e-15 0.0010232919 -1.4911236e-16 0.0010217935)
(0.00094108097 4.939192e-06 1.3011079e-15 0.00088743403 8.6248506e-17 0.00088617721)
(0.00069022346 1.7956871e-06 9.5962604e-16 0.00064357336 1.545676e-16 0.00064266971)
(0.00044007982 1.7368404e-06 1.543548e-18 0.00039507595 2.9663027e-17 0.00039451696)
(0.00016487111 1.5287777e-06 2.1516098e-16 0.00014186586 -3.636752e-17 0.00014219375)
(7.8168188e-07 1.977451e-09 3.7105837e-19 7.0513407e-07 1.1097333e-18 7.2403471e-07)
(0.0004835103 1.8482558e-07 1.3296354e-16 0.00045053895 1.499182e-16 0.00045192363)
(0.0009109903 1.0804055e-07 5.4486881e-18 0.00082589113 -9.4617126e-17 0.00082745546)
(0.0010746838 5.941243e-07 -3.4988232e-16 0.000859449 -2.611692e-16 0.00086027442)
(0.0012452841 4.8907985e-06 5.7868001e-16 0.00066233017 -7.894637e-18 0.00065804006)
(0.0010089594 1.4900597e-05 -1.4234491e-18 0.00047724031 -3.7294469e-17 0.00048192937)
(0.0011832489 -3.7227939e-05 3.5486751e-18 0.00064613899 -2.8517418e-17 0.00067303706)
(0.0011776805 -9.7568845e-05 -5.7058905e-17 0.00043404448 -3.1890552e-16 0.00089732927)
(0.0011621272 3.2521315e-05 2.6820688e-18 0.0011148116 3.7427024e-17 0.0011108886)
(0.0011254126 1.6100407e-05 1.2743459e-15 0.0011258501 -5.8111359e-17 0.0011255159)
(0.0011165632 1.335762e-05 -1.2870873e-15 0.0011248236 1.0564281e-18 0.0011248346)
(0.0011089982 1.2327314e-05 -1.3089702e-15 0.001123462 -5.6045499e-17 0.0011235813)
(0.0011019547 1.1582725e-05 1.3174094e-15 0.0011220093 1.7896114e-17 0.0011222134)
(0.0010969046 1.1013033e-05 -6.6729846e-16 0.0011197207 2.2355692e-18 0.0011199677)
(0.0010932303 1.0584754e-05 8.0776946e-19 0.0011168862 1.3043357e-16 0.001117148)
(0.0010902898 1.0251074e-05 6.1364803e-18 0.001113811 -4.4001043e-17 0.0011140737)
(0.001087873 9.9792766e-06 -6.9452497e-16 0.0011105908 -2.1227245e-16 0.0011108447)
(0.0010858313 9.7516386e-06 -4.8200717e-18 0.0011072919 -1.9240484e-16 0.0011075306)
(0.0010840171 9.5564397e-06 7.1552788e-16 0.0011039808 -1.6014572e-16 0.0011042007)
(0.0010823312 9.3850706e-06 -1.4552991e-15 0.0011007005 -1.0357768e-16 0.0011009003)
(0.0010807195 9.2315276e-06 -7.4160393e-16 0.0010974729 7.9798688e-18 0.0010976522)
(0.0010791526 9.0916346e-06 -7.4472589e-16 0.001094308 7.0447447e-17 0.0010944668)
(0.001077619 8.9624114e-06 7.6210334e-16 0.0010912074 -1.113824e-16 0.0010913462)
(0.0010761169 8.8415216e-06 2.6317221e-18 0.0010881686 1.7894829e-16 0.0010882877)
(0.001074666 8.7275537e-06 -1.5597791e-15 0.0010851776 -1.4190827e-17 0.001085277)
(0.0010732673 8.6181249e-06 -7.9674626e-16 0.0010822319 4.8550608e-17 0.0010823114)
(0.0010720508 8.5140135e-06 -6.6404203e-19 0.0010792652 -9.3620301e-17 0.0010793223)
(0.0010709267 8.4062892e-06 -1.6383659e-15 0.0010763197 -3.4273263e-17 0.0010763533)
(0.0010708412 8.2992468e-06 -8.4104412e-16 0.0010729329 -1.0432828e-16 0.0010729243)
(0.0010708622 8.3127974e-06 8.4165468e-16 0.0010695641 1.0376473e-16 0.0010695167)
(0.0010669748 7.876552e-06 8.6257009e-16 0.0010681799 1.80229e-16 0.0010681626)
(0.0010697234 8.416027e-06 -8.6768791e-16 0.0010636769 -1.3034969e-16 0.0010636423)
(0.0010949293 1.6167806e-05 8.957405e-16 0.0010590742 -1.1675121e-16 0.0010586304)
(0.0010838656 1.7855823e-05 -8.9540295e-16 0.001026953 -7.367155e-17 0.0010260482)
(0.00094961064 7.5204925e-06 -7.722551e-18 0.00089618226 3.0669067e-17 0.00089534552)
(0.00069173207 2.4531646e-06 5.730024e-16 0.00064583043 2.1692256e-16 0.00064522405)
(0.00044733585 2.3918972e-06 -3.9581436e-16 0.00040186113 -1.2677367e-17 0.00040131385)
(0.00019401577 2.4452117e-06 -1.5617464e-16 0.00016693655 -1.0169526e-17 0.00016666945)
(1.1405119e-05 2.9481074e-08 -3.2942846e-18 1.0548326e-05 4.8944932e-19 1.0564775e-05)
(0.00044098874 -7.6979598e-08 6.6587279e-17 0.00041426102 1.326663e-16 0.00041410292)
(0.00084798523 -6.8192892e-07 -1.0589094e-16 0.00077966422 -1.2807485e-16 0.00077912868)
(0.0010316576 -1.2483721e-06 -1.6482802e-18 0.00085877665 -2.4051142e-16 0.00085709314)
(0.0012112611 1.2715815e-06 -4.8208767e-18 0.0007197413 -1.6435943e-17 0.00071577911)
(0.00096000498 1.6781136e-05 3.2398998e-16 0.00045954963 5.9363697e-17 0.00045328802)
(0.0012068082 -5.8597502e-05 8.9061832e-17 0.00066223823 6.8652774e-17 0.00065665332)
(0.0013069697 -0.00010759253 2.3054166e-18 0.00048461954 -2.2435788e-16 0.00096667901)
(0.0011594909 4.2397757e-05 4.3019515e-18 0.0011164275 2.5029108e-17 0.0011122694)
(0.0011250401 2.2806481e-05 -4.5177877e-16 0.0011263482 -1.666635e-17 0.0011257379)
(0.0011165373 1.8635438e-05 -1.0345792e-18 0.0011250854 -7.2915e-17 0.0011249296)
(0.0011090046 1.7144135e-05 4.5902721e-16 0.001123711 -9.9967121e-17 0.0011236356)
(0.0011019573 1.6110007e-05 -2.7331647e-18 0.0011222728 7.4936113e-17 0.0011222372)
(0.0010969037 1.5321927e-05 4.7969034e-16 0.001119987 8.9873395e-18 0.0011199746)
(0.0010932281 1.4729784e-05 9.9962197e-19 0.0011171466 8.8297322e-17 0.0011171468)
(0.0010902872 1.4268387e-05 5.0367519e-18 0.0011140622 -1.7488795e-17 0.0011140688)
(0.0010878708 1.3892318e-05 4.9893249e-16 0.0011108306 -1.3990924e-16 0.0011108397)
(0.0010858306 1.3577096e-05 -5.5943799e-18 0.001107519 -1.4341583e-16 0.0011075279)
(0.0010840186 1.3306544e-05 5.106914e-16 0.0011041948 -4.0126748e-17 0.001104202)
(0.0010823357 1.3068761e-05 -7.5284973e-19 0.0011009019 -1.580168e-16 0.0011009064)
(0.0010807273 1.2855445e-05 -5.3040869e-16 0.0010976624 -6.2573019e-17 0.0010976638)
(0.0010791641 1.2660824e-05 4.6232495e-18 0.0010944863 2.5795048e-17 0.0010944843)
(0.0010776343 1.2480766e-05 -5.3719184e-16 0.0010913753 -3.9844293e-17 0.0010913698)
(0.0010761361 1.2312032e-05 -5.4683666e-16 0.0010883267 4.0939868e-17 0.0010883176)
(0.001074689 1.2152582e-05 5.1058117e-18 0.0010853262 -8.88586e-17 0.0010853134)
(0.0010732937 1.199918e-05 -4.3031354e-18 0.0010823715 3.7040378e-17 0.0010823548)
(0.001072081 1.1852258e-05 -1.812324e-18 0.0010793949 -8.1605349e-17 0.0010793736)
(0.0010709571 1.170041e-05 -5.8658546e-16 0.0010764414 -1.4736723e-16 0.0010764148)
(0.0010708772 1.1543198e-05 -6.05232e-16 0.0010730366 -1.5436763e-16 0.001073002)
(0.0010709174 1.1559718e-05 -6.0388954e-16 0.001069648 8.0380384e-17 0.0010696008)
(0.0010670067 1.0958093e-05 -6.0803213e-16 0.0010682566 1.2659669e-16 0.0010682254)
(0.0010695227 1.1672131e-05 1.2473471e-15 0.0010633369 -1.1103194e-17 0.0010634455)
(0.0010956741 2.2469002e-05 -1.2772632e-15 0.0010595326 -1.3793141e-16 0.0010594891)
(0.0010892902 2.4722742e-05 -3.7532983e-18 0.0010321384 -6.4789571e-17 0.0010316409)
(0.00096087083 1.0246325e-05 5.6462979e-16 0.00090696995 3.2021388e-17 0.00090650547)
(0.0006931817 3.2558646e-06 4.0509535e-16 0.00064743557 2.1360865e-16 0.00064731437)
(0.0004540416 3.2445539e-06 9.5251863e-20 0.00040707066 -7.1835956e-18 0.00040703333)
(0.00023670491 3.5729599e-06 1.9475038e-18 0.00020162881 -3.1405722e-17 0.00020159386)
(4.3043189e-05 8.9359831e-08 -8.9232534e-21 3.9908293e-05 -2.4777165e-17 3.9936848e-05)
(0.00037694878 -1.8655305e-07 3.8591925e-17 0.00035556259 6.5841385e-17 0.0003555192)
(0.00075708545 -9.206662e-07 6.23429e-17 0.00070367449 -4.5839388e-17 0.00070352814)
(0.00097976237 -1.8333419e-06 8.8889235e-21 0.00084539684 -1.7044419e-16 0.00084496079)
(0.0013028471 2.2166777e-08 -1.8964485e-16 0.00086423117 -7.8549241e-17 0.00086431186)
(0.0010478858 1.9412058e-05 1.2378706e-16 0.00049592833 8.2755533e-17 0.00050057135)
(0.0012441215 -7.474035e-05 7.455417e-17 0.00063359363 2.4875245e-16 0.00062910834)
(0.0017326926 -0.00019360187 9.8716206e-20 0.00042373289 -1.1317832e-16 0.0011377727)
(0.001157013 5.1004873e-05 5.4341648e-18 0.001118304 2.5449218e-17 0.0011133433)
(0.0011246185 2.9547411e-05 2.5065026e-18 0.0011269319 -1.1238576e-16 0.0011260438)
(0.0011165146 2.395223e-05 -1.3965764e-18 0.0011253851 -1.3537608e-16 0.0011250947)
(0.0011090508 2.1969012e-05 -6.7972085e-18 0.0011239401 2.8906974e-18 0.0011237719)
(0.0011020164 2.0643028e-05 3.648048e-16 0.0011224759 6.1421613e-17 0.0011223577)
(0.0010969655 1.9637774e-05 2.4881605e-18 0.0011201725 2.9842081e-17 0.0011200834)
(0.0010932896 1.8882468e-05 9.2805282e-19 0.0011173179 7.1760648e-17 0.0011172464)
(0.0010903468 1.8293609e-05 3.8609966e-16 0.0011142215 7.6921216e-17 0.0011141613)
(0.0010879277 1.7813322e-05 3.8741785e-16 0.0011109798 -5.5775302e-17 0.0011109268)
(0.0010858847 1.74105e-05 3.8638602e-16 0.0011076598 -3.5201446e-17 0.0011076109)
(0.0010840704 1.7064576e-05 3.9590924e-16 0.0011043286 6.7995006e-17 0.001104282)
(0.0010823858 1.6760385e-05 -1.9949105e-18 0.00110103 -1.068396e-16 0.0011009845)
(0.0010807763 1.6487341e-05 -2.5620007e-18 0.0010977859 -5.5812809e-17 0.0010977408)
(0.0010792126 1.6238083e-05 4.2239584e-16 0.0010946063 6.7053262e-17 0.001094561)
(0.0010776827 1.6007332e-05 -4.158438e-16 0.0010914926 -5.6548605e-17 0.0010914469)
(0.0010761847 1.5790953e-05 -4.2393132e-16 0.0010884419 -6.3745656e-17 0.0010883956)
(0.0010747379 1.5586304e-05 -1.2968421e-15 0.00108544 -1.9290565e-16 0.0010853927)
(0.0010733427 1.5389294e-05 -4.463256e-16 0.0010824844 -4.0707096e-17 0.0010824358)
(0.0010721298 1.5200166e-05 -4.52798e-16 0.0010795075 -9.8308311e-17 0.0010794569)
(0.0010710021 1.5004917e-05 -3.030265e-18 0.0010765559 -1.8002749e-16 0.0010765025)
(0.0010709211 1.4799048e-05 4.5004819e-16 0.0010731517 -9.3614287e-17 0.0010730949)
(0.0010709732 1.4821414e-05 1.7999832e-18 0.001069759 3.68143e-17 0.0010696927)
(0.0010670415 1.4046251e-05 -1.4233553e-15 0.0010683433 -5.1672554e-17 0.0010682943)
(0.0010692023 1.4960956e-05 4.8441669e-16 0.001062857 7.6173632e-17 0.0010630582)
(0.0010958956 2.8934087e-05 9.9758858e-16 0.0010597117 -5.2688547e-17 0.001059748)
(0.0010965739 3.1661292e-05 -2.4343818e-18 0.0010396515 -4.0789978e-17 0.0010390094)
(0.00097650755 1.2924565e-05 4.4494795e-16 0.00092250992 1.3841633e-16 0.00092189506)
(0.0007148576 4.0884074e-06 -3.1865226e-18 0.0006685918 1.9276389e-16 0.00066846577)
(0.00045731754 4.0610578e-06 -1.9296355e-18 0.00040950883 1.5588923e-17 0.000409681)
(0.00028676565 4.7593557e-06 3.0440624e-16 0.00024073427 3.2216043e-17 0.0002407152)
(9.3759477e-05 1.1695528e-07 1.4942009e-17 8.69764e-05 -7.6057469e-18 8.6958477e-05)
(0.00030324428 -2.4215347e-07 -4.6009591e-17 0.00028684709 6.6666483e-18 0.00028676044)
(0.00064204627 -9.2885737e-07 -3.5825825e-17 0.0006023635 -3.4783832e-17 0.00060204679)
(0.00089216455 -1.9783551e-06 -5.3330598e-19 0.00079527295 -1.2209873e-16 0.00079467339)
(0.0016007787 -1.1712095e-06 1.6479637e-18 0.0011849865 -9.9014617e-17 0.0011833351)
(0.0014079939 2.2493919e-05 -1.3945245e-16 0.00066969649 -1.5397059e-17 0.00066717224)
(0.0013500741 -8.6050882e-05 -6.3960786e-17 0.00062227254 1.639455e-16 0.00061371769)
(0.0021030696 -0.00021036077 4.9228708e-17 0.00067690184 5.1024367e-18 0.0014444847)
(0.0011542267 6.0271009e-05 4.8992492e-18 0.0011206301 3.2352045e-17 0.0011145583)
(0.0011240542 3.8077726e-05 -3.5739597e-16 0.0011277881 -9.9698898e-17 0.0011265134)
(0.0011164632 3.0820645e-05 1.520783e-18 0.0011258755 -1.0689058e-16 0.0011253745)
(0.0011091169 2.817529e-05 -7.4032756e-16 0.0011243004 -6.626439e-17 0.0011240151)
(0.001102106 2.6471801e-05 -3.7506846e-16 0.0011227803 5.5558524e-18 0.0011225848)
(0.0010970592 2.5191206e-05 3.693575e-18 0.001120443 -4.0050314e-17 0.001120295)
(0.0010933817 2.4228841e-05 2.5523419e-18 0.0011175632 4.7366055e-17 0.001117443)
(0.0010904349 2.3477645e-05 -3.830631e-16 0.0011144463 2.616889e-17 0.0011143445)
(0.0010880106 2.2864274e-05 -3.9377484e-16 0.0011111884 -8.7450194e-17 0.0011110979)
(0.0010859621 2.2349404e-05 -4.0454014e-16 0.0011078553 -3.4937982e-17 0.0011077714)
(0.0010841431 2.190699e-05 3.9925401e-16 0.0011045137 8.4907792e-17 0.0011044333)
(0.0010824546 2.1517763e-05 -4.5636345e-18 0.001101207 -6.7875043e-17 0.0011011282)
(0.0010808424 2.1168248e-05 4.1450826e-16 0.0010979567 -3.6470094e-17 0.0010978785)
(0.001079277 2.0849069e-05 7.5451696e-18 0.0010947726 7.5079039e-17 0.0010946941)
(0.0010777463 2.05535e-05 5.9770817e-18 0.001091656 -5.0500751e-17 0.0010915767)
(0.0010762482 2.0276275e-05 3.753568e-18 0.0010886037 -7.4203273e-17 0.0010885232)
(0.0010748017 2.0014013e-05 1.0111916e-17 0.0010856012 -1.7623039e-16 0.001085519)
(0.0010734066 1.9761541e-05 -8.9868363e-16 0.001082646 -2.246748e-16 0.0010825618)
(0.0010721938 1.9519068e-05 4.4735749e-16 0.0010796707 -3.5808363e-17 0.0010795829)
(0.0010710616 1.9269126e-05 -4.6406071e-16 0.0010767235 -1.6836151e-16 0.0010766315)
(0.0010709798 1.9002713e-05 -1.3212196e-17 0.0010733244 -5.7377129e-17 0.0010732254)
(0.0010710483 1.9037318e-05 4.7682902e-16 0.0010699293 1.2612239e-16 0.00106982)
(0.0010670909 1.8022925e-05 9.1372507e-18 0.00106848 -7.7536984e-17 0.0010683923)
(0.0010687386 1.9258407e-05 2.0519099e-18 0.0010620812 4.546614e-17 0.0010624144)
(0.0010955726 3.7584525e-05 5.0427653e-16 0.0010593264 9.8392007e-17 0.0010593746)
(0.0011087261 4.071074e-05 -1.282261e-18 0.0010522324 6.4139075e-18 0.0010511393)
(0.00099610093 1.6163375e-05 4.5918788e-16 0.00094241177 1.6357382e-16 0.00094140117)
(0.0007872856 5.3016307e-06 -5.6024583e-18 0.00073812552 1.355375e-16 0.00073774359)
(0.00051332385 5.348673e-06 2.5925845e-16 0.00045998288 9.8191054e-17 0.00045994817)
(0.00037235599 6.5778583e-06 2.3343407e-16 0.00030382413 1.4056838e-16 0.00030360972)
(0.00018175697 7.3354131e-08 1.3724456e-19 0.00016807472 1.2066445e-17 0.00016790317)
(0.00023265845 -2.4653508e-07 -1.4442928e-20 0.00022009925 3.0526625e-18 0.00022004314)
(0.00049203341 -7.5103532e-07 -5.7225582e-19 0.00046470301 -4.3248389e-17 0.0004644799)
(0.00072907137 -1.7256093e-06 3.4460695e-17 0.00066842995 -1.7321891e-17 0.00066811292)
(0.0021046319 -4.6558878e-06 4.2504128e-18 0.0017265197 -4.5560916e-17 0.001724454)
(0.0024128524 3.0165124e-05 -8.8473452e-19 0.0011013076 -1.0383565e-16 0.0010671329)
(0.0019018718 -0.00010377898 1.5193325e-18 0.00075328719 3.9905332e-17 0.00074450942)
(0.0030198097 -0.00026715683 -7.0450058e-17 0.0011091005 -6.5302916e-17 0.0021123941)
(0.0011514184 7.0295734e-05 5.902965e-18 0.001123104 4.2595545e-17 0.0011161514)
(0.0011233191 4.847556e-05 -1.2594893e-18 0.0011290944 -4.6360302e-17 0.0011272318)
(0.00111639 3.9508043e-05 2.4976177e-16 0.001126704 1.4681246e-17 0.0011258544)
(0.0011092409 3.6039875e-05 -5.8154103e-18 0.001124939 -6.6489644e-17 0.0011244241)
(0.0011022759 3.3863785e-05 2.535119e-16 0.0011233413 4.0814448e-17 0.0011229591)
(0.00109724 3.2244013e-05 -2.5359223e-16 0.0011209552 -1.0419194e-16 0.0011206424)
(0.001093563 3.1026664e-05 4.2659782e-18 0.0011180371 3.0633135e-17 0.0011177668)
(0.0010906117 3.0074719e-05 2.9710919e-18 0.0011148882 -2.2827846e-17 0.0011146476)
(0.0010881799 2.9296026e-05 -1.4545875e-18 0.0011116032 -1.3595211e-16 0.0011113831)
(0.0010861231 2.8641381e-05 -4.9560526e-18 0.0011082469 -1.1533443e-17 0.0011080409)
(0.0010842961 2.8078154e-05 -5.7596262e-18 0.0011048853 4.6877759e-17 0.0011046893)
(0.0010826007 2.7582111e-05 2.7443869e-16 0.0011015617 6.0427648e-18 0.001101373)
(0.001080983 2.7136259e-05 2.8708813e-16 0.0010982975 9.1908878e-18 0.0010981143)
(0.0010794135 2.6728764e-05 -2.808603e-16 0.0010951022 2.0769412e-17 0.0010949231)
(0.0010778801 2.6351121e-05 5.3010119e-18 0.0010919766 -2.2452642e-17 0.0010918007)
(0.0010763802 2.5996667e-05 3.1479999e-18 0.0010889173 -4.6321701e-17 0.001088744)
(0.001074933 2.5661114e-05 -2.9481464e-16 0.0010859097 -1.4100723e-16 0.0010857382)
(0.0010735371 2.533791e-05 -3.1010726e-16 0.0010829509 -2.8231856e-16 0.0010827809)
(0.0010723237 2.5027222e-05 -6.9252969e-18 0.0010799733 5.4507084e-18 0.0010798029)
(0.0010711847 2.4707069e-05 -4.5923732e-18 0.0010770278 -1.656342e-16 0.0010768565)
(0.0010711028 2.43615e-05 3.1148164e-16 0.0010736264 3.2485476e-18 0.0010734552)
(0.0010711858 2.4411782e-05 9.6843991e-19 0.0010702303 1.2606666e-16 0.0010700476)
(0.0010672223 2.3072447e-05 8.9026947e-18 0.001068741 -1.6792183e-17 0.0010685947)
(0.0010684621 2.4849475e-05 5.787981e-18 0.0010611593 2.3595392e-17 0.0010617412)
(0.0010948822 4.9094413e-05 -6.9539156e-16 0.0010584097 -3.5868752e-18 0.0010585579)
(0.0011194724 5.2122133e-05 -1.2577884e-18 0.0010640736 -2.9677498e-18 0.0010624222)
(0.001009822 1.9594614e-05 -6.4670648e-16 0.00095781815 5.3116731e-18 0.00095638088)
(0.00084784193 6.5932024e-06 2.4512736e-16 0.00079727888 1.3143146e-16 0.00079691209)
(0.00061056693 7.0640342e-06 2.0740765e-16 0.00054901394 1.494717e-16 0.00054883065)
(0.00046487053 8.7761122e-06 2.503414e-16 0.0003591617 1.968821e-16 0.00035886141)
(0.00026890788 -1.2623084e-07 2.970304e-19 0.00024716402 1.9097351e-18 0.00024696277)
(0.00024496171 -3.0357239e-07 1.3059887e-17 0.00023153333 1.2983112e-17 0.00023148538)
(0.00037470897 -5.7554931e-07 2.4489945e-17 0.00035527066 1.4125024e-17 0.00035516766)
(0.0005082678 -1.1706573e-06 4.6646947e-19 0.00047513069 2.1635626e-17 0.00047498192)
(0.0026292188 -9.4079321e-06 7.3733113e-17 0.0023249744 2.1541882e-17 0.0023253874)
(0.0038696313 1.8841488e-05 -2.2695234e-19 0.0024971241 -5.0901656e-17 0.0024767261)
(0.0034937227 -0.00011998198 -1.2443035e-16 0.0015867712 4.4102479e-17 0.0015516234)
(0.0050130757 -0.00036759726 -1.7536279e-18 0.0020280922 -1.3715509e-16 0.003505154)
(0.0011490055 7.9594688e-05 -3.3841397e-16 0.0011256279 -5.1564188e-17 0.0011178891)
(0.0011225469 5.9387899e-05 3.4916274e-16 0.0011307595 -2.4338383e-17 0.0011281922)
(0.0011163206 4.9128714e-05 1.7652134e-16 0.0011278709 6.8703421e-17 0.0011265602)
(0.0011094376 4.4826403e-05 -7.7036123e-18 0.0011258615 -1.8212517e-17 0.0011250376)
(0.001102545 4.2141022e-05 1.752707e-16 0.0011241571 9.9975959e-17 0.0011235279)
(0.0010975294 4.0157513e-05 6.5192858e-18 0.0011217046 -3.8686914e-17 0.0011211766)
(0.0010938562 3.8666485e-05 7.372564e-18 0.0011187346 2.1815259e-17 0.00111827)
(0.0010909004 3.7497628e-05 3.0258707e-19 0.0011155424 -1.8269442e-17 0.0011151228)
(0.0010884592 3.6539028e-05 -1.0158129e-18 0.0011122202 -1.0826608e-16 0.0011118328)
(0.0010863908 3.5731366e-05 -1.9713107e-16 0.0011088315 -2.8424579e-17 0.0011084675)
(0.001084552 3.5035249e-05 -4.0075341e-16 0.0011054416 -5.4405039e-17 0.0011050953)
(0.0010828456 3.4421255e-05 1.8971305e-16 0.0011020933 5.2169398e-17 0.0011017609)
(0.0010812182 3.3868682e-05 6.076933e-16 0.001098808 1.535691e-16 0.0010984868)
(0.0010796408 3.3363088e-05 1.1572533e-17 0.0010955948 1.0873729e-17 0.001095283)
(0.0010781012 3.2894081e-05 6.213018e-18 0.0010924546 -1.8893541e-17 0.0010921507)
(0.0010765968 3.2453501e-05 1.4734943e-18 0.0010893837 -3.5328145e-17 0.0010890866)
(0.0010751465 3.2036108e-05 -2.0769362e-16 0.0010863668 -1.835959e-16 0.0010860756)
(0.0010737479 3.1633819e-05 -2.1751399e-16 0.0010834012 -2.5675392e-16 0.0010831152)
(0.0010725323 3.1246944e-05 -2.2864311e-16 0.0010804186 -5.2341789e-18 0.0010801359)
(0.001071384 3.0848113e-05 -4.7978394e-18 0.0010774731 -1.3832198e-16 0.0010771927)
(0.0010713028 3.0413589e-05 2.184785e-16 0.0010740648 6.9225331e-17 0.0010737937)
(0.0010713906 3.048513e-05 2.3272462e-16 0.0010706757 1.3892909e-16 0.0010703824)
(0.0010674692 2.8737714e-05 -2.263345e-16 0.001069143 -4.0735129e-18 0.0010689252)
(0.0010685715 3.1409844e-05 -2.333107e-16 0.001060179 -3.8446624e-17 0.0010611456)
(0.0010942734 6.3093493e-05 6.0395203e-19 0.0010574622 -5.8289834e-17 0.0010576775)
(0.0011232833 6.4680257e-05 -1.2702338e-18 0.0010702179 -2.0316868e-17 0.0010676323)
(0.0010286997 2.2595214e-05 -1.9929058e-18 0.0009805186 -6.6949736e-17 0.0009782843)
(0.00087933773 7.8429621e-06 -1.7958307e-16 0.0008299492 7.5951032e-17 0.00082959513)
(0.00067090603 8.4400147e-06 -3.3934507e-18 0.00060731756 5.7637206e-17 0.00060728885)
(0.00054914923 1.1362321e-05 -7.6859593e-18 0.00038741791 1.6493969e-16 0.00038656936)
(0.00031765233 -2.9946275e-07 -3.0593028e-17 0.00028999028 -7.5652299e-18 0.00028969508)
(0.00029420219 -3.5677917e-07 1.7897324e-19 0.00027791997 1.1041835e-18 0.00027787189)
(0.00035549145 -4.9257935e-07 -8.4244684e-18 0.00033802077 1.6200986e-17 0.00033787384)
(0.00027646765 -5.5084854e-07 -1.2300873e-20 0.0002609911 8.6900214e-18 0.000261001)
(0.003121396 -1.1247175e-05 1.2492445e-18 0.0028776115 6.2758464e-17 0.0028779735)
(0.005431571 -1.3912726e-06 -9.0694359e-19 0.0043197541 -2.3704594e-18 0.0043121685)
(0.0062762172 -0.00016408338 -1.5942107e-16 0.002997344 1.6403051e-17 0.0028973774)
(0.0080816393 -0.00045549038 3.4214871e-19 0.0038012013 -6.8306564e-17 0.0058008244)
(0.0011469455 8.795453e-05 -2.4162088e-16 0.0011283242 -8.6827357e-17 0.0011199123)
(0.0011218597 7.0652322e-05 2.6803705e-18 0.0011327703 -3.4315136e-17 0.0011294606)
(0.0011162995 5.9629565e-05 -1.886529e-19 0.0011294506 -5.7663935e-19 0.0011275573)
(0.0011097416 5.4574612e-05 -8.205138e-18 0.0011271531 -2.2460087e-17 0.0011259209)
(0.0011029533 5.1372032e-05 -7.3929609e-18 0.0011253062 8.9649839e-17 0.0011243557)
(0.0010979706 4.9010853e-05 4.9108236e-18 0.001122764 4.3561375e-17 0.0011219613)
(0.0010943059 4.7233893e-05 -2.6131925e-16 0.0011197241 -1.0045636e-19 0.0011190152)
(0.0010913457 4.583624e-05 -1.7337421e-18 0.001116473 -1.9932114e-17 0.0011158312)
(0.0010888926 4.4685855e-05 -2.4932101e-18 0.0011130996 -5.4504032e-17 0.0011125069)
(0.0010868085 4.3713547e-05 -3.4072295e-18 0.0011096654 -4.239618e-17 0.0011091095)
(0.0010849526 4.2873315e-05 -4.5334079e-18 0.0011062347 -6.5768273e-17 0.0011057072)
(0.0010832291 4.213055e-05 -5.7310655e-18 0.0011028502 4.0131863e-17 0.0011023455)
(0.0010815858 4.1460794e-05 2.9008307e-16 0.001099533 1.7312807e-16 0.001099047)
(0.0010799942 4.0846948e-05 8.6026165e-18 0.0010962924 3.387583e-17 0.0010958221)
(0.0010784428 4.0276689e-05 -1.4452442e-16 0.001093129 -3.8218201e-17 0.0010926721)
(0.0010769289 3.9740303e-05 -2.0393893e-18 0.0010900389 -2.8177179e-17 0.0010895938)
(0.0010754712 3.9231587e-05 1.6059672e-16 0.0010870068 -1.0223062e-16 0.0010865718)
(0.0010740661 3.8740776e-05 1.6334642e-16 0.0010840293 -1.4797765e-16 0.0010836035)
(0.0010728453 3.8268531e-05 -1.65308e-16 0.0010810379 -6.1136333e-17 0.0010806186)
(0.0010716833 3.7781007e-05 -4.3821147e-18 0.0010780903 -8.1008472e-17 0.0010776754)
(0.0010716029 3.7245536e-05 -7.3592585e-18 0.0010746697 8.0171488e-17 0.0010742739)
(0.00107168 3.7343605e-05 1.6562517e-16 0.0010712968 1.7705299e-16 0.0010708578)
(0.0010678811 3.5070565e-05 6.9955329e-18 0.0010697199 -3.8288337e-18 0.0010694266)
(0.0010692358 3.9274333e-05 7.4760099e-18 0.0010590861 -7.7944139e-17 0.0010606413)
(0.0010939349 8.0586206e-05 -1.7566496e-16 0.0010567349 -5.1195234e-17 0.0010569235)
(0.0011243894 7.8331203e-05 -1.8737448e-16 0.0010751182 -5.584372e-17 0.0010711068)
(0.0010566316 2.448369e-05 -1.2822633e-18 0.0010168447 -4.5113661e-17 0.0010138331)
(0.00090809842 9.2535279e-06 -1.240524e-16 0.00086217431 -5.3121154e-17 0.00086148147)
(0.00070606275 9.3018171e-06 -3.0975994e-18 0.00064571016 -2.9593857e-17 0.00064585763)
(0.0006198651 1.3695132e-05 -1.5572355e-17 0.00038879191 8.1496283e-17 0.00038687177)
(0.00034151422 -1.2077759e-07 2.6887003e-17 0.00031040939 1.3707445e-17 0.00030902055)
(0.00033136239 -3.425917e-07 -9.2718738e-18 0.00031355243 -1.3990977e-17 0.00031327819)
(0.00036218771 -4.1618482e-07 -1.0578281e-19 0.00034594908 -7.5664732e-19 0.00034571035)
(3.443805e-05 -6.0776109e-08 1.7484754e-20 3.2729209e-05 1.3786477e-18 3.2739828e-05)
(0.0036040586 -1.018087e-05 -2.5332037e-17 0.0033910871 2.4094228e-17 0.0033908422)
(0.0064796356 -2.0930116e-05 -3.6983162e-18 0.0057008824 2.248156e-18 0.005687735)
(0.008487208 -0.00017846117 1.0410164e-16 0.0052227986 5.9865297e-17 0.0051268219)
(0.011524439 -0.00049863632 1.0927933e-18 0.0067183685 -3.660286e-17 0.0088588452)
(0.0011457499 9.5557493e-05 7.7911148e-18 0.0011308959 -4.0211646e-17 0.001122147)
(0.0011214341 8.2086695e-05 4.0551666e-18 0.0011351453 -4.422895e-17 0.0011311101)
(0.0011163997 7.090626e-05 9.2270638e-19 0.0011315334 -3.0334074e-17 0.0011289272)
(0.0011102033 6.5298458e-05 1.8256112e-16 0.0011289268 2.0823293e-17 0.0011271528)
(0.0011035504 6.1618247e-05 -1.9826059e-16 0.0011269058 1.7035071e-17 0.0011255174)
(0.0010986153 5.8882773e-05 -1.904696e-16 0.0011242508 -2.3639917e-18 0.0011230679)