13.6667 0.9790 0.0210 0.6758 0.0017 5.8574 0.5984 0.6507 
13.6667 0.9685 0.0315 0.7156 0.0012 6.3250 0.8682 0.8547 
13.6667 0.9580 0.0420 0.7481 0.0006 6.8095 1.0802 1.0139 
13.6667 0.9475 0.0525 0.7762 0.0013 7.2601 1.2437 1.1434 
13.6667 0.9370 0.0630 0.8023 0.0026 7.6149 1.3671 1.2507 
13.6667 0.9265 0.0735 0.8271 0.0037 7.8721 1.4159 1.3138 
13.6667 0.9160 0.0840 0.8510 0.0034 8.0513 1.4390 1.3369 
13.6667 0.9055 0.0945 0.8744 0.0027 8.1496 1.4468 1.3346 
13.6667 0.8950 0.1050 0.8964 0.0025 8.1829 1.4655 1.3331 
13.6667 0.8845 0.1155 0.9167 0.0029 8.1726 1.4998 1.3335 
13.6667 0.8740 0.1260 0.9362 0.0032 8.1353 1.4995 1.3161 
13.6667 0.8635 0.1365 0.9549 0.0026 8.0588 1.4703 1.2841 
13.6667 0.8530 0.1470 0.9722 0.0018 7.9155 1.4331 1.2337 
13.6667 0.8425 0.1575 0.9884 0.0024 7.7122 1.3839 1.1680 
13.6667 0.8320 0.1680 1.0041 0.0036 7.4912 1.3356 1.1167 
13.6667 0.8215 0.1785 1.0195 0.0030 7.2775 1.3030 1.0852 
13.6667 0.8110 0.1890 1.0342 0.0012 7.0561 1.2772 1.0559 
13.6667 0.8005 0.1995 1.0481 0.0005 6.8288 1.2230 1.0153 
13.6667 0.7900 0.2100 1.0606 0.0011 6.6188 1.1517 0.9624 
13.6667 0.7795 0.2205 1.0724 0.0016 6.4020 1.1003 0.9042 
13.6667 0.7690 0.2310 1.0839 0.0012 6.1610 1.0622 0.8464 
13.6667 0.7585 0.2415 1.0945 0.0006 5.9167 1.0282 0.7961 
13.6667 0.7480 0.2520 1.1045 0.0000 5.6548 0.9971 0.7501 
13.6667 0.7375 0.2625 1.1145 -0.0008 5.3789 0.9667 0.6975 
13.6667 0.7270 0.2730 1.1238 -0.0008 5.1263 0.9313 0.6431 
13.6667 0.7165 0.2835 1.1324 0.0005 4.8981 0.8908 0.5928 
13.6667 0.7060 0.2940 1.1407 0.0010 4.6809 0.8551 0.5414 
13.6667 0.6955 0.3045 1.1483 -0.0008 4.4621 0.8212 0.4960 
13.6667 0.6850 0.3150 1.1556 -0.0035 4.2372 0.7872 0.4600 
13.6667 0.6745 0.3255 1.1628 -0.0041 4.0245 0.7592 0.4320 
13.6667 0.6640 0.3360 1.1691 -0.0025 3.8475 0.7328 0.4072 
13.6667 0.6535 0.3465 1.1742 -0.0006 3.6856 0.7035 0.3775 
13.6667 0.6430 0.3570 1.1785 0.0004 3.5129 0.6751 0.3475 
13.6667 0.6325 0.3675 1.1828 0.0004 3.3340 0.6475 0.3195 
13.6667 0.6220 0.3780 1.1866 -0.0005 3.1588 0.6213 0.2888 
13.6667 0.6115 0.3885 1.1900 -0.0011 2.9900 0.5955 0.2604 
13.6667 0.6010 0.3990 1.1936 -0.0005 2.8280 0.5685 0.2335 
13.6667 0.5906 0.4094 1.1972 0.0000 2.6772 0.5511 0.2048 
13.6667 0.5801 0.4199 1.2005 -0.0011 2.5381 0.5372 0.1773 
13.6667 0.5696 0.4304 1.2036 -0.0026 2.4060 0.5203 0.1462 
13.6667 0.5591 0.4409 1.2062 -0.0037 2.2858 0.5003 0.1107 
13.6667 0.5486 0.4514 1.2082 -0.0047 2.1774 0.4840 0.0765 
13.6667 0.5381 0.4619 1.2094 -0.0062 2.0733 0.4784 0.0405 
13.6667 0.5276 0.4724 1.2098 -0.0070 1.9762 0.4720 0.0055 
13.6667 0.5171 0.4829 1.2101 -0.0051 1.8883 0.4645 -0.0261 
13.6667 0.5066 0.4934 1.2104 -0.0026 1.8091 0.4595 -0.0579 
13.6667 0.4961 0.5039 1.2105 -0.0020 1.7456 0.4542 -0.0913 
13.6667 0.4856 0.5144 1.2093 -0.0025 1.7066 0.4474 -0.1285 
13.6667 0.4751 0.5249 1.2066 -0.0029 1.6968 0.4468 -0.1711 
13.6667 0.4646 0.5354 1.2029 -0.0038 1.7076 0.4542 -0.2149 
13.6667 0.4541 0.5459 1.1991 -0.0054 1.7272 0.4635 -0.2546 
13.6667 0.4436 0.5564 1.1951 -0.0061 1.7575 0.4775 -0.2932 
13.6667 0.4331 0.5669 1.1901 -0.0055 1.8062 0.4992 -0.3360 
13.6667 0.4226 0.5774 1.1835 -0.0046 1.8762 0.5234 -0.3831 
13.6667 0.4121 0.5879 1.1758 -0.0049 1.9659 0.5496 -0.4369 
13.6667 0.4016 0.5984 1.1670 -0.0062 2.0715 0.5735 -0.4910 
13.6667 0.3911 0.6089 1.1573 -0.0074 2.1860 0.5923 -0.5350 
13.6667 0.3806 0.6194 1.1463 -0.0084 2.3116 0.6201 -0.5784 
13.6667 0.3701 0.6299 1.1341 -0.0083 2.4470 0.6589 -0.6298 
13.6667 0.3596 0.6404 1.1213 -0.0072 2.5817 0.6966 -0.6822 
13.6667 0.3491 0.6509 1.1081 -0.0068 2.7113 0.7371 -0.7354 
13.6667 0.3386 0.6614 1.0937 -0.0080 2.8478 0.7838 -0.7897 
13.6667 0.3281 0.6719 1.0780 -0.0093 3.0054 0.8280 -0.8411 
13.6667 0.3176 0.6824 1.0610 -0.0097 3.1458 0.8655 -0.8833 
13.6667 0.3071 0.6929 1.0428 -0.0086 3.2532 0.8941 -0.9112 
13.6667 0.2966 0.7034 1.0241 -0.0068 3.3571 0.9255 -0.9379 
13.6667 0.2861 0.7139 1.0047 -0.0057 3.4649 0.9611 -0.9690 
13.6667 0.2756 0.7244 0.9846 -0.0056 3.5585 0.9878 -0.9962 
13.6667 0.2651 0.7349 0.9636 -0.0065 3.6431 1.0028 -1.0183 
13.6667 0.2546 0.7454 0.9420 -0.0082 3.7394 1.0169 -1.0388 
13.6667 0.2441 0.7559 0.9196 -0.0096 3.8357 1.0375 -1.0606 
13.6667 0.2336 0.7664 0.8963 -0.0104 3.8908 1.0659 -1.0842 
13.6667 0.2231 0.7769 0.8726 -0.0108 3.9143 1.0911 -1.0989 
13.6667 0.2126 0.7874 0.8492 -0.0104 3.9552 1.0988 -1.1006 
13.6667 0.2021 0.7979 0.8260 -0.0092 4.0006 1.0994 -1.1052 
13.6667 0.1916 0.8084 0.8025 -0.0084 3.9947 1.1003 -1.1041 
13.6667 0.1811 0.8189 0.7782 -0.0090 3.9268 1.0858 -1.0784 
13.6667 0.1706 0.8294 0.7536 -0.0097 3.8511 1.0712 -1.0541 
13.6667 0.1601 0.8399 0.7295 -0.0086 3.7446 1.0564 -1.0294 
13.6667 0.1496 0.8504 0.7059 -0.0070 3.5959 1.0384 -0.9884 
13.6667 0.1391 0.8609 0.6831 -0.0070 3.4373 1.0191 -0.9408 
13.6667 0.1286 0.8714 0.6618 -0.0080 3.2606 0.9996 -0.8935 
13.6667 0.1181 0.8819 0.6418 -0.0085 3.0759 0.9682 -0.8433 
13.6667 0.1076 0.8924 0.6230 -0.0080 2.8941 0.9253 -0.7866 
13.6667 0.0971 0.9029 0.6051 -0.0071 2.7113 0.8779 -0.7187 
13.6667 0.0866 0.9134 0.5880 -0.0065 2.5264 0.8287 -0.6408 
13.6667 0.0761 0.9239 0.5721 -0.0061 2.3359 0.7833 -0.5599 
13.6667 0.0656 0.9344 0.5579 -0.0061 2.1396 0.7432 -0.4794 
13.6667 0.0551 0.9449 0.5455 -0.0068 1.9587 0.7100 -0.4029 
13.6667 0.0446 0.9554 0.5349 -0.0073 1.8049 0.6869 -0.3360 
13.6667 0.0341 0.9659 0.5263 -0.0069 1.6697 0.6697 -0.2718 
13.6667 0.0236 0.9764 0.5198 -0.0061 1.5604 0.6556 -0.1989 
