0.29896907 	0.0031192588 	-0.00038800808 	-9.4487055e-08 	0.0027599221 	4.562367e-07 	0.0027783232
0.30927835 	0.018972443 	-0.0030953468 	-1.9956509e-07 	0.016708236 	-4.9535863e-06 	0.010108156
0.31958763 	0.017496371 	-0.0022573875 	-8.3059338e-07 	0.017180145 	-3.7963297e-05 	0.00014091691
0.32989691 	0.016722427 	-0.0016592268 	1.199127e-06 	0.017924764 	3.6003525e-07 	0.0065741027
0.34020619 	0.015739605 	-0.0011507755 	-2.4092927e-07 	0.018157728 	-8.8306634e-06 	0.002301685
0.35051546 	0.014607414 	-0.0007557547 	2.0190995e-06 	0.017848798 	-4.4892822e-06 	0.0022749617
0.36082474 	0.013319611 	-0.00039865156 	3.2749877e-06 	0.017242302 	-1.1096405e-05 	0.00073068575
0.37113402 	0.012041759 	-9.77986e-05 	2.5149934e-06 	0.016502794 	-1.164293e-05 	0.00052516643
0.3814433 	0.010832823 	0.00015721677 	5.8561044e-07 	0.015722706 	-3.5583452e-06 	0.0014399856
0.39175258 	0.0097007441 	0.00035777457 	-9.7820131e-08 	0.014899857 	-2.5786652e-06 	0.00014304953
0.40206186 	0.0087794139 	0.00052991784 	2.7131528e-07 	0.014185863 	-2.1700911e-06 	0.0028359892
0.41237113 	0.0079643266 	0.00067340205 	1.3721036e-06 	0.013481452 	-1.5932323e-05 	0.0030934525
0.42268041 	0.0072276347 	0.0008042695 	1.75331e-07 	0.01283141 	5.822452e-07 	0.0027225159
0.43298969 	0.0066592972 	0.00086987439 	1.7748685e-06 	0.012034231 	7.1112341e-06 	0.0010295527
0.44329897 	0.0061801561 	0.00095199025 	5.5846746e-08 	0.011457647 	-5.9973194e-06 	0.0038194311
0.45360825 	0.0057983434 	0.00097839486 	2.7421211e-06 	0.010802861 	9.5992215e-06 	0.0015279086
0.46391753 	0.0054870044 	0.0010144282 	2.2653501e-06 	0.010333551 	6.4143655e-06 	0.0026450046
0.4742268 	0.0052327332 	0.0010310612 	2.5122279e-06 	0.009910663 	7.1134028e-06 	0.0026361326
0.48453608 	0.0050415196 	0.001045901 	4.2955434e-06 	0.0095853251 	9.863926e-06 	0.001667978
0.49484536 	0.0048755288 	0.0010577893 	1.878944e-06 	0.0093129671 	4.3146497e-06 	0.002896934
0.50515464 	0.0047538611 	0.0010732955 	3.5472889e-06 	0.0091033023 	7.1572693e-06 	0.0015496081
0.51546392 	0.0046518439 	0.0010884191 	1.5748623e-06 	0.0089394862 	3.1775572e-06 	0.0025488535
0.5257732 	0.0045719847 	0.0011060373 	1.8563179e-06 	0.0088107382 	3.606401e-06 	0.0020962611
0.53608247 	0.0045190366 	0.0011286212 	2.1272963e-06 	0.0087288776 	4.1328502e-06 	0.0017177156
0.54639175 	0.0044677805 	0.0011489489 	-2.2498605e-08 	0.0086624369 	-5.6598269e-07 	0.0029811755
0.55670103 	0.0044535701 	0.0011760078 	3.2593529e-06 	0.0086474108 	6.4952977e-06 	0.00046266919
0.56701031 	0.0044357983 	0.001204841 	4.6440058e-08 	0.0086401647 	-2.4442321e-06 	0.0027309742
0.57731959 	0.0044440044 	0.0012403039 	1.5439704e-06 	0.0086554145 	3.197759e-06 	0.0013462166
0.58762887 	0.004457819 	0.0012860181 	6.7242092e-07 	0.0086996929 	1.3926693e-06 	0.0020217628
0.59793814 	0.0045053405 	0.0013271485 	2.0176401e-07 	0.0087188773 	-2.1490051e-06 	0.002491702
0.60824742 	0.0045891738 	0.001369444 	2.1238682e-06 	0.0087252258 	4.606739e-06 	0.00032456981
0.6185567 	0.0046701294 	0.001417895 	1.3796409e-07 	0.008751321 	-8.0004785e-07 	0.0025232274
0.62886598 	0.0047809512 	0.0014645982 	2.3880617e-07 	0.008782177 	-1.3848268e-06 	0.0024537894
0.63917526 	0.0049144965 	0.001515741 	1.9235779e-06 	0.0088244899 	4.6088453e-06 	3.1915683e-05
0.64948454 	0.0050464587 	0.0015727046 	3.1272489e-07 	0.0088974197 	-8.7998604e-07 	0.0026003912
0.65979381 	0.0051977654 	0.0016223102 	2.1870718e-07 	0.008975969 	-6.1542675e-07 	0.0025605234
0.67010309 	0.0053678647 	0.001669801 	1.3815712e-06 	0.0090657755 	3.7679891e-06 	0.00044795022
0.68041237 	0.0055455325 	0.001721563 	3.7464276e-07 	0.0091876817 	-4.1809053e-07 	0.0027956727
0.69072165 	0.0057331823 	0.0017663352 	1.8033146e-08 	0.0093084861 	5.4876081e-08 	0.0027508065
0.70103093 	0.0059368068 	0.0018091108 	5.0100032e-07 	0.0094454318 	1.5245779e-06 	0.002012747
0.71134021 	0.006145898 	0.0018500421 	2.7332843e-07 	0.0095968647 	2.1130033e-07 	0.003094643
0.72164948 	0.0063630309 	0.0018851012 	9.7068126e-07 	0.0097414054 	3.2089029e-06 	0.00080596234
0.73195876 	0.0065858779 	0.0019239459 	5.8354476e-08 	0.0099141332 	2.8270868e-07 	0.0034460276
0.74226804 	0.0068110113 	0.0019553322 	9.9420524e-08 	0.010075306 	3.5325508e-07 	0.0031981557
0.75257732 	0.0070435881 	0.0019866133 	1.2572248e-07 	0.010245971 	4.4670964e-07 	0.003433253
0.7628866 	0.0072720197 	0.0020127568 	-1.3307493e-08 	0.010411247 	1.800394e-07 	0.0039058339
0.77319588 	0.007503875 	0.0020365321 	5.1327729e-07 	0.010571103 	1.9493626e-06 	0.0022321127
0.78350515 	0.007729239 	0.0020590805 	-8.5246885e-08 	0.010736681 	1.5785918e-07 	0.004348058
0.79381443 	0.0079535633 	0.0020767671 	5.6542731e-07 	0.010882963 	2.290908e-06 	0.0019374242
0.80412371 	0.0081689469 	0.0020941275 	-1.1266874e-07 	0.011036288 	-2.1828714e-08 	0.0048100245
0.81443299 	0.0083800789 	0.0021069074 	3.7099571e-07 	0.011166313 	1.6021584e-06 	0.0029071664
0.82474227 	0.0085794656 	0.0021179547 	-9.0514722e-09 	0.011294327 	-1.2429015e-08 	0.0052833769
0.83505155 	0.0087730701 	0.002127046 	1.6274069e-08 	0.011406765 	7.4889146e-08 	0.0054944628
0.84536082 	0.008952954 	0.0021301119 	3.7947772e-07 	0.011486265 	1.8599121e-06 	0.0023551325
0.8556701 	0.0091240517 	0.0021351003 	-3.1917096e-07 	0.011574381 	-9.7741254e-07 	0.006080296
0.86597938 	0.009286196 	0.0021353632 	2.9011924e-07 	0.011624421 	1.5112957e-06 	0.0031163987
0.87628866 	0.0094383648 	0.0021350204 	2.3814303e-07 	0.011664245 	1.3101319e-06 	0.003404094
0.88659794 	0.0095827875 	0.0021349529 	-1.9493957e-07 	0.011695791 	-9.0418066e-07 	0.0068231379
0.89690722 	0.0097230723 	0.0021334725 	5.2908799e-08 	0.011699124 	3.0311983e-07 	0.0062705414
0.90721649 	0.0098629592 	0.002131629 	3.2371014e-07 	0.011674886 	1.8861236e-06 	0.0018114029
0.91752577 	0.01000435 	0.0021329949 	3.284486e-07 	0.011648737 	1.8802916e-06 	0.0017281235
0.92783505 	0.010152918 	0.002137538 	2.1028642e-07 	0.011618776 	1.1418256e-06 	0.0041418169
0.93814433 	0.01031663 	0.0021477227 	1.6676737e-07 	0.01158434 	8.2602095e-07 	0.0054060109
0.94845361 	0.010498665 	0.002164771 	2.1584071e-07 	0.011553721 	9.7775526e-07 	0.0053115137
0.95876289 	0.010733378 	0.0021835107 	3.3515267e-07 	0.011539759 	1.4265633e-06 	0.0045217074
0.96907216 	0.0110361 	0.0022267888 	7.4824628e-07 	0.011590368 	3.0088844e-06 	0.0019046961
0.97938144 	0.011441053 	0.0022924044 	4.6193551e-08 	0.011758835 	1.1596744e-07 	0.0093474146
0.98969072 	0.0117115 	0.0023459764 	1.4891656e-06 	0.011786128 	7.0230198e-06 	0.0010497206
