0.4 	0.00070004526 	-7.8011858e-05 	2.7116744e-08 	0.00075230221 	-2.1391965e-08 	5.1192745e-05
0.41111111 	0.018695994 	-0.00366591 	3.1559414e-08 	0.020579194 	3.6282587e-06 	0.0030499059
0.42222222 	0.018424719 	-0.0035884162 	2.9072922e-07 	0.01954564 	-2.292994e-06 	0.012079412
0.43333333 	0.017612575 	-0.0033774472 	-1.1146704e-06 	0.017993614 	5.6657234e-06 	0.0034010959
0.44444444 	0.016758625 	-0.003160757 	-5.6239656e-07 	0.016536641 	2.0429363e-06 	0.0095954628
0.45555556 	0.01594009 	-0.0029210915 	-2.625608e-06 	0.015157636 	8.0614422e-06 	8.2272398e-05
0.46666667 	0.015158442 	-0.0026883931 	-1.8691901e-06 	0.013917193 	4.9269006e-06 	0.0049096546
0.47777778 	0.014442162 	-0.0024666461 	-1.6014672e-06 	0.01279684 	3.6494326e-06 	0.0067773768
0.48888889 	0.013792605 	-0.0022570819 	-1.8845398e-06 	0.01178961 	3.7317876e-06 	0.0063601782
0.5 	0.013208017 	-0.002059113 	-2.7407809e-06 	0.010886792 	4.7290562e-06 	0.0042415766
0.51111111 	0.012685854 	-0.0018717349 	-4.1638803e-06 	0.010079279 	6.2643922e-06 	0.00091106362
0.52222222 	0.012204489 	-0.0016845045 	-3.3729202e-06 	0.0093479526 	4.4155312e-06 	0.003727602
0.53333333 	0.01176919 	-0.0014988708 	-1.300543e-06 	0.0086860133 	1.4736588e-06 	0.0090351109
0.54444444 	0.011412101 	-0.0013263075 	-1.233742e-06 	0.0081163556 	1.3979658e-06 	0.008766695
0.55555556 	0.01113995 	-0.0011689188 	-4.1641618e-06 	0.0076450567 	4.0472052e-06 	0.0019463085
0.56666667 	0.010886637 	-0.00099764513 	-2.4991563e-06 	0.007213145 	2.0568317e-06 	0.0054826133
0.57777778 	0.010689216 	-0.00082870718 	-8.3098902e-07 	0.0068470235 	6.8391263e-07 	0.0085037013
0.58888889 	0.01059118 	-0.00067769304 	-4.817092e-06 	0.0065937599 	3.305035e-06 	0.00044642857
0.6 	0.010484091 	-0.00049905235 	-7.1270774e-07 	0.0063445521 	4.0133798e-07 	0.0082977751
0.61111111 	0.010478274 	-0.00033907075 	-3.0719869e-06 	0.0062120586 	1.7298886e-06 	0.0035871397
0.62222222 	0.010488663 	-0.00016463848 	-1.8554743e-06 	0.0061093767 	8.489316e-07 	0.0057585968
0.63333333 	0.010554925 	7.7359904e-06 	-2.1982156e-06 	0.0060785737 	1.0057454e-06 	0.0050349213
0.64444444 	0.010656278 	0.00018409842 	-2.0799596e-06 	0.0061015463 	7.7865408e-07 	0.0049887897
0.65555556 	0.010794964 	0.00036227506 	-2.0578085e-06 	0.0061785378 	7.7036158e-07 	0.0050911683
0.66666667 	0.010963565 	0.00054160498 	-1.5779181e-06 	0.0063042366 	5.0609503e-07 	0.0057330093
0.67777778 	0.011171221 	0.00071689312 	-2.4150251e-06 	0.006491229 	7.7458529e-07 	0.0039086008
0.68888889 	0.011385542 	0.00089648608 	-6.6343962e-07 	0.0066928144 	2.0314869e-07 	0.0078846273
0.7 	0.011651669 	0.0010571463 	-2.9296006e-06 	0.0069806283 	8.9705907e-07 	0.0016123214
0.71111111 	0.011915562 	0.0012424167 	2.432746e-07 	0.0072594256 	3.5811135e-07 	0.010300306
0.72222222 	0.012219216 	0.0013847979 	-2.6322435e-06 	0.0076178206 	9.0533384e-07 	0.00088454171
0.73333333 	0.012542089 	0.0015640401 	-2.7891095e-07 	0.0079920888 	9.5928634e-08 	0.0099622257
0.74444444 	0.012881714 	0.0017028953 	-1.8763092e-06 	0.0084081644 	8.3399674e-07 	0.0021463644
0.75555556 	0.013245896 	0.0018664641 	-3.7823163e-07 	0.008854147 	1.6811939e-07 	0.0099649127
0.76666667 	0.013617693 	0.0019983629 	-1.5456087e-06 	0.0093226225 	9.4996495e-07 	0.0019920498
0.77777778 	0.014019303 	0.0021533723 	-1.6032738e-07 	0.0098299734 	9.8540714e-08 	0.011747795
0.78888889 	0.014417832 	0.0022744661 	-1.4149236e-06 	0.010341807 	1.2316438e-06 	0.00010655879
0.8 	0.014853343 	0.0024219636 	-1.5543128e-07 	0.010904323 	1.9379198e-07 	0.011278711
0.81111111 	0.015285938 	0.0025450845 	-6.4631353e-07 	0.011466886 	8.0582478e-07 	0.0051835107
0.82222222 	0.015736303 	0.0026745615 	-4.357657e-07 	0.012056313 	7.8957651e-07 	0.0055912842
0.83333333 	0.016207411 	0.0028075208 	-9.1686603e-09 	0.012679771 	1.6612961e-08 	0.013781135
0.84444444 	0.016668627 	0.0029238924 	-3.4888128e-07 	0.01328909 	9.4371692e-07 	0.0043290759
0.85555556 	0.01714842 	0.0030472366 	-2.1268573e-07 	0.013931349 	9.0127429e-07 	0.004667414
0.86666667 	0.017642381 	0.0031733936 	-1.9331802e-08 	0.014604807 	1.3983753e-07 	0.012919421
0.87777778 	0.018134415 	0.0032918594 	-1.346088e-08 	0.015277705 	9.7369935e-08 	0.013649865
0.88888889 	0.018618186 	0.0034048462 	-3.6787283e-08 	0.015946232 	5.3488761e-07 	0.0083369269
0.9 	0.019099477 	0.0035159338 	-1.8127191e-08 	0.016624146 	7.5950162e-07 	0.0044319509
0.91111111 	0.019572548 	0.0036238211 	-3.5773106e-09 	0.017308279 	7.4147871e-07 	0.0024395677
0.92222222 	0.02002806 	0.0037267126 	-1.4318207e-08 	0.017993366 	5.027307e-07 	0.0029098117
0.93333333 	0.020452986 	0.0038224175 	-3.8283684e-08 	0.018667636 	1.5926915e-07 	0.0064313742
0.94444444 	0.020823692 	0.0039048058 	-1.7123081e-08 	0.01931559 	-2.0418464e-08 	0.013615669
0.95555556 	0.021080102 	0.0039723914 	-7.0942041e-09 	0.019861632 	1.2994425e-07 	0.015298237
0.96666667 	0.021146328 	0.0039811538 	-1.0045112e-07 	0.02024586 	-2.1442482e-08 	0.015118654
0.97777778 	0.02082495 	0.0039288479 	-7.7108181e-07 	0.020244251 	-3.2942287e-06 	0.0027059159
0.98888889 	0.019289744 	0.003679632 	-1.13545e-06 	0.01905898 	-5.2743499e-06 	0.0027599686
