0.47777778 	0.021832152 	-0.0043054047 	4.7558098e-09 	0.021787326 	-2.3006962e-08 	0.0018102171
0.48888889 	0.021787815 	-0.0042681853 	1.4410373e-09 	0.021769808 	-4.0993001e-09 	0.012110752
0.5 	0.020388104 	-0.0040177311 	1.1348948e-09 	0.020369727 	4.6691984e-10 	0.011503829
0.51111111 	0.018953218 	-0.0037654182 	4.5176213e-10 	0.018941286 	3.2061818e-09 	0.012060635
0.52222222 	0.017557364 	-0.0034821045 	1.6018326e-09 	0.017528557 	2.6308016e-08 	0.003791422
0.53333333 	0.016254439 	-0.0032192692 	4.0916912e-07 	0.016244532 	-1.9709321e-06 	0.011742779
0.54444444 	0.015037105 	-0.002958927 	6.0658957e-07 	0.015027126 	-2.8260126e-06 	0.010996527
0.55555556 	0.013914881 	-0.0027042843 	-3.0295285e-10 	0.013903235 	1.073308e-08 	0.0088709347
0.56666667 	0.012893593 	-0.0024562513 	-6.2532286e-10 	0.012881638 	1.5733199e-08 	0.0076677459
0.57777778 	0.01197457 	-0.002215161 	-2.7387816e-10 	0.011965852 	5.0996642e-09 	0.0082183936
0.58888889 	0.011159317 	-0.0019796717 	1.0811977e-06 	0.011152612 	-3.9056559e-06 	0.0081453033
0.6 	0.010446049 	-0.0017493492 	5.1556904e-07 	0.010440326 	-1.6675185e-06 	0.0075324131
0.61111111 	0.0098378602 	-0.0015222376 	-2.1373948e-09 	0.0098272489 	1.8737637e-08 	0.0038756245
0.62222222 	0.0093275498 	-0.0012997676 	-4.2497668e-09 	0.0093128805 	1.2580949e-08 	0.00074345423
0.63333333 	0.0089099793 	-0.0010876784 	-4.4994008e-10 	0.0089066699 	-1.9693482e-09 	0.005876709
0.64444444 	0.0085835647 	-0.00087631493 	-6.481362e-11 	0.0085820922 	-2.8368353e-10 	0.006103053
0.65555556 	0.0083529588 	-0.00066409596 	-3.4359546e-09 	0.0083417125 	-5.2476366e-08 	0.00035890417
0.66666667 	0.0081850195 	-0.00046405892 	-1.1248823e-11 	0.0081852026 	-4.3028935e-10 	0.0059389318
0.67777778 	0.0081063846 	-0.00026177961 	-8.0757763e-10 	0.0081033812 	-3.0891448e-08 	0.003896365
0.68888889 	0.0080932108 	-6.3632183e-05 	-4.6047641e-10 	0.0080888456 	-6.1987562e-08 	0.0029347068
0.7 	0.0081300316 	0.0001284517 	9.6696103e-08 	0.0081317104 	-1.9169878e-08 	0.0059207167
0.71111111 	0.0082507945 	0.00032227049 	6.1780444e-10 	0.0082442633 	-1.120868e-07 	0.0014712841
0.72222222 	0.0083967096 	0.00050626845 	8.4874556e-07 	0.0083992088 	2.988428e-07 	0.0061213455
0.73333333 	0.0086181358 	0.00068883287 	2.1791435e-09 	0.0086113783 	-1.3011812e-07 	0.0012943502
0.74444444 	0.0088654819 	0.00086988546 	9.0302821e-07 	0.0088684125 	8.2274159e-07 	0.006472437
0.75555556 	0.0091707299 	0.001042853 	3.5797445e-09 	0.0091630007 	-1.3802357e-07 	0.0012338501
0.76666667 	0.0095135785 	0.0012216818 	1.3007016e-06 	0.0095158269 	1.8963182e-06 	0.0069338913
0.77777778 	0.009898462 	0.0013898909 	5.4621159e-09 	0.0098864179 	-1.6388176e-07 	0.00015413775
0.78888889 	0.010321381 	0.0015642401 	5.90964e-07 	0.010321702 	1.1528801e-06 	0.0074599541
0.8 	0.010780038 	0.0017297454 	3.2450488e-09 	0.010771662 	-8.2506453e-08 	0.0038409674
0.81111111 	0.011271134 	0.0018960034 	2.7884752e-09 	0.011262292 	-6.2150946e-08 	0.0045985824
0.82222222 	0.011795834 	0.0020617587 	6.8966615e-07 	0.011792693 	1.9380995e-06 	0.008613866
0.83333333 	0.012346474 	0.0022210892 	4.5748125e-09 	0.012330294 	-9.0545865e-08 	0.0028403052
0.84444444 	0.012929058 	0.0023824887 	3.2364142e-09 	0.0129141 	-5.8667828e-08 	0.0045431396
0.85555556 	0.013540324 	0.0025437122 	4.8614246e-07 	0.013533395 	1.7098787e-06 	0.009806379
0.86666667 	0.01417408 	0.0027013212 	1.6798095e-10 	0.014165709 	-2.8668792e-09 	0.010097555
0.87777778 	0.014829145 	0.0028557379 	2.6975194e-09 	0.014809941 	-4.3694211e-08 	0.0054493149
0.88888889 	0.015506597 	0.0030094408 	4.0393096e-09 	0.015478586 	-6.2291474e-08 	0.0018230694
0.9 	0.016206552 	0.0031626696 	4.0014534e-09 	0.016173806 	-6.0838213e-08 	0.00030325803
0.91111111 	0.016927168 	0.0033151127 	3.3418641e-09 	0.016892771 	-5.099879e-08 	0.00030435709
0.92222222 	0.017667149 	0.0034668255 	2.3421021e-09 	0.017635115 	-3.5270301e-08 	0.002461771
0.93333333 	0.018424711 	0.0036181093 	8.4986793e-10 	0.01840365 	-1.3003647e-08 	0.008617149
0.94444444 	0.019195162 	0.0037678869 	4.3967138e-07 	0.019180668 	2.3658181e-06 	0.013960901
0.95555556 	0.019961961 	0.0039129048 	5.611691e-10 	0.019932337 	-1.2299889e-08 	0.0051970496
0.96666667 	0.020710344 	0.0040384254 	1.1066516e-07 	0.020695664 	7.9713073e-07 	0.015048238
0.97777778 	0.021375389 	0.0041580405 	-6.2786958e-11 	0.021353802 	-3.0098266e-09 	0.01093935
0.98888889 	0.021465425 	0.0041798185 	-1.7541362e-10 	0.021437982 	-1.3599859e-09 	0.013088203
