0.4742268 	0.80925709 	0.00025800421 	3.3055627e-10
0.48453608 	1.1290308 	0.00010861026 	-4.6990824e-09
0.49484536 	1.2082403 	0.00021467405 	4.3503203e-07
0.50515464 	1.255355 	0.00033301473 	-4.9444376e-11
0.51546392 	1.2859159 	0.00043007507 	2.4490331e-07
0.5257732 	1.3094914 	0.00054730599 	1.0322389e-06
0.53608247 	1.3279056 	0.00064921074 	3.6188531e-07
0.54639175 	1.3424288 	0.00074487767 	7.7472038e-08
0.55670103 	1.3539424 	0.00082756321 	4.3341308e-08
0.56701031 	1.3630988 	0.00089800863 	1.7575904e-07
0.57731959 	1.3704027 	0.00095534896 	3.4248463e-07
0.58762887 	1.3762488 	0.0010006282 	3.1487929e-07
0.59793814 	1.3809435 	0.0010351332 	2.5835818e-08
0.60824742 	1.3846029 	0.0010587917 	-4.2782706e-07
0.6185567 	1.3873574 	0.0010726931 	-3.5248263e-08
0.62886598 	1.3894432 	0.001078336 	-2.2988247e-07
0.63917526 	1.3909881 	0.0010771601 	-3.2734044e-07
0.64948454 	1.3919285 	0.0010688759 	-2.8724389e-07
0.65979381 	1.3924749 	0.0010555561 	-1.8477581e-07
0.67010309 	1.3925874 	0.0010365863 	-3.9421292e-08
0.68041237 	1.3922752 	0.0010129451 	-6.5828527e-07
0.69072165 	1.3916709 	0.00098549578 	-1.989308e-07
0.70103093 	1.3906871 	0.00095472984 	-9.7305004e-07
0.71134021 	1.3894379 	0.00092064633 	-1.9184506e-07
0.72164948 	1.3878582 	0.00088463988 	-9.8758957e-07
0.73195876 	1.3860565 	0.00084626029 	-7.5877227e-08
0.74226804 	1.3838803 	0.00080571673 	-7.0622809e-07
0.75257732 	1.381504 	0.0007636327 	-7.7660332e-08
0.7628866 	1.3787303 	0.00072015449 	-4.5346228e-07
0.77319588 	1.3756925 	0.00067507966 	-1.3602611e-07
0.78350515 	1.3722917 	0.00063030942 	-5.1293554e-07
0.79381443 	1.3686141 	0.00058467506 	-2.5034182e-08
0.80412371 	1.3644944 	0.00053993502 	-8.5930698e-07
0.81443299 	1.3601101 	0.00049550403 	-1.1592166e-07
0.82474227 	1.3551706 	0.00045185654 	-7.6503724e-07
0.83505155 	1.3498811 	0.0004097753 	-1.007585e-07
0.84536082 	1.3440539 	0.00036899074 	-2.6201033e-08
0.8556701 	1.3375637 	0.00033071272 	-6.0547675e-07
0.86597938 	1.3304943 	0.00029465676 	-2.5309037e-07
0.87628866 	1.3226956 	0.00026110251 	-2.0494001e-08
0.88659794 	1.3139272 	0.00023037934 	-5.5509224e-09
0.89690722 	1.3040553 	0.0002028629 	-1.1968868e-07
0.90721649 	1.2928956 	0.00017832431 	-2.0631491e-07
0.91752577 	1.2801531 	0.00015642128 	-2.0326586e-07
0.92783505 	1.2653968 	0.00013670574 	-1.329892e-07
0.93814433 	1.2480299 	0.00011840337 	-3.8672412e-08
0.94845361 	1.2270405 	0.00010386822 	-3.7899529e-09
0.95876289 	1.2006379 	8.3470039e-05 	-9.603872e-08
0.96907216 	1.1652882 	6.5345363e-05 	-6.9245766e-09
0.97938144 	1.1118005 	4.4202312e-05 	-2.1080557e-08
0.98969072 	1.0030703 	2.636529e-05 	2.6533529e-07
