1.4101108e-19 	0.012145363 	-8.2485648e-16 	-5.2914256e-22 	5.7467333e-18 	1.2484474e-19 	2.9131427e-18
0.010869565 	0.0121663 	-0.00017495093 	1.2706434e-08 	0.01310136 	-1.2774658e-05 	0.0096756404
0.02173913 	0.012260364 	-0.0003486263 	7.1900931e-09 	0.013191095 	-1.5192432e-05 	0.0089086765
0.032608696 	0.01241483 	-0.0005204478 	6.3608129e-08 	0.013336461 	-5.5531634e-07 	0.0070171694
0.043478261 	0.012620008 	-0.00068697945 	5.3430973e-08 	0.013534446 	-1.8737738e-05 	0.0075264991
0.054347826 	0.012874615 	-0.00085117149 	3.7898769e-07 	0.013768207 	-2.436761e-06 	0.0022443205
0.065217391 	0.013176976 	-0.0010158594 	3.2852401e-07 	0.01405613 	-1.9596667e-06 	0.0027275246
0.076086957 	0.013467 	-0.0011546388 	2.8937816e-07 	0.014330272 	-1.6184458e-06 	0.0028316787
0.086956522 	0.013785443 	-0.0012940876 	2.4858031e-07 	0.014633065 	-1.4912477e-05 	0.004949412
0.097826087 	0.014109508 	-0.0014258382 	5.3379249e-07 	0.014933284 	-2.1157989e-05 	0.0043484517
0.10869565 	0.014434918 	-0.0015509203 	1.9436466e-07 	0.015229024 	-1.0049858e-06 	0.0021801136
0.11956522 	0.014744363 	-0.0016638517 	4.8806122e-07 	0.01551068 	-1.3581416e-05 	0.0030214626
0.13043478 	0.015035152 	-0.0017674691 	1.0716626e-06 	0.015768396 	-2.1993339e-05 	0.0023988059
0.14130435 	0.015313329 	-0.0018646233 	4.4096639e-09 	0.016011045 	-2.193418e-08 	0.0016805539
0.15217391 	0.015546778 	-0.0019455737 	2.0432049e-06 	0.01620571 	-3.2403928e-05 	0.0010877217
0.16304348 	0.015768284 	-0.0020225332 	3.7749511e-07 	0.016387353 	-4.8235232e-06 	0.00044088089
0.17391304 	0.015937449 	-0.0020831948 	2.2700707e-06 	0.016514633 	-2.9006306e-05 	0.00025709396
0.18478261 	0.016092412 	-0.0021398255 	6.67764e-07 	0.016628793 	-7.1269688e-06 	0.00090609831
0.19565217 	0.016191585 	-0.0021805287 	2.5471919e-06 	0.016685387 	-2.7185888e-05 	0.0015141273
0.20652174 	0.016278373 	-0.002217788 	1.6384595e-07 	0.016728996 	-1.5048636e-06 	0.0021192471
0.2173913 	0.016299292 	-0.0022370285 	3.3833321e-06 	0.016706257 	-3.1074637e-05 	0.0026784206
0.22826087 	0.016313802 	-0.0022542561 	4.082109e-07 	0.016671323 	-1.9424884e-06 	0.00050767018
0.23913043 	0.016263 	-0.0022542424 	3.4595273e-06 	0.016582395 	-2.799573e-05 	0.0037164854
0.25 	0.016202813 	-0.0022513664 	4.8222458e-07 	0.016479111 	-3.9023336e-06 	0.0042202416
0.26086957 	0.016093485 	-0.0022349132 	1.3352487e-06 	0.016326882 	-9.6884208e-06 	0.0045957759
0.27173913 	0.015954531 	-0.0022098802 	2.6995404e-06 	0.016147179 	-1.9587574e-05 	0.0050390529
0.2826087 	0.015793166 	-0.0021779928 	6.4300919e-07 	0.01593587 	-3.0556104e-06 	0.00077610385
0.29347826 	0.015596619 	-0.0021361841 	3.3164941e-06 	0.015710527 	-2.1832054e-05 	0.0056686069
0.30434783 	0.015387494 	-0.0020897843 	8.2893696e-07 	0.015464737 	-5.4567854e-06 	0.0060482681
0.31521739 	0.015142896 	-0.0020320591 	3.5053938e-07 	0.015179205 	-1.6847867e-06 	0.0035006773
0.32608696 	0.014885412 	-0.001968896 	4.3247337e-06 	0.01489483 	-2.5983245e-05 	0.0064102592
0.33695652 	0.014619778 	-0.0019021866 	5.6137788e-08 	0.014597143 	-2.7632493e-07 	0.0062487173
0.34782609 	0.014323104 	-0.0018237711 	3.5763812e-07 	0.014266353 	-1.7603887e-06 	0.0037294338
0.35869565 	0.014031802 	-0.0017442159 	4.0513663e-06 	0.013954577 	-2.2202553e-05 	0.0068279151
0.36956522 	0.013735124 	-0.0016608809 	3.8355913e-08 	0.013632243 	-1.9631014e-07 	0.0067190093
0.38043478 	0.013416393 	-0.0015659311 	5.2812444e-07 	0.013282001 	-2.7030039e-06 	0.0021519388
0.39130435 	0.013117037 	-0.0014751859 	2.3291824e-06 	0.012970894 	-1.1534195e-05 	0.0069630861
0.40217391 	0.012818808 	-0.0013793213 	1.080799e-06 	0.012653529 	-5.3521552e-06 	0.0071608058
0.41304348 	0.01250987 	-0.001272882 	6.1657329e-07 	0.012314743 	-3.3326715e-06 	0.00073079192
0.42391304 	0.012220692 	-0.0011736976 	8.8362905e-08 	0.012019272 	-4.7761481e-07 	0.0060234344
0.43478261 	0.011949701 	-0.0010696728 	3.6491091e-06 	0.011735376 	-1.5971375e-05 	0.0070424466
0.44565217 	0.011683408 	-0.00096099475 	1.9468153e-07 	0.011450724 	-1.1270894e-06 	0.0047485851
0.45652174 	0.011427235 	-0.00084861437 	4.3391818e-07 	0.011176135 	-2.5121262e-06 	0.0017322695
0.4673913 	0.011188586 	-0.00074323466 	5.335494e-07 	0.010935035 	-1.9958671e-06 	0.006836169
0.47826087 	0.010983504 	-0.00063478304 	1.9157985e-06 	0.010719151 	-7.1664949e-06 	0.0069455677
0.48913043 	0.010795973 	-0.00052215737 	2.4502513e-07 	0.010514452 	-1.5484402e-06 	0.0032892721
0.5 	0.010619754 	-0.00040864633 	3.0397167e-07 	0.010326546 	-1.9209537e-06 	0.0023201818
0.51086957 	0.010453023 	-0.00029721462 	8.2232036e-07 	0.010158566 	-2.4592493e-06 	0.0067640656
0.52173913 	0.010327741 	-0.00018657848 	8.2969703e-07 	0.010025052 	-2.4813101e-06 	0.0068437068
0.5326087 	0.010236803 	-7.4560759e-05 	2.2019135e-07 	0.0099183214 	-1.6011541e-06 	0.0023573762
0.54347826 	0.010150236 	4.0084397e-05 	1.8162523e-07 	0.0098257937 	-1.3207148e-06 	0.003114589
0.55434783 	0.01007735 	0.00015510205 	1.5830783e-06 	0.0097529925 	-3.4409209e-06 	0.0068087989
0.56521739 	0.010044218 	0.00026686269 	2.934646e-08 	0.0097129725 	-2.9188596e-07 	0.0058535845
0.57608696 	0.01004471 	0.00037710694 	1.9252107e-07 	0.0096993469 	-1.9148544e-06 	0.00027259484
0.58695652 	0.010044056 	0.00049221812 	3.9785959e-08 	0.0097048455 	-3.9571937e-07 	0.0055822261
0.59782609 	0.010072987 	0.00060273956 	1.0300133e-06 	0.0097345111 	-1.4698463e-06 	0.0069987765
0.60869565 	0.010136457 	0.00070892765 	3.8311421e-08 	0.0097898462 	-1.0687494e-06 	0.0025167644
0.61956522 	0.010209533 	0.00081757431 	2.9098491e-08 	0.0098660657 	-8.1174213e-07 	0.0037248931
0.63043478 	0.010295887 	0.00092519529 	1.6923415e-06 	0.0099610588 	-1.2893204e-06 	0.0072749761
0.64130435 	0.010410901 	0.0010257136 	-3.9424363e-08 	0.010073855 	-7.3195655e-07 	0.0037311308
0.65217391 	0.010539503 	0.0011266225 	-4.8269413e-08 	0.010206834 	-8.9617461e-07 	0.0030714382
0.66304348 	0.010677125 	0.0012280299 	1.207975e-06 	0.010359624 	-2.1723482e-07 	0.0076477084
0.67391304 	0.010833862 	0.0013205657 	-1.1013598e-07 	0.010517788 	-7.664936e-07 	0.0037224911
0.68478261 	0.011001978 	0.0014135739 	-1.104867e-07 	0.010696335 	-7.6893446e-07 	0.0039034722
0.69565217 	0.011176974 	0.0015055453 	7.1901124e-07 	0.010890306 	2.2593448e-07 	0.0080714511
0.70652174 	0.011360767 	0.0015877417 	-2.4752844e-07 	0.011075754 	-1.1959446e-06 	0.0021173503
0.7173913 	0.011554202 	0.0016731599 	-7.3145365e-08 	0.011291883 	-3.5340507e-07 	0.0066411198
0.72826087 	0.011746947 	0.0017519397 	-5.3015448e-08 	0.011501253 	-2.2289632e-07 	0.0074820543
0.73913043 	0.011941346 	0.0018235393 	-3.5258791e-07 	0.011701214 	-1.4824085e-06 	0.0017819403
0.75 	0.012141125 	0.0018978877 	5.1347372e-07 	0.011932 	4.6277456e-07 	0.0089079486
0.76086957 	0.012327991 	0.0019604117 	-3.9574196e-07 	0.012124065 	-1.6109808e-06 	0.0022326332
0.77173913 	0.012521159 	0.0020254805 	-3.162004e-08 	0.012348906 	-1.2871841e-07 	0.0087151278
0.7826087 	0.012694119 	0.0020801015 	-2.6636072e-07 	0.012534167 	-1.1046119e-06 	0.005126309
0.79347826 	0.012863876 	0.0021327705 	-1.7685463e-07 	0.012727177 	-7.3342541e-07 	0.0067308017
0.80434783 	0.013015852 	0.0021794391 	-1.9055186e-07 	0.012899126 	-8.2395833e-07 	0.0067368638
0.81521739 	0.013153071 	0.0022206171 	-2.3614559e-07 	0.013055689 	-1.0211085e-06 	0.0062018434
0.82608696 	0.01327026 	0.0022568457 	-2.1320334e-07 	0.013193706 	-9.7089656e-07 	0.0066805404
0.83695652 	0.013367306 	0.002287479 	-1.6567037e-07 	0.013312261 	-7.5443842e-07 	0.0074958163
0.84782609 	0.013436004 	0.0023113489 	-3.6310044e-07 	0.01339389 	-1.7479296e-06 	0.0045940094
0.85869565 	0.013484846 	0.0023320032 	-3.4306608e-08 	0.013471633 	-3.193955e-07 	0.01005212
0.86956522 	0.013495245 	0.0023427662 	-6.4863402e-07 	0.01347901 	-3.3061018e-06 	0.00015523257
0.88043478 	0.013483507 	0.0023529014 	-5.8817821e-09 	0.013501792 	-4.6918631e-08 	0.010066332
0.89130435 	0.013431616 	0.0023540429 	-1.6553646e-07 	0.01345624 	-8.9464117e-07 	0.0073650196
0.90217391 	0.013346793 	0.0023493947 	-4.9570573e-07 	0.013369364 	-2.8456867e-06 	0.0013865056
0.91304348 	0.013227246 	0.0023430533 	-5.5275961e-08 	0.013271777 	-3.3829179e-07 	0.0088361999
0.92391304 	0.013067263 	0.0023344746 	-1.1484041e-07 	0.013117234 	-8.5759947e-07 	0.0097539029
0.93478261 	0.012869311 	0.0023081128 	-9.1546665e-08 	0.012912136 	-5.9638618e-07 	0.0075901037
0.94565217 	0.012618646 	0.0022865214 	-1.5417468e-07 	0.01265979 	-1.3627973e-06 	0.0094310517
0.95652174 	0.012336425 	0.0022607805 	-2.3645824e-07 	0.012352618 	-1.7948345e-06 	0.0010334649
0.9673913 	0.011997249 	0.0022334543 	-4.5254621e-08 	0.012012068 	-3.7360164e-07 	0.0066205386
0.97826087 	0.01157195 	0.0021941031 	-8.6614393e-08 	0.011563128 	-7.5521358e-07 	0.0010441497
0.98913043 	0.010538212 	0.0020502817 	-2.1170773e-08 	0.010499184 	-1.8543154e-07 	0.0013748783
