0.34020619 	0.95574348 	0.16360804 	-0.00016720108
0.35051546 	1.197275 	0.20100944 	-0.0005396638
0.36082474 	1.2463262 	0.20290573 	-0.00035219671
0.37113402 	1.2665334 	0.19963646 	-3.5724656e-08
0.3814433 	1.2770437 	0.19508926 	-4.4706016e-05
0.39175258 	1.2826903 	0.18984108 	-0.00015399005
0.40206186 	1.2858195 	0.18434582 	-0.00012987773
0.41237113 	1.2872435 	0.17879426 	-6.7830977e-05
0.42268041 	1.28741 	0.17327471 	-3.0735177e-05
0.43298969 	1.2866009 	0.16781638 	-0.00010142279
0.44329897 	1.2851858 	0.1624841 	-0.00017939973
0.45360825 	1.2833059 	0.15728231 	-9.3291617e-05
0.46391753 	1.2808965 	0.15209616 	-9.4068413e-05
0.4742268 	1.2783092 	0.14716559 	-6.4744535e-05
0.48453608 	1.2753961 	0.14239404 	-5.0833922e-05
0.49484536 	1.2719926 	0.13748286 	-0.00011082584
0.50515464 	1.2687376 	0.1330188 	-0.0001106145
0.51546392 	1.264844 	0.12830987 	-0.00012615469
0.5257732 	1.2613082 	0.12407216 	-3.3400537e-05
0.53608247 	1.2570713 	0.11955722 	-0.00011379967
0.54639175 	1.2533383 	0.11554851 	-5.28223e-06
0.55670103 	1.24897 	0.11120096 	-0.00012796539
0.56701031 	1.2451464 	0.10747021 	-2.1167545e-05
0.57731959 	1.2410021 	0.10333518 	-0.00014316517
0.58762887 	1.2372789 	0.099898929 	-2.1764489e-05
0.59793814 	1.2333416 	0.096158645 	-8.6029837e-05
0.60824742 	1.2295495 	0.092720367 	-7.658182e-05
0.6185567 	1.2257606 	0.089445159 	-2.6324402e-05
0.62886598 	1.2215637 	0.085875307 	-0.00011640785
0.63917526 	1.2177328 	0.082900037 	-2.7703092e-05
0.64948454 	1.2135697 	0.079777356 	-4.1760054e-05
0.65979381 	1.2092411 	0.076645899 	-7.7230417e-05
0.67010309 	1.2049539 	0.073773466 	-2.2605306e-06
0.68041237 	1.2004434 	0.070850283 	-4.8881279e-05
0.69072165 	1.1957793 	0.067986614 	-4.6646588e-05
0.70103093 	1.1909645 	0.065205898 	-5.6645884e-06
0.71134021 	1.1861282 	0.062401216 	-6.418842e-05
0.72164948 	1.181009 	0.059745319 	-1.1700268e-05
0.73195876 	1.1758816 	0.057073723 	-3.3347739e-05
0.74226804 	1.1705916 	0.054464769 	-3.0438109e-05
0.75257732 	1.1651659 	0.051913231 	-1.5433628e-05
0.7628866 	1.1596979 	0.049358387 	-3.8608112e-05
0.77319588 	1.1539782 	0.046907018 	-7.2546932e-06
0.78350515 	1.1483022 	0.044416151 	-3.8750949e-05
0.79381443 	1.1423102 	0.042040741 	-6.4756165e-06
0.80412371 	1.1363734 	0.039624211 	-3.2709339e-05
0.81443299 	1.1301348 	0.037301112 	-1.1390025e-05
0.82474227 	1.1238621 	0.034966246 	-2.1571215e-05
0.83505155 	1.1173901 	0.032674864 	-1.9551873e-05
0.84536082 	1.1106852 	0.030425495 	-5.0358975e-06
0.8556701 	1.103929 	0.02815698 	-2.6208175e-05
0.86597938 	1.0967431 	0.025962067 	-9.3540264e-06
0.87628866 	1.0893361 	0.0237744 	-3.1063956e-06
0.88659794 	1.081633 	0.021589552 	-1.5336761e-05
0.89690722 	1.0734208 	0.019440942 	-1.4261789e-05
0.90721649 	1.0645907 	0.017318465 	-5.3837409e-06
0.91752577 	1.0550365 	0.015210938 	-5.3692706e-07
0.92783505 	1.0443876 	0.0131175 	-6.0594192e-06
0.93814433 	1.0321994 	0.011057075 	-3.5550984e-06
0.94845361 	1.0178046 	0.0090157021 	-7.0027118e-06
0.95876289 	0.99921073 	0.0070015366 	-4.4485016e-06
0.96907216 	0.97376932 	0.0050234815 	-1.9795032e-06
0.97938144 	0.93289142 	0.0031158036 	-1.1121559e-06
0.98969072 	0.83904151 	0.0013894761 	-7.0354899e-07
