0.4742268 	0.80771793 	0.000258768 	3.8747898e-10
0.48453608 	1.1271792 	9.6473474e-05 	-8.3832769e-09
0.49484536 	1.2062175 	0.00019101126 	3.5795405e-07
0.50515464 	1.2532041 	0.00029651927 	-1.3683256e-08
0.51546392 	1.2837504 	0.00038108756 	1.6175194e-07
0.5257732 	1.3073559 	0.00048671495 	8.6770781e-07
0.53608247 	1.3258657 	0.00057738922 	2.7007449e-07
0.54639175 	1.3405389 	0.00066376131 	1.6961568e-08
0.55670103 	1.3522388 	0.000738795 	-5.3984839e-09
0.56701031 	1.3616071 	0.00080344555 	1.2255054e-07
0.57731959 	1.3691267 	0.00085656773 	2.929383e-07
0.58762887 	1.3751839 	0.00089899051 	2.8828386e-07
0.59793814 	1.3800793 	0.0009317486 	2.0552132e-08
0.60824742 	1.383914 	0.0009545808 	-4.2006675e-07
0.6185567 	1.3868455 	0.00096879362 	-1.8406871e-08
0.62886598 	1.3890817 	0.00097532483 	-1.7212851e-07
0.63917526 	1.3907533 	0.00097548109 	-3.3159124e-07
0.64948454 	1.391824 	0.00096941764 	-2.1742804e-07
0.65979381 	1.3924799 	0.00095859174 	-1.1819032e-07
0.67010309 	1.3926802 	0.00094245081 	-7.0072843e-08
0.68041237 	1.3924657 	0.00092228425 	-5.2486297e-07
0.69072165 	1.3919305 	0.00089835326 	-2.1323234e-07
0.70103093 	1.3910294 	0.00087163465 	-7.9580019e-07
0.71134021 	1.389833 	0.00084158991 	-2.0519194e-07
0.72164948 	1.3883227 	0.00080997281 	-8.0291902e-07
0.73195876 	1.386559 	0.00077591562 	-9.6177043e-08
0.74226804 	1.3844381 	0.00073996099 	-5.5049968e-07
0.75257732 	1.3820996 	0.00070250194 	-2.7160746e-09
0.7628866 	1.3793567 	0.00066368447 	-3.2824371e-07
0.77319588 	1.3763459 	0.0006234272 	-4.5855616e-08
0.78350515 	1.3729638 	0.00058341661 	-3.8842529e-07
0.79381443 	1.3692927 	0.00054266104 	-4.0342421e-08
0.80412371 	1.3651856 	0.00050259258 	-7.075719e-07
0.81443299 	1.3607945 	0.00046288832 	-1.3051135e-07
0.82474227 	1.3558529 	0.0004237664 	-6.3245891e-07
0.83505155 	1.3505486 	0.00038608299 	-4.0339173e-08
0.84536082 	1.3446921 	0.0003495615 	-3.8028942e-08
0.8556701 	1.3381787 	0.00031508555 	-5.0581276e-07
0.86597938 	1.3310743 	0.00028257777 	-1.9390676e-07
0.87628866 	1.3232284 	0.00025220876 	-3.6021348e-08
0.88659794 	1.3144154 	0.00022413089 	-1.49069e-08
0.89690722 	1.3045067 	0.00019862486 	-8.6619186e-08
0.90721649 	1.2933049 	0.0001755454 	-1.753117e-07
0.91752577 	1.2805261 	0.00015451733 	-1.8003121e-07
0.92783505 	1.2657432 	0.00013505504 	-1.1792246e-07
0.93814433 	1.2483636 	0.00011665243 	-2.4435291e-08
0.94845361 	1.227363 	0.00010158712 	-1.6024395e-08
0.95876289 	1.2009814 	8.0486341e-05 	-8.1126315e-08
0.96907216 	1.16567 	6.2221026e-05 	-1.2457118e-08
0.97938144 	1.1122445 	4.1419132e-05 	-1.577509e-08
0.98969072 	1.0035846 	2.2846949e-05 	2.2630579e-07
