0.17894737 	0.0083354987 	-0.00091982211 	5.2850753e-08 	0.0062830993 	-8.9656215e-06 	0.0044222254
0.18947368 	0.030167868 	-0.002535432 	7.0837857e-08 	0.030782151 	1.0848638e-05 	0.016581927
0.2 	0.030007871 	-0.0027249542 	4.1265992e-07 	0.035424433 	-1.8834481e-06 	0.01168274
0.21052632 	0.024194739 	-0.0024354527 	2.9199269e-06 	0.03152471 	-3.9774819e-05 	0.0059236485
0.22105263 	0.018160086 	-0.0020665616 	1.1277325e-06 	0.025932062 	-1.9099132e-05 	0.0019285152
0.23157895 	0.013774155 	-0.0017196922 	4.679646e-06 	0.021198516 	-6.9957928e-05 	0.00023136513
0.24210526 	0.010761293 	-0.0014012928 	4.0415432e-06 	0.017466414 	-5.5838385e-05 	0.0011124435
0.25263158 	0.0086268876 	-0.0011764647 	3.8903128e-06 	0.014722311 	-5.4335774e-05 	0.0017200738
0.26315789 	0.0071083151 	-0.00098241452 	1.8220255e-06 	0.01241218 	-2.5639983e-05 	0.0020745369
0.27368421 	0.0060850188 	-0.00084093737 	1.4357612e-06 	0.01067893 	6.3014043e-06 	0.0016559156
0.28421053 	0.0054746061 	-0.00074590262 	4.9925943e-06 	0.0096242169 	1.9004344e-05 	0.00066859958
0.29473684 	0.0049009004 	-0.00068074447 	3.8658439e-08 	0.008725547 	-5.5277303e-07 	0.0028314379
0.30526316 	0.0045532164 	-0.00063201573 	2.1276879e-06 	0.0081165814 	6.3200094e-06 	0.0021907327
0.31578947 	0.0043267704 	-0.00056992717 	8.7207777e-06 	0.007696378 	2.1197082e-05 	0.00024607041
0.32631579 	0.0040490583 	-0.00055241031 	9.4683148e-07 	0.0073035806 	2.002973e-06 	0.0027080198
0.33684211 	0.0039113407 	-0.00049961234 	4.4386482e-06 	0.0070518061 	9.3897304e-06 	0.0010159533
0.34736842 	0.0037483623 	-0.00047064349 	2.0097628e-06 	0.0068134836 	3.8244694e-06 	0.0015438355
0.35789474 	0.0036352267 	-0.00043627564 	9.3677393e-07 	0.0066540705 	1.7826299e-06 	0.001575813
0.36842105 	0.0035330002 	-0.00040064766 	1.7624941e-06 	0.0064955521 	3.0269989e-06 	0.001032249
0.37894737 	0.0034507851 	-0.00037107742 	1.3188019e-07 	0.0064001493 	-1.7009324e-06 	0.0013724513
0.38947368 	0.0033750245 	-0.00033742658 	4.7945828e-07 	0.0062937485 	7.4003808e-07 	0.00099749362
0.4 	0.0033234862 	-0.00030547991 	2.4966955e-07 	0.0062414914 	-2.4130468e-06 	0.00094165298
0.41052632 	0.0032700292 	-0.00027274932 	2.5152857e-07 	0.0061805064 	-2.4310141e-06 	0.00076062607
0.42105263 	0.0032336617 	-0.0002395198 	2.1764156e-07 	0.0061511799 	-1.5469658e-06 	0.00057986497
0.43157895 	0.0032006772 	-0.00020559348 	7.8139774e-07 	0.0061271103 	-5.5540659e-06 	0.00042329933
0.44210526 	0.0031724274 	-0.00017145535 	3.6227928e-08 	0.0061117944 	4.4873973e-08 	0.00025608738
0.45263158 	0.0031563709 	-0.00013484929 	1.4065852e-06 	0.0061181076 	-6.9677655e-06 	0.00013447053
0.46315789 	0.0031403663 	-9.8171935e-05 	4.5733187e-07 	0.0061242331 	-2.2654733e-06 	2.4407537e-05
0.47368421 	0.0031327278 	-5.7297342e-05 	9.455971e-07 	0.0061462916 	-2.7884419e-06 	0.00016196455
0.48421053 	0.0031311671 	-1.3664999e-05 	1.4009635e-06 	0.0061795522 	-4.1312576e-06 	0.00029001108
0.49473684 	0.0031344009 	3.0165344e-05 	9.711844e-07 	0.0062126405 	1.0785567e-06 	3.3012036e-05
0.50526316 	0.0031436812 	8.7563418e-05 	1.7794147e-06 	0.0062631164 	-2.7480667e-06 	0.00053389181
0.51578947 	0.003159197 	0.00014756241 	1.2516331e-06 	0.006316368 	-1.932979e-06 	0.00063885515
0.52631579 	0.0031818996 	0.00021062975 	9.2404462e-07 	0.0063751157 	1.1173784e-06 	0.0003452222
0.53684211 	0.0032227506 	0.00028370662 	2.2398756e-06 	0.0064238927 	-3.0159736e-06 	0.0008628511
0.54736842 	0.0032744504 	0.00035868393 	1.23483e-06 	0.0064653981 	-1.6626882e-06 	0.00094617317
0.55789474 	0.0033495984 	0.00043443716 	1.4398481e-06 	0.0064945302 	2.2239378e-06 	0.00029058154
0.56842105 	0.0034293939 	0.00050890858 	1.6712897e-06 	0.0065355344 	-2.1551619e-06 	0.0012159818
0.57894737 	0.0035266387 	0.00058431337 	1.5090603e-06 	0.0065759819 	-1.9459638e-06 	0.0012801242
0.58947368 	0.0036454914 	0.00065843165 	1.5803319e-06 	0.0066190921 	3.018e-06 	0.00027906439
0.6 	0.003761867 	0.00072996291 	6.6364992e-07 	0.0066888629 	-4.5563253e-07 	0.0015892376
0.61052632 	0.0038978962 	0.00080009017 	1.7477845e-06 	0.0067679824 	-1.1999512e-06 	0.0016323047
0.62105263 	0.0040456821 	0.00086849778 	8.5271169e-07 	0.0068499349 	1.8581661e-06 	0.00093866838
0.63157895 	0.0042060365 	0.00093450567 	5.9742738e-08 	0.0069573673 	9.1040951e-09 	0.0019522428
0.64210526 	0.004380449 	0.0010010109 	1.639935e-06 	0.007080533 	2.4990692e-07 	0.0019724999
0.65263158 	0.0045633399 	0.0010660917 	6.9573415e-07 	0.0072054729 	1.7181791e-06 	0.0012141939
0.66315789 	0.0047596333 	0.0011281686 	7.379983e-08 	0.0073556947 	7.3637462e-08 	0.0022729281
0.67368421 	0.0049653268 	0.0011918214 	1.2010086e-06 	0.0075170371 	1.1983662e-06 	0.0022696575
0.68421053 	0.0051817729 	0.0012531658 	1.0203478e-06 	0.0076779378 	2.863389e-06 	0.00076255218
0.69473684 	0.0054061278 	0.0013127112 	4.8965427e-07 	0.0078662258 	8.6061163e-07 	0.0025259993
0.70526316 	0.0056363195 	0.0013732374 	5.1349562e-07 	0.0080557536 	9.0251496e-07 	0.0024990221
0.71578947 	0.0058782225 	0.0014294844 	7.9592713e-07 	0.0082450982 	2.5245023e-06 	0.0010118752
0.72631579 	0.006122326 	0.0014857885 	1.1077212e-06 	0.0084564463 	2.7031602e-06 	0.0026893082
0.73684211 	0.006370159 	0.001540713 	4.2167756e-07 	0.0086587463 	1.4993273e-06 	0.001541652
0.74736842 	0.0066226593 	0.0015913588 	3.859094e-07 	0.008872843 	1.1857104e-06 	0.0028200231
0.75789474 	0.0068746907 	0.0016425046 	1.8599555e-07 	0.0090853066 	5.7147314e-07 	0.0027479227
0.76842105 	0.0071265905 	0.0016878877 	5.5124663e-08 	0.0092922129 	2.0310928e-07 	0.002880584
0.77894737 	0.0073752363 	0.0017329238 	3.2718802e-07 	0.0094996103 	1.2055388e-06 	0.0027885317
0.78947368 	0.0076197277 	0.0017732601 	6.1591884e-08 	0.009696839 	2.6921151e-07 	0.0025631902
0.8 	0.0078569734 	0.001811691 	2.5413669e-07 	0.009890693 	1.1014516e-06 	0.0027577309
0.81052632 	0.0080871698 	0.0018458109 	4.3550187e-09 	0.010071383 	2.2665774e-08 	0.0027829896
0.82105263 	0.0083064872 	0.0018774477 	1.0541689e-07 	0.010241824 	5.4864413e-07 	0.0026582168
0.83157895 	0.0085146151 	0.0019044913 	1.2488528e-08 	0.010394742 	1.1346809e-07 	0.0026341849
0.84210526 	0.0087123453 	0.0019296458 	5.6618224e-09 	0.010537142 	5.1442106e-08 	0.0024969793
0.85263158 	0.0088926403 	0.0019494806 	-9.2153871e-08 	0.010652875 	-3.8557342e-07 	0.0024306267
0.86315789 	0.0090647529 	0.0019675875 	1.1497461e-07 	0.010753355 	6.9337328e-07 	0.00072871698
0.87368421 	0.0092176767 	0.0019822808 	-1.1863947e-07 	0.010835319 	-6.7075946e-07 	0.0021828418
0.88421053 	0.0093597358 	0.0019945587 	-2.072277e-07 	0.010892514 	-1.3993346e-06 	0.0020622386
0.89473684 	0.0094920234 	0.0020053432 	1.35816e-08 	0.010931887 	8.6551405e-08 	0.0016654938
0.90526316 	0.009611515 	0.0020151167 	-6.6001696e-08 	0.010948176 	-5.3905391e-07 	0.0017604799
0.91578947 	0.0097263736 	0.0020247046 	-2.1716284e-07 	0.010944031 	-2.1398706e-06 	0.0016095656
0.92631579 	0.0098408678 	0.0020359752 	-1.9367675e-07 	0.010928029 	-2.8758356e-06 	0.0014516574
0.93684211 	0.0099583899 	0.0020486365 	-1.7768268e-07 	0.010904668 	-1.9638202e-06 	0.0012896553
0.94736842 	0.010090244 	0.0020579852 	-1.1345435e-07 	0.010880259 	-1.5180866e-06 	0.0011237348
0.95789474 	0.010261708 	0.0020763927 	-1.632726e-10 	0.010874876 	-2.0806236e-07 	0.00095467758
0.96842105 	0.010479375 	0.0021002718 	1.4206736e-08 	0.010911527 	-3.1712106e-07 	0.00078893847
0.97894737 	0.01071668 	0.0021221345 	-1.441896e-08 	0.01096499 	-1.6014432e-07 	0.00061928253
0.98947368 	0.010462231 	0.0020716673 	-1.6093323e-06 	0.010521296 	-9.1565439e-06 	0.00042566432
