0.47777778 	0.022153764 	-0.004346456 	-2.0997851e-08 	0.022295693 	5.0094622e-07 	0.0039905992
0.48888889 	0.021220878 	-0.0041509521 	8.635608e-07 	0.02135813 	-4.3759669e-06 	0.011356117
0.5 	0.019707497 	-0.0038360905 	3.604892e-08 	0.019813082 	-1.8524339e-07 	0.010025586
0.51111111 	0.018247742 	-0.0035368942 	3.8348888e-07 	0.01831269 	-9.4884143e-07 	0.0013936245
0.52222222 	0.016895623 	-0.0032349358 	2.3659439e-06 	0.016943189 	-1.1105466e-05 	0.007948765
0.53333333 	0.015630693 	-0.0029459532 	7.9630597e-07 	0.015651259 	-3.6447133e-06 	0.0072041239
0.54444444 	0.014464903 	-0.0026671462 	2.906851e-07 	0.014447813 	-6.196097e-07 	0.0034919726
0.55555556 	0.013401799 	-0.0023995268 	5.4168506e-07 	0.013349772 	-1.1053364e-06 	0.00090373844
0.56666667 	0.012442752 	-0.0021430431 	5.6129016e-07 	0.012361545 	-1.0985844e-06 	0.00070085715
0.57777778 	0.01158677 	-0.0018965624 	3.5370169e-07 	0.011481371 	-6.6597683e-07 	0.002174231
0.58888889 	0.010831707 	-0.0016586821 	2.5168852e-07 	0.01070472 	-9.0565159e-07 	0.0043292958
0.6 	0.010180635 	-0.0014267152 	2.6738405e-06 	0.010024432 	-8.7071994e-06 	0.003925183
0.61111111 	0.009624078 	-0.0012011005 	3.044006e-06 	0.0094388063 	-8.6954857e-06 	0.0035817654
0.62222222 	0.0091552465 	-0.00098049557 	1.174716e-07 	0.0089392335 	-2.0139635e-07 	0.0026722338
0.63333333 	0.0087845478 	-0.00076610051 	1.1559239e-07 	0.008541935 	-1.9317569e-07 	0.0026382424
0.64444444 	0.0085125906 	-0.00055791393 	4.2332691e-06 	0.0082439856 	-8.0395819e-06 	0.0030622313
0.65555556 	0.0083049511 	-0.00035275206 	1.9930721e-08 	0.0080083516 	-3.2473026e-08 	0.0028327591
0.66666667 	0.0081842956 	-0.00015247091 	5.3680362e-07 	0.007863445 	-7.3024376e-07 	0.002919258
0.67777778 	0.0081426965 	4.2849475e-05 	2.942766e-06 	0.0077965577 	-2.3362056e-06 	0.0028712997
0.68888889 	0.0081556732 	0.0002369207 	4.0217778e-07 	0.0077792678 	-6.1893517e-07 	0.00083531224
0.7 	0.0082403814 	0.00042177957 	4.6069107e-06 	0.0078503986 	-9.2899259e-07 	0.0029076635
0.71111111 	0.0083733515 	0.00060770882 	4.7872016e-07 	0.007954772 	-7.1336981e-07 	0.00040288799
0.72222222 	0.0085618437 	0.00078175727 	4.1845894e-06 	0.0081362734 	1.6886642e-06 	0.0030441724
0.73333333 	0.0087931335 	0.00095577012 	4.6245319e-07 	0.0083433247 	-6.6776669e-07 	0.00042759058
0.74444444 	0.0090744716 	0.0011238864 	3.8240217e-06 	0.0086221228 	3.9560838e-06 	0.0032811605
0.75555556 	0.0093904433 	0.0012883681 	4.3757811e-07 	0.0089179227 	-6.1520256e-07 	0.00048571572
0.76666667 	0.009759278 	0.0014531462 	2.9089735e-06 	0.009288686 	4.842893e-06 	0.0036021139
0.77777778 	0.010157181 	0.0016128612 	2.2009534e-07 	0.0096753295 	-3.0320799e-07 	0.0021155068
0.78888889 	0.010596982 	0.0017713516 	1.3369773e-06 	0.010117062 	2.9996213e-06 	0.0039873387
0.8 	0.011066984 	0.0019257833 	6.375506e-07 	0.010586754 	1.7689381e-06 	0.0043567312
0.81111111 	0.011568092 	0.0020781724 	1.5856539e-07 	0.011083449 	-2.1352871e-07 	0.002690988
0.82222222 	0.012102591 	0.002228965 	2.1311267e-06 	0.011627766 	6.937218e-06 	0.0048305538
0.83333333 	0.01265911 	0.0023773578 	1.0130468e-08 	0.01219096 	-1.3592436e-08 	0.0051093116
0.84444444 	0.013244214 	0.0025238688 	1.7942807e-07 	0.012776615 	-2.407957e-07 	0.0024627631
0.85555556 	0.013854853 	0.0026705213 	8.7054176e-07 	0.013406932 	3.5420103e-06 	0.0057879051
0.86666667 	0.0144862 	0.0028147366 	1.2891471e-06 	0.014053033 	5.6829468e-06 	0.0062415888
0.87777778 	0.015137249 	0.0029579976 	2.1328541e-07 	0.014721274 	1.0044691e-06 	0.0067007544
0.88888889 	0.015807957 	0.0030996521 	9.4217019e-08 	0.015404511 	-1.2834122e-07 	0.0043095892
0.9 	0.01649648 	0.0032405832 	1.4723397e-07 	0.016109387 	-2.0174695e-07 	0.002223999
0.91111111 	0.017201358 	0.0033812614 	1.3201922e-07 	0.016838951 	-1.8190681e-07 	0.0022081819
0.92222222 	0.017921028 	0.0035217942 	6.7450155e-08 	0.017592569 	-9.352907e-08 	0.0048851477
0.93333333 	0.018652559 	0.0036617272 	1.7953952e-07 	0.018365336 	1.0339271e-06 	0.0089966134
0.94444444 	0.019392282 	0.0037998645 	6.2984738e-07 	0.019138398 	3.7843589e-06 	0.0094435707
0.95555556 	0.020126315 	0.0039368868 	4.7387049e-08 	0.019901327 	-8.5902901e-08 	0.0033483412
0.96666667 	0.020824619 	0.0040514775 	1.6505934e-07 	0.02065648 	1.3692993e-06 	0.010507048
0.97777778 	0.021428419 	0.0041593435 	2.2471798e-08 	0.021314017 	1.83676e-07 	0.011035589
0.98888889 	0.021394234 	0.0041589186 	-2.2497582e-07 	0.02132792 	-1.2163274e-06 	0.011181683
