0.4742268 	0.016072752 	-0.0032200643 	1.9321817e-08 	0.016102245 	-9.504497e-08 	0.0038685623
0.48453608 	0.02258681 	-0.0044219626 	1.3554931e-09 	0.022541373 	-7.7800968e-09 	0.0076749832
0.49484536 	0.021077817 	-0.0041634474 	1.801151e-06 	0.021015766 	-1.0173924e-05 	0.0071841687
0.50515464 	0.01930185 	-0.0038501828 	1.5068595e-07 	0.019223275 	-8.5702189e-07 	0.0066894444
0.51546392 	0.017665465 	-0.0035493878 	1.1797353e-06 	0.01757575 	-5.9534814e-06 	0.0059209714
0.5257732 	0.016080989 	-0.0032319981 	3.9869951e-06 	0.015980832 	-1.9538755e-05 	0.0054932315
0.53608247 	0.014646208 	-0.0029238087 	1.751781e-06 	0.014542799 	-8.0332117e-06 	0.0050713297
0.54639175 	0.013390992 	-0.002626332 	5.9124136e-07 	0.01328628 	-2.503881e-06 	0.0046683181
0.55670103 	0.012325977 	-0.0023411171 	4.7441948e-07 	0.012224335 	-1.8131785e-06 	0.0042951514
0.56701031 	0.01144724 	-0.002068824 	1.3087597e-06 	0.011351487 	-4.4113413e-06 	0.0039621644
0.57731959 	0.010738181 	-0.0018091882 	2.9750199e-06 	0.010650865 	-8.6161111e-06 	0.0036767981
0.58762887 	0.010175775 	-0.0015612338 	4.2229545e-06 	0.010098647 	-1.0212316e-05 	0.0034434659
0.59793814 	0.0097358234 	-0.0013236871 	1.162484e-06 	0.0096701157 	-2.2719994e-06 	0.0032634849
0.60824742 	0.009410223 	-0.0010942456 	-1.9583681e-07 	0.0093512291 	1.1596852e-07 	0.00012224376
0.6185567 	0.0091865775 	-0.00087936822 	1.6879865e-06 	0.009146145 	-2.5616192e-06 	0.0031354366
0.62886598 	0.0090364053 	-0.00067070221 	3.1388307e-06 	0.0090086453 	-3.4979144e-06 	0.0030577959
0.63917526 	0.0089456327 	-0.00046735281 	-1.4869383e-07 	0.0089263555 	-1.3825476e-07 	0.0008123985
0.64948454 	0.0089198501 	-0.00027602274 	2.351606e-06 	0.0089168868 	-1.7525499e-06 	0.0030269258
0.65979381 	0.0089334937 	-8.8974238e-05 	1.2020772e-06 	0.0089420896 	-4.8738988e-07 	0.0030400802
0.67010309 	0.0089887771 	9.148848e-05 	-7.7977137e-10 	0.0090083306 	-1.7380413e-09 	0.0030274394
0.68041237 	0.0090843826 	0.00026474046 	2.8357108e-06 	0.0091138583 	-2.4774056e-07 	0.0030949391
0.69072165 	0.0092036857 	0.00043468663 	-8.427094e-08 	0.0092395425 	-2.3706738e-07 	0.0015617495
0.70103093 	0.0093539997 	0.00059600738 	3.3336896e-06 	0.0094008747 	7.2874666e-07 	0.0031897938
0.71134021 	0.0095233115 	0.00075580282 	-8.0462372e-08 	0.009574351 	-2.6991714e-07 	0.0014804741
0.72164948 	0.0097154437 	0.00090656676 	2.8517843e-06 	0.0097759151 	1.4385834e-06 	0.0033238904
0.73195876 	0.0099196352 	0.0010542941 	-2.3180008e-08 	0.0099842901 	-8.8785957e-08 	0.0027154226
0.74226804 	0.010150242 	0.001198833 	1.8460547e-06 	0.010220299 	1.4918779e-06 	0.0034918865
0.75257732 	0.010388862 	0.00133888 	3.8406957e-07 	0.010462092 	3.1038349e-07 	0.0034923474
0.7628866 	0.010653107 	0.0014778006 	1.1477247e-06 	0.010728492 	1.3023426e-06 	0.003679258
0.77319588 	0.010929238 	0.0016140672 	4.6839816e-07 	0.011005504 	5.3149928e-07 	0.0036797861
0.78350515 	0.011226574 	0.0017480938 	1.1960074e-06 	0.011302755 	1.7361382e-06 	0.0038754188
0.79381443 	0.011534993 	0.0018798874 	-3.1691239e-09 	0.011609373 	-1.324255e-08 	0.0036469699
0.80412371 	0.011868866 	0.0020102217 	1.8481917e-06 	0.011941266 	3.2969477e-06 	0.0040780633
0.81443299 	0.012212566 	0.0021376911 	-2.8090602e-08 	0.012274656 	-9.1869138e-08 	0.00054774763
0.82474227 	0.012586504 	0.0022672322 	1.6685519e-06 	0.012650762 	3.5639098e-06 	0.004286175
0.83505155 	0.012976932 	0.0023949047 	3.3095701e-07 	0.013035892 	8.3014563e-07 	0.0044985324
0.84536082 	0.013389777 	0.0025214307 	7.4434641e-10 	0.013439484 	3.6986374e-08 	0.0031820104
0.8556701 	0.013835826 	0.0026494282 	1.4812518e-06 	0.013880868 	4.2925532e-06 	0.0047162911
0.86597938 	0.014306124 	0.0027772679 	7.3372386e-07 	0.014343535 	2.4210129e-06 	0.0049373655
0.87628866 	0.014803938 	0.0029044408 	1.629602e-08 	0.014827199 	1.9629057e-07 	0.0019431203
0.88659794 	0.015339573 	0.0030343381 	8.359329e-09 	0.015357858 	9.5687132e-08 	0.0038689271
0.89690722 	0.015912056 	0.0031650601 	4.6723931e-07 	0.015924863 	1.922133e-06 	0.005389464
0.90721649 	0.016519539 	0.0032961836 	8.3259533e-07 	0.016524976 	3.7578385e-06 	0.0056168852
0.91752577 	0.017162936 	0.0034280098 	8.9996421e-07 	0.017161819 	4.4068255e-06 	0.0058431872
0.92783505 	0.01784136 	0.0035601753 	6.9009703e-07 	0.017834705 	3.6339861e-06 	0.0060664131
0.93814433 	0.018551128 	0.0036923411 	2.3163582e-07 	0.018540034 	1.2881167e-06 	0.0062840619
0.94845361 	0.019281904 	0.0038209283 	2.4242879e-08 	0.019256358 	2.887881e-07 	0.0011896912
0.95876289 	0.020021334 	0.0039560449 	2.5623236e-07 	0.020006412 	1.8178303e-06 	0.006878879
0.96907216 	0.020731867 	0.0040582224 	1.2225195e-08 	0.020703317 	1.3074096e-07 	0.0026658444
0.97938144 	0.021335874 	0.0041562523 	4.8553861e-08 	0.021314294 	3.8817663e-07 	0.0072748077
0.98969072 	0.021227157 	0.0041346739 	-3.4641282e-07 	0.021193249 	-1.895617e-06 	0.0072760455
