/*--------------------------------*- C++ -*----------------------------------*\
  =========                 |
  \\      /  F ield         | OpenFOAM: The Open Source CFD Toolbox
   \\    /   O peration     | Website:  https://openfoam.org
    \\  /    A nd           | Version:  7
     \\/     M anipulation  |
\*---------------------------------------------------------------------------*/
FoamFile
{
    version     2.0;
    format      ascii;
    class       volScalarField;
    location    "2000";
    object      omega;
}
// * * * * * * * * * * * * * * * * * * * * * * * * * * * * * * * * * * * * * //

dimensions      [0 0 -1 0 0 0 0];

internalField   nonuniform List<scalar> 
15296
(
2.1229674
2.1142731
2.1020938
2.0879991
2.073156
2.0584194
2.0442131
2.0306759
2.0178261
2.0056188
1.9939902
1.9828897
1.9722567
1.9620416
1.9521991
1.9426993
1.9335042
1.924587
1.9159257
1.9075073
1.8993102
1.8913004
1.8835107
1.876019
1.8688649
1.8620813
1.8557198
1.8497002
1.8438965
1.8395642
1.8354279
1.8560581
1.7893579
2.3101349
0.14637701
17.153467
89.429641
2.299257
2.1231601
2.1142863
2.1021034
2.0879983
2.0731565
2.058427
2.0442298
2.0307028
2.0178611
2.0056609
1.9940396
1.982944
1.9723158
1.9621049
1.952267
1.9427699
1.9335777
1.9246632
1.9160044
1.9075881
1.8993929
1.8913844
1.8835951
1.8761026
1.868947
1.8621615
1.8557986
1.8497777
1.8439658
1.8396294
1.8353679
1.8562202
1.788141
2.3206045
0.066003404
15.265057
88.860093
0.64755549
2.1234666
2.1143469
2.1021152
2.0879784
2.0731323
2.0584141
2.0442337
2.0307244
2.0178984
2.0057116
1.9941027
1.9830169
1.9723972
1.9621939
1.9523628
1.9428709
1.9336836
1.9247734
1.9161183
1.907705
1.8995125
1.8915062
1.8837162
1.87622
1.8690591
1.8622672
1.8558975
1.8498684
1.8440362
1.8396701
1.8352589
1.8557668
1.7867173
2.315611
0.015865368
11.613896
88.000174
0.9208515
2.1238493
2.1144563
2.1021278
2.0879381
2.0730827
2.0583797
2.0442229
2.0307385
2.0179346
2.0057673
1.9941755
1.9831038
1.9724961
1.9623032
1.9524813
1.9429967
1.9338158
1.9249113
1.916261
1.9078515
1.8996623
1.8916591
1.8838674
1.8763635
1.8691912
1.8623855
1.8559992
1.8499525
1.8440949
1.83967
1.8350012
1.8545827
1.7852669
2.2985818
0.006112061
9.612782
86.667965
10.046832
2.1242958
2.1146115
2.10214
2.0878766
2.0730076
2.0583238
2.0441975
2.0307449
2.0179698
2.0058275
1.9942577
1.9832042
1.9726119
1.9624322
1.9526218
1.9431465
1.9339738
1.9250762
1.9164318
1.9080267
1.8998415
1.8918421
1.8840482
1.8765323
1.8693414
1.8625121
1.8560958
1.8500231
1.84414
1.8396219
1.8346063
1.8527575
1.7838628
2.2784324
0.019940575
12.043284
84.735527
16.930148
2.1249451
2.114864
2.1021521
2.0877686
2.0728779
2.0582245
2.0441462
2.0307437
2.018014
2.0059114
1.9943759
1.983351
1.972783
1.9626238
1.9528311
1.9433705
1.9342103
1.9253234
1.9166878
1.9082893
1.90011
1.8921166
1.8843199
1.876785
1.8695619
1.8626899
1.8562182
1.8501003
1.8441848
1.8395237
1.8340451
1.8500479
1.7824257
2.2489671
0.044920727
13.209589
81.990392
22.114197
2.1259004
2.1152692
2.1021508
2.0875707
2.0726482
2.0580462
2.0440466
2.0307251
2.0180692
2.006031
1.9945509
1.9835726
1.9730436
1.9629175
1.9531529
1.9437157
1.9345755
1.9257054
1.9170837
1.9086957
1.900525
1.8925411
1.884744
1.8771856
1.8699161
1.8629773
1.8564157
1.8502172
1.8442486
1.8394238
1.8334445
1.8468833
1.7820111
2.206251
0.14410312
9.0103826
79.659998
26.772807
2.1271299
2.1157927
2.1021045
2.0872623
2.0723072
2.0577824
2.0438943
2.0306861
2.0181333
2.0061848
1.9947817
1.9838682
1.9733937
1.9633133
1.9535874
1.9441825
1.9350698
1.9262227
1.9176199
1.9092464
1.9010872
1.8931153
1.8853225
1.8777442
1.8704259
1.8634095
1.8567388
1.8504269
1.8443664
1.8393739
1.8329834
1.8438931
1.783484
2.151701
0.47288263
8.4977984
78.273871
33.532107
2.1286988
2.1163968
2.1019533
2.0867929
2.0718202
2.0574117
2.043679
2.0306259
2.0182136
2.0063873
1.9950887
1.9842633
1.9738626
1.963844
1.9541701
1.9448089
1.935733
1.9269167
1.9183392
1.9099854
1.9018414
1.8938844
1.8861009
1.8785106
1.8711493
1.8640555
1.857269
1.8508207
1.8446224
1.8394229
1.8327251
1.8411958
1.7868829
2.094641
0.71517972
10.386798
77.293161
45.752604
2.1306559
2.1169761
2.1015881
2.0860908
2.0711462
2.0569132
2.0433944
2.0305499
2.0183256
2.0066626
1.9955032
1.9847952
1.9744931
1.964557
1.9549524
1.9456492
1.9366222
1.9278467
1.9193031
1.9109758
1.9028523
1.8949137
1.8871446
1.8795518
1.8721593
1.8649983
1.8581027
1.8515117
1.845146
1.8396879
1.8327256
1.8389499
1.7920235
2.0383818
0.92017849
5.7730375
75.359971
63.032057
2.1329631
2.1172997
2.1008313
2.0850641
2.0702444
2.0562741
2.0430457
2.0304776
2.0185002
2.0070509
1.9960734
1.985519
1.9753458
1.9655179
1.956004
1.9467769
1.9378139
1.9290916
1.9205923
1.9123006
1.9042045
1.8962889
1.8885388
1.8809528
1.8735433
1.8663322
1.8593456
1.8526241
1.846091
1.8403519
1.8331613
1.8371975
1.7984014
1.9824056
1.2775139
3.6799135
70.809682
80.799292
2.1353394
2.11691
2.0994242
2.0836108
2.0690857
2.0554995
2.0426593
2.0304502
2.01879
2.0076137
1.9968682
1.9865094
1.9765008
1.9668109
1.9574128
1.9482826
1.9394005
1.9307463
1.9223033
1.9140572
1.9059967
1.8981093
1.8903824
1.8828098
1.8753957
1.8681529
1.8610985
1.8542704
1.8475942
1.8415948
1.8342572
1.836044
1.8051127
1.9270293
1.5245085
4.2500722
63.193139
91.768528
2.1368834
2.1150079
2.0970756
2.0816626
2.0676787
2.054635
2.0423035
2.030551
2.0192884
2.0084519
1.9979942
1.9878781
1.9780737
1.9685553
1.959301
1.9502912
1.9415091
1.9329392
1.9245656
1.916376
1.9083599
1.9005069
1.8928068
1.8852522
1.8778419
1.8705818
1.8634808
1.8565712
1.8497841
1.8435649
1.8361998
1.835795
1.8122993
1.8789904
1.7186264
2.2152837
53.467205
92.095428
2.1348258
2.1106066
2.093674
2.0792665
2.066113
2.0538023
2.0421216
2.0309356
2.0201576
2.0097321
1.9996215
1.9897982
1.9802405
1.97093
1.9618502
1.9529868
1.9443265
1.935859
1.9275689
1.9194478
1.9114859
1.9036748
1.8960061
1.888473
1.8810719
1.873804
1.8666721
1.8597014
1.8528311
1.8464272
1.8391419
1.8367
1.8206276
1.8414704
1.8916391
1.4308739
42.899938
87.264881
2.1209209
2.104268
2.0897086
2.0766703
2.0646278
2.0532653
2.042388
2.0318778
2.0216674
2.0117191
2.0020109
1.9925277
1.9832573
1.9741895
1.9653144
1.9566228
1.948106
1.9397576
1.9315661
1.923525
1.9156266
1.9078643
1.9002316
1.8927227
1.8853335
1.8780627
1.8709091
1.8638913
1.8569576
1.8503927
1.8432457
1.8390032
1.8295323
1.8177183
1.9794175
0.93300887
31.197248
77.884512
2.1017834
2.0949284
2.0845847
2.0738949
2.0635732
2.0535813
2.043808
2.0341961
2.0247273
2.0153995
2.0062148
1.997175
1.988281
1.9795322
1.9709267
1.9624619
1.9541346
1.9459416
1.9378807
1.9299435
1.9221265
1.914426
1.9068378
1.8993573
1.8919807
1.8847056
1.8775287
1.8704608
1.8634642
1.8567245
1.8497399
1.8437984
1.8395646
1.8101061
1.9897691
1.0635849
14.829629
62.070404
2.0991139
2.0889738
2.0811392
2.073454
2.0653893
2.0569887
2.0483893
2.039699
2.0309871
2.0222967
2.0136552
2.0050803
1.9965841
1.9881745
1.9798568
1.9716342
1.9635086
1.9554807
1.947553
1.9397232
1.9319851
1.9243413
1.9167897
1.9093272
1.9019507
1.8946578
1.8874445
1.8803159
1.873249
1.8663308
1.8594129
1.8525382
1.8489654
1.8277763
1.8936669
1.8571808
0.50824433
41.989164
2.0938959
2.0903543
2.0857889
2.079899
2.0729835
2.0654266
2.0575087
2.0493995
2.0411954
2.0329521
2.0247038
2.0164728
2.008275
2.0001215
1.992021
1.9839797
1.9760027
1.9680934
1.9602549
1.9524921
1.9447988
1.93718
1.9296338
1.9221591
1.9147541
1.9074168
1.9001435
1.8929344
1.8857776
1.878693
1.8717019
1.8646112
1.8589422
1.8523525
1.8257417
2.0868289
0.89071301
26.064914
2.1039078
2.1065265
2.1024632
2.0958225
2.0883316
2.0805475
2.072631
2.0646369
2.0565948
2.0485262
2.0404481
2.0323739
2.0243142
2.0162783
2.0082735
2.0003065
1.9923827
1.9845067
1.9766824
1.9689129
1.9612038
1.9535535
1.9459569
1.9384182
1.9309366
1.9235103
1.9161355
1.9088091
1.9015233
1.8942724
1.8870999
1.8800279
1.8722404
1.8736001
1.8172774
2.1183795
0.85597085
14.384573
2.1608284
2.1425791
2.1302517
2.1204319
2.1115667
2.1030757
2.094749
2.0865034
2.078301
2.0701242
2.0619659
2.053825
2.0457036
2.0376051
2.0295339
2.0214944
2.013491
2.0055276
1.9976078
1.9897338
1.9819133
1.974143
1.9664231
1.9587486
1.9511227
1.9435443
1.9360087
1.9285104
1.9210408
1.9135892
1.9061733
1.8990076
1.8902042
1.8918974
1.8423505
2.059928
1.2263134
6.8199214
2.1878798
2.1742806
2.1624198
2.1519474
2.1423571
2.1332676
2.1244522
2.1157899
2.1072188
2.0987075
2.0902405
2.0818109
2.0734165
2.0650575
2.0567357
2.0484535
2.0402133
2.0320176
2.0238689
2.0157685
2.0077192
1.9997209
1.9917785
1.9838854
1.9760324
1.9682245
1.9604543
1.9527149
1.9449941
1.9372856
1.929553
1.922092
1.9131685
1.9113703
1.8798739
1.9890403
1.6144402
3.0379602
2.2095892
2.2050754
2.1979308
2.1894845
2.1805194
2.1713939
2.162248
2.1531298
2.1440548
2.1350278
2.1260511
2.1171265
2.1082554
2.0994396
2.0906803
2.081979
2.0733365
2.0647539
2.0562317
2.0477701
2.039369
2.0310276
2.0227447
2.0145245
2.0063547
1.9982328
1.9901408
1.9820789
1.9740306
1.9659899
1.9578692
1.9499665
1.9411723
1.9355891
1.9183598
1.9515467
1.8641615
2.0248428
2.2636317
2.2551955
2.2466305
2.2376655
2.2283158
2.2187027
2.2089485
2.1991441
2.1893479
2.1795948
2.169905
2.1602896
2.1507548
2.1413035
2.1319369
2.1226549
2.113457
2.104342
2.0953086
2.0863549
2.0774789
2.0686778
2.0599483
2.0512867
2.0426951
2.0341581
2.0256627
2.0171994
2.0087467
2.0002849
1.9917297
1.9832972
1.9744235
1.9663322
1.955206
1.9570605
1.9551138
1.9463127
2.3338405
2.3219848
2.3102758
2.2987567
2.2874058
2.2761935
2.2651039
2.2541333
2.2432841
2.2325596
2.2219618
2.2114911
2.2011464
2.1909253
2.1808247
2.1708413
2.1609714
2.1512112
2.1415569
2.1320047
2.1225504
2.1131894
2.1039166
2.0947258
2.0856114
2.0765625
2.0675752
2.0586251
2.0496842
2.0407327
2.0316925
2.0226102
2.0133879
2.0039507
1.9938598
1.9875477
1.9884028
1.9859402
2.4134254
2.397491
2.3826041
2.3685358
2.3550914
2.342129
2.3295491
2.3172822
2.3052802
2.2935088
2.2819435
2.2705661
2.2593627
2.2483222
2.2374354
2.2266947
2.2160932
2.2056249
2.195284
2.185065
2.1749624
2.1649704
2.1550825
2.1452913
2.1355881
2.1259614
2.1163978
2.106879
2.0973737
2.0878613
2.0782719
2.0684823
2.0587337
2.04846
2.0377673
2.0284109
2.0235465
2.0173847
2.4860005
2.4707457
2.4558621
2.4413905
2.4273208
2.41362
2.4002489
2.3871706
2.3743534
2.3617713
2.349403
2.3372321
2.3252453
2.3134319
2.3017833
2.2902921
2.278952
2.2677573
2.2567027
2.2457829
2.2349924
2.2243254
2.213775
2.2033335
2.1929908
2.1827347
2.1725485
2.162411
2.1522906
2.1421464
2.1319325
2.121491
2.1109984
2.0999986
2.0885335
2.0766511
2.0688819
2.0517626
2.5596308
2.5457993
2.5320047
2.5182507
2.5045542
2.4909361
2.4774166
2.464013
2.4507386
2.4376026
2.4246114
2.411769
2.3990777
2.3865386
2.3741515
2.3619157
2.3498299
2.3378919
2.3260992
2.3144487
2.3029363
2.2915571
2.2803049
2.2691717
2.2581475
2.2472188
2.2363675
2.2255696
2.2147912
2.2039833
2.1930912
2.1819807
2.1706078
2.1588999
2.1466546
2.1329447
2.122855
2.0964929
2.6475226
2.6343242
2.6207886
2.6070033
2.5930564
2.5790214
2.5649584
2.5509157
2.5369313
2.5230342
2.5092466
2.4955849
2.4820612
2.4686838
2.4554586
2.4423891
2.429477
2.4167228
2.4041254
2.391683
2.379392
2.3672479
2.3552445
2.3433734
2.3316236
2.3199806
2.3084244
2.2969282
2.2854551
2.2739502
2.2623495
2.2505214
2.2383534
2.225703
2.2126698
2.1976007
2.1855443
2.1524427
2.7648502
2.7481487
2.731575
2.7151503
2.6988901
2.6828053
2.6669052
2.6511973
2.6356874
2.6203789
2.6052741
2.5903737
2.5756777
2.5611851
2.5468941
2.5328024
2.518907
2.5052044
2.4916907
2.4783609
2.4652095
2.4522298
2.4394134
2.42675
2.4142266
2.4018263
2.3895264
2.3772966
2.3650962
2.3528642
2.3405301
2.3279477
2.3150291
2.301331
2.2874076
2.2712199
2.2580326
2.2194173
2.9009243
2.8790076
2.8580974
2.838045
2.8187044
2.7999609
2.7817305
2.7639518
2.7465785
2.729575
2.7129133
2.6965709
2.6805295
2.6647737
2.6492902
2.6340675
2.619095
2.6043631
2.5898627
2.5755847
2.5615197
2.5476577
2.5339874
2.5204958
2.5071667
2.4939804
2.4809109
2.4679238
2.4549741
2.4419946
2.4289071
2.4155584
2.4018408
2.3873173
2.372206
2.3549979
2.3410528
2.2984221
3.0240899
3.0033976
2.9829833
2.9628788
2.9431027
2.9236643
2.9045688
2.8858173
2.867407
2.8493323
2.8315858
2.8141594
2.7970443
2.7802316
2.7637123
2.7474772
2.7315174
2.7158237
2.700387
2.6851979
2.6702464
2.6555213
2.6410103
2.6266985
2.6125682
2.598597
2.5847563
2.571008
2.5573025
2.5435674
2.5297154
2.5155922
2.5010546
2.4857347
2.4695334
2.4509913
2.436291
2.3913856
3.160779
3.140867
3.1208641
3.1008527
3.0809119
3.0611053
3.0414853
3.0220906
3.0029481
2.9840756
2.9654845
2.9471812
2.9291685
2.9114464
2.894013
2.8768648
2.859997
2.8434037
2.8270782
2.8110128
2.7951986
2.7796253
2.7642802
2.7491482
2.7342105
2.7194431
2.704815
2.6902849
2.6757989
2.6612797
2.646631
2.6316969
2.6163118
2.6001174
2.5830474
2.5631456
2.547282
2.5005795
3.341782
3.3164644
3.2921474
3.2686697
3.2458849
3.2236865
3.2020051
3.1807925
3.1600128
3.1396392
3.1196511
3.1000316
3.0807671
3.0618459
3.0432574
3.0249916
3.0070392
2.9893909
2.9720374
2.9549687
2.9381743
2.9216421
2.9053579
2.8893047
2.8734617
2.8578023
2.8422924
2.826887
2.8115271
2.7961305
2.780592
2.764753
2.7484309
2.7312778
2.7132143
2.6923062
2.6752037
2.626488
3.517033
3.4939673
3.4706713
3.447315
3.4240377
3.4009433
3.3781108
3.3555918
3.3334166
3.3116032
3.2901601
3.26909
3.2483917
3.2280613
3.208093
3.1884795
3.1692123
3.1502824
3.1316799
3.1133941
3.0954133
3.0777237
3.0603095
3.0431516
3.0262267
3.0095053
2.99295
2.9765115
2.9601257
2.9437051
2.9271364
2.9102573
2.8928728
2.8746408
2.8554815
2.8334374
2.8154631
2.7645831
3.7366685
3.7070793
3.6786036
3.6510563
3.624273
3.5981479
3.5726231
3.5476577
3.5232206
3.499288
3.4758402
3.4528598
3.4303321
3.4082433
3.38658
3.365329
3.3444772
3.3240117
3.3039195
3.2841872
3.2648005
3.2457433
3.2269975
3.2085415
3.1903494
3.1723888
3.1546189
3.1369866
3.1194229
3.1018351
3.084103
3.0660593
3.0475001
3.0280834
3.0077403
2.9844549
2.9655886
2.9123752
3.9569433
3.9273288
3.8978604
3.8687055
3.8399601
3.8116931
3.783956
3.7567692
3.7301355
3.7040493
3.6784997
3.653473
3.6289551
3.6049316
3.5813876
3.5583079
3.5356776
3.5134817
3.4917056
3.4703344
3.4493525
3.4287427
3.4084855
3.3885581
3.3689332
3.3495769
3.3304463
3.3114854
3.2926221
3.2737591
3.2547702
3.2354825
3.2156841
3.195026
3.1734574
3.1488508
3.1291621
3.0728419
4.2116133
4.1767827
4.1431739
4.1105994
4.0788703
4.0478871
4.0176043
3.9879842
3.9589963
3.9306168
3.9028245
3.8756003
3.8489279
3.8227925
3.7971792
3.772073
3.7474595
3.7233247
3.699655
3.676437
3.6536568
3.6312988
3.6093455
3.5877761
3.5665652
3.5456804
3.5250801
3.5047088
3.4844931
3.4643332
3.4440977
3.423607
3.4026386
3.3808267
3.3581434
3.3322607
3.3120557
3.2514982
4.4855201
4.4506355
4.4159471
4.3816439
4.3477849
4.3144425
4.2816773
4.2495106
4.2179481
4.1869892
4.1566275
4.1268542
4.0976615
4.0690414
4.0409847
4.0134815
3.9865221
3.9600975
3.9341997
3.9088216
3.8839559
3.8595944
3.835727
3.8123409
3.7894182
3.766934
3.7448527
3.7231233
3.7016744
3.6804049
3.6591767
3.6377992
3.616031
3.5934737
3.5701202
3.5433119
3.5233296
3.4571236
4.8164997
4.7765875
4.7376058
4.6994209
4.6618578
4.6248988
4.5885719
4.5528856
4.5178454
4.4834542
4.4497105
4.4166108
4.3841541
4.3523401
4.3211673
4.2906344
4.2607416
4.2314909
4.2028872
4.174938
4.1476516
4.1210362
4.0950984
4.0698418
4.0452641
4.0213542
3.9980878
3.9754215
3.9532857
3.9315754
3.9101374
3.8887593
3.8671594
3.8448805
3.8219195
3.795107
3.7767983
3.7032875
5.2082823
5.1639529
5.1199539
5.0765439
5.0337155
4.9915578
4.9501419
4.9094849
4.8695932
4.8304699
4.7921142
4.7545269
4.717716
4.6816942
4.646476
4.6120791
4.5785258
4.5458428
4.5140621
4.4832201
4.4533549
4.4245037
4.3967014
4.3699769
4.3443507
4.3198295
4.2964007
4.2740251
4.2526262
4.2320819
4.2122011
4.1927244
4.1732834
4.1533208
4.1327861
4.1077723
4.0935578
4.0109094
5.6858736
5.6302728
5.5770803
5.5256506
5.4753641
5.4260655
5.3777277
5.3303305
5.2838756
5.238375
5.1938445
5.1503071
5.1078017
5.0663786
5.0260934
4.9870087
4.9491936
4.9127231
4.8776778
4.8441422
4.8121998
4.7819294
4.7534019
4.7266762
4.7017938
4.6787728
4.6575987
4.6382167
4.620514
4.6043151
4.5893376
4.5752217
4.5614219
4.5472172
4.5323873
4.5120556
4.5052981
4.4116621
6.2400935
6.1795307
6.1191118
6.0592475
5.9999248
5.9414028
5.8838792
5.8274577
5.7722233
5.718256
5.6656363
5.6144569
5.5648352
5.5169051
5.470807
5.4266863
5.3846923
5.3449749
5.3076846
5.2729688
5.2409647
5.2117939
5.1855562
5.162324
5.1421344
5.1249803
5.1107968
5.0994552
5.0907331
5.0843191
5.0797305
5.0764118
5.0734779
5.0699578
5.0652127
5.0532748
5.0575332
4.9513577
6.9251807
6.847725
6.7723047
6.6984238
6.6255351
6.5538296
6.4835398
6.4148374
6.3479003
6.2829246
6.2201225
6.1597268
6.102002
6.0472272
5.9956766
5.9476171
5.9033045
5.8629787
5.8268626
5.7951568
5.7680294
5.7456059
5.7279592
5.7151041
5.7069858
5.7034656
5.7043099
5.7091948
5.717643
5.7290538
5.7425677
5.7572985
5.7717494
5.7845548
5.7941499
5.7936037
5.8101893
5.6898644
7.7502818
7.6523537
7.5568333
7.4633892
7.371498
7.2815409
7.1939058
7.1089345
7.0270212
6.9486055
6.8741518
6.8041349
6.7390452
6.6793651
6.6255374
6.5779606
6.5369815
6.5028898
6.4759122
6.4562092
6.4438663
6.4388662
6.4410828
6.4502998
6.4661729
6.4882125
6.5158346
6.5483491
6.5847215
6.6236129
6.6632301
6.7019438
6.7372708
6.7675689
6.7901575
6.7980366
6.8216668
6.6820882
8.7493393
8.6215932
8.4981692
8.3781118
8.2606738
8.1465332
8.0364744
7.9313119
7.8319506
7.7393318
7.6543578
7.5778571
7.5105967
7.4532485
7.406363
7.3703485
7.345465
7.3318358
7.3294205
7.3380671
7.3574968
7.3871916
7.4265163
7.4747899
7.5309423
7.5933647
7.6602042
7.7296284
7.7995915
7.8679282
7.9320012
7.9898062
8.0384
8.076925
8.1024138
8.1090476
8.1310424
7.9628688
9.9576407
9.791397
9.6313327
9.4759862
9.3249165
9.1798081
9.0425723
8.9151601
8.7994922
8.6973093
8.6100378
8.5387598
8.4842803
8.4471572
8.4276475
8.4256371
8.4407686
8.4724247
8.5196983
8.581761
8.6574923
8.7447229
8.8407194
8.9429139
9.048679
9.1550226
9.2588088
9.3574048
9.448864
9.5321447
9.6060253
9.6700821
9.7218969
9.7616219
9.7852001
9.787349
9.8058306
9.6021854
11.437052
11.219758
11.009983
10.806979
10.612183
10.429896
10.264583
10.120329
10.000477
9.9073856
9.8423223
9.8056268
9.7970146
9.8158859
9.8609952
9.9303767
10.022301
10.134554
10.263441
10.404903
10.554911
10.708664
10.860932
11.007404
11.145619
11.274799
11.394953
11.506235
11.608384
11.701111
11.783054
11.8537
11.909554
11.951068
11.971879
11.96763
11.978692
11.731236
13.294436
12.997003
12.715155
12.447933
12.200673
11.983263
11.804898
11.672214
11.588536
11.554069
11.566529
11.622384
11.717774
11.849499
12.01243
12.199072
12.403162
12.619122
12.839352
13.055056
13.259822
13.45137
13.630218
13.797671
13.95475
14.10199
14.239351
14.366531
14.482655
14.586919
14.677089
14.752323
14.807569
14.843929
14.851861
14.829667
14.818166
14.511665
15.65869
15.251162
14.873892
14.530478
14.239598
14.023554
13.89637
13.861016
13.911112
14.03498
14.219412
14.453347
14.724949
15.023086
15.336082
15.650886
15.956188
16.245698
16.517337
16.770956
17.007516
17.228398
17.434822
17.627548
17.806756
17.972166
18.123075
18.258738
18.377815
18.479436
18.56102
18.622294
18.657086
18.668403
18.642958
18.583871
18.530224
18.144058
18.317715
17.790663
17.314312
16.92227
16.663933
16.572196
16.645039
16.855992
17.168705
17.549594
17.970153
18.411233
18.852025
19.274527
19.672436
20.047624
20.402395
20.737006
21.049034
21.335798
21.597189
21.834497
22.049184
22.242555
22.415701
22.569505
22.704381
22.820447
22.916816
22.993072
23.046237
23.076459
23.075783
23.049242
22.978499
22.873019
22.767983
22.295933
20.990558
20.327655
19.778346
19.41876
19.324747
19.504369
19.89823
20.431495
21.031319
21.648027
22.252255
22.828613
23.362867
23.853276
24.304799
24.72212
25.107331
25.460596
25.778199
26.058374
26.305513
26.524147
26.717212
26.886643
27.03389
27.16015
27.266069
27.352022
27.417146
27.461152
27.48057
27.475904
27.43752
27.372443
27.257488
27.108369
26.957305
26.403787
24.158783
23.362576
22.804656
22.645833
22.95181
23.619664
24.474464
25.383571
26.252753
27.045502
27.767295
28.431114
29.025855
29.554199
30.024237
30.44247
30.813983
31.14298
31.425748
31.664104
31.868858
32.045485
32.196613
32.324056
32.429337
32.513784
32.578097
32.62272
32.646665
32.649724
32.627715
32.581734
32.499897
32.392379
32.229145
32.035646
31.838548
31.196777
28.001131
27.094593
26.682058
27.028638
28.057538
29.407708
30.765819
31.99257
33.037799
33.93309
34.718467
35.414784
35.996666
36.48921
36.913252
37.278607
37.592109
37.859463
38.085762
38.276846
38.437268
38.56936
38.67501
38.756146
38.814601
38.851959
38.869012
38.866188
38.842395
38.797177
38.725877
38.629184
38.494279
38.331307
38.108048
37.852621
37.592273
36.849693
32.804519
31.834463
31.832392
33.139398
35.236301
37.34614
39.118199
40.549072
41.648499
42.527597
43.267439
43.898566
44.433387
44.883984
45.257567
45.562312
45.807858
46.00324
46.166545
46.306558
46.417271
46.497922
46.550214
46.576564
46.579356
46.560472
46.520778
46.46052
46.378476
46.273411
46.140599
45.97861
45.776017
45.53717
45.236726
44.890082
44.542324
43.682796
39.074431
37.939343
38.757781
41.670814
45.1314
47.926704
49.923694
51.342659
52.402059
53.24365
53.927634
54.479817
54.965436
55.367017
55.676132
55.903618
56.064191
56.171972
56.244074
56.289651
56.307376
56.297319
56.261268
56.201885
56.121757
56.022613
55.904976
55.768647
55.611967
55.43263
55.225827
54.987525
54.708326
54.384949
54.003158
53.555627
53.126273
52.143077
47.525422
45.587013
48.0398
53.490952
58.492016
61.876431
63.95795
65.264564
66.255574
67.046252
67.651862
68.100522
68.438015
68.667249
68.79921
68.855613
68.854626
68.811384
68.740456
68.649122
68.537451
68.405755
68.255111
68.087813
67.906081
67.71089
67.502116
67.278741
67.038627
66.778019
66.492523
66.174498
65.818866
65.410519
64.956012
64.406296
63.920888
62.82228
58.769181
54.487022
60.992643
70.483375
77.077029
80.781278
82.73046
83.799158
84.497275
84.985137
85.291992
85.45303
85.492826
85.422301
85.277459
85.087834
84.868126
84.628427
84.379288
84.125415
83.864932
83.596913
83.320256
83.036205
82.746143
82.449886
82.146743
81.834522
81.51098
81.170469
80.810465
80.417682
79.99678
79.511786
79.010227
78.364632
77.878944
76.709824
71.894
64.966134
80.989304
96.025736
103.60529
106.69808
107.7972
108.13771
108.21833
108.1655
107.99366
107.72815
107.36433
106.91506
106.44451
105.97772
105.51765
105.06534
104.6253
104.19914
103.78283
103.37435
102.96865
102.56565
102.16601
101.76865
101.37241
100.974
100.57195
100.15824
99.735135
99.280247
98.818215
98.27574
97.778821
97.053971
96.683876
95.54499
81.578254
78.322293
113.48313
133.58685
140.12644
141.5932
141.34296
140.67292
139.96984
139.27492
138.5621
137.83186
137.0353
136.19092
135.39357
134.65099
133.95154
133.28652
132.6544
132.05416
131.47993
130.92981
130.39147
129.86477
129.3514
128.85008
128.35961
127.87592
127.40004
126.92093
126.4508
125.95259
125.48861
124.92014
124.51665
123.7419
123.69472
122.72238
69.554056
93.858772
158.53577
180.51068
184.99808
185.39859
184.27366
182.87831
181.56431
180.35407
179.19661
178.07377
176.97843
175.92744
174.9604
174.07446
173.25108
172.47285
171.7377
171.04633
170.38922
169.76601
169.14486
168.53481
167.9443
167.37254
166.8193
166.28052
165.76111
165.24786
164.76558
164.26218
163.84442
163.30136
163.06628
162.31003
162.70998
161.83393
5.4520436
109.98995
214.34684
236.84514
240.97512
242.57489
241.99958
240.63023
239.2032
237.86942
236.56782
235.2752
234.09862
233.04855
232.07133
231.18001
230.35528
229.56812
228.82472
228.13487
227.47949
226.86177
226.2006
225.53672
224.89572
224.2766
223.68023
223.10333
222.55493
222.02119
221.53866
221.04437
220.68354
220.1876
220.12573
219.43386
220.2464
219.15491
7.6153507
96.931747
314.34126
350.50912
363.97956
376.87331
382.83999
384.49338
384.97035
385.14515
384.95272
384.39128
383.67292
382.84307
381.96358
381.14243
380.36668
379.57116
378.8096
378.13372
377.48191
376.877
376.01626
375.11113
374.23418
373.383
372.56
371.76337
371.00781
370.27932
369.62995
368.98382
368.53683
367.94584
367.96415
367.20187
368.46155
366.48887
3594.2931
3519.914
682.33955
856.309
940.7842
1037.1591
1092.7578
1116.9624
1131.1464
1141.5795
1148.3934
1151.92
1153.9465
1154.8196
1154.7184
1154.3962
1153.9278
1153.0003
1152.0488
1151.4307
1150.7477
1150.2071
1147.7716
1145.1338
1142.534
1139.966
1137.4326
1134.9342
1132.486
1130.0796
1127.7657
1125.4825
1123.4184
1121.2586
1119.7576
1117.4756
1117.5918
1111.8819
14950.446
14585.584
14434.108
14393.427
14365.204
14335.318
14306.789
14280.096
14254.022
14228.266
14202.859
14177.777
14152.898
14128.2
14103.647
14079.181
14054.803
14030.534
14006.339
13982.193
13958.128
13934.129
13910.335
13886.617
13862.965
13839.382
13815.865
13792.414
13769.025
13745.703
13722.436
13699.245
13676.088
13653.044
13629.971
13607.102
13584.217
13561.076
14487.319
15950.698
17994.323
19616.452
21010.886
22239.418
23332.027
24321.065
25215.255
26013.834
26717.444
27327.716
27845.983
28273.243
28611.169
28862.042
29028.373
29113.168
29119.95
29052.601
28915.417
28712.871
28449.467
28130.219
27759.945
27344.569
1355.1953
1552.8405
1223.0169
1281.2881
1523.3438
1868.0166
2280.324
2587.8401
2791.9379
2946.0466
3072.6883
3177.3158
3262.9543
3333.8941
3391.0876
3433.4237
3460.9602
3473.7943
3471.5663
3454.2035
3421.3385
3373.4595
3313.1587
3241.0699
3159.6583
3069.6583
486.11582
528.48402
561.14976
663.91963
814.32804
938.08053
1036.8821
1101.4016
1149.8616
1189.9695
1223.8552
1252.1387
1276.4649
1297.2184
1313.693
1325.4768
1332.537
1334.6708
1331.516
1322.8144
1308.3756
1288.2436
1262.9474
1232.8687
1198.8458
1161.3532
282.94277
298.06288
330.09962
419.56408
545.27725
637.99225
695.32016
729.30977
756.49921
779.83165
799.37875
815.48627
828.36586
838.41292
846.03256
851.06132
853.51579
853.21236
849.8765
843.28618
833.25748
820.27589
804.17826
784.84478
762.64563
737.8377
200.61554
207.04968
225.25063
288.60571
383.94528
465.67731
516.16616
546.78033
571.19855
591.97996
609.12363
622.96363
633.4629
641.16668
646.89406
650.6734
652.60143
652.58401
650.44368
646.06008
639.34397
630.17191
618.43105
604.06212
587.19582
567.91137
144.17889
147.67935
156.09141
193.60036
262.00293
325.07962
369.1994
399.0318
423.18775
443.63709
460.74243
474.38115
484.67564
492.2715
497.95035
501.92124
504.39645
505.41236
504.90572
502.86824
499.33647
493.82807
486.3047
476.75869
465.141
451.36619
105.51218
110.33735
113.98463
131.94784
179.03386
230.95668
264.33334
288.37962
309.15971
327.68924
344.49564
358.21445
368.81543
377.09965
383.45499
388.13111
391.43782
393.57411
394.56861
394.48388
393.47078
391.27994
387.79994
382.91836
376.44351
368.11551
81.565414
87.008735
88.275905
96.20862
122.57152
168.4599
199.38809
219.00153
234.41535
248.91967
262.8849
274.87119
284.55757
292.80294
299.34121
304.33496
308.08757
311.01613
313.08406
314.35561
315.05129
315.17216
314.59627
313.16125
310.59398
306.50946
67.534628
71.130315
71.049214
74.259059
86.7133
121.58021
151.73954
171.72014
185.74468
197.22481
207.19443
216.11472
224.35057
231.32478
236.96074
241.4212
244.91362
248.01392
250.49119
252.38321
253.9174
255.34027
256.58596
257.46087
257.71215
256.90583
59.541161
59.21648
58.548765
59.627918
64.852995
86.058929
112.56834
133.47551
148.8022
160.37685
168.90254
175.41086
181.04709
185.85169
190.29113
194.19725
197.44353
200.12184
202.31224
204.10929
205.70137
207.50331
209.51203
211.51135
213.47161
214.95181
54.699739
50.030078
49.130586
49.321924
51.229476
61.181746
81.083992
100.27927
116.44107
129.61036
139.29652
145.81809
150.21307
153.19794
155.77809
158.27822
160.83479
163.04665
164.94289
166.62395
168.25271
169.97311
171.84351
173.87527
176.38736
178.94212
50.880719
43.259173
42.009903
41.810269
42.2751
45.893464
58.159696
73.1023
87.579737
101.05594
112.44032
120.85676
126.33596
129.27961
130.88914
132.03886
133.21986
134.32745
135.50013
136.86502
138.46651
140.12362
141.88142
143.93153
146.27656
148.71913
46.824172
38.506231
36.77139
36.202654
35.993818
36.778121
42.955978
52.971759
63.948719
75.280864
86.473857
96.457405
104.16148
108.96855
111.43926
112.49893
112.98235
113.17447
113.40032
113.88802
114.76173
115.95246
117.51838
119.60815
121.86406
124.22421
42.097907
33.065759
32.888753
32.175023
31.315765
30.877618
33.383646
39.182962
46.392767
54.358774
63.033131
72.212227
81.054819
88.199843
92.963808
95.584532
96.766439
96.997863
96.827983
96.719145
96.933935
97.480473
98.433081
99.96205
101.85611
104.11673
36.508165
24.725726
26.677773
28.179511
27.932529
26.932821
27.42307
30.236372
34.344522
39.197196
44.743488
51.146365
58.437767
65.979867
72.684323
77.724379
80.97236
82.655595
83.254485
83.320812
83.329917
83.502609
83.997011
85.010008
86.384407
88.136623
27.673078
15.135011
14.856093
19.227903
22.118433
22.540809
22.553959
23.39953
25.064276
27.287157
30.001854
33.305258
37.378185
42.364376
48.14771
54.163014
59.6663
64.025515
66.990043
68.748833
69.756071
70.401325
70.971562
71.769979
72.801411
74.111757
17.512689
8.1795248
5.2163961
6.883772
11.084867
14.522222
16.325972
17.306651
18.19437
19.164215
20.293901
21.677075
23.436892
25.704378
28.535177
31.944829
36.016071
40.592506
45.140213
49.168947
52.4862
55.110341
57.170829
58.949104
60.599419
62.23707
10.071347
4.6733023
3.637377
3.6346712
4.3279764
6.9309272
9.5605339
11.43832
12.603224
13.422244
14.082589
14.663635
15.246561
15.985762
17.046017
18.626548
20.76591
23.426798
26.306418
29.452796
33.006472
36.763875
40.38695
43.807534
47.023994
49.963371
5.6061604
3.3113834
3.1595299
3.4145021
3.6420394
4.003525
5.1964472
6.8666326
8.2609911
9.1921312
9.7257813
9.9736265
10.161395
10.399422
10.781504
11.401884
12.244392
13.1982
14.570554
16.513376
18.816296
21.420786
24.027277
27.087015
30.723845
34.539183
3.317797
2.7458788
2.9252739
3.1764356
3.3792713
3.5148906
3.7509972
4.2789931
5.1323056
5.9695485
6.5370707
6.8738743
7.1002666
7.2796471
7.4816201
7.7331092
8.0532909
8.4070257
8.9702439
9.8017205
10.765149
11.796327
13.414617
15.413705
17.84701
20.250044
2.4297356
2.5241937
2.7463612
2.950061
3.1168284
3.2469601
3.354107
3.4807317
3.7227557
4.1054166