/*--------------------------------*- C++ -*----------------------------------*\
  =========                 |
  \\      /  F ield         | OpenFOAM: The Open Source CFD Toolbox
   \\    /   O peration     | Website:  https://openfoam.org
    \\  /    A nd           | Version:  7
     \\/     M anipulation  |
\*---------------------------------------------------------------------------*/
FoamFile
{
    version     2.0;
    format      ascii;
    class       volSymmTensorField;
    location    "2000";
    object      R;
}
// * * * * * * * * * * * * * * * * * * * * * * * * * * * * * * * * * * * * * //

dimensions      [0 2 -2 0 0 0 0];

internalField   nonuniform List<symmTensor> 
15296
(
(0.0062856013 2.9452356e-06 4.3022602e-06 0.0062144603 -0.00042877311 0.0064408054)
(0.0062126 9.0541098e-06 3.3503825e-07 0.0061580769 -0.00048419723 0.0065063009)
(0.0061646466 9.6660009e-06 -5.1000321e-07 0.0061422398 -0.00047166916 0.0065025316)
(0.0061328768 9.8024162e-06 -1.3730917e-06 0.0061785212 -0.00038618333 0.0064357088)
(0.0061099379 8.7310332e-06 -3.4861451e-07 0.0062292862 -0.00020529276 0.0063509642)
(0.0060772308 7.6980903e-06 9.0458435e-07 0.0061749132 -0.00033063877 0.0063860252)
(0.0060510978 7.3613177e-06 -4.2217211e-07 0.0061243892 -0.00039892045 0.0064148042)
(0.0060457523 6.2165937e-06 -3.2046141e-06 0.0061757061 -0.00023779233 0.0063243657)
(0.0060298127 4.4996818e-06 -2.8735105e-06 0.0061409973 0.00030896722 0.0063337782)
(0.0060119386 4.4066239e-06 1.9857046e-06 0.006087272 0.00039315306 0.0063669486)
(0.0060153777 5.5350501e-06 3.4625566e-06 0.0061564494 -0.00015824467 0.0062582801)
(0.0059940007 9.5852778e-06 1.2154247e-06 0.0060721817 -0.0003785079 0.0063303186)
(0.0059824548 1.5984776e-05 1.8328955e-07 0.0060383192 -0.00041348482 0.0063442328)
(0.0059773755 1.9744904e-05 -2.7929081e-06 0.0060258827 -0.00041658486 0.0063321961)
(0.0059896032 1.5928542e-05 -3.6986604e-06 0.0060973216 0.00023250265 0.0062207176)
(0.0059763344 4.5835879e-06 -1.0033632e-06 0.0060070756 0.0004197058 0.0062982536)
(0.0059714572 -8.604388e-06 -8.6152426e-08 0.0059801121 0.00044179395 0.0063056409)
(0.0059627956 -1.0756601e-05 1.1228626e-07 0.0059738618 0.00043781576 0.0062975753)
(0.0059491649 1.6126297e-05 5.3021091e-08 0.0059756799 0.0004247044 0.006287894)
(0.0059463125 6.1687806e-05 -2.5854001e-07 0.0059622507 0.00043496451 0.006284397)
(0.005977745 5.6268509e-05 -5.6938009e-07 0.0059115387 0.00048740446 0.0062854119)
(0.0060405736 -7.2811625e-05 -6.7717185e-07 0.0058305333 0.00055796359 0.0062861811)
(0.006104481 -0.00028903058 -6.0378872e-07 0.005752659 0.00062458285 0.0062853624)
(0.0061533183 -0.00048793511 -4.7457609e-07 0.0056961638 0.00067567048 0.0062840307)
(0.0062011647 -0.0006411047 -4.1473287e-07 0.0056476948 0.0007149638 0.0062831663)
(0.0062641985 -0.00077086588 -4.1478695e-07 0.0055919192 0.0007498142 0.0062833545)
(0.006339531 -0.00090858395 -4.9673825e-07 0.0055314191 0.00077936872 0.0062870466)
(0.0064573886 -0.0010746683 -1.0394397e-06 0.0054437504 0.00083766681 0.0062819519)
(0.0067012493 -0.0013649114 1.0297003e-06 0.0052894479 0.0010267773 0.0062225062)
(0.0071088825 -0.0018176072 -7.9268973e-06 0.0048684517 0.00029504056 0.0062815838)
(0.0067054569 -0.0012640343 -1.4444315e-06 0.0041643416 0.001934747 0.00746787)
(0.007842161 -0.0020621455 2.7578125e-06 0.0065952686 0.00022377806 0.0040221522)
(0.0073959489 -0.0018331506 -1.8548328e-06 0.0036846795 0.0001783871 0.0076708074)
(0.0078631081 -0.002202392 1.7998028e-06 0.0042182177 -0.00032293213 0.006574248)
(0.0045310457 -0.002097333 -0.00023520824 0.0077832263 0.00021037217 0.009807936)
(0.00049489974 0.00013517687 5.4813267e-06 0.00024299698 8.9335067e-05 -7.8271163e-05)
(1.1984234 0.18251623 6.0257882e-05 1.2522965 -0.1084509 0.53322117)
(1.6723122 0.33719267 -0.0066254691 1.5343132 -0.0067852138 0.77690832)
(0.0063211167 8.9962599e-06 3.5505642e-06 0.006317106 -0.00015256938 0.0063042165)
(0.0062615988 2.1366447e-05 7.4610334e-07 0.0063173042 -0.00018241686 0.0062984982)
(0.0062142133 2.4431905e-05 -4.781263e-07 0.0063068922 -0.00017795603 0.0062889887)
(0.0061663669 2.6082686e-05 -1.4555054e-06 0.0062957279 -0.00013930746 0.006285776)
(0.0061226425 2.6257965e-05 -4.3794089e-07 0.0062846496 -7.0516034e-05 0.0062837227)
(0.0061025667 2.6043142e-05 8.9315675e-07 0.0062715687 -0.00011818342 0.0062648761)
(0.0060878934 2.6690778e-05 -2.7958309e-07 0.0062573161 -0.00014741144 0.0062459338)
(0.0060617395 2.6024549e-05 -2.7000821e-06 0.006243342 -8.3094474e-05 0.006241631)
(0.0060520252 2.4200747e-05 -2.5308649e-06 0.0062297218 0.00011113452 0.0062237324)
(0.0060472544 2.4586564e-05 1.3844258e-06 0.00621528 0.00014590063 0.0062045121)
(0.0060244983 2.7564525e-05 3.0068682e-06 0.0062033859 -5.4831254e-05 0.0062031374)
(0.006026497 3.484645e-05 1.3512304e-06 0.0061904237 -0.0001390792 0.0061804761)
(0.0060221504 4.6425119e-05 3.1330084e-07 0.0061782781 -0.00015375438 0.0061654677)
(0.0060170985 5.4765609e-05 -2.303944e-06 0.0061661266 -0.00015456798 0.0061531165)
(0.0060020952 5.0074161e-05 -3.3420152e-06 0.0061549514 8.1847643e-05 0.0061515001)
(0.0060140181 3.1430195e-05 -1.2306629e-06 0.0061413518 0.00015611055 0.0061271739)
(0.006014758 8.6466437e-06 -2.0514817e-07 0.0061297405 0.00016529219 0.0061135826)
(0.0060067149 2.9965713e-06 1.0260439e-07 0.0061217399 0.00016295448 0.006106643)
(0.0059920513 4.6813079e-05 5.5621968e-08 0.006117305 0.00015716147 0.0061042405)
(0.0059898961 0.00012569517 -3.174617e-07 0.0061094409 0.0001614091 0.0060944674)
(0.0060270241 0.00012112275 -7.6306406e-07 0.0060860872 0.00018380769 0.0060624125)
(0.0061009113 -9.7796044e-05 -1.0137877e-06 0.0060471731 0.00021595728 0.0060100062)
(0.0061764836 -0.00048178981 -9.9116442e-07 0.0060107432 0.00024824362 0.0059560124)
(0.0062346384 -0.00085638791 -8.5021632e-07 0.0059855409 0.00027410774 0.0059139652)
(0.0062911783 -0.0011635837 -8.3147018e-07 0.0059634087 0.00029549508 0.0058779423)
(0.006364453 -0.001437943 -9.5345996e-07 0.0059371017 0.00031739756 0.0058382753)
(0.0064510681 -0.0017395849 -1.0015221e-06 0.0059100655 0.00034115618 0.0057970973)
(0.0065694948 -0.0020514772 -1.2685456e-06 0.0058948482 0.00038513726 0.0057188684)
(0.0067887777 -0.00245744 -2.1900499e-06 0.0058856676 0.0004915268 0.0055386367)
(0.0071281233 -0.0028329528 -4.0801894e-06 0.0058383887 0.00042948919 0.0052918524)
(0.0072868847 -0.0026222149 -4.6631626e-06 0.0055872401 0.00069072595 0.0054619438)
(0.0069985912 -0.0027502903 -5.2572034e-06 0.0060091189 0.00031296055 0.0054488261)
(0.0075700838 -0.0025961444 -1.1318474e-05 0.0058064385 0.00049206572 0.0053737751)
(0.0076028351 -0.0025819747 4.4077944e-06 0.0057394017 0.00038265506 0.0052834866)
(0.00635279 -0.0032037464 -0.00018101448 0.007552635 0.00075946154 0.0083350211)
(0.0012094008 0.0006783511 4.4108886e-05 0.00052105316 -5.3098158e-05 6.5875127e-05)
(1.0599291 0.40609226 -3.2549523e-05 1.0408849 -0.153737 0.83230777)
(1.4541691 0.60484807 -0.019539552 1.2810523 -0.027826567 1.2586634)
(0.0062999271 2.2623603e-05 2.4275829e-06 0.0063316359 -8.2799634e-05 0.0063134908)
(0.0062270276 3.56523e-05 9.0511705e-07 0.0063400761 -0.00011437613 0.0063115385)
(0.0061791578 4.0212441e-05 -2.7817397e-07 0.0063305925 -0.00011537257 0.0063018509)
(0.0061430975 4.2706726e-05 -1.2174081e-06 0.0063125721 -8.4052816e-05 0.0062938484)
(0.0061143182 4.4790042e-05 -4.6681154e-07 0.0062922604 -3.8824375e-05 0.0062861736)
(0.0060848498 4.612732e-05 6.8977897e-07 0.0062848703 -6.7258544e-05 0.0062710712)
(0.0060618558 4.6343844e-05 -9.1003687e-08 0.0062759182 -9.1247759e-05 0.0062551766)
(0.0060509924 4.6203277e-05 -1.9228658e-06 0.0062527849 -4.8682451e-05 0.0062447824)
(0.0060362651 4.5386311e-05 -1.9643251e-06 0.0062416027 6.2681172e-05 0.0062294692)
(0.0060223793 4.5095322e-05 7.2070566e-07 0.006233185 9.0453101e-05 0.0062133415)
(0.0060186493 4.8729492e-05 2.2013863e-06 0.0062090859 -2.6076013e-05 0.0062051648)
(0.0060039628 5.7977138e-05 1.2574642e-06 0.0062065895 -8.369505e-05 0.0061887093)
(0.0059944986 7.1477977e-05 3.904334e-07 0.0061977352 -9.7089713e-05 0.006175518)
(0.0059890232 8.2248802e-05 -1.5832455e-06 0.0061859267 -9.7380245e-05 0.0061632405)
(0.0059925286 8.0163825e-05 -2.569903e-06 0.0061625576 4.1661748e-05 0.0061553132)
(0.0059857504 6.0858274e-05 -1.2238782e-06 0.0061608222 9.6232418e-05 0.0061378004)
(0.0059829693 3.2716047e-05 -2.9937788e-07 0.0061515037 0.00010522871 0.0061254214)
(0.0059765863 2.1519372e-05 5.376475e-08 0.0061424805 0.00010341616 0.0061178307)
(0.0059651483 6.6777376e-05 4.6734039e-08 0.0061359883 9.8817625e-05 0.0061142437)
(0.0059605964 0.000160585 -2.8292516e-07 0.0061293514 0.00010182961 0.0061056132)
(0.005984509 0.00017180059 -7.2782723e-07 0.0061140531 0.00011903705 0.0060786943)
(0.0060390443 -6.4925224e-05 -1.026072e-06 0.0060867568 0.0001460921 0.0060339893)
(0.0060985084 -0.00052132264 -1.0469808e-06 0.0060575504 0.00017515075 0.005988753)
(0.0061469996 -0.0010053728 -9.2505387e-07 0.0060343116 0.00019933762 0.0059541743)
(0.006195741 -0.0014276634 -9.2174707e-07 0.0060136017 0.0002203667 0.0059242439)
(0.006258532 -0.0018186469 -1.0696952e-06 0.0059913232 0.00024401891 0.0058907155)
(0.0063317264 -0.0022504978 -8.9859542e-07 0.0059718807 0.00027329123 0.0058550493)
(0.0064129575 -0.0025991477 -5.3271838e-07 0.0059751562 0.00030882673 0.0057951775)
(0.0065845263 -0.0028684097 -1.2516638e-06 0.0059227335 0.00036673257 0.0057052859)
(0.0067462317 -0.0029355745 -2.5317013e-06 0.005902995 0.00038432936 0.0056076782)
(0.006787007 -0.0028321992 -4.6621172e-06 0.0059117389 0.00031796531 0.0056344677)
(0.0069415103 -0.0027715331 -3.1790054e-06 0.0057399887 0.00037581432 0.0057676852)
(0.0070252558 -0.0027742275 -9.4634854e-06 0.0061029842 0.00045187778 0.0056157814)
(0.0073092603 -0.0026611261 5.3934129e-06 0.005775704 0.0004769492 0.0054765973)
(0.0074740062 -0.0034323395 -0.00022006808 0.0072289658 0.00039970855 0.0076875719)
(0.0022674294 0.0011018063 0.00010595913 0.00011197983 0.00010314912 0.00032735977)
(1.0809532 0.40002829 3.0152306e-05 0.86646946 -0.17151566 0.90753438)
(1.4628593 0.60066211 -0.02127148 1.1657971 -0.0027125924 1.371664)
(0.0063103969 3.9328541e-05 1.5230484e-06 0.0063161148 -4.4652116e-05 0.0063219053)
(0.0062409082 5.1324591e-05 8.779956e-07 0.0063162981 -7.4322688e-05 0.0063235003)
(0.0061929654 5.7361844e-05 -6.6974637e-08 0.00630694 -7.9657146e-05 0.0063139942)
(0.00615256 6.1000128e-05 -9.0204513e-07 0.0062972959 -5.514066e-05 0.0063021411)
(0.0061184365 6.3645101e-05 -4.5113944e-07 0.0062873326 -2.3339807e-05 0.0062895801)
(0.0060924484 6.5712742e-05 4.6311653e-07 0.0062734441 -3.9672126e-05 0.0062775615)
(0.0060724026 6.6409697e-05 4.161519e-08 0.0062588424 -5.9825274e-05 0.0062644097)
(0.0060558577 6.6545452e-05 -1.2661658e-06 0.0062464372 -3.2168682e-05 0.0062490139)
(0.0060432169 6.6169094e-05 -1.4622504e-06 0.0062315174 3.6008032e-05 0.0062353687)
(0.0060325782 6.5863792e-05 2.4564676e-07 0.0062168565 5.9333031e-05 0.0062222421)
(0.0060223554 6.9106617e-05 1.4835371e-06 0.0062054885 -9.9478635e-06 0.0062078419)
(0.0060139064 7.8491401e-05 1.074949e-06 0.0061912851 -5.2533464e-05 0.0061968434)
(0.0060062579 9.2995902e-05 4.266254e-07 0.0061789158 -6.5502888e-05 0.0061853383)
(0.0060004639 0.00010566482 -9.8399808e-07 0.0061672519 -6.5771796e-05 0.0061732227)
(0.0059967609 0.00010624356 -1.8527314e-06 0.0061571176 1.9218667e-05 0.0061592644)
(0.0059959591 8.8651475e-05 -1.1088296e-06 0.0061432241 6.2073967e-05 0.0061479073)
(0.0059945726 5.9132534e-05 -3.6398817e-07 0.0061313134 7.1417089e-05 0.006136704)
(0.0059893808 4.2643209e-05 -8.5606214e-09 0.0061216609 7.0326085e-05 0.0061285307)
(0.0059793451 8.2256685e-05 2.8314196e-08 0.0061148765 6.6613245e-05 0.006123809)
(0.0059747779 0.00017941219 -2.2624916e-07 0.0061074185 6.8629825e-05 0.0061159744)
(0.0059952309 0.00020897748 -6.1858561e-07 0.0060909982 8.1839675e-05 0.006093604)
(0.0060453871 -1.1514354e-05 -9.2026273e-07 0.0060611765 0.0001040636 0.00605577)
(0.0061049436 -0.00048717 -9.801455e-07 0.0060257311 0.00012884072 0.0060164946)
(0.0061571452 -0.0010346973 -8.9141069e-07 0.0059953626 0.00014975358 0.0059849502)
(0.0062093175 -0.0015392939 -8.9157696e-07 0.0059692654 0.00016807699 0.0059564766)
(0.0062733036 -0.0020191725 -1.0144398e-06 0.005943451 0.00018928746 0.0059247125)
(0.0063478756 -0.00253696 -7.3257822e-07 0.0059197725 0.00021648254 0.0058912532)
(0.006456986 -0.0028642101 -1.9547445e-07 0.0058570369 0.00023085739 0.0058688671)
(0.0066670019 -0.0030041649 -6.1427692e-07 0.0057424139 0.00024356466 0.0058020063)
(0.0067929424 -0.0029515949 -2.3113648e-06 0.0057095379 0.00023455973 0.0057520352)
(0.006818897 -0.0028414984 -3.3757563e-06 0.0057688243 0.00020848392 0.0057404005)
(0.0069889737 -0.0027676899 -1.7180489e-06 0.0056610976 0.00029536321 0.0057874388)
(0.0071114057 -0.0027928613 -8.6607593e-06 0.0058159513 0.00027005286 0.0058044894)
(0.007489817 -0.002602605 7.8153778e-06 0.0054373707 0.00035219641 0.0055518033)
(0.0076752276 -0.0034853524 -0.00015499495 0.0072713501 0.00011929149 0.0076197842)
(0.0037441143 0.00051469679 0.00017015342 -0.00055518527 0.00059660713 0.00022101938)
(1.0655553 0.38461063 -5.7496859e-06 0.81547365 -0.15280253 0.87114408)
(1.4701829 0.59590978 -0.024917702 1.1592502 0.059863718 1.3739841)
(0.0063119491 5.8312637e-05 9.0075704e-07 0.0063190444 -2.3023276e-05 0.0063214436)
(0.0062422943 6.9080357e-05 7.4693349e-07 0.0063190534 -4.7813162e-05 0.0063222429)
(0.0061942847 7.5787059e-05 9.565689e-08 0.0063098621 -5.5838962e-05 0.0063128432)
(0.0061538843 7.9976653e-05 -5.9909326e-07 0.0062996364 -3.8239157e-05 0.0063017806)
(0.0061197275 8.2903471e-05 -4.0084008e-07 0.006288982 -1.5380041e-05 0.0062900889)
(0.0060936901 8.5236035e-05 2.6791595e-07 0.0062757912 -2.3608909e-05 0.0062775093)
(0.0060736365 8.6538628e-05 1.0626457e-07 0.0062616824 -3.977996e-05 0.0062639281)
(0.0060571196 8.6881802e-05 -7.8454215e-07 0.0062483257 -2.3068124e-05 0.006249506)
(0.0060443699 8.6666602e-05 -1.0631214e-06 0.0062339531 1.9803819e-05 0.0062354448)
(0.0060338722 8.6594744e-05 -4.0946407e-08 0.006219617 3.9242477e-05 0.0062218607)
(0.0060237495 8.9235545e-05 9.3153071e-07 0.0062072132 -9.8230471e-07 0.0062084071)
(0.0060155553 9.758176e-05 8.6175143e-07 0.0061937377 -3.2686443e-05 0.0061964138)
(0.0060080021 0.00011170843 4.2922841e-07 0.0061815328 -4.5054049e-05 0.0061846321)
(0.0060019767 0.00012527541 -5.5024184e-07 0.0061699561 -4.5816052e-05 0.0061726432)
(0.0059975851 0.0001282007 -1.280324e-06 0.0061593503 6.1540233e-06 0.0061598321)
(0.005996282 0.00011381495 -9.4421548e-07 0.0061467386 3.9798859e-05 0.006147665)
(0.0059949034 8.5847765e-05 -3.9739084e-07 0.0061350074 4.9388523e-05 0.0061362474)
(0.0059909234 6.6107105e-05 -7.0167205e-08 0.0061245305 4.9262339e-05 0.0061276589)
(0.0059829318 9.646604e-05 3.8099898e-09 0.006116246 4.6423195e-05 0.00612236)
(0.005978236 0.00018780133 -1.7135648e-07 0.0061087858 4.764346e-05 0.0061146022)
(0.0059930755 0.00023153803 -4.9278381e-07 0.0060963312 5.7540673e-05 0.0060938356)
(0.0060342582 4.6353891e-05 -7.7586342e-07 0.0060731553 7.5314907e-05 0.0060582983)
(0.0060874642 -0.00040302188 -8.6884646e-07 0.0060429361 9.5875967e-05 0.0060199169)
(0.0061372969 -0.00096066737 -8.1944483e-07 0.0060152863 0.00011357673 0.0059874784)
(0.0061877713 -0.0015012516 -8.2196011e-07 0.0059916354 0.00012905446 0.0059574999)
(0.0062482207 -0.0020274085 -9.0773448e-07 0.0059694895 0.00014696095 0.0059246908)
(0.0063230899 -0.0025763241 -6.914343e-07 0.0059444349 0.00016947472 0.0058912115)
(0.0064581467 -0.0029067306 -2.5231518e-07 0.0058582313 0.00017210952 0.0058654742)
(0.0066596929 -0.0030236175 -4.3744797e-07 0.0057571257 0.0001674856 0.0057929315)
(0.0067746883 -0.0029610252 -1.8005899e-06 0.0057386136 0.00015746011 0.0057378926)
(0.0068258517 -0.0028415661 -2.4916926e-06 0.0057770024 0.00017703286 0.0057183035)
(0.0069868719 -0.0027736945 -1.1508473e-06 0.0057254961 0.00020989714 0.0057098147)
(0.0071342261 -0.0027905192 -8.6611523e-06 0.0057915278 0.00018181814 0.0057891979)
(0.0076140471 -0.0025292639 1.1053062e-05 0.0053543747 0.00030731333 0.0054202953)
(0.0076592651 -0.0035177264 -0.00011939644 0.0074469318 -0.00014829417 0.0076350511)
(0.0038059771 -0.0001664679 0.00015688808 -0.00015851023 0.00077282792 0.00028084677)
(1.0253045 0.36259031 2.0938671e-05 0.79874582 -0.15724401 0.80656832)
(1.458636 0.56069982 -0.034342527 1.1687785 0.21790833 1.3779431)
(0.0063131277 8.5349138e-05 3.8446913e-07 0.0063226903 -9.318319e-06 0.0063225915)
(0.0062430535 9.5092133e-05 5.346576e-07 0.0063225341 -2.6161292e-05 0.0063227688)
(0.0061949286 0.00010122087 2.2159705e-07 0.0063135462 -3.5021877e-05 0.0063135279)
(0.0061549724 0.00010537954 -2.7696093e-07 0.0063027163 -2.5693592e-05 0.0063029365)
(0.0061213972 0.00010849464 -3.0825683e-07 0.0062911754 -1.0951801e-05 0.0062917704)
(0.006094985 0.00011092476 8.1016017e-08 0.006278679 -1.2872377e-05 0.0062790104)
(0.0060745891 0.00011244414 1.2528513e-07 0.0062651781 -2.3682745e-05 0.006265253)
(0.006058647 0.0001131107 -3.5784624e-07 0.0062508636 -1.6350921e-05 0.0062512862)
(0.006045677 0.00011313597 -6.6442558e-07 0.0062368635 7.6448719e-06 0.0062371081)
(0.0060349048 0.00011299798 -2.3419479e-07 0.0062231006 2.2594868e-05 0.0062232391)
(0.0060256746 0.000114824 4.1931034e-07 0.0062093596 3.9783692e-06 0.0062102412)
(0.0060171023 0.000121203 5.9295973e-07 0.0061968103 -1.6827937e-05 0.0061976831)
(0.0060094806 0.00013278703 3.9754059e-07 0.0061848242 -2.771965e-05 0.0061857242)
(0.0060032121 0.00014540843 -1.7059034e-07 0.0061733641 -2.9700371e-05 0.0061738322)
(0.0059988934 0.0001507402 -7.2319998e-07 0.006161903 -2.44019e-06 0.0061617768)
(0.0059961728 0.00014170495 -7.1608483e-07 0.0061509682 2.1233728e-05 0.0061493076)
(0.0059944735 0.0001192537 -4.0227993e-07 0.0061396595 3.0617944e-05 0.0061377466)
(0.0059917154 9.9316822e-05 -1.3531055e-07 0.0061284596 3.193464e-05 0.0061286154)
(0.0059861932 0.00011604631 -3.0019715e-08 0.0061184821 3.0334885e-05 0.0061224865)
(0.0059818645 0.00018805184 -1.1506268e-07 0.0061104823 3.0854727e-05 0.0061148151)
(0.0059905791 0.00023923686 -3.4347306e-07 0.0061018353 3.7249994e-05 0.0060962924)
(0.0060205726 0.00011463734 -5.8804073e-07 0.00608653 4.9879657e-05 0.0060640382)
(0.0060652996 -0.00024593664 -7.115249e-07 0.0060619927 6.5453669e-05 0.0060281339)
(0.0061132758 -0.00073949245 -7.1121342e-07 0.0060334192 7.9576386e-05 0.0059976254)
(0.0061645618 -0.0012542959 -7.203246e-07 0.0060056253 9.202384e-05 0.0059697129)
(0.0062249585 -0.0017751101 -7.6783884e-07 0.0059791687 0.00010605693 0.0059396714)
(0.0063045709 -0.0023066422 -6.8818725e-07 0.0059449851 0.00012268364 0.0059085962)
(0.0064233437 -0.0027041895 -4.5728256e-07 0.005907924 0.00012709974 0.0058486127)
(0.0066160948 -0.0029225596 -3.7527754e-07 0.0058217237 0.0001220863 0.0057692202)
(0.0068017602 -0.0029591769 -1.1845483e-06 0.005738703 0.00011859713 0.0057057604)
(0.0068798284 -0.0028320586 -1.7590137e-06 0.0057496346 0.00013596743 0.0056817292)
(0.0070563489 -0.0027554223 -6.8729939e-07 0.0057193759 0.00015354859 0.0056247456)
(0.0071770591 -0.0027770183 -8.2593135e-06 0.0057982264 0.00012079795 0.0057151233)
(0.0078482555 -0.0023706607 1.4391959e-05 0.0052458649 0.0003276701 0.0051802436)
(0.007609025 -0.0035235107 -8.5802366e-05 0.0075998927 -0.00043519867 0.0077066583)
(0.0046299151 0.00027026882 0.00016777591 5.5543288e-05 0.0012017709 0.00027260041)
(1.0096124 0.29020849 0.00028886369 0.7278944 -0.20601057 0.73311984)
(1.4598052 0.2635187 -0.051189908 1.1180091 0.52725986 1.4300421)
(0.00631702 0.00012257939 7.4088314e-08 0.0063249 -2.1794608e-06 0.006325557)
(0.0062465628 0.00013063653 2.9319945e-07 0.0063243395 -1.1252222e-05 0.0063255469)
(0.006198328 0.00013521144 2.4554492e-07 0.0063156056 -1.8964178e-05 0.0063164796)
(0.0061583129 0.00013896029 -2.7884843e-08 0.0063052209 -1.6397214e-05 0.0063059572)
(0.0061246943 0.00014190888 -1.7516832e-07 0.0062940692 -8.3948697e-06 0.0062947879)
(0.0060983545 0.00014423135 -3.3689351e-08 0.0062815396 -6.7535597e-06 0.0062822146)
(0.0060779893 0.00014582475 8.9261901e-08 0.0062680053 -1.2414928e-05 0.0062686068)
(0.0060619232 0.00014674725 -8.1403779e-08 0.0062540189 -1.1082075e-05 0.0062545425)
(0.0060489855 0.00014703279 -3.2741769e-07 0.0062399538 7.4015594e-08 0.0062404545)
(0.006038298 0.0001469233 -2.7447284e-07 0.0062260696 1.0436876e-05 0.0062266447)
(0.0060291404 0.00014784083 6.1880801e-08 0.0062125081 5.3307339e-06 0.0062134031)
(0.0060209156 0.00015184057 3.1296338e-07 0.0061995513 -6.0943355e-06 0.0062008812)
(0.0060134999 0.00015986126 3.0865294e-07 0.0061873288 -1.4634486e-05 0.0061889097)
(0.0060070869 0.00017018382 6.4530915e-08 0.0061758764 -1.7666373e-05 0.0061771029)
(0.0060021016 0.00017694929 -2.869476e-07 0.0061649407 -6.5463336e-06 0.0061651373)
(0.005998695 0.00017381891 -4.4938025e-07 0.0061541917 8.0045538e-06 0.0061531017)
(0.0059966088 0.00015911997 -3.4813945e-07 0.0061431398 1.6298181e-05 0.0061416036)
(0.0059947004 0.00014160662 -1.7556355e-07 0.0061315756 1.8853219e-05 0.0061319145)
(0.0059914822 0.00014509187 -6.5901215e-08 0.0061202562 1.853793e-05 0.006124737)
(0.0059883207 0.00019112445 -7.5789668e-08 0.0061110893 1.8687025e-05 0.0061169346)
(0.0059924993 0.00024089733 -2.0643124e-07 0.0061042415 2.2179046e-05 0.0061010242)
(0.006011987 0.00018175124 -3.9111206e-07 0.0060948614 3.0113313e-05 0.0060733012)
(0.0060470929 -6.0553755e-05 -5.2478109e-07 0.0060762533 4.0905367e-05 0.006040733)
(0.0060918214 -0.00044311289 -5.6879932e-07 0.0060484524 5.1567598e-05 0.006011597)
(0.0061438131 -0.00088506196 -5.9135467e-07 0.0060171904 6.1246897e-05 0.0059846236)
(0.0062054311 -0.0013585984 -6.1429677e-07 0.005985661 7.1763703e-05 0.0059559729)
(0.0062879706 -0.0018427797 -6.091831e-07 0.0059461917 8.3349991e-05 0.0059240747)
(0.0064029388 -0.0022953964 -5.8504368e-07 0.0059034045 9.0822333e-05 0.0058710161)
(0.0065738001 -0.0026903465 -4.6531001e-07 0.0058587702 9.2235035e-05 0.0057707513)
(0.0068383507 -0.002954618 -8.0841818e-07 0.0057442339 9.2100985e-05 0.0056576029)
(0.0069694253 -0.0028128599 -9.9568052e-07 0.0056817371 9.7271329e-05 0.0056481049)
(0.0071823533 -0.0027172883 -4.624423e-07 0.0056374753 0.00011176305 0.0055551352)
(0.007247919 -0.0027520112 -5.7107873e-06 0.0057585786 6.7270041e-05 0.0056531042)
(0.00820661 -0.0020821586 1.1293882e-05 0.0050562112 0.0003319463 0.0048923386)
(0.0076465766 -0.0035333974 -2.6564658e-05 0.0075847498 -0.00045940695 0.0077662715)
(0.0070300349 0.003759064 0.00021948302 -0.00076273218 0.0019349386 -0.00052319692)
(1.0471643 0.06935148 0.0009991325 0.61799789 -0.26675401 0.64383605)
(1.3989873 -0.44879284 -0.030078125 1.1774279 0.40590573 1.4344162)
(0.0063218146 0.00016790134 -4.7430549e-08 0.0063283981 2.9293473e-07 0.0063293747)
(0.006251053 0.00017306377 1.0565909e-07 0.0063278554 -3.3372018e-06 0.0063292186)
(0.0062027775 0.00017554441 1.8395529e-07 0.0063193755 -8.6681203e-06 0.0063203689)
(0.0061628403 0.00017840495 9.46394e-08 0.0063092607 -9.7418145e-06 0.0063100818)
(0.0061292602 0.00018083096 -5.0149931e-08 0.0062983596 -6.4888359e-06 0.0062990798)
(0.0061029777 0.00018269759 -6.1580449e-08 0.0062859542 -4.0383671e-06 0.0062866369)
(0.0060826405 0.00018417859 3.6818564e-08 0.0062725022 -6.0586289e-06 0.0062731225)
(0.0060665307 0.00018514723 3.6177002e-08 0.0062586367 -7.058507e-06 0.0062591206)
(0.0060535841 0.00018557577 -1.0453142e-07 0.006244627 -3.086514e-06 0.0062450635)
(0.0060429333 0.00018555156 -2.0609366e-07 0.0062307372 3.1647994e-06 0.0062312537)
(0.006033828 0.00018577832 -1.0418636e-07 0.006217207 4.1216515e-06 0.0062179324)
(0.0060258353 0.00018767145 9.667285e-08 0.0062040887 -6.9493786e-07 0.0062053071)
(0.0060186211 0.00019246508 1.8889205e-07 0.0061916872 -6.424683e-06 0.0061932541)
(0.0060121956 0.00019973943 1.4543174e-07 0.0061801269 -9.6756893e-06 0.0061814927)
(0.0060067947 0.00020624772 -2.8361444e-08 0.0061693379 -6.895711e-06 0.0061697158)
(0.0060027832 0.00020731602 -2.1453411e-07 0.0061588257 6.9516021e-07 0.0061579548)
(0.006000169 0.00019985085 -2.4862191e-07 0.00614812 7.0508112e-06 0.0061465432)
(0.0059985589 0.00018689505 -1.741049e-07 0.0061365945 1.0138281e-05 0.006136415)
(0.0059969672 0.0001822956 -8.9308345e-08 0.0061244964 1.0832489e-05 0.0061282696)
(0.0059952907 0.00020527178 -5.8456735e-08 0.0061140671 1.1004916e-05 0.0061200748)
(0.0059971571 0.000244717 -1.1179945e-07 0.0061073635 1.2677901e-05 0.0061061554)
(0.0060088915 0.00023173732 -2.3083219e-07 0.0061014717 1.7185436e-05 0.0060826164)
(0.0060341743 9.5992664e-05 -3.5002433e-07 0.0060893128 2.4155226e-05 0.0060531121)
(0.0060718711 -0.0001645409 -4.1898465e-07 0.006067311 3.1844028e-05 0.0060241265)
(0.0061204023 -0.0005044898 -4.5617645e-07 0.0060384496 3.9221634e-05 0.0059962195)
(0.006180582 -0.00089535092 -4.7171708e-07 0.0060060519 4.702338e-05 0.0059669817)
(0.0062619325 -0.0013051504 -4.9511989e-07 0.0059657009 5.508513e-05 0.0059332722)
(0.0063877894 -0.0017443854 -5.595201e-07 0.0059010026 6.2601421e-05 0.0058874808)
(0.0065541384 -0.0022473402 -5.480683e-07 0.0058435717 6.8590615e-05 0.0058018899)
(0.0067954875 -0.002698875 -6.6387226e-07 0.0057904374 7.0483414e-05 0.0056481599)
(0.0070460127 -0.0027935093 -3.408019e-07 0.0056779771 7.4401672e-05 0.0055637901)
(0.0073205754 -0.0026690912 -6.7597244e-07 0.0055384869 7.7552316e-05 0.0054914511)
(0.0073295809 -0.0027204382 -1.5393364e-06 0.0056951307 3.895807e-05 0.0056030042)
(0.0085855132 -0.0016787787 -8.8625739e-07 0.0048872792 0.00026221605 0.0045862904)
(0.0078542812 -0.0035309714 1.9179119e-05 0.0073329352 -0.00024759267 0.0077163116)
(0.0040130118 0.0020930023 5.0359382e-05 0.0011514993 0.00027643145 0.0013157558)
(0.93585701 -0.23663478 0.0014432158 0.62056673 -0.16114478 0.59612506)
(1.3700347 -0.61121215 -0.0077645223 1.2558343 0.092515206 1.3899228)
(0.0063277119 0.00022121584 -6.406505e-08 0.0063337689 6.6924944e-07 0.0063343158)
(0.0062568213 0.00022255448 -3.6142968e-09 0.0063332576 3.214591e-08 0.0063344221)
(0.0062086543 0.00022293806 9.0883287e-08 0.0063250308 -2.7399146e-06 0.0063258703)
(0.0061689405 0.00022453956 1.1322224e-07 0.0063151318 -4.8685061e-06 0.0063158911)
(0.0061355162 0.00022613161 3.2875462e-08 0.0063044148 -4.5126217e-06 0.0063051415)
(0.0061093046 0.00022736266 -3.6332823e-08 0.006292196 -2.7998241e-06 0.006292855)
(0.0060889987 0.00022836795 3.7959842e-10 0.0062788791 -2.8479863e-06 0.0062794478)
(0.0060729251 0.00022909716 5.6555023e-08 0.0062650547 -4.0360503e-06 0.0062655486)
(0.0060599581 0.00022941593 1.3472013e-08 0.006251122 -3.5228726e-06 0.006251536)
(0.0060492877 0.0002292972 -1.0214376e-07 0.006237296 -5.6679048e-07 0.0062377213)
(0.006040252 0.00022914076 -1.3297178e-07 0.0062237252 1.9976702e-06 0.0062243694)
(0.0060323572 0.00022957787 -3.2081634e-08 0.0062105894 1.1580145e-06 0.0062116184)
(0.0060252903 0.00023172124 7.2604445e-08 0.0061980657 -1.8284608e-06 0.006199459)
(0.0060189284 0.00023595245 1.2683324e-07 0.0061863411 -4.4694346e-06 0.0061876929)
(0.0060133774 0.00024098218 8.4687541e-08 0.0061754253 -5.2460424e-06 0.0061760751)
(0.0060088918 0.0002439372 -4.5071499e-08 0.006165062 -2.4072216e-06 0.0061645076)
(0.0060057313 0.00024178912 -1.3295167e-07 0.0061546616 1.5826531e-06 0.0061532031)
(0.0060039758 0.00023402215 -1.352543e-07 0.0061434396 4.4185885e-06 0.0061427739)
(0.00600324 0.00022669443 -9.1962601e-08 0.0061311463 5.6892587e-06 0.0061338059)
(0.006002955 0.00023334313 -5.2869124e-08 0.0061196574 6.0952104e-06 0.0061250636)
(0.0060042735 0.00025796188 -5.7068748e-08 0.006111952 6.8317478e-06 0.0061124544)
(0.0060112987 0.00026815918 -1.1685012e-07 0.0061071024 9.0763082e-06 0.0060924403)
(0.0060286066 0.00021054054 -2.0434802e-07 0.0060992433 1.3150399e-05 0.0060663422)
(0.0060583327 5.9639973e-05 -2.7695895e-07 0.0060832667 1.8292698e-05 0.0060383575)
(0.0061010161 -0.0001702615 -3.2388317e-07 0.0060590641 2.3647727e-05 0.0060097199)
(0.0061577821 -0.00045906731 -3.4246545e-07 0.0060282577 2.9292663e-05 0.0059793078)
(0.0062357901 -0.00077629503 -3.6915415e-07 0.0059887213 3.4894669e-05 0.005943933)
(0.0063543318 -0.0011452213 -4.5092028e-07 0.0059307426 4.1108845e-05 0.0058941207)
(0.0065311903 -0.0016304637 -5.09267e-07 0.0058448318 4.7883056e-05 0.0058221797)
(0.0067665853 -0.0021882504 -5.9702318e-07 0.0057677898 5.2466705e-05 0.0056941278)
(0.007103958 -0.0027107495 5.2785481e-08 0.005696601 6.1231327e-05 0.0054771058)
(0.0074583522 -0.0026133909 -1.1903323e-06 0.0054987351 5.1257802e-05 0.0053713404)
(0.0074363656 -0.002677196 2.3147948e-06 0.0056046262 3.4003617e-05 0.0055547398)
(0.0088722086 -0.0012295965 -1.168268e-05 0.0048035389 0.00012259994 0.0043159123)
(0.0080759704 -0.0034640179 2.4076046e-05 0.0069709071 -1.5905538e-05 0.0075863926)
(0.0061161323 0.0037857117 6.02183e-05 0.00045489584 -0.0001248653 0.00041587344)
(0.78499031 -0.2869562 0.0013705856 0.59557235 -0.058777977 0.57143479)
(1.3720223 -0.61995132 -0.0015967966 1.2774764 -0.021882197 1.3674677)
(0.0063344254 0.00028019376 -4.0577862e-08 0.0063416749 4.0328908e-07 0.0063414275)
(0.0062644423 0.00027930422 -4.2274393e-08 0.0063408281 8.7629596e-07 0.0063417861)
(0.0062166138 0.00027778088 1.378024e-08 0.0063328947 2.2034944e-08 0.0063336268)
(0.0061772108 0.00027804348 7.2942196e-08 0.0063232978 -1.6354232e-06 0.0063239978)
(0.0061439992 0.00027850359 6.1005378e-08 0.0063128444 -2.5228785e-06 0.0063135286)
(0.0061179213 0.00027883475 1.7426048e-09 0.0063008218 -1.9482416e-06 0.0063014527)
(0.0060977019 0.00027911231 -9.3998923e-09 0.006287636 -1.4016279e-06 0.0062881911)
(0.0060816718 0.00027925396 3.6876559e-08 0.0062739085 -2.0092307e-06 0.0062743875)
(0.0060687173 0.00027923689 5.1519823e-08 0.0062600343 -2.6528855e-06 0.0062604382)
(0.0060580437 0.00027894351 -1.6482056e-08 0.0062462504 -1.8606709e-06 0.0062466391)
(0.0060490123 0.00027843555 -8.9005319e-08 0.0062327118 1.6141116e-07 0.0062332475)