0 	0.05704781775 	-3.874397318e-15 	-1.408240878e-21 	2.63129339e-28 	9.564055026e-35 	3.476280862e-41
0.001897455474 	0.05707025897 	-0.0002029280958 	-4.174606746e-07 	0.06691926035 	-3.840388773e-05 	0.0001275667095
0.003794892374 	0.05709482689 	-0.0007918204656 	2.407643437e-07 	0.06751169855 	-3.911549826e-05 	0.0001286960613
0.005692310628 	0.05711534706 	-0.001234879054 	5.08863334e-07 	0.06758741705 	-3.863630981e-05 	0.0001288404019
0.007589710222 	0.0571546061 	-0.001654153492 	7.023612803e-07 	0.06766638731 	-3.81639725e-05 	0.0001289909411
0.009487091198 	0.05720908323 	-0.002125743472 	8.959179475e-07 	0.06772408599 	-3.760448504e-05 	0.0001291009308
0.01240800929 	0.05729857844 	-0.002728646302 	1.126900165e-06 	0.06781540998 	-3.67393459e-05 	0.0001292750197
0.01570810102 	0.05743402596 	-0.00345055004 	1.395437815e-06 	0.06796036974 	-3.580661809e-05 	0.0001295513533
0.01943658229 	0.05762451206 	-0.004267009644 	1.682920961e-06 	0.06816128913 	-3.478814815e-05 	0.0001299343615
0.02367094077 	0.05788703713 	-0.00518870184 	1.981648494e-06 	0.06843655213 	-3.365935259e-05 	0.0001304590893
0.02846027043 	0.05824212444 	-0.006226889708 	2.286927241e-06 	0.06880745671 	-3.243073915e-05 	0.0001311661365
0.03387129226 	0.05871466306 	-0.007394797146 	2.595000414e-06 	0.06929994271 	-3.109837593e-05 	0.0001321049517
0.03998469373 	0.05933568059 	-0.008707635105 	2.897441841e-06 	0.06994557321 	-2.964950916e-05 	0.0001333357029
0.04692959072 	0.06014204362 	-0.01018291641 	3.18090154e-06 	0.07078117907 	-2.804209475e-05 	0.0001349285999
0.05477825357 	0.06117393272 	-0.01183207788 	3.42773088e-06 	0.07184887875 	-2.627957759e-05 	0.0001369639323
0.06366252918 	0.06261020621 	-0.01384345514 	3.667705962e-06 	0.07332810609 	-2.437389563e-05 	0.0001397837507
0.07713370694 	0.06465288843 	-0.01637441125 	3.730435637e-06 	0.07541403856 	-2.134088016e-05 	0.0001437601177
0.09161486344 	0.06717690135 	-0.01918323845 	3.627158766e-06 	0.07795826111 	-1.808470993e-05 	0.000148610113
0.1071709409 	0.06997109864 	-0.02204662798 	3.267540481e-06 	0.08071898771 	-1.445181688e-05 	0.0001538728253
0.1238870721 	0.07288587508 	-0.02489394123 	2.603818253e-06 	0.08348942945 	-1.038529965e-05 	0.0001591540572
0.1418521582 	0.07566873777 	-0.02760037301 	1.636999302e-06 	0.08593969391 	-5.888374533e-06 	0.0001638249423
0.1611593353 	0.07786708789 	-0.03008648005 	3.620429129e-07 	0.08747683216 	-1.169900974e-06 	0.000166755155
0.1663236545 	0.07814646591 	-0.03058853947 	2.054744146e-05 	0.08749778116 	-0.0001226821259 	0.0001667950896
0.1819064892 	0.07899158896 	-0.03210716245 	1.253626755e-06 	0.0875656776 	-3.730663825e-06 	0.0001669245191
0.2041968131 	0.07841634931 	-0.03323752715 	2.947894186e-06 	0.08562023936 	-7.90951091e-06 	0.0001632159731
0.2281394077 	0.07513422551 	-0.03299048713 	4.183363303e-06 	0.08067146047 	-1.017022455e-05 	0.0001537822251
0.2538499191 	0.0678768681 	-0.03064968806 	4.102216963e-06 	0.07158408151 	-9.150770449e-06 	0.0001364591551
0.2814521981 	0.0554047757 	-0.02539864721 	1.866388708e-06 	0.05737912432 	-4.152864962e-06 	0.0001093805587
0.3110878587 	0.03783685936 	-0.01699405754 	-1.329253686e-06 	0.03857579899 	2.300631677e-06 	7.353619446e-05
0.3428858929 	0.02028830738 	-0.008240813521 	-1.966884047e-06 	0.02044852004 	3.976871453e-06 	3.898056256e-05
0.3770024796 	0.01030897798 	-0.00310520213 	-4.163485646e-07 	0.01022073908 	1.138838342e-06 	1.94835694e-05
0.4135933852 	0.00762997502 	-0.001205604561 	5.47321539e-07 	0.007376980796 	-3.030168121e-07 	1.406257572e-05
0.4528269635 	0.007367757396 	-0.0003317102843 	1.045697532e-06 	0.007000988912 	-1.811386758e-07 	1.334583069e-05
0.4948837842 	0.007706203199 	0.0002693838728 	1.292254823e-06 	0.007237077395 	8.080849534e-08 	1.379588096e-05
0.5369652409 	0.00823512659 	0.0008547993034 	1.368791536e-06 	0.007686738176 	3.096288993e-07 	1.465305938e-05
0.5762689992 	0.008812257927 	0.001407723069 	1.385029766e-06 	0.008207473534 	4.971701199e-07 	1.56457257e-05
0.6129728545 	0.009373254197 	0.001915348886 	1.344850856e-06 	0.008738873671 	6.522625349e-07 	1.665872206e-05
0.647245611 	0.00990019002 	0.002380054586 	1.26439539e-06 	0.009265104068 	7.683834001e-07 	1.766186346e-05
0.6792465651 	0.0104014321 	0.002809138507 	1.182057681e-06 	0.009791713571 	8.659696344e-07 	1.866572753e-05
0.7091254687 	0.01090217709 	0.003216188903 	1.123327678e-06 	0.01033760403 	9.7304718e-07 	1.970634647e-05
0.7370223283 	0.01143687399 	0.003617911562 	1.07914802e-06 	0.01093188478 	1.116233523e-06 	2.083921075e-05
0.7630684005 	0.01204460824 	0.004028319272 	1.00864459e-06 	0.01161171125 	1.2800657e-06 	2.213514895e-05
0.7873862966 	0.01277058136 	0.004486916723 	9.742634685e-07 	0.01242422898 	1.470404159e-06 	2.368403358e-05
0.8100905866 	0.0136540067 	0.00494033583 	6.51787394e-07 	0.01340362771 	1.612737186e-06 	2.555103976e-05
0.8312882979 	0.01477156063 	0.005384548993 	4.176296666e-07 	0.01461680134 	1.872890658e-06 	2.786368589e-05
0.8510793781 	0.01622722315 	0.005934897499 	6.46005645e-07 	0.01616572912 	2.404676678e-06 	3.081637274e-05
0.8695571553 	0.01806183881 	0.006623545189 	9.106441453e-07 	0.01809190449 	3.062468527e-06 	3.448819834e-05
0.8868087717 	0.02022392684 	0.007431862262 	1.151109668e-06 	0.0203453806 	3.687459648e-06 	3.878395012e-05
0.9029155904 	0.02255209679 	0.008301578967 	1.241075533e-06 	0.02276946718 	3.922896953e-06 	4.340493288e-05
0.9179535776 	0.02474509526 	0.00912334706 	1.023288766e-06 	0.02507005412 	3.326677774e-06 	4.779049101e-05
0.931993659 	0.02626777891 	0.009699888307 	4.763418601e-07 	0.02670448262 	1.822935958e-06 	5.0906166e-05
0.9412842046 	0.02686166245 	0.009933229112 	-1.896850721e-07 	0.02739389199 	-2.01927723e-08 	5.222037188e-05
0.9495071555 	0.02671003613 	0.009889977687 	-8.178388173e-07 	0.02731784791 	-1.77243138e-06 	5.207541071e-05
0.9567851912 	0.02595310708 	0.009622041576 	-1.355647084e-06 	0.02661954642 	-3.29023942e-06 	5.0744254e-05
0.9632268937 	0.02471233001 	0.009173379577 	-1.732929285e-06 	0.02541762721 	-4.379216506e-06 	4.845306193e-05
0.9689283675 	0.02313052338 	0.008595965358 	-1.918084757e-06 	0.02385234189 	-4.950723544e-06 	4.546919305e-05
0.973974674 	0.02134051571 	0.007938223943 	-1.91562051e-06 	0.02205442864 	-5.016372629e-06 	4.20418707e-05
0.9784410995 	0.01943371682 	0.007233392035 	-1.758107588e-06 	0.02011332186 	-4.663301833e-06 	3.834158168e-05
0.9823942794 	0.01742742075 	0.006487568239 	-1.491897651e-06 	0.0180444087 	-4.011096473e-06 	3.439765816e-05
0.9858931917 	0.01522195392 	0.005664334929 	-1.162335877e-06 	0.01574839556 	-3.170413244e-06 	3.002081898e-05
0.9889900372 	0.01270353529 	0.004723118658 	-8.369555102e-07 	0.01311352611 	-2.30845544e-06 	2.499802548e-05
0.991001674 	0.00986927053 	0.003669329884 	-5.599721526e-07 	0.01015877736 	-1.570227301e-06 	1.936545313e-05
0.9930133109 	0.006058381101 	0.002154803786 	-2.104353125e-07 	0.006211405887 	-8.107353391e-07 	1.184066599e-05
0.9950249478 	0.00202599564 	0.0006149255205 	8.35340848e-09 	0.00206237374 	-2.094574728e-07 	3.931457555e-06
0.9970365847 	0.0001582005004 	1.907551021e-05 	2.325891226e-09 	0.0001583194925 	-1.817042039e-08 	3.018009554e-07
0.9990482216 	1.125105913e-06 	1.179364429e-08 	3.056935914e-12 	1.122966103e-06 	-1.326270669e-10 	2.140685505e-09
0.9990482216 	1.125105913e-06 	1.179364429e-08 	3.056935914e-12 	1.122966103e-06 	-1.326270669e-10 	2.140685505e-09
