1.218267812e-35 	1.173401547 	-7.975545394e-14 	2.765130151e-18
0.00190503019 	1.173433992 	-0.0003630735203 	4.477080052e-07
0.003810043283 	1.173567693 	-0.000673157169 	8.189597981e-07
0.005715039211 	1.173827551 	-0.0009925015556 	1.187686222e-06
0.007620017961 	1.174197548 	-0.0013178959 	1.552402576e-06
0.009524979574 	1.17475388 	-0.001691292146 	1.960920867e-06
0.01245757067 	1.175669556 	-0.00216975926 	2.454087687e-06
0.01577085506 	1.177056426 	-0.002740176539 	3.012423788e-06
0.01951424692 	1.179013987 	-0.003384391169 	3.602055254e-06
0.02376371923 	1.181726837 	-0.004112265647 	4.21626541e-06
0.02856971015 	1.185426037 	-0.004932712355 	4.844314042e-06
0.03399956521 	1.19040318 	-0.00585497665 	5.470596394e-06
0.04013425608 	1.197041676 	-0.006891055747 	6.076336782e-06
0.04710020392 	1.205832032 	-0.008053097465 	6.631480488e-06
0.05497248355 	1.217375824 	-0.009350403534 	7.102697257e-06
0.06388212204 	1.234029969 	-0.01093672925 	7.544330366e-06
0.07738804933 	1.25907558 	-0.01292400975 	7.594971338e-06
0.09190225286 	1.292599428 	-0.01511012983 	7.304776e-06
0.1074900975 	1.334075391 	-0.01732908133 	6.536672926e-06
0.1242359314 	1.384588635 	-0.01955228569 	5.259322054e-06
0.1422279963 	1.445342601 	-0.02170375804 	3.441342648e-06
0.1615588878 	1.517580329 	-0.02367039163 	1.102820843e-06
0.1701363888 	1.552655643 	-0.02438237075 	2.494487358e-05
0.1823260612 	1.602522396 	-0.02540474341 	2.028118069e-06
0.2046323802 	1.701660936 	-0.02679584983 	5.825010373e-06
0.2285867053 	1.816722008 	-0.02761949837 	9.845401761e-06
0.254304522 	1.949292195 	-0.02764359216 	1.376924109e-05
0.2819095097 	2.1001673 	-0.02660119344 	1.714064534e-05
0.3115423872 	2.26705238 	-0.02418113119 	1.954244435e-05
0.3433329903 	2.433453401 	-0.02058242814 	2.179183279e-05
0.37743697 	2.552206653 	-0.01714716235 	2.433401245e-05
0.414010442 	2.600967592 	-0.01488471398 	2.573436609e-05
0.4532220137 	2.610753908 	-0.01318961715 	2.579805554e-05
0.4952525067 	2.606229021 	-0.01151912136 	2.513265998e-05
0.5373056793 	2.593596898 	-0.009979862365 	2.391507784e-05
0.5765818555 	2.576064342 	-0.008596725005 	2.242810973e-05
0.6132593029 	2.555590506 	-0.00736689664 	2.082594559e-05
0.6475070436 	2.532972527 	-0.006259831219 	1.919694801e-05
0.679484443 	2.50840679 	-0.005252744647 	1.758805164e-05
0.7093412355 	2.481776414 	-0.004326045866 	1.60330015e-05
0.7372173963 	2.452801429 	-0.0034656215 	1.4514614e-05
0.7632441099 	2.42111673 	-0.002669465947 	1.305010542e-05
0.7875439148 	2.386034135 	-0.001923498608 	1.16717446e-05
0.8102313055 	2.345847336 	-0.001204760978 	1.036014992e-05
0.8314132346 	2.297626461 	-0.000485148884 	9.154929729e-06
0.8511895776 	2.238024065 	0.0002648795372 	8.033651389e-06
0.8696535944 	2.164222637 	0.001044599922 	6.932141037e-06
0.8868923629 	2.074605041 	0.001830414796 	5.821424495e-06
0.9029871861 	1.969203549 	0.002575843336 	4.636570773e-06
0.9180139737 	1.849835874 	0.003210598916 	3.331320789e-06
0.9320435986 	1.729203664 	0.003611399072 	2.041063523e-06
0.941327225 	1.625249499 	0.003738525669 	9.921312037e-07
0.9495440518 	1.53586085 	0.003673455418 	1.791996378e-07
0.9568166671 	1.453653529 	0.003466804143 	-4.623091107e-07
0.963253572 	1.378813799 	0.003151090665 	-9.222876174e-07
0.9689507996 	1.310662088 	0.002760602926 	-1.206957136e-06
0.9739933478 	1.247671 	0.00232851154 	-1.334428215e-06
0.9784564469 	1.18732863 	0.001882938781 	-1.331138266e-06
0.9824066826 	1.125751747 	0.001442146555 	-1.228160918e-06
0.985902989 	1.056745947 	0.001020718634 	-1.050020371e-06
0.9889975281 	0.9758742587 	0.0006527766838 	-8.290281442e-07
0.9910076668 	0.8822886292 	0.000513731757 	-6.497219696e-07
0.9930178055 	0.7522220603 	0.0006331305413 	-4.725798227e-07
0.9950279442 	0.5486862095 	0.0003008640564 	-1.750338564e-07
0.9970380829 	0.2825891924 	-0.0002248349032 	-6.291450132e-09
0.9990482216 	0.07994871687 	-0.0001850204196 	-1.259178004e-08
0.9990482216 	0.07994871687 	-0.0001850204196 	-1.259178004e-08
