0.3440231802 	2.56845166e-07 	6.508828054e-10 	-1.605450215e-12 	2.556260949e-07 	-9.482928877e-10 	4.872943845e-10
0.3453619003 	2.613598945e-05 	1.955323014e-07 	1.480140936e-09 	2.581773643e-05 	-8.780924696e-08 	4.921578131e-08
0.346700708 	0.0003280813518 	-9.999985585e-06 	1.669513823e-07 	0.000333801935 	-1.143995252e-06 	6.363192636e-07
0.348039379 	0.001482390491 	-0.0001971894259 	1.835164477e-06 	0.001644316431 	-5.69400084e-06 	3.134524132e-06
0.3493776909 	0.003619285792 	-0.0008742339663 	6.046815963e-06 	0.004374346026 	-1.414326903e-05 	8.338719312e-06
0.3507154234 	0.006491872785 	-0.002098249916 	1.065969636e-05 	0.008296059955 	-2.347808766e-05 	1.581459605e-05
0.3527731822 	0.01000811533 	-0.003701811294 	1.341926222e-05 	0.01309363516 	-3.153965404e-05 	2.496010781e-05
0.3550948411 	0.01388071142 	-0.005373565507 	1.461337846e-05 	0.0181738069 	-3.75346308e-05 	3.46443271e-05
0.3577124116 	0.01787240106 	-0.006988413023 	1.423816125e-05 	0.02320561388 	-3.978550404e-05 	4.423634973e-05
0.3606824659 	0.02185928095 	-0.00859593793 	1.292079186e-05 	0.02811618609 	-3.729186526e-05 	5.359726518e-05
0.3640355815 	0.02557976785 	-0.01009567058 	1.0694665e-05 	0.03256020085 	-2.882317035e-05 	6.206879245e-05
0.3678149006 	0.02869711696 	-0.01140085844 	6.59573872e-06 	0.03614893717 	-1.383025044e-05 	6.890992131e-05
0.3720736319 	0.03085275778 	-0.01240089231 	8.053794726e-07 	0.03846254031 	5.704423518e-06 	7.332029193e-05
0.3769056112 	0.03169844819 	-0.01296080766 	-5.968766468e-06 	0.03909940596 	2.642681773e-05 	7.453433487e-05
0.3823489685 	0.03100096483 	-0.01295200476 	-1.273099332e-05 	0.03781306008 	4.42272541e-05 	7.208220211e-05
0.3884922639 	0.02838763275 	-0.01214997367 	-1.859674939e-05 	0.03416353539 	5.577456676e-05 	6.512519372e-05
0.3977735322 	0.02393469256 	-0.01043510633 	-1.856557476e-05 	0.02821075882 	4.893632472e-05 	5.377754709e-05
0.4077064413 	0.01942701928 	-0.008398413059 	-1.231103481e-05 	0.02217246651 	2.835041416e-05 	4.226688368e-05
0.4183256322 	0.01647163147 	-0.006710999314 	-3.857744901e-06 	0.01810267279 	7.752984219e-06 	3.450872572e-05
0.4261058455 	0.01554071881 	-0.005982321894 	1.495193585e-05 	0.01673164892 	-2.990088791e-05 	3.189517316e-05
0.4296566751 	0.01517090077 	-0.005684887908 	-8.629779216e-08 	0.01617739886 	1.365949608e-07 	3.083861851e-05
0.441725473 	0.01461059201 	-0.005211426464 	-1.024080251e-06 	0.01517895623 	3.175316952e-06 	2.893530934e-05
0.4546437824 	0.0134779749 	-0.004732922332 	-3.387057979e-06 	0.01365950562 	9.319581468e-06 	2.603881418e-05
0.4684694852 	0.01127153422 	-0.003864510562 	-5.347120828e-06 	0.01109532272 	1.256447916e-05 	2.115076888e-05
0.483263504 	0.009181931081 	-0.002693656222 	-4.353122812e-06 	0.008197267652 	8.064219518e-06 	1.562627046e-05
0.4990904661 	0.008142121324 	-0.001543105636 	-1.045788935e-06 	0.006198481276 	3.407247177e-07 	1.181602809e-05
0.5160194649 	0.008271651456 	-0.000930329121 	1.683890204e-06 	0.005698826865 	-1.486899414e-06 	1.086354791e-05
0.534125736 	0.008860410382 	-0.0008612848289 	3.993188612e-07 	0.005902804838 	1.798776308e-06 	1.125238662e-05
0.5534985534 	0.00923196623 	-0.000835857864 	-3.79971681e-06 	0.006027056282 	4.658624401e-06 	1.148924441e-05
0.5742165405 	0.00958074147 	-0.0007168407421 	-5.888447738e-06 	0.006160815127 	5.608553565e-06 	1.174422594e-05
0.5963809076 	0.009735299115 	-0.0005902545416 	-5.82150642e-06 	0.006572596012 	5.633419163e-06 	1.252919476e-05
0.6200931186 	0.01006162793 	-0.0001838850847 	-3.824082883e-06 	0.007183634387 	2.893581184e-06 	1.369400373e-05
0.6454657031 	0.01088527407 	0.0008017139251 	-1.743077039e-07 	0.007521904175 	-1.251191928e-06 	1.433883996e-05
0.6726223762 	0.01137347533 	0.001243582146 	2.321253516e-06 	0.007739465 	-1.38485024e-06 	1.475357136e-05
0.6997690552 	0.01155284986 	0.0008320110367 	1.354049067e-06 	0.008335264957 	5.961443637e-07 	1.588933167e-05
0.7251139532 	0.01204032279 	0.0009702535488 	1.452101821e-07 	0.008941117384 	1.22384196e-06 	1.704425479e-05
0.7487832758 	0.01265068728 	0.001785315377 	-1.752917971e-07 	0.009255824279 	6.17917666e-07 	1.76441736e-05
0.7708923052 	0.01321647838 	0.002637058248 	-2.474868776e-07 	0.00956716463 	3.565611288e-08 	1.823767484e-05
0.7915468462 	0.01370179729 	0.003262328781 	-1.669953738e-07 	0.009965365502 	-1.099564173e-07 	1.899675638e-05
0.8108444999 	0.01411427149 	0.003713706114 	-6.870047383e-08 	0.01047682109 	-7.248857815e-08 	1.997173287e-05
0.8288752071 	0.01451821633 	0.004108581355 	-2.624534354e-08 	0.01111499692 	-4.907826517e-08 	2.118827339e-05
0.8457226162 	0.01497639616 	0.004523135067 	-2.641945625e-08 	0.01190275332 	-7.122907043e-08 	2.268995602e-05
0.8614643852 	0.01552779134 	0.004942215644 	-3.383506197e-08 	0.01286195703 	-1.020015778e-07 	2.451846489e-05
0.8761728768 	0.01623547771 	0.005363532192 	-3.949349475e-08 	0.01399375531 	-1.115552115e-07 	2.667598698e-05
0.8899155937 	0.01715481228 	0.005825018243 	-3.52534017e-08 	0.01527939609 	-9.52564294e-08 	2.912677563e-05
0.9027555604 	0.01826592477 	0.006323455639 	-2.45333376e-08 	0.0166869385 	-6.332216795e-08 	3.180994267e-05
0.9147516662 	0.01950662925 	0.006846100489 	-1.165437031e-08 	0.01816827651 	-2.794172305e-08 	3.463378464e-05
0.9259589634 	0.02080073463 	0.0073738653 	-1.17538467e-09 	0.01966699642 	-5.553327895e-10 	3.749076133e-05
0.9364289334 	0.02208084955 	0.007888170765 	2.464168388e-09 	0.02113215046 	7.648695628e-09 	4.028375216e-05
0.9418620584 	0.02275440384 	0.008157546373 	7.727466832e-06 	0.02190374071 	2.242712342e-05 	4.175461763e-05
0.9462086608 	0.02329338935 	0.008373099214 	4.439504444e-09 	0.02252116186 	1.315962876e-08 	4.293159393e-05
0.9553436498 	0.02431134059 	0.00878105924 	2.749099698e-08 	0.02369881835 	7.813756006e-08 	4.517653453e-05
0.961391458 	0.02504524987 	0.00907832498 	5.73069004e-08 	0.02456785943 	1.606902121e-07 	4.683316835e-05
0.9667463238 	0.02555382295 	0.009289841703 	8.92217242e-08 	0.02520045591 	2.489650375e-07 	4.803907307e-05
0.971487438 	0.02584389588 	0.009420128852 	1.153254408e-07 	0.02561223939 	3.216334079e-07 	4.882404682e-05
0.9756849854 	0.02583432444 	0.009439445396 	1.259132884e-07 	0.02572129326 	3.523257845e-07 	4.903193382e-05
0.9794011587 	0.02543975491 	0.009316305015 	1.15113741e-07 	0.02544047995 	3.246507871e-07 	4.849662561e-05
0.9826910629 	0.02458288529 	0.009021890098 	8.467163082e-08 	0.02468938581 	2.427587453e-07 	4.706483141e-05
0.9856035161 	0.02319325187 	0.008529521486 	4.467527897e-08 	0.02339236081 	1.337676224e-07 	4.459234127e-05
0.9881817623 	0.0211818644 	0.007805160861 	1.122180012e-08 	0.02145087228 	4.172037679e-08 	4.089132453e-05
0.9904641044 	0.0183767793 	0.006784000552 	3.691965709e-09 	0.01867959109 	2.057745019e-08 	3.560849235e-05
0.9924844658 	0.0147315959 	0.005451209729 	2.778342544e-08 	0.01501237629 	9.489264108e-08 	2.861776168e-05
0.993796989 	0.01057923052 	0.003920582857 	7.336500927e-08 	0.01079823601 	2.149200528e-07 	2.058443906e-05
0.9951096262 	0.005707443218 	0.00196303432 	8.827480546e-08 	0.005814759184 	2.465235535e-07 	1.108454713e-05
0.9964223774 	0.001620947322 	0.0004111875664 	3.933653824e-08 	0.001635457978 	1.170235966e-07 	3.117637457e-06
0.9977352425 	0.000135559637 	1.162279618e-05 	1.046781773e-09 	0.0001354349388 	7.474309719e-09 	2.581766355e-07
0.9990482216 	1.439235537e-06 	1.111196591e-08 	-3.273426072e-13 	1.436436941e-06 	-3.522716778e-11 	2.738248047e-09
0.9990482216 	1.439235537e-06 	1.111196591e-08 	-3.273426072e-13 	1.436436941e-06 	-3.522716778e-11 	2.738248047e-09
