0.4709558481 	0.1024605558 	0.0001488803485 	-2.633376735e-09
0.4720092239 	0.3923156071 	0.0002856046338 	-2.179938982e-09
0.4730625996 	0.7661975231 	-8.394951421e-05 	2.248244803e-10
0.4741159754 	1.084085663 	-0.0003549994763 	-6.823815737e-09
0.4751693511 	1.325449781 	-7.207017067e-05 	-1.543762828e-08
0.4762227269 	1.526028228 	0.0001340169126 	-2.051511433e-08
0.4778443634 	1.714645373 	0.0001599163827 	-2.788838116e-08
0.4796765386 	1.880217624 	0.0001613735787 	-3.710772261e-08
0.4817465869 	2.02107986 	0.0001696118867 	-4.765034109e-08
0.4840853915 	2.145169342 	0.0002051537043 	-5.999200652e-08
0.4867278453 	2.257596425 	0.0002605747466 	-7.450857568e-08
0.4897133715 	2.361752341 	0.0003318042379 	-9.168265957e-08
0.4930865115 	2.459939978 	0.0004200515 	-1.123013813e-07
0.4968975894 	2.553711268 	0.0005281337678 	-1.372772991e-07
0.5012034633 	2.644018512 	0.000659492624 	-1.673013052e-07
0.506068373 	2.738874224 	0.0008363551592 	-2.049045172e-07
0.5134203412 	2.839099257 	0.001076607964 	-2.437680563e-07
0.5212948542 	2.928518577 	0.001317552428 	-2.604001551e-07
0.529729052 	2.99721366 	0.001547997847 	-2.755451903e-07
0.5387627144 	3.046458249 	0.001774212818 	-2.895193211e-07
0.5484384488 	3.08045024 	0.001914672967 	-2.772767322e-07
0.5588018907 	3.10248182 	0.001991817416 	-2.762687464e-07
0.5699019192 	3.115204691 	0.002040235917 	-2.827168892e-07
0.5817908876 	3.121277256 	0.002040341378 	-2.776120329e-07
0.5945248701 	3.122726931 	0.002004455166 	-2.681631554e-07
0.6081639266 	3.120855852 	0.001938689865 	-2.489266056e-07
0.6227723857 	3.116444587 	0.001845745106 	-2.201822822e-07
0.638419148 	3.109929204 	0.001728091178 	-1.849492299e-07
0.6551780116 	3.101519401 	0.001587341913 	-1.495270601e-07
0.6731280194 	3.091269058 	0.001424341777 	-1.241666667e-07
0.6923538328 	3.079112891 	0.001239461626 	-1.218086365e-07
0.7129461301 	3.064878624 	0.001032842479 	-1.539677394e-07
0.7350020349 	3.048570551 	0.000808593529 	-2.22823831e-07
0.7570579485 	3.030845474 	0.0005799832777 	-3.131861001e-07
0.7776502527 	3.012534683 	0.0003608536779 	-3.996925919e-07
0.7968760713 	2.993884483 	0.0001560023861 	-4.754389027e-07
0.814826083 	2.974788226 	-3.415363694e-05 	-5.24968901e-07
0.831584949 	2.955074002 	-0.0002092879978 	-5.250397952e-07
0.8472317127 	2.934489757 	-0.0003682470827 	-4.775293907e-07
0.8618401721 	2.912699663 	-0.0005049574049 	-4.02288669e-07
0.8754792281 	2.889246671 	-0.0006171480915 	-3.247303845e-07
0.8882132094 	2.863469041 	-0.0006988302201 	-2.59151003e-07
0.9001021759 	2.834226682 	-0.000742473889 	-2.107954571e-07
0.9112022019 	2.799741457 	-0.0007543929967 	-1.714548066e-07
0.9215656407 	2.758098233 	-0.0007313474924 	-1.362702087e-07
0.9312413717 	2.707740858 	-0.0006697596347 	-1.091473997e-07
0.9402750304 	2.647538549 	-0.0005804060455 	-8.954205932e-08
0.9487092242 	2.576671572 	-0.0004760306501 	-7.609744962e-08
0.9565837329 	2.494297729 	-0.0003678793156 	-6.69998992e-08
0.9639356968 	2.406283443 	-0.0002732159446 	-6.09060679e-08
0.9688006083 	2.324035762 	-0.0002053494787 	-5.671454548e-08
0.9731064834 	2.245543105 	-0.0001568200772 	-5.297631245e-08
0.976917562 	2.163544714 	-0.0001190237504 	-4.893702278e-08
0.9802907021 	2.07702508 	-9.04098733e-05 	-4.453759956e-08
0.9832762282 	1.9844727 	-6.967403964e-05 	-3.982815592e-08
0.9859186816 	1.88369281 	-5.700653073e-05 	-3.487015537e-08
0.9882574856 	1.77149144 	-5.680972849e-05 	-2.973770373e-08
0.990327533 	1.643126875 	-7.664706486e-05 	-2.453254662e-08
0.9921597073 	1.491413574 	-9.357152938e-05 	-1.938182905e-08
0.9937813429 	1.318225629 	-7.447159188e-05 	-1.47212489e-08
0.9948347186 	1.134836005 	0.0001232660078 	-1.075344917e-08
0.9958880943 	0.9180740675 	0.0003157727149 	-7.369358778e-09
0.9969414701 	0.6413289829 	7.053454336e-06 	-4.463960536e-09
0.9979948458 	0.3258566025 	-0.0002521301917 	-1.701148219e-09
0.9990482216 	0.09331090613 	-0.0001072225616 	-1.777056868e-10
0.9990482216 	0.09331090613 	-0.0001072225616 	-1.777056868e-10
