0.4709558481 	3.309805658e-06 	-5.307106797e-08 	1.170355085e-12 	3.303534404e-06 	-5.22912808e-11 	6.297454743e-09
0.4709558481 	3.309805658e-06 	-5.307106797e-08 	1.170355085e-12 	3.303534404e-06 	-5.22912808e-11 	6.297454743e-09
0.4720092239 	0.0002721835688 	-3.634393574e-05 	7.704555419e-10 	0.0002723982744 	-4.320083867e-09 	5.192668202e-07
0.4730625996 	0.002850082303 	-0.0008928283814 	1.534846586e-08 	0.002901872434 	-4.213771464e-08 	5.531775392e-06
0.4741159754 	0.008761416241 	-0.003153041656 	3.777900342e-08 	0.008973190383 	-1.012587699e-07 	1.710539484e-05
0.4751693511 	0.01495701495 	-0.005594557422 	5.035690942e-08 	0.01534481395 	-1.381304507e-07 	2.925148026e-05
0.4762227269 	0.01968467821 	-0.007348038316 	5.610058761e-08 	0.02020260169 	-1.54531723e-07 	3.851177385e-05
0.4778443634 	0.02316821766 	-0.008597152622 	5.672446169e-08 	0.02378526284 	-1.563661952e-07 	4.534132174e-05
0.4796765386 	0.02521739789 	-0.009352073551 	5.223923667e-08 	0.02588791121 	-1.438410359e-07 	4.934955393e-05
0.4817465869 	0.02622712789 	-0.009725224821 	4.428610807e-08 	0.02691935165 	-1.215646023e-07 	5.13157661e-05
0.4840853915 	0.02659579198 	-0.009860782294 	3.368565591e-08 	0.02729027824 	-9.190123726e-08 	5.202285527e-05
0.4867278453 	0.02651298076 	-0.009828868607 	2.021209241e-08 	0.02719747618 	-5.426966981e-08 	5.184594874e-05
0.4897133715 	0.02606804761 	-0.009662553371 	3.332739945e-09 	0.02673244872 	-7.223330968e-09 	5.095947716e-05
0.4930865115 	0.02529656199 	-0.009375004602 	-1.782427468e-08 	0.02593138991 	5.164349933e-08 	4.943243643e-05
0.4968975894 	0.02420191576 	-0.008967510648 	-4.456894728e-08 	0.02479788139 	1.260072972e-07 	4.727165415e-05
0.5012034633 	0.02276725162 	-0.008433881758 	-7.843373829e-08 	0.02331477814 	2.202185974e-07 	4.444444714e-05
0.506068373 	0.02078952624 	-0.00769889985 	-1.237505286e-07 	0.02127426708 	3.458796665e-07 	4.055466593e-05
0.5134203412 	0.0180825166 	-0.006694084995 	-1.731037111e-07 	0.0184901495 	4.815503915e-07 	3.524736402e-05
0.5212948542 	0.01510769246 	-0.005590670928 	-1.954095934e-07 	0.01543453343 	5.427207709e-07 	2.942251053e-05
0.529729052 	0.01256742988 	-0.004642647457 	-1.761168953e-07 	0.01281966609 	4.910871411e-07 	2.44378466e-05
0.5387627144 	0.01066033608 	-0.003632667852 	-2.121379461e-07 	0.01081497663 	3.920625574e-07 	2.061635132e-05
0.5484384488 	0.009362578309 	-0.002606762285 	-2.515663753e-07 	0.009420639259 	2.612609831e-07 	1.795835676e-05
0.5588018907 	0.008643534302 	-0.00178697496 	-2.340374959e-07 	0.008646897763 	1.055008278e-07 	1.648339042e-05
0.5699019192 	0.008365658834 	-0.001037976841 	-2.243188228e-07 	0.008346964106 	-2.3434094e-08 	1.59116335e-05
0.5817908876 	0.008384151283 	-0.0003567669717 	-2.115968933e-07 	0.008371731573 	-1.153642255e-07 	1.595884718e-05
0.5945248701 	0.008587391626 	0.0002591857398 	-2.059581778e-07 	0.008596014615 	-1.769119268e-07 	1.6386393e-05
0.6081639266 	0.008900733824 	0.0008208877797 	-2.098474456e-07 	0.008941419469 	-2.202043028e-07 	1.704483065e-05
0.6227723857 	0.009275413068 	0.001336665393 	-2.217673206e-07 	0.009356599765 	-2.542565815e-07 	1.783627968e-05
0.638419148 	0.009679680743 	0.001811674527 	-2.376759936e-07 	0.00980788434 	-2.842115096e-07 	1.869655351e-05
0.6551780116 	0.01009215163 	0.002248360448 	-2.519739718e-07 	0.01027185496 	-3.113445367e-07 	1.958101046e-05
0.6731280194 	0.01049738765 	0.002647097034 	-2.583415398e-07 	0.01073058763 	-3.336886182e-07 	2.045548244e-05
0.6923538328 	0.01088335089 	0.00300701234 	-2.506126557e-07 	0.01116919347 	-3.467310856e-07 	2.129158708e-05
0.7129461301 	0.01124027423 	0.003327019658 	-2.238634771e-07 	0.01157492129 	-3.444367015e-07 	2.206501707e-05
0.7350020349 	0.01155577155 	0.003602346974 	-1.769404111e-07 	0.01193190285 	-3.21430187e-07 	2.274552314e-05
0.7570579485 	0.01181612321 	0.003825368974 	-1.160510883e-07 	0.01222304208 	-2.777229985e-07 	2.330051543e-05
0.7776502527 	0.01202268193 	0.003999894611 	-5.206765765e-08 	0.01244913099 	-2.199878646e-07 	2.373150372e-05
0.7968760713 	0.0121931801 	0.004141330364 	6.027665366e-09 	0.01262994755 	-1.564088048e-07 	2.407619034e-05
0.814826083 	0.01234873563 	0.004264946016 	5.221980704e-08 	0.01278895344 	-9.340933763e-08 	2.437929976e-05
0.831584949 	0.01250945138 	0.00438284407 	8.263658661e-08 	0.01294856539 	-3.564150796e-08 	2.468356451e-05
0.8472317127 	0.01269507229 	0.004504464271 	1.019778512e-07 	0.01313037458 	1.532378393e-08 	2.503014334e-05
0.8618401721 	0.01292716243 	0.004643524432 	1.028578383e-07 	0.0133584682 	5.773628954e-08 	2.546495318e-05
0.8754792281 	0.01322968207 	0.004805162395 	6.571108881e-08 	0.01365567356 	8.914955933e-08 	2.60315092e-05
0.8882132094 	0.01363265209 	0.005013310338 	4.668193912e-08 	0.01405366186 	1.297361135e-07 	2.679018551e-05
0.9001021759 	0.01416632389 	0.005252711202 	6.907397824e-08 	0.01458091407 	1.890585285e-07 	2.779527477e-05
0.9112022019 	0.01486771133 	0.005515108047 	9.337067486e-08 	0.0152749098 	2.556049889e-07 	2.911822352e-05
0.9215656407 	0.01577231234 	0.005846844953 	1.168718703e-07 	0.01618054386 	3.219384721e-07 	3.084461374e-05
0.9312413717 	0.01688010997 	0.006255074889 	1.343908499e-07 	0.01730144983 	3.720952599e-07 	3.298137207e-05
0.9402750304 	0.01814484028 	0.006722779425 	1.403187241e-07 	0.01859136023 	3.898923259e-07 	3.544029979e-05
0.9487092242 	0.0194787424 	0.007217249393 	1.322128628e-07 	0.01995905427 	3.683209315e-07 	3.804750477e-05
0.9565837329 	0.02076970354 	0.007696645945 	1.122435764e-07 	0.02128784499 	3.133852628e-07 	4.05805492e-05
0.9639356968 	0.02182618201 	0.008089554184 	8.760345885e-08 	0.02237896805 	2.450808917e-07 	4.266053301e-05
0.9688006083 	0.02254404959 	0.008356913846 	6.605190764e-08 	0.02312282827 	1.850964911e-07 	4.407853735e-05
0.9731064834 	0.02301921119 	0.00853412681 	4.886767753e-08 	0.0236167054 	1.371495464e-07 	4.502000442e-05
0.976917562 	0.02331519586 	0.008644765127 	3.469611407e-08 	0.02392585208 	9.754713288e-08 	4.56093239e-05
0.9802907021 	0.02342198904 	0.0086850945 	2.341458689e-08 	0.0240399261 	6.597096216e-08 	4.58267807e-05
0.9832762282 	0.02331512043 	0.008646047245 	1.463902025e-08 	0.02393389309 	4.137567571e-08 	4.562465231e-05
0.9859186816 	0.02294410082 	0.008508943916 	7.917767375e-09 	0.02355631958 	2.25236432e-08 	4.490489226e-05
0.9882574856 	0.02221211379 	0.008237961167 	2.842979429e-09 	0.02280808771 	8.295202934e-09 	4.347855436e-05
0.990327533 	0.02093380172 	0.007764661932 	-8.278042751e-10 	0.02149696256 	-1.953722759e-09 	4.097918541e-05
0.9921597073 	0.0187717755 	0.006968481631 	-3.238091822e-09 	0.01927529484 	-8.429327891e-09 	3.674406925e-05
0.9937813429 	0.0154412295 	0.005747152089 	-4.475214087e-09 	0.01584893303 	-1.134744553e-08 	3.021247133e-05
0.9948347186 	0.01122521289 	0.004178564546 	-4.312768049e-09 	0.01151770616 	-1.121409633e-08 	2.195594912e-05
0.9958880943 	0.006146447735 	0.002168777303 	-3.176997608e-09 	0.00628999702 	-8.26106664e-09 	1.199048254e-05
0.9969414701 	0.00181930793 	0.0005208276086 	-1.32325107e-09 	0.001845208352 	-3.342089383e-09 	3.517479968e-06
0.9979948458 	0.0001667309388 	1.885876096e-05 	-5.83156227e-11 	0.0001667277427 	-3.209081378e-10 	3.178294171e-07
0.9990482216 	2.221563837e-06 	2.941185363e-08 	-9.487390871e-14 	2.217339035e-06 	-4.240740829e-12 	4.226864477e-09
