0.4709558481 	0.114884919 	0.0001905426627 	-1.52697193e-08
0.4709558481 	0.114884919 	0.0001905426627 	-1.52697193e-08
0.4720092239 	0.4396652206 	0.0002967856494 	-2.286098237e-09
0.4730625996 	0.8547304924 	-0.0001338500408 	1.584137399e-08
0.4741159754 	1.20146823 	-0.0003104642274 	-2.746431938e-08
0.4751693511 	1.461829648 	6.171541217e-05 	-6.312737153e-08
0.4762227269 	1.67821309 	0.0002971119107 	-7.818137593e-08
0.4778443634 	1.883103322 	0.0003948375879 	-1.142706056e-07
0.4796765386 	2.065405404 	0.0004957173727 	-1.63577996e-07
0.4817465869 	2.223465399 	0.0006254223679 	-2.238676821e-07
0.4840853915 	2.365752867 	0.0008125832921 	-2.987080441e-07
0.4867278453 	2.497371515 	0.001056574281 	-3.916249442e-07
0.4897133715 	2.621072444 	0.001359968196 	-5.074910263e-07
0.4930865115 	2.73747519 	0.001728865619 	-6.411361159e-07
0.4968975894 	2.84464815 	0.002146630351 	-7.361841515e-07
0.5012034633 	2.937772468 	0.002557327619 	-8.373459432e-07
0.506068373 	3.016999407 	0.003002237452 	-9.043322096e-07
0.5134203412 	3.077310236 	0.003415433543 	-7.430236534e-07
0.5212948542 	3.11194126 	0.003631043766 	-6.158343767e-07
0.529729052 	3.128032598 	0.003723151205 	-5.860299922e-07
0.5387627144 	3.134127225 	0.003764599383 	-5.085283241e-07
0.5484384488 	3.13481785 	0.003750109695 	-4.686142481e-07
0.5588018907 	3.132268845 	0.003700658273 	-4.353967809e-07
0.5699019192 	3.127500853 	0.003623848803 	-4.078952569e-07
0.5817908876 	3.120998129 	0.003524177283 	-3.846071002e-07
0.5945248701 	3.112979901 	0.003403402791 	-3.630966988e-07
0.6081639266 	3.103525472 	0.003261436236 	-3.415112119e-07
0.6227723857 	3.092634497 	0.003097041228 	-3.185901504e-07
0.638419148 	3.080257146 	0.002908244876 	-2.934947055e-07
0.6551780116 	3.066309159 	0.002692580167 	-2.657725214e-07
0.6731280194 	3.050678365 	0.002447238487 	-2.353234145e-07
0.6923538328 	3.0332255 	0.002169157489 	-2.022127431e-07
0.7129461301 	3.013780172 	0.001855082223 	-1.662799281e-07
0.7350020349 	2.992505706 	0.00150782867 	-1.271657891e-07
0.7570579485 	2.970415918 	0.001145595454 	-8.634231753e-08
0.7776502527 	2.948631529 	0.0007900837854 	-4.750583407e-08
0.7968760713 	2.927482615 	0.0004505542046 	-1.321054777e-08
0.814826083 	2.906889937 	0.0001289945053 	1.671222848e-08
0.831584949 	2.886742769 	-0.0001735802342 	4.397829894e-08
0.8472317127 	2.866901511 	-0.0004564789468 	7.056052162e-08
0.8618401721 	2.847193216 	-0.0007189067992 	9.804190353e-08
0.8754792281 	2.827401212 	-0.0009597527691 	1.274350785e-07
0.8882132094 	2.807248883 	-0.001177487472 	1.593543906e-07
0.9001021759 	2.786376025 	-0.001369796309 	1.948219985e-07
0.9112022019 	2.764305031 	-0.001532461808 	2.36872424e-07
0.9215656407 	2.740392059 	-0.001666249339 	2.658037957e-07
0.9312413717 	2.713747477 	-0.001771431686 	3.101351284e-07
0.9402750304 	2.682776642 	-0.00182544039 	3.89217496e-07
0.9487092242 	2.644101898 	-0.001810758748 	4.420399288e-07
0.9565837329 	2.591807355 	-0.001716623246 	4.991795334e-07
0.9639356968 	2.524184474 	-0.001531635168 	5.546381971e-07
0.9688006083 	2.450052431 	-0.001303104142 	5.492835569e-07
0.9731064834 	2.370973186 	-0.001074409093 	4.992984637e-07
0.976917562 	2.282488479 	-0.0008541531185 	4.231838277e-07
0.9802907021 	2.185802449 	-0.0006590846032 	3.386975054e-07
0.9832762282 	2.081372556 	-0.0004970075558 	2.588461588e-07
0.9859186816 	1.96843186 	-0.0003703160057 	1.905437348e-07
0.9882574856 	1.844651729 	-0.0002812014006 	1.356834286e-07
0.990327533 	1.705674267 	-0.000232566281 	9.306998959e-08
0.9921597073 	1.544332279 	-0.0001968018258 	6.062811164e-08
0.9937813429 	1.362836227 	-0.0001404525883 	3.81271125e-08
0.9948347186 	1.172479616 	7.969522044e-05 	2.489549669e-08
0.9958880943 	0.948577369 	0.0002956900112 	1.202942551e-08
0.9969414701 	0.6631117366 	6.399359342e-06 	1.135231286e-09
0.9979948458 	0.3372177302 	-0.0002554455317 	1.666682541e-09
0.9990482216 	0.09660310601 	-0.0001129169434 	2.786010792e-09
