0.121376578 	2.088512454e-05 	2.511657899e-08 	-1.09978715e-08 	1.869639963e-05 	-4.856866889e-07 	3.564053408e-08
0.123583729 	0.002365031122 	-0.0001689591778 	4.174221362e-07 	0.001626238154 	-3.44705559e-05 	3.10006191e-06
0.1257894093 	0.009041374605 	-0.001737783776 	2.182365727e-05 	0.007109121699 	-0.0001174851959 	1.355196184e-05
0.1279925952 	0.01307593665 	-0.003289798404 	3.86209167e-05 	0.01262906388 	-0.0001437057661 	2.407450583e-05
0.1301922761 	0.01259880116 	-0.003279451006 	3.488902714e-05 	0.01523240304 	-0.0001095805344 	2.903719383e-05
0.132387455 	0.01214019391 	-0.003041892505 	3.143019446e-05 	0.01654877591 	-8.049545632e-05 	3.154656638e-05
0.1357557942 	0.0114777809 	-0.002872163174 	2.715909484e-05 	0.01663815169 	-5.243887833e-05 	3.171694146e-05
0.1395413836 	0.01087998155 	-0.002669839513 	2.460903575e-05 	0.0160008837 	-3.544265797e-05 	3.050213154e-05
0.1437868381 	0.0104345626 	-0.002530421501 	2.206321963e-05 	0.01540749699 	-2.651151242e-05 	2.937097156e-05
0.1485346694 	0.01000579958 	-0.002427968108 	1.906614961e-05 	0.01484025055 	-2.15458618e-05 	2.828964219e-05
0.1539572698 	0.009587931503 	-0.002356157518 	1.566633209e-05 	0.01427212205 	-1.731984741e-05 	2.720663136e-05
0.1600645007 	0.009211443279 	-0.00229920367 	1.22852012e-05 	0.01377446804 	-1.307706965e-05 	2.62579645e-05
0.1668783649 	0.008875380245 	-0.002244600368 	9.065413796e-06 	0.0133749194 	-9.00497847e-06 	2.549631374e-05
0.1744706299 	0.00855959236 	-0.002190546124 	5.96443417e-06 	0.01304179138 	-5.425606677e-06 	2.486127915e-05
0.1830959347 	0.008269717403 	-0.002146095762 	2.873806239e-06 	0.01277401207 	-2.353268689e-06 	2.435081737e-05
0.1922476596 	0.0079986023 	-0.002108544348 	1.795430257e-07 	0.01254643377 	-1.919646446e-06 	2.391698986e-05
0.1926955792 	0.007986698548 	-0.002105241689 	1.787297283e-07 	0.01252798832 	-1.575251855e-07 	2.388182772e-05
0.2053746929 	0.007790204897 	-0.00203062357 	4.923639806e-06 	0.01226601901 	-3.630853389e-06 	2.33824414e-05
0.2189675343 	0.007649541201 	-0.001968324913 	9.494767293e-06 	0.01210472999 	-5.847120958e-06 	2.30749797e-05
0.2334990144 	0.007568909815 	-0.001919689355 	1.38518739e-05 	0.01204555805 	-6.826725178e-06 	2.296218154e-05
0.2489714712 	0.007549041378 	-0.001883958773 	1.807187294e-05 	0.01209438487 	-6.970031217e-06 	2.305525903e-05
0.2654937654 	0.007561283756 	-0.001850934488 	2.210512359e-05 	0.01221064119 	-6.029129355e-06 	2.327687588e-05
0.2832036071 	0.007620837588 	-0.001821568227 	2.191455136e-05 	0.01242507118 	-3.82361915e-06 	2.368563904e-05
0.3020930082 	0.007704906164 	-0.001786306517 	1.768690972e-05 	0.01270629091 	-1.431756577e-06 	2.422172201e-05
0.3222472526 	0.007819411929 	-0.00174006884 	1.363939978e-05 	0.01307429982 	3.215315732e-08 	2.492324927e-05
0.3437457136 	0.007954734102 	-0.00167329441 	9.746751881e-06 	0.01352139496 	6.703645875e-07 	2.577553688e-05
0.366723401 	0.008107656749 	-0.001573109217 	5.968670931e-06 	0.01405435111 	7.259258345e-07 	2.679149943e-05
0.3912146542 	0.008275755443 	-0.001425473696 	2.350940335e-06 	0.01467619424 	3.370121585e-07 	2.797690525e-05
0.4093312864 	0.008400025489 	-0.001277426657 	2.86469934e-06 	0.01516666772 	-3.582472391e-06 	2.891188403e-05
0.4171316319 	0.008451275619 	-0.001208355916 	1.159243966e-06 	0.01536806688 	-1.749016497e-07 	2.92958068e-05
0.444521887 	0.008631569895 	-0.000897900818 	4.521272761e-06 	0.01611392774 	-9.201845028e-07 	3.071762491e-05
0.4737879914 	0.008830314493 	-0.0004721881407 	7.004241047e-06 	0.01692566758 	-2.100152856e-06 	3.226502666e-05
0.5050603485 	0.00906522269 	0.0001199201146 	7.977601006e-06 	0.01777943639 	-3.86159624e-06 	3.389254731e-05
0.5384624778 	0.009401215723 	0.00090328035 	6.899519012e-06 	0.01855374501 	-5.077309566e-06 	3.536859474e-05
0.574124097 	0.009912671437 	0.001771593735 	4.833260512e-06 	0.01906870755 	-3.229870708e-06 	3.635025646e-05
0.6096731358 	0.01052562981 	0.002577476935 	3.324183965e-06 	0.01936416198 	2.337619305e-07 	3.691347473e-05
0.642780273 	0.01114829148 	0.003241309101 	2.511312983e-06 	0.01950881507 	2.527691156e-06 	3.718922373e-05
0.6736372215 	0.01175289111 	0.00375137136 	2.111345333e-06 	0.01951619404 	3.708985025e-06 	3.720329008e-05
0.7024167125 	0.01229705474 	0.004153874056 	1.830089642e-06 	0.01946442616 	3.994926754e-06 	3.710460611e-05
0.7292743072 	0.01276342877 	0.004484645596 	1.511332698e-06 	0.01938323107 	3.746269646e-06 	3.694982572e-05
0.7543509671 	0.01315448616 	0.004757336342 	1.145624542e-06 	0.01927281736 	3.216691328e-06 	3.673934649e-05
0.777772227 	0.0134730838 	0.004980716037 	7.607199912e-07 	0.01912863371 	2.571897166e-06 	3.646449238e-05
0.7996531056 	0.01372165314 	0.005159177515 	3.88503922e-07 	0.01894578789 	1.921007717e-06 	3.611593744e-05
0.8200980707 	0.0139024531 	0.005295227124 	5.936977276e-08 	0.0187206225 	1.329521428e-06 	3.56867096e-05
0.8392033992 	0.01401816198 	0.005390817222 	-2.049308845e-07 	0.01845023504 	8.301555325e-07 	3.517127596e-05
0.8570577716 	0.01407242215 	0.005448201083 	-3.95085849e-07 	0.01813300406 	4.342484487e-07 	3.456654555e-05
0.8737433156 	0.0140702034 	0.005470444395 	-5.145267764e-07 	0.01776922202 	1.380943134e-07 	3.387307587e-05
0.8893364195 	0.0140178884 	0.005462090812 	-5.747599204e-07 	0.0173615708 	-7.200462437e-08 	3.309597935e-05
0.9039082323 	0.01392354551 	0.005426656188 	-5.904942743e-07 	0.01691395811 	-2.170478194e-07 	3.224270514e-05
0.917525146 	0.01379633098 	0.005368200801 	-5.773330263e-07 	0.01643167575 	-3.121419749e-07 	3.132334092e-05
0.9302491908 	0.01364635408 	0.005296707191 	-5.707592939e-07 	0.01592675506 	-3.826462293e-07 	3.036082175e-05
0.9421383606 	0.01349406536 	0.005216477766 	-5.081073927e-07 	0.015448012 	-3.971688387e-07 	2.944820443e-05
0.9500106837 	0.01337182196 	0.005141670193 	-4.100742163e-07 	0.01505376889 	-3.840994696e-07 	2.869666749e-05
0.9569817698 	0.01328156458 	0.00508099832 	-3.400588831e-07 	0.01472904392 	-3.760623034e-07 	2.807765144e-05
0.9631544511 	0.01320337815 	0.005026087582 	-2.929095497e-07 	0.01444123758 	-3.855297418e-07 	2.752901255e-05
0.9686199044 	0.01312371675 	0.004972964266 	-2.664691526e-07 	0.01418116851 	-4.192911864e-07 	2.703324864e-05
0.9734589462 	0.0130225466 	0.004914714742 	-2.557798289e-07 	0.01392798019 	-4.740385429e-07 	2.655060133e-05
0.9777432055 	0.01287003736 	0.004840226365 	-2.536673198e-07 	0.01364735835 	-5.370521383e-07 	2.60156581e-05
0.9815361564 	0.01261890696 	0.004731560245 	-2.52837452e-07 	0.01328575973 	-5.915125108e-07 	2.532635064e-05
0.9848940386 	0.01218441144 	0.004556788306 	-2.498110989e-07 	0.01275057812 	-6.28455558e-07 	2.430614574e-05
0.9878666762 	0.01139183378 	0.004251511424 	-2.504266397e-07 	0.01185896814 	-6.6866722e-07 	2.26064893e-05
0.9904982048 	0.009988074348 	0.003738170556 	-2.350379269e-07 	0.01035281733 	-7.31099717e-07 	1.973534725e-05
0.9922078258 	0.007950481484 	0.003002817227 	-3.219890236e-07 	0.008213307771 	-8.744972143e-07 	1.565684738e-05
0.993917638 	0.004942360995 	0.001842004114 	-3.63858714e-07 	0.005091385858 	-8.818428133e-07 	9.705596523e-06
0.9956276413 	0.0016746035 	0.0005698128448 	-1.55510348e-07 	0.001717321214 	-4.153668063e-07 	3.27369154e-06
0.9973378359 	0.0001336483587 	2.012075541e-05 	-4.49006297e-09 	0.0001339823948 	-2.383730453e-08 	2.554076829e-07
0.9990482216 	1.077656863e-06 	1.71727574e-08 	2.500328154e-12 	1.075638136e-06 	6.942310848e-11 	2.050465245e-09
