0.4709558481 	0.1130328887 	0.0001841897991 	-1.525152115e-08
0.4720092239 	0.4326162271 	0.0002958107518 	-2.637150381e-09
0.4730625996 	0.8416046721 	-0.0001269289733 	1.710629953e-08
0.4741159754 	1.184114598 	-0.00032098335 	-2.313081033e-08
0.4751693511 	1.44163975 	3.664358195e-05 	-5.736827201e-08
0.4762227269 	1.655582168 	0.0002661295575 	-7.059285508e-08
0.4778443634 	1.857884469 	0.0003494641604 	-1.031811718e-07
0.4796765386 	2.037480662 	0.0004305932164 	-1.481488206e-07
0.4817465869 	2.192756938 	0.000536081661 	-2.035324299e-07
0.4840853915 	2.332133182 	0.0006930270458 	-2.729676515e-07
0.4867278453 	2.46078168 	0.0008992508377 	-3.595963579e-07
0.4897133715 	2.581714236 	0.001155376283 	-4.658566757e-07
0.4930865115 	2.696152216 	0.00146840552 	-5.918257181e-07
0.4968975894 	2.80329464 	0.00183834495 	-7.174096949e-07
0.5012034633 	2.899711611 	0.002223098029 	-7.818678966e-07
0.506068373 	2.986298944 	0.002651523607 	-8.382953892e-07
0.5134203412 	3.056247212 	0.003093256986 	-8.384801731e-07
0.5212948542 	3.099348694 	0.0033613257 	-6.979453691e-07
0.529729052 	3.121112179 	0.003481553679 	-5.981382439e-07
0.5387627144 	3.130531963 	0.003546561608 	-5.580227133e-07
0.5484384488 	3.133163271 	0.003550675394 	-5.07333077e-07
0.5588018907 	3.131832419 	0.003516104933 	-4.712924644e-07
0.5699019192 	3.127905629 	0.003451669017 	-4.412466924e-07
0.5817908876 	3.122047482 	0.003362403277 	-4.156313365e-07
0.5945248701 	3.11457427 	0.003251033929 	-3.923377642e-07
0.6081639266 	3.105618922 	0.003118241546 	-3.696527518e-07
0.6227723857 	3.095210886 	0.002963344298 	-3.462753157e-07
0.638419148 	3.083316354 	0.002784762963 	-3.21214981e-07
0.6551780116 	3.069858842 	0.002580285641 	-2.937327848e-07
0.6731280194 	3.054728947 	0.002347242864 	-2.632966317e-07
0.6923538328 	3.037786925 	0.002082650733 	-2.295211214e-07
0.7129461301 	3.018858814 	0.001783367551 	-1.920888521e-07
0.7350020349 	2.998091208 	0.001452176365 	-1.514256393e-07
0.7570579485 	2.97646188 	0.00110645727 	-1.098243949e-07
0.7776502527 	2.955064421 	0.000766602812 	-6.997799736e-08
0.7968760713 	2.934227393 	0.0004411870859 	-3.283915926e-08
0.814826083 	2.913877527 	0.0001323216751 	1.980723949e-09
0.831584949 	2.893904928 	-0.000158429966 	3.542061674e-08
0.8472317127 	2.874163379 	-0.000429708371 	6.865000042e-08
0.8618401721 	2.854465363 	-0.0006801297057 	1.027219236e-07
0.8754792281 	2.834571755 	-0.0009081532583 	1.383916966e-07
0.8882132094 	2.814175394 	-0.001111906124 	1.764583649e-07
0.9001021759 	2.792877002 	-0.001288531261 	2.185334478e-07
0.9112022019 	2.770151935 	-0.001434109775 	2.506751476e-07
0.9215656407 	2.745302472 	-0.001555474983 	2.861401084e-07
0.9312413717 	2.717307977 	-0.001640279978 	3.430498094e-07
0.9402750304 	2.68406617 	-0.001663004787 	3.957083618e-07
0.9487092242 	2.641415002 	-0.001624317046 	4.654217083e-07
0.9565837329 	2.583416505 	-0.001504026683 	5.428201887e-07
0.9639356968 	2.509994384 	-0.001300988057 	5.633737196e-07
0.9688006083 	2.431776011 	-0.001079794736 	5.270096815e-07
0.9731064834 	2.350605648 	-0.0008747078714 	4.600879434e-07
0.976917562 	2.261665632 	-0.0006868774729 	3.792405693e-07
0.9802907021 	2.16579616 	-0.0005262076836 	2.986421822e-07
0.9832762282 	2.062972864 	-0.0003958277895 	2.267944346e-07
0.9859186816 	1.952011024 	-0.0002958528852 	1.672441934e-07
0.9882574856 	1.830294378 	-0.0002280326601 	1.20091429e-07
0.990327533 	1.69330793 	-0.0001959028978 	8.350290371e-08
0.9921597073 	1.53382936 	-0.0001727386096 	5.535297375e-08
0.9937813429 	1.353969491 	-0.0001251846705 	3.547849598e-08
0.9948347186 	1.164997062 	8.970852274e-05 	2.341207258e-08
0.9958880943 	0.9425187641 	0.0003004583992 	1.122595612e-08
0.9969414701 	0.6587915562 	6.814518268e-06 	1.147851008e-09
0.9979948458 	0.3349693512 	-0.0002547137394 	1.79915188e-09
0.9990482216 	0.09595352564 	-0.0001117521014 	2.70100016e-09
0.9990482216 	0.09595352564 	-0.0001117521014 	2.70100016e-09
