0.4709558481 	4.068566912e-06 	-7.094011304e-08 	9.539362211e-12 	4.060877013e-06 	-3.865215153e-10 	7.741160249e-09
0.4720092239 	0.0003345522932 	-4.796642862e-05 	6.148835847e-09 	0.0003349613194 	-3.194036528e-08 	6.385293724e-07
0.4730625996 	0.003432066593 	-0.001114306374 	1.128207859e-07 	0.003500415801 	-3.005412564e-07 	6.672765406e-06
0.4741159754 	0.01011472556 	-0.003676595734 	2.575672002e-07 	0.0103629673 	-6.76885539e-07 	1.97546959e-05
0.4751693511 	0.01674651817 	-0.006266330698 	3.191868695e-07 	0.01717795348 	-8.648473089e-07 	3.274595371e-05
0.4762227269 	0.02163437464 	-0.008075193182 	3.352026955e-07 	0.02219826267 	-9.146172771e-07 	4.231605833e-05
0.4778443634 	0.02507661175 	-0.009304912872 	3.108292031e-07 	0.02573340015 	-8.526628162e-07 	4.905501291e-05
0.4796765386 	0.02687926405 	-0.009966150069 	2.46155293e-07 	0.02757640261 	-6.737742264e-07 	5.256828783e-05
0.4817465869 	0.02747992103 	-0.01018607339 	1.453116709e-07 	0.02818032006 	-3.927229469e-07 	5.371952235e-05
0.4840853915 	0.02728843434 	-0.01011245074 	7.718610154e-09 	0.02796781228 	-9.448402419e-09 	5.331442346e-05
0.4867278453 	0.02647046426 	-0.009806526699 	-1.718152059e-07 	0.0271117325 	4.899184931e-07 	5.168249745e-05
0.4897133715 	0.02507923308 	-0.009288074988 	-3.991454314e-07 	0.02566721526 	1.121155106e-06 	4.892884612e-05
0.4930865115 	0.02311889693 	-0.008558777711 	-6.736973967e-07 	0.02363940466 	1.881498081e-06 	4.506327552e-05
0.4968975894 	0.02060224017 	-0.007623681985 	-9.72301226e-07 	0.02104493413 	2.703874096e-06 	4.011749358e-05
0.5012034633 	0.01767897629 	-0.006538569768 	-1.188840584e-06 	0.01803885451 	3.300177255e-06 	3.438707033e-05
0.506068373 	0.01451250257 	-0.005364342044 	-1.149690825e-06 	0.01478734635 	3.193054615e-06 	2.818879208e-05
0.5134203412 	0.01164582925 	-0.004077567609 	-1.233946932e-06 	0.0118128207 	2.438733595e-06 	2.251851945e-05
0.5212948542 	0.009812467487 	-0.002833566888 	-1.23481155e-06 	0.009867852603 	1.386247516e-06 	1.881086969e-05
0.529729052 	0.009028579776 	-0.001823213568 	-1.001271462e-06 	0.009014622348 	4.152628333e-07 	1.718437568e-05
0.5387627144 	0.008894139804 	-0.0009797621095 	-9.042711687e-07 	0.008856102952 	-1.93381782e-07 	1.688219365e-05
0.5484384488 	0.009093095748 	-0.0002336420105 	-8.120278924e-07 	0.009063156843 	-5.400324153e-07 	1.727689592e-05
0.5588018907 	0.009455906951 	0.00042869236 	-7.453120171e-07 	0.009451172619 	-7.251017332e-07 	1.801656183e-05
0.5699019192 	0.009897230687 	0.001031756603 	-7.008435365e-07 	0.009928574663 	-8.268540945e-07 	1.892662281e-05
0.5817908876 	0.01037362009 	0.001591931584 	-6.723454695e-07 	0.0104499911 	-8.822042727e-07 	1.992058747e-05
0.5945248701 	0.01086167125 	0.002118224224 	-6.540053761e-07 	0.01099103659 	-9.110220367e-07 	2.095197054e-05
0.6081639266 	0.01134731229 	0.002614190542 	-6.412843259e-07 	0.01153675298 	-9.23357391e-07 	2.199225765e-05
0.6227723857 	0.01182054599 	0.003079512365 	-6.306419226e-07 	0.01207574347 	-9.243743817e-07 	2.301972333e-05
0.638419148 	0.01227285949 	0.00351111329 	-6.192089629e-07 	0.01259746256 	-9.167568598e-07 	2.401426493e-05
0.6551780116 	0.01269589901 	0.003903942144 	-6.046319974e-07 	0.01309091949 	-9.019524907e-07 	2.495493098e-05
0.6731280194 	0.01308075815 	0.004251569706 	-5.850140425e-07 	0.01354405355 	-8.809038745e-07 	2.581873043e-05
0.6923538328 	0.01341757837 	0.004546715104 	-5.588701298e-07 	0.01394346788 	-8.544809489e-07 	2.658012517e-05
0.7129461301 	0.01369532379 	0.0047818197 	-5.251150008e-07 	0.0142743828 	-8.236624843e-07 	2.721094097e-05
0.7350020349 	0.01389890387 	0.004947464662 	-4.83991987e-07 	0.01451746635 	-7.9005348e-07 	2.767432579e-05
0.7570579485 	0.01401537988 	0.005037866352 	-4.38396762e-07 	0.01465639947 	-7.560193815e-07 	2.793917093e-05
0.7776502527 	0.01404932071 	0.005062619755 	-3.918186154e-07 	0.01469632106 	-7.226030055e-07 	2.801527256e-05
0.7968760713 	0.01401758877 	0.005040288167 	-3.453739969e-07 	0.01465746282 	-6.880603002e-07 	2.794119796e-05
0.814826083 	0.01393695901 	0.004987399041 	-2.981515152e-07 	0.01455995555 	-6.488200362e-07 	2.775532201e-05
0.831584949 	0.01382245658 	0.004917565663 	-2.482818223e-07 	0.01442157654 	-6.003758601e-07 	2.749153316e-05
0.8472317127 	0.01368826447 	0.004842420042 	-1.935899089e-07 	0.01425875109 	-5.376811153e-07 	2.718114259e-05
0.8618401721 	0.01354858134 	0.004772346987 	-1.322880992e-07 	0.01408760319 	-4.555335442e-07 	2.685488712e-05
0.8754792281 	0.01341851858 	0.004716982924 	-6.353133752e-08 	0.01392497662 	-3.489550346e-07 	2.654487569e-05
0.8882132094 	0.01331518144 	0.004685445358 	1.223891261e-08 	0.01378946153 	-2.134004199e-07 	2.628654625e-05
0.9001021759 	0.01325924651 	0.00468640304 	9.439918692e-08 	0.01370382786 	-3.877645266e-08 	2.612330468e-05
0.9112022019 	0.0132774025 	0.004728654796 	1.843698507e-07 	0.01369788776 	1.774168163e-07 	2.61119812e-05
0.9215656407 	0.01340800728 	0.004841393079 	3.595681799e-07 	0.01381262052 	4.625277173e-07 	2.633069373e-05
0.9312413717 	0.01370339621 	0.005039424949 	4.126706518e-07 	0.01409721154 	7.729778634e-07 	2.687320332e-05
0.9402750304 	0.01422979697 	0.005276650991 	4.22129529e-07 	0.01460865003 	1.150610714e-06 	2.784814722e-05
0.9487092242 	0.01508508671 	0.005588333401 	5.947555506e-07 	0.0154535225 	1.633327205e-06 	2.945870896e-05
0.9565837329 	0.01635234588 	0.006054549545 	7.419035647e-07 	0.01673117498 	2.048735151e-06 	3.189426969e-05
0.9639356968 	0.0178602807 	0.006612165535 	7.923201152e-07 	0.01826855819 	2.197621958e-06 	3.482494939e-05
0.9688006083 	0.01925011346 	0.007127756463 	7.397886377e-07 	0.0196957893 	2.057869248e-06 	3.754564857e-05
0.9731064834 	0.02041673857 	0.007561586092 	6.295717138e-07 	0.02090032143 	1.755160301e-06 	3.984182159e-05
0.976917562 	0.02137559551 	0.007918877286 	4.927261759e-07 	0.0218947394 	1.376571711e-06 	4.173745862e-05
0.9802907021 	0.02206113307 	0.00817498013 	3.565052129e-07 	0.02260970133 	9.983228803e-07 	4.310037477e-05
0.9832762282 	0.02242970208 	0.008313480306 	2.364244271e-07 	0.02299903696 	6.640245068e-07 	4.384255669e-05
0.9859186816 	0.02243395573 	0.00831672187 	1.381377043e-07 	0.02301353986 	3.898889626e-07 	4.387020326e-05
0.9882574856 	0.02198904505 	0.008153288626 	6.186248942e-08 	0.02256581444 	1.769924508e-07 	4.301671416e-05
0.990327533 	0.02091842944 	0.007758259423 	6.446726106e-09 	0.02147258488 	2.280577963e-08 	4.093271478e-05
0.9921597073 	0.01888920229 	0.007014149266 	-3.009228424e-08 	0.01939086911 	-7.549718153e-08 	3.696438593e-05
0.9937813429 	0.01562265917 	0.005821031073 	-4.983239611e-08 	0.01603271614 	-1.232067082e-07 	3.056281302e-05
0.9948347186 	0.01141275335 	0.004252860244 	-5.023896686e-08 	0.01170907543 	-1.288534223e-07 	2.232075213e-05
0.9958880943 	0.00628798223 	0.002224972865 	-3.782566319e-08 	0.00643524931 	-9.791116017e-08 	1.226737377e-05
0.9969414701 	0.001877616185 	0.000544841666 	-1.613003892e-08 	0.001905284619 	-4.056227324e-08 	3.63200203e-06
0.9979948458 	0.0001725262318 	1.992879454e-05 	-7.22468261e-10 	0.0001725358917 	-3.928465744e-09 	3.289013635e-07
0.9990482216 	2.298586909e-06 	3.115172082e-08 	-1.174246472e-12 	2.29421718e-06 	-5.199280328e-11 	4.373415589e-09
0.9990482216 	2.298586909e-06 	3.115172082e-08 	-1.174246472e-12 	2.29421718e-06 	-5.199280328e-11 	4.373415589e-09
