0.4709558481 	1.446900002e-07 	-4.533084174e-10 	4.220273404e-15 	1.44414699e-07 	-9.283998317e-13 	2.752945544e-10
0.4709558481 	1.446900002e-07 	-4.533084174e-10 	4.220273404e-15 	1.44414699e-07 	-9.283998317e-13 	2.752945544e-10
0.4713069734 	3.549758322e-06 	-6.00493236e-08 	5.585852148e-13 	3.543001885e-06 	-2.277627499e-11 	6.753946318e-09
0.4716580986 	2.625710063e-05 	-1.194442731e-06 	1.106984579e-11 	2.620706079e-05 	-1.683639528e-10 	4.995794173e-08
0.4720092239 	0.0001018657994 	-9.144595253e-06 	8.373743456e-11 	0.0001016711175 	-6.509335624e-10 	1.938134079e-07
0.4723603491 	0.0002735008612 	-4.073685995e-05 	3.628290355e-10 	0.0002729755325 	-1.729444972e-09 	5.203672345e-07
0.4727114744 	0.0005804179982 	-0.0001260358535 	1.067354453e-09 	0.0005792947947 	-3.585197942e-09 	1.104296885e-06
0.4730625996 	0.001041807626 	-0.0002970980876 	2.3307918e-09 	0.001039771883 	-6.1746897e-09 	1.982094199e-06
0.4734137249 	0.001643034927 	-0.0005659360018 	4.017157397e-09 	0.001639787614 	-9.169794626e-09 	3.125890947e-06
0.4737648501 	0.002337216826 	-0.0009120949976 	5.76665471e-09 	0.002332539627 	-1.210336889e-08 	4.446468825e-06
0.4741159754 	0.003064375642 	-0.001294109644 	7.250367395e-09 	0.003058162139 	-1.461273809e-08 	5.829707008e-06
0.4744671006 	0.00377320026 	-0.001671935989 	8.336414895e-09 	0.003765444397 	-1.65565148e-08 	7.177983572e-06
0.4748182259 	0.004431384239 	-0.002020892423 	9.105558121e-09 	0.004422146071 	-1.796438061e-08 	8.429839484e-06
0.4751693511 	0.005024594123 	-0.002325014774 	9.228738081e-09 	0.005013968517 	-1.894816737e-08 	9.558017555e-06
0.4755204764 	0.005551122577 	-0.00257850106 	9.164621584e-09 	0.005539214997 	-1.964972568e-08 	1.055928333e-05
0.4758716016 	0.006015541178 	-0.002794179651 	9.396539195e-09 	0.00600244725 	-2.013882149e-08 	1.144233275e-05
0.4762227269 	0.006476271905 	-0.003008128961 	9.550896372e-09 	0.006461924456 	-2.045879968e-08 	1.231822401e-05
0.4767673536 	0.006964096593 	-0.003234640952 	9.615791459e-09 	0.006948304319 	-2.058124509e-08 	1.324539921e-05
0.4773330083 	0.007412879226 	-0.00344302643 	9.559910098e-09 	0.007395598922 	-2.043636354e-08 	1.409806705e-05
0.4779205028 	0.007786804645 	-0.003616611765 	9.392618071e-09 	0.007768098989 	-2.005305729e-08 	1.48081557e-05
0.4785306805 	0.008096607893 	-0.00376031724 	9.130194697e-09 	0.008076516078 	-1.946865201e-08 	1.53960844e-05
0.479164417 	0.008351901841 	-0.003878664212 	8.787008141e-09 	0.00833044208 	-1.870647435e-08 	1.588013793e-05
0.4798226221 	0.00856094123 	-0.003975529437 	8.368796316e-09 	0.008538113302 	-1.77793221e-08 	1.6276017e-05
0.4805062404 	0.008730642745 	-0.004054108612 	7.877910372e-09 	0.008706430507 	-1.669274255e-08 	1.659687637e-05
0.4812162531 	0.008866718999 	-0.004117048647 	7.314414145e-09 	0.008841092665 	-1.544712236e-08 	1.685357987e-05
0.4819536793 	0.00897384449 	-0.004166518025 	6.676647911e-09 	0.008946762635 	-1.40390225e-08 	1.705501621e-05
0.4827195775 	0.009055821364 	-0.004204281416 	5.961586205e-09 	0.009027232656 	-1.246201767e-08 	1.720841443e-05
0.483515047 	0.009115729213 	-0.004231768402 	5.165080226e-09 	0.009085573917 	-1.070725628e-08 	1.731962909e-05
0.4843412294 	0.009156054606 	-0.004250133341 	4.282071603e-09 	0.009124265923 	-8.763942044e-09 	1.739338681e-05
0.4851993106 	0.009178797501 	-0.004260304686 	3.306665782e-09 	0.00914530279 	-6.619505916e-09 	1.743348892e-05
0.4860905223 	0.0091855561 	-0.004263024385 	2.232089632e-09 	0.009150278055 	-4.259525627e-09 	1.744297316e-05
0.4870161436 	0.009177596702 	-0.004258880334 	1.050707178e-09 	0.009140454514 	-1.667768384e-09 	1.742424676e-05
0.487977503 	0.009155910196 	-0.004248332642 	-2.459637304e-10 	0.009116820734 	1.173765158e-09 	1.737919421e-05
0.4889759804 	0.009121256617 	-0.004231734361 	-1.667271017e-09 	0.009080135676 	4.284874863e-09 	1.730926229e-05
0.4900130089 	0.009074200642 	-0.004209348005 	-3.223459728e-09 	0.009030964269 	7.687220432e-09 	1.721552792e-05
0.491090077 	0.009015139881 	-0.00418135874 	-4.92571267e-09 	0.008969705813 	1.140440144e-08 	1.709875228e-05
0.4922087306 	0.00894432755 	-0.004147884945 	-6.786198809e-09 	0.008896616771 	1.546205595e-08 	1.695942425e-05
0.4933705753 	0.008861890833 	-0.004108986789 	-8.818127984e-09 	0.008811829259 	1.988797549e-08 	1.679779569e-05
0.4945772787 	0.008767846036 	-0.004064673312 	-1.103580946e-08 	0.008715366343 	2.471223033e-08 	1.661391056e-05
0.4958305727 	0.008662111446 	-0.004014908442 	-1.345471035e-08 	0.008607155066 	2.996729242e-08 	1.640762979e-05
0.4971322564 	0.008544518473 	-0.003959616244 	-1.609150966e-08 	0.008487037845 	3.568813808e-08 	1.617865298e-05
0.4984841978 	0.008414821073 	-0.003898685415 	-1.896414899e-08 	0.008354782336 	4.191232164e-08 	1.592653722e-05
0.4998883377 	0.008272702256 	-0.003831972534 	-2.209189948e-08 	0.008210088859 	4.868005507e-08 	1.565071124e-05
0.5013466912 	0.008117774114 	-0.003759302599 	-2.54955051e-08 	0.008052592719 	5.603442872e-08 	1.535047982e-05
0.5028613516 	0.007949564156 	-0.003680463663 	-2.919753146e-08 	0.007881855015 	6.402206498e-08 	1.502500631e-05
0.5044344929 	0.00776747785 	-0.003595189819 	-3.322313844e-08 	0.007697324678 	7.269490212e-08 	1.46732402e-05
0.506068373 	0.007545838961 	-0.00349148965 	-3.815694601e-08 	0.007473118082 	8.330665624e-08 	1.424584011e-05
0.5085784129 	0.007253957914 	-0.003355059629 	-4.471849622e-08 	0.007178423093 	9.739437012e-08 	1.368406955e-05
0.5111453651 	0.00691220094 	-0.003195485646 	-5.248696414e-08 	0.006834078128 	1.140416521e-07 	1.302765235e-05
0.5137705202 	0.006545370935 	-0.003024410566 	-6.088945876e-08 	0.00646532208 	1.320057604e-07 	1.232470083e-05
0.5164551977 	0.006153335429 	-0.002841817042 	-6.980703095e-08 	0.006072195695 	1.510083768e-07 	1.157529267e-05
0.5192007473 	0.005737193231 	-0.002648260354 	-7.841279194e-08 	0.005655974739 	1.692516944e-07 	1.078185985e-05
0.5220085492 	0.005303734324 	-0.00244692345 	-8.500162759e-08 	0.005223536587 	1.83102282e-07 	9.957512543e-06
0.5248800149 	0.004866698489 	-0.002244189208 	-8.850308535e-08 	0.004788559511 	1.903644111e-07 	9.12832534e-06
0.5278165879 	0.004440282701 	-0.002046644934 	-8.898832655e-08 	0.004365152455 	1.912873399e-07 	8.321193811e-06
0.5308197445 	0.004035393217 	-0.001859338719 	-8.688663084e-08 	0.003964039244 	1.867561778e-07 	7.556560547e-06
0.5338909942 	0.003656696553 	-0.00166761993 	-9.714209501e-08 	0.003590015395 	1.797325504e-07 	6.843567137e-06
0.5370318812 	0.003303171535 	-0.001466270186 	-1.043466749e-07 	0.003241948867 	1.726763096e-07 	6.180055594e-06
0.5402439843 	0.002975557392 	-0.001272652131 	-9.877482617e-08 	0.002920205333 	1.633025513e-07 	5.566722994e-06
0.5435289183 	0.002678779014 	-0.001091031753 	-9.579458998e-08 	0.002629829146 	1.49102855e-07 	5.013185276e-06
0.5468883345 	0.002419120308 	-0.0009216396407 	-9.046760798e-08 	0.002377037548 	1.301507853e-07 	4.53129423e-06
0.5503239217 	0.002201367612 	-0.0007672666289 	-8.323112174e-08 	0.002166344881 	1.076974971e-07 	4.129655447e-06
0.5538374071 	0.002027152479 	-0.0006292677115 	-7.495849121e-08 	0.0019991852 	8.395078905e-08 	3.811002637e-06
0.5574305568 	0.001894408021 	-0.0005074368796 	-6.658032004e-08 	0.001873355816 	6.129799883e-08 	3.571136857e-06
0.5611051773 	0.001797982777 	-0.0004003613307 	-5.886069607e-08 	0.00178366973 	4.156873749e-08 	3.400170251e-06
0.5648631156 	0.001730955524 	-0.0003065868153 	-5.125316805e-08 	0.001723284172 	2.572796445e-08 	3.285058594e-06
0.5687062611 	0.001686639266 	-0.0002250947461 	-4.447878918e-08 	0.001685622981 	1.308486407e-08 	3.213265897e-06
0.5726365456 	0.001659979506 	-0.0001530580276 	-4.012134253e-08 	0.001665635466 	2.981641841e-09 	3.175164137e-06
0.576655945 	0.001646615767 	-8.723462371e-05 	-3.685520662e-08 	0.001658791789 	-4.226076623e-09 	3.162118188e-06
0.5807664798 	0.001642429159 	-2.652170189e-05 	-3.3819892e-08 	0.001660830887 	-9.013260775e-09 	3.166005274e-06
0.5849702164 	0.001644411204 	2.978505003e-05 	-3.138425477e-08 	0.001668738528 	-1.224475486e-08 	3.181079436e-06
0.5892692681 	0.001650639189 	8.257387897e-05 	-2.939942677e-08 	0.001680610071 	-1.445683154e-08 	3.203709897e-06
0.593665796 	0.001659849825 	0.0001324704926 	-2.773342206e-08 	0.001695194308 	-1.59738558e-08 	3.231511506e-06
0.5981620103 	0.001671188495 	0.0001799180296 	-2.62908353e-08 	0.001711643064 	-1.700067004e-08 	3.262867406e-06
0.6027601713 	0.001684060268 	0.0002252328453 	-2.500419671e-08 	0.00172936597 	-1.767068618e-08 	3.29665219e-06
0.6074625904 	0.001698039739 	0.0002686420801 	-2.382539914e-08 	0.001747941427 	-1.807282755e-08 	3.332062175e-06
0.6122716317 	0.001712814882 	0.0003103092946 	-2.271942768e-08 	0.001767060706 	-1.826727638e-08 	3.368508835e-06
0.6171897127 	0.001728151216 	0.0003503524371 	-2.166034917e-08 	0.001786492159 	-1.829515299e-08 	3.405550586e-06
0.6222193057 	0.001743868552 	0.0003888567954 	-2.062876277e-08 	0.001806057935 	-1.818474486e-08 	3.442848393e-06
0.6273629392 	0.001759825749 	0.0004258845797 	-1.961009296e-08 	0.001825618666 	-1.795563385e-08 	3.480136582e-06
0.6326231989 	0.001775910717 	0.0004614821878 	-1.859339717e-08 	0.001845063399 	-1.762146649e-08 	3.517203646e-06
0.6380027291 	0.001792033936 	0.0004956858545 	-1.757052617e-08 	0.00186430306 	-1.719183046e-08 	3.553879789e-06
0.6435042341 	0.001808124401 	0.000528526155 	-1.653554017e-08 	0.00188326637 	-1.667354261e-08 	3.590029127e-06
0.6491304798 	0.001824127287 	0.0005600316886 	-1.548430714e-08 	0.001901897493 	-1.607154884e-08 	3.625545227e-06
0.6548842942 	0.001840002858 	0.0005902321632 	-1.441422556e-08 	0.001920154981 	-1.538956248e-08 	3.660349074e-06
0.6607685701 	0.001855726321 	0.0006191610346 	-1.332402931e-08 	0.001938011672 	-1.463052052e-08 	3.694388888e-06
0.6667862654 	0.001871288396 	0.0006468578079 	-1.221364589e-08 	0.001955455342 	-1.379690788e-08 	3.727641372e-06
0.6729404052 	0.001886696475 	0.0006733700736 	-1.10840884e-08 	0.001972489965 	-1.289098282e-08 	3.760114098e-06
0.6792340834 	0.001901976265 	0.0006987553295 	-9.937366007e-09 	0.001989137462 	-1.191492589e-08 	3.791848855e-06
0.6856704637 	0.001917173849 	0.0007230826173 	-8.77639892e-09 	0.002005439882 	-1.087092693e-08 	3.822925799e-06
0.6922527818 	0.001932358133 	0.0007464339913 	-7.60492434e-09 	0.002021461963 	-9.761218953e-09 	3.853468338e-06
0.6989843466 	0.00194762366 	0.0007689058218 	-6.427380269e-09 	0.002037294052 	-8.588062754e-09 	3.8836487e-06
0.7058685423 	0.001963093796 	0.0007906099294 	-5.248755616e-09 	0.002053055384 	-7.353681889e-09 	3.91369418e-06
0.7129088294 	0.001978924327 	0.0008116745424 	-4.074397439e-09 	0.002068897757 	-6.06014408e-09 	3.943894145e-06
0.7201087472 	0.001995307529 	0.000832245066 	-2.909768866e-09 	0.002085009662 	-4.7091812e-09 	3.974607914e-06
0.7274719152 	0.002012476893 	0.0008524848102 	-1.760139503e-09 	0.002101620836 	-3.301934752e-09 	4.006273429e-06
0.7350020349 	0.002030611828 	0.0008724621898 	-6.360420289e-10 	0.002118912351 	-1.846578274e-09 	4.039235861e-06
0.7425321576 	0.002049684906 	0.0008920333915 	4.413292998e-10 	0.002136878872 	-3.68211146e-10 	4.073485046e-06
0.7498953284 	0.002069623696 	0.0009110846196 	1.454964787e-09 	0.002155486443 	1.108338209e-09 	4.108956247e-06
0.7570952489 	0.002090536113 	0.000929722588 	2.4038164e-09 	0.002174875112 	2.577011688e-09 	4.145916438e-06
0.7641355384 	0.00211261577 	0.0009481227891 	3.293969605e-09 	0.002195261416 	4.04167302e-09 	4.1847784e-06
0.7710197363 	0.00213604405 	0.000966433988 	4.132249113e-09 	0.002216845979 	5.508196414e-09 	4.225924577e-06
0.7777513032 	0.002160992505 	0.0009847825115 	4.925796992e-09 	0.002239816466 	6.984519895e-09 	4.269712709e-06
0.7843336232 	0.002187625691 	0.001003276112 	5.681493315e-09 	0.002264350823 	8.480728722e-09 	4.316482012e-06
0.7907700052 	0.002216104337 	0.001022007306 	6.405193817e-09 	0.002290620871 	1.000906514e-08 	4.366560024e-06
0.7970636849 	0.002246588789 	0.001041056095 	7.101013171e-09 	0.002318796108 	1.158370967e-08 	4.420269857e-06
0.8032178261 	0.002279242556 	0.001060491935 	7.771288986e-09 	0.002349047946 	1.322053136e-08 	4.47793827e-06
0.8092355226 	0.002314234969 	0.001080374906 	8.41826761e-09 	0.002381556271 	1.493756203e-08 	4.539908173e-06
0.8151197995 	0.002351743154 	0.001100756319 	9.048599367e-09 	0.002416517905 	1.675036515e-08 	4.606554764e-06
0.8208736149 	0.00239197303 	0.001121830875 	1.009540923e-08 	0.002454117948 	1.866254379e-08 	4.678230895e-06
0.8264998613 	0.002435229865 	0.001144468454 	1.06274239e-08 	0.002494507261 	2.065600127e-08 	4.755224153e-06
0.8320013671 	0.002482041218 	0.001167275571 	1.100710154e-08 	0.002537852176 	2.283585827e-08 	4.837851606e-06
0.8373808978 	0.002532931342 	0.001190049714 	1.22374458e-08 	0.002584587368 	2.534599485e-08 	4.926941872e-06
0.8426411579 	0.002588240687 	0.001214776758 	1.360396673e-08 	0.002635329745 	2.821662026e-08 	5.023670946e-06
0.8477847917 	0.002648261362 	0.001241641305 	1.510874623e-08 	0.002690594297 	3.143009246e-08 	5.129020542e-06
0.8528143849 	0.002713269281 	0.001270806057 	1.675267823e-08 	0.002750810463 	3.494814984e-08 	5.243809291e-06
0.857732466 	0.00278353906 	0.001302417841 	1.853786561e-08 	0.002816333211 	3.875981787e-08 	5.36871386e-06
0.8625415073 	0.002859345252 	0.001336610942 	2.046899631e-08 	0.002887461525 	4.28764758e-08 	5.504304195e-06
0.8672439263 	0.002940964171 	0.001373511718 	2.255205526e-08 	0.002964458171 	4.731495409e-08 	5.651081203e-06
0.8718420871 	0.003028679258 	0.001413244927 	2.479198058e-08 	0.003047572493 	5.208765796e-08 	5.809520201e-06
0.8763383011 	0.003122788592 	0.001455940227 	2.719040348e-08 	0.003137061343 	5.719941167e-08 	5.980110822e-06
0.8807348287 	0.003223609946 	0.001501736735 	2.974347853e-08 	0.003233203639 	6.264475513e-08 	6.163384758e-06
0.8850338799 	0.003331479193 	0.001550783998 	3.243986394e-08 	0.003336305851 	6.840361423e-08 	6.35992623e-06
0.889237616 	0.003446740405 	0.00160323873 	3.52594376e-08 	0.003446697395 	7.443761734e-08 	6.570363195e-06
0.8933481502 	0.003569728051 	0.001659257443 	3.817303596e-08 	0.003564716325 	8.068893456e-08 	6.795340077e-06
0.8973675489 	0.003700742226 	0.001718985434 	4.114251296e-08 	0.003690686314 	8.708033017e-08 	7.035473888e-06
0.9012978327 	0.003840017324 	0.001782542318 	4.412000363e-08 	0.00382488543 	9.351353338e-08 	7.291294701e-06
0.9051409774 	0.003987684111 	0.001850004041 	4.704608264e-08 	0.003967506548 	9.986482887e-08 	7.563170192e-06
0.9088989149 	0.004143725887 	0.001921381639 	4.984774531e-08 	0.004118609838 	1.059798714e-07 	7.851215059e-06
0.9125735344 	0.00430793146 	0.001996597995 	5.243788326e-08 	0.004278070041 	1.116717025e-07 	8.155190527e-06
0.9161666832 	0.004479851435 	0.00207546579 	5.47184875e-08 	0.004445525757 	1.167272422e-07 	8.474407662e-06
0.9196801676 	0.004658770383 	0.002157672844 	5.659006563e-08 	0.004620344692 	1.209278394e-07 	8.80766114e-06
0.9231157538 	0.004843710162 	0.002242782317 	5.796607218e-08 	0.004801621608 	1.240811253e-07 	9.153225327e-06
0.9264751689 	0.005033466108 	0.002330248718 	5.878420133e-08 	0.004988211278 	1.26046213e-07 	9.508917097e-06
0.9297601017 	0.005226658134 	0.002419441311 	5.900902838e-08 	0.005178778148 	1.2674005e-07 	9.872190517e-06
0.9329722036 	0.00542178168 	0.002509667703 	5.863068868e-08 	0.005371846909 	1.261349386e-07 	1.024023324e-05
0.9361130893 	0.005617259704 	0.002600198086 	5.766398895e-08 	0.005565854712 	1.242568118e-07 	1.061006603e-05
0.9391843379 	0.005811497801 	0.002690291054 	5.61464474e-08 	0.005759206992 	1.211811531e-07 	1.097864922e-05
0.9421874931 	0.00600293568 	0.002779217849 	5.413409754e-08 	0.005950330097 	1.170240639e-07 	1.134298297e-05
0.9451240648 	0.00619008777 	0.002866281608 	5.169611638e-08 	0.00613771329 	1.119307451e-07 	1.170018742e-05
0.9479955291 	0.006371569789 	0.002950830095 	4.890941746e-08 	0.00631993679 	1.06063863e-07 	1.204755606e-05
0.9508033297 	0.006546110126 	0.003032261351 	4.585381532e-08 	0.006495684568 	9.959312748e-08 	1.238258017e-05
0.9535488779 	0.006712546353 	0.003110022376 	4.26081099e-08 	0.006663742039 	9.268684853e-08 	1.270294442e-05
0.956233554 	0.0068698087 	0.003183601612 	3.924723661e-08 	0.006822980007 	8.550579965e-08 	1.300649624e-05
0.9588587076 	0.007016894552 	0.00325251719 	3.584051137e-08 	0.006972329329 	7.819951944e-08 	1.329119756e-05
0.9614256584 	0.007152841277 	0.003316305535 	3.245095317e-08 	0.007110761324 	7.090460619e-08 	1.355508742e-05
0.9639356968 	0.007267034311 	0.003369963035 	2.940461527e-08 	0.007227368659 	6.432827338e-08 	1.377737341e-05
0.9655695775 	0.007351843924 	0.003409869674 	2.700362229e-08 	0.007314211091 	5.913070067e-08 	1.394291922e-05
0.9671427194 	0.007419776536 	0.003441877061 	2.498229369e-08 	0.007383953025 	5.474409445e-08 	1.407586673e-05
0.9686573803 	0.00748059955 	0.003470571297 	2.307861206e-08 	0.00744655274 	5.060425016e-08 	1.419519918e-05
0.9701157342 	0.007534426879 	0.003496000883 	2.129423231e-08 	0.007502106088 	4.671604491e-08 	1.430109931e-05
0.9715198744 	0.007581330156 	0.0035181956 	1.962878474e-08 	0.007550669445 	4.307998216e-08 	1.439367456e-05
0.9728718162 	0.00762134499 	0.003537169586 	1.808026095e-08 	0.007592267997 	3.969293787e-08 	1.447297296e-05
0.9741735001 	0.007654469634 	0.003552920422 	1.664537446e-08 	0.007626893164 	3.654892032e-08 	1.453897816e-05
0.9754267944 	0.007680658846 	0.003565426059 	1.531987807e-08 	0.007654495412 	3.363975121e-08 	1.459159571e-05
0.9766334979 	0.007699815028 	0.00357464058 	1.409883225e-08 	0.007674974895 	3.095564587e-08 	1.46306353e-05
0.9777953427 	0.007711777755 	0.003580489264 	1.297682665e-08 	0.00768817069 	2.848569046e-08 	1.465579015e-05
0.9789139964 	0.007716311954 	0.003582863041 	1.194816064e-08 	0.007693848781 	2.621823127e-08 	1.466661417e-05
0.9799910645 	0.007713094532 	0.003581612228 	1.100698933e-08 	0.00769168849 	2.414119192e-08 	1.466249606e-05
0.981028093 	0.007701698914 	0.003576539304 	1.014744048e-08 	0.007681266869 	2.224233057e-08 	1.464262955e-05
0.9820265703 	0.007681576814 	0.003567390403 	9.363706826e-09 	0.007662040322 	2.050944616e-08 	1.460597841e-05
0.9829879297 	0.007652036376 	0.003553845114 	8.650117144e-09 	0.007633322621 	1.893054044e-08 	1.455123449e-05
0.9839135509 	0.007612215687 	0.00353550415 	8.00118832e-09 	0.007594258312 	1.749394023e-08 	1.447676706e-05
0.9848047624 	0.007561050427 	0.00351187428 	7.411668162e-09 	0.007543790287 	1.618840037e-08 	1.438056098e-05
0.9856628435 	0.007497234388 	0.003482349972 	6.876559351e-09 	0.007480620248 	1.50031666e-08 	1.426014132e-05
0.9864890258 	0.00741917202 	0.003446191334 	6.391099387e-09 	0.007403161237 	1.392794466e-08 	1.411248292e-05
0.987284495 	0.007324921386 	0.003402497622 	5.950731797e-09 	0.007309480597 	1.295285212e-08 	1.393390158e-05
0.988050393 	0.00721212588 	0.0033501756 	5.551086826e-09 	0.007197231753 	1.20683945e-08 	1.371992409e-05
0.988787819 	0.007077935575 	0.003287903211 	5.18792298e-09 	0.007063575635 	1.126536729e-08 	1.346513838e-05
0.9894978315 	0.00691892082 	0.003214090065 	4.857014419e-09 	0.006905094398 	1.053466542e-08 	1.316302909e-05
0.9901814495 	0.006730984436 	0.003126838367 	4.553978335e-09 	0.006717703752 	9.867018655e-09 	1.280581044e-05
0.9908396543 	0.006509286745 	0.003023912952 	4.274010005e-09 	0.006496578121 	9.25265317e-09 	1.238428353e-05
0.9914733905 	0.006248207902 	0.002902659589 	4.014333018e-09 	0.00623611304 	8.681014622e-09 	1.188776469e-05
0.9920835679 	0.005941408269 	0.002760121593 	3.769170134e-09 	0.005929985371 	8.140068586e-09 	1.130420027e-05
0.9926710621 	0.005582071782 	0.002593184923 	3.529715398e-09 	0.005571396222 	7.615287369e-09 	1.062062969e-05
0.9932367165 	0.005163431396 	0.002398708358 	3.28821783e-09 	0.005153595444 	7.088466391e-09 	9.824185285e-06
0.9937813429 	0.004721554895 	0.002193436518 	3.054741799e-09 	0.004712584697 	6.58090178e-09 	8.983496228e-06
0.9941324681 	0.004314862867 	0.002003006544 	2.728193658e-09 	0.004306677676 	6.123277573e-09 	8.20972463e-06
0.9944835934 	0.003913734095 	0.001803443932 	2.42395921e-09 	0.003906315772 	5.664070502e-09 	7.446523566e-06
0.9948347186 	0.003469444586 	0.001571151198 	2.213068844e-09 	0.003462871058 	5.149610835e-09 	6.601194693e-06
0.9951858439 	0.002984645275 	0.001314712036 	1.947204517e-09 	0.002978990813 	4.571204985e-09 	5.678784457e-06
0.9955369691 	0.002469014767 	0.001040336427 	1.63531621e-09 	0.002464336307 	3.921349536e-09 	4.697709929e-06
0.9958880943 	0.001941775286 	0.0007631840941 	1.280100882e-09 	0.001938094299 	3.205820194e-09 	3.6945464e-06
0.9962392196 	0.001432274746 	0.0005063541214 	9.056771566e-10 	0.001429557943 	2.454743953e-09 	2.725134764e-06
0.9965903448 	0.0009756054344 	0.0002951742377 	5.58810166e-10 	0.0009737535387 	1.726314774e-09 	1.856244886e-06
0.9969414701 	0.0006026980694 	0.0001462975886 	2.894084756e-10 	0.0006015532097 	1.091889391e-09 	1.146727611e-06
0.9972925953 	0.0003296892647 	5.926427474e-05 	1.206748346e-10 	0.0003290626136 	6.061217557e-10 	6.272847998e-07
0.9976437206 	0.000153698178 	1.856081241e-05 	3.837142194e-11 	0.0001534059037 	2.847053428e-10 	2.924342894e-07
0.9979948458 	5.694674204e-05 	4.092354593e-06 	8.503746506e-12 	5.683841925e-05 	1.05811336e-10 	1.083498245e-07
0.9983459711 	1.464573157e-05 	5.300464641e-07 	1.100541206e-12 	1.461786832e-05 	2.723838022e-11 	2.786571984e-08
0.9986970963 	1.977812596e-06 	2.655587196e-08 	5.493797445e-14 	1.974049582e-06 	3.67902629e-12 	3.763087163e-09
0.9990482216 	9.673551847e-08 	2.403397611e-10 	4.949106178e-16 	9.655146477e-08 	1.799450571e-13 	1.840539269e-10
