0.4709558481 	1.308531564e-07 	-3.924152043e-10 	6.706294295e-17 	1.306041888e-07 	-5.02765611e-14 	2.489678833e-10
0.4709558481 	1.308531564e-07 	-3.924152043e-10 	6.706294294e-17 	1.306041888e-07 	-5.02765611e-14 	2.489678833e-10
0.4713069734 	3.210297557e-06 	-5.198617418e-08 	1.157056677e-14 	3.204189542e-06 	-1.233872479e-12 	6.108075825e-09
0.4716580986 	2.3747531e-05 	-1.034528401e-06 	2.812259258e-13 	2.370234914e-05 	-9.138859202e-12 	4.518326518e-08
0.4720092239 	9.215902998e-05 	-7.93283827e-06 	2.521473079e-12 	9.198369265e-05 	-3.555943617e-11 	1.753464837e-07
0.4723603491 	0.0002476800597 	-3.546820056e-05 	1.273281936e-11 	0.0002472088322 	-9.587809763e-11 	4.712487423e-07
0.4727114744 	0.000526756362 	-0.0001104481982 	4.317048748e-11 	0.0005257540988 	-2.040716249e-10 	1.002233438e-06
0.4730625996 	0.0009490111469 	-0.0002627928442 	1.075843813e-10 	0.0009472051412 	-3.653415068e-10 	1.805636261e-06
0.4734137249 	0.001504484627 	-0.0005062725853 	2.094840048e-10 	0.001501620711 	-5.695265199e-10 	2.862506429e-06
0.4737648501 	0.002153240594 	-0.0008256617933 	3.361291734e-10 	0.002149140097 	-7.933889247e-10 	4.096858348e-06
0.4741159754 	0.002840929126 	-0.00118454124 	4.672266657e-10 	0.002835516365 	-1.012142687e-09 	5.405282282e-06
0.4744671006 	0.003518632135 	-0.001545089352 	5.87684738e-10 	0.003511924192 	-1.209518087e-09 	6.694703599e-06
0.4748182259 	0.004153790069 	-0.001881632122 	6.953102296e-10 	0.004145865736 	-1.379332848e-09 	7.903172376e-06
0.4751693511 	0.004730467707 	-0.002182944141 	7.595492769e-10 	0.004721435842 	-1.522681559e-09 	9.00036897e-06
0.4755204764 	0.005244845857 	-0.002436521806 	8.029269581e-10 	0.005234822584 	-1.645703868e-09 	9.979026789e-06
0.4758716016 	0.005700417728 	-0.002648157643 	8.5963809e-10 	0.005689512368 	-1.751133923e-09 	1.084579189e-05
0.4762227269 	0.00615470718 	-0.002859196918 	9.142569096e-10 	0.006142916195 	-1.84868077e-09 	1.17101056e-05
0.4767673536 	0.006638693991 	-0.003084033722 	9.684918215e-10 	0.00662594967 	-1.939001187e-09 	1.263090166e-05
0.4773330083 	0.007087410902 	-0.003292501218 	1.012100964e-09 	0.007073768636 	-2.001543058e-09 	1.348456907e-05
0.4779205028 	0.0074647164 	-0.003467802069 	1.038939508e-09 	0.00745030122 	-2.02584307e-09 	1.420234483e-05
0.4785306805 	0.007780728951 	-0.00361458227 	1.048270579e-09 	0.007765645257 	-2.011320365e-09 	1.480347821e-05
0.479164417 	0.008044660468 	-0.003737141323 	1.040072484e-09 	0.00802899386 	-1.957708679e-09 	1.530549384e-05
0.4798226221 	0.008264524507 	-0.003839246704 	1.014497378e-09 	0.008248344096 	-1.865060221e-09 	1.572363636e-05
0.4805062404 	0.008447106837 	-0.003924036334 	9.715342419e-10 	0.008430467583 	-1.733805078e-09 	1.607081434e-05
0.4812162531 	0.008598066643 	-0.003994134107 	9.113941321e-10 	0.0085810115 	-1.564783277e-09 	1.635779289e-05
0.4819536793 	0.008722081035 	-0.004051710824 	8.344749601e-10 	0.008704642815 	-1.359201531e-09 	1.659346854e-05
0.4827195775 	0.008822996983 	-0.004098552716 	7.413174312e-10 	0.008805199914 	-1.118544521e-09 	1.678515832e-05
0.483515047 	0.008903972178 	-0.004136126173 	6.325520959e-10 	0.008885833179 	-8.444534476e-10 	1.693886773e-05
0.4843412294 	0.008967597917 	-0.00416563459 	5.088430873e-10 	0.008949127626 	-5.385918051e-10 	1.705952454e-05
0.4851993106 	0.009016002202 	-0.004188066171 	3.708224025e-10 	0.008997205796 	-2.024907281e-10 	1.715117489e-05
0.4860905223 	0.009050934154 	-0.00420423311 	2.190141426e-10 	0.009031811999 	1.626233821e-10 	1.721714393e-05
0.4870161436 	0.009073833009 	-0.004214803629 	5.376645958e-11 	0.009054381164 	5.559782547e-10 	1.726016703e-05
0.487977503 	0.009085884021 	-0.00422032794 	-1.24807856e-10 	0.009066094636 	9.773789449e-10 	1.728249617e-05
0.4889759804 	0.009088063369 	-0.00422125911 	-3.168827494e-10 	0.009067924991 	1.427306341e-09 	1.728598533e-05
0.4900130089 	0.00908117437 	-0.004217969875 	-5.229562327e-10 	0.009060672181 	1.906979502e-09 	1.727215946e-05
0.491090077 	0.009065876741 	-0.004210766242 	-7.438715879e-10 	0.009044992739 	2.418379777e-09 	1.724227009e-05
0.4922087306 	0.00904271039 	-0.004199898532 	-9.808218403e-10 	0.009021423532 	2.964238272e-09 	1.719734063e-05
0.4933705753 	0.009012114923 	-0.004185570454 	-1.235338322e-09 	0.008990401235 	3.547991178e-09 	1.713820351e-05
0.4945772787 	0.008974445817 	-0.004167946613 	-1.50926524e-09 	0.008952278491 	4.173709394e-09 	1.706553096e-05
0.4958305727 	0.008929987973 	-0.004147158815 	-1.804722945e-09 	0.008907337453 	4.846009661e-09 	1.697986085e-05
0.4971322564 	0.008878967039 	-0.004123311335 	-2.124063152e-09 	0.008855801133 	5.569953049e-09 	1.68816183e-05
0.4984841978 	0.008821558471 	-0.004096485146 	-2.469820305e-09 	0.008797842511 	6.350930932e-09 	1.677113306e-05
0.4998883377 	0.008757893638 	-0.004066740796 	-2.844665523e-09 	0.008733590817 	7.194541647e-09 	1.664865147e-05
0.5013466912 	0.008688061203 	-0.004034119171 	-3.251374804e-09 	0.008663133533 	8.106542104e-09 	1.651434031e-05
0.5028613516 	0.008612100823 	-0.003998638748 	-3.692833167e-09 	0.008586510975 	9.093110066e-09 	1.636827642e-05
0.5044344929 	0.008529985398 	-0.003960287105 	-4.172112166e-09 	0.008503696597 	1.016112172e-08 	1.621040919e-05
0.506068373 	0.008430433986 	-0.003913796614 	-4.75867559e-09 	0.008403317255 	1.1463618e-08 	1.601905827e-05
0.5085784129 	0.008300239862 	-0.003853000608 	-5.537692857e-09 	0.008272062131 	1.318596389e-08 	1.576884952e-05
0.5111453651 	0.008149293532 	-0.003782518354 	-6.459225548e-09 	0.008119908267 	1.521417391e-08 	1.547880197e-05
0.5137705202 	0.007989329904 	-0.003707830662 	-7.45918916e-09 	0.007958690246 	1.740558179e-08 	1.517147561e-05
0.5164551977 	0.007820743855 	-0.003629123828 	-8.539796617e-09 	0.007788813835 	1.976509892e-08 	1.484764396e-05
0.5192007473 	0.007643800971 	-0.003546524569 	-9.703338125e-09 	0.007610558867 	2.229712837e-08 	1.450784045e-05
0.5220085492 	0.007458652762 	-0.003460106584 	-1.095242613e-08 	0.007424090947 	2.500665932e-08 	1.415238076e-05
0.5248800149 	0.007265355763 	-0.003369899482 	-1.229035454e-08 	0.007229480806 	2.790030079e-08 	1.378139975e-05
0.5278165879 	0.007063886028 	-0.003275895629 	-1.372156923e-08 	0.007026719336 	3.09873779e-08 	1.339488003e-05
0.5308197445 	0.006854145463 	-0.003178053185 	-1.525215827e-08 	0.00681572434 	3.428098029e-08 	1.299266493e-05
0.5338909942 	0.006635959217 	-0.003076295094 	-1.689017742e-08 	0.006596338717 	3.77984618e-08 	1.257445495e-05
0.5370318812 	0.00640906638 	-0.002970505069 	-1.864553157e-08 	0.006368322443 	4.156066234e-08 	1.213979256e-05
0.5402439843 	0.006173111325 	-0.002860523908 	-2.052897172e-08 	0.006131345347 	4.558902217e-08 	1.168804835e-05
0.5435289183 	0.005927652398 	-0.002746153783 	-2.25493251e-08 	0.005884996839 	4.989926043e-08 	1.121843963e-05
0.5468883345 	0.005672220508 	-0.002627185613 	-2.470694592e-08 	0.00562884517 	5.448823627e-08 	1.073014335e-05
0.5503239217 	0.005406482931 	-0.002503475758 	-2.697921172e-08 	0.005362604317 	5.930532706e-08 	1.022261429e-05
0.5538374071 	0.005130940851 	-0.002375271581 	-2.919835155e-08 	0.005086837542 	6.399405493e-08 	9.696926168e-06
0.5574305568 	0.004848250195 	-0.002243825799 	-3.102263372e-08 	0.004804278185 	6.783222205e-08 	9.1582895e-06
0.5611051773 	0.004563310183 	-0.002111435375 	-3.220727129e-08 	0.004519907822 	7.030625628e-08 	8.616200553e-06
0.5648631156 	0.004281598916 	-0.00198066027 	-3.27148646e-08 	0.004239257862 	7.133115014e-08 	8.081203726e-06
0.5687062611 	0.004007795959 	-0.001853657489 	-3.264199843e-08 	0.00396689642 	7.109582916e-08 	7.562007119e-06
0.5726365456 	0.003744345256 	-0.00172428143 	-3.669336963e-08 	0.00370508014 	7.037565027e-08 	7.06291252e-06
0.576655945 	0.0034907366 	-0.001584740872 	-3.969779067e-08 	0.003453284692 	6.982779567e-08 	6.582920414e-06
0.5807664798 	0.003246014553 	-0.00144331197 	-3.890833284e-08 	0.00321059319 	6.909772798e-08 	6.120282959e-06
0.5849702164 	0.00301088999 	-0.001305536965 	-3.960370606e-08 	0.002977811603 	6.775550165e-08 	5.676536555e-06
0.5892692681 	0.002787087532 	-0.001168541239 	-3.995353787e-08 	0.002756744569 	6.567309492e-08 	5.255121347e-06
0.593665796 	0.002576814433 	-0.001033569004 	-3.984805124e-08 	0.002549569398 	6.263761218e-08 	4.86018789e-06
0.5981620103 	0.002382780824 	-0.0009020068179 	-3.919728703e-08 	0.002358978799 	5.846960539e-08 	4.496869234e-06
0.6027601713 	0.002207927597 	-0.0007752664588 	-3.796236525e-08 	0.002187877277 	5.312269575e-08 	4.170702179e-06
0.6074625904 	0.002054920806 	-0.0006546096757 	-3.617681388e-08 	0.002038877485 	4.675194783e-08 	3.886667162e-06
0.6122716317 	0.001925594538 	-0.000540963898 	-3.394849993e-08 	0.001913750288 	3.971215576e-08 	3.648139949e-06
0.6171897127 	0.001820524592 	-0.0004347995489 	-3.142999638e-08 	0.00181300869 	3.24914597e-08 	3.456098462e-06
0.6222193057 	0.001738859231 	-0.0003361095935 	-2.880375011e-08 	0.001735760872 	2.559226746e-08 	3.308842652e-06
0.6273629392 	0.001678436281 	-0.0002447353138 	-2.600771624e-08 	0.001679848728 	1.945608606e-08 	3.202258566e-06
0.6326231989 	0.001636691573 	-0.0001605051766 	-2.331099456e-08 	0.001642742273 	1.40135455e-08 	3.13152335e-06
0.6380027291 	0.001611731559 	-8.209034659e-05 	-2.11151083e-08 	0.001622504881 	9.236774348e-09 	3.092945254e-06
0.6435042341 	0.001601412483 	-7.865556552e-06 	-1.912174024e-08 	0.001616811714 	5.544114161e-09 	3.082092497e-06
0.6491304798 	0.001602789217 	6.274812917e-05 	-1.718919313e-08 	0.001622571702 	2.960570456e-09 	3.093072635e-06
0.6548842942 	0.001613293593 	0.0001302473333 	-1.542967903e-08 	0.001637174873 	1.222281243e-09 	3.120910338e-06
0.6607685701 	0.001631128915 	0.0001952545977 	-1.381341883e-08 	0.001658802897 	1.279692155e-10 	3.162139363e-06
0.6667862654 	0.00165505679 	0.0002582677229 	-1.231021524e-08 	0.001686203238 	-4.669665595e-10 	3.214372028e-06
0.6729404052 	0.001684243482 	0.0003196858814 	-1.08946403e-08 	0.001718530473 	-6.650721665e-10 	3.275996722e-06
0.6792340834 	0.001718152318 	0.0003798339827 	-9.546228859e-09 	0.00175523899 	-5.378051654e-10 	3.345973359e-06
0.6856704637 	0.001756471403 	0.0004389835278 	-8.247911584e-09 	0.001796009301 	-1.334945592e-10 	3.423692902e-06
0.6922527818 	0.001799066737 	0.0004973707439 	-6.984213081e-09 	0.001840699007 	5.172570175e-10 	3.508883903e-06
0.6989843466 	0.001845954139 	0.0005552133166 	-5.739554686e-09 	0.001889312163 	1.398139431e-09 	3.601554089e-06
0.7058685423 	0.001897285894 	0.0006127271599 	-4.496507524e-09 	0.001941982935 	2.505227022e-09 	3.70195922e-06
0.7129088294 	0.001953350009 	0.0006701448328 	-3.233734101e-09 	0.001998971333 	3.846329546e-09 	3.810594946e-06
0.7201087472 	0.00201458165 	0.0007277375409 	-1.923458789e-09 	0.002060670051 	5.441504621e-09 	3.928209851e-06
0.7274719152 	0.002081587737 	0.0007858389111 	-5.360848336e-10 	0.002127623074 	7.325785397e-09 	4.055840921e-06
0.7350020349 	0.002154756278 	0.000844503468 	9.3433908e-10 	0.002200141117 	9.515804972e-09 	4.194080467e-06
0.7425321576 	0.002233472587 	0.0009031540013 	2.507348831e-09 	0.002277571217 	1.191371033e-08 	4.341683759e-06
0.7498953284 	0.002316637825 	0.0009613928144 	4.23838246e-09 	0.002358867297 	1.437463076e-08 	4.496656682e-06
0.7570952489 	0.002403826983 	0.001019549385 	6.101226181e-09 	0.002443713512 	1.6884244e-08 	4.658397148e-06
0.7641355384 	0.002495157223 	0.00107808227 	8.014202799e-09 	0.002532335272 	1.949947971e-08 	4.827334855e-06
0.7710197363 	0.002590856271 	0.001137309211 	9.938288706e-09 	0.002625049091 	2.223726931e-08 	5.004073162e-06
0.7777513032 	0.002691174621 	0.001197475789 	1.184803347e-08 	0.002722177499 	2.508702318e-08 	5.189226904e-06
0.7843336232 	0.002796353374 	0.001258758873 	1.371700214e-08 	0.002824023737 	2.802941919e-08 	5.383374139e-06
0.7907700052 	0.002906609072 	0.001321275125 	1.551856603e-08 	0.002930865904 	3.104198923e-08 	5.587045005e-06
0.7970636849 	0.003022140369 	0.001385066315 	1.722247709e-08 	0.003042954564 	3.409961186e-08 	5.800717144e-06
0.8032178261 	0.003143105977 	0.001455088138 	1.948731445e-08 	0.003160440349 	3.715719648e-08 	6.024677704e-06
0.8092355226 	0.003270369786 	0.001523375898 	2.055808689e-08 	0.003283798127 	4.024490497e-08 	6.259831914e-06
0.8151197995 	0.003405625692 	0.001585792489 	2.097485719e-08 	0.003414527305 	4.349796358e-08 	6.509038061e-06
0.8208736149 	0.003549887067 	0.001651774072 	2.255782142e-08 	0.003554014525 	4.690084123e-08 	6.774939471e-06
0.8264998613 	0.003702964188 	0.001721874928 	2.412933493e-08 	0.00370242138 	5.030223079e-08 	7.057844185e-06
0.8320013671 	0.003863985894 	0.001795731571 	2.562632757e-08 	0.003859062682 	5.357247361e-08 	7.356446043e-06
0.8373808978 	0.004031713151 	0.001872782619 	2.699136324e-08 	0.004022757637 	5.658041949e-08 	7.668494124e-06
0.8426411579 	0.004204744262 	0.001952385964 	2.817269382e-08 	0.004192140037 	5.920649994e-08 	7.991384057e-06
0.8477847917 	0.004381637313 	0.002033880959 	2.912531078e-08 	0.004365805634 	6.134750042e-08 	8.322438952e-06
0.8528143849 	0.004560959741 	0.002116609113 	2.981087033e-08 	0.00454235099 	6.291532827e-08 	8.658983469e-06
0.857732466 	0.004741271175 	0.002199902594 	3.019393361e-08 	0.004720341155 	6.382852421e-08 	8.998282193e-06
0.8625415073 	0.004921107198 	0.002283075489 	3.02576708e-08 	0.004898288587 	6.404711803e-08 	9.337499456e-06
0.8672439263 	0.005099142099 	0.002365501687 	3.00381443e-08 	0.005074825124 	6.364735171e-08 	9.674027162e-06
0.8718420871 	0.005274430205 	0.002446730952 	2.960794755e-08 	0.005248959127 	6.278616041e-08 	1.000597497e-05
0.8763383011 	0.005446384112 	0.002526481405 	2.902286317e-08 	0.005420064711 	6.158510494e-08 	1.033214977e-05
0.8807348287 	0.005614572237 	0.002604545699 	2.831221656e-08 	0.005587680958 	6.010841374e-08 	1.065167292e-05
0.8850338799 	0.005778611218 	0.00268074015 	2.749682898e-08 	0.00575140081 	5.840132014e-08 	1.096376846e-05
0.889237616 	0.005938154347 	0.002754898619 	2.659577299e-08 	0.005910856142 	5.650491383e-08 	1.126773464e-05
0.8933481502 	0.006092898355 	0.002826875246 	2.562691811e-08 	0.006065722733 	5.445760588e-08 	1.156295341e-05
0.8973675489 	0.006242589334 	0.002896547012 	2.460704487e-08 	0.00621572533 	5.229550613e-08 	1.184890005e-05
0.9012978327 	0.00638702567 	0.002963815038 	2.355175232e-08 	0.006360640281 	5.005226577e-08 	1.212514822e-05
0.9051409774 	0.006526057784 	0.003028604472 	2.247529922e-08 	0.006500295307 	4.775873181e-08 	1.239136952e-05
0.9088989149 	0.006659585244 	0.003090863215 	2.139045656e-08 	0.006634566866 	4.544261516e-08 	1.264732843e-05
0.9125735344 	0.006787552028 	0.003150559806 	2.03084068e-08 	0.006763375817 	4.312828368e-08 	1.289287409e-05
0.9161666832 	0.00690994062 	0.003207680802 	1.923869988e-08 	0.006886682022 	4.083673137e-08 	1.312792999e-05
0.9196801676 	0.00702676548 	0.003262227884 	1.818926874e-08 	0.007004478432 	3.858571933e-08 	1.335248269e-05
0.9231157538 	0.007138066332 	0.003314214899 	1.716651574e-08 	0.007116785059 	3.639002176e-08 	1.356657033e-05
0.9264751689 	0.007243901725 	0.003363665013 	1.617550095e-08 	0.007223643189 	3.426167577e-08 	1.377027163e-05
0.9297601017 	0.007344343366 	0.003410608184 	1.522027339e-08 	0.007325110145 	3.221020959e-08 	1.396369585e-05
0.9329722036 	0.00743947185 	0.00345507915 	1.430436026e-08 	0.007421254928 	3.024306358e-08 	1.414697452e-05
0.9361130893 	0.007529374297 	0.003497116152 	1.343134748e-08 	0.007512155071 	2.836670551e-08 	1.432025546e-05
0.9391843379 	0.00761414415 	0.003536760494 	1.260537638e-08 	0.007597894947 	2.658890956e-08 	1.448369949e-05
0.9421874931 	0.007693882661 	0.003574056797 	1.183133356e-08 	0.007678565437 	2.492174421e-08 	1.463747987e-05
0.9451240648 	0.007768700616 	0.003609053365 	1.111460875e-08 	0.007754263807 	2.338225352e-08 	1.4781782e-05
0.9479955291 	0.007838717675 	0.003641801238 	1.046046962e-08 	0.00782509015 	2.198430835e-08 	1.49167967e-05
0.9508033297 	0.007904054776 	0.003672349222 	9.87297658e-09 	0.007891132737 	2.071838218e-08 	1.504269222e-05
0.9535488779 	0.007964807942 	0.003700725541 	9.159710252e-09 	0.007952434807 	1.956846168e-08 	1.515955101e-05
0.956233554 	0.008020971332 	0.003725183083 	8.107425681e-09 	0.008008941327 	1.853821788e-08 	1.526726814e-05
0.9588587076 	0.00807234422 	0.003746497177 	7.577452752e-09 	0.008060464025 	1.762995952e-08 	1.536548472e-05
0.9614256584 	0.008118447478 	0.003766750463 	7.477293924e-09 	0.008106594062 	1.680303179e-08 	1.545342139e-05
0.9639356968 	0.008155498446 	0.00378063799 	7.13603491e-09 	0.008143610401 	1.60721145e-08 	1.552398482e-05
0.9655695775 	0.008181474202 	0.003789420191 	6.869285668e-09 	0.008169525901 	1.549031407e-08 	1.557338697e-05
0.9671427194 	0.008200852814 	0.003797692406 	6.651740729e-09 	0.00818883005 	1.499369361e-08 	1.561018604e-05
0.9686573803 	0.008216524684 	0.003804135873 	6.446887502e-09 	0.008204411987 	1.451918287e-08 	1.563988955e-05
0.9701157342 	0.008228367022 	0.003808959777 	6.255736619e-09 	0.008216152283 	1.406691377e-08 	1.566226981e-05
0.9715198744 	0.00823623301 	0.003812114359 	6.077126681e-09 	0.008223907121 	1.363647149e-08 	1.567705269e-05
0.9728718162 	0.008239948196 	0.003813534679 	5.909747308e-09 	0.008227504957 	1.322697838e-08 	1.568391117e-05
0.9741735001 	0.008239306422 	0.003813139052 	5.75224592e-09 	0.008226742405 	1.283730445e-08 	1.568245753e-05
0.9754267944 	0.008234065033 	0.003810826891 	5.603300813e-09 	0.008221379443 	1.246614024e-08 	1.567223423e-05
0.9766334979 	0.008223939227 	0.003806476036 	5.461666773e-09 	0.008211133787 	1.211203845e-08 	1.565270317e-05
0.9777953427 	0.008208595361 	0.003799939456 	5.326198359e-09 	0.008195674239 	1.177345385e-08 	1.562323297e-05
0.9789139964 	0.00818764301 	0.003791041197 	5.195855513e-09 	0.008174612762 	1.144877582e-08 	1.558308394e-05
0.9799910645 	0.008160625505 	0.003779571392 	5.069696113e-09 	0.008147495054 	1.113635171e-08 	1.553139005e-05
0.981028093 	0.008127008626 	0.003765280095 	4.946860421e-09 	0.008113789263 	1.08345285e-08 	1.546713745e-05
0.9820265703 	0.008086167091 	0.003747869651 	4.826553656e-09 	0.008072872465 	1.054174821e-08 	1.538913866e-05
0.9829879297 	0.008037368372 	0.003726985231 	4.708032762e-09 	0.008024014484 	1.025653836e-08 	1.529600177e-05
0.9839135509 	0.007979753061 	0.003702216044 	4.53525836e-09 	0.00796635913 	9.975920792e-09 	1.518609464e-05
0.9848047624 	0.007912309581 	0.003674004221 	4.494845474e-09 	0.007898900021 	9.702706936e-09 	1.505749883e-05
0.9856628435 	0.00783372604 	0.003639557871 	4.507015155e-09 	0.007820328834 	9.443595355e-09 	1.490772031e-05
0.9864890258 	0.00774229655 	0.003597059875 	4.38829525e-09 	0.007728941352 	9.202101113e-09 	1.473351037e-05
0.987284495 	0.007635917557 	0.003547611284 	4.276356742e-09 	0.007622636559 	8.978056728e-09 	1.453086388e-05
0.988050393 	0.007512034859 	0.003490032052 	4.169122732e-09 	0.007498864325 	8.765601441e-09 	1.429491961e-05
0.988787819 	0.00736760104 	0.003422906945 	4.064268154e-09 	0.007354583658 	8.558092822e-09 	1.401988055e-05
0.9894978315 	0.00719899609 	0.003344555377 	3.959516265e-09 	0.007186182404 	8.350344464e-09 	1.369886096e-05
0.9901814495 	0.007001932046 	0.003252988155 	3.852598741e-09 	0.006989381648 	8.137596594e-09 	1.332370402e-05
0.9908396543 	0.006771363259 	0.003145869175 	3.741065446e-09 	0.00675914607 	7.914736517e-09 	1.288481102e-05
0.9914733905 	0.006501431206 	0.003020458415 	3.622557018e-09 	0.006489628874 	7.675770308e-09 	1.237103633e-05
0.9920835679 	0.006185498826 	0.00287365204 	3.493335999e-09 	0.006174206091 	7.41320127e-09 	1.176975284e-05
0.9926710621 	0.005816362467 	0.002702130055 	3.348641409e-09 	0.00580568813 	7.117332694e-09 	1.106725518e-05
0.9932367165 	0.005386745758 	0.002502526846 	3.183069269e-09 	0.005376812616 	6.775594016e-09 	1.024969925e-05
0.9937813429 	0.004933175467 	0.002291802044 	3.006170141e-09 	0.004924041919 	6.407492328e-09 	9.386592465e-06
0.9941324681 	0.004515266005 	0.002095642259 	2.84147204e-09 	0.004506880191 	6.056288623e-09 	8.591366266e-06
0.9944835934 	0.00410240772 	0.001890376713 	2.673416551e-09 	0.004094767693 	5.693064309e-09 	7.805765304e-06
0.9948347186 	0.003644185955 	0.001651894152 	2.470042123e-09 	0.003637380384 	5.264454391e-09 	6.933857969e-06
0.9951858439 	0.003142707024 	0.001387489729 	2.217769975e-09 	0.003136821997 	4.754652653e-09 	5.979654561e-06
0.9955369691 	0.002607187071 	0.001103012292 	1.903388125e-09 	0.002602291903 	4.150805837e-09 	4.960691636e-06
0.9958880943 	0.002056830378 	0.0008135331572 	1.524536056e-09 	0.002052958612 	3.452771274e-09 	3.913509705e-06
0.9962392196 	0.001521890978 	0.0005429097807 	1.103800798e-09 	0.001519019146 	2.68732112e-09 	2.895672681e-06
0.9965903448 	0.001039562314 	0.0003182877409 	6.956141549e-10 	0.001037596194 	1.916650295e-09 	1.977946731e-06
0.9969414701 	0.0006436140993 	0.0001585273245 	3.663714712e-10 	0.0006423944268 	1.225314576e-09 	1.224582322e-06
0.9972925953 	0.0003525775369 	6.445149641e-05 	1.543981737e-10 	0.0003519083313 	6.848946998e-10 	6.708350872e-07
0.9976437206 	0.0001644962289 	2.023040206e-05 	4.928353837e-11 	0.0001641836544 	3.228678318e-10 	3.129796778e-07
0.9979948458 	6.096788091e-05 	4.465229716e-06 	1.089939329e-11 	6.085194785e-05 	1.201651085e-10 	1.160007255e-07
0.9983459711 	1.568156418e-05 	5.78520398e-07 	1.401737586e-12 	1.565173374e-05 	3.094392364e-11 	2.983655469e-08
0.9986970963 	2.11773739e-06 	2.898227095e-08 	6.93488308e-14 	2.113708252e-06 	4.179456991e-12 	4.029315404e-09
0.9990482216 	1.035794029e-07 	2.62245201e-10 	6.182917714e-16 	1.03382328e-07 	2.044149735e-13 	1.970754509e-10
