0.3179487347 	1.507896275e-07 	-6.492313509e-10 	-9.007955278e-15 	1.499819782e-07 	6.045271273e-12 	2.859073359e-10
0.3183477642 	4.516444547e-06 	-1.087897427e-07 	6.08323091e-12 	4.420803244e-06 	-2.464791684e-11 	8.427279682e-09
0.3187468252 	3.552379396e-05 	-2.284229472e-06 	2.040238142e-10 	3.362773578e-05 	-7.430053606e-10 	6.410381074e-08
0.3191459099 	0.0001439110368 	-1.753477956e-05 	1.870762174e-09 	0.0001296064597 	-3.653878033e-09 	2.470659345e-07
0.3195450105 	0.000397625847 	-7.518639801e-05 	8.291163189e-09 	0.0003367457866 	-8.601940347e-09 	6.41931063e-07
0.3199441193 	0.000850652528 	-0.0002157448156 	2.159021697e-08 	0.0006766320273 	-9.968034335e-09 	1.289848704e-06
0.3203432286 	0.001501835895 	-0.0004590968613 	3.593144382e-08 	0.001132373021 	3.328065862e-09 	2.158617706e-06
0.3207423307 	0.002280521897 	-0.0007807585575 	3.925215537e-08 	0.001653141983 	4.295092571e-08 	3.151348087e-06
0.3211414178 	0.003077250359 	-0.001114713079 	-8.429162073e-09 	0.002182449498 	1.021633586e-07 	4.160355323e-06
0.3215404823 	0.003802605037 	-0.001398431856 	-7.803975567e-08 	0.002680745622 	1.812368196e-07 	5.110246229e-06
0.3219395166 	0.004425694163 	-0.001628765575 	-1.263539712e-07 	0.003119512592 	2.875461263e-07 	5.946658023e-06
0.322338513 	0.004944061405 	-0.001823238161 	-1.793876874e-07 	0.003482330063 	4.143692496e-07 	6.638288963e-06
0.322737464 	0.005356354847 	-0.001983451711 	-2.347008801e-07 	0.003766574741 	5.622717815e-07 	7.180138321e-06
0.3231363619 	0.005667111702 	-0.002112541107 	-2.930219818e-07 	0.003974333782 	7.308370305e-07 	7.576184797e-06
0.3235351992 	0.005883717535 	-0.002213141655 	-3.590243052e-07 	0.004110848232 	9.177853657e-07 	7.836419281e-06
0.3239339683 	0.006027276286 	-0.002294706512 	-4.511603882e-07 	0.004189549156 	1.139568236e-06 	7.986445117e-06
0.3245523426 	0.006071482176 	-0.002348385342 	-6.205688762e-07 	0.004191568301 	1.446370283e-06 	7.990294168e-06
0.3251943695 	0.00596922166 	-0.002343358339 	-8.145729186e-07 	0.004094802874 	1.808629309e-06 	7.80583237e-06
0.3258609118 	0.00571659697 	-0.002242622132 	-1.002735507e-06 	0.003925263798 	2.184980184e-06 	7.48264377e-06
0.3265528576 	0.005350281343 	-0.002072335893 	-1.206194955e-06 	0.00369918959 	2.517844379e-06 	7.051683495e-06
0.3272711207 	0.004925222687 	-0.001889495097 	-1.39284943e-06 	0.003426301557 	2.773886625e-06 	6.53148306e-06
0.3280166398 	0.004472100162 	-0.001703020002 	-1.541338423e-06 	0.003130404091 	2.92151495e-06 	5.967420249e-06
0.328790379 	0.004018613336 	-0.001519358559 	-1.614891729e-06 	0.002834660122 	2.914705396e-06 	5.403650046e-06
0.3295933264 	0.003594247115 	-0.001349439416 	-1.56508815e-06 	0.002560669492 	2.718980568e-06 	4.881347752e-06
0.330426494 	0.003221246229 	-0.00119876497 	-1.503190159e-06 	0.002327008374 	2.308776213e-06 	4.435924719e-06
0.3312909166 	0.002902090643 	-0.001050731926 	-1.548809281e-06 	0.00214834685 	1.717837622e-06 	4.095346198e-06
0.3321876502 	0.002637448028 	-0.000905878229 	-1.493021715e-06 	0.002024695455 	1.070590232e-06 	3.859632272e-06
0.3331177711 	0.002429718008 	-0.0007799242111 	-1.327869326e-06 	0.001948261148 	3.996110174e-07 	3.71392724e-06
0.3340968784 	0.002270939287 	-0.0006709840482 	-1.171459376e-06 	0.001915447145 	-2.952727917e-07 	3.651374629e-06
0.3351288678 	0.002152899235 	-0.0005786452866 	-9.663001282e-07 	0.001921442413 	-9.748703733e-07 	3.662803276e-06
0.3361995527 	0.00206752962 	-0.0005024828575 	-7.902073097e-07 	0.001959870641 	-1.620992811e-06 	3.73605816e-06
0.3373103481 	0.002005611364 	-0.0004378448078 	-7.055990061e-07 	0.002022598224 	-2.148247371e-06 	3.855634368e-06
0.3384627185 	0.001959158919 	-0.000380106644 	-6.028578434e-07 	0.002100191531 	-2.316593709e-06 	4.003548776e-06
0.3396581797 	0.00192291772 	-0.0003277457026 	-5.116184375e-07 	0.002184646987 	-2.344080571e-06 	4.164544348e-06
0.3408983008 	0.001893440141 	-0.0002799891061 	-4.399061536e-07 	0.002271120852 	-2.291835158e-06 	4.329387568e-06
0.3421847056 	0.001868295157 	-0.0002358464867 	-3.828927517e-07 	0.00235697378 	-2.190707555e-06 	4.493047111e-06
0.3435190747 	0.001845834683 	-0.0001945597685 	-3.352653938e-07 	0.002440679175 	-2.056933234e-06 	4.652612859e-06
0.3449031473 	0.001824935706 	-0.0001556117253 	-2.927017443e-07 	0.00252134528 	-1.902434485e-06 	4.806384874e-06
0.3463387234 	0.001804761403 	-0.0001187020938 	-2.515765624e-07 	0.002598590548 	-1.737619409e-06 	4.953635826e-06
0.3478276656 	0.001784745291 	-8.356010991e-05 	-2.148164678e-07 	0.002672230293 	-1.555992754e-06 	5.094013646e-06
0.3493806174 	0.001764511007 	-4.946670602e-05 	-1.93039845e-07 	0.00274218081 	-1.356307153e-06 	5.227358774e-06
0.3510293663 	0.001744004739 	-1.501523997e-05 	-1.849092415e-07 	0.002805263443 	-1.031389558e-06 	5.347611805e-06
0.3527389737 	0.001724183837 	2.06407779e-05 	-1.69095926e-07 	0.00285034523 	-6.267088477e-07 	5.433550222e-06
0.354511614 	0.001706418372 	5.664459134e-05 	-1.331876215e-07 	0.002868866862 	-3.826358578e-07 	5.4688576e-06
0.3563495367 	0.001690320072 	9.098085432e-05 	-8.485650666e-08 	0.00287107829 	-2.596196196e-07 	5.473073195e-06
0.358255069 	0.001673707958 	0.0001238944528 	-3.808580221e-08 	0.00286758958 	-1.599225094e-07 	5.466422745e-06
0.3611759101 	0.001655246193 	0.0001552806518 	-3.880973922e-09 	0.002858896592 	-3.765374756e-08 	5.449851493e-06
0.3622097425 	0.001648895874 	0.0001638952326 	3.606065451e-07 	0.002854362051 	-5.175124733e-07 	5.441207398e-06
0.3641468965 	0.001636897751 	0.0001802030113 	-3.817143344e-09 	0.002845848973 	-6.582106836e-08 	5.424979105e-06
0.3672522399 	0.001620446915 	0.000196946326 	1.373284286e-08 	0.002830897798 	-1.571813368e-07 	5.396478011e-06
0.3704242249 	0.001605719156 	0.0002079226321 	5.08299874e-08 	0.002815505033 	-2.381024345e-07 	5.367135121e-06
0.3736590732 	0.001592527066 	0.0002150579288 	9.730007572e-08 	0.002800630759 	-3.122912537e-07 	5.338780622e-06
0.3769580734 	0.001580590926 	0.0002199776368 	1.459177101e-07 	0.002786716675 	-3.819735216e-07 	5.312256511e-06
0.380348346 	0.001569623348 	0.0002237133301 	1.934148454e-07 	0.002773943298 	-4.489516691e-07 	5.287906904e-06
0.38386912 	0.001559478477 	0.0002269649101 	2.393791573e-07 	0.002762394378 	-5.14583449e-07 	5.265891453e-06
0.3874589807 	0.001550176887 	0.0002301221405 	2.835540435e-07 	0.00275215546 	-5.778396099e-07 	5.246373229e-06
0.391119375 	0.001541686022 	0.000233341008 	2.996038144e-07 	0.002743236649 	-5.856862397e-07 	5.229371496e-06
0.394868194 	0.001533854279 	0.0002366588173 	2.641937695e-07 	0.002735570467 	-4.982705927e-07 	5.214757622e-06
0.3987670626 	0.001526609563 	0.0002401678939 	2.267307619e-07 	0.002729083592 	-4.135378754e-07 	5.202391836e-06
0.4027418376 	0.001520022798 	0.0002439668233 	1.884817506e-07 	0.00272371623 	-3.33052746e-07 	5.192160153e-06
0.4067941598 	0.001514056326 	0.0002479551284 	1.494720093e-07 	0.002719451211 	-2.562528361e-07 	5.184029841e-06
0.4109726112 	0.001508591925 	0.0002521166301 	1.091661645e-07 	0.002716239165 	-1.817555147e-07 	5.177906788e-06
0.4152804221 	0.001503634584 	0.0002565467767 	6.76215796e-08 	0.002713997775 	-1.094486043e-07 	5.173634075e-06
0.4196716934 	0.001499219135 	0.0002612540467 	2.540158267e-08 	0.002712664798 	-4.001856825e-08 	5.17109305e-06
0.4223310026 	0.001496872231 	0.0002641319113 	1.899069318e-08 	0.002712419131 	-4.92348781e-07 	5.170624742e-06
0.4241590823 	0.001495236736 	0.0002661020013 	1.702521005e-08 	0.00271221935 	-2.685861204e-08 	5.170243903e-06
0.4288070214 	0.001491630668 	0.0002711483238 	5.983526497e-08 	0.002712597496 	-9.222456325e-08 	5.170964755e-06
0.4335451144 	0.001488484664 	0.0002765086449 	1.03028381e-07 	0.002713730103 	-1.553656362e-07 	5.173123819e-06
0.4383871492 	0.001485731462 	0.0002820148224 	1.466759785e-07 	0.002715643998 	-2.166966743e-07 	5.176772234e-06
0.4434071716 	0.001483320746 	0.0002877455036 	1.913810721e-07 	0.002718291658 	-2.772456601e-07 	5.181819411e-06
0.4485243471 	0.001481289797 	0.0002937659485 	2.36217177e-07 	0.00272157375 	-3.360589733e-07 	5.18807599e-06
0.4537716951 	0.001479578993 	0.0002999301825 	2.81391689e-07 	0.002725515663 	-3.936304341e-07 	5.195590372e-06
0.4591841386 	0.001478172881 	0.0003063562204 	3.270550334e-07 	0.00273003766 	-4.503518706e-07 	5.204210555e-06
0.4647014119 	0.001477067174 	0.0003130008604 	3.187475801e-07 	0.002735097791 	-4.327384051e-07 	5.213856571e-06
0.4703936634 	0.001476216167 	0.0003198336314 	2.776923075e-07 	0.002740685004 	-3.720977926e-07 	5.224507352e-06
0.4762199901 	0.001475623571 	0.0003269352172 	2.366149443e-07 	0.002746706611 	-3.134240757e-07 	5.235986209e-06
0.4821887613 	0.001475256842 	0.0003342181597 	1.955321263e-07 	0.002753156282 	-2.564217953e-07 	5.248281074e-06
0.4883325311 	0.001475101286 	0.0003417609928 	1.544123129e-07 	0.002759957557 	-2.007581551e-07 	5.261246193e-06
0.4946023327 	0.00147513669 	0.0003495187662 	1.138135613e-07 	0.00276707521 	-1.469770749e-07 	5.27481442e-06
0.5010720237 	0.001475342669 	0.0003575294547 	7.338590089e-08 	0.00277445019 	-9.426013248e-08 	5.288873181e-06
0.5076678127 	0.001475702587 	0.0003657888966 	3.393154786e-08 	0.002782017379 	-4.343963415e-08 	5.303298346e-06
0.513608687 	0.001476133141 	0.0003732244667 	1.479318063e-08 	0.002788750614 	-1.549805003e-07 	5.316133764e-06
0.5144679327 	0.001476192052 	0.0003742943213 	4.631529303e-09 	0.002789719064 	-6.175280604e-09 	5.317979898e-06
0.5213977834 	0.001476776059 	0.0003830218075 	3.990488606e-08 	0.002797456983 	-5.326218542e-08 	5.332730523e-06
0.5285358005 	0.001477455114 	0.0003920086663 	7.400613693e-08 	0.002805196793 	-9.904109808e-08 	5.347484751e-06
0.5358224586 	0.001478213259 	0.0004012896327 	1.062919581e-07 	0.002812836201 	-1.429477152e-07 	5.362047587e-06
0.5433184023 	0.001479025088 	0.0004108354363 	1.368760891e-07 	0.002820316338 	-1.853197983e-07 	5.376306806e-06
0.550980186 	0.001479876879 	0.000420693464 	1.65254634e-07 	0.002827511479 	-2.257774991e-07 	5.390022746e-06
0.5588419667 	0.001480744992 	0.0004308338934 	1.913273145e-07 	0.002834345669 	-2.643448741e-07 	5.403050611e-06
0.5668929284 	0.001481611338 	0.0004412812737 	2.148202304e-07 	0.002840695836 	-3.008626504e-07 	5.415155794e-06
0.5751326193 	0.001482463868 	0.0004520508214 	2.354407407e-07 	0.002846438302 	-3.351057652e-07 	5.426102531e-06
0.5835861254 	0.001483275827 	0.0004631136911 	2.531151821e-07 	0.00285147788 	-3.670157973e-07 	5.435709367e-06
0.5922320278 	0.001484043726 	0.0004745163354 	2.675401112e-07 	0.002855643499 	-3.963082268e-07 	5.443650195e-06
0.6010863991 	0.001484754449 	0.0004862462081 	2.785992058e-07 	0.002858806002 	-4.227793383e-07 	5.449678804e-06
0.610156463 	0.001485391146 	0.0004982830182 	2.699654849e-07 	0.002860834826 	-4.208906386e-07 	5.453546307e-06
0.6194348514 	0.001485960259 	0.0005106649818 	2.466892389e-07 	0.00286153818 	-3.963677367e-07 	5.454887095e-06
0.6289299585 	0.001486458649 	0.0005233791078 	2.251382872e-07 	0.002860761292 	-3.740137646e-07 	5.45340613e-06
0.6386538652 	0.001486885846 	0.0005364068363 	2.052684942e-07 	0.002858348605 	-3.537382548e-07 	5.448806879e-06
0.6486003963 	0.001487260323 	0.0005497030991 	1.871178766e-07 	0.002854127016 	-3.355482802e-07 	5.440759356e-06
0.6585496474 	0.001487602044 	0.0005630369578 	1.709134889e-07 	0.002848067376 	-3.197790474e-07 	5.429207999e-06
0.6682824376 	0.001487949314 	0.0005761439792 	1.567104922e-07 	0.002840300155 	-3.064692543e-07 	5.414401517e-06
0.6778050816 	0.001488354869 	0.0005889521536 	1.442449282e-07 	0.002830963783 	-2.951801464e-07 	5.396603795e-06
0.6871166916 	0.001488874923 	0.0006014991778 	1.332407762e-07 	0.002820151405 	-2.855891108e-07 	5.375992399e-06
0.6962220875 	0.001489568889 	0.0006138043792 	1.234756675e-07 	0.002807964359 	-2.773357105e-07 	5.352760502e-06
0.7051298331 	0.001490495476 	0.0006258670196 	1.147519141e-07 	0.002794543333 	-2.700407994e-07 	5.327176296e-06
0.7138400171 	0.001491732178 	0.0006377146103 	1.069034345e-07 	0.00278001733 	-2.633674966e-07 	5.299485696e-06
0.7223567975 	0.001493365438 	0.0006493887271 	9.980995829e-08 	0.002764515941 	-2.570233299e-07 	5.269935741e-06
0.7306877701 	0.001495474622 	0.0006609000529 	9.338373831e-08 	0.002748222352 	-2.506953059e-07 	5.238875632e-06
0.738833703 	0.00149816106 	0.0006722892962 	8.756079724e-08 	0.002731303811 	-2.441057796e-07 	5.206624191e-06
0.7467997124 	0.001501527534 	0.0006835973635 	8.231658783e-08 	0.002713945926 	-2.370192276e-07 	5.173535238e-06
0.7545906522 	0.001505676204 	0.0006948477441 	7.764075741e-08 	0.002696377062 	-2.29180237e-07 	5.1400441e-06
0.7622087886 	0.001510730722 	0.000706095776 	7.353705958e-08 	0.002678804936 	-2.203909673e-07 	5.106546743e-06
0.7696598439 	0.001516805474 	0.0007173780146 	7.002389443e-08 	0.002661483192 	-2.10459876e-07 	5.073526685e-06
0.7769460131 	0.001524028161 	0.0007287428408 	6.712914455e-08 	0.002644669488 	-1.992308597e-07 	5.041475091e-06
0.7840719025 	0.001532525355 	0.0007402407966 	6.490716351e-08 	0.002628638787 	-1.866138444e-07 	5.01091612e-06
0.7910406583 	0.001542428446 	0.0007519240555 	6.341847796e-08 	0.002613681379 	-1.725437284e-07 	4.982403144e-06
0.7978559875 	0.001553876049 	0.0007638565154 	6.272999938e-08 	0.002600087917 	-1.570116287e-07 	4.956490226e-06
0.8045212853 	0.001567014795 	0.0007761086289 	6.289054382e-08 	0.002588151605 	-1.399980055e-07 	4.9337363e-06
0.8110398796 	0.001582003043 	0.0007887642016 	6.394717417e-08 	0.002578156058 	-1.215117807e-07 	4.914682008e-06
0.817415073 	0.001599009359 	0.0008019146303 	6.59306391e-08 	0.002570377903 	-1.015417091e-07 	4.899854683e-06
0.8236500534 	0.00161821497 	0.0008156623992 	6.564052111e-08 	0.002565079333 	-7.632603599e-08 	4.889754136e-06
0.8297478997 	0.001639808037 	0.0008301127643 	6.591016877e-08 	0.002562518051 	-5.170478634e-08 	4.88487162e-06
0.8357117433 	0.001663987936 	0.0008453792086 	6.681720702e-08 	0.002562935816 	-2.799217961e-08 	4.885667996e-06
0.8415444167 	0.001690951778 	0.0008615705301 	6.827724256e-08 	0.002566582728 	-5.226655736e-09 	4.892620025e-06
0.8472490049 	0.00172090963 	0.0008788040332 	7.020576259e-08 	0.002573687994 	1.655545123e-08 	4.906164635e-06
0.8528281435 	0.001754066312 	0.0008971913493 	7.252110183e-08 	0.002584491493 	3.731675264e-08 	4.926759108e-06
0.8582847746 	0.001790639032 	0.0009168495352 	7.513564091e-08 	0.00259921556 	5.701631018e-08 	4.954827272e-06
0.8636214725 	0.001830849008 	0.0009378977235 	7.795327103e-08 	0.002618068806 	7.558965297e-08 	4.990766799e-06
0.8688409285 	0.001874917149 	0.0009604502411 	8.088337089e-08 	0.002641259513 	9.294056291e-08 	5.034974732e-06
0.87394573 	0.00192308167 	0.0009846295614 	8.381745667e-08 	0.002668949975 	1.089388968e-07 	5.087760448e-06
0.8789383532 	0.001975573469 	0.001010548819 	8.663923178e-08 	0.002701296436 	1.234444588e-07 	5.149421793e-06
0.8838213153 	0.002032629983 	0.001038318574 	8.920959957e-08 	0.002738414251 	1.363215146e-07 	5.220178665e-06
0.8885969795 	0.002094479459 	0.001068040915 	9.136026633e-08 	0.002780372768 	1.474424192e-07 	5.30016326e-06
0.8932677034 	0.002161299566 	0.001099788672 	9.291306522e-08 	0.002827239616 	1.566903605e-07 	5.389504499e-06
0.8978358124 	0.002233203157 	0.001133604706 	9.367535275e-08 	0.002879040484 	1.639230832e-07 	5.488251351e-06
0.902303521 	0.002310180993 	0.001169481657 	9.34601632e-08 	0.002935772607 	1.689469127e-07 	5.596398544e-06
0.9066730387 	0.002392049644 	0.001207343443 	9.210939403e-08 	0.002997400468 	1.715066281e-07 	5.713878377e-06
0.9109465224 	0.002478431615 	0.001247040348 	8.949907594e-08 	0.003063773627 	1.712902274e-07 	5.840404064e-06
0.9151260573 	0.002568722415 	0.00128833388 	8.556216198e-08 	0.003134585932 	1.679949881e-07 	5.975392e-06
0.9192137044 	0.00266208737 	0.001330889763 	8.030692272e-08 	0.003209328185 	1.614205042e-07 	6.117871507e-06
0.9232114777 	0.002757503122 	0.001374286318 	7.38209938e-08 	0.003287217371 	1.515478486e-07 	6.266349945e-06
0.927121333 	0.002853802488 	0.001418025167 	6.627735012e-08 	0.003367200562 	1.385960096e-07 	6.418820137e-06
0.9309451957 	0.002949732536 	0.001461551102 	5.793135921e-08 	0.003448015738 	1.230324805e-07 	6.572876324e-06
0.9346849485 	0.003044040796 	0.001504286033 	4.909422751e-08 	0.003528246944 	1.055247275e-07 	6.725819302e-06
0.9383424262 	0.003135545515 	0.001545661885 	4.009830951e-08 	0.00360641486 	8.687609775e-08 	6.874829074e-06
0.9419194277 	0.00322317131 	0.001585145568 	3.126428308e-08 	0.003681099831 	6.797867256e-08 	7.017199388e-06
0.9454177141 	0.003305963953 	0.001622258357 	2.287244219e-08 	0.003751038148 	4.976269353e-08 	7.150521258e-06
0.9488390069 	0.003383089699 	0.001656590271 	1.51663393e-08 	0.003815187675 	3.314112385e-08 	7.272808085e-06
0.9521849878 	0.003448275525 	0.001685381263 	8.919327296e-09 	0.003868354062 	1.999914462e-08 	7.374157995e-06
0.9543633048 	0.003497008071 	0.001706715307 	4.587638893e-09 	0.003907180474 	1.115579735e-08 	7.448171928e-06
0.9564608598 	0.003536516102 	0.001723828873 	1.564536224e-09 	0.003937748632 	4.65463859e-09 	7.506443334e-06
0.9584806397 	0.003572700997 	0.001739283659 	-4.724098294e-10 	0.003964566331 	-1.32474683e-09 	7.557565322e-06
0.9604255213 	0.003606306447 	0.001753178227 	-6.181049057e-09 	0.00398758007 	-7.50588728e-09 	7.601435904e-06
0.9622982752 	0.003638325949 	0.001763736013 	-1.445162025e-08 	0.004006617941 	-1.2670828e-08 	7.637727378e-06
0.9641015702 	0.003669073303 	0.001771510381 	-1.373018396e-08 	0.004022118439 	-1.441708138e-08 	7.667275636e-06
0.9658379768 	0.003698158568 	0.00177924746 	-8.545746348e-09 	0.004034972621 	-1.336329677e-08 	7.691779277e-06
0.9675099711 	0.00372544296 	0.001786965943 	-5.641876709e-09 	0.004045648078 	-1.111582621e-08 	7.712129667e-06
0.9691199376 	0.003750986246 	0.00179434695 	-2.368372959e-09 	0.004054347189 	-7.96749248e-09 	7.728712589e-06
0.9706701729 	0.003774858071 	0.001801464018 	1.203482367e-09 	0.004061192215 	-4.041016e-09 	7.741761112e-06
0.9721628889 	0.003797100521 	0.001808365159 	4.999514213e-09 	0.004066283062 	6.395380201e-10 	7.751465681e-06
0.9736002158 	0.003817717083 	0.001815067502 	8.944170878e-09 	0.004069699752 	6.017479898e-09 	7.757978842e-06
0.9749842053 	0.003836669407 	0.001821550841 	1.296139682e-08 	0.00407148644 	1.202700279e-08 	7.761384765e-06
0.9763168332 	0.003853868628 	0.001827751076 	1.697496164e-08 	0.004071642838 	1.86084174e-08 	7.761682904e-06
0.9776000025 	0.003869165412 	0.001833552671 	2.090857518e-08 	0.004070114165 	2.568403875e-08 	7.758768829e-06
0.978835546 	0.003882350398 	0.001838893622 	2.606067064e-08 	0.004066755075 	3.315245959e-08 	7.752365469e-06
0.9800252286 	0.003893160212 	0.001844283068 	2.869884269e-08 	0.004061293043 	4.059205321e-08 	7.741953319e-06
0.9811707501 	0.003901306758 	0.001847214946 	2.855751278e-08 	0.004053119484 	4.790496664e-08 	7.726372243e-06
0.9822737474 	0.003906066546 	0.00184624604 	3.050556406e-08 	0.004041520199 	5.529053733e-08 	7.704260782e-06
0.9833357971 	0.003906105328 	0.001842894205 	3.345493811e-08 	0.004025678293 	6.244982537e-08 	7.674061706e-06
0.9843584172 	0.003899743942 	0.001836705617 	3.602118075e-08 	0.004004249564 	6.894111148e-08 	7.633212592e-06
0.9853430698 	0.003884926283 	0.001826767428 	3.809611032e-08 	0.003975351924 	7.440461855e-08 	7.578125659e-06
0.9862911628 	0.003859135064 	0.001811934168 	3.958021271e-08 	0.003936538173 	7.856231671e-08 	7.504135862e-06
0.987204052 	0.003819291085 	0.001790795847 	4.038410144e-08 	0.003884753826 	8.118177114e-08 	7.405420504e-06
0.9880830431 	0.003761657021 	0.001761649121 	4.043651462e-08 	0.003816264437 	8.205930309e-08 	7.274860693e-06
0.9889293935 	0.003681749107 	0.001722388501 	3.958606581e-08 	0.003726573227 	8.101881143e-08 	7.103884319e-06
0.9897443141 	0.003574274276 	0.001670420267 	3.777503258e-08 	0.003610364924 	7.793368079e-08 	6.882358994e-06
0.9905289707 	0.003433162021 	0.001602967741 	3.505220899e-08 	0.003461549866 	7.275450822e-08 	6.598676134e-06
0.9912844862 	0.00325176278 	0.001517055334 	3.14308981e-08 	0.003273451469 	6.553805499e-08 	6.240108308e-06
0.992011942 	0.003043836116 	0.001419143773 	2.733611373e-08 	0.003060205991 	5.718271783e-08 	5.833603159e-06
0.9924809525 	0.002840034461 	0.001323512744 	2.363706742e-08 	0.002852641955 	4.954177139e-08 	5.437928416e-06
0.9929499737 	0.002629341695 	0.001224872365 	2.002339596e-08 	0.002639036118 	4.202013348e-08 	5.030736322e-06
0.9934190056 	0.002386289417 	0.001111268638 	1.621415387e-08 	0.002393437851 	3.405092233e-08 	4.562557765e-06
0.9938880481 	0.002109581402 	0.000981356818 	1.206796062e-08 	0.002114553858 	2.591653075e-08 	4.030927363e-06
0.9943571014 	0.001799440501 	0.0008225012133 	7.512306731e-09 	0.001802530461 	1.80307544e-08 	3.436124046e-06
0.9948261653 	0.001461817289 	0.0006380648517 	3.335563325e-09 	0.001463370645 	1.104638892e-08 	2.789591173e-06
0.9952952399 	0.001113077162 	0.0004509386995 	4.649969471e-10 	0.001113570591 	5.695179071e-09 	2.122775047e-06
0.9957643252 	0.0007792513555 	0.0002804131337 	-8.357021517e-10 	0.0007791439175 	2.375831845e-09 	1.485264859e-06
0.9962334212 	0.0004903569301 	0.0001473178827 	-9.080917897e-10 	0.0004900304784 	8.610898923e-10 	9.341342887e-07
0.9967025279 	0.0002696556018 	6.227241719e-05 	-4.892336875e-10 	0.0002693545573 	4.243097478e-10 	5.134646495e-07
0.9971716453 	0.0001243243466 	1.985696913e-05 	-1.49019719e-10 	0.0001241422452 	3.383965525e-10 	2.366496229e-07
0.9976407733 	4.463941769e-05 	4.312627544e-06 	-1.977483412e-11 	4.456361707e-05 	2.442820582e-10 	8.495063995e-08
0.998109912 	1.080011102e-05 	5.245579937e-07 	1.061363441e-12 	1.078037974e-05 	1.139224857e-10 	2.055040003e-08
0.9985790615 	1.293818292e-06 	2.238216117e-08 	3.693541284e-13 	1.291382891e-06 	2.634787142e-11 	2.461734712e-09
0.9990482216 	4.733861243e-08 	1.349617187e-10 	6.613794409e-15 	4.724854925e-08 	1.998853586e-12 	9.006886691e-11
