0.3443831881 	3.118381165e-08 	-1.706430505e-11 	2.744569027e-15 	3.114340271e-08 	-1.753072473e-12 	5.936798142e-11
0.3443831881 	3.118381165e-08 	-1.706430505e-11 	2.744569028e-15 	3.114340271e-08 	-1.753072473e-12 	5.936798142e-11
0.344828276 	9.898907831e-07 	-3.846915056e-09 	2.901922634e-13 	9.922302991e-07 	-2.724781144e-11 	1.891466726e-09
0.3452733899 	7.929394485e-06 	-1.010594101e-07 	1.197675757e-12 	8.023928643e-06 	-3.740090007e-11 	1.529583813e-08
0.3453683507 	1.305987782e-05 	-2.812417945e-07 	-7.864521262e-09 	1.33383e-05 	2.318967011e-07 	2.542650699e-08
0.3457171008 	3.199029759e-05 	-9.466781824e-07 	4.385779332e-11 	3.294766955e-05 	-5.478019953e-10 	6.28074155e-08
0.3461604356 	8.782629278e-05 	-5.050792916e-06 	4.782478774e-10 	9.305480294e-05 	-3.468617798e-09 	1.773883177e-07
0.3466037719 	0.0001897410987 	-1.872054081e-05 	2.480052332e-09 	0.0002092565417 	-1.195584637e-08 	3.989011284e-07
0.3470471022 	0.0003480867877 	-5.320747698e-05 	8.486573972e-09 	0.0004035801716 	-3.027137682e-08 	7.693359764e-07
0.3474904186 	0.0005658201173 	-0.0001224175102 	2.148716714e-08 	0.0006931293289 	-6.180393564e-08 	1.321297146e-06
0.3479337135 	0.000836875344 	-0.0002361984687 	4.288414454e-08 	0.0010812464 	-1.063106713e-07 	2.061156155e-06
0.3483769792 	0.001147939953 	-0.0003936497147 	7.088614345e-08 	0.001552350208 	-1.589575563e-07 	2.959210951e-06
0.3488202083 	0.001482772266 	-0.0005830191761 	1.015230996e-07 	0.002076548983 	-2.126964329e-07 	3.958479509e-06
0.3492633929 	0.001826353755 	-0.0007881924234 	1.310858795e-07 	0.002621060328 	-2.616276471e-07 	4.996469472e-06
0.3497065257 	0.002167109237 	-0.0009953927833 	1.574281376e-07 	0.003159654577 	-3.024263503e-07 	6.023179805e-06
0.350149599 	0.00249730533 	-0.001195841187 	1.797433507e-07 	0.00367570917 	-3.338432638e-07 	7.006923289e-06
0.3505926053 	0.002812632915 	-0.001384867933 	1.978564139e-07 	0.004160566305 	-3.557272563e-07 	7.931195747e-06
0.3510355371 	0.003149907003 	-0.001586012608 	2.116438355e-07 	0.004671320256 	-3.656232998e-07 	8.904834734e-06
0.3517223991 	0.003540143954 	-0.001814918344 	2.269381876e-07 	0.005249538284 	-3.709816153e-07 	1.0007079e-05
0.3524355422 	0.00393864814 	-0.00204348108 	2.340612319e-07 	0.00582474532 	-3.539480868e-07 	1.110358348e-05
0.3531759295 	0.004309187281 	-0.002253981959 	2.282463249e-07 	0.006347287238 	-3.151434727e-07 	1.209969361e-05
0.3539445536 	0.004654166251 	-0.002444919959 	2.074112523e-07 	0.006819752716 	-2.543594647e-07 	1.300034413e-05
0.3547424362 	0.004975864168 	-0.002616359883 	1.859088575e-07 	0.007245963837 	-1.768810357e-07 	1.381282098e-05
0.3555706289 	0.005274354822 	-0.002772772727 	1.643546406e-07 	0.007630982907 	-8.011034715e-08 	1.454677434e-05
0.3564302123 	0.005549778409 	-0.002916881477 	1.338390742e-07 	0.007977920129 	4.113913165e-08 	1.520813311e-05
0.357322296 	0.005802882759 	-0.00304906761 	9.441595622e-08 	0.008288266779 	1.857287583e-07 	1.579974009e-05
0.3582480179 	0.006034529403 	-0.00316977575 	4.653772399e-08 	0.00856366179 	3.516517496e-07 	1.632471952e-05
0.3592144644 	0.006245592043 	-0.00327945602 	-9.20677156e-09 	0.008805795008 	5.371573085e-07 	1.678629273e-05
0.3602197872 	0.006436578541 	-0.003378367894 	-7.231594609e-08 	0.009015946203 	7.405571497e-07 	1.718689932e-05
0.3612632246 	0.006608032002 	-0.003466791431 	-1.421484214e-07 	0.009195349215 	9.597637974e-07 	1.752889132e-05
0.3623462001 	0.006760736633 	-0.003545131762 	-2.179894984e-07 	0.009345453554 	1.192607344e-06 	1.781503191e-05
0.3634701892 	0.006895547008 	-0.003613828653 	-2.991231597e-07 	0.009467780333 	1.436947786e-06 	1.804822075e-05
0.3646367213 	0.007013337109 	-0.00367333076 	-3.847962425e-07 	0.009563834463 	1.690569669e-06 	1.823132662e-05
0.3658473815 	0.007115002191 	-0.003724096229 	-4.742175679e-07 	0.009635115634 	1.95116072e-06 	1.836720834e-05
0.3671038128 	0.007201459266 	-0.003766592868 	-5.665606769e-07 	0.009683129702 	2.216304259e-06 	1.84587365e-05
0.368407718 	0.007273645654 	-0.003801297597 	-6.609742951e-07 	0.009709397628 	2.483486792e-06 	1.850881047e-05
0.3697608619 	0.00733251472 	-0.003828694674 	-7.566041953e-07 	0.009715459416 	2.750120559e-06 	1.852036592e-05
0.3711650737 	0.007379039786 	-0.003849277147 	-8.526387771e-07 	0.009702855154 	3.013601887e-06 	1.849633869e-05
0.3726231152 	0.007414219241 	-0.003863545812 	-9.484615063e-07 	0.009673078527 	3.271655907e-06 	1.843957616e-05
0.3741466344 	0.007438960882 	-0.003871949392 	-1.043816851e-06 	0.009627498293 	3.523134106e-06 	1.835268757e-05
0.3757274577 	0.007454090913 	-0.003874902805 	-1.13765482e-06 	0.009567536935 	3.764997348e-06 	1.823838456e-05
0.3773677022 	0.007460470445 	-0.00387283758 	-1.229384469e-06 	0.009494646312 	3.997054368e-06 	1.809943477e-05
0.3790695614 	0.007458933749 	-0.003866163789 	-1.318735751e-06 	0.009410126103 	4.219967899e-06 	1.793831576e-05
0.380835309 	0.007450219862 	-0.003855248226 	-1.405874109e-06 	0.0093151683 	4.433526107e-06 	1.77572998e-05
0.3826673009 	0.007435040552 	-0.003840185274 	-1.501389281e-06 	0.009210815579 	4.63828598e-06 	1.755837451e-05
0.3845679793 	0.007414016384 	-0.00382119189 	-1.608866397e-06 	0.009097973265 	4.834934378e-06 	1.734326569e-05
0.3865408511 	0.007387501195 	-0.003798659474 	-1.719689406e-06 	0.008977391288 	5.025195186e-06 	1.711340293e-05
0.3886006332 	0.007351166517 	-0.003769663171 	-1.824325372e-06 	0.00883455099 	5.209092302e-06 	1.684110962e-05
0.391760195 	0.00729994584 	-0.003729481736 	-1.97843595e-06 	0.008652035115 	5.470809856e-06 	1.649318364e-05
0.3949855825 	0.007238300781 	-0.003680801057 	-2.151802537e-06 	0.008447689212 	5.702109856e-06 	1.610364355e-05
0.3982782105 	0.00717107147 	-0.003627741104 	-2.31331353e-06 	0.008240445687 	5.902154295e-06 	1.570857979e-05
0.4016486081 	0.007098881522 	-0.0035715717 	-2.463524391e-06 	0.008032039106 	6.074490593e-06 	1.531129892e-05
0.4051012641 	0.00702237086 	-0.003513444962 	-2.598091005e-06 	0.007823595535 	6.219655667e-06 	1.491394755e-05
0.408625671 	0.006942169174 	-0.003453849922 	-2.591306144e-06 	0.007616138786 	6.057975293e-06 	1.451847732e-05
0.412223395 	0.006858412338 	-0.003393247216 	-2.434085389e-06 	0.007410203157 	5.596434819e-06 	1.412590678e-05
0.4159074241 	0.00677097555 	-0.003331673339 	-2.260988204e-06 	0.007205664436 	5.151390356e-06 	1.373599913e-05
0.4196774594 	0.006679764371 	-0.003269162472 	-2.077859634e-06 	0.007002422409 	4.728625112e-06 	1.334856333e-05
0.4235257511 	0.006584637402 	-0.003205273656 	-1.891287008e-06 	0.006800604677 	4.334248329e-06 	1.296384264e-05
0.4274540412 	0.006485080964 	-0.003139029972 	-1.708349506e-06 	0.006599918124 	3.970781207e-06 	1.25812783e-05
0.4314842435 	0.006380424594 	-0.00307029443 	-1.534633071e-06 	0.006399639517 	3.634358506e-06 	1.219949161e-05
0.4355981497 	0.006270302974 	-0.002999246597 	-1.376252707e-06 	0.006199533538 	3.320494098e-06 	1.1818034e-05
0.4397974965 	0.00615416564 	-0.002924884925 	-1.248912143e-06 	0.005999608534 	3.021020341e-06 	1.143692137e-05
0.4440982404 	0.006031242767 	-0.002847073642 	-1.144283555e-06 	0.005799306838 	2.733443996e-06 	1.105509067e-05
0.4484938151 	0.005901160551 	-0.002766626873 	-1.043563817e-06 	0.005597966633 	2.461680899e-06 	1.067128028e-05
0.4529806932 	0.005763645813 	-0.002683476227 	-9.465032956e-07 	0.005395167145 	2.205965396e-06 	1.028468809e-05
0.4575736477 	0.005618299747 	-0.002597473404 	-8.523366038e-07 	0.005190333208 	1.963872639e-06 	9.894217674e-06
0.4622681035 	0.005465011876 	-0.002508573208 	-7.611141404e-07 	0.004983075939 	1.734488945e-06 	9.499127715e-06
0.4670602036 	0.005303657967 	-0.00241676889 	-6.72722369e-07 	0.00477319958 	1.516853829e-06 	9.099045042e-06
0.4719671655 	0.005134103858 	-0.002322001415 	-5.866612106e-07 	0.004560369979 	1.309216357e-06 	8.693332669e-06
0.4769790514 	0.004956585806 	-0.002224360018 	-5.033194245e-07 	0.004344552009 	1.111918924e-06 	8.281923635e-06
0.4820985448 	0.004771305138 	-0.00212396863 	-4.226471451e-07 	0.004125886966 	9.244283065e-07 	7.865087289e-06
0.4873386125 	0.004578559702 	-0.002020949545 	-3.446837637e-07 	0.003904485483 	7.464678124e-07 	7.443034526e-06
0.492688021 	0.004378977646 	-0.001915561203 	-2.700176275e-07 	0.003680744898 	5.790768525e-07 	7.016522785e-06
0.4981601174 	0.004173777317 	-0.00180821169 	-1.983962318e-07 	0.003455267893 	4.215465623e-07 	6.586700945e-06
0.5037516375 	0.00396565287 	-0.00169977495 	-1.304420193e-07 	0.003229408205 	2.747930638e-07 	6.156149605e-06
0.5094651183 	0.003757815204 	-0.001591221762 	-6.720278974e-08 	0.003004739715 	1.403756249e-07 	5.727869021e-06
0.5153084041 	0.003552887704 	-0.001483119469 	-9.498476226e-09 	0.002782224925 	1.965413299e-08 	5.303693987e-06
0.5163719831 	0.003517321295 	-0.001464003593 	9.587499454e-07 	0.002743108071 	-1.938903419e-06 	5.22912639e-06
0.5212718639 	0.003353461241 	-0.001375935756 	-3.862761042e-08 	0.002562945187 	7.796468837e-08 	4.885685861e-06
0.5273728653 	0.003162073711 	-0.001269984855 	-8.226106644e-08 	0.002348135765 	1.577118145e-07 	4.4761994e-06
0.5336029526 	0.002981166516 	-0.001164820104 	-1.318440956e-07 	0.002140537661 	2.147051905e-07 	4.080459714e-06
0.5399770547 	0.002811810035 	-0.001054388272 	-1.911708687e-07 	0.001946243718 	2.490651002e-07 	3.710081456e-06
0.5464870312 	0.002655540575 	-0.0009353296079 	-2.427738899e-07 	0.001769216824 	2.724578567e-07 	3.372618995e-06
0.5531461554 	0.002516861035 	-0.0008134515291 	-2.802184701e-07 	0.001608054468 	2.866216599e-07 	3.065398751e-06
0.5599480631 	0.002401025566 	-0.0006936856356 	-3.059069588e-07 	0.00146281917 	2.874722591e-07 	2.788539908e-06
0.5669056226 	0.002311913673 	-0.0005790440294 	-3.200490588e-07 	0.001334724651 	2.783706928e-07 	2.544356152e-06
0.5740136424 	0.00225177129 	-0.0004722088313 	-3.25262595e-07 	0.001222948166 	2.660476308e-07 	2.331279105e-06
0.5812822127 	0.002221656741 	-0.0003749254408 	-3.246575487e-07 	0.001125086233 	2.533484263e-07 	2.144727061e-06
0.5887104147 	0.002220815004 	-0.0002868647505 	-3.224009294e-07 	0.001041169881 	2.348048933e-07 	1.984759172e-06
0.5963041771 	0.002245422109 	-0.0002060183599 	-3.191055298e-07 	0.0009733794697 	2.09411824e-07 	1.855531806e-06
0.6040672937 	0.002289801779 	-0.0001298601125 	-3.152686958e-07 	0.0009229928152 	1.797248601e-07 	1.759480838e-06
0.6120015878 	0.002348448429 	-5.544269335e-05 	-3.125781218e-07 	0.0008906958635 	1.262153349e-07 	1.697913872e-06
0.6201150222 	0.00241386049 	1.972299686e-05 	-3.076067728e-07 	0.0008836521858 	3.946438397e-08 	1.684486665e-06
0.6284082265 	0.002482384307 	9.642088206e-05 	-2.979557406e-07 	0.0009047714649 	-2.369886037e-08 	1.72474588e-06
0.6368863256 	0.002558166741 	0.0001748803762 	-2.844411929e-07 	0.0009439761521 	-5.45269935e-08 	1.799480911e-06
0.6455553224 	0.002643477576 	0.0002555918511 	-2.658915789e-07 	0.0009958412535 	-8.033276751e-08 	1.898350209e-06
0.6544178301 	0.002738142676 	0.0003388360143 	-2.429950727e-07 	0.001060502221 	-1.005346374e-07 	2.021611986e-06
0.6634788634 	0.002842224787 	0.0004250122642 	-2.16786212e-07 	0.001138303172 	-1.145833461e-07 	2.169922221e-06
0.6727446847 	0.002955192416 	0.0005141190241 	-1.88410031e-07 	0.001229219596 	-1.220317433e-07 	2.343234195e-06
0.6820088343 	0.003074458051 	0.0006048951323 	-1.596738053e-07 	0.001331790325 	-1.226301885e-07 	2.538762511e-06
0.6910664607 	0.003197001545 	0.0006959253891 	-1.322114055e-07 	0.001443832969 	-1.173780216e-07 	2.752346932e-06
0.6999230758 	0.003322107211 	0.000786921635 	-1.070682363e-07 	0.001564325788 	-1.082101859e-07 	2.982039733e-06
0.7085833915 	0.003450484168 	0.0008781198414 	-8.478746745e-08 	0.001693201581 	-9.650368172e-08 	3.227712815e-06
0.7170516781 	0.003582856082 	0.0009698046207 	-6.547429717e-08 	0.001830499558 	-8.314659368e-08 	3.489440919e-06
0.7253328647 	0.003719780647 	0.001062315875 	-4.906061113e-08 	0.001976360081 	-6.895554043e-08 	3.767491615e-06
0.7334312716 	0.003861689481 	0.001156025311 	-3.529489018e-08 	0.002131031598 	-5.451139845e-08 	4.062338516e-06
0.7413508659 	0.004008962342 	0.00125123549 	-2.378609408e-08 	0.002294734604 	-4.009942752e-08 	4.374401943e-06
0.7490962263 	0.004161995998 	0.001348111855 	-1.41809255e-08 	0.002467508112 	-2.592645071e-08 	4.703756271e-06
0.7566710024 	0.004321239835 	0.001446631999 	-6.206473342e-09 	0.002649027678 	-1.222156198e-08 	5.049783014e-06
0.7635947473 	0.004476303072 	0.001540046522 	2.429426215e-07 	0.002826099195 	4.631183215e-07 	5.387330539e-06
0.7640790813 	0.004487145674 	0.001546582114 	-3.956397372e-10 	0.002838486957 	-8.147530584e-10 	5.410945058e-06
0.7713228311 	0.004659954152 	0.0016476142 	-5.91018743e-09 	0.003034631522 	-1.282444563e-08 	5.784851113e-06
0.7784074711 	0.00483973398 	0.001749286946 	-1.04615008e-08 	0.003235819664 	-2.370051711e-08 	6.168371629e-06
0.7853368102 	0.005026045485 	0.001851092015 	-1.412473615e-08 	0.003440170838 	-3.313164005e-08 	6.557921764e-06
0.7921140977 	0.00521789253 	0.001952500177 	-1.69159018e-08 	0.003645777085 	-4.081269535e-08 	6.949864416e-06
0.7987429526 	0.005413704521 	0.002052991245 	-1.88202864e-08 	0.003850898743 	-4.652114296e-08 	7.340883305e-06
0.8052264858 	0.005611379091 	0.002152067963 	-1.979548621e-08 	0.004054092165 	-5.012455712e-08 	7.728226444e-06
0.8115680792 	0.005808222532 	0.002249154728 	-1.977960427e-08 	0.004254031026 	-5.154611951e-08 	8.109365482e-06
0.8177707413 	0.006001496745 	0.002343686656 	-1.882018876e-08 	0.004449602859 	-5.093761681e-08 	8.482179753e-06
0.8238376583 	0.006189478973 	0.002435401347 	-1.709029893e-08 	0.004640345621 	-4.866734988e-08 	8.845788472e-06
0.8297717164 	0.006371413466 	0.002524279585 	-1.471986791e-08 	0.004826257054 	-4.499309727e-08 	9.200187335e-06
0.8355759148 	0.006546931671 	0.00261033986 	-1.177071834e-08 	0.00500737633 	-4.002539711e-08 	9.545451014e-06
0.8412530418 	0.006715870866 	0.002693602812 	-8.291998599e-09 	0.005183716864 	-3.384569035e-08 	9.881605082e-06
0.8468059221 	0.006878191023 	0.002774091506 	-4.319460531e-09 	0.005355279487 	-2.650719962e-08 	1.020865113e-05
0.8522372468 	0.007033929863 	0.002851829709 	1.19362881e-10 	0.005522051922 	-1.805348383e-08 	1.052656574e-05
0.8575496806 	0.007183168188 	0.002926847347 	5.005176494e-09 	0.005684033764 	-8.514652719e-09 	1.083534815e-05
0.8627458237 	0.007326018821 	0.002999181979 	1.032323456e-08 	0.005841239417 	2.077998321e-09 	1.113502582e-05
0.8678281947 	0.007462617703 	0.003068882516 	1.606414505e-08 	0.005993713472 	1.370070534e-08 	1.142568374e-05
0.8727992923 	0.007593118604 	0.003136012348 	2.222201778e-08 	0.006141541705 	2.633064784e-08 	1.170748544e-05
0.877661521 	0.007717701987 	0.00320064602 	2.87968198e-08 	0.006284834578 	3.99534417e-08 	1.198064148e-05
0.8824172569 	0.007836563516 	0.003262872812 	3.579290546e-08 	0.006423747844 	5.456495755e-08 	1.224544878e-05
0.8870688218 	0.007949920031 	0.003322792223 	4.322033084e-08 	0.00655846205 	7.017063521e-08 	1.25022515e-05
0.8916184689 	0.008058006596 	0.003380511593 	5.109442633e-08 	0.00668917746 	8.678973479e-08 	1.27514314e-05
0.8960684231 	0.008161064307 	0.003436145799 	5.943193563e-08 	0.006816121434 	1.044462853e-07 	1.29934219e-05
0.9004208485 	0.00825934376 	0.003489810563 	6.825094367e-08 	0.006939520607 	1.231665955e-07 	1.322865502e-05
0.9046778613 	0.008353091549 	0.003541620167 	7.756511655e-08 	0.007059603372 	1.429703151e-07 	1.345756614e-05
0.9088415408 	0.008442537103 	0.003591683602 	8.737765435e-08 	0.00717659485 	1.638552912e-07 	1.368058442e-05
0.9129139129 	0.008527889033 	0.003640096421 	9.767804461e-08 	0.007290687877 	1.857896456e-07 	1.389807744e-05
0.9168969602 	0.008609316038 	0.003686935325 	1.084329216e-07 	0.007402038113 	2.08695122e-07 	1.411034193e-05
0.9207926277 	0.00868692684 	0.003732250867 	1.195769403e-07 	0.007510751854 	2.324276558e-07 	1.431758054e-05
0.9246028153 	0.008760755972 	0.003776056437 	1.3100528e-07 	0.007616853492 	2.567617184e-07 	1.451983975e-05
0.9283293787 	0.008830738856 	0.003818317623 	1.42562328e-07 	0.007720264501 	2.813690541e-07 	1.471696987e-05
0.9319741387 	0.008896679289 	0.003858940642 	1.540267376e-07 	0.007820785536 	3.05789533e-07 	1.490859091e-05
0.9355388764 	0.008958220593 	0.00389775705 	1.650990116e-07 	0.007918058745 	3.294052758e-07 	1.509402068e-05
0.939025331 	0.00901481174 	0.003934506708 	1.753886177e-07 	0.008011528107 	3.514156625e-07 	1.527219926e-05
0.9424352066 	0.009065663888 	0.003968820114 	1.843970323e-07 	0.008100407353 	3.708031876e-07 	1.544162781e-05
0.9457701716 	0.009109710297 	0.004000198562 	1.915059208e-07 	0.008183635365 	3.863035334e-07 	1.560028353e-05
0.9490318579 	0.009145579188 	0.004027993564 	1.959703665e-07 	0.008259814461 	3.964008706e-07 	1.574550206e-05
0.9522218606 	0.009171564222 	0.004051394505 	1.969211792e-07 	0.008327192388 	3.994094482e-07 	1.587394312e-05
0.9553417423 	0.009185081642 	0.004068185806 	1.937644209e-07 	0.008379442487 	3.940248824e-07 	1.597354633e-05
0.9573729156 	0.009187422516 	0.004077964841 	1.879174643e-07 	0.008414050045 	3.829758958e-07 	1.603951795e-05
0.959328821 	0.009182066961 	0.0040832835 	1.798232483e-07 	0.008437856154 	3.669389982e-07 	1.608489901e-05
0.9612122391 	0.009169358287 	0.00408518016 	1.689064522e-07 	0.008454455434 	3.449562398e-07 	1.611654185e-05
0.9630258482 	0.009148908115 	0.004083455608 	1.550809077e-07 	0.008463389328 	3.169156512e-07 	1.613357234e-05
0.9647722284 	0.009120315986 	0.004077911106 	1.383327631e-07 	0.008464206177 	2.827858243e-07 	1.613512948e-05
0.966453865 	0.009083193266 	0.004068360272 	1.187711778e-07 	0.008456492796 	2.427863173e-07 	1.612042563e-05
0.9680731521 	0.009037196374 	0.004054641205 	9.668833629e-08 	0.008439893474 	1.975318134e-07 	1.608878271e-05
0.9696323954 	0.008982058411 	0.004036630456 	7.260928096e-08 	0.008414139794 	1.481365623e-07 	1.603968904e-05
0.9711338161 	0.008917615781 	0.004014254715 	4.728286765e-08 	0.008379076097 	9.615961703e-08 	1.597284789e-05
0.9725795532 	0.008843812909 	0.003987490372 	2.153132221e-08 	0.008334654365 	4.314096714e-08 	1.588816772e-05
0.9739716673 	0.008760650993 	0.003956204838 	-9.690259437e-09 	0.008280850738 	-9.554481803e-09 	1.578560305e-05
0.9753121429 	0.008667907842 	0.003917520042 	-7.060117433e-08 	0.00821761322 	-6.095974579e-08 	1.566505476e-05
0.9766028914 	0.008565375811 	0.003871617426 	-1.193205288e-07 	0.008144500717 	-1.138926302e-07 	1.552568201e-05
0.9778457537 	0.008452850093 	0.003821429665 	-1.422883807e-07 	0.008060841047 	-1.688525103e-07 	1.536620343e-05
0.979042503 	0.008329843562 	0.003766512429 	-1.763886406e-07 	0.00796610904 	-2.23499986e-07 	1.51856179e-05
0.9801948469 	0.008195811058 	0.003706342455 	-2.094784419e-07 	0.00785971996 	-2.776125726e-07 	1.498281074e-05
0.9813044301 	0.008050145479 	0.003640757199 	-2.41116415e-07 	0.00774099586 	-3.301992695e-07 	1.475648961e-05
0.9823728366 	0.007892136565 	0.003569541834 	-2.708291724e-07 	0.007609163972 	-3.803707767e-07 	1.450518139e-05
0.9834015919 	0.007720942892 	0.003492413428 	-2.981047519e-07 	0.007463321807 	-4.2717401e-07 	1.422716569e-05
0.9843921651 	0.007535554734 	0.003409000691 	-3.223824208e-07 	0.007302400179 	-4.695687141e-07 	1.392040434e-05
0.9853459713 	0.007334748122 	0.003318817231 	-3.430427456e-07 	0.007125117655 	-5.064161086e-07 	1.358245458e-05
0.986264373 	0.007117028337 	0.003221227382 	-3.593970329e-07 	0.006929924093 	-5.364622163e-07 	1.321036139e-05
0.9871486825 	0.006880560211 	0.003115401484 	-3.706689739e-07 	0.006714930937 	-5.58316337e-07 	1.280052468e-05
0.9880001636 	0.006623082123 	0.003000255876 	-3.759753823e-07 	0.006477825572 	-5.704303903e-07 	1.234853596e-05
0.9888200333 	0.006341802899 	0.002874374893 	-3.743081171e-07 	0.006215768503 	-5.710871597e-07 	1.184898235e-05
0.9896094638 	0.006033284651 	0.002735910502 	-3.645192642e-07 	0.005925275795 	-5.584101808e-07 	1.129522251e-05
0.9903695837 	0.005693324337 	0.00258245777 	-3.453248811e-07 	0.005602099085 	-5.304243243e-07 	1.067915788e-05
0.99110148 	0.005316869137 	0.002410916078 	-3.153592379e-07 	0.005241145118 	-4.852245602e-07 	9.991079296e-06
0.9918061995 	0.004898063615 	0.002218295972 	-2.720631564e-07 	0.00483652168 	-4.193927706e-07 	9.219754564e-06
0.9924847502 	0.004470023979 	0.00201518732 	-2.214310423e-07 	0.00442043576 	-3.423393673e-07 	8.426579155e-06
0.9929222326 	0.004083672986 	0.001828123157 	-1.726067875e-07 	0.00404304914 	-2.686292505e-07 	7.707175368e-06
0.9933597267 	0.003707425022 	0.00164527699 	-1.239058526e-07 	0.003674096321 	-1.964973191e-07 	7.003848749e-06
0.9937972326 	0.003294413558 	0.001439942363 	-7.188706469e-08 	0.00326786483 	-1.20381539e-07 	6.229458622e-06
0.9942347503 	0.002845158994 	0.00121246388 	-2.055255376e-08 	0.002824797282 	-4.560132534e-08 	5.384848731e-06
0.9946722798 	0.002365493221 	0.0009667840476 	2.340717576e-08 	0.002350626108 	1.973002434e-08 	4.480946685e-06
0.995109821 	0.001869968931 	0.000714169478 	5.161829319e-08 	0.001859783019 	6.581501438e-08 	3.545263334e-06
0.995547374 	0.001384290361 	0.0004750941031 	5.827965753e-08 	0.001377852191 	8.506939467e-08 	2.626569231e-06
0.9959849388 	0.0009429929492 	0.0002752573058 	4.603998969e-08 	0.0009393021163 	7.782183048e-08 	1.790570899e-06
0.9964225153 	0.0005796119199 	0.0001338754964 	2.629512402e-08 	0.0005777192701 	5.435486232e-08 	1.101293498e-06
0.9968601036 	0.0003135516676 	5.243287274e-05 	1.061052282e-08 	0.0003126930482 	2.891908993e-08 	5.960798584e-07
0.9972977036 	0.0001435198676 	1.563006641e-05 	2.828885371e-09 	0.0001431819889 	1.096614092e-08 	2.729446663e-07
0.9977353155 	5.16583441e-05 	3.221119823e-06 	4.156681367e-10 	5.15494107e-05 	2.240106947e-09 	9.826750421e-08
0.9981729391 	1.26588325e-05 	3.786562329e-07 	1.304990642e-11 	1.263384404e-05 	-2.055684898e-10 	2.408361813e-08
0.9986105744 	1.560388158e-06 	1.60366679e-08 	-2.453292003e-12 	1.55740024e-06 	-2.054483205e-10 	2.968837715e-09
0.9990482216 	6.169484013e-08 	1.025522554e-10 	-5.704814132e-14 	6.157736631e-08 	-2.412267981e-11 	1.173835747e-10
