0.4706619948 	0.01685555514 	-4.849125255e-05 	-8.035867257e-08
0.4710075948 	0.05527240609 	-0.0001573177393 	-2.607939535e-07
0.4713531957 	0.1103525519 	-0.0003133320003 	-5.190456564e-07
0.4716987974 	0.1652099025 	-0.0004701612861 	-7.778907665e-07
0.4720443999 	0.2197121538 	-0.0006268098763 	-1.035702147e-06
0.4723900032 	0.2735161814 	-0.0007820733475 	-1.290420236e-06
0.4727356072 	0.3259861692 	-0.0009340770894 	-1.538917613e-06
0.4730812121 	0.376256191 	-0.001080297289 	-1.777053358e-06
0.4734268176 	0.4234642912 	-0.001218207147 	-2.000711649e-06
0.4737724238 	0.4670154058 	-0.001346040582 	-2.207018425e-06
0.4741180308 	0.5066972119 	-0.001463131046 	-2.39487367e-06
0.4744636384 	0.5426226427 	-0.001569750734 	-2.564683529e-06
0.4748092467 	0.575099146 	-0.00166673825 	-2.717716638e-06
0.4751548556 	0.6045517658 	-0.001755291081 	-2.855795366e-06
0.4755004651 	0.6314255375 	-0.001836687256 	-2.980899804e-06
0.4758460752 	0.6593110375 	-0.00192182737 	-3.111232342e-06
0.4763821485 	0.6907882355 	-0.002018866517 	-3.252250577e-06
0.476938921 	0.7223235771 	-0.002117341845 	-3.391854164e-06
0.4775171917 	0.751356727 	-0.002209371396 	-3.516499194e-06
0.4781177908 	0.7781985291 	-0.002295818212 	-3.627516605e-06
0.4787415803 	0.8031241498 	-0.002377448883 	-3.726195017e-06
0.4793894556 	0.8263737369 	-0.002454931235 	-3.81375239e-06
0.4800623465 	0.8481552134 	-0.002528831429 	-3.891306873e-06
0.4807612188 	0.8686480644 	-0.002599619688 	-3.959861006e-06
0.4814870756 	0.8880143944 	-0.002667734669 	-4.020364151e-06
0.4822421179 	0.9063953903 	-0.002733559575 	-4.07328677e-06
0.483026758 	0.9238990464 	-0.002797344934 	-4.119135946e-06
0.4838416946 	0.9406152756 	-0.002859285186 	-4.15826429e-06
0.4846880974 	0.9566285781 	-0.002919569512 	-4.190775281e-06
0.4855671816 	0.9720144996 	-0.00297835037 	-4.216617704e-06
0.486480209 	0.986838803 	-0.003035737206 	-4.235793851e-06
0.4874284904 	1.001159086 	-0.003091815809 	-4.248629766e-06
0.488413387 	1.015026485 	-0.003146682047 	-4.255802667e-06
0.4894363127 	1.028487302 	-0.003200462202 	-4.257966079e-06
0.4904987359 	1.041583089 	-0.003253298493 	-4.255405302e-06
0.4916021819 	1.054350203 	-0.003305314762 	-4.248025506e-06
0.4927484083 	1.066825384 	-0.003356635566 	-4.235609892e-06
0.4939410131 	1.079039626 	-0.003407331916 	-4.217550435e-06
0.4951796663 	1.09101033 	-0.003457393192 	-4.194433833e-06
0.4964661458 	1.102754515 	-0.003506811429 	-4.166286823e-06
0.4978022983 	1.114292978 	-0.003555585073 	-4.133193403e-06
0.4991900419 	1.125644856 	-0.003603689433 	-4.095279827e-06
0.5006313686 	1.136828023 	-0.00365108396 	-4.05262538e-06
0.5021283474 	1.147860584 	-0.003697731424 	-4.005104751e-06
0.5036833243 	1.158765636 	-0.00374366026 	-3.952208127e-06
0.5053009913 	1.17087603 	-0.003794342588 	-3.89718271e-06
0.507786126 	1.185229491 	-0.003853550573 	-3.793472772e-06
0.5103276107 	1.200226663 	-0.003914529238 	-3.684672405e-06
0.5129267232 	1.214623193 	-0.003972023655 	-3.567744889e-06
0.5155866225 	1.228490898 	-0.004026133335 	-3.443530895e-06
0.5183093167 	1.241888558 	-0.004076901981 	-3.3128149e-06
0.5210937426 	1.254861411 	-0.0041243577 	-3.176805712e-06
0.5239412997 	1.267453154 	-0.004168561149 	-3.035895644e-06
0.5268557599 	1.279705937 	-0.004209560569 	-2.889901776e-06
0.5298382591 	1.291651297 	-0.004247342928 	-2.739718447e-06
0.5328883754 	1.303312908 	-0.004281865558 	-2.586440802e-06
0.5360076417 	1.314717587 	-0.004313118393 	-2.430510363e-06
0.5392018149 	1.32589108 	-0.004341060281 	-2.27135467e-06
0.5424684311 	1.336849458 	-0.004365610827 	-2.110792954e-06
0.5458091006 	1.347609383 	-0.004386729285 	-1.949211972e-06
0.5492284277 	1.358187739 	-0.004404363403 	-1.786305344e-06
0.5527264405 	1.368588255 	-0.004418428442 	-1.623296455e-06
0.5563037479 	1.378798568 	-0.004428837413 	-1.460840556e-06
0.5599648039 	1.388781115 	-0.004435425459 	-1.29859415e-06
0.563710135 	1.398457926 	-0.004437875645 	-1.137454676e-06
0.5675403627 	1.407723591 	-0.004435785872 	-9.779317201e-07
0.5714605688 	1.416492923 	-0.004429129321 	-8.201985205e-07
0.5754702378 	1.42478593 	-0.004418618974 	-6.659165785e-07
0.5795714394 	1.432704984 	-0.004405256901 	-5.155398104e-07
0.5837685138 	1.44029302 	-0.004390000776 	-3.692895122e-07
0.588060718 	1.447524033 	-0.004373266134 	-2.281832094e-07
0.5924524855 	1.454359897 	-0.004354995628 	-9.21708141e-08
0.5956376387 	1.458891891 	-0.004341063397 	6.264140485e-07
0.5969448504 	1.460751866 	-0.00433545001 	-3.325838151e-08
0.6015400071 	1.46664327 	-0.004315082886 	-1.422447879e-07
0.60624144 	1.471974062 	-0.004294075052 	-2.451225032e-07
0.6110496759 	1.476687049 	-0.004272949347 	-3.41271087e-07
0.6159695411 	1.480736496 	-0.00425224315 	-4.304803446e-07
0.6210009188 	1.48409569 	-0.004232440064 	-5.119457808e-07
0.6261488789 	1.486762482 	-0.004213881023 	-5.85648437e-07
0.6314136344 	1.488759303 	-0.004196706864 	-6.508644022e-07
0.636799979 	1.490128613 	-0.004180865876 	-7.076492751e-07
0.6423085767 	1.490931319 	-0.004166138652 	-7.555089218e-07
0.647944227 	1.491244977 	-0.004152154165 	-7.945903991e-07
0.6537079086 	1.491147667 	-0.004138449074 	-8.246303988e-07
0.6596039298 	1.490702455 	-0.004124590757 	-8.456657159e-07
0.6656342463 	1.489955597 	-0.004110200899 	-8.577461088e-07
0.6718023759 	1.488939701 	-0.004094938531 	-8.608073045e-07
0.6781113639 	1.487676548 	-0.004078492225 	-8.551186552e-07
0.684563927 	1.486179292 	-0.004060571344 	-8.406555235e-07
0.6911641215 	1.484454006 	-0.004040899035 	-8.177047592e-07
0.6979144655 	1.482500856 	-0.004019191793 	-7.865073443e-07
0.7048185217 	1.480314596 	-0.003995149313 	-7.472539608e-07
0.7118800563 	1.477884719 	-0.003968437738 	-7.004007076e-07
0.7191021677 	1.475195337 	-0.003938669674 	-6.46325366e-07
0.7264885336 	1.472224487 	-0.00390539093 	-5.854319915e-07
0.7340431354 	1.468962885 	-0.003868281701 	-5.183760076e-07
0.7415981228 	1.465446849 	-0.003827561856 	-4.473504304e-07
0.7489859453 	1.461729486 	-0.003783746956 	-3.748240701e-07
0.7562103599 	1.45783185 	-0.003737115413 	-3.017814462e-07
0.7632748992 	1.453756432 	-0.003687814038 	-2.290818575e-07
0.7701829824 	1.449505939 	-0.003636050462 	-1.573330662e-07
0.7769381327 	1.445083503 	-0.003582114636 	-8.703375186e-08
0.7835436839 	1.440493052 	-0.003526440604 	-1.867440161e-08
0.7853327578 	1.439176426 	-0.003510709913 	1.057090051e-06
0.7900028589 	1.435739438 	-0.003469745335 	-5.302748775e-08
0.796318988 	1.430808078 	-0.003411646882 	-1.240982264e-07
0.8024951471 	1.425643889 	-0.003350791478 	-1.919123852e-07
0.8085344581 	1.420176835 	-0.003285708155 	-2.561894642e-07
0.8144399491 	1.414354292 	-0.003215717278 	-3.167828093e-07
0.8202145485 	1.408150124 	-0.003141283045 	-3.736137284e-07
0.8258611928 	1.401566639 	-0.003063128771 	-4.26553243e-07
0.8313826642 	1.394630405 	-0.002981992188 	-4.75626022e-07
0.8367817793 	1.387383766 	-0.002898600136 	-5.20872966e-07
0.8420612036 	1.379875238 	-0.002813656616 	-5.623617053e-07
0.8472236219 	1.372151087 	-0.002727816167 	-6.001856013e-07
0.8522715954 	1.364249355 	-0.002641654165 	-6.34441091e-07
0.8572076849 	1.356196983 	-0.002555645322 	-6.652342889e-07
0.8620343473 	1.348010333 	-0.002470162615 	-6.926791268e-07
0.8667540218 	1.339698286 	-0.002385495934 	-7.168675818e-07
0.8713690693 	1.33126583 	-0.002301878006 	-7.379374647e-07
0.8758818129 	1.322716546 	-0.002219502195 	-7.559764474e-07
0.8802945187 	1.314053734 	-0.002138531602 	-7.711373389e-07
0.8846094015 	1.305280671 	-0.002059103301 	-7.835137719e-07
0.8888286335 	1.296400437 	-0.001981330369 	-7.932466343e-07
0.8929543302 	1.287415592 	-0.00190530373 	-8.004501789e-07
0.8969885676 	1.278327853 	-0.001831092815 	-8.052317696e-07
0.9009333717 	1.269137824 	-0.001758747028 	-8.07725276e-07
0.9047907241 	1.259844804 	-0.001688297206 	-8.080258206e-07
0.9085625652 	1.250446649 	-0.001619757096 	-8.06248198e-07
0.9122507886 	1.2409397 	-0.001553125682 	-8.02501888e-07
0.9158572481 	1.231318734 	-0.001488389178 	-7.968760614e-07
0.919383757 	1.221576931 	-0.001425523129 	-7.894766125e-07
0.9228320865 	1.211705853 	-0.001364494619 	-7.803956488e-07
0.9262039699 	1.201695398 	-0.001305263624 	-7.697134218e-07
0.9295011021 	1.191533702 	-0.001247783839 	-7.575186616e-07
0.9327251398 	1.181206963 	-0.001192002712 	-7.438879474e-07
0.9358777032 	1.170699115 	-0.001137860031 	-7.288842413e-07
0.9389603769 	1.159991292 	-0.001085285219 	-7.125675644e-07
0.9419747101 	1.149060973 	-0.001034193743 	-6.949903371e-07
0.9449222177 	1.137880692 	-0.0009844835821 	-6.761906492e-07
0.9478043811 	1.126416128 	-0.0009360356106 	-6.562034922e-07
0.9506226488 	1.114623293 	-0.0008887246498 	-6.350678397e-07
0.9533784372 	1.1024444 	-0.0008424206925 	-6.128385742e-07
0.9560731313 	1.089812532 	-0.0007969997379 	-5.895739666e-07
0.9587080855 	1.07666171 	-0.0007523778537 	-5.653446319e-07
0.9612846241 	1.062922275 	-0.0007084903121 	-5.402202158e-07
0.963804042 	1.049726309 	-0.0006687544793 	-5.1702243e-07
0.9654440305 	1.038545152 	-0.0006368037219 	-4.964644421e-07
0.9670230548 	1.028436719 	-0.0006092127324 	-4.787394144e-07
0.968543381 	1.018185989 	-0.0005824457017 	-4.610882623e-07
0.9700071911 	1.007780158 	-0.0005564519088 	-4.435267996e-07
0.971416586 	0.9972053837 	-0.0005311923212 	-4.260739869e-07
0.9727735884 	0.986446635 	-0.0005066342931 	-4.087491564e-07
0.9740801459 	0.9754875271 	-0.0004827477421 	-3.915700127e-07
0.9753381338 	0.9643101268 	-0.0004595047976 	-3.745527144e-07
0.9765493574 	0.9528947321 	-0.0004368799245 	-3.577122019e-07
0.9777155551 	0.9412196157 	-0.0004148498667 	-3.410623858e-07
0.9788384008 	0.9292607266 	-0.000393393537 	-3.246163361e-07
0.9799195059 	0.9169913392 	-0.0003724919229 	-3.083864485e-07
0.9809604221 	0.9043816401 	-0.0003521279913 	-2.923843583e-07
0.9819626432 	0.8913982389 	-0.0003322866698 	-2.766211324e-07
0.9829276079 	0.8780035853 	-0.0003129551433 	-2.611073807e-07
0.9838567009 	0.8641552719 	-0.0002941235572 	-2.458556779e-07
0.9847512558 	0.8498043248 	-0.0002757762291 	-2.308740426e-07
0.9856125564 	0.8348869143 	-0.0002578908872 	-2.161642019e-07
0.986441839 	0.8193204503 	-0.000240440758 	-2.017284951e-07
0.9872402938 	0.8030144144 	-0.0002234112804 	-1.875767574e-07
0.9880090667 	0.7858743187 	-0.0002068086079 	-1.737271901e-07
0.9887492611 	0.7677953793 	-0.0001906429408 	-1.601991346e-07
0.9894619395 	0.7486581561 	-0.0001749263858 	-1.470123465e-07
0.9901481246 	0.7283251499 	-0.0001596730805 	-1.341872351e-07
0.9908088013 	0.7066378786 	-0.0001448996058 	-1.217452565e-07
0.9914449179 	0.6834142769 	-0.0001306254641 	-1.097093185e-07
0.9920573874 	0.6584467832 	-0.0001168734237 	-9.810402753e-08
0.9926470888 	0.6315020207 	-0.0001036697227 	-8.695569657e-08
0.9932148685 	0.6023220004 	-9.104445258e-05 	-7.629317309e-08
0.9937615414 	0.5732982778 	-7.998362018e-05 	-6.696827845e-08
0.9941139861 	0.547663723 	-7.129929008e-05 	-5.962204325e-08
0.994466431 	0.5229794866 	-6.378056189e-05 	-5.327745343e-08
0.9948188759 	0.4959354605 	-5.638252815e-05 	-4.70375688e-08
0.9951713209 	0.4662208912 	-4.913433289e-05 	-4.092901956e-08
0.995523766 	0.4335843539 	-4.208250912e-05 	-3.499294188e-08
0.9958762112 	0.3978834652 	-3.528307927e-05 	-2.927869472e-08
0.9962286565 	0.3591773003 	-2.880843539e-05 	-2.384953025e-08
0.9965811018 	0.3177988992 	-2.27482993e-05 	-1.87829209e-08
0.9969335472 	0.2743383547 	-1.720458074e-05 	-1.416521878e-08
0.9972859928 	0.2295028758 	-1.22804525e-05 	-1.008103468e-08
0.9976384383 	0.1839223896 	-8.07057465e-06 	-6.603430869e-09
0.997990884 	0.1380234161 	-4.662126777e-06 	-3.797315038e-09
0.9983433298 	0.0920249038 	-2.146889428e-06 	-1.747954086e-09
0.9986957756 	0.04600950136 	-5.885835299e-07 	-5.683652999e-10
0.9990482216 	0.01680791452 	-3.82533216e-08 	-1.542292621e-10
0.9990482216 	0.01680791452 	-3.82533216e-08 	-1.542292621e-10
