0.4709558481 	0.01691463555 	-1.172778825e-08 	-3.966715598e-11
0.4709558481 	0.01691463555 	-1.172778825e-08 	-3.966715598e-11
0.4713069734 	0.05506794031 	-1.418711698e-07 	-6.044493725e-10
0.4716580986 	0.1100065207 	-4.989149487e-07 	-2.210347295e-09
0.4720092239 	0.1647831414 	-1.07042725e-06 	-4.849076866e-09
0.4723603491 	0.2192567658 	-1.832392338e-06 	-8.442838971e-09
0.4727114744 	0.2730632138 	-2.75630372e-06 	-1.28789262e-08
0.4730625996 	0.3255314909 	-3.815969483e-06 	-1.80368981e-08
0.4734137249 	0.375756877 	-4.984392516e-06 	-2.376889041e-08
0.4737648501 	0.42285365 	-6.234417771e-06 	-2.990499085e-08
0.4741159754 	0.4662279149 	-7.541628804e-06 	-3.627873799e-08
0.4744671006 	0.5056866605 	-8.886286609e-06 	-4.274980301e-08
0.4748182259 	0.5413667103 	-1.025334226e-05 	-4.921324988e-08
0.4751693511 	0.5735966646 	-1.163207829e-05 	-5.562119463e-08
0.4755204764 	0.6028142801 	-1.301582108e-05 	-6.196870846e-08
0.4758716016 	0.6294675479 	-1.440127588e-05 	-6.827237295e-08
0.4762227269 	0.6571216643 	-1.597359846e-05 	-7.539782562e-08
0.4767673536 	0.6883429689 	-1.792717293e-05 	-8.425828348e-08
0.4773330083 	0.719635176 	-2.009412291e-05 	-9.41738173e-08
0.4779205028 	0.7484649891 	-2.229231188e-05 	-1.044176513e-07
0.4785306805 	0.7751437357 	-2.450966974e-05 	-1.150189414e-07
0.479164417 	0.7999452514 	-2.673479232e-05 	-1.25999552e-07
0.4798226221 	0.8231073041 	-2.895686313e-05 	-1.373724743e-07
0.4805062404 	0.8448348833 	-3.116538322e-05 	-1.491391918e-07
0.4812162531 	0.8653042319 	-3.335002989e-05 	-1.612885126e-07
0.4819536793 	0.884666733 	-3.550052205e-05 	-1.737969037e-07
0.4827195775 	0.9030525181 	-3.760653761e-05 	-1.86631745e-07
0.483515047 	0.9205736838 	-3.965770516e-05 	-1.997580952e-07
0.4843412294 	0.9373270782 	-4.164359668e-05 	-2.131460964e-07
0.4851993106 	0.9533966726 	-4.355362408e-05 	-2.267752471e-07
0.4860905223 	0.9688555611 	-4.537684617e-05 	-2.406351418e-07
0.4870161436 	0.9837676324 	-4.71017527e-05 	-2.547245023e-07
0.487977503 	0.9981889656 	-4.871606399e-05 	-2.690497922e-07
0.4889759804 	1.012168991 	-5.020655109e-05 	-2.836237708e-07
0.4900130089 	1.025751455 	-5.155886439e-05 	-2.984638168e-07
0.491090077 	1.038975222 	-5.275734813e-05 	-3.13589555e-07
0.4922087306 	1.051874937 	-5.378481692e-05 	-3.290194791e-07
0.4933705753 	1.064481577 	-5.462231057e-05 	-3.447677267e-07
0.4945772787 	1.076822905 	-5.524891515e-05 	-3.608442543e-07
0.4958305727 	1.08892386 	-5.564169918e-05 	-3.772597461e-07
0.4971322564 	1.100806901 	-5.577565222e-05 	-3.940308342e-07
0.4984841978 	1.112492354 	-5.562348551e-05 	-4.111808615e-07
0.4998883377 	1.123998813 	-5.515530132e-05 	-4.287371314e-07
0.5013466912 	1.135343671 	-5.433850199e-05 	-4.467288656e-07
0.5028613516 	1.146543896 	-5.313909109e-05 	-4.651865697e-07
0.5044344929 	1.157617179 	-5.152248732e-05 	-4.841188285e-07
0.506068373 	1.169912749 	-4.915725234e-05 	-5.058224849e-07
0.5085784129 	1.184496399 	-4.543651408e-05 	-5.323849505e-07
0.5111453651 	1.199750961 	-4.035034263e-05 	-5.613035264e-07
0.5137705202 	1.214409351 	-3.413988513e-05 	-5.903863619e-07
0.5164551977 	1.228537293 	-2.673777726e-05 	-6.196376075e-07
0.5192007473 	1.242193263 	-1.807724529e-05 	-6.490331976e-07
0.5220085492 	1.255428133 	-8.092836212e-06 	-6.785695034e-07
0.5248800149 	1.268285692 	3.282209239e-06 	-7.08254564e-07
0.5278165879 	1.280803535 	1.61166757e-05 	-7.380893585e-07
0.5308197445 	1.293014084 	3.048154368e-05 	-7.68066282e-07
0.5338909942 	1.304945599 	4.645036307e-05 	-7.981807139e-07
0.5370318812 	1.316623055 	6.410052306e-05 	-8.284269669e-07
0.5402439843 	1.328068687 	8.351467743e-05 	-8.587849577e-07
0.5435289183 	1.339301861 	0.0001047798509 	-8.892237358e-07
0.5468883345 	1.350337732 	0.0001279804447 	-9.197071933e-07
0.5503239217 	1.361183885 	0.0001531774742 	-9.501837417e-07
0.5538374071 	1.371833934 	0.0001803589908 	-9.805699217e-07
0.5574305568 	1.382257544 	0.0002093487043 	-1.010712254e-06
0.5611051773 	1.392390567 	0.0002397002302 	-1.040271845e-06
0.5648631156 	1.40213642 	0.0002706753967 	-1.068529167e-06
0.5687062611 	1.411390499 	0.000301450473 	-1.094531066e-06
0.5726365456 	1.42009117 	0.0003316255824 	-1.118940804e-06
0.576655945 	1.428291432 	0.0003613266246 	-1.142292563e-06
0.5807664798 	1.436104225 	0.0003909026557 	-1.165088974e-06
0.5849702164 	1.443557724 	0.0004202072766 	-1.18732975e-06
0.5892692681 	1.450607079 	0.0004485872209 	-1.207901491e-06
0.593665796 	1.457197424 	0.0004753751854 	-1.226675837e-06
0.5981620103 	1.463266808 	0.0004997558261 	-1.243353974e-06
0.6027601713 	1.468751387 	0.0005208049915 	-1.257615563e-06
0.6074625904 	1.473592904 	0.0005375698357 	-1.269270162e-06
0.6122716317 	1.477747527 	0.0005491765378 	-1.278327169e-06
0.6171897127 	1.48119389 	0.000554951113 	-1.284998405e-06
0.6222193057 	1.483937445 	0.000554518353 	-1.289627057e-06
0.6273629392 	1.486009159 	0.000547812243 	-1.29250825e-06
0.6326231989 	1.487458643 	0.0005350283918 	-1.293999925e-06
0.6380027291 	1.488351044 	0.0005166884399 	-1.294628978e-06
0.6435042341 	1.488766251 	0.0004935691245 	-1.294733486e-06
0.6491304798 	1.48878451 	0.0004664548136 	-1.294349299e-06
0.6548842942 	1.488470414 	0.0004360393455 	-1.293393526e-06
0.6607685701 	1.487870798 	0.0004028960562 	-1.29174338e-06
0.6667862654 	1.487018538 	0.0003674720981 	-1.289272672e-06
0.6729404052 	1.485935852 	0.0003301220095 	-1.285866008e-06
0.6792340834 	1.484636758 	0.0002911327392 	-1.281407734e-06
0.6856704637 	1.483128842 	0.0002507423241 	-1.275784299e-06
0.6922527818 	1.481414502 	0.0002091566344 	-1.268885421e-06
0.6989843466 	1.479491734 	0.000166564983 	-1.26060073e-06
0.7058685423 	1.477354565 	0.0001231552849 	-1.250814421e-06
0.7129088294 	1.474993136 	7.912993208e-05 	-1.239399496e-06
0.7201087472 	1.472393455 	3.472465868e-05 	-1.226210158e-06
0.7274719152 	1.469536765 	-9.766608678e-06 	-1.211077804e-06
0.7350020349 	1.466416247 	-5.373345948e-05 	-1.193926292e-06
0.7425321576 	1.463065999 	-9.602803736e-05 	-1.174981552e-06
0.7498953284 	1.459533196 	-0.0001356072229 	-1.15465456e-06
0.7570952489 	1.455833861 	-0.0001720600928 	-1.133273121e-06
0.7641355384 	1.451966668 	-0.0002052818606 	-1.111079013e-06
0.7710197363 	1.447930247 	-0.0002352241152 	-1.088289236e-06
0.7777513032 	1.443723271 	-0.0002618850489 	-1.065116021e-06
0.7843336232 	1.439344607 	-0.0002853072904 	-1.041773419e-06
0.7907700052 	1.434793438 	-0.0003055941697 	-1.018512094e-06
0.7970636849 	1.430069363 	-0.0003229475457 	-9.956647851e-07
0.8032178261 	1.4251671 	-0.0003373143241 	-9.730003522e-07
0.8092355226 	1.42004245 	-0.0003484514364 	-9.498793913e-07
0.8151197995 	1.414605973 	-0.0003560538874 	-9.255854155e-07
0.8208736149 	1.408789074 	-0.0003598188034 	-9.00010145e-07
0.8264998613 	1.402577256 	-0.000359745881 	-8.739542785e-07
0.8320013671 	1.395990399 	-0.0003560057341 	-8.480704051e-07
0.8373808978 	1.389066175 	-0.0003488839198 	-8.227123418e-07
0.8426411579 	1.381847994 	-0.0003387770273 	-7.980538291e-07
0.8477847917 	1.374377643 	-0.0003261668944 	-7.741996213e-07
0.8528143849 	1.366691352 	-0.0003115731228 	-7.51212444e-07
0.857732466 	1.358817833 	-0.0002955006216 	-7.290970575e-07
0.8625415073 	1.350777672 	-0.0002783981842 	-7.077990864e-07
0.8672439263 	1.342584274 	-0.0002606400109 	-6.872321418e-07
0.8718420871 	1.334246144 	-0.0002425303815 	-6.673105359e-07
0.8763383011 	1.325769327 	-0.0002243201862 	-6.479652133e-07
0.8807348287 	1.317158971 	-0.0002062220341 	-6.291417636e-07
0.8850338799 	1.308419922 	-0.0001884187619 	-6.107938289e-07
0.889237616 	1.299556744 	-0.0001710674905 	-5.928792554e-07
0.8933481502 	1.290573485 	-0.0001543018123 	-5.753584281e-07
0.8973675489 	1.281473381 	-0.0001382332383 	-5.581937923e-07
0.9012978327 	1.272258587 	-0.0001229524094 	-5.413500595e-07
0.9051409774 	1.262929955 	-0.0001085303321 	-5.247946809e-07
0.9088989149 	1.253486876 	-9.501976247e-05 	-5.084982289e-07
0.9125735344 	1.24392715 	-8.245677466e-05 	-4.924344287e-07
0.9161666832 	1.234246898 	-7.086250875e-05 	-4.765798203e-07
0.9196801676 	1.224440492 	-6.024510362e-05 	-4.609135031e-07
0.9231157538 	1.214500498 	-5.06018552e-05 	-4.454178728e-07
0.9264751689 	1.204417633 	-4.192166229e-05 	-4.300811041e-07
0.9297601017 	1.194180718 	-3.418774586e-05 	-4.149006405e-07
0.9329722036 	1.183776617 	-2.738038459e-05 	-3.998841872e-07
0.9361130893 	1.173190089 	-2.147901305e-05 	-3.850425478e-07
0.9391843379 	1.162403499 	-1.646266638e-05 	-3.703706713e-07
0.9421874931 	1.151396212 	-1.230780621e-05 	-3.558222514e-07
0.9451240648 	1.140143501 	-8.983252155e-06 	-3.412965136e-07
0.9479955291 	1.128614668 	-6.442016653e-06 	-3.26663014e-07
0.9508033297 	1.116770054 	-4.606845853e-06 	-3.118361683e-07
0.9535488779 	1.104556453 	-3.345904862e-06 	-2.968601783e-07
0.956233554 	1.09190721 	-2.518950973e-06 	-2.818567809e-07
0.9588587076 	1.078750942 	-2.008758353e-06 	-2.669509817e-07
0.9614256584 	1.065014704 	-1.740489433e-06 	-2.521976127e-07
0.9639356968 	1.051829032 	-1.67406843e-06 	-2.387360868e-07
0.9655695775 	1.040662522 	-1.725480606e-06 	-2.278219377e-07
0.9671427194 	1.030570858 	-1.832867153e-06 	-2.183408323e-07
0.9686573803 	1.020340414 	-1.985718038e-06 	-2.091058003e-07
0.9701157342 	1.009958221 	-2.170883554e-06 	-2.001056999e-07
0.9715198744 	0.9994102693 	-2.377328116e-06 	-1.913317438e-07
0.9728718162 	0.9886813621 	-2.595736166e-06 	-1.827786892e-07
0.9741735001 	0.9777549371 	-2.818070547e-06 	-1.744429512e-07
0.9754267944 	0.9666128727 	-3.037414524e-06 	-1.66321909e-07
0.9766334979 	0.9552352628 	-3.247876357e-06 	-1.584135786e-07
0.9777953427 	0.9436001562 	-3.444492537e-06 	-1.507161928e-07
0.9789139964 	0.931683253 	-3.623133723e-06 	-1.432276773e-07
0.9799910645 	0.9194575492 	-3.780417516e-06 	-1.359450728e-07
0.981028093 	0.9068929174 	-3.913629071e-06 	-1.288639479e-07
0.9820265703 	0.8939556105 	-4.020649497e-06 	-1.219778057e-07
0.9829879297 	0.8806076711 	-4.099867929e-06 	-1.152771951e-07
0.9839135509 	0.8668062264 	-4.150015415e-06 	-1.087481045e-07
0.9848047624 	0.8525026429 	-4.17001324e-06 	-1.023726764e-07
0.9856628435 	0.8376340977 	-4.160486618e-06 	-9.614230322e-08
0.9864890258 	0.8221171794 	-4.123110861e-06 	-9.004728018e-08
0.987284495 	0.8058587377 	-4.059917796e-06 	-8.407866637e-08
0.988050393 	0.7887620363 	-3.972759348e-06 	-7.823045747e-08
0.988787819 	0.7707207413 	-3.862270628e-06 	-7.24918096e-08
0.9894978315 	0.7516140067 	-3.729268102e-06 	-6.686296414e-08
0.9901814495 	0.7313028283 	-3.575138413e-06 	-6.135447684e-08
0.9908396543 	0.7096270312 	-3.401780437e-06 	-5.598118472e-08
0.9914733905 	0.6864026536 	-3.211503512e-06 	-5.075768302e-08
0.9920835679 	0.6614200879 	-3.006958772e-06 	-4.569635136e-08
0.9926710621 	0.6344438668 	-2.79114299e-06 	-4.08072682e-08
0.9932367165 	0.6052140198 	-2.567267541e-06 	-3.609904602e-08
0.9937813429 	0.5761271195 	-2.356809721e-06 	-3.193755958e-08
0.9941324681 	0.5504293661 	-2.181218271e-06 	-2.863489966e-08
0.9944835934 	0.5256815657 	-2.021299858e-06 	-2.574202662e-08
0.9948347186 	0.498563925 	-1.855753735e-06 	-2.285926847e-08
0.9951858439 	0.4687631399 	-1.684346956e-06 	-1.999636243e-08
0.9955369691 	0.43602736 	-1.507604939e-06 	-1.717617615e-08
0.9958880943 	0.4002138275 	-1.325889985e-06 	-1.442736872e-08
0.9962392196 	0.3613803992 	-1.139632489e-06 	-1.178760392e-08
0.9965903448 	0.3198567101 	-9.499195046e-07 	-9.303203955e-09
0.9969414701 	0.276226542 	-7.59340399e-07 	-7.025123782e-09
0.9972925953 	0.2311889823 	-5.726591835e-07 	-5.002360684e-09
0.9976437206 	0.1853664184 	-3.96929614e-07 	-3.276878762e-09
0.9979948458 	0.1391801093 	-2.413010247e-07 	-1.884668955e-09
0.9983459711 	0.09284604603 	-1.170346852e-07 	-8.629461123e-10
0.9986970963 	0.04644537456 	-3.482061258e-08 	-2.393164967e-10
0.9990482216 	0.01712141519 	-3.944795301e-09 	-2.130311936e-11
0.9990482216 	0.01712141519 	-3.944795301e-09 	-2.130311936e-11
