0.2166463761 	1.051212453e-07 	-5.767451907e-10 	3.619491979e-13 	1.040237373e-07 	-4.045943315e-11 	1.982981552e-10
0.2171572358 	4.107227467e-06 	-1.352695299e-07 	1.275968981e-10 	3.889107608e-06 	-2.384384309e-09 	7.413720022e-09
0.2176681208 	3.617422606e-05 	-3.129982002e-06 	3.328305366e-09 	3.12300684e-05 	-2.131312242e-08 	5.953319033e-08
0.2181790146 	0.0001561029069 	-2.367071228e-05 	2.495556357e-08 	0.0001189300546 	-8.046971218e-08 	2.267137389e-07
0.2186899005 	0.0004367147817 	-9.238701579e-05 	8.6307406e-08 	0.000292053627 	-1.775237527e-07 	5.567353851e-07
0.2192007621 	0.0008962712178 	-0.0002292935963 	1.687827416e-07 	0.0005379947969 	-2.615506773e-07 	1.025567611e-06
0.2197115828 	0.001447417947 	-0.0004036772009 	1.583261038e-07 	0.0008180313056 	-3.017990504e-07 	1.559395028e-06
0.2202223462 	0.001962069711 	-0.0005591130775 	6.823440143e-08 	0.001092025212 	-2.600743967e-07 	2.081703567e-06
0.2207330361 	0.002376078485 	-0.0006777685525 	-2.695908949e-08 	0.001323604455 	-1.148163742e-07 	2.523157969e-06
0.221243636 	0.002677217681 	-0.0007650246964 	-1.560093538e-07 	0.001492846591 	8.634759973e-08 	2.845780518e-06
0.2217541297 	0.002866305441 	-0.0008209023006 	-3.005530512e-07 	0.00160095856 	2.997997017e-07 	3.051871979e-06
0.222264501 	0.002958412373 	-0.0008492041644 	-4.310630636e-07 	0.001657556458 	4.815917915e-07 	3.159763302e-06
0.2227747338 	0.002976135109 	-0.0008562894958 	-5.135723561e-07 	0.00167605429 	5.948450781e-07 	3.195025312e-06
0.223284812 	0.002944132061 	-0.0008497630225 	-5.248790314e-07 	0.001670574984 	6.052410359e-07 	3.184580232e-06
0.2237947196 	0.002884983105 	-0.0008368853434 	-4.60354679e-07 	0.001654460951 	4.76347458e-07 	3.153862407e-06
0.2243044406 	0.002806848426 	-0.0008216974451 	-3.082855083e-07 	0.001637948311 	1.27458259e-07 	3.122384725e-06
0.2250946569 	0.002705392026 	-0.0007947621598 	-4.001767354e-07 	0.0016457257 	-7.696291836e-07 	3.137210589e-06
0.2259148042 	0.002586015511 	-0.0007386062479 	-8.220318327e-07 	0.001707500699 	-2.172480435e-06 	3.254970908e-06
0.2267659227 	0.002470277701 	-0.0006628257279 	-1.015427066e-06 	0.001820785405 	-3.543428948e-06 	3.470923044e-06
0.2276490757 	0.002372353151 	-0.0005887534223 	-9.751663268e-07 	0.001966082021 	-4.768099007e-06 	3.747898776e-06
0.2285653483 	0.002290839612 	-0.0005218280478 	-8.999278567e-07 	0.002129211221 	-5.853459728e-06 	4.05886837e-06
0.2295158458 	0.002221410017 	-0.0004628214025 	-7.678882301e-07 	0.002297947858 	-6.74104065e-06 	4.380527299e-06
0.2305016917 	0.002160669482 	-0.000411774539 	-6.116498511e-07 	0.002462723452 	-7.441381695e-06 	4.694635378e-06
0.2315240249 	0.00210580028 	-0.0003674976205 	-4.398016807e-07 	0.002617285009 	-7.572339261e-06 	4.989272664e-06
0.2325839972 	0.002054597296 	-0.0003277657226 	-3.269963036e-07 	0.002756248647 	-7.122491761e-06 	5.25417598e-06
0.2336827697 	0.002005882201 	-0.0002894839919 	-3.656030706e-07 	0.002871276674 	-6.16944278e-06 	5.473451372e-06
0.2348215088 	0.001959232399 	-0.0002503862575 	-4.736671474e-07 	0.002955709233 	-4.89323075e-06 	5.634403296e-06
0.2360013815 	0.00191476977 	-0.0002105948623 	-5.178427022e-07 	0.003008958465 	-3.672409646e-06 	5.735911131e-06
0.2372430878 	0.001872956587 	-0.0001713255212 	-4.249327141e-07 	0.003031574414 	-2.796597741e-06 	5.779023415e-06
0.2385518782 	0.001834144017 	-0.0001358225295 	-2.308172444e-07 	0.003032112486 	-2.264409319e-06 	5.780049131e-06
0.2399085124 	0.001798879423 	-0.0001074789631 	-4.128381912e-08 	0.003021766966 	-1.829975319e-06 	5.760327693e-06
0.2413146526 	0.001767245777 	-8.660558879e-05 	1.066377594e-07 	0.003003801316 	-1.472453301e-06 	5.726080171e-06
0.2427720136 	0.001738839487 	-7.230811203e-05 	1.999185882e-07 	0.002980504718 	-1.18220968e-06 	5.681670381e-06
0.2442823642 	0.00171329692 	-6.314679437e-05 	2.435253928e-07 	0.002953819311 	-9.460002025e-07 	5.630800578e-06
0.2458475291 	0.001690145959 	-5.771809385e-05 	2.473982447e-07 	0.00292531126 	-7.495870961e-07 	5.57645631e-06
0.2474693895 	0.001668887661 	-5.479874471e-05 	2.229504477e-07 	0.002896165744 	-5.801464931e-07 	5.520896856e-06
0.2491498857 	0.001649089989 	-5.33922616e-05 	1.807696588e-07 	0.002867208528 	-4.278200576e-07 	5.465696354e-06
0.2508910183 	0.001630418223 	-5.277407639e-05 	1.286278257e-07 	0.00283896383 	-2.860479115e-07 	5.411854109e-06
0.2526948498 	0.001612636058 	-5.247610313e-05 	7.112948161e-08 	0.002811727504 	-1.511067831e-07 	5.359934102e-06
0.2545635066 	0.001595559266 	-5.225355548e-05 	1.040894e-08 	0.002785599295 	-2.126091023e-08 	5.310126474e-06
0.2548830704 	0.001592837977 	-5.221496133e-05 	-5.872967493e-09 	0.002781470206 	-3.116691711e-07 	5.302255282e-06
0.2564898972 	0.00157889378 	-5.21355935e-05 	4.777902162e-08 	0.002760241106 	-1.035079672e-07 	5.261786717e-06
0.2585313912 	0.001562622687 	-5.198620117e-05 	1.090085246e-07 	0.002735739579 	-2.266776876e-07 	5.215079997e-06
0.260645692 	0.001546940684 	-5.178216567e-05 	1.728239996e-07 	0.002712317914 	-3.454375433e-07 	5.170431794e-06
0.262835234 	0.001532009873 	-5.140738524e-05 	2.392837988e-07 	0.002690103961 	-4.599309289e-07 	5.128085825e-06
0.2651025266 	0.001517712009 	-5.099876388e-05 	3.087233781e-07 	0.002669126825 	-5.703042559e-07 	5.088097575e-06
0.2674501564 	0.001502131119 	-5.091029013e-05 	3.821798614e-07 	0.002646988371 	-6.75468579e-07 	5.045895527e-06
0.271042675 	0.001484586222 	-5.054556689e-05 	4.954073799e-07 	0.00262253914 	-8.247077342e-07 	4.999288499e-06
0.2746994974 	0.001467282326 	-4.997286595e-05 	6.128913659e-07 	0.002598582928 	-9.596675159e-07 	4.9536213e-06
0.2785254168 	0.001451549862 	-4.944098565e-05 	7.384096846e-07 	0.002577315734 	-1.086470168e-06 	4.913080117e-06
0.2824251173 	0.001437282528 	-4.896270639e-05 	6.940165868e-07 	0.002558730849 	-9.598665643e-07 	4.877652161e-06
0.2863932015 	0.001424497544 	-4.842186221e-05 	5.89292749e-07 	0.002542716774 	-7.666447915e-07 	4.847124883e-06
0.2904309162 	0.001413013172 	-4.784526616e-05 	4.805161243e-07 	0.002529029262 	-5.881013503e-07 	4.821032681e-06
0.294573134 	0.001402621385 	-4.722743425e-05 	3.663868141e-07 	0.002517408965 	-4.216753703e-07 	4.798881166e-06
0.2988699963 	0.001393241365 	-4.648534629e-05 	2.451876202e-07 	0.002507710477 	-2.651291941e-07 	4.78039315e-06
0.3032408173 	0.001384880501 	-4.560221612e-05 	1.191487045e-07 	0.002499872662 	-1.210752866e-07 	4.765452098e-06
0.3072901568 	0.0013781301 	-4.470400671e-05 	-5.324971625e-09 	0.002494356824 	-1.52727463e-07 	4.754937376e-06
0.307683455 	0.00137746286 	-4.463752727e-05 	1.073245962e-08 	0.00249378169 	-1.157580304e-08 	4.753841012e-06
0.3121879332 	0.001370842643 	-4.385409678e-05 	1.342882473e-07 	0.002488974404 	-1.367297651e-07 	4.744676989e-06
0.3168689661 	0.001364988383 	-4.289417429e-05 	2.654535665e-07 	0.002485700239 	-2.549930587e-07 	4.738435521e-06
0.3216307364 	0.001359911398 	-4.171962818e-05 	4.014814646e-07 	0.002483892499 	-3.641192702e-07 	4.734989466e-06
0.3264749096 	0.001355540623 	-4.0398797e-05 	5.423440034e-07 	0.002483493376 	-4.64802528e-07 	4.734228625e-06
0.3314629572 	0.001351773424 	-3.889968126e-05 	6.896386344e-07 	0.002484447303 	-5.587173545e-07 	4.736047076e-06
0.3365979395 	0.001348608462 	-3.711629138e-05 	8.431558311e-07 	0.002486690433 	-6.460579616e-07 	4.740323106e-06
0.3418207312 	0.001346030545 	-3.50785342e-05 	7.476077733e-07 	0.002490152298 	-5.423334298e-07 	4.746922382e-06
0.3471530973 	0.001343953531 	-3.283344438e-05 	6.199352171e-07 	0.002494803814 	-4.260916807e-07 	4.755789464e-06
0.3526786304 	0.001342347761 	-3.025704039e-05 	4.852832093e-07 	0.002500628509 	-3.160643944e-07 	4.766892951e-06
0.3582978752 	0.001341217649 	-2.733482881e-05 	3.466216623e-07 	0.002507528267 	-2.142131182e-07 	4.780045808e-06
0.3640278778 	0.001340504238 	-2.415264874e-05 	2.035302152e-07 	0.002515477337 	-1.195315729e-07 	4.795198944e-06
0.3699614344 	0.001340169267 	-2.057796973e-05 	5.391329616e-08 	0.002524481978 	-3.012394377e-08 	4.812364293e-06
0.3721116093 	0.001340199021 	-1.917695988e-05 	1.216448929e-08 	0.002528034334 	-4.551955373e-07 	4.819136071e-06
0.3759744346 	0.001340282802 	-1.680742942e-05 	9.024169896e-08 	0.002534203671 	-5.671785604e-08 	4.830896542e-06
0.3821181234 	0.001340785463 	-1.281333272e-05 	2.334056566e-07 	0.002544723492 	-1.409899871e-07 	4.850950245e-06
0.3884469116 	0.001341614951 	-8.352521199e-06 	3.80644913e-07 	0.002556146241 	-2.215177655e-07 	4.872725179e-06
0.3948846144 	0.001342760777 	-3.476472701e-06 	5.294461566e-07 	0.002568393998 	-2.978424246e-07 	4.896072808e-06
0.4015183131 	0.001344176519 	1.856749265e-06 	6.811310928e-07 	0.002581460977 	-3.715185384e-07 	4.920982102e-06
0.4082958517 	0.001345846469 	7.708002058e-06 	8.334557673e-07 	0.002595272395 	-4.424705896e-07 	4.947310503e-06
0.4152271829 	0.00134774722 	1.403955965e-05 	8.924698698e-07 	0.002609780522 	-4.629565822e-07 	4.974967026e-06
0.4223518173 	0.001349844919 	2.094973157e-05 	7.594150728e-07 	0.002624946777 	-3.864531241e-07 	5.003878122e-06
0.4296082521 	0.001352126603 	2.841408981e-05 	6.261238296e-07 	0.002640697212 	-3.140428344e-07 	5.033902829e-06
0.437087353 	0.001354561419 	3.651974635e-05 	4.915852259e-07 	0.002656998233 	-2.44071048e-07 	5.064977107e-06
0.4446968481 	0.001357131809 	4.527234645e-05 	3.586557431e-07 	0.00267375712 	-1.772296124e-07 	5.096924204e-06
0.4525341922 	0.001359816435 	5.473874314e-05 	2.263359099e-07 	0.002690923065 	-1.118655328e-07 	5.129647265e-06
0.4605132852 	0.001362592456 	6.495167035e-05 	9.746480894e-08 	0.002708394972 	-4.847033639e-08 	5.162953576e-06
0.466862179 	0.001364804959 	7.347017268e-05 	6.746237706e-08 	0.002722101127 	-2.83291931e-07 	5.189081317e-06
0.4687170369 	0.001365474065 	7.591222985e-05 	2.614751409e-08 	0.002726052955 	-1.523475034e-08 	5.1966146e-06
0.4770612456 	0.001368502352 	8.755361636e-05 	1.367507802e-07 	0.002743679619 	-8.07776968e-08 	5.23021592e-06
0.4856357945 	0.001371576365 	0.0001001022591 	2.42350835e-07 	0.002761348022 	-1.458729312e-07 	5.263896808e-06
0.4943867518 	0.001374668315 	0.0001136293173 	3.409139254e-07 	0.002778915457 	-2.102822198e-07 	5.297385221e-06
0.5033553558 	0.001377772618 	0.0001281656578 	4.316767127e-07 	0.00279625175 	-2.743521004e-07 	5.330433013e-06
0.5125279432 	0.001380869421 	0.000143771756 	5.132988955e-07 	0.002813194801 	-3.380305342e-07 	5.362731177e-06
0.5219033258 	0.001383955829 	0.0001605073009 	5.844332639e-07 	0.002829567594 	-4.01082253e-07 	5.393942271e-06
0.5315117991 	0.001387029036 	0.0001783997272 	6.443025195e-07 	0.002845197093 	-4.633832788e-07 	5.42373644e-06
0.5413267455 	0.001390087509 	0.0001975256222 	6.914952624e-07 	0.002859849287 	-5.242889537e-07 	5.451667595e-06
0.5513673254 	0.001393146575 	0.0002179133547 	7.251519543e-07 	0.002873299113 	-5.831247919e-07 	5.477306701e-06
0.5616420937 	0.001396217565 	0.0002395753287 	6.596148235e-07 	0.002885304041 	-5.661220676e-07 	5.500191431e-06
0.572141739 	0.001399321989 	0.0002625541047 	5.781225264e-07 	0.002895568944 	-5.331443012e-07 	5.519759188e-06
0.5828761785 	0.001402490712 	0.0002868339485 	5.02837525e-07 	0.002903806522 	-5.018228197e-07 	5.535462302e-06
0.5938599386 	0.001405759349 	0.0003123894924 	4.337177474e-07 	0.002909717404 	-4.72123819e-07 	5.546730087e-06
0.6050853588 	0.001409151642 	0.0003390649171 	3.709100613e-07 	0.002912968632 	-4.441987445e-07 	5.55292783e-06
0.616304903 	0.001412674921 	0.000366274205 	3.153107246e-07 	0.002913300867 	-4.187939773e-07 	5.553561163e-06
0.6272726831 	0.001416369545 	0.0003933550211 	2.671987776e-07 	0.002910665877 	-3.9632901e-07 	5.548538139e-06
0.6379972968 	0.001420270684 	0.0004200442252 	2.254971671e-07 	0.002905198268 	-3.764025588e-07 	5.538115357e-06
0.6484784085 	0.001424381026 	0.0004462477322 	1.893757215e-07 	0.002897052706 	-3.588971802e-07 	5.522587652e-06
0.6587224262 	0.001428694952 	0.0004718303865 	1.5822899e-07 	0.00288637277 	-3.435867242e-07 	5.502228726e-06
0.668740208 	0.001433205991 	0.000496668649 	1.304014479e-07 	0.002873342391 	-3.292327938e-07 	5.477389202e-06
0.6785322795 	0.001438411214 	0.000520192293 	1.262886361e-07 	0.002857290376 	-2.780507761e-07 	5.446789599e-06
0.6881039118 	0.001444621772 	0.0005419966611 	1.539622296e-07 	0.002837928517 	-1.848286764e-07 	5.409880514e-06
0.6974645066 	0.001453071332 	0.0005606701821 	1.967262705e-07 	0.002813866644 	-8.806480057e-08 	5.364011896e-06
0.7066151573 	0.001463674662 	0.0005761549248 	2.414670813e-07 	0.002785850606 	-6.67622494e-09 	5.310605542e-06
0.7155620738 	0.001475396245 	0.0005894081565 	2.643122986e-07 	0.002756033421 	3.491519062e-08 	5.2537657e-06
0.7243111915 	0.001487686534 	0.0006011411229 	2.668360193e-07 	0.002725600476 	4.800281005e-08 	5.195752048e-06
0.7328652014 	0.001499621414 	0.0006126328262 	2.627374973e-07 	0.002696090073 	5.424894658e-08 	5.139497019e-06
0.7412309507 	0.001511134705 	0.0006242111474 	2.554984547e-07 	0.0026677564 	5.721199739e-08 	5.085485164e-06
0.7494110226 	0.001522224652 	0.0006361546645 	2.502282887e-07 	0.002640837852 	6.07595648e-08 	5.034170929e-06
0.7574108228 	0.001533036499 	0.0006485701644 	2.482256994e-07 	0.002615418128 	6.603941336e-08 	4.98571387e-06
0.765234046 	0.001543757261 	0.0006615310127 	2.484910011e-07 	0.002591607278 	7.351868531e-08 	4.940323771e-06
0.7728849643 	0.001554604537 	0.0006751180018 	2.499442872e-07 	0.002569521378 	8.320438883e-08 	4.898221908e-06
0.7803675342 	0.001565804256 	0.0006894277239 	2.520256296e-07 	0.002549310382 	9.506619339e-08 	4.859694131e-06
0.7876855447 	0.001577594962 	0.0007045586685 	2.545550344e-07 	0.002531147704 	1.092186534e-07 	4.82507102e-06
0.7948428113 	0.001590231036 	0.0007206004564 	2.574881314e-07 	0.002515226058 	1.257400805e-07 	4.794719938e-06
0.801842939 	0.00160398466 	0.00073764078 	2.612195164e-07 	0.002501750379 	1.445912632e-07 	4.769031548e-06
0.8086894534 	0.001619142862 	0.0007557645359 	2.667353967e-07 	0.002490939752 	1.65780548e-07 	4.748423488e-06
0.8153858853 	0.001635999007 	0.0007750534246 	2.749856033e-07 	0.002483027373 	1.899090053e-07 	4.733340294e-06
0.821935447 	0.001654834464 	0.0007955332043 	2.84552216e-07 	0.002478274506 	2.18414466e-07 	4.724280009e-06
0.8283416184 	0.00167592027 	0.0008171385479 	2.893890029e-07 	0.002476940399 	2.521434052e-07 	4.72173683e-06
0.8346073564 	0.001699515379 	0.0008396655774 	2.679858235e-07 	0.002479271919 	2.753132677e-07 	4.726181356e-06
0.8407359853 	0.00172589677 	0.0008628056429 	2.321714652e-07 	0.002485427013 	2.913941591e-07 	4.737914675e-06
0.8467303714 	0.001755553263 	0.0008858931434 	1.728227152e-07 	0.002495257021 	2.881082387e-07 	4.756653402e-06
0.8525935489 	0.001789004863 	0.0009084871899 	1.048758511e-07 	0.002508584484 	2.685603436e-07 	4.782059252e-06
0.8583284008 	0.001826665759 	0.0009306719255 	5.275310012e-08 	0.002525370767 	2.491539069e-07 	4.814058572e-06
0.8639376986 	0.00186884192 	0.0009526961081 	3.328912991e-08 	0.002545769819 	2.445813707e-07 	4.852944836e-06
0.8694242615 	0.001915500662 	0.0009754817429 	4.176057634e-08 	0.002570378085 	2.563698575e-07 	4.89985503e-06
0.8747907151 	0.001966611993 	0.0009999051525 	5.296680421e-08 	0.002599806695 	2.724007844e-07 	4.95595414e-06
0.8800396981 	0.002022421079 	0.001026249329 	6.356200892e-08 	0.002634396324 	2.880719639e-07 	5.021891586e-06
0.885173803 	0.002083328602 	0.001054699708 	7.385044888e-08 	0.002674346817 	3.018107067e-07 	5.09804833e-06
0.8901954922 	0.002149791589 	0.001085453694 	8.359769865e-08 	0.002719824575 	3.13578216e-07 	5.184741576e-06
0.8951072341 	0.002222235859 	0.001118688527 	9.242139054e-08 	0.002771037722 	3.236570421e-07 	5.282368068e-06
0.8999114295 	0.002300976995 	0.001154540294 	9.990733774e-08 	0.002828235717 	3.319530848e-07 	5.391403345e-06
0.9046103978 	0.002386109625 	0.001193069649 	1.056341944e-07 	0.002891702442 	3.379081975e-07 	5.512388561e-06
0.9092064384 	0.002477420798 	0.001234230074 	1.092096141e-07 	0.002961668022 	3.406172627e-07 	5.645762403e-06
0.9137017939 	0.002574358357 	0.001277845876 	1.103139091e-07 	0.003038121946 	3.390161432e-07 	5.791504832e-06
0.9180986392 	0.002676021078 	0.001323589958 	1.087521889e-07 	0.003120660461 	3.321841577e-07 	5.948846182e-06
0.9223991208 	0.002781181216 	0.001370974153 	1.045062359e-07 	0.003208410369 	3.196383694e-07 	6.116121895e-06
0.9266053371 	0.002888359032 	0.001419365645 	9.775320294e-08 	0.003300012782 	3.014511417e-07 	6.290741554e-06
0.9307193289 	0.002995914423 	0.001468022138 	8.884944394e-08 	0.003393712771 	2.782244405e-07 	6.469359775e-06
0.9347431008 	0.003102138399 	0.001516138582 	7.829146815e-08 	0.003487527763 	2.50991503e-07 	6.648197225e-06
0.9386786163 	0.003205346438 	0.001562898838 	6.665027875e-08 	0.003579408862 	2.210261495e-07 	6.823348137e-06
0.9425277937 	0.003303940615 	0.00160751803 	5.451318089e-08 	0.003667398689 	1.896221467e-07 	6.991081203e-06
0.9462925056 	0.003389116411 	0.001645977771 	4.33193477e-08 	0.003743235807 	1.601693224e-07 	7.135647827e-06
0.9487435688 	0.003453871347 	0.001675095286 	3.470757382e-08 	0.003800384037 	1.375293144e-07 	7.244588236e-06
0.9511038636 	0.003506874493 	0.001698773662 	2.751371906e-08 	0.003846407696 	1.181399437e-07 	7.332322122e-06
0.9533767396 	0.003555362662 	0.001720273101 	2.093268124e-08 	0.003887693543 	1.000630705e-07 	7.411024422e-06
0.9555654232 	0.003599401554 	0.001739615901 	1.49996248e-08 	0.003924258546 	8.34402931e-08 	7.480727481e-06
0.9576730218 	0.003639096982 	0.001756843463 	9.727090709e-09 	0.003956153905 	6.841361489e-08 	7.5415289e-06
0.9597025296 	0.003674573973 	0.001772010959 	5.119618889e-09 	0.003983480583 	5.510192527e-08 	7.593621143e-06
0.9616568309 	0.003705972094 	0.001785184881 	1.190502496e-09 	0.00400638234 	4.357409955e-08 	7.637278256e-06
0.9635387045 	0.00373345699 	0.001796443198 	-2.018998591e-09 	0.00402502535 	3.375171531e-08 	7.672817015e-06
0.9653508267 	0.003757251271 	0.001805877447 	-4.431871537e-09 	0.004039559885 	2.525628016e-08 	7.700523879e-06
0.9670957755 	0.003777672959 	0.001813572646 	-6.854046587e-09 	0.00405007099 	1.758170209e-08 	7.720560967e-06
0.9687760344 	0.003795128144 	0.001819088504 	-1.454323386e-08 	0.004056560268 	1.04346255e-08 	7.732931333e-06
0.9703939951 	0.003809880781 	0.001821895846 	-1.877726643e-08 	0.00405908634 	5.126330744e-09 	7.737746729e-06
0.9719519613 	0.003821805792 	0.001823077966 	-1.562651111e-08 	0.0040579181 	2.239535519e-09 	7.735519739e-06
0.9734521523 	0.003830638699 	0.001823528136 	-1.338989821e-08 	0.004053279267 	7.641991867e-10 	7.726676833e-06
0.9748967055 	0.003836200982 	0.001822916639 	-1.123728796e-08 	0.004045167359 	3.059248937e-10 	7.711213282e-06
0.9762876798 	0.003838299545 	0.001821121134 	-8.688655562e-09 	0.004033465134 	7.040298509e-10 	7.688905589e-06
0.977627058 	0.003836674248 	0.001818040722 	-5.832253062e-09 	0.00401797316 	1.912385776e-09 	7.659373582e-06
0.9789167501 	0.003830975378 	0.001813513375 	-2.762487522e-09 	0.003998405353 	3.864910676e-09 	7.622071901e-06
0.9801585955 	0.003820738325 	0.00180787293 	9.908615645e-10 	0.003974371012 	6.474169134e-09 	7.576255768e-06
0.9813543657 	0.003805391134 	0.001799753913 	3.700716991e-09 	0.003945193162 	9.482222448e-09 	7.520634677e-06
0.9825057671 	0.003784041616 	0.001787420316 	5.306194349e-09 	0.003909918707 	1.269779399e-08 	7.453391761e-06
0.983614443 	0.00375528592 	0.001771113458 	7.331024628e-09 	0.003867375234 	1.600511138e-08 	7.372292078e-06
0.984681976 	0.003717279016 	0.001750557554 	9.155590565e-09 	0.003815953836 	1.91259836e-08 	7.274268602e-06
0.9857098904 	0.003667706266 	0.001724714813 	1.06329383e-08 	0.003753501786 	2.17358921e-08 	7.155217635e-06
0.986699654 	0.003603675692 	0.001692274003 	1.160937707e-08 	0.003677249022 	2.346417014e-08 	7.009858675e-06
0.9876526808 	0.003521596943 	0.001651603088 	1.193527848e-08 	0.003583703686 	2.392929387e-08 	6.831535264e-06
0.988570332 	0.003417062612 	0.001600664063 	1.139743087e-08 	0.003468541745 	2.276333334e-08 	6.612004598e-06
0.9894539191 	0.003284766993 	0.001536959445 	9.900236145e-09 	0.00332652825 	1.966330584e-08 	6.341287406e-06
0.9903047047 	0.003118536877 	0.001457658368 	7.425019089e-09 	0.003151542331 	1.445845058e-08 	6.007715609e-06
0.9911239049 	0.002930122408 	0.001368411781 	4.278067074e-09 	0.002955949311 	7.856274128e-09 	5.634860951e-06
0.9916520721 	0.002746066552 	0.001281634219 	1.145145148e-09 	0.002766655393 	1.276352186e-09 	5.274014132e-06
0.9921802566 	0.002555368013 	0.001192006776 	-1.955460312e-09 	0.002571776092 	-5.234862023e-09 	4.902520019e-06
0.9927084583 	0.002334091491 	0.001088254447 	-5.216094979e-09 	0.002346738201 	-1.208388685e-08 	4.473535254e-06
0.9932366772 	0.002079810724 	0.0009687125105 	-8.570659887e-09 	0.00208913443 	-1.873907672e-08 	3.982470869e-06
0.9937649133 	0.001791137607 	0.0008218158951 	-1.22570057e-08 	0.001797493467 	-2.442965544e-08 	3.426522135e-06
0.9942931667 	0.001471353756 	0.0006486322313 	-1.511177945e-08 	0.001475176748 	-2.793865454e-08 	2.812096886e-06
0.9948214372 	0.001133557905 	0.0004674006087 	-1.527504462e-08 	0.001135477718 	-2.789373338e-08 	2.164536121e-06
0.995349725 	0.0008020622144 	0.0002963312076 	-1.241813678e-08 	0.0008027333274 	-2.378401723e-08 	1.53023283e-06
0.99587803 	0.000508408845 	0.000158163247 	-7.786566692e-09 	0.0005084324136 	-1.680468215e-08 	9.692134917e-07
0.9964063522 	0.0002801339665 	6.742961914e-05 	-3.564690044e-09 	0.0002799537947 	-9.494154272e-09 	5.336697419e-07
0.9969346917 	0.0001285442619 	2.146082389e-05 	-1.105465348e-09 	0.0001283913541 	-4.07197208e-09 	2.447496054e-07
0.9974630483 	4.556062008e-05 	4.591132349e-06 	-2.034191326e-10 	4.548931593e-05 	-1.185780842e-09 	8.671527927e-08
0.9979914222 	1.075163952e-05 	5.397406385e-07 	-1.586033403e-11 	1.073251931e-05 	-1.687878099e-10 	2.045916475e-08
0.9985198133 	1.225690383e-06 	2.137442723e-08 	2.960899126e-14 	1.223395583e-06 	5.063088593e-12 	2.332132005e-09
0.9990482216 	4.008752368e-08 	1.090132674e-10 	7.411135324e-15 	4.001127865e-08 	1.9230423e-12 	7.627261766e-11
0.9990482216 	4.008752368e-08 	1.090132674e-10 	7.411135324e-15 	4.001127865e-08 	1.9230423e-12 	7.627261766e-11
