1.4101108e-19 	0.0079915155 	-5.4216007e-16 	1.3893315e-20 	3.9203073e-18 	8.5420796e-20 	2.033108e-18
0.010869565 	0.0079328237 	0.0033524737 	-2.4110272e-06 	0.0089307361 	-8.8273422e-06 	0.006600648
0.02173913 	0.0077480179 	0.0039566834 	-3.9279015e-06 	0.0087810817 	-1.07551e-05 	0.0059369825
0.032608696 	0.007555858 	0.0038962858 	8.9851558e-07 	0.0085136151 	-3.9128861e-08 	0.004524653
0.043478261 	0.0074460843 	0.0027828967 	-1.4467748e-05 	0.0080703618 	-1.4373053e-05 	0.0045934516
0.054347826 	0.0073534612 	0.00062176927 	1.2667231e-05 	0.0075738304 	3.7067585e-07 	0.0012993058
0.065217391 	0.0074320017 	-0.0015704888 	1.0660773e-05 	0.0067466834 	1.3169681e-06 	0.0013864987
0.076086957 	0.0075373702 	-0.0029984351 	7.7475193e-06 	0.0060589867 	1.0760525e-06 	0.0014378965
0.086956522 	0.0076199631 	-0.0042094977 	-5.1354212e-06 	0.0054827084 	-1.126814e-05 	0.002285304
0.097826087 	0.0076164035 	-0.0052606682 	-2.9313678e-06 	0.0051012482 	-1.3740349e-05 	0.0017730117
0.10869565 	0.0075623235 	-0.0060790661 	2.6078808e-06 	0.0047939566 	1.4707278e-08 	0.00079044261
0.11956522 	0.0074877851 	-0.0065387587 	2.2144653e-06 	0.00455611 	-7.7184588e-06 	0.0010953842
0.13043478 	0.0073843559 	-0.0067861751 	1.0859962e-05 	0.0043786048 	-9.6656288e-06 	0.00079167522
0.14130435 	0.007230332 	-0.0068119667 	6.8293678e-09 	0.004276346 	-6.4869879e-09 	0.00055380632
0.15217391 	0.007001375 	-0.0065705682 	2.4810152e-05 	0.0042651556 	-1.0291037e-05 	0.00032895576
0.16304348 	0.0067436369 	-0.0062544774 	4.3914625e-06 	0.0042727502 	-1.3164294e-06 	0.00012302772
0.17391304 	0.0064123293 	-0.0057680079 	2.6408105e-05 	0.0043004194 	-7.9163619e-06 	6.9689361e-05
0.18478261 	0.0060685621 	-0.0052674826 	6.4204825e-06 	0.0043168387 	-2.2315022e-06 	0.0002289528
0.19565217 	0.0056817261 	-0.0047247718 	2.449099e-05 	0.0042874869 	-8.5120855e-06 	0.00038235375
0.20652174 	0.0052916588 	-0.0041931942 	1.1630237e-06 	0.004233369 	-5.984406e-07 	0.00048365466
0.2173913 	0.0048871964 	-0.0036994754 	2.4015823e-05 	0.004098923 	-1.2357482e-05 	0.00061081066
0.22826087 	0.0044857463 	-0.0032266505 	-1.5174669e-06 	0.0039400546 	-4.2893022e-07 	0.0001159379
0.23913043 	0.0041185997 	-0.0028322237 	1.6651782e-05 	0.0037273966 	-1.2578945e-05 	0.00073550011
0.25 	0.0037491678 	-0.0024421784 	2.3210971e-06 	0.0035104675 	-1.7533831e-06 	0.00083470375
0.26086957 	0.0034440967 	-0.0021485793 	4.1022453e-06 	0.0032615034 	-4.0519171e-06 	0.0007694543
0.27173913 	0.0031567864 	-0.0018697476 	8.2937183e-06 	0.0030354217 	-8.1919672e-06 	0.00084319916
0.2826087 	0.0029027167 	-0.0016308809 	-2.9676532e-07 	0.0028080223 	2.2029896e-07 	0.00011228775
0.29347826 	0.0027068273 	-0.0014347302 	6.4057736e-06 	0.0026198499 	-7.3156525e-06 	0.00081356129
0.30434783 	0.0025138094 	-0.0012435686 	1.601083e-06 	0.0024379621 	-1.8285016e-06 	0.00086772407
0.31521739 	0.0023702015 	-0.0010935628 	1.5317149e-07 	0.0022783426 	1.0474308e-07 	0.00044662268
0.32608696 	0.0022476603 	-0.00095570454 	5.5146796e-06 	0.0021410125 	-6.7220156e-06 	0.00081709363
0.33695652 	0.0021256017 	-0.00082018217 	5.7649428e-08 	0.0020076812 	1.0607581e-08 	0.00079633227
0.34782609 	0.0020341655 	-0.00070860325 	3.6726836e-07 	0.0018932284 	6.7577928e-08 	0.00043383828
0.35869565 	0.0019548617 	-0.00060478901 	3.6061078e-06 	0.0017879221 	-4.6546491e-06 	0.00079377455
0.36956522 	0.0018739705 	-0.00050279377 	5.8435445e-08 	0.0016865394 	3.2115503e-09 	0.00078099697
0.38043478 	0.0018043406 	-0.00041488874 	8.0460049e-07 	0.0015982341 	4.4219993e-08 	0.00023239102
0.39130435 	0.0017563943 	-0.00033664709 	1.4393504e-06 	0.0015134168 	-1.9998343e-06 	0.00075114934
0.40217391 	0.001709012 	-0.00026144076 	6.6789464e-07 	0.0014379332 	-9.279732e-07 	0.00077239368
0.41304348 	0.001663291 	-0.00019580267 	1.3823151e-06 	0.0013778527 	-2.2203953e-08 	7.8906813e-05
0.42391304 	0.00164599 	-0.00014143586 	1.9810359e-07 	0.0013121215 	-3.1821129e-09 	0.00062610408
0.43478261 	0.0016387248 	-8.9895313e-05 	1.4797576e-06 	0.0012611913 	-2.2207335e-06 	0.00073196383
0.44565217 	0.0016344121 	-4.3915426e-05 	7.4843145e-07 	0.0012203888 	-4.2861252e-08 	0.00049355345
0.45652174 	0.0016437713 	-9.9093666e-06 	1.6681501e-06 	0.0011879628 	-9.5531799e-08 	0.00018496063
0.4673913 	0.0016775698 	1.9162525e-05 	1.3376704e-07 	0.0011439712 	-2.3638745e-07 	0.00072991794
0.47826087 	0.0017181444 	5.1504187e-05 	4.8031295e-07 	0.0011150499 	-8.4878873e-07 	0.00074158829
0.48913043 	0.0017594612 	7.1504761e-05 	1.9039333e-06 	0.0010992249 	-1.4727307e-07 	0.0003511822
0.5 	0.001822782 	8.2955292e-05 	2.3619691e-06 	0.0010760801 	-1.8270306e-07 	0.00026735512
0.51086957 	0.001910798 	9.3259608e-05 	8.2396265e-08 	0.0010382345 	-2.604522e-07 	0.00077980899
0.52173913 	0.0019821947 	0.00010780446 	8.3135405e-08 	0.0010235856 	-2.627886e-07 	0.000788995
0.5326087 	0.0020378833 	0.00010147014 	3.5763279e-06 	0.0010306587 	-7.957233e-08 	0.00027164771
0.54347826 	0.0021411057 	9.7820672e-05 	2.9499404e-06 	0.0010080881 	-6.5635378e-08 	0.00039563196
0.55434783 	0.0022601122 	9.9167082e-05 	-3.6497248e-08 	0.00097782707 	-1.8129952e-07 	0.00086539649
0.56521739 	0.0023200845 	9.5571957e-05 	1.0080463e-06 	0.00099481054 	2.3389525e-08 	0.00074396087
0.57608696 	0.0023260109 	7.1964273e-05 	6.6130684e-06 	0.0010553945 	1.534419e-07 	3.432725e-05
0.58695652 	0.0024413623 	7.6576234e-05 	1.3666414e-06 	0.0010417502 	3.1709947e-08 	0.00080188286
0.59782609 	0.0025218334 	7.7016806e-05 	-4.6608263e-08 	0.0010559142 	4.2881137e-08 	0.0010055592
0.60869565 	0.0025479466 	5.9584794e-05 	4.9699852e-06 	0.001113124 	5.4898656e-08 	0.00036127413
0.61956522 	0.002632395 	5.49641e-05 	3.7748293e-06 	0.0011310267 	4.1696916e-08 	0.00058316279
0.63043478 	0.0027415515 	5.8046105e-05 	-1.2774332e-07 	0.0011324919 	1.1289176e-07 	0.0011396872
0.64130435 	0.0027790074 	4.0534692e-05 	4.1580363e-06 	0.001186621 	-9.3709232e-08 	0.00058418457
0.65217391 	0.0028462785 	2.1854467e-05 	5.0909123e-06 	0.0012201155 	-1.1473336e-07 	0.00050903801
0.66304348 	0.0029691119 	1.4923641e-05 	-2.1127989e-07 	0.0012130602 	6.9714841e-08 	0.0012687619
0.67391304 	0.0030007752 	-4.9476968e-06 	4.6902083e-06 	0.001270223 	-2.9646218e-07 	0.00061712766
0.68478261 	0.0030719969 	-2.7517616e-05 	4.7051441e-06 	0.0012972325 	-2.9740625e-07 	0.00067097379
0.69565217 	0.0031862139 	-3.5917409e-05 	-1.2533274e-08 	0.0012916675 	4.0838074e-08 	0.0013884475
0.70652174 	0.0032008571 	-2.3043844e-05 	6.8847798e-06 	0.0013584037 	-3.9266721e-07 	0.00036347197
0.7173913 	0.0033143356 	3.793172e-06 	2.0344722e-06 	0.0013510681 	-1.1603429e-07 	0.0011626723
0.72826087 	0.0033833796 	5.6505129e-05 	1.0343517e-06 	0.0013758317 	8.4085161e-08 	0.001310025
0.73913043 	0.0033988777 	0.00015909832 	6.8791252e-06 	0.0014391734 	5.5922211e-07 	0.00031330965
0.75 	0.0034892551 	0.0002915928 	1.3250577e-06 	0.0014493575 	5.7244774e-07 	0.0015709542
0.76086957 	0.0034537568 	0.00042978556 	4.3363992e-06 	0.0015439192 	1.6548144e-06 	0.00039291198
0.77173913 	0.0034529093 	0.00061504811 	3.4648112e-07 	0.001621825 	1.3222075e-07 	0.0015487881
0.7826087 	0.0033665028 	0.00075156171 	8.9199912e-07 	0.0017446031 	7.7677676e-07 	0.00091073016
0.79347826 	0.003260106 	0.0008946213 	5.9225764e-07 	0.0018827404 	5.1575384e-07 	0.0012074092
0.80434783 	0.0031389867 	0.00099415261 	1.1723988e-08 	0.0020143605 	2.4672192e-08 	0.0012086894
0.81521739 	0.0029867371 	0.001073 	1.452921e-08 	0.0021553479 	3.0575556e-08 	0.0011178604
0.82608696 	0.0028570091 	0.0011154844 	-5.491074e-08 	0.0022612935 	-2.0853608e-07 	0.0012043276
0.83695652 	0.0027213494 	0.0011366992 	-4.2668574e-08 	0.0023542573 	-1.6204366e-07 	0.0013390512
0.84782609 	0.0025994675 	0.0011382491 	-3.5502631e-08 	0.0024107239 	-3.3705207e-07 	0.00082073514
0.85869565 	0.0024874028 	0.0011284046 	-7.747464e-08 	0.002448053 	-3.4598458e-08 	0.0017572979
0.86956522 	0.0023734121 	0.0011054559 	3.7421442e-09 	0.0024478516 	-3.8759729e-07 	2.7309623e-05
0.88043478 	0.002263971 	0.0010777719 	-1.1576303e-08 	0.0024419134 	-1.3011929e-08 	0.0017056526
0.89130435 	0.0021522612 	0.0010407504 	1.031398e-08 	0.0024021876 	-3.7660227e-08 	0.001201448
0.90217391 	0.0020459609 	0.0010015094 	6.3142504e-08 	0.0023456932 	8.7320205e-08 	0.0002264201
0.91304348 	0.0019340491 	0.00095996671 	1.3306566e-08 	0.0023007398 	4.4675446e-08 	0.0013858856
0.92391304 	0.0018383197 	0.00092291282 	-9.7251599e-08 	0.0022607026 	-1.0076668e-07 	0.0014918022
0.93478261 	0.0017792836 	0.00090267348 	3.9051457e-08 	0.0022662291 	1.5003752e-07 	0.001170386
0.94565217 	0.0017072197 	0.00087625831 	-1.7035464e-07 	0.0022839935 	-3.725099e-08 	0.0014617524
0.95652174 	0.0015617289 	0.00080717126 	-3.1036889e-07 	0.0022617458 	1.9914955e-06 	0.00015964679
0.9673913 	0.0012447914 	0.0006303915 	-4.6163246e-07 	0.0021613084 	8.7991515e-07 	0.00094085133
0.97826087 	0.00085242014 	0.00043929867 	-3.1919426e-07 	0.0014334679 	1.1580236e-06 	0.00011496302
0.98913043 	0.0001663797 	4.2218889e-05 	2.0342005e-07 	0.00022450687 	1.3279205e-07 	1.6970979e-05
