0.4742268 	3.1564772e-09 	-5.1794347e-10 	-2.5074374e-12 	3.1517007e-09 	7.5178605e-12 	1.1303529e-09
0.48453608 	6.7482795e-10 	-3.2596052e-15 	-6.5801955e-18 	6.7398387e-10 	3.777929e-13 	2.3204845e-10
0.49484536 	4.8461792e-11 	-1.0310672e-17 	-8.7712752e-20 	4.8406618e-11 	-2.6853495e-13 	1.9518454e-11
0.50515464 	2.3491257e-11 	-5.1136234e-16 	-6.7609703e-21 	2.3465212e-11 	5.2051058e-15 	9.8318678e-12
0.51546392 	3.1503839e-11 	-2.2201937e-15 	4.8656075e-18 	3.1468532e-11 	9.1067047e-14 	1.2949633e-11
0.5257732 	1.124139e-09 	4.9120044e-13 	1.718182e-14 	1.1221553e-09 	3.6375553e-11 	5.0767445e-11
0.53608247 	3.710043e-07 	1.7936732e-09 	1.520283e-11 	3.7050865e-07 	3.0909078e-09 	5.2315848e-09
0.54639175 	3.6940841e-06 	2.5435861e-07 	2.6807717e-10 	3.7163432e-06 	2.7178497e-09 	7.5433858e-07
0.55670103 	1.4564138e-05 	1.130424e-06 	2.0136778e-10 	1.4666132e-05 	2.9074525e-09 	4.8540332e-06
0.56701031 	4.3042203e-05 	3.2810567e-06 	7.6754473e-09 	4.3312597e-05 	1.0588488e-07 	1.2282699e-05
0.57731959 	0.00012263979 	1.2252472e-05 	1.0393111e-07 	0.00012366835 	7.8274238e-07 	4.6096908e-05
0.58762887 	0.0002377375 	3.3491889e-05 	2.9425192e-07 	0.00024066199 	1.1895269e-06 	0.00011569312
0.59793814 	0.00031005697 	5.877555e-05 	3.8825105e-08 	0.00031536234 	1.9991955e-08 	0.00015142469
0.60824742 	0.00031544736 	7.2963599e-05 	4.6627214e-07 	0.00032199741 	1.7376678e-06 	4.5388169e-06
0.6185567 	0.00026417472 	6.8723965e-05 	-4.2001122e-08 	0.00027097531 	-3.1776179e-07 	0.00013652314
0.62886598 	0.00019257765 	5.2475304e-05 	-2.0520356e-07 	0.00019790282 	-8.1237206e-07 	8.8584579e-05
0.63917526 	0.00013786798 	3.8669414e-05 	3.9584368e-07 	0.00014157413 	1.139341e-06 	1.0714306e-05
0.64948454 	0.00010458441 	2.6457293e-05 	-5.0511137e-08 	0.00010697992 	-1.4301325e-07 	4.6069085e-05
0.65979381 	0.00012103803 	2.9746333e-05 	5.9903859e-08 	0.00012339552 	2.3366494e-07 	5.9892021e-05
0.67010309 	0.00017720005 	4.4859167e-05 	7.1453843e-08 	0.00018035057 	1.7515272e-07 	5.1535995e-05
0.68041237 	0.00026746514 	7.3332026e-05 	4.2523626e-07 	0.00027220868 	1.2315883e-06 	0.00012797595
0.69072165 	0.00035942857 	0.00010849726 	4.0510518e-07 	0.00036569072 	8.6899807e-07 	5.5806302e-05
0.70103093 	0.00045748785 	0.00015240123 	9.0767236e-07 	0.0004656845 	1.8785583e-06 	0.00020674489
0.71134021 	0.00056308075 	0.00020667081 	5.5159603e-07 	0.00057271231 	1.0327592e-06 	8.2871461e-05
0.72164948 	0.00067934666 	0.00027225201 	1.21452e-06 	0.00069090209 	2.1185035e-06 	0.00030179367
0.73195876 	0.00080194703 	0.00034231863 	2.5956137e-07 	0.00081497445 	4.6308922e-07 	0.00021279071
0.74226804 	0.00093055813 	0.00042016998 	8.2472477e-07 	0.00094594198 	1.4679645e-06 	0.00041173205
0.75257732 	0.0010592492 	0.0004923095 	4.1795098e-08 	0.0010771924 	7.4392965e-08 	0.00041198225
0.7628866 	0.0011714756 	0.00054616443 	3.5848304e-07 	0.0011936666 	7.2943963e-07 	0.00050556368
0.77319588 	0.0012808346 	0.00060138381 	8.189753e-08 	0.0013071398 	1.6664471e-07 	0.00050577999
0.78350515 	0.0013634843 	0.00064085034 	2.5297966e-07 	0.0013938855 	5.5657029e-07 	0.00057004381
0.79381443 	0.0014402675 	0.00067718851 	4.2296433e-08 	0.0014734314 	9.2782643e-08 	0.00046269711
0.80412371 	0.0014958162 	0.00070328338 	2.5316765e-07 	0.0015297686 	5.4053682e-07 	0.00061095989
0.81443299 	0.0015437189 	0.00072531254 	1.260354e-07 	0.0015763342 	2.7385417e-07 	7.0755653e-05
0.82474227 	0.0015812817 	0.00074274477 	1.081378e-07 	0.0016134501 	2.1535387e-07 	0.00063597321
0.83505155 	0.0016108116 	0.00075611588 	2.7931807e-09 	0.0016411594 	5.1104752e-09 	0.00065175835
0.84536082 	0.0016339628 	0.00076664561 	2.6688064e-08 	0.0016632564 	5.8059758e-08 	0.00039754117
0.8556701 	0.001649834 	0.0007743895 	-2.9446963e-08 	0.0016807582 	-5.5741287e-08 	0.00066170305
0.86597938 	0.0016602998 	0.00077977589 	-3.4704678e-08 	0.0016932365 	-7.050658e-08 	0.00066751095
0.87628866 	0.0016649932 	0.00078236299 	2.8229748e-08 	0.001699099 	6.0145558e-08 	0.00021737007
0.88659794 	0.0016635369 	0.00076830133 	6.1645561e-09 	0.0016995097 	2.590351e-08 	0.00043261347
0.89690722 	0.0016546104 	0.00073392966 	-1.5186359e-07 	0.0016900462 	-1.1531571e-07 	0.00066601911
0.90721649 	0.0016357005 	0.00070253865 	-2.8636872e-07 	0.0016664868 	-3.5167702e-07 	0.00065802368
0.91752577 	0.0016014284 	0.00067760988 	-2.5502047e-07 	0.0016289397 	-5.2648815e-07 	0.00064374197
0.92783505 	0.0015474651 	0.00066868829 	-2.4622643e-09 	0.0015699691 	-5.4942535e-07 	0.00062279095
0.93814433 	0.0014682218 	0.0006815208 	-1.5547138e-08 	0.0014799201 	-1.7085417e-07 	0.00059526284
0.94845361 	0.0013498771 	0.00062846104 	5.6309536e-09 	0.0013524534 	1.1022435e-08 	8.7983198e-05
0.95876289 	0.0011817452 	0.00054884332 	-2.8627314e-07 	0.0011786864 	-6.2080732e-07 	0.0004562171
0.96907216 	0.00095969329 	0.00044504846 	1.4186333e-08 	0.00095444378 	3.0611754e-08 	0.00011603138
0.97938144 	0.00059467081 	0.0002759571 	-2.1911967e-07 	0.00059222977 	-4.695177e-07 	0.00024983134
0.98969072 	0.00012309932 	5.7174435e-05 	-1.6838969e-07 	0.00012281381 	-3.6144047e-07 	5.3213322e-05
