0.37113402 	0.54259535 	0.076744771 	7.1923238e-05
0.3814433 	1.3158204 	0.18396305 	-0.0002822459
0.39175258 	1.3567065 	0.18343448 	-0.00012975658
0.40206186 	1.3523165 	0.17662815 	-5.6563037e-05
0.41237113 	1.3487336 	0.17034734 	-0.00028077416
0.42268041 	1.3454282 	0.16428252 	-5.8289679e-05
0.43298969 	1.34196 	0.15847774 	-2.709676e-05
0.44329897 	1.3382964 	0.15289486 	-5.0018258e-05
0.45360825 	1.334507 	0.14750964 	-4.5447805e-05
0.46391753 	1.3306559 	0.14232245 	-1.3620982e-05
0.4742268 	1.3267532 	0.13733842 	-4.1708908e-05
0.48453608 	1.3229743 	0.13258099 	-8.7456878e-05
0.49484536 	1.3192106 	0.12796769 	-0.00018863264
0.50515464 	1.3154728 	0.1235153 	-5.1043767e-05
0.51546392 	1.3117671 	0.11922842 	-6.6315856e-05
0.5257732 	1.3080166 	0.11511481 	-0.00014130127
0.53608247 	1.3041619 	0.11103025 	-5.1909862e-05
0.54639175 	1.3002988 	0.10720863 	-0.00013847284
0.55670103 	1.2962475 	0.10340555 	-2.7664573e-05
0.56701031 	1.2921628 	0.099759288 	-9.5876954e-05
0.57731959 	1.2878925 	0.096166007 	-3.5319477e-05
0.58762887 	1.2836962 	0.09273133 	-9.1072412e-05
0.59793814 	1.2792866 	0.089283076 	-6.254671e-05
0.60824742 	1.2751149 	0.086099811 	-0.00011603346
0.6185567 	1.2707128 	0.082806302 	-5.9548195e-05
0.62886598 	1.2665591 	0.079828214 	-3.5709519e-05
0.63917526 	1.2622927 	0.076746736 	-9.0069246e-06
0.64948454 	1.2579519 	0.073798342 	-3.6789443e-05
0.65979381 	1.2538236 	0.071006284 	-7.7973275e-05
0.67010309 	1.2494998 	0.068168641 	-5.0717196e-05
0.68041237 	1.2452322 	0.06549766 	-2.5883206e-06
0.69072165 	1.2409649 	0.062826571 	-9.4941447e-06
0.70103093 	1.2365575 	0.060239268 	-5.2585716e-05
0.71134021 	1.2320602 	0.057680872 	-5.6966704e-05
0.72164948 	1.2274997 	0.055158004 	-3.2460308e-05
0.73195876 	1.2228058 	0.052718463 	-2.8656428e-06
0.74226804 	1.2179857 	0.05027602 	-5.4671836e-06
0.75257732 	1.2129552 	0.047924497 	-2.1161709e-05
0.7628866 	1.2077978 	0.045577992 	-1.6762441e-05
0.77319588 	1.2024629 	0.043297415 	-2.6751263e-05
0.78350515 	1.1970044 	0.041035902 	-2.3911378e-05
0.79381443 	1.1914776 	0.038824474 	-2.2207288e-05
0.80412371 	1.1857914 	0.036634585 	-1.4835801e-05
0.81443299 	1.1799295 	0.034500991 	-9.528892e-06
0.82474227 	1.1736797 	0.032368326 	-3.9054527e-06
0.83505155 	1.1668532 	0.030281533 	-1.7103064e-05
0.84536082 	1.1594565 	0.028195764 	-2.1476234e-05
0.8556701 	1.1514783 	0.026139937 	-1.9618103e-05
0.86597938 	1.1432377 	0.024124111 	-7.8341304e-06
0.87628866 	1.1351635 	0.022129967 	-1.786411e-05
0.88659794 	1.1272508 	0.020172993 	-2.647371e-06
0.89690722 	1.1196374 	0.018283154 	-2.7616383e-05
0.90721649 	1.1119882 	0.016448857 	-1.5552404e-05
0.91752577 	1.103783 	0.014571368 	-2.9264034e-06
0.92783505 	1.0942481 	0.012797771 	-1.5383441e-06
0.93814433 	1.0818222 	0.011067798 	-1.1535691e-06
0.94845361 	1.0635013 	0.0091352854 	-4.1276209e-06
0.95876289 	1.0346871 	0.0071854101 	-1.575653e-05
0.96907216 	0.98079287 	0.0051080092 	-1.387539e-05
0.97938144 	0.86705498 	0.0029040388 	-2.7729454e-06
0.98969072 	0.58605137 	0.0007855587 	-3.4406865e-06
