0.47777778 	0.00011114664 	-5.1651614e-05 	-7.9933213e-10 	0.000111012 	1.7871358e-09 	6.1770858e-06
0.48888889 	0.0010195893 	-0.0004738855 	-5.3175887e-07 	0.0010185843 	1.1423491e-06 	0.00031263673
0.5 	0.0014644151 	-0.00068039348 	-1.6396877e-07 	0.0014619857 	3.5052125e-07 	0.00046709133
0.51111111 	0.0015290891 	-0.00070994239 	3.0721466e-08 	0.0015245827 	-7.0373723e-08 	0.00049033422
0.52222222 	0.0015325957 	-0.00071009987 	-1.462653e-08 	0.0015209617 	3.3065105e-08 	0.00033808223
0.53333333 	0.001500993 	-0.00058221664 	2.1136784e-06 	0.0014855695 	-6.4059065e-07 	0.00047997245
0.54444444 	0.0014454525 	-0.00032344283 	2.4051167e-06 	0.0014375808 	-7.8089524e-07 	0.00046392059
0.55555556 	0.0013931782 	-0.00013591952 	1.0419572e-06 	0.0013857203 	-4.7181102e-07 	0.00044827031
0.56666667 	0.0013558573 	2.8978574e-06 	7.3509108e-07 	0.001350945 	-3.1176757e-07 	0.0004357969
0.57777778 	0.0013346674 	0.0001088365 	7.8433766e-07 	0.0013348802 	-3.0862e-07 	0.00042822508
0.58888889 	0.0013263028 	0.00019038454 	9.8053621e-07 	0.0013298824 	-3.5590512e-07 	0.0004250972
0.6 	0.0013284519 	0.00025624697 	7.0802426e-07 	0.0013349073 	-1.7496961e-07 	0.00042625977
0.61111111 	0.0013398915 	0.00031302439 	1.0946491e-07 	0.0013486169 	-8.8557303e-09 	0.00043235689
0.62222222 	0.0013599 	0.00036411901 	-6.7431715e-09 	0.0013692978 	-1.9831508e-09 	0.00010453943
0.63333333 	0.0013849761 	0.00041131466 	4.0240603e-07 	0.0013964239 	2.7665042e-08 	0.00044275911
0.64444444 	0.0014135468 	0.00045680837 	4.8113554e-07 	0.0014257498 	8.4058672e-08 	0.00045636808
0.65555556 	0.001444675 	0.0005010004 	3.4642287e-09 	0.0014562409 	-1.0572365e-08 	6.4464262e-05
0.66666667 	0.0014768801 	0.00054277798 	4.5951819e-07 	0.0014898448 	1.152822e-07 	0.00047253311
0.67777778 	0.0015104325 	0.00058346135 	1.8119883e-07 	0.001523544 	5.9110793e-08 	0.0004907612
0.68888889 	0.0015447592 	0.00062218527 	4.6470364e-08 	0.0015580269 	1.5159591e-08 	0.00049082693
0.7 	0.0015802069 	0.00065828856 	4.1586131e-07 	0.001593585 	1.8482831e-07 	0.00051117533
0.71111111 	0.0016163409 	0.0006925964 	2.9533193e-09 	0.0016293442 	-6.1711657e-10 	0.00028852367
0.72222222 	0.0016530444 	0.00072251754 	3.9072822e-07 	0.0016669624 	2.6871015e-07 	0.00053405421
0.73333333 	0.0016904105 	0.00075018177 	2.1592166e-09 	0.0017040603 	3.6724726e-09 	0.00025646691
0.74444444 	0.0017293958 	0.00077334479 	2.2928122e-07 	0.0017443117 	3.1952679e-07 	0.00055916972
0.75555556 	0.0017686084 	0.0007938454 	1.9933498e-09 	0.0017833218 	9.3560781e-09 	0.00024206765
0.76666667 	0.0018105667 	0.00081001644 	7.2235605e-08 	0.0018265476 	4.0593478e-07 	0.00058475464
0.77777778 	0.0018530365 	0.00082340862 	6.4741443e-09 	0.0018680131 	2.5404211e-08 	2.8696816e-05
0.78888889 	0.0018989722 	0.00083309504 	-5.6664083e-08 	0.0019152542 	3.6502415e-07 	0.00061026123
0.8 	0.0019468193 	0.00084060933 	-6.5546782e-09 	0.0019627758 	2.2396171e-08 	0.00063644096
0.81111111 	0.0019974308 	0.00084566747 	-2.2011314e-08 	0.0020125691 	7.520875e-08 	0.00063653588
0.82222222 	0.0020508177 	0.000849779 	-1.4296666e-07 	0.0020646658 	4.5779553e-07 	0.0006628942
0.83333333 	0.0021052437 	0.00085369578 	8.6149668e-09 	0.0021170439 	1.9265292e-08 	0.00048221136
0.84444444 	0.0021602042 	0.00085853118 	-7.6228674e-09 	0.0021704341 	2.8503776e-08 	0.00068849783
0.85555556 	0.0022138846 	0.00086544536 	-5.654878e-08 	0.0022218925 	3.3057527e-07 	0.00071197153
0.86666667 	0.0022642147 	0.00087487081 	4.1101404e-09 	0.0022699101 	1.5376044e-07 	0.00073212524
0.87777778 	0.0023086253 	0.00088760684 	5.421916e-09 	0.0023118483 	2.9758975e-09 	0.00074764284
0.88888889 	0.0023420521 	0.00090455195 	3.3961831e-08 	0.0023409397 	6.5807818e-08 	0.00027225485
0.9 	0.0023591913 	0.00092638766 	5.3424079e-08 	0.0023574294 	1.0021036e-07 	4.5169197e-05
0.91111111 	0.0023544149 	0.00096207681 	6.0717673e-08 	0.0023536403 	1.0067571e-07 	4.3410272e-05
0.92222222 	0.0023234362 	0.0010336422 	3.515434e-08 	0.0023160628 	6.0181303e-08 	0.00031711231
0.93333333 	0.0022526268 	0.0010457733 	-1.5477678e-07 	0.0022441772 	-3.2655134e-07 	0.0007167426
0.94444444 	0.0021335813 	0.00099064955 	-8.6602559e-07 	0.0021272054 	-1.8573118e-06 	0.0006851892
0.95555556 	0.0019698981 	0.00091458471 	6.8610474e-09 	0.001963736 	1.4371795e-08 	0.00053121115
0.96666667 	0.001770369 	0.00082219159 	-6.9235606e-07 	0.0017659223 	-1.4843011e-06 	0.00057042533
0.97777778 	0.0013402266 	0.00062258255 	-4.5801986e-07 	0.0013374993 	-9.8352711e-07 	0.00041421263
0.98888889 	0.00033803456 	0.0001570621 	-5.0975348e-07 	0.00033751591 	-1.0950973e-06 	9.4197419e-05
