4.1667976e-36 	0.0057515831 	-3.9061824e-16 	-1.4197939e-22 	2.6528875e-29 	1.1240592e-35 	1.1859263e-34
0.010869565 	0.0070796118 	-0.0038551897 	3.5790881e-08 	0.015665042 	-9.6414195e-06 	0.013967973
0.02173913 	0.0076283418 	-0.0046132259 	8.1565437e-07 	0.013479383 	-3.3184866e-06 	0.010955913
0.032608696 	0.0066172954 	-0.0041660122 	-7.4840466e-06 	0.011574833 	1.5376595e-06 	0.0046331602
0.043478261 	0.0051597456 	-0.0032927983 	6.3433237e-06 	0.0098744035 	-1.3838266e-05 	0.0066529391
0.054347826 	0.0033697781 	-0.0021918572 	-2.3157706e-05 	0.0082509667 	1.0276779e-05 	0.00011562206
0.065217391 	0.0019893623 	-0.0013428729 	-8.9999661e-06 	0.0070506529 	5.6892569e-06 	0.0019492317
0.076086957 	0.0011991756 	-0.0012609204 	-1.1525449e-05 	0.0062357947 	9.7012136e-06 	0.00056861071
0.086956522 	0.0005230623 	-0.0012302135 	1.9183437e-07 	0.0060075993 	-4.7821055e-06 	0.0023161095
0.097826087 	0.00017398452 	-0.0012725717 	1.2360385e-06 	0.0058576157 	-1.0671083e-05 	0.0018570449
0.10869565 	0.00012138961 	-0.0012814931 	-1.0825162e-07 	0.0057819661 	4.8242882e-08 	0.0014066426
0.11956522 	1.8055451e-05 	-0.0013351833 	2.9781875e-07 	0.0058740971 	-3.3670303e-06 	0.0011202796
0.13043478 	6.7932646e-07 	-0.0013983489 	5.8180742e-07 	0.005896144 	-1.1610712e-05 	0.00080084108
0.14130435 	-4.8440354e-05 	-0.0014563646 	-7.5228156e-07 	0.0059244575 	-4.688538e-07 	0.00012114311
0.15217391 	-4.7630557e-05 	-0.0015066701 	1.3580457e-06 	0.0058126981 	-1.5970623e-05 	0.00021250544
0.16304348 	-6.6166582e-05 	-0.0015443215 	6.4962492e-07 	0.0056777677 	-6.2594235e-06 	8.0136623e-05
0.17391304 	-0.00011904609 	-0.001569301 	1.476131e-06 	0.0054688133 	-1.4223175e-05 	0.00033695872
0.18478261 	-0.00018113374 	-0.0015977624 	5.4599736e-07 	0.0052393187 	-5.6607026e-06 	0.00053704407
0.19565217 	-0.00027216403 	-0.0016265141 	1.1747096e-06 	0.0049991443 	-1.2178963e-05 	0.00075372716
0.20652174 	-0.00036501057 	-0.0016725501 	6.3464668e-08 	0.0047610197 	-1.4606813e-06 	0.00088126248
0.2173913 	-0.00047187134 	-0.0017330587 	5.0420152e-07 	0.0045654928 	-1.1604531e-05 	0.0010624836
0.22826087 	-0.00051017208 	-0.00181996 	-1.5115637e-06 	0.0043414248 	1.981726e-07 	0.00033055326
0.23913043 	-0.00068018073 	-0.0019180843 	-6.3603923e-07 	0.0042330431 	-1.0956856e-05 	0.0013201794
0.25 	-0.00073747965 	-0.002025769 	-7.7275157e-07 	0.0040742279 	1.7463194e-07 	0.00097421083
0.26086957 	-0.00085608527 	-0.0021711429 	5.6448349e-08 	0.0039814952 	-3.1703687e-06 	0.0015791088
0.27173913 	-0.00086223551 	-0.0022557072 	6.3194665e-08 	0.003841996 	-3.5492692e-06 	0.0017145183
0.2826087 	-0.00061770942 	-0.0022550077 	-2.5753626e-06 	0.0035888724 	9.1830646e-07 	0.00051378644
0.29347826 	-0.00056801472 	-0.0022768104 	1.408803e-06 	0.0034504723 	-7.1092361e-06 	0.0017945615
0.30434783 	-0.00043271958 	-0.0022907341 	-1.3208169e-06 	0.0032633757 	4.6621762e-07 	0.0014817527
0.31521739 	-0.00020644433 	-0.0022343015 	-2.6657197e-06 	0.0030475628 	9.4093696e-07 	0.0010437032
0.32608696 	-6.9360422e-05 	-0.002176059 	3.1246845e-06 	0.0028744742 	-7.5829546e-06 	0.001899952
0.33695652 	9.137053e-05 	-0.0021425815 	-3.2132615e-06 	0.0026791138 	7.3897896e-07 	0.0010764032
0.34782609 	0.00024321458 	-0.0020811765 	-3.3256209e-06 	0.0024980214 	7.6481914e-07 	0.0010117942
0.35869565 	0.00037903436 	-0.0019819529 	3.6311075e-06 	0.0023250741 	-6.0381951e-06 	0.0019255657
0.36956522 	0.0005169136 	-0.0019075001 	-2.4587444e-06 	0.0021411586 	3.6234769e-08 	0.0011741129
0.38043478 	0.00063141887 	-0.0018432265 	-4.0844171e-06 	0.0019707245 	6.0192474e-08 	0.00061272379
0.39130435 	0.00072935792 	-0.0017463163 	1.3222767e-06 	0.0018138185 	-1.8217977e-06 	0.0018583709
0.40217391 	0.00083304836 	-0.0016482922 	-8.5646527e-07 	0.001657499 	-2.0042886e-07 	0.0015487051
0.41304348 	0.00092340439 	-0.0015719084 	-4.5705183e-06 	0.0015153856 	-1.0695866e-06 	3.5134887e-05
0.42391304 	0.0010058831 	-0.0014709241 	-1.2469477e-06 	0.0013730057 	-2.9180904e-07 	0.0012681262
0.43478261 	0.0010879624 	-0.001355542 	1.3982862e-06 	0.0012503483 	-1.2558747e-06 	0.0017526246
0.44565217 	0.0011585041 	-0.0012473771 	-1.3188889e-06 	0.0011639717 	-5.4476621e-07 	0.00074880276
0.45652174 	0.0012280078 	-0.001147758 	-1.7052279e-06 	0.0010735159 	-7.0434326e-07 	0.00041118801
0.4673913 	0.001300173 	-0.0010544933 	-2.8080327e-07 	0.0009683 	-1.159856e-07 	0.0014025848
0.47826087 	0.0013599844 	-0.00094359358 	-3.6820298e-08 	0.00091492807 	3.0117385e-08 	0.0014944069
0.48913043 	0.0014074813 	-0.00083160475 	-3.4964371e-07 	0.00091067541 	2.8599319e-07 	0.00047305061
0.5 	0.0014604647 	-0.00072647831 	-3.37261e-07 	0.00088984298 	2.7586467e-07 	0.00047818292
0.51086957 	0.0015181494 	-0.00062723215 	-4.6214535e-08 	0.00085480363 	3.7801459e-08 	0.0013628963
0.52173913 	0.0015677875 	-0.00056159142 	-2.2984349e-07 	0.00084266423 	2.9982431e-07 	0.0012182042
0.5326087 	0.0016168801 	-0.00051691201 	-9.4082089e-07 	0.00084079946 	1.2272742e-06 	0.00030904444
0.54347826 	0.0016748024 	-0.00046625393 	-7.0574898e-07 	0.00082717644 	9.2062951e-07 	0.00063924442
0.55434783 	0.0017370763 	-0.00041295782 	3.0679522e-08 	0.00080783072 	-1.5777076e-08 	0.0015858884
0.56521739 	0.0017909936 	-0.00038205991 	-1.2313846e-06 	0.00081118113 	8.259568e-07 	0.00094770831
0.57608696 	0.0018459893 	-0.00035055487 	-2.9650343e-06 	0.00081723572 	1.9888102e-06 	4.6830028e-05
0.58695652 	0.0019196188 	-0.00031432316 	-1.0311252e-06 	0.00080073519 	6.9163191e-07 	0.0011559308
0.59782609 	0.0019832781 	-0.00028501339 	-6.6509966e-07 	0.00079880865 	2.764641e-07 	0.0015195683
0.60869565 	0.0020294543 	-0.00025846507 	-3.9309929e-06 	0.00082605854 	1.6340083e-06 	0.0003874231
0.61956522 	0.0020986528 	-0.00022799084 	-2.8197601e-06 	0.00082615773 	1.1720987e-06 	0.00085751409
0.63043478 	0.0021755571 	-0.00019842263 	2.4817665e-08 	0.00081680188 	-1.5953115e-09 	0.0019440796
0.64130435 	0.0022102892 	-0.00017794472 	-4.4187984e-06 	0.00086213573 	1.2555062e-06 	0.00066075781
0.65217391 	0.0022737981 	-0.00014549774 	-4.3125181e-06 	0.00087595618 	1.225309e-06 	0.00076632212
0.66304348 	0.0023627741 	-0.00010351471 	5.7955038e-08 	0.0008610053 	1.258436e-08 	0.0021553144
0.67391304 	0.0023824288 	-9.0432855e-05 	-5.3278819e-06 	0.00092283647 	1.1503174e-06 	0.00069423063
0.68478261 	0.0024518416 	-3.8020097e-05 	-4.5839299e-06 	0.00093882234 	9.8969429e-07 	0.00098527768
0.69565217 	0.0025403093 	3.1072188e-05 	-7.2448407e-07 	0.0009342787 	1.4348592e-07 	0.0021661854
0.70652174 	0.0025247442 	2.7144603e-05 	-7.2845487e-06 	0.0010223068 	1.4427235e-06 	0.00036244539
0.7173913 	0.0026315368 	0.00015218281 	-3.0812275e-06 	0.0010264617 	6.1024499e-07 	0.0016380715
0.72826087 	0.0026594101 	0.00021800257 	-3.0323721e-06 	0.0010973438 	1.4775394e-06 	0.0015972801
0.73913043 	0.002641585 	0.00025265257 	-6.5024125e-06 	0.0012095629 	3.168335e-06 	0.00053273806
0.75 	0.0028000924 	0.00047610271 	6.213029e-08 	0.0011974914 	8.2940161e-08 	0.0026994154
0.76086957 	0.0026596146 	0.0004188871 	-5.7549598e-06 	0.0014396282 	7.0850732e-06 	0.00039956482
0.77173913 	0.0027996781 	0.0006423341 	-1.6257437e-06 	0.001441968 	2.0014932e-06 	0.0021216613
0.7826087 	0.002713147 	0.0006427024 	-3.5468766e-06 	0.0016414959 	7.7389872e-06 	0.0010621775
0.79347826 	0.0027582756 	0.00077367017 	-2.4198686e-06 	0.0017192596 	5.2799503e-06 	0.0016424847
0.80434783 	0.0027244508 	0.000835783 	-1.9127676e-06 	0.0018538673 	7.8846101e-06 	0.0014140715
0.81521739 	0.0027163512 	0.00089891639 	-1.818929e-06 	0.0019510664 	7.4977985e-06 	0.001495443
0.82608696 	0.0027261728 	0.0009772096 	-9.0102618e-08 	0.0020214628 	8.0973898e-06 	0.0013814157
0.83695652 	0.002738346 	0.001024127 	-6.7671344e-08 	0.0020635483 	6.0815242e-06 	0.0017334127
0.84782609 	0.0027706892 	0.0010528614 	1.7215282e-06 	0.002085686 	8.1857023e-06 	0.00089728463
0.85869565 	0.0028291974 	0.0010904073 	3.387034e-07 	0.0020546084 	1.6105023e-06 	0.0023448128
0.86956522 	0.0028222538 	0.0010626162 	2.3970096e-06 	0.0020542182 	7.3594009e-06 	6.390764e-05
0.88043478 	0.0028179334 	0.0010667457 	3.2310162e-07 	0.0020124434 	1.016203e-06 	0.0018691048
0.89130435 	0.0027406471 	0.0010362531 	5.064194e-07 	0.001974097 	1.5927649e-06 	0.0013915486
0.90217391 	0.0026071434 	0.0010048556 	2.7891987e-07 	0.0019279548 	1.2944502e-06 	0.00018287737
0.91304348 	0.002473075 	0.00095462804 	-2.7586192e-08 	0.0018378182 	6.8900239e-08 	0.0014185055
0.92391304 	0.0022965504 	0.0008958592 	-9.2486636e-09 	0.0017340755 	2.3099786e-08 	0.0017381315
0.93478261 	0.0020970311 	0.0008373644 	-6.8902843e-08 	0.0016354116 	-1.088286e-07 	0.0011417497
0.94565217 	0.0018672339 	0.00075801604 	-1.4028163e-08 	0.0014915004 	-4.7365294e-08 	0.0015511371
0.95652174 	0.0015902917 	0.00065777619 	-2.6283604e-07 	0.0013066252 	-1.0330943e-06 	8.6408477e-05
0.9673913 	0.001302989 	0.00048782115 	-6.9228352e-07 	0.00096370644 	-1.3903098e-06 	0.00061912354
0.97826087 	0.00069908462 	-1.4015604e-05 	-5.1453699e-06 	0.00058280446 	-1.7555067e-06 	5.0379204e-05
0.98913043 	9.5792295e-05 	-2.4748861e-05 	-5.0134457e-07 	0.00010377415 	-1.4063187e-07 	1.0247005e-05
