8.2204959e-36 	0.0077954298 	-5.29176e-16 	-1.924323e-22 	1.9076735e-18 	2.5300778e-31 	1.9677164e-18
0.010869565 	0.0077404967 	0.0029168331 	-9.716592e-06 	0.0086120486 	-3.5123768e-05 	0.0024888193
0.02173913 	0.0075565945 	0.0033779585 	-5.3829445e-06 	0.0085100106 	-2.1919167e-05 	0.0029647713
0.032608696 	0.0073039534 	0.0040017666 	-1.1109477e-06 	0.0083651416 	-4.3602638e-06 	0.0033897068
0.043478261 	0.0070161283 	0.004264545 	-7.2696569e-06 	0.008147511 	-1.6420942e-05 	0.0037312028
0.054347826 	0.0068315155 	0.0037841567 	5.6523146e-06 	0.0077140855 	6.6702232e-07 	0.0015008163
0.065217391 	0.0067074087 	0.0025199363 	1.0294732e-05 	0.0072093894 	9.3029754e-07 	0.001278432
0.076086957 	0.0066426991 	0.0012347433 	1.2396715e-05 	0.0067902264 	2.2141568e-06 	0.001583643
0.086956522 	0.0066269475 	-0.00013609911 	-2.0006876e-06 	0.0063518974 	-1.8160474e-06 	0.0045032568
0.097826087 	0.0067568149 	-0.0015294224 	-2.8145542e-07 	0.0057363439 	-2.8059351e-07 	0.0045838829
0.10869565 	0.006868874 	-0.0028405516 	1.8993062e-05 	0.0052443575 	5.4409391e-06 	0.00073945452
0.11956522 	0.0069780336 	-0.0039595882 	5.325505e-06 	0.0048320802 	1.2207595e-06 	0.0035542253
0.13043478 	0.0070121923 	-0.0049115966 	4.8469109e-06 	0.0045967658 	1.1110519e-06 	0.0036146156
0.14130435 	0.007021254 	-0.0055864643 	1.3407854e-05 	0.0043763413 	3.7182802e-06 	0.00070414354
0.15217391 	0.0070548725 	-0.0061599093 	-1.1268441e-07 	0.0041736464 	-1.2032742e-06 	0.004801379
0.16304348 	0.006980608 	-0.0063103384 	7.5340456e-06 	0.0040295327 	3.1041026e-06 	0.00059600465
0.17391304 	0.0069498954 	-0.0064743351 	5.8634306e-08 	0.0038731106 	1.7436278e-07 	0.0041170995
0.18478261 	0.0067417702 	-0.0062642139 	3.0261587e-07 	0.0038242687 	8.9989888e-07 	0.00089862545
0.19565217 	0.0065887227 	-0.0061062426 	-5.6326507e-07 	0.0037369953 	-6.7113344e-08 	0.00379826
0.20652174 	0.0062413735 	-0.0056317651 	-5.0629975e-06 	0.0037014636 	-6.0325894e-07 	0.00056908231
0.2173913 	0.0059844384 	-0.0052658894 	3.7638688e-06 	0.0036215248 	-1.2803654e-06 	0.0035328995
0.22826087 	0.0055273964 	-0.0046680346 	-8.4983566e-06 	0.0035417546 	-1.2201982e-06 	0.00019839676
0.23913043 	0.0051814784 	-0.0041784961 	-1.243607e-07 	0.0034352092 	-1.7855771e-08 	0.0028307428
0.25 	0.0047286458 	-0.0036340315 	-4.6298041e-06 	0.0032932164 	-5.2167816e-07 	0.0012909968
0.26086957 	0.0043012296 	-0.0031087238 	-3.2905745e-06 	0.0031438226 	-3.7077613e-07 	0.0013447852
0.27173913 	0.0039157596 	-0.002652024 	1.3115243e-06 	0.0029813003 	-7.1955452e-07 	0.0021385846
0.2826087 	0.0035254456 	-0.0022369764 	-5.7375499e-06 	0.0028011604 	-3.8291955e-07 	7.9539596e-05
0.29347826 	0.0031934605 	-0.0018484928 	1.8922048e-06 	0.002641419 	-1.3315097e-06 	0.0015991293
0.30434783 	0.0029139821 	-0.0015533313 	-7.4296986e-07 	0.0024823872 	-1.413585e-08 	0.0012144737
0.31521739 	0.0026596203 	-0.001286593 	-2.2079021e-06 	0.0023369607 	-4.2007858e-08 	0.00041327597
0.32608696 	0.0024439091 	-0.0010434195 	4.4308028e-06 	0.0022104606 	-3.7525191e-06 	0.0011660676
0.33695652 	0.0022643346 	-0.00085198638 	-4.5745029e-07 	0.002089533 	4.9815633e-08 	0.00081217259
0.34782609 	0.0021043675 	-0.00067841025 	-8.9272859e-07 	0.0019860254 	9.721677e-08 	0.000394263
0.35869565 	0.0019697302 	-0.00051920021 	3.5525235e-06 	0.0018951226 	-3.510289e-06 	0.00087603947
0.36956522 	0.0018552232 	-0.00038594631 	-5.7925722e-08 	0.0018031648 	4.7650315e-08 	0.00076679414
0.38043478 	0.0017556352 	-0.00026964167 	-4.1206548e-07 	0.00172167 	3.3896945e-07 	0.00020511642
0.39130435 	0.0016711528 	-0.0001535214 	1.8117383e-06 	0.0016552361 	-1.9990609e-06 	0.00068066345
0.40217391 	0.0016058601 	-5.7787115e-05 	1.2455029e-06 	0.0015893829 	-1.3742803e-06 	0.00066094726
0.41304348 	0.001551114 	2.5213576e-05 	-2.5716492e-08 	0.0015314785 	6.9657069e-07 	9.0900146e-05
0.42391304 	0.0015038258 	0.00011649002 	1.4719107e-07 	0.0014890716 	-1.5190223e-07 	0.00055889083
0.43478261 	0.0014840561 	0.00018889236 	2.6283149e-06 	0.0014540329 	-2.7124397e-06 	0.00054439324
0.44565217 	0.0014651918 	0.00026045857 	2.1205894e-08 	0.00142017 	9.4475325e-08 	0.00048726485
0.45652174 	0.0014595036 	0.00032493096 	1.6831024e-07 	0.0014054068 	7.4984645e-07 	0.00017226236
0.4673913 	0.0014653565 	0.00039439567 	1.0955918e-06 	0.0013962858 	-8.3428234e-07 	0.00048858548
0.47826087 	0.0014848496 	0.0004547353 	1.7247453e-06 	0.0013879938 	-1.3133765e-06 	0.00047739362
0.48913043 	0.0015055963 	0.00051238685 	7.0330082e-08 	0.001382695 	3.6726769e-07 	0.00035766955
0.5 	0.0015310568 	0.00056835541 	1.3212152e-07 	0.0013930919 	6.8994611e-07 	0.00026550359
0.51086957 	0.0015641787 	0.00061308683 	6.0389951e-07 	0.0014052746 	-5.0926576e-07 	0.00047113499
0.52173913 	0.0016018993 	0.00064466188 	6.0820781e-07 	0.0014168712 	-5.1289893e-07 	0.00046198846
0.5326087 	0.0016396291 	0.0006659885 	8.5637577e-08 	0.0014308285 	6.4305757e-07 	0.00029077689
0.54347826 	0.0016763761 	0.00067353993 	3.769664e-08 	0.0014550926 	2.8306627e-07 	0.00042261593
0.55434783 	0.0017215444 	0.00068582386 	-7.0755267e-08 	0.0014818311 	-3.7865186e-08 	0.00049547244
0.56521739 	0.0017677983 	0.00069713232 	-3.1880741e-08 	0.0015085335 	-1.7061206e-08 	0.0004875485
0.57608696 	0.0018151307 	0.00070360589 	2.1634756e-07 	0.0015391503 	1.6863125e-06 	4.957183e-05
0.58695652 	0.0018664705 	0.00073143877 	8.8632634e-08 	0.0015763682 	1.1516774e-07 	0.00053152987
0.59782609 	0.0019226927 	0.00074999111 	2.0089135e-07 	0.0016112985 	2.6103482e-07 	0.00052475247
0.60869565 	0.0019782925 	0.00076660662 	5.665397e-08 	0.0016470278 	4.4028881e-07 	0.00040790636
0.61956522 	0.0020321973 	0.00079183905 	1.5301746e-08 	0.0016899848 	2.195128e-08 	0.00056888247
0.63043478 	0.0020928364 	0.00081235356 	3.2162969e-07 	0.0017284942 	4.6139724e-07 	0.0005631791
0.64130435 	0.0021534754 	0.00083286808 	2.5042408e-08 	0.0017670036 	3.5924849e-08 	0.00055747572
0.65217391 	0.0022078504 	0.00085468869 	3.0533216e-08 	0.0018117609 	2.5108372e-07 	0.00053744444
0.66304348 	0.0022699855 	0.00087562316 	2.3058232e-07 	0.0018493364 	3.4991042e-07 	0.00059917463
0.67391304 	0.0023322634 	0.00089487668 	1.5944336e-08 	0.0018865382 	2.419565e-08 	0.00059448259
0.68478261 	0.0023859535 	0.00091688121 	8.6144394e-09 	0.0019288426 	1.1994403e-08 	0.00063486925
0.69565217 	0.0024456091 	0.00093491927 	1.4399131e-07 	0.0019637315 	2.0048778e-07 	0.00063109941
0.70652174 	0.002501739 	0.0009468795 	1.0577397e-07 	0.0020006178 	1.006232e-06 	0.00040693643
0.7173913 	0.0025518984 	0.00097467865 	1.0518096e-07 	0.0020393025 	1.3942055e-07 	0.00066355404
0.72826087 	0.0025981089 	0.00099598913 	1.3382594e-07 	0.0020783089 	1.7739035e-07 	0.00066060367
0.73913043 	0.0026364936 	0.0010065285 	1.3889962e-07 	0.0021203881 	1.5721287e-06 	0.00032132352
0.75 	0.0026650207 	0.0010415861 	4.1408745e-07 	0.0021641788 	6.3776435e-07 	0.00069087313
0.76086957 	0.0026833817 	0.0010611877 	5.8550453e-08 	0.0022132274 	9.6517664e-07 	0.00043955246
0.77173913 	0.0026973453 	0.0010868809 	1.8852658e-07 	0.0022542504 	3.8484878e-07 	0.00071523707
0.7826087 	0.0026929604 	0.0011116735 	5.4335509e-08 	0.0023050721 	1.1091781e-07 	0.00071356149
0.79347826 	0.0026921912 	0.0011255252 	7.3229095e-09 	0.0023389897 	9.7622206e-08 	0.0007303766
0.80434783 	0.0026690936 	0.0011415273 	7.5103969e-09 	0.0023802101 	1.0012161e-07 	0.00072915197
0.81521739 	0.0026535618 	0.0011480285 	-7.6014531e-08 	0.0024010513 	-5.8197548e-08 	0.00073486233
0.82608696 	0.0026155471 	0.0011526133 	-9.5207199e-08 	0.0024245437 	-7.2891662e-08 	0.00073397792
0.83695652 	0.0025830776 	0.0011490324 	-2.2361621e-07 	0.0024264248 	-2.9927091e-07 	0.00072891202
0.84782609 	0.0025311028 	0.0011422185 	-4.3886015e-08 	0.0024286981 	-5.8733702e-08 	0.0007282753
0.85869565 	0.0024799843 	0.0011271141 	-6.0333667e-07 	0.0024070073 	-9.6860134e-07 	0.00071359604
0.86956522 	0.0024095408 	0.0011080731 	-5.1750853e-09 	0.0023882264 	3.0952654e-07 	4.0254958e-05
0.88043478 	0.0023452733 	0.001083441 	-6.2409116e-07 	0.0023401262 	-1.0942804e-06 	0.00069075653
0.89130435 	0.0022702306 	0.0010551653 	-3.5256043e-07 	0.002290476 	-6.5897289e-07 	0.00066294691
0.90217391 	0.0021859599 	0.0010241754 	2.8993464e-08 	0.0022388015 	-3.1121413e-08 	0.00024093033
0.91304348 	0.0021159496 	0.00099610841 	-4.3882076e-07 	0.0021860292 	-7.7977327e-07 	0.00063726698
0.92391304 	0.0020515196 	0.00097631527 	-3.8743583e-07 	0.0021701653 	-2.444272e-07 	0.00062055726
0.93478261 	0.0019810834 	0.00096378117 	-2.1534469e-07 	0.0022158265 	5.2818338e-07 	0.00062015456
0.94565217 	0.001764833 	0.00084132568 	-3.6412251e-06 	0.002391762 	2.0844955e-06 	0.00061953894
0.95652174 	0.0015201168 	0.00023653285 	6.1859998e-07 	0.0024797346 	-2.9717658e-06 	0.00018074843
0.9673913 	0.0013036516 	-0.00019773194 	-6.6410996e-08 	0.0022478484 	-1.2790526e-06 	0.00053857184
0.97826087 	0.00093499311 	0.00020558071 	-2.0027172e-06 	0.0014407875 	-1.2809434e-06 	0.00012528481
0.98913043 	0.00017644579 	6.9809075e-05 	-3.0041117e-08 	0.00022101142 	-8.7489755e-08 	1.6682256e-05
