0 	0.60218802 	-4.0897652e-14 	-1.9569144e-20
0.010869565 	0.5859461 	-0.0024296796 	3.7074994e-07
0.02173913 	0.56922042 	-0.004839652 	5.9708737e-08
0.032608696 	0.56507746 	-0.0073953851 	-6.165722e-08
0.043478261 	0.57603418 	-0.0095210649 	3.9876672e-06
0.054347826 	0.59340906 	-0.011631576 	2.0473775e-05
0.065217391 	0.61294104 	-0.014195266 	1.6435908e-05
0.076086957 	0.62958094 	-0.016614931 	2.5666746e-05
0.086956522 	0.64575361 	-0.019477788 	-6.7525419e-08
0.097826087 	0.66069863 	-0.02245304 	-2.2779015e-06
0.10869565 	0.67814638 	-0.025040574 	1.0773774e-05
0.11956522 	0.69416508 	-0.027800327 	-7.7258155e-06
0.13043478 	0.71183577 	-0.030070918 	-3.1563022e-06
0.14130435 	0.73898998 	-0.030904206 	-7.3212599e-05
0.15217391 	0.75714886 	-0.033069846 	-2.5998034e-06
0.16304348 	0.79105364 	-0.032759152 	-0.00011763667
0.17391304 	0.81630446 	-0.03372909 	-4.0666436e-05
0.18478261 	0.85134995 	-0.033235421 	-0.00013407633
0.19565217 	0.87968933 	-0.033604871 	-3.0405587e-05
0.20652174 	0.91565994 	-0.032957892 	-0.00016260388
0.2173913 	0.94395176 	-0.033191219 	6.6988096e-06
0.22826087 	0.9799414 	-0.032511822 	-0.00021986367
0.23913043 	1.0070266 	-0.032798186 	8.6299154e-06
0.25 	1.0387759 	-0.032460552 	-0.00013411332
0.26086957 	1.0667394 	-0.032526136 	-4.9563531e-05
0.27173913 	1.0934477 	-0.032557512 	2.8477057e-06
0.2826087 	1.1211864 	-0.03252959 	-0.00017558855
0.29347826 	1.1438742 	-0.032761955 	9.2788525e-06
0.30434783 	1.1666086 	-0.032956406 	-3.7010868e-05
0.31521739 	1.1876775 	-0.033137067 	-8.881257e-05
0.32608696 	1.2054676 	-0.03341371 	1.4106543e-05
0.33695652 	1.2224612 	-0.033740709 	-3.9081454e-05
0.34782609 	1.2370009 	-0.033920303 	-5.3918275e-05
0.35869565 	1.2484966 	-0.034212818 	1.4864092e-05
0.36956522 	1.259395 	-0.034591573 	2.5149866e-07
0.38043478 	1.2672591 	-0.03487721 	-6.4298464e-05
0.39130435 	1.2726151 	-0.035073392 	1.4104738e-05
0.40217391 	1.2771355 	-0.035408492 	8.003732e-06
0.41304348 	1.280054 	-0.03586588 	-9.9364949e-05
0.42391304 	1.2804999 	-0.035777275 	1.0489773e-05
0.43478261 	1.2799152 	-0.0358879 	2.9053789e-05
0.44565217 	1.2793305 	-0.035998525 	2.562216e-06
0.45652174 	1.2765966 	-0.036067322 	-3.3912516e-05
0.4673913 	1.2730736 	-0.035770258 	3.4269481e-05
0.47826087 	1.2695296 	-0.03554049 	3.8869701e-05
0.48913043 	1.2659855 	-0.035310722 	5.6654627e-07
0.5 	1.2609017 	-0.035066796 	-8.735224e-07
0.51086957 	1.2560873 	-0.034473833 	5.6045529e-05
0.52173913 	1.2512786 	-0.033882478 	4.7925042e-05
0.5326087 	1.2464874 	-0.033336314 	-8.962134e-06
0.54347826 	1.2406961 	-0.032713067 	1.4619184e-05
0.55434783 	1.2353196 	-0.031756783 	8.2719274e-05
0.56521739 	1.229943 	-0.030800499 	4.0000967e-05
0.57608696 	1.2249756 	-0.0303926 	-9.2276776e-05
0.58695652 	1.2184301 	-0.02883064 	5.1837836e-05
0.59782609 	1.2127123 	-0.02754424 	7.7665081e-05
0.60869565 	1.2069946 	-0.02625784 	5.5899798e-06
0.61956522 	1.2006454 	-0.025052931 	2.9256018e-05
0.63043478 	1.1944221 	-0.023453451 	0.00010367108
0.64130435 	1.1881987 	-0.02185397 	2.2145173e-05
0.65217391 	1.1812954 	-0.020364045 	2.1165832e-05
0.66304348 	1.1742554 	-0.018438066 	0.00011423369
0.67391304 	1.1672153 	-0.016512088 	2.2639934e-05
0.68478261 	1.1592914 	-0.014608092 	3.2888104e-05
0.69565217 	1.1511559 	-0.012303675 	0.00010605417
0.70652174 	1.1430203 	-0.0099992573 	2.1699213e-06
0.7173913 	1.1335205 	-0.0075235139 	7.099245e-05
0.72826087 	1.1240748 	-0.0047842473 	7.202011e-05
0.73913043 	1.1138997 	-0.0020507594 	3.4405332e-06
0.75 	1.1029785 	0.0011776613 	0.00013820267
0.76086957 	1.0920573 	0.004406082 	2.8106289e-06
0.77173913 	1.0793581 	0.0079779094 	0.00010141189
0.7826087 	1.0668502 	0.011707923 	4.1605851e-05
0.79347826 	1.0528855 	0.015659203 	7.232684e-05
0.80434783 	1.0386852 	0.019852385 	6.2927917e-05
0.81521739 	1.0231927 	0.024204596 	6.3153765e-05
0.82608696 	1.0070889 	0.028803783 	6.086387e-05
0.83695652 	0.98960558 	0.033565635 	7.809853e-05
0.84782609 	0.97125522 	0.038497965 	3.190139e-05
0.85869565 	0.95110318 	0.043656573 	0.00011861253
0.86956522 	0.9302158 	0.045575995 	-0.00023816069
0.88043478 	0.90641416 	0.054274812 	9.3186579e-05
0.89130435 	0.88110471 	0.059762743 	5.7796572e-05
0.90217391 	0.85209713 	0.063497627 	-8.1636526e-05
0.91304348 	0.81709768 	0.069401733 	4.987377e-05
0.92391304 	0.77733502 	0.073408166 	2.9990735e-05
0.93478261 	0.73019356 	0.076072446 	-3.9223646e-06
0.94565217 	0.66799302 	0.076153679 	-3.864682e-05
0.95652174 	0.59827276 	0.071092087 	-2.7520177e-05
0.9673913 	0.51645207 	0.061991214 	-6.5038342e-05
0.97826087 	0.41169282 	0.041669278 	-1.6360196e-06
0.98913043 	0.25336387 	0.01708267 	-3.7014572e-07
