0.24742268 	0.092488856 	0.027499702 	-0.00013669394
0.25773196 	1.2314681 	0.34775573 	4.4384417e-05
0.26804124 	1.2404847 	0.33340805 	-0.00033266571
0.27835052 	1.2360916 	0.31572851 	-2.7526149e-05
0.28865979 	1.2337743 	0.30025901 	-7.3697969e-05
0.29896907 	1.2327473 	0.28576979 	-0.00030896098
0.30927835 	1.2317661 	0.27298088 	-0.00033881653
0.31958763 	1.2307057 	0.26060044 	-0.00024335708
0.32989691 	1.2296146 	0.24907013 	-9.0088555e-05
0.34020619 	1.2280836 	0.23796491 	-0.00017806615
0.35051546 	1.2268326 	0.22760643 	-0.00017485319
0.36082474 	1.2257787 	0.21836528 	-7.116366e-05
0.37113402 	1.2239225 	0.20936378 	-7.6928096e-05
0.3814433 	1.2216125 	0.19998382 	-0.00036366607
0.39175258 	1.2206093 	0.19280331 	-4.5327339e-05
0.40206186 	1.2183041 	0.18463276 	-0.00020978825
0.41237113 	1.216479 	0.17741294 	-0.00013526522
0.42268041 	1.2147422 	0.17075627 	-4.8965639e-05
0.43298969 	1.2125243 	0.16373794 	-0.00011267017
0.44329897 	1.2108634 	0.15799441 	-2.3828224e-05
0.45360825 	1.2085377 	0.15156992 	-6.3491415e-05
0.46391753 	1.2066489 	0.14623088 	-4.8709545e-05
0.4742268 	1.2042355 	0.14066788 	-1.2883368e-05
0.48453608 	1.2020358 	0.13545061 	-1.7372824e-05
0.49484536 	1.1993842 	0.13048357 	-9.89917e-05
0.50515464 	1.196789 	0.12537076 	-1.4806977e-05
0.51546392 	1.1939804 	0.12098246 	-0.00025818864
0.5257732 	1.1910657 	0.11639407 	-3.1408294e-06
0.53608247 	1.1881584 	0.11217201 	-0.00011741142
0.54639175 	1.1850684 	0.10805524 	-0.00018015686
0.55670103 	1.1820184 	0.10383334 	-4.6459706e-06
0.56701031 	1.178886 	0.10021484 	-0.00020799013
0.57731959 	1.1757078 	0.096489378 	-0.00015500218
0.58762887 	1.1725726 	0.09282473 	-5.9988045e-06
0.59793814 	1.1693572 	0.089512013 	-0.000226941
0.60824742 	1.1661417 	0.086199295 	-0.00016827794
0.6185567 	1.1629313 	0.082909761 	-3.2568292e-06
0.62886598 	1.1595651 	0.07990201 	-0.00019756764
0.63917526 	1.156199 	0.07689426 	-0.00017428685
0.64948454 	1.1528406 	0.073881666 	1.3835829e-07
0.65979381 	1.1492072 	0.07108189 	-0.00017032814
0.67010309 	1.1455757 	0.068274992 	-0.00014210336
0.68041237 	1.1419116 	0.065494617 	-1.757317e-05
0.69072165 	1.1379832 	0.062883517 	-0.00017477887
0.70103093 	1.1340548 	0.060272416 	-8.157967e-05
0.71134021 	1.1299421 	0.057732223 	-6.0455758e-05
0.72164948 	1.1255806 	0.055275781 	-0.00014438345
0.73195876 	1.121219 	0.052819339 	-3.8240881e-06
0.74226804 	1.1164635 	0.050485626 	-0.00011927889
0.75257732 	1.1116746 	0.048155348 	-4.5432406e-05
0.7628866 	1.1067347 	0.045895106 	-6.6619294e-05
0.77319588 	1.1016834 	0.043669906 	-6.2798374e-05
0.78350515 	1.0965165 	0.041488638 	-3.8662711e-05
0.79381443 	1.0911114 	0.039345663 	-6.1859603e-05
0.80412371 	1.0854502 	0.037246822 	-2.9619644e-05
0.81443299 	1.0791981 	0.035194249 	-4.6174161e-05
0.82474227 	1.072519 	0.033179538 	-3.6501371e-05
0.83505155 	1.0653339 	0.031157475 	-1.9908214e-05
0.84536082 	1.0581769 	0.029201252 	-5.4201815e-05
0.8556701 	1.0513503 	0.027289182 	1.51887e-06
0.86597938 	1.0448327 	0.025502065 	-3.6321055e-05
0.87628866 	1.0383882 	0.023678096 	-2.7674326e-05
0.88659794 	1.0318349 	0.021871349 	1.1138469e-06
0.89690722 	1.0241977 	0.020232237 	-1.5681004e-05
0.90721649 	1.0153928 	0.018536556 	-3.9896388e-05
0.91752577 	1.0047761 	0.01668687 	-1.9211655e-05
0.92783505 	0.99186272 	0.01482729 	-2.2685963e-06
0.93814433 	0.97553224 	0.012962412 	-4.3908046e-08
0.94845361 	0.95473311 	0.011188984 	-3.3200381e-07
0.95876289 	0.91690719 	0.009120183 	-1.3305088e-05
0.96907216 	0.8484466 	0.0069238343 	-1.4032828e-05
0.97938144 	0.71469885 	0.0043387962 	-4.5293337e-07
0.98969072 	0.45836371 	0.0014418104 	-2.1159151e-06
