0.47826087 	4.6171343e-07 	-2.1463256e-07 	-4.2817173e-10 	4.6061738e-07 	9.2090857e-10 	2.0968177e-07
0.48913043 	5.09849e-09 	-3.2151484e-11 	-2.8236977e-13 	5.0924457e-09 	3.9143536e-12 	2.0449121e-09
0.5 	4.5734705e-09 	-2.1082671e-13 	-4.0451525e-19 	4.569901e-09 	-1.9751992e-14 	2.7022248e-09
0.51086957 	2.823448e-09 	-9.2375875e-13 	-2.5437682e-15 	2.8212654e-09 	-2.4015922e-12 	1.6830066e-09
0.52173913 	2.0552262e-08 	-4.0838414e-11 	-4.7558947e-13 	2.0522347e-08 	1.1718053e-10 	3.8714707e-09
0.5326087 	4.2667007e-06 	1.0449629e-07 	3.8822051e-09 	4.2699065e-06 	8.0606787e-08 	1.8055496e-06
0.54347826 	0.00012326155 	8.7962222e-06 	2.2045499e-07 	0.00012368558 	2.035051e-06 	5.526521e-05
0.55434783 	0.00046471948 	5.3566554e-05 	3.2061285e-07 	0.00046731819 	2.063183e-06 	0.00025136869
0.56521739 	0.00075591473 	0.00011205095 	3.992647e-07 	0.00076053683 	1.5951414e-06 	0.00041385268
0.57608696 	0.00099522917 	0.00018802181 	7.2097793e-07 	0.0010021215 	1.9063574e-06 	0.00055753454
0.58695652 	0.0011883636 	0.00027286246 	5.0338161e-07 	0.0011985842 	9.3628509e-07 	0.00067942423
0.59782609 	0.0013311529 	0.00035457237 	2.6178793e-08 	0.0013456008 	1.4599993e-08 	0.00066429778
0.60869565 	0.0014306737 	0.00043146522 	1.4010498e-07 	0.001447695 	4.2109447e-08 	0.00011008397
0.61956522 	0.0015003527 	0.0005039667 	1.8934837e-08 	0.0015218826 	4.4820249e-09 	0.00065538265
0.63043478 	0.0015469598 	0.0005710576 	7.4419293e-07 	0.0015727952 	2.1127936e-07 	0.00086874318
0.64130435 	0.0015793948 	0.00063211645 	1.2566464e-09 	0.0016084226 	7.8823821e-09 	0.00055071655
0.65217391 	0.001601008 	0.00068881511 	-2.5133401e-08 	0.0016340503 	1.2064613e-08 	0.00057828026
0.66304348 	0.0016154041 	0.00073532679 	2.2097355e-07 	0.0016530851 	-1.3777492e-07 	0.00091147455
0.67391304 	0.001622861 	0.00075678017 	-2.7993877e-08 	0.0016645063 	4.4026462e-08 	0.00013680678
0.68478261 	0.0016290144 	0.00076631419 	-5.5578628e-08 	0.0016764506 	-1.6374967e-07 	0.00092088825
0.69565217 	0.0016323885 	0.0007688985 	1.7672664e-08 	0.0016812641 	3.2681809e-08 	0.00053040805
0.70652174 	0.0016363694 	0.00077107823 	-2.8443733e-08 	0.0016860968 	-6.3789744e-08 	0.00092631467
0.7173913 	0.0016396856 	0.00077229019 	1.3425684e-08 	0.0016872013 	2.7821645e-08 	0.0006693207
0.72826087 	0.0016438735 	0.00077416682 	-2.4162237e-08 	0.0016904373 	-5.5404136e-08 	0.00093031618
0.73913043 	0.0016476217 	0.00077566866 	1.5356827e-08 	0.00169265 	3.2920172e-08 	0.00062509016
0.75 	0.0016527834 	0.00077814602 	-3.3101053e-08 	0.0016977033 	-7.4540557e-08 	0.00093502777
0.76086957 	0.0016581143 	0.00078043727 	1.3487754e-08 	0.0017017726 	2.8264851e-08 	0.00062269994
0.77173913 	0.001664968 	0.00078366294 	-5.9937762e-09 	0.0017083556 	-1.3653508e-08 	0.00094144461
0.7826087 	0.0016723516 	0.00078684762 	2.6770177e-09 	0.001714225 	5.5071594e-09 	0.00087354326
0.79347826 	0.0016809034 	0.00079034333 	1.1041118e-08 	0.00172026 	2.251068e-08 	0.00060451658
0.80434783 	0.0016903234 	0.00079438776 	-6.6471789e-08 	0.0017277993 	-1.6087579e-07 	0.00095687578
0.81521739 	0.001699998 	0.00079797015 	2.7015419e-08 	0.0017330995 	5.6521134e-08 	8.3485904e-05
0.82608696 	0.0017099385 	0.00080255732 	-2.1542749e-08 	0.0017426181 	-5.0119947e-08 	0.00096497825
0.83695652 	0.0017187176 	0.00080657224 	-2.7104265e-08 	0.0017511129 	-5.9031766e-08 	0.00097216526
0.84782609 	0.0017258387 	0.00080970467 	2.7021361e-08 	0.0017571343 	5.9159358e-08 	0.00014506275
0.85869565 	0.0017312 	0.00081188914 	-7.3427803e-10 	0.0017645017 	1.6479639e-08 	0.00075737751
0.86956522 	0.0017335494 	0.00080524173 	-2.136874e-07 	0.0017678935 	-1.7579411e-07 	0.00098147671
0.88043478 	0.0017317253 	0.00077733221 	-2.1885812e-07 	0.0017661717 	-1.6112446e-07 	0.00097975874
0.89130435 	0.0017237724 	0.00075003189 	-4.9608054e-10 	0.0017556454 	5.1574952e-09 	0.00090453759
0.90217391 	0.0017059169 	0.00072433925 	2.7351212e-09 	0.0017320006 	2.4888817e-08 	0.00064131906
0.91304348 	0.0016722411 	0.00070101219 	6.115071e-09 	0.0016960673 	2.7877437e-08 	0.00059594421
0.92391304 	0.0016181537 	0.00068863917 	4.4584908e-09 	0.0016394098 	9.7697422e-09 	0.00078457082
0.93478261 	0.0015380974 	0.00070735591 	-7.6240192e-08 	0.001548027 	-5.2847762e-07 	0.00086133384
0.94565217 	0.0014206095 	0.00066119219 	-2.02973e-07 	0.0014225933 	-4.4378376e-07 	0.00080562825
0.95652174 	0.0012643875 	0.00058694003 	4.9432892e-08 	0.0012600061 	1.0562134e-07 	2.3253431e-05
0.9673913 	0.0010875976 	0.00050473347 	-2.199508e-08 	0.0010832714 	-4.7218283e-08 	0.00061956923
0.97826087 	0.00077312718 	0.00035897183 	-3.6836795e-07 	0.00077081708 	-7.8966283e-07 	0.00042648727
0.98913043 	0.00018420383 	8.5587841e-05 	-2.8154125e-07 	0.00018391986 	-6.0458585e-07 	9.7098545e-05
