/*--------------------------------*- C++ -*----------------------------------*\
| =========                 |                                                 |
| \\      /  F ield         | OpenFOAM: The Open Source CFD Toolbox           |
|  \\    /   O peration     | Version:  2.4.0                                 |
|   \\  /    A nd           | Web:      www.OpenFOAM.org                      |
|    \\/     M anipulation  |                                                 |
\*---------------------------------------------------------------------------*/
FoamFile
{
    version     2.0;
    format      ascii;
    class       volScalarField;
    location    "2000";
    object      p;
}
// * * * * * * * * * * * * * * * * * * * * * * * * * * * * * * * * * * * * * //

dimensions      [0 2 -2 0 0 0 0];

internalField   nonuniform List<scalar> 
15296
(
0.2163645
0.21500444
0.21429224
0.2136326
0.21282296
0.21194986
0.21107978
0.21022493
0.20939481
0.20859924
0.20784253
0.20712496
0.20644517
0.20580121
0.20519097
0.20461265
0.20406526
0.203549
0.20306566
0.20261925
0.20221677
0.20186937
0.20159412
0.20141646
0.20137411
0.20152259
0.20194437
0.20276161
0.20416028
0.20641991
0.20999036
0.21555838
0.22436845
0.23834498
0.26210653
0.30257122
0.37907769
0.53449708
0.21635683
0.21500502
0.21429293
0.21363394
0.21282499
0.21195238
0.21108263
0.21022805
0.20939813
0.20860268
0.20784606
0.20712854
0.20644879
0.20580485
0.20519461
0.20461628
0.20406885
0.20355252
0.20306906
0.20262245
0.20221964
0.20187173
0.20159568
0.2014168
0.2013726
0.20151825
0.20193574
0.20274639
0.20413489
0.20637858
0.20992365
0.21544982
0.22418887
0.23804995
0.26162536
0.30171183
0.37738174
0.53028969
0.21635241
0.21500569
0.21429313
0.21363455
0.21282603
0.21195378
0.21108435
0.21023007
0.2094004
0.20860516
0.20784871
0.20713134
0.20645171
0.20580787
0.20519772
0.20461946
0.20407208
0.20355576
0.20307227
0.20262556
0.20222255
0.20187428
0.20159766
0.20141787
0.20137223
0.20151568
0.20192977
0.2027352
0.20411566
0.20634678
0.20987209
0.21536611
0.22405226
0.23781462
0.26120008
0.30090067
0.37572645
0.52558316
0.21634696
0.21500629
0.21429322
0.21363519
0.21282718
0.21195531
0.21108622
0.21023223
0.2094028
0.20860776
0.20785147
0.20713423
0.2064547
0.20581095
0.20520087
0.20462266
0.20407531
0.20355898
0.20307544
0.20262861
0.20222537
0.20187672
0.20159946
0.20141868
0.20137151
0.20151261
0.20192309
0.20272298
0.2040949
0.20631268
0.20981699
0.21527675
0.22390623
0.23756645
0.2607637
0.30008202
0.37408823
0.52091038
0.21634121
0.21500687
0.21429312
0.21363573
0.21282824
0.21195677
0.21108801
0.21023432
0.20940514
0.2086103
0.20785417
0.20713705
0.20645764
0.20581397
0.20520396
0.2046258
0.20407848
0.20356215
0.20307855
0.2026316
0.20222812
0.20187908
0.20160119
0.20141941
0.20137069
0.20150941
0.20191625
0.20271056
0.20407387
0.2062782
0.20976135
0.21518662
0.22375898
0.23731632
0.26032538
0.29926154
0.37246498
0.51639186
0.21633337
0.21500766
0.2142927
0.21363623
0.21282946
0.2119585
0.21109017
0.21023687
0.20940802
0.20861343
0.20785751
0.20714057
0.20646129
0.20581775
0.20520783
0.20462974
0.20408246
0.20356612
0.20308246
0.20263534
0.20223157
0.20188202
0.20160331
0.20142023
0.20136951
0.20150516
0.20190729
0.20269437
0.20404656
0.20623352
0.20968934
0.21507007
0.22356866
0.2369936
0.25975999
0.2982035
0.37039346
0.51074996
0.21632381
0.21500853
0.2142917
0.21363656
0.21283074
0.21196042
0.21109265
0.21023986
0.20941143
0.20861718
0.20786154
0.20714482
0.20646573
0.20582235
0.20521255
0.20463456
0.20408733
0.203571
0.20308726
0.20263994
0.20223579
0.20188559
0.20160584
0.20142112
0.20136786
0.2014996
0.20189576
0.20267367
0.20401175
0.20617671
0.20959792
0.21492231
0.22332782
0.23658575
0.25904629
0.29686817
0.36780766
0.50378097
0.21631326
0.21500951
0.21429001
0.21363656
0.21283183
0.21196222
0.21109509
0.21024288
0.20941493
0.20862107
0.20786575
0.2071493
0.20647044
0.20582723
0.20521759
0.20463971
0.20409255
0.20357622
0.2030924
0.20264486
0.20224029
0.20188937
0.20160845
0.20142189
0.20136577
0.20149313
0.20188258
0.20265022
0.20397248
0.20611278
0.20949523
0.21475661
0.22305818
0.23612986
0.25824941
0.29537715
0.36495417
0.49619879
0.21630158
0.21501075
0.21428745
0.21363607
0.21283262
0.2119638
0.21109738
0.21024583
0.20941843
0.20862502
0.20787006
0.20715393
0.20647532
0.20583234
0.20522288
0.20464513
0.20409806
0.20358174
0.20309783
0.20265005
0.20224501
0.2018933
0.20161106
0.20142245
0.20136314
0.20148559
0.20186755
0.2026237
0.20392831
0.2060411
0.20938034
0.21457154
0.22275758
0.23562266
0.2573643
0.29372112
0.36182207
0.48798709
0.21628926
0.21501249
0.21428385
0.21363495
0.21283299
0.21196502
0.21109939
0.2102486
0.20942183
0.20862893
0.20787441
0.20715864
0.20648034
0.20583762
0.20522837
0.20465079
0.20410382
0.20358753
0.20310352
0.20265548
0.20224993
0.20189731
0.20161361
0.20142268
0.20135978
0.20147672
0.20185027
0.20259352
0.20387832
0.20596026
0.20925111
0.2143638
0.22242085
0.23505586
0.25637712
0.29187409
0.35836807
0.47904861
0.21627605
0.21501511
0.21427911
0.2136331
0.21283284
0.21196579
0.21110105
0.21025111
0.20942506
0.20863275
0.20787873
0.20716338
0.20648545
0.20584303
0.20523404
0.20465665
0.20410982
0.20359356
0.20310946
0.20266112
0.20225498
0.20190135
0.20161599
0.20142244
0.20135549
0.20146621
0.20183025
0.20255895
0.20382142
0.20586862
0.20910503
0.21412954
0.22204203
0.2344201
0.25527263
0.28980794
0.35454577
0.46931879
0.21626094
0.21501893
0.21427313
0.21363035
0.212832
0.21196587
0.21110208
0.2102531
0.20942785
0.20863622
0.20788277
0.20716791
0.2064904
0.20584834
0.20523965
0.20466251
0.20411583
0.20359963
0.20311543
0.20266677
0.20225999
0.20190522
0.20161802
0.20142154
0.20135005
0.20145381
0.20180723
0.20251968
0.20375722
0.2057657
0.2089415
0.21386797
0.22162016
0.23371462
0.25405035
0.28752223
0.35035789
0.45888064
0.21624436
0.21502427
0.2142658
0.21362656
0.21283028
0.21196502
0.21110223
0.21025429
0.20942993
0.20863905
0.20788625
0.20717197
0.20649495
0.20585331
0.20524498
0.20466812
0.20412163
0.20360551
0.20312121
0.20267221
0.20226471
0.2019087
0.20161943
0.2014197
0.20134316
0.20143918
0.20178078
0.20247518
0.20368506
0.20565059
0.20875926
0.21357734
0.22115273
0.23293599
0.25270619
0.28501073
0.34579505
0.44778052
0.21622582
0.21503152
0.21425705
0.21362163
0.21282758
0.21196308
0.2111013
0.21025448
0.2094311
0.20864105
0.20788899
0.20717536
0.20649891
0.20585777
0.20524986
0.20467334
0.20412709
0.20361106
0.20312667
0.20267729
0.202269
0.20191158
0.20162
0.20141661
0.2013344
0.20142173
0.20175007
0.20242423
0.20360314
0.20552066
0.20855436
0.21325168
0.22063058
0.23206801
0.25121774
0.28223468
0.34078668
0.43592658
0.21620273
0.21504127
0.21424682
0.21361537
0.21282381
0.21195986
0.21109902
0.21025339
0.20943105
0.20864192
0.20789068
0.20717779
0.20650199
0.20586143
0.205254
0.20467788
0.20413191
0.203616
0.20313151
0.20268171
0.20227253
0.20191353
0.20161936
0.20141184
0.20132324
0.20140078
0.20171422
0.20236565
0.2035098
0.20537356
0.20832343
0.21288607
0.22004635
0.23109832
0.24956873
0.27917024
0.33528955
0.42332168
0.21616996
0.21505552
0.2142329
0.21360577
0.2128176
0.21195396
0.21109405
0.21024981
0.20942875
0.20864075
0.20789057
0.20717865
0.20650373
0.20586393
0.20525717
0.20468159
0.20413601
0.20362028
0.20313567
0.20268533
0.20227498
0.20191389
0.20161626
0.20140328
0.20130622
0.20137081
0.20166454
0.20228597
0.20338431
0.20517734
0.20801708
0.2124034
0.21927804
0.22982984
0.24742329
0.27520918
0.32818373
0.40770106
0.21613507
0.21506947
0.21421593
0.21359238
0.2128082
0.21194442
0.21108519
0.21024238
0.20942269
0.20863595
0.20788699
0.20717622
0.20650235
0.2058635
0.20525756
0.20468266
0.20413757
0.20362207
0.20313733
0.20268633
0.20227456
0.20191092
0.20160909
0.20138947
0.20128213
0.20133102
0.20160091
0.20218612
0.2032293
0.20493736
0.20764533
0.21182127
0.2183582
0.22832355
0.24489775
0.27057189
0.31989634
0.39020221
0.21609803
0.21508055
0.21419786
0.21357594
0.21279598
0.21193172
0.21107273
0.21023114
0.2094127
0.20862714
0.20787937
0.20716977
0.20649699
0.20585911
0.20525404
0.20467985
0.20413528
0.20362002
0.20313513
0.20268343
0.20227013
0.20190379
0.20159749
0.20137082
0.20125262
0.20128496
0.20152978
0.20207699
0.20306247
0.20468193
0.20725295
0.21121114
0.21740089
0.22676948
0.24231443
0.26588455
0.31150695
0.37336704
0.21605796
0.21508921
0.21417838
0.21355593
0.21278043
0.21191538
0.21105618
0.21021559
0.20939828
0.20861383
0.20786723
0.2071588
0.20648712
0.20585026
0.20524608
0.20467263
0.20412858
0.20361356
0.20312849
0.20267601
0.20226109
0.20189185
0.20158082
0.2013467
0.20121706
0.20123201
0.20145057
0.2019581
0.20288349
0.20441099
0.20684039
0.21057447
0.21640886
0.22517394
0.2396854
0.26118908
0.30307394
0.35728263
0.21601569
0.21509578
0.2141575
0.21353215
0.21276115
0.21189498
0.21103505
0.21019524
0.20937896
0.20859555
0.20785009
0.20714284
0.20647229
0.20583647
0.20523321
0.20466052
0.204117
0.2036022
0.20311691
0.20266357
0.20224688
0.20187455
0.2015585
0.20131651
0.20117482
0.20117153
0.20136262
0.20182879
0.20269176
0.20412409
0.20640744
0.20991166
0.21538317
0.22353987
0.23701805
0.25651649
0.29463952
0.34197241
0.21597168
0.2151007
0.21413575
0.21350481
0.21273801
0.21187029
0.211009
0.21016967
0.20935429
0.20857185
0.20782752
0.20712148
0.20645211
0.20581737
0.20521506
0.20464314
0.20410015
0.20358554
0.20309997
0.20264568
0.20222706
0.2018514
0.20152998
0.20127964
0.20112522
0.20110274
0.20126505
0.20168804
0.20248605
0.20381979
0.20595241
0.20922089
0.21432151
0.22186383
0.23430437
0.25188036
0.28622334
0.32740644
0.21592738
0.2151051
0.21411407
0.21347449
0.21271112
0.21184127
0.2109778
0.21013852
0.20932386
0.20854228
0.20779906
0.20709425
0.20642611
0.20579251
0.2051912
0.20462008
0.20407762
0.20356317
0.20307725
0.20262189
0.20220117
0.20182193
0.20149477
0.20123558
0.20106772
0.20102509
0.2011573
0.20153532
0.20226595
0.20349789
0.20547547
0.20850325
0.21322584
0.22015261
0.2315472
0.24730715
0.27788501
0.31360204
0.21588485
0.21510989
0.21409331
0.21344179
0.21268067
0.21180794
0.21094133
0.21010152
0.20928732
0.20850647
0.20776429
0.20706076
0.20639389
0.20576148
0.20516123
0.20459095
0.20404903
0.20353472
0.20304838
0.20259184
0.20216884
0.20178575
0.20145249
0.20118393
0.20100196
0.20093824
0.20103908
0.20137044
0.20203144
0.20315872
0.20497752
0.2077609
0.21210004
0.2184173
0.22876193
0.24282489
0.26969781
0.30057858
0.21584567
0.21511592
0.21407429
0.21340747
0.21264703
0.21177054
0.21089967
0.21005865
0.20924458
0.20846426
0.20772307
0.2070208
0.20635527
0.20572413
0.20512498
0.20455558
0.20401422
0.20350002
0.20301321
0.20255535
0.20212988
0.20174267
0.20140293
0.20112448
0.20092767
0.20084189
0.20091008
0.20119311
0.20178228
0.20280224
0.2044588
0.20699491
0.21094601
0.21666179
0.22595634
0.23843711
0.26171915
0.28832055
0.21580999
0.21512437
0.21405826
0.21337266
0.21261085
0.21172953
0.21085315
0.21001009
0.20919574
0.20841573
0.20767542
0.20697443
0.20631028
0.20568046
0.20508248
0.204514
0.20397321
0.20345911
0.20297174
0.20251244
0.2020843
0.20169268
0.20134605
0.20105714
0.20084475
0.20073593
0.20077017
0.20100317
0.20151834
0.20242841
0.2039195
0.2062061
0.20976554
0.21488881
0.22313773
0.23412803
0.25399272
0.27680249
0.21578359
0.21513924
0.21404774
0.21333923
0.21257335
0.21168573
0.2108024
0.20995631
0.20914118
0.20836121
0.20762165
0.20692193
0.20625921
0.20563078
0.20503403
0.20446651
0.2039263
0.20341226
0.20292426
0.20246339
0.20203237
0.20163603
0.20128208
0.20098217
0.20075343
0.20062059
0.20061959
0.20080096
0.20124008
0.20203797
0.2033608
0.20539662
0.20856259
0.21310446
0.22032531
0.22990703
0.2465639
0.26602036
0.21576913
0.21516344
0.21404518
0.2133094
0.21253609
0.21164023
0.21074824
0.20989797
0.20908146
0.2083012
0.20756226
0.2068638
0.20620256
0.2055756
0.20498016
0.20441366
0.20387405
0.20336005
0.20287134
0.20240877
0.20197465
0.20157329
0.20121162
0.20090013
0.20065433
0.20049652
0.20045907
0.20058733
0.20094859
0.20163243
0.20278492
0.20456982
0.20734297
0.2113169
0.21753612
0.22579695
0.23946362
0.25597484
0.21577345
0.2152018
0.21405362
0.2132855
0.21250072
0.21159414
0.21069158
0.20983585
0.20901731
0.20823644
0.20749799
0.20680081
0.20614115
0.20551576
0.20492173
0.20435633
0.20381735
0.20330338
0.2028139
0.20234947
0.20191204
0.20150535
0.20113552
0.20081189
0.20054827
0.20036453
0.20028942
0.2003631
0.20064476
0.20121281
0.20219325
0.20372754
0.20611019
0.20953018
0.21477896
0.22180605
0.2327104
0.24662207
0.21580106
0.21525814
0.21407541
0.21326949
0.21246871
0.21154844
0.21063323
0.20977075
0.2089495
0.20816772
0.20742972
0.2067339
0.20607596
0.2054523
0.20485982
0.20429561
0.20375732
0.20324339
0.20275307
0.20228666
0.20184571
0.20143337
0.20105496
0.20071862
0.20043644
0.20022584
0.20011192
0.20012965
0.20033014
0.20078095
0.20158823
0.20287291
0.20486968
0.20775052
0.21206967
0.21794175
0.22635017
0.23790596
0.21585996
0.21533902
0.21411437
0.21326418
0.21244204
0.21150426
0.21057403
0.20970349
0.20887884
0.20809589
0.20735835
0.20666405
0.20600803
0.20538632
0.20479557
0.2042327
0.2036952
0.20318133
0.20269015
0.20222165
0.20177697
0.20135871
0.20097131
0.20062171
0.20032029
0.20008195
0.19992816
0.19988873
0.20000675
0.20033928
0.2009731
0.20201006
0.20362824
0.20598555
0.20942473
0.21420406
0.22040922
0.22980825
0.21596217
0.21545263
0.21417489
0.21327273
0.21242285
0.2114627
0.21051478
0.20963486
0.20880609
0.20802174
0.20728476
0.20659222
0.20593839
0.20531889
0.20473012
0.20416879
0.2036322
0.20311846
0.2026264
0.20215573
0.20170718
0.20128272
0.20088597
0.20052264
0.20020132
0.19993446
0.19973985
0.19964221
0.19967674
0.19989031
0.2003511
0.20114296
0.20239207
0.20424238
0.20685701
0.21060617
0.2148868
0.22233378
0.21612234
0.21560599
0.21425939
0.21329671
0.21241154
0.21142295
0.21045463
0.20956426
0.20873078
0.20794498
0.20720891
0.20651855
0.20586735
0.20525048
0.20466405
0.20410454
0.2035691
0.20305563
0.20256279
0.20208995
0.20163743
0.20120661
0.20080023
0.20042276
0.20008105
0.19978502
0.19954886
0.19939224
0.19934267
0.19943716
0.19972637
0.20027695
0.20116895
0.20253087
0.20438079
0.20716406
0.20978564
0.21547755
0.21635057
0.2157981
0.21436352
0.21333441
0.21240686
0.21138357
0.21039318
0.20949226
0.20865399
0.20786716
0.20713273
0.20644523
0.20579728
0.2051836
0.2046
0.20404273
0.20350876
0.20299585
0.20250245
0.20202765
0.20157134
0.20113433
0.20071852
0.20032718
0.19996545
0.19964089
0.1993642
0.19915032
0.19901959
0.19899985
0.19912605
0.19944908
0.20001045
0.20092236
0.20209418
0.20401396
0.20526873
0.20945428
0.21663715
0.21601506
0.21447296
0.2133775
0.21240429
0.21134274
0.21033142
0.20942164
0.20857952
0.20779273
0.20706101
0.20637721
0.20573314
0.20512318
0.20454282
0.20398812
0.20345594
0.20294389
0.20245024
0.20197382
0.20151418
0.2010716
0.20064721
0.20024321
0.19986322
0.19951266
0.19919918
0.19893353
0.19872982
0.19860799
0.19858985
0.19871288
0.1989885
0.19951411
0.20012293
0.20132461
0.20151866
0.20449878
0.21697151
0.21625055
0.21458223
0.21342434
0.21240426
0.21130263
0.2102729
0.20935642
0.2085116
0.207726
0.20699789
0.20631831
0.20567846
0.20507242
0.20449542
0.20394336
0.203413
0.20290188
0.20240812
0.20193034
0.20146776
0.20102023
0.20058822
0.20017299
0.19977683
0.19940335
0.19905757
0.19874665
0.19847948
0.19826937
0.19812745
0.19808026
0.19811611
0.19832014
0.19847295
0.19909439
0.19848017
0.20051479
0.21735713
0.21650171
0.21468864
0.21347631
0.21240887
0.21126626
0.21022111
0.20929969
0.20845288
0.20766914
0.20694498
0.20626964
0.20563386
0.20503151
0.2044576
0.2039079
0.20337912
0.20286876
0.2023748
0.20189568
0.20143037
0.20097833
0.20053945
0.20011417
0.19970366
0.19930995
0.19893579
0.19858532
0.19826298
0.1979766
0.19772847
0.19753634
0.19737045
0.19730641
0.19708712
0.19723871
0.19599916
0.19728882
0.21781593
0.21677456
0.21479669
0.21353794
0.2124194
0.21123416
0.21017609
0.20925053
0.20840186
0.2076202
0.20689991
0.20622847
0.20559639
0.20499732
0.20442608
0.20387836
0.20335086
0.20284103
0.20234675
0.2018663
0.20139843
0.20094229
0.20049724
0.200063
0.19963979
0.19922828
0.19882929
0.19844436
0.1980742
0.19772203
0.19738288
0.19706748
0.19673159
0.19644408
0.19591936
0.19569036
0.19395982
0.19466314
0.21833657
0.21704151
0.21488932
0.21359869
0.2124253
0.21119752
0.21012988
0.20920115
0.20835118
0.2075722
0.20685596
0.20618843
0.20555996
0.20496405
0.20439535
0.20384949
0.20332318
0.20281386
0.20231934
0.20183773
0.20136762
0.20090787
0.2004574
0.20001531
0.19958099
0.19915396
0.19873337
0.19831859
0.19790714
0.19749842
0.19708142
0.19666135
0.19618215
0.19570851
0.19493181
0.19439496
0.19227327
0.19251807
0.21893508
0.21728279
0.2149489
0.2136435
0.21241168
0.21114445
0.21007229
0.20914235
0.20829275
0.2075179
0.20680656
0.20614349
0.20551905
0.20492658
0.20436063
0.20381683
0.20329191
0.20278332
0.20228881
0.20180636
0.20133444
0.20087167
0.2004166
0.19996774
0.19952381
0.19908337
0.19864413
0.19820362
0.19775665
0.19729949
0.19681603
0.1963073
0.19570727
0.19507884
0.19409336
0.19330825
0.19087032
0.19076125
0.21955253
0.21745838
0.21495867
0.21366268
0.21237095
0.21107066
0.20999988
0.20907109
0.20822399
0.20745491
0.20674945
0.20609153
0.20547162
0.20488295
0.20432005
0.20377854
0.20325524
0.20274762
0.20225341
0.20177046
0.20129713
0.20083189
0.20037291
0.19991824
0.19946604
0.19901402
0.19855871
0.19809605
0.19761859
0.19712
0.19657988
0.19599616
0.19529422
0.19453729
0.1933781
0.19239375
0.18969627
0.18931999
0.22022602
0.21758489
0.21493783
0.21366855
0.21231103
0.21098334
0.20991794
0.20899136
0.20814817
0.20738581
0.20668664
0.20603415
0.20541892
0.20483413
0.20427433
0.20373515
0.2032135
0.20270693
0.20221312
0.2017298
0.20125529
0.20078791
0.20032552
0.19986574
0.19940629
0.19894418
0.1984749
0.19799309
0.19748938
0.1969553
0.19636683
0.1957197
0.19493171
0.19406827
0.19276394
0.19162074
0.18870691
0.18813573
0.22096564
0.21765306
0.21489419
0.21366804
0.21223863
0.21089004
0.20983259
0.20890843
0.2080699
0.2073145
0.20662147
0.2059742
0.2053634
0.2047822
0.2042252
0.20368808
0.20316783
0.2026621
0.2021685
0.20168466
0.2012089
0.2007394
0.20027376
0.19980922
0.19934314
0.19887197
0.1983903
0.19789173
0.19736523
0.19680061
0.19617074
0.19546995
0.1946092
0.19365762
0.19223149
0.19096275
0.18786579
0.18716026
0.22178626
0.21765293
0.21483531
0.21366492
0.21215776
0.21079549
0.20974749
0.20882564
0.20799224
0.20724365
0.20655629
0.20591374
0.20530681
0.20472861
0.20417385
0.2036382
0.20311878
0.20261331
0.2021194
0.20163452
0.20115705
0.20068507
0.20021594
0.19974656
0.19927408
0.19879443
0.19830146
0.1977879
0.19724136
0.19665025
0.19598479
0.19523856
0.19431627
0.19329201
0.19176345
0.19039684
0.18714275
0.18635357
0.2226906
0.21756806
0.21476483
0.21365808
0.21206923
0.21070136
0.20966351
0.20874397
0.20791612
0.207174
0.20649168
0.20585317
0.20524932
0.20467325
0.20411981
0.20358466
0.20306508
0.20255889
0.20206367
0.2015768
0.20109675
0.20062153
0.20014829
0.19967365
0.19919461
0.19870678
0.19820337
0.19767639
0.19711229
0.19649835
0.19580245
0.19501788
0.19404357
0.19295965
0.19134473
0.18990315
0.18651259
0.18568149
0.22368097
0.21738426
0.21468712
0.21364513
0.21197333
0.21060806
0.20958025
0.20866311
0.20784106
0.20710482
0.20642667
0.20579114
0.20518911
0.20461377
0.20406016
0.20352395
0.20300266
0.20249425
0.20199627
0.20150604
0.20102221
0.20054283
0.20006485
0.19958459
0.19909893
0.19860309
0.19808989
0.19755082
0.19697132
0.19633783
0.19561651
0.19480074
0.19378389
0.1926526
0.19096607
0.18946954
0.18595975
0.18512243
0.22475572
0.21708945
0.21460747
0.21362352
0.2118707
0.21051546
0.20949655
0.20858161
0.20776493
0.20703315
0.20635736
0.20572278
0.2051203
0.20454335
0.20398724
0.2034477
0.2029226
0.20241015
0.201908
0.20141333
0.20092485
0.20044057
0.19995737
0.19947175
0.1989808
0.19847922
0.19795915
0.1974115
0.1968208
0.19617217
0.1954298
0.19458798
0.19353538
0.19236586
0.19061881
0.18908289
0.18546651
0.18465056
0.2259147
0.21667706
0.21453346
0.21359154
0.21176303
0.21042345
0.20941088
0.20849699
0.20768369
0.20695325
0.20627634
0.2056391
0.20503262
0.20445084
0.20388956
0.20334465
0.2028142
0.20229655
0.20178937
0.20129026
0.20079856
0.20031195
0.1998263
0.1993367
0.19884074
0.19833359
0.19780707
0.19725163
0.19665092
0.1959915
0.19523582
0.19437668
0.19329806
0.19210064
0.1903057
0.18874392
0.18503486
0.18427362
0.22715572
0.21614198
0.21447117
0.21354465
0.21164867
0.21032653
0.20931415
0.20839655
0.20758072
0.20684528
0.20616153
0.205517
0.20490317
0.20431446
0.20374682
0.20319661
0.20266286
0.20214375
0.20163597
0.20113499
0.20064063
0.20015152
0.19966492
0.1991784
0.1986852
0.19817963
0.19765318
0.19709605
0.19649158
0.19582831
0.19506707
0.19419895
0.19310363
0.19188812
0.19005734
0.18848163
0.18469405
0.18402021
0.22847571
0.21548226
0.21442933
0.2134818
0.21152798
0.2102196
0.20919659
0.20826666
0.20744007
0.20669328
0.20599924
0.20534646
0.20472708
0.2041363
0.20356941
0.20301953
0.20248515
0.20196574
0.20145898
0.20096559
0.20047877
0.19999627
0.19951724
0.19904169
0.19855893
0.19806227
0.19754293
0.19699087
0.19638937
0.19572448
0.19495545
0.19407635
0.19296378
0.1917321
0.18986858
0.18828553
0.18442326
0.18384957
0.22966488
0.21480798
0.21440969
0.21340732
0.21140573
0.21009627
0.20904967
0.2081012
0.20726288
0.20650905
0.20581349
0.20516398
0.20454901
0.2039626
0.20340049
0.20286186
0.20234035
0.20183217
0.20133631
0.20085752
0.20038494
0.19991539
0.1994464
0.19897419
0.19849276
0.19799651
0.19747673
0.19692324
0.19631898
0.19564837
0.19487013
0.19398083
0.19285374
0.19161045
0.18972069
0.18813813
0.18420886
0.18373281
0.23061405
0.21422384
0.21438586
0.21331568
0.2112671
0.20993993
0.20886735
0.20790721
0.20706951
0.20632334
0.20563754
0.20499818
0.20439855
0.20382814
0.2032799
0.20275846
0.2022547
0.2017623
0.2012798
0.20080617
0.20033671
0.19986955
0.19940121
0.1989263
0.19844184
0.19794243
0.19741921
0.19686192
0.1962532
0.19557771
0.19479375
0.19389836
0.19276234
0.19151208
0.18960576
0.18802445
0.18405082
0.18364388
0.23150114
0.21364649
0.21433961
0.21317547
0.21106814
0.20971839
0.20863445
0.20768472
0.2068661
0.20614098
0.20548167
0.20486479
0.20428919
0.20374177
0.20321353
0.20270342
0.20220575
0.20171778
0.20123801
0.20076211
0.20029005
0.19982025
0.19934931
0.19887228
0.19838585
0.19788432
0.19735878
0.1967989
0.1961872
0.19550842
0.19472036
0.1938205
0.19267785
0.19142264
0.18950393
0.18792444
0.183916
0.18356573
0.23232171
0.21307607
0.21424531
0.2129606
0.21080115
0.20945451
0.20839388
0.20748101
0.20670307
0.20601149
0.2053853
0.20479575
0.20423594
0.20369725
0.20317517
0.20266552
0.20216584
0.20167562
0.20119351
0.20071583
0.20024227
0.19977091
0.19929843
0.19881997
0.198332
0.19782884
0.1973016
0.19673989
0.19612614
0.19544509
0.19465421
0.19375138
0.19260415
0.19134581
0.18941814
0.18784108
0.18380541
0.18350113
0.23306894
0.21249638
0.21406617
0.21265306
0.21048654
0.20919932
0.20820159
0.20734223
0.20660963
0.20595075
0.20534043
0.20476104
0.20420384
0.20366419
0.20314044
0.20262924
0.20212834
0.20163689
0.20115353
0.20067474
0.20020001
0.19972748
0.19925393
0.19877451
0.19828565
0.19778166
0.19725358
0.19669101
0.19607622
0.19539403
0.19460161
0.19369716
0.19254712
0.19128713
0.18935331
0.18777906
0.18372252
0.18345453
0.23372666
0.21188044
0.21374728
0.21228446
0.21020637
0.20901977
0.20809212
0.20727949
0.20657069
0.20592514
0.20531724
0.20473795
0.20418028
0.20364004
0.20311547
0.20260341
0.2021016
0.2016092
0.20112499
0.20064554
0.20017028
0.19969734
0.19922354
0.19874402
0.19825518
0.19775127
0.19722328
0.19666077
0.19604594
0.1953636
0.19457071
0.19366574
0.19251422
0.19125369
0.18931582
0.18774448
0.18367215
0.18343199
0.23429242
0.2111137
0.2133294
0.2119687
0.21003549
0.20893591
0.20805146
0.2072629
0.20656225
0.20591961
0.20531291
0.20473399
0.20417624
0.20363566
0.20311067
0.20259828
0.20209629
0.20160385
0.20111976
0.20064061
0.20016579
0.1996934
0.19922027
0.19874155
0.19825353
0.19775048
0.19722332
0.19666156
0.19604735
0.1953655
0.19457281
0.19366795
0.19251578
0.19125529
0.18931473
0.187746
0.18366154
0.18344202
0.23471165
0.210203
0.2129703
0.21177635
0.2099612
0.20892145
0.20806223
0.20728499
0.20658914
0.20594858
0.20534298
0.20476473
0.20420756
0.20366765
0.20314343
0.20263196
0.20213102
0.20163974
0.2011569
0.20067908
0.20020563
0.19973461
0.19926286
0.19878551
0.19829883
0.19779702
0.197271
0.19671026
0.19609689
0.19541573
0.19462344
0.19371884
0.1925663
0.19130588
0.18936323
0.18779644
0.18370213
0.18349714
0.23470288
0.20936021
0.21273111
0.2116883
0.20997609
0.20898388
0.20814116
0.20737025
0.20667743
0.20603892
0.2054352
0.20485879
0.20430351
0.20376552
0.20324323
0.20273371
0.20223472
0.20174535
0.20126437
0.20078837
0.20031664
0.19984726
0.19937704
0.19890113
0.19841575
0.19791511
0.1973901
0.19683021
0.1962175
0.19553681
0.19474474
0.19384018
0.19268712
0.19142642
0.18948176
0.1879159
0.18381302
0.1836174
0.23441782
0.20871286
0.21262667
0.21176715
0.21014095
0.20917806
0.20834033
0.20757005
0.2068777
0.20624
0.20563743
0.20506235
0.20450851
0.20397201
0.20345123
0.20294323
0.20244572
0.20195778
0.20147818
0.2010035
0.20053301
0.20006477
0.19959561
0.19912067
0.19863615
0.19813622
0.19761181
0.19705238
0.19643997
0.19575945
0.19496733
0.19406255
0.19290886
0.1916476
0.18970114
0.18813543
0.18402543
0.18383586
0.23445305
0.20831783
0.21272466
0.21209168
0.21048956
0.20951768
0.20867126
0.20789567
0.20719995
0.20656011
0.20595623
0.20538044
0.20482632
0.20428987
0.2037694
0.20326187
0.20276498
0.20227774
0.2017989
0.20132501
0.20085533
0.2003879
0.19991954
0.19944537
0.19896151
0.19846214
0.19793822
0.19737923
0.19676718
0.19608693
0.19529494
0.1943902
0.1932363
0.19197478
0.19002736
0.18846178
0.1843465
0.18416328
0.23480814
0.20837455
0.21326979
0.21267939
0.21099773
0.20996129
0.20907704
0.20827821
0.2075669
0.20691614
0.20630445
0.205723
0.20516479
0.20462539
0.20410282
0.20359386
0.20309603
0.20260824
0.20212915
0.20165524
0.20118572
0.2007186
0.20025066
0.19977699
0.19929365
0.19879485
0.19827156
0.19771323
0.1971019
0.19642241
0.19563126
0.19472739
0.19357452
0.19231398
0.19036804
0.18880353
0.18468892
0.18451205
0.23573876
0.2092736
0.21424748
0.21334641
0.21149679
0.21036527
0.20942394
0.20858895
0.20785342
0.20718572
0.20656179
0.20597131
0.20540631
0.20486176
0.20433527
0.20382329
0.20332317
0.20283364
0.20235325
0.20187841
0.20140824
0.20094071
0.20047255
0.19999882
0.19951561
0.19901713
0.19849431
0.19793658
0.19732602
0.19664745
0.19585746
0.19495495
0.19380393
0.19254532
0.19060261
0.18904036
0.18493117
0.18475937
0.23680637
0.21023204
0.21485246
0.21365054
0.21169125
0.21050913
0.20953894
0.20868626
0.20793921
0.20726357
0.20663396
0.20603928
0.20547111
0.20492412
0.20439572
0.20388226
0.20338096
0.20289051
0.20240939
0.20193398
0.20146339
0.20099553
0.20052714
0.20005325
0.19957
0.1990716
0.19854892
0.19799142
0.19738116
0.19670299
0.19591354
0.19501169
0.1938616
0.19260402
0.19066301
0.18910201
0.18499612
0.18482538
0.23734266
0.21058203
0.21497295
0.2136716
0.2116894
0.21050081
0.20952884
0.20867586
0.20792889
0.20725344
0.20662403
0.20602952
0.2054615
0.20491463
0.20438633
0.20387294
0.2033717
0.2028813
0.20240022
0.20192484
0.20145427
0.20098643
0.20051805
0.20004417
0.19956094
0.19906255
0.1985399
0.19798242
0.19737219
0.19669406
0.19590467
0.19500289
0.1938529
0.19259545
0.19065462
0.18909383
0.18498825
0.18481694
0.90147098
0.25841835
0.16613769
0.13648652
0.095559119
0.070771158
0.050315165
0.031126082
0.013168231
-0.0042532928
-0.02152698
-0.038639959
-0.055521199
-0.072074356
-0.088175266
-0.10368782
-0.1184806
-0.13242559
-0.14540034
-0.15728367
-0.16794209
-0.17723219
-0.18498162
-0.19092184
-0.1947411
-0.19512445
0.89959488
0.26401664
0.16468385
0.13591462
0.09564025
0.070940353
0.050480141
0.031280839
0.013314021
-0.0041140014
-0.021393969
-0.038514117
-0.05540346
-0.071965558
-0.088076061
-0.10359858
-0.11840138
-0.13235621
-0.1453404
-0.15723259
-0.16789911
-0.1771964
-0.18495197
-0.19089701
-0.19471966
-0.19510388
0.89743768
0.27123161
0.1664753
0.13524564
0.095364169
0.070871525
0.050452535
0.031245176
0.013261067
-0.0041671847
-0.021439929
-0.038552483
-0.055435488
-0.071993305
-0.088102002
-0.10362516
-0.11843068
-0.1323898
-0.14537937
-0.15727767
-0.16795076
-0.17725469
-0.18501667
-0.1909675
-0.19479506
-0.19518277
0.89464172
0.27758056
0.17108997
0.13590639
0.095263548
0.070630183
0.050189035
0.030936819
0.012900409
-0.0045498291
-0.021823467
-0.038928016
-0.055799345
-0.072345148
-0.088443928
-0.10396062
-0.11876335
-0.1327229
-0.14571557
-0.15761922
-0.1682995
-0.17761193
-0.18538322
-0.19134348
-0.19518033
-0.19557746
0.89087132
0.28305384
0.17558636
0.13773241
0.095903596
0.070708988
0.050055396
0.030669603
0.012528364
-0.0050025162
-0.022327513
-0.039461745
-0.056348807
-0.072902191
-0.089005015
-0.10452536
-0.11933287
-0.13329869
-0.14629913
-0.15821201
-0.16890281
-0.1782267
-0.18601011
-0.1919825
-0.19583143
-0.19624219
0.88443201
0.28953861
0.18028772
0.14029237
0.097349697
0.07141709
0.050393716
0.030767021
0.012441084
-0.0052349823
-0.022665993
-0.039875786
-0.056815058
-0.073404844
-0.089534695
-0.10507697
-0.11990362
-0.13388689
-0.14690383
-0.1588327
-0.16953902
-0.17887792
-0.18667581
-0.19266193
-0.19652411
-0.19695115
0.8747911
0.29702011
0.18530709
0.14342955
0.099577863
0.072825246
0.05135671
0.031477183
0.012932798
-0.0049297979
-0.022515437
-0.039850426
-0.056888245
-0.073554995
-0.089746159
-0.10533875
-0.12020728
-0.13422583
-0.14727309
-0.15922833
-0.16995767
-0.17931661
-0.18713205
-0.19313366
-0.19701032
-0.19745709
0.86232325
0.30403329
0.19072783
0.14636109
0.10208493
0.074673969
0.052738773
0.032608021
0.013921274
-0.0040804725
-0.021815825
-0.039294975
-0.056463921
-0.073243663
-0.089529766
-0.105202
-0.12013674
-0.13421027
-0.1473037
-0.15929781
-0.17005974
-0.17944593
-0.18728427
-0.19330552
-0.19720023
-0.19767264
0.8470779
0.31050198
0.19662894
0.14920734
0.10447625
0.076695317
0.054405334
0.033958351
0.015131011
-0.0029883015
-0.020807749
-0.03838571
-0.05566528
-0.072555137