/*--------------------------------*- C++ -*----------------------------------*\
| =========                 |                                                 |
| \\      /  F ield         | OpenFOAM: The Open Source CFD Toolbox           |
|  \\    /   O peration     | Version:  2.4.0                                 |
|   \\  /    A nd           | Web:      www.OpenFOAM.org                      |
|    \\/     M anipulation  |                                                 |
\*---------------------------------------------------------------------------*/
FoamFile
{
    version     2.0;
    format      ascii;
    class       volVectorField;
    location    "2000";
    object      U;
}
// * * * * * * * * * * * * * * * * * * * * * * * * * * * * * * * * * * * * * //

dimensions      [0 1 -1 0 0 0 0];

internalField   nonuniform List<vector> 
15296
(
(1.2144198 6.3824861e-06 -8.6386774e-15)
(1.2142931 2.332754e-07 -8.8382973e-15)
(1.2143529 -6.20763e-07 -8.729334e-15)
(1.2145011 -1.2347504e-06 -8.66141e-15)
(1.2147659 -1.7692318e-06 -8.5729587e-15)
(1.2150961 -2.0083505e-06 -8.4162604e-15)
(1.2154468 -2.0502172e-06 -8.4661026e-15)
(1.2157979 -1.9940052e-06 -8.4829714e-15)
(1.2161368 -1.8743605e-06 -8.4469634e-15)
(1.2164542 -1.7159788e-06 -8.5752655e-15)
(1.2167452 -1.5419354e-06 -8.6235174e-15)
(1.2170084 -1.3669327e-06 -8.5506235e-15)
(1.2172439 -1.1982135e-06 -8.539803e-15)
(1.2174527 -1.0386837e-06 -8.587548e-15)
(1.2176362 -8.883693e-07 -8.8284402e-15)
(1.2177954 -7.4494124e-07 -8.7739748e-15)
(1.2179308 -6.0409689e-07 -8.7145815e-15)
(1.2180418 -4.5968012e-07 -8.6969164e-15)
(1.2181269 -3.0336514e-07 -8.7146248e-15)
(1.2181822 -1.2393312e-07 -8.7318004e-15)
(1.2182016 9.3914545e-08 -8.7841929e-15)
(1.2181753 3.7134285e-07 -8.9507098e-15)
(1.2180884 7.3816976e-07 -8.8955134e-15)
(1.217919 1.2368347e-06 -9.0733965e-15)
(1.2176343 1.9290217e-06 -9.1512157e-15)
(1.217186 2.9044768e-06 -9.2906237e-15)
(1.216503 4.2989271e-06 -9.5462448e-15)
(1.2154778 6.3133241e-06 -9.8789133e-15)
(1.2139506 9.2735939e-06 -1.0233023e-14)
(1.2116689 1.3663818e-05 -1.0898892e-14)
(1.2082516 2.0390527e-05 -1.1724821e-14)
(1.2030332 3.0732087e-05 -1.2985139e-14)
(1.1950185 4.7931838e-05 -1.4880464e-14)
(1.1820409 7.5513118e-05 -1.8436679e-14)
(1.1608513 0.00012430681 -2.6458305e-14)
(1.1216752 0.00020742654 -4.1151784e-14)
(1.0451307 0.00033299321 -7.3840608e-14)
(0.87281511 0.00039970692 -9.2988007e-14)
(1.2144073 1.5643224e-05 -1.1622787e-14)
(1.214288 5.5876335e-07 -1.2320406e-14)
(1.2143482 -1.6248216e-06 -1.1877458e-14)
(1.2144966 -3.2052631e-06 -1.181291e-14)
(1.2147615 -4.5911452e-06 -1.1638396e-14)
(1.2150917 -5.2234754e-06 -1.1412913e-14)
(1.2154424 -5.3506547e-06 -1.1377085e-14)
(1.2157936 -5.2260191e-06 -1.1453931e-14)
(1.2161325 -4.9370579e-06 -1.1311495e-14)
(1.2164499 -4.5463346e-06 -1.1596517e-14)
(1.2167411 -4.1130855e-06 -1.1547228e-14)
(1.2170043 -3.675291e-06 -1.1553241e-14)
(1.2172399 -3.2517824e-06 -1.1660434e-14)
(1.2174489 -2.8502511e-06 -1.1793479e-14)
(1.2176325 -2.470943e-06 -1.2097827e-14)
(1.2177918 -2.1079336e-06 -1.208802e-14)
(1.2179273 -1.750062e-06 -1.2014373e-14)
(1.2180386 -1.3812009e-06 -1.1939133e-14)
(1.2181238 -9.7937376e-07 -1.1926683e-14)
(1.2181794 -5.147802e-07 -1.2198536e-14)
(1.2181991 5.3426717e-08 -1.2302464e-14)
(1.2181733 7.8201482e-07 -1.2613082e-14)
(1.2180871 1.7512737e-06 -1.2522583e-14)
(1.2179186 3.0759615e-06 -1.2866466e-14)
(1.2176353 4.9235102e-06 -1.3075266e-14)
(1.2171891 7.5388831e-06 -1.3492392e-14)
(1.2165091 1.1294144e-05 -1.4041903e-14)
(1.2154887 1.6745536e-05 -1.5165253e-14)
(1.2139686 2.4799142e-05 -1.6200241e-14)
(1.2116982 3.6827322e-05 -1.8021773e-14)
(1.208299 5.5398605e-05 -2.0535249e-14)
(1.2031105 8.4286054e-05 -2.4504224e-14)
(1.195149 0.00013277867 -3.0456081e-14)
(1.1822644 0.00021420433 -4.0624584e-14)
(1.1612599 0.00037309294 -5.9524203e-14)
(1.1224755 0.00070167781 -9.0466773e-14)
(1.0470165 0.001479934 -1.594681e-13)
(0.87579112 -0.00024248699 -1.5970924e-13)
(1.2143816 2.3364024e-05 -1.1127887e-14)
(1.2142761 8.1525632e-07 -1.2486612e-14)
(1.214338 -2.6087616e-06 -1.1932773e-14)
(1.2144871 -5.1259005e-06 -1.1826538e-14)
(1.2147523 -7.335533e-06 -1.1566696e-14)
(1.2150828 -8.3457519e-06 -1.1408906e-14)
(1.2154337 -8.5504744e-06 -1.1298916e-14)
(1.2157851 -8.3530022e-06 -1.1276819e-14)
(1.2161242 -7.8931546e-06 -1.1295677e-14)
(1.2164418 -7.2707155e-06 -1.152611e-14)
(1.2167331 -6.5801457e-06 -1.1333361e-14)
(1.2169965 -5.8821051e-06 -1.1478262e-14)
(1.2172324 -5.2067139e-06 -1.1715028e-14)
(1.2174415 -4.5663039e-06 -1.1957426e-14)
(1.2176253 -3.9613261e-06 -1.2217461e-14)
(1.2177849 -3.3823822e-06 -1.2274354e-14)
(1.2179206 -2.8117232e-06 -1.2164962e-14)
(1.2180321 -2.2236853e-06 -1.2150469e-14)
(1.2181176 -1.5832919e-06 -1.2161228e-14)
(1.2181735 -8.431232e-07 -1.2391536e-14)
(1.2181937 6.1803041e-08 -1.2647701e-14)
(1.2181684 1.2217642e-06 -1.3054557e-14)
(1.218083 2.7643921e-06 -1.2966969e-14)
(1.2179156 4.8720104e-06 -1.3405675e-14)
(1.2176339 7.8104498e-06 -1.3643769e-14)
(1.21719 1.1968236e-05 -1.4259478e-14)
(1.2165134 1.7934795e-05 -1.5021368e-14)
(1.215498 2.6589453e-05 -1.6545938e-14)
(1.2139857 3.9361908e-05 -1.810286e-14)
(1.2117271 5.8407611e-05 -2.0762238e-14)
(1.2083468 8.7753991e-05 -2.4262201e-14)
(1.2031882 0.00013325827 -2.9918774e-14)
(1.195278 0.0002094049 -3.8479017e-14)
(1.182482 0.00033725691 -5.2385751e-14)
(1.1616596 0.00058822541 -7.7047153e-14)
(1.1232463 0.0011083531 -1.1555248e-13)
(1.0489701 0.0024064479 -2.0200807e-13)
(0.8779356 -0.00070755706 -1.871306e-13)
(1.2143449 3.0706732e-05 -1.014829e-14)
(1.2142577 9.5753587e-07 -1.2149861e-14)
(1.2143225 -3.6632545e-06 -1.154701e-14)
(1.2144727 -7.1556137e-06 -1.143951e-14)
(1.2147386 -1.0230355e-05 -1.1178235e-14)
(1.2150696 -1.1637012e-05 -1.0929824e-14)
(1.2154209 -1.1922223e-05 -1.0912519e-14)
(1.2157726 -1.1647185e-05 -1.0857366e-14)
(1.216112 -1.1006746e-05 -1.082422e-14)
(1.2164299 -1.0139753e-05 -1.1056667e-14)
(1.2167215 -9.1776872e-06 -1.0736098e-14)
(1.2169853 -8.2050787e-06 -1.1004061e-14)
(1.2172214 -7.2639529e-06 -1.1398033e-14)
(1.2174308 -6.371546e-06 -1.170174e-14)
(1.2176149 -5.5285424e-06 -1.1938774e-14)
(1.2177747 -4.721921e-06 -1.2064028e-14)
(1.2179108 -3.9270367e-06 -1.1895152e-14)
(1.2180226 -3.1082381e-06 -1.193862e-14)
(1.2181084 -2.2169415e-06 -1.193113e-14)
(1.2181647 -1.1872898e-06 -1.2064248e-14)
(1.2181854 7.0941784e-08 -1.2535702e-14)
(1.2181608 1.6830674e-06 -1.2923554e-14)
(1.2180762 3.8262164e-06 -1.2999572e-14)
(1.21791 6.7533568e-06 -1.3426889e-14)
(1.2176299 1.083326e-05 -1.3771615e-14)
(1.2171884 1.6604724e-05 -1.4370904e-14)
(1.2165154 2.4885092e-05 -1.5441101e-14)
(1.2155052 3.6892882e-05 -1.7265369e-14)
(1.2140007 5.4609788e-05 -1.9289125e-14)
(1.2117543 8.1018205e-05 -2.2392095e-14)
(1.208393 0.00012169895 -2.6687006e-14)
(1.2032649 0.00018472692 -3.3498001e-14)
(1.195407 0.00029014579 -4.4068118e-14)
(1.1827013 0.00046661426 -6.0663755e-14)
(1.1620644 0.00081286159 -8.8949998e-14)
(1.124017 0.0015259604 -1.3149813e-13)
(1.0510153 0.0033522494 -2.2696389e-13)
(0.88039959 -0.00055397581 -2.1328889e-13)
(1.2142988 3.7245114e-05 -9.1436041e-15)
(1.2142325 9.3268603e-07 -1.1661063e-14)
(1.2143018 -4.7489032e-06 -1.1131875e-14)
(1.2144535 -9.1956104e-06 -1.1020224e-14)
(1.2147204 -1.3131215e-05 -1.061577e-14)
(1.2150521 -1.4932426e-05 -1.0458103e-14)
(1.2154041 -1.5296924e-05 -1.0493852e-14)
(1.2157563 -1.4943628e-05 -1.0372345e-14)
(1.2160961 -1.4122261e-05 -1.0282566e-14)
(1.2164144 -1.3010504e-05 -1.0554651e-14)
(1.2167064 -1.1776747e-05 -1.0085239e-14)
(1.2169705 -1.0529384e-05 -1.0482626e-14)
(1.217207 -9.32235e-06 -1.0974665e-14)
(1.2174168 -8.177798e-06 -1.1271537e-14)
(1.2176013 -7.0966789e-06 -1.1579269e-14)
(1.2177615 -6.0623841e-06 -1.1674316e-14)
(1.2178978 -5.0434213e-06 -1.1544396e-14)
(1.21801 -3.9942231e-06 -1.156778e-14)
(1.2180963 -2.8526991e-06 -1.1575354e-14)
(1.2181531 -1.5347042e-06 -1.1606023e-14)
(1.2181743 7.5010685e-08 -1.2367684e-14)
(1.2181504 2.1364686e-06 -1.2709449e-14)
(1.2180667 4.8758003e-06 -1.2867497e-14)
(1.2179017 8.6158631e-06 -1.3373159e-14)
(1.2176234 1.382722e-05 -1.3708067e-14)
(1.2171843 2.119711e-05 -1.434927e-14)
(1.2165148 3.1767936e-05 -1.5691689e-14)
(1.21551 4.7092433e-05 -1.7690471e-14)
(1.2140136 6.9696355e-05 -2.0002457e-14)
(1.2117793 0.00010337279 -2.341695e-14)
(1.2084372 0.00015523029 -2.84061e-14)
(1.2033397 0.00023549438 -3.605384e-14)
(1.1955341 0.00036967159 -4.8127278e-14)
(1.1829181 0.00059384676 -6.6750763e-14)
(1.162467 0.0010332652 -9.7319747e-14)
(1.1247736 0.001930949 -1.4171016e-13)
(1.0530982 0.0042872427 -2.4049693e-13)
(0.882898 -0.00039807328 -2.3148404e-13)
(1.2142288 4.4630968e-05 -7.9684102e-15)
(1.2141915 7.1103716e-07 -1.0897907e-14)
(1.2142682 -6.2169891e-06 -1.0446617e-14)
(1.2144227 -1.1855739e-05 -1.0472138e-14)
(1.2146913 -1.6891312e-05 -9.934193e-15)
(1.2150243 -1.919824e-05 -9.8294298e-15)
(1.2153772 -1.9663097e-05 -9.9884603e-15)
(1.2157302 -1.9206973e-05 -9.7447073e-15)
(1.2160708 -1.8150732e-05 -9.6554838e-15)
(1.2163898 -1.6722012e-05 -9.9341515e-15)
(1.2166824 -1.5136631e-05 -9.2559646e-15)
(1.2169471 -1.3533746e-05 -9.8354509e-15)
(1.2171842 -1.1982692e-05 -1.0382755e-14)
(1.2173946 -1.051199e-05 -1.0810892e-14)
(1.2175796 -9.1229565e-06 -1.1077651e-14)
(1.2177403 -7.7944e-06 -1.1179334e-14)
(1.2178772 -6.4860592e-06 -1.1044062e-14)
(1.21799 -5.139655e-06 -1.1019389e-14)
(1.2180769 -3.675794e-06 -1.1142978e-14)
(1.2181343 -1.9869258e-06 -1.1172368e-14)
(1.2181564 7.4196249e-08 -1.2051878e-14)
(1.2181334 2.711946e-06 -1.238829e-14)
(1.218051 6.2150304e-06 -1.2614464e-14)
(1.2178877 1.0995494e-05 -1.3260469e-14)
(1.2176116 1.7653733e-05 -1.3627026e-14)
(1.2171758 2.706617e-05 -1.4209113e-14)
(1.216511 4.0561934e-05 -1.5853165e-14)
(1.2155131 6.0118915e-05 -1.8033195e-14)
(1.2140271 8.8955025e-05 -2.0636944e-14)
(1.2118086 0.00013189071 -2.4378168e-14)
(1.2084914 0.00019797501 -2.9961595e-14)
(1.2034334 0.00030013479 -3.8527114e-14)
(1.1956953 0.000470782 -5.2125664e-14)
(1.1831947 0.00075487806 -7.2650208e-14)
(1.1629835 0.0013106878 -1.0526616e-13)
(1.125732 0.0024313026 -1.5027782e-13)
(1.0558121 0.0054607667 -2.4913551e-13)
(0.88616918 2.0784309e-05 -2.4930312e-13)
(1.2141221 5.2306972e-05 -6.6489964e-15)
(1.2141228 1.6215398e-08 -9.6395773e-15)
(1.2142121 -8.2645687e-06 -9.6271096e-15)
(1.2143714 -1.5325263e-05 -9.7700569e-15)
(1.214643 -2.1732967e-05 -9.1937826e-15)
(1.2149782 -2.4675055e-05 -9.0754464e-15)
(1.2153329 -2.5263328e-05 -9.2541714e-15)
(1.2156874 -2.4672534e-05 -9.0209594e-15)
(1.2160292 -2.3314479e-05 -8.9559834e-15)
(1.2163493 -2.1480045e-05 -9.2004806e-15)
(1.216643 -1.9444998e-05 -8.5176856e-15)
(1.2169087 -1.738759e-05 -9.0915748e-15)
(1.2171467 -1.5396798e-05 -9.6808933e-15)
(1.217358 -1.350929e-05 -1.0121134e-14)
(1.2175439 -1.1726897e-05 -1.0440831e-14)
(1.2177055 -1.0022655e-05 -1.0584113e-14)
(1.2178433 -8.3452149e-06 -1.0416501e-14)
(1.217957 -6.6202321e-06 -1.0471535e-14)
(1.2180448 -4.7464566e-06 -1.0574509e-14)
(1.2181032 -2.5867899e-06 -1.0747065e-14)
(1.2181264 4.6373454e-08 -1.1549038e-14)
(1.2181048 3.4132873e-06 -1.194564e-14)
(1.2180241 7.8814376e-06 -1.2279267e-14)
(1.217863 1.3975062e-05 -1.2899561e-14)
(1.21759 2.2457763e-05 -1.3365403e-14)
(1.2171584 3.4443527e-05 -1.4044061e-14)
(1.2164997 5.1621286e-05 -1.5772704e-14)
(1.2155107 7.6501382e-05 -1.8092964e-14)
(1.214038 0.00011316831 -2.1097932e-14)
(1.2118398 0.00016772226 -2.5085556e-14)
(1.2085543 0.00025163456 -3.1183851e-14)
(1.2035466 0.00038115635 -4.0569405e-14)
(1.1958941 0.00059726881 -5.5436666e-14)
(1.1835391 0.00095550432 -7.75827e-14)
(1.163633 0.0016553475 -1.1142424e-13)
(1.1269167 0.0030401491 -1.5588527e-13)
(1.0592629 0.0069333881 -2.5080211e-13)
(0.89065346 0.0010366479 -2.6439585e-13)
(1.213983 5.9377488e-05 -5.38348e-15)
(1.2140256 -1.389578e-06 -8.3951376e-15)
(1.2141321 -1.0848592e-05 -8.8557088e-15)
(1.2142985 -1.9363425e-05 -9.0481105e-15)
(1.2145744 -2.7272736e-05 -8.4339592e-15)
(1.2149128 -3.0913456e-05 -8.3125557e-15)
(1.21527 -3.1630668e-05 -8.4798431e-15)
(1.2156266 -3.0880643e-05 -8.2261056e-15)
(1.2159702 -2.917699e-05 -8.0880338e-15)
(1.216292 -2.688101e-05 -8.4117366e-15)
(1.2165871 -2.4335467e-05 -7.9064889e-15)
(1.2168543 -2.1762505e-05 -8.3517739e-15)
(1.2170936 -1.9273199e-05 -8.9734266e-15)
(1.2173062 -1.6913386e-05 -9.352677e-15)
(1.2174933 -1.4685498e-05 -9.8157144e-15)
(1.2176561 -1.255612e-05 -9.8932885e-15)
(1.2177951 -1.04615e-05 -9.6737704e-15)
(1.21791 -8.3093233e-06 -9.8312184e-15)
(1.217999 -5.9739119e-06 -9.9199103e-15)
(1.2180588 -3.2851942e-06 -1.024113e-14)
(1.2180835 -1.0585999e-08 -1.0992301e-14)
(1.2180636 4.1723771e-06 -1.1416515e-14)
(1.217985 9.718794e-06 -1.1842577e-14)
(1.2178266 1.7277534e-05 -1.231669e-14)
(1.2175571 2.7793352e-05 -1.2976569e-14)
(1.2171305 4.2643541e-05 -1.3726944e-14)
(1.2164788 6.3915593e-05 -1.5499596e-14)
(1.2154999 9.4708e-05 -1.7932158e-14)
(1.2140423 0.00014006292 -2.1268012e-14)
(1.2118668 0.00020748467 -2.5413596e-14)
(1.2086169 0.00031111454 -3.1837008e-14)
(1.2036657 0.0004707954 -4.1816983e-14)
(1.1961092 0.00073693343 -5.7565529e-14)
(1.1839163 0.0011758882 -8.0851723e-14)
(1.1643527 0.0020331916 -1.1508416e-13)
(1.1282084 0.003690428 -1.5751694e-13)
(1.0630814 0.0085461188 -2.4579464e-13)
(0.89608061 0.0023376512 -2.7070803e-13)
(1.2138066 6.557982e-05 -4.2364146e-15)
(1.2138927 -3.7393059e-06 -7.0556366e-15)
(1.2140208 -1.4167689e-05 -7.9021474e-15)
(1.2141971 -2.4113789e-05 -8.2427941e-15)
(1.2144791 -3.3643766e-05 -7.6499105e-15)
(1.214822 -3.8044812e-05 -7.5854775e-15)
(1.2151828 -3.8892096e-05 -7.5929157e-15)
(1.2155422 -3.7951901e-05 -7.4199582e-15)
(1.2158884 -3.5851157e-05 -7.1495513e-15)
(1.2162125 -3.3029108e-05 -7.4861299e-15)
(1.2165098 -2.9903157e-05 -7.217945e-15)
(1.2167788 -2.6744663e-05 -7.6324138e-15)
(1.21702 -2.3689524e-05 -8.1409374e-15)
(1.2172344 -2.0793872e-05 -8.6110392e-15)
(1.2174232 -1.806083e-05 -9.060802e-15)
(1.2175876 -1.5449774e-05 -9.1294534e-15)
(1.2177282 -1.2883072e-05 -8.9598407e-15)
(1.2178447 -1.0248299e-05 -9.1859118e-15)
(1.2179354 -7.3924918e-06 -9.1705764e-15)
(1.2179969 -4.1087929e-06 -9.6318287e-15)
(1.2180234 -1.1450476e-07 -1.0273873e-14)
(1.2180057 4.9820492e-06 -1.0695059e-14)
(1.2179297 1.1733317e-05 -1.128047e-14)
(1.2177744 2.0926468e-05 -1.1716113e-14)
(1.2175092 3.3707067e-05 -1.2398402e-14)
(1.2170882 5.1743792e-05 -1.3322737e-14)
(1.2164445 7.7564849e-05 -1.510776e-14)
(1.2154771 0.00011491701 -1.7611672e-14)
(1.2140365 0.00016989842 -2.1080093e-14)
(1.2118866 0.00025154922 -2.5346677e-14)
(1.2086767 0.00037694623 -3.1955108e-14)
(1.2037886 0.00056979277 -4.2392477e-14)
(1.1963391 0.00089084693 -5.8585028e-14)
(1.1843258 0.0014172494 -8.2405537e-14)
(1.1651448 0.002446387 -1.1643911e-13)
(1.1296119 0.0043796131 -1.5637165e-13)
(1.0672354 0.010294263 -2.3608418e-13)
(0.90254293 0.0039254751 -2.6982263e-13)
(1.2135883 7.0795682e-05 -3.1772182e-15)
(1.2137155 -7.2436253e-06 -5.6109671e-15)
(1.2138694 -1.8476003e-05 -6.8257783e-15)
(1.2140588 -2.9766056e-05 -7.4159947e-15)
(1.214349 -4.1007041e-05 -6.8993806e-15)
(1.2146979 -4.6216383e-05 -6.7671067e-15)
(1.2150635 -4.7182397e-05 -6.724897e-15)
(1.2154269 -4.6008235e-05 -6.4668686e-15)
(1.2157766 -4.3445967e-05 -6.2369354e-15)
(1.2161037 -4.0020486e-05 -6.5360016e-15)
(1.2164038 -3.6231843e-05 -6.4989921e-15)
(1.2166755 -3.2406263e-05 -6.8007758e-15)
(1.2169192 -2.8707355e-05 -7.2667297e-15)
(1.2171359 -2.5202704e-05 -7.8101203e-15)
(1.2173269 -2.1896136e-05 -8.2559452e-15)
(1.2174935 -1.8738909e-05 -8.4123289e-15)
(1.2176363 -1.5637804e-05 -8.2637249e-15)
(1.2177549 -1.2457867e-05 -8.4616406e-15)
(1.2178477 -9.0155804e-06 -8.4108646e-15)
(1.2179115 -5.0629496e-06 -9.0355231e-15)
(1.2179404 -2.6129602e-07 -9.5111861e-15)
(1.2179253 5.8583063e-06 -1.0005353e-14)
(1.2178525 1.3956894e-05 -1.0705429e-14)
(1.2177011 2.4975788e-05 -1.0998058e-14)
(1.2174408 4.0284281e-05 -1.1713379e-14)
(1.2170264 6.1875315e-05 -1.2788168e-14)
(1.2163919 9.2767452e-05 -1.4473427e-14)
(1.2154376 0.00013742678 -1.6999193e-14)
(1.2140163 0.00020312431 -2.0484074e-14)
(1.2118953 0.00030059251 -2.4873253e-14)
(1.2087304 0.00045016128 -3.1676809e-14)
(1.2039133 0.00067971358 -4.2186682e-14)
(1.1965835 0.0010614886 -5.8497117e-14)
(1.1847701 0.0016831183 -8.2471808e-14)
(1.1660181 0.0029018013 -1.1568744e-13)
(1.1311468 0.0051148039 -1.5322211e-13)
(1.071724 0.012200537 -2.2389228e-13)
(0.91022817 0.0059732385 -2.6297983e-13)
(1.2133215 7.5380231e-05 -2.2551361e-15)
(1.2134848 -1.2047756e-05 -4.4010148e-15)
(1.2136675 -2.4097926e-05 -5.7803053e-15)
(1.213873 -3.6598951e-05 -6.4499614e-15)
(1.2141737 -4.961852e-05 -6.1257916e-15)
(1.2145306 -5.5675092e-05 -5.9357518e-15)
(1.2149024 -5.6739124e-05 -5.7401123e-15)
(1.2152711 -5.5276466e-05 -5.4311121e-15)
(1.2156253 -5.2176042e-05 -5.3264117e-15)
(1.2159565 -4.8056126e-05 -5.6332316e-15)
(1.2162604 -4.3508141e-05 -5.7632729e-15)
(1.2165356 -3.8919572e-05 -5.9567057e-15)
(1.2167825 -3.4485031e-05 -6.3154963e-15)
(1.2170022 -3.028487e-05 -7.084985e-15)
(1.2171962 -2.6323666e-05 -7.4577761e-15)
(1.2173657 -2.254353e-05 -7.6375449e-15)
(1.2175112 -1.8833733e-05 -7.4781147e-15)
(1.2176326 -1.5034007e-05 -7.6412417e-15)
(1.2177282 -1.0926564e-05 -7.6777307e-15)
(1.2177948 -6.2173299e-06 -8.2831457e-15)
(1.2178268 -5.0499799e-07 -8.6796644e-15)
(1.2178151 6.76566e-06 -9.1587029e-15)
(1.2177461 1.6376836e-05 -9.8753218e-15)
(1.2175994 2.9441612e-05 -1.0229596e-14)
(1.217345 4.7578265e-05 -1.1012405e-14)
(1.2169384 7.3139941e-05 -1.2107751e-14)
(1.2163145 0.00010968934 -1.3829416e-14)
(1.2153752 0.00016248786 -1.6206989e-14)
(1.2139759 0.00024010361 -1.9666204e-14)
(1.2118877 0.0003551229 -2.4123076e-14)
(1.2087737 0.00053145978 -3.0910643e-14)
(1.2040366 0.00080147559 -4.1198383e-14)
(1.1968415 0.001250093 -5.7361211e-14)
(1.1852518 0.0019744505 -8.1221354e-14)
(1.1669811 0.0034007821 -1.132746e-13)
(1.132838 0.0058882225 -1.4888694e-13)
(1.0765253 0.014226664 -2.0967902e-13)
(0.91938965 0.0084165948 -2.5135585e-13)
(1.2129954 7.9262595e-05 -1.7076103e-15)
(1.2131903 -1.8258864e-05 -3.3018209e-15)
(1.2134028 -3.1328123e-05 -4.6181278e-15)
(1.213627 -4.4887089e-05 -5.2493469e-15)
(1.2139408 -5.9714724e-05 -5.2532296e-15)
(1.2143078 -6.6631056e-05 -5.1095275e-15)
(1.2146877 -6.7749894e-05 -4.6619301e-15)
(1.2150631 -6.592368e-05 -4.5563309e-15)
(1.2154232 -6.2189671e-05 -4.6071083e-15)
(1.2157598 -5.7266859e-05 -4.7834502e-15)
(1.2160685 -5.1846778e-05 -4.9773866e-15)
(1.2163482 -4.6384749e-05 -5.1171624e-15)
(1.2165994 -4.1109725e-05 -5.4010064e-15)
(1.2168232 -3.6116071e-05 -6.0041325e-15)
(1.2170211 -3.1409033e-05 -6.4370114e-15)
(1.2171943 -2.6920399e-05 -6.7598838e-15)
(1.2173434 -2.2519805e-05 -6.5416237e-15)
(1.2174684 -1.8018706e-05 -6.7560089e-15)
(1.2175676 -1.3161131e-05 -6.8361859e-15)
(1.2176379 -7.601802e-06 -7.5500022e-15)
(1.2176737 -8.6997454e-07 -7.7633169e-15)
(1.2176663 7.6850739e-06 -8.2249402e-15)
(1.217602 1.8979361e-05 -9.1060773e-15)
(1.2174609 3.4315328e-05 -9.4183002e-15)
(1.2172135 5.5585334e-05 -1.0238845e-14)
(1.216816 8.5538096e-05 -1.1331323e-14)
(1.2162043 0.00012833313 -1.2948355e-14)
(1.2152822 0.00019010031 -1.5230646e-14)
(1.2139078 0.00028082461 -1.8662012e-14)
(1.2118565 0.0004150951 -2.2961595e-14)
(1.2087995 0.00062072348 -2.9714694e-14)
(1.2041518 0.00093478413 -3.9672567e-14)
(1.1971067 0.0014560774 -5.5283897e-14)
(1.1857651 0.0022895637 -7.8610976e-14)
(1.1680269 0.0039412087 -1.0914529e-13)
(1.1346883 0.0066933964 -1.4229709e-13)
(1.0815565 0.016345773 -1.9455135e-13)
(0.92994943 0.01122125 -2.367651e-13)
(1.2126002 8.2026497e-05 -1.3445282e-15)
(1.2128187 -2.591217e-05 -2.4201075e-15)
(1.213061 -4.0443905e-05 -3.5985786e-15)
(1.2133056 -5.4957028e-05 -4.2766462e-15)
(1.2136348 -7.1608455e-05 -4.3727918e-15)
(1.2140141 -7.9375979e-05 -4.1447707e-15)
(1.2144041 -8.048276e-05 -3.8772846e-15)
(1.2147882 -7.8194676e-05 -3.7013848e-15)
(1.2151559 -7.3709468e-05 -3.7735573e-15)
(1.2154993 -6.7853882e-05 -3.9845777e-15)
(1.2158143 -6.1428531e-05 -4.2368689e-15)
(1.2160999 -5.4963567e-05 -4.2411799e-15)
(1.2163566 -4.8725802e-05 -4.5359365e-15)
(1.2165856 -4.2824854e-05 -4.9954917e-15)
(1.2167885 -3.7266436e-05 -5.39736e-15)
(1.2169665 -3.1970638e-05 -5.8716857e-15)
(1.2171204 -2.6785116e-05 -5.6063538e-15)
(1.21725 -2.1489798e-05 -5.8375196e-15)
(1.2173538 -1.5786314e-05 -5.9526581e-15)
(1.2174288 -9.272706e-06 -6.6339109e-15)
(1.2174696 -1.4015923e-06 -6.7109154e-15)
(1.2174674 8.5828623e-06 -7.301024e-15)
(1.217409 2.174362e-05 -8.1685243e-15)
(1.2172748 3.9590565e-05 -8.6107081e-15)
(1.2170356 6.4315677e-05 -9.3863693e-15)
(1.2166487 9.9098863e-05 -1.0432883e-14)
(1.2160512 0.00014874904 -1.1938552e-14)
(1.2151487 0.00022033622 -1.4319695e-14)
(1.2138023 0.0003253792 -1.7475009e-14)
(1.2117925 0.00048060746 -2.1697543e-14)
(1.208799 0.00071803052 -2.7930693e-14)
(1.2042507 0.0010795996 -3.7612694e-14)
(1.1973716 0.001679196 -5.2326954e-14)
(1.186305 0.0026270527 -7.507048e-14)
(1.1691484 0.0045203658 -1.0370201e-13)
(1.136704 0.0075210523 -1.342868e-13)
(1.0867655 0.018508459 -1.8056658e-13)
(0.94178373 0.014304941 -2.2069652e-13)
(1.2121212 8.4540391e-05 -8.4423048e-16)
(1.2123538 -3.4766735e-05 -1.8614884e-15)
(1.2126245 -5.171989e-05 -2.651496e-15)
(1.2128901 -6.7134166e-05 -3.2525908e-15)
(1.2132364 -8.5622389e-05 -3.4249441e-15)
(1.2136302 -9.421047e-05 -3.3364648e-15)
(1.2140324 -9.5203563e-05 -3.1804674e-15)
(1.214427 -9.2320002e-05 -3.0647693e-15)
(1.2148041 -8.6933213e-05 -3.0022444e-15)
(1.215156 -7.9984707e-05 -3.1966582e-15)
(1.215479 -7.2393249e-05 -3.2716736e-15)
(1.215772 -6.4771024e-05 -3.2755978e-15)
(1.2160357 -5.7426208e-05 -3.6959864e-15)
(1.2162714 -5.048473e-05 -3.9217643e-15)
(1.2164807 -4.3952336e-05 -4.3595631e-15)
(1.2166649 -3.7735764e-05 -4.8340412e-15)
(1.2168248 -3.1657986e-05 -4.6846795e-15)
(1.2169603 -2.5463791e-05 -4.9360953e-15)
(1.21707 -1.8807765e-05 -4.923854e-15)
(1.217151 -1.122527e-05 -5.5692073e-15)
(1.2171979 -2.0844515e-06 -5.6769146e-15)
(1.2172022 9.4860953e-06 -6.3857052e-15)
(1.2171511 2.4710586e-05 -7.1470598e-15)
(1.2170251 4.532608e-05 -7.649786e-15)
(1.2167959 7.3852162e-05 -8.4113799e-15)
(1.2164215 0.00011393898 -9.3821729e-15)
(1.2158404 0.00017110283 -1.0784134e-14)
(1.2149604 0.00025343245 -1.3185593e-14)
(1.2136459 0.00037411045 -1.6130855e-14)
(1.2116829 0.00055215521 -2.0225083e-14)
(1.208761 0.00082411087 -2.5822861e-14)
(1.2043238 0.0012369499 -3.5010914e-14)
(1.1976299 0.0019210133 -4.8675768e-14)
(1.1868719 0.0029872429 -7.0462513e-14)
(1.1703494 0.0051410408 -9.7062414e-14)
(1.1389145 0.00837421 -1.2501454e-13)
(1.0921803 0.020694964 -1.647903e-13)
(0.954888 0.017705561 -2.0395817e-13)
(1.2115302 8.60235e-05 -6.261777e-16)
(1.2117757 -4.4325643e-05 -1.2284252e-15)
(1.2120724 -6.5433517e-05 -1.8368518e-15)
(1.2123579 -8.1796877e-05 -2.3068989e-15)
(1.2127221 -0.00010217204 -2.5395405e-15)
(1.213132 -0.00011160031 -2.4836662e-15)
(1.2135484 -0.00011238474 -2.3887185e-15)
(1.2139554 -0.00010875834 -2.4996792e-15)
(1.2143439 -0.00010229996 -2.2613771e-15)
(1.2147064 -9.4074934e-05 -2.2641816e-15)
(1.2150391 -8.5130706e-05 -2.4699481e-15)
(1.2153413 -7.6170474e-05 -2.4655326e-15)
(1.2156137 -6.7548271e-05 -2.8146875e-15)
(1.2158577 -5.9407818e-05 -3.0405387e-15)
(1.2160751 -5.1754567e-05 -3.4451138e-15)
(1.216267 -4.4480123e-05 -3.7188273e-15)
(1.2164345 -3.7379753e-05 -3.7702847e-15)
(1.2165774 -3.0158972e-05 -3.9397409e-15)
(1.2166946 -2.2419922e-05 -4.0500041e-15)
(1.216783 -1.3628434e-05 -4.4853021e-15)
(1.2168376 -3.059155e-06 -4.6734591e-15)
(1.2168501 1.028683e-05 -5.41335e-15)
(1.2168078 2.781114e-05 -6.0952942e-15)
(1.2166919 5.1500073e-05 -6.6786907e-15)
(1.2164746 8.4231588e-05 -7.3856629e-15)
(1.2161149 0.00013016855 -8.2140988e-15)
(1.2155529 0.00019559608 -9.6375558e-15)
(1.2146987 0.00028970408 -1.166784e-14)
(1.2134207 0.00042746933 -1.4397078e-14)
(1.2115106 0.00063034564 -1.8336148e-14)
(1.2086692 0.00093972593 -2.3559937e-14)
(1.2043564 0.0014076749 -3.2021536e-14)
(1.1978698 0.0021822135 -4.4391847e-14)
(1.1874556 0.0033708322 -6.4771782e-14)
(1.1716206 0.0058014939 -8.8984267e-14)
(1.1413328 0.009249076 -1.1464047e-13)
(1.0977909 0.022873842 -1.4931844e-13)
(0.96923035 0.021349955 -1.8558485e-13)
(1.210668 8.0061076e-05 -3.9058373e-16)
(1.2109216 -5.5189771e-05 -7.2363172e-16)
(1.2112468 -8.4488957e-05 -1.2095489e-15)
(1.2115541 -0.00010284071 -1.4243364e-15)
(1.2119393 -0.00012535061 -1.5481588e-15)
(1.2123699 -0.00013581316 -1.7369164e-15)
(1.2128051 -0.00013627373 -1.8539335e-15)
(1.2132293 -0.00013156647 -1.7885815e-15)
(1.2136337 -0.00012359332 -1.4599472e-15)
(1.2140111 -0.00011359577 -1.5591845e-15)
(1.2143579 -0.00010278539 -1.6206587e-15)
(1.2146734 -9.1984381e-05 -1.551439e-15)
(1.2149586 -8.1608211e-05 -1.9690449e-15)
(1.2152149 -7.1824299e-05 -2.085524e-15)
(1.2154441 -6.2637484e-05 -2.5723305e-15)
(1.2156476 -5.3919197e-05 -2.520776e-15)
(1.2158263 -4.5428104e-05 -2.5978558e-15)
(1.2159803 -3.6818091e-05 -2.7688069e-15)
(1.2161084 -2.7622648e-05 -2.8765042e-15)
(1.216208 -1.7216892e-05 -3.2831591e-15)
(1.2162739 -4.7541008e-06 -3.6088096e-15)
(1.2162983 1.092963e-05 -4.2512624e-15)
(1.2162689 3.1464561e-05 -4.8273028e-15)
(1.2161674 5.9157389e-05 -5.4699893e-15)
(1.2159669 9.7344569e-05 -6.1576586e-15)
(1.2156278 0.00015084403 -6.8713499e-15)
(1.2150922 0.00022691509 -8.2013331e-15)
(1.2142731 0.00033614542 -9.7904685e-15)
(1.2130441 0.00049575045 -1.2288887e-14)
(1.2112046 0.00073025518 -1.6005999e-14)
(1.2084697 0.0010869522 -2.065003e-14)
(1.2043204 0.001624209 -2.8161929e-14)
(1.1981053 0.002510965 -3.897724e-14)
(1.1881358 0.003849056 -5.6957264e-14)
(1.1731753 0.0066107308 -7.8724221e-14)
(1.1444221 0.010308438 -1.0179772e-13)
(1.1045928 0.025209856 -1.3128202e-13)
(0.98735471 0.026381211 -1.6592134e-13)
(1.2094733 6.6622467e-05 -1.2868345e-16)
(1.2097259 -6.719766e-05 -2.7914799e-16)
(1.2100771 -0.0001080494 -4.3283928e-16)
(1.2104047 -0.00013030065 -6.0738725e-16)
(1.2108109 -0.00015530089 -8.3886147e-16)
(1.211264 -0.00016700215 -1.059498e-15)
(1.211721 -0.00016706699 -1.0733327e-15)
(1.212166 -0.00016096032 -8.1926854e-16)
(1.2125903 -0.00015103712 -6.6049392e-16)
(1.2129868 -0.00013878142 -8.7457911e-16)
(1.213352 -0.00012560403 -6.2731226e-16)
(1.2136853 -0.00011247211 -6.3455738e-16)
(1.2139877 -9.987784e-05 -1.0609561e-15)
(1.2142606 -8.8018619e-05 -1.186721e-15)
(1.214506 -7.6898984e-05 -1.4528736e-15)
(1.2147253 -6.6366221e-05 -1.3912769e-15)
(1.2149196 -5.61351e-05 -1.4039938e-15)
(1.2150889 -4.5797626e-05 -1.4776991e-15)
(1.2152324 -3.4805438e-05 -1.5439593e-15)
(1.2153473 -2.2425629e-05 -2.041078e-15)
(1.215429 -7.6679255e-06 -2.6232896e-15)
(1.2154698 1.0826173e-05 -3.0311182e-15)
(1.2154579 3.4955446e-05 -3.506491e-15)
(1.2153759 6.7401619e-05 -4.1656507e-15)
(1.2151978 0.00011203498 -4.9286909e-15)
(1.2148855 0.00017443469 -5.703417e-15)
(1.2143836 0.00026298151 -6.696096e-15)
(1.2136089 0.00038987328 -7.9817145e-15)
(1.2124409 0.00057485485 -1.0267516e-14)
(1.2106882 0.00084594787 -1.3200557e-14)
(1.208083 0.0012569233 -1.7282739e-14)
(1.2041306 0.0018730519 -2.3699538e-14)
(1.19824 0.0028856921 -3.2831146e-14)
(1.1887962 0.0043869174 -4.7971433e-14)
(1.1748324 0.0075067986 -6.7790604e-14)
(1.1479476 0.011504945 -8.8277964e-14)
(1.1119697 0.027449806 -1.1303658e-13)
(1.0076533 0.032089797 -1.436138e-13)
(1.2080223 5.5736572e-05 -1.7850808e-16)
(1.2082753 -7.9245604e-05 -3.064385e-16)
(1.2086508 -0.00013313598 -2.5909229e-16)
(1.2089969 -0.00016025586 -3.4026336e-16)
(1.209422 -0.00018813882 -3.347059e-16)
(1.2098963 -0.0002013527 -5.3026394e-16)
(1.2103747 -0.00020107215 -3.3376561e-16)
(1.2108408 -0.00019346971 -1.3661292e-16)
(1.2112859 -0.00018143666 -5.9801308e-17)
(1.2117029 -0.00016672785 -2.2645103e-16)
(1.2120881 -0.00015097249 -2.1503628e-16)
(1.212441 -0.00013529857 -1.2790534e-16)
(1.2127626 -0.00012028356 -1.8100512e-16)
(1.2130544 -0.00010615855 -3.6777342e-16)
(1.2133183 -9.2929275e-05 -5.191534e-16)
(1.2135558 -8.0418838e-05 -4.6778697e-16)
(1.2137681 -6.8296896e-05 -4.8417785e-16)
(1.2139553 -5.6091615e-05 -5.6919702e-16)
(1.2141165 -4.3170278e-05 -7.2358316e-16)
(1.2142495 -2.868947e-05 -1.0545824e-15)
(1.2143495 -1.1511989e-05 -1.5398022e-15)
(1.2144094 9.9183599e-06 -1.9937901e-15)
(1.2144179 3.7771858e-05 -2.4163973e-15)
(1.2143582 7.5108011e-05 -2.9845303e-15)
(1.2142054 0.00012633216 -3.490404e-15)
(1.2139232 0.00019778139 -4.3032351e-15)
(1.2134587 0.00029894839 -5.2119677e-15)
(1.2127324 0.00044360799 -6.1960403e-15)
(1.2116301 0.0006539823 -8.3390192e-15)
(1.2099699 0.00096140425 -1.0810123e-14)
(1.2075013 0.0014259603 -1.4250583e-14)
(1.2037546 0.0021186977 -1.9671774e-14)
(1.1981988 0.0032533928 -2.7470529e-14)
(1.1892942 0.0049078041 -4.0214636e-14)
(1.1763068 0.0083565711 -5.765871e-14)
(1.1513727 0.012619343 -7.5326597e-14)
(1.1188693 0.029247488 -9.6762502e-14)
(1.0271409 0.036774915 -1.2385535e-13)
(1.2062609 4.5786086e-05 -1.4888996e-16)
(1.2065193 -9.2381284e-05 -2.2396802e-16)
(1.2069216 -0.00015976458 -1.7252654e-16)
(1.2072877 -0.00019272775 -7.2534622e-17)
(1.2077317 -0.00022393071 -4.3673471e-17)
(1.2082272 -0.00023896353 -4.5391462e-17)
(1.2087273 -0.00023845817 2.0268259e-16)
(1.209215 -0.00022932197 4.4444138e-16)
(1.2096816 -0.00021505889 5.432155e-16)
(1.2101201 -0.00019772824 4.9324474e-16)
(1.2105267 -0.00017919952 4.0799349e-16)
(1.2109008 -0.00016078031 5.7783693e-16)
(1.2112434 -0.00014314451 3.8514741e-16)
(1.211556 -0.00012656254 3.8426038e-16)
(1.2118405 -0.0001110442 3.9775773e-16)
(1.2120985 -9.6389308e-05 2.8116131e-16)
(1.2123311 -8.2222e-05 2.9467655e-16)
(1.2125386 -6.800531e-05 2.0967892e-16)
(1.2127202 -5.3020301e-05 7.8881613e-17)
(1.2128736 -3.6310958e-05 -3.1049011e-16)
(1.2129947 -1.6590999e-05 -5.5140857e-16)
(1.2130765 7.8956317e-06 -9.3083243e-16)
(1.2131081 3.9592649e-05 -1.2064648e-15)
(1.2130736 8.1937556e-05 -1.6097298e-15)
(1.2129494 0.00013986911 -2.0308002e-15)
(1.2127007 0.00022047461 -2.7616684e-15)