0 	0.00111954519 	-7.603380906e-17 	-2.763627714e-23 	5.163829178e-30 	1.876915231e-36 	6.822090086e-43
0.0008051903061 	0.001145614508 	4.638403098e-05 	8.470329473e-22 	0.0004259319876 	0 	8.119447501e-07
0.001534055664 	0.001166845593 	8.866706096e-05 	1.291475608e-08 	0.0008091112857 	-1.038296147e-07 	1.542390991e-06
0.003067749449 	0.001215045065 	5.140728173e-05 	1.214274352e-08 	0.0008455312051 	1.094370469e-07 	1.61181748e-06
0.004601079599 	0.001204449111 	3.47546391e-05 	1.568683957e-08 	0.0009785343075 	6.325018465e-07 	1.86535836e-06
0.006134045099 	0.001178666838 	2.259437162e-05 	2.186009516e-07 	0.00109928809 	5.399385177e-07 	2.095548631e-06
0.007666645676 	0.001204195525 	9.670942482e-06 	4.416081433e-07 	0.00116668506 	5.363604338e-07 	2.224025988e-06
0.01002532075 	0.001295824713 	-1.263353825e-05 	7.915356645e-07 	0.001181750133 	7.207714328e-07 	2.252744205e-06
0.01268919262 	0.00135850469 	-8.315102447e-06 	1.085794267e-06 	0.001189040989 	8.111482557e-07 	2.266642602e-06
0.01569761728 	0.001368378658 	2.091223342e-05 	1.140300031e-06 	0.001193328103 	6.821670925e-07 	2.274815032e-06
0.01909500701 	0.001385441713 	2.76812286e-05 	1.143805888e-06 	0.001175469824 	4.967107927e-07 	2.24077219e-06
0.02301142749 	0.001423007899 	7.999464789e-06 	1.23336605e-06 	0.001139152846 	4.305056265e-07 	2.171541935e-06
0.02746657469 	0.001463092635 	-1.702994958e-05 	1.341708959e-06 	0.001100279901 	5.150290377e-07 	2.097439298e-06
0.0324971493 	0.001494709012 	-3.670413953e-05 	1.389218692e-06 	0.00106657221 	7.164949724e-07 	2.033183072e-06
0.03817710606 	0.001514413633 	-4.944240369e-05 	1.33676712e-06 	0.001039251575 	1.0043915e-06 	1.981102348e-06
0.04471069313 	0.001522251931 	-5.635823047e-05 	1.18186823e-06 	0.001016810051 	1.344381601e-06 	1.938322564e-06
0.05214810683 	0.001519244778 	-6.50342913e-05 	8.416306991e-07 	0.0009964567328 	1.753750102e-06 	1.899523484e-06
0.06346159471 	0.001504600433 	-8.622265472e-05 	3.650416593e-07 	0.0009870500181 	1.602624274e-06 	1.881591671e-06
0.07578963781 	0.00148422382 	-0.0001112789031 	-5.957790575e-08 	0.0009906277197 	1.147369063e-06 	1.888411764e-06
0.0892011732 	0.001465951584 	-0.0001329984821 	-2.024526594e-07 	0.001002716614 	6.82407675e-07 	1.911456556e-06
0.103752999 	0.001453877113 	-0.0001515491338 	-1.731318541e-07 	0.001018963069 	3.042160061e-07 	1.942426816e-06
0.1195970603 	0.001449254058 	-0.0001674184182 	-2.565407006e-09 	0.001039091669 	2.898044406e-09 	1.980797521e-06
0.1197796311 	0.00144930678 	-0.0001675563237 	7.706771923e-09 	0.001039355827 	-6.062513503e-08 	1.981301081e-06
0.1500380027 	0.001448060633 	-0.0001856619344 	2.660482599e-07 	0.001117826878 	-1.811091728e-06 	2.130888714e-06
0.1812754735 	0.001462817394 	-0.0002009937552 	3.390886056e-07 	0.00120030489 	-2.62267797e-06 	2.288114727e-06
0.2131666306 	0.001492414475 	-0.0002156099104 	1.181485613e-07 	0.001286667001 	-1.81829372e-06 	2.452744914e-06
0.2457090023 	0.001535785225 	-0.0002307939003 	-8.542669152e-08 	0.001377015144 	-8.151810713e-07 	2.624973586e-06
0.2789834665 	0.001592428301 	-0.00024728274 	-1.562943724e-07 	0.001471624453 	-2.416490502e-07 	2.805325224e-06
0.3129421705 	0.00166146108 	-0.0002665030592 	-5.510247846e-08 	0.001571601667 	-1.347137315e-08 	2.995909582e-06
0.3212215765 	0.001680582786 	-0.0002718954452 	1.289674408e-07 	0.001597441436 	-6.733766579e-07 	3.045167362e-06
0.3448303796 	0.001739534201 	-0.0002815338787 	3.848628884e-08 	0.001668443571 	1.312942901e-07 	3.180517167e-06
0.3775081394 	0.001825195921 	-0.0002994777786 	-2.38304411e-08 	0.001779908232 	3.78511764e-07 	3.39299979e-06
0.4119258234 	0.001911387643 	-0.0003236461421 	-1.935184378e-07 	0.001922165951 	5.83860394e-07 	3.664182541e-06
0.4482173827 	0.001930679595 	-0.0003312657258 	-4.343042599e-07 	0.002101531859 	5.648704642e-07 	4.006103813e-06
0.4865213089 	0.001868455531 	-0.0002854745185 	-8.408485697e-07 	0.002282897483 	4.984181459e-07 	4.351837101e-06
0.5269969672 	0.001785087392 	-0.0001952546806 	-1.186162822e-06 	0.002429534854 	4.476246164e-07 	4.631368686e-06
0.5670121128 	0.001714059454 	-9.440689556e-05 	-1.289735254e-06 	0.002532742496 	2.359335806e-07 	4.828111137e-06
0.6040553666 	0.001659949619 	-2.781027149e-06 	-1.291232087e-06 	0.002597464161 	-6.262093304e-09 	4.951488619e-06
0.6384397435 	0.001616555726 	7.571354534e-05 	-1.23622851e-06 	0.002633602097 	-2.297854044e-07 	5.020377569e-06
0.6704218108 	0.001578066264 	0.0001422846126 	-1.153030201e-06 	0.002649155326 	-3.882795124e-07 	5.050026346e-06
0.7002155463 	0.001540149803 	0.0001991264086 	-1.054382721e-06 	0.002650850263 	-4.634802542e-07 	5.053257366e-06
0.7280032873 	0.001499764688 	0.0002483278391 	-9.598714613e-07 	0.00264410593 	-4.772064339e-07 	5.040400795e-06
0.753940403 	0.0014552175 	0.0002914257186 	-8.767983202e-07 	0.002632925043 	-4.49370478e-07 	5.019086916e-06
0.7781639298 	0.0014057174 	0.0003295682554 	-8.048067237e-07 	0.002620498903 	-3.88531619e-07 	4.99539924e-06
0.8007952756 	0.001351214784 	0.0003635841859 	-7.422882915e-07 	0.002609615569 	-2.994199157e-07 	4.97465258e-06
0.8219441519 	0.001292435566 	0.000394196093 	-6.851633701e-07 	0.002602786671 	-1.873262418e-07 	4.961634802e-06
0.8417102533 	0.001230719532 	0.0004220273017 	-6.352601257e-07 	0.002602728457 	-5.085478459e-08 	4.96152383e-06
0.860185102 	0.001167962586 	0.0004475411155 	-5.793946237e-07 	0.002612725462 	1.043626443e-07 	4.9805809e-06
0.8774533244 	0.001106808282 	0.0004727522397 	-4.897908354e-07 	0.002636112158 	2.793862288e-07 	5.025162443e-06
0.8935934547 	0.001056742266 	0.0005006195361 	-3.958502486e-07 	0.002669436266 	2.264338981e-07 	5.088687455e-06
0.9086786255 	0.001040461933 	0.0005308690937 	-3.080657458e-07 	0.002696338117 	3.780807964e-10 	5.139969859e-06
0.9227771 	0.001064045178 	0.0005647583109 	-1.762142309e-07 	0.002726205361 	1.12832996e-07 	5.196905127e-06
0.9359526755 	0.001110301914 	0.0006040122321 	-4.410377185e-08 	0.00279054848 	4.406694102e-07 	5.319560996e-06
0.9446779244 	0.001165238751 	0.0006443773473 	2.396367292e-08 	0.002887305239 	6.503506761e-07 	5.50400627e-06
0.9524050471 	0.001223908031 	0.0006838297885 	4.130193062e-08 	0.003002696161 	6.869252727e-07 	5.723973438e-06
0.959247759 	0.001280832565 	0.0007205129556 	1.088140489e-08 	0.003120371383 	5.141799971e-07 	5.948295118e-06
0.965306929 	0.001323157557 	0.0007478301049 	-6.600218863e-08 	0.003207727878 	1.407045699e-07 	6.114820877e-06
0.9706719908 	0.00133643906 	0.0007580436099 	-1.730222911e-07 	0.003228321004 	-3.700509039e-07 	6.154077099e-06
0.975422235 	0.001305761051 	0.0007432024899 	-2.859998872e-07 	0.00314516807 	-9.287058387e-07 	5.995564495e-06
0.9796279439 	0.001218133668 	0.0006977672434 	-3.763743429e-07 	0.002926238446 	-1.422744466e-06 	5.578223783e-06
0.9833514026 	0.001063365536 	0.0006158714074 	-5.050056399e-07 	0.002547140357 	-1.819420049e-06 	4.855557462e-06
0.9866478015 	0.0008297330065 	0.0004817642802 	-5.42537418e-07 	0.001980802548 	-1.964388647e-06 	3.775960192e-06
0.9895660386 	0.000548453861 	0.0003160515878 	-4.187888529e-07 	0.001305510825 	-1.67312679e-06 	2.48866648e-06
0.9914619743 	0.0003109108032 	0.0001645952903 	-2.764491634e-07 	0.0006810428044 	-1.114337287e-06 	1.298256871e-06
0.9933581606 	0.0001394020097 	5.463216237e-05 	-1.171448488e-07 	0.0002363571348 	-4.736004936e-07 	4.505623909e-07
0.9952545974 	3.360238142e-05 	6.839418526e-06 	-1.604323365e-08 	3.988238109e-05 	-7.278459206e-08 	7.602690309e-08
0.9971512845 	2.392882826e-06 	1.389732003e-07 	-2.440147701e-10 	2.424196833e-06 	-2.974313633e-09 	4.621192934e-09
0.9990482216 	1.753414228e-08 	9.117600647e-11 	-1.508916201e-14 	1.750277234e-08 	-3.45154972e-12 	3.336514872e-11
0.9990482216 	1.753414228e-08 	9.117600647e-11 	-1.508916201e-14 	1.750277234e-08 	-3.45154972e-12 	3.336514872e-11
