0.3809068052 	1.219819347e-07 	-1.099252026e-09 	3.556353393e-13 	1.211704704e-07 	-2.558471271e-12 	2.309845942e-10
0.3809068052 	1.219819347e-07 	-1.099252026e-09 	3.556353393e-13 	1.211704704e-07 	-2.558471271e-12 	2.309845942e-10
0.3819639198 	1.033962972e-05 	-7.911956831e-07 	5.676018861e-10 	9.908436512e-06 	-2.677992134e-09 	1.88882339e-08
0.3830211992 	0.000123570903 	-2.703539619e-05 	2.144253438e-08 	0.0001093580143 	-3.292627711e-08 	2.084667698e-07
0.3840785339 	0.0005546682476 	-0.0001953983879 	1.256352795e-07 	0.0004523990355 	-8.562048616e-08 	8.623982995e-07
0.385135815 	0.001334849075 	-0.0005319083065 	1.812608158e-07 	0.001055613917 	-7.693687914e-08 	2.012293519e-06
0.3861929345 	0.002349414301 	-0.0009770070421 	2.44233048e-07 	0.001834100899 	1.428504414e-07 	3.496306075e-06
0.3878197712 	0.003339440152 	-0.001474534361 	1.833334145e-07 	0.002558908684 	1.018696353e-06 	4.877991163e-06
0.3896565669 	0.003735391535 	-0.001723633735 	-6.159503922e-07 	0.002829002276 	2.63578147e-06 	5.392864619e-06
0.3917295634 	0.003345940494 	-0.001516668152 	-1.802024157e-06 	0.002568884224 	4.037196497e-06 	4.897007316e-06
0.394067843 	0.002627228086 	-0.001124371329 	-2.223349684e-06 	0.002077067479 	4.032295437e-06 	3.959467906e-06
0.396755554 	0.002051079441 	-0.0008449903255 	-1.443985518e-06 	0.001670135885 	2.388971747e-06 	3.183743188e-06
0.3998076713 	0.001726867455 	-0.0006550928209 	-9.002724296e-07 	0.001510700487 	-2.231750673e-09 	2.879815005e-06
0.4032493224 	0.001562453837 	-0.0004738462501 	-9.384813464e-07 	0.001569258529 	-2.048337056e-06 	2.99144291e-06
0.4071295106 	0.001476099555 	-0.0003044334729 	-9.918776197e-07 	0.001733579422 	-3.353175576e-06 	3.304684201e-06
0.4115792059 	0.001412817279 	-0.0001344461942 	-1.422866015e-06 	0.001942570368 	-4.340608035e-06 	3.703079032e-06
0.4166308648 	0.00134814973 	5.565844689e-05 	-1.485459068e-06 	0.002157474203 	-3.856972125e-06 	4.11274547e-06
0.4242899957 	0.001310513105 	0.0002193278496 	-5.817376583e-07 	0.002277441463 	-2.151156349e-06 	4.341436411e-06
0.4325944199 	0.001309083886 	0.0003012657207 	2.375406838e-07 	0.002302373373 	-1.466333951e-06 	4.388963561e-06
0.4415815424 	0.001315890884 	0.0003255779985 	4.356958781e-07 	0.002317948818 	-1.267217208e-06 	4.418654687e-06
0.4512802035 	0.00132113488 	0.0003365122157 	3.875263524e-07 	0.002335616127 	-1.027926613e-06 	4.452333488e-06
0.4617756613 	0.001326102811 	0.0003499149371 	3.139753544e-07 	0.002352832216 	-8.295205321e-07 	4.48515214e-06
0.4731719825 	0.001332206587 	0.000366375404 	2.589804211e-07 	0.002371679034 	-6.658222379e-07 	4.521079413e-06
0.485500853 	0.001340028634 	0.000384563382 	2.065795091e-07 	0.002393389154 	-5.155743642e-07 	4.562464937e-06
0.4988448325 	0.0013495451 	0.0004043530789 	1.512803334e-07 	0.002417677331 	-3.709818464e-07 	4.608764951e-06
0.5132858996 	0.001360461533 	0.0004258823286 	9.500004299e-08 	0.002443757244 	-2.313893962e-07 	4.658480514e-06
0.5289386969 	0.00137240919 	0.0004490417223 	3.972619204e-08 	0.002470747562 	-9.703359782e-08 	4.709931562e-06
0.5418282751 	0.001381946916 	0.0004676796703 	8.977001093e-08 	0.0024912224 	-4.971783997e-07 	4.748962294e-06
0.5458547894 	0.001384951922 	0.0004734963692 	1.178225765e-08 	0.002497581844 	-2.976872343e-08 	4.761085162e-06
0.5640944687 	0.001397522835 	0.0004986437023 	5.590420794e-08 	0.002523219836 	-1.453503165e-07 	4.8099583e-06
0.5838275065 	0.00140944737 	0.0005240280544 	9.211761064e-08 	0.002546593832 	-2.48419344e-07 	4.854515632e-06
0.605107761 	0.001420157708 	0.000549470669 	1.189865197e-07 	0.002565908312 	-3.359269759e-07 	4.891334401e-06
0.6280406075 	0.00142908953 	0.0005748049649 	1.354523082e-07 	0.002578978493 	-4.051518548e-07 	4.916249798e-06
0.6527238598 	0.001435580388 	0.0005997394186 	1.408956974e-07 	0.00258307169 	-4.53240207e-07 	4.924052568e-06
0.6792545965 	0.001438940019 	0.0006236631671 	1.360353517e-07 	0.002574784074 	-4.775617102e-07 	4.908254068e-06
0.7058458787 	0.001438943318 	0.0006452195571 	1.231785782e-07 	0.002552509076 	-4.777355353e-07 	4.865791733e-06
0.7307074168 	0.001436481376 	0.0006635705748 	1.062945292e-07 	0.002518011261 	-4.593660866e-07 	4.800029308e-06
0.7539388743 	0.001433075933 	0.0006792361284 	8.843496681e-08 	0.002473773872 	-4.283223026e-07 	4.715700549e-06
0.7756407309 	0.001430089426 	0.0006929717052 	7.121910341e-08 	0.002421957372 	-3.892029212e-07 	4.616923899e-06
0.7959110465 	0.001428579504 	0.0007051998177 	5.561980765e-08 	0.0023649862 	-3.455416797e-07 	4.508321012e-06
0.8148439719 	0.001429365786 	0.0007161951046 	4.223162775e-08 	0.002305359096 	-3.001599711e-07 	4.394655179e-06
0.8325271295 	0.00143310311 	0.0007262108106 	3.139970472e-08 	0.002245499492 	-2.553515025e-07 	4.280546136e-06
0.8490433661 	0.001440399245 	0.0007355678241 	2.322892782e-08 	0.002187691429 	-2.128322392e-07 	4.170347901e-06
0.8644696653 	0.001451999483 	0.0007447376539 	1.7621214e-08 	0.002134043534 	-1.737712566e-07 	4.068080103e-06
0.878878094 	0.001469055046 	0.0007544366924 	1.425071563e-08 	0.002086430462 	-1.387375637e-07 	3.977316355e-06
0.8923357983 	0.001493375516 	0.0007656681045 	1.257074974e-08 	0.002046550271 	-1.078188095e-07 	3.901293625e-06
0.9049053983 	0.001527522364 	0.0007796778308 	1.186546021e-08 	0.002016179226 	-8.088762705e-08 	3.843397972e-06
0.9166453775 	0.001574562602 	0.000797828395 	1.131775976e-08 	0.001997603443 	-5.796329401e-08 	3.807987368e-06
0.9276103354 	0.001637245846 	0.0008213724725 	1.007255517e-08 	0.001994045819 	-3.980655726e-08 	3.801205548e-06
0.9378512652 	0.001716546607 	0.0008510613731 	7.227307251e-09 	0.00200892777 	-2.843960938e-08 	3.829574683e-06
0.9474158034 	0.0018092324 	0.0008861209025 	1.974582815e-09 	0.002042571362 	-2.633266892e-08 	3.893708719e-06
0.9563484579 	0.001897503194 	0.0009197465747 	-4.866124382e-09 	0.002083370073 	-3.237793422e-08 	3.971482401e-06
0.9622608402 	0.001963410035 	0.0009444071496 	-1.08115212e-08 	0.002114779544 	-4.087816982e-08 	4.031357584e-06
0.9674948231 	0.002006728661 	0.0009592585017 	-1.412182466e-08 	0.002129830761 	-4.558491704e-08 	4.060049386e-06
0.9721281468 	0.002027509638 	0.0009637550093 	-1.44375509e-08 	0.002124363718 	-4.444227481e-08 	4.049627684e-06
0.9762296655 	0.002019364868 	0.0009551481548 	-1.156556098e-08 	0.002091953149 	-3.668611617e-08 	3.98784413e-06
0.9798603561 	0.001972931152 	0.0009305775801 	-4.842453101e-09 	0.002023903703 	-2.411576831e-08 	3.858122972e-06
0.9830742178 	0.001874194258 	0.0008896425248 	6.48715346e-09 	0.001906653857 	-1.019176691e-08 	3.634612178e-06
0.9859190669 	0.001692943725 	0.0008047821191 	6.484000143e-09 	0.001710553837 	-5.842003857e-09 	3.260791037e-06
0.988437243 	0.001401842237 	0.0006587894276 	-3.250580901e-09 	0.001409749257 	-1.204856025e-08 	2.687373903e-06
0.990666234 	0.001013373597 	0.0004726558331 	-7.308971196e-09 	0.001016095385 	-1.688942734e-08 	1.936960213e-06
0.992639231 	0.0006163561533 	0.0002867783845 	-6.844036569e-09 	0.0006168584328 	-1.505097652e-08 	1.17590362e-06
0.9939209151 	0.0003094248104 	0.0001335580977 	-4.279959307e-09 	0.0003095935197 	-9.213625395e-09 	5.901712956e-07
0.9952026562 	0.000114759631 	3.691068174e-05 	-1.635403419e-09 	0.0001148050111 	-3.653104889e-09 	2.188502596e-07
0.9964844543 	2.39109274e-05 	4.256268749e-06 	-1.95215818e-10 	2.388326985e-05 	-6.490527404e-10 	4.552815034e-08
0.9977663094 	1.880324606e-06 	1.063225206e-07 	-3.308103196e-12 	1.876833474e-06 	-2.222931875e-11 	3.57776624e-09
0.9990482216 	2.024508502e-08 	1.246118928e-10 	1.503798949e-15 	2.020640235e-08 	4.390170093e-13 	3.851901897e-11
