0.4641652576 	5.222939689e-08 	-2.453746591e-10 	1.985678954e-13 	5.216333939e-08 	-1.912346946e-11 	9.943782293e-11
0.4651990941 	4.215944541e-06 	-1.763202274e-07 	1.165820725e-10 	4.260349076e-06 	-1.310463125e-09 	8.121409441e-09
0.4662329504 	4.684400736e-05 	-6.453126827e-06 	3.752486862e-09 	5.16430728e-05 	-1.417390461e-08 	9.84460502e-08
0.467266816 	0.0001939809376 	-5.350641576e-05 	2.871259188e-08 	0.0002710142048 	-6.357951369e-08 	5.166283989e-07
0.4683006803 	0.000438867398 	-0.0001889457716 	9.817609783e-08 	0.0008460849065 	-1.470124432e-07 	1.612872989e-06
0.4693345329 	0.0007873727866 	-0.0004205936164 	2.015230774e-07 	0.001857686193 	-1.805075833e-07 	3.541266202e-06
0.4709260673 	0.001286374593 	-0.0007185032242 	2.996810205e-07 	0.003179411079 	-1.02871235e-07 	6.060841188e-06
0.4727241214 	0.001824682539 	-0.001027905624 	3.483981827e-07 	0.004513515194 	7.593667348e-08 	8.604014427e-06
0.4747554116 	0.00226915115 	-0.001282440828 	3.729749125e-07 	0.005616627391 	2.767167251e-07 	1.070685287e-05
0.4770589516 	0.00259994563 	-0.001462651338 	4.051613826e-07 	0.006437279479 	4.301767636e-07 	1.227124384e-05
0.4796634245 	0.0028255957 	-0.001586775249 	4.218303049e-07 	0.006999540659 	5.34989676e-07 	1.334306992e-05
0.4826056984 	0.002956935054 	-0.001663048028 	4.20597248e-07 	0.00733036246 	5.93762652e-07 	1.397370822e-05
0.4859295513 	0.003009062956 	-0.001697060639 	4.023571141e-07 	0.007466345656 	6.396219543e-07 	1.423292998e-05
0.4896996368 	0.002995937176 	-0.001695522121 	3.648093913e-07 	0.007441012919 	7.060629769e-07 	1.418463875e-05
0.4939594095 	0.002924521882 	-0.001662141359 	3.072748229e-07 	0.007270435701 	7.981500282e-07 	1.385947116e-05
0.4987781099 	0.00278261153 	-0.00159040807 	2.263533874e-07 	0.006923825708 	9.078820122e-07 	1.319873618e-05
0.5060766604 	0.002538675998 	-0.001461748948 	1.151264931e-07 	0.006323868405 	1.04839292e-06 	1.205505081e-05
0.5139128031 	0.002201509368 	-0.001278605344 	-3.710338709e-08 	0.005493989311 	1.266463189e-06 	1.04730706e-05
0.5223216845 	0.001814530229 	-0.001065969385 	-2.179144499e-07 	0.004542159258 	1.563425875e-06 	8.658617974e-06
0.5313471393 	0.001427076612 	-0.0008556675658 	-3.629599581e-07 	0.003587963092 	1.714643587e-06 	6.839654875e-06
0.5410351781 	0.001143624062 	-0.0006612666095 	-4.042277979e-07 	0.002708392775 	1.46422275e-06 	5.162949388e-06
0.5514342349 	0.00103341333 	-0.0004690432308 	-3.216426771e-07 	0.001933203465 	6.983983645e-07 	3.685223111e-06
0.5625954391 	0.001024904014 	-0.0002930266071 	-1.421240028e-07 	0.001377717626 	-1.991471448e-07 	2.626312712e-06
0.5745729139 	0.001048909437 	-0.0001384537395 	1.310051738e-07 	0.001083077023 	-6.430449581e-07 	2.064645832e-06
0.5874240993 	0.001089464174 	4.585581824e-06 	2.356947991e-07 	0.0009639102994 	-7.866395498e-07 	1.837480936e-06
0.6012101002 	0.001123051414 	0.0001333542235 	1.102953014e-07 	0.0009495166135 	-1.002427534e-06 	1.81004257e-06
0.6159964431 	0.001138745351 	0.0002487775295 	1.461518969e-07 	0.0009978076602 	-1.302019907e-06 	1.902098727e-06
0.6318568963 	0.001139576693 	0.0003448526298 	3.685418973e-07 	0.001086064466 	-1.497482516e-06 	2.070340728e-06
0.6488617476 	0.00112844714 	0.0004206164828 	5.105968463e-07 	0.001200422387 	-1.609351059e-06 	2.288338709e-06
0.6670934663 	0.001124206373 	0.0004533007397 	4.128205036e-07 	0.001323492292 	-1.741990471e-06 	2.522944154e-06
0.6866360874 	0.001160274963 	0.0004100131832 	1.891713096e-07 	0.001420420456 	-1.767861434e-06 	2.707716175e-06
0.7075804079 	0.001222167369 	0.0003456456372 	8.183672496e-08 	0.001511309751 	-1.572371869e-06 	2.880976431e-06
0.7300239977 	0.001261103758 	0.0003872674674 	2.673034715e-07 	0.001622566149 	-1.033894002e-06 	3.093062048e-06
0.7524754674 	0.001207916894 	0.0005403814503 	6.05435483e-07 	0.001756852749 	-7.839920051e-07 	3.349049631e-06
0.7734422652 	0.001181986715 	0.0005942129603 	4.51902801e-07 	0.001827126266 	-1.016951286e-06 	3.483010486e-06
0.7930211359 	0.001256230085 	0.0005210398771 	-1.725712617e-09 	0.001827208151 	-1.001797244e-06 	3.483166583e-06
0.8113031807 	0.001311555706 	0.0004949395829 	-8.169856631e-08 	0.001878964286 	-8.247318374e-07 	3.58182816e-06
0.8283739048 	0.001319043034 	0.0005450390679 	1.157370007e-07 	0.002002855439 	-6.490253152e-07 	3.817999131e-06
0.844313407 	0.00129064511 	0.0006250672109 	3.369622017e-07 	0.002190108767 	-4.082284692e-07 	4.174956019e-06
0.8591964582 	0.001252231605 	0.000705212506 	4.62538812e-07 	0.00244280746 	-1.253880707e-07 	4.656669962e-06
0.8730930293 	0.001272695481 	0.0007670283677 	4.549501889e-07 	0.00272061043 	8.291807738e-08 	5.186239634e-06
0.8860684419 	0.001377515631 	0.0008262824867 	4.158511591e-07 	0.003028020021 	2.701675535e-07 	5.772247756e-06
0.8981837067 	0.001533380297 	0.0009140466267 	4.242905475e-07 	0.00342275993 	4.716991358e-07 	6.524731733e-06
0.9094958036 	0.00173269795 	0.001028685615 	4.33573568e-07 	0.003906561269 	6.027606883e-07 	7.446991551e-06
0.9200579402 	0.001959909901 	0.001159778247 	4.234439242e-07 	0.004450786127 	6.287956206e-07 	8.48443539e-06
0.9299198015 	0.002192651761 	0.001293960943 	3.938068081e-07 	0.005006655714 	5.630540293e-07 	9.544077319e-06
0.9391277838 	0.002410768067 	0.001419077208 	3.544585538e-07 	0.005529280828 	4.574525794e-07 	1.054034604e-05
0.9477252122 	0.002599323237 	0.001526647666 	3.155692649e-07 	0.00598418809 	3.595989978e-07 	1.140752572e-05
0.9557525438 	0.002745291705 	0.001609263584 	2.83156665e-07 	0.0063409753 	2.985989679e-07 	1.20876613e-05
0.9632475577 	0.002829946607 	0.001655955848 	2.598215062e-07 	0.006554780761 	2.805113709e-07 	1.249523394e-05
0.968207324 	0.002854788846 	0.001667959926 	2.440966934e-07 	0.006627256036 	2.897921909e-07 	1.263339195e-05
0.9725972846 	0.002835372091 	0.001654603792 	2.28964116e-07 	0.006594890582 	3.040731237e-07 	1.257169441e-05
0.9764828888 	0.002769418968 	0.001614551086 	2.07928782e-07 	0.006452912316 	2.98930105e-07 	1.230104437e-05
0.9799220711 	0.002646808962 	0.001542053048 	1.762912076e-07 	0.006177565276 	2.530540945e-07 	1.177615638e-05
0.9829661133 	0.002455085809 	0.001430705921 	1.300830933e-07 	0.00573916298 	1.482596644e-07 	1.094043976e-05
0.9856604081 	0.002186036212 	0.001277322595 	7.087401326e-08 	0.005117646153 	-7.948900524e-09 	9.755655944e-06
0.9880451351 	0.001835157266 	0.001072054804 	9.113145234e-09 	0.004302537352 	-1.694072757e-07 	8.201832022e-06
0.9901558588 	0.001408578317 	0.0008196733965 	-3.898075446e-08 	0.003305414306 	-2.829586852e-07 	6.30103836e-06
0.9920240589 	0.0009398144349 	0.0005460318554 	-5.965172101e-08 	0.002206811315 	-3.062919447e-07 	4.206795719e-06
0.9936775992 	0.0005585639398 	0.0002904364073 	-6.201987954e-08 	0.001183766991 	-2.624872027e-07 	2.256588896e-06
0.9947517089 	0.0003053156764 	0.0001112870323 	-4.480466248e-08 	0.0004826321689 	-1.637517989e-07 	9.200310546e-07
0.995825826 	0.0001223274361 	2.698710384e-05 	-1.599859107e-08 	0.0001491115979 	-5.676245128e-08 	2.84248149e-07
0.9968999504 	2.736408814e-05 	2.827117012e-06 	-2.270948879e-09 	2.861002527e-05 	-1.104002919e-08 	5.453865991e-08
0.9979740823 	2.357059172e-06 	6.997252398e-08 	-7.131215905e-11 	2.361228937e-06 	-9.734491764e-10 	4.501158624e-09
0.9990482216 	3.048275128e-08 	9.649539563e-11 	-1.253524919e-13 	3.042587686e-08 	-1.538142168e-11 	5.800017773e-11
