0.4709558481 	7.553772288e-08 	-4.177439529e-10 	5.444702417e-14 	7.540310006e-08 	-6.205078934e-12 	1.437392659e-10
0.4720092239 	6.17571462e-06 	-3.062011752e-07 	3.961813631e-11 	6.229104525e-06 	-5.158549299e-10 	1.187440451e-08
0.4730625996 	6.840885566e-05 	-1.11722199e-05 	1.357165675e-09 	7.653084936e-05 	-6.617633001e-09 	1.458890695e-07
0.4741159754 	0.0002733038141 	-8.847588496e-05 	9.019794261e-09 	0.0004020660651 	-3.513901175e-08 	7.664496686e-07
0.4751693511 	0.0005867309321 	-0.0002934502556 	2.341808773e-08 	0.001212520765 	-9.526593568e-08 	2.31140158e-06
0.4762227269 	0.001046894334 	-0.0006045811905 	3.480876223e-08 	0.002463784707 	-1.436266059e-07 	4.696658425e-06
0.4778443634 	0.001677365599 	-0.0009722467933 	4.223297288e-08 	0.003957553731 	-1.678441119e-07 	7.544197356e-06
0.4796765386 	0.002286076575 	-0.001343871228 	5.069456238e-08 	0.005393332174 	-1.754510003e-07 	1.028119012e-05
0.4817465869 	0.002741530289 	-0.001615315581 	4.540695375e-08 	0.006465932384 	-1.374311702e-07 	1.232586424e-05
0.4840853915 	0.003027918045 	-0.001765648219 	2.12674563e-08 	0.007139307636 	-5.000743321e-08 	1.360950462e-05
0.4867278453 	0.003159209971 	-0.001835853576 	-1.286353443e-08 	0.007443796884 	8.543505191e-08 	1.418994576e-05
0.4897133715 	0.003136941348 	-0.001822608042 	-5.801549253e-08 	0.007384689618 	2.734403428e-07 	1.407727088e-05
0.4930865115 	0.002971209551 	-0.001728935301 	-1.143906795e-07 	0.006987227041 	5.108334251e-07 	1.331959674e-05
0.4968975894 	0.002678174296 	-0.00156306919 	-1.796002684e-07 	0.006289895114 	7.739959673e-07 	1.199028827e-05
0.5012034633 	0.002280184714 	-0.001334231066 	-2.375073284e-07 	0.005350141476 	9.961885124e-07 	1.019885665e-05
0.506068373 	0.001783495502 	-0.001045405381 	-2.571750548e-07 	0.004180910653 	1.058932867e-06 	7.969977729e-06
0.5134203412 	0.001293101626 	-0.0007567875064 	-2.247257188e-07 	0.003015969022 	8.796831284e-07 	5.7492752e-06
0.5212948542 	0.001090962296 	-0.0005140819203 	-1.788250251e-07 	0.002102837469 	5.858802832e-07 	4.008592669e-06
0.529729052 	0.001140646631 	-0.0003185770658 	-1.51366645e-07 	0.001547321565 	2.915794791e-07 	2.949624958e-06
0.5387627144 	0.001222609048 	-0.0001692270896 	-1.348490887e-07 	0.001343581374 	5.484256468e-08 	2.561239528e-06
0.5484384488 	0.001295723935 	-4.091812111e-05 	-1.207988509e-07 	0.001315974842 	-6.920353609e-08 	2.508613804e-06
0.5588018907 	0.001337808213 	7.129689769e-05 	-1.100055832e-07 	0.00137674565 	-1.327367595e-07 	2.624459856e-06
0.5699019192 	0.001353922966 	0.0001701305317 	-1.048802337e-07 	0.001478552693 	-1.711527501e-07 	2.818532375e-06
0.5817908876 	0.00134640827 	0.0002595766308 	-1.007151003e-07 	0.001606977343 	-1.998858481e-07 	3.063345452e-06
0.5945248701 	0.001317857744 	0.0003399081353 	-9.492473184e-08 	0.001754542643 	-2.237548797e-07 	3.344645927e-06
0.6081639266 	0.001271976139 	0.0004099336408 	-8.601150072e-08 	0.001914597263 	-2.412981248e-07 	3.649754517e-06
0.6227723857 	0.001214749458 	0.0004678827042 	-7.353204449e-08 	0.002078136381 	-2.477097504e-07 	3.96150553e-06
0.638419148 	0.001154965963 	0.0005123250417 	-5.848397786e-08 	0.002232644358 	-2.375155581e-07 	4.256040677e-06
0.6551780116 	0.001102917658 	0.0005433831899 	-4.325648728e-08 	0.002363535779 	-2.08715724e-07 	4.505556105e-06
0.6731280194 	0.001066353257 	0.0005631117096 	-3.031148971e-08 	0.002459424262 	-1.662036712e-07 	4.688346205e-06
0.6923538328 	0.001049301658 	0.0005738652949 	-2.080268687e-08 	0.002514398425 	-1.20573279e-07 	4.793142239e-06
0.7129461301 	0.001046894597 	0.0005786207254 	-1.443252879e-08 	0.002534405416 	-8.294773618e-08 	4.831281124e-06
0.7350020349 	0.001047778436 	0.0005805318313 	-1.069530112e-08 	0.002534453281 	-5.852589874e-08 	4.831372368e-06
0.7570579485 	0.001045789279 	0.0005809034833 	-8.174722986e-09 	0.002525842941 	-4.496986136e-08 	4.814958668e-06
0.7776502527 	0.001040031035 	0.0005806096431 	-5.633793587e-09 	0.002515183252 	-3.522230883e-08 	4.794638337e-06
0.7968760713 	0.001031950653 	0.0005804698139 	-5.950653117e-09 	0.002505170708 	-3.750082436e-08 	4.775551645e-06
0.814826083 	0.001025798886 	0.0005800900853 	-6.824938749e-09 	0.00249373096 	-4.202797779e-08 	4.753744307e-06
0.831584949 	0.001022765563 	0.0005797062604 	-5.313440029e-09 	0.00248153281 	-3.664092808e-08 	4.730491241e-06
0.8472317127 	0.001021197009 	0.0005802360594 	-4.137492584e-09 	0.002472166338 	-3.086440361e-08 	4.712636144e-06
0.8618401721 	0.001021533915 	0.0005818209892 	-3.055637823e-09 	0.002466928706 	-2.391691182e-08 	4.702651762e-06
0.8754792281 	0.001024457081 	0.0005847807979 	-1.038904597e-09 	0.002467614095 	-1.453182523e-08 	4.703958303e-06
0.8882132094 	0.001031244812 	0.0005899520938 	2.51002703e-09 	0.002477052059 	1.915184316e-12 	4.721949685e-06
0.9001021759 	0.001044183379 	0.0005987500163 	8.721006363e-09 	0.002500244919 	2.381460741e-08 	4.766161722e-06
0.9112022019 	0.001067248554 	0.0006135615571 	1.912526417e-08 	0.002546076047 	6.351164854e-08 	4.853528591e-06
0.9215656407 	0.001107201107 	0.0006382838798 	3.582813567e-08 	0.002630358978 	1.298573384e-07 	5.014195282e-06
0.9312413717 	0.001175322668 	0.0006792089149 	6.194513514e-08 	0.002780508985 	2.381369606e-07 	5.300422929e-06
0.9402750304 	0.001288274561 	0.0007455411599 	9.98949335e-08 	0.003037549649 	3.977317798e-07 	5.790413874e-06
0.9487092242 	0.001465128785 	0.0008486203609 	1.466999074e-07 	0.003447509954 	5.911245375e-07 	6.571912159e-06
0.9565837329 	0.00171370692 	0.0009941631984 	1.850421526e-07 	0.004028779731 	7.49515798e-07 	7.679973909e-06
0.9639356968 	0.001984975712 	0.001153078586 	1.906591662e-07 	0.004666598894 	7.824131549e-07 	8.895834506e-06
0.9688006083 	0.002203729179 	0.001280024584 	1.67843832e-07 	0.005184067315 	7.0178437e-07 	9.88227314e-06
0.9731064834 	0.002350974824 	0.001364445961 	1.358416245e-07 	0.005534868217 	5.772527435e-07 	1.055099716e-05
0.976917562 	0.002427107489 	0.001407872984 	1.027754347e-07 	0.00571838717 	4.434953586e-07 	1.090083529e-05
0.9802907021 	0.002418133969 	0.001403067675 	7.368829144e-08 	0.005701125872 	3.255190267e-07 	1.086793046e-05
0.9832762282 	0.0023151438 	0.001346524541 	4.956146187e-08 	0.005461411825 	2.317158063e-07 	1.041096886e-05
0.9859186816 	0.002116434613 	0.001239470105 	2.94986983e-08 	0.004994369767 	1.599257114e-07 	9.520656888e-06
0.9882574856 	0.001817949298 	0.001064613013 	1.992085116e-08 	0.004291133398 	1.105288369e-07 	8.180092915e-06
0.990327533 	0.00142455326 	0.0008270381518 	1.750325221e-08 	0.003362323567 	7.779203192e-08 	6.409523227e-06
0.9921597073 	0.0009710822766 	0.000562012381 	1.234258686e-08 	0.002291522756 	5.040512898e-08 	4.36827927e-06
0.9937813429 	0.0005811388152 	0.0003114513571 	5.635541718e-09 	0.00127178944 	2.382678842e-08 	2.424384149e-06
0.9948347186 	0.0003180977042 	0.0001283668106 	1.14849005e-09 	0.0005441660249 	6.915600758e-09 	1.037331687e-06
0.9958880943 	0.0001327085706 	3.326518412e-05 	7.912467023e-11 	0.0001703557348 	2.199296509e-09 	3.247453785e-07
0.9969414701 	3.06310882e-05 	3.719652403e-06 	-9.63592649e-12 	3.260593034e-05 	4.792878788e-10 	6.215596557e-08
0.9979948458 	2.686985607e-06 	9.729972674e-08 	-4.419301025e-13 	2.69700053e-06 	4.256386832e-11 	5.141232603e-09
0.9990482216 	3.593240359e-08 	1.446691498e-10 	-7.304072846e-16 	3.586644886e-08 	5.706512633e-13 	6.837142008e-11
0.9990482216 	3.593240359e-08 	1.446691498e-10 	-7.304072846e-16 	3.586644886e-08 	5.706512633e-13 	6.837142008e-11
