0.3359950097 	8.789363031e-08 	-8.607594194e-10 	-9.662704918e-13 	8.710807459e-08 	1.75920479e-10 	1.660522006e-10
0.3359950097 	8.789363031e-08 	-8.607594194e-10 	-9.662704918e-13 	8.710807459e-08 	1.75920479e-10 	1.660522006e-10
0.3371488821 	8.157137944e-06 	-6.919957592e-07 	-1.11486635e-10 	7.649073769e-06 	1.086687234e-08 	1.458126055e-08
0.3383029084 	0.000102339724 	-2.396139637e-05 	-3.401643055e-09 	8.511836443e-05 	1.195322612e-07 	1.6225926e-07
0.339456909 	0.0004596147628 	-0.0001623290275 	-1.925650816e-07 	0.0003434697578 	5.739318091e-07 	6.547488209e-07
0.3406107058 	0.001081650429 	-0.0004197880548 	-6.347889396e-07 	0.0007808817103 	1.584811846e-06 	1.488577575e-06
0.3417641219 	0.001846754625 	-0.0007554699548 	-1.414831183e-06 	0.001303808727 	3.342393954e-06 	2.485421808e-06
0.3435386191 	0.00242960559 	-0.001050165008 	-3.266587489e-06 	0.001678545877 	5.547370323e-06 	3.19977497e-06
0.345541121 	0.002430800559 	-0.001053183041 	-4.636034978e-06 	0.001695953308 	5.997503816e-06 	3.232958371e-06
0.3477994817 	0.002076913264 	-0.0008491110471 	-3.124505322e-06 	0.001517031205 	3.521786923e-06 	2.891883113e-06
0.3503442295 	0.001804788153 	-0.0007001670453 	-9.130211981e-07 	0.001404633986 	2.000574545e-08 	2.677622776e-06
0.3532733514 	0.001668222311 	-0.0005941211044 	-8.16108274e-07 	0.001470801417 	-2.907416889e-06 	2.803756289e-06
0.356598976 	0.001570845829 	-0.0004391719861 	-1.430811364e-06 	0.001683874915 	-4.555781436e-06 	3.209933596e-06
0.3603444458 	0.001484632908 	-0.0002564109968 	-1.611347023e-06 	0.001942062989 	-4.901420409e-06 	3.702111825e-06
0.3645614832 	0.001409528917 	-7.629008696e-05 	-1.437107402e-06 	0.002166232803 	-3.812647265e-06 	4.129441796e-06
0.3694015871 	0.001356247981 	7.438963187e-05 	-6.095801266e-07 	0.002290685985 	-2.256746367e-06 	4.36668415e-06
0.3748927519 	0.00133423944 	0.000160049619 	1.410962985e-07 	0.002322513427 	-1.544423977e-06 	4.427356102e-06
0.3832077724 	0.001327120285 	0.0001918087552 	3.446098287e-07 	0.002327381418 	-1.138400116e-06 	4.436635844e-06
0.3922194226 	0.001321326107 	0.0002051987685 	2.79300843e-07 	0.002329514346 	-7.974808764e-07 	4.440701798e-06
0.4019645111 	0.001316261252 	0.0002172461908 	1.913691267e-07 	0.002334047398 	-5.277437904e-07 	4.449343056e-06
0.41246846 	0.001313624954 	0.0002304500117 	1.1539804e-07 	0.002343836608 	-2.941587689e-07 	4.46800401e-06
0.4238250473 	0.001314074097 	0.0002444040263 	3.177411256e-08 	0.002359564794 	-7.510102408e-08 	4.497986305e-06
0.4281449265 	0.001315174955 	0.0002497341978 	9.185802111e-08 	0.002366988392 	-6.500622837e-07 	4.512137746e-06
0.4360921644 	0.001317123373 	0.0002594640513 	5.331378804e-08 	0.00238056446 	-1.288065576e-07 	4.538017505e-06
0.4493258187 	0.001322408469 	0.0002763128756 	1.400267425e-07 	0.002406038054 	-3.232153368e-07 	4.586577255e-06
0.4636467224 	0.0013296423 	0.0002953372601 	2.308095e-07 	0.002435224441 	-5.131436083e-07 	4.64221462e-06
0.479142112 	0.001338455952 	0.0003167190942 	3.233083796e-07 	0.002467201524 	-6.987179129e-07 	4.703171828e-06
0.495937783 	0.001348485102 	0.0003405603396 	4.136522545e-07 	0.002500903014 	-8.789613415e-07 	4.767416235e-06
0.5140945125 	0.001359326248 	0.0003667613308 	4.9625775e-07 	0.002535042087 	-1.05053396e-06 	4.832494796e-06
0.5336915725 	0.001370491106 	0.000394880728 	5.65168152e-07 	0.002568365141 	-1.208869445e-06 	4.8960178e-06
0.5548794993 	0.001381428908 	0.000424403133 	6.153524116e-07 	0.002599510163 	-1.348944261e-06 	4.955388868e-06
0.577708027 	0.001391621761 	0.0004551199357 	6.419825219e-07 	0.00262656841 	-1.465082723e-06 	5.006969406e-06
0.6022888803 	0.001400596354 	0.0004869737314 	6.401422624e-07 	0.002647161048 	-1.551178076e-06 	5.046224699e-06
0.6287248958 	0.001407789621 	0.0005198291664 	5.65648116e-07 	0.002658142786 	-1.494703228e-06 	5.067158942e-06
0.6571183725 	0.001412466181 	0.0005528532464 	4.692354894e-07 	0.002655610479 	-1.393224952e-06 	5.062331661e-06
0.6855585609 	0.001414178462 	0.0005838512838 	3.809518051e-07 	0.002637432849 	-1.307942737e-06 	5.027680046e-06
0.7121365164 	0.001413563938 	0.0006112575378 	3.02762982e-07 	0.002605014576 	-1.235642035e-06 	4.965881808e-06
0.7369645634 	0.001411906405 	0.0006353258539 	2.335203154e-07 	0.002560788492 	-1.166894241e-06 	4.8815746e-06
0.7601541182 	0.001410419064 	0.0006566836767 	1.727733618e-07 	0.002507037432 	-1.096457704e-06 	4.77911014e-06
0.781812674 	0.001410141053 	0.0006757063412 	1.199068543e-07 	0.002446290451 	-1.020187664e-06 	4.663309511e-06
0.8020426129 	0.001411876321 	0.0006926073211 	7.51164477e-08 	0.002381238704 	-9.360803079e-07 	4.539302801e-06
0.8209384831 	0.001416226279 	0.0007075543266 	3.925042756e-08 	0.00231462348 	-8.445180611e-07 	4.412315669e-06
0.8385893071 	0.001423707696 	0.0007208147891 	1.211679461e-08 	0.002249103111 	-7.142008164e-07 	4.287415636e-06
0.8550774756 	0.001434870215 	0.0007328042774 	-3.578991563e-09 	0.002187210526 	-5.899296148e-07 	4.169431166e-06
0.8704799455 	0.001450600143 	0.0007442221987 	-8.696740168e-09 	0.002131151166 	-4.766861099e-07 	4.062566445e-06
0.8848682824 	0.001472511226 	0.0007561458517 	-4.774945134e-09 	0.002082755283 	-3.743855446e-07 	3.970310442e-06
0.898309154 	0.001503233556 	0.0007700179464 	6.06971699e-09 	0.002043772819 	-2.809981423e-07 	3.89599903e-06
0.9108647908 	0.001546413651 	0.0007875596662 	2.087620631e-08 	0.002016463066 	-1.939749567e-07 	3.843939051e-06
0.922593274 	0.001606110316 	0.0008105788648 	3.565533706e-08 	0.00200447035 	-1.133504674e-07 	3.8210776e-06
0.9335488469 	0.001685443485 	0.0008406908936 	4.461703992e-08 	0.002012957119 	-4.776752986e-08 	3.837255741e-06
0.9437821903 	0.001784073629 	0.0008784718616 	3.843385669e-08 	0.002045902833 	-2.03642385e-08 	3.90005943e-06
0.9533406678 	0.001885341113 	0.00091795178 	9.200604141e-09 	0.002094782733 	-5.568750553e-08 	3.993238104e-06
0.9596679154 	0.001967214592 	0.0009499936087 	-3.667278118e-08 	0.002139861905 	-1.415953854e-07 	4.079171534e-06
0.9652695907 	0.002024964285 	0.0009717256976 	-8.498222539e-08 	0.002168951741 	-2.419984795e-07 	4.134624847e-06
0.9702287469 	0.002056101875 	0.0009813270718 	-1.263384288e-07 	0.002174378993 	-3.32955714e-07 	4.144970697e-06
0.9746189643 	0.002052233997 	0.0009747323222 	-1.506282282e-07 	0.002146200147 	-3.881417306e-07 	4.091253986e-06
0.9785054204 	0.002004256127 	0.0009480918304 	-1.525844435e-07 	0.002075008605 	-3.979416406e-07 	3.95554312e-06
0.9819458465 	0.001900059566 	0.000898227201 	-1.216748935e-07 	0.001949081 	-3.700110459e-07 	3.715490105e-06
0.9849913737 	0.001719221951 	0.0008125777515 	-1.163382412e-07 	0.001749013541 	-3.479932941e-07 	3.334105921e-06
0.9876872839 	0.001437058785 	0.000675468785 	-1.456039905e-07 	0.00145251722 	-3.514348849e-07 	2.768901527e-06
0.9900736765 	0.001053958582 	0.0004922122075 	-1.483068204e-07 	0.001060407261 	-3.342057323e-07 	2.021430965e-06
0.9921860593 	0.0006506460787 	0.0003030872597 	-1.174370688e-07 	0.0006526710337 	-2.579349593e-07 	1.244172391e-06
0.9935583211 	0.0003300208786 	0.0001429629619 	-6.493499495e-08 	0.0003307736771 	-1.49021317e-07 	6.305465623e-07
0.9949306682 	0.0001229110728 	4.011876611e-05 	-2.06704602e-08 	0.0001231090208 	-5.727028519e-08 	2.346800101e-07
0.9963031006 	2.541246307e-05 	4.626009007e-06 	-2.268781777e-09 	2.539537594e-05 	-1.029169089e-08 	4.841064482e-08
0.9976756184 	1.941647882e-06 	1.120192531e-07 	-3.079102954e-11 	1.938196781e-06 	-4.221503442e-10 	3.694741758e-09
0.9990482216 	1.955043522e-08 	1.201558485e-10 	3.608946725e-14 	1.951309209e-08 	4.08600153e-12 	3.71973769e-11
