/*--------------------------------*- C++ -*----------------------------------*\
  =========                 |
  \\      /  F ield         | OpenFOAM: The Open Source CFD Toolbox
   \\    /   O peration     | Website:  https://openfoam.org
    \\  /    A nd           | Version:  7
     \\/     M anipulation  |
\*---------------------------------------------------------------------------*/
FoamFile
{
    version     2.0;
    format      ascii;
    class       volVectorField;
    location    "2000";
    object      U;
}
// * * * * * * * * * * * * * * * * * * * * * * * * * * * * * * * * * * * * * //

dimensions      [0 1 -1 0 0 0 0];

internalField   nonuniform List<vector> 
15296
(
(2.6702034 1.0147714e-06 1.1173535e-16)
(2.6704099 8.8362647e-08 6.6329886e-17)
(2.6701786 1.661565e-06 -4.4791805e-18)
(2.6698106 2.0575687e-06 1.0953569e-16)
(2.669434 2.1756651e-06 1.0236382e-16)
(2.6690207 2.3772674e-06 1.999956e-16)
(2.6685663 2.5583429e-06 2.4908599e-16)
(2.6680821 2.6954764e-06 -9.0962194e-18)
(2.6675723 2.8124955e-06 -2.4979188e-16)
(2.6670391 2.9142501e-06 2.3243892e-18)
(2.6664853 3.0017378e-06 -7.8774753e-17)
(2.6659134 3.0812762e-06 5.3149383e-17)
(2.6653246 3.1595991e-06 3.9287757e-17)
(2.6647198 3.2405381e-06 1.6675582e-16)
(2.6640989 3.3243661e-06 -1.0335415e-16)
(2.6634617 3.4088746e-06 1.5253361e-16)
(2.6628075 3.492891e-06 -1.875897e-16)
(2.662134 3.5804255e-06 -5.2948723e-17)
(2.6614371 3.6839891e-06 -1.9220294e-16)
(2.6607091 3.8265729e-06 -6.4773736e-17)
(2.6599372 4.0421276e-06 -1.4361434e-16)
(2.659101 4.3764492e-06 2.3801577e-16)
(2.65817 4.8898716e-06 1.8144284e-16)
(2.6570993 5.6611865e-06 -1.5150177e-16)
(2.6558229 6.7994221e-06 -1.7059287e-16)
(2.6542441 8.463367e-06 -5.9054016e-17)
(2.65222 1.0903351e-05 -2.1433569e-16)
(2.6495332 1.4498956e-05 1.2113713e-16)
(2.6458578 1.9889837e-05 4.9309623e-17)
(2.6406681 2.8040688e-05 -1.0359233e-16)
(2.6331664 4.079447e-05 4.6070428e-17)
(2.6219319 6.0941253e-05 7.3374597e-17)
(2.604782 9.4851827e-05 -2.3743611e-16)
(2.577213 0.00015275068 -4.6053765e-16)
(2.5318418 0.0002625093 -1.043249e-16)
(2.4469304 0.00046686971 3.3071003e-16)
(2.2823146 0.00093042919 5.1875617e-16)
(1.921678 -0.01003591 -4.6596512e-14)
(2.6701966 3.1055602e-06 -5.226522e-17)
(2.6704017 2.2474962e-07 -2.974338e-16)
(2.6701712 4.794482e-06 -2.050621e-17)
(2.6698038 5.9355232e-06 -5.1052807e-17)
(2.6694281 6.2571188e-06 3.282602e-16)
(2.669016 6.8274098e-06 1.323598e-16)
(2.6685631 7.3385246e-06 3.722896e-16)
(2.6680804 7.7205396e-06 -7.8116432e-18)
(2.6675723 8.0447627e-06 -7.4040123e-16)
(2.6670408 8.3258936e-06 -4.6069594e-16)
(2.6664889 8.5663219e-06 -3.4343916e-16)
(2.6659187 8.7836493e-06 1.8012821e-16)
(2.6653318 8.9965726e-06 1.1980928e-16)
(2.6647286 9.215753e-06 4.0435774e-17)
(2.6641091 9.4426154e-06 -3.5146753e-16)
(2.6634728 9.6726554e-06 1.1135418e-16)
(2.6628187 9.9050389e-06 -5.8548049e-16)
(2.6621446 1.0153534e-05 -6.3088795e-16)
(2.6614465 1.0455608e-05 -5.2549309e-16)
(2.6607168 1.0878896e-05 -1.6491389e-16)
(2.6599429 1.1523195e-05 -5.1309447e-16)
(2.659105 1.2523094e-05 3.0642116e-16)
(2.6581728 1.4056952e-05 8.779657e-17)
(2.6571018 1.6361129e-05 -4.9666408e-17)
(2.6558266 1.9767491e-05 -5.5481047e-16)
(2.6542507 2.4762888e-05 -2.1727164e-16)
(2.652232 3.2113286e-05 -5.0585737e-17)
(2.6495542 4.2980442e-05 4.4747172e-16)
(2.6458932 5.9315859e-05 1.6321928e-16)
(2.6407267 8.4082524e-05 6.6562048e-17)
(2.6332625 0.00012290906 2.0700352e-16)
(2.6220893 0.00018439453 2.6123342e-16)
(2.6050424 0.00028771177 -9.8817008e-17)
(2.5776412 0.00046422002 -5.7442254e-16)
(2.5326462 0.0008168354 -2.702526e-16)
(2.4485283 0.0015323559 7.8125776e-16)
(2.2860616 0.0032285337 1.4873882e-16)
(1.9238703 -0.0052055762 -7.8453477e-14)
(2.6701811 5.3450897e-06 -2.2532257e-16)
(2.6703836 3.9571477e-07 -1.8129775e-16)
(2.6701539 7.4435169e-06 -3.2655593e-16)
(2.6697874 9.2199651e-06 -2.8118556e-16)
(2.6694128 9.7154138e-06 5.8092908e-16)
(2.669002 1.0595599e-05 9.6653678e-17)
(2.6685505 1.1384013e-05 1.1479459e-16)
(2.6680695 1.1971741e-05 -4.5280746e-17)
(2.6675632 1.2470409e-05 -8.9712293e-16)
(2.6670337 1.2903583e-05 -5.6972461e-16)
(2.6664836 1.3274826e-05 1.2917603e-16)
(2.6659155 1.3611005e-05 -4.1158911e-17)
(2.6653305 1.3940892e-05 -9.1745788e-17)
(2.6647292 1.4281326e-05 -8.6499652e-17)
(2.6641112 1.4635406e-05 -1.6674503e-16)
(2.663476 1.4997267e-05 -2.054421e-16)
(2.6628223 1.5366408e-05 -1.0124677e-15)
(2.6621479 1.5763811e-05 -1.2351763e-15)
(2.6614487 1.6245878e-05 -6.2012434e-16)
(2.6607174 1.6915617e-05 -6.1397491e-16)
(2.6599417 1.7926438e-05 -6.4483731e-16)
(2.659102 1.9485868e-05 5.3159828e-16)
(2.6581686 2.1869914e-05 9.1892074e-17)
(2.6570972 2.5446608e-05 -2.6547468e-17)
(2.6558228 3.0735161e-05 -6.4267651e-16)
(2.6542496 3.849748e-05 -2.1347047e-16)
(2.652236 4.9929518e-05 -2.5285369e-16)
(2.6495669 6.6840379e-05 4.1057174e-16)
(2.64592 9.2265039e-05 2.5320144e-16)
(2.640776 0.00013080479 2.1905826e-16)
(2.633349 0.00019120383 2.8314464e-17)
(2.6222372 0.00028681696 1.0005199e-16)
(2.6052976 0.00044754239 -1.2656032e-16)
(2.5780859 0.00072218704 -5.9628723e-16)
(2.5334877 0.0012738859 -4.8206338e-16)
(2.4501892 0.0024042827 1.0125445e-15)
(2.2901122 0.0050927636 1.0180281e-15)
(1.9362341 0.0011791906 -2.724071e-14)
(2.6701568 8.0005613e-06 -3.4568341e-16)
(2.6703561 6.0531491e-07 -5.2498507e-16)
(2.6701273 1.0362102e-05 -2.9272832e-16)
(2.669762 1.2839287e-05 -9.1071918e-17)
(2.6693886 1.3527234e-05 5.2202542e-16)
(2.6689794 1.4749058e-05 3.7781214e-16)
(2.6685297 1.5843374e-05 1.147617e-17)
(2.6680506 1.6658357e-05 -5.8170129e-17)
(2.6675464 1.7350012e-05 -8.6174434e-16)
(2.6670192 1.7951637e-05 -4.8525387e-16)
(2.6664715 1.8467786e-05 3.6439635e-16)
(2.6659057 1.8935334e-05 1.6891529e-16)
(2.665323 1.9394487e-05 5.828648e-17)
(2.6647239 1.9869885e-05 -8.5470274e-17)
(2.6641079 2.0367737e-05 -3.3865765e-16)
(2.6634741 2.088151e-05 -4.6044704e-16)
(2.6628211 2.1410996e-05 -1.2049286e-15)
(2.6621466 2.1983944e-05 -1.6080267e-15)
(2.6614463 2.2675402e-05 -5.5671095e-16)
(2.6607132 2.3624687e-05 -6.964014e-16)
(2.6599354 2.5041825e-05 -6.1633313e-16)
(2.6590935 2.7212772e-05 5.0061418e-16)
(2.6581584 3.0519734e-05 -1.8302074e-16)
(2.6570862 3.547467e-05 2.315674e-16)
(2.6558124 4.280131e-05 -6.4810896e-16)
(2.6542415 5.3560374e-05 -2.885356e-16)
(2.6522329 6.9413745e-05 -1.2326918e-16)
(2.6495724 9.2869773e-05 2.4536993e-16)
(2.6459397 0.00012813468 3.2370339e-16)
(2.6408185 0.00018157071 4.2853508e-16)
(2.6334291 0.00026527795 2.0383182e-16)
(2.6223795 0.00039765808 6.0388868e-17)
(2.6055483 0.00061995811 1.2477995e-16)
(2.5785266 0.00099795888 -4.416637e-16)
(2.5343284 0.001758123 -6.3844498e-16)
(2.45184 0.0033095974 4.8375925e-16)
(2.2942243 0.0069898265 6.2741805e-16)
(1.9478442 0.0010571132 -1.1535191e-14)
(2.6701238 1.0819327e-05 -4.890355e-16)
(2.6703193 8.3714207e-07 -5.5791723e-16)
(2.6700917 1.3256253e-05 -3.2778125e-16)
(2.6697276 1.6427651e-05 -1.7827047e-16)
(2.6693558 1.730304e-05 6.1150207e-16)
(2.6689484 1.8861176e-05 3.4655446e-16)
(2.6685007 2.0257084e-05 -8.8732384e-17)
(2.6680238 2.1295514e-05 -2.8581341e-16)
(2.6675221 2.217634e-05 -9.8150063e-16)
(2.6669974 2.2942564e-05 -4.5870437e-16)
(2.6664524 2.3600034e-05 3.471795e-16)
(2.6658893 2.4196647e-05 2.8363546e-16)
(2.6653094 2.4785726e-05 3.430946e-16)
(2.664713 2.5401432e-05 -5.5691856e-17)
(2.6640994 2.6053917e-05 -4.8207833e-16)
(2.6634675 2.6734929e-05 -5.018201e-16)
(2.6628155 2.7441567e-05 -1.4081288e-15)
(2.662141 2.8204605e-05 -2.0646606e-15)
(2.6614397 2.9114513e-05 -6.3777697e-16)
(2.6607048 3.0344865e-05 -6.266769e-16)
(2.6599245 3.2161842e-05 -3.9473127e-16)
(2.65908 3.4931161e-05 5.5603178e-16)
(2.6581427 3.9143666e-05 -3.2717491e-16)
(2.6570691 4.5456621e-05 8.3157646e-17)
(2.6557952 5.4796338e-05 -5.5406522e-16)
(2.6542263 6.8516443e-05 -3.511188e-16)
(2.6522223 8.8735555e-05 -1.4446116e-16)
(2.6495701 0.00011864683 2.0048274e-16)
(2.6459513 0.0001636055 3.9247549e-16)
(2.6408528 0.00023169405 6.3194914e-16)
(2.6335009 0.00033830689 2.8789981e-16)
(2.6225132 0.00050677156 2.9149221e-17)
(2.6057903 0.00078956045 6.9647657e-17)
(2.5789581 0.0012696993 -3.4606444e-16)
(2.5351597 0.0022337216 -6.6728845e-16)
(2.453465 0.0041911195 -4.0234948e-16)
(2.2984095 0.0088568833 -2.3957281e-16)
(1.9558344 0.00069037128 -6.6943101e-15)
(2.6700697 1.4604131e-05 -6.9603991e-16)
(2.67026 1.2464008e-06 -4.581761e-16)
(2.6700339 1.6983797e-05 -3.3044435e-16)
(2.6696717 2.1063989e-05 -4.9274319e-16)
(2.6693022 2.2183924e-05 4.0347682e-16)
(2.6688974 2.4174419e-05 3.9110554e-16)
(2.6684527 2.59601e-05 -1.7033207e-16)
(2.6679791 2.7289447e-05 -7.6644694e-16)
(2.667481 2.8419178e-05 -1.0569374e-15)
(2.66696 2.9406144e-05 -6.9571626e-16)
(2.6664188 3.0258543e-05 1.0880658e-16)
(2.6658597 3.1038157e-05 3.9388368e-16)
(2.6652838 3.1813784e-05 6.170206e-16)
(2.6646914 3.2629352e-05 -5.4024713e-17)
(2.6640815 3.3497161e-05 -4.4487119e-16)
(2.6634526 3.4404179e-05 -4.2287181e-16)
(2.6628026 3.5342969e-05 -1.1414824e-15)
(2.6621286 3.6349397e-05 -2.4047521e-15)
(2.6614263 3.7536792e-05 -4.6293904e-16)
(2.6606889 3.91263e-05 -6.3914464e-16)
(2.6599051 4.1458792e-05 -5.3840812e-16)
(2.6590568 4.5003363e-05 6.4053143e-16)
(2.6581158 5.0389882e-05 -2.1947553e-16)
(2.6570398 5.8460353e-05 7.913533e-18)
(2.6557653 7.0397891e-05 -7.6549829e-16)
(2.6541982 8.7928261e-05 -4.6565389e-16)
(2.6521996 0.00011375342 -3.9156015e-16)
(2.6495577 0.00015194072 -1.2691597e-17)
(2.6459565 0.00020931045 4.7884188e-16)
(2.640887 0.00029612923 6.9910105e-16)
(2.633583 0.00043198267 3.4749617e-16)
(2.6226751 0.00064641558 2.2659343e-16)
(2.6060915 0.0010060901 4.5239757e-16)
(2.5795021 0.0016147683 -2.8168857e-16)
(2.5362178 0.0028344058 -6.5878376e-16)
(2.4555226 0.0052915514 -4.1413131e-16)
(2.3039041 0.01121243 4.8466117e-16)
(1.9621861 0.00096759269 -1.7421031e-14)
(2.669978 1.9764889e-05 -9.6687391e-16)
(2.6701609 2.0080902e-06 -4.2579744e-16)
(2.6699371 2.16844e-05 -3.016073e-16)
(2.6695775 2.6930279e-05 -2.9404055e-16)
(2.6692112 2.8360939e-05 8.2790404e-16)
(2.66881 3.088935e-05 4.1979695e-16)
(2.6683691 3.316031e-05 -2.785177e-16)
(2.6678997 3.4849377e-05 -8.1222965e-16)
(2.6674061 3.6283047e-05 -7.9868474e-16)
(2.6668899 3.7535032e-05 -1.0034598e-15)
(2.6663536 3.8615725e-05 -5.3423336e-17)
(2.6657996 3.9605566e-05 6.8407027e-16)
(2.6652289 4.0597699e-05 8.3704224e-16)
(2.6646416 4.1656532e-05 -1.6178349e-16)
(2.6640366 4.2805947e-05 -5.1112503e-16)
(2.663412 4.4031629e-05 -4.1312097e-16)
(2.6627651 4.5317855e-05 -1.1978042e-15)
(2.6620927 4.6697619e-05 -2.1641686e-15)
(2.6613901 4.8299813e-05 -7.4244882e-16)
(2.6606507 5.0392326e-05 -4.6376061e-16)
(2.6598635 5.3401187e-05 -2.6972939e-16)
(2.659011 5.7923891e-05 3.8341673e-16)
(2.6580661 6.4770868e-05 -2.2420776e-16)
(2.6569873 7.5026568e-05 2.8311741e-17)
(2.6557121 9.0206595e-05 -1.4179196e-15)
(2.6541474 0.00011250937 -6.4435949e-16)
(2.6521556 0.00014536999 -5.0605249e-16)
(2.6495268 0.00019394934 -1.3995819e-16)
(2.6459481 0.00026690022 3.8000322e-16)
(2.6409154 0.0003772073 4.5518505e-16)
(2.6336726 0.00054967748 4.1784726e-16)
(2.6228657 0.00082153089 1.3785118e-16)
(2.6064593 0.0012771006 5.7784739e-16)
(2.5801753 0.0020442298 -2.8935665e-16)
(2.5375404 0.0035801639 -6.1229614e-16)
(2.4580656 0.0066383856 -5.3175897e-16)
(2.3110215 0.014182996 2.1816545e-16)
(1.9674184 0.00048755259 -6.8878966e-15)
(2.669844 2.6171313e-05 -1.413941e-15)
(2.6700191 3.0941879e-06 -4.0946732e-16)
(2.6697982 2.695252e-05 -6.9412724e-16)
(2.669442 3.3514166e-05 -4.9001074e-16)
(2.6690796 3.5295488e-05 7.4216444e-16)
(2.6686827 3.8423784e-05 8.776446e-16)
(2.6682464 4.123603e-05 -3.644071e-16)
(2.6677818 4.3325005e-05 -9.9796769e-16)
(2.6672934 4.5096323e-05 -6.639619e-16)
(2.6667826 4.6644538e-05 -1.1385814e-15)
(2.6662521 4.7982549e-05 -2.4379642e-16)
(2.6657039 4.9210437e-05 2.9170947e-16)
(2.6651391 5.0447738e-05 1.3760407e-15)
(2.6645578 5.1782731e-05 4.3031887e-17)
(2.6639588 5.3255518e-05 -5.8774612e-16)
(2.6633395 5.4854421e-05 -4.4053746e-16)
(2.662697 5.655723e-05 -9.5644511e-16)
(2.6620274 5.8393526e-05 -1.7891521e-15)
(2.6613258 6.0505489e-05 -8.9305596e-16)
(2.6605853 6.3206311e-05 -3.8711616e-16)
(2.6597953 6.7009514e-05 -4.7080935e-16)
(2.6589391 7.2649166e-05 2.7747732e-16)
(2.6579905 8.1132747e-05 -2.2484615e-16)
(2.6569088 9.3814479e-05 -1.7926217e-17)
(2.6556329 0.00011258317 -1.2153203e-15)
(2.6540709 0.00014016612 -7.9625418e-16)
(2.6520866 0.0001808149 -4.5316916e-16)
(2.6494722 0.00024090036 -2.5079038e-16)
(2.6459186 0.00033109918 -1.3590396e-17)
(2.6409273 0.00046737334 3.0233182e-16)
(2.633753 0.00068026896 4.6510119e-16)
(2.6230595 0.0010153157 1.8077867e-16)
(2.6068519 0.0015762706 4.8998326e-16)
(2.5809077 0.0025156542 -3.53563e-16)
(2.5389969 0.0043959543 -7.0647727e-16)
(2.460836 0.0080807461 -4.1115177e-16)
(2.3189788 0.017434759 2.4755228e-16)
(1.979204 0.0059696611 -2.3256987e-15)
(2.6696525 3.3888839e-05 -1.203604e-15)
(2.6698208 4.6073907e-06 -4.4841872e-16)
(2.6696038 3.2854324e-05 -1.0873942e-15)
(2.6692519 4.0900041e-05 -5.2555674e-16)
(2.6688944 4.3075344e-05 5.041044e-16)
(2.6685028 4.6871997e-05 8.4065193e-16)
(2.6680719 5.0288442e-05 -5.797141e-16)
(2.667613 5.2821632e-05 -1.2095197e-15)
(2.6671305 5.4966013e-05 -4.7762778e-16)
(2.6666261 5.6841486e-05 -1.1216529e-15)
(2.666102 5.84641e-05 1.4448275e-17)
(2.6655605 5.9955247e-05 1.6346794e-16)
(2.6650027 6.1463986e-05 1.1418936e-15)
(2.6644284 6.3107246e-05 -5.497539e-17)
(2.6638363 6.4947719e-05 -7.5975037e-16)
(2.6632238 6.6981719e-05 -5.0737146e-16)
(2.6625871 6.9182828e-05 -4.7511082e-16)
(2.661922 7.1576396e-05 -1.5248826e-15)
(2.6612229 7.4314711e-05 -1.0607066e-15)
(2.6604828 7.7753052e-05 -3.1100861e-16)
(2.6596912 8.2492825e-05 -9.2066284e-16)
(2.658832 8.9412627e-05 -1.1858006e-16)
(2.6578799 9.9736046e-05 -3.6786872e-16)
(2.6567956 0.00011511903 -6.2924822e-17)
(2.6555191 0.00013786949 -1.3170055e-15)
(2.65396 0.0001713048 -8.848555e-16)
(2.6519839 0.00022058301 -4.4200202e-16)
(2.6493855 0.00029341098 -9.5054083e-17)
(2.6458597 0.00040269825 7.3845114e-17)
(2.6409144 0.00056766128 1.9247322e-16)
(2.6338166 0.00082514498 5.4397775e-16)
(2.6232493 0.0012296309 2.8296043e-16)
(2.6072638 0.0019062444 5.1445239e-16)
(2.5816957 0.0030329762 -4.4142392e-16)
(2.5405889 0.0052872399 -8.8134197e-16)
(2.4638387 0.0096172884 -1.0944724e-15)
(2.3275891 0.020950988 3.559181e-16)
(1.9930274 0.010591707 4.3741877e-16)
(2.6693834 4.2621475e-05 -9.593446e-16)
(2.6695479 6.6390322e-06 -4.76441e-16)
(2.6693362 3.945733e-05 -1.1644839e-15)
(2.6689899 4.9188812e-05 -4.7212073e-16)
(2.6686387 5.1823183e-05 3.546639e-16)
(2.6682536 5.637809e-05 8.677199e-16)
(2.6678292 6.0482041e-05 -5.3783249e-16)
(2.6673768 6.3520184e-05 -1.4951373e-15)
(2.6669012 6.6085609e-05 -6.0846559e-16)
(2.6664039 6.8329383e-05 -1.2262852e-15)
(2.6658873 7.0272634e-05 2.169234e-16)
(2.6653535 7.2060776e-05 5.6711892e-17)
(2.6648035 7.3876158e-05 7.7786086e-16)
(2.6642374 7.586941e-05 -7.7902077e-17)
(2.6636536 7.8132697e-05 -7.2817246e-16)
(2.6630491 8.0676631e-05 -5.2458421e-16)
(2.6624201 8.3473996e-05 -3.6324999e-16)
(2.6617613 8.6546337e-05 -1.4560071e-15)
(2.6610668 9.0053892e-05 -8.9898314e-16)
(2.6603291 9.4390758e-05 -1.6889656e-16)
(2.6595375 0.00010024554 -1.3007256e-15)
(2.6586765 0.00010864874 -7.6474193e-16)
(2.6577218 0.0001210606 -3.0151917e-16)
(2.6566352 0.00013947473 -3.6971693e-17)
(2.6553583 0.00016667079 -1.1640509e-15)
(2.6538024 0.00020662675 -8.2427555e-16)
(2.6518352 0.00026551214 -4.3378415e-16)
(2.6492544 0.00035251835 3.2148679e-16)
(2.6457596 0.0004830358 1.1508039e-16)
(2.6408656 0.00067986422 1.0533832e-16)
(2.6338534 0.0009868138 3.3905109e-16)
(2.6234273 0.001468057 4.0965924e-16)
(2.6076907 0.0022724535 5.6445215e-16)
(2.5825407 0.0036031031 -6.0475302e-16)
(2.5423316 0.0062681438 -4.3587242e-16)
(2.4671059 0.011260939 -1.4946868e-15)
(2.3370077 0.024928751 -6.3892807e-16)
(2.0049681 0.01248253 1.722138e-15)
(2.6690132 5.2014085e-05 -9.9099771e-16)
(2.6691767 9.2415581e-06 -4.0708923e-16)
(2.6689727 4.6765714e-05 -1.4405983e-15)
(2.6686338 5.8411683e-05 -7.5774458e-16)
(2.6682906 6.1580766e-05 6.1289899e-16)
(2.6679135 6.6996407e-05 1.3440809e-15)
(2.6674968 7.1883709e-05 -3.2889229e-16)
(2.6670522 7.5495073e-05 -1.6125223e-15)
(2.6665845 7.8532651e-05 -4.7428741e-16)
(2.6660953 8.1186125e-05 -1.6873616e-15)
(2.6655872 8.348488e-05 6.2617287e-16)
(2.6650621 8.5601907e-05 -6.0606509e-17)
(2.6645211 8.7756874e-05 9.5989755e-16)
(2.6639642 9.0139172e-05 -2.0361884e-16)
(2.6633899 9.2878388e-05 -7.6016518e-16)
(2.6627952 9.6008541e-05 -1.7176758e-16)
(2.6621755 9.950886e-05 -6.1057626e-16)
(2.6615254 0.00010340119 -1.0689135e-15)
(2.6608379 0.00010785368 -6.8590294e-16)
(2.6601049 0.0001132952 -3.1564794e-16)
(2.6593157 0.00012049719 -1.7827542e-15)
(2.6584547 0.00013064506 -1.1832756e-15)
(2.6574986 0.00014545373 -8.5911833e-16)
(2.6564107 0.00016729173 -3.9518127e-16)
(2.6551341 0.00019946849 -1.2744678e-15)
(2.653582 0.00024670108 -7.5525932e-16)
(2.6516248 0.00031628539 -4.1154403e-16)
(2.6490635 0.00041905726 3.8046373e-16)
(2.6456032 0.00057315402 6.8594347e-17)
(2.6407668 0.00080530135 2.9309234e-17)
(2.6338507 0.0011669748 -6.6681971e-17)
(2.6235829 0.0017327214 5.2495099e-16)
(2.6081264 0.0026776983 5.8979047e-16)
(2.583443 0.0042288961 -4.0638825e-16)
(2.5442406 0.0073423955 -7.6714697e-16)
(2.4706683 0.012989609 -1.9138863e-15)
(2.3473884 0.02938571 -8.2451588e-16)
(2.0195237 0.016465174 3.7459838e-15)
(2.6685104 6.1949486e-05 -4.5166383e-16)
(2.6686774 1.2550586e-05 -9.8084508e-16)
(2.6684847 5.4824963e-05 -1.2023829e-15)
(2.6681556 6.866398e-05 -7.5797765e-16)
(2.6678227 7.247382e-05 2.9420956e-16)
(2.6674557 7.8875357e-05 1.0432082e-15)
(2.6670484 8.4662782e-05 -3.3351174e-16)
(2.6666129 8.893021e-05 -1.8762515e-15)
(2.6661543 9.249809e-05 -8.9330655e-16)
(2.6656745 9.5603659e-05 -2.1099894e-15)
(2.665176 9.8290031e-05 3.7362577e-17)
(2.6646608 0.00010076348 -3.025757e-16)
(2.66413 0.00010328615 5.2080164e-16)
(2.6635837 0.00010609085 -6.1010488e-16)
(2.6630204 0.00010935177 -2.8585358e-16)
(2.6624369 0.00011313607 -4.380085e-16)
(2.6618286 0.00011743942 -5.0508493e-16)
(2.6611894 0.00012229256 -1.4932737e-15)
(2.6605118 0.0001278761 -1.1398335e-15)
(2.6597867 0.00013465165 -3.5761931e-16)
(2.6590027 0.00014346648 -2.3443767e-15)
(2.6581445 0.0001556582 -2.2511587e-15)
(2.6571893 0.00017320844 -1.2609188e-15)
(2.6561015 0.00019889322 -1.5702616e-16)
(2.6548264 0.00023660744 -1.2679999e-15)
(2.6532793 0.00029188407 -6.3143733e-16)
(2.6513334 0.00037325762 -3.7661283e-16)
(2.6487938 0.00049336206 5.8053735e-16)
(2.6453716 0.00067333817 1.8065821e-16)
(2.6405991 0.00094415268 3.1217268e-17)
(2.63379 0.0013656105 -4.6163139e-16)
(2.6236979 0.0020231299 6.8429222e-16)
(2.6085534 0.0031207252 9.4890932e-16)
(2.5843849 0.0049064352 -4.9597727e-16)
(2.5463 0.0085049907 -9.4388188e-16)
(2.474508 0.01477372 -2.138305e-15)
(2.3584783 0.034162637 -3.2472202e-15)
(2.0381936 0.021802146 3.9270538e-15)
(2.6678364 7.2329964e-05 -2.7281239e-16)
(2.6680116 1.6617741e-05 -8.976632e-16)
(2.6678355 6.3598546e-05 -1.0457053e-15)
(2.6675194 7.9986801e-05 -7.3680983e-16)
(2.6671999 8.4581978e-05 3.1695332e-16)
(2.6668455 9.212423e-05 1.104249e-15)
(2.6664499 9.8958531e-05 -1.3052193e-15)
(2.6660254 0.00010398755 -1.7781693e-15)
(2.6655775 0.00010815733 -8.9795233e-16)
(2.6651084 0.00011176232 -2.7389661e-15)
(2.6646209 0.00011486703 -6.3784598e-16)
(2.6641171 0.00011772013 -6.8688046e-16)
(2.663598 0.00012063439 3.4337017e-16)
(2.6630638 0.00012389145 -6.7750938e-16)
(2.6625129 0.00012771608 -7.7456474e-16)
(2.6619424 0.00013221712 -6.5963669e-16)
(2.6613474 0.00013741752 -6.0472013e-16)
(2.6607217 0.00014336969 -1.4906074e-15)
(2.660057 0.00015027829 -1.4623528e-15)
(2.6593433 0.00015864144 -8.7313287e-16)
(2.6585684 0.00016937582 -2.8091979e-15)
(2.6577165 0.00018396431 -2.6060273e-15)
(2.6567653 0.00020466209 -8.8387125e-16)
(2.6556805 0.00023468147 -3.4781543e-16)
(2.654409 0.0002785564 -9.3446391e-16)
(2.6528687 0.00034271086 -4.4661845e-16)
(2.6509359 0.00043702805 -3.2747936e-16)
(2.6484204 0.000576089 8.957896e-16)
(2.6450404 0.00078428971 2.0710702e-16)
(2.6403384 0.0010971303 -6.439896e-16)
(2.6336476 0.0015833953 -3.0359464e-16)
(2.6237494 0.0023396659 5.2514825e-16)
(2.6089499 0.0036015104 7.1790615e-16)
(2.5853459 0.0056331702 -1.2962273e-16)
(2.5484929 0.0097523104 -3.7910223e-16)
(2.4786276 0.016587995 -1.2945314e-15)
(2.3699994 0.039114399 -1.7031789e-15)
(2.0607073 0.027693271 4.2613963e-15)
(2.6669409 8.2841245e-05 -1.5549266e-16)
(2.6671319 2.1375228e-05 -4.7808219e-16)
(2.6669785 7.2980355e-05 -8.2965642e-16)
(2.6666792 9.2424061e-05 -5.3810167e-16)
(2.6663764 9.8026689e-05 -5.8096163e-17)
(2.6660379 0.00010692388 4.0993854e-16)
(2.6656567 0.00011501549 -1.3419755e-15)
(2.6652454 0.00012096907 -1.6713385e-15)
(2.6648101 0.00012585785 -8.8107798e-16)
(2.6643534 0.00013004072 -2.471144e-15)
(2.6638783 0.00013361213 -8.5991343e-16)
(2.6633873 0.00013687705 -5.9085637e-16)
(2.6628815 0.00014021406 3.4672239e-16)
(2.6623608 0.00014396422 -5.119287e-16)
(2.6618241 0.00014840957 -1.1918881e-15)
(2.6612681 0.00015370548 -7.1089293e-16)
(2.6606885 0.00015990784 -7.8541987e-16)
(2.6600787 0.00016710239 -1.275124e-15)
(2.6594301 0.00017553624 -1.7692825e-15)
(2.6587316 0.00018575886 -1.7343142e-15)
(2.6579701 0.00019875648 -2.8735094e-15)
(2.657129 0.00021615076 -2.3898817e-15)
(2.656186 0.00024047683 -9.2186213e-16)
(2.6551078 0.00027541346 5.5187584e-16)
(2.6538431 0.0003261897 -7.3523963e-16)
(2.6523123 0.00040019731 -1.857656e-16)
(2.6503955 0.00050878163 -2.2716003e-16)
(2.6479075 0.00066862602 8.7797096e-16)
(2.6445746 0.0009076546 1.846086e-16)
(2.6399511 0.0012662149 -7.0213831e-16)
(2.6333918 0.0018228078 -6.3408528e-16)
(2.6237089 0.0026853748 5.9201369e-17)
(2.6092934 0.0041243185 1.2234479e-17)
(2.5863115 0.0064131173 4.0466594e-17)
(2.550821 0.011092998 2.8799132e-17)
(2.483088 0.018436663 -9.1186979e-16)
(2.3818819 0.044174275 -2.0424917e-16)
(2.0868536 0.034358928 9.9577101e-16)
(2.6657678 9.2568632e-05 -1.3126877e-16)
(2.6659796 2.7147656e-05 -2.5047486e-16)
(2.6658549 8.2562486e-05 -7.02396e-16)
(2.6655764 0.00010575363 -8.480856e-16)
(2.6652942 0.00011268143 -2.7031798e-16)
(2.6649753 0.00012317051 -1.2101023e-16)
(2.6646117 0.00013277882 -2.0118028e-15)
(2.6642164 0.00013987248 -2.0191538e-15)
(2.663796 0.00014563942 -1.4394846e-15)
(2.6633535 0.00015050466 -2.3184031e-15)
(2.6628925 0.00015459801 -7.9016861e-16)
(2.6624158 0.00015829823 -1.0942104e-18)
(2.6619247 0.00016207453 -1.0027445e-16)
(2.6614194 0.00016634787 -1.8951884e-16)
(2.6608984 0.00017146847 -1.2638291e-15)
(2.6603588 0.0001776387 -1.2520284e-15)
(2.6597962 0.00018494384 -1.1889249e-15)
(2.6592045 0.00019351063 -8.1980922e-16)
(2.6585749 0.00020365741 -1.6472997e-15)
(2.6578956 0.00021602041 -1.5011323e-15)
(2.657152 0.00023166956 -2.567938e-15)
(2.6563268 0.00025236004 -2.4046681e-15)
(2.6553972 0.00028091046 -1.1794188e-15)
(2.6543306 0.00032149747 8.1538616e-16)
(2.6530773 0.00038010433 -2.9478946e-16)
(2.6515603 0.00046516682 2.4198251e-16)
(2.6496636 0.00058959785 4.4861414e-17)
(2.6472077 0.00077232922 1.7955342e-16)
(2.643928 0.0010450713 2.011117e-16)
(2.6393922 0.0014533275 -9.241532e-16)
(2.6329797 0.0020860165 -1.3514605e-15)
(2.6235358 0.0030624355 -2.4602576e-16)
(2.6095473 0.0046911617 -9.2907786e-17)
(2.5872507 0.0072452788 -2.244433e-16)
(2.5532585 0.012522837 4.6661769e-16)
(2.4879226 0.020310094 -7.2719797e-16)
(2.394027 0.049221115 6.9836238e-16)
(2.1163363 0.041780285 2.7981015e-15)
(2.6639602 9.8149453e-05 -1.6258781e-16)
(2.6642024 3.7851819e-05 -7.070061e-17)
(2.6641165 9.4331352e-05 -5.1328434e-17)
(2.6638668 0.00012248122 -1.0769303e-15)
(2.6636139 0.00013187303 -1.5909542e-16)
(2.6633234 0.00014462081 -3.3359007e-16)
(2.6629854 0.0001564258 -2.0256486e-15)
(2.6626135 0.00016528643 -2.7170256e-15)
(2.6622143 0.00017244254 -1.9505592e-15)
(2.6617916 0.00017838115 -1.7449171e-15)
(2.6613495 0.0001832785 -7.4539128e-16)
(2.6608919 0.00018761903 6.0763304e-16)
(2.6604206 0.00019201066 2.0135813e-16)
(2.6599358 0.0001969934 -1.2320923e-16)
(2.659436 0.00020300057 -1.2906715e-15)
(2.6589182 0.00021027046 -9.8126267e-16)
(2.6583781 0.00021890033 -7.912545e-16)
(2.6578102 0.00022907547 -4.5157124e-16)
(2.6572059 0.00024127329 -1.3154493e-15)
(2.6565533 0.00025635125 -1.4564373e-15)
(2.6558365 0.00027555826 -2.8431358e-15)
(2.6550366 0.00030080845 -2.0556614e-15)
(2.6541301 0.00033521848 -7.7707316e-16)
(2.6530847 0.00038353831 5.5486308e-16)
(2.6518525 0.00045267588 -3.0793534e-16)
(2.6503592 0.0005523725 3.822618e-16)
(2.6484936 0.00069748893 -3.681744e-16)
(2.6460831 0.00090977577 -8.7634221e-16)
(2.6428753 0.001225627 3.8876805e-16)
(2.6384556 0.0016970614 -1.4436421e-15)
(2.6322359 0.0024257536 -1.5511428e-15)
(2.6231041 0.0035447617 -1.0193049e-15)
(2.6096727 0.0054096377 -4.9401816e-16)
(2.5882631 0.0082837709 -3.8087332e-16)
(2.5561882 0.014284547 2.0258036e-16)
(2.4940589 0.022560238 -1.3331884e-15)
(2.4085181 0.054661462 -9.490524e-16)
(2.1543301 0.052454586 4.9797832e-16)
(2.6613277 9.742337e-05 -4.4944321e-16)
(2.6615998 5.2105866e-05 2.3933256e-16)
(2.6615604 0.00010782371 3.2145187e-16)
(2.6613461 0.00014157758 -4.8445039e-16)
(2.6611291 0.00015478241 -5.5999908e-16)
(2.6608738 0.00017053839 -1.5328299e-16)
(2.6605684 0.00018522848 -9.1766653e-16)
(2.6602264 0.00019651311 -1.9034285e-15)
(2.6598549 0.00020558292 -1.8020219e-15)
(2.659458 0.00021295135 -1.2467789e-15)
(2.6590407 0.00021882947 -1.0624598e-15)
(2.6586076 0.00022382383 5.3167771e-16)
(2.6581611 0.00022873863 -2.4296857e-16)
(2.6577017 0.00023431526 -1.613876e-16)
(2.6572278 0.00024115248 -1.0329622e-15)
(2.6567361 0.00024957574 -4.9562541e-16)
(2.6562225 0.00025970619 -1.5886222e-16)
(2.6556822 0.00027179243 -8.2778134e-17)
(2.6551077 0.0002865147 -3.5916434e-16)
(2.654487 0.00030503328 -1.442907e-15)
(2.6538035 0.0003288218 -2.4485387e-15)
(2.6530372 0.00035992188 -2.3029742e-15)
(2.6521635 0.0004016919 -9.99675e-16)
(2.6511501 0.00045946289 -4.1936654e-16)
(2.6499504 0.00054119621 -4.6417779e-16)
(2.648493 0.00065817727 -1.3271028e-17)
(2.6466717 0.00082751968 4.6601874e-17)
(2.6443226 0.0010741931 -2.4293132e-16)
(2.6412069 0.0014398266 -7.4895545e-16)
(2.6369312 0.0019838382 -5.109568e-16)
(2.6309461 0.0028220603 -1.6108683e-15)
(2.6221887 0.0041018915 -1.4601237e-15)
(2.609421 0.0062317754 -7.9741457e-16)
(2.5890597 0.0094519834 -6.1007584e-16)
(2.5591795 0.016233009 3.7864346e-16)
(2.5010046 0.025057853 -8.2065615e-16)
(2.4239346 0.05976145 4.0671056e-16)
(2.1973511 0.064947822 4.862735e-16)
(2.6580515 9.8071321e-05 3.6857739e-16)
(2.6583568 6.6347428e-05 4.9183319e-17)
(2.6583645 0.00012146839 4.5809403e-16)
(2.6581857 0.00016117712 -8.6913011e-16)
(2.6580048 0.00017871525 -7.3676492e-16)
(2.657787 0.00019784965 3.7124984e-17)
(2.6575171 0.00021585149 6.8819864e-17)
(2.6572082 0.00023001033 -3.3879644e-16)
(2.6568677 0.00024141562 -5.058141e-16)
(2.6564995 0.00025057339 -4.6230597e-16)
(2.6561095 0.00025770015 -1.8805407e-16)
(2.6557031 0.00026351873 7.5702009e-16)
(2.6552834 0.00026905068 -9.0930212e-17)
(2.6548511 0.00027527041 -7.7166671e-16)
(2.6544046 0.00028296284 -8.513418e-16)
(2.6539402 0.00029253567 -7.3395532e-16)
(2.6534539 0.0003041101 -5.2297339e-16)
(2.6529416 0.00031798694 2.8777923e-17)
(2.6523968 0.00033509614 4.0484748e-17)
(2.6518083 0.00035701782 -1.0856012e-15)
(2.6511594 0.0003855675 -1.4950943e-15)
(2.6504293 0.00042294878 -1.7502048e-15)
(2.6495929 0.00047269929 -1.2591831e-15)
(2.6486177 0.00054062406 -1.2840738e-15)
(2.6474579 0.00063564969 -8.4851063e-16)
(2.6460448 0.00077054593 -1.098255e-16)
(2.6442769 0.00096462785 1.6076808e-16)
(2.6419982 0.0012459743 4.2569052e-17)
(2.6389843 0.0016613038 -6.4834105e-16)
(2.6348626 0.0022769642 -9.5391093e-16)
(2.6291241 0.0032228395 -1.2707903e-15)
(2.6207554 0.0046574155 -1.7631317e-15)
(2.6086685 0.0070444002 -8.3650877e-16)
(2.589383 0.010582002 -6.8699361e-16)
(2.5616469 0.018087294 -2.9514161e-16)
(2.5076667 0.027384837 -8.4070997e-16)
(2.4381263 0.063839837 -4.7912148e-16)
(2.2387898 0.075488247 -5.3588946e-16)
(2.6540496 9.9718639e-05 1.2552453e-16)
(2.6543746 8.2020659e-05 3.8360734e-16)
(2.6544233 0.00013708927 5.1584245e-16)
(2.6542801 0.00018216742 -9.4405634e-17)
(2.6541379 0.00020405834 -7.7507002e-19)
(2.6539612 0.00022676677 -8.5760388e-17)
(2.6537309 0.00024844843 -3.6133025e-16)
(2.6534592 0.00026595159 -3.7200514e-16)
(2.6531532 0.00028017206 -2.192647e-16)
(2.6528172 0.00029154146 -2.7632698e-16)
(2.6524573 0.00030022798 -4.4883821e-16)
(2.6520797 0.00030705194 4.0856714e-16)
(2.6516887 0.00031327868 3.7846051e-16)
(2.6512852 0.00032017266 -8.4441748e-16)
(2.6508677 0.0003287622 -6.7508202e-16)
(2.6504322 0.0003395552 -7.5010111e-16)
(2.6499744 0.00035263664 -7.0699028e-16)
(2.6494906 0.00036830021 3.4618481e-16)
(2.6489755 0.00038771145 2.6300089e-16)
(2.6484191 0.00041294537 -2.9598062e-16)
(2.6478051 0.00044627241 -5.4531796e-16)
(2.6471128 0.00049012675 -1.2522942e-15)
(2.6463168 0.00054822664 -1.0920578e-15)
(2.6453847 0.00062681671 -1.0853278e-15)
(2.6442715 0.00073574541 -5.9150987e-16)
(2.6429105 0.00088920431 -7.8097123e-16)
(2.6412047 0.0011086158 -8.7443037e-16)
(2.6390058 0.0014249927 -1.5094032e-16)
(2.6361033 0.0018899241 -3.9120043e-16)
(2.6321458 0.002576084 -5.5143354e-16)
(2.6266652 0.0036272331 -1.0947358e-15)
(2.618699 0.0052094805 -1.3160768e-15)
(2.6073041 0.0078434221 -1.255759e-15)
(2.5891248 0.011673214 -9.6000655e-16)
(2.5634439 0.019810636 -3.0718907e-16)
(2.5138204 0.029541234 -1.5048911e-16)
(2.4510877 0.066948274 3.2037867e-16)
(2.2776648 0.084312845 -1.4083029e-15)
(2.6491321 0.00010134371 2.2424658e-16)
(2.6494986 9.7459411e-05 2.1327804e-16)
(2.6496031 0.0001538052 2.3763721e-16)
(2.6495059 0.00020428665 1.0064025e-16)
(2.6494097 0.00023084337 -2.8143387e-16)
(2.6492801 0.00025742923 -4.1948924e-16)
(2.6490944 0.00028322902 -7.9877739e-16)
(2.6488644 0.00030464928 -2.1587345e-16)