/*--------------------------------*- C++ -*----------------------------------*\
  =========                 |
  \\      /  F ield         | OpenFOAM: The Open Source CFD Toolbox
   \\    /   O peration     | Website:  https://openfoam.org
    \\  /    A nd           | Version:  7
     \\/     M anipulation  |
\*---------------------------------------------------------------------------*/
FoamFile
{
    version     2.0;
    format      ascii;
    class       volScalarField;
    location    "2000";
    object      nut;
}
// * * * * * * * * * * * * * * * * * * * * * * * * * * * * * * * * * * * * * //

dimensions      [0 2 -1 0 0 0 0];

internalField   nonuniform List<scalar> 
15296
(
0.0044610123
0.00446481
0.0044756919
0.0044926176
0.0045132244
0.0045355762
0.0045585896
0.0045817935
0.0046050333
0.0046282944
0.00465162
0.0046750747
0.0046987287
0.0047226498
0.0047469012
0.0047715403
0.0047966163
0.0048221766
0.0048482617
0.0048749074
0.004902146
0.0049300088
0.0049585274
0.0049877364
0.0050176778
0.0050484069
0.0050800084
0.0051126257
0.0051465393
0.0051823134
0.0052212719
0.005265979
0.0053259201
0.0053790154
0.0032301539
0.0017535697
0.0013720982
8.7466131e-05
0.0044609859
0.004464897
0.0044758502
0.0044928201
0.0045134392
0.0045357846
0.0045587842
0.0045819724
0.0046051964
0.0046284422
0.004651753
0.0046751933
0.0046988328
0.0047227391
0.0047469753
0.0047715986
0.0047966583
0.0048222022
0.0048482709
0.0048749004
0.0049021235
0.0049299713
0.0049584755
0.0049876706
0.0050175981
0.005048313
0.005079899
0.005112498
0.0051463878
0.0051821263
0.0052210259
0.0052656015
0.005325391
0.0052237324
0.003130726
0.0016856883
0.0013175457
3.771385e-06
0.0044609666
0.0044650831
0.0044762123
0.0044932912
0.0045139488
0.0045362906
0.0045592696
0.0045824324
0.0046056308
0.0046288522
0.0046521399
0.0046755582
0.0046991762
0.004723061
0.0047472752
0.0047718761
0.0047969128
0.0048224337
0.0048484801
0.0048750885
0.0049022921
0.0049301223
0.0049586108
0.0049877919
0.0050177067
0.0050484093
0.0050799819
0.0051125644
0.0051464312
0.0051821328
0.0052209687
0.005265397
0.0053250257
0.0053762734
0.0032255727
0.0017351639
0.0013844225
9.7388498e-06
0.0044609649
0.0044653669
0.0044767721
0.0044940216
0.0045147421
0.0045370835
0.0045600361
0.0045831649
0.004606329
0.0046295179
0.0046527756
0.0046761658
0.0046997568
0.004723615
0.0047478022
0.0047723754
0.0047973838
0.0048228766
0.0048488959
0.0048754789
0.0049026596
0.0049304699
0.0049589417
0.0049881092
0.0050180127
0.0050487053
0.0050802678
0.0051128373
0.0051466846
0.0051823518
0.0052211258
0.005265405
0.0053248747
0.0053883236
0.0032391826
0.0017439994
0.001419023
2.8060535e-05
0.0044609852
0.0044657544
0.0044775325
0.0044950115
0.0045158176
0.004538161
0.0045610812
0.0045841678
0.0046072892
0.004630438
0.0046536588
0.0046770152
0.0047005744
0.0047244015
0.0047485573
0.0047730984
0.0047980736
0.0048235332
0.0048495202
0.004876073
0.0049032266
0.0049310137
0.0049594665
0.0049886194
0.0050185122
0.0050491966
0.0050807516
0.0051133116
0.005147143
0.0051827792
0.0052214944
0.0052656244
0.0053249356
0.0053871255
0.0032707869
0.0017629097
0.0014425888
3.0505164e-05
0.004461045
0.0044663989
0.0044787796
0.0044966255
0.0045175678
0.0045399156
0.0045627864
0.004585808
0.0046088634
0.0046319507
0.0046551158
0.0046784218
0.0047019343
0.0047257166
0.0047498276
0.0047743227
0.0047992505
0.0048246617
0.004850601
0.0048771085
0.0049042209
0.0049319725
0.0049603963
0.0049895271
0.005019404
0.0050500775
0.0050816242
0.0051141743
0.0051479887
0.0051835883
0.0052222314
0.0052661706
0.0053252661
0.0053861329
0.0033083159
0.0017867763
0.0014572677
3.6240322e-05
0.0044612004
0.0044675383
0.0044809139
0.0044993505
0.0045205068
0.0045428593
0.0045656505
0.0045885682
0.0046115189
0.0046345089
0.0046575867
0.004680815
0.0047042576
0.0047279749
0.0047520228
0.0047764547
0.0048013176
0.0048266628
0.0048525359
0.0048789793
0.004906032
0.0049337301
0.0049621084
0.0049912023
0.0050210507
0.0050517028
0.0050832322
0.0051157644
0.0051495534
0.0051851025
0.0052236505
0.005267349
0.0053260986
0.0053859632
0.0033576883
0.0018217257
0.001458231
7.8485402e-05
0.0044615062
0.0044693064
0.0044840764
0.0045033041
0.0045247324
0.0045470812
0.0045697596
0.0045925335
0.0046153399
0.0046381968
0.0046611559
0.0046842799
0.0047076307
0.004731265
0.0047552351
0.0047795909
0.004804377
0.0048296435
0.0048554369
0.0048818012
0.0049087779
0.0049364055
0.0049647212
0.0049937615
0.0050235659
0.0050541823
0.0050856819
0.0051181848
0.0051519385
0.0051874238
0.0052258591
0.0052692921
0.0053275449
0.0053872017
0.0034141597
0.0018676034
0.0014580542
7.0096741e-05
0.0044620769
0.0044720551
0.0044887035
0.0045089209
0.0045306601
0.00455298
0.004575499
0.0045980772
0.0046206894
0.0046433675
0.0046661683
0.0046891545
0.0047123857
0.0047359149
0.0047597895
0.0047840547
0.004808751
0.0048339259
0.0048596253
0.0048858941
0.004912776
0.0049403128
0.0049685441
0.0049975089
0.0050272476
0.005057808
0.005089259
0.0051217154
0.0051554179
0.0051908219
0.0052291223
0.0052722664
0.0053298165
0.0053903701
0.0034778948
0.0019246159
0.0014615703
0.00015396634
0.0044631483
0.0044763706
0.004495436
0.004516788
0.0045388294
0.004561068
0.0045833636
0.004605681
0.0046280376
0.0046504823
0.0046730771
0.0046958851
0.0047189635
0.0047423613
0.0047661203
0.0047902795
0.0048148738
0.0048399458
0.0048655385
0.0048916967
0.0049184656
0.0049458898
0.0049740126
0.0050028759
0.0050325226
0.0050630007
0.0050943779
0.005126764
0.0051603921
0.0051956913
0.0052338267
0.0052766586
0.0053332377
0.005396024
0.0035515114
0.0019966762
0.0014205734
0.00039153512
0.0044652344
0.004483237
0.0045051938
0.0045276714
0.0045499157
0.0045719777
0.0045939622
0.0046159374
0.0046379652
0.0046601123
0.0046824458
0.0047050288
0.0047279155
0.0047511509
0.0047747712
0.0047988083
0.0048232895
0.0048482503
0.0048737282
0.0048997651
0.004926406
0.004953698
0.0049816881
0.0050104222
0.0050399462
0.0050703101
0.0051015809
0.0051338643
0.0051673856
0.0052025456
0.0052404742
0.0052829672
0.0053382605
0.005404542
0.0036370091
0.002089636
0.0013600986
0.00059249777
0.0044695043
0.0044942983
0.0045192391
0.0045425224
0.0045647312
0.0045864603
0.0046080128
0.0046295438
0.0046511558
0.0046729314
0.0046949408
0.0047172448
0.0047398944
0.0047629305
0.0047863838
0.0048102791
0.0048346361
0.0048594788
0.0048848374
0.0049107476
0.0049372512
0.0049643954
0.0049922303
0.0050208063
0.0050501735
0.0050803846
0.0051115074
0.005143644
0.0051770124
0.0052119836
0.005249647
0.0052917648
0.0053454707
0.0054158655
0.003736004
0.0022035795
0.0013165128
0.00068163653
0.0044787455
0.0045121643
0.0045391372
0.0045624473
0.0045842296
0.0046054019
0.0046263635
0.0046473271
0.0046684259
0.0046897513
0.0047113711
0.0047333402
0.0047557045
0.0047785005
0.0048017548
0.0048254857
0.004849706
0.0048744261
0.0048996671
0.0049254537
0.0049518201
0.0049788102
0.0050064748
0.0050348679
0.0050640442
0.0050940603
0.0051249858
0.0051569205
0.0051900751
0.0052247898
0.0052621091
0.0053037918
0.0053556869
0.005429685
0.0038525032
0.0023364086
0.001301891
0.00075995528
0.0045000768
0.0045402173
0.004566388
0.0045886129
0.0046094991
0.0046298338
0.0046500124
0.0046702756
0.0046907677
0.0047115743
0.0047327512
0.0047543412
0.0047763816
0.0047989041
0.0048219323
0.0048454805
0.0048695558
0.0048941571
0.0049192943
0.0049449769
0.0049712262
0.004998077
0.005025576
0.0050537777
0.0050827409
0.0051125263
0.0051432064
0.0051748798
0.0052077498
0.0052421247
0.0052790004
0.0053201489
0.0053701336
0.0054459844
0.0039932486
0.0024879013
0.0013170064
0.00081632259
0.0045529939
0.0045789827
0.0046015847
0.004622127
0.0046416671
0.004660833
0.0046800223
0.0046994668
0.0047192854
0.0047395351
0.004760246
0.0047814411
0.0048031444
0.0048253808
0.0048481718
0.0048715308
0.0048954629
0.0049199616
0.0049450221
0.0049706402
0.0049968189
0.0050235759
0.0050509457
0.0050789774
0.00510773
0.0051372673
0.0051676658
0.0051990232
0.0052315338
0.0052654746
0.0053017901
0.0053422516
0.0053903917
0.0054652897
0.0041697788
0.0026588676
0.0013681558
0.00085919832
0.0046325533
0.0046393928
0.0046548562
0.0046719935
0.0046892073
0.0047065946
0.0047244262
0.0047428332
0.0047618455
0.0047814542
0.0048016438
0.0048224052
0.0048437414
0.0048656655
0.0048881958
0.0049113479
0.0049351298
0.0049595377
0.0049845522
0.0050101585
0.0050363345
0.0050630692
0.0050903709
0.0051182707
0.005146819
0.005176079
0.005206131
0.0052370702
0.0052690776
0.005302397
0.0053379055
0.0053773104
0.005423509
0.0054935277
0.0044288111
0.0028826089
0.0014703687
0.00091121626
0.0046966967
0.0047141839
0.0047265133
0.0047389456
0.0047528556
0.0047682303
0.0047848184
0.0048024037
0.0048208365
0.0048400192
0.004859888
0.0048804034
0.0049015468
0.0049233177
0.0049457289
0.0049687988
0.004992543
0.0050169672
0.0050420563
0.005067781
0.0050941083
0.005120991
0.0051484004
0.0051763342
0.0052048179
0.0052339024
0.0052636676
0.005294195
0.0053256435
0.005358253
0.0053927697
0.0054307083
0.005475191
0.005536472
0.0047912348
0.0031677464
0.0016337918
0.00099210102
0.0047869545
0.0047915503
0.004798461
0.0048087157
0.0048217873
0.0048368753
0.004853406
0.0048710349
0.0048895642
0.0049088793
0.0049289096
0.0049496096
0.0049709528
0.0049929306
0.0050155508
0.0050388333
0.0050628019
0.0050874754
0.005112856
0.0051389146
0.0051656095
0.0051928682
0.0052206285
0.0052488434
0.0052774986
0.0053066251
0.0053362986
0.0053665561
0.0053975536
0.0054295373
0.0054631193
0.0054995086
0.005542423
0.0055949912
0.0052499219
0.0035086741
0.0018498738
0.0011004762
0.00486511
0.004856969
0.0048643841
0.0048780944
0.00489419
0.0049114164
0.0049294621
0.0049482508
0.0049677461
0.0049879197
0.0050087471
0.0050302068
0.0050522822
0.005074965
0.0050982596
0.0051221841
0.0051467676
0.0051720428
0.0051980297
0.0052247208
0.0052520597
0.0052799661
0.005308363
0.0053371401
0.0053662422
0.0053956907
0.0054255411
0.0054558484
0.0054867249
0.0055183523
0.0055511403
0.0055859335
0.0056271363
0.0056728728
0.005773259
0.0039253753
0.0021258424
0.0012367505
0.0048609483
0.0049014039
0.0049291683
0.0049517142
0.0049725174
0.0049928958
0.0050133753
0.0050341912
0.0050554588
0.0050772391
0.0050995639
0.0051224456
0.0051458857
0.005169881
0.0051944322
0.0052195511
0.0052452657
0.0052716171
0.0052986361
0.0053263336
0.0053546524
0.0053835146
0.0054128421
0.0054425584
0.0054725797
0.005502869
0.0055334206
0.0055643049
0.0055955568
0.0056272466
0.0056595887
0.005692913
0.0057318376
0.0057729696
0.0058596768
0.004442526
0.0024784673
0.0014127392
0.0049510404
0.0049826623
0.0050107331
0.0050361383
0.0050600335
0.0050832648
0.0051063742
0.0051296652
0.0051532935
0.0051773412
0.0052018533
0.0052268531
0.0052523491
0.005278339
0.0053048163
0.0053317808
0.0053592518
0.0053872633
0.005415825
0.0054449597
0.0054746942
0.0055050109
0.0055358198
0.005567051
0.0055986149
0.0056303878
0.0056622934
0.0056942945
0.0057263919
0.0057585547
0.0057910153
0.0058235078
0.0058597967
0.0058976081
0.0059685704
0.0051133223
0.0029347473
0.0016452028
0.0050808465
0.0050937281
0.0051126643
0.0051349769
0.0051590095
0.0051839467
0.005209484
0.0052355211
0.0052620188
0.0052889609
0.0053163423
0.0053441626
0.0053724209
0.005401109
0.0054302108
0.0054597107
0.0054896155
0.0055198872
0.0055505946
0.0055818128
0.0056136145
0.0056460265
0.0056789747
0.0057123198
0.0057459332
0.0057796731
0.0058134301
0.0058470891
0.0058805818
0.0059137598
0.0059468045
0.0059791399
0.0060135139
0.0060484556
0.0061055494
0.005978563
0.003532892
0.0019566708
0.0051661068
0.005189511
0.0052134902
0.0052388822
0.0052657374
0.0052937662
0.0053226928
0.0053523093
0.0053824652
0.0054130637
0.005444051
0.0054754032
0.0055071126
0.0055391715
0.0055715607
0.0056042576
0.0056372181
0.0056704512
0.005704044
0.0057380851
0.0057726258
0.0058076877
0.0058432392
0.0058791817
0.0059153531
0.0059515904
0.0059877265
0.0060235888
0.0060590379
0.0060938203
0.0061279696
0.0061606445
0.0061940605
0.0062261451
0.0062733189
0.0063268503
0.0043193096
0.0023768611
0.0052450487
0.0052777886
0.0053109221
0.0053443672
0.0053781235
0.0054121712
0.0054465173
0.0054811541
0.0055160494
0.0055511704
0.005586499
0.0056220367
0.0056578
0.0056938033
0.0057300428
0.0057664892
0.0058031294
0.0058400008
0.0058771277
0.0059145629
0.0059523729
0.0059906074
0.0060292674
0.0060682827
0.0061075099
0.006146757
0.0061858006
0.0062244151
0.006262389
0.0062993512
0.0063351882
0.0063688584
0.0064019155
0.0064315771
0.0064717415
0.0065066951
0.0053872224
0.0029575416
0.0053324771
0.0053776491
0.0054208615
0.0054628315
0.0055040397
0.0055447474
0.00558515
0.0056253826
0.0056655197
0.0057056052
0.0057456759
0.0057857757
0.005825959
0.0058662753
0.0059067454
0.0059473506
0.0059880626
0.0060289931
0.0060701284
0.0061114473
0.0061530198
0.0061949188
0.006237172
0.0062797344
0.006322478
0.0063652024
0.0064076582
0.0064495492
0.0064905888
0.0065302929
0.0065684053
0.0066037482
0.0066370747
0.0066652553
0.0066995943
0.0067218158
0.0068479623
0.0037776929
0.0054698752
0.0055162371
0.0055623127
0.0056081116
0.0056536457
0.005698915
0.0057439755
0.0057888889
0.00583369
0.0058783997
0.0059230408
0.0059676523
0.0060122963
0.006057038
0.0061019124
0.0061469088
0.0061919598
0.0062371004
0.006282376
0.0063278764
0.0063736368
0.0064196509
0.0064659289
0.006512459
0.0065591387
0.0066057677
0.0066520626
0.0066976684
0.006742226
0.0067851719
0.0068260982
0.0068636397
0.0068980701
0.006925734
0.0069545345
0.0069720887
0.007060455
0.004951984
0.0056378557
0.0056844852
0.005731306
0.005778525
0.0058261646
0.0058741496
0.0059224288
0.0059709547
0.006019663
0.0060684904
0.0061173899
0.0061663492
0.0062154019
0.0062646047
0.0063139913
0.0063635405
0.0064131768
0.0064628137
0.0065124417
0.006562163
0.0066120332
0.0066621932
0.0067127178
0.00676356
0.006814574
0.0068655237
0.0069160207
0.006965662
0.0070140488
0.0070605611
0.0071046874
0.0071448994
0.0071812221
0.0072092397
0.0072335446
0.0072485816
0.0072907604
0.0066579186
0.0058101314
0.0058581095
0.0059069413
0.0059567686
0.0060075166
0.0060590282
0.0061111792
0.0061638528
0.006216921
0.0062702632
0.0063237809
0.0063774212
0.0064311982
0.0064851687
0.006539373
0.0065937855
0.0066483109
0.0067028279
0.0067572555
0.0068115932
0.0068658861
0.006920294
0.0069749574
0.0070298948
0.0070849978
0.0071399979
0.007194606
0.0072483482
0.0073007105
0.0073509828
0.0073985313
0.0074417724
0.0074802909
0.0075098822
0.0075316951
0.0075433376
0.0075636153
0.007537685
0.0059554317
0.0060116009
0.0060681906
0.0061253489
0.0061830284
0.0062411325
0.0062996033
0.0063583766
0.0064173639
0.0064764725
0.0065356189
0.0065947619
0.0066539397
0.006713247
0.0067727615
0.0068324753
0.0068922813
0.0069520281
0.0070116036
0.0070709747
0.007130174
0.0071892879
0.007248425
0.0073076357
0.0073668472
0.0074258002
0.0074841943
0.0075415426
0.0075973077
0.0076507713
0.0077012351
0.007747179
0.007787674
0.0078195747
0.0078411156
0.0078498069
0.0078604897
0.0078019027
0.00608783
0.0061562173
0.0062233959
0.0062898678
0.0063558952
0.0064216422
0.0064872467
0.0065527752
0.006618224
0.0066835554
0.0067487158
0.0068136853
0.006878538
0.0069434215
0.0070084635
0.0070736797
0.0071389456
0.0072040681
0.0072688979
0.0073333814
0.0073975422
0.0074614647
0.0075252647
0.0075889985
0.0076525797
0.0077157273
0.0077779892
0.0078388001
0.007897602
0.0079537209
0.0080064761
0.0080544843
0.0080965933
0.0081300907
0.0081529856
0.0081605887
0.0081649815
0.0080953035
0.0062692966
0.0063361882
0.0064036008
0.0064717191
0.0065404372
0.0066096504
0.006679301
0.0067492932
0.0068194918
0.0068897557
0.0069599422
0.0070299664
0.0070998836
0.0071698615
0.0072400539
0.0073104705
0.0073809327
0.0074511679
0.0075209659
0.0075902447
0.0076590163
0.0077273703
0.0077954458
0.007863318
0.007930887
0.007997815
0.0080635467
0.0081274133
0.0081888
0.008247073
0.0083015989
0.0083511637
0.0083945454
0.0084293519
0.0084536203
0.0084631484
0.0084635083
0.0083970326
0.0064348244
0.0065028096
0.0065719833
0.0066425107
0.0067141684
0.0067867781
0.0068602215
0.0069343217
0.0070088565
0.0070836061
0.0071583482
0.0072329409
0.0073074389
0.0073820491
0.007456957
0.0075321466
0.0076073423
0.0076821516
0.0077562873
0.0078296461
0.0079022416
0.0079741838
0.0080456502
0.0081167372
0.0081873168
0.0082569593
0.0083249733
0.0083905803
0.0084531444
0.0085121459
0.0085670945
0.0086170162
0.0086607206
0.0086963199
0.0087214056
0.0087343467
0.0087346435
0.0086827102
0.0065168803
0.0065979604
0.0066784531
0.0067587704
0.0068389417
0.0069190912
0.006999369
0.0070797709
0.0071601755
0.0072404238
0.007320319
0.0073997553
0.0074788785
0.0075580044
0.0076373761
0.0077169283
0.0077962377
0.0078747582
0.0079521398
0.0080283058
0.0081033213
0.0081773628
0.0082506782
0.0083233801
0.0083952703
0.0084657629
0.0085339805
0.0085990433
0.0086603794
0.0087177211
0.0087708664
0.008819149
0.0088615173
0.0088965309
0.0089218702
0.0089371145
0.008939238
0.0089110652
0.006605847
0.0066845311
0.0067645323
0.0068458602
0.0069280863
0.0070110485
0.0070947094
0.0071788701
0.0072632134
0.0073474184
0.0074311556
0.0075142642
0.0075969372
0.0076795533
0.0077623363
0.0078450649
0.00792707
0.0080076132
0.0080863193
0.0081632112
0.0082384721
0.0083124024
0.0083853513
0.008457424
0.0085282837
0.0085971111
0.0086628104
0.0087244573
0.0087816908
0.0088346721
0.0088836225
0.008928185
0.0089674456
0.0090003041
0.0090246422
0.0090415179
0.0090436316
0.0090413473
0.0066082317
0.0066971154
0.0067854214
0.0068735476
0.006961425
0.0070492804
0.0071373956
0.0072257012
0.0073138747
0.0074015561
0.0074883719
0.0075741852
0.0076592943
0.0077441448
0.0078288933
0.0079130919
0.0079957807
0.0080760559
0.0081536094
0.0082286654
0.0083015998
0.008372893
0.0084430159
0.0085120283
0.0085793846
0.0086439713
0.0087044811
0.0087600502
0.0088106997
0.0088571803
0.0089001982
0.0089396118
0.0089745317
0.0090040526
0.0090262805
0.0090436401
0.0090451814
0.0090647524
0.0066076743
0.0066924858
0.0067791091
0.0068672026
0.0069560456
0.0070455368
0.007135788
0.0072264778
0.0073169845
0.0074067251
0.0074951845
0.0075822104
0.0076681785
0.0077535391
0.0078383039
0.0079217386
0.0080025941
0.0080798839
0.0081534976
0.0082239735
0.008291948
0.0083581271
0.0084231033
0.0084868299
0.0085484715
0.008606572
0.0086596565
0.0087070639
0.0087493773
0.0087880587
0.008824274
0.0088579133
0.0088879326
0.0089134886
0.0089329444
0.0089499263
0.0089504821
0.0089881934
0.0065367105
0.0066271668
0.0067181175
0.0068095072
0.0069008959
0.0069925607
0.0070848898
0.0071774929
0.0072695007
0.0073601533
0.0074488506
0.0075354804
0.0076205102
0.0077043587
0.0077868556
0.007866984
0.0079432795
0.0080148081
0.0080818031
0.0081452148
0.008205986
0.0082650728
0.0083231581
0.0083799986
0.0084343789
0.0084844661
0.0085286964
0.0085667767
0.0086000138
0.0086306396
0.0086601584
0.0086882358
0.0087134786
0.0087350272
0.0087515771
0.0087678297
0.0087673704
0.0088198303
0.0064299192
0.0065185553
0.0066089721
0.0067006285
0.0067926825
0.0068853394
0.0069789312
0.0070726741
0.0071652157
0.0072555417
0.0073429849
0.0074275168
0.0075097057
0.0075899193
0.0076678189
0.007742175
0.0078114346
0.0078748653
0.0079331652
0.0079877533
0.0080398921
0.008090784
0.0081411386
0.0081904049
0.0082368968
0.00827839
0.0083133379
0.0083419819
0.0083664691
0.0083897824
0.0084135619
0.0084369602
0.0084580746
0.008476036
0.0084899989
0.008505628
0.0085045397
0.0085686959
0.0062506141
0.0063420003
0.0064348649
0.006528627
0.0066224234
0.0067166714
0.0068117444
0.0069063788
0.0069986763
0.0070874447
0.0071720826
0.0072527561
0.0073301844
0.0074047154
0.0074759159
0.0075424584
0.0076028382
0.0076566376
0.0077050812
0.0077500592
0.0077931324
0.0078357219
0.0078784746
0.0079204161
0.0079593116
0.0079925503
0.0080187238
0.0080387507
0.0080556729
0.008073133
0.0080926564
0.00811261
0.008130497
0.0081455331
0.0081574926
0.0081728758
0.008171777
0.00824482
0.0060138647
0.0061050281
0.0061994289
0.0062953416
0.006391183
0.0064872495
0.0065837206
0.0066786269
0.0067694796
0.0068550708
0.0069350717
0.0070099909
0.0070807703
0.0071478028
0.0072106601
0.0072680246
0.0073185315
0.0073621179
0.007400525
0.0074360664
0.007470557
0.007505593
0.0075416615
0.0075772647
0.0076095627
0.0076355783
0.0076541573
0.007666994
0.0076780147
0.0076913826
0.0077082541
0.007725997
0.0077415272
0.0077543089
0.0077648952
0.0077804599
0.0077799648
0.0078592454
0.0057112043
0.0058095871
0.0059090605
0.0060084844
0.0061065991
0.0062040789
0.0063010119
0.0063946765
0.0064821061
0.0065623547
0.0066356143
0.0067028742
0.0067653519
0.0068235444
0.0068771004
0.0069247608
0.0069653166
0.0069990201
0.0070280603
0.0070550964
0.0070821462
0.0071109386
0.0071417158
0.0071723906
0.0071994864
0.0072196804
0.0072321648
0.0072394534
0.0072462952
0.0072572228
0.0072728075
0.0072892906
0.0073030917
0.0073141184
0.0073238264
0.0073398647
0.0073403867
0.0074234191
0.0053835019
0.0054798238
0.0055795066
0.0056799289
0.005778709
0.0058761142
0.005971721
0.0060619286
0.0061435002
0.006216093
0.0062806547
0.0063387394
0.0063918449
0.0064405981
0.006484737
0.0065230329
0.0065543767
0.0065792428
0.0066001723
0.0066200839
0.006641158
0.0066652314
0.0066922457
0.0067195024
0.0067428735
0.0067586965
0.0067665632
0.0067697985
0.0067738873
0.0067836047
0.0067987902
0.0068145215
0.0068268689
0.00683637
0.006845443
0.0068619944
0.0068636403
0.0069481625
0.0050097983
0.0051106061
0.0052137892
0.0053164082
0.0054156406
0.0055117379
0.0056040235
0.0056883508
0.0057616816
0.0058246628
0.0058791615
0.0059272879
0.0059707592
0.0060103101
0.0060457143
0.0060756827
0.0060991125
0.0061165926
0.0061309226
0.0061452022
0.0061617553
0.0061825309
0.0062071529
0.0062323306
0.0062532755
0.0062659594
0.0062703832
0.0062706391
0.0062728689
0.0062820161
0.0062971201
0.0063121324
0.0063229419
0.0063308537
0.0063392376
0.0063560472
0.0063586118
0.0064426526
0.0046137694
0.0047180302
0.0048243377
0.0049285937
0.005027014
0.0051197841
0.0052062345
0.005282157
0.0053452125
0.0053972893
0.0054411691
0.0054793844
0.0055137386
0.0055450085
0.005572901
0.0055959492
0.0056129693
0.0056245767
0.005633751
0.0056437046
0.0056569124
0.0056754724
0.0056987068
0.0057227829
0.0057422317
0.0057525952
0.0057542616
0.0057520408
0.005752688
0.0057613019
0.0057761167
0.0057900449
0.0057989451
0.0058049543
0.0058123164
0.0058288617
0.0058319141
0.0059138437
0.004204909
0.0043133371
0.0044224206
0.0045268161
0.0046219564
0.0047083992
0.0047860322
0.0048511661
0.0049025222
0.0049432182
0.0049767431
0.0050058048
0.0050321054
0.0050563767
0.0050781455
0.0050956729
0.0051076518
0.0051146712
0.0051198219
0.0051263641
0.0051369605
0.0051539235
0.0051763027
0.0051997832
0.0052181794
0.0052265138
0.0052255404
0.0052207667
0.0052195658
0.0052272132
0.0052411625
0.0052533966
0.0052598581
0.0052634941
0.0052692988
0.0052848805
0.0052879146
0.0053664813
0.0037947981
0.0039063232
0.0040164451
0.0041182374
0.0042066931
0.0042833898
0.0043493831
0.0044019912
0.0044411052
0.0044707956
0.0044949142
0.0045160403
0.0045355614
0.0045540909
0.0045709083
0.0045839865
0.0045919196
0.0045952364
0.0045970576
0.0046006248
0.0046088663
0.0046243872
0.0046459636
0.004668846
0.0046860914
0.0046921293
0.0046881142
0.0046802884
0.0046766681
0.0046826994
0.0046950647
0.0047049476
0.0047084461
0.0047092076
0.0047128377
0.0047267215
0.0047293392
0.0048037152
0.0033880871
0.0035018482
0.0036107774
0.0037064361
0.0037843991
0.0038481551
0.0039004025
0.0039397019
0.0039669489
0.0039867056
0.0040027985
0.0040173524
0.0040312103
0.0040448599
0.00405739
0.004066594
0.0040710342
0.0040711096
0.0040698494
0.0040704384
0.0040762141
0.004090121
0.004110557
0.0041323523
0.0041478049
0.0041507784
0.004142991
0.0041315152
0.0041249776
0.0041288602
0.004139038
0.0041460703
0.0041462482
0.0041437346
0.0041446453
0.0041562546
0.0041583585
0.0042282077
0.0029857831
0.0031021683
0.0032072251
0.0032923982
0.0033559273
0.0034041561
0.003441496
0.0034676419
0.0034841135
0.0034954323
0.0035050235
0.0035141883
0.003522985
0.0035319316
0.0035402169
0.0035456915
0.0035468818
0.0035438531
0.0035394066
0.003536755
0.0035398809
0.0035519721
0.0035707209
0.0035905085
0.0036030091
0.0036017954
0.0035895185
0.0035741781
0.0035647801
0.0035664568
0.0035741891
0.0035781841
0.0035749482
0.0035689545
0.0035668666
0.0035760469
0.0035780538
0.0036434882
0.0025952156
0.0027108015
0.00280598
0.0028746348
0.0029198412
0.0029509018
0.0029732248
0.002987184
0.0029944589
0.0029990255
0.0030035298
0.0030079933
0.0030115183
0.0030151515
0.0030188129
0.0030206557
0.0030188285
0.0030126626
0.0030047537
0.0029987399
0.0029995168
0.0030100295
0.0030265685
0.0030430187
0.0030508763
0.0030442065
0.0030272201
0.0030087905
0.0029976712
0.0029978757
0.0030033645
0.0030044269
0.0029978784
0.002988436
0.0029836452
0.0029910891
0.0029942073
0.0030549974
0.0022628801
0.002370627
0.0024493803
0.0024980127
0.0025249617
0.0025410667
0.0025515166
0.0025567563
0.0025580435
0.0025583804
0.00255938
0.0025595746
0.002557415
0.0025555201
0.0025552816
0.002554781
0.0025508525
0.002541816
0.0025305656
0.0025218836
0.0025214891
0.002531112
0.0025450697
0.0025571147
0.0025593455
0.0025472846
0.0025269557
0.0025075402
0.0024966411
0.0024965382
0.0025004501
0.0024992209
0.0024899211
0.0024775853
0.0024713013
0.0024788763
0.0024848094
0.0025394326
0.0020069958
0.0021060963
0.0021679148
0.0021990152
0.0022116294
0.0022164378
0.0022185596
0.0022186202
0.0022165375
0.0022138799
0.0022116719
0.0022075647
0.0022000098
0.0021936326
0.0021912593
0.0021904543
0.0021863497
0.0021759976
0.0021622423
0.0021508696
0.002148244
0.0021554006
0.0021663801
0.0021760891
0.0021768954
0.0021640561
0.0021435261
0.0021239406
0.002112131
0.0021105729
0.0021138748
0.002113125
0.0021035041
0.0020891398
0.0020808764
0.0020880189
0.0020967658
0.0021474333
0.0017714251
0.0018560159
0.0018979327
0.0019119844
0.001912335
0.0019077262
0.0019033059
0.001900267
0.001896367
0.0018911609
0.0018854714
0.0018765574
0.0018633702
0.001853015
0.0018498051
0.0018504393
0.0018479294
0.0018376797
0.0018221109
0.0018078812
0.0018018624
0.001804797
0.0018119189
0.0018205398
0.0018230776
0.0018130696
0.0017948454
0.0017756661
0.0017618539
0.001757719
0.0017610876
0.0017630934
0.0017551898
0.0017395143
0.001728762
0.0017345835
0.0017458832
0.0017933983
0.0015520305
0.0016166932
0.0016373723
0.001636452
0.0016275668
0.0016156091
0.0016059718
0.0016013091
0.0015968962
0.0015897943
0.001580823
0.0015671848
0.0015485131
0.0015346357
0.0015316229
0.0015351675
0.001535879
0.0015273737
0.0015114164
0.001495283
0.0014858028
0.0014834685
0.0014857041
0.0014932002
0.0014991127
0.0014948096
0.001481521
0.0014640083
0.0014478974
0.0014403055
0.0014437168
0.0014497562
0.00144544
0.0014299446
0.0014169828
0.0014204027
0.0014327072
0.001476624
0.0013446624
0.0013847688
0.0013854897
0.0013732485
0.001358799
0.0013415331
0.0013272877
0.001321634
0.0013178255
0.0013100169
0.001298828
0.001281502
0.0012579722
0.0012407286
0.0012382303
0.0012454232
0.0012504787
0.0012453396
0.0012309848
0.0012149189
0.0012031136
0.0011955413
0.0011920107
0.0011969557
0.0012059333
0.0012090169
0.0012031521
0.0011892181
0.0011714073
0.0011597594
0.0011622643
0.0011722539
0.0011730345
0.0011599141
0.0011457771
0.0011456247
0.0011562878
0.0011950372
0.0011440579
0.001158707
0.0011436585
0.0011244368
0.0011081742
0.0010876789
0.0010687883
0.0010617239
0.0010593174
0.001052596
0.0010412931
0.0010226338
0.00099565868
0.00097488998
0.00097207926
0.0009823538
0.00099187745
0.00099126854
0.00098059631
0.00096713734
0.00095530368
0.00094414912
0.00093501589
0.00093528443
0.00094486951
0.00095494192
0.000958073
0.00095001079
0.00093216182
0.00091654156
0.00091649082
0.00092869098
0.00093515572
0.00092683546
0.00091323524
0.00090881195
0.00091494782
0.00094615502
0.00094674999
0.00093972034
0.00091525031
0.00089291029
0.00087806008
0.00085677892
0.00083319025
0.00082334213
0.00082232274
0.00081856062
0.00080997718
0.00079367115
0.00076591616
0.00074176444
0.00073672934
0.00074780113
0.00076042416
0.00076448925
0.00075892679
0.00075039534
0.00074160931
0.00073029338
0.00071769247
0.00071206293
0.00071838126
0.00073210856
0.00074365936
0.00074344403
0.00072823111
0.0007099623
0.00070585457
0.00071704736
0.00072801012
0.00072621326
0.00071538999
0.00070736673
0.00070733528
0.00072848146
0.00075214367
0.00073183169
0.00070481988
0.00068203405
0.00067063506
0.00065159394
0.00062454251
0.00061051668
0.0006093272
0.00060917903
0.00060585509
0.00059608408
0.00057190766
0.00054608634
0.00053667709
0.00054464381
0.00055729178
0.0005647154
0.00056428071
0.00056184383
0.00055905185
0.00055182339
0.0005400324
0.0005299856
0.00052972728
0.00054109902
0.00055720691
0.00056527779
0.00055582038
0.00053776498
0.00052955567
0.00053626029
0.0005482106
0.00055267939
0.00054699919
0.00053806638
0.00053300559
0.00054248797
0.00056465972
0.00054059214
0.00051660137
0.0004954287
0.00048752851
0.00047383282
0.00044751285
0.0004298542
0.00042525169
0.00042654383
0.00042903185
0.00042845816
0.00041392331
0.00039093922
0.00037593838
0.00037625006
0.00038475778
0.00039291862
0.00039592304
0.00039889288
0.0004034375
0.00040316966
0.00039769121
0.0003880972
0.00038052802
0.00038321372
0.00039708273
0.00041094665
0.00040956222
0.00039567216
0.00038588793
0.00038682556
0.0003947995
0.00040208154
0.00040284967
0.00039715878
0.00039167954
0.00038982115
0.00039407911
0.00037162327
0.00035350391
0.0003368562
0.00032992536
0.00032357694
0.00030542496
0.00028806395
0.00027721015
0.00027487607
0.00028024549
0.00028747884
0.00028959156
0.00027572574
0.00025516145
0.00024473276
0.00024582765
0.00025196004
0.00025565419
0.00026161196
0.00027168253
0.00027731314
0.0002831411
0.00028002333
0.00026732497
0.00025914769
0.00026435062
0.00027803472
0.00028435266
0.00027790371
0.00027213889
0.00027039948
0.00027098478
0.0002746832
0.00027974851
0.00028038278
0.00028188669
0.000270763
0.00026219314
0.00023994046
0.00022701405
0.0002189879
0.00020889734
0.00020895211
0.00020620053
0.00019465953
0.00017961459
0.00016902856
0.0001711382
0.00018009275
0.00020098784
0.00020111671
0.00017663588
0.00015747804
0.00015123172