/*--------------------------------*- C++ -*----------------------------------*\
  =========                 |
  \\      /  F ield         | OpenFOAM: The Open Source CFD Toolbox
   \\    /   O peration     | Website:  https://openfoam.org
    \\  /    A nd           | Version:  7
     \\/     M anipulation  |
\*---------------------------------------------------------------------------*/
FoamFile
{
    version     2.0;
    format      ascii;
    class       volScalarField;
    location    "2000";
    object      omega;
}
// * * * * * * * * * * * * * * * * * * * * * * * * * * * * * * * * * * * * * //

dimensions      [0 0 -1 0 0 0 0];

internalField   nonuniform List<scalar> 
15296
(
2.1230062
2.1145876
2.1029245
2.0895814
2.0757121
2.0621635
2.049362
2.0374524
2.0264453
2.0162995
2.006958
1.9983628
1.9904613
1.9832078
1.9765643
1.9704993
1.9649846
1.959999
1.9555224
1.9515374
1.9480285
1.9449826
1.9423892
1.9402417
1.9385394
1.9372907
1.9365197
1.936278
1.9366846
1.9378454
1.9401832
1.9449001
1.9550923
1.9891824
2.0131552
2.7253767
1.5229077
2.4171493
2.1232017
2.1146072
2.1029431
2.0895913
2.0757246
2.0621853
2.0493951
2.0374962
2.0264988
2.0163615
2.0070272
1.998438
1.9905414
1.9832917
1.9766509
1.9705876
1.9650736
1.960088
1.9556109
1.9516252
1.9481156
1.945069
1.9424751
1.9403273
1.9386249
1.937376
1.9366044
1.9363608
1.9367639
1.9379176
1.9402381
1.9449129
1.9549385
1.9889197
2.0097174
2.7271071
1.4882401
0.80165843
2.1235124
2.1146795
2.1029728
2.0895944
2.0757282
2.0622054
2.0494368
2.0375596
2.0265819
2.0164621
2.007143
1.998567
1.9906814
1.9834405
1.9768064
1.9707479
1.965237
1.9602531
1.9557769
1.9517916
1.9482824
1.9452367
1.9426442
1.9404986
1.9387989
1.9375531
1.9367844
1.9365424
1.9369449
1.9380935
1.9403964
1.9450243
1.9548589
1.9886608
2.0066688
2.7267858
1.3702205
7.7737879
2.1239009
2.1148059
2.1030119
2.0895892
2.0757215
2.0622221
2.0494849
2.0376393
2.0266908
2.016597
2.0073009
1.9987448
1.990876
1.9836491
1.977026
1.9709756
1.9654702
1.9604899
1.9560159
1.9520321
1.9485245
1.9454808
1.9428913
1.9407498
1.9390553
1.9378155
1.937053
1.9368161
1.9372214
1.9383683
1.940656
1.9452397
1.9548852
1.9884571
2.0045437
2.7264732
1.2177399
6.3141968
2.1243549
2.1149832
2.1030592
2.0895746
2.0757046
2.0622354
2.0495394
2.0377354
2.0268253
2.016766
2.0075004
1.9989709
1.9911251
1.9839174
1.9773097
1.9712711
1.9657742
1.9607994
1.9563289
1.9523475
1.9488421
1.945801
1.9432153
1.9410791
1.9393915
1.93816
1.9374064
1.9371779
1.937589
1.9387375
1.9410127
1.9455545
1.9550135
1.9882763
2.0033016
2.7246955
1.1008476
5.4248565
2.1250161
2.115271
2.1031276
2.0895423
2.0756692
2.0622487
2.0496183
2.0378807
2.027032
2.0170278
2.0078111
1.9993247
1.9915164
1.9843407
1.9777593
1.9717412
1.9662597
1.9612954
1.9568317
1.9528549
1.949353
1.9463158
1.9437354
1.9416065
1.9399289
1.9387096
1.9379698
1.9377547
1.9381766
1.939331
1.9415932
1.946084
1.9553127
1.9880474
2.0027214
2.7180729
1.0020873
6.6224228
2.1259908
2.1157342
2.1032192
2.0894701
2.0755966
2.0622581
2.0497358
2.038107
2.0273592
2.0174454
2.008309
1.9998937
1.9921481
1.985027
1.9784921
1.9725123
1.9670614
1.9621202
1.9576736
1.9537092
1.950217
1.9471886
1.9446176
1.9424999
1.9408361
1.9396334
1.9389121
1.9387156
1.9391524
1.9403176
1.9425666
1.946994
1.9559642
1.9877634
2.003884
2.6972271
0.83413461
7.8151774
2.1272481
2.11634
2.1033047
2.0893405
2.0754795
2.0622621
2.0498939
2.0384188
2.027813
2.0180266
2.0090034
2.0006885
1.993032
1.9859897
1.9795236
1.9736026
1.9682008
1.963299
1.9588828
1.9549419
1.9514681
1.948455
1.945898
1.9437952
1.942148
1.9409645
1.9402645
1.9400897
1.9405434
1.9417243
1.9439622
1.9483183
1.9570467
1.9874636
2.0076503
2.6611395
0.53062133
10.269546
2.1288559
2.1170583
2.1033363
2.0891193
2.0753042
2.0622646
2.0501115
2.0388488
2.0284384
2.0188271
2.0099593
2.0017825
1.994249
1.9873166
1.9809483
1.9751128
1.969785
1.9649445
1.9605782
1.9566767
1.9532338
1.9502455
1.9477098
1.9456267
1.9439998
1.9428383
1.9421621
1.9420116
1.9424843
1.9436853
1.9459143
1.9501889
1.9587095
1.9871983
2.0147245
2.6026975
0.32896014
11.633713
2.1308667
2.1177933
2.1032204
2.0887562
2.0750561
2.0622769
2.0504203
2.0394461
2.0293003
2.0199259
2.0112681
2.0032778
1.9959111
1.9891286
1.9828953
1.9771806
1.9719601
1.9672115
1.9629223
1.959084
1.9556919
1.952744
1.9502413
1.9481867
1.9465865
1.9454518
1.9448032
1.9446807
1.9451757
1.9464009
1.9486239
1.9528028
1.9611642
1.9871008
2.0259252
2.4797491
1.4125176
5.23385
2.1332465
2.1183267
2.1027988
2.0881855
2.0747282
2.0623269
2.0508734
2.0402849
2.0304915
2.0214319
2.0130534
2.0053111
1.9981662
1.9915839
1.9855326
1.9799832
1.974913
1.9702963
1.966122
1.9623808
1.9590687
1.9561858
1.9537356
1.9517247
1.9501626
1.9490632
1.9484489
1.9483593
1.9488801
1.9501342
1.9523538
1.9564179
1.9646738
1.987472
2.0404889
2.3208547
2.6234767
2.7604395
2.1357195
2.1182156
2.101837
2.0873385
2.0743328
2.0624696
2.0515554
2.0414732
2.0321395
2.0234902
2.0154755
2.0080561
2.0011999
1.9948785
1.9890651
1.983734
1.9788642
1.9744296
1.9704174
1.9668174
1.9636252
1.9608417
1.9584729
1.9565286
1.9550223
1.9539715
1.9534007
1.9533504
1.9539007
1.955187
1.957404
1.9613294
1.969518
1.9888527
2.0552349
2.191132
3.2696184
3.1993596
2.1373905
2.1166787
2.1000734
2.0861877
2.0739304
2.0628129
2.052607
2.0431771
2.0344312
2.0263055
2.0187554
2.0117488
2.0052616
1.9992732
1.9937639
1.9887131
1.9841016
1.9799089
1.9761158
1.9727121
1.9696918
1.967055
1.9648085
1.9629651
1.9615422
1.9605614
1.9600496
1.960049
1.9606341
1.9619553
1.9641683
1.9679284
1.9760445
1.9919977
2.0670906
2.1171272
3.4264238
3.4949678
2.1354961
2.1127504
2.0974327
2.0848312
2.0736764
2.0635583
2.054265
2.0456586
2.0376487
2.0301783
2.0232114
2.0167249
2.0107039
2.0051365
2.0000115
1.9953155
1.9910336
1.9871528
1.9836472
1.9805092
1.9777288
1.9753036
1.9732395
1.9715501
1.970256
1.9693826
1.9689592
1.9690302
1.9696643
1.9710281
1.9732369
1.9768075
1.9847802
1.99783
2.0750143
2.0918256
3.3231044
3.7727903
2.1217984
2.1070158
2.0944461
2.0835784
2.0738903
2.0650675
2.056918
2.0493218
2.0422077
2.0355358
2.0292838
2.0234397
2.0179978
2.0129553
2.0083094
2.0040555
2.0001858
1.996694
1.9935571
1.9907662
1.9883085
1.9861782
1.9843777
1.9829186
1.9818224
1.9811165
1.9808317
1.9810141
1.9817271
1.9831499
1.9853589
1.9887251
1.9964073
2.0073467
2.0798107
2.1009695
3.1001054
4.0779655
2.1029653
2.0985829
2.0908064
2.0828498
2.0754313
2.0685124
2.0619876
2.0558008
2.049931
2.0443734
2.0391284
2.0341989
2.0295898
2.025307
2.0213569
2.0177446
2.0144723
2.0115404
2.0089454
2.0066689
2.0047007
2.0030325
2.0016606
2.0005905
1.9998403
1.9994361
1.9994055
1.9997967
2.0006661
2.0021926
2.004419
2.0075459
2.014646
2.0241244
2.0846419
2.1384798
2.7622983
4.7100178
2.1007158
2.0939043
2.0894802
2.0853512
2.0809904
2.0764398
2.0718456
2.0673207
2.0629346
2.058729
2.0547298
2.050954
2.0474149
2.0441242
2.0410935
2.0383346
2.0358588
2.033675
2.0317944
2.030211
2.0289073
2.0278866
2.0271388
2.0266622
2.0264678
2.0265708
2.0269852
2.0277626
2.0289456
2.0306512
2.0329676
2.0358873
2.0420642
2.0507821
2.0960117
2.1810294
2.5084001
4.7670689
2.0960115
2.0968406
2.0967145
2.0953875
2.0931591
2.0904098
2.0874314
2.084402
2.0814209
2.0785446
2.0758066
2.0732286
2.0708257
2.0686099
2.0665924
2.0647859
2.0632049
2.061865
2.0607835
2.0599795
2.0594403
2.0591819
2.0591873
2.0594554
2.059988
2.0607759
2.0618063
2.0631529
2.064811
2.066797
2.0692692
2.0720253
2.0771884
2.0850963
2.1180606
2.2096504
2.4064876
4.3993791
2.1066652
2.1149138
2.1165116
2.1156271
2.1139954
2.1121689
2.1103195
2.1085118
2.1067794
2.1051459
2.1036286
2.102241
2.1009929
2.0998923
2.0989456
2.0981609
2.09755
2.0971301
2.0969283
2.0969731
2.0972981
2.0979185
2.0988012
2.0999725
2.1014145
2.1030655
2.1048863
2.1068801
2.1090444
2.111349
2.1140811
2.1168541
2.1210146
2.1276585
2.1513185
2.2343035
2.3694745
3.9634101
2.164358
2.1532285
2.1480014
2.1453408
2.1437146
2.1425398
2.1416181
2.1408752
2.1402765
2.1398056
2.1394565
2.1392293
2.1391263
2.1391499
2.1393007
2.1395799
2.1399913
2.1405512
2.1413044
2.1422929
2.143592
2.145225
2.1471443
2.1492956
2.1516435
2.1541311
2.1567201
2.1593199
2.1619572
2.1645885
2.1675884
2.1706259
2.1742618
2.1792829
2.1957826
2.2652876
2.360292
3.5859143
2.1922922
2.1875356
2.1844496
2.1827784
2.182048
2.1818737
2.1820374
2.1824256
2.1829776
2.1836624
2.1844657
2.1853831
2.1864156
2.1875642
2.1888265
2.1901979
2.1916712
2.1932733
2.1950959
2.1971862
2.1995493
2.2021758
2.2050572
2.2080996
2.2112344
2.2144537
2.2177221
2.2209808
2.2241961
2.2272869
2.2304209
2.2335701
2.2373264
2.2407674
2.2519664
2.3069814
2.3719175
3.2949853
2.2149694
2.2212496
2.2248271
2.2271053
2.2288952
2.2305478
2.2322097
2.2339356
2.2357411
2.2376308
2.2396081
2.2416791
2.243852
2.2461332
2.2485222
2.2510111
2.2535821
2.2563513
2.259327
2.2625041
2.2658474
2.2693377
2.2730054
2.2768609
2.2808373
2.2848845
2.2889272
2.2929088
2.2967657
2.3003845
2.3037521
2.3068207
2.3103962
2.3126227
2.319793
2.3598529
2.4059773
3.0589612
2.2701352
2.2747303
2.2791105
2.283068
2.2866399
2.2899331
2.2930733
2.2961573
2.2992431
2.3023645
2.3055428
2.3087947
2.3121365
2.3155812
2.319133
2.3227786
2.3265383
2.3304813
2.334532
2.3386658
2.3429141
2.3473015
2.3518452
2.3565443
2.3613797
2.3662734
2.3711425
2.375897
2.3804417
2.3846143
2.3883338
2.3914203
2.3943437
2.3957184
2.3995473
2.425473
2.4598009
2.8926513
2.341696
2.3454753
2.3492284
2.3530886
2.3570745
2.3611467
2.3652905
2.3695059
2.3737919
2.3781483
2.3825764
2.3870818
2.3916762
2.3963732
2.4011778
2.4060822
2.4110657
2.416116
2.421221
2.4263887
2.4316364
2.4369877
2.4424637
2.4480673
2.4537749
2.4595221
2.4652317
2.4707723
2.476017
2.4807727
2.4848951
2.4879947
2.4904234
2.4908425
2.4917635
2.5058417
2.5303473
2.7988268
2.4227912
2.4254149
2.4288271
2.4329038
2.4375061
2.442491
2.4477637
2.4532585
2.4589215
2.4647112
2.4705987
2.4765689
2.4826222
2.4887688
2.4950137
2.501351
2.5077297
2.5140393
2.5203035
2.5266132
2.5329636
2.5393673
2.5458514
2.5524245
2.5590627
2.5656999
2.5722426
2.5785587
2.5844961
2.5898315
2.5943603
2.5974589
2.5996141
2.5989112
2.597412
2.6021668
2.6160002
2.7669063
2.4969565
2.5034259
2.5099838
2.5167611
2.5237967
2.5310542
2.5384979
2.5460927
2.5537979
2.5615762
2.5693977
2.5772456
2.5851221
2.593043
2.6010222
2.6090544
2.6171281
2.6250922
2.6329046
2.6405683
2.6481033
2.6556294
2.6632144
2.6708452
2.6784813
2.6860464
2.6934487
2.7005484
2.7071744
2.7130482
2.7179413
2.7211348
2.7228682
2.7213595
2.7179113
2.7150987
2.7193347
2.7862582
2.5723127
2.5836487
2.5947476
2.6056927
2.6165322
2.6272697
2.6379175
2.648485
2.6589684
2.6693592
2.6796489
2.6898371
2.699942
2.7099981
2.7200374
2.7300689
2.7400758
2.7500112
2.7597885
2.7692994
2.7785657
2.7876203
2.7965043
2.8052558
2.8138836
2.8223278
2.8305872
2.8384907
2.8458131
2.8522233
2.8574311
2.8607089
2.8617797
2.8598316
2.8549732
2.8463001
2.8431291
2.8514917
2.6622017
2.6781006
2.6933511
2.7081324
2.7225605
2.7366859
2.750552
2.764188
2.7776037
2.7908004
2.8037766
2.8165376
2.8291114
2.8415477
2.8538959
2.8661783
2.8783776
2.8904493
2.9023436
2.9140103
2.9254339
2.9365341
2.9472909
2.9577467
2.9679188
2.9777784
2.9872122
2.9960437
3.0040725
3.0109754
3.0164374
3.0197134
3.0203015
3.0173729
3.0112403
2.998323
2.9886664
2.9568622
2.7819498
2.7990107
2.815749
2.8323188
2.8487838
2.8651458
2.8814036
2.8975419
2.9135293
2.9293325
2.944919
2.9602689
2.9753968
2.9903522
3.0051911
3.0199389
3.034571
3.0490255
3.0632392
3.0771656
3.0907763
3.1040529
3.1169918
3.1295942
3.1418344
3.1536543
3.1648154
3.1751065
3.1843144
3.1921076
3.1981437
3.2016389
3.202075
3.1977536
3.1897732
3.1736595
3.1587362
3.0993973
2.9207951
2.9380513
2.9557499
2.9738871
2.9923635
3.0110644
3.0299046
3.0487986
3.0676559
3.0863954
3.1049431
3.1232442
3.1412953
3.159145
3.1768574
3.1944605
3.2119153
3.2291334
3.2460259
3.26253
3.2786024
3.2942202
3.3093877
3.3241127
3.3383696
3.3520686
3.3650243
3.3769686
3.3876094
3.3965613
3.4034203
3.4073726
3.4077607
3.4028093
3.3923368
3.373672
3.3554268
3.2778479
3.0471199
3.0718314
3.0962209
3.1204557
3.1445663
3.1685514
3.1924112
3.2161092
3.2395801
3.2627582
3.2855723
3.3079664
3.3299484
3.3515957
3.3730062
3.394227
3.4152078
3.4358272
3.4559666
3.4755472
3.4945118
3.512826
3.5304933
3.547528
3.5639088
3.5795299
3.5941773
3.6075455
3.6193083
3.629072
3.6364091
3.6405198
3.6405978
3.6350625
3.6227017
3.6008487
3.5805151
3.4926343
3.1876478
3.2206603
3.2529295
3.2846756
3.3159464
3.3467845
3.3772338
3.4072732
3.4368375
3.4658598
3.494259
3.5219682
3.5490095
3.5755027
3.6015961
3.627361
3.6527233
3.6775076
3.7015533
3.724766
3.7470775
3.7684445
3.7888747
3.8083952
3.8269935
3.8445474
3.8607941
3.8753732
3.8879275
3.8980834
3.9054316
3.9092169
3.9085497
3.901938
3.8881369
3.8630962
3.8394479
3.7460833
3.3732972
3.4099659
3.4468787
3.4840072
3.5211237
3.5581034
3.5948832
3.6313359
3.6672971
3.7026233
3.7371596
3.7707771
3.8034862
3.8354426
3.8668453
3.8977747
3.9280923
3.9575222
3.9858377
4.0129289
4.0387207
4.0631656
4.0862869
4.1081381
4.1287262
4.1479094
4.1653586
4.1806461
4.1933945
4.2032897
4.2099949
4.2128228
4.2108452
4.202659
4.1869729
4.1599108
4.1328002
4.034741
3.5538542
3.6031143
3.6512378
3.6984896
3.7448654
3.7904736
3.8354444
3.879745
3.923237
3.9657823
4.0071962
4.0473124
4.0861569
4.1239559
4.1609881
4.1973425
4.2327777
4.2668732
4.2993249
4.3300244
4.3589059
4.3859324
4.4111639
4.4347033
4.4565983
4.4766886
4.4945614
4.5097152
4.5217745
4.5305396
4.5358105
4.5369833
4.5331127
4.5228608
4.504986
4.4756898
4.4469562
4.3450147
3.7790105
3.8325786
3.8863142
3.9400841
3.9934936
4.0464442
4.0989702
4.1509196
4.2020132
4.2519987
4.300566
4.3474368
4.3926141
4.4363852
4.4791154
4.520886
4.5613019
4.5997536
4.6358586
4.6695424
4.7007735
4.7295473
4.7559878
4.7802789
4.8025423
4.8226036
4.8399493
4.8539983
4.8644005
4.8711293
4.8741833
4.8730425
4.8667359
4.8539557
4.8335593
4.8018402
4.7714517
4.6675935
4.0051997
4.070544
4.1351487
4.1990995
4.2621396
4.324359
4.3859798
4.4468852
4.5067115
4.5651105
4.6216338
4.6758655
4.7277778
4.7777363
4.8262278
4.8733271
4.9184429
4.9607436
4.9997886
5.0355886
5.0681836
5.0976338
5.1241642
5.1480791
5.1696175
5.1885926
5.2043615
5.2162525
5.223961
5.2276954
5.2277144
5.223566
5.2142162
5.1983426
5.1749193
5.1403734
5.1079673
5.0022691
4.2664486
4.3397287
4.4134733
4.4872778
4.5604512
4.6329135
4.7048807
4.7761132
4.8460079
4.9140101
4.9794468
5.0416979
5.1006832
5.1568745
5.210945
5.2629867
5.3121788
5.3574458
5.3983264
5.4349852
5.4675794
5.496279
5.5214563
5.5435863
5.5630783
5.5797258
5.5927098
5.6012452
5.6050851
5.6047393
5.6007904
5.592822
5.5796732
5.5599541
5.5327655
5.4946917
5.4596697
5.3513174
4.5481531
4.637022
4.7254203
4.8131519
4.8996091
4.9848897
5.0694422
5.15297
5.2345723
5.3134303
5.3885965
5.4592077
5.5251392
5.5870414
5.645897
5.7018742
5.7538979
5.8006318
5.8416394
5.8773172
5.9079922
5.934
5.9559182
5.9744528
5.9902499
6.0030623
6.0118214
6.0155878
6.0141721
6.0084576
5.9994228
5.9866409
5.9687344
5.9441858
5.9122359
5.8696473
5.8311671
5.7188621
4.8885788
4.9915755
5.0950468
5.1981984
5.2998899
5.4000495
5.4992144
5.5968593
5.6915691
5.7821344
5.8672738
5.9458573
6.017757
6.0839299
6.1458643
6.2039014
6.2566864
6.3025971
6.3412659
6.3734054
6.3995684
6.4203264
6.4365314
6.4491942
6.459281
6.4664642
6.469316
6.4666761
6.4583952
6.4458113
6.4303876
6.4116278
6.3878242
6.3572645
6.3193504
6.2710527
6.228109
6.1103179
5.2925413
5.4157791
5.5389096
5.6612112
5.7813102
5.8990686
6.0151752
6.1287531
6.2376426
6.3401437
6.4346439
6.5197866
6.5955421
6.6633784
6.7255742
6.7827772
6.8333162
6.8752394
6.908283
6.9335637
6.9519194
6.9642416
6.9717385
6.9758139
6.9778605
6.9774068
6.9725091
6.9616865
6.9447886
6.9237005
6.9004845
6.8745078
6.8435908
6.8057499
6.7605779
6.7052945
6.6568555
6.5319869
5.7858853
5.9298845
6.0757335
6.2213495
6.3640607
6.5030448
6.6389194
6.7702347
6.8938513
7.007577
7.1096143
7.19854
7.2746098
7.3400938
7.3984469
7.4507907
7.4950763
7.5289511
7.552275
7.5666559
7.5732715
7.5734289
7.5687806
7.5612275
7.5527287
7.5425788
7.5281035
7.5073595
7.4801194
7.4489185
7.4165666
7.3822205
7.3430595
7.2967383
7.2430769
7.17959
7.1247527
6.9912419
6.3606697
6.5417784
6.7220715
6.8998246
7.0717712
7.236578
7.394991
7.5450253
7.6825193
7.8050096
7.9108712
7.9989155
8.0699358
8.1273588
8.1762983
8.2185378
8.2515518
8.2724787
8.2812943
8.2801693
8.2706541
8.2545655
8.2340833
8.2117271
8.1902166
8.1685036
8.1429014
8.1108066
8.0717826
8.0291157
7.9865523
7.9429704
7.8947157
7.8389711
7.7758175
7.7030996
7.6412371
7.4975399
7.0730113
7.2930292
7.5131523
7.7295959
7.9364163
8.1304838
8.3124297
8.4798261
8.6276542
8.7536631
8.8569867
8.9370863
8.9955426
9.037305
9.0697127
9.0954105
9.1112474
9.1137017
9.1028088
9.0813299
9.0511665
9.0147159
8.9747451
8.9345401
8.8978755
8.8632573
8.8256276
8.7814409
8.7298182
8.6748655
8.6215064
8.5683083
8.5105904
8.4449291
8.3716716
8.2889888
8.2198578
8.0643695
7.9348775
8.2097121
8.482483
8.7475618
8.9955134
9.2207472
9.4242252
9.6039009
9.7546364
9.8752767
9.9665371
10.029004
10.065186
10.081853
10.089217
10.090992
10.083207
10.061487
10.025796
9.9794177
9.924475
9.8639634
9.8012569
9.7406054
9.6873194
9.6394159
9.5900047
9.5341734
9.4701857
9.4029458
9.3388743
9.2763159
9.20943
9.1340074
9.0505785
8.9575422
8.8813159
8.7122031
8.9835277
9.3307593
9.6726334
9.9987587
10.293912
10.549329
10.767673
10.949304
11.090591
11.192809
11.25923
11.291985
11.29437
11.275103
11.247991
11.218054
11.180282
11.129244
11.064586
10.989861
10.907091
10.819799
10.731946
10.649049
10.578774
10.51874
10.459596
10.394378
10.319765
10.241269
10.167279
10.096301
10.021371
9.9372126
9.8442291
9.7407627
9.6579499
9.4728499
10.260086
10.709081
11.143311
11.544341
11.88966
12.168102
12.38712
12.553157
12.666782
12.73329
12.759333
12.748739
12.704963
12.638418
12.567288
12.498228
12.425048
12.341142
12.24542
12.141091
12.029381
11.914169
11.800015
11.694232
11.608206
11.539494
11.475317
11.405521
11.323971
11.236311
11.153683
11.075788
10.994959
10.904283
10.803194
10.68935
10.600538
10.39595
11.835313
12.428327
12.983457
13.470407
13.86068
14.144537
14.33942
14.463404
14.525075
14.535157
14.503852
14.436375
14.334962
14.21073
14.086982
13.972638
13.86059
13.74327
13.618071
13.486483
13.347582
13.205368
13.065329
12.937555
12.839334
12.768781
12.708061
12.641903
12.559351
12.465302
12.375114
12.292072
12.208922
12.115735
12.008939
11.884379
11.789703
11.559796
13.830646
14.617563
15.322483
15.897194
16.313546
16.571323
16.704749
16.750837
16.731331
16.663038
16.558508
16.423524
16.256731
16.067278
15.884066
15.720031
15.568768
15.422668
15.27577
15.12478
14.964106
14.79783
14.633811
14.486891
14.383504
14.323123
14.279928
14.230165
14.154746
14.056458
13.958042
13.871525
13.792289
13.703714
13.59446
13.457041
13.35502
13.089471
16.398217
17.465527
18.356518
19.007792
19.413446
19.597753
19.618889
19.542431
19.410345
19.244397
19.056016
18.850384
18.618696
18.3612
18.112376
17.895269
17.709537
17.548941
17.398584
17.243653
17.070093
16.88338
16.698275
16.538294
16.443014
16.413596
16.410705
16.395986
16.336527
16.231671
16.11963
16.03192
15.969204
15.897939
15.788544
15.63015
15.514992
15.198698
19.326108
20.754633
21.836788
22.527294
22.876227
22.940527
22.806123
22.580063
22.32849
22.071278
21.81519
21.561484
21.284634
20.96604
20.650046
20.383782
20.182434
20.040012
19.918999
19.783372
19.609698
19.407356
19.204221
19.039294
18.970407
18.998519
19.062806
19.103191
19.063599
18.938321
18.800309
18.719541
18.697488
18.660844
18.546821
18.348126
18.20618
17.835576
22.311776
24.100385
25.337312
26.025286
26.295333
26.227538
25.922036
25.539248
25.179748
24.856887
24.570259
24.310598
24.018889
23.643231
23.247827
22.925041
22.718245
22.622028
22.563069
22.476753
22.330457
22.129528
21.908823
21.724931
21.666411
21.747733
21.892269
22.014845
22.015831
21.864494
21.682347
21.605255
21.641306
21.660008
21.548286
21.29669
21.106964
20.65871
25.889481
28.134703
29.529747
30.174414
30.336293
30.116988
29.600125
29.019976
28.543684
28.177849
27.908649
27.705023
27.446104
27.004203
26.479763
26.060168
25.844153
25.828578
25.880313
25.89407
25.828699
25.666764
25.437824
25.207524
25.114389
25.225398
25.468594
25.729295
25.821679
25.641741
25.378234
25.283937
25.396067
25.504758
25.415102
25.094456
24.819025
24.230965
30.273258
33.10305
34.669545
35.218473
35.241296
34.871074
34.105918
33.26997
32.656154
32.276233
32.099775
32.056317
31.925312
31.406442
30.656342
30.053646
29.801094
29.898944
30.115993
30.297204
30.406796
30.366152
30.178851
29.875116
29.651644
29.710813
30.045947
30.522219
30.801342
30.609354
30.213772
30.05071
30.231587
30.461632
30.437137
30.05392
29.657916
28.826859
35.811151
39.411783
41.164516
41.53824
41.37972
40.904106
39.881516
38.703802
37.893017
37.516495
37.53955
37.82436
38.025004
37.437642
36.28271
35.323184
34.95758
35.18634
35.616466
36.045262
36.486464
36.726804
36.735598
36.368728
35.833336
35.63676
35.985216
36.769042
37.407262
37.274969
36.702205
36.365118
36.532184
36.88095
37.010721
36.643983
36.139373
34.899681
43.156314
47.726195
49.659384
49.745603
49.327041
48.881168
47.691725
46.056694
44.89186
44.47614
44.826143
45.684115
46.664836
46.105919
44.227991
42.57531
41.926029
42.263225
42.920564
43.67234
44.676224
45.452114
46.039321
45.761199
44.612526
43.728654
43.846407
45.004792
46.285846
46.406786
45.691984
45.009053
44.909725
45.265912
45.71231
45.602881
45.160985
43.259082
53.495784
59.125086
61.178991
60.870048
60.009692
59.883736
58.904295
56.703072
54.814647
54.142917
54.914555
56.626831
59.36025
59.187195
56.04447
53.068968
51.798827
52.144318
52.96544
54.070616
55.907343
57.503722
59.473113
59.795566
57.627924
55.271387
54.587731
56.054381
58.379337
59.158439
58.623661
57.417015
56.477561
56.458512
57.456961
58.11466
58.322338
55.402293
69.106225
75.40213
77.427279
76.766604
75.019436
75.735496
76.03657
73.3183
69.953533
68.399143
69.507601
72.20267
78.677834
79.779406
74.526115
69.141072
66.663142
66.796369
67.581978
68.958667
71.789205
74.258912
79.036744
81.059879
77.563939
72.640113
70.041898
71.401669
75.1981
77.27754
77.99454
76.382704
73.531648
72.140596
73.879801
76.085786
78.460043
74.115765
94.395911
99.682297
101.38839
100.95455
97.315309
99.64885
103.7428
101.09936
95.097343
91.185763
92.034894
95.209133
108.93995
112.76842
104.49959
95.253266
90.753045
90.30494
90.653661
91.991892
95.498452
98.126349
107.61151
112.68886
108.3649
100.43881
94.036153
94.137648
99.534769
103.52497
108.07862
107.42478
101.12872
95.962892
98.128825
102.52274
110.35088
104.48137
138.34134
138.42464
139.48876
140.9519
133.5198
138.57492
150.69329
149.39609
140.88463
131.77638
130.76701
132.55697
157.9007
163.48853
153.32778
140.32407
133.48455
132.06063
131.34824
131.95706
134.69059
135.4425
150.85449
157.61579
155.32252
148.7995
135.50165
132.02144
138.19571
143.65886
156.58223
160.93863
150.99481
136.38901
137.366
143.20114
161.67268
155.50043
208.39382
198.30449
198.62675
204.71209
192.40712
199.71568
221.13717
221.36744
219.73253
201.42603
196.58718
193.50232
226.10701
225.98362
223.30032
212.07807
204.70447
202.43445
200.41872
199.33452
198.56843
194.95393
211.69595
213.80632
219.87166
230.90317
203.52549
194.52177
198.57761
202.591
224.95362
242.49439
238.39224
200.23798
198.00148
201.70066
231.80809
231.48507
308.11191
287.63269
289.01458
301.95943
288.49415
292.95427
316.06773
311.48796
345.03413
309.54073
306.92164
295.44231
314.66237
294.24821
318.02791
319.66619
320.18728
318.56165
315.52908
311.5272
304.49347
295.23513
299.47433
289.63193
310.22753
367.20623
298.99215
296.43279
294.93332
292.66044
314.96935
360.02692
394.49245
278.62249
289.96521
288.00019
321.1528
338.58362
495.793
496.16119
545.84002
530.86676
545.76693
553.90755
534.24975
537.72623
547.44918
480.3337
613.75909
595.42774
543.54259
477.57828
498.44306
509.37265
616.38031
637.80668
634.51002
624.23466
608.98535
592.4081
554.02949
529.83759
545.49363
578.60729
322.84057
568.35397
574.7918
556.76554
533.71346
577.91564
771.95596
185.26654
528.80434
541.82843
516.23971
548.54988
950.14742
996.33977
1662.3482
1453.3304
1330.2242
1665.9986
1572.7382
1794.1826
1189.1354
3629.2912
1711.8779
1739.0431
1612.4497
1466.0848
993.46739
242.97769
1439.432
1773.2959
1772.9742
1755.8633
1741.8117
1723.102
1651.3556
1667.0774
1614.257
1364.1543
3507.8875
1467.4421
1683.9163
1656.028
1547.8508
1527.8856
1632.5497
3449.8591
1319.2121
1629.5148
1485.2152
1478.057
14654.586
14695.003
14595.855
14598.256
14596.184
14531.138
14526.236
14515.447
14480.865
14619.33
14391.814
14378.108
14379.267
14372.496
14373.777
14406.31
14286.915
14222.154
14199.69
14180.184
14160.438
14142.905
14133.675
14110.471
14082.311
14032.591
14286.811
14019.776
13982.636
13964.187
13951.251
13933.167
14150.187
14185.166
13875.188
13836.279
13834.846
13805.519
15360.561
17213.588
19179.519
20677.854
22076.125
23314.581
24380.832
25351.304
26227.596
26999.737
27675.922
28260.452
28755.004
29160.6
29478.933
29712.182
29862.745
29934.277
29931.458
29855.247
29709.388
29498.061
29225.528
28896.181
28513.225
28081.388
1208.6051
1661.0649
2168.2147
2890.4408
3079.0876
3136.0956
3466.9188
3773.6654
4018.1579
4279.7112
4539.2295
4780.559
4998.3647
5186.7315
5342.3276
5462.924
5549.3374
5600.4347
5612.9884
5602.3352
5572.2941
5524.9612
5461.606
5383.2193
5289.1558
5180.3032
492.81049
519.56791
639.45173
914.26282
1127.1212
1248.0696
1357.6325
1458.6599
1558.1021
1661.6096
1765.8312
1868.6376
1967.9579
2061.8116
2147.2961
2221.7421
2282.7756
2328.7242
2357.9661
2372.0691
2372.099
2358.9599
2333.5872
2297.085
2250.2603
2194.2918
348.54977
311.68628
322.17119
424.37402
578.29789
689.23802
757.86491
815.9771
867.30275
913.8571
958.43476
1001.5996
1043.2215
1085.1921
1124.6908
1160.1527
1190.2914
1214.1222
1230.8225
1239.9819
1241.6395
1236.0559
1223.6206
1204.9396
1180.6465
1151.4302
287.62407
238.62705
220.69406
255.79279
338.82703
423.98579
491.14673
544.07441
582.92784
613.33243
639.8106
663.70742
685.67296
708.22588
729.5292
748.7055
765.08601
778.16043
787.57341
792.86085
793.87192
790.68955
783.49946
772.64121
758.55129
741.64621
239.01392
192.06225
163.74149
167.72149
200.51656
247.97365
300.5959
348.31966
383.93982
410.21527
431.15324
448.55922
463.45971
476.33909
487.92519
498.13993
506.72867
513.49901
518.40044
521.14999
521.58479
519.72723
515.68137
509.64225
501.92427
492.7417
194.58896
159.11384
131.22544
123.60772
133.21562
154.59627
184.45374
216.74238
244.96391
267.86731
286.3798
301.33881
313.64164
323.86591
332.62563
340.15087
346.42987
351.41213
355.13799
357.4872
358.34673
357.72032
355.68475
352.38046
348.0863
342.87052
156.67987
133.20975
110.64197
99.774587
99.749944
108.28957
123.74834
142.75639
161.62842
178.75792
193.59392
206.01812
216.37291
225.01674
232.32633
238.54544
243.7609
247.99228
251.30493
253.67173
255.03006
255.37383
254.7528
253.26278
251.14855
248.37927
118.8818
110.28939
95.337988
84.733847
80.690693
82.768037
89.972693
100.38246
112.00541
123.5972
134.3382
143.79239
151.94878
158.9252
164.89273
170.00668
174.35536
177.97782
180.93368
183.23632
184.85999
185.79641
186.07194
185.74295
185.01052
183.78319
81.427702
89.917796
82.566118
73.720566
68.295881
67.088051
69.616398
74.765601
81.413349
88.701876
95.933099
102.65171
108.69385
114.031
118.70131
122.77172
126.29677
129.30875
131.85139
133.94923
135.59882
136.79607
137.55411
137.90151
137.99651
137.71217
58.039089
73.141483
71.117994
64.634213
59.293901
56.610011
56.578667
58.609308
62.039643
66.28494
70.829444
75.30255
79.510635
83.362689
86.827671
89.91261
92.636469
95.015881
97.077868
98.845173
100.32532
101.52049
102.43958
103.096
103.61366
103.84755
45.420953
59.84948
60.716326
56.554538
52.099755
49.039322
47.73638
47.986366
49.418148
51.63874
54.281543
57.066482
59.818935
62.43507
64.857633
67.062875
69.045628
70.808459
72.364897
73.731699
74.920059
75.937079
76.79222
77.492972
78.138548
78.58071
35.169657
48.861191
51.260061
49.092725
45.869179
43.081488
41.301284
40.605641
40.839887
41.761308
43.118235
44.704723
46.376873
48.038342
49.627104
51.107261
52.460749
53.680613
54.77083
55.741771
56.604104
57.367172
58.041832
58.634384
59.226167
59.677816
27.514517
38.989805
42.486077
42.070126
40.141374
37.967266
36.199512
35.092817
34.656324
34.773289
35.286381
36.05118
36.955689
37.917981
38.880243
39.803962
40.665419
41.451968
42.16105
42.797331
43.368728
43.884158
44.354593
44.786313
45.246389
45.612398
21.495428
30.485353
34.684258
35.586897
34.783197
33.339828
31.875587
30.716045
29.976676
29.641045
29.631191
29.856539
30.236695
30.706949
31.217802
31.733123
32.228063
32.687274
33.104085
33.478668
33.815542
34.121601
34.406507
34.676246
34.985567
35.232643
16.105712
23.050895
27.232101
28.848524
28.965673
28.318882
27.364333
26.402631
25.604118
25.032556
24.684021
24.523183
24.505661
24.588464
24.734325
24.913127
25.102007
25.285087
25.453174
25.602797
25.734838
25.853148
25.964801
26.074453
26.223802
26.334229
11.601698
16.940274
20.791707
22.693901
23.449922
23.47326
23.0703
22.475432
21.852722
21.297408
20.851118
20.521549
20.29761
20.159259
20.083975
20.050617
20.041343
20.042517
20.045014
20.04391
20.037839
20.028163
20.019258
20.014108
20.042727
20.048091
8.8178058
12.810505
15.870585
17.885001
18.982531
19.430353
19.44521
19.198895
18.822666
18.407997
18.011622
17.663955
17.376389
17.147352
16.96794
16.826428
16.711138
16.612097
16.521877
16.435772
16.351636
16.269481
16.191829
16.120402
16.076797
16.019015
6.9517781
9.8835149
12.23743
14.191608
15.410606
16.095967
16.394693
16.424178
16.281054
16.040429
15.756946
15.46816
15.197026
14.954191
14.741435
14.555432
14.390673
14.241396
14.102717
13.971147
13.844765
13.723134
13.607715
13.499464
13.414047
13.319962
5.6830985
7.7976235
9.6292431
11.281457
12.555201
13.371463
13.850951
14.077409
14.122031
14.043071
13.886453
13.68789
13.473615
13.260402
13.056918
12.866187
12.687961
12.520496
12.361704
12.209815
12.063744
11.923228
11.789287
11.662533
11.554485
11.441221
4.7975596
6.3075535
7.7330389
9.0579971
10.285709
11.166989
11.749592
12.10492