/*--------------------------------*- C++ -*----------------------------------*\
  =========                 |
  \\      /  F ield         | OpenFOAM: The Open Source CFD Toolbox
   \\    /   O peration     | Website:  https://openfoam.org
    \\  /    A nd           | Version:  7
     \\/     M anipulation  |
\*---------------------------------------------------------------------------*/
FoamFile
{
    version     2.0;
    format      ascii;
    class       surfaceScalarField;
    location    "2000";
    object      phi;
}
// * * * * * * * * * * * * * * * * * * * * * * * * * * * * * * * * * * * * * //

dimensions      [0 3 -1 0 0 0 0];

internalField   nonuniform List<scalar> 
30289
(
4.5721602e-07
5.8068443e-09
4.5145604e-07
5.7599794e-09
4.4563233e-07
5.8237179e-09
4.3980719e-07
5.8251333e-09
4.3399794e-07
5.8092514e-09
4.2820636e-07
5.7915775e-09
4.2243879e-07
5.7675793e-09
4.1670112e-07
5.7376655e-09
4.1099703e-07
5.7040937e-09
4.0532921e-07
5.6678197e-09
3.9969984e-07
5.6293624e-09
3.9411047e-07
5.5893745e-09
3.8856192e-07
5.5485542e-09
3.8305441e-07
5.5075085e-09
3.7758772e-07
5.4666843e-09
3.7216137e-07
5.4263561e-09
3.6677469e-07
5.3866716e-09
3.6142694e-07
5.3477593e-09
3.5611709e-07
5.3098438e-09
3.5084379e-07
5.2733035e-09
3.4560509e-07
5.2386945e-09
3.4039828e-07
5.206818e-09
3.3521941e-07
5.1788646e-09
3.300628e-07
5.1566071e-09
3.2492003e-07
5.1427709e-09
3.1977852e-07
5.1415134e-09
3.146192e-07
5.1593177e-09
3.0941335e-07
5.2058511e-09
3.0411639e-07
5.2969601e-09
2.9865983e-07
5.4565616e-09
2.9293151e-07
5.7283159e-09
2.8674892e-07
6.1825963e-09
2.7979939e-07
6.9495281e-09
2.7153946e-07
8.2599281e-09
2.6043049e-07
1.1108968e-08
2.4364485e-07
1.6785644e-08
2.1285858e-07
3.0786266e-08
1.7501992e-08
1.9535659e-07
1.3716457e-06
2.3243111e-08
1.3543636e-06
2.3042135e-08
1.3368932e-06
2.3294147e-08
1.3194182e-06
2.330013e-08
1.3019907e-06
2.3236666e-08
1.2846165e-06
2.3165833e-08
1.2673143e-06
2.3069757e-08
1.2501019e-06
2.2950079e-08
1.2329902e-06
2.2815822e-08
1.2159872e-06
2.2670818e-08
1.1990994e-06
2.2517103e-08
1.1823316e-06
2.2357213e-08
1.1656863e-06
2.2193871e-08
1.1491643e-06
2.2029489e-08
1.1327651e-06
2.1865901e-08
1.1164872e-06
2.1704279e-08
1.1003285e-06
2.1545284e-08
1.0842868e-06
2.1389476e-08
1.0683589e-06
2.1237762e-08
1.0525406e-06
2.1091639e-08
1.036826e-06
2.0953296e-08
1.0212069e-06
2.0825886e-08
1.0056717e-06
2.0714108e-08
9.902033e-07
2.0624969e-08
9.7477681e-07
2.0569263e-08
9.5935486e-07
2.056346e-08
9.438809e-07
2.0633275e-08
9.2826972e-07
2.0817038e-08
9.1238908e-07
2.11776e-08
8.9603599e-07
2.1809652e-08
8.7887824e-07
2.2886061e-08
8.6037573e-07
2.4685104e-08
8.3960447e-07
2.7720794e-08
8.1497943e-07
3.2884967e-08
7.8198031e-07
4.4108087e-08
7.3240084e-07
6.6365113e-08
6.4064435e-07
1.2254276e-07
4.7632589e-08
6.1051375e-07
2.2860623e-06
5.2325754e-08
2.2572571e-06
5.1847277e-08
2.2281407e-06
5.2410557e-08
2.1990164e-06
5.2424433e-08
2.1699715e-06
5.2281641e-08
2.1410152e-06
5.212205e-08
2.1121792e-06
5.1905741e-08
2.0834929e-06
5.1636411e-08
2.0549744e-06
5.1334383e-08
2.0266369e-06
5.1008297e-08
1.9984913e-06
5.0662665e-08
1.9705455e-06
5.0303048e-08
1.9428039e-06
4.9935439e-08
1.9152682e-06
4.9565227e-08
1.8879375e-06
4.9196614e-08
1.8608094e-06
4.8832377e-08
1.8338805e-06
4.8474135e-08
1.8071468e-06
4.8123228e-08
1.7806028e-06
4.7781728e-08
1.7542414e-06
4.7452986e-08
1.7280529e-06
4.7141876e-08
1.7020234e-06
4.68554e-08
1.6761335e-06
4.6604003e-08
1.6503551e-06
4.6403299e-08
1.624647e-06
4.6277357e-08
1.5989476e-06
4.6262936e-08
1.5731633e-06
4.6417495e-08
1.5471537e-06
4.682665e-08
1.5207005e-06
4.7630855e-08
1.4934687e-06
4.9041373e-08
1.4649108e-06
5.1443996e-08
1.434137e-06
5.545889e-08
1.3996261e-06
6.223169e-08
1.3587991e-06
7.3711959e-08
1.3042501e-06
9.8657177e-08
1.222706e-06
1.479092e-07
1.0755866e-06
2.6966215e-07
8.7283058e-08
1.0359361e-06
3.2004557e-06
9.3060609e-08
3.1601274e-06
9.2175614e-08
3.1193658e-06
9.3172119e-08
3.0785929e-06
9.3197338e-08
3.0379312e-06
9.2943371e-08
2.9973939e-06
9.26593e-08
2.9570252e-06
9.2274506e-08
2.916866e-06
9.1795572e-08
2.8769417e-06
9.1258707e-08
2.8372706e-06
9.0679319e-08
2.797868e-06
9.0065301e-08
2.7587448e-06
8.9426264e-08
2.7199076e-06
8.8772604e-08
2.681359e-06
8.8113814e-08
2.6430982e-06
8.7457495e-08
2.6051217e-06
8.6808836e-08
2.5674249e-06
8.6170964e-08
2.5300017e-06
8.5546429e-08
2.4928444e-06
8.4938985e-08
2.4559428e-06
8.4354581e-08
2.4192829e-06
8.3801798e-08
2.3828454e-06
8.329292e-08
2.3466031e-06
8.2846278e-08
2.3105171e-06
8.2489336e-08
2.2745299e-06
8.2264487e-08
2.2385563e-06
8.2236531e-08
2.202467e-06
8.2506883e-08
2.166067e-06
8.3226636e-08
2.129054e-06
8.4643788e-08
2.0909647e-06
8.7130722e-08
2.0510409e-06
9.136775e-08
2.0080533e-06
9.8446547e-08
1.959898e-06
1.1038692e-07
1.9030555e-06
1.3055452e-07
1.8273399e-06
1.7437279e-07
1.7146902e-06
2.6055883e-07
1.5124303e-06
4.7192208e-07
1.3492888e-07
1.4647845e-06
4.1148182e-06
1.4545538e-07
4.0629643e-06
1.4402951e-07
4.0105589e-06
1.4557753e-07
3.9581382e-06
1.4561799e-07
3.9058605e-06
1.4522107e-07
3.8537432e-06
1.4477666e-07
3.8018427e-06
1.44175e-07
3.7502118e-06
1.4342641e-07
3.6988829e-06
1.4258763e-07
3.6478794e-06
1.4168283e-07
3.5972205e-06
1.4072417e-07
3.5469206e-06
1.3972621e-07
3.4969885e-06
1.3870474e-07
3.4474279e-06
1.3767438e-07
3.3982382e-06
1.3664722e-07
3.3494152e-06
1.3563176e-07
3.3009529e-06
1.3463332e-07
3.2528431e-06
1.336562e-07
3.2050757e-06
1.327064e-07
3.1576371e-06
1.3179323e-07
3.1105089e-06
1.3092999e-07
3.0636662e-06
1.3013561e-07
3.0170741e-06
1.2943835e-07
2.9706828e-06
1.2888064e-07
2.9244192e-06
1.2852808e-07
2.8781747e-06
1.2848102e-07
2.8317848e-06
1.288968e-07
2.7850017e-06
1.3000975e-07
2.7374407e-06
1.3220473e-07
2.6885128e-06
1.3605868e-07
2.6372545e-06
1.4262605e-07
2.5821054e-06
1.535956e-07
2.5203945e-06
1.7209782e-07
2.4477093e-06
2.032397e-07
2.351189e-06
2.7089313e-07
2.2082886e-06
4.0345924e-07
1.9522902e-06
7.2792044e-07
1.9906825e-07
1.8881509e-06
8.121868e-06
2.4889199e-07
8.019483e-06
2.4641456e-07
7.9160533e-06
2.4900717e-07
7.8125887e-06
2.4908265e-07
7.7094043e-06
2.4840548e-07
7.6065374e-06
2.4764351e-07
7.5040996e-06
2.4661283e-07
7.4021946e-06
2.453314e-07
7.3008857e-06
2.4389654e-07
7.2002184e-06
2.4235007e-07
7.1002303e-06
2.4071235e-07
7.0009494e-06
2.3900706e-07
6.9023944e-06
2.3725973e-07
6.8045742e-06
2.3549463e-07
6.7074886e-06
2.337328e-07
6.6111304e-06
2.3198998e-07
6.5154871e-06
2.302766e-07
6.4205423e-06
2.2860103e-07
6.3262746e-06
2.2697404e-07
6.2326562e-06
2.2541162e-07
6.13965e-06
2.239362e-07
6.0472061e-06
2.225795e-07
5.9552557e-06
2.2138884e-07
5.8637008e-06
2.2043548e-07
5.772399e-06
2.1982989e-07
5.6811386e-06
2.1974138e-07
5.5895995e-06
2.2043593e-07
5.4972994e-06
2.2230982e-07
5.4034899e-06
2.2601424e-07
5.3070252e-06
2.3252337e-07
5.2060334e-06
2.4361786e-07
5.0974866e-06
2.6214243e-07
4.9761993e-06
2.9338514e-07
4.8337584e-06
3.4568056e-07
4.6454525e-06
4.591991e-07
4.3684344e-06
6.8047728e-07
3.8715494e-06
1.2248054e-06
3.8144256e-07
3.6891751e-06
1.1783282e-05
3.9905416e-07
1.1634701e-05
3.9499572e-07
1.1484658e-05
3.9905007e-07
1.1334558e-05
3.991825e-07
1.1184863e-05
3.9810076e-07
1.1035629e-05
3.9687688e-07
1.0887019e-05
3.9522258e-07
1.0739184e-05
3.9316714e-07
1.0592213e-05
3.9086718e-07
1.0446172e-05
3.8839069e-07
1.0301115e-05
3.8576982e-07
1.0157082e-05
3.8304038e-07
1.0014101e-05
3.8024058e-07
9.8721877e-06
3.7740777e-07
9.7313445e-06
3.7457604e-07
9.5915619e-06
3.7177259e-07
9.452822e-06
3.6901648e-07
9.3151e-06
3.6632302e-07
9.1783635e-06
3.6371053e-07
9.0425702e-06
3.6120488e-07
8.9076648e-06
3.5884167e-07
8.7735736e-06
3.5667064e-07
8.6401966e-06
3.5476587e-07
8.5073929e-06
3.5323921e-07
8.3749582e-06
3.5226454e-07
8.2425907e-06
3.5210889e-07
8.1098337e-06
3.5319289e-07
7.9760002e-06
3.5614334e-07
7.8400234e-06
3.6199107e-07
7.7002721e-06
3.7227463e-07
7.5540832e-06
3.8980683e-07
7.3971595e-06
4.1906613e-07
7.2221273e-06
4.6841734e-07
7.0172882e-06
5.5051966e-07
6.7479155e-06
7.2857175e-07
6.3552033e-06
1.0731895e-06
5.6453614e-06
1.9346472e-06
7.3646894e-07
5.2903351e-06
1.6640493e-05
6.1123453e-07
1.6430608e-05
6.0488034e-07
1.621874e-05
6.1091813e-07
1.6006782e-05
6.1114042e-07
1.5795392e-05
6.0949085e-07
1.5584656e-05
6.0761355e-07
1.5374801e-05
6.0507717e-07
1.5166041e-05
6.0192724e-07
1.4958503e-05
5.9840486e-07
1.4752278e-05
5.9461615e-07
1.4547438e-05
5.9060986e-07
1.4344041e-05
5.8643752e-07
1.4142128e-05
5.8215311e-07
1.3941725e-05
5.7781071e-07
1.3742839e-05
5.7346269e-07
1.3545458e-05
5.6915359e-07
1.3349558e-05
5.6491648e-07
1.3155103e-05
5.6077805e-07
1.2962045e-05
5.5676829e-07
1.2770322e-05
5.5292755e-07
1.2579854e-05
5.4931e-07
1.2390534e-05
5.4599031e-07
1.2202221e-05
5.4307903e-07
1.2014717e-05
5.4074348e-07
1.1827737e-05
5.3924449e-07
1.1640862e-05
5.3898344e-07
1.145346e-05
5.4059458e-07
1.126458e-05
5.4502337e-07
1.1072745e-05
5.5382617e-07
1.08757e-05
5.6931976e-07
1.0669765e-05
5.9574171e-07
1.0449024e-05
6.3980785e-07
1.0203286e-05
7.1415495e-07
9.9167937e-06
8.3701195e-07
9.5421869e-06
1.1031785e-06
9.002286e-06
1.6130904e-06
8.0208499e-06
2.9160834e-06
1.3760753e-06
7.3812435e-06
2.3047615e-05
9.0523214e-07
2.2756833e-05
8.9566301e-07
2.2463433e-05
9.0431736e-07
2.2169894e-05
9.0467976e-07
2.1877134e-05
9.0225084e-07
2.158528e-05
8.9946802e-07
2.1294648e-05
8.957087e-07
2.1005534e-05
8.9104099e-07
2.0718115e-05
8.8582417e-07
2.0432512e-05
8.802192e-07
2.0148824e-05
8.7429823e-07
1.9867128e-05
8.6813289e-07
1.9587485e-05
8.617959e-07
1.9309934e-05
8.5536168e-07
1.903449e-05
8.4890706e-07
1.8761142e-05
8.4250189e-07
1.8489857e-05
8.362011e-07
1.8220586e-05
8.3004955e-07
1.7953259e-05
8.2409505e-07
1.7687788e-05
8.1839882e-07
1.7424057e-05
8.1304114e-07
1.7161916e-05
8.081306e-07
1.6901169e-05
8.0382673e-07
1.6641541e-05
8.0037101e-07
1.6382645e-05
7.9814083e-07
1.612391e-05
7.9771809e-07
1.5864479e-05
8.0002562e-07
1.5603063e-05
8.0643953e-07
1.5337661e-05
8.1922788e-07
1.5065224e-05
8.4175683e-07
1.4780778e-05
8.8018783e-07
1.4476359e-05
9.4422653e-07
1.4138186e-05
1.0523281e-06
1.3745549e-05
1.2296488e-06
1.3235324e-05
1.6134041e-06
1.2509254e-05
2.3391602e-06
1.1206222e-05
4.2191155e-06
2.2879235e-06
1.0294374e-05
3.1474336e-05
1.2915625e-06
3.1091996e-05
1.2780026e-06
3.0706085e-05
1.2902283e-06
3.0319757e-05
1.2910076e-06
2.9934278e-05
1.2877301e-06
2.954983e-05
1.2839161e-06
2.9166847e-05
1.2786914e-06
2.8785734e-05
1.2721541e-06
2.8406732e-05
1.2648261e-06
2.8030005e-05
1.2569468e-06
2.7655681e-05
1.2486213e-06
2.7283867e-05
1.239947e-06
2.6914646e-05
1.2310177e-06
2.6548076e-05
1.2219311e-06
2.6184188e-05
1.2127952e-06
2.5822974e-05
1.2037159e-06
2.5464394e-05
1.1947815e-06
2.5108378e-05
1.1860655e-06
2.475483e-05
1.1776429e-06
2.4403623e-05
1.1696056e-06
2.4054593e-05
1.162071e-06
2.3707529e-05
1.1551947e-06
2.3362153e-05
1.1492025e-06
2.3018088e-05
1.1444357e-06
2.2674801e-05
1.1414282e-06
2.2331514e-05
1.141005e-06
2.198706e-05
1.1444796e-06
2.1639688e-05
1.1538121e-06
2.1286678e-05
1.1722378e-06
2.092389e-05
1.2045444e-06
2.0544575e-05
1.2595034e-06
2.0137974e-05
1.3508271e-06
1.9685338e-05
1.5049644e-06
1.9159371e-05
1.7556157e-06
1.847564e-05
2.2971352e-06
1.7509492e-05
3.3053077e-06
1.5729025e-05
5.9995826e-06
3.5877877e-06
1.4429161e-05
4.248959e-05
1.8028357e-06
4.1983236e-05
1.7843575e-06
4.1472232e-05
1.8012322e-06
4.0960492e-05
1.8027468e-06
4.0449742e-05
1.7984806e-06
3.9940246e-05
1.7934125e-06
3.9432591e-05
1.7863457e-06
3.8927329e-05
1.7774163e-06
3.8424787e-05
1.7673683e-06
3.7925182e-05
1.7565521e-06
3.7428682e-05
1.7451207e-06
3.6935425e-05
1.7332046e-06
3.6445522e-05
1.7209208e-06
3.5959062e-05
1.7083909e-06
3.5476096e-05
1.6957611e-06
3.4996626e-05
1.683186e-06
3.4520604e-05
1.6708032e-06
3.404794e-05
1.65873e-06
3.35785e-05
1.6470824e-06
3.311211e-05
1.6359962e-06
3.264854e-05
1.625641e-06
3.2187497e-05
1.6162371e-06
3.1728601e-05
1.6080988e-06
3.1271338e-05
1.6016985e-06
3.0814991e-05
1.5977756e-06
3.0358522e-05
1.5974739e-06
2.9900379e-05
1.6026221e-06
2.943824e-05
1.6159514e-06
2.89685e-05
1.6419776e-06
2.8485683e-05
1.6873617e-06
2.7980862e-05
1.7643242e-06
2.743991e-05
1.8917789e-06
2.6837969e-05
2.1069052e-06
2.6140174e-05
2.4534111e-06
2.5236604e-05
3.2007046e-06
2.3979283e-05
4.5626294e-06
2.158204e-05
8.3968254e-06
5.4782187e-06
1.9691609e-05
5.6840209e-05
2.4820798e-06
5.6166833e-05
2.4577334e-06
5.5487622e-05
2.480444e-06
5.4807304e-05
2.4830648e-06
5.412821e-05
2.4775746e-06
5.3450728e-05
2.4708945e-06
5.2775648e-05
2.4614252e-06
5.2103714e-05
2.44935e-06
5.1435371e-05
2.435712e-06
5.0770904e-05
2.4210186e-06
5.0110532e-05
2.405493e-06
4.9454426e-05
2.3893104e-06
4.8802735e-05
2.3726119e-06
4.8155585e-05
2.3555413e-06
4.7513058e-05
2.3382873e-06
4.6875176e-05
2.3210683e-06
4.6241887e-05
2.3040924e-06
4.5613075e-05
2.2875423e-06
4.4988563e-05
2.271594e-06
4.4368113e-05
2.256446e-06
4.3751414e-05
2.2423406e-06
4.3138064e-05
2.2295864e-06
4.2527548e-05
2.2186148e-06
4.1919178e-05
2.2100689e-06
4.1312001e-05
2.2049526e-06
4.0704655e-05
2.2048199e-06
4.0095112e-05
2.2121651e-06
3.9480347e-05
2.230717e-06
3.8855672e-05
2.2666521e-06
3.8213986e-05
2.3290475e-06
3.7543718e-05
2.434592e-06
3.6826721e-05
2.6087763e-06
3.6030674e-05
2.9029526e-06
3.5112144e-05
3.3719403e-06
3.3930662e-05
4.3821876e-06
3.2322508e-05
6.1707828e-06
2.9211876e-05
1.1507458e-05
8.1630034e-06
2.6527091e-05
7.5489493e-05
3.3788499e-06
7.4599513e-05
3.3477136e-06
7.3702343e-05
3.3776135e-06
7.2803528e-05
3.3818795e-06
7.19062e-05
3.3749031e-06
7.1010928e-05
3.3661661e-06
7.0118769e-05
3.3535844e-06
6.9230723e-05
3.3373964e-06
6.8347391e-05
3.3190438e-06
6.7469154e-05
3.2992555e-06
6.6596289e-05
3.2783581e-06
6.572901e-05
3.2565893e-06
6.4867506e-05
3.2341159e-06
6.4011951e-05
3.2110967e-06
6.3162474e-05
3.1877635e-06
6.2319128e-05
3.1644143e-06
6.1481866e-05
3.1413547e-06
6.0650545e-05
3.1188633e-06
5.9824935e-05
3.0972037e-06
5.9004719e-05
3.0766621e-06
5.8189478e-05
3.0575817e-06
5.7378673e-05
3.0403917e-06
5.6571609e-05
3.0256788e-06
5.5767371e-05
3.0143069e-06
5.4964705e-05
3.0076186e-06
5.4161835e-05
3.0076895e-06
5.3356136e-05
3.017864e-06
5.2543709e-05
3.0431445e-06
5.1718527e-05
3.0918344e-06
5.0871488e-05
3.1760864e-06
4.9987768e-05
3.3183114e-06
4.9044383e-05
3.5521616e-06
4.7999768e-05
3.9475673e-06
4.6800739e-05
4.5709694e-06
4.5269398e-05
5.9135286e-06
4.3236427e-05
8.2037538e-06
3.9278554e-05
1.5465331e-05
1.187411e-05
3.5567447e-05
9.9706869e-05
4.5133437e-06
9.8579143e-05
4.4754399e-06
9.7442116e-05
4.5146399e-06
9.6302118e-05
4.5218776e-06
9.5163323e-05
4.5136983e-06
9.4026573e-05
4.5029161e-06
9.2893265e-05
4.4868925e-06
9.176474e-05
4.4659217e-06
9.0641815e-05
4.4419687e-06
8.9524997e-05
4.4160728e-06
8.8414641e-05
4.3887144e-06
8.7311008e-05
4.3602223e-06
8.6214333e-05
4.3307913e-06
8.5124848e-05
4.3005812e-06
8.4042753e-05
4.2698589e-06
8.2968151e-05
4.2390158e-06
8.1901016e-05
4.2084904e-06
8.0841178e-05
4.1787005e-06
7.9788345e-05
4.1500375e-06
7.8742095e-05
4.1229114e-06
7.7701872e-05
4.0978053e-06
7.6666948e-05
4.0753152e-06
7.5636388e-05
4.0562387e-06
7.4608965e-05
4.0417307e-06
7.358301e-05
4.0335732e-06
7.2556187e-05
4.0345128e-06
7.1525063e-05
4.0489874e-06
7.048457e-05
4.0836381e-06
6.9426893e-05
4.1495106e-06
6.834028e-05
4.2626997e-06
6.720558e-05
4.4530117e-06
6.5993499e-05
4.7642426e-06
6.4650068e-05
5.2909983e-06
6.3109899e-05
6.1111386e-06
6.1145216e-05
7.8782113e-06
5.8591791e-05
1.0757179e-05
5.359202e-05
2.0465103e-05
1.6961213e-05
4.8504917e-05
0.00013101965
5.9636078e-06
0.00012957467
5.9204229e-06
0.0001281186
5.9707119e-06
0.00012665789
5.9825846e-06
0.00012519801
5.9735741e-06
0.00012374029
5.9606445e-06
0.00012228654
5.9406366e-06
0.00012083856
5.9138991e-06
0.00011939747
5.8830657e-06
0.00011796393
5.8496077e-06
0.00011653841
5.8142349e-06
0.00011512122
5.7774136e-06
0.00011371264
5.7393735e-06
0.00011231297
5.7002508e-06
0.0001109225
5.6603257e-06
0.00010954143
5.6200915e-06
0.00010816976
5.5801622e-06
0.0001068073
5.5411559e-06
0.00010545369
5.5036476e-06
0.00010410838
5.4682166e-06
0.00010277066
5.4355343e-06
0.00010143955
5.4064237e-06
0.00010011382
5.3819649e-06
9.8791856e-05
5.3636958e-06
9.7471466e-05
5.3539632e-06
9.6149613e-05
5.3563659e-06
9.4821875e-05
5.3767253e-06
9.3481762e-05
5.4237507e-06
9.2119326e-05
5.5119466e-06
9.0719668e-05
5.6623573e-06
8.9258531e-05
5.914149e-06
8.7699383e-05
6.3233902e-06
8.5973568e-05
7.0168137e-06
8.4002715e-05
8.0819912e-06
8.1501617e-05
1.037931e-05
7.8327066e-05
1.393173e-05
7.2181093e-05
2.6611075e-05
2.3777509e-05
6.5364797e-05
0.00023492708
8.4810072e-06
0.0002324007
8.4468079e-06
0.00022986128
8.51013e-06
0.00022731236
8.5315044e-06
0.00022476289
8.5230491e-06
0.00022221629
8.5072451e-06
0.00021967586
8.4810658e-06
0.00021714476
8.4449929e-06
0.00021462511
8.4027217e-06
0.00021211817
8.3565395e-06
0.00020962476
8.3076479e-06
0.00020714536
8.2568108e-06
0.00020468041
8.2043241e-06
0.00020223044
8.1502293e-06
0.00019979601
8.0947521e-06
0.00019737759
8.0385152e-06
0.0001949753
7.9824511e-06
0.00019258887
7.92758e-06
0.00019021768
7.8748386e-06
0.00018786079
7.8251084e-06
0.00018551694
7.7793887e-06
0.00018318444
7.7389168e-06
0.00018086111
7.7052963e-06
0.00017854405
7.6807615e-06
0.00017622935
7.6686589e-06
0.00017391165
7.6740639e-06
0.00017158322
7.705153e-06
0.00016923283
7.7741489e-06
0.00016684343
7.9013382e-06
0.00016438965
8.1161435e-06
0.00016183043
8.4733688e-06
0.00015910464
9.0491824e-06
0.00015609658
1.0024874e-05
0.00015267946
1.1499109e-05
0.00014839047
1.4668294e-05
0.00014305386
1.9268347e-05
0.00013321473
3.6450203e-05
3.6643701e-05
0.00012034854
0.00030088781
1.152814e-05
0.000297823
1.1511614e-05
0.00029474128
1.1591853e-05
0.0002916454
1.1627378e-05
0.00028854602
1.1622432e-05
0.00028544802
1.1605249e-05
0.00028235562
1.1573467e-05
0.00027927289
1.1527719e-05
0.00027620264
1.1472972e-05
0.00027314659
1.1412589e-05
0.00027010578
1.1348463e-05
0.00026708079
1.1281797e-05
0.00026407211
1.1213003e-05
0.00026108037
1.1141971e-05
0.00025810633
1.1068785e-05
0.00025515069
1.099416e-05
0.00025221374
1.0919406e-05
0.00024929524
1.0846074e-05
0.00024639448
1.0775598e-05
0.00024351033
1.0709259e-05
0.00024064124
1.064848e-05
0.00023778512
1.059504e-05
0.00023493918
1.0551231e-05
0.00023209976
1.0520187e-05
0.0002292619
1.0506519e-05
0.00022641883
1.051713e-05
0.00022356092
1.0563067e-05
0.00022067426
1.0660801e-05
0.00021773801
1.083759e-05
0.00021472135
1.1132806e-05
0.0002115744
1.162032e-05
0.00020822508
1.2398504e-05
0.00020453166
1.371829e-05
0.00020035071
1.5680058e-05
0.0001951396
1.9879408e-05
0.00018878206
2.5625886e-05
0.00017757462
4.7657642e-05
5.2079598e-05
0.00016213872
0.00037865218
1.5147195e-05
0.00037500725
1.5156542e-05
0.00037133894
1.526017e-05
0.00036765052
1.5315791e-05
0.00036395468
1.5318273e-05
0.00036025795
1.5301981e-05
0.0003565656
1.5265816e-05
0.00035288274
1.5210586e-05
0.00034921296
1.5142744e-05
0.00034555855
1.5067007e-05
0.00034192082
1.4986185e-05
0.00033830052
1.49021e-05
0.00033469818
1.4815346e-05
0.00033111453
1.4725614e-05
0.00032755058
1.4632744e-05
0.00032400725
1.4537489e-05
0.00032048506
1.4441591e-05
0.00031698386
1.4347276e-05
0.00031350283
1.4256624e-05
0.00031004066
1.417143e-05
0.0003065955
1.4093643e-05
0.00030316481
1.4025725e-05
0.00029974521
1.3970835e-05
0.00029633215
1.3933245e-05
0.00029291953
1.3919139e-05
0.00028949902
1.3937637e-05
0.00028605885
1.4003237e-05
0.00028258222
1.4137437e-05
0.00027904407
1.4375736e-05
0.00027540792
1.4768956e-05
0.00027161437
1.5413875e-05
0.00026758078
1.6432086e-05
0.00026313671
1.8162358e-05
0.0002581241
2.0692669e-05
0.00025192919
2.6074326e-05
0.00024448443
3.3070646e-05
0.00023202113
6.0120935e-05
6.9840089e-05
0.00021426064
0.00047002179
1.9396753e-05
0.00046573539
1.9442935e-05
0.00046141909
1.9576475e-05
0.00045707647
1.9658409e-05
0.00045272167
1.9673073e-05
0.00044836296
1.9660695e-05
0.00044400677
1.9621999e-05
0.00043965938
1.9557976e-05
0.00043532536
1.947677e-05
0.0004310076
1.9384765e-05
0.00042670784
1.9285948e-05
0.00042242697
1.9182968e-05
0.00041816561
1.9076701e-05
0.00041392464
1.8966586e-05
0.00040970528
1.8852101e-05
0.0004055088
1.8733969e-05
0.00040133598
1.8614418e-05
0.00039718674
1.8496516e-05
0.0003930602
1.8383166e-05
0.00038895482
1.8276803e-05
0.00038486846
1.8180007e-05
0.00038079812
1.8096062e-05
0.00037673977
1.8029188e-05
0.00037268797
1.7985048e-05
0.00036863537
1.7971735e-05
0.00036457198
1.8001032e-05
0.00036048369
1.809152e-05
0.00035635058
1.8270546e-05
0.00035214314
1.8583177e-05
0.00034781904
1.9093061e-05
0.00034330892
1.9923996e-05
0.00033852035
2.1220654e-05
0.00033325309
2.3429614e-05
0.00032733521
2.6610551e-05
0.00032009569
3.3313844e-05
0.00031149803
4.1668306e-05
0.00029791873
7.3700237e-05
8.9699359e-05
0.00027805946
0.00057711451
2.4258397e-05
0.00057219969
2.4357756e-05
0.00056724498
2.4531187e-05
0.00056225506
2.4648331e-05
0.0005572457
2.468243e-05
0.00055222737
2.4679023e-05
0.00054720803
2.4641343e-05
0.00054219531
2.457069e-05
0.00053719495
2.4477132e-05
0.00053221063
2.4369082e-05
0.00052724457
2.4252017e-05
0.00052229787
2.4129668e-05
0.00051737125
2.4003315e-05
0.00051246575
2.3872087e-05
0.0005075829
2.3734953e-05
0.00050272436
2.359251e-05
0.00049789124
2.3447535e-05
0.00049308362
2.3304138e-05
0.00048830051
2.3166275e-05
0.00048354014
2.3037169e-05
0.00047880001
2.2920142e-05
0.00047407663
2.2819444e-05
0.00046936527
2.2740544e-05
0.00046465957
2.2690754e-05
0.00045995085
2.2680447e-05
0.00045522732
2.2724561e-05
0.00045047236
2.2846485e-05
0.00044566258
2.3080329e-05
0.00044076358
2.3482168e-05
0.00043572687
2.4129773e-05
0.00043047252
2.5178344e-05
0.00042489813
2.6795048e-05
0.00041877641
2.9551336e-05
0.00041191995
3.3467006e-05
0.00040359236
4.1641434e-05
0.00039378872
5.1471951e-05
0.00037922295
8.826601e-05
0.00011144677
0.00035747553
0.00070231125
2.9657718e-05
0.00069684402
2.9824987e-05
0.00069132253
3.0052683e-05
0.00068575217
3.0218687e-05
0.00068015099
3.0283609e-05
0.00067453262
3.0297393e-05
0.00066890717
3.0266791e-05
0.00066328402
3.0193843e-05
0.00065767027
3.009088e-05
0.00065207057
2.996878e-05
0.0006464877
2.9834886e-05
0.00064092304
2.9694332e-05
0.00063537741
2.9548948e-05
0.00062985201
2.9397478e-05
0.00062434879
2.9238183e-05
0.0006188699
2.9071397e-05
0.00061341693
2.8900508e-05
0.00060799013
2.8730933e-05
0.00060258843
2.8567973e-05
0.00059720977
2.841583e-05
0.00059185122
2.8278698e-05
0.00058650872
2.8161937e-05
0.00058117683
2.8072441e-05
0.00057584816
2.8019421e-05
0.0005705127
2.8015908e-05
0.00056515672
2.8080537e-05
0.00055976088
2.8242328e-05
0.00055429803
2.8543173e-05
0.00054872847
2.9051733e-05
0.00054299708
2.9861161e-05
0.00053701293
3.1162497e-05
0.00053066281
3.3145168e-05
0.00052369492
3.6519227e-05
0.00051590318
4.1258741e-05
0.0005064891
5.1055515e-05
0.00049547225
6.2488805e-05
0.00048006874
0.00010366952
0.00013479883
0.00045671668
0.0008481687
3.5612394e-05
0.00084212605
3.5867638e-05
0.00083601298
3.6165756e-05
0.00082983691
3.6394756e-05
0.00082361738
3.650314e-05
0.00081737101
3.6543761e-05
0.0008111103
3.65275e-05
0.00080484656
3.6457581e-05
0.00079858848
3.6348959e-05
0.0007923418
3.6215465e-05
0.00078610993
3.6066753e-05
0.00077989452
3.5909742e-05
0.00077369648
3.5746996e-05
0.0007675172
3.5576757e-05
0.00076135908
3.5396303e-05
0.00075522498
3.5205497e-05
0.00074911708
3.5008404e-05
0.00074303594
3.4812076e-05
0.00073698037
3.462354e-05
0.00073094798
3.4448217e-05
0.00072493536
3.4291319e-05
0.00071893782
3.4159482e-05
0.00071294907
3.4061192e-05
0.00070696072
3.4007765e-05
0.00070096141
3.4015224e-05
0.00069493553
3.4106414e-05
0.000688861
3.4316853e-05
0.00068270688
3.4697299e-05
0.00067642801
3.53306e-05
0.00066996276
3.6326415e-05
0.0006632097
3.7915551e-05
0.00065604477
4.0310102e-05
0.00064819733
4.4366666e-05
0.00063943584
5.0020233e-05
0.00062891766
6.1573688e-05
0.00061666799
7.4738483e-05
0.00060059602
0.00011974149
0.00015928331
0.00057611154
0.0010177367
4.2038933e-05
0.0010111926
4.2411678e-05
0.0010045561
4.2802276e-05
0.0009978396
4.3111279e-05
0.0009910648
4.327794e-05
0.00098425157
4.3356991e-05
0.00097741503
4.3364046e-05
0.00097056852
4.3304088e-05
0.0009637224
4.3195076e-05
0.00095688357
4.3054299e-05
0.0009500561
4.289422e-05
0.00094324184
4.2724003e-05
0.00093644168
4.2547156e-05
0.0009296572
4.2361242e-05
0.00092289135
4.2162155e-05
0.00091614787
4.1948968e-05
0.00090942981
4.1726469e-05
0.00090273813
4.1503756e-05
0.0008960716
4.1290065e-05
0.00088942747
4.109235e-05
0.00088280174
4.0917047e-05
0.00087618895
4.0772277e-05
0.00086958184
4.0668295e-05
0.00086297093
4.0618683e-05
0.00085634344
4.0642705e-05
0.000849682
4.0767861e-05
0.0008429618
4.1037055e-05
0.00083614801
4.1511088e-05
0.00082918996
4.2288644e-05
0.00082201938
4.3497001e-05
0.00081452497
4.5409956e-05
0.00080657148
4.8263598e-05
0.00079787389
5.3064255e-05
0.00078818067
5.9713451e-05
0.00077663532
7.3119037e-05
0.00076313356
8.8240246e-05
0.00074653704
0.000136338
0.00018442397
0.00072139639
0.0012143343
4.8836719e-05
0.0012073917
4.9354287e-05
0.0012003317
4.9862244e-05
0.0011931708
5.0272136e-05
0.0011859332
5.0515558e-05
0.0011786426
5.064767e-05
0.0011713173
5.0689304e-05
0.0011639733
5.064809e-05
0.0011566228
5.0545586e-05
0.0011492739
5.0403148e-05
0.0011419315
5.0236654e-05
0.0011345974
5.0058101e-05
0.0011272724
4.9872196e-05
0.001119958
4.9675559e-05
0.0011126581
4.9462129e-05
0.0011053773
4.9229687e-05
0.0010981201
4.8983746e-05
0.0010908879
4.8735965e-05
0.0010836795
4.8498412e-05
0.0010764919
4.8279981e-05
0.0010693203
4.808861e-05
0.0010621584
4.7934194e-05
0.0010549977
4.7828957e-05
0.0010478276
4.7788857e-05
0.0010406337
4.7836533e-05
0.0010333972
4.8004445e-05
0.0010260905
4.8343743e-05
0.0010186751
4.8926507e-05
0.0010110948
4.9868894e-05
0.0010032749
5.1316934e-05
0.0009950952
5.3589618e-05
0.00098640952
5.6949283e-05
0.00097692342
6.2550355e-05
0.00096636606
7.0270808e-05
0.00095393293
8.5552167e-05
0.00093923197
0.00010294121
0.00092225683
0.00015331314
0.00020970187
0.00089697892
0.0014417227
5.575764e-05
0.0014346153
5.6461707e-05
0.0014273551
5.7122436e-05
0.0014199662
5.7661021e-05
0.0014124765
5.8005238e-05
0.0014049143
5.8209854e-05
0.0013973025
5.83012e-05
0.0013896599
5.8290666e-05
0.0013820012
5.8204274e-05
0.0013743361
5.8068232e-05
0.0013666701
5.7902621e-05
0.0013590052
5.7723085e-05
0.0013513415
5.7535883e-05
0.0013436807
5.733634e-05
0.0013360272
5.7115606e-05
0.0013283875
5.6869415e-05
0.0013207673
5.6603912e-05
0.0013131693
5.6333978e-05
0.0013055924
5.607536e-05
0.0012980329
5.5839396e-05
0.0012904857
5.5635855e-05
0.0012829431
5.547681e-05
0.0012753953
5.5376732e-05
0.0012678301
5.5354052e-05
0.0012602319
5.5434765e-05
0.0012525799
5.5656375e-05
0.0012448446
5.6079056e-05
0.0012369837
5.6787488e-05
0.0012289357
5.7916858e-05
0.0012206194
5.9633192e-05
0.0012119075
6.2301541e-05
0.0012026427
6.6214138e-05
0.0011925282
7.2664856e-05
0.0011812649
8.1534051e-05
0.0011681526
9.8664496e-05
0.0011524087
0.00011868509
0.0011352186
0.00017050326
0.00023452207
0.0011103984
0.0017039009
6.2675763e-05
0.0016967556
6.3607012e-05
0.0016894197
6.4458345e-05
0.0016819241
6.515654e-05
0.0016743005
6.5628853e-05
0.0016665817
6.592871e-05
0.0016587954
6.6087498e-05
0.0016509646
6.6121462e-05
0.0016431067
6.6062202e-05
0.0016352332
6.5941721e-05
0.0016273505
6.5785312e-05
0.0016194602
6.5613388e-05
0.0016115618
6.543427e-05
0.0016036566
6.52415e-05
0.00159575
6.5022264e-05
0.0015878503
6.4769111e-05
0.0015799656
6.4488618e-05
0.0015720998
6.4199721e-05
0.0015642522
6.392293e-05
0.001556419
6.3672627e-05
0.001548594
6.3460828e-05
0.0015407685
6.3302377e-05
0.0015329308
6.3214379e-05
0.0015250671
6.3217802e-05
0.0015171601
6.3341748e-05
0.001509188
6.3628504e-05
0.0015011192
6.4147863e-05
0.0014929082
6.4998465e-05
0.0014844892
6.6335851e-05
0.0014757751
6.8347281e-05
0.0014666339
7.1442739e-05
0.001456898
7.5950039e-05
0.0014462811
8.3281747e-05
0.0014344401
9.3375088e-05
0.0014208795
0.00011222505
0.0014043988
0.00013516586
0.0013870346
0.00018786742
0.00025837403
0.0013631826
0.0020054677
6.9418571e-05
0.0019984513
7.0623507e-05
0.0019912026
7.170698e-05
0.0019837613
7.2597821e-05
0.001976163
7.3227196e-05
0.0019684448
7.3646937e-05
0.0019606399
7.389236e-05
0.0019527758
7.3985541e-05
0.001944873
7.3965015e-05
0.0019369451
7.386968e-05
0.0019289991
7.3731266e-05
0.001921036
7.3576506e-05
0.0019130538
7.3416496e-05
0.001905053
7.3242303e-05
0.0018970398
7.3035432e-05
0.0018890254
7.2783521e-05
0.0018810207
7.2493264e-05
0.0018730317
7.2188793e-05
0.0018650579
7.1896711e-05
0.0018570954
7.1635062e-05
0.0018491377
7.1418589e-05
0.0018411743
7.1265736e-05
0.0018331919
7.1196827e-05
0.0018251742
7.1235493e-05
0.0018171025
7.1413415e-05
0.0018089541
7.1776895e-05
0.0018006962
7.2405742e-05
0.0017922808
7.3413946e-05
0.0017836382
7.4978374e-05
0.0017746768
7.7308731e-05
0.0017652632
8.0856366e-05
0.0017552206
8.5992605e-05
0.0017442863
9.4216039e-05
0.0017320653
0.00010559609
0.0017182907
0.00012599963
0.0017014986
0.00015195797
0.0016840834
0.00020528261
0.00028085408
0.0016616033
0.0023515902
7.5570862e-05
0.0023451007
7.711301e-05
0.0023383257
7.8481907e-05
0.0023313184
7.9605186e-05
0.0023241206
8.0424945e-05
0.002316775
8.0992514e-05
0.0023093215
8.1345891e-05
0.0023017929
8.1514183e-05
0.0022942132
8.1544714e-05
0.0022865982
8.148465e-05
0.0022789557
8.1373732e-05
0.002271285
8.1247227e-05
0.0022635815
8.1120028e-05
0.002255844
8.0979751e-05
0.0022480798
8.0799636e-05
0.0022403036
8.0559725e-05
0.0022325305
8.0266349e-05
0.0022247688
7.9950539e-05
0.0022170187
7.9646831e-05
0.0022092762
7.9377487e-05
0.0022015345
7.9160326e-05
0.0021937818
7.9018429e-05
0.0021860025
7.897619e-05
0.0021781777
7.9060242e-05
0.0021702871
7.9303968e-05
0.0021623079
7.9756181e-05
0.0021542067
8.0506917e-05
0.0021459335
8.1687136e-05
0.0021374162
8.3495713e-05
0.002128559
8.6165863e-05
0.0021192313
9.0184143e-05
0.0021092494
9.5974504e-05
0.0020983834
0.000105082
0.0020861973
0.0001177822
0.0020726229
0.00013957403
0.0020561288