/*--------------------------------*- C++ -*----------------------------------*\
  =========                 |
  \\      /  F ield         | OpenFOAM: The Open Source CFD Toolbox
   \\    /   O peration     | Website:  https://openfoam.org
    \\  /    A nd           | Version:  7
     \\/     M anipulation  |
\*---------------------------------------------------------------------------*/
FoamFile
{
    version     2.0;
    format      ascii;
    class       volScalarField;
    location    "2000";
    object      nut;
}
// * * * * * * * * * * * * * * * * * * * * * * * * * * * * * * * * * * * * * //

dimensions      [0 2 -1 0 0 0 0];

internalField   nonuniform List<scalar> 
15296
(
0.0044609228
0.004464128
0.0044738759
0.0044890954
0.0045074189
0.0045269039
0.0045464645
0.0045656286
0.0045842398
0.0046022803
0.0046197889
0.0046368244
0.0046534493
0.0046697225
0.0046856968
0.0047014183
0.0047169239
0.0047322514
0.0047474324
0.004762494
0.0047774606
0.0047923537
0.0048071928
0.0048219959
0.0048367809
0.0048515671
0.0048663815
0.0048812674
0.0048963148
0.0049116404
0.0049275401
0.0049453769
0.0049658487
0.0023872663
0.001615292
0.0010435355
0.00055055115
0.00014753509
0.004460894
0.0044642082
0.0044740236
0.004489284
0.0045076171
0.0045270935
0.0045466387
0.004565786
0.0045843811
0.0046024065
0.0046199012
0.0046369239
0.004653537
0.0046697993
0.0046857634
0.0047014752
0.0047169715
0.0047322903
0.0047474628
0.0047625162
0.0047774748
0.0047923601
0.0048071915
0.0048219871
0.0048367645
0.0048515432
0.0048663498
0.0048812273
0.0048962652
0.0049115788
0.0049274574
0.0049452594
0.0049655874
0.0037489858
0.002290759
0.0012788619
0.00066861767
0.00017384632
0.0044608698
0.0044643791
0.0044743612
0.0044897221
0.0045080858
0.0045275518
0.0045470702
0.0045661868
0.0045847516
0.0046027489
0.0046202179
0.0046372172
0.004653809
0.0046700519
0.004685998
0.0047016934
0.0047171742
0.0047324784
0.0047476371
0.0047626775
0.0047776236
0.0047924969
0.0048073168
0.0048221012
0.0048368676
0.0048516355
0.0048664311
0.0048812971
0.0048963223
0.0049116204
0.0049274735
0.0049452349
0.0049653908
0.0039463056
0.0024339289
0.0013542967
0.0007159445
0.00020977883
0.0044608603
0.0044646394
0.004474883
0.0044904008
0.0045088148
0.0045282687
0.00454775
0.0045668229
0.0045853446
0.0046033018
0.0046207341
0.0046377003
0.0046542622
0.0046704779
0.0046863992
0.0047020719
0.0047175315
0.0047328161
0.0047479564
0.0047629795
0.0047779092
0.004792767
0.004807572
0.0048223421
0.0048370947
0.0048518491
0.0048666312
0.0048814832
0.0048964933
0.0049117735
0.0049275984
0.0049453163
0.0049652815
0.0040927356
0.0025344084
0.0013831967
0.0007233322
0.0003004223
0.0044608703
0.0044649954
0.0044755923
0.0044913206
0.0045098025
0.004529242
0.0045486757
0.0045676923
0.0045861583
0.0046040634
0.0046214485
0.0046383721
0.0046548955
0.0046710764
0.0046869661
0.00470261
0.004718043
0.004733303
0.0047484204
0.0047634219
0.0047783315
0.0047931702
0.0048079571
0.0048227099
0.004837446
0.0048521842
0.0048669504
0.0048817861
0.0048967787
0.0049120386
0.004927833
0.0049455052
0.0049652623
0.0042563682
0.0026116478
0.001406745
0.00072922117
0.00026180558
0.0044609133
0.0044655891
0.0044767563
0.0044928206
0.0045114096
0.0045308261
0.0045501848
0.0045691125
0.0045874905
0.0046053137
0.0046226242
0.0046394806
0.0046559437
0.0046720701
0.0046879104
0.0047035094
0.004718901
0.0047341229
0.0047492049
0.0047641735
0.0047790521
0.0047938617
0.0048086212
0.0048233479
0.004838059
0.0048527732
0.0048675157
0.0048823272
0.0048972944
0.0049125251
0.0049282773
0.0049458886
0.004965357
0.0044463648
0.0026645364
0.0014386602
0.00073183308
0.00028141126
0.0044610409
0.0044666437
0.0044787523
0.0044953556
0.0045141092
0.004533484
0.0045527195
0.0045715024
0.0045897373
0.0046074274
0.0046246169
0.0046413645
0.0046577299
0.0046737684
0.0046895293
0.004705056
0.0047203816
0.0047355426
0.0047505683
0.0047654845
0.0047803143
0.0047950781
0.0048097944
0.0048244803
0.0048391525
0.0048538293
0.0048685353
0.0048833099
0.0048982389
0.0049134268
0.0049291196
0.0049466505
0.0049657383
0.0046084927
0.0027005311
0.0014805546
0.00073269585
0.00031357778
0.0044613068
0.0044682908
0.0044817173
0.0044990377
0.0045179925
0.0045372964
0.0045563556
0.0045749349
0.0045929695
0.0046104733
0.004627494
0.0046440899
0.0046603192
0.0046762355
0.0046918858
0.0047073123
0.0047225466
0.0047376235
0.0047525715
0.0047674157
0.0047821784
0.0047968795
0.0048115368
0.004826167
0.0048407863
0.0048554124
0.0048700691
0.0048847943
0.0048996727
0.0049148053
0.0049304242
0.0049478599
0.0049665182
0.0047223819
0.0027405707
0.0015288884
0.00073796855
0.00033705742
0.0044618217
0.0044708709
0.0044860693
0.0045042763
0.0045234428
0.0045426232
0.0045614331
0.0045797318
0.0045974921
0.0046147417
0.0046315321
0.0046479215
0.0046639657
0.0046797155
0.0046952157
0.0047105059
0.0047256163
0.0047405792
0.0047554222
0.004770169
0.0047848411
0.0047994576
0.0048140355
0.0048285909
0.0048431392
0.0048576975
0.0048722885
0.0048869484
0.00490176
0.0049168217
0.004932349
0.0049496703
0.0049678641
0.0048150679
0.0027892898
0.0015834966
0.00074802804
0.00035541248
0.0044628163
0.0044749552
0.0044924253
0.0045116261
0.0045309584
0.0045499267
0.0045683882
0.0045863075
0.0046037002
0.0046206104
0.0046370942
0.0046532085
0.0046690062
0.0046845346
0.004699835
0.004714944
0.0047298897
0.0047447014
0.0047594048
0.0047740227
0.0047885748
0.0048030793
0.0048175524
0.004832009
0.0048464639
0.0048609329
0.0048754378
0.0048900126
0.0049047372
0.0049197086
0.0049351224
0.0049523033
0.004970018
0.0049158331
0.0028445208
0.0016454682
0.00076365128
0.00037091684
0.0044647982
0.0044815091
0.0045016756
0.0045218124
0.0045411636
0.0045597773
0.0045777568
0.0045951708
0.0046120801
0.0046285465
0.00464463
0.0046603857
0.0046758621
0.0046911016
0.0047061413
0.0047210136
0.0047357446
0.0047503587
0.0047648804
0.00477933
0.004793726
0.0048080848
0.0048224215
0.0048367498
0.0048510833
0.0048654366
0.00487983
0.0048942951
0.0049089081
0.0049237647
0.0049390387
0.0049560435
0.0049732958
0.0050190097
0.0029084069
0.0017148378
0.00078651529
0.00038710587
0.004468928
0.0044921532
0.0045150452
0.0045357364
0.0045548071
0.0045728504
0.0045901682
0.0046069175
0.004623201
0.0046390968
0.0046546675
0.0046699639
0.0046850285
0.0046998974
0.004714602
0.00472917
0.0047436245
0.0047579842
0.0047722716
0.0047865046
0.0048006993
0.0048148703
0.004829031
0.0048431938
0.0048573708
0.0048715751
0.0048858249
0.0049001493
0.0049146195
0.0049293305
0.0049444327
0.0049612129
0.0049780579
0.0050218385
0.0029841437
0.0017903914
0.00081669186
0.00040576556
0.0044779828
0.0045094693
0.0045340543
0.0045544421
0.0045727642
0.0045899379
0.0046063609
0.0046222491
0.0046377377
0.0046529157
0.0046678431
0.0046825635
0.0046971109
0.0047115133
0.0047257952
0.0047399785
0.004754082
0.0047681196
0.0047821095
0.0047960672
0.0048100058
0.0048239378
0.0048378743
0.0048518261
0.0048658032
0.004879817
0.0048938835
0.0049080286
0.0049223175
0.0049368442
0.0049517362
0.0049682284
0.0049847469
0.0050256154
0.0030757997
0.00187362
0.00085541472
0.00042778706
0.0044990702
0.0045368069
0.0045601468
0.004579018
0.0045960244
0.0046119524
0.0046271944
0.0046419948
0.0046565024
0.0046708033
0.0046849475
0.0046989661
0.0047128818
0.0047267127
0.0047404752
0.0047541842
0.0047678535
0.0047814925
0.0047951136
0.0048087292
0.0048223494
0.0048359836
0.0048496407
0.0048633289
0.0048770562
0.0048908316
0.0049046685
0.0049185891
0.0049326517
0.004946948
0.0049615852
0.004977711
0.0049939836
0.0050311329
0.0031874347
0.0019669161
0.00090373576
0.0004539027
0.0045516775
0.0045746517
0.0045938462
0.0046104767
0.0046255951
0.0046398269
0.0046535633
0.0046670395
0.0046803817
0.0046936509
0.0047068751
0.0047200677
0.0047332369
0.0047463897
0.004759533
0.0047726745
0.0047858218
0.0047989809
0.004812156
0.0048253573
0.0048385912
0.0048518636
0.0048651805
0.0048785471
0.004891969
0.0049054525
0.0049190077
0.0049326527
0.0049464372
0.0049604501
0.0049747814
0.0049904507
0.0050065286
0.0050394685
0.0033290108
0.0020728839
0.00096710589
0.00048250661
0.004630769
0.00463367
0.0046448441
0.0046572192
0.0046691862
0.0046808367
0.0046924294
0.0047040971
0.0047158786
0.0047277731
0.0047397684
0.0047518514
0.0047640116
0.0047762416
0.0047885376
0.0048008977
0.0048133224
0.0048258128
0.0048383661
0.0048509871
0.0048636778
0.0048764403
0.0048892763
0.0049021871
0.0049151747
0.0049282417
0.0049413937
0.0049546433
0.0049680285
0.0049816333
0.004995532
0.0050105451
0.0050263832
0.0050542054
0.0035356016
0.0022132837
0.0010605066
0.00052383018
0.004694237
0.0047064651
0.0047132415
0.0047196824
0.0047271446
0.0047356131
0.0047448223
0.0047545534
0.004764664
0.0047750657
0.0047857023
0.0047965366
0.0048075428
0.0048187026
0.0048300033
0.0048414356
0.0048529934
0.0048646724
0.0048764678
0.0048883737
0.0049003911
0.0049125173
0.0049247494
0.0049370846
0.0049495204
0.0049620546
0.0049746875
0.0049874246
0.0050002888
0.0050133615
0.005026693
0.0050408611
0.0050562717
0.0050790995
0.0038164023
0.0023981087
0.0011864193
0.00058925781
0.0047836867
0.0047814295
0.0047812314
0.0047839762
0.0047891191
0.0047958617
0.0048036125
0.0048120185
0.0048208853
0.0048301059
0.0048396183
0.0048493835
0.0048593752
0.0048695738
0.0048799646
0.004890536
0.0049012785
0.0049121847
0.0049232481
0.0049344607
0.0049458154
0.004957309
0.0049689358
0.0049806894
0.004992563
0.0050045497
0.0050166438
0.0050288434
0.0050411568
0.0050536512
0.005066369
0.0050796507
0.0050944232
0.0051131778
0.0041572875
0.0026250918
0.0013410069
0.00067438075
0.0048608726
0.0048439714
0.0048423998
0.0048467714
0.0048531615
0.0048603158
0.0048678979
0.0048758163
0.0048840342
0.0048925282
0.004901281
0.004910279
0.0049195109
0.0049289662
0.0049386351
0.0049485083
0.0049585769
0.0049688328
0.0049792686
0.0049898778
0.0050006469
0.0050115726
0.0050226499
0.005033868
0.0050452167
0.005056685
0.0050682615
0.0050799362
0.0050917052
0.0051036058
0.0051156862
0.00512808
0.005142018
0.0051574952
0.0045744567
0.0029021702
0.0015300882
0.00077688719
0.0048555545
0.0048849572
0.0049015416
0.0049126264
0.0049216445
0.0049299119
0.0049379295
0.0049459163
0.0049539854
0.0049622001
0.0049705963
0.0049791924
0.0049879965
0.0049970104
0.0050062317
0.0050156556
0.005025276
0.0050350859
0.0050450782
0.0050552469
0.0050655807
0.0050760743
0.0050867162
0.0050975023
0.0051084183
0.0051194494
0.005130579
0.0051417884
0.0051530633
0.0051644058
0.0051758637
0.0051874073
0.0052003588
0.0052133036
0.0050844413
0.003247208
0.0017635235
0.00090318605
0.0049443395
0.0049623269
0.0049766864
0.0049881524
0.0049978277
0.0050065559
0.0050148535
0.0050230075
0.0050311722
0.0050394312
0.0050478307
0.0050563951
0.005065137
0.0050740612
0.0050831685
0.0050924566
0.0051019214
0.0051115576
0.0051213592
0.0051313204
0.0051414342
0.0051516941
0.0051620876
0.0051726043
0.0051832393
0.0051939721
0.0052047818
0.0052156415
0.0052265266
0.0052373995
0.0052483249
0.0052591018
0.0052709663
0.0052821319
0.0053088558
0.0036810866
0.0020558621
0.0010627394
0.005072679
0.0050690807
0.0050714753
0.0050770236
0.005084027
0.0050916849
0.0050996767
0.0051078889
0.0051162839
0.0051248486
0.0051335769
0.0051424643
0.0051515068
0.0051607004
0.0051700417
0.0051795274
0.0051891539
0.0051989172
0.0052088128
0.0052188357
0.0052289808
0.0052392422
0.0052496132
0.0052600786
0.0052706267
0.0052812416
0.0052919055
0.005302578
0.0053132233
0.0053237675
0.0053342811
0.0053444236
0.0053552016
0.0053650971
0.0053848097
0.0042378132
0.002428664
0.001267689
0.0051563254
0.0051600375
0.0051643001
0.0051697763
0.0051764611
0.0051840851
0.0051923684
0.0052011004
0.0052101412
0.0052194038
0.0052288354
0.0052384039
0.0052480896
0.0052578807
0.0052677705
0.0052777552
0.0052878327
0.0052980014
0.005308259
0.0053186026
0.0053290287
0.0053395326
0.0053501083
0.0053607475
0.00537143
0.005382141
0.0053928512
0.00540352
0.0054141008
0.0054244977
0.005434738
0.0054444158
0.0054542383
0.0054630499
0.0054770292
0.0049605815
0.0029137759
0.0015355679
0.0052334759
0.005242975
0.0052528679
0.0052628981
0.005273005
0.0052831911
0.0052934634
0.0053038181
0.0053142425
0.005324723
0.0053352485
0.0053458116
0.0053564084
0.0053670378
0.0053777009
0.0053884007
0.0053991406
0.0054099238
0.0054207521
0.0054316255
0.0054425425
0.0054534995
0.0054644909
0.0054755081
0.0054865364
0.0054975545
0.0055085229
0.0055193954
0.0055301163
0.0055405568
0.0055506941
0.0055601569
0.0055692471
0.0055769844
0.0055870401
0.0056019472
0.0035558702
0.0018913957
0.0053189891
0.0053370963
0.0053532493
0.0053679963
0.0053817628
0.005394837
0.0054074205
0.0054196574
0.0054316495
0.0054434693
0.0054551683
0.0054667835
0.0054783418
0.005489863
0.0055013627
0.0055128535
0.0055243462
0.0055358489
0.0055473672
0.0055589036
0.0055704576
0.0055820257
0.0055936013
0.005605174
0.0056167274
0.0056282363
0.0056396629
0.0056509464
0.0056620155
0.0056727163
0.0056829652
0.0056924208
0.0057010622
0.0057077999
0.0057154736
0.0057212608
0.0044301563
0.0023769798
0.0054544069
0.0054697315
0.0054847432
0.0054992929
0.0055133513
0.0055269562
0.0055401792
0.0055531002
0.005565792
0.0055783154
0.0055907193
0.0056030411
0.0056153088
0.0056275433
0.0056397603
0.005651972
0.0056641883
0.0056764163
0.0056886604
0.0057009216
0.0057131973
0.0057254815
0.0057377645
0.0057500318
0.0057622629
0.0057744267
0.0057864796
0.0057983518
0.0058099558
0.005821126
0.0058317235
0.0058413312
0.0058498957
0.0058559415
0.0058618005
0.0058617999
0.0056502306
0.0030563173
0.0056203277
0.0056318439
0.005643511
0.005655355
0.0056673591
0.0056794922
0.0056917301
0.0057040579
0.0057164661
0.0057289485
0.0057415005
0.0057541184
0.0057667984
0.0057795368
0.0057923306
0.0058051771
0.0058180746
0.0058310211
0.0058440137
0.0058570472
0.0058701136
0.0058832017
0.0058962965
0.0059093782
0.0059224201
0.0059353848
0.0059482207
0.0059608478
0.0059731646
0.0059849848
0.0059961405
0.0060061325
0.0060149244
0.0060207308
0.006024996
0.0060228013
0.0060430277
0.0040296916
0.0057904755
0.0057991702
0.0058086867
0.0058189421
0.0058298172
0.0058411994
0.0058529992
0.0058651478
0.0058775906
0.0058902835
0.0059031905
0.0059162813
0.0059295308
0.0059429178
0.005956425
0.0059700384
0.0059837471
0.0059975418
0.0060114133
0.0060253514
0.0060393433
0.0060533735
0.0060674223
0.0060814651
0.0060954702
0.0061093941
0.0061231779
0.0061367327
0.006149944
0.0061626091
0.0061745276
0.0061851768
0.0061943645
0.0062005622
0.0062038162
0.0062008026
0.0062066112
0.0054655422
0.0059336099
0.0059462338
0.0059592536
0.0059725612
0.0059860675
0.0059997175
0.0060134875
0.0060273716
0.0060413703
0.0060554851
0.0060697158
0.0060840602
0.0060985137
0.006113071
0.0061277263
0.006142474
0.0061573094
0.0061722276
0.0061872226
0.006202286
0.0062174058
0.0062325661
0.0062477464
0.0062629203
0.0062780535
0.0062930991
0.0063079935
0.0063226414
0.0063369185
0.0063506127
0.0063634918
0.006375046
0.0063848913
0.0063918699
0.0063950665
0.006391524
0.0063914862
0.0063414544
0.0060639817
0.006084681
0.0061040585
0.0061223891
0.0061399335
0.0061569014
0.006173461
0.0061897445
0.0062058528
0.0062218611
0.0062378235
0.0062537774
0.0062697484
0.0062857534
0.0063018036
0.0063179064
0.0063340672
0.0063502889
0.0063665713
0.0063829101
0.0063992959
0.0064157144
0.0064321456
0.006448563
0.0064649316
0.0064812031
0.0064973118
0.0065131593
0.0065286151
0.0065434643
0.0065574536
0.0065700899
0.0065809024
0.0065887927
0.0065929228
0.0065896196
0.0065878658
0.0065310111
0.0062435329
0.006258969
0.0062747164
0.0062906943
0.0063068273
0.0063230702
0.006339407
0.0063558379
0.0063723685
0.0063890044
0.0064057479
0.0064225972
0.0064395485
0.0064565968
0.0064737367
0.0064909635
0.0065082737
0.0065256637
0.0065431285
0.0065606597
0.0065782443
0.0065958646
0.0066134981
0.0066311159
0.0066486815
0.0066661456
0.0066834411
0.0067004694
0.0067170972
0.0067331137
0.0067482555
0.0067620579
0.0067740105
0.0067831027
0.0067884836
0.0067870585
0.006784801
0.0067320902
0.0064072508
0.006420209
0.0064340264
0.0064485863
0.006463744
0.0064793847
0.006495431
0.0065118292
0.00652854
0.0065455308
0.0065627707
0.0065802301
0.006597882
0.0066157023
0.0066336701
0.0066517686
0.0066699848
0.0066883077
0.006706726
0.0067252259
0.0067437892
0.0067623941
0.0067810145
0.0067996197
0.0068181724
0.0068366237
0.0068549077
0.0068729291
0.006890557
0.0069075915
0.0069237721
0.0069386786
0.0069517867
0.0069622768
0.0069690515
0.0069703563
0.0069689939
0.0069278761
0.0064877068
0.0065103243
0.0065317566
0.0065522591
0.0065720645
0.0065913717
0.0066103491
0.0066291294
0.0066478137
0.0066664723
0.0066851492
0.0067038694
0.0067226465
0.0067414861
0.0067603894
0.0067793567
0.0067983889
0.0068174855
0.0068366428
0.0068558519
0.0068750981
0.0068943624
0.0069136218
0.0069328498
0.0069520138
0.0069710712
0.0069899629
0.0070086023
0.0070268691
0.0070445821
0.0070614996
0.0070772567
0.0070913596
0.0071031719
0.0071115607
0.0071156657
0.0071157437
0.0070914335
0.0065749723
0.0065919716
0.0066096078
0.0066277021
0.0066460737
0.0066646105
0.0066832621
0.0067020109
0.0067208539
0.0067397868
0.0067588004
0.0067778836
0.0067970253
0.0068162146
0.0068354425
0.0068547044
0.0068739995
0.006893328
0.006912687
0.0069320681
0.0069514581
0.0069708402
0.006990196
0.007009505
0.0070287425
0.0070478746
0.0070668524
0.0070856019
0.0071040184
0.0071219453
0.0071391715
0.0071553937
0.0071701777
0.0071830666
0.0071929355
0.0071999731
0.0072010488
0.0071948098
0.0065758943
0.0065998052
0.006622134
0.006643293
0.0066636049
0.0066833244
0.0067026549
0.0067217506
0.0067407203
0.0067596287
0.0067785091
0.0067973787
0.0068162449
0.0068351079
0.0068539669
0.0068728242
0.0068916862
0.0069105584
0.0069294419
0.0069483313
0.0069672164
0.0069860853
0.0070049255
0.0070237244
0.0070424663
0.0070611268
0.0070796682
0.0070980302
0.0071161261
0.0071338264
0.0071509567
0.0071672755
0.0071824218
0.0071961034
0.0072072291
0.0072169531
0.007219065
0.0072294573
0.0065737061
0.0065901156
0.0066070298
0.0066242615
0.0066416103
0.0066589745
0.0066763339
0.0066937081
0.0067111202
0.0067285766
0.0067460734
0.0067636062
0.0067811679
0.0067987492
0.0068163435
0.0068339523
0.0068515833
0.0068692443
0.0068869376
0.0069046594
0.006922402
0.0069401577
0.0069579201
0.0069756839
0.0069934413
0.0070111767
0.0070288626
0.0070464518
0.0070638763
0.0070810338
0.0070977896
0.0071139615
0.0071292669
0.0071435591
0.0071557972
0.0071679766
0.007171153
0.0071966335
0.0065010872
0.0065192899
0.0065362851
0.0065524629
0.0065680703
0.0065833147
0.0065983778
0.0066134054
0.0066284881
0.0066436614
0.0066589356
0.0066743126
0.0066897861
0.0067053433
0.0067209751
0.006736683
0.0067524769
0.0067683659
0.0067843531
0.006800435
0.0068166058
0.0068328613
0.0068492001
0.0068656223
0.0068821261
0.0068987022
0.0069153312
0.0069319775
0.0069485909
0.0069650951
0.0069813949
0.0069973625
0.0070127933
0.0070276649
0.0070409945
0.0070554929
0.0070598329
0.0070987315
0.0063924982
0.0064048342
0.0064168443
0.0064286959
0.0064404287
0.0064521209
0.0064638827
0.0064758215
0.0064879939
0.0065004045
0.0065130442
0.0065259041
0.0065389672
0.0065522111
0.0065656219
0.0065792016
0.0065929622
0.006606915
0.0066210634
0.0066354045
0.0066499343
0.0066646512
0.0066795572
0.0066946556
0.0067099475
0.006725427
0.0067410801
0.0067568803
0.0067727935
0.0067887667
0.0068047416
0.0068206377
0.0068363239
0.0068518793
0.0068663838
0.0068831319
0.0068888074
0.0069393061
0.0062115151
0.0062223002
0.0062319432
0.0062410372
0.0062498676
0.0062586466
0.0062675616
0.0062767629
0.0062863131
0.0062962088
0.0063064385
0.0063169926
0.0063278501
0.0063389844
0.0063503819
0.0063620497
0.006374006
0.0063862658
0.0063988342
0.0064117091
0.0064248875
0.0064383691
0.0064521566
0.0064662526
0.0064806569
0.0064953631
0.0065103596
0.0065256265
0.0065411431
0.0065568759
0.0065727996
0.0065888717
0.0066050282
0.0066214257
0.0066372112
0.006656129
0.0066633044
0.0067234322
0.0059730777
0.0059792516
0.005985547
0.0059919332
0.0059983225
0.0060047704
0.0060114323
0.0060184691
0.0060259421
0.0060338439
0.006042169
0.0060509144
0.0060600592
0.0060695761
0.0060794561
0.0060897146
0.0061003771
0.006111462
0.0061229745
0.0061349112
0.0061472668
0.0061600375
0.0061732208
0.0061868127
0.0062008067
0.006215192
0.0062299569
0.0062450858
0.0062605694
0.0062763894
0.0062925483
0.0063090325
0.0063258375
0.0063431746
0.0063602651
0.0063811728
0.0063899052
0.0064575875
0.0056687341
0.0056775514
0.0056840125
0.0056892623
0.0056939471
0.0056985058
0.0057032969
0.0057085771
0.0057144236
0.0057208237
0.0057277734
0.005735269
0.005743283
0.005751783
0.0057607613
0.0057702381
0.0057802419
0.0057907894
0.0058018798
0.0058135015
0.0058256393
0.0058382774
0.0058513999
0.00586499
0.005879031
0.0058935068
0.0059084053
0.0059237151
0.0059394369
0.0059555637
0.0059721209
0.005989115
0.0060065955
0.0060248092
0.0060430626
0.006065619
0.0060757899
0.0061489314
0.0053392517
0.0053413997
0.0053433017
0.0053452904
0.0053474756
0.0053500022
0.0053531101
0.0053569982
0.0053616807
0.0053671021
0.005373242
0.0053800849
0.0053875877
0.0053957054
0.0054044251
0.005413765
0.0054237482
0.0054343805
0.0054456457
0.0054575138
0.0054699487
0.0054829135
0.0054963729
0.0055102956
0.0055246572
0.0055394402
0.0055546364
0.0055702404
0.0055862616
0.0056027008
0.0056196023
0.0056369868
0.0056549555
0.005673777
0.0056928575
0.0057165517
0.005727859
0.0058044258
0.0049636695
0.0049654887
0.0049662848
0.0049668964
0.0049677289
0.0049690439
0.0049711575
0.0049742906
0.0049784238
0.0049834742
0.0049894131
0.0049962139
0.0050038131
0.0050121469
0.0050211889
0.0050309458
0.0050414259
0.0050526136
0.005064466
0.0050769234
0.0050899205
0.0051033961
0.0051172989
0.0051315921
0.0051462544
0.0051612767
0.0051766606
0.0051924075
0.0052085334
0.0052250435
0.0052419992
0.0052594331
0.0052775008
0.005296482
0.0053158999
0.0053400994
0.0053521126
0.0054301885
0.0045656812
0.0045661457
0.0045658601
0.004565598
0.0045657288
0.0045664833
0.0045682207
0.0045711857
0.0045753322
0.0045805588
0.0045868316
0.0045941066
0.0046022886
0.0046112821
0.0046210367
0.0046315386
0.0046427718
0.0046546894
0.0046672124
0.0046802458
0.0046936979
0.0047074945
0.004721587
0.0047359527
0.0047505899
0.0047655066
0.0047807155
0.0047962213
0.0048120421
0.0048281853
0.0048447309
0.0048617259
0.0048793845
0.0048979872
0.0049171899
0.0049412261
0.0049534774
0.0050312937
0.0041547334
0.0041545422
0.0041535337
0.0041526234
0.0041522658
0.0041527029
0.0041543537
0.0041574807
0.004161995
0.0041677577
0.0041747062
0.0041827515
0.0041917436
0.0042015416
0.0042120649
0.0042232758
0.004235129
0.0042475405
0.0042603939
0.0042735697
0.0042869722
0.0043005443
0.0043142693
0.0043281599
0.0043422431
0.0043565418
0.0043710703
0.0043858276
0.0044008297
0.004416088
0.0044317064
0.0044477499
0.0044644937
0.0044822034
0.0045006791
0.0045239362
0.0045360067
0.0046119602
0.0037423344
0.0037405862
0.0037383507
0.0037365514
0.0037356285
0.0037357754
0.0037374448
0.0037408854
0.0037459279
0.003752356
0.0037600352
0.0037687986
0.0037784294
0.0037887481
0.003799657
0.0038111006
0.0038230038
0.0038352482
0.0038476982
0.0038602437
0.0038728266
0.0038854443
0.0038981341
0.003910948
0.0039239295
0.0039370966
0.0039504481
0.0039639684
0.0039776732
0.0039915847
0.0040058382
0.0040205161
0.0040359505
0.0040523679
0.0040697206
0.0040916954
0.0041032616
0.0041759579
0.0033330594
0.0033293121
0.0033256433
0.0033228574
0.0033213092
0.0033211493
0.0033228526
0.0033266026
0.003332091
0.0033389743
0.0033470119
0.0033559576
0.0033655625
0.0033756557
0.0033861511
0.0033969799
0.0034080361
0.0034191847
0.0034303131
0.003441372
0.0034523826
0.0034634133
0.0034745463
0.0034858447
0.0034973338
0.0035089988
0.0035208097
0.0035327394
0.0035448141
0.0035570771
0.0035696978
0.0035827666
0.0035966608
0.0036115371
0.0036275103
0.0036478287
0.0036586575
0.0037270247
0.0029278931
0.0029233917
0.0029186801
0.0029148581
0.0029125229
0.0029119032
0.0029134587
0.0029172081
0.0029226302
0.0029292368
0.0029367086
0.0029447942
0.0029533093
0.0029621558
0.0029712639
0.0029805266
0.0029898044
0.0029989857
0.0030080398
0.003017021
0.0030260348
0.0030351918
0.0030445701
0.0030541925
0.0030640288
0.0030740166
0.0030841049
0.0030942732
0.0031045756
0.0031150813
0.0031259869
0.0031373726
0.0031496453
0.0031628621
0.0031773168
0.0031957136
0.0032056425
0.0032690329
0.0025339818
0.0025270119
0.0025197873
0.0025139225
0.0025101713
0.0025086438
0.0025095244
0.002512455
0.0025167026
0.0025217419
0.0025273086
0.0025332924
0.0025396774
0.0025464351
0.0025534295
0.0025604526
0.0025673495
0.0025741006
0.0025808078
0.0025876247
0.0025946893
0.0026020835
0.0026098165
0.0026178292
0.0026260246
0.0026343103
0.0026426451
0.0026510422
0.0026595937
0.0026683883
0.0026776312
0.0026873731
0.0026980359
0.002709559
0.0027224313
0.0027387128
0.0027476963
0.0028054988
0.0021986148
0.0021859841
0.0021747071
0.0021660901
0.0021604177
0.002157288
0.0021564275
0.0021572218
0.0021589579
0.0021612443
0.0021640025
0.0021673594
0.0021714396
0.0021761246
0.002181059
0.0021859118
0.0021905951
0.0021952498
0.0022000961
0.0022053083
0.0022109692
0.0022170708
0.0022235289
0.002230213
0.0022369962
0.0022438009
0.0022506288
0.0022575371
0.0022646433
0.0022720347
0.0022799036
0.0022882664
0.0022975441
0.0023075828
0.0023190248
0.0023333329
0.0023416011
0.0023927347
0.0019403506
0.0019242524
0.0019095323
0.0018985638
0.0018911559
0.0018862691
0.0018833889
0.0018819374
0.0018813073
0.0018812281
0.0018817861
0.0018832952
0.0018859135
0.0018893328
0.0018929583
0.0018963791
0.0018996022
0.0019029039
0.0019065704
0.0019107606
0.0019154985
0.0019207078
0.0019262457
0.0019319471
0.0019376833
0.0019434021
0.0019491393
0.001954976
0.0019610342
0.0019673893
0.0019742118
0.0019814949
0.001989637
0.0019984396
0.0020085917
0.002021181
0.0020285746
0.0020741618
0.001702877
0.0016811502
0.0016628602
0.0016500222
0.0016410056
0.001634081
0.0016288682
0.0016250691
0.0016222048
0.001620049
0.0016188169
0.0016189564
0.0016205813
0.0016231398
0.0016258057
0.0016281278
0.0016302241
0.0016324853
0.0016352327
0.0016385956
0.001642547
0.0016469618
0.0016516626
0.0016564727
0.0016612758
0.0016660467
0.0016708446
0.00167576
0.0016809063
0.0016863425
0.0016922157
0.0016985018
0.0017055729
0.0017131976
0.0017220918
0.0017329977
0.0017395057
0.0017797078
0.0014826131
0.0014541405
0.0014331797
0.0014195122
0.0014091479
0.0014000856
0.0013925931
0.0013867604
0.0013821323
0.0013784342
0.0013759309
0.0013751404
0.0013760976
0.001378032
0.0013799506
0.0013814045
0.0013826154
0.001384054
0.0013860532
0.001388712
0.0013919654
0.0013956583
0.0013995967
0.001403605
0.0014075848
0.0014115322
0.0014155185
0.0014196313
0.0014239689
0.0014285727
0.0014335675
0.0014389163
0.0014449622
0.0014514507
0.0014591081
0.0014683547
0.0014739784
0.0015088831
0.0012762864
0.0012413258
0.0012203479
0.0012072214
0.0011955367
0.001184231
0.0011747359
0.0011674132
0.0011616141
0.0011569002
0.0011535125
0.0011520064
0.0011523688
0.0011537092
0.0011549601
0.0011556969
0.0011562056
0.001156991
0.0011583761
0.0011604324
0.0011630691
0.001166114
0.0011693681
0.0011726655
0.0011759249
0.0011791571
0.0011824356
0.0011858382
0.0011894453
0.0011932823
0.0011974537
0.0012019138
0.0012069739
0.0012123653
0.0012188099
0.0012264287
0.0012311923
0.0012608516
0.0010799865
0.001043105
0.0010260472
0.0010138697
0.0010001183
0.00098639721
0.00097535606
0.00096716694
0.00096070137
0.00095529187
0.00095115947
0.00094890802
0.00094855592
0.00094921954
0.00094983983
0.00095000264
0.00094999376
0.00095029875
0.00095121139
0.00095277666
0.00095488703
0.00095736381
0.00096001358
0.00096268578
0.00096531627
0.00096792418
0.00097057842
0.00097334368
0.00097628234
0.00097940718
0.00098280445
0.00098642337
0.00099054111
0.00099488357
0.0010001533
0.001006197
0.0010101586
0.0010345892
0.00089246828
0.00086304342
0.00085244746
0.00083912045
0.00082196223
0.00080600051
0.00079411631
0.00078561055
0.00077871563
0.00077264562
0.0007677072
0.00076458317
0.00076338432
0.00076332546
0.00076340268
0.00076317473
0.0007628592
0.00076287566
0.00076347124
0.0007646653
0.0007663415
0.0007683264
0.00077044376
0.00077256547
0.00077464417
0.00077670289
0.00077880147
0.00078099026
0.00078331566
0.00078578107
0.00078845664
0.00079128974
0.00079452125
0.00079788012
0.00080203478
0.0008065873
0.00080984589
0.00082900653
0.00071646144
0.00070705111
0.00069955885
0.000680261
0.00065927094
0.00064225026
0.00063032356
0.00062171097
0.00061425641
0.00060735918
0.00060155304
0.0005975703
0.00059557084
0.00059488789
0.00059459054
0.00059418216
0.00059377217
0.0005936856
0.00059410999
0.00059503946
0.0005963585
0.00059791299
0.00059955648
0.00060118958
0.00060278122
0.00060435456
0.00060595777
0.00060762719
0.00060939566
0.00061126036
0.00061327715
0.00061539409
0.00061781438
0.00062027826
0.00062340482
0.00062659174
0.00062928385
0.00064306668
0.00056069684
0.00058010286
0.00056275761
0.00053260928
0.00051041075
0.00049463889
0.00048296263
0.00047383157
0.00046543358
0.00045761035
0.00045113701
0.00044662682
0.00044413257
0.00044307088
0.00044260405
0.00044219367
0.00044185089
0.00044179943
0.00044215705
0.00044289376
0.00044390655
0.00044507484
0.00044629194
0.00044749022
0.00044865279
0.00044979983
0.00045096659
0.00045217671
0.00045345201
0.00045478605
0.000456222
0.00045771061
0.0004594172
0.00046110153
0.0004633181
0.0004653199
0.00046759264
0.0004759065
0.00043929762
0.00048186123
0.00043321967
0.00039214885
0.00037478696
0.00036290003
0.00035059707
0.00033990549
0.00033032228
0.00032188973
0.00031535653
0.00031093982
0.00030843105
0.00030728733
0.00030681335
0.00030649051
0.00030628792
0.00030633345
0.00030666716
0.00030723978
0.00030797324
0.00030879009
0.00030962624
0.00031044352
0.0003112354
0.00031201673
0.00031281004
0.00031362824
0.00031448469
0.00031537142
0.00031632053
0.00031728758
0.00031840136
0.00031945017
0.00032090836
0.00032197369
0.00032392893
0.00032698883
0.00037829035
0.00040999257
0.00031580467
0.00027014291
0.00026239883
0.00025637338
0.00024170052
0.00022816249
0.00021768022
0.00020937786
0.00020347807