/*--------------------------------*- C++ -*----------------------------------*\
  =========                 |
  \\      /  F ield         | OpenFOAM: The Open Source CFD Toolbox
   \\    /   O peration     | Website:  https://openfoam.org
    \\  /    A nd           | Version:  7
     \\/     M anipulation  |
\*---------------------------------------------------------------------------*/
FoamFile
{
    version     2.0;
    format      ascii;
    class       volSymmTensorField;
    location    "2000";
    object      R;
}
// * * * * * * * * * * * * * * * * * * * * * * * * * * * * * * * * * * * * * //

dimensions      [0 2 -2 0 0 0 0];

internalField   nonuniform List<symmTensor> 
15296
(
(0.0063136707 9.0051009e-06 -6.6317952e-18 0.006313112 1.0218886e-15 0.0063140203)
(0.0062694241 1.3780718e-05 2.8671823e-14 0.0063004955 1.2382147e-15 0.0063072073)
(0.0062485569 1.3657532e-05 -6.9117565e-19 0.0062777122 1.0130882e-16 0.0062837625)
(0.0062239908 1.3433721e-05 3.1787979e-18 0.0062587013 1.6900014e-15 0.0062657652)
(0.0062012702 1.3314088e-05 3.0066291e-14 0.0062415538 -7.2710152e-16 0.0062496098)
(0.0061834068 1.2938112e-05 -8.2594924e-18 0.0062248788 1.1765688e-15 0.0062329966)
(0.0061689915 1.2495894e-05 7.6130307e-18 0.0062088791 1.1401395e-15 0.0062164763)
(0.0061569282 1.233699e-05 1.1381061e-17 0.0061936974 -2.9285914e-16 0.0062004596)
(0.0061467189 1.2107832e-05 -8.0816585e-19 0.0061793117 -7.0600813e-16 0.0061850336)
(0.0061378626 1.1974482e-05 3.2760741e-14 0.0061657443 4.7696176e-16 0.00617033)
(0.0061299344 1.2100998e-05 6.5251159e-19 0.0061530216 -3.5025976e-16 0.006156468)
(0.0061226727 1.2286553e-05 -1.4746857e-19 0.0061411339 -1.5933417e-16 0.0061434906)
(0.0061159235 1.2325741e-05 -3.4491235e-14 0.0061300531 -1.3494819e-15 0.0061313908)
(0.0061096259 1.2589315e-05 1.7538964e-14 0.0061197296 1.1268268e-15 0.0061201195)
(0.0061038016 1.3087851e-05 4.630694e-18 0.0061100933 -5.324603e-16 0.0061095903)
(0.006098527 1.3451016e-05 3.6283505e-14 0.0061010641 3.68144e-16 0.0060996919)
(0.0060939298 1.3702485e-05 1.8460568e-14 0.006092544 1.181872e-15 0.0060902798)
(0.0060902151 1.3886289e-05 3.7562733e-14 0.0060844244 9.1209004e-16 0.0060811829)
(0.0060876851 1.4280985e-05 3.1836988e-18 0.006076559 -2.5468959e-16 0.0060721701)
(0.0060867573 1.4602123e-05 -1.967889e-18 0.0060687632 -3.1102743e-16 0.0060629422)
(0.006088035 1.5233707e-05 -4.6196758e-18 0.0060607857 -2.5943007e-17 0.0060530887)
(0.0060923812 1.5831495e-05 -5.8000232e-18 0.0060522818 -5.3038314e-17 0.0060420398)
(0.0061010395 1.6802443e-05 4.0961371e-14 0.006042769 1.5505921e-15 0.0060289875)
(0.0061158561 1.8364656e-05 -2.0759323e-14 0.0060315429 -9.9785596e-16 0.0060127502)
(0.0061395528 2.0211592e-05 -6.1065932e-16 0.006017589 -6.8025802e-15 0.0059915926)
(0.006176191 2.3841873e-05 -1.6262221e-14 0.0059994223 5.2278128e-14 0.0059629345)
(0.0062320553 2.9270605e-05 -9.1863357e-14 0.0059748088 -4.9187224e-13 0.0059227767)
(0.0063166674 3.8041157e-05 4.4805336e-13 0.0059404885 4.6108586e-12 0.0058650287)
(0.0064458305 5.2928396e-05 -4.6515466e-12 0.0058913999 -4.5866154e-11 0.0057794608)
(0.0066439412 7.6626903e-05 7.2380752e-11 0.0058202582 5.3403651e-10 0.0056495851)
(0.0069571782 0.0001156389 -3.6919229e-10 0.005716033 -1.1183369e-08 0.0054427714)
(0.0074598135 0.00017929413 -5.5436355e-07 0.0055707075 -1.2183601e-07 0.0050999602)
(0.0083301877 0.00029105157 2.1358419e-05 0.0054197765 0.00014459012 0.0044299439)
(0.0078959014 0.00025263616 -1.2233803e-05 0.0055676164 -0.0023426869 0.0048640094)
(0.0083156988 0.00030179055 2.5577017e-06 0.0054873071 0.0022002599 0.0048396251)
(0.0089037587 0.00041960065 2.2762754e-05 0.0052120802 -0.0018541129 0.0048566889)
(0.0099761818 0.00035070805 -1.168398e-08 0.0056050814 -0.0023941065 0.0062735128)
(0.0063614122 -0.0002831536 -2.163861e-06 0.0026289917 -0.00017083475 0.0071757789)
(0.006317006 2.2703534e-05 5.8839453e-18 0.0063118887 3.2075889e-16 0.0063135185)
(0.0062695884 3.1836933e-05 -9.5560068e-15 0.0063034957 2.8464117e-17 0.0063045221)
(0.0062486184 3.2231586e-05 3.0047164e-18 0.0062806884 5.2863446e-16 0.0062814573)
(0.0062240173 3.2340424e-05 -9.858394e-15 0.0062621754 3.2915262e-16 0.0062630683)
(0.0062012404 3.2191541e-05 -1.2603666e-17 0.0062455101 -5.3697485e-16 0.0062465278)
(0.0061833327 3.1798285e-05 1.0194082e-14 0.0062289026 6.3972737e-16 0.0062299211)
(0.0061688968 3.1278351e-05 1.0386349e-14 0.0062127005 4.4546353e-16 0.0062136451)
(0.0061568223 3.0814427e-05 1.7986621e-17 0.0061971706 3.2544333e-17 0.0061980031)
(0.0061466068 3.0499809e-05 -1.0733893e-14 0.0061823413 -6.6436602e-16 0.0061830372)
(0.0061377563 3.0278189e-05 -1.093298e-14 0.0061682801 -3.5781955e-16 0.0061688284)
(0.0061298366 3.0229851e-05 -1.1119605e-14 0.0061550588 -6.4160812e-16 0.0061554602)
(0.0061225777 3.0233367e-05 1.1291984e-14 0.0061426957 6.3295383e-17 0.0061429566)
(0.0061158337 3.0322501e-05 1.1483006e-14 0.0061311682 -4.9802956e-17 0.0061312973)
(0.0061095467 3.0395393e-05 5.8644277e-15 0.0061204259 7.0430913e-16 0.0061204316)
(0.0061037262 3.0765814e-05 -1.1890129e-14 0.0061103974 -6.1880814e-16 0.0061102864)
(0.0060984499 3.0922818e-05 1.209157e-14 0.0061009888 6.3356972e-16 0.0061007638)
(0.0060938535 3.1049006e-05 6.1669424e-15 0.0060920772 7.7498752e-16 0.0060917355)
(0.0060901483 3.1192004e-05 2.5047303e-18 0.0060835241 4.4806372e-16 0.0060830551)
(0.0060876334 3.1215163e-05 -2.9781309e-18 0.0060751473 -1.6358637e-16 0.0060745295)
(0.0060867326 3.1169976e-05 6.4774444e-15 0.0060667094 4.6150617e-16 0.006065907)
(0.006088054 3.1014652e-05 -1.3755249e-17 0.006057887 1.4975678e-16 0.0060568444)
(0.0060924692 3.0499935e-05 6.7080146e-15 0.006048232 -2.0742556e-16 0.0060468664)
(0.0061012426 2.9853417e-05 -1.2542031e-17 0.0060371081 5.1934209e-16 0.006035298)
(0.0061162259 2.9114729e-05 2.2120214e-16 0.0060235975 -7.6181129e-16 0.006021166)
(0.0061401819 2.7836242e-05 -8.7543718e-15 0.0060063451 7.6841709e-16 0.0060030344)
(0.006177203 2.6254673e-05 7.314012e-15 0.0059833608 -1.0004948e-14 0.0059787962)
(0.0062336017 2.4134695e-05 -1.1399455e-13 0.0059516021 5.7342376e-14 0.0059452324)
(0.0063189494 2.176997e-05 1.1969723e-12 0.0059064941 -2.7630607e-13 0.0058975151)
(0.0064490002 1.9392319e-05 -1.1878e-11 0.005840617 -4.7085179e-13 0.0058278192)
(0.00664787 1.7074298e-05 1.4858616e-10 0.0057424837 9.3476452e-11 0.0057241282)
(0.0069605429 1.5640112e-05 1.9638316e-09 0.0055912664 -4.1510916e-09 0.0055647647)
(0.0074565593 1.4984682e-05 -6.8344471e-07 0.0053556927 -2.7761234e-07 0.0053185388)
(0.0082886014 2.4928602e-05 2.7079026e-05 0.0049671741 6.4580928e-05 0.0049236207)
(0.0088616941 4.2766417e-05 -1.8604016e-05 0.0047926341 -0.0015423324 0.0046719484)
(0.0091894668 2.1888987e-05 -5.1719016e-06 0.0047705225 0.0013058867 0.0046814565)
(0.0095763304 7.2890653e-05 2.631174e-05 0.0047163834 -0.00082709009 0.0046703451)
(0.010950287 -0.00022040457 4.3702967e-06 0.0054580515 -0.0012005164 0.0054840193)
(0.0066899436 -0.00060243103 -2.1570178e-06 0.0025040367 -0.00012444408 0.0054015263)
(0.0063201825 3.952504e-05 9.5628757e-18 0.0063114557 1.2757546e-16 0.0063134178)
(0.0062703709 5.1302823e-05 1.0995208e-17 0.0063039557 1.3807246e-16 0.0063045682)
(0.0062492582 5.2589679e-05 -5.8152787e-15 0.0062813618 5.5506808e-17 0.0062817028)
(0.0062247055 5.2739876e-05 -1.4150475e-17 0.0062629302 -4.2789529e-16 0.0062633136)
(0.006201968 5.2475546e-05 -1.397941e-17 0.0062463177 -9.3952363e-17 0.0062467585)
(0.0061840811 5.2065785e-05 -6.121615e-15 0.0062297232 1.6506146e-16 0.0062301719)
(0.0061696532 5.1537642e-05 7.9813753e-18 0.0062135097 2.6009389e-16 0.0062139371)
(0.0061575856 5.08705e-05 -6.3220815e-15 0.0061979511 -2.450787e-16 0.0061983432)
(0.0061473743 5.0406655e-05 -6.4450195e-15 0.0061830822 -6.762849e-16 0.0061834299)
(0.0061385209 4.9891362e-05 -1.2043812e-17 0.0061689779 -5.7685848e-16 0.0061692768)
(0.0061305962 4.9717852e-05 -6.6728759e-15 0.0061557125 -5.9031834e-16 0.0061559621)
(0.0061233338 4.9591435e-05 -6.7948464e-15 0.0061433048 -2.0840579e-16 0.0061435067)
(0.0061165819 4.9607047e-05 -3.4698833e-15 0.0061317364 1.2630164e-16 0.0061318923)
(0.0061102857 4.9683481e-05 -3.4950699e-15 0.0061209558 1.2144946e-16 0.0061210673)
(0.0061044547 4.9756855e-05 3.5828336e-15 0.0061108911 -5.1636543e-16 0.0061109594)
(0.0060991634 4.990783e-05 7.6683702e-20 0.0061014492 5.3300668e-16 0.006101474)
(0.0060945525 4.9986583e-05 -3.6810961e-15 0.0060925026 1.6557474e-16 0.0060924815)
(0.0060908226 4.9886232e-05 -6.7419936e-18 0.0060839163 -3.7805265e-17 0.0060838435)
(0.0060882745 4.9900663e-05 -3.8263225e-15 0.006075505 -1.8886054e-16 0.0060753693)
(0.0060873282 4.965376e-05 -7.7848016e-15 0.0060670292 5.7976781e-17 0.0060668124)
(0.0060885817 4.9229363e-05 -3.2356301e-17 0.0060581659 -6.1965655e-17 0.00605784)
(0.0060929035 4.8613761e-05 4.0253673e-15 0.0060484614 6.7588461e-17 0.0060479849)
(0.0061015464 4.7609533e-05 8.1723885e-15 0.0060372759 6.9546405e-16 0.0060365882)
(0.0061163402 4.6094684e-05 -3.7853786e-15 0.0060236877 -1.0624038e-15 0.0060227016)
(0.0061400152 4.4185928e-05 1.2093218e-15 0.0060063368 2.861102e-15 0.0060049266)
(0.0061766324 4.1314683e-05 2.6040022e-14 0.0059832172 -2.4069256e-14 0.0059812036)
(0.0062324627 3.7742024e-05 -2.3311887e-13 0.0059512561 1.5906223e-13 0.0059483842)
(0.0063170053 3.3216232e-05 2.0840878e-12 0.0059058358 -9.787028e-13 0.0059017521)
(0.0064459654 2.7458643e-05 -2.0138006e-11 0.0058394197 3.4406572e-12 0.0058336449)
(0.0066434805 2.0844648e-05 1.8441246e-10 0.0057402786 1.0758393e-10 0.0057322541)
(0.0069550315 1.3327109e-05 5.9306549e-09 0.0055868056 -3.8050238e-09 0.0055761409)
(0.0074528658 4.442597e-06 -7.8865425e-07 0.0053453298 -3.9861505e-07 0.0053336804)
(0.0083061844 9.5781643e-06 2.651191e-05 0.0049355723 5.383553e-05 0.0049378107)
(0.0090061492 5.4997314e-06 -1.3142527e-05 0.0046617862 -0.0013310188 0.0046577988)
(0.0093530789 -2.8525564e-05 -1.2583725e-05 0.0046498762 0.00097693474 0.0046376273)
(0.0096785888 3.6882247e-05 1.833259e-05 0.0046629764 -0.0003940182 0.0046112361)
(0.011059856 -0.00038843348 6.1909991e-06 0.0054731011 -0.00085606598 0.0053561646)
(0.0067628323 -0.00065864319 -1.5538681e-06 0.0025690515 -0.00014707812 0.004959032)
(0.0063226231 5.7631823e-05 1.8180084e-17 0.006311912 7.9518013e-17 0.006313907)
(0.0062713438 7.1095706e-05 1.1566853e-17 0.0063045857 1.8369186e-17 0.0063050739)
(0.006250062 7.3134414e-05 2.8319283e-19 0.0062822241 -3.5955232e-16 0.0062823881)
(0.0062255189 7.3423752e-05 4.2143591e-15 0.0062639084 -5.155355e-16 0.0062640483)
(0.0062027985 7.3140061e-05 -1.2398851e-17 0.0062473683 1.0179174e-16 0.006247514)
(0.0061849254 7.2579541e-05 2.7367487e-18 0.006230811 1.0449244e-16 0.0062309526)
(0.006170509 7.1901104e-05 7.4363466e-18 0.0062146129 3.406765e-16 0.0062147441)
(0.0061584534 7.1080704e-05 1.2578416e-17 0.0061990546 -3.2084942e-16 0.0061991738)
(0.0061482523 7.0352073e-05 -4.6060443e-15 0.006184176 -5.340167e-16 0.0061842827)
(0.0061394135 6.9726916e-05 -1.5370881e-17 0.0061700524 -5.9074021e-16 0.0061701471)
(0.0061315044 6.9248072e-05 4.7682416e-15 0.0061567626 -2.6130016e-16 0.006156846)
(0.0061242491 6.894344e-05 -4.8559733e-15 0.0061443323 -4.7401914e-16 0.0061444044)
(0.006117505 6.8802944e-05 -2.4907656e-15 0.0061327398 -2.6413861e-17 0.0061327998)
(0.0061112111 6.8939492e-05 1.6460504e-17 0.0061219369 -1.7316255e-17 0.0061219838)
(0.0061053801 6.8846097e-05 2.3185585e-17 0.0061118507 -4.0834399e-16 0.0061118832)
(0.006100087 6.9051488e-05 -2.5930844e-15 0.0061023873 5.4823406e-17 0.0061024039)
(0.0060954633 6.9065499e-05 1.2571689e-17 0.0060934232 -5.8872478e-17 0.006093422)
(0.0060917259 6.8957443e-05 2.6764462e-15 0.0060848143 5.7787352e-18 0.0060847925)
(0.0060891658 6.8722669e-05 -2.6601693e-18 0.0060763783 6.7658789e-17 0.0060763311)
(0.0060881973 6.842502e-05 -5.565489e-15 0.006067877 -5.0209612e-16 0.0060677966)
(0.0060894277 6.7914901e-05 -2.8701851e-15 0.0060589797 -1.8946906e-16 0.0060588546)
(0.0060937127 6.7172569e-05 6.075172e-18 0.0060492355 1.0843573e-16 0.0060490485)
(0.0061022982 6.6058469e-05 -5.5150638e-17 0.0060380018 7.3881834e-16 0.0060377284)
(0.0061170162 6.417233e-05 6.5546921e-15 0.0060243482 -1.0552921e-15 0.0060239532)
(0.0061405825 6.1708025e-05 -7.7439638e-15 0.0060069103 5.6770219e-15 0.0060063432)
(0.0061770372 5.8398232e-05 3.9967958e-14 0.0059836767 -4.3280624e-14 0.0059828642)
(0.0062326187 5.4011873e-05 -3.4397178e-13 0.0059515703 2.8543846e-13 0.0059504039)
(0.0063167562 4.8320127e-05 3.1088522e-12 0.0059059844 -1.7367142e-12 0.0059043012)
(0.0064450449 4.0959491e-05 -2.834474e-11 0.005839421 5.9581941e-12 0.0058369617)
(0.0066413372 3.2022994e-05 1.685875e-10 0.0057403319 1.4505907e-10 0.0057366693)
(0.0069504694 2.1387356e-05 1.019838e-08 0.0055876936 -2.956342e-09 0.0055819998)
(0.0074428979 7.8252308e-06 -8.1300486e-07 0.0053500331 -5.2169106e-07 0.0053407942)
(0.0082794501 7.1750088e-06 2.2456541e-05 0.0049596812 5.00994e-05 0.004941308)
(0.0090953231 -6.1780815e-06 -6.0918514e-06 0.0046157196 -0.0011743148 0.0046150501)
(0.0094568683 -5.4234236e-05 -1.5122344e-05 0.0045945053 0.00067386229 0.0045887004)
(0.0097042166 2.7613465e-05 8.913459e-06 0.0046310252 -7.3113215e-05 0.0046091904)
(0.01110197 -0.00046089828 5.655499e-06 0.0053820181 -0.00052429098 0.0053504696)
(0.0077778791 -0.00082888006 -9.040483e-07 0.002338852 -0.00016796347 0.0052200071)
(0.0063250588 7.6545985e-05 2.2340113e-17 0.0063127455 7.6303798e-17 0.0063146767)
(0.0062726931 9.1122247e-05 9.0202413e-18 0.006305294 -2.4667498e-16 0.006305943)
(0.0062511823 9.361044e-05 -3.2414304e-15 0.0062832427 -4.4898937e-16 0.006283395)
(0.0062266558 9.4219367e-05 -1.4118371e-17 0.00626504 -2.7990478e-16 0.0062651376)
(0.00620396 9.3931351e-05 -9.0001229e-18 0.0062485656 1.8033056e-17 0.0062486551)
(0.006186105 9.3215233e-05 7.2584419e-18 0.0062320515 7.3807246e-17 0.0062321303)
(0.0061717023 9.2310697e-05 4.3480629e-18 0.0062158803 1.9425473e-16 0.0062159488)
(0.0061596583 9.1388206e-05 3.5314368e-15 0.0062003365 -6.2803822e-17 0.0062003978)
(0.0061494707 9.0351599e-05 -1.2519706e-18 0.0061854615 -2.898685e-16 0.0061855182)
(0.0061406393 8.9602293e-05 -1.5807491e-17 0.0061713369 -3.7326719e-16 0.0061713916)
(0.0061327349 8.879015e-05 3.7119143e-15 0.0061580416 -3.9069868e-17 0.0061580963)
(0.0061254883 8.8435709e-05 -7.7163312e-18 0.0061455996 -5.8363604e-16 0.0061456547)
(0.0061187503 8.8115133e-05 -2.4657197e-17 0.0061339936 -2.1766603e-16 0.0061340479)
(0.0061124537 8.8032877e-05 1.9701238e-15 0.0061231797 6.6305125e-17 0.0061232307)
(0.0061066177 8.8067366e-05 -1.9588539e-15 0.0061130823 -4.1255637e-16 0.006113127)
(0.0061013171 8.8042632e-05 -4.032638e-15 0.0061036078 -3.4079484e-16 0.0061036433)
(0.0060966807 8.7959712e-05 -4.090562e-15 0.0060946343 -1.6011247e-16 0.0060946577)
(0.0060929222 8.7989367e-05 -4.1914703e-15 0.0060860189 -8.1073999e-17 0.0060860271)
(0.0060903386 8.7613049e-05 -2.1385094e-15 0.0060775763 1.0521622e-17 0.0060775649)
(0.0060893439 8.7310493e-05 -2.1733795e-15 0.0060690682 -5.4170934e-16 0.0060690307)
(0.0060905316 8.676149e-05 2.1564672e-15 0.0060601708 2.5788119e-17 0.0060600974)
(0.0060947622 8.5863991e-05 1.6369852e-17 0.0060504302 1.0915075e-16 0.0060503066)
(0.0061032698 8.4524082e-05 -4.6441412e-15 0.0060392092 2.803406e-16 0.0060390151)
(0.006117877 8.2578265e-05 8.4822097e-16 0.0060255807 -1.2505189e-15 0.0060252879)
(0.0061412913 7.9836154e-05 -4.4342702e-15 0.0060081824 9.1286995e-15 0.0060077514)
(0.0061775225 7.6082701e-05 5.9272435e-14 0.0059850143 -6.4159564e-14 0.0059843897)
(0.0062327741 7.1138029e-05 -4.8423369e-13 0.0059530106 4.1490186e-13 0.0059521127)
(0.0063164156 6.444519e-05 4.2544866e-12 0.0059075839 -2.4043851e-12 0.0059062971)
(0.0064439441 5.5976843e-05 -3.5952949e-11 0.0058412655 6.7457072e-12 0.0058394122)
(0.0066390268 4.5352406e-05 1.1180927e-10 0.0057425597 1.7724053e-10 0.0057398639)
(0.0069461591 3.2404318e-05 1.3721072e-08 0.0055905093 -7.7374e-10 0.0055864548)
(0.0074353036 1.5204521e-05 -7.5656119e-07 0.0053535018 -6.3494189e-07 0.005347532)
(0.0082654032 9.3948736e-06 1.7027437e-05 0.0049635995 4.593909e-05 0.0049530383)
(0.0091827315 -1.2348808e-05 -2.4533916e-07 0.0045805374 -0.0009921574 0.0045639609)
(0.009518499 -7.3579288e-05 -1.3277578e-05 0.004570132 0.0003842988 0.0045509888)
(0.0097003608 2.3097603e-05 2.1329912e-06 0.0046383677 9.9086343e-05 0.0045999001)
(0.011077454 -0.00049703456 4.149782e-06 0.0053642088 -0.00026585515 0.0052884315)
(0.0079582581 -0.00076277403 -8.4116988e-08 0.0030145367 -0.00011630102 0.0057645506)
(0.0063282174 0.00010197803 2.5647195e-17 0.0063141324 8.0042933e-17 0.0063161254)
(0.0062748624 0.00011738091 3.9287761e-18 0.006306414 -3.1404019e-16 0.0063074743)
(0.0062529833 0.00012016454 1.6406267e-15 0.0062848457 -4.5339477e-16 0.0062850786)
(0.0062284805 0.00012105512 -1.6811196e-15 0.006266803 -2.7473216e-16 0.0062669524)
(0.0062058242 0.0001207464 -1.7069967e-15 0.0062504195 -1.0679078e-16 0.006250561)
(0.0061879964 0.0001199551 -1.7169616e-15 0.0062339732 -8.0930466e-17 0.006234095)
(0.0061736185 0.00011888225 6.8310631e-18 0.0062178471 2.2598606e-17 0.0062179497)
(0.0061615911 0.00011773928 -1.781595e-15 0.0062023338 3.744892e-17 0.0062024223)
(0.0061514164 0.00011650592 -1.8236146e-15 0.0061874772 -1.2405431e-16 0.0061875553)
(0.0061425992 0.00011542403 -1.7925721e-17 0.0061733594 -2.0096122e-16 0.006173431)
(0.0061347111 0.0001144674 -3.1730909e-18 0.0061600608 1.6452544e-16 0.0061601297)
(0.006127474 0.00011379727 -1.4155236e-17 0.0061476117 -4.0573999e-16 0.0061476797)
(0.0061207354 0.00011329974 1.9233248e-15 0.0061359985 -1.9335274e-16 0.0061360644)
(0.0061144439 0.00011298479 2.0013485e-15 0.0061251708 2.2951677e-16 0.0061252315)
(0.0061085997 0.00011286278 2.8329457e-17 0.0061150634 -2.6522377e-16 0.0061151145)
(0.0061032812 0.00011267173 1.170684e-17 0.0061055817 -3.7131896e-16 0.0061056189)
(0.0060986303 0.00011245177 2.7955578e-17 0.0060965981 -1.756945e-16 0.006096617)
(0.0060948479 0.00011215951 -4.2515866e-15 0.0060879757 -5.5913512e-16 0.0060879717)
(0.0060922313 0.00011194602 2.1391094e-15 0.0060795298 4.4535406e-17 0.0060794965)
(0.0060911967 0.00011138851 -2.2023185e-15 0.0060710222 -3.9203825e-16 0.00607095)
(0.0060923302 0.00011073189 -5.0925356e-17 0.0060621337 -5.1769891e-17 0.0060620076)
(0.0060964842 0.00010976335 2.29146e-15 0.0060524162 3.6136437e-16 0.0060522142)
(0.0061048901 0.0001082928 -1.3438321e-16 0.0060412355 1.2151888e-16 0.0060409265)
(0.0061193571 0.00010633359 1.2733304e-15 0.0060276735 -1.7032033e-15 0.0060272138)
(0.0061425672 0.00010352969 -5.2668091e-15 0.0060103837 1.1848171e-14 0.0060097121)
(0.0061785117 9.9703017e-05 8.2669887e-14 0.0059873796 -7.5670217e-14 0.0059864102)
(0.00623334 9.4519818e-05 -6.9090461e-13 0.0059556283 4.6132371e-13 0.0059542369)
(0.0063163482 8.7630606e-05 5.8606606e-12 0.0059105859 -2.3102974e-12 0.0059085945)
(0.0064429171 7.8781067e-05 -4.470915e-11 0.0058448557 1.3893929e-12 0.00584199)
(0.0066364623 6.7429411e-05 1.7469475e-11 0.0057470785 1.7292543e-10 0.0057429331)
(0.0069410506 5.3201605e-05 1.6378612e-08 0.0055965263 5.2131036e-09 0.0055903605)
(0.0074260525 3.3699873e-05 -6.123523e-07 0.0053617064 -7.6974598e-07 0.0053529314)
(0.0082483757 2.2752125e-05 1.0158982e-05 0.0049751363 3.8118515e-05 0.0049615472)
(0.0092849936 -8.0509087e-06 4.5330443e-06 0.0045363059 -0.00071465343 0.0045082471)
(0.0095457801 -8.3528578e-05 -8.1913248e-06 0.0045591603 9.3802167e-05 0.0045340878)
(0.0096968048 2.4022126e-05 -2.6566108e-06 0.0046514374 0.00013119667 0.0045866296)
(0.010999924 -0.00050065364 1.3159778e-06 0.0053358839 -7.0194609e-05 0.0052233222)
(0.0088746979 -0.00090994918 2.6957823e-07 0.0034020529 -6.8728787e-05 0.0063839914)
(0.0063332016 0.00013610093 2.8710434e-17 0.0063159526 1.3088034e-16 0.0063184138)
(0.0062783289 0.0001511888 -4.8026809e-18 0.0063086017 -3.52559e-16 0.0063099835)
(0.0062559784 0.00015420697 1.1313195e-15 0.0062875853 -7.5033089e-17 0.0062878593)
(0.0062315094 0.00015526354 1.141749e-15 0.0062697924 -2.6221014e-16 0.0062699197)
(0.0062089122 0.00015494441 1.1634682e-15 0.0062535689 1.6538819e-17 0.0062536617)
(0.006191132 0.00015401784 -1.1760057e-15 0.0062372295 -2.8403311e-16 0.0062372878)
(0.0061767888 0.0001528057 1.1201553e-17 0.0062211742 3.619065e-17 0.0062212066)
(0.0061647913 0.00015140433 5.276049e-18 0.006205703 -1.035783e-16 0.0062057205)
(0.0061546416 0.00015000457 -1.2653723e-15 0.0061908673 -3.2304458e-16 0.0061908775)
(0.0061458436 0.00014852071 1.2595353e-15 0.0061767548 -4.7242445e-17 0.006176765)
(0.0061379683 0.00014735315 -5.2637007e-18 0.0061634502 1.7564136e-16 0.0061634669)
(0.0061307439 0.00014627247 1.2957994e-15 0.0061509843 -1.5281444e-16 0.0061510102)
(0.0061240152 0.00014547659 -1.9105922e-17 0.0061393473 5.2056411e-17 0.0061393813)
(0.0061177184 0.00014497042 -1.3391544e-15 0.0061284974 3.1539497e-16 0.0061285347)
(0.0061118632 0.00014446659 2.5449719e-17 0.0061183662 -1.0754418e-16 0.0061184005)
(0.0061065255 0.00014405118 1.6037501e-17 0.0061088611 -2.208265e-16 0.0061088862)
(0.0061018422 0.0001436845 -1.4089265e-15 0.0060998579 -2.8226737e-16 0.0060998685)
(0.0060980296 0.00014318842 -1.4735477e-15 0.0060912111 -8.7085862e-16 0.0060912028)
(0.0060953694 0.00014269971 -1.5520213e-17 0.0060827441 9.6337629e-17 0.0060827113)
(0.0060942741 0.00014195247 -1.5301554e-15 0.0060742211 -5.3502e-16 0.0060741554)
(0.0060953386 0.00014118455 1.4882268e-15 0.0060653188 -8.6938322e-17 0.006065207)
(0.0060993969 0.00014001231 3.2697612e-17 0.006055598 4.3228334e-16 0.0060554205)
(0.0061076746 0.00013849436 -2.2279326e-16 0.0060444271 3.0330461e-16 0.0060441563)
(0.0061219638 0.00013648257 1.9368887e-15 0.0060308954 -1.9772263e-15 0.0060304938)
(0.0061449273 0.00013364673 -1.9961981e-14 0.0060136639 1.2937058e-14 0.0060130804)
(0.0061805137 0.00012978746 1.2094716e-13 0.0059907639 -7.8361837e-14 0.005989929)
(0.0062348233 0.00012452097 -9.934094e-13 0.0059591812 4.2431624e-13 0.0059579965)
(0.0063170585 0.00011762979 8.016664e-12 0.0059144082 -1.5067826e-12 0.0059127369)
(0.0064424357 0.00010852968 -5.4774553e-11 0.0058491137 -6.9121901e-12 0.005846745)
(0.0066340844 9.6569856e-05 -4.9158329e-11 0.0057520572 7.7075037e-11 0.0057486918)
(0.0069354993 8.0841608e-05 1.5164617e-08 0.005602737 1.2408203e-08 0.0055977707)
(0.0074151753 5.8330485e-05 -3.700766e-07 0.0053698954 -7.9673466e-07 0.0053630863)
(0.0082269283 3.9035041e-05 3.5825502e-06 0.0049873006 2.6925135e-05 0.0049765673)
(0.0093580898 -4.1756738e-06 5.3961314e-06 0.0044996019 -0.00041197984 0.0044762535)
(0.0095454721 -9.6038581e-05 -2.2336032e-06 0.004553457 -8.5789575e-05 0.0045397397)
(0.0096998638 1.1779767e-05 -3.5498082e-06 0.0046513695 7.6956893e-05 0.0045851329)
(0.010883719 -0.0004819779 -5.8924652e-07 0.0052826487 2.3614058e-05 0.0051593066)
(0.0096025604 -0.0010918846 2.8218418e-07 0.0037705899 -1.6330312e-05 0.0067468357)
(0.0063391042 0.00017717836 -1.5284072e-15 0.0063188625 -1.0697538e-16 0.0063217409)
(0.0062830417 0.00018991915 -5.9182488e-18 0.0063119817 -2.9788506e-16 0.0063136536)
(0.006260259 0.0001927111 1.5104391e-18 0.0062915256 2.1203834e-16 0.0062918779)
(0.0062358411 0.00019392681 -1.3558503e-17 0.0062740472 -1.7875875e-16 0.0062741849)
(0.0062133259 0.00019352775 1.6484686e-15 0.0062580401 2.6094711e-16 0.0062581062)
(0.0061956139 0.00019240066 1.7083932e-15 0.0062418457 -2.1359574e-16 0.0062418578)
(0.0061813251 0.00019096986 1.8461586e-17 0.0062258852 2.7670031e-18 0.0062258615)
(0.0061693676 0.00018943549 -3.7181207e-18 0.0062104744 -1.9565985e-16 0.0062104306)
(0.0061592413 0.00018771884 -8.9121727e-18 0.0061956756 -3.8102367e-16 0.0061956231)
(0.006150467 0.00018599124 -9.1435216e-16 0.0061815747 -1.2228146e-16 0.0061815245)
(0.0061426149 0.00018440993 -9.2960633e-16 0.0061682619 -7.0431766e-17 0.0061682238)
(0.0061353993 0.00018308358 9.064036e-16 0.0061557791 -5.748569e-17 0.0061557586)
(0.0061286777 0.00018194003 2.8400223e-15 0.0061441138 4.6836739e-16 0.0061441105)
(0.0061223771 0.00018097159 2.9052378e-17 0.0061332321 2.7359281e-16 0.0061332406)
(0.0061165016 0.0001802528 2.335541e-17 0.0061230704 1.5629861e-18 0.0061230826)
(0.0061111399 0.00017954045 1.404244e-17 0.0061135312 -9.8340044e-17 0.0061135387)
(0.0061064246 0.00017892766 -2.0172442e-15 0.0061044943 -5.3535901e-16 0.0061044907)
(0.0061025621 0.00017826246 -5.370861e-18 0.0060958176 -7.7334976e-16 0.0060957981)
(0.006099844 0.00017741206 -1.3660307e-17 0.0060873205 -1.8076023e-18 0.0060872802)
(0.0060986863 0.00017655027 -2.1655736e-17 0.0060787657 -6.3490513e-16 0.0060786974)
(0.006099663 0.00017549022 2.13772e-15 0.0060698411 2.3210667e-16 0.0060697328)
(0.0061036064 0.00017426851 2.2726385e-15 0.0060601088 5.1439711e-16 0.0060599422)
(0.0061117388 0.00017261903 -1.4742837e-15 0.0060489389 4.809521e-16 0.0060486882)
(0.006125825 0.00017052947 1.6693274e-15 0.0060354337 -2.180061e-15 0.0060350641)
(0.0061485015 0.00016764305 -2.154967e-14 0.0060182668 1.356844e-14 0.0060177318)
(0.0061836857 0.0001637659 1.7020354e-13 0.0059954825 -7.4887594e-14 0.0059947204)
(0.006237414 0.00015852152 -1.3571783e-12 0.0059640954 3.1884127e-13 0.0059630198)
(0.0063187773 0.00015142059 1.0531169e-11 0.0059196465 -1.1517415e-13 0.0059181405)
(0.0064428214 0.00014206704 -6.7313034e-11 0.005854877 -1.6571e-11 0.0058527586)
(0.006632332 0.00012939855 1.8788785e-11 0.0057587113 -6.2759696e-11 0.0057557305)
(0.0069301759 0.00011207843 9.3930151e-09 0.0056109048 1.7160793e-08 0.0056065102)
(0.0074038018 8.6603553e-05 -1.175469e-07 0.0053805605 -6.7225758e-07 0.0053746789)
(0.0082039486 5.7866753e-05 -6.6607998e-07 0.0050024942 1.5088548e-05 0.0049932757)
(0.009390516 2.4784203e-06 3.0256694e-06 0.0044852748 -0.00016764476 0.004464884)
(0.0095438141 -0.0001061552 1.3535831e-06 0.0045528034 -0.00012379946 0.0045427209)
(0.0097045408 -1.1786477e-05 -1.978527e-06 0.0046549273 9.4668925e-06 0.0045838613)
(0.010765852 -0.00043941212 -1.0493673e-06 0.0052365099 3.4355986e-05 0.0050816159)
(0.010052636 -0.0012579399 1.061118e-07 0.0040460162 8.7385022e-06 0.0069453236)
(0.0063460009 0.00022563332 -1.1014614e-15 0.0063236845 -2.5830082e-16 0.0063262672)
(0.0062892831 0.00023435971 5.0720816e-18 0.0063169915 -1.9646508e-16 0.0063188818)
(0.0062662159 0.0002365045 4.0289838e-18 0.0062971045 8.2754219e-17 0.0062975414)
(0.006241901 0.00023766978 -1.433859e-17 0.0062799969 -1.5290816e-16 0.0062801665)
(0.0062194942 0.00023713362 -1.4651591e-17 0.0062642654 2.7804131e-16 0.0062643316)
(0.0062018799 0.00023576953 1.3539026e-17 0.0062482555 -7.0517003e-18 0.0062482526)
(0.0061876721 0.00023409111 -1.2239648e-15 0.0062324139 -1.1817841e-16 0.0062323696)
(0.0061757698 0.00023232109 -1.0805989e-17 0.0062170807 -1.7630789e-16 0.0062170143)
(0.0061656813 0.00023033529 1.2754575e-15 0.0062023271 -2.1471438e-16 0.0062022515)
(0.0061569333 0.00022839009 -9.0181247e-18 0.0061882448 -1.8739758e-16 0.0061881729)
(0.0061490997 0.00022646196 -6.9741781e-18 0.0061749279 -1.9593668e-16 0.0061748727)
(0.0061419003 0.00022463675 -1.7635327e-17 0.0061624205 -2.4958911e-17 0.0061623906)
(0.0061351755 0.00022312629 1.3633137e-15 0.0061507234 5.6152547e-16 0.0061507203)
(0.0061288681 0.00022181818 2.1749236e-17 0.0061397985 1.8168411e-16 0.006139817)
(0.0061229764 0.00022071529 -1.4026124e-15 0.0061295889 8.1972135e-18 0.0061296187)
(0.0061175772 0.00021977877 3.0940571e-18 0.0061200052 -7.007186e-17 0.006120035)
(0.0061128145 0.00021880567 1.4881253e-15 0.0061109244 -4.1501086e-16 0.0061109449)
(0.0061088907 0.00021778001 6.3131369e-18 0.0061022042 -4.9171653e-16 0.0061022088)
(0.0061061025 0.00021671188 -1.5412196e-15 0.0060936629 -1.2114957e-16 0.0060936463)
(0.006104856 0.00021558443 -1.7390873e-17 0.0060850689 -4.827715e-16 0.0060850238)
(0.0061057303 0.0002142506 -3.2511971e-17 0.0060761084 3.6619376e-16 0.0060760225)
(0.0061095429 0.00021281784 1.6754836e-15 0.0060663519 6.524932e-16 0.0060662058)
(0.006117496 0.00021102477 -5.1277101e-16 0.0060551804 5.8476483e-16 0.006054946)
(0.0061313462 0.00020878518 3.9957922e-15 0.0060417012 -2.4313202e-15 0.0060413408)
(0.006153699 0.000205794 -3.1739455e-14 0.0060246031 1.3189315e-14 0.0060240669)
(0.0061884235 0.00020186233 2.3207502e-13 0.0060019539 -5.9478899e-14 0.0060011776)
(0.0062414829 0.00019651697 -1.7995002e-12 0.0059708027 1.0405449e-13 0.005969698)
(0.0063218602 0.00018927366 1.3476605e-11 0.0059267396 2.0765792e-12 0.0059251903)
(0.0064443956 0.00017938926 -8.5947987e-11 0.0058625972 -2.9670276e-11 0.0058604229)
(0.0066315058 0.00016579091 2.8153685e-10 0.0057674868 -1.262537e-10 0.0057644516)
(0.0069253621 0.00014683506 7.4863768e-10 0.0056214561 1.6415435e-08 0.0056170034)
(0.0073921215 0.00011810048 7.3219697e-08 0.0053941228 -4.2426806e-07 0.0053882109)
(0.0081794819 7.9430575e-05 -2.3510706e-06 0.0050212709 5.1507646e-06 0.0050121871)
(0.0094012816 1.097107e-05 -5.5539505e-08 0.0044845375 -1.5439531e-05 0.0044648243)
(0.0095465794 -0.00011492126 2.0792759e-06 0.0045520694 -7.9833463e-05 0.0045433578)
(0.0097098918 -4.8963002e-05 -1.773183e-07 0.0046598302 -2.5346316e-05 0.0045851882)
(0.010656606 -0.00038150138 -6.4723074e-07 0.0051955377 1.4980938e-05 0.0050036219)
(0.010330711 -0.0013981211 -2.684402e-08 0.0042536402 1.1443239e-05 0.0070533931)
(0.0063533582 0.00028057715 2.0982092e-17 0.0063313849 -1.5111156e-16 0.0063329877)
(0.0062974317 0.00028563423 1.1421974e-17 0.0063242277 -1.7461563e-16 0.0063261867)
(0.0062743458 0.00028649919 5.0822196e-18 0.0063049237 -1.8191041e-17 0.0063053841)
(0.0062502133 0.00028726643 8.5583112e-16 0.0062882569 -3.0166791e-17 0.0062884133)
(0.0062279668 0.00028637836 -1.2931046e-17 0.0062728671 3.2328699e-17 0.0062728869)
(0.006210489 0.00028471598 -8.8990518e-16 0.006257094 -9.2735984e-17 0.0062570273)
(0.0061963941 0.00028282893 -8.9182296e-16 0.0062414072 -2.901999e-16 0.0062412929)
(0.0061845717 0.0002807696 -1.1978592e-17 0.006226175 -2.0053163e-16 0.0062260361)
(0.0061745344 0.00027856683 -1.3733631e-17 0.0062114836 -1.8618168e-16 0.0062113336)