/*--------------------------------*- C++ -*----------------------------------*\
  =========                 |
  \\      /  F ield         | OpenFOAM: The Open Source CFD Toolbox
   \\    /   O peration     | Website:  https://openfoam.org
    \\  /    A nd           | Version:  7
     \\/     M anipulation  |
\*---------------------------------------------------------------------------*/
FoamFile
{
    version     2.0;
    format      ascii;
    class       volScalarField;
    location    "2000";
    object      k;
}
// * * * * * * * * * * * * * * * * * * * * * * * * * * * * * * * * * * * * * //

dimensions      [0 2 -2 0 0 0 0];

internalField   nonuniform List<scalar> 
15296
(
0.0016938962
0.0016886758
0.0016837119
0.0016789847
0.0016744713
0.0016701577
0.0016660333
0.0016620898
0.0016583201
0.0016547174
0.001651276
0.0016479901
0.0016448546
0.0016418648
0.001639016
0.0016363041
0.0016337236
0.0016312717
0.0016289445
0.0016267383
0.0016246499
0.0016226759
0.0016208134
0.0016190602
0.0016174155
0.0016158817
0.0016144684
0.0016132008
0.0016121456
0.0016114167
0.0016113612
0.001612947
0.0016188401
0.0016363859
0.0016738632
0.0017138841
0.0020556945
0.0014340275
0.0016939569
0.0016887355
0.0016837759
0.001679051
0.0016745396
0.0016702276
0.0016661047
0.0016621625
0.0016583938
0.0016547921
0.0016513514
0.0016480661
0.0016449311
0.0016419417
0.0016390931
0.0016363813
0.0016338008
0.0016313488
0.0016290213
0.0016268149
0.001624726
0.0016227515
0.0016208884
0.0016191345
0.0016174891
0.0016159543
0.0016145396
0.0016132702
0.0016122121
0.0016114777
0.0016114093
0.0016129615
0.0016187646
0.0016361177
0.0016734432
0.0017116648
0.0020573574
0.0013006505
0.0016940849
0.0016888654
0.0016839121
0.0016791907
0.0016746821
0.0016703726
0.0016662517
0.0016623113
0.0016585441
0.0016549436
0.0016515038
0.0016482193
0.0016450848
0.0016420956
0.0016392472
0.0016365354
0.0016339547
0.0016315023
0.0016291743
0.0016269672
0.0016248776
0.0016229021
0.0016210379
0.0016192828
0.0016176359
0.0016160995
0.0016146828
0.0016134106
0.0016123485
0.0016116071
0.0016115234
0.0016130368
0.0016187415
0.0016358797
0.0016730275
0.001709279
0.0020580725
0.0011334784
0.0016942735
0.0016890627
0.0016841168
0.0016793998
0.0016748948
0.0016705883
0.00166647
0.0016625317
0.0016587663
0.0016551672
0.0016517285
0.0016484448
0.0016453108
0.0016423219
0.0016394736
0.0016367616
0.0016341805
0.0016317274
0.0016293987
0.0016271905
0.0016250997
0.0016231229
0.0016212572
0.0016195003
0.0016178515
0.0016163128
0.0016148935
0.0016136178
0.0016125509
0.0016118018
0.0016117019
0.0016131756
0.0016187827
0.0016356997
0.0016726589
0.0017070606
0.0020544426
0.0011564339
0.0016945206
0.0016893273
0.0016843893
0.0016796776
0.001675177
0.0016708741
0.0016667588
0.001662823
0.0016590596
0.0016554622
0.0016520248
0.0016487419
0.0016456085
0.0016426198
0.0016397713
0.0016370589
0.0016344773
0.0016320234
0.0016296935
0.0016274841
0.0016253916
0.0016234131
0.0016215454
0.0016197863
0.001618135
0.0016165935
0.0016151709
0.0016138911
0.0016128185
0.0016120609
0.001611944
0.0016133771
0.0016188858
0.0016355792
0.0016723345
0.0017051097
0.0020459372
0.0012931279
0.0016949144
0.001689755
0.0016848278
0.0016801242
0.0016756302
0.0016713327
0.0016672219
0.0016632899
0.0016595295
0.0016559344
0.0016524987
0.001649217
0.0016460843
0.0016430958
0.0016402471
0.001637534
0.0016349513
0.001632496
0.0016301643
0.0016279528
0.0016258579
0.0016238765
0.0016220056
0.0016202431
0.0016185879
0.0016170421
0.0016156144
0.0016143283
0.0016132476
0.001612478
0.001612338
0.0016137178
0.0016190975
0.0016355038
0.0016719803
0.0017029949
0.0020311721
0.0014779323
0.0016955681
0.0016904672
0.0016855562
0.0016808655
0.0016763818
0.0016720928
0.0016679889
0.0016640625
0.0016603066
0.001656715
0.0016532818
0.0016500018
0.0016468699
0.0016438815
0.0016410322
0.0016383179
0.0016357334
0.0016332757
0.001630941
0.0016287258
0.0016266268
0.0016246408
0.0016227649
0.0016209967
0.0016193353
0.0016177824
0.0016163468
0.0016150511
0.0016139577
0.001613171
0.0016129999
0.0016143099
0.0016195193
0.0016355717
0.0016716706
0.0017010506
0.0020104423
0.0016200024
0.001696523
0.0016914786
0.0016865944
0.0016819224
0.001677453
0.0016731754
0.0016690808
0.001665162
0.0016614121
0.001657825
0.0016543951
0.0016511171
0.0016479862
0.0016449977
0.0016421473
0.0016394311
0.001636844
0.0016343826
0.0016320436
0.0016298233
0.0016277186
0.0016257261
0.0016238429
0.0016220668
0.0016203966
0.0016188341
0.0016173874
0.0016160786
0.0016149684
0.0016141602
0.0016139512
0.0016151809
0.0016201898
0.0016358579
0.0016714949
0.0016997391
0.0019881447
0.0017160304
0.0016978897
0.0016928806
0.0016880413
0.001683396
0.0016789459
0.0016746837
0.0016706017
0.0016666929
0.0016629509
0.0016593698
0.001655944
0.0016526685
0.0016495385
0.0016465497
0.0016436977
0.0016409785
0.0016383876
0.0016359212
0.001633576
0.0016313487
0.0016292359
0.0016272344
0.0016253413
0.0016235542
0.001621872
0.0016202962
0.0016188346
0.0016175083
0.0016163757
0.0016155402
0.0016152854
0.0016164225
0.0016211974
0.0016364461
0.0016714643
0.001699278
0.0019641484
0.0017940996
0.0016997391
0.0016948115
0.0016900273
0.0016854179
0.0016809947
0.0016767538
0.0016726891
0.0016687942
0.0016650632
0.0016614903
0.0016580704
0.0016547986
0.0016516704
0.0016486813
0.0016458274
0.0016431047
0.0016405091
0.0016380362
0.0016356832
0.0016334467
0.0016313234
0.0016293102
0.0016274042
0.0016256028
0.0016239049
0.0016223117
0.0016208305
0.0016194816
0.0016183204
0.0016174504
0.0016171398
0.0016181696
0.001622674
0.0016374565
0.0016716014
0.0016998213
0.0019386584
0.0018602119
0.0017022164
0.0016974382
0.0016927195
0.0016881585
0.0016837727
0.0016795615
0.0016755209
0.0016716455
0.0016679299
0.001664369
0.0016609577
0.0016576917
0.0016545665
0.0016515781
0.0016487225
0.001645996
0.0016433951
0.0016409144
0.0016385518
0.001636304
0.0016341678
0.0016321399
0.0016302175
0.0016283981
0.0016266802
0.0016250648
0.0016235586
0.0016221807
0.0016209834
0.0016200701
0.001619692
0.0016205962
0.0016247927
0.001639045
0.00167201
0.0017013362
0.0019128808
0.001916978
0.0017056232
0.0017009482
0.0016963272
0.0016918332
0.0016874979
0.0016833271
0.001679319
0.00167547
0.0016717753
0.0016682303
0.0016648308
0.0016615727
0.0016584519
0.0016554647
0.0016526072
0.001649876
0.0016472682
0.0016447778
0.001642403
0.0016401407
0.0016379877
0.0016359409
0.0016339974
0.0016321545
0.0016304107
0.0016287666
0.001627228
0.0016258128
0.0016245695
0.0016236014
0.001623141
0.0016238978
0.0016277522
0.0016413821
0.0016728968
0.0017036666
0.0018885515
0.0019600616
0.0017101706
0.0017056316
0.0017011267
0.0016967189
0.0016924512
0.0016883343
0.0016843695
0.0016805552
0.0016768878
0.0016733639
0.0016699798
0.001666732
0.0016636169
0.0016606311
0.0016577712
0.0016550338
0.001652416
0.0016499136
0.0016475229
0.0016452416
0.0016430668
0.0016409952
0.001639024
0.0016371505
0.0016353729
0.0016336913
0.0016321106
0.0016306472
0.0016293452
0.0016283078
0.0016277468
0.0016283286
0.0016318106
0.0016446562
0.0016745379
0.0017067375
0.0018666447
0.0019910773
0.0017161756
0.0017118601
0.0017074785
0.0017031781
0.0016990006
0.0016949565
0.0016910503
0.0016872829
0.0016836528
0.0016801578
0.0016767952
0.0016735623
0.0016704562
0.0016674738
0.0016646122
0.0016618684
0.0016592396
0.0016567232
0.0016543131
0.0016520088
0.0016498071
0.001647705
0.0016456995
0.0016437878
0.0016419679
0.0016402392
0.0016386057
0.0016370816
0.0016357064
0.0016345823
0.0016338992
0.0016342722
0.0016373503
0.0016491479
0.0016772974
0.0017107075
0.0018473205
0.0020129518
0.0017243149
0.0017200641
0.0017158368
0.0017116782
0.0017076195
0.0017036722
0.0016998445
0.0016961407
0.0016925616
0.0016891068
0.0016857749
0.0016825641
0.0016794724
0.0016764974
0.0016736367
0.0016708876
0.0016682476
0.0016657153
0.0016632839
0.0016609531
0.0016587199
0.0016565813
0.0016545345
0.0016525767
0.0016507052
0.0016489188
0.0016472203
0.0016456215
0.0016441564
0.0016429247
0.0016420944
0.0016422188
0.0016448574
0.0016553516
0.0016816665
0.0017158281
0.0018326405
0.0020207933
0.0017369996
0.0017329055
0.0017288786
0.0017249187
0.0017210354
0.0017172348
0.0017135276
0.0017099224
0.0017064232
0.0017030319
0.0016997492
0.0016965749
0.001693508
0.0016905472
0.0016876907
0.0016849367
0.001682283
0.0016797278
0.0016772688
0.0016749011
0.0016726229
0.0016704321
0.0016683259
0.0016663011
0.0016643544
0.0016624837
0.0016606896
0.0016589809
0.0016573847
0.0016559933
0.001654953
0.0016547288
0.0016567972
0.0016655255
0.0016895345
0.0017238744
0.0018213749
0.0020139344
0.0017559605
0.0017521754
0.0017484129
0.0017446971
0.001741038
0.0017374344
0.0017338949
0.0017304299
0.0017270464
0.001723749
0.0017205406
0.0017174229
0.0017143965
0.0017114613
0.0017086165
0.0017058611
0.0017031937
0.0017006127
0.0016981179
0.0016957047
0.0016933681
0.0016911087
0.0016889236
0.0016868089
0.0016847605
0.0016827749
0.0016808503
0.0016789908
0.0016772163
0.0016755965
0.0016742789
0.0016736028
0.0016749775
0.0016815852
0.0017030374
0.0017363728
0.0018178728
0.0019986103
0.0017803867
0.0017768646
0.0017733588
0.0017698894
0.0017664644
0.0017630745
0.0017597239
0.0017564223
0.0017531776
0.0017499959
0.0017468819
0.0017438389
0.0017408688
0.0017379727
0.0017351509
0.0017324032
0.001729729
0.0017271273
0.0017245969
0.0017221382
0.0017197426
0.001717412
0.0017151422
0.001712929
0.0017107679
0.0017086535
0.0017065814
0.0017045502
0.0017025727
0.001700686
0.0016990564
0.0016978813
0.0016985167
0.0017029805
0.0017219818
0.0017533618
0.0018224762
0.001984643
0.0018113012
0.0018079981
0.0018047286
0.0018014936
0.0017982962
0.0017951202
0.0017919649
0.0017888379
0.001785746
0.0017826953
0.0017796912
0.0017767378
0.0017738378
0.0017709932
0.0017682051
0.0017654741
0.0017628
0.0017601826
0.0017576209
0.0017551141
0.001752661
0.0017502578
0.0017478972
0.0017455775
0.0017432931
0.0017410368
0.0017388007
0.0017365772
0.0017343711
0.0017321915
0.0017302072
0.0017284851
0.001728324
0.0017306894
0.0017472817
0.0017760508
0.0018346198
0.0019777071
0.0018496772
0.001846654
0.0018436317
0.0018406215
0.0018376377
0.0018346647
0.0018316989
0.0018287458
0.0018258106
0.0018228981
0.001820013
0.0018171592
0.0018143397
0.0018115566
0.0018088116
0.0018061054
0.0018034386
0.001800811
0.0017982223
0.0017956709
0.0017931584
0.0017906788
0.0017882271
0.0017857955
0.0017833797
0.0017809705
0.0017785562
0.001776122
0.0017736632
0.0017711642
0.0017687825
0.0017664713
0.001765441
0.0017658551
0.0017797488
0.0018053562
0.0018543915
0.0019806127
0.0018967856
0.0018940452
0.001891271
0.0018884819
0.0018857046
0.0018829263
0.001880143
0.0018773596
0.0018745801
0.001871808
0.0018690468
0.0018662998
0.0018635693
0.0018608573
0.0018581651
0.0018554937
0.0018528435
0.0018502146
0.0018476066
0.0018450181
0.0018424484
0.0018398937
0.0018373525
0.0018348139
0.0018322654
0.0018296994
0.0018270991
0.0018244422
0.0018217132
0.0018188756
0.0018160404
0.0018131175
0.001811131
0.0018098649
0.0018198948
0.0018418573
0.0018841002
0.0019840686
0.0019539734
0.0019514562
0.001948914
0.0019463472
0.0019437789
0.0019411947
0.0019385899
0.0019359703
0.001933341
0.0019307051
0.0019280656
0.0019254253
0.0019227858
0.0019201484
0.001917514
0.0019148831
0.0019122559
0.0019096322
0.0019070114
0.0019043922
0.0019017724
0.0018991485
0.0018965156
0.0018938693
0.0018911926
0.0018884716
0.0018856796
0.0018827916
0.0018797794
0.0018765861
0.001873252
0.0018697021
0.0018666713
0.0018639636
0.0018686717
0.0018869157
0.0019242659
0.0019966169
0.0020224221
0.0020201555
0.0020178766
0.0020155547
0.0020132069
0.0020108189
0.0020083876
0.0020059226
0.0020034316
0.0020009195
0.0019983901
0.0019958461
0.0019932889
0.0019907193
0.0019881375
0.0019855436
0.0019829372
0.0019803176
0.0019776838
0.0019750338
0.0019723649
0.0019696727
0.0019669507
0.0019641899
0.0019613808
0.0019584986
0.0019555147
0.0019523914
0.0019490868
0.0019455173
0.0019416736
0.0019374632
0.0019333412
0.0019291914
0.00192917
0.0019430522
0.00197544
0.0020235101
0.0021034508
0.0021015867
0.0020996236
0.0020975569
0.0020954241
0.002093221
0.0020909487
0.002088621
0.0020862495
0.0020838413
0.0020814018
0.0020789346
0.0020764413
0.0020739227
0.0020713787
0.0020688086
0.0020662117
0.0020635866
0.0020609315
0.0020582441
0.0020555205
0.0020527553
0.0020499407
0.0020470649
0.0020441126
0.0020410589
0.0020378757
0.0020345082
0.0020308982
0.002026943
0.0020225879
0.0020176439
0.0020124545
0.0020067512
0.0020030368
0.0020108278
0.0020377254
0.002065759
0.0021992028
0.0021974961
0.002195731
0.0021938595
0.0021919027
0.0021898521
0.0021877081
0.0021854871
0.0021832042
0.0021808689
0.0021784886
0.002176068
0.0021736096
0.0021711144
0.002168582
0.0021660117
0.0021634023
0.0021607518
0.0021580579
0.0021553172
0.0021525251
0.0021496749
0.0021467571
0.0021437576
0.002140657
0.0021374262
0.0021340268
0.0021303988
0.0021264689
0.002122114
0.0021172405
0.0021115263
0.0021053097
0.0020979451
0.0020915048
0.0020902502
0.0021117428
0.0021233
0.0023105402
0.0023091232
0.0023075836
0.0023058842
0.0023040589
0.0023021084
0.0023000381
0.0022978692
0.0022956207
0.0022933051
0.0022909318
0.0022885071
0.0022860342
0.0022835146
0.0022809482
0.0022783344
0.0022756714
0.0022729571
0.0022701885
0.0022673615
0.0022644706
0.0022615075
0.0022584611
0.0022553148
0.0022520454
0.002248619
0.0022449893
0.0022410854
0.0022368203
0.0022320389
0.0022266239
0.0022201793
0.0022128846
0.0022039061
0.0021949209
0.0021864461
0.0022006743
0.0021974657
0.0024393891
0.0024380743
0.0024366313
0.0024350012
0.0024332119
0.0024312662
0.002429173
0.0024269591
0.0024246487
0.0024222581
0.0024197992
0.0024172801
0.0024147054
0.0024120772
0.0024093957
0.0024066602
0.0024038691
0.0024010199
0.0023981091
0.002395132
0.0023920819
0.0023889494
0.0023857213
0.0023823786
0.0023788943
0.0023752295
0.0023713304
0.0023671151
0.0023624815
0.0023572495
0.0023512623
0.0023440884
0.0023356708
0.0023252196
0.0023137005
0.0023001173
0.0023028308
0.0022867791
0.0025871398
0.0025858
0.0025843017
0.0025825769
0.0025806536
0.0025785409
0.0025762548
0.0025738296
0.0025712958
0.0025686741
0.0025659796
0.0025632222
0.0025604076
0.0025575384
0.002554615
0.0025516368
0.0025486018
0.0025455072
0.0025423489
0.0025391215
0.0025358173
0.0025324255
0.002528931
0.0025253122
0.0025215386
0.0025175658
0.0025133329
0.0025087477
0.0025036928
0.0024979671
0.0024913735
0.0024834495
0.0024739733
0.0024620666
0.0024481798
0.0024308295
0.0024222841
0.0023938756
0.0027556769
0.0027539646
0.0027520702
0.0027499197
0.0027475426
0.0027449549
0.0027421814
0.0027392649
0.0027362415
0.002733136
0.0027299657
0.0027267417
0.0027234698
0.0027201524
0.0027167895
0.0027133798
0.0027099205
0.0027064082
0.002702838
0.0026992033
0.0026954955
0.0026917023
0.0026878067
0.0026837843
0.0026796012
0.0026752082
0.0026705374
0.002665487
0.0026599252
0.0026536337
0.0026463784
0.0026376708
0.0026271819
0.0026138738
0.0025979125
0.0025773081
0.0025616999
0.0025172152
0.0029461278
0.0029436072
0.0029408672
0.0029378391
0.0029345608
0.0029310593
0.0029273735
0.0029235573
0.0029196536
0.0029156911
0.0029116888
0.0029076579
0.0029036036
0.002899527
0.0028954268
0.0028913002
0.0028871434
0.0028829515
0.0028787184
0.0028744366
0.0028700959
0.0028656827
0.0028611779
0.0028565549
0.0028517765
0.0028467889
0.0028415183
0.0028358545
0.0028296533
0.0028226828
0.0028146772
0.0028051352
0.002793628
0.0027791126
0.0027613111
0.002737962
0.0027182812
0.0026586586
0.0031594334
0.0031554497
0.0031512205
0.0031466903
0.0031419034
0.0031368966
0.0031317259
0.0031264578
0.0031211415
0.0031158091
0.0031104807
0.0031051669
0.0030998712
0.003094593
0.0030893292
0.0030840753
0.0030788259
0.0030735748
0.0030683148
0.0030630372
0.0030577306
0.00305238
0.0030469649
0.0030414566
0.003035815
0.0030299831
0.0030238817
0.0030173947
0.0030103676
0.0030025602
0.0029936815
0.0029832304
0.0029706996
0.0029550912
0.0029358202
0.0029103434
0.0028875879
0.0028213631
0.003396684
0.0033902794
0.0033836282
0.0033767017
0.0033695443
0.0033621979
0.0033547368
0.0033472393
0.0033397589
0.0033323295
0.0033249713
0.0033176935
0.0033104975
0.003303381
0.0032963391
0.0032893661
0.0032824555
0.0032756
0.0032687919
0.0032620216
0.0032552771
0.0032485424
0.0032417959
0.0032350074
0.0032281351
0.0032211194
0.0032138774
0.0032062895
0.0031981942
0.0031893482
0.0031794447
0.0031679926
0.0031544395
0.0031378389
0.0031174992
0.0030907495
0.0030654857
0.0029983697
0.0036496128
0.0036397496
0.0036296135
0.0036192259
0.0036086345
0.0035978903
0.0035870965
0.0035763493
0.0035657094
0.0035552156
0.0035448908
0.0035347446
0.0035247782
0.0035149888
0.0035053715
0.00349592
0.0034866274
0.0034774862
0.0034684881
0.0034596229
0.0034508779
0.0034422365
0.003433676
0.0034251651
0.0034166604
0.0034081008
0.0033994015
0.0033904414
0.003381056
0.0033710041
0.0033599736
0.0033474916
0.0033329922
0.0033155981
0.0032945563
0.0032674863
0.0032407475
0.0031763667
0.0039001439
0.0038859123
0.0038712805
0.0038563531
0.0038412035
0.0038259173
0.0038106537
0.0037955454
0.0037806726
0.003766088
0.0037518229
0.0037378906
0.003724294
0.0037110307
0.0036980951
0.0036854798
0.0036731762
0.003661175
0.0036494658
0.0036380363
0.0036268717
0.0036159531
0.0036052557
0.0035947464
0.00358438
0.003574094
0.0035638027
0.0035533848
0.0035426765
0.0035314415
0.0035193717
0.0035060162
0.0034908193
0.0034729753
0.0034517267
0.0034250073
0.0033980348
0.0033383539
0.004138377
0.0041188022
0.0040984981
0.0040777737
0.0040567982
0.0040357432
0.0040148585
0.0039943275
0.0039742559
0.0039547108
0.0039357286
0.0039173212
0.0038994876
0.0038822197
0.0038655056
0.0038493312
0.0038336816
0.0038185413
0.0038038942
0.0037897228
0.0037760077
0.0037627258
0.0037498488
0.0037373406
0.0037251538
0.0037132243
0.0037014659
0.0036897582
0.0036779395
0.0036657803
0.0036529805
0.0036391112
0.0036236389
0.0036058197
0.0035849248
0.0035591633
0.0035328392
0.0034785152
0.0043632397
0.0043363816
0.0043086287
0.0042805412
0.0042523721
0.004224378
0.0041968899
0.0041701208
0.0041441803
0.0041191294
0.004094991
0.0040717598
0.0040494178
0.0040279412
0.0040073034
0.0039874774
0.0039684372
0.0039501576
0.0039326145
0.0039157835
0.0038996394
0.0038841544
0.0038692967
0.0038550271
0.0038412964
0.0038280393
0.0038151694
0.0038025679
0.0037900759
0.00377747
0.0037644595
0.0037506338
0.0037354844
0.0037183142
0.0036984374
0.0036742618
0.0036494748
0.0036002407
0.0045746899
0.0045381221
0.0045007739
0.0044636244
0.0044269725
0.0043910967
0.0043563358
0.0043228626
0.0042907381
0.0042599791
0.0042305665
0.0042024594
0.0041756105
0.004149972
0.0041254982
0.004102147
0.0040798802
0.0040586635
0.004038465
0.0040192548
0.0040010031
0.0039836787
0.0039672469
0.0039516667
0.003936887
0.0039228418
0.0039094441
0.0038965754
0.0038840783
0.0038717328
0.0038592549
0.0038462445
0.0038322141
0.0038164929
0.0037984423
0.0037765681
0.0037542868
0.0037095488
0.0047722979
0.0047234361
0.0046750396
0.0046280532
0.0045824778
0.0045384488
0.0044962301
0.0044559158
0.0044175055
0.0043809686
0.0043462456
0.0043132626
0.0042819467
0.00425223
0.0042240514
0.0041973572
0.0041721005
0.0041482402
0.0041257395
0.0041045643
0.0040846814
0.0040660565
0.0040486518
0.0040324229
0.0040173154
0.0040032592
0.0039901635
0.0039779055
0.0039663241
0.0039551954
0.0039442347
0.0039330403
0.0039211356
0.0039078521
0.0038925929
0.003873861
0.0038551334
0.0038143031
0.0049591068
0.0048980754
0.0048382848
0.004780887
0.0047257185
0.0046728779
0.0046226012
0.0045749205
0.0045297826
0.0044871127
0.0044468121
0.004408776
0.0043729081
0.0043391231
0.0043073468
0.0042775157
0.0042495754
0.0042234781
0.0041991812
0.0041766442
0.0041558274
0.0041366886
0.0041191814
0.0041032515
0.0040888334
0.0040758451
0.0040641824
0.0040537083
0.0040442472
0.0040355592
0.0040273462
0.0040191889
0.0040106062
0.0040009075
0.0039895252
0.0039748772
0.0039607598
0.0039234634
0.0051369822
0.0050649856
0.0049939522
0.0049257063
0.0048602178
0.0047977661
0.0047386676
0.0046829446
0.0046305201
0.0045812887
0.0045351203
0.0044918843
0.004451465
0.0044137618
0.0043786882
0.0043461699
0.0043161412
0.0042885425
0.0042633172
0.0042404092
0.0042197603
0.0042013081
0.0041849835
0.0041707078
0.0041583894
0.0041479183
0.0041391618
0.0041319526
0.004126085
0.0041212867
0.0041172307
0.0041134623
0.0041094804
0.0041045508
0.0040981205
0.0040884783
0.0040798694
0.0040460546
0.0053047481
0.0052214047
0.0051388188
0.005059421
0.0049832669
0.0049108615
0.0048426344
0.0047786334
0.0047187914
0.0046629995
0.0046111177
0.0045630068
0.0045185423
0.0044776135
0.0044401209
0.004405972
0.0043750787
0.0043473533
0.0043227059
0.0043010428
0.0042822646
0.0042662645
0.0042529271
0.004242126
0.0042337211
0.0042275537
0.0042234426
0.0042211718
0.004220489
0.0042210739
0.0042225571
0.0042244356
0.0042261786
0.0042269977
0.0042263433
0.0042223854
0.0042197762
0.0041896963
0.0054616483
0.0053649299
0.0052693771
0.0051779199
0.0050905588
0.0050079616
0.0049306108
0.0048585546
0.0047917345
0.004730045
0.0046733467
0.0046214982
0.0045743651
0.0045318161
0.0044937179
0.0044599325
0.0044303147
0.004404711
0.0043829594
0.0043648897
0.0043503243
0.0043390782
0.0043309593
0.0043257662
0.0043232875
0.0043232961
0.0043255465
0.0043297617
0.0043356333
0.0043427868
0.0043508083
0.0043591448
0.0043672412
0.0043742603
0.0043796571
0.0043815502
0.0043847792
0.0043588602
0.0056056428
0.0054928551
0.0053824423
0.0052776892
0.0051784283
0.0050854372
0.0049991967
0.0049197377
0.004847006
0.004780893
0.0047212445
0.0046678867
0.0046206288
0.0045792578
0.004543537
0.0045132088
0.0044879983
0.0044676184
0.0044517749
0.0044401707
0.0044325088
0.0044284942
0.0044278339
0.0044302363
0.0044354083
0.0044430506
0.0044528537
0.0044644843
0.0044775863
0.0044917422
0.0045065088
0.0045213002
0.0045355603
0.0045484263
0.0045593744
0.0045665826
0.0045747185
0.0045533657
0.0057348156
0.0056033391
0.0054760878
0.005356648
0.0052447137
0.005141222
0.0050466735
0.0049611069
0.004884466
0.0048165914
0.004757225
0.0047060366
0.004662633
0.0046265677
0.004597356
0.0045744937
0.0045574729
0.0045457954
0.0045389812
0.0045365737
0.0045381413
0.0045432769
0.0045515955
0.0045627297
0.0045763255
0.0045920347
0.0046095098
0.0046283887
0.0046482967
0.0046688036
0.0046894691
0.0047097059
0.0047289944
0.004746479
0.0047616871
0.0047729778
0.0047844224
0.0047678622
0.0058499982
0.0056965901
0.0055499337
0.0054139876
0.0052885229
0.0051747924
0.0050733919
0.0049843664
0.0049075441
0.004842498
0.0047885805
0.0047449934
0.0047108459
0.0046852092
0.0046671653
0.0046558433
0.0046504409
0.004650233
0.0046545713
0.0046628782
0.0046746378
0.0046893864
0.0047067021
0.0047261963
0.004747505
0.004770279
0.0047941779
0.0048188528
0.0048439504
0.0048690655
0.0048937986
0.0049175946
0.0049400107
0.0049602249
0.0049778543
0.0049915286
0.0050043354
0.0049925346
0.0059538231
0.0057732362
0.0056034102
0.0054487605
0.0053094565
0.0051872389
0.0050827558
0.0049957761
0.0049255028
0.0048706089
0.0048294282
0.004800171
0.004781087
0.0047705733
0.0047672301
0.0047698735
0.0047775206
0.0047893596
0.0048047167
0.0048230254
0.0048438006
0.0048666185
0.0048911014
0.0049169056
0.0049437129
0.0049712199
0.004999134
0.0050271549
0.0050549833
0.005082267
0.0051086756
0.0051337078
0.0051570282
0.0051778548
0.0051959376
0.0052101974
0.0052224791
0.0052151889
0.0060463907
0.0058313092
0.0056338126
0.0054590905
0.0053081876
0.0051832738
0.0050843606
0.0050097518
0.0049566128
0.0049214719
0.0049008024
0.0048914457
0.0048908047
0.004896867
0.0049081291
0.0049234851
0.0049421158
0.0049633981
0.0049868373
0.0050120228
0.0050385989
0.0050662484
0.0050946821
0.0051236322
0.0051528487
0.0051820918
0.0052111308
0.0052397266
0.0052676447
0.0052945952
0.0053203272
0.0053443955
0.0053665903
0.0053861461
0.0054030041
0.0054162914
0.0054265743
0.0054233994
0.0061232794
0.0058648381
0.0056363485
0.0054443113
0.0052909553
0.0051775046
0.0051005264
0.0050536862
0.0050297002
0.0050218115
0.0050246925
0.0050346366
0.0050492973
0.0050672818
0.0050877821
0.0051103087
0.0051345245
0.0051601541
0.0051869411
0.005214633
0.0052429799
0.0052717383
0.0053006762
0.0053295756
0.0053582338
0.0053864596
0.0054140733
0.0054408886
0.0054667301
0.0054913632
0.005514614
0.0055360817
0.0055556899
0.0055726479
0.0055871513
0.0055983811
0.0056057513
0.0056063434
0.0061798507
0.005868769
0.0056102964
0.0054142884
0.005282004
0.0052068959
0.0051743493
0.0051685526
0.0051769772
0.0051916831
0.0052087186
0.0052266808
0.0052454143
0.0052651772
0.0052862293
0.0053086853
0.0053325003
0.0053575055
0.0053834549
0.0054100662
0.0054370529
0.0054641436
0.0054910942
0.0055176906
0.0055437487
0.0055691063
0.0055936221
0.0056171524
0.0056395727
0.0056606951
0.0056804148
0.0056983623
0.0057145909
0.005728251
0.0057398218
0.005748432
0.0057523579
0.005756842
0.0062098828
0.0058432248
0.00557003
0.0054027351
0.0053275313
0.0053136384
0.0053278699
0.0053482646
0.0053654334
0.0053779976
0.005387897
0.0053975468
0.0054087055
0.0054222919
0.005438563
0.0054573538
0.0054782716
0.005500828
0.0055245227
0.0055488914
0.0055735298
0.0055981024
0.0056223398
0.00564603
0.005669009
0.0056911454
0.0057123348
0.0057324727
0.0057514776
0.0057692002
0.0057855891
0.0058002989
0.0058134789
0.0058242335
0.0058332436
0.005839634
0.0058405853
0.0058483117
0.0062209399
0.0058116654
0.0055566935
0.0054539788
0.0054498705
0.0054823347
0.0055115023
0.0055249549
0.005525579
0.0055203859
0.0055152439
0.0055136052
0.0055168891
0.0055252162
0.0055380215
0.0055544542
0.0055736062
0.0055946298
0.0056167931
0.0056394983
0.0056622776
0.005684779
0.0057067457
0.0057279944
0.0057483974
0.0057678617
0.005786321
0.005803706
0.0058199702
0.0058349926
0.0058487599
0.0058609396
0.0058717471
0.005880243
0.005887251
0.0058918836
0.0058904336
0.0059005902
0.00621373
0.005781905
0.0055990136
0.0055998471
0.0056606572
0.0057018311
0.0057043624
0.0056810016
0.0056490464
0.0056201059
0.0055995978
0.005588887
0.0055872556
0.0055931485
0.005604832
0.0056206937
0.0056393569
0.0056597096
0.0056808934
0.0057022737
0.0057234
0.0057439655
0.00576377
0.0057826884
0.0058006469
0.0058176
0.005833523
0.0058483808
0.0058621586
0.0058747572
0.0058861964
0.0058961424
0.0059048813
0.005911386
0.0059166894
0.005919692
0.0059162078
0.0059285546
0.0061869175
0.0057878952
0.0057485739
0.0058567065
0.0059265334
0.0059149127
0.0058530137
0.0057786536
0.0057138053
0.0056665472
0.0056373685
0.0056236115
0.0056218148
0.0056287342
0.0056416701
0.0056584967
0.0056775997
0.0056977964
0.0057182564
0.0057384238
0.0057579464
0.0057766153
0.0057943184
0.0058110049
0.0058266613
0.0058412898
0.0058549035
0.0058674956
0.0058790767
0.0058895603
0.0058989953
0.00590703
0.0059140331
0.0059188329
0.0059227781
0.0059242726
0.005919269
0.0059335213
0.0061554696
0.0058923206
0.0060431386
0.006187508
0.0061734101
0.0060577332
0.0059196887
0.0058017722
0.0057166004
0.0056626619
0.0056337593
0.0056231717
0.0056252136
0.0056355563
0.0056510453
0.0056694255
0.0056891235
0.005709086
0.0057286484
0.0057474224
0.0057652046
0.0057819083
0.005797517
0.0058120512
0.0058255506
0.0058380553
0.0058496063
0.0058602148
0.0058699088
0.0058786042
0.0058863766
0.0058928387
0.0058984613
0.0059018639
0.0059048503
0.0059049668
0.0058991832
0.0059147937
0.0061483216
0.0061648881
0.0064593592
0.0065005584
0.0063241524
0.0060928783
0.0058951709
0.0057543292
0.0056655261
0.0056164338
0.0055949619
0.0055915112
0.0055992673
0.0056136494
0.0056316013
0.0056510887
0.0056708028
0.0056899617
0.0057081483
0.0057251786
0.0057410054
0.0057556551
0.0057691894
0.0057816819
0.0057932072
0.0058038276
0.0058135987
0.005822538
0.0058306833
0.0058379436
0.0058444216
0.0058496778
0.0058543147
0.0058566683
0.0058591842
0.0058580784
0.005852637
0.0058684082
0.0062222909
0.0066334042
0.0068960117
0.0066994131
0.0063394434
0.0060178346
0.0057900731
0.0056483163
0.0055697036
0.0055330427
0.0055223386
0.0055268025
0.005539735
0.0055570671
0.0055762421
0.0055956537
0.0056143726
0.0056319432
0.0056482053
0.0056631595
0.0056768811
0.0056894732
0.0057010433
0.0057116905
0.0057215023
0.0057305459
0.005738879
0.0057465158
0.0057534989
0.0057597239
0.0057653269
0.0057698018
0.0057739255
0.0057756678
0.0057783547
0.0057762861
0.005772835
0.0057867425
0.0064410656
0.0072140254
0.0072226641
0.0067304776
0.006215036
0.0058421505
0.0056125778
0.005486079
0.0054250774
0.0054028167
0.0054018455
0.0054119468
0.0054276039
0.0054457026
0.0054642978
0.005482231
0.0054989455
0.0055142777
0.0055282667
0.0055410321
0.0055527121
0.0055634379
0.0055733253
0.0055824718
0.0055909586
0.005598844
0.0056061793
0.0056129703
0.0056192638
0.0056249416
0.0056301845
0.0056344133
0.0056386307
0.0056403651
0.0056440874
0.0056415573
0.0056423309
0.0056514975
0.0067792262
0.007734128
0.0073557906
0.0065787614
0.0059514409
0.0055617623
0.0053480365
0.0052420302
0.0051970967
0.0051847736
0.0051884355
0.0051997157
0.0052147572
0.0052312519
0.0052476274
0.005263029
0.005277172
0.0052900798
0.0053018876
0.0053127466
0.0053227928
0.0053321404
0.005340884
0.0053490998
0.0053568512
0.0053641818
0.0053711353
0.0053777115
0.0053839695
0.0053897863
0.0053954094
0.0054001971
0.0054054384
0.0054081833
0.0054142953
0.0054124893
0.0054204933
0.0054221624
0.0071657978
0.0081034225
0.0072632849
0.0062192797
0.0055167573
0.0051286855
0.004931275
0.0048382177
0.0048000904
0.0047894087
0.0047913472
0.0047994736
0.0048112992
0.004824722
0.0048381432
0.0048508256
0.004862618
0.0048735987
0.0048838894
0.0048935982
0.0049028127
0.0049116037
0.00492003
0.0049281405
0.0049359792
0.0049435786
0.0049509818
0.0049581942
0.0049653025
0.0049722021
0.0049792337
0.0049857361
0.004993326
0.0049986458
0.005009036
0.0050101479
0.0050287148
0.0050229198
0.007233002
0.0081991731
0.0068425988
0.0055494404
0.0047816917
0.0043695126
0.0041554383
0.0040502746
0.0040028405
0.0039842814
0.0039794132
0.0039826319
0.0039912943
0.0040023262
0.0040137479
0.0040248437
0.0040354998
0.0040457628
0.0040556918
0.0040653333
0.0040747248
0.0040838996
0.0040928901
0.0041017279
0.0041104495
0.004119089
0.0041277021
0.0041363184
0.0041450668
0.004153898
0.0041632471