/*--------------------------------*- C++ -*----------------------------------*\
  =========                 |
  \\      /  F ield         | OpenFOAM: The Open Source CFD Toolbox
   \\    /   O peration     | Website:  https://openfoam.org
    \\  /    A nd           | Version:  7
     \\/     M anipulation  |
\*---------------------------------------------------------------------------*/
FoamFile
{
    version     2.0;
    format      ascii;
    class       volSymmTensorField;
    location    "2000";
    object      Rall;
}
// * * * * * * * * * * * * * * * * * * * * * * * * * * * * * * * * * * * * * //

dimensions      [0 2 -2 0 0 0 0];

internalField   nonuniform List<symmTensor> 
15296
(
(0.0012212462 1.3999104e-05 5.5039379e-15 0.0010910286 5.3896183e-16 0.0010755175)
(0.0011378678 6.5912956e-06 6.0795659e-15 0.0011206968 4.8154837e-16 0.001118787)
(0.0011291397 5.8646732e-06 -6.1862897e-15 0.0011197067 -5.7779452e-17 0.0011185773)
(0.0011214122 5.5493142e-06 1.2599507e-14 0.0011185158 8.1492798e-17 0.0011180414)
(0.0011137829 5.2860059e-06 -3.4519138e-18 0.001117496 6.064061e-17 0.0011176637)
(0.0011094653 5.0784451e-06 6.5154214e-15 0.0011152599 4.4742247e-16 0.0011155901)
(0.001107118 4.9307805e-06 6.6037458e-15 0.0011123652 2.2701212e-17 0.0011125833)
(0.0011055567 4.825267e-06 2.192098e-18 0.0011093074 -1.6332821e-17 0.0011093155)
(0.0011045062 4.7509877e-06 9.1332962e-19 0.0011061955 -5.514599e-17 0.0011059383)
(0.0011037644 4.7017447e-06 1.3710919e-14 0.0011031089 5.3321724e-16 0.0011025617)
(0.0011031159 4.6711054e-06 1.343453e-18 0.0011001337 -4.1381758e-17 0.0010993024)
(0.001102444 4.6536948e-06 -7.3055534e-19 0.0010973148 -6.0033042e-17 0.0010962213)
(0.0011017146 4.6459779e-06 -1.4251799e-14 0.0010946622 -2.0596983e-16 0.0010933324)
(0.0011009337 4.6458172e-06 7.220586e-15 0.001092169 4.0044118e-16 0.0010906269)
(0.0011001318 4.6522545e-06 2.6586138e-18 0.001089818 1.4512319e-17 0.0010880822)
(0.0010993603 4.66563e-06 7.4199543e-15 0.0010875833 1.584343e-16 0.0010856646)
(0.0010986881 4.6877632e-06 7.5266478e-15 0.0010854301 1.9509399e-16 0.001083329)
(0.0010982048 4.7222769e-06 1.5267321e-14 0.001083317 5.2580424e-16 0.0010810216)
(0.0010980262 4.7752146e-06 2.4123852e-18 0.00108119 4.6844228e-17 0.0010786727)
(0.0010983077 4.856072e-06 2.9905399e-19 0.0010789781 -1.0005551e-16 0.0010761909)
(0.0010992655 4.9794305e-06 -7.9485012e-15 0.0010765835 8.027364e-17 0.0010734507)
(0.0011012064 5.1674579e-06 -4.4575921e-18 0.0010738692 -4.2240915e-17 0.0010702761)
(0.0011045752 5.4538784e-06 8.1370526e-15 0.0010706375 6.2221273e-16 0.001066414)
(0.001110023 5.8897595e-06 -8.2017075e-15 0.0010666008 -3.7316589e-16 0.0010614966)
(0.0011185236 6.5530119e-06 3.650836e-18 0.0010613309 -1.0007235e-16 0.0010549766)
(0.001131533 7.5607401e-06 -8.2580838e-15 0.0010541896 -6.2902484e-16 0.0010460408)
(0.0011513142 9.0917481e-06 -1.6405729e-14 0.0010441905 -1.382441e-16 0.001033432)
(0.0011813318 1.1405504e-05 -7.0559438e-18 0.0010298283 2.923126e-18 0.0010152414)
(0.0012273296 1.4885354e-05 5.6214085e-19 0.0010086315 2.1936339e-17 0.00098833013)
(0.0012984449 1.9990968e-05 -7.1584532e-15 0.00097664599 -2.4998114e-16 0.00094774253)
(0.0014113696 2.708983e-05 -6.1643613e-15 0.00092675533 -1.5373348e-16 0.00088459739)
(0.0015965788 3.5067264e-05 -8.3575121e-18 0.00084592098 1.824342e-18 0.00078339425)
(0.0018917203 3.2986931e-05 -1.6560028e-15 0.00071643332 -2.6922445e-16 0.00062952656)
(0.0022982425 7.7129477e-06 6.4307159e-16 0.00051576783 -4.1576497e-16 0.00045876328)
(0.0023596064 6.3577372e-06 -4.5796368e-17 0.00050410776 8.2100877e-17 0.00048399582)
(0.0024286774 5.6823389e-06 2.2926251e-17 0.00047521203 4.5643381e-17 0.00052380703)
(0.0028221415 -4.2552935e-05 -2.007453e-17 0.00057402497 5.5698617e-16 0.00071567486)
(0.0025874136 -0.00035524365 -3.8830028e-16 -0.00023516199 -4.6070923e-16 0.00051870864)
(0.0012194153 3.1122342e-05 1.3816046e-17 0.001087371 1.5099467e-16 0.0010811276)
(0.0011382759 1.5649935e-05 -2.0226307e-15 0.0011197744 -8.5738643e-17 0.0011194207)
(0.0011295093 1.3606935e-05 2.0665506e-15 0.001119072 2.2281407e-17 0.0011189704)
(0.0011216349 1.2920704e-05 -1.8983097e-18 0.0011182021 1.3317502e-16 0.001118265)
(0.0011138485 1.2410062e-05 -6.0292297e-18 0.0011175012 1.0079689e-16 0.0011177294)
(0.0011094653 1.1981551e-05 2.1801011e-15 0.0011153644 1.7037861e-16 0.0011156254)
(0.0011071095 1.164366e-05 2.2065862e-15 0.0011124402 7.5024158e-17 0.0011126597)
(0.0011055616 1.1370865e-05 6.5710669e-18 0.0011093051 2.4702873e-17 0.0011094583)
(0.0011045378 1.1138229e-05 -2.2508789e-15 0.0011060884 -1.5111273e-16 0.0011061615)
(0.0011038303 1.0935189e-05 -2.2869988e-15 0.0011028835 -4.9816285e-17 0.0011028705)
(0.0011032174 1.0755824e-05 -2.3223817e-15 0.0010997912 -1.8278694e-16 0.0010996943)
(0.0011025784 1.059494e-05 2.3430817e-15 0.001096864 1.7276631e-16 0.0010966898)
(0.0011018781 1.0448423e-05 4.7492952e-15 0.001094114 3.3446576e-17 0.0010938702)
(0.0011011224 1.0313148e-05 6.9240137e-18 0.0010915337 2.367727e-16 0.0010912272)
(0.0011003425 1.0186472e-05 -4.8819733e-15 0.0010891037 -2.1709269e-16 0.00108874)
(0.0010995914 1.0065975e-05 2.4753215e-15 0.0010867945 1.9764588e-16 0.0010863767)
(0.00109894 9.949333e-06 2.5204403e-15 0.0010845667 2.2491692e-16 0.001084095)
(0.0010984805 9.8341917e-06 8.2590613e-18 0.0010823729 1.7764525e-16 0.0010818442)
(0.0010983321 9.7179427e-06 -1.2035128e-18 0.0010801519 1.0393415e-20 0.0010795587)
(0.0010986554 9.5974507e-06 2.6206565e-15 0.0010778226 1.8120957e-16 0.0010771518)
(0.001099673 9.4686737e-06 -3.7840016e-18 0.0010752741 -3.5766908e-18 0.001074505)
(0.001101701 9.326134e-06 -5.6725191e-18 0.0010723504 2.4675115e-17 0.0010714517)
(0.0011051976 9.1622023e-06 6.0779248e-18 0.001068827 1.6509688e-16 0.0010677523)
(0.0011108334 8.9661203e-06 5.855561e-18 0.0010643774 -9.097824e-17 0.0010630583)
(0.0011196105 8.7228099e-06 -2.7499058e-15 0.001058516 -1.5879006e-16 0.0010568517)
(0.001133026 8.4113911e-06 -2.7591138e-15 0.0010505202 -1.6126498e-16 0.0010483624)
(0.001153403 8.0045398e-06 5.4653457e-15 0.0010392746 -1.8477874e-18 0.0010364018)
(0.0011842895 7.4695172e-06 5.3629801e-15 0.0010230843 9.8993557e-17 0.0010191665)
(0.0012315432 6.7802202e-06 2.0963375e-18 0.00099917549 2.9870362e-17 0.00099370559)
(0.0013044085 5.9540396e-06 -3.0632976e-18 0.00096316595 -1.124176e-16 0.000955381)
(0.0014195155 5.1652823e-06 2.0511834e-15 0.00090729199 1.5000037e-16 0.00089601122)
(0.0016061294 5.2721837e-06 1.4720134e-15 0.00081802784 1.1754596e-16 0.00080176575)
(0.001892405 3.5796605e-06 6.0898245e-18 0.00068120371 -3.3079054e-16 0.00066392048)
(0.002293967 -2.7544439e-05 -3.5087731e-16 0.00043165204 -1.4563254e-15 0.00054661828)
(0.0023539656 -3.1229076e-05 1.3767996e-16 0.00042573474 4.0142979e-16 0.00056717065)
(0.002420396 -2.6957098e-05 -1.0155763e-16 0.00041124807 -5.5984668e-16 0.00059160858)
(0.0027921919 3.2665235e-05 5.4236452e-17 0.00059831253 -9.3074672e-17 0.00072443943)
(0.0026069526 -0.00074876257 -4.7955156e-16 -0.0008782177 -6.6593246e-16 0.00087521486)
(0.0012137775 4.8472391e-05 1.2526221e-17 0.0010894107 3.0155507e-17 0.0010849815)
(0.0011382235 2.5966117e-05 1.2229605e-15 0.0011196747 -7.4323811e-18 0.0011198325)
(0.0011298272 2.2198557e-05 -1.2319848e-15 0.0011187964 -4.4141505e-17 0.0011192006)
(0.0011220275 2.1040249e-05 -1.2685821e-15 0.0011179384 -6.6386383e-17 0.0011184155)
(0.0011143036 2.0200066e-05 1.2803205e-15 0.0011172539 2.0181828e-16 0.0011178067)
(0.0011099285 1.9499521e-05 -1.294166e-15 0.0011151303 2.3396643e-17 0.0011156863)
(0.0011075526 1.8949838e-05 2.5714413e-18 0.0011122156 -1.1881256e-16 0.0011127352)
(0.0011059759 1.8507904e-05 5.8808265e-18 0.0011090875 -3.6746115e-18 0.0011095591)
(0.001104918 1.8133378e-05 -1.3527637e-15 0.0011058765 -2.5418696e-16 0.0011062936)
(0.0011041743 1.7808778e-05 -1.3808073e-15 0.0011026765 -2.1359201e-16 0.0011030364)
(0.0011035267 1.7523694e-05 -7.3982236e-18 0.0010995879 -1.6549621e-16 0.001099893)
(0.0011028561 1.7269068e-05 -4.2255167e-15 0.0010966638 5.3290695e-18 0.0010969186)
(0.0011021275 1.7037881e-05 -1.4333476e-15 0.0010939163 1.3955862e-17 0.0010941259)
(0.0011013463 1.6824941e-05 3.3488506e-18 0.001091338 6.6909231e-17 0.001091507)
(0.001100543 1.6626055e-05 1.4685464e-15 0.0010889098 -1.1793239e-16 0.0010890416)
(0.0010997694 1.6437576e-05 9.1718904e-18 0.0010866024 1.9082517e-16 0.0010866991)
(0.0010990947 1.6256185e-05 -1.4952909e-15 0.0010843765 6.630347e-17 0.0010844383)
(0.0010986093 1.6078673e-05 7.3674606e-18 0.0010821853 1.4959498e-17 0.00108221)
(0.0010984301 1.5901651e-05 -1.7460995e-18 0.0010799679 -8.3815789e-17 0.0010799506)
(0.0010987141 1.5721218e-05 -3.1375375e-15 0.0010776442 1.183134e-16 0.0010775762)
(0.0010996792 1.5532531e-05 -1.6035061e-15 0.0010751042 -6.129701e-17 0.0010749717)
(0.0011016347 1.5329165e-05 1.6071454e-15 0.0010721938 1.0988912e-16 0.0010719757)
(0.001105029 1.5102199e-05 3.2711689e-15 0.0010686909 1.5023645e-16 0.0010683559)
(0.0011105178 1.4838771e-05 -1.6405819e-15 0.0010642731 -1.0963264e-16 0.0010637747)
(0.0011190811 1.451989e-05 2.6541613e-18 0.0010584608 -1.6814915e-16 0.00105773)
(0.0011321823 1.4116508e-05 -8.182899e-20 0.001050541 -7.2568993e-17 0.0010494756)
(0.0011520919 1.35834e-05 -1.6563307e-15 0.0010394137 -1.2439365e-16 0.0010378601)
(0.0011822756 1.2846437e-05 1.6115425e-15 0.0010234092 2.1988371e-16 0.0010211365)
(0.0012284562 1.178155e-05 -1.0015404e-18 0.00099979497 -4.5637455e-17 0.00099644587)
(0.0012996603 1.0171391e-05 -1.4449359e-15 0.00096426306 -8.2585956e-17 0.00095929089)
(0.0014121571 7.6068972e-06 -1.2447358e-15 0.00090916992 8.0879152e-17 0.00090171977)
(0.0015948643 3.8645484e-06 2.1469572e-18 0.00082116479 1.9257504e-16 0.00081004448)
(0.0018796455 -4.161125e-06 -3.423041e-16 0.0006841023 -9.059615e-17 0.00067373507)
(0.0022874333 -3.6805743e-05 -1.3248453e-16 0.00042715709 -5.2752678e-16 0.00055717103)
(0.0023519627 -4.1524455e-05 8.8569998e-17 0.00041785172 4.9525713e-17 0.00057622706)
(0.0024256529 -3.2107731e-05 3.8551944e-17 0.00039995624 -2.3168794e-16 0.00059286922)
(0.0029021015 4.5690868e-05 1.0442517e-16 0.00048761448 9.2883481e-17 0.00072626998)
(0.0019813201 -0.00077145519 -3.2771856e-16 -0.00056728662 -2.6518471e-16 0.00085369755)
(0.0012114561 6.4177879e-05 1.9025524e-17 0.0010892422 2.0984486e-17 0.0010878486)
(0.0011385778 3.6679965e-05 -8.5945092e-16 0.0011193354 9.3869985e-17 0.0011202122)
(0.0011304942 3.0936061e-05 7.6140727e-19 0.0011183334 -1.2975214e-16 0.0011194059)
(0.0011226708 2.9263999e-05 8.9402593e-16 0.0011175509 -1.2049069e-16 0.0011185779)
(0.0011148944 2.8096446e-05 -3.786405e-18 0.0011169586 1.5015889e-16 0.0011179366)
(0.0011104883 2.7123932e-05 9.3886072e-16 0.001114879 -1.5877346e-17 0.0011158093)
(0.0011080978 2.6359938e-05 9.4928604e-16 0.0011119778 -5.5365238e-17 0.0011128644)
(0.0011065136 2.5744838e-05 9.6695215e-16 0.0011088507 5.6376994e-17 0.001109699)
(0.0011054523 2.5222608e-05 1.3203977e-18 0.0011056333 -1.8228313e-16 0.0011064469)
(0.001104708 2.4769147e-05 -7.5475981e-18 0.0011024223 -1.0582224e-16 0.001103204)
(0.0011040612 2.4370248e-05 9.8853341e-16 0.0010993215 2.1371107e-17 0.0011000744)
(0.0011033916 2.4013495e-05 -7.891054e-18 0.0010963856 -1.6783453e-16 0.0010971123)
(0.0011026637 2.3689222e-05 -1.0315007e-15 0.0010936275 -1.1758356e-16 0.0010943305)
(0.0011018828 2.3390247e-05 5.5345984e-18 0.0010910398 3.1525218e-17 0.0010917212)
(0.0011010792 2.3110713e-05 9.748138e-18 0.0010886033 3.0817314e-17 0.0010892646)
(0.0011003048 2.2845454e-05 -2.1181869e-15 0.001086288 5.5908286e-17 0.0010869303)
(0.001099629 2.2589689e-05 1.1620837e-17 0.001084054 -4.9605637e-17 0.0010846779)
(0.0010991422 2.2338714e-05 1.0233117e-17 0.0010818536 2.7159637e-17 0.0010824591)
(0.0010989615 2.2087454e-05 -2.9693355e-18 0.0010796247 -4.4015182e-17 0.001080211)
(0.001099244 2.1829963e-05 -2.2454188e-15 0.0010772858 -8.4795461e-17 0.0010778512)
(0.0011002079 2.1558734e-05 -1.1534747e-15 0.0010747249 -1.0512003e-16 0.0010752666)
(0.0011021625 2.1263698e-05 -2.1480802e-18 0.001071785 1.0112478e-16 0.0010722982)
(0.001105556 2.093078e-05 1.2011717e-17 0.0010682403 1.5021838e-16 0.001068718)
(0.0011110442 2.0539697e-05 2.3566145e-15 0.0010637624 -2.4800183e-17 0.001064194)
(0.0011196064 2.0060625e-05 -2.3622146e-15 0.0010578635 -1.3169368e-16 0.0010582331)
(0.0011327042 1.9448617e-05 -2.6631269e-18 0.0010498188 -7.7138785e-17 0.0010501025)
(0.0011526054 1.8634879e-05 1.165915e-15 0.00103851 -8.4281637e-17 0.0010386716)
(0.0011827675 1.7510369e-05 1.1530903e-15 0.001022242 1.7905543e-16 0.0010222261)
(0.0012288999 1.5897438e-05 -6.7103783e-18 0.00099824116 -3.48707e-17 0.00099796076)
(0.0012999909 1.3495251e-05 -2.1356117e-18 0.00096214736 -8.3146017e-17 0.00096146525)
(0.0014122304 9.7193518e-06 5.3511931e-18 0.00090623706 -7.6114817e-17 0.00090493624)
(0.001594286 3.986383e-06 6.5395069e-16 0.00081722299 5.6485621e-17 0.00081484223)
(0.0018826423 -8.8045112e-06 2.602046e-16 0.00067607839 -9.9193946e-17 0.00067884464)
(0.00227039 -4.5372913e-05 2.5712833e-17 0.00044094554 1.0575916e-16 0.00056006606)
(0.0023388904 -5.2312306e-05 6.5339386e-18 0.0004278971 5.7416467e-17 0.00057851938)
(0.0024211087 -4.0133857e-05 1.4177397e-16 0.00040142074 5.532912e-17 0.00059151568)
(0.00294038 3.1853132e-05 -6.1287525e-17 0.000425367 3.5477794e-16 0.00074258496)
(0.0017693511 -0.00088625207 -1.2868877e-16 -0.00031821237 -1.1697235e-16 0.00085735546)
(0.0012094738 7.8588562e-05 2.4710302e-17 0.0010896112 2.5677184e-17 0.0010899561)
(0.001139105 4.7556374e-05 -6.7105623e-16 0.0011188899 8.5189873e-18 0.0011206597)
(0.0011313212 3.9750587e-05 2.4473433e-18 0.0011178298 -7.9989451e-17 0.0011196276)
(0.0011235072 3.7524174e-05 6.9703759e-16 0.0011170695 -5.6015495e-17 0.0011187786)
(0.0011156975 3.6024892e-05 1.425543e-15 0.0011165233 8.9975577e-17 0.0011181332)
(0.0011112605 3.4780062e-05 -7.127615e-16 0.0011144819 8.2784648e-17 0.0011160058)
(0.0011088466 3.3801582e-05 1.1055747e-17 0.0011116083 3.6587625e-17 0.0011130627)
(0.0011072439 3.301307e-05 7.5658288e-16 0.0011085021 4.5747851e-17 0.0011099001)
(0.0011061665 3.2343008e-05 7.5575904e-16 0.0011053016 -1.3318362e-16 0.0011066512)
(0.0011054083 3.176082e-05 7.6116327e-16 0.0011021047 -1.7500043e-17 0.0011034114)
(0.0011047493 3.1248562e-05 7.69702e-16 0.0010990158 7.0731636e-17 0.0011002844)
(0.001104069 3.0790499e-05 -1.1142006e-17 0.0010960902 -8.6523034e-17 0.0010973245)
(0.0011033311 3.0374315e-05 -1.3322297e-17 0.0010933413 -9.9782466e-17 0.0010945444)
(0.0011025409 2.9990772e-05 1.6199104e-15 0.0010907621 2.0695068e-17 0.0010919366)
(0.0011017282 2.9632263e-05 -8.0811458e-16 0.0010883333 -2.8995705e-17 0.0010894811)
(0.0011009447 2.9292042e-05 -8.2536282e-16 0.0010860252 -1.1500462e-16 0.001087148)
(0.0011002593 2.896388e-05 -2.5037774e-15 0.0010837983 -8.303182e-17 0.0010848969)
(0.0010997623 2.8641678e-05 -1.6921822e-15 0.0010816048 -5.4317269e-17 0.0010826796)
(0.00109957 2.8318901e-05 -8.7022981e-16 0.0010793832 -5.4459477e-17 0.0010804338)
(0.0010998389 2.7987899e-05 -8.776245e-16 0.001077052 -1.528719e-16 0.0010780772)
(0.001100786 2.7638992e-05 8.709366e-16 0.0010744999 -6.9409501e-17 0.0010754974)
(0.0011027191 2.7259149e-05 -1.3618845e-18 0.0010715705 7.2599574e-17 0.0010725366)
(0.001106084 2.6830093e-05 -8.9684805e-16 0.001068039 -1.8532142e-17 0.0010689677)
(0.0011115325 2.6325419e-05 9.2422894e-16 0.0010635788 1.1131766e-16 0.0010644612)
(0.0011200382 2.5706213e-05 1.8465408e-15 0.0010577047 -9.1429603e-17 0.001058527)
(0.0011330532 2.491374e-05 2.9242594e-18 0.001049696 1.5113693e-17 0.0010504377)
(0.00115283 2.3857824e-05 1.8281057e-15 0.0010384411 4.330194e-17 0.0010390706)
(0.0011828003 2.2395464e-05 -4.72801e-18 0.0010222565 1.6589792e-16 0.0010227253)
(0.0012286306 2.0292963e-05 -1.1052257e-17 0.00099838749 -3.7302361e-17 0.00099861896)
(0.0012992295 1.7157171e-05 1.6128328e-15 0.00096250922 -2.186403e-17 0.00096238309)
(0.0014106439 1.2230606e-05 7.0810974e-16 0.00090695791 -7.0379368e-17 0.00090628619)
(0.0015911322 4.6805363e-06 -5.1728795e-16 0.0008187034 -3.2904257e-17 0.00081691848)
(0.0018817157 -1.1635134e-05 -3.9748341e-16 0.00067570619 -8.5771545e-17 0.00068034963)
(0.0022507914 -4.966867e-05 -5.0415246e-17 0.00046755527 -1.8130886e-16 0.00055281387)
(0.0023180182 -6.0113742e-05 -5.6623217e-19 0.00045671949 -8.7214017e-17 0.00056992366)
(0.0024104197 -4.8847843e-05 2.0944835e-18 0.00041931424 -1.6814999e-17 0.000580424)
(0.0029248629 3.5737985e-05 -6.328566e-17 0.00042499585 6.7788932e-17 0.00074115523)
(0.0019258179 -0.0010139997 5.2086337e-17 -0.00027648535 -1.1369857e-16 0.00091851546)
(0.0012078897 9.5040307e-05 3.2547063e-17 0.0010896538 3.5650289e-17 0.0010922854)
(0.00114023 6.1627523e-05 -6.8281777e-16 0.0011179576 -9.1982185e-19 0.0011213224)
(0.001132696 5.1187675e-05 -3.3417121e-19 0.0011169891 -1.176527e-16 0.0011199705)
(0.0011248892 4.8184767e-05 -1.4304523e-15 0.0011162633 -2.8576655e-17 0.001119096)
(0.0011170224 4.6253381e-05 -5.1131811e-18 0.0011157826 6.3865567e-17 0.0011184554)
(0.0011125328 4.4659623e-05 -7.2435014e-16 0.0011138025 5.6392412e-17 0.0011163302)
(0.0011100799 4.3406176e-05 1.2151387e-17 0.0011109767 3.5070267e-18 0.0011133873)
(0.0011084471 4.239549e-05 -7.445733e-16 0.0011079076 2.787287e-17 0.0011102251)
(0.0011073443 4.1536396e-05 -7.6577186e-16 0.0011047383 -1.1827108e-16 0.0011069763)
(0.0011065644 4.0789901e-05 -7.764563e-16 0.0011015682 3.4496951e-18 0.0011037362)
(0.0011058866 4.0133098e-05 -4.7997741e-18 0.0010985024 1.0218785e-16 0.0011006084)
(0.0011051895 3.9545816e-05 -1.5585365e-17 0.0010955971 -5.9728871e-17 0.0010976474)
(0.0011044362 3.9012219e-05 -1.191864e-17 0.0010928663 -3.0447771e-17 0.001094866)
(0.0011036312 3.8520421e-05 8.3101809e-16 0.0010903037 4.5944664e-17 0.0010922567)
(0.0011028041 3.8060652e-05 4.3972007e-18 0.0010878902 -5.6901488e-17 0.0010897998)
(0.0011020063 3.7624277e-05 -5.1809354e-19 0.0010855966 -1.0096816e-16 0.0010874652)
(0.0011013062 3.7203349e-05 1.3640964e-17 0.0010833837 -1.0786821e-16 0.0010852128)
(0.0011007937 3.6790109e-05 -1.7236618e-15 0.001081204 -2.18059e-16 0.0010829944)
(0.0011005845 3.6376239e-05 8.678735e-16 0.0010789964 -3.0203446e-17 0.0010807478)
(0.0011008344 3.5952006e-05 -8.8923666e-16 0.0010766801 -1.1702564e-16 0.001078391)
(0.0011017591 3.5505093e-05 -9.1388251e-16 0.0010741446 -1.035276e-17 0.001075812)
(0.0011036648 3.5018929e-05 9.1140216e-16 0.0010712346 1.3642369e-16 0.0010728536)
(0.0011069946 3.4470292e-05 1.1038211e-17 0.001067727 -5.6861746e-17 0.0010692896)
(0.0011123961 3.3825665e-05 8.7144947e-18 0.001063298 -2.1402183e-17 0.0010647921)
(0.0011208363 3.3035683e-05 9.5023457e-16 0.0010574662 1.0970414e-16 0.0010588732)
(0.001133757 3.2025895e-05 1.4470686e-18 0.0010495176 -5.0376855e-17 0.0010508096)
(0.0011533935 3.0681973e-05 9.2797086e-16 0.0010383507 1.1099733e-16 0.0010394846)
(0.0011831484 2.8822709e-05 -9.7473531e-18 0.0010222991 9.801827e-17 0.0010232092)
(0.0012286388 2.6151318e-05 8.7143365e-16 0.00099863791 8.6975319e-17 0.00099921844)
(0.0012986807 2.2168567e-05 8.2921228e-16 0.00096309441 1.8552564e-16 0.00096318082)
(0.0014091502 1.5909129e-05 8.3512417e-18 0.00090810232 -1.1991753e-17 0.0009074236)
(0.0015877536 6.1454978e-06 -6.374202e-18 0.00082099918 7.3092704e-19 0.00081868272)
(0.0018798192 -1.3773758e-05 -2.0302115e-16 0.00067737056 -7.7813154e-17 0.00068100509)
(0.0022292271 -5.098053e-05 2.7795133e-17 0.00049815166 7.1822101e-17 0.00054363083)
(0.0022842275 -6.3887828e-05 9.3185889e-18 0.00049994625 -5.6688907e-17 0.00055978331)
(0.0023884994 -6.2201647e-05 -6.032982e-17 0.00045420679 -1.8652876e-16 0.0005632591)
(0.002880153 4.4124816e-05 3.7981408e-17 0.00045954409 -1.7908087e-17 0.00072171294)
(0.002071347 -0.0011031654 -8.0981871e-17 -0.00017197675 -1.1364997e-16 0.0010322788)
(0.0012072735 0.00011371252 4.2443043e-17 0.0010886206 4.5737448e-17 0.001095242)
(0.0011422335 7.9321676e-05 -4.7476302e-16 0.0011163928 -1.2050064e-17 0.0011223081)
(0.001134933 6.5803578e-05 4.8887979e-16 0.0011156134 -1.6197009e-17 0.001120566)
(0.001127137 6.1758697e-05 -8.9097006e-18 0.0011149671 -8.1987409e-17 0.0011196269)
(0.0011191832 5.9272581e-05 4.9642391e-16 0.0011146012 3.7862278e-17 0.0011189793)
(0.0011146121 5.7239952e-05 -5.0277087e-16 0.0011127189 -8.7866085e-17 0.0011168545)
(0.0011120977 5.5640295e-05 1.5179326e-17 0.0011099671 5.1009924e-18 0.0011139129)
(0.0011104162 5.434934e-05 6.026551e-18 0.001106956 -4.6859226e-17 0.0011107528)
(0.0011092718 5.3251469e-05 -5.3680229e-16 0.0011038349 -1.691681e-16 0.0011075065)
(0.0011084559 5.2297093e-05 -8.7102893e-20 0.0011007056 -5.0768439e-17 0.0011042684)
(0.0011077467 5.1457063e-05 -3.6584394e-18 0.001097675 9.6878731e-17 0.001101142)
(0.0011070212 5.0705606e-05 5.3501846e-16 0.0010948006 6.0401622e-17 0.0010981818)
(0.0011062416 5.0022437e-05 5.4914592e-16 0.0010920976 4.7389652e-17 0.0010954007)
(0.0011054115 4.9392363e-05 -5.480754e-16 0.0010895602 2.0603016e-17 0.0010927913)
(0.0011045602 4.8802961e-05 4.6450369e-18 0.0010871702 -3.2572626e-17 0.0010903339)
(0.0011037382 4.824329e-05 1.9144097e-18 0.0010848988 -5.5495928e-17 0.0010879988)
(0.0011030137 4.7703282e-05 -5.7519524e-16 0.0010827071 -9.5830831e-17 0.001085746)
(0.0011024758 4.717306e-05 -5.9990423e-16 0.001080548 -2.9837192e-16 0.0010835276)
(0.0011022395 4.6641981e-05 -1.219561e-18 0.0010783608 3.7995231e-17 0.0010812817)
(0.0011024594 4.609752e-05 -6.2051229e-16 0.0010760653 -1.0746568e-16 0.0010789269)
(0.0011033499 4.5523795e-05 6.0839597e-16 0.0010735517 -1.9042971e-17 0.0010763521)
(0.0011052147 4.4899433e-05 6.8342973e-18 0.0010706658 1.5953505e-16 0.0010734012)
(0.0011084932 4.4194498e-05 1.0588122e-17 0.0010671864 -1.8750868e-17 0.0010698502)
(0.0011138278 4.3365809e-05 1.0549015e-17 0.0010627918 -5.1646587e-17 0.0010653738)
(0.0011221767 4.2349798e-05 -1.2751675e-15 0.0010570049 6.0201539e-17 0.0010594889)
(0.0011349678 4.1050683e-05 -6.4714015e-16 0.0010491177 -4.7734504e-17 0.0010514793)
(0.0011544144 3.932146e-05 -6.4952237e-16 0.001038039 -1.8028024e-17 0.0010402401)
(0.0011838807 3.6929752e-05 1.2515956e-15 0.0010221195 3.9934551e-17 0.0010241019)
(0.0012289195 3.3495434e-05 3.3183719e-18 0.00099866397 2.3701329e-16 0.0010003319)
(0.0012982271 2.8383409e-05 1.564204e-17 0.0009634549 2.8231905e-16 0.00096466011)
(0.0014074588 2.0376815e-05 7.1604975e-18 0.00090902431 2.9612911e-18 0.00090951655)
(0.0015836707 7.7350422e-06 3.6172397e-16 0.00082304137 3.9554436e-17 0.00082190777)
(0.0018750783 -1.621421e-05 2.9892231e-16 0.00067993386 2.0622285e-17 0.00068402631)
(0.0022138328 -5.0800778e-05 2.427131e-17 0.00051954597 7.488656e-17 0.00053776636)
(0.0022574992 -5.7274613e-05 -4.7690717e-17 0.00052997328 -4.0169894e-17 0.00055586868)
(0.0023556354 -7.9714898e-05 -2.1671188e-17 0.00049911723 -7.102519e-17 0.00054736894)
(0.0028170374 4.7920528e-05 1.2982331e-17 0.00050429033 -8.3005578e-18 0.0006978849)
(0.0020754755 -0.0011201778 -1.1531673e-16 4.3390764e-05 -9.8795013e-17 0.0011117788)
(0.0012077858 0.00013208692 -6.05726e-16 0.001086876 2.8477951e-17 0.0010983841)
(0.0011452577 9.8722341e-05 3.4094356e-16 0.0011141005 -7.6018211e-17 0.001123599)
(0.0011381144 8.2304395e-05 2.1009908e-17 0.0011136553 1.0326782e-16 0.0011214192)
(0.0011303198 7.7067427e-05 -5.8642722e-18 0.0011131392 -2.4811737e-17 0.0011203858)
(0.0011222474 7.3952874e-05 3.5432754e-16 0.001112933 9.1760726e-17 0.0011197256)
(0.0011175656 7.143397e-05 6.7823001e-18 0.0011111852 -2.888134e-17 0.0011176)
(0.0011149671 6.9450526e-05 -3.4155134e-16 0.0011085355 4.2293901e-17 0.0011146591)
(0.0011132178 6.7847654e-05 2.0985517e-18 0.0011056055 -5.0613924e-17 0.0011115007)
(0.0011120152 6.6483148e-05 -1.1332039e-17 0.0011025524 -1.5667155e-16 0.0011082566)
(0.0011111488 6.5296044e-05 -3.7393646e-16 0.0010994809 -2.6495534e-17 0.0011050204)
(0.0011103951 6.4250572e-05 -7.7730197e-16 0.0010965002 1.8336844e-17 0.001101895)
(0.0011096292 6.3314916e-05 3.8019483e-16 0.0010936699 9.7373283e-17 0.0010989352)
(0.001108812 6.2463914e-05 7.9210411e-16 0.0010910064 2.0216925e-16 0.0010961539)
(0.0011079464 6.1678695e-05 1.3065843e-17 0.0010885052 -1.2057601e-17 0.0010935438)
(0.0011070606 6.0943849e-05 7.3055367e-18 0.0010861486 -1.2505772e-17 0.0010910854)
(0.0011062046 6.0245831e-05 -3.4470702e-19 0.0010839085 -3.1738132e-17 0.0010887491)
(0.001105446 5.9572184e-05 -8.3484967e-16 0.0010817467 -1.6899812e-16 0.0010864953)
(0.0011048729 5.8910688e-05 -4.268409e-16 0.0010796163 -2.6623573e-16 0.001084276)
(0.0011045996 5.8248145e-05 -2.8006777e-18 0.0010774575 -2.1876607e-17 0.00108203)
(0.0011047795 5.7568999e-05 -1.0173104e-17 0.0010751906 -1.2765853e-16 0.0010796765)
(0.0011056252 5.6853505e-05 4.4079859e-16 0.0010727067 1.0113114e-16 0.0010771052)
(0.0011074375 5.6075085e-05 4.5358102e-16 0.0010698533 1.4153837e-16 0.0010741613)
(0.0011106522 5.5196528e-05 1.1781076e-17 0.0010664108 -1.1819773e-18 0.0010706228)
(0.001115905 5.4164188e-05 -4.4506166e-16 0.001062061 -4.275102e-17 0.0010661676)
(0.0011241446 5.2899114e-05 4.6513146e-16 0.0010563312 -1.1800706e-16 0.0010603174)
(0.001136783 5.1282415e-05 -4.5921442e-16 0.0010485214 -1.4781072e-17 0.0010523638)
(0.0011560084 4.9131661e-05 -1.4787154e-17 0.0010375526 -1.2786742e-16 0.0010412138)
(0.0011851413 4.6158827e-05 -7.9150624e-18 0.0010217968 1.717794e-17 0.0010252191)
(0.0012296617 4.1892729e-05 -4.3413164e-16 0.00099859448 1.0533903e-16 0.0010016806)
(0.0012981292 3.554886e-05 1.2307939e-17 0.00096379684 1.9274624e-16 0.00096639428)
(0.0014059455 2.56339e-05 -3.4744749e-16 0.00091005782 2.8278965e-17 0.000911899)
(0.0015795513 9.8094462e-06 -2.68968e-16 0.00082532126 2.3239032e-17 0.00082548928)
(0.0018677286 -1.8514303e-05 -9.9961366e-17 0.00068453457 6.9139967e-17 0.00068811616)
(0.0022079121 -5.3455375e-05 1.6753336e-17 0.00053090475 2.8383928e-17 0.00053290036)
(0.0022537782 -5.0348559e-05 -1.6657808e-18 0.00053325552 6.9178601e-17 0.00055595847)
(0.0023210871 -9.4233827e-05 -3.1893543e-17 0.00054407332 -7.007449e-17 0.0005343601)
(0.0027485812 4.4424617e-05 -8.9276672e-18 0.00055669932 3.2830241e-17 0.00066926056)
(0.0020121634 -0.0010403855 -3.861766e-17 0.00027413882 -4.2954563e-17 0.0011457927)
(0.0012091204 0.00014983658 -1.2697547e-19 0.0010847069 -1.9198018e-16 0.001101952)
(0.0011496584 0.0001197671 -4.8885356e-16 0.0011108177 -3.0329931e-17 0.0011252851)
(0.0011425384 0.00010081842 -4.8377286e-16 0.0011109327 3.9681593e-17 0.0011226116)
(0.0011347274 9.4293959e-05 -9.6952784e-18 0.001110612 -4.5881158e-17 0.0011214525)
(0.0011265024 9.0481053e-05 7.2618968e-19 0.0011106142 8.2268059e-17 0.0011207753)
(0.0011216752 8.7428333e-05 1.7040048e-17 0.0011090437 4.5460096e-17 0.0011186485)
(0.0011189649 8.5023296e-05 -5.0642679e-16 0.0011065299 2.485337e-17 0.0011157085)
(0.0011171248 8.307604e-05 -2.2094147e-18 0.0011037085 -5.7287981e-17 0.0011125525)
(0.0011158437 8.1415587e-05 5.3869469e-16 0.0011007469 -6.6992701e-17 0.0011093113)
(0.0011149085 7.9968976e-05 6.3086859e-18 0.0010977537 -3.131562e-17 0.0011060772)
(0.0011140937 7.8693598e-05 -1.7621369e-17 0.0010948411 -9.3987453e-17 0.0011029531)
(0.0011132722 7.7551269e-05 -5.7064335e-18 0.0010920712 5.0586465e-17 0.0010999936)
(0.001112403 7.6511599e-05 1.6728794e-17 0.0010894623 3.0519548e-16 0.0010972117)
(0.0011114879 7.5551734e-05 1.5452574e-17 0.0010870111 4.9611544e-17 0.0010946004)
(0.0011105542 7.4652994e-05 -2.8993629e-16 0.0010847009 -4.1676903e-17 0.0010921402)
(0.0011096509 7.3798944e-05 2.9404648e-16 0.0010825044 -2.376736e-17 0.0010898017)
(0.0011088452 7.2974458e-05 2.9967447e-16 0.0010803843 -1.2244115e-16 0.0010875457)
(0.0011082238 7.2164675e-05 1.8539201e-18 0.0010782944 -2.0522255e-16 0.0010853243)
(0.0011079001 7.1353516e-05 -3.1859504e-16 0.0010761753 -8.6546332e-17 0.0010830767)
(0.0011080261 7.0521997e-05 -6.8358787e-18 0.0010739486 -8.4476397e-17 0.0010807227)
(0.0011088122 6.9646001e-05 9.2527589e-18 0.0010715067 1.0499477e-16 0.0010781528)
(0.0011105563 6.8693065e-05 3.4047847e-16 0.0010686987 2.1664277e-16 0.0010752138)
(0.0011136894 6.7617759e-05 5.8084512e-18 0.0010653076 -1.7889287e-17 0.0010716855)
(0.0011188402 6.6354653e-05 3.258873e-18 0.001061019 -1.2074084e-16 0.0010672493)
(0.0011269462 6.480755e-05 -6.5126041e-16 0.0010553662 -4.4919584e-17 0.0010614317)
(0.0011394016 6.2831795e-05 -3.389746e-16 0.0010476584 -7.2119305e-17 0.0010535325)
(0.0011583661 6.0205708e-05 -1.3960625e-17 0.0010368314 -6.2765334e-17 0.0010424718)
(0.0011871111 5.658011e-05 -3.4670329e-16 0.001021282 -8.9853103e-17 0.0010266235)
(0.0012310348 5.1384501e-05 -8.7710359e-18 0.00099839179 -4.1072728e-17 0.0010033249)
(0.0012985452 4.3673489e-05 1.4079338e-17 0.00096409116 1.4808871e-16 0.00096844415)
(0.0014047535 3.1657006e-05 2.6135917e-16 0.00091117886 4.0579864e-17 0.00091463837)
(0.0015755646 1.2394425e-05 -1.1336305e-17 0.00082778869 -3.5394286e-17 0.00082949175)
(0.0018583978 -2.0824418e-05 9.208649e-17 0.00069059388 -2.5112505e-17 0.00069340293)
(0.0022067616 -6.1594321e-05 2.5162181e-17 0.00053726506 4.6875216e-17 0.00052886646)
(0.0022567444 -5.4090745e-05 3.0389428e-17 0.0005292968 -6.9280218e-17 0.00055689131)
(0.0022971848 -0.00010557992 -1.3338356e-17 0.00057268637 -2.4840349e-17 0.00052871859)
(0.0026840316 3.2582812e-05 -2.5656691e-17 0.00060396518 6.6296782e-17 0.00063928659)
(0.0020163776 -0.00089914479 4.4992967e-18 0.00040793674 -4.95601e-19 0.0011634338)
(0.0012121537 0.00016689065 -1.856876e-18 0.001081651 -1.2935669e-16 0.0011056736)
(0.0011558041 0.00014229646 -4.0684317e-18 0.001106379 -1.0499468e-16 0.0011274398)
(0.001148551 0.00012143749 7.7058399e-18 0.0011072676 -5.7373481e-17 0.001124236)
(0.0011407101 0.00011363794 3.6985113e-16 0.0011072134 -2.5986916e-17 0.0011229123)
(0.0011322969 0.0001090787 -3.8190969e-16 0.0011074839 5.4037655e-17 0.0011222086)
(0.0011272852 0.00010545086 -3.7905461e-16 0.0011061449 -2.1414213e-17 0.0011200776)
(0.001124431 0.00010259145 -3.8018695e-16 0.0011038098 -1.0122804e-16 0.0011171373)