0 	0.001665268 	-1.1309652e-16 	-4.1107593e-23 	7.6809401e-30 	2.7918184e-36 	1.0147521e-42
0.010309278 	0.0015894974 	-0.00014498305 	1.6778117e-08 	0.00070412539 	-9.8287615e-08 	0.00019904529
0.020618557 	0.0016297747 	-0.00017726397 	1.977786e-07 	0.00072541772 	-1.2198873e-06 	0.00041300767
0.030927835 	0.001639729 	-0.00021414159 	3.1032243e-08 	0.00074371617 	-1.762414e-07 	0.00061283899
0.041237113 	0.0016338462 	-0.00024871505 	8.3201001e-08 	0.0007557756 	-4.5502312e-07 	0.00079227989
0.051546392 	0.0016198205 	-0.00025324811 	-3.128554e-06 	0.00086921087 	3.5150242e-06 	0.00017403799
0.06185567 	0.0016136113 	-0.00027695354 	-2.4359149e-06 	0.00087082732 	2.5078369e-06 	0.00030076438
0.072164948 	0.0016038274 	-0.0003084498 	-4.6527039e-07 	0.00085389004 	4.5453294e-07 	0.00060278576
0.082474227 	0.001599282 	-0.00032818757 	4.8873476e-07 	0.00088747515 	-1.4554548e-06 	0.00054333639
0.092783505 	0.0016009121 	-0.00034248618 	9.4694111e-08 	0.00093053442 	-2.7515013e-07 	0.00038087595
0.10309278 	0.001610328 	-0.00035094844 	-5.3785172e-07 	0.00098332474 	4.9416948e-07 	9.003263e-05
0.11340206 	0.0016124239 	-0.00036845077 	6.3654624e-07 	0.001006273 	-1.8099229e-06 	8.8523655e-05
0.12371134 	0.0016187753 	-0.00037957886 	2.2849673e-07 	0.0010391491 	-6.34073e-07 	3.9535978e-05
0.13402062 	0.0016240394 	-0.00038834295 	7.7322788e-07 	0.0010659649 	-2.1456892e-06 	0.00013805971
0.1443299 	0.0016293035 	-0.00039710704 	1.0658258e-07 	0.0010927806 	-2.9576794e-07 	0.00023658345
0.15463918 	0.0016277244 	-0.00040450626 	2.9012585e-07 	0.0011238902 	-2.9147844e-07 	0.00026337418
0.16494845 	0.0016418406 	-0.00041474718 	4.0716298e-07 	0.0011460892 	-1.0962476e-06 	0.00043674014
0.17525773 	0.001632056 	-0.00042065446 	5.5302515e-07 	0.0011860862 	-3.9624996e-07 	0.0003626734
0.18556701 	0.0016176 	-0.00042572471 	1.2720741e-06 	0.0012294925 	-9.114561e-07 	0.00024019218
0.19587629 	0.0016629407 	-0.00044196354 	6.9159335e-08 	0.0012293953 	-1.7826631e-07 	0.00073557646
0.20618557 	0.0016317299 	-0.00044290464 	1.033538e-06 	0.0012884703 	-4.0654955e-07 	0.00041050304
0.21649485 	0.0016093841 	-0.00044586741 	1.2704044e-06 	0.0013410611 	-4.9972307e-07 	0.00018308491
0.22680412 	0.0016599131 	-0.00046446339 	8.9043403e-08 	0.0013387435 	-3.5025486e-08 	0.00074227465
0.2371134 	0.0016381163 	-0.00046530832 	3.3741934e-07 	0.0013935137 	-1.3170194e-08 	0.00049420191
0.24742268 	0.0016026059 	-0.00046354334 	8.4901778e-07 	0.0014596972 	-3.3139686e-08 	9.3746078e-05
0.25773196 	0.0016399433 	-0.00048033827 	9.6323585e-08 	0.0014699847 	-2.0907837e-07 	0.00051784048
0.26804124 	0.0016331796 	-0.00048303248 	1.2978887e-07 	0.0015159689 	-2.8171747e-07 	0.00042878623
0.27835052 	0.0016014031 	-0.00047844879 	4.6798286e-07 	0.0015825861 	1.5603197e-07 	3.8424197e-05
0.28865979 	0.0016199891 	-0.0004902542 	2.1508512e-07 	0.0016105576 	-3.373668e-07 	0.00025854098
0.29896907 	0.0016140147 	-0.00049101799 	4.5747743e-07 	0.0016592781 	-7.1756561e-07 	0.00017583678
0.30927835 	0.0016080404 	-0.00049178179 	8.5616933e-08 	0.0017079987 	-1.3429246e-07 	9.3132579e-05
0.31958763 	0.0016018929 	-0.0004914107 	3.3989601e-07 	0.0017590239 	-3.0934749e-07 	1.5325411e-05
0.32989691 	0.00159742 	-0.00048934061 	7.8417037e-07 	0.0018123496 	-7.136922e-07 	5.9101075e-05
0.34020619 	0.0015932838 	-0.00048734989 	1.5933944e-07 	0.0018658573 	-1.4501859e-07 	0.00012532995
0.35051546 	0.0015879435 	-0.00047937186 	2.1061046e-07 	0.001921249 	-7.5540491e-08 	0.00019026218
0.36082474 	0.0015821635 	-0.00047192766 	9.1068329e-07 	0.0019789617 	-3.2663839e-07 	0.00024954737
0.37113402 	0.0015763835 	-0.00046448346 	1.2526939e-07 	0.0020366744 	-4.4930874e-08 	0.00030883256
0.3814433 	0.0015773596 	-0.00044498116 	5.1041485e-07 	0.0020847645 	3.5499653e-07 	0.00024687751
0.39175258 	0.0015626024 	-0.00042961691 	7.5460682e-07 	0.0021533132 	-5.8807501e-08 	0.00042224609
0.40206186 	0.0015559665 	-0.00041413724 	2.3349982e-07 	0.0022135784 	-1.8196969e-08 	0.00047396496
0.41237113 	0.0015815411 	-0.00038980949 	2.2217554e-06 	0.0022332996 	1.1298456e-06 	3.0666746e-05
0.42268041 	0.0015427503 	-0.00035760457 	1.9268905e-07 	0.0023224659 	-8.2630749e-08 	0.00057787181
0.43298969 	0.0015356223 	-0.00032263299 	8.4639557e-07 	0.0023658192 	-3.6295935e-07 	0.00062162698
0.44329897 	0.0015534159 	-0.00028676459 	1.3684819e-06 	0.0023743129 	7.886445e-07 	0.00030559681
0.45360825 	0.0015607356 	-0.00024590377 	1.5124071e-06 	0.0023942305 	8.7158738e-07 	0.00033069181
0.46391753 	0.0015439111 	-0.00020075879 	5.6105443e-07 	0.0024416037 	-4.4091845e-07 	0.00079727685
0.4742268 	0.001544547 	-0.00015502305 	1.5378612e-07 	0.0024548616 	1.4248761e-07 	0.00077198436
0.48453608 	0.0015740007 	-0.00011543161 	1.817716e-06 	0.0024230053 	1.6841702e-06 	0.00012851766
0.49484536 	0.0015830722 	-7.2178874e-05 	1.0298472e-06 	0.0024257517 	9.5418539e-07 	0.00054590104
0.50515464 	0.0015869539 	-2.8812576e-05 	4.4280856e-07 	0.0024357828 	-4.6490961e-07 	0.0010569338
0.51546392 	0.001593709 	8.4184967e-06 	4.4888666e-07 	0.0024354361 	5.0003587e-07 	0.00077782622
0.5257732 	0.0016055738 	4.0550404e-05 	1.4918642e-06 	0.0024252031 	1.6618574e-06 	8.6665583e-05
0.53608247 	0.0016184412 	7.9284923e-05 	7.8034395e-07 	0.0024244331 	8.6926167e-07 	0.00066604613
0.54639175 	0.0016299519 	0.0001179542 	2.4727028e-07 	0.0024257821 	-3.1327032e-07 	0.0012883359
0.55670103 	0.0016346946 	0.00014595028 	4.7353382e-07 	0.0024230029 	4.3960156e-07 	0.0007765088
0.56701031 	0.0016395253 	0.0001709311 	1.1764003e-06 	0.0024163193 	1.0921024e-06 	4.7411851e-06
0.57731959 	0.0016562421 	0.00020590798 	4.7194672e-07 	0.0024131272 	4.3812819e-07 	0.00087888803
0.58762887 	0.0016690473 	0.00023845976 	2.2414612e-08 	0.002411231 	1.3713198e-08 	0.0014317246
0.59793814 	0.0016688459 	0.00025866877 	5.5472487e-07 	0.0024046873 	3.3937916e-07 	0.00053604596
0.60824742 	0.0016762667 	0.00028241354 	6.482034e-07 	0.0023977981 	3.9656907e-07 	0.00040863372
0.6185567 	0.00169481 	0.00031131783 	1.0132046e-07 	0.0023904046 	6.1987583e-08 	0.0014023078
0.62886598 	0.0016961273 	0.00033205627 	2.6119516e-07 	0.0023838624 	5.2850777e-08 	0.00094673503
0.63917526 	0.0016929326 	0.00034998471 	6.1403061e-07 	0.0023759836 	1.2424424e-07 	8.3646258e-05
0.64948454 	0.0017114742 	0.000374511 	1.8217938e-07 	0.0023641373 	3.6862559e-08 	0.0011925606
0.65979381 	0.0017160546 	0.00039445698 	1.4394849e-07 	0.0023543003 	-4.3743413e-08 	0.0011687029
0.67010309 	0.0017073497 	0.00040980072 	4.7424307e-07 	0.0023451568 	-1.4411413e-07 	3.9383619e-05
0.68041237 	0.0017237481 	0.0004310591 	1.4576775e-07 	0.0023294623 	-4.4296255e-08 	0.0011870188
0.69072165 	0.0017259866 	0.00044886796 	1.2698195e-07 	0.0023165446 	-1.0656117e-07 	0.0011463786
0.70103093 	0.0017163508 	0.00046358961 	3.6674626e-07 	0.0023047595 	-3.0776744e-07 	0.00010946639
0.71134021 	0.0017314767 	0.00048318069 	6.0918634e-08 	0.0022852839 	-5.1121917e-08 	0.0014379185
0.72164948 	0.0017254344 	0.00049877636 	1.7837214e-07 	0.0022710225 	-2.1609856e-07 	0.00083484612
0.73195876 	0.0017217175 	0.00051474571 	2.3510434e-07 	0.0022544426 	-2.8482984e-07 	0.00055479232
0.74226804 	0.0017311356 	0.00053314863 	7.6623562e-09 	0.0022334602 	-9.7716543e-09 	0.0016495278
0.75257732 	0.0017157574 	0.00054785486 	3.0759596e-07 	0.0022193225 	-3.9227116e-07 	0.00019636318
0.7628866 	0.0017233315 	0.00056698935 	6.6894478e-08 	0.0021962999 	-8.5309231e-08 	0.0013415521
0.77319588 	0.0017160043 	0.00058418511 	2.0495226e-07 	0.0021793265 	-2.1450542e-07 	0.00075535813
0.78350515 	0.0017139503 	0.00060350652 	1.7752175e-07 	0.0021596734 	-1.8579632e-07 	0.00085940651
0.79381443 	0.0017139924 	0.00062407953 	1.3089338e-07 	0.0021402228 	-8.5451166e-08 	0.0011334959
0.80412371 	0.0017084884 	0.0006453518 	2.7713509e-07 	0.0021243977 	-1.8092219e-07 	0.000574993
0.81443299 	0.0017132751 	0.00067002681 	9.2322973e-08 	0.0021055313 	-2.375561e-08 	0.0013045175
0.82474227 	0.0017104977 	0.00069537129 	3.4529254e-07 	0.0020941591 	-8.884717e-08 	0.00051955289
0.83505155 	0.001719315 	0.00072464952 	1.1965349e-07 	0.0020799034 	2.9796018e-09 	0.0012412961
0.84536082 	0.0017252283 	0.000755261 	3.1025462e-07 	0.0020734334 	7.7259366e-09 	0.00073001221
0.8556701 	0.0017386876 	0.00078757538 	2.3344561e-07 	0.0020675448 	4.6316034e-08 	0.00090889204
0.86597938 	0.0017588781 	0.00082319878 	1.0211155e-07 	0.002065901 	2.0259117e-08 	0.0012568128
0.87628866 	0.0017779859 	0.00084925297 	3.1884536e-07 	0.0020698025 	1.6797244e-07 	0.00025756096
0.88659794 	0.0018142699 	0.0008862267 	4.9376448e-08 	0.0020766521 	-3.7368457e-08 	0.0015256834
0.89690722 	0.0018511634 	0.00090057006 	4.6803387e-08 	0.0020931773 	1.3544228e-07 	0.00086579118
0.90721649 	0.0018974234 	0.00092287147 	1.8588496e-08 	0.0021156184 	2.8603305e-07 	0.00038654816
0.91752577 	0.0019601645 	0.00094712369 	1.7918087e-09 	0.0021491583 	8.3877262e-09 	0.0015250003
0.92783505 	0.0020336333 	0.00097710625 	8.2101406e-09 	0.0021943097 	1.0670419e-08 	0.0015971552
0.93814433 	0.0021136658 	0.0010108185 	4.2939138e-08 	0.0022517609 	1.5123201e-07 	0.0011134422
0.94845361 	0.0022194597 	0.0010553684 	1.3373128e-07 	0.0023318864 	2.3188113e-07 	0.0016713362
0.95876289 	0.00231799 	0.0010974817 	7.2036939e-08 	0.0024095074 	2.2603598e-07 	0.00033931541
0.96907216 	0.0023839567 	0.0011234039 	-1.1352156e-08 	0.0024524538 	-1.6318325e-08 	0.001459293
0.97938144 	0.0022335399 	0.0010489732 	-2.2595817e-07 	0.0022770891 	-4.7559596e-07 	0.00027855607
0.98969072 	0.0011567302 	0.00053910428 	-4.2051036e-07 	0.0011572106 	-8.9886717e-07 	0.00012495826
