1.640171e-35 	0.59270298 	-4.0253369e-14 	-1.4631034e-20
0.010869565 	0.59370651 	-0.0006936626 	-1.6569263e-06
0.02173913 	0.59663018 	-0.0013766519 	-3.3834239e-06
0.032608696 	0.6015539 	-0.0020488459 	-3.9310852e-06
0.043478261 	0.60839601 	-0.0026994625 	-2.6540757e-06
0.054347826 	0.61715359 	-0.0033373846 	3.4350211e-07
0.065217391 	0.62834207 	-0.0039931036 	2.9416612e-06
0.076086957 	0.63956706 	-0.0045214328 	3.4539463e-06
0.086956522 	0.65288692 	-0.0050316142 	9.6371524e-06
0.097826087 	0.66730325 	-0.0055015954 	1.4885694e-05
0.10869565 	0.68264769 	-0.0058482224 	6.5009212e-06
0.11956522 	0.69883697 	-0.0061077943 	1.5026552e-05
0.13043478 	0.71568909 	-0.00638277 	1.5024476e-05
0.14130435 	0.73314368 	-0.0067150765 	8.3918944e-06
0.15217391 	0.75143543 	-0.007026904 	1.3775075e-05
0.16304348 	0.76997233 	-0.0072981087 	4.2634645e-06
0.17391304 	0.78941528 	-0.0074550495 	1.0747723e-05
0.18478261 	0.80897111 	-0.0076001249 	5.1939577e-06
0.19565217 	0.82938357 	-0.0076827194 	1.7048252e-05
0.20652174 	0.849993 	-0.0077522919 	6.4417682e-06
0.2173913 	0.87153527 	-0.0077300933 	2.3806342e-05
0.22826087 	0.89327796 	-0.0077011931 	4.5862964e-06
0.23913043 	0.91568345 	-0.0075774174 	2.2171772e-05
0.25 	0.93825948 	-0.0074387488 	1.1261343e-05
0.26086957 	0.96143898 	-0.0072210182 	1.0166438e-05
0.27173913 	0.98473001 	-0.0069254246 	1.9401519e-05
0.2826087 	1.0086222 	-0.0065823216 	1.1638916e-06
0.29347826 	1.0315435 	-0.0062094044 	1.8119516e-05
0.30434783 	1.0546227 	-0.0058450075 	8.5744854e-06
0.31521739 	1.0776958 	-0.0055053221 	2.7138046e-06
0.32608696 	1.0985402 	-0.0051855814 	2.0862029e-05
0.33695652 	1.1191208 	-0.0048644427 	5.6040322e-06
0.34782609 	1.1379736 	-0.0045490693 	3.9270772e-06
0.35869565 	1.1537858 	-0.0042475932 	1.9600879e-05
0.36956522 	1.1688695 	-0.0039456522 	7.6452733e-06
0.38043478 	1.1810071 	-0.0036414506 	2.8319836e-06
0.39130435 	1.1909152 	-0.0033982561 	1.1332061e-05
0.40217391 	1.1993848 	-0.0032108334 	9.7650379e-06
0.41304348 	1.2058708 	-0.0030983312 	2.4876154e-06
0.42391304 	1.2109949 	-0.0030221943 	5.0218137e-06
0.43478261 	1.2144688 	-0.0028927665 	1.2293027e-05
0.44565217 	1.2174725 	-0.0027469247 	4.642644e-06
0.45652174 	1.2189753 	-0.0025525132 	2.6191948e-06
0.4673913 	1.2202165 	-0.0023755806 	6.7401083e-06
0.47826087 	1.2207713 	-0.0022364834 	9.436164e-06
0.48913043 	1.2208915 	-0.0021178361 	3.608044e-06
0.5 	1.2205354 	-0.0020204923 	2.9060872e-06
0.51086957 	1.2200712 	-0.0019189138 	7.059489e-06
0.52173913 	1.2192958 	-0.0018105398 	7.4669921e-06
0.5326087 	1.2182228 	-0.0016932926 	3.097379e-06
0.54347826 	1.2169759 	-0.0015664735 	3.5278334e-06
0.55434783 	1.2155872 	-0.0014452229 	8.3143777e-06
0.56521739 	1.214032 	-0.0013378029 	5.6778359e-06
0.57608696 	1.2121976 	-0.0012492194 	1.5959467e-06
0.58695652 	1.2102909 	-0.0011519089 	5.3923561e-06
0.59782609 	1.2081492 	-0.0010571537 	7.9540167e-06
0.60869565 	1.2058106 	-0.00096250756 	3.2085911e-06
0.61956522 	1.2033058 	-0.00086202216 	3.8704344e-06
0.63043478 	1.2005871 	-0.00076389147 	8.7193296e-06
0.64130435 	1.1976088 	-0.0006748249 	4.0494961e-06
0.65217391 	1.1943928 	-0.00058642985 	3.1196973e-06
0.66304348 	1.1909163 	-0.0004917349 	8.1994883e-06
0.67391304 	1.1870804 	-0.00039489815 	3.8158906e-06
0.68478261 	1.1829337 	-0.00029040174 	3.442703e-06
0.69565217 	1.1783941 	-0.00018684027 	7.6392565e-06
0.70652174 	1.1733411 	-9.332583e-05 	2.2708102e-06
0.7173913 	1.1679009 	5.2109764e-06 	4.8519797e-06
0.72826087 	1.1618497 	9.4579185e-05 	5.6277363e-06
0.73913043 	1.1550774 	0.00017518739 	1.3288571e-06
0.75 	1.1476882 	0.00027577906 	6.9943737e-06
0.76086957 	1.1393238 	0.00041291555 	1.7837735e-06
0.77173913 	1.1301938 	0.00057505527 	4.6905327e-06
0.7826087 	1.1192412 	0.00070927811 	2.9637739e-06
0.79347826 	1.106961 	0.00083563921 	3.0234309e-06
0.80434783 	1.0925039 	0.0009530119 	3.1436847e-06
0.81521739 	1.0757087 	0.0010635784 	2.1701287e-06
0.82608696 	1.0565749 	0.0011977985 	2.4509839e-06
0.83695652 	1.0348024 	0.0013600562 	1.9439674e-06
0.84782609 	1.0104197 	0.0015122726 	1.1838581e-06
0.85869565 	0.98341959 	0.0016630654 	2.2223774e-06
0.86956522 	0.95392102 	0.0017990551 	-2.0838091e-07
0.88043478 	0.92148544 	0.0019329419 	1.2592066e-06
0.89130435 	0.88657027 	0.0020373621 	2.5893605e-07
0.90217391 	0.84956305 	0.0020967703 	-4.116526e-07
0.91304348 	0.80986905 	0.0021259723 	5.6644302e-08
0.92391304 	0.76854771 	0.0021099305 	-5.616196e-07
0.93478261 	0.72640949 	0.0019989619 	-3.0021914e-07
0.94565217 	0.6794825 	0.0017624291 	-1.6021011e-06
0.95652174 	0.63231452 	0.0014427861 	-8.3120114e-07
0.9673913 	0.57988842 	0.0010228011 	-1.5845132e-07
0.97826087 	0.51341911 	0.00048447647 	-4.8390303e-07
0.98913043 	0.37760765 	0.0004333418 	-4.1198817e-07
