0.43820225 	0.0012338752 	-0.00059709803 	-6.580644e-07 	0.0014678779 	1.4171739e-06 	0.00090229988
0.4494382 	0.0047657598 	-0.0023786509 	-5.2419971e-07 	0.0055644442 	2.3778369e-06 	0.00074341384
0.46067416 	0.0049233843 	-0.0024407053 	-5.1893203e-07 	0.0055915904 	1.9065863e-06 	0.00085618459
0.47191011 	0.0046394428 	-0.0022853064 	-8.6388492e-08 	0.0051297403 	3.2949797e-07 	0.0025060898
0.48314607 	0.0042205459 	-0.0020654347 	7.7894336e-07 	0.0045589816 	-1.82348e-06 	0.0025189296
0.49438202 	0.0036906072 	-0.0017915928 	-5.0171828e-07 	0.0038876225 	1.0719765e-06 	0.000585076
0.50561798 	0.0031070183 	-0.0014904592 	-3.6599053e-07 	0.0031644325 	7.4386643e-07 	0.00064923806
0.51685393 	0.0025566806 	-0.001184118 	-1.0100053e-07 	0.0024752254 	2.0561477e-07 	0.0009516617
0.52808989 	0.0020922421 	-0.00087244542 	-4.4532979e-08 	0.001924641 	8.4624266e-08 	0.00079072971
0.53932584 	0.0017423116 	-0.00061095874 	-1.64428e-07 	0.0015042623 	1.4449314e-07 	0.00044110547
0.5505618 	0.0015164858 	-0.00039585667 	-3.923114e-07 	0.0011993575 	1.365489e-07 	3.526212e-05
0.56179775 	0.0014009773 	-0.00021234157 	-6.5919175e-09 	0.00098937449 	1.6998626e-09 	0.00049472877
0.57303371 	0.0013836798 	-6.3383066e-05 	1.8185397e-06 	0.00084875433 	-1.8166603e-06 	0.00045200657
0.58426966 	0.0014194807 	6.2722764e-05 	1.3990927e-06 	0.00074530394 	-1.1705904e-06 	0.00044175387
0.59550562 	0.0014803694 	0.00016620606 	-1.9087298e-07 	0.00067818367 	-1.7167771e-07 	0.00022780376
0.60674157 	0.0015404352 	0.00024105596 	5.0587235e-07 	0.00066279552 	-2.0643031e-07 	0.00043083515
0.61797753 	0.0015869133 	0.00029176037 	7.1624698e-07 	0.00069241492 	3.9088576e-07 	0.00042953108
0.62921348 	0.001633317 	0.00033700869 	-3.7247938e-07 	0.00073186803 	-2.2836598e-07 	3.6824931e-05
0.64044944 	0.0016796549 	0.00037734073 	6.646687e-07 	0.00077881023 	6.6469446e-07 	0.00042712824
0.65168539 	0.0017262748 	0.00041682049 	8.4553036e-08 	0.00082733713 	6.2741064e-08 	0.00043785484
0.66292135 	0.0017725876 	0.00045401564 	3.7388351e-07 	0.00087873942 	4.2113608e-07 	0.00043737812
0.6741573 	0.0018189927 	0.00049066939 	2.4735133e-07 	0.00093020489 	3.0481746e-07 	0.00045532743
0.68539326 	0.0018647186 	0.00052539507 	2.7475255e-07 	0.0009832621 	3.4314072e-07 	0.0004599111
0.69662921 	0.0019101012 	0.00055969948 	2.2664523e-07 	0.0010363087 	3.135945e-07 	0.00048481973
0.70786517 	0.001954565 	0.00059191025 	3.2200559e-07 	0.0010898283 	4.640545e-07 	0.00049451492
0.71910112 	0.0019994732 	0.00062473767 	1.0044528e-07 	0.0011444842 	1.3284111e-07 	0.00052590588
0.73033708 	0.0020444362 	0.00065644191 	3.9482571e-07 	0.001201026 	6.5020057e-07 	0.00054054163
0.74157303 	0.0020900999 	0.00068944813 	7.8936599e-10 	0.0012596535 	-3.6973378e-08 	0.00056481542
0.75280899 	0.0021381317 	0.00072359791 	3.97801e-07 	0.0013243883 	7.2429551e-07 	0.00059737751
0.76404494 	0.0021871206 	0.00075968999 	3.5888806e-08 	0.0013927877 	3.4522902e-08 	0.00064279729
0.7752809 	0.002240483 	0.00079802174 	2.683705e-07 	0.0014697344 	5.1659973e-07 	0.00066586238
0.78651685 	0.0022975998 	0.00083995401 	2.6850627e-07 	0.0015547924 	5.5180838e-07 	0.00072158539
0.79775281 	0.0023613378 	0.00088434079 	-1.9445012e-08 	0.0016484312 	-9.2321169e-08 	0.00060325125
0.80898876 	0.0024362817 	0.00093521189 	8.1068401e-07 	0.0017577716 	1.8132605e-06 	0.0008176714
0.82022472 	0.002520539 	0.00098957853 	-3.3584754e-08 	0.0018767926 	-1.5760766e-07 	0.00049474574
0.83146067 	0.0026247325 	0.00105221 	1.0941471e-07 	0.0020160178 	2.1185494e-07 	0.00093507368
0.84269663 	0.0027506759 	0.0011243057 	1.0078123e-06 	0.0021771159 	2.29212e-06 	0.0010408214
0.85393258 	0.002899015 	0.0012054251 	-1.0202239e-09 	0.0023586743 	-5.0874456e-08 	0.0010932269
0.86516854 	0.0030799764 	0.0012992567 	3.4669049e-08 	0.0025675742 	-1.0015639e-07 	0.00021546491
0.87640449 	0.0032963035 	0.0014088069 	-1.1301488e-09 	0.002811089 	-4.1773724e-08 	0.0013474825
0.88764045 	0.0035456681 	0.0015318992 	6.7351776e-07 	0.0030827871 	1.4757268e-06 	0.0015495229
0.8988764 	0.0038212449 	0.0016661381 	1.1137473e-06 	0.0033782176 	2.45604e-06 	0.0017482718
0.91011236 	0.0041139549 	0.0018079214 	1.1719368e-06 	0.0036903221 	2.5952482e-06 	0.0019574682
0.92134831 	0.0044106263 	0.0019518463 	8.291412e-07 	0.0040085024 	1.8487808e-06 	0.0021694255
0.93258427 	0.0046956502 	0.0020914051 	1.7340126e-07 	0.0043199676 	3.8501956e-07 	0.0023773664
0.94382022 	0.004947496 	0.0022166618 	9.6464328e-08 	0.0046032029 	6.9061981e-08 	0.00088795449
0.95505618 	0.00514604 	0.0023204417 	2.6615545e-08 	0.0048468474 	2.5898144e-08 	0.0023899849
0.96629213 	0.0052297236 	0.0023723879 	2.1335048e-07 	0.0049831857 	2.9922798e-07 	0.00014785173
0.97752809 	0.0050390898 	0.0023044975 	-1.4153092e-07 	0.0048767336 	-2.7623156e-07 	0.0029705035
0.98876404 	0.0033761172 	0.0015646812 	-1.1222177e-06 	0.0033267237 	-2.3811858e-06 	0.0021068412
