0.27835052 	0.00099334916 	-0.00033787649 	2.1496785e-07 	0.00062993691 	-3.8558052e-07 	0.00057509071
0.28865979 	0.001755637 	-0.00045189449 	-3.7485556e-06 	0.0018067081 	2.3566155e-05 	0.00077669759
0.29896907 	0.0014182342 	0.00020190725 	6.6381639e-07 	0.0024827721 	-2.798412e-05 	0.00054492615
0.30927835 	0.001467765 	4.2417861e-05 	-1.9244447e-05 	0.0024138174 	0.00010147436 	0.00036022975
0.31958763 	0.0014024373 	5.3872663e-05 	3.8756999e-06 	0.0024338683 	-1.6368114e-05 	0.00020797086
0.32989691 	0.0013756642 	5.9790034e-05 	2.2729725e-07 	0.0024102395 	-3.0616565e-06 	7.6802747e-05
0.34020619 	0.0013519707 	5.6757339e-05 	-6.5304792e-07 	0.002402718 	1.9876631e-06 	5.6695887e-05
0.35051546 	0.0013376994 	5.8670464e-05 	-3.584632e-07 	0.0023940424 	4.0989434e-06 	0.00017747217
0.36082474 	0.0013267254 	6.2901567e-05 	3.597123e-07 	0.002392001 	-5.8500712e-07 	4.1163917e-05
0.37113402 	0.0013198707 	6.8749057e-05 	6.3172538e-07 	0.0023994957 	-3.3516039e-07 	0.00033780531
0.3814433 	0.0013157268 	7.5357243e-05 	2.9848054e-07 	0.0024106824 	-2.138772e-06 	0.00051819686
0.39175258 	0.0013132354 	8.2774718e-05 	-4.9773002e-08 	0.0024245713 	-7.0206596e-07 	0.000630285
0.40206186 	0.0013117147 	8.8564808e-05 	8.6308269e-07 	0.0024371675 	-1.1786939e-06 	7.9984844e-05
0.41237113 	0.0013125391 	9.8711989e-05 	1.6885453e-07 	0.0024590587 	-2.3658765e-07 	0.000680672
0.42268041 	0.001313332 	0.00010873921 	3.6409014e-07 	0.0024783794 	-3.835942e-07 	0.00067655143
0.43298969 	0.001314501 	0.00011929038 	1.1921079e-06 	0.0024956759 	-1.3459584e-06 	0.00019706266
0.44329897 	0.0013166659 	0.00013520235 	4.6749356e-08 	0.0025215645 	-1.97376e-08 	0.0010623134
0.45360825 	0.0013184807 	0.00014965343 	1.3098519e-06 	0.0025356335 	-1.4053152e-06 	7.4179666e-05
0.46391753 	0.0013211533 	0.00017049826 	4.5797805e-08 	0.0025608113 	-1.1707797e-07 	0.00097183341
0.4742268 	0.0013240457 	0.0001889433 	1.0676064e-06 	0.002574534 	-1.110473e-06 	0.00014395784
0.48453608 	0.001327294 	0.00021221847 	1.3989651e-07 	0.0025965654 	-3.467639e-07 	0.0008634263
0.49484536 	0.0013310735 	0.00023135608 	1.0272556e-06 	0.0026086162 	-1.0843983e-06 	4.5686107e-05
0.50515464 	0.0013347569 	0.00025450057 	1.9686604e-07 	0.0026284213 	-5.6154584e-07 	0.00076744347
0.51546392 	0.0013387851 	0.00027281375 	5.8994605e-07 	0.0026402851 	-6.5804346e-07 	0.00024196482
0.5257732 	0.0013425645 	0.00029323213 	6.8566256e-08 	0.0026567458 	-2.5231446e-07 	0.00068203361
0.53608247 	0.0013462184 	0.00031069233 	2.2250514e-08 	0.0026688573 	-8.1902737e-08 	0.00063062828
0.54639175 	0.0013497935 	0.00032707725 	2.400313e-07 	0.0026800973 	-2.8982566e-07 	0.00038686572
0.55670103 	0.0013528969 	0.00034374718 	2.4882995e-07 	0.0026908818 	-1.1472416e-06 	0.00056420514
0.56701031 	0.0013560111 	0.00035907461 	2.7910528e-07 	0.0026987948 	-3.7112048e-07 	0.00024266033
0.57731959 	0.0013587828 	0.00037582277 	9.6346678e-08 	0.002707602 	-5.0007313e-07 	0.00050771995
0.58762887 	0.0013612537 	0.00039138642 	1.8796335e-07 	0.0027125681 	-9.7559501e-07 	0.00047544255
0.59793814 	0.0013638804 	0.00040662531 	3.5778367e-07 	0.0027153536 	-5.3996873e-07 	1.9887941e-05
0.60824742 	0.0013659002 	0.00042328104 	1.8018313e-07 	0.0027185254 	-1.0815976e-06 	0.00043809438
0.6185567 	0.001367715 	0.00043844628 	1.8713661e-07 	0.002718297 	-1.123338e-06 	0.00041599173
0.62886598 	0.0013697001 	0.00045341508 	2.5940287e-07 	0.0027159706 	-4.6431168e-07 	8.8155143e-06
0.63917526 	0.0013711223 	0.00046959034 	1.8951732e-07 	0.0027129098 	-1.3216173e-06 	0.000395668
0.64948454 	0.001372414 	0.00048440945 	1.8555042e-07 	0.0027070041 	-1.2939537e-06 	0.00038347511
0.65979381 	0.0013739675 	0.00049910881 	1.8114565e-07 	0.0026990725 	-4.0266752e-07 	1.21437e-05
0.67010309 	0.0013751209 	0.00051502778 	2.0418462e-07 	0.0026891198 	-1.584108e-06 	0.00037882191
0.68041237 	0.0013762581 	0.00052990503 	1.3341819e-07 	0.002676853 	-1.0350869e-06 	0.00037539682
0.69072165 	0.0013777732 	0.0005453867 	3.9158129e-08 	0.0026626425 	-1.1500098e-07 	0.00026687618
0.70103093 	0.0013790851 	0.00056033784 	2.5817838e-07 	0.0026447404 	-2.3005837e-06 	0.00038606011
0.71134021 	0.0013804199 	0.00057502469 	2.1893853e-08 	0.002626224 	-1.9509247e-07 	0.00038994282
0.72164948 	0.0013824272 	0.00059029501 	7.9568498e-08 	0.0026040474 	-8.3444756e-07 	0.00040442022
0.73195876 	0.0013844235 	0.00060456796 	1.29591e-07 	0.0025799725 	-1.3590415e-06 	0.0004142748
0.74226804 	0.0013870676 	0.00061907069 	2.2373451e-08 	0.0025539373 	-1.259681e-07 	0.00025893567
0.75257732 	0.0013905541 	0.00063353162 	1.9073831e-07 	0.0025259085 	-2.1770474e-06 	0.00044523297
0.7628866 	0.0013955629 	0.00064719362 	4.6291533e-08 	0.0024949386 	-1.7887107e-07 	0.00014585795
0.77319588 	0.0014014148 	0.00066293592 	1.6465132e-07 	0.0024642828 	-1.7428354e-06 	0.00048277903
0.78350515 	0.001409811 	0.00067754574 	2.5367581e-08 	0.0024304665 	-6.7561755e-08 	0.00035063887
0.79381443 	0.0014207977 	0.00069408836 	1.4244603e-07 	0.0023964448 	-1.3715819e-06 	0.00052708826
0.80412371 	0.0014343539 	0.00070941501 	2.1125666e-08 	0.0023611637 	-7.336558e-08 	0.00034850645
0.81443299 	0.0014506807 	0.00072619789 	1.3777787e-07 	0.0023282301 	-1.3140292e-06 	0.00057819534
0.82474227 	0.0014692744 	0.00074121744 	-3.1695639e-09 	0.0022956268 	-1.3573552e-07 	0.00010238595
0.83505155 	0.0014900611 	0.000757094 	1.154637e-07 	0.0022699694 	-1.076988e-06 	0.00063558087
0.84536082 	0.0015129271 	0.00077196046 	-1.1703332e-08 	0.0022460511 	-3.129138e-08 	0.00047518938
0.8556701 	0.0015394947 	0.00078742655 	2.1182112e-08 	0.0022287826 	-1.5671218e-07 	0.00069905479
0.86597938 	0.0015699522 	0.00080355827 	9.7591022e-08 	0.0022156161 	-4.5976662e-07 	0.00074016361
0.87628866 	0.0016054746 	0.00082091641 	-1.964559e-08 	0.0022056278 	-8.1828646e-09 	0.00023737771
0.88659794 	0.0016472268 	0.00084071629 	4.1851731e-09 	0.0022047528 	-1.0931567e-08 	0.00081631393
0.89690722 	0.0016975159 	0.00086303214 	2.0850822e-07 	0.0022092852 	-2.5124271e-07 	0.00086883134
0.90721649 	0.0017569358 	0.00088852811 	5.5905806e-08 	0.0022208732 	-1.5866085e-08 	0.00092825123
0.91752577 	0.0018295257 	0.00091845966 	9.6762402e-09 	0.0022414088 	5.3832797e-08 	0.00045190416
0.92783505 	0.0019157975 	0.0009534407 	2.8168412e-08 	0.0022741891 	1.1346602e-07 	8.3078806e-05
0.93814433 	0.0020161419 	0.00099403656 	2.3922429e-08 	0.0023220295 	8.5077892e-08 	0.00038551109
0.94845361 	0.0021208533 	0.0010359337 	1.9029246e-08 	0.00237731 	6.848717e-08 	0.00044973858
0.95876289 	0.0022416409 	0.0010837214 	8.1705499e-08 	0.0024449213 	6.9790434e-08 	0.0013092136
0.96907216 	0.0023257249 	0.0011127538 	-3.9089761e-09 	0.002473583 	-7.0188196e-09 	0.0012694531
0.97938144 	0.00225545 	0.0010675531 	-7.8571426e-09 	0.0023408648 	-1.9328307e-08 	0.0013782434
0.98969072 	0.001356594 	0.00063380824 	-6.9545604e-08 	0.0013660427 	-1.5476772e-07 	0.00039325646
