0.17894737 	0.00020626002 	-2.1177888e-05 	3.7338881e-07 	0.00012967461 	-1.3961354e-06 	7.1899186e-05
0.18947368 	0.0014275168 	-4.9451091e-05 	8.075446e-07 	0.0024484979 	1.5134199e-06 	0.00073604116
0.2 	0.0013483195 	-6.6413318e-05 	-3.1408025e-07 	0.0024790335 	-5.648582e-07 	0.00046961064
0.21052632 	0.0013402217 	-0.00014473225 	-6.711479e-07 	0.0023647771 	1.8893464e-08 	0.00030286072
0.22105263 	0.0013175611 	-0.00016703633 	1.4798579e-08 	0.002289374 	-7.5702769e-07 	0.00015628049
0.23157895 	0.0012989826 	-0.00018117248 	-1.7304554e-07 	0.0022388171 	-1.6425341e-06 	2.4663175e-05
0.24210526 	0.0012829964 	-0.0001874549 	-9.156063e-08 	0.002207161 	-1.2589929e-06 	0.00010974113
0.25263158 	0.0012694889 	-0.00018967334 	-3.1919623e-08 	0.0021870031 	-1.5313265e-06 	0.00023001037
0.26315789 	0.0012593017 	-0.00019106237 	-2.0306268e-08 	0.0021753337 	-9.7738574e-07 	0.00034605762
0.27368421 	0.0012531498 	-0.0001927074 	4.1252553e-07 	0.0021691554 	-4.2065139e-07 	0.00033683845
0.28421053 	0.0012520425 	-0.00019431731 	1.4820427e-06 	0.0021662629 	-1.1959467e-06 	0.00013640324
0.29473684 	0.0012471811 	-0.00019178294 	1.1689296e-09 	0.0021833979 	-5.7306748e-08 	0.00067944797
0.30526316 	0.001248033 	-0.00019132469 	6.5614102e-07 	0.0021936694 	-4.3656834e-07 	0.00059898651
0.31578947 	0.0012548747 	-0.00019143618 	2.8747762e-06 	0.0021985842 	-1.5749995e-06 	6.7465019e-05
0.32631579 	0.0012514244 	-0.00018706049 	3.3812941e-07 	0.0022315229 	-1.4863317e-07 	0.00082504637
0.33684211 	0.0012596863 	-0.00018536785 	1.5853722e-06 	0.0022433795 	-7.0852081e-07 	0.00033907202
0.34736842 	0.0012621952 	-0.00018082069 	7.7208295e-07 	0.0022700557 	-2.8006096e-07 	0.00051556462
0.35789474 	0.0012667322 	-0.00017642089 	3.5989012e-07 	0.0022960731 	-1.3081694e-07 	0.00056888947
0.36842105 	0.0012725856 	-0.00016986475 	7.1727237e-07 	0.0023192087 	-2.1413863e-07 	0.00037273852
0.37894737 	0.0012761724 	-0.0001627782 	4.1017986e-08 	0.0023502024 	-1.8575718e-07 	0.00052941758
0.38947368 	0.0012810773 	-0.00015276896 	2.0444237e-07 	0.0023764902 	-5.2363067e-08 	0.00038484522
0.4 	0.0012853775 	-0.00014188334 	1.1528461e-07 	0.0024068148 	-3.0951234e-07 	0.00038391732
0.41052632 	0.0012890771 	-0.00012764219 	1.161428e-07 	0.0024356998 	-3.1181485e-07 	0.00031016293
0.42105263 	0.0012928778 	-0.00011225813 	1.3114895e-07 	0.0024659115 	-2.3967767e-07 	0.00024732897
0.43157895 	0.0012959384 	-9.3284878e-05 	4.7086283e-07 	0.0024951176 	-8.605235e-07 	0.00018054165
0.44210526 	0.0012990082 	-7.3973398e-05 	1.6403424e-08 	0.0025248581 	-4.3954186e-09 	0.00011307662
0.45263158 	0.0013016899 	-5.1315827e-05 	9.2806205e-07 	0.0025528021 	-1.3893211e-06 	5.9259178e-05
0.46315789 	0.0013044211 	-2.8655707e-05 	3.0174665e-07 	0.0025806936 	-4.5171888e-07 	1.0068055e-05
0.47368421 	0.0013072192 	-5.1083546e-06 	5.3345472e-07 	0.0026072123 	-7.8216771e-07 	6.7771788e-05
0.48421053 	0.0013100166 	1.9046892e-05 	7.9034781e-07 	0.0026328385 	-1.1588323e-06 	0.00012131592
0.49473684 	0.0013138209 	4.226228e-05 	3.5839557e-07 	0.0026562318 	-2.418742e-07 	1.391189e-05
0.50526316 	0.0013159228 	6.6906291e-05 	6.9264783e-07 	0.0026789549 	-1.1074613e-06 	0.00022699915
0.51578947 	0.0013188612 	9.1154754e-05 	4.872057e-07 	0.0027004808 	-7.7898348e-07 	0.00027161902
0.52631579 	0.0013228583 	0.00011378274 	3.3515811e-07 	0.0027182408 	-2.7189454e-07 	0.00014545485
0.53684211 	0.0013251066 	0.00013936266 	7.3552906e-07 	0.0027356074 	-1.2408645e-06 	0.00036344964
0.54736842 	0.0013281507 	0.00016507608 	4.0549277e-07 	0.0027516726 	-6.8408113e-07 	0.00039853827
0.55789474 	0.0013327943 	0.00018913472 	5.0092006e-07 	0.0027624256 	-5.0879169e-07 	0.00011430236
0.56842105 	0.0013349588 	0.000216349 	6.1673983e-07 	0.0027735675 	-1.1004128e-06 	0.00047698851
0.57894737 	0.0013383738 	0.00024463458 	5.568739e-07 	0.002782073 	-9.9359754e-07 	0.00050211405
0.58947368 	0.0013432655 	0.0002714589 	4.6323644e-07 	0.0027856106 	-6.419737e-07 	0.00010973953
0.6 	0.0013467523 	0.00029792973 	2.4935064e-07 	0.0027879791 	-6.4651043e-07 	0.00056760959
0.61052632 	0.0013543995 	0.00032465152 	6.566884e-07 	0.0027814012 	-1.7026461e-06 	0.00058290424
0.62105263 	0.0013627567 	0.00035033445 	2.1467772e-07 	0.0027719463 	-2.8995569e-07 	0.0003354271
0.63157895 	0.00136516 	0.00037749764 	1.9264042e-08 	0.0027686028 	-7.8647621e-08 	0.00063247274
0.64210526 	0.0013770647 	0.00040020483 	5.2879688e-07 	0.0027473146 	-2.1588735e-06 	0.00063890871
0.65263158 	0.001390836 	0.00042108441 	1.8359875e-07 	0.0027215835 	-1.2686776e-07 	0.00039349606
0.66315789 	0.0013974023 	0.00044494345 	1.9286197e-08 	0.0027043377 	-1.1357105e-07 	0.00067214427
0.67368421 	0.0014100481 	0.00046384598 	3.1386098e-07 	0.0026756442 	-1.84824e-06 	0.00067103305
0.68421053 	0.0014265596 	0.00047856371 	3.0137836e-07 	0.0026384837 	-6.1156677e-08 	0.00022586742
0.69473684 	0.001436569 	0.00049447185 	1.0318225e-07 	0.0026095626 	-8.4639179e-07 	0.00068643074
0.70526316 	0.0014480364 	0.00051040997 	1.0820621e-07 	0.0025771924 	-8.8760275e-07 	0.00067894968
0.71578947 	0.001460701 	0.00052431409 	2.603458e-07 	0.0025396445 	1.3378783e-08 	0.00025385786
0.72631579 	0.0014683274 	0.00053941196 	2.4214897e-07 	0.0025093379 	-2.1240232e-06 	0.00067301916
0.73684211 	0.0014776462 	0.00055445709 	1.4145762e-07 	0.0024750649 	1.7911897e-08 	0.00038596969
0.74736842 	0.0014848843 	0.00056893562 	1.0249274e-07 	0.0024419156 	-8.6314412e-07 	0.00065421891
0.75789474 	0.0014914032 	0.00058454295 	4.9398105e-08 	0.0024099245 	-4.1600688e-07 	0.00063735626
0.76842105 	0.0014979982 	0.00059977094 	2.3455062e-08 	0.0023771176 	-1.518303e-07 	0.00062462879
0.77894737 	0.0015035016 	0.00061742192 	1.3921564e-07 	0.0023469786 	-9.0117658e-07 	0.00060454719
0.78947368 	0.0015101073 	0.00063671515 	2.7219006e-08 	0.0023169529 	5.0896931e-09 	0.000525032
0.8 	0.0015169064 	0.00065920581 	2.3623587e-07 	0.0022895288 	-9.5920531e-07 	0.00056470473
0.81052632 	0.0015267232 	0.00068523074 	1.0866856e-08 	0.00226161 	-2.8408933e-08 	0.00054608408
0.82105263 	0.0015381342 	0.00071437967 	2.630414e-07 	0.0022370769 	-6.8766214e-07 	0.00052151501
0.83157895 	0.0015542686 	0.00074611932 	1.7454882e-07 	0.0022132887 	-3.9797712e-07 	0.00050252582
0.84210526 	0.0015726385 	0.00077627999 	7.9133778e-08 	0.0021929464 	-1.8042765e-07 	0.00047628351
0.85263158 	0.0015981245 	0.00079906029 	3.1571126e-07 	0.0021763877 	-8.6382634e-07 	0.00045609043
0.86315789 	0.0016258319 	0.00082057288 	-1.4146928e-08 	0.0021627523 	3.2772548e-08 	0.00013617151
0.87368421 	0.0016593215 	0.00083937053 	1.1389797e-07 	0.0021579588 	-4.1326073e-07 	0.00040725777
0.88421053 	0.0016990085 	0.0008575368 	1.3441152e-07 	0.0021574047 	-3.7147349e-07 	0.00038673917
0.89473684 	0.0017447764 	0.00087654651 	-2.0768345e-09 	0.002162119 	8.1967772e-09 	0.0003169748
0.90526316 	0.0018013915 	0.0008995344 	6.1349718e-08 	0.0021762226 	-5.4424741e-08 	0.00033506444
0.91578947 	0.0018708594 	0.00092747108 	2.9709914e-07 	0.0022011752 	4.5647462e-08 	0.0003135621
0.92631579 	0.00195257 	0.00096028661 	4.9290283e-07 	0.0022384737 	3.9549797e-07 	0.00029159934
0.93684211 	0.0020452659 	0.00099765718 	3.7386325e-07 	0.0022886367 	4.2646974e-07 	0.00026837157
0.94736842 	0.002150537 	0.0010403219 	4.2919376e-07 	0.0023527469 	5.8947857e-07 	0.00024130293
0.95789474 	0.0022703121 	0.0010886187 	6.3882401e-08 	0.002429052 	8.7655405e-08 	0.00020979117
0.96842105 	0.002351886 	0.0011186859 	1.8979426e-08 	0.0024690277 	-8.3574267e-08 	0.00017701548
0.97894737 	0.0022643208 	0.0010687354 	-2.3255909e-07 	0.0023354683 	-5.4278222e-07 	0.00012755771
0.98947368 	0.0012906545 	0.00060332148 	-4.435305e-06 	0.0012997347 	-9.6332692e-06 	5.0928842e-05
