0.47777778 	0.62270404 	0.00024122869 	-1.0274776e-08
0.48888889 	0.9829176 	0.00019956165 	1.0101527e-07
0.5 	1.1387098 	0.00026513203 	2.7302984e-07
0.51111111 	1.2405087 	0.00042379497 	1.8915098e-07
0.52222222 	1.3160052 	0.0006425648 	-2.6750075e-06
0.53333333 	1.3737899 	0.00081973529 	-4.3613676e-06
0.54444444 	1.4163769 	0.00083629786 	-4.5257708e-06
0.55555556 	1.4445848 	0.0011312708 	-5.2540212e-06
0.56666667 	1.4622265 	0.0011947097 	-9.5378718e-06
0.57777778 	1.472469 	0.0010734001 	-1.0712749e-05
0.58888889 	1.4775559 	0.0010908792 	-9.9306866e-06
0.6 	1.479603 	0.0010570376 	-1.0604361e-05
0.61111111 	1.4799483 	0.0010115733 	-9.380993e-06
0.62222222 	1.4791941 	0.00096981349 	-3.1201506e-06
0.63333333 	1.4776716 	0.00092003552 	-9.6613548e-06
0.64444444 	1.4757018 	0.00086486753 	-9.8237003e-06
0.65555556 	1.4733627 	0.00080522924 	-1.6974833e-06
0.66666667 	1.4706099 	0.00074525612 	-9.8095074e-06
0.67777778 	1.4676111 	0.00068295333 	-9.1863392e-06
0.68888889 	1.4643268 	0.00061525154 	-8.8116933e-06
0.7 	1.46074 	0.00054750186 	-9.6528032e-06
0.71111111 	1.4569799 	0.00048545981 	-6.4415577e-06
0.72222222 	1.4529137 	0.00042097145 	-9.8613607e-06
0.73333333 	1.448739 	0.00034494624 	-5.1846061e-06
0.74444444 	1.4441809 	0.00026108144 	-9.2607902e-06
0.75555556 	1.4395427 	0.00018741536 	-4.3024534e-06
0.76666667 	1.4343619 	0.00013792402 	-7.7702716e-06
0.77777778 	1.4290188 	9.264638e-05 	-4.3434858e-07
0.78888889 	1.4229246 	2.8490345e-05 	-7.1570489e-06
0.8 	1.4164732 	-5.6097254e-05 	-5.0177044e-06
0.81111111 	1.4093155 	-0.00013704604 	-5.1979634e-06
0.82222222 	1.4014601 	-0.00019710216 	-4.9916359e-06
0.83333333 	1.393069 	-0.00025487676 	-2.9191794e-06
0.84444444 	1.3835899 	-0.00030844887 	-3.1806365e-06
0.85555556 	1.3728211 	-0.00035235961 	-2.9224971e-06
0.86666667 	1.360575 	-0.00038673998 	-1.9320373e-06
0.87777778 	1.3462915 	-0.00040900649 	-1.1776883e-06
0.88888889 	1.3290524 	-0.00041569174 	-4.0540923e-07
0.9 	1.3078143 	-0.00040412042 	-8.0179769e-08
0.91111111 	1.2814929 	-0.00037239629 	-4.8353618e-08
0.92222222 	1.2488018 	-0.00032060367 	-8.1666507e-08
0.93333333 	1.2081419 	-0.00025438001 	2.6873771e-07
0.94444444 	1.157885 	-0.00018656815 	8.1409521e-07
0.95555556 	1.0957215 	-0.00012390879 	7.7404411e-08
0.96666667 	1.0148946 	-5.853674e-05 	2.8878263e-07
0.97777778 	0.8947038 	-6.4476239e-05 	-9.2879584e-08
0.98888889 	0.6597667 	-0.00019849821 	-7.9484419e-07
