0.36082474 	0.003677309 	-0.001635575 	6.9193195e-07 	0.0026138697 	-3.4672876e-06 	0.0028767724
0.37113402 	0.0018245938 	-0.00058562923 	-2.5428457e-05 	0.0016172571 	0.00018647898 	0.0012031616
0.3814433 	0.001600015 	5.9786412e-06 	3.6822841e-05 	0.0020864015 	-0.00038328143 	0.0007680787
0.39175258 	0.0014516904 	0.00020308802 	-3.6975519e-06 	0.0024242117 	-2.3911589e-05 	0.00044565016
0.40206186 	0.0014885525 	0.00016694529 	-3.5262135e-05 	0.0023041855 	0.00029728741 	0.00071091849
0.41237113 	0.0014618579 	0.00018949707 	-2.0735869e-05 	0.0023395403 	0.00021478012 	0.0005512551
0.42268041 	0.0014010879 	0.00021242622 	8.2509278e-06 	0.0024420732 	-2.5527528e-05 	0.00038671019
0.43298969 	0.0013984411 	0.00022545053 	7.7583148e-06 	0.0024344532 	-6.7681773e-05 	0.00028544244
0.44329897 	0.001383402 	0.00024406679 	-3.1546034e-08 	0.0024683565 	-1.2560351e-05 	0.00017365077
0.45360825 	0.0013731758 	0.00026016148 	-6.5029514e-07 	0.0024957503 	3.2100808e-06 	7.4111048e-05
0.46391753 	0.0013729042 	0.00027416583 	2.8793161e-08 	0.0025074243 	1.7593349e-06 	3.3594453e-05
0.4742268 	0.0013720553 	0.00028904999 	1.0641159e-09 	0.0025259537 	8.1247298e-06 	0.00012843877
0.48453608 	0.0013723936 	0.00030581181 	1.550031e-06 	0.0025422697 	-5.4012378e-06 	0.00022153558
0.49484536 	0.0013747182 	0.00032677001 	5.0977128e-07 	0.0025555908 	-6.4345262e-06 	0.00031681886
0.50515464 	0.0013784434 	0.00035092569 	5.4248699e-07 	0.0025671013 	-7.8869893e-06 	0.00039941402
0.51546392 	0.0013836098 	0.00037714131 	-1.3294896e-07 	0.0025764351 	-1.4636221e-06 	0.00049218153
0.5257732 	0.0013892483 	0.00040220842 	3.0893867e-07 	0.0025829824 	-5.2449895e-07 	3.5553497e-05
0.53608247 	0.0013951885 	0.00042588328 	-1.9022289e-08 	0.0025936105 	7.6427737e-07 	0.00065784134
0.54639175 	0.0014010314 	0.0004466103 	2.8102444e-07 	0.0025997535 	-3.8019491e-07 	0.00023990714
0.55670103 	0.0014063027 	0.00046556231 	1.2937248e-07 	0.0026099685 	5.1936996e-08 	0.00081103523
0.56701031 	0.0014108361 	0.00048107237 	3.3176804e-07 	0.0026153551 	-6.6914177e-07 	0.0002256598
0.57731959 	0.0014148539 	0.00049618277 	1.0371644e-07 	0.0026253389 	-5.5009577e-07 	0.00094956994
0.58762887 	0.0014179171 	0.00050850159 	4.3942549e-07 	0.0026279741 	-9.4629112e-07 	1.2237139e-05
0.59793814 	0.0014207434 	0.00052148893 	2.7573282e-08 	0.0026371123 	-3.6482926e-07 	0.001073101
0.60824742 	0.0014227095 	0.00053275703 	2.7770255e-07 	0.0026380678 	-6.5296763e-07 	0.00042112927
0.6185567 	0.0014244027 	0.00054412235 	1.313736e-07 	0.002641578 	-3.1048804e-07 	0.00083755481
0.62886598 	0.0014256671 	0.00055529882 	6.2300355e-08 	0.002642802 	-1.6654356e-07 	0.0010286375
0.63917526 	0.0014261651 	0.00056513851 	3.6187578e-07 	0.0026376282 	-8.9213425e-07 	0.00021232022
0.64948454 	0.0014267156 	0.0005759703 	3.0170686e-09 	0.0026388954 	-1.5146441e-07 	0.0012973588
0.65979381 	0.0014264672 	0.00058529951 	2.109963e-07 	0.0026305766 	-5.6992347e-07 	0.00061464734
0.67010309 	0.0014259281 	0.00059475542 	2.2750989e-07 	0.0026230347 	-6.1393533e-07 	0.00059041678
0.68041237 	0.0014253557 	0.00060483899 	1.88302e-09 	0.0026174737 	-1.6636922e-07 	0.001376146
0.69072165 	0.0014242668 	0.00061284182 	2.8742665e-07 	0.0026016824 	-8.6025386e-07 	0.00025587649
0.70103093 	0.0014229831 	0.00062239451 	9.2863576e-08 	0.0025909895 	-2.7781456e-07 	0.0010444071
0.71134021 	0.0014218504 	0.000631348 	9.6428962e-08 	0.0025754117 	-3.2165811e-07 	0.00096520867
0.72164948 	0.0014206731 	0.00063953194 	2.1841825e-07 	0.0025558179 	-7.2896509e-07 	0.00039692424
0.73195876 	0.0014194114 	0.00064906092 	8.6086039e-10 	0.0025398858 	-2.0256167e-07 	0.0014327734
0.74226804 	0.0014193387 	0.00065702787 	2.343375e-07 	0.0025140864 	-8.6228497e-07 	0.00011547949
0.75257732 	0.0014187687 	0.00066661923 	1.1118277e-09 	0.0024944705 	-4.1049899e-09 	0.0014254953
0.7628866 	0.0014206111 	0.00067561119 	1.4912455e-07 	0.0024662873 	-5.9298144e-07 	0.00043140337
0.77319588 	0.0014225395 	0.00068560055 	3.1051495e-08 	0.0024414037 	-1.2347597e-07 	0.0012108709
0.78350515 	0.001427281 	0.00069570199 	1.0576901e-07 	0.0024117519 	-4.5068888e-07 	0.00055312844
0.79381443 	0.0014329847 	0.00070667306 	2.2726074e-08 	0.002384387 	-9.6837144e-08 	0.0012127143
0.80412371 	0.001442053 	0.00071774316 	9.2060965e-08 	0.0023539882 	-4.1935199e-07 	0.00044629709
0.81443299 	0.0014523379 	0.00072977908 	7.4675867e-09 	0.0023277312 	-1.3279644e-07 	0.0013693791
0.82474227 	0.0014669155 	0.00074156925 	9.9571345e-08 	0.0022986526 	-4.7055609e-07 	7.2415888e-05
0.83505155 	0.0014828846 	0.00075483439 	1.3212177e-08 	0.0022767451 	-1.7277912e-07 	0.0013384667
0.84536082 	0.0015037533 	0.00076810461 	4.2272482e-08 	0.00225447 	-1.9251363e-07 	0.00067141759
0.8556701 	0.0015279764 	0.00078258912 	3.9732252e-08 	0.0022366276 	-1.5787962e-07 	0.00062310455
0.86597938 	0.001556457 	0.00079850464 	6.385153e-08 	0.0022245553 	-3.4794529e-07 	0.0013005471
0.87628866 	0.0015913885 	0.00081576478 	3.0707028e-08 	0.0022151574 	-9.5976973e-08 	0.00073868309
0.88659794 	0.0016326606 	0.0008351359 	5.6977889e-08 	0.0022112855 	-1.2685695e-07 	0.00025624255
0.89690722 	0.0016814535 	0.00085769744 	9.8208396e-09 	0.0022166561 	-1.4036382e-08 	0.0010975012
0.90721649 	0.001740868 	0.00088359864 	1.2760037e-07 	0.0022288021 	-7.7200972e-08 	0.0012742782
0.91752577 	0.0018119852 	0.0009135441 	8.9882431e-08 	0.0022496759 	4.7198183e-09 	0.0012826562
0.92783505 	0.0018963529 	0.00094819658 	1.500203e-08 	0.0022811772 	7.3183752e-09 	0.0012944175
0.93814433 	0.0019946368 	0.00098772408 	5.4573605e-09 	0.0023238945 	4.0991968e-09 	0.0013079447
0.94845361 	0.0021024295 	0.0010301641 	7.6522243e-08 	0.0023747136 	6.1691057e-08 	0.0013193726
0.95876289 	0.00220839 	0.0010704521 	1.109329e-08 	0.0024234678 	8.530321e-09 	0.0013163759
0.96907216 	0.0022900589 	0.0010969021 	4.9649523e-09 	0.0024415057 	-7.5900332e-08 	0.0013110647
0.97938144 	0.0022635982 	0.0010697117 	-1.7526027e-08 	0.002341485 	-6.8530668e-08 	0.00053364098
0.98969072 	0.0015070304 	0.0007041611 	-2.4384523e-10 	0.0015161849 	-6.5041892e-10 	0.00083886785
