0 	0.0084078313 	-5.7105897e-16 	-2.0358835e-21 	4.1149646e-18 	1.7966324e-19 	7.8442663e-21
0.010869565 	0.0084227213 	-0.00051201349 	1.714096e-07 	0.0093643973 	-2.2275704e-05 	0.0041337434
0.02173913 	0.0084727028 	-0.00097235142 	1.1139792e-07 	0.0094097041 	-1.788683e-05 	0.0045620372
0.032608696 	0.008546818 	-0.001424306 	3.8212957e-08 	0.009472967 	-4.9170914e-06 	0.0049866832
0.043478261 	0.0086420547 	-0.0018626805 	1.1135873e-07 	0.0095518804 	-7.3974208e-06 	0.0054244812
0.054347826 	0.0087555886 	-0.0022874859 	3.7998627e-07 	0.0096394222 	-7.8188692e-07 	0.0032688926
0.065217391 	0.0088908336 	-0.0027226705 	9.4007177e-07 	0.0097453746 	-2.0374393e-06 	0.00081214786
0.076086957 	0.0090109078 	-0.0030665164 	6.5283367e-07 	0.0098432715 	-1.2173181e-06 	0.0032882145
0.086956522 	0.009143645 	-0.0034141814 	2.8611738e-07 	0.009946978 	-3.8629195e-06 	0.0071455451
0.097826087 	0.0092783124 	-0.0037364492 	3.0122634e-07 	0.010037078 	-8.1215643e-07 	0.0062024849
0.10869565 	0.0094037245 	-0.0040195849 	1.6832003e-06 	0.010108231 	-2.8813636e-06 	0.00012438098
0.11956522 	0.0095119012 	-0.0042594893 	2.4967622e-07 	0.010184145 	-9.8693617e-07 	0.0073591831
0.13043478 	0.0096107955 	-0.0044497039 	7.1580534e-07 	0.010208963 	-1.7886531e-06 	0.0055874507
0.14130435 	0.0096839384 	-0.0046025914 	1.3835928e-06 	0.01021309 	-2.5503739e-06 	0.0026383228
0.15217391 	0.0097379083 	-0.0047314213 	1.9929675e-07 	0.0102236 	-1.472882e-06 	0.0090384015
0.16304348 	0.0097379434 	-0.0048212717 	1.9906986e-06 	0.010181149 	-3.2151491e-06 	0.00010256426
0.17391304 	0.0097276991 	-0.0049037 	2.4770081e-07 	0.010169962 	-1.7804303e-06 	0.0098670136
0.18478261 	0.0096615068 	-0.0049254143 	1.7716553e-06 	0.010035406 	-2.8744992e-06 	0.0008903198
0.19565217 	0.0095969685 	-0.0049498834 	2.4660004e-07 	0.0099403418 	-1.4602052e-06 	0.009640308
0.20652174 	0.0094551972 	-0.0049123891 	1.6061829e-06 	0.0097187018 	-2.4521103e-06 	0.0003071257
0.2173913 	0.0093272218 	-0.004886456 	2.1358536e-07 	0.0095505748 	-9.1157827e-07 	0.0089041458
0.22826087 	0.0090975995 	-0.0048022035 	1.1355416e-06 	0.0092578098 	-1.6887117e-06 	0.0015692043
0.23913043 	0.0088786684 	-0.0047262123 	4.1140434e-07 	0.009002769 	-5.7639495e-07 	0.0062168174
0.25 	0.0085797217 	-0.0045998608 	5.0548799e-07 	0.0086559718 	-6.1017784e-07 	0.0042330751
0.26086957 	0.0082482144 	-0.0044528951 	5.6405638e-07 	0.0082799036 	-4.5374794e-07 	0.0028981387
0.27173913 	0.0079038978 	-0.0042973623 	6.1396496e-07 	0.0079032086 	-7.2016447e-07 	0.0068377181
0.2826087 	0.0074382418 	-0.0040615261 	3.7656334e-07 	0.0073868051 	-1.6620755e-07 	0.00055447146
0.29347826 	0.0070126282 	-0.0038508168 	8.6471394e-08 	0.0069329579 	5.3557938e-07 	0.0045683461
0.30434783 	0.0064957916 	-0.0035790007 	-2.8484074e-08 	0.0063923077 	6.7466425e-07 	0.0041611919
0.31521739 	0.0059161313 	-0.0032645039 	-1.5392495e-07 	0.0057938368 	6.3009258e-07 	0.00068647156
0.32608696 	0.0053782446 	-0.0029749862 	1.3823509e-06 	0.0052511606 	-1.8768854e-06 	0.0039630859
0.33695652 	0.0047624614 	-0.0026175082 	-2.1066473e-07 	0.0046352598 	7.6422583e-07 	0.0026661473
0.34782609 	0.0041300125 	-0.0022407019 	-5.0135862e-07 	0.0040069419 	9.8306611e-07 	0.00057256367
0.35869565 	0.0035478864 	-0.0018950001 	2.3205132e-06 	0.0034360388 	-3.5802357e-06 	0.0023919696
0.36956522 	0.0030169394 	-0.0015701796 	-1.2807477e-07 	0.0029164245 	3.9161531e-07 	0.0018750194
0.38043478 	0.0025274483 	-0.0012641993 	-5.6413209e-07 	0.0024382543 	9.4039217e-07 	0.00014902077
0.39130435 	0.0020757551 	-0.00098333519 	-2.0637493e-10 	0.0020019607 	4.6980455e-08 	0.0012105908
0.40217391 	0.0017538779 	-0.00077084123 	1.1707926e-06 	0.0016922871 	-1.7407053e-06 	0.001215026
0.41304348 	0.0015408606 	-0.00061578265 	-2.4785546e-07 	0.0014888221 	3.6655782e-07 	0.00024736701
0.42391304 	0.0013548859 	-0.00047844752 	-9.7507849e-08 	0.001313891 	1.4750087e-07 	0.00049579091
0.43478261 	0.0012195836 	-0.00036358426 	3.1163677e-06 	0.0011863121 	-3.638472e-06 	0.00074547672
0.44565217 	0.0011372548 	-0.00027061012 	-1.9033073e-08 	0.0011073687 	9.073428e-09 	0.00054102469
0.45652174 	0.0011045646 	-0.00019887533 	-9.193512e-08 	0.0010744181 	5.4167656e-08 	9.6261193e-05
0.4673913 	0.0010739109 	-0.00013227034 	1.3946229e-08 	0.001045295 	2.9491137e-09 	0.00063038842
0.47826087 	0.0010665499 	-7.6487957e-05 	1.2839133e-06 	0.0010369609 	-7.0475313e-07 	0.00063919813
0.48913043 	0.0010701305 	-2.5624626e-05 	-4.5995824e-09 	0.0010383066 	-1.9800992e-08 	0.00037709604
0.5 	0.0010851009 	1.9670213e-05 	-2.0831697e-08 	0.0010503775 	-3.2231857e-08 	0.00018091762
0.51086957 	0.0011006307 	6.3366193e-05 	3.0008126e-07 	0.001064594 	-7.2727653e-09 	0.00065179758
0.52173913 	0.0011209328 	0.00010304149 	6.9996091e-07 	0.0010843078 	-4.0710722e-08 	0.00064580418
0.5326087 	0.0011442555 	0.00014031644 	5.6736604e-09 	0.0011075477 	-2.6589905e-08 	0.00031519237
0.54347826 	0.0011702518 	0.00017639552 	4.2365353e-09 	0.0011349209 	-2.8953542e-08 	0.00030243334
0.55434783 	0.0011980636 	0.00021264905 	6.0562324e-07 	0.0011642792 	1.4859792e-07 	0.00068391222
0.56521739 	0.001227816 	0.00024809362 	1.9766699e-07 	0.0011940237 	5.9147342e-08 	0.00067893709
0.57608696 	0.0012605293 	0.00028258909 	8.0191611e-09 	0.0012244934 	-4.6511247e-08 	0.00010044025
0.58695652 	0.0012947673 	0.00031833631 	1.4170323e-08 	0.0012583867 	6.929208e-09 	0.00065976545
0.59782609 	0.0013316318 	0.00035455205 	7.5739049e-07 	0.001294767 	3.3718694e-07 	0.00072988623
0.60869565 	0.0013700453 	0.00039098903 	1.4993977e-08 	0.0013323846 	-1.0733746e-08 	0.00040498146
0.61956522 	0.0014111146 	0.00042870987 	1.303318e-08 	0.0013738492 	-1.6005827e-08 	0.00044558588
0.63043478 	0.0014560489 	0.00046803262 	8.8925607e-07 	0.0014189934 	5.9789346e-07 	0.00079044057
0.64130435 	0.0015039354 	0.00050791002 	1.3762345e-08 	0.0014653893 	-7.140902e-10 	0.00060810739
0.65217391 	0.001557115 	0.00054955598 	1.5697894e-08 	0.0015159681 	-1.2482543e-08 	0.00037615267
0.66304348 	0.0016149394 	0.00059402271 	8.759893e-07 	0.0015734179 	8.2203751e-07 	0.00086780875
0.67391304 	0.0016766865 	0.00063990388 	1.2583471e-08 	0.0016345733 	-1.8301951e-09 	0.0006504942
0.68478261 	0.0017451011 	0.00068898114 	1.4655946e-08 	0.0017040094 	-3.1290055e-09 	0.00053643528
0.69565217 	0.0018211409 	0.00074152434 	1.0741697e-06 	0.0017815656 	1.3032899e-06 	0.00096294649
0.70652174 	0.0019039275 	0.0007959719 	2.5561512e-08 	0.0018633946 	1.6835427e-08 	0.0004364961
0.7173913 	0.0019955985 	0.00085484183 	2.0468707e-09 	0.0019556707 	-2.0823102e-08 	0.0010615694
0.72826087 	0.002101538 	0.00092216082 	4.8670584e-07 	0.002057973 	6.2669356e-07 	0.0010840509
0.73913043 	0.0022199468 	0.00099626225 	4.3707474e-08 	0.002168504 	6.7780578e-08 	0.0002238647
0.75 	0.0023542946 	0.0010752134 	1.3002309e-06 	0.0023002331 	2.2396426e-06 	0.0012416103
0.76086957 	0.0025028859 	0.0011512932 	3.6922685e-08 	0.0024479774 	7.0814747e-08 	0.00054477872
0.77173913 	0.0026722946 	0.0012311043 	4.2041207e-07 	0.0026231799 	8.927941e-07 	0.0014382809
0.7826087 	0.0028673594 	0.0013220888 	1.1541804e-08 	0.0028202765 	4.6933462e-09 	0.0012378199
0.79347826 	0.0030934093 	0.0014273788 	7.5346552e-09 	0.0030473866 	-4.5007767e-09 	0.0015175396
0.80434783 	0.003345172 	0.0015442405 	1.6311499e-07 	0.0032980532 	3.2667265e-07 	0.0016916945
0.81521739 	0.0036265031 	0.001674344 	2.0126009e-08 	0.003575553 	2.4931308e-08 	0.0015997267
0.82608696 	0.0039206205 	0.0018110045 	9.4891723e-08 	0.0038688955 	1.8064617e-07 	0.0019903506
0.83695652 	0.0042255355 	0.001953182 	-7.0959273e-10 	0.0041757953 	-2.2858424e-08 	0.0022432353
0.84782609 	0.004518281 	0.0020896577 	1.639812e-08 	0.0044704662 	2.0780422e-08 	0.0016626853
0.85869565 	0.0047944778 	0.0022194891 	8.3050791e-07 	0.0047532055 	1.8015732e-06 	0.0025532591
0.86956522 	0.0050304971 	0.0023297655 	3.4342726e-09 	0.0049920453 	1.2138307e-08 	0.00023373757
0.88043478 	0.0052280133 	0.002424855 	4.829082e-07 	0.0052039638 	1.0737105e-06 	0.002743574
0.89130435 	0.0053622528 	0.0024899196 	-3.4903298e-09 	0.005349776 	-1.4568924e-08 	0.0027681038
0.90217391 	0.0054185306 	0.00251809 	-9.7762423e-08 	0.0054144771 	-2.0729193e-07 	0.00072683299
0.91304348 	0.0054013437 	0.0025141577 	-2.3289753e-07 	0.0054144194 	-4.7120693e-07 	0.0028614455
0.92391304 	0.0052937915 	0.0024671939 	-7.6988623e-07 	0.005319882 	-1.6033259e-06 	0.0027908389
0.93478261 	0.0050986435 	0.0023793085 	-7.9075413e-08 	0.0051374749 	-1.6323463e-07 	0.0026655242
0.94565217 	0.0047928425 	0.0022390742 	-1.3716208e-06 	0.0048400829 	-2.9320694e-06 	0.0025371303
0.95652174 	0.0044069644 	0.0020589261 	-1.3062153e-07 	0.0044505168 	-2.8563704e-07 	0.00051595197
0.9673913 	0.0039106392 	0.0018269263 	-1.6064184e-07 	0.0039489007 	-3.4764749e-07 	0.0021014214
0.97826087 	0.0032125247 	0.0014976995 	-5.6765235e-08 	0.0032316897 	-1.2601508e-07 	0.00038425007
0.98913043 	0.0015718354 	0.00072722751 	-1.9996606e-08 	0.0015488599 	-4.1892545e-08 	0.00013686485
