0 	0.012236008 	-8.3098056e-16 	-3.0227753e-22 	3.2925027e-18 	-2.6666032e-22 	3.3918128e-18
0.010869565 	0.012260339 	-0.00096463441 	-1.0465715e-06 	0.01485061 	-6.4159323e-05 	0.0035729756
0.02173913 	0.012385452 	-0.002299656 	-9.5101274e-07 	0.014941082 	-3.7690486e-05 	0.0045883714
0.032608696 	0.01259227 	-0.0036696134 	-7.6678329e-08 	0.01504114 	-8.5041887e-06 	0.0055824899
0.043478261 	0.012863733 	-0.0049160567 	1.1299193e-06 	0.015115866 	-3.0828458e-05 	0.0065747434
0.054347826 	0.013148879 	-0.0058555529 	4.0833659e-06 	0.015156575 	-4.3831777e-06 	0.0021560444
0.065217391 	0.013404022 	-0.0064230511 	3.1934052e-06 	0.015168582 	-3.7955918e-06 	0.0032600106
0.076086957 	0.013562562 	-0.0067148408 	2.9951292e-06 	0.015169833 	-4.6760987e-06 	0.0028261477
0.086956522 	0.01366221 	-0.0069214104 	6.9085703e-07 	0.015186389 	-8.5125037e-07 	0.010139301
0.097826087 	0.013685755 	-0.0070239071 	1.3068532e-06 	0.01514858 	-7.0761982e-07 	0.010850688
0.10869565 	0.013670498 	-0.0070736581 	2.2753944e-06 	0.015007645 	-3.7873427e-06 	0.0024435249
0.11956522 	0.013622875 	-0.0071002607 	6.5469858e-07 	0.014846613 	1.768157e-06 	0.008373525
0.13043478 	0.013525378 	-0.0070996727 	2.4838257e-08 	0.014627464 	4.7369484e-06 	0.010294432
0.14130435 	0.013359615 	-0.0070645044 	2.2696549e-06 	0.014322425 	-4.0132401e-06 	0.0012668424
0.15217391 	0.013183293 	-0.0070304271 	-3.2381531e-07 	0.014051736 	6.805126e-06 	0.01343857
0.16304348 	0.012890465 	-0.0069210945 	1.6299212e-06 	0.013615389 	-2.4330528e-06 	0.0021821789
0.17391304 	0.012596978 	-0.0068146043 	-7.3024352e-07 	0.01322044 	5.4690668e-06 	0.010956081
0.18478261 	0.012181756 	-0.0066279189 	7.1948681e-07 	0.012675299 	-1.0498382e-06 	0.0029669033
0.19565217 	0.011762438 	-0.0064399238 	-8.2397429e-07 	0.012159859 	3.1325972e-06 	0.010071171
0.20652174 	0.011201137 	-0.00615657 	1.6922039e-07 	0.011482154 	-7.5661959e-07 	0.0019542641
0.2173913 	0.01066014 	-0.0058873815 	2.2412332e-06 	0.010860262 	-5.5220588e-06 	0.0093238475
0.22826087 	0.0099449558 	-0.0054991697 	-4.8524005e-07 	0.010048145 	4.0704555e-07 	0.00011636878
0.23913043 	0.0092882767 	-0.0051499786 	1.7751873e-06 	0.0093314752 	-5.3501771e-06 	0.0072541623
0.25 	0.0084853595 	-0.0046985787 	-7.0736425e-07 	0.0084732533 	8.7424245e-08 	0.003061844
0.26086957 	0.0076924666 	-0.0042520373 	-3.5364736e-07 	0.0076433494 	-5.4139234e-07 	0.0035625604
0.27173913 	0.0068940699 	-0.0037960032 	1.7053444e-06 	0.0068236016 	-4.4284032e-06 	0.0049925316
0.2826087 	0.0060489736 	-0.0033007074 	-1.0793386e-06 	0.0059680342 	1.2746734e-06 	0.00032653874
0.29347826 	0.0052842533 	-0.0028549905 	5.2381034e-06 	0.005207757 	-9.4927375e-06 	0.0032170979
0.30434783 	0.0045680937 	-0.0024313854 	-1.7928198e-07 	0.0044932631 	-1.5763808e-07 	0.0024548921
0.31521739 	0.0039054982 	-0.0020352458 	-4.8488965e-07 	0.0038350749 	5.5115943e-07 	0.00079168419
0.32608696 	0.0033402037 	-0.0016972693 	8.8681395e-06 	0.0032781578 	-1.502907e-05 	0.0018138563
0.33695652 	0.0028506991 	-0.0014020375 	-1.045045e-07 	0.0027942344 	7.5360777e-08 	0.0012825854
0.34782609 	0.0024504761 	-0.001157612 	-1.7070811e-07 	0.0023999594 	1.7839828e-07 	0.00055873197
0.35869565 	0.0021316786 	-0.00095971625 	6.1268353e-06 	0.0020874713 	-1.0080174e-05 	0.0010134124
0.36956522 	0.0018528936 	-0.00078362599 	-1.4359271e-08 	0.0018131694 	4.299323e-08 	0.00093147736
0.38043478 	0.001661785 	-0.00065454696 	-5.0214578e-08 	0.0016244295 	5.1613941e-09 	0.00024914337
0.39130435 	0.0015130209 	-0.00054724604 	2.6985024e-06 	0.0014780151 	-3.9778564e-06 	0.00063345043
0.40217391 	0.0013923814 	-0.00045234219 	1.6472244e-06 	0.0013573813 	-2.4257402e-06 	0.00061072123
0.41304348 	0.0013062035 	-0.00037175471 	1.2280283e-08 	0.0012687595 	-5.6876129e-08 	6.2269966e-05
0.42391304 	0.0012511326 	-0.00030694153 	5.7946723e-07 	0.0012121307 	-5.956856e-07 	0.00048014384
0.43478261 	0.001220137 	-0.00024918917 	2.6660759e-06 	0.0011778819 	-2.6995087e-06 	0.00046445622
0.44565217 	0.0011891414 	-0.00019143681 	3.3096131e-08 	0.001143633 	-4.3968756e-08 	0.0004487686
0.45652174 	0.0011864556 	-0.00014224963 	1.3323168e-08 	0.0011366885 	-3.6052073e-08 	0.00019642288
0.4673913 	0.0011915967 	-9.8348398e-05 	1.2725097e-06 	0.0011385852 	-6.1945746e-07 	0.00041730943
0.47826087 	0.0012011576 	-5.5911226e-05 	1.6531795e-06 	0.0011443968 	-7.9767862e-07 	0.0004049504
0.48913043 	0.0012116772 	-1.3772426e-05 	-3.535656e-09 	0.0011510916 	-1.8464847e-08 	0.00034186471
0.5 	0.001232488 	2.47547e-05 	1.7144402e-09 	0.0011684164 	-2.8068678e-08 	0.00029342693
0.51086957 	0.0012557548 	6.0013937e-05 	1.2602768e-06 	0.0011885118 	-2.1193157e-07 	0.0003950653
0.52173913 	0.0012795968 	9.4677748e-05 	1.1534873e-06 	0.0012089553 	-1.9551359e-07 	0.00038486679
0.5326087 	0.0013039095 	0.00012884265 	1.8016578e-09 	0.0012297447 	-2.3962969e-08 	0.00027696296
0.54347826 	0.001331441 	0.00016105752 	5.7619381e-08 	0.001254581 	-2.4318951e-08 	0.00039310094
0.55434783 	0.0013601087 	0.00019251815 	1.322624e-06 	0.0012807724 	2.4486574e-08 	0.0003846978
0.56521739 	0.0013887764 	0.00022397879 	6.1523573e-07 	0.0013069639 	-1.9109125e-09 	0.00037629466
0.57608696 	0.0014177455 	0.00025480952 	3.2747278e-08 	0.0013331699 	-1.9866269e-08 	2.6125361e-05
0.58695652 	0.0014487302 	0.00028675415 	6.0292878e-07 	0.0013632097 	7.9981939e-08 	0.00038688493
0.59782609 	0.0014803686 	0.0003187916 	1.0751803e-06 	0.0013930599 	1.6160886e-07 	0.00038002596
0.60869565 	0.0015120336 	0.00035083313 	-8.7790697e-09 	0.0014229025 	-2.4164092e-08 	0.00035535743
0.61956522 	0.0015460992 	0.000384571 	2.3302705e-07 	0.001455547 	6.0845919e-08 	0.00039300358
0.63043478 	0.001582364 	0.00041994521 	1.3909169e-06 	0.001491058 	4.634865e-07 	0.00038744903
0.64130435 	0.0016186288 	0.00045531942 	2.0104319e-07 	0.001526569 	5.0311955e-08 	0.00038189448
0.65217391 	0.0016579472 	0.00049293583 	1.1078375e-07 	0.0015660041 	4.4319949e-08 	0.00040441744
0.66304348 	0.0017029104 	0.00053404842 	1.5639055e-06 	0.0016101295 	8.399348e-07 	0.00039995239
0.67391304 	0.0017478737 	0.000575161 	2.0726253e-07 	0.0016542549 	9.7501781e-08 	0.00039548733
0.68478261 	0.0017995511 	0.00062038521 	3.0079155e-07 	0.0017045344 	2.2469834e-07 	0.000424557
0.69565217 	0.0018584202 	0.00067037653 	1.5712534e-06 	0.0017632689 	1.2261682e-06 	0.00042097416
0.70652174 	0.0019177575 	0.00072058023 	6.0507582e-10 	0.0018224169 	-1.1684721e-08 	0.00033363194
0.7173913 	0.0019905508 	0.00077794171 	9.523608e-07 	0.0018970872 	1.0173162e-06 	0.00045443342
0.72826087 	0.0020691743 	0.00083733753 	1.0580814e-06 	0.0019771425 	1.131235e-06 	0.00045158041
0.73913043 	0.0021536337 	0.00089853219 	7.3161733e-09 	0.0020624921 	-1.0527693e-10 	0.00034253926
0.75 	0.0022593342 	0.00097071518 	2.3692175e-06 	0.0021663783 	2.9436986e-06 	0.00049712453
0.76086957 	0.0023669508 	0.0010437535 	4.2382633e-10 	0.0022712236 	-1.1066506e-09 	0.00039391733
0.77173913 	0.0025006879 	0.0011243638 	1.5173352e-06 	0.0024037867 	2.5983435e-06 	0.00055649982
0.7826087 	0.0026421029 	0.0012039663 	5.4395689e-07 	0.0025470023 	9.3070671e-07 	0.00055475507
0.79347826 	0.0028084227 	0.0012855519 	1.0136681e-06 	0.0027205188 	2.2405294e-06 	0.0006304797
0.80434783 	0.0029971808 	0.0013749366 	9.3723489e-07 	0.0029163349 	2.0716591e-06 	0.00062920331
0.81521739 	0.003214321 	0.0014770713 	1.041025e-06 	0.0031376963 	2.2427302e-06 	0.00072625377
0.82608696 	0.0034590083 	0.0015914995 	1.1008601e-06 	0.0033835984 	2.3716339e-06 	0.00072537364
0.83695652 	0.003729163 	0.0017175068 	1.5489545e-06 	0.0036538121 	3.3357355e-06 	0.00083740962
0.84782609 	0.0040162445 	0.0018513372 	5.0943367e-07 	0.0039414365 	1.0969984e-06 	0.00083687489
0.85869565 	0.0043232783 	0.0019945608 	2.6999509e-06 	0.0042510833 	5.8583929e-06 	0.00095370906
0.86956522 	0.0046354918 	0.0021396136 	8.4711339e-08 	0.0045639277 	1.9533249e-07 	2.7650215e-05
0.88043478 	0.0049548403 	0.0022890152 	2.1661801e-06 	0.0048889527 	4.719933e-06 	0.0010687335
0.89130435 	0.005260567 	0.0024321228 	1.1272462e-06 	0.0052004763 	2.4800473e-06 	0.0011725615
0.90217391 	0.0055395284 	0.0025630971 	2.9140432e-08 	0.0054860694 	7.2341446e-08 	0.00052868029
0.91304348 	0.0057451676 	0.0026619204 	8.1041343e-07 	0.0057056858 	1.838264e-06 	0.0012511141
0.92391304 	0.0058564656 	0.002717692 	-1.2676339e-07 	0.0058342785 	-8.6111471e-08 	0.0012888411
0.93478261 	0.0058447596 	0.0027175766 	-6.3221531e-07 	0.0058458576 	-1.2471643e-06 	0.0012761847
0.94565217 	0.0056398671 	0.0026287089 	-1.9398385e-06 	0.0056691078 	-4.0161817e-06 	0.0012383185
0.95652174 	0.0052343449 	0.0024449624 	-7.0688017e-08 	0.0052843456 	-1.464538e-07 	0.0004240019
0.9673913 	0.0045734113 	0.0021404892 	-1.3952608e-06 	0.0046360808 	-2.9924792e-06 	0.0010234646
0.97826087 	0.0036036131 	0.0016868501 	-4.1000068e-08 	0.0036568218 	-9.1361529e-08 	0.00032975713
0.98913043 	0.0016765687 	0.00076149105 	-4.3675489e-09 	0.0016544993 	-1.5682494e-08 	0.00018548167
