0.29896907 	2.4724592e-05 	-2.671575e-06 	-2.7603679e-09 	2.2293543e-05 	7.9963235e-09 	2.2057401e-05
0.30927835 	0.0019532607 	-0.00069528482 	-2.7201955e-06 	0.0014306459 	9.3144106e-06 	0.00091673949
0.31958763 	0.0015034396 	6.8262096e-05 	-2.8917294e-06 	0.0022881041 	-2.0868406e-06 	1.2780117e-05
0.32989691 	0.0014779858 	0.00011500161 	-2.4119056e-05 	0.0023973879 	0.00016027261 	0.00050536227
0.34020619 	0.0014522715 	8.2503727e-05 	8.3979054e-06 	0.0023901976 	-4.8504119e-05 	0.00018854554
0.35051546 	0.0014053846 	9.4105669e-05 	-2.2676585e-07 	0.0024213113 	-9.1992688e-06 	0.0001969153
0.36082474 	0.0013729379 	0.00010519713 	-7.8760894e-07 	0.002430235 	2.6055989e-06 	7.2387009e-05
0.37113402 	0.0013602004 	0.00011225347 	-8.460714e-08 	0.0024218559 	2.3536562e-06 	5.6804348e-05
0.3814433 	0.0013482585 	0.00011636822 	1.2850092e-06 	0.0024267289 	-4.6969547e-06 	0.00017431969
0.39175258 	0.0013404993 	0.0001226695 	3.4793465e-07 	0.0024313969 	-8.7699503e-07 	1.8432475e-05
0.40206186 	0.0013365163 	0.00013185682 	6.640827e-07 	0.0024438472 	-7.4444604e-06 	0.00039648136
0.41237113 	0.0013338559 	0.0001409273 	-4.9520254e-07 	0.0024579119 	-1.0010057e-06 	0.00050606958
0.42268041 	0.0013326089 	0.00015029194 	-1.3270285e-07 	0.0024734417 	9.8904518e-07 	0.00052246836
0.43298969 	0.0013323003 	0.0001600605 	4.4402804e-07 	0.0024891107 	-3.7576475e-07 	0.00019791245
0.44329897 	0.0013333896 	0.00017335168 	9.0926704e-08 	0.0025107294 	2.6548234e-07 	0.00082023498
0.45360825 	0.0013343184 	0.00018767359 	6.1075678e-07 	0.0025266735 	-8.4610201e-07 	0.00036168221
0.46391753 	0.001336277 	0.00020527852 	4.6452218e-07 	0.0025463456 	-5.9525433e-07 	0.00062641048
0.4742268 	0.0013385864 	0.00022542481 	4.8089004e-07 	0.0025638918 	-6.6680129e-07 	0.00068519937
0.48453608 	0.0013415645 	0.00024637007 	8.0762756e-07 	0.0025789171 	-1.0555094e-06 	0.00043373211
0.49484536 	0.0013450475 	0.00026953297 	3.497922e-07 	0.0025961448 	-4.5888782e-07 	0.00081807297
0.50515464 	0.0013489614 	0.00029058885 	6.733154e-07 	0.0026084547 	-8.8225148e-07 	0.00043770419
0.51546392 	0.0013530913 	0.00031260582 	2.9870897e-07 	0.0026235204 	-3.893189e-07 	0.00076913769
0.5257732 	0.0013571791 	0.00033178953 	3.5924573e-07 	0.0026353937 	-4.916684e-07 	0.00063263565
0.53608247 	0.0013611312 	0.00034975458 	4.1237374e-07 	0.0026471343 	-5.6367402e-07 	0.00054260191
0.54639175 	0.0013648714 	0.00036753601 	1.9084707e-08 	0.0026597582 	-8.9700639e-08 	0.00094193101
0.55670103 	0.0013680962 	0.00038153438 	6.4020188e-07 	0.0026668123 	-9.3495081e-07 	0.00014953981
0.56701031 	0.0013712234 	0.00039805862 	9.1204381e-08 	0.0026788951 	-5.7926797e-07 	0.0008839503
0.57731959 	0.0013738703 	0.00041181833 	3.0826798e-07 	0.0026843659 	-4.8728644e-07 	0.0004356243
0.58762887 	0.0013764156 	0.00042675712 	1.3425851e-07 	0.0026917164 	-2.1222055e-07 	0.00065345604
0.59793814 	0.0013784724 	0.00044096002 	8.2518028e-08 	0.0026960931 	-6.2570831e-07 	0.00080539575
0.60824742 	0.0013803698 	0.00045423632 	4.3423745e-07 	0.0026959739 	-7.6363484e-07 	0.00010470311
0.6185567 	0.0013821193 	0.000469371 	3.2403231e-08 	0.0026995544 	-3.036666e-07 	0.00077893466
0.62886598 	0.0013832457 	0.00048247109 	5.608606e-08 	0.0026977782 	-5.2562648e-07 	0.00075747712
0.63917526 	0.0013843558 	0.00049514693 	3.8491172e-07 	0.0026921851 	-7.7994758e-07 	9.4744397e-06
0.64948454 	0.0013852194 	0.00050972779 	5.7444918e-08 	0.0026898775 	-6.5452506e-07 	0.00074836579
0.65979381 	0.0013856827 	0.00052234882 	4.01746e-08 	0.0026826781 	-4.5774915e-07 	0.00073683925
0.67010309 	0.0013863338 	0.00053484753 	2.5212388e-07 	0.0026717454 	-6.0859191e-07 	0.00011940852
0.68041237 	0.0013866651 	0.00054883841 	8.4989578e-08 	0.0026621434 	-1.0943539e-06 	0.0007425016
0.69072165 	0.0013868483 	0.00056137519 	2.8232106e-09 	0.0026488979 	-8.4382493e-09 	0.00073050607
0.70103093 	0.001387492 	0.00057458648 	7.8440787e-08 	0.002632299 	-2.3441438e-07 	0.00049396511
0.71134021 	0.0013878201 	0.0005874165 	9.1336849e-08 	0.0026146497 	-1.3730825e-06 	0.00075905298
0.72164948 	0.0013886355 	0.00059967717 	1.2029346e-07 	0.002593165 	-4.6825706e-07 	0.00019794744
0.73195876 	0.0013894421 	0.00061294675 	4.5680412e-08 	0.0025722228 	-7.647841e-07 	0.00078440627
0.74226804 	0.0013907933 	0.00062519083 	9.3397556e-09 	0.0025478899 	-4.9090278e-08 	0.00072791133
0.75257732 	0.0013929884 	0.0006381964 	1.1810605e-08 	0.002521276 	-6.2077321e-08 	0.00073085629
0.7628866 	0.0013965738 	0.00065106769 	3.1679349e-08 	0.0024930198 	-4.8917085e-07 	0.00083124668
0.77319588 	0.0014019181 	0.00066469377 	3.7092206e-08 	0.0024614571 	-2.5901079e-07 	0.00044905275
0.78350515 	0.0014089623 	0.00067876059 	5.628473e-08 	0.0024307774 	-7.188579e-07 	0.00087400279
0.79381443 	0.0014188659 	0.00069338492 	2.9093844e-08 	0.0023964011 	-2.8341652e-07 	0.00037246314
0.80412371 	0.0014306549 	0.00070835783 	4.768755e-08 	0.0023649826 	-5.4078233e-07 	0.00092372561
0.81443299 	0.0014454551 	0.00072330342 	7.5006904e-09 	0.0023318827 	-1.7034307e-07 	0.00053980813
0.82474227 	0.0014621706 	0.00073821147 	2.7338387e-09 	0.0023035313 	-2.9158336e-08 	0.00098052232
0.83505155 	0.0014816197 	0.00075295371 	-2.1997048e-10 	0.0022766723 	-6.2127463e-09 	0.00099615495
0.84536082 	0.0015046606 	0.0007676976 	-1.1581809e-08 	0.0022534686 	-1.1411115e-07 	0.00042714572
0.8556701 	0.0015300513 	0.00078317742 	8.3581367e-08 	0.0022367548 	-5.437338e-07 	0.0010877805
0.86597938 	0.0015604368 	0.00079936663 	-7.6305309e-09 	0.0022218018 	-6.5136694e-08 	0.00055560031
0.87628866 	0.0015959861 	0.00081725331 	-1.5209883e-09 	0.0022135542 	-3.2263003e-08 	0.0006068357
0.88659794 	0.0016373211 	0.00083716581 	8.2859063e-08 	0.0022120912 	-1.8069329e-07 	0.0012220539
0.89690722 	0.0016870129 	0.00085951242 	1.4474214e-09 	0.0022153332 	-1.5126906e-09 	0.0011375873
0.90721649 	0.0017480146 	0.00088542851 	2.2254455e-08 	0.0022252507 	2.8616602e-08 	0.00033540863
0.91752577 	0.0018203734 	0.00091574112 	3.4208337e-08 	0.0022464789 	6.3986401e-08 	0.00032004352
0.92783505 	0.0019065005 	0.00095127256 	2.5101082e-08 	0.002280377 	5.2990668e-08 	0.00078738155
0.93814433 	0.0020070445 	0.00099195188 	1.7097208e-08 	0.0023265654 	3.7506548e-08 	0.0010603319
0.94845361 	0.0021144758 	0.0010347526 	1.2468376e-08 	0.0023810932 	2.7437279e-08 	0.0010764802
0.95876289 	0.0022309031 	0.0010799466 	1.1390408e-09 	0.0024410527 	1.8021233e-09 	0.00095429356
0.96907216 	0.0023140472 	0.0011077687 	-6.1064007e-08 	0.0024644566 	-1.4505876e-07 	0.00040271504
0.97938144 	0.0022577236 	0.0010689393 	-1.0067033e-07 	0.0023448084 	-2.48776e-07 	0.001866264
0.98969072 	0.0013939829 	0.00065123689 	-1.3825232e-07 	0.0014034717 	-3.1476608e-07 	0.00010764341
