0.47777778 	0.62442299 	0.00025075271 	-4.1478715e-08
0.48888889 	0.98609013 	0.00021317801 	-5.7237059e-08
0.5 	1.1423894 	0.00029086967 	-1.0534639e-06
0.51111111 	1.2444895 	0.00045649562 	-3.3265109e-06
0.52222222 	1.3205881 	0.00071085178 	-3.1301951e-06
0.53333333 	1.379375 	0.00087379241 	-1.4982003e-05
0.54444444 	1.4212625 	0.00086502247 	-2.1181513e-05
0.55555556 	1.447821 	0.0012424498 	-2.1271222e-05
0.56666667 	1.4643713 	0.0012430145 	-2.4686117e-05
0.57777778 	1.4737553 	0.0011128098 	-3.4055958e-05
0.58888889 	1.47807 	0.0011658683 	-4.5851323e-05
0.6 	1.4794949 	0.0011055137 	-4.7244263e-05
0.61111111 	1.4793673 	0.0010659939 	-2.4018331e-05
0.62222222 	1.4783929 	0.0010219077 	-4.736193e-06
0.63333333 	1.4768815 	0.00097324726 	-3.7489193e-05
0.64444444 	1.4748195 	0.00091660009 	-3.8122312e-05
0.65555556 	1.472264 	0.00085380878 	-2.2052935e-06
0.66666667 	1.4695862 	0.00079421884 	-3.4201047e-05
0.67777778 	1.466457 	0.00073019734 	-1.9341259e-05
0.68888889 	1.4630848 	0.00066099378 	-1.4598589e-05
0.7 	1.4595798 	0.00058939162 	-2.38152e-05
0.71111111 	1.4556003 	0.00052717974 	-5.9066199e-06
0.72222222 	1.4516855 	0.00047222654 	-2.0576942e-05
0.73333333 	1.4472882 	0.00038196507 	-3.9421747e-06
0.74444444 	1.4428096 	0.00028725464 	-1.6605417e-05
0.75555556 	1.4380365 	0.00022566704 	-2.8997322e-06
0.76666667 	1.4329397 	0.0001702516 	-1.4564881e-05
0.77777778 	1.4274487 	0.00012314776 	-3.2074641e-07
0.78888889 	1.421494 	6.8227726e-05 	-1.2986174e-05
0.8 	1.4149076 	-3.3926963e-05 	-5.0308142e-06
0.81111111 	1.4077927 	-0.00011746565 	-6.0078988e-06
0.82222222 	1.4000921 	-0.0001775781 	-1.0687459e-05
0.83333333 	1.3916709 	-0.00023878065 	-2.5493907e-06
0.84444444 	1.3823674 	-0.00029612858 	-4.0538141e-06
0.85555556 	1.3720128 	-0.00034616655 	-7.9209458e-06
0.86666667 	1.3600775 	-0.00038428401 	-5.5719597e-06
0.87777778 	1.3459636 	-0.00040877092 	-2.2230222e-06
0.88888889 	1.3290452 	-0.00041858306 	-4.6999127e-07
0.9 	1.3082807 	-0.00041065655 	2.5490725e-08
0.91111111 	1.2824367 	-0.0003821007 	6.7852614e-08
0.92222222 	1.2501419 	-0.00033213331 	-1.2025197e-07
0.93333333 	1.2099499 	-0.00026524166 	-4.6403679e-07
0.94444444 	1.1601065 	-0.00019202643 	-3.7539092e-07
0.95555556 	1.0971271 	-0.00012883582 	-5.2538511e-08
0.96666667 	1.0150207 	-5.4240131e-05 	1.3648123e-08
0.97777778 	0.89548386 	-6.2495348e-05 	3.5545226e-08
0.98888889 	0.66077139 	-0.00017695899 	5.5820539e-09
