0.47777778 	0.0030152747 	-0.0014004787 	1.0934526e-07 	0.0030019998 	-2.1084296e-07 	4.3826923e-05
0.48888889 	0.0054692116 	-0.0025443566 	1.7580296e-08 	0.0054743317 	-1.4439766e-08 	0.0025779697
0.5 	0.0053299136 	-0.0024788778 	-2.5223245e-08 	0.0053317052 	5.0133335e-08 	0.0025686809
0.51111111 	0.0047877278 	-0.0022258039 	-5.947241e-08 	0.0047842639 	8.3559698e-08 	0.0027773137
0.52222222 	0.0040644384 	-0.0018880519 	-1.6773771e-07 	0.0040535814 	3.6367725e-07 	0.0011001156
0.53333333 	0.0032742406 	-0.0015224655 	-1.5433571e-08 	0.0032737988 	-8.9347713e-08 	0.0027858984
0.54444444 	0.0025311271 	-0.001176649 	-5.6903208e-08 	0.0025276696 	1.0493465e-08 	0.0019663818
0.55555556 	0.001974283 	-0.00089757279 	-1.2066841e-07 	0.0019582011 	1.3373329e-07 	0.0011544382
0.56666667 	0.0015871443 	-0.00063192068 	-1.1848877e-07 	0.0015900083 	7.7335943e-08 	0.00085453937
0.57777778 	0.0013562625 	-0.00042709306 	-7.0954311e-08 	0.0013670969 	-3.3688652e-08 	0.00084741083
0.58888889 	0.0012440305 	-0.00026652401 	-3.1027719e-08 	0.0012515368 	-1.0020719e-07 	0.0010348424
0.6 	0.0012074182 	-0.0001318702 	-2.7938099e-08 	0.0012247143 	-3.7258234e-08 	0.0010438156
0.61111111 	0.0012139001 	-1.4230306e-05 	-4.5124397e-08 	0.0012336662 	2.3900467e-09 	0.0005653922
0.62222222 	0.0012372007 	9.0733024e-05 	-1.6473365e-08 	0.0012587471 	-1.2344026e-07 	2.5673652e-05
0.63333333 	0.0012684546 	0.00018213267 	-6.2713848e-09 	0.0012949465 	8.8912861e-08 	0.00076661164
0.64444444 	0.0013058386 	0.00026526286 	-2.1680433e-08 	0.0013357881 	2.6641833e-07 	0.001019624
0.65555556 	0.0013476028 	0.00034217559 	5.2594444e-08 	0.0013766134 	-1.2209665e-07 	0.00012336389
0.66666667 	0.0013881817 	0.00041052021 	-1.0501601e-08 	0.0014205961 	2.8204194e-07 	0.00095152873
0.67777778 	0.0014306276 	0.0004740692 	2.5431717e-09 	0.0014633432 	1.9429389e-07 	0.00076870529
0.68888889 	0.0014734388 	0.00053263953 	5.0255829e-08 	0.0015050662 	4.6631381e-08 	0.00047695932
0.7 	0.0015148739 	0.00058608062 	-5.1665333e-08 	0.0015476875 	3.5335462e-07 	0.0011995843
0.71111111 	0.0015579383 	0.00063651908 	8.9742782e-08 	0.0015875419 	-8.7767304e-08 	0.00022606687
0.72222222 	0.0015977428 	0.00068246446 	-8.2686259e-08 	0.001630507 	3.1208744e-07 	0.0014125867
0.73333333 	0.0016398286 	0.0007234241 	1.0328668e-07 	0.0016666461 	-1.2243054e-07 	0.00020094401
0.74444444 	0.0016804628 	0.00076269542 	-8.6756602e-08 	0.001708613 	1.8394249e-07 	0.0015055662
0.75555556 	0.0017233496 	0.00079443121 	4.9649139e-08 	0.0017429883 	-1.1744771e-07 	0.00018907375
0.76666667 	0.0017673372 	0.00082698291 	-5.440652e-08 	0.0017857176 	1.3840976e-07 	0.0016219155
0.77777778 	0.0018128905 	0.00084746825 	-7.7424623e-10 	0.0018267325 	-1.0376036e-07 	8.2272342e-05
0.78888889 	0.0018609807 	0.00087018868 	-5.5584882e-08 	0.0018778052 	5.1393559e-08 	0.001506222
0.8 	0.0019156059 	0.00089444304 	-7.0034383e-09 	0.0019275584 	-2.2207944e-08 	0.00073581635
0.81111111 	0.0019765657 	0.00092195412 	5.0980341e-09 	0.0019848584 	1.2199142e-08 	0.0007626576
0.82222222 	0.0020442826 	0.00095302112 	-2.7904977e-08 	0.0020504554 	7.8916523e-08 	0.0018510432
0.83333333 	0.0021262294 	0.00098951407 	4.6432405e-08 	0.0021259101 	5.7484426e-08 	0.00054693296
0.84444444 	0.0022220554 	0.0010331832 	5.767774e-08 	0.002218371 	1.0796826e-07 	0.00072577261
0.85555556 	0.0023360996 	0.0010857261 	-3.9260318e-09 	0.0023306783 	8.9007892e-08 	0.0019463192
0.86666667 	0.0024799988 	0.0011514005 	1.881685e-08 	0.0024697132 	1.0306831e-07 	0.001830209
0.87777778 	0.0026597577 	0.0012334448 	9.6350928e-08 	0.0026433322 	1.9679412e-07 	0.0010501289
0.88888889 	0.0028786547 	0.0013338516 	1.7044338e-07 	0.0028567587 	3.1535863e-07 	0.00041388139
0.9 	0.0031412551 	0.0014548517 	2.2016297e-07 	0.0031149596 	4.0742793e-07 	2.0610055e-05
0.91111111 	0.0034463554 	0.0015960391 	2.2591756e-07 	0.0034173686 	4.2484925e-07 	2.1595291e-05
0.92222222 	0.0037840484 	0.0017529896 	1.8001877e-07 	0.0037549076 	3.4614178e-07 	0.00061465577
0.93333333 	0.0041360365 	0.0019173581 	9.0470983e-08 	0.004110049 	1.8419774e-07 	0.002025687
0.94444444 	0.0044762079 	0.0020769195 	2.424917e-07 	0.0044565146 	5.4212853e-07 	0.0039203838
0.95555556 	0.0047589036 	0.0022075796 	8.195885e-08 	0.0047355584 	1.5002444e-07 	0.001166121
0.96666667 	0.0049349962 	0.0022920409 	1.2586943e-09 	0.0049232789 	6.5422442e-09 	0.0042434724
0.97777778 	0.0048530788 	0.0022544899 	2.0531124e-08 	0.0048441267 	3.3700512e-08 	0.0025444457
0.98888889 	0.0035698317 	0.0016634327 	6.9914283e-09 	0.0035688282 	1.1541065e-08 	0.0021589842
