0.47916667 	0.0041500746 	-0.0019353075 	-5.1971554e-07 	0.0041441419 	1.0755198e-06 	0.0020040634
0.48958333 	0.0055086689 	-0.0025563727 	-4.194643e-08 	0.005482323 	-2.1174288e-09 	0.00049461886
0.5 	0.0045738501 	-0.0021198929 	2.9395549e-07 	0.004535809 	-6.5155131e-07 	0.0023713554
0.51041667 	0.0032183098 	-0.0014914772 	2.7245784e-06 	0.0031887858 	-5.2641455e-06 	0.0016644934
0.52083333 	0.0021776322 	-0.00098469948 	-2.9385455e-07 	0.0021446323 	4.7633687e-07 	0.00028997303
0.53125 	0.0016316505 	-0.00061026226 	-1.3382694e-07 	0.0016192085 	-4.2768314e-07 	0.00051222737
0.54166667 	0.0014350855 	-0.00036198464 	4.3952716e-07 	0.0014333949 	-4.957336e-07 	0.000707941
0.55208333 	0.0014025146 	-0.00017977496 	9.2235959e-07 	0.0013994762 	6.8469415e-07 	0.00070275411
0.5625 	0.001419517 	-3.2502849e-05 	9.3065405e-07 	0.00142816 	1.7911651e-06 	0.00071530993
0.57291667 	0.0014543779 	8.9580916e-05 	6.7286098e-07 	0.0014700498 	2.2168996e-06 	0.00073761804
0.58333333 	0.0014932838 	0.00019595515 	3.4225287e-07 	0.0015159959 	9.3381479e-07 	0.00036682579
0.59375 	0.0015319112 	0.00029081924 	1.1314534e-07 	0.0015615576 	4.1057021e-07 	0.00018712948
0.60416667 	0.001568852 	0.00037540714 	1.1698347e-06 	0.0016055082 	1.5459222e-06 	0.00078828091
0.61458333 	0.0016038868 	0.00045143475 	1.7820556e-06 	0.0016456146 	8.5714689e-07 	0.00081430506
0.625 	0.0016365825 	0.00052013127 	5.3407843e-07 	0.0016822927 	-3.9193463e-08 	0.00047403154
0.63541667 	0.0016661935 	0.00058074262 	7.680218e-07 	0.001716153 	-9.6471582e-09 	0.00064314111
0.64583333 	0.0016930209 	0.0006341281 	1.4910838e-06 	0.0017466718 	-4.8449023e-07 	0.00086312537
0.65625 	0.0017173618 	0.00068177732 	1.2359094e-07 	0.0017727495 	-2.4333042e-07 	0.00021138192
0.66666667 	0.0017381746 	0.00072260167 	1.0589764e-06 	0.0017978815 	-7.6185615e-07 	0.00088444006
0.67708333 	0.0017565174 	0.00075787764 	5.3075782e-07 	0.0018193193 	-6.0653601e-07 	0.00073438694
0.6875 	0.0017724241 	0.00078787669 	6.7412534e-07 	0.001836986 	-7.2848351e-07 	0.00090236478
0.69791667 	0.0017867188 	0.00081358954 	5.1294906e-07 	0.0018508118 	-5.9724237e-07 	0.0009176887
0.70833333 	0.0017985181 	0.00083349074 	4.4363783e-07 	0.0018618641 	-5.1763713e-07 	0.00082073612
0.71875 	0.0018086655 	0.00084930812 	3.2950379e-07 	0.0018715132 	-3.5906434e-07 	0.00092930147
0.72916667 	0.0018161946 	0.00085798801 	3.2831312e-07 	0.0018795622 	-3.6539462e-07 	0.00092931681
0.73958333 	0.001822159 	0.00086113729 	1.5651543e-07 	0.0018867561 	-1.4617049e-07 	0.00076909866
0.75 	0.0018274406 	0.00086366846 	1.3272136e-07 	0.0018921535 	-3.061678e-07 	0.0009362266
0.76041667 	0.0018326243 	0.00086565003 	6.624972e-08 	0.0018948404 	-8.7086944e-08 	0.00060826772
0.77083333 	0.0018378978 	0.00086778801 	3.9496974e-08 	0.0018979309 	-2.8563242e-07 	0.00094131956
0.78125 	0.0018435693 	0.00086970203 	4.1503724e-08 	0.0018994861 	-1.0109043e-07 	0.00070157275
0.79166667 	0.0018497341 	0.00087209591 	4.1892366e-08 	0.0019028605 	-1.7004188e-07 	0.00094614486
0.80208333 	0.0018568303 	0.00087489115 	5.9576018e-09 	0.0019073421 	-1.8722466e-07 	0.00095167099
0.8125 	0.0018654561 	0.00087814535 	1.7110173e-08 	0.0019122523 	-6.4748448e-08 	0.00049332608
0.82291667 	0.0018761473 	0.00088271552 	-9.014749e-08 	0.0019207826 	-3.6791146e-07 	0.00095917183
0.83333333 	0.0018889308 	0.00088778526 	6.9711049e-09 	0.0019294054 	-2.8227446e-08 	0.00043067684
0.84375 	0.0019045425 	0.00089454315 	6.7788858e-09 	0.0019425184 	-6.9726778e-08 	0.0008593235
0.85416667 	0.0019239454 	0.00090287675 	-2.3040667e-08 	0.001958668 	-1.3785952e-07 	0.00098142651
0.86458333 	0.0019473581 	0.00091288728 	3.9310688e-09 	0.0019780444 	-1.9257037e-08 	0.00079515055
0.875 	0.0019770395 	0.00092552166 	1.8843751e-08 	0.0020024907 	3.3635843e-08 	0.00014279623
0.88541667 	0.002015161 	0.00094257867 	4.4229354e-09 	0.0020375696 	-6.9660145e-09 	0.00089005546
0.89583333 	0.0020669467 	0.00096553803 	7.4857733e-08 	0.002084409 	1.3630265e-07 	0.0010444901
0.90625 	0.0021398862 	0.00099801278 	2.3741294e-07 	0.0021510798 	4.751229e-07 	0.0010815463
0.91666667 	0.0022475564 	0.0010463272 	4.4360757e-07 	0.0022513161 	9.1550924e-07 	0.0011342755
0.92708333 	0.0024132817 	0.0011214215 	5.5970951e-07 	0.0024090201 	1.1760407e-06 	0.0012107233
0.9375 	0.0026714221 	0.0012395453 	2.573835e-07 	0.0026597079 	5.4687911e-07 	0.0013207585
0.94791667 	0.0030633403 	0.0014198736 	1.5589437e-07 	0.003043943 	3.3384703e-07 	0.00055360977
0.95833333 	0.0035887035 	0.0016636052 	1.4552445e-08 	0.0035657841 	3.1244395e-08 	0.0017620852
0.96875 	0.0041261268 	0.0019133619 	1.8917182e-07 	0.0041018302 	4.1006279e-07 	9.1456087e-05
0.97916667 	0.0043989891 	0.0020435102 	-3.4486536e-08 	0.0043881577 	-6.957647e-08 	0.0022274013
0.98958333 	0.0032043421 	0.0014947123 	-1.3686055e-06 	0.0032006851 	-2.925842e-06 	0.0016730289
