0.3809068052 	0.1928011254 	0.02694427617 	-5.356982793e-05
0.3809068052 	0.1928011254 	0.02694427617 	-5.356982793e-05
0.3819639198 	0.7350389211 	0.09574408702 	-0.0002008478863
0.3830211992 	1.362267437 	0.1724736447 	-0.0003691423728
0.3840785339 	1.796625435 	0.2290104237 	-0.0004891935218
0.385135815 	2.072317773 	0.2658283633 	-0.0005673816238
0.3861929345 	2.28699765 	0.2925377815 	-0.0006292523682
0.3878197712 	2.481991153 	0.3163564718 	-0.0006917563494
0.3896565669 	2.640167488 	0.3352071716 	-0.0007413619979
0.3917295634 	2.754175863 	0.3479898703 	-0.0007750691633
0.394067843 	2.830882489 	0.3555645581 	-0.0007954026381
0.396755554 	2.878277659 	0.3587650439 	-0.0008110631939
0.3998076713 	2.904986247 	0.3588031614 	-0.0008303193875
0.4032493224 	2.919627593 	0.3568682659 	-0.0008547896948
0.4071295106 	2.928083797 	0.3536612892 	-0.0008833640836
0.4115792059 	2.933204179 	0.349490004 	-0.0009151450452
0.4166308648 	2.936367783 	0.3439921103 	-0.0008885870044
0.4242899957 	2.937812007 	0.3366816971 	-0.0007891180662
0.4325944199 	2.937281273 	0.3281839716 	-0.0006879062032
0.4415815424 	2.935087829 	0.3190946732 	-0.0005895795602
0.4512802035 	2.931322227 	0.3095264432 	-0.000494927277
0.4617756613 	2.925508717 	0.2993759824 	-0.0003993823979
0.4731719825 	2.916764015 	0.2883050089 	-0.0003072104879
0.485500853 	2.904899141 	0.2762885701 	-0.0002260155172
0.4988448325 	2.890875579 	0.2637202961 	-0.0001541548293
0.5132858996 	2.875602002 	0.250819387 	-9.025465368e-05
0.5289386969 	2.85925028 	0.2375675628 	-3.521923539e-05
0.5418282751 	2.845914937 	0.2272051305 	-0.0002034147708
0.5458547894 	2.841720062 	0.2239755159 	-9.800500536e-06
0.5640944687 	2.822940051 	0.2100867944 	-4.438989166e-05
0.5838275065 	2.80290668 	0.1959173116 	-6.999173352e-05
0.605107761 	2.781514556 	0.1815042848 	-8.679934741e-05
0.6280406075 	2.758565608 	0.1668803129 	-9.547732109e-05
0.6527238598 	2.733742676 	0.1520553925 	-9.696411569e-05
0.6792545965 	2.70708865 	0.1372833161 	-9.261928742e-05
0.7058458787 	2.67964635 	0.1233075463 	-8.433643285e-05
0.7307074168 	2.652607152 	0.110701117 	-7.45029462e-05
0.7539388743 	2.626273898 	0.09943706835 	-6.459346844e-05
0.7756407309 	2.600523271 	0.08931020663 	-5.527683504e-05
0.7959110465 	2.575251028 	0.08016092453 	-4.685569104e-05
0.8148439719 	2.550359295 	0.07185870896 	-3.942482287e-05
0.8325271295 	2.525751456 	0.06429558475 	-3.297117599e-05
0.8490433661 	2.501330826 	0.0573815224 	-2.742902849e-05
0.8644696653 	2.477001314 	0.05103941107 	-2.272082191e-05
0.878878094 	2.452665591 	0.04520210992 	-1.871449999e-05
0.8923357983 	2.428196029 	0.03982318513 	-1.531938973e-05
0.9049053983 	2.403349853 	0.0348551539 	-1.250055471e-05
0.9166453775 	2.377737783 	0.03024110833 	-1.013339498e-05
0.9276103354 	2.350894057 	0.02594979554 	-8.12636952e-06
0.9378512652 	2.322244506 	0.02195348968 	-6.451157459e-06
0.9474158034 	2.290939222 	0.01823151928 	-5.055388787e-06
0.9563484579 	2.258241801 	0.01499369801 	-3.9368026e-06
0.9622608402 	2.227410769 	0.01246015157 	-3.190502281e-06
0.9674948231 	2.197046735 	0.01041239553 	-2.610109296e-06
0.9721281468 	2.163847015 	0.008607585572 	-2.133403741e-06
0.9762296655 	2.126627431 	0.007006452262 	-1.729644637e-06
0.9798603561 	2.083688365 	0.005606754925 	-1.374136252e-06
0.9830742178 	2.03232221 	0.004408446233 	-1.080950095e-06
0.9859190669 	1.96814116 	0.003355093733 	-8.393305117e-07
0.988437243 	1.884837527 	0.002396168754 	-6.25190576e-07
0.990666234 	1.773505289 	0.001557526224 	-4.399130321e-07
0.992639231 	1.631554849 	0.0008893952417 	-2.912838602e-07
0.9939209151 	1.466119054 	0.0007934315628 	-1.718358169e-07
0.9952026562 	1.246881606 	0.001578136187 	-8.091793633e-08
0.9964844543 	0.9221147902 	0.001067143017 	-4.738241115e-08
0.9977663094 	0.4927637801 	-0.0008583879561 	-6.349015802e-10
0.9990482216 	0.1432954392 	-0.000938818367 	2.477664264e-08
