1.218267812e-35 	1.223062423 	-8.312052702e-14 	2.430303323e-18
0.00190503019 	1.223104377 	-0.0003170998857 	3.190041692e-07
0.003810043283 	1.223257054 	-0.0006037208945 	6.003151323e-07
0.005715039211 	1.223538618 	-0.0008831539441 	8.636067126e-07
0.007620017961 	1.223937314 	-0.001171453014 	1.127414127e-06
0.009524979574 	1.224536088 	-0.001502927847 	1.423494482e-06
0.01245757067 	1.225522056 	-0.001927805662 	1.780979753e-06
0.01577085506 	1.227016955 	-0.00243384823 	2.184853725e-06
0.01951424692 	1.229128923 	-0.003004321187 	2.609755104e-06
0.02376371923 	1.232059643 	-0.003647600864 	3.050087095e-06
0.02856971015 	1.236063282 	-0.004370751721 	3.497035029e-06
0.03399956521 	1.241463049 	-0.00518061887 	3.937720473e-06
0.04013425608 	1.248687395 	-0.006085799293 	4.356648508e-06
0.04710020392 	1.258290022 	-0.007094139183 	4.729988335e-06
0.05497248355 	1.270958501 	-0.008210596325 	5.032476703e-06
0.06388212204 	1.289341478 	-0.009562643498 	5.295784929e-06
0.07738804933 	1.317199482 	-0.01122083821 	5.256619836e-06
0.09190225286 	1.354786225 	-0.01298026642 	4.957390657e-06
0.1074900975 	1.401608732 	-0.0146685342 	4.295148929e-06
0.1242359314 	1.458729697 	-0.01621232263 	3.33010203e-06
0.1422279963 	1.526682744 	-0.01758280312 	2.123277469e-06
0.1615588878 	1.605748014 	-0.01876352477 	6.583269889e-07
0.1701363888 	1.643305097 	-0.01911462213 	2.885884994e-05
0.1823260612 	1.696726412 	-0.01961810888 	1.133151553e-06
0.2046323802 	1.800715518 	-0.01997739781 	3.075709962e-06
0.2285867053 	1.91826393 	-0.01969722209 	4.846839119e-06
0.254304522 	2.048300806 	-0.01860485038 	6.233691096e-06
0.2819095097 	2.185269309 	-0.01673012713 	7.407868109e-06
0.3115423872 	2.314331042 	-0.01455833686 	8.784063267e-06
0.3433329903 	2.415318482 	-0.01261393321 	1.023455505e-05
0.37743697 	2.48070324 	-0.01109430578 	1.143779201e-05
0.414010442 	2.519076279 	-0.009874150153 	1.205999421e-05
0.4532220137 	2.539836972 	-0.008685843804 	1.21014899e-05
0.4952525067 	2.547132358 	-0.007477242196 	1.184440293e-05
0.5373056793 	2.543620538 	-0.006332095853 	1.129190622e-05
0.5765818555 	2.532564527 	-0.005292809517 	1.057930556e-05
0.6132593029 	2.516313517 	-0.004362121428 	9.800626273e-06
0.6475070436 	2.495919726 	-0.003525216202 	9.009030623e-06
0.679484443 	2.471763653 	-0.002760651403 	8.231198775e-06
0.7093412355 	2.443887912 	-0.002046286065 	7.481213696e-06
0.7372173963 	2.412173182 	-0.001370996173 	6.724876772e-06
0.7632441099 	2.376446213 	-0.0007311270833 	5.997319425e-06
0.7875439148 	2.33634504 	-0.0001122943046 	5.323136172e-06
0.8102313055 	2.291002716 	0.0004895827225 	4.650881901e-06
0.8314132346 	2.239235087 	0.001081116024 	4.035508997e-06
0.8511895776 	2.180202022 	0.001673468865 	3.445616686e-06
0.8696535944 	2.113753289 	0.002243411919 	2.791553934e-06
0.8868923629 	2.040450097 	0.002746791921 	2.067570592e-06
0.9029871861 	1.961560849 	0.0031337305 	1.267771188e-06
0.9180139737 	1.879016762 	0.003351210346 	3.601652753e-07
0.9320435986 	1.801021376 	0.003332414925 	-4.415719716e-07
0.941327225 	1.737040163 	0.003143398773 	-9.100892705e-07
0.9495440518 	1.682999373 	0.002881069866 	-1.212162569e-06
0.9568166671 	1.632357806 	0.002546519987 	-1.37721537e-06
0.963253572 	1.583832996 	0.00218353862 	-1.360074263e-06
0.9689507996 	1.53618451 	0.001828487983 	-1.278177365e-06
0.9739933478 	1.487901406 	0.001488671815 	-1.16617065e-06
0.9784564469 	1.436965042 	0.001168313791 	-1.016163445e-06
0.9824066826 	1.38038608 	0.0008308728828 	-8.39120698e-07
0.985902989 	1.313150695 	0.0005106775396 	-6.741023832e-07
0.9889975281 	1.231674931 	0.0001811446378 	-4.750760323e-07
0.9910076668 	1.134779513 	5.170072554e-05 	-3.212073729e-07
0.9930178055 	0.9942317154 	0.00112338545 	-2.774431564e-07
0.9950279442 	0.7534664048 	0.001375798011 	-7.342948821e-08
0.9970380829 	0.4007305328 	-0.0006469416279 	6.926056641e-08
0.9990482216 	0.1146207438 	-0.001091817397 	1.444354101e-08
0.9990482216 	0.1146207438 	-0.001091817397 	1.444354101e-08
