0.2472849305 	1.381036855e-05 	-7.275997093e-07 	-1.253256841e-09 	1.29624985e-05 	3.32946195e-08 	2.471012488e-08
0.2487094669 	0.001651132302 	-0.0004979805864 	-5.1811781e-07 	0.001324445711 	2.372620127e-06 	2.524761636e-06
0.2501340182 	0.01096932716 	-0.004201322529 	-8.532785794e-06 	0.008321123134 	1.935671024e-05 	1.586237343e-05
0.2515582136 	0.01924164518 	-0.007647117746 	-1.65632595e-05 	0.01458739102 	3.13301954e-05 	2.780762163e-05
0.2529816857 	0.01890742326 	-0.007355856228 	-1.505521324e-05 	0.01489344809 	1.636882018e-05 	2.839105147e-05
0.2544040707 	0.01742947287 	-0.006481070899 	-1.276575567e-05 	0.01465530632 	-1.406095629e-05 	2.793708708e-05
0.2565908305 	0.01632190886 	-0.005434320643 	-9.267246503e-06 	0.01538837582 	-4.813486827e-05 	2.933452129e-05
0.2590557457 	0.01534683115 	-0.004318357667 	-1.304803112e-06 	0.01725445086 	-7.18586447e-05 	3.289177897e-05
0.2618311143 	0.01447116447 	-0.003683626937 	6.176908912e-06 	0.01960173122 	-8.121092504e-05 	3.736634772e-05
0.2649514479 	0.01347786905 	-0.003325585413 	9.710056462e-06 	0.02193293634 	-8.056900202e-05 	4.181027261e-05
0.2685402304 	0.01232005591 	-0.003010649422 	8.784193412e-06 	0.02396555636 	-6.97380258e-05 	4.568501129e-05
0.2726074998 	0.01098741827 	-0.00262720202 	5.395951785e-06 	0.02560768741 	-5.120426024e-05 	4.88153695e-05
0.2771758575 	0.009714962803 	-0.002091438833 	2.809233058e-06 	0.02662476333 	-3.148508987e-05 	5.075419889e-05
0.2823040561 	0.008686994727 	-0.001391065604 	2.233796189e-06 	0.02691487394 	-1.528820499e-05 	5.130723032e-05
0.28818069 	0.007958359319 	-0.00066454902 	2.88554667e-06 	0.02657169424 	-6.080251623e-06 	5.065303444e-05
0.2948278042 	0.007488654304 	-8.112826304e-05 	2.652939667e-06 	0.0256886517 	-2.169106418e-06 	4.896970993e-05
0.3039520189 	0.007128173365 	0.000230660533 	1.05670247e-06 	0.02477271731 	-6.969129518e-06 	4.722368441e-05
0.3048289965 	0.007092473508 	0.0002595641436 	1.731506351e-07 	0.02467987987 	-1.848197249e-07 	4.704671045e-05
0.3153909723 	0.006798746921 	0.0003896204257 	3.242987326e-06 	0.0237871523 	-1.498029243e-06 	4.534492359e-05
0.3267808322 	0.006599324752 	0.0004626488741 	7.10509151e-06 	0.02317315459 	-2.461648576e-06 	4.417447329e-05
0.3390183242 	0.006457808328 	0.000536881872 	1.095080146e-05 	0.02275142449 	-3.150424156e-06 	4.33705385e-05
0.3522090375 	0.006372728419 	0.0006281912224 	1.493809568e-05 	0.02250866607 	-3.819895019e-06 	4.290777349e-05
0.3664845753 	0.006327242251 	0.0007447017295 	1.914995079e-05 	0.02237659397 	-4.263278497e-06 	4.265600736e-05
0.3818620373 	0.0063332174 	0.0008872749108 	2.35476325e-05 	0.02239857684 	-5.653085913e-06 	4.269791283e-05
0.3984348019 	0.00635227832 	0.001051153354 	2.691921696e-05 	0.02242921273 	-5.836121803e-06 	4.275631334e-05
0.4162929946 	0.006403645034 	0.001248671132 	2.333432602e-05 	0.022515699 	-4.184106198e-06 	4.292118021e-05
0.4355739439 	0.006515735424 	0.001478439854 	1.960895236e-05 	0.02275181661 	-3.835880111e-06 	4.337128601e-05
0.4563323823 	0.006660814154 	0.001730136491 	1.58842415e-05 	0.02302487627 	-2.651622347e-06 	4.389181361e-05
0.4786466123 	0.006872996009 	0.00201850196 	1.224108281e-05 	0.023419185 	-2.270412936e-06 	4.464347564e-05
0.5026835755 	0.007142527423 	0.002341626922 	8.86349177e-06 	0.02387106846 	-1.71573086e-06 	4.550489111e-05
0.5284859607 	0.007485886704 	0.002710967213 	5.897256339e-06 	0.02437305506 	-1.313203565e-06 	4.646181708e-05
0.5561749938 	0.007917439481 	0.003142859791 	3.449914901e-06 	0.02488081127 	-9.045167657e-07 	4.742974155e-05
0.5858631148 	0.008448133247 	0.003632125642 	1.676002259e-06 	0.02534011894 	-5.253713872e-07 	4.830530962e-05
0.6176648077 	0.009068359038 	0.004149957324 	6.26156298e-07 	0.02569147238 	-2.275571247e-07 	4.897508694e-05
0.6494508416 	0.009723256047 	0.004636886177 	1.862354456e-07 	0.02589188324 	-7.373239017e-08 	4.935712574e-05
0.6791106475 	0.01035171953 	0.00505165803 	7.473968654e-08 	0.02594365625 	-2.939817687e-08 	4.945581949e-05
0.7067905922 	0.01092435508 	0.005388942121 	7.488324102e-08 	0.02587855832 	-2.536674316e-08 	4.933172474e-05
0.7326288344 	0.01143192543 	0.005659375904 	8.752994948e-08 	0.02572392818 	-1.924886035e-08 	4.903695671e-05
0.7567541468 	0.01187262584 	0.00587523888 	8.424594799e-08 	0.02549527699 	1.194531433e-08 	4.860108399e-05
0.7792862258 	0.01224798586 	0.006045626449 	7.668128337e-08 	0.0252029003 	9.129858024e-08 	4.804373275e-05
0.8003336001 	0.012559273 	0.006176735764 	6.927551303e-08 	0.02485749653 	2.063837845e-07 	4.738529717e-05
0.8199971472 	0.01280891594 	0.006274363072 	5.580735755e-08 	0.02446691327 	3.219228221e-07 	4.664073693e-05
0.8383693647 	0.01300309174 	0.006341811641 	4.381502222e-08 	0.02403197161 	4.252304764e-07 	4.581161723e-05
0.8555361083 	0.01315117504 	0.006378425154 	3.956948368e-08 	0.02354851499 	5.102330063e-07 	4.489001454e-05
0.8715768547 	0.01325771107 	0.006390385981 	4.411324069e-08 	0.02302324767 	5.729324647e-07 	4.388870905e-05
0.8865654396 	0.01333037658 	0.006379369879 	1.469815361e-08 	0.0224591294 	5.608314821e-07 	4.281334283e-05
0.9005706783 	0.01337565656 	0.006350838955 	-5.578312178e-08 	0.02186369847 	4.662452459e-07 	4.167828599e-05
0.913656745 	0.01339405598 	0.006317834767 	-1.252283838e-07 	0.02125453281 	3.439183911e-07 	4.051704692e-05
0.9258835601 	0.01338984324 	0.006284218594 	-1.898839741e-07 	0.02063635577 	2.057552336e-07 	3.933862967e-05
0.9373071183 	0.01336320224 	0.006254377473 	-2.443799339e-07 	0.02001535921 	6.082236278e-08 	3.815483763e-05
0.9479797699 	0.01332158307 	0.006204772809 	-2.858608523e-07 	0.0194200184 	-7.775013501e-08 	3.701995258e-05
0.9550458569 	0.01327327552 	0.006155921806 	-3.121363064e-07 	0.01892185107 	-1.993949424e-07 	3.607030719e-05
0.9613025204 	0.01321930503 	0.006131353465 	-3.227413818e-07 	0.0185119158 	-2.883437071e-07 	3.528885663e-05
0.9668422226 	0.01316115983 	0.006109460009 	-3.157010608e-07 	0.01813615957 	-3.462011598e-07 	3.457256082e-05
0.9717469214 	0.01309834965 	0.006091682847 	-2.831040428e-07 	0.01779431596 	-3.535210874e-07 	3.39209119e-05
0.9760892456 	0.01303102416 	0.006079319316 	-2.155987901e-07 	0.01748346019 	-2.889921123e-07 	3.33283344e-05
0.9799335525 	0.01295474928 	0.006079153114 	-9.716512373e-08 	0.01720170392 	-1.249156417e-07 	3.279122863e-05
0.9833368611 	0.01285979313 	0.006065328277 	3.524997853e-08 	0.01691673398 	1.314255602e-07 	3.224799672e-05
0.9863496834 	0.01269728001 	0.005990680862 	1.739843041e-07 	0.01654455393 	4.720625623e-07 	3.153851812e-05
0.9890167622 	0.01230225956 	0.005795780758 	3.239323011e-07 	0.01589415288 	8.402951656e-07 	3.029867294e-05
0.9913777266 	0.01134108881 	0.005341772218 	4.141359974e-07 	0.01454563774 	1.004722075e-06 	2.772802828e-05
0.9929115363 	0.009640384305 	0.004561749919 	2.99247721e-07 	0.01228071532 	7.71078436e-07 	2.341045665e-05
0.9944454907 	0.006556329963 	0.003048054093 	5.47835483e-08 	0.008278974306 	2.013194734e-07 	1.578202605e-05
0.9959795897 	0.002486216928 	0.001054715751 	-2.445369142e-08 	0.003066757272 	-5.945396235e-08 	5.846091722e-06
0.9975138333 	0.0002392612405 	5.530068333e-05 	2.729565724e-09 	0.0002570483614 	1.513191392e-08 	4.900056198e-07
0.9990482216 	2.205545615e-06 	6.134367061e-08 	3.111876338e-11 	2.203553362e-06 	8.422621233e-10 	4.200585154e-09
0.9990482216 	2.205545615e-06 	6.134367061e-08 	3.111876338e-11 	2.203553362e-06 	8.422621233e-10 	4.200585154e-09
