1.218267812e-35 	0.03442808991 	-2.389939289e-15 	2.258984486e-18 	7.239145215e-15 	-3.160679059e-16 	1.37998228e-17
0.00190503019 	0.03439298411 	-0.0002823334042 	3.763278337e-08 	0.039632754 	-9.411456257e-06 	7.555104448e-05
0.003810043283 	0.03438726897 	-0.0006859780056 	2.471025432e-07 	0.03986776258 	-9.46801491e-06 	7.599903614e-05
0.005715039211 	0.03442088777 	-0.001032805406 	3.827408623e-07 	0.03993908806 	-9.386271436e-06 	7.613500234e-05
0.007620017961 	0.03443696837 	-0.001375212374 	5.053829909e-07 	0.04002861441 	-9.315382597e-06 	7.630566444e-05
0.009524979574 	0.03446832267 	-0.001764979552 	6.391686684e-07 	0.04012128385 	-9.238432573e-06 	7.648231814e-05
0.01245757067 	0.03452071459 	-0.002263909003 	8.005016676e-07 	0.04026757361 	-9.117245955e-06 	7.67611871e-05
0.01577085506 	0.03460065937 	-0.002859730155 	9.84337009e-07 	0.0404897776 	-9.013662775e-06 	7.718476965e-05
0.01951424692 	0.03471305984 	-0.003532146451 	1.178589831e-06 	0.04079810628 	-8.925621324e-06 	7.777252981e-05
0.02376371923 	0.03486773227 	-0.00429018866 	1.379328543e-06 	0.04121770757 	-8.845910866e-06 	7.85724065e-05
0.02856971015 	0.03507692923 	-0.005142301313 	1.582506623e-06 	0.04177645617 	-8.782986334e-06 	7.963753662e-05
0.03399956521 	0.03535513418 	-0.00609721767 	1.782453622e-06 	0.04250575474 	-8.732450216e-06 	8.10277824e-05
0.04013425608 	0.03572022966 	-0.007164828102 	1.971524008e-06 	0.04344043594 	-8.680714777e-06 	8.280954455e-05
0.04710020392 	0.03619265252 	-0.008354955441 	2.137331019e-06 	0.04461587055 	-8.593701297e-06 	8.505024961e-05
0.05497248355 	0.03679267382 	-0.009672683979 	2.266853263e-06 	0.04606115236 	-8.445515019e-06 	8.780535843e-05
0.06388212204 	0.0376184449 	-0.01125387927 	2.3660832e-06 	0.04795798277 	-8.227657341e-06 	9.142124438e-05
0.07738804933 	0.03876903845 	-0.01318696637 	2.316868888e-06 	0.05043342064 	-7.544608185e-06 	9.614011698e-05
0.09190225286 	0.04013699074 	-0.01523762476 	2.131552494e-06 	0.05315400968 	-6.564795384e-06 	0.0001013263158
0.1074900975 	0.04155276247 	-0.01716921995 	1.753578154e-06 	0.05570245362 	-5.241700226e-06 	0.0001061843583
0.1242359314 	0.04288797046 	-0.01889804442 	1.36377333e-06 	0.05775327222 	-3.63046198e-06 	0.0001100937886
0.1422279963 	0.04398380969 	-0.02047100886 	8.414502202e-07 	0.05895422443 	-2.012209608e-06 	0.0001123831372
0.1615588878 	0.04453652221 	-0.02171121131 	2.327534181e-07 	0.05909029295 	-5.360988427e-07 	0.0001126425217
0.1701363888 	0.04437394257 	-0.0219669529 	3.940689254e-05 	0.05859636409 	-0.0001591042902 	0.000111700956
0.1823260612 	0.04414085837 	-0.02232934677 	2.845516267e-07 	0.05789143512 	-6.288437954e-07 	0.0001103571654
0.2046323802 	0.0423668635 	-0.02212960752 	5.342005678e-07 	0.05487059746 	-1.047489242e-06 	0.0001045986093
0.2285867053 	0.03873521617 	-0.02077663276 	2.342981094e-07 	0.04950571015 	-2.404427312e-07 	9.437164295e-05
0.254304522 	0.03289834383 	-0.01794176206 	-8.365788848e-07 	0.04149453116 	1.916940628e-06 	7.910010919e-05
0.2819095097 	0.02519411779 	-0.01366366632 	-2.197045378e-06 	0.0314354698 	4.283267337e-06 	5.992474248e-05
0.3115423872 	0.01748849642 	-0.009025690619 	-2.511208122e-06 	0.02169204108 	4.464443371e-06 	4.13510593e-05
0.3433329903 	0.01222165984 	-0.005594670385 	-1.50228085e-06 	0.01495828792 	2.349763147e-06 	2.851465422e-05
0.37743697 	0.009813187668 	-0.003638117742 	-4.362577281e-07 	0.0114099441 	2.954231069e-07 	2.175052469e-05
0.414010442 	0.008975613549 	-0.002382892153 	1.422213485e-07 	0.009634586728 	-7.502291324e-07 	1.83662001e-05
0.4532220137 	0.008780616835 	-0.001296847012 	4.378618444e-07 	0.008776212743 	-9.902771458e-07 	1.672990071e-05
0.4952525067 	0.008915461388 	-0.0001793093844 	5.049378097e-07 	0.008587122953 	-8.133932825e-07 	1.636944302e-05
0.5373056793 	0.009265789282 	0.0009426528023 	4.583159841e-07 	0.009014427345 	-5.326594516e-07 	1.718400395e-05
0.5765818555 	0.009755499228 	0.001972919404 	3.958971428e-07 	0.00988692455 	-2.878684888e-07 	1.884722612e-05
0.6132593029 	0.01034428917 	0.002889763225 	3.699589926e-07 	0.01100532025 	-6.859684494e-08 	2.097919916e-05
0.6475070436 	0.01102364317 	0.003717880457 	3.904106245e-07 	0.01225342517 	1.631538633e-07 	2.335843404e-05
0.679484443 	0.01180152337 	0.004491641857 	4.43985874e-07 	0.01359096223 	4.220051887e-07 	2.590815142e-05
0.7093412355 	0.01269174655 	0.005240728844 	5.06884357e-07 	0.01501898162 	7.018580691e-07 	2.863035328e-05
0.7372173963 	0.01370763224 	0.005984742722 	5.611404685e-07 	0.01655216732 	9.828448932e-07 	3.155303134e-05
0.7632441099 	0.01485554782 	0.006745004564 	6.489244855e-07 	0.01820979097 	1.276422675e-06 	3.471292274e-05
0.7875439148 	0.01615687335 	0.00749988978 	6.153793702e-07 	0.01999292307 	1.530010755e-06 	3.811206811e-05
0.8102313055 	0.01764246684 	0.008241014691 	5.981889234e-07 	0.02192245143 	1.839650872e-06 	4.179028545e-05
0.8314132346 	0.01930648577 	0.009025909754 	7.279725073e-07 	0.02404343485 	2.189092716e-06 	4.583346935e-05
0.8511895776 	0.02108673799 	0.009864450919 	7.534812595e-07 	0.02631865895 	2.276668372e-06 	5.017067886e-05
0.8696535944 	0.02285238997 	0.01069730099 	5.904371825e-07 	0.02859563855 	1.874531725e-06 	5.451123482e-05
0.8868923629 	0.02440736712 	0.01143308553 	1.846500175e-07 	0.03063458559 	8.265269312e-07 	5.839803458e-05
0.9029871861 	0.02552104343 	0.01196356936 	-4.456787269e-07 	0.0321478694 	-8.260957332e-07 	6.128277412e-05
0.9180139737 	0.02598034837 	0.01219010339 	-1.187815472e-06 	0.0328709197 	-2.794488561e-06 	6.266110894e-05
0.9320435986 	0.02571450619 	0.01207654209 	-1.794553699e-06 	0.03268955665 	-4.444099269e-06 	6.231538057e-05
0.941327225 	0.02500372106 	0.0117364973 	-2.324035898e-06 	0.03189974857 	-5.492620035e-06 	6.080978685e-05
0.9495440518 	0.024125621 	0.01121478073 	-2.665803592e-06 	0.0307673002 	-6.036435344e-06 	5.86510255e-05
0.9568166671 	0.02310973567 	0.01056875306 	-2.586917755e-06 	0.02936877103 	-6.086720872e-06 	5.598504021e-05
0.963253572 	0.02198453788 	0.009919352216 	-2.332727629e-06 	0.02783474237 	-5.814041453e-06 	5.306075523e-05
0.9689507996 	0.02078727155 	0.009280840343 	-2.035950332e-06 	0.02622314328 	-5.345188884e-06 	4.998859943e-05
0.9739933478 	0.01953460402 	0.008669133975 	-1.698530321e-06 	0.02457376095 	-4.727830888e-06 	4.684441829e-05
0.9784564469 	0.01822576066 	0.008091931295 	-1.342337579e-06 	0.02290433739 	-3.998593847e-06 	4.366203299e-05
0.9824066826 	0.01684027494 	0.007542986494 	-9.908279702e-07 	0.02119236224 	-3.184482845e-06 	4.039853253e-05
0.985902989 	0.0153005879 	0.006998701278 	-6.708914474e-07 	0.0193535658 	-2.329556755e-06 	3.689327546e-05
0.9889975281 	0.01350187869 	0.006279960378 	-3.983966987e-07 	0.01713646811 	-1.517551383e-06 	3.266687106e-05
0.9910076668 	0.01136085216 	0.00530165493 	-2.49679876e-07 	0.01437133388 	-9.002117411e-07 	2.739575669e-05
0.9930178055 	0.008022829841 	0.003679446543 	-1.125216656e-07 	0.01007038556 	-4.04513379e-07 	1.91969538e-05
0.9950279442 	0.003233662348 	0.001367847111 	2.414222615e-09 	0.003972677823 	-7.754366555e-08 	7.573028079e-06
0.9970380829 	0.0003099327673 	7.201111854e-05 	2.340038964e-09 	0.0003330787331 	-5.5628534e-09 	6.349406398e-07
0.9990482216 	2.258993159e-06 	5.361214434e-08 	3.12535217e-12 	2.256295945e-06 	-4.766251964e-11 	4.301127176e-09
0.9990482216 	2.258993159e-06 	5.361214434e-08 	3.12535217e-12 	2.256295945e-06 	-4.766251964e-11 	4.301127176e-09
