0.4709558481 	0.1477830427 	0.001156157207 	-4.433732971e-08
0.4720092239 	0.5633846959 	0.0009421226355 	1.448952937e-08
0.4730625996 	1.069670152 	-0.001502247165 	7.953581555e-08
0.4741159754 	1.44718151 	-0.001329084218 	-2.585088906e-08
0.4751693511 	1.698150053 	0.0003502550264 	-7.897164162e-08
0.4762227269 	1.891075767 	0.0005977015769 	-6.562057702e-08
0.4778443634 	2.064782903 	0.0005062990356 	-9.008226657e-08
0.4796765386 	2.213455651 	0.0005172512293 	-1.325530125e-07
0.4817465869 	2.339248376 	0.0005808825679 	-1.825881087e-07
0.4840853915 	2.450717972 	0.0007310138321 	-2.466728956e-07
0.4867278453 	2.552724454 	0.0009423481896 	-3.295921901e-07
0.4897133715 	2.647900278 	0.001208564655 	-4.351880251e-07
0.4930865115 	2.737199957 	0.001535197281 	-5.607666616e-07
0.4968975894 	2.819926435 	0.001913161673 	-6.725479265e-07
0.5012034633 	2.893731314 	0.002283269857 	-7.131133057e-07
0.506068373 	2.960513692 	0.00269894416 	-7.892661184e-07
0.5134203412 	3.016922319 	0.00319350997 	-8.624257369e-07
0.5212948542 	3.055016203 	0.003554665901 	-7.661087247e-07
0.529729052 	3.077287455 	0.003744790288 	-6.57138759e-07
0.5387627144 	3.089640284 	0.003864396556 	-6.130939049e-07
0.5484384488 	3.095940532 	0.003926497395 	-5.738813218e-07
0.5588018907 	3.09835796 	0.003950918644 	-5.400871533e-07
0.5699019192 	3.098039367 	0.003938902137 	-5.04139723e-07
0.5817908876 	3.095578754 	0.003892688181 	-4.706375027e-07
0.5945248701 	3.091268738 	0.003815072753 	-4.400790128e-07
0.6081639266 	3.085229907 	0.003707093684 	-4.112700569e-07
0.6227723857 	3.077479165 	0.003568049532 	-3.829172208e-07
0.638419148 	3.067967307 	0.00339597015 	-3.538824576e-07
0.6551780116 	3.056600657 	0.003187957904 	-3.231167847e-07
0.6731280194 	3.043253791 	0.002940447482 	-2.896564534e-07
0.6923538328 	3.027776094 	0.002649526702 	-2.527438152e-07
0.7129461301 	3.009991741 	0.002311283777 	-2.120534633e-07
0.7350020349 	2.990045312 	0.001929087843 	-1.687579739e-07
0.7570579485 	2.968926727 	0.001524372877 	-1.263404135e-07
0.7776502527 	2.947789802 	0.001123100618 	-8.785610396e-08
0.7968760713 	2.927041363 	0.0007371857878 	-5.351570339e-08
0.814826083 	2.906665449 	0.0003702070009 	-2.188564171e-08
0.831584949 	2.886587357 	2.463705978e-05 	8.860031293e-09
0.8472317127 	2.866679695 	-0.0002973883334 	4.056959082e-08
0.8618401721 	2.846760264 	-0.0005936153666 	7.487662117e-08
0.8754792281 	2.826582481 	-0.0008614260777 	1.130178294e-07
0.8882132094 	2.80581788 	-0.001097670071 	1.560185093e-07
0.9001021759 	2.78402925 	-0.001298204681 	2.054308797e-07
0.9112022019 	2.760633103 	-0.001457285036 	2.612169154e-07
0.9215656407 	2.734849556 	-0.001571797687 	3.041430798e-07
0.9312413717 	2.705621809 	-0.001644472407 	3.674050678e-07
0.9402750304 	2.671386407 	-0.001649307179 	4.53120683e-07
0.9487092242 	2.629505936 	-0.001569335582 	4.903903388e-07
0.9565837329 	2.575923005 	-0.001426534293 	5.254745752e-07
0.9639356968 	2.511654467 	-0.001224294091 	5.55021148e-07
0.9688006083 	2.445824958 	-0.001000661528 	5.232427304e-07
0.9731064834 	2.379231591 	-0.0007958784731 	4.565126312e-07
0.976917562 	2.307399295 	-0.0006115269462 	3.745363786e-07
0.9802907021 	2.230656344 	-0.0004562178125 	2.918528078e-07
0.9832762282 	2.148661134 	-0.0003328197528 	2.174063259e-07
0.9859186816 	2.06013766 	-0.0002422202243 	1.555416414e-07
0.9882574856 	1.962528496 	-0.0001964292954 	1.075234727e-07
0.990327533 	1.851313414 	-0.0002277603666 	7.206490551e-08
0.9921597073 	1.718615748 	-0.0003080441843 	4.478694512e-08
0.9937813429 	1.562392472 	-0.0003960121197 	2.56208359e-08
0.9948347186 	1.388409901 	6.780460331e-05 	1.72622218e-08
0.9958880943 	1.164350958 	0.001302763791 	9.46423674e-09
0.9969414701 	0.8419935013 	0.0007482128048 	-3.590830398e-09
0.9979948458 	0.4360462279 	-0.0009702944175 	-3.288454225e-09
0.9990482216 	0.1251738158 	-0.0008059945484 	2.171472725e-09
0.9990482216 	0.1251738158 	-0.0008059945484 	2.171472725e-09
