3.197437928e-34 	1.466964599 	-9.962876639e-14 	-3.621241963e-20
0.001920179623 	1.466996454 	-0.00020812409 	1.037263329e-07
0.003840345101 	1.467107685 	-0.0003956950212 	1.950259923e-07
0.005760496377 	1.467309008 	-0.0005790959426 	2.811552415e-07
0.007680633441 	1.467593865 	-0.0007682250486 	3.675196502e-07
0.009600756325 	1.468021451 	-0.0009856708298 	4.645787207e-07
0.01255669343 	1.468725767 	-0.001264415401 	5.823191271e-07
0.01589636313 	1.469794421 	-0.00159651621 	7.1594327e-07
0.01966957619 	1.471304226 	-0.00197099156 	8.573827722e-07
0.02394927615 	1.473398762 	-0.002393321389 	1.004886615e-06
0.02878858959 	1.47625984 	-0.002868364855 	1.156025317e-06
0.03425611113 	1.480119297 	-0.003400984587 	1.306984836e-06
0.04043338076 	1.485282973 	-0.003997080766 	1.45310279e-06
0.04744143031 	1.492145955 	-0.004662086941 	1.586748495e-06
0.05536094352 	1.501202013 	-0.005399884118 	1.700225911e-06
0.06432130776 	1.514346125 	-0.006296679161 	1.805271925e-06
0.0778967341 	1.534282113 	-0.007404381472 	1.8183063e-06
0.0924770317 	1.561211866 	-0.008589961985 	1.748605693e-06
0.1081284109 	1.594823301 	-0.009749632662 	1.568293212e-06
0.12493365 	1.636058315 	-0.01084846147 	1.261254901e-06
0.1429796724 	1.685800613 	-0.01181753243 	8.678360243e-07
0.1623579926 	1.744470713 	-0.0126237893 	4.208201085e-07
0.179915767 	1.80154235 	-0.01317491504 	5.906985455e-06
0.1831652053 	1.812112012 	-0.0132770921 	8.56680496e-08
0.2055035143 	1.889143259 	-0.01367730552 	6.18192633e-07
0.2294813006 	1.976226646 	-0.01369206383 	1.076536194e-06
0.2552137277 	2.073522103 	-0.01322891321 	1.362341508e-06
0.2828241328 	2.179830408 	-0.01215712232 	1.374933484e-06
0.3124514441 	2.290113291 	-0.01050327648 	1.186213967e-06
0.3442271852 	2.39119747 	-0.008601546874 	1.139909832e-06
0.3783059509 	2.465789496 	-0.006912286186 	1.40164313e-06
0.4148445556 	2.508795575 	-0.005740631588 	1.648621565e-06
0.454012114 	2.528954143 	-0.004865711965 	1.651283967e-06
0.4959899515 	2.534512503 	-0.004015213083 	1.534688589e-06
0.5379865561 	2.52968412 	-0.003234523746 	1.382821127e-06
0.577207568 	2.517749785 	-0.002536283008 	1.212269391e-06
0.6138321997 	2.500758841 	-0.001912735799 	1.050313137e-06
0.6480299089 	2.479552977 	-0.001347619169 	9.069399306e-07
0.6799601987 	2.454419137 	-0.0008239055018 	7.843160995e-07
0.7097727691 	2.425425333 	-0.0003331790786 	6.601256909e-07
0.7376075325 	2.392570314 	0.0001264062333 	5.501423831e-07
0.7635955286 	2.355643847 	0.0005719709493 	4.627947647e-07
0.787859151 	2.313917473 	0.001009337659 	3.601146572e-07
0.8105127434 	2.266402994 	0.001436220875 	2.61040619e-07
0.831663108 	2.21262543 	0.001859042925 	1.482960218e-07
0.8514099765 	2.152907447 	0.002256658418 	-2.061610376e-08
0.8698464725 	2.088224111 	0.002588431025 	-2.419544986e-07
0.8870595453 	2.020117554 	0.002811545242 	-5.06703462e-07
0.9031303776 	1.950535425 	0.002872586172 	-8.050926195e-07
0.9181347659 	1.881344522 	0.002764599961 	-1.002552783e-06
0.9321434779 	1.818010786 	0.002533322814 	-1.074480553e-06
0.9414132658 	1.766038851 	0.002241688619 	-1.110860489e-06
0.9496178443 	1.720943573 	0.001939112911 	-1.062376488e-06
0.9568796188 	1.677393102 	0.001643193935 	-9.564425972e-07
0.9633069287 	1.634352769 	0.00136101243 	-8.459765329e-07
0.9689956638 	1.590610758 	0.00109769698 	-7.247320852e-07
0.9740306954 	1.544646456 	0.0008607080769 	-6.002245308e-07
0.9784871417 	1.494397826 	0.0006436298317 	-4.958100033e-07
0.982431489 	1.436777964 	0.0004122843708 	-3.754395997e-07
0.9859225838 	1.366512033 	0.0002012837 	-2.403367273e-07
0.98901251 	1.279902051 	-3.746824963e-05 	-1.793589732e-07
0.9910196523 	1.176464639 	-0.0001215293153 	-1.566185104e-07
0.9930267946 	1.027927671 	0.000997643204 	-8.734079372e-08
0.9950339369 	0.7777823582 	0.001361930806 	6.917551449e-09
0.9970410793 	0.4140543505 	-0.0006181255913 	2.467313856e-08
0.9990482216 	0.1187279843 	-0.001092014568 	-1.049416812e-09
0.9990482216 	0.1187279843 	-0.001092014568 	-1.049416812e-09
