0.4709558481 	7.966402323e-06 	-2.441766706e-07 	4.416928102e-12 	7.960716992e-06 	-1.044303096e-10 	1.517533915e-08
0.4709558481 	7.966402323e-06 	-2.441766706e-07 	4.416928102e-12 	7.960716992e-06 	-1.044303096e-10 	1.517533915e-08
0.4720092239 	0.000638515293 	-0.0001464112247 	2.413105105e-09 	0.0006848011409 	-9.159785174e-09 	1.305421305e-06
0.4730625996 	0.005565771192 	-0.002307713698 	2.754037564e-08 	0.006800184278 	-7.545535992e-08 	1.296304125e-05
0.4741159754 	0.01420721516 	-0.006509154464 	5.863026486e-08 	0.01782180176 	-1.551863751e-07 	3.397330747e-05
0.4751693511 	0.02096255956 	-0.009830148719 	6.869538937e-08 	0.02649879725 	-1.839635631e-07 	5.051407252e-05
0.4762227269 	0.02512065442 	-0.01178561973 	7.086848222e-08 	0.03184218699 	-1.913410798e-07 	6.070005848e-05
0.4778443634 	0.02775520652 	-0.01302461187 	6.991615987e-08 	0.0352140679 	-1.882473181e-07 	6.712780066e-05
0.4796765386 	0.02902605559 	-0.01361894389 	6.606684053e-08 	0.03681678668 	-1.773621338e-07 	7.018302812e-05
0.4817465869 	0.02950651676 	-0.01384123794 	6.034694152e-08 	0.03741115913 	-1.61350124e-07 	7.13160672e-05
0.4840853915 	0.02954198131 	-0.01385427693 	5.278596128e-08 	0.03743833563 	-1.402612655e-07 	7.136787315e-05
0.4867278453 	0.0292779284 	-0.01372871559 	4.308700766e-08 	0.03709047951 	-1.132924483e-07 	7.070476271e-05
0.4897133715 	0.02877876485 	-0.01349366402 	3.073054868e-08 	0.03644574935 	-7.904412878e-08 	6.947572784e-05
0.4930865115 	0.02806905367 	-0.01315996873 	1.498149159e-08 	0.03553313762 	-3.554968198e-08 	6.773603623e-05
0.4968975894 	0.02715150942 	-0.01272879255 	-5.12093214e-09 	0.03435579399 	1.974725996e-08 	6.549169204e-05
0.5012034633 	0.02601555663 	-0.01219495013 	-3.063450301e-08 	0.03289981497 	8.965820184e-08 	6.271619137e-05
0.506068373 	0.02450791978 	-0.01148656122 	-6.513000807e-08 	0.03097016651 	1.838527872e-07 	5.903774508e-05
0.5134203412 	0.02246800675 	-0.01052993847 	-1.086051856e-07 	0.02836832767 	3.022611808e-07 	5.407791711e-05
0.5212948542 	0.02012459828 	-0.009432179494 	-1.478572947e-07 	0.02538664979 	4.096714102e-07 	4.839401035e-05
0.529729052 	0.01783774224 	-0.008358829033 	-1.660353876e-07 	0.0224734723 	4.609102705e-07 	4.284068438e-05
0.5387627144 	0.015824289 	-0.007271832334 	-2.136192728e-07 	0.01978749431 	4.833010899e-07 	3.77204638e-05
0.5484384488 	0.0141790252 	-0.006125111098 	-2.650637978e-07 	0.01736850955 	4.832845142e-07 	3.310920652e-05
0.5588018907 	0.01289718697 	-0.005006879494 	-2.813579715e-07 	0.01528447934 	4.388594401e-07 	2.913646572e-05
0.5699019192 	0.01197072316 	-0.003945396816 	-3.006837177e-07 	0.01359201077 	3.624221017e-07 	2.591015022e-05
0.5817908876 	0.01136829997 	-0.002927799199 	-3.159419468e-07 	0.01232088235 	2.540164221e-07 	2.348702616e-05
0.5945248701 	0.01103167556 	-0.001956619216 	-3.255227503e-07 	0.01147928526 	1.247209293e-07 	2.18827082e-05
0.6081639266 	0.01089884976 	-0.00103430305 	-3.293414573e-07 	0.01104330399 	-1.197618363e-08 	2.105160673e-05
0.6227723857 	0.01091601395 	-0.0001602942036 	-3.272911205e-07 	0.01096345705 	-1.419063563e-07 	2.089939628e-05
0.638419148 	0.01104198404 	0.0006670216529 	-3.184851188e-07 	0.01117624426 	-2.536085828e-07 	2.130502784e-05
0.6551780116 	0.01124713073 	0.001448838454 	-3.01633815e-07 	0.01161598649 	-3.38787425e-07 	2.214329875e-05
0.6731280194 	0.01151084805 	0.002185679453 	-2.754736838e-07 	0.01222200836 	-3.918214956e-07 	2.329854487e-05
0.6923538328 	0.01181947215 	0.002878004057 	-2.390656773e-07 	0.01294213111 	-4.093956836e-07 	2.467129897e-05
0.7129461301 	0.01216531733 	0.003527443533 	-1.921140867e-07 	0.01373494241 	-3.904023151e-07 	2.618261766e-05
0.7350020349 	0.0125407726 	0.004128615308 	-1.366009465e-07 	0.01455846216 	-3.372395664e-07 	2.775247519e-05
0.7570579485 	0.01293135284 	0.004664908971 	-7.844597637e-08 	0.01536032951 	-2.59150229e-07 	2.928105723e-05
0.7776502527 	0.01332788369 	0.005134334797 	-2.394003257e-08 	0.01611262736 	-1.691645345e-07 	3.071514603e-05
0.7968760713 	0.01373820902 	0.005557701475 	2.388019285e-08 	0.01683119875 	-7.660334177e-08 	3.20849428e-05
0.814826083 	0.01417803975 	0.005958129288 	6.383633127e-08 	0.01754712564 	1.332264142e-08 	3.344969845e-05
0.831584949 	0.01466331651 	0.006352917908 	9.5548044e-08 	0.01828945393 	9.82274832e-08 	3.486478247e-05
0.8472317127 	0.01520891795 	0.006754821469 	1.194675812e-07 	0.01908492134 	1.754224896e-07 	3.638116446e-05
0.8618401721 	0.0158285222 	0.007174012908 	1.441241236e-07 	0.01995610013 	2.476495257e-07 	3.804187335e-05
0.8754792281 	0.01653127135 	0.007628887307 	1.386993258e-07 	0.02092504898 	2.997028937e-07 	3.988895917e-05
0.8882132094 	0.01733630554 	0.008100787998 	1.30528769e-07 	0.02199461372 	3.478849473e-07 	4.192784685e-05
0.9001021759 	0.01826404168 	0.008564791097 	1.504061371e-07 	0.02316732023 	4.033913158e-07 	4.416335138e-05
0.9112022019 	0.01930356767 	0.009051048408 	1.619321145e-07 	0.02446178302 	4.375656476e-07 	4.663095723e-05
0.9215656407 	0.02041800915 	0.0095724278 	1.631396983e-07 	0.02585832559 	4.437487815e-07 	4.929315553e-05
0.9312413717 	0.02155676081 	0.01010599275 	1.539078868e-07 	0.02729527208 	4.208050893e-07 	5.203237491e-05
0.9402750304 	0.02266458363 	0.01062583689 	1.365160158e-07 	0.02870124984 	3.749937916e-07 	5.471255929e-05
0.9487092242 	0.02369189172 	0.01110816826 	1.142554527e-07 	0.03000983759 	3.151961822e-07 	5.720709125e-05
0.9565837329 	0.02459596714 	0.01153281086 	9.044088387e-08 	0.03116455531 	2.504042223e-07 	5.940830415e-05
0.9639356968 	0.0252922585 	0.01186023731 	6.934769225e-08 	0.03205657915 	1.924766357e-07 	6.110874952e-05
0.9688006083 	0.02575365915 	0.01207742284 	5.38370275e-08 	0.03264910087 	1.495735376e-07 	6.223826061e-05
0.9731064834 	0.02606594244 	0.0122243352 	4.249651056e-08 	0.03305011058 	1.180478727e-07 	6.300269658e-05
0.976917562 	0.02627588451 	0.01232309652 	3.360165993e-08 	0.03331989784 	9.324023068e-08 	6.351698606e-05
0.9802907021 	0.02637850306 	0.0123715031 	2.671857303e-08 	0.0334526648 	7.399825501e-08 	6.37700768e-05
0.9832762282 	0.0263575694 	0.01236204388 	2.143549041e-08 	0.03342831322 	5.92069346e-08 	6.372365592e-05
0.9859186816 	0.02617761917 	0.0122787719 	1.740415214e-08 	0.03320421602 	4.791332918e-08 	6.329646437e-05
0.9882574856 	0.02576645439 	0.01208890647 	1.434818686e-08 	0.03269240451 	3.935556033e-08 	6.232080938e-05
0.990327533 	0.02497691531 	0.01172104497 	1.204947569e-08 	0.03169879438 	3.292731211e-08 	6.042671232e-05
0.9921597073 	0.02348161693 	0.01101950904 	1.032725895e-08 	0.02980055631 	2.813714872e-08 	5.680814297e-05
0.9937813429 	0.02078547771 	0.009752063788 	8.902190124e-09 	0.02634001935 	2.440388811e-08 	5.021139772e-05
0.9948347186 	0.01679120628 	0.007868680038 	7.652378514e-09 	0.02122418907 	2.093390697e-08 	4.045920333e-05
0.9958880943 	0.01075665646 	0.004866841323 	5.674227415e-09 	0.01344960495 	1.553304108e-08 	2.563868516e-05
0.9969414701 	0.003916222193 	0.001555948561 	2.29091609e-09 	0.004728111355 	6.666653946e-09 	9.013094354e-06
0.9979948458 	0.0004204444279 	8.518854857e-05 	1.61860903e-10 	0.0004442082972 	7.200894197e-10 	8.467844757e-07
0.9990482216 	5.711910982e-06 	1.479471009e-07 	2.995035788e-13 	5.705703778e-06 	9.174948975e-12 	1.087665722e-08
