0.4709558481 	8.023827964e-06 	-2.466256861e-07 	1.747958716e-11 	8.018160912e-06 	-4.077004193e-10 	1.528484323e-08
0.4720092239 	0.0006430399586 	-0.0001477451139 	9.501359103e-09 	0.0006898406694 	-3.577438187e-08 	1.315028047e-06
0.4730625996 	0.005598607444 	-0.002322830669 	1.071543317e-07 	0.006841518861 	-2.925442982e-07 	1.304183645e-05
0.4741159754 	0.01427389123 	-0.006541129521 	2.256175577e-07 	0.01790632784 	-5.95808846e-07 	3.413443766e-05
0.4751693511 	0.0210412662 	-0.009867306524 	2.606414302e-07 	0.02659824435 	-6.971844821e-07 	5.070364632e-05
0.4762227269 	0.02520162822 	-0.01182362812 	2.64924257e-07 	0.03194478294 	-7.149141112e-07 	6.089563488e-05
0.4778443634 	0.02783428431 	-0.01306167748 	2.560431935e-07 	0.03531384905 	-6.890983711e-07 	6.731801126e-05
0.4796765386 	0.02909965955 	-0.01365339139 	2.347919346e-07 	0.03690922702 	-6.297471673e-07 	7.035924509e-05
0.4817465869 	0.02957217915 	-0.01387193916 	2.049984373e-07 	0.0374931661 	-5.46991637e-07 	7.147239528e-05
0.4840853915 	0.02959726628 	-0.01388008309 	1.663712119e-07 	0.03750674528 	-4.399453053e-07 	7.149828096e-05
0.4867278453 	0.02931995613 	-0.01374826992 	1.172309871e-07 	0.03714156629 	-3.040759271e-07 	7.080214832e-05
0.4897133715 	0.02880394534 	-0.01350527669 	5.496418504e-08 	0.03647489189 	-1.323455069e-07 	6.953128161e-05
0.4930865115 	0.028072858 	-0.01316150885 	-2.379062745e-08 	0.03553453606 	8.424629741e-08 	6.773870204e-05
0.4968975894 	0.02712830179 	-0.0127176049 	-1.227798014e-07 	0.03432226218 	3.555905281e-07 	6.542777109e-05
0.5012034633 	0.02595868261 	-0.01216789762 	-2.44885601e-07 	0.03282291987 	6.889311276e-07 	6.256960793e-05
0.506068373 	0.02440664117 	-0.01143865413 	-4.024925226e-07 	0.03083653371 	1.116798618e-06 	5.878300382e-05
0.5134203412 	0.02231263589 	-0.01045689969 	-5.864486841e-07 	0.02816665912 	1.612605586e-06 	5.36934808e-05
0.5212948542 	0.01992434618 	-0.009338111839 	-7.316420296e-07 	0.02512798103 	2.003097012e-06 	4.79009158e-05
0.529729052 	0.01762262076 	-0.008257299546 	-7.707753457e-07 	0.02219400821 	2.111332026e-06 	4.230794815e-05
0.5387627144 	0.0156294156 	-0.007147831228 	-9.096802839e-07 	0.01950570709 	2.075757036e-06 	3.718329905e-05
0.5484384488 	0.01402143378 	-0.005978137275 	-1.047100133e-06 	0.01709883731 	1.927124555e-06 	3.25951363e-05
0.5588018907 	0.01278521337 	-0.004857304565 	-1.039320848e-06 	0.01505337831 	1.582879459e-06 	2.869592293e-05
0.5699019192 	0.01191345093 	-0.003791387851 	-1.045730725e-06 	0.01341685658 	1.11965839e-06 	2.557625766e-05
0.5817908876 	0.0113644383 	-0.00277182889 	-1.034291149e-06 	0.01221644512 	5.694468587e-07 	2.328793979e-05
0.5945248701 	0.01107459989 	-0.001801645661 	-1.004684967e-06 	0.01145118123 	9.571007286e-09 	2.182913412e-05
0.6081639266 	0.01097965526 	-0.0008825359982 	-9.660468599e-07 	0.01108849268 	-4.974068562e-07 	2.113774894e-05
0.6227723857 	0.01102596392 	-1.316857848e-05 	-9.263138596e-07 	0.01107208257 	-9.119227238e-07 	2.11064667e-05
0.638419148 	0.01117333917 	0.0008084006954 	-8.894548732e-07 	0.01133493004 	-1.223030031e-06 	2.160752704e-05
0.6551780116 	0.01139308162 	0.00158334446 	-8.562511836e-07 	0.01181039438 	-1.438140905e-06 	2.251389422e-05
0.6731280194 	0.01166512523 	0.00231191761 	-8.249963739e-07 	0.01243811897 	-1.570688416e-06 	2.371051175e-05
0.6923538328 	0.01197588603 	0.002994125468 	-7.918675368e-07 	0.01316656746 	-1.63190291e-06 	2.509913703e-05
0.7129461301 	0.01231730192 	0.003630998698 	-7.509219236e-07 	0.01395474368 	-1.62638714e-06 	2.660161998e-05
0.7350020349 	0.01268116879 	0.004216764594 	-6.948541699e-07 	0.01476100387 	-1.551919825e-06 	2.813857599e-05
0.7570579485 	0.01305322486 	0.004735264058 	-6.182459526e-07 	0.01553466291 	-1.408288137e-06 	2.961338514e-05
0.7776502527 	0.01342563074 	0.00518543636 	-5.197920455e-07 	0.01625086092 	-1.203278559e-06 	3.097865761e-05
0.7968760713 	0.01380746639 	0.005588720122 	-4.006583122e-07 	0.01692789243 	-9.453608413e-07 	3.226926784e-05
0.814826083 	0.01421531658 	0.005968715699 	-2.642265903e-07 	0.01759846908 	-6.419628212e-07 	3.354757331e-05
0.831584949 	0.01466601941 	0.006343298043 	-1.170631369e-07 	0.01829312811 	-3.033342834e-07 	3.487178648e-05
0.8472317127 	0.0151756445 	0.006725753159 	3.30857124e-08 	0.01903975708 	5.860339754e-08 	3.629506882e-05
0.8618401721 	0.01575905947 	0.00712674249 	1.812285051e-07 	0.01986295883 	4.277756076e-07 	3.786432016e-05
0.8754792281 	0.01642730944 	0.007563202742 	3.378763379e-07 	0.02078604356 	7.945052397e-07 	3.96239762e-05
0.8882132094 	0.01719781967 	0.008026431996 	4.541088688e-07 	0.02181726867 	1.123347242e-06 	4.158977788e-05
0.9001021759 	0.01809469719 	0.008485437855 	5.369369338e-07 	0.02295662937 	1.410878366e-06 	4.376171604e-05
0.9112022019 	0.01911437246 	0.008962395614 	6.179291898e-07 	0.0242236657 	1.646215433e-06 	4.617703944e-05
0.9215656407 	0.02022244273 	0.00948066994 	6.540449784e-07 	0.02560991972 	1.762480881e-06 	4.88196249e-05
0.9312413717 	0.02136957934 	0.01001798305 	6.372980132e-07 	0.02705555642 	1.731137054e-06 	5.157541024e-05
0.9402750304 	0.02249772577 	0.01054728394 	5.738407996e-07 	0.02848625056 	1.566895419e-06 	5.430271092e-05
0.9487092242 	0.02355247615 	0.01104247052 	4.812445015e-07 	0.02982932431 	1.318677991e-06 	5.686298277e-05
0.9565837329 	0.02448608996 	0.01148099411 	3.793337261e-07 	0.03102176646 	1.04190411e-06 	5.913610894e-05
0.9639356968 	0.02520818034 	0.01182057349 	2.902767176e-07 	0.03194709386 	7.982320326e-07 	6.090004014e-05
0.9688006083 	0.02568812951 	0.01204651557 	2.268212825e-07 	0.03256376444 	6.236169205e-07 	6.207558564e-05
0.9731064834 	0.02601363908 	0.0121996798 	1.82214681e-07 	0.0329820976 	5.003294151e-07 	6.287304492e-05
0.976917562 	0.02623368059 	0.01230321525 	1.487709962e-07 	0.03326515752 	4.076067006e-07 	6.341263581e-05
0.9802907021 	0.02634388761 	0.01235520923 	1.24149125e-07 	0.03340791985 	3.392166764e-07 	6.368478048e-05
0.9832762282 	0.02632861189 	0.01234842439 	1.061605607e-07 	0.03339102688 	2.892345411e-07 	6.36525778e-05
0.9859186816 	0.02615287586 	0.01226714263 	9.299606681e-08 	0.0331724777 	2.527085155e-07 	6.323596231e-05
0.9882574856 	0.02574486377 	0.01207876272 	8.325612298e-08 	0.0326647987 	2.257758964e-07 	6.226818502e-05
0.990327533 	0.02495771031 	0.01171202312 	7.584951948e-08 	0.03167429814 	2.054016834e-07 	6.038001568e-05
0.9921597073 	0.02346428348 	0.01101136772 	6.981254294e-08 	0.02977847947 	1.889652401e-07 	5.676605837e-05
0.9937813429 	0.02076982024 	0.009744763749 	6.348433308e-08 	0.02632011963 	1.727057699e-07 	5.017346331e-05
0.9948347186 	0.01677740305 	0.007862263949 	5.621785772e-08 	0.02120674223 	1.525499549e-07 	4.04259448e-05
0.9958880943 	0.01074621635 	0.004862008063 	4.256414504e-08 	0.01343647219 	1.153643521e-07 	2.561365048e-05
0.9969414701 	0.00391161704 	0.001553964185 	1.756653924e-08 	0.004722420801 	5.013483439e-08 	9.002246575e-06
0.9979948458 	0.0004198792949 	8.504782162e-05 	1.246722962e-09 	0.0004435962386 	5.382928192e-09 	8.456177219e-07
0.9990482216 	5.704147476e-06 	1.476865456e-07 	2.308305339e-12 	5.697944605e-06 	6.812143345e-11 	1.086186608e-08
0.9990482216 	5.704147476e-06 	1.476865456e-07 	2.308305339e-12 	5.697944605e-06 	6.812143345e-11 	1.086186608e-08
