0.121376578 	2.540579749e-05 	-3.165021094e-07 	-1.311906267e-08 	2.155149023e-05 	-4.153856888e-07 	4.108313031e-08
0.123583729 	0.003215141184 	-0.0004452598256 	7.654144136e-07 	0.001968211701 	-2.849324904e-05 	3.751958539e-06
0.1257894093 	0.01164661009 	-0.003384792804 	3.865439153e-05 	0.008981754016 	-0.0001136230082 	1.71217195e-05
0.1279925952 	0.01671255136 	-0.006470315443 	6.835044333e-05 	0.01700186336 	-0.000143654387 	3.241027698e-05
0.1301922761 	0.01636143573 	-0.007729324331 	6.866426614e-05 	0.02237320276 	-0.0001111292009 	4.264954277e-05
0.132387455 	0.0158431924 	-0.008280013132 	6.729538985e-05 	0.02591299718 	-8.381057035e-05 	4.939737477e-05
0.1357557942 	0.01466772898 	-0.007974061052 	5.341896921e-05 	0.02728713241 	-4.432783171e-05 	5.201685844e-05
0.1395413836 	0.01300833364 	-0.007453161463 	4.118309752e-05 	0.02691286226 	-9.47678583e-06 	5.13033955e-05
0.1437868381 	0.01186119081 	-0.006942779857 	3.52747789e-05 	0.02577524647 	9.630683922e-06 	4.913478362e-05
0.1485346694 	0.01123500345 	-0.006473880929 	3.32448308e-05 	0.02460171188 	1.39933967e-05 	4.689770053e-05
0.1539572698 	0.01058418633 	-0.006029374557 	2.962970121e-05 	0.02335775942 	1.288614841e-05 	4.452638142e-05
0.1600645007 	0.00981800014 	-0.005602432283 	2.349423212e-05 	0.02189477018 	1.078008559e-05 	4.17375173e-05
0.1668783649 	0.009157103397 	-0.005301359795 	1.738937788e-05 	0.02056178674 	7.499243696e-06 	3.919648038e-05
0.1744706299 	0.008558986647 	-0.005060031907 	1.123577044e-05 	0.0194277729 	5.036102914e-06 	3.703473483e-05
0.1830959347 	0.008044665202 	-0.004865251023 	5.325163832e-06 	0.01859650222 	2.675250481e-06 	3.545010186e-05
0.1922476596 	0.007625340902 	-0.004723409075 	6.093762571e-07 	0.0180588957 	-3.631816527e-06 	3.442527441e-05
0.1926955792 	0.007607734729 	-0.004711860549 	3.739170779e-07 	0.0180168131 	-3.414716187e-08 	3.434505329e-05
0.2053746929 	0.007347238877 	-0.004516910486 	1.009207465e-05 	0.0174898334 	-4.213248094e-07 	3.33404835e-05
0.2189675343 	0.006842141685 	-0.004162086771 	1.769949007e-05 	0.01648442953 	3.973274821e-06 	3.14239043e-05
0.2334990144 	0.006874236508 	-0.004155843988 	2.710439845e-05 	0.01665299796 	3.320561358e-06 	3.174524257e-05
0.2489714712 	0.006730008545 	-0.004039206379 	3.501868349e-05 	0.01648407096 	6.120749509e-06 	3.142322076e-05
0.2654937654 	0.006672261412 	-0.003970907898 	4.258625802e-05 	0.01656604557 	9.692916066e-06 	3.157948716e-05
0.2832036071 	0.006665623644 	-0.003921548656 	4.29879325e-05 	0.01681610678 	9.090259185e-06 	3.205617333e-05
0.3020930082 	0.006654850542 	-0.003851096952 	3.403216192e-05 	0.01718821944 	1.111858831e-05 	3.276552347e-05
0.3222472526 	0.00669127559 	-0.003794266042 	2.682877393e-05 	0.01770526895 	7.805190403e-06 	3.375116355e-05
0.3437457136 	0.006576671915 	-0.003603126582 	1.872269909e-05 	0.01797741226 	6.704176694e-06 	3.426994432e-05
0.366723401 	0.006611302248 	-0.003448232688 	1.167873832e-05 	0.01874153858 	3.948459643e-06 	3.572658148e-05
0.3912146542 	0.00649137548 	-0.003130384233 	4.49828008e-06 	0.0192114867 	1.686758273e-06 	3.662243321e-05
0.4093312864 	0.006480171101 	-0.002874067821 	5.330568395e-06 	0.01980457243 	-6.120907383e-06 	3.775301944e-05
0.4171316319 	0.006487885658 	-0.002751932028 	2.291686767e-06 	0.02005284551 	5.996524249e-07 	3.822629694e-05
0.444521887 	0.006472798086 	-0.002204397747 	8.7781374e-06 	0.02082783852 	2.309493351e-06 	3.970364901e-05
0.4737879914 	0.006517156554 	-0.001505108843 	1.345828167e-05 	0.02173003199 	3.306733974e-06 	4.142348052e-05
0.5050603485 	0.006624862117 	-0.0005571392578 	1.530814892e-05 	0.02261066912 	3.747985568e-06 	4.310221964e-05
0.5384624778 	0.006976064552 	0.0006328613283 	1.374852569e-05 	0.02329155534 	5.403954885e-06 	4.440017803e-05
0.574124097 	0.007658899262 	0.001883746023 	1.046442939e-05 	0.02366245817 	9.4673157e-06 	4.510722192e-05
0.6096731358 	0.008513454266 	0.002964770348 	7.714235593e-06 	0.02382476675 	1.297270402e-05 	4.541662717e-05
0.642780273 	0.009417814065 	0.003788404037 	5.843296659e-06 	0.02381918274 	1.425945003e-05 	4.54059825e-05
0.6736372215 	0.01028334854 	0.004401028078 	4.54926938e-06 	0.02373358015 	1.401996672e-05 	4.524280018e-05
0.7024167125 	0.01103471734 	0.00488151792 	3.543593257e-06 	0.02365179653 	1.284473177e-05 	4.508689786e-05
0.7292743072 	0.0116810423 	0.005261153138 	2.654867592e-06 	0.02355282293 	1.114897843e-05 	4.489822667e-05
0.7543509671 	0.01223103906 	0.005561195059 	1.777930768e-06 	0.02342270009 	9.121716254e-06 	4.465017638e-05
0.777772227 	0.01268930866 	0.005798874908 	1.018024523e-06 	0.0232549167 	7.159205017e-06 	4.43303346e-05
0.7996531056 	0.01305899196 	0.005986055687 	4.557742473e-07 	0.02304692167 	5.512968648e-06 	4.393383826e-05
0.8200980707 	0.01334672822 	0.006128912769 	4.738672738e-08 	0.0227932378 	4.17346494e-06 	4.345024631e-05
0.8392033992 	0.01355993806 	0.006232671547 	-2.384502511e-07 	0.02249081517 	3.101856126e-06 	4.287374472e-05
0.8570577716 	0.01370672822 	0.006302201786 	-4.225597449e-07 	0.02213907345 	2.253815074e-06 	4.220322723e-05
0.8737433156 	0.01379574148 	0.006342745915 	-5.218215583e-07 	0.02174040964 	1.596185969e-06 	4.14432632e-05
0.8893364195 	0.01383591837 	0.006360261115 	-5.587450948e-07 	0.02130021221 	1.094416564e-06 	4.060412456e-05
0.9039082323 	0.01383569973 	0.006361421675 	-5.555370956e-07 	0.0208267685 	7.141555603e-07 	3.970160927e-05
0.917525146 	0.01380338558 	0.00635260354 	-5.291074038e-07 	0.02032705413 	4.236143184e-07 	3.874901478e-05
0.9302491908 	0.01374312145 	0.006340309365 	-4.910721858e-07 	0.01981086687 	1.942271288e-07 	3.776501839e-05
0.9421383606 	0.01366840033 	0.006302667585 	-4.493571396e-07 	0.01930525647 	1.890363219e-08 	3.680118445e-05
0.9500106837 	0.01359273562 	0.006260811013 	-4.212741019e-07 	0.01887634486 	-1.206033176e-07 	3.598355971e-05
0.9569817698 	0.01351420039 	0.006238864465 	-3.929589109e-07 	0.01851935716 	-2.224555075e-07 	3.530304193e-05
0.9631544511 	0.01342925389 	0.006214900634 	-3.618043993e-07 	0.01818390344 	-2.991431168e-07 	3.466357391e-05
0.9686199044 	0.01333365016 	0.006188263981 	-3.226449614e-07 	0.01786466392 	-3.396989615e-07 	3.405501466e-05
0.9734589462 	0.01322267496 	0.006157632131 	-2.6906342e-07 	0.0175534418 	-3.336560173e-07 	3.34617388e-05
0.9777432055 	0.01308813522 	0.006124676546 	-1.875994014e-07 	0.01724102433 	-2.649331921e-07 	3.286618427e-05
0.9815361564 	0.01291525775 	0.006078349148 	-1.222540799e-07 	0.01690192697 	-1.595631546e-07 	3.221977045e-05
0.9848940386 	0.01266255425 	0.005971582558 	-6.420377942e-08 	0.01645713511 	-3.097928777e-08 	3.137187355e-05
0.9878666762 	0.01218931764 	0.005741851486 	6.884414428e-10 	0.01573450506 	7.853592724e-08 	2.999433983e-05
0.9904982048 	0.01120976488 	0.005275308457 	8.445078402e-09 	0.01438068915 	3.229148257e-08 	2.741359042e-05
0.9922078258 	0.009592686366 	0.004549647016 	-1.391857557e-07 	0.01222305018 	-2.439759442e-07 	2.330053086e-05
0.993917638 	0.00665122109 	0.003110997469 	-2.916586836e-07 	0.008401970653 	-6.201187062e-07 	1.601649127e-05
0.9956276413 	0.002573743322 	0.00109893061 	-1.6353259e-07 	0.003181193242 	-4.227635375e-07 	6.064238486e-06
0.9973378359 	0.0002423764664 	5.682774411e-05 	-7.78177683e-09 	0.0002609757903 	-2.414853187e-08 	4.974923907e-07
0.9990482216 	2.00420865e-06 	5.384438314e-08 	1.148929321e-11 	2.002292063e-06 	3.125865697e-10 	3.81692518e-09
