0.4709558481 	0.1449641378 	0.001123258244 	-4.746177651e-08
0.4720092239 	0.5527792446 	0.0009523152351 	1.374504461e-08
0.4730625996 	1.050779908 	-0.00144289162 	8.624094309e-08
0.4741159754 	1.42362174 	-0.001345789038 	-1.977827658e-08
0.4751693511 	1.671874872 	0.0002949642121 	-7.402735889e-08
0.4762227269 	1.862365367 	0.0005532220102 	-5.692985774e-08
0.4778443634 	2.033266776 	0.0004457928229 	-7.647943132e-08
0.4796765386 	2.178810227 	0.0004281807988 	-1.12678594e-07
0.4817465869 	2.301265493 	0.0004583972019 	-1.545181374e-07
0.4840853915 	2.409181914 	0.0005661314108 	-2.069473325e-07
0.4867278453 	2.507510423 	0.0007233552607 	-2.731828994e-07
0.4897133715 	2.599137573 	0.0009215739583 	-3.563236049e-07
0.4930865115 	2.685546514 	0.001165946317 	-4.596455727e-07
0.4968975894 	2.766970391 	0.001460739058 	-5.754685777e-07
0.5012034633 	2.842319976 	0.00178741042 	-6.582712056e-07
0.506068373 	2.914920507 	0.002137309004 	-7.69626627e-07
0.5134203412 	2.980714014 	0.002558002771 	-8.935242546e-07
0.5212948542 	3.02864036 	0.002972933978 	-8.569592659e-07
0.529729052 	3.059100565 	0.003240200685 	-7.682885495e-07
0.5387627144 	3.077499989 	0.003393011015 	-7.127746289e-07
0.5484384488 	3.087965389 	0.003489134622 	-6.542255727e-07
0.5588018907 	3.093275951 	0.003537069165 	-6.205848309e-07
0.5699019192 	3.095070451 	0.003549870909 	-5.881572998e-07
0.5817908876 	3.094259412 	0.003528239512 	-5.533999233e-07
0.5945248701 	3.091328298 	0.003473630735 	-5.1960005e-07
0.6081639266 	3.086514979 	0.003387470485 	-4.871514462e-07
0.6227723857 	3.079908222 	0.003269893151 	-4.551560114e-07
0.638419148 	3.071502622 	0.003119725779 	-4.225904717e-07
0.6551780116 	3.061229736 	0.002934791056 	-3.885305948e-07
0.6731280194 	3.048975695 	0.002712171578 	-3.521419409e-07
0.6923538328 	3.034590037 	0.002448478859 	-3.126953659e-07
0.7129461301 	3.017886762 	0.002140104749 	-2.696060744e-07
0.7350020349 	2.998974017 	0.001789812818 	-2.232574723e-07
0.7570579485 	2.978773347 	0.001416867445 	-1.7602816e-07
0.7776502527 	2.958391325 	0.001045239716 	-1.302905718e-07
0.7968760713 	2.938230918 	0.0006867137349 	-8.618436694e-08
0.814826083 	2.918278914 	0.0003458154849 	-4.25642629e-08
0.831584949 	2.898450566 	2.620192402e-05 	1.928865697e-09
0.8472317127 	2.878594171 	-0.0002688019486 	4.859587253e-08
0.8618401721 	2.858488304 	-0.0005359193838 	9.840702978e-08
0.8754792281 	2.837831937 	-0.0007717672615 	1.520940656e-07
0.8882132094 	2.816227234 	-0.0009724860466 	2.108456513e-07
0.9001021759 	2.793155594 	-0.001133188893 	2.741110299e-07
0.9112022019 	2.767948012 	-0.00125116508 	3.214152979e-07
0.9215656407 	2.739738114 	-0.001330672474 	3.845368014e-07
0.9312413717 	2.707308747 	-0.001352101846 	4.665908884e-07
0.9402750304 	2.668668922 	-0.001301040817 	5.006925456e-07
0.9487092242 	2.620826644 	-0.001199094135 	5.298941401e-07
0.9565837329 	2.560547033 	-0.001039118498 	5.572035855e-07
0.9639356968 	2.491020169 	-0.0008350315639 	5.215174926e-07
0.9688006083 	2.422550928 	-0.0006487346667 	4.469556273e-07
0.9731064834 	2.355429599 	-0.0004977065362 	3.647902253e-07
0.976917562 	2.284580202 	-0.0003721515979 	2.85111398e-07
0.9802907021 	2.20984372 	-0.000272642031 	2.148262597e-07
0.9832762282 	2.13040747 	-0.0001975486926 	1.567772666e-07
0.9859186816 	2.044629847 	-0.0001460040475 	1.112241396e-07
0.9882574856 	1.949707834 	-0.0001299471683 	7.716962341e-08
0.990327533 	1.840977169 	-0.0001829612951 	5.256402072e-08
0.9921597073 	1.710491011 	-0.0002798903503 	3.358975274e-08
0.9937813429 	1.556059876 	-0.0003795839963 	1.997185322e-08
0.9948347186 	1.383412468 	7.9166654e-05 	1.385383784e-08
0.9958880943 	1.16050028 	0.001308924874 	8.001403419e-09
0.9969414701 	0.8393011303 	0.0007457280187 	-2.054002895e-09
0.9979948458 	0.4346309747 	-0.0009723080436 	-2.412529082e-09
0.9990482216 	0.1247595598 	-0.0008043967961 	1.493041979e-09
0.9990482216 	0.1247595598 	-0.0008043967961 	1.493041979e-09
