0.3524915403 	0.20509095 	0.03453016897 	-0.0001112685083
0.3536068642 	0.7822818457 	0.1238836561 	-0.0004182902771
0.3547223496 	1.43736489 	0.2224669563 	-0.0007564382377
0.3558378442 	1.87749306 	0.2924954103 	-0.0009818289338
0.3569531967 	2.152096117 	0.3367618278 	-0.001121619078
0.3580682569 	2.36329399 	0.3684996902 	-0.00122356618
0.35978394 	2.547617839 	0.3955508323 	-0.001309063617
0.361720438 	2.684780005 	0.4148586947 	-0.001355545809
0.3639049575 	2.772079562 	0.4257545647 	-0.001370393854
0.3663674413 	2.823323732 	0.430310092 	-0.001344665378
0.36920096 	2.851560947 	0.4306803058 	-0.001260223464
0.3724184949 	2.867031569 	0.4285670382 	-0.001179414535
0.3760438857 	2.876121147 	0.4249139507 	-0.00109797748
0.3801277765 	2.881888531 	0.4201440039 	-0.001012396562
0.3848143963 	2.885623517 	0.4143651182 	-0.0009197064966
0.3901331779 	2.887961886 	0.4069834369 	-0.0008184948041
0.3981914987 	2.888874296 	0.3973290417 	-0.000683196732
0.4069277984 	2.887933589 	0.386334112 	-0.0005501931326
0.4163791821 	2.885000267 	0.3747062499 	-0.0004183770639
0.4265723647 	2.879452262 	0.362155954 	-0.0002925120357
0.4375983103 	2.870851061 	0.3484999675 	-0.0001794550196
0.4495688352 	2.859750239 	0.3340580929 	-7.855190333e-05
0.4609124074 	2.848650074 	0.3209882943 	-0.0001180028273
0.4625033521 	2.847068254 	0.319161825 	-9.710011891e-06
0.4764361663 	2.833151208 	0.3039114196 	-8.206425433e-05
0.4915177733 	2.81810794 	0.2882602747 	-0.0001423539392
0.5078705597 	2.801881734 	0.2722372857 	-0.0001901448064
0.5255559403 	2.784447041 	0.2559015328 	-0.0002250149396
0.5446528007 	2.765774243 	0.2393095674 	-0.0002471040363
0.5653073198 	2.745801633 	0.2225002386 	-0.0002571887056
0.5875706324 	2.724426065 	0.2055277065 	-0.0002562963762
0.6115522574 	2.701445711 	0.1884376569 	-0.0002459852403
0.6373531822 	2.676525673 	0.1712441908 	-0.0002280448343
0.6650736862 	2.649686572 	0.1542386813 	-0.0002048901288
0.6928473989 	2.621964523 	0.1382631947 	-0.0001798898914
0.7188076063 	2.594563188 	0.1239417936 	-0.0001561843478
0.7430616173 	2.567797845 	0.1112101349 	-0.0001349104361
0.7657166274 	2.54155671 	0.09981326074 	-0.0001162368675
0.7868765632 	2.515744806 	0.08955458478 	-0.0001000497794
0.8066407466 	2.490268437 	0.080274577 	-8.610414103e-05
0.825101173 	2.46503343 	0.07184240418 	-7.411838934e-05
0.8423446134 	2.439945084 	0.06415063801 	-6.381822566e-05
0.8584514973 	2.414903387 	0.05710999915 	-5.496630311e-05
0.8734970175 	2.389795927 	0.05064261268 	-4.737062089e-05
0.8875511498 	2.364485533 	0.04468475467 	-4.076620764e-05
0.900679109 	2.338763917 	0.03918846493 	-3.502287273e-05
0.9129417823 	2.312281262 	0.03409870771 	-3.011101888e-05
0.9243960038 	2.284551244 	0.02936198285 	-2.57847389e-05
0.9350948531 	2.254984357 	0.02494559739 	-2.192344316e-05
0.9450879208 	2.222763714 	0.02083241135 	-1.851959618e-05
0.954421548 	2.189278973 	0.01724998013 	-1.565071883e-05
0.9605997311 	2.157931458 	0.01444216858 	-1.353050947e-05
0.9660692856 	2.127352331 	0.01216412134 	-1.179914194e-05
0.9709113578 	2.094313416 	0.010146886 	-1.025366868e-05
0.9751978312 	2.057800714 	0.00835288067 	-8.89853178e-06
0.9789923751 	2.016363559 	0.006761020824 	-7.596282223e-06
0.9823513805 	1.967748749 	0.00537141605 	-6.314251544e-06
0.9853247881 	1.908189853 	0.004154799702 	-5.234712813e-06
0.987956823 	1.831627238 	0.003041775015 	-4.239418706e-06
0.9902866465 	1.728895201 	0.002044601104 	-3.21728983e-06
0.9923489342 	1.596195973 	0.00123221689 	-2.2739588e-06
0.993688642 	1.439357399 	0.001006042572 	-1.420543515e-06
0.9950284246 	1.228754649 	0.001688716901 	-7.615696554e-07
0.9963682821 	0.9126331689 	0.001132146707 	-4.458865771e-07
0.9977082144 	0.4898195857 	-0.0008556081709 	-2.656173879e-08
0.9990482216 	0.1430255617 	-0.0009681410381 	1.790007481e-07
0.9990482216 	0.1430255617 	-0.0009681410381 	1.790007481e-07
