0.3176601022 	0.2238081341 	0.0459937605 	-0.0002215070756
0.3188608126 	0.8527026188 	0.166576628 	-0.00080622112
0.3200616632 	1.547351816 	0.2971561858 	-0.001388733315
0.3212624417 	1.99410477 	0.3852852803 	-0.001703971204
0.3224629377 	2.264199259 	0.4383597396 	-0.001836302486
0.3236629424 	2.462100481 	0.4742789903 	-0.001872051125
0.3255088723 	2.616731213 	0.5012116686 	-0.001813697679
0.327591533 	2.713623382 	0.5163394042 	-0.001695133337
0.3299395659 	2.765216131 	0.5218103487 	-0.00156871416
0.3325842128 	2.791973331 	0.521814318 	-0.001454659128
0.3356287836 	2.806780131 	0.5189363684 	-0.001344767895
0.3390846671 	2.815929517 	0.5142831294 	-0.001231242454
0.3429748198 	2.822103569 	0.5083235446 	-0.001111296023
0.3473522547 	2.826442588 	0.5011920721 	-0.0009838203947
0.3523763078 	2.829434393 	0.4928825258 	-0.0008478211768
0.3580735657 	2.831301466 	0.4826060551 	-0.0007038818438
0.3666947432 	2.831582552 	0.4694033449 	-0.0005079609455
0.3760330498 	2.829091807 	0.4541745881 	-0.0003193274241
0.3861248366 	2.823503639 	0.4376647954 	-0.0001498599497
0.3969939915 	2.815342717 	0.4202671083 	-6.121799298e-07
0.3970449088 	2.815300338 	0.4201887721 	-5.161393655e-06
0.40862673 	2.805280207 	0.4024264892 	-0.0001206418766
0.4212554461 	2.794131115 	0.3840917486 	-0.0002254407479
0.4349065359 	2.781976355 	0.3653469053 	-0.0003118944362
0.4496703284 	2.768765416 	0.3462582584 	-0.0003791877376
0.465635286 	2.754401759 	0.3268577136 	-0.0004267691072
0.4829304922 	2.738818773 	0.3072063781 	-0.0004550793259
0.5016158678 	2.722000087 	0.2873879687 	-0.0004648374729
0.5217709233 	2.703909156 	0.2674794052 	-0.0004576914177
0.5435505126 	2.684482177 	0.2475368518 	-0.0003948298444
0.5670029 	2.663611144 	0.2276271216 	-0.0003081325734
0.592242101 	2.641079026 	0.2078075716 	-0.0002393843074
0.6193729967 	2.616523061 	0.1880894146 	-0.0001860386179
0.6485002409 	2.589922232 	0.1687956055 	-0.0001457992624
0.6776651358 	2.562282366 	0.1508495271 	-0.0001171909839
0.7049135212 	2.534807894 	0.1348981241 	-9.7358253e-05
0.7303637708 	2.507833308 	0.1208164164 	-8.310957611e-05
0.7541322613 	2.481272488 	0.1082864593 	-7.241433859e-05
0.7763305871 	2.455050575 	0.09706591761 	-6.406359841e-05
0.7970645851 	2.429082746 	0.08695997026 	-5.73040642e-05
0.8164316561 	2.403280628 	0.07781054311 	-5.165385469e-05
0.8345233061 	2.37755828 	0.06948983984 	-4.681003224e-05
0.8514240754 	2.35182279 	0.06189359811 	-4.257399619e-05
0.8672128418 	2.325959556 	0.05493291558 	-3.880368313e-05
0.8819628947 	2.299820046 	0.04853122975 	-3.542604646e-05
0.8957424737 	2.273196516 	0.04263173884 	-3.231708405e-05
0.9086152595 	2.245757638 	0.03717743083 	-2.9388109e-05
0.9206406786 	2.217033607 	0.0321054196 	-2.668726074e-05
0.9318742292 	2.186445361 	0.02737686064 	-2.418365288e-05
0.942367767 	2.153179335 	0.02297458801 	-2.182546821e-05
0.952169758 	2.118711166 	0.01913925114 	-1.974398455e-05
0.9586584556 	2.086581652 	0.01613037349 	-1.80231979e-05
0.9644032374 	2.055431264 	0.01368296104 	-1.64156318e-05
0.9694892196 	2.022057323 	0.01150804684 	-1.476701926e-05
0.9739918181 	1.985584096 	0.009569582323 	-1.326204223e-05
0.9779778424 	1.944766645 	0.007834093291 	-1.182391737e-05
0.9815064743 	1.897729314 	0.006295611355 	-1.033785168e-05
0.9846301336 	1.841308582 	0.004943179964 	-8.890088731e-06
0.9873952463 	1.769997365 	0.003700698573 	-7.538090368e-06
0.9898429272 	1.674913967 	0.002565598031 	-6.109409357e-06
0.9920095855 	1.551475998 	0.001613749596 	-4.558440262e-06
0.9934171184 	1.404078438 	0.001252071859 	-2.992779298e-06
0.9948247484 	1.203562048 	0.001830619031 	-1.819918965e-06
0.9962324756 	0.8979771636 	0.001218779306 	-1.154060505e-06
0.9976403 	0.4839279004 	-0.0008448078388 	-1.920525444e-07
0.9990482216 	0.1417936122 	-0.0009944536828 	2.770875119e-07
0.9990482216 	0.1417936122 	-0.0009944536828 	2.770875119e-07
