0.4709558481 	0.1336582855 	0.0009804234836 	-4.349513716e-08
0.4709558481 	0.1336582855 	0.0009804234836 	-4.349513716e-08
0.4720092239 	0.5100896399 	0.0009758372392 	-2.180045485e-08
0.4730625996 	0.9742376232 	-0.001201017461 	-5.14973196e-08
0.4741159754 	1.328113248 	-0.001401239739 	-1.728259242e-07
0.4751693511 	1.566075949 	7.298541668e-05 	-2.545082368e-07
0.4762227269 	1.7481041 	0.0003785667728 	-3.182529458e-07
0.4778443634 	1.909905334 	0.0002223257713 	-4.251216302e-07
0.4796765386 	2.045808144 	0.0001130610955 	-5.555831685e-07
0.4817465869 	2.158281911 	4.154246476e-05 	-6.932781584e-07
0.4840853915 	2.255632092 	2.823889876e-05 	-8.389528927e-07
0.4867278453 	2.34272408 	3.846142214e-05 	-9.916062568e-07
0.4897133715 	2.422569231 	5.830348457e-05 	-1.150497545e-06
0.4930865115 	2.497129396 	8.650005185e-05 	-1.318012694e-06
0.4968975894 	2.567729823 	0.0001239393135 	-1.496917667e-06
0.5012034633 	2.635277457 	0.0001719412752 	-1.688340884e-06
0.506068373 	2.706103924 	0.0002423372627 	-1.912315975e-06
0.5134203412 	2.7818337 	0.0003473822368 	-2.181542591e-06
0.5212948542 	2.852163026 	0.0004647723166 	-2.463129683e-06
0.529729052 	2.911251401 	0.0005657714476 	-2.739842285e-06
0.5387627144 	2.959236545 	0.0006769587396 	-3.008737803e-06
0.5484384488 	2.997213416 	0.0007979326656 	-3.251162062e-06
0.5588018907 	3.026820944 	0.0008780795216 	-3.472833935e-06
0.5699019192 	3.049278352 	0.0009274904285 	-3.679396572e-06
0.5817908876 	3.065589336 	0.0009566619748 	-3.866782884e-06
0.5945248701 	3.076793677 	0.0009502340051 	-4.041181545e-06
0.6081639266 	3.083844308 	0.0009150262786 	-4.202092564e-06
0.6227723857 	3.087493835 	0.0008570090965 	-4.341610837e-06
0.638419148 	3.088259426 	0.0007782991206 	-4.449251078e-06
0.6551780116 	3.086437403 	0.0006793257978 	-4.512631841e-06
0.6731280194 	3.082132619 	0.0005602372481 	-4.517531695e-06
0.6923538328 	3.075283376 	0.0004213754101 	-4.450238676e-06
0.7129461301 	3.065668483 	0.0002638092849 	-4.299811554e-06
0.7350020349 	3.053120201 	9.335370953e-05 	-4.063917966e-06
0.7570579485 	3.038027375 	-7.611391607e-05 	-3.769781602e-06
0.7776502527 	3.021100495 	-0.0002308667583 	-3.468145678e-06
0.7968760713 	3.002628666 	-0.0003642957494 	-3.195096866e-06
0.814826083 	2.982553272 	-0.0004734132789 	-2.968290988e-06
0.831584949 	2.960740078 	-0.0005579844818 	-2.774046972e-06
0.8472317127 	2.936999166 	-0.0006173000653 	-2.593878434e-06
0.8618401721 	2.911055322 	-0.000651866306 	-2.440394002e-06
0.8754792281 	2.882490496 	-0.0006625997825 	-2.280285098e-06
0.8882132094 	2.850728025 	-0.0006452239512 	-2.07901307e-06
0.9001021759 	2.815080377 	-0.0006049294709 	-1.871046833e-06
0.9112022019 	2.774941754 	-0.0005509746434 	-1.679739685e-06
0.9215656407 	2.729996265 	-0.0004845200813 	-1.50214535e-06
0.9312413717 	2.680141458 	-0.0004109685534 	-1.337581945e-06
0.9402750304 	2.625225113 	-0.000338946285 	-1.184851889e-06
0.9487092242 	2.564805467 	-0.0002733472776 	-1.041386613e-06
0.9565837329 	2.497959169 	-0.0002144691875 	-9.052125869e-07
0.9639356968 	2.428714873 	-0.0001670806571 	-7.835237853e-07
0.9688006083 	2.365027815 	-0.0001359056107 	-6.853169661e-07
0.9731064834 	2.304532267 	-0.0001144023326 	-6.029701571e-07
0.976917562 	2.241261864 	-9.718932468e-05 	-5.273728881e-07
0.9802907021 	2.174209962 	-8.388895375e-05 	-4.574561775e-07
0.9832762282 	2.1020224 	-7.418790321e-05 	-3.92325334e-07
0.9859186816 	2.022759353 	-6.992840207e-05 	-3.315103515e-07
0.9882574856 	1.933492113 	-8.593883992e-05 	-2.752910527e-07
0.990327533 	1.829542251 	-0.0001592679566 	-2.242195231e-07
0.9921597073 	1.703007333 	-0.0002705946797 	-1.770775218e-07
0.9937813429 	1.551549365 	-0.00038123268 	-1.321203949e-07
0.9948347186 	1.380913621 	7.341467731e-05 	-8.457290049e-08
0.9958880943 	1.159430487 	0.001314545347 	-3.980759821e-08
0.9969414701 	0.8389986988 	0.0007528315764 	-2.832534655e-08
0.9979948458 	0.4344613349 	-0.0009823222123 	-2.744129248e-08
0.9990482216 	0.1245014254 	-0.0008133777344 	3.20378985e-08
