0 	0.6575717388 	-2.21903467e-14 	-6.921771102e-21
0.001195379892 	0.6575765208 	-7.158491709e-05 	2.551365165e-08
0.002390753696 	0.6575961423 	-0.0001345604676 	4.87194251e-08
0.003586121388 	0.6576337268 	-0.0001975927758 	7.266297523e-08
0.004781482955 	0.6576873057 	-0.0002622929333 	9.794886073e-08
0.00597683839 	0.6577565631 	-0.0003272879903 	1.240833755e-07
0.007172187695 	0.6578413601 	-0.0003923206755 	1.509706495e-07
0.008367530876 	0.6579415998 	-0.0004573656253 	1.785981657e-07
0.00956286795 	0.6580785021 	-0.0005334880128 	2.113449465e-07
0.01153336581 	0.6582887662 	-0.0006329313329 	2.566403895e-07
0.01366470367 	0.658578978 	-0.0007490956252 	3.112461098e-07
0.01597000861 	0.658947095 	-0.0008746050238 	3.727854102e-07
0.01846347903 	0.6594085345 	-0.001010237856 	4.422016368e-07
0.02116477834 	0.6599821296 	-0.001156943181 	5.206084476e-07
0.02409726593 	0.6606897627 	-0.001315596389 	6.092605628e-07
0.02726910944 	0.6615557635 	-0.001486830461 	7.094342897e-07
0.03069984325 	0.6626086133 	-0.00167136004 	8.225224871e-07
0.03441059563 	0.6638821986 	-0.001870043538 	9.501691874e-07
0.03842421882 	0.6654170999 	-0.00208388238 	1.094302524e-06
0.04277572398 	0.6672621646 	-0.002314018219 	1.257166307e-06
0.047493962 	0.6694723407 	-0.002561286208 	1.440978976e-06
0.05259730025 	0.6721083265 	-0.002826153876 	1.647873494e-06
0.05811716632 	0.6752430559 	-0.003109260721 	1.793694719e-06
0.0641017149 	0.6794843695 	-0.003451452699 	1.901319225e-06
0.07371101367 	0.6856500368 	-0.003887216477 	1.983917789e-06
0.0838011218 	0.6935219631 	-0.004367723841 	2.049648488e-06
0.09441591281 	0.7027356341 	-0.004852053471 	2.074581863e-06
0.1055655333 	0.7134095726 	-0.00533566605 	2.056654072e-06
0.1172867857 	0.725667916 	-0.005813090445 	1.993797336e-06
0.1296084137 	0.7396367724 	-0.006277672682 	1.884901966e-06
0.1425501322 	0.7554448427 	-0.006721465542 	1.730712689e-06
0.1561621861 	0.7732290403 	-0.007135178757 	1.532491551e-06
0.1704637973 	0.7931193851 	-0.007507617969 	1.294557176e-06
0.1854894881 	0.8152436628 	-0.007825778324 	1.023480365e-06
0.2012784391 	0.8397303322 	-0.008074798204 	7.288002976e-07
0.2178742881 	0.866689407 	-0.008237794039 	4.234313647e-07
0.2353087472 	0.8961879457 	-0.008296248325 	1.244313438e-07
0.2434168089 	0.9103663182 	-0.008267509905 	1.386459306e-05
0.2536237706 	0.9282269298 	-0.008231376114 	1.584441254e-07
0.2728626088 	0.9626902342 	-0.008025757497 	3.996368543e-07
0.2930699971 	0.9992514289 	-0.007667946036 	5.72381224e-07
0.3142923473 	1.037244531 	-0.007160592782 	6.73080144e-07
0.3365779387 	1.075523244 	-0.006531625017 	7.271978328e-07
0.3599771106 	1.112445417 	-0.005842252451 	7.898493925e-07
0.3845443331 	1.146196845 	-0.005171908677 	9.037478039e-07
0.4103336833 	1.175352438 	-0.004575526601 	1.049522736e-06
0.437401549 	1.199053132 	-0.004055445615 	1.169631575e-06
0.4658097611 	1.216594319 	-0.003580634985 	1.231419251e-06
0.4956212291 	1.227125032 	-0.003129845851 	1.241700257e-06
0.5242549062 	1.230750546 	-0.002708918256 	1.218539359e-06
0.5516144314 	1.22916024 	-0.002315552769 	1.178982568e-06
0.5777540798 	1.223963127 	-0.001942328228 	1.128992439e-06
0.6027273529 	1.216161873 	-0.001584701926 	1.070680844e-06
0.6265854318 	1.206311467 	-0.001240630983 	1.005152186e-06
0.6493773687 	1.19475285 	-0.0009104072846 	9.341893457e-07
0.6711504432 	1.181763412 	-0.0005962408247 	8.562088897e-07
0.691949942 	1.167569206 	-0.0003003681542 	7.797364594e-07
0.7118192165 	1.152131538 	-2.091275088e-05 	7.164516691e-07
0.7307997447 	1.135135812 	0.0002495158969 	6.636671588e-07
0.7489311958 	1.116442797 	0.0005156691852 	6.106384499e-07
0.766251497 	1.096213367 	0.0007764553142 	5.498415789e-07
0.7827969007 	1.074687542 	0.001028085749 	4.813049944e-07
0.7986020549 	1.052096743 	0.001265117388 	4.040492834e-07
0.8137000633 	1.028646434 	0.001482175893 	3.168896015e-07
0.8281225481 	1.004523866 	0.001674356506 	2.192891573e-07
0.8418997296 	0.979920373 	0.001836583881 	1.098939847e-07
0.8550604792 	0.9550712689 	0.00196227498 	-1.583755179e-08
0.8676323727 	0.9302909869 	0.002042304971 	-1.62634726e-07
0.8796417562 	0.9059399007 	0.002067411625 	-3.206797993e-07
0.8911137983 	0.8822480568 	0.002037194542 	-4.560282712e-07
0.9020725399 	0.8591116303 	0.001958524071 	-5.456712911e-07
0.9125409481 	0.8362256844 	0.001841021319 	-5.886703621e-07
0.9225409617 	0.8133596397 	0.001693474496 	-6.000665909e-07
0.9320935383 	0.7920882849 	0.001534872493 	-5.949465647e-07
0.9383021165 	0.7744965905 	0.00139249535 	-5.780985794e-07
0.9440421184 	0.7590205829 	0.001263113134 	-5.543776592e-07
0.9493489086 	0.7437995832 	0.001135399919 	-5.241973408e-07
0.9542551826 	0.7286919055 	0.001011197497 	-4.889891999e-07
0.9587911684 	0.7135418883 	0.0008919737546 	-4.500725137e-07
0.9629848123 	0.6981748142 	0.0007788698167 	-4.086757583e-07
0.9668619519 	0.6823892956 	0.0006727357134 	-3.65909556e-07
0.9704464745 	0.6659461216 	0.0005741785538 	-3.227601126e-07
0.9737604645 	0.6485518701 	0.0004836064893 	-2.800978548e-07
0.9768243398 	0.6298344149 	0.0004012649951 	-2.386937203e-07
0.979656977 	0.6093053759 	0.000327265275 	-1.99236427e-07
0.9822758283 	0.5863007588 	0.0002615973406 	-1.623417026e-07
0.9846970285 	0.5598839515 	0.0002041104339 	-1.28536787e-07
0.986935495 	0.5286825477 	0.0001545956412 	-9.829724902e-08
0.9890050191 	0.4939310523 	0.0001159465496 	-7.40525167e-08
0.9902604194 	0.4595242534 	8.906601686e-05 	-5.694784026e-08
0.9915158197 	0.4217507574 	6.804606615e-05 	-4.355036878e-08
0.99277122 	0.373495955 	4.907815378e-05 	-3.149553597e-08
0.9940266203 	0.3124131787 	3.237044742e-05 	-2.091231744e-08
0.9952820206 	0.239766918 	1.857372925e-05 	-1.215652479e-08
0.9965374209 	0.1608683555 	8.460007905e-06 	-5.652326554e-09
0.9977928213 	0.08041368893 	2.350322704e-06 	-1.616306941e-09
0.9990482216 	0.02505272278 	1.835211229e-07 	-1.391579854e-10
0.9990482216 	0.02505272278 	1.835211229e-07 	-1.391579854e-10
