0.4329705831 	0.02168438371 	-0.002288617764 	-3.940742695e-06
0.4329705831 	0.02168438371 	-0.002288617764 	-3.940742695e-06
0.4336582197 	0.08229173797 	-0.008714692731 	-1.600118673e-05
0.4343458845 	0.1662726804 	-0.01759137955 	-3.359886558e-05
0.435033562 	0.2511894211 	-0.02648938612 	-5.235842912e-05
0.435721237 	0.334496059 	-0.03515887274 	-7.169456868e-05
0.4364088945 	0.4119119878 	-0.04315825368 	-9.042115627e-05
0.4370965192 	0.4799355554 	-0.05012740591 	-0.0001074128957
0.4377840962 	0.5378565256 	-0.05600066628 	-0.00012225865
0.4384716106 	0.5943604597 	-0.06165332991 	-0.0001369305482
0.4396048007 	0.6551789228 	-0.06761855162 	-0.000153386635
0.4408301834 	0.7129469327 	-0.07314715708 	-0.0001694369376
0.442155138 	0.7637224369 	-0.07786652528 	-0.0001841006456
0.4435875973 	0.808975606 	-0.08193092548 	-0.0001976715384
0.4451393746 	0.8498440454 	-0.08545859836 	-0.000210365271
0.4468251342 	0.8871426902 	-0.08853545673 	-0.0002223503852
0.4486476539 	0.9214764139 	-0.09122656005 	-0.0002337085717
0.4506179725 	0.9533980225 	-0.0935883442 	-0.0002445334005
0.4527480137 	0.9833419073 	-0.09566385074 	-0.0002549113122
0.4550506568 	1.011626324 	-0.09748305561 	-0.0002648990445
0.457547585 	1.03851687 	-0.09906832396 	-0.0002745505686
0.4602553165 	1.064191343 	-0.1004343737 	-0.0002838722583
0.4631820544 	1.088768701 	-0.1015916493 	-0.000292834039
0.4663454095 	1.112395297 	-0.1025500187 	-0.0003014266905
0.4697750269 	1.138015716 	-0.1034069513 	-0.0003017806156
0.4752797523 	1.16720477 	-0.1040998064 	-0.0002927520064
0.4810546637 	1.196132921 	-0.1044848223 	-0.0002823657567
0.4871275915 	1.222691967 	-0.1045380682 	-0.000270821574
0.4935010475 	1.247344315 	-0.1043055919 	-0.0002584935702
0.5001970079 	1.270419971 	-0.1038191452 	-0.0002456440525
0.5072313365 	1.292141365 	-0.1031014686 	-0.000232490248
0.5146128017 	1.31264872 	-0.1021679996 	-0.0002192435009
0.522372535 	1.332024542 	-0.1010281059 	-0.0002060308223
0.5305185055 	1.350286445 	-0.09968934621 	-0.000193011636
0.5390696397 	1.367419575 	-0.098158012 	-0.000180314518
0.5480480231 	1.383396721 	-0.09643833933 	-0.0001680474952
0.5574787398 	1.398138589 	-0.09453141672 	-0.0001562937391
0.5673778745 	1.411452809 	-0.09243405195 	-0.0001451329789
0.5777687301 	1.42300989 	-0.09013734749 	-0.0001346147672
0.5886753022 	1.432382685 	-0.08763091082 	-0.0001247670018
0.6001224249 	1.439173105 	-0.08490613701 	-0.0001156107112
0.612135919 	1.443202106 	-0.08196622478 	-0.000107153581
0.6247427427 	1.44467886 	-0.0788430806 	-9.933563913e-05
0.6379711434 	1.444144452 	-0.07559450218 	-9.238955356e-05
0.6518521492 	1.442124723 	-0.0722588511 	-8.631386945e-05
0.6664163046 	1.438851696 	-0.06883912897 	-8.076059726e-05
0.6816956859 	1.434364272 	-0.06534131568 	-7.595795596e-05
0.6977261201 	1.428634975 	-0.06177434825 	-7.195744823e-05
0.7145439933 	1.421656834 	-0.05820047879 	-6.858627611e-05
0.7306948353 	1.413657556 	-0.05477532395 	-6.576991707e-05
0.7461260558 	1.404804454 	-0.05156036959 	-6.337231072e-05
0.7608694262 	1.395062506 	-0.04853126875 	-6.122032171e-05
0.7749560395 	1.384334282 	-0.04566333189 	-5.920110935e-05
0.7884153044 	1.372513884 	-0.04293583379 	-5.724244664e-05
0.8012751941 	1.359546689 	-0.04033392245 	-5.529734154e-05
0.8135625446 	1.345472758 	-0.03784922238 	-5.333943152e-05
0.8253029381 	1.330424014 	-0.03547795959 	-5.135724427e-05
0.8365207756 	1.314575328 	-0.03321796814 	-4.934738534e-05
0.8472393403 	1.298084732 	-0.03106617171 	-4.731004224e-05
0.8574808552 	1.281062734 	-0.02901801074 	-4.524741485e-05
0.8672665371 	1.263575163 	-0.02706817339 	-4.316284597e-05
0.8766166457 	1.245656757 	-0.02521115556 	-4.105980931e-05
0.8855505324 	1.227320585 	-0.02344142555 	-3.89414233e-05
0.8940866825 	1.208561762 	-0.02175351181 	-3.68103621e-05
0.9022427488 	1.189357166 	-0.0201420213 	-3.466906145e-05
0.910035603 	1.169662464 	-0.01860157595 	-3.251932314e-05
0.9174813694 	1.14940701 	-0.0171267441 	-3.036181015e-05
0.9245954548 	1.128486641 	-0.0157120073 	-2.819606286e-05
0.9313925819 	1.106754467 	-0.0143516741 	-2.602112755e-05
0.9378868249 	1.084010281 	-0.01303990142 	-2.383601322e-05
0.9440916333 	1.059989683 	-0.01177093613 	-2.164060783e-05
0.9500198624 	1.03435439 	-0.01053951793 	-1.943541578e-05
0.9556838002 	1.006686277 	-0.00934098445 	-1.722095319e-05
0.9610951902 	0.9789536283 	-0.00826117678 	-1.51841667e-05
0.9646127168 	0.9544499929 	-0.007397520433 	-1.351035429e-05
0.9678650909 	0.9317461242 	-0.006667818716 	-1.208355957e-05
0.9708722772 	0.9083390074 	-0.005982436174 	-1.072934714e-05
0.9736527409 	0.8841201325 	-0.005339177357 	-9.403611709e-06
0.9762235591 	0.858972716 	-0.004736255911 	-8.116597719e-06
0.9786005247 	0.8327572048 	-0.004172333101 	-6.946242318e-06
0.9807982433 	0.8052974164 	-0.00364637223 	-5.889150403e-06
0.9828302215 	0.7763644064 	-0.003157556446 	-4.941537036e-06
0.9847089499 	0.7456553171 	-0.002705224457 	-4.098935789e-06
0.9864459788 	0.7127647011 	-0.002288812205 	-3.356202391e-06
0.9880519892 	0.6771460307 	-0.001907815882 	-2.707796882e-06
0.9895368579 	0.6380612356 	-0.001561764025 	-2.148096875e-06
0.9909097179 	0.5945139269 	-0.001250186095 	-1.670978649e-06
0.9921790144 	0.5451403617 	-0.0009726908808 	-1.266854914e-06
0.9933525564 	0.4929440703 	-0.0007471902688 	-9.5058399e-07
0.9940644621 	0.4440536055 	-0.0005832036888 	-7.267755266e-07
0.9947763828 	0.3938976031 	-0.0004496688934 	-5.473417816e-07
0.9954883185 	0.3355680884 	-0.0003255670471 	-3.849467475e-07
0.9962002692 	0.270347061 	-0.0002150364498 	-2.447243362e-07
0.9969122348 	0.2015618972 	-0.0001234755153 	-1.334497713e-07
0.9976242154 	0.132599562 	-5.742966891e-05 	-6.016400865e-08
0.998336211 	0.06524420442 	-2.741078851e-05 	-4.577050291e-08
0.9990482216 	0.01978335722 	-1.423589085e-05 	-3.51345898e-08
