0.4706627813 	0.01096350687 	-3.112039236e-05 	-3.738405391e-08
0.4708355793 	0.03037786826 	-8.588905516e-05 	-1.038904414e-07
0.4710083775 	0.06070583701 	-0.0001715631776 	-2.101525665e-07
0.4711811759 	0.09098334484 	-0.0002574452616 	-3.200969262e-07
0.4713539745 	0.1212054949 	-0.0003433221032 	-4.328547424e-07
0.4715267733 	0.1513594717 	-0.0004291250945 	-5.480682057e-07
0.4716995723 	0.1814183046 	-0.0005147564618 	-6.653504501e-07
0.4718723715 	0.2113336035 	-0.000600076752 	-7.842393551e-07
0.4720451709 	0.2410289842 	-0.0006848883414 	-9.041721719e-07
0.4722179705 	0.2703966599 	-0.00076891413 	-1.024484677e-06
0.4723907703 	0.2992997171 	-0.000851774969 	-1.144424319e-06
0.4725635703 	0.3275813671 	-0.0009329920921 	-1.263185128e-06
0.4727363705 	0.3550800668 	-0.001012036072 	-1.379959749e-06
0.4729091709 	0.3816469217 	-0.001088411649 	-1.493998065e-06
0.4730819714 	0.4071607333 	-0.001161736133 	-1.604659453e-06
0.4732547721 	0.4315371272 	-0.001231774208 	-1.711447099e-06
0.4734275731 	0.4547306716 	-0.001298426721 	-1.814018746e-06
0.4736003742 	0.4767312404 	-0.001361697126 	-1.912176271e-06
0.4737731754 	0.4975570504 	-0.001421658311 	-2.005842157e-06
0.4739459769 	0.5172467352 	-0.001478428433 	-2.09503165e-06
0.4741187785 	0.5358520696 	-0.001532154527 	-2.179826706e-06
0.4742915803 	0.5534321156 	-0.001583000659 	-2.260354574e-06
0.4744643823 	0.5700489463 	-0.001631138865 	-2.336771531e-06
0.4746371844 	0.5857647618 	-0.00167674232 	-2.409251172e-06
0.4748099867 	0.600640091 	-0.001719980519 	-2.477976269e-06
0.4749827891 	0.6147327662 	-0.001761016638 	-2.543133221e-06
0.4751555917 	0.6280974138 	-0.001800004697 	-2.604908295e-06
0.4753283945 	0.6407852659 	-0.001837093435 	-2.663485083e-06
0.4755011974 	0.6528441589 	-0.00187238393 	-2.719043661e-06
0.4756740004 	0.6643186713 	-0.001906121631 	-2.771759318e-06
0.4758468036 	0.6767251693 	-0.001942736314 	-2.829374706e-06
0.4761153003 	0.6913154773 	-0.001985653952 	-2.894958005e-06
0.4763888437 	0.7064820709 	-0.002030491346 	-2.963409454e-06
0.4766675287 	0.7208929046 	-0.002073430712 	-3.02780275e-06
0.4769514519 	0.734606904 	-0.002114423016 	-3.088381258e-06
0.4772407118 	0.7476783025 	-0.002153699337 	-3.145381522e-06
0.4775354087 	0.7601568957 	-0.002191394627 	-3.199027312e-06
0.4778356448 	0.772088407 	-0.002227642377 	-3.249531226e-06
0.4781415242 	0.7835148447 	-0.002262563661 	-3.297093036e-06
0.4784531529 	0.7944748369 	-0.002296270242 	-3.341899438e-06
0.478770639 	0.8050039376 	-0.002328864727 	-3.384124027e-06
0.4790940926 	0.8151349038 	-0.002360441521 	-3.423927523e-06
0.4794236259 	0.8248979422 	-0.002391087584 	-3.461458169e-06
0.4797593531 	0.83432093 	-0.002420883124 	-3.496852268e-06
0.4801013905 	0.8434296121 	-0.00244990221 	-3.53023485e-06
0.4804498569 	0.8522477769 	-0.002478213316 	-3.561720356e-06
0.480804873 	0.8607974146 	-0.002505879738 	-3.591413466e-06
0.4811665619 	0.86909886 	-0.002532959198 	-3.619408401e-06
0.4815350489 	0.8771733912 	-0.002559514606 	-3.645810264e-06
0.4819109242 	0.8850422074 	-0.00258561076 	-3.670613156e-06
0.4822941986 	0.8927200808 	-0.002611289906 	-3.693864114e-06
0.482684677 	0.9002176199 	-0.002636580366 	-3.715658243e-06
0.4830824948 	0.9075470124 	-0.002661516768 	-3.736034028e-06
0.4834877901 	0.9147210818 	-0.00268613638 	-3.755036098e-06
0.4839007033 	0.9217516883 	-0.002710473685 	-3.772703652e-06
0.4843213776 	0.928649801 	-0.002734560499 	-3.78907104e-06
0.484749959 	0.9354255627 	-0.002758426201 	-3.804168253e-06
0.485186596 	0.9420883512 	-0.002782097878 	-3.818021322e-06
0.48563144 	0.9486468347 	-0.00280560045 	-3.830652711e-06
0.4860846455 	0.9551090239 	-0.002828956794 	-3.842081664e-06
0.4865463694 	0.9614823192 	-0.002852187854 	-3.852324527e-06
0.4870167719 	0.9677735544 	-0.002875312732 	-3.861395031e-06
0.4874960162 	0.9739890373 	-0.002898348778 	-3.869304551e-06
0.4879842685 	0.980134586 	-0.002921311663 	-3.876062346e-06
0.488481698 	0.9862155636 	-0.002944215443 	-3.881675765e-06
0.4889884774 	0.9922369088 	-0.002967072614 	-3.88615044e-06
0.4895047822 	0.9982031642 	-0.002989894158 	-3.889490457e-06
0.4900307917 	1.004118502 	-0.003012689584 	-3.891698516e-06
0.4905666881 	1.009986749 	-0.003035466958 	-3.892776068e-06
0.4911126574 	1.015811404 	-0.003058232928 	-3.892723459e-06
0.4916688889 	1.021595661 	-0.003080992298 	-3.891539582e-06
0.4922355755 	1.02734317 	-0.003103751061 	-3.889226737e-06
0.4928132114 	1.033059285 	-0.003126524401 	-3.885721531e-06
0.4934025382 	1.038747478 	-0.003149318243 	-3.880887931e-06
0.4940029419 	1.044406995 	-0.00317211921 	-3.874926701e-06
0.4946146306 	1.050037755 	-0.003194917478 	-3.867821061e-06
0.4952378166 	1.055641446 	-0.003217709552 	-3.859566865e-06
0.4958727159 	1.061219541 	-0.003240490325 	-3.850159157e-06
0.4965195487 	1.066773315 	-0.003263253127 	-3.839592408e-06
0.4971785393 	1.072303852 	-0.003285989703 	-3.827860426e-06
0.4978499162 	1.077812061 	-0.003308690215 	-3.814956329e-06
0.4985339123 	1.083298694 	-0.003331343259 	-3.800872503e-06
0.4992307647 	1.088764365 	-0.003353935907 	-3.785600562e-06
0.4999407151 	1.094209572 	-0.003376453798 	-3.769131303e-06
0.5006640096 	1.099634721 	-0.003398881267 	-3.751454672e-06
0.5014008992 	1.105040161 	-0.003421201605 	-3.732559727e-06
0.5021516393 	1.110426208 	-0.003443396757 	-3.712434381e-06
0.5029164903 	1.115793555 	-0.003465448656 	-3.691066448e-06
0.503695936 	1.121144905 	-0.003487342966 	-3.668393619e-06
0.5044912129 	1.126482136 	-0.003509096126 	-3.6441529e-06
0.5053014374 	1.132480472 	-0.003533420953 	-3.621298362e-06
0.5065452568 	1.139749987 	-0.003562549008 	-3.578009411e-06
0.5078029565 	1.147533842 	-0.003593396326 	-3.535165456e-06
0.5090746915 	1.155165135 	-0.003623241718 	-3.490181657e-06
0.5103606185 	1.16265487 	-0.003652048731 	-3.443111649e-06
0.5116608957 	1.170013259 	-0.00367985484 	-3.394013436e-06
0.5129756833 	1.177249758 	-0.003706680323 	-3.342940211e-06
0.5143051433 	1.184375676 	-0.003732567261 	-3.289960203e-06
0.5156513952 	1.191401725 	-0.003757557103 	-3.234601039e-06
0.5170128819 	1.198332729 	-0.003781670755 	-3.177454835e-06
0.5183895608 	1.205172631 	-0.003804936853 	-3.118635355e-06
0.5197816015 	1.211927351 	-0.003827393573 	-3.058206919e-06
0.5211891754 	1.218602511 	-0.003849080692 	-2.996236073e-06
0.5226124558 	1.225203217 	-0.003870037906 	-2.932790781e-06
0.5240516179 	1.23173451 	-0.003890304566 	-2.867940656e-06
0.5255072092 	1.238202923 	-0.003909929959 	-2.801658903e-06
0.5269808209 	1.244613677 	-0.003928954283 	-2.733677061e-06
0.5284708748 	1.250967733 	-0.003947401604 	-2.664599826e-06
0.5299775543 	1.257266354 	-0.003965300493 	-2.594497887e-06
0.5315010449 	1.263512448 	-0.003982680931 	-2.523445697e-06
0.5330415342 	1.269708678 	-0.00399956974 	-2.451515644e-06
0.5345992119 	1.275857682 	-0.00401598918 	-2.378777499e-06
0.5361744585 	1.281963723 	-0.004031968773 	-2.30525164e-06
0.5377691979 	1.28803047 	-0.004047529091 	-2.230594471e-06
0.5393817296 	1.294057719 	-0.004062674654 	-2.155442616e-06
0.5410122523 	1.300045486 	-0.004077412887 	-2.079856998e-06
0.5426609666 	1.30599546 	-0.004091751049 	-2.003897822e-06
0.5443280756 	1.311909207 	-0.004105691689 	-1.927620584e-06
0.5460137845 	1.317789138 	-0.004119239532 	-1.851078753e-06
0.5477194288 	1.323638296 	-0.004132398387 	-1.774044759e-06
0.5494450171 	1.329457603 	-0.004145161104 	-1.696722041e-06
0.5511898565 	1.335246363 	-0.004157517034 	-1.619409117e-06
0.5529541618 	1.341004781 	-0.004169457324 	-1.542148858e-06
0.5547381503 	1.34673369 	-0.004180971164 	-1.464981009e-06
0.5565420416 	1.352434514 	-0.004192050033 	-1.387942874e-06
0.5583670057 	1.358109294 	-0.004202686488 	-1.310849836e-06
0.5602133451 	1.363758388 	-0.004212865705 	-1.233834686e-06
0.5620802817 	1.369380453 	-0.004222571263 	-1.157204567e-06
0.5639680453 	1.374974778 	-0.004231790021 	-1.080991709e-06
0.5658768684 	1.380541236 	-0.004240507558 	-1.00522596e-06
0.567806986 	1.386080582 	-0.004248716329 	-9.299357276e-07
0.5697601668 	1.391593596 	-0.004256406933 	-8.548456663e-07
0.571735477 	1.397078595 	-0.004263564854 	-7.803765991e-07
0.5737328224 	1.402533284 	-0.004270181054 	-7.066396578e-07
0.5757524488 	1.407956203 	-0.004276247482 	-6.336614991e-07
0.5777946049 	1.413346416 	-0.004281761029 	-5.61466852e-07
0.5798604356 	1.41870323 	-0.004286721245 	-4.899064514e-07
0.581950188 	1.424024384 	-0.004291125845 	-4.191539108e-07
0.5840632515 	1.429306118 	-0.00429497716 	-3.494507628e-07
0.5861998861 	1.434544851 	-0.004298281581 	-2.808208891e-07
0.5883603551 	1.439737508 	-0.004301051826 	-2.132859524e-07
0.5905457595 	1.444880863 	-0.004303305294 	-1.467213891e-07
0.5927563685 	1.44996992 	-0.004305061601 	-8.131024902e-08
0.5949916363 	1.454997889 	-0.004306349833 	-1.727009953e-08
0.5956145471 	1.456364756 	-0.004306585749 	1.692533687e-07
0.597251833 	1.459957511 	-0.00430726787 	-4.268365038e-08
0.5995372403 	1.464841341 	-0.004307822826 	-1.002994941e-07
0.6018493437 	1.469640587 	-0.004308046349 	-1.567365426e-07
0.6041875845 	1.47434352 	-0.004308005641 	-2.116755537e-07
0.6065519077 	1.478936461 	-0.004307785138 	-2.650283871e-07
0.6089426045 	1.48340467 	-0.004307480805 	-3.167751912e-07
0.6113603927 	1.487731847 	-0.004307205748 	-3.669567422e-07
0.6138061608 	1.491898911 	-0.004307086733 	-4.154831942e-07
0.6162792104 	1.495883534 	-0.004307268581 	-4.621090814e-07
0.6187798463 	1.499661532 	-0.004307911652 	-5.068132066e-07
0.6213084247 	1.503207928 	-0.00430919 	-5.495845582e-07
0.6238664781 	1.506496974 	-0.004311277749 	-5.904570474e-07
0.6264530657 	1.509502959 	-0.00431434166 	-6.291119768e-07
0.6290685061 	1.512203402 	-0.004318530745 	-6.655429461e-07
0.6317131215 	1.514581915 	-0.004323959367 	-6.997545219e-07
0.6343884117 	1.516629654 	-0.004330689753 	-7.317969661e-07
0.6370935724 	1.51834643 	-0.004338725514 	-7.614031929e-07
0.6398289089 	1.519741787 	-0.004348017862 	-7.886062938e-07
0.642594864 	1.520834273 	-0.0043584697 	-8.13467168e-07
0.6453926582 	1.521649006 	-0.004369947272 	-8.359916276e-07
0.6482216616 	1.522214957 	-0.004382295727 	-8.560125315e-07
0.6510822229 	1.522562609 	-0.004395360931 	-8.736007521e-07
0.6539750699 	1.522721758 	-0.004408992366 	-8.888537706e-07
0.6569007941 	1.522719933 	-0.004423050586 	-9.016704326e-07
0.6598591553 	1.522581632 	-0.00443741256 	-9.120142106e-07
0.6628505183 	1.522328016 	-0.004451973805 	-9.19973114e-07
0.6658759722 	1.521976887 	-0.004466641959 	-9.256125909e-07
0.6689353345 	1.521543001 	-0.004481336132 	-9.287855354e-07
0.6720288258 	1.521038376 	-0.004495990042 	-9.295700151e-07
0.6751571363 	1.520472585 	-0.004510543771 	-9.280722559e-07
0.6783208177 	1.519853334 	-0.00452494716 	-9.241945321e-07
0.6815197924 	1.519187099 	-0.004539156249 	-9.179519963e-07
0.6847545243 	1.518478978 	-0.004553131602 	-9.094631439e-07
0.6880259633 	1.517732412 	-0.00456684031 	-8.987116154e-07
0.6913338986 	1.516949628 	-0.004580249362 	-8.856501778e-07
0.6946787382 	1.516131903 	-0.004593327446 	-8.704044141e-07
0.6980614523 	1.515279663 	-0.004606042442 	-8.530137885e-07
0.7014819514 	1.514392688 	-0.004618361544 	-8.334059611e-07
0.7049406118 	1.513470074 	-0.004630253361 	-8.11715045e-07
0.7084383096 	1.512510238 	-0.00464168117 	-7.880001817e-07
0.7119751059 	1.511511047 	-0.004652606019 	-7.621983092e-07
0.7155513621 	1.510469729 	-0.004662987776 	-7.344534577e-07
0.7191679237 	1.509382827 	-0.004672778709 	-7.048233176e-07
0.7228248847 	1.508246254 	-0.004681927241 	-6.732704513e-07
0.726522657 	1.507055146 	-0.004690377159 	-6.399564458e-07
0.7302620662 	1.505803753 	-0.004698062325 	-6.049118842e-07
0.7340431982 	1.504489008 	-0.004704892669 	-5.681686293e-07
0.7378244042 	1.503115597 	-0.004710745928 	-5.303111539e-07
0.7415641218 	1.501689396 	-0.004715523127 	-4.917895155e-07
0.7452625656 	1.500209034 	-0.004719177248 	-4.527666818e-07
0.7489202967 	1.498669225 	-0.004721671642 	-4.134447098e-07
0.7525378085 	1.49706438 	-0.004722963244 	-3.738452453e-07
0.7561153968 	1.495388638 	-0.00472300656 	-3.341150448e-07
0.7596536012 	1.493635814 	-0.004721748158 	-2.944095741e-07
0.7631528582 	1.491799459 	-0.004719128779 	-2.547350451e-07
0.7666134977 	1.489872895 	-0.004715086169 	-2.15220785e-07
0.7700360208 	1.487849211 	-0.004709550398 	-1.759939725e-07
0.7734208538 	1.485721361 	-0.004702446393 	-1.370533833e-07
0.7767683331 	1.483482249 	-0.004693697083 	-9.850378841e-08
0.7800789143 	1.481124788 	-0.004683220137 	-6.045699397e-08
0.7833530369 	1.47864204 	-0.004670930873 	-2.291100418e-08
0.7853498442 	1.477029641 	-0.004662186153 	5.723620408e-07
0.7865910269 	1.476027373 	-0.004656764218 	-1.483669276e-08
0.7897932947 	1.473274587 	-0.004640648307 	-5.313358671e-08
0.7929603021 	1.470378117 	-0.004622475718 	-9.069857546e-08
0.796092361 	1.467333201 	-0.004602176867 	-1.274929872e-07
0.7991898574 	1.464136025 	-0.004579692636 	-1.634307938e-07
0.8022532251 	1.46078385 	-0.004554976139 	-1.984705549e-07
0.8052828028 	1.457275197 	-0.004527997506 	-2.32620656e-07
0.8082789493 	1.453609898 	-0.00449874669 	-2.658178333e-07
0.8112420487 	1.449789096 	-0.004467232857 	-2.980089626e-07
0.8141724845 	1.445815262 	-0.004433486665 	-3.29214595e-07
0.8170705834 	1.441692138 	-0.004397561304 	-3.594135514e-07
0.8199367024 	1.437424586 	-0.004359530433 	-3.885677494e-07
0.8227712189 	1.433018428 	-0.004319485801 	-4.166659339e-07
0.8255744682 	1.428480297 	-0.004277535959 	-4.437413634e-07
0.8283467843 	1.423817438 	-0.004233803595 	-4.697767347e-07
0.8310885089 	1.419037477 	-0.004188421007 	-4.947564671e-07
0.8338000025 	1.414148252 	-0.004141526931 	-5.18698134e-07
0.8364815777 	1.409157669 	-0.004093264217 	-5.416319291e-07
0.8391335626 	1.404073539 	-0.004043776753 	-5.635523331e-07
0.841756284 	1.398903439 	-0.003993206093 	-5.844570276e-07
0.8443500818 	1.393654632 	-0.003941689583 	-6.043726241e-07
0.8469152583 	1.388334024 	-0.003889359376 	-6.233279108e-07
0.8494521292 	1.382948099 	-0.003836340974 	-6.413252604e-07
0.8519610068 	1.37750288 	-0.003782751961 	-6.583690885e-07
0.8544422104 	1.372003933 	-0.003728701593 	-6.744819407e-07
0.8568960364 	1.366456379 	-0.003674291135 	-6.89696476e-07
0.8593227856 	1.360864903 	-0.003619613844 	-7.040201419e-07
0.8617227567 	1.35523376 	-0.00356475494 	-7.17461609e-07
0.8640962496 	1.349566804 	-0.003509791898 	-7.300363785e-07
0.8664435555 	1.343867525 	-0.003454795215 	-7.41780379e-07
0.8687649599 	1.338139076 	-0.003399829105 	-7.527077785e-07
0.8710607488 	1.332384291 	-0.003344951776 	-7.628308113e-07
0.8733312048 	1.326605714 	-0.003290215929 	-7.721628997e-07
0.8755766123 	1.320805628 	-0.003235669309 	-7.807324341e-07
0.8777972426 	1.314986084 	-0.00318135548 	-7.885657678e-07
0.8799933693 	1.309148923 	-0.003127314148 	-7.956777368e-07
0.8821652628 	1.303295783 	-0.003073581514 	-8.020839144e-07
0.8843131913 	1.297428128 	-0.003020190574 	-8.078012103e-07
0.8864374205 	1.291547259 	-0.002967171488 	-8.128598085e-07
0.8885382098 	1.285654333 	-0.002914552019 	-8.172807381e-07
0.8906158179 	1.279750371 	-0.002862357585 	-8.210798546e-07
0.8926705004 	1.273836263 	-0.002810611454 	-8.242729751e-07
0.8947025109 	1.267912777 	-0.002759334825 	-8.268761992e-07
0.8967121004 	1.261980567 	-0.002708546943 	-8.28914769e-07
0.8986995148 	1.256040178 	-0.002658265306 	-8.30407024e-07
0.900664999 	1.250092046 	-0.002608505607 	-8.313664755e-07
0.9026087948 	1.244136495 	-0.002559281747 	-8.318059731e-07
0.9045311417 	1.238173746 	-0.002510605865 	-8.317376371e-07
0.9064322771 	1.232203906 	-0.002462488292 	-8.311772211e-07
0.9083124343 	1.226226976 	-0.002414937628 	-8.30140892e-07
0.9101718447 	1.220242845 	-0.00236796074 	-8.28637602e-07
0.9120107372 	1.214251286 	-0.002321562672 	-8.266753432e-07
0.9138293381 	1.208251954 	-0.00227574669 	-8.242611433e-07
0.9156278716 	1.202244385 	-0.002230514226 	-8.214013331e-07
0.9174065593 	1.196227991 	-0.002185864882 	-8.181061269e-07
0.9191656197 	1.190202057 	-0.00214179649 	-8.143814067e-07
0.9209052695 	1.184165738 	-0.002098305068 	-8.10229999e-07
0.9226257228 	1.178118053 	-0.002055384812 	-8.056538201e-07
0.9243271915 	1.172057883 	-0.002013028132 	-8.00653912e-07
0.926009885 	1.165983958 	-0.001971225642 	-7.952306048e-07
0.9276740106 	1.159894858 	-0.00192996617 	-7.893866501e-07
0.9293197732 	1.153789 	-0.001889236829 	-7.831220211e-07
0.9309473751 	1.147664625 	-0.001849023017 	-7.764343679e-07
0.9325570169 	1.141519786 	-0.001809308436 	-7.693206987e-07
0.9341488968 	1.135352335 	-0.001770075142 	-7.617774575e-07
0.9357232106 	1.129159901 	-0.001731303595 	-7.538006298e-07
0.9372801523 	1.122939868 	-0.001692972686 	-7.453867326e-07
0.9388199136 	1.116689357 	-0.001655059817 	-7.365333544e-07
0.9403426839 	1.110405191 	-0.001617540988 	-7.272357544e-07
0.9418486508 	1.104083868 	-0.001580390848 	-7.174892143e-07
0.9433379996 	1.097721531 	-0.001543582795 	-7.072893558e-07
0.9448109137 	1.091313924 	-0.00150708909 	-6.966324045e-07
0.9462675745 	1.08485636 	-0.00147088099 	-6.855154781e-07
0.9477081614 	1.078343682 	-0.001434928879 	-6.739374618e-07
0.9491328516 	1.071770216 	-0.001399202464 	-6.618995088e-07
0.9505418206 	1.065129739 	-0.001363670995 	-6.494033455e-07
0.9519352418 	1.058415439 	-0.001328303495 	-6.364529836e-07
0.9533132867 	1.051619883 	-0.001293069065 	-6.230551914e-07
0.9546761252 	1.044734993 	-0.001257937233 	-6.092199368e-07
0.9560239248 	1.037752028 	-0.00122287838 	-5.949608192e-07
0.9573568517 	1.030661572 	-0.001187863925 	-5.802955197e-07
0.9586750698 	1.02345353 	-0.001152867346 	-5.652467705e-07
0.9599787416 	1.016117129 	-0.001117863181 	-5.498417966e-07
0.9612680274 	1.0086409 	-0.001082851558 	-5.341118113e-07
0.962543086 	1.001012675 	-0.001047768212 	-5.180961585e-07
0.9638040745 	0.9938858143 	-0.001015585755 	-5.035455926e-07
0.9646254847 	0.9880029287 	-0.0009895105479 	-4.910420359e-07
0.9654317418 	0.9827646662 	-0.0009666182931 	-4.802933757e-07
0.9662231253 	0.9775082106 	-0.0009439467222 	-4.696135705e-07
0.9669999095 	0.9722342621 	-0.000921522028 	-4.590141068e-07
0.9677623638 	0.9669435294 	-0.0008993389873 	-4.485073193e-07
0.9685107524 	0.9616366992 	-0.0008774014069 	-4.381040887e-07
0.969245335 	0.9563143994 	-0.0008557135469 	-4.278137718e-07
0.9699663661 	0.950977163 	-0.0008342799399 	-4.176442851e-07
0.9706740958 	0.9456253953 	-0.0008131050476 	-4.076022738e-07
0.9713687694 	0.9402593464 	-0.0007921932443 	-3.976932035e-07
0.9720506278 	0.9348790884 	-0.0007715487185 	-3.879214609e-07
0.9727199074 	0.9294844993 	-0.0007511753946 	-3.782904569e-07
0.9733768402 	0.9240752509 	-0.0007310768768 	-3.688027285e-07
0.974021654 	0.9186508007 	-0.0007112564124 	-3.594600364e-07
0.9746545724 	0.913210387 	-0.0006917168697 	-3.502634567e-07
0.9752758147 	0.9077530249 	-0.0006724607284 	-3.41213466e-07
0.9758855965 	0.9022775036 	-0.0006534900797 	-3.323100185e-07
0.9764841291 	0.8967823832 	-0.0006348066336 	-3.235526166e-07
0.9770716201 	0.8912659912 	-0.0006164117311 	-3.14940373e-07
0.977648273 	0.8857264172 	-0.0005983063613 	-3.064720668e-07
0.9782142879 	0.8801615065 	-0.0005804911795 	-2.981461944e-07
0.9787698611 	0.8745688517 	-0.000562966528 	-2.899610381e-07
0.979315185 	0.8689457817 	-0.0005457324577 	-2.819146566e-07
0.9798504489 	0.863289349 	-0.0005287887491 	-2.740049268e-07
0.9803758383 	0.8575963143 	-0.0005121349335 	-2.662295851e-07
0.9808915353 	0.8518631283 	-0.0004957703138 	-2.585862538e-07
0.9813977188 	0.8460859111 	-0.0004796939847 	-2.510724632e-07
0.9818945642 	0.8402604284 	-0.0004639048521 	-2.436856719e-07
0.9823822438 	0.8343820648 	-0.0004484016518 	-2.364232852e-07
0.9828609268 	0.8284457939 	-0.0004331829673 	-2.292826711e-07
0.983330779 	0.822446145 	-0.0004182472465 	-2.222611747e-07
0.9837919634 	0.8163771664 	-0.0004035928182 	-2.153561327e-07
0.9842446399 	0.8102323847 	-0.0003892179075 	-2.085648854e-07
0.9846889654 	0.8040047601 	-0.0003751206497 	-2.018847889e-07
0.985125094 	0.7976866378 	-0.0003612991046 	-1.953132273e-07
0.9855531769 	0.7912696947 	-0.0003477512685 	-1.88847623e-07
0.9859733625 	0.7847448813 	-0.0003344750864 	-1.824854486e-07
0.9863857966 	0.7781023592 	-0.0003214684622 	-1.762242379e-07
0.986790622 	0.7713314326 	-0.0003087292687 	-1.70061597e-07
0.9871879793 	0.7644204753 	-0.0002962553559 	-1.639952161e-07
0.9875780061 	0.7573568509 	-0.0002840445584 	-1.580228813e-07
0.9879608376 	0.7501268285 	-0.0002720947017 	-1.521424869e-07
0.9883366067 	0.7427154901 	-0.0002604036076 	-1.46352048e-07
0.9887054436 	0.7351066341 	-0.0002489690981 	-1.40649714e-07
0.9890674761 	0.7272826694 	-0.0002377889988 	-1.350337845e-07
0.9894228299 	0.719224504 	-0.0002268611424 	-1.295027169e-07
0.9897716281 	0.7109114255 	-0.0002161833708 	-1.240551429e-07
0.9901139916 	0.7023209734 	-0.0002057535383 	-1.186898827e-07
0.9904500392 	0.6934288026 	-0.0001955695154 	-1.134059583e-07
0.9907798874 	0.6842085381 	-0.000185629194 	-1.08202607e-07
0.9911036505 	0.6746316185 	-0.0001759304928 	-1.03079294e-07
0.9914214408 	0.6646671305 	-0.0001664713707 	-9.803572424e-08
0.9917333685 	0.6542816304 	-0.0001572498328 	-9.307185424e-08
0.9920395418 	0.6434389583 	-0.0001482640352 	-8.818790328e-08
0.9923400667 	0.6321000444 	-0.0001395116811 	-8.338436984e-08
0.9926350475 	0.6202227175 	-0.0001309917478 	-7.866203123e-08
0.9929245865 	0.6077615291 	-0.0001226940716 	-7.402196222e-08
0.993208784 	0.5946676175 	-0.0001146763266 	-6.946522748e-08
0.9934877387 	0.5808887335 	-0.0001067524416 	-6.499482854e-08
0.9937615472 	0.5676371181 	-9.965836306e-05 	-6.098969819e-08
0.9939377693 	0.5563729238 	-9.422598137e-05 	-5.777570456e-08
0.9941139915 	0.5459587798 	-8.9461432e-05 	-5.496522006e-08
0.9942902138 	0.5350195228 	-8.466349109e-05 	-5.216249465e-08
0.994466436 	0.5235171972 	-7.99340597e-05 	-4.936894008e-08
0.9946426583 	0.511412322 	-7.524676376e-05 	-4.658710193e-08
0.9948188806 	0.4986641926 	-7.060743198e-05 	-4.381992539e-08
0.9949951029 	0.485231401 	-6.60185434e-05 	-4.107079187e-08
0.9951713252 	0.4710726188 	-6.148356345e-05 	-3.834362407e-08
0.9953475475 	0.456147756 	-5.700631743e-05 	-3.564296195e-08
0.9955237699 	0.4404196215 	-5.259200213e-05 	-3.29740397e-08
0.9956999923 	0.4238562141 	-4.824840906e-05 	-3.034286809e-08
0.9958762147 	0.406433719 	-4.398777216e-05 	-2.77563107e-08
0.9960524371 	0.3881401666 	-3.982871103e-05 	-2.522213185e-08
0.9962286596 	0.3689794877 	-3.57968943e-05 	-2.274898843e-08
0.9964048821 	0.348975384 	-3.192239229e-05 	-2.0346354e-08
0.9965811045 	0.328174098 	-2.823263328e-05 	-1.802440579e-08
0.9967573271 	0.3066449758 	-2.474328441e-05 	-1.579394063e-08
0.9969335496 	0.284477884 	-2.145331342e-05 	-1.36663387e-08
0.9971097721 	0.2617772104 	-1.835009407e-05 	-1.165346331e-08
0.9972859947 	0.238653214 	-1.542327997e-05 	-9.767324148e-09
0.9974622173 	0.2152124619 	-1.267793e-05 	-8.019499123e-09
0.9976384399 	0.1915494737 	-1.013723638e-05 	-6.420584173e-09
0.9978146626 	0.1677412526 	-7.834123141e-06 	-4.979995887e-09
0.9979908852 	0.1438453598 	-5.799508992e-06 	-3.706193723e-09
0.9981671079 	0.1199011133 	-4.055229145e-06 	-2.607083218e-09
0.9983433306 	0.09593283293 	-2.613693161e-06 	-1.690130605e-09
0.9985195533 	0.07195390627 	-1.481676584e-06 	-9.627564631e-10
0.998695776 	0.04797069593 	-6.657185309e-07 	-4.333960308e-10
0.9988719988 	0.02398568443 	-1.749621883e-07 	-1.29676728e-10
0.9990482216 	0.01004064538 	-1.020109898e-08 	-3.347910965e-11
