6.380690986e-34 	0.6080506364 	-2.483992344e-14 	-1.42657478e-21
0.0003225556171 	0.6080540084 	-6.717663649e-06 	3.191447421e-10
0.000645110925 	0.6080649983 	-1.255856751e-05 	5.880784398e-10
0.0009676659232 	0.6080842156 	-1.844653958e-05 	8.486173646e-10
0.001290220611 	0.608111346 	-2.45154123e-05 	1.108444444e-09
0.001612774989 	0.6081463249 	-3.059023809e-05 	1.358909468e-09
0.001935329056 	0.6081891203 	-3.667503675e-05 	1.600168748e-09
0.002257882812 	0.6082397088 	-4.276621753e-05 	1.832010561e-09
0.002580436257 	0.6082980686 	-4.886319142e-05 	2.054393116e-09
0.00290298939 	0.6083641778 	-5.496509087e-05 	2.267255163e-09
0.003225542212 	0.6084380133 	-6.107162414e-05 	2.470563199e-09
0.003548094721 	0.6085195498 	-6.718273912e-05 	2.664295541e-09
0.003870646918 	0.6086087602 	-7.329851964e-05 	2.848437612e-09
0.004193198803 	0.6087056148 	-7.941912461e-05 	3.022978916e-09
0.004515750376 	0.6088100815 	-8.554476071e-05 	3.18791174e-09
0.004838301637 	0.6089221257 	-9.167566484e-05 	3.343230331e-09
0.005160852584 	0.60904171 	-9.781209294e-05 	3.488930391e-09
0.00548340322 	0.6091687942 	-0.0001039543127 	3.62500875e-09
0.005805953543 	0.6093033355 	-0.0001101025983 	3.751463155e-09
0.006128503553 	0.6094452881 	-0.0001162572274 	3.868292134e-09
0.006451053251 	0.6095946032 	-0.0001224184781 	3.975494903e-09
0.006773602636 	0.6097512292 	-0.0001285866274 	4.07307131e-09
0.00709615171 	0.6099151113 	-0.0001347619492 	4.1610218e-09
0.007418700471 	0.6100861918 	-0.0001409447136 	4.239347388e-09
0.00774124892 	0.6102644096 	-0.0001471351856 	4.308049657e-09
0.008063797057 	0.6104497007 	-0.0001533336247 	4.367130727e-09
0.008386344883 	0.6106419974 	-0.000159540289 	4.416593182e-09
0.008708892398 	0.6108412283 	-0.000165755429 	4.456440277e-09
0.009031439602 	0.611047317 	-0.0001719792106 	4.486677573e-09
0.009353986494 	0.6112601794 	-0.0001782115635 	4.507312973e-09
0.009676533077 	0.6115109869 	-0.0001853291597 	4.539599494e-09
0.01017769553 	0.6118364192 	-0.0001942400476 	4.518046776e-09
0.01068827656 	0.6122133455 	-0.0002041657253 	4.492240723e-09
0.01120845316 	0.6126136531 	-0.0002143032011 	4.44128269e-09
0.01173840565 	0.6130380205 	-0.0002246584618 	4.363797808e-09
0.01227831774 	0.6134871063 	-0.0002352374959 	4.258360162e-09
0.01282837659 	0.6139615531 	-0.0002460462907 	4.12349308e-09
0.01338877288 	0.6144619876 	-0.0002570909516 	3.957665639e-09
0.01395970086 	0.6149890203 	-0.0002683777215 	3.759291364e-09
0.01454135846 	0.6155432443 	-0.000279912971 	3.526727465e-09
0.0151339473 	0.6161252345 	-0.0002917031931 	3.25827409e-09
0.0157376728 	0.6167355465 	-0.0003037549982 	2.952173705e-09
0.01635274424 	0.6173747165 	-0.0003160751098 	2.60661064e-09
0.01697937483 	0.6180432598 	-0.0003286703601 	2.219710837e-09
0.01761778179 	0.6187416713 	-0.000341547684 	1.789541841e-09
0.01826818643 	0.6194704247 	-0.0003547141098 	1.314113078e-09
0.0189308142 	0.6202299726 	-0.0003681767832 	7.913765584e-10
0.0196058948 	0.6210207463 	-0.0003819429485 	2.192277067e-10
0.01985315174 	0.6213165786 	-0.0003870064077 	-1.054655123e-08
0.02029366225 	0.6218436061 	-0.0003960278054 	4.075754749e-10
0.02099588292 	0.6226997937 	-0.0004104525218 	1.093504884e-09
0.0217124055 	0.6235896425 	-0.0004252229314 	1.839929676e-09
0.02244239383 	0.6245127514 	-0.0004403334608 	2.647727267e-09
0.02318610096 	0.6254691262 	-0.0004557862273 	3.519749143e-09
0.0239437847 	0.6264590841 	-0.0004715889752 	4.458989928e-09
0.02471570767 	0.6274829251 	-0.0004877494664 	5.468561257e-09
0.02550213747 	0.6285409338 	-0.0005042755425 	6.551695694e-09
0.02630334669 	0.6296333803 	-0.0005211751002 	7.711749865e-09
0.02711961307 	0.630760521 	-0.0005384560942 	8.952207749e-09
0.02795121954 	0.6319226003 	-0.0005561265342 	1.027668388e-08
0.02879845437 	0.6331198507 	-0.0005741944834 	1.168892651e-08
0.02966161124 	0.6343524947 	-0.0005926680568 	1.319282077e-08
0.03054098934 	0.6356207453 	-0.0006115554189 	1.479239172e-08
0.03143689349 	0.636924807 	-0.0006308647824 	1.649180743e-08
0.03234963424 	0.6382648768 	-0.0006506044061 	1.829538192e-08
0.03327952795 	0.639641145 	-0.0006707825929 	2.02075781e-08
0.03422689696 	0.6410537958 	-0.0006914076882 	2.223301059e-08
0.03519206965 	0.6425030082 	-0.0007124880771 	2.437644851e-08
0.03617538056 	0.6439889567 	-0.0007340321818 	2.664281807e-08
0.03717717053 	0.645511811 	-0.0007560484535 	2.903720497e-08
0.03819778679 	0.6470717373 	-0.0007785453876 	3.156485776e-08
0.0392375831 	0.6486688969 	-0.0008015315541 	3.423119152e-08
0.04029691988 	0.6503038293 	-0.0008250209315 	3.704225389e-08
0.04137715132 	0.6519781603 	-0.000849043116 	4.000842903e-08
0.04248044704 	0.6536927858 	-0.0008736174338 	4.314167464e-08
0.04360447683 	0.6554464564 	-0.0008987321469 	4.643907509e-08
0.0447496303 	0.6572382908 	-0.000924380901 	4.990549991e-08
0.04591630441 	0.6590684425 	-0.0009505724017 	5.354735905e-08
0.04710490354 	0.6609370612 	-0.0009773151984 	5.737121629e-08
0.04831583968 	0.6628442933 	-0.001004617907 	6.138380869e-08
0.04954953259 	0.6647902822 	-0.001032489103 	6.559204192e-08
0.05080640988 	0.6667751681 	-0.001060937333 	7.00029917e-08
0.05208690721 	0.6687990862 	-0.001089971105 	7.462390442e-08
0.05339146842 	0.6708621655 	-0.001119598884 	7.946219812e-08
0.0547205457 	0.6729645229 	-0.001149829071 	8.45254637e-08
0.05607459972 	0.6751062536 	-0.001180670003 	8.982146672e-08
0.05745409982 	0.6772874089 	-0.001212129961 	9.535815013e-08
0.05885952414 	0.6795079496 	-0.001244217109 	1.01143656e-07
0.06029135983 	0.6817679437 	-0.001276942825 	1.071870183e-07
0.06175082976 	0.6840686788 	-0.00131033947 	1.135038227e-07
0.06324165326 	0.6864103415 	-0.001344449241 	1.20115405e-07
0.06476049349 	0.6890950275 	-0.001383726788 	1.27398864e-07
0.06709213948 	0.6924284034 	-0.001432728021 	1.379207308e-07
0.06944979626 	0.6960844309 	-0.001486745501 	1.405495162e-07
0.07183375399 	0.6997666624 	-0.001541371126 	1.383824715e-07
0.07424430605 	0.703477145 	-0.001596563928 	1.357671205e-07
0.07668174913 	0.70721658 	-0.001652320445 	1.32695381e-07
0.0791463832 	0.7109850429 	-0.001708630555 	1.291602469e-07
0.08163851157 	0.7147848033 	-0.001765519166 	1.25159881e-07
0.08416496108 	0.7186184701 	-0.001823017808 	1.206424196e-07
0.08672030433 	0.7224834695 	-0.001881079157 	1.156444841e-07
0.08930415545 	0.7263769513 	-0.00193965021 	1.101605643e-07
0.09191683248 	0.7302984954 	-0.001998713746 	1.041848842e-07
0.09455865701 	0.7342479655 	-0.002058255535 	9.771228793e-08
0.09722995422 	0.7382252539 	-0.00211826106 	9.073778088e-08
0.0999310529 	0.7422307317 	-0.002178721747 	8.325699102e-08
0.1026635218 	0.7462669896 	-0.002239661223 	7.525759255e-08
0.1054324181 	0.7503358563 	-0.002301090666 	6.670207734e-08
0.1082322065 	0.7544345986 	-0.002362950275 	5.763355329e-08
0.1110632316 	0.7585612153 	-0.002425190067 	4.804657836e-08
0.1139258419 	0.7627158137 	-0.002487790962 	3.79379908e-08
0.1168203898 	0.7668985141 	-0.002550732955 	2.730483558e-08
0.1197472317 	0.7711096731 	-0.002613998532 	1.614444538e-08
0.12270736 	0.7753519297 	-0.002677602926 	4.449312688e-09
0.1238093945 	0.7769228126 	-0.002701097921 	2.861412104e-08
0.1257069328 	0.7796276361 	-0.002741557683 	7.874969091e-09
0.128739973 	0.7839343255 	-0.002805797467 	2.075559923e-08
0.1318068542 	0.78827009 	-0.002870263972 	3.416404795e-08
0.1349079538 	0.7926351901 	-0.002934931391 	4.809988202e-08
0.1380436537 	0.7970298946 	-0.002999772482 	6.256202906e-08
0.14121434 	0.8014557677 	-0.003064777626 	7.754962193e-08
0.1444241869 	0.8059155785 	-0.003129953059 	9.30907218e-08
0.1476729191 	0.8104093772 	-0.003195262805 	1.091655752e-07
0.1509579006 	0.8149351135 	-0.003260638564 	1.257408224e-07
0.1542795359 	0.8194921748 	-0.003326031824 	1.428083183e-07
0.1576382339 	0.8240809759 	-0.003391407 	1.603594574e-07
0.1610344082 	0.8287030006 	-0.00345674143 	1.783856759e-07
0.1644716629 	0.8333610272 	-0.003522028022 	1.969015835e-07
0.1679506875 	0.8380556462 	-0.003587225495 	2.158821526e-07
0.1714685328 	0.8427851117 	-0.00365225745 	2.352790321e-07
0.1750256321 	0.8475489435 	-0.003717063182 	2.550717408e-07
0.1786224232 	0.8523477917 	-0.00378159445 	2.752393506e-07
0.182259349 	0.8571839985 	-0.00384582186 	2.957618856e-07
0.1859420126 	0.8620606078 	-0.003909720696 	3.166483633e-07
0.1896669197 	0.8669769524 	-0.003973212207 	3.378234268e-07
0.193433393 	0.8719319048 	-0.004036208546 	3.459191477e-07
0.1972418962 	0.876926089 	-0.004098640492 	3.324440342e-07
0.2010928983 	0.8819614992 	-0.004160450412 	3.18470158e-07
0.2049898859 	0.8870413162 	-0.004221588746 	3.039834405e-07
0.2089333194 	0.8921667611 	-0.004281974727 	2.890180611e-07
0.2129207593 	0.8973371528 	-0.004341499271 	2.736223212e-07
0.2169526964 	0.9025530338 	-0.004400062211 	2.578141015e-07
0.2210296273 	0.907816808 	-0.004457577003 	2.416155691e-07
0.2251548737 	0.9131320348 	-0.004513960612 	2.25027616e-07
0.2293289488 	0.9185004851 	-0.004569100908 	2.080997631e-07
0.2335496053 	0.9239221619 	-0.004622859593 	1.908916306e-07
0.2378173632 	0.9293982406 	-0.004675102873 	1.734359477e-07
0.2421327478 	0.9349320755 	-0.004725707974 	1.557699546e-07
0.2465003553 	0.940527824 	-0.00477454722 	1.379085543e-07
0.250917877 	0.9461868002 	-0.004821455787 	1.19945738e-07
0.2553846982 	0.9519098835 	-0.004866256375 	1.019430061e-07
0.259901369 	0.9576998131 	-0.004908776592 	8.395647024e-08
0.2644698782 	0.963560961 	-0.004948842915 	6.603845633e-08
0.2690927907 	0.9694970606 	-0.004986262582 	4.826861114e-08
0.273767296 	0.9755094757 	-0.005020815349 	3.075957252e-08
0.2784939697 	0.9816004902 	-0.005052276568 	1.359556267e-08
0.2823705472 	0.9866082709 	-0.005075104547 	4.780846429e-07
0.283273557 	0.9877748498 	-0.005080421621 	3.145729896e-09
0.2881107851 	0.9940377827 	-0.005105011855 	1.9409528e-08
0.2930019987 	1.000391315 	-0.005125779239 	3.497835894e-08
0.2979478001 	1.006838089 	-0.005142446624 	4.973573708e-08
0.3029487983 	1.013383388 	-0.00515473088 	6.354950029e-08
0.3080095909 	1.02003317 	-0.005162322502 	7.646465866e-08
0.3131269609 	1.026790351 	-0.005165185945 	8.804122341e-08
0.3183014433 	1.033658459 	-0.00516246822 	9.803975544e-08
0.323534034 	1.040644945 	-0.005153472609 	1.072440842e-07
0.3288283649 	1.047759091 	-0.005138797083 	1.14599027e-07
0.3341817839 	1.055005652 	-0.005117731234 	1.194537901e-07
0.33959495 	1.062388395 	-0.005089410069 	1.225707355e-07
0.3450698045 	1.06991271 	-0.005053774703 	1.236053417e-07
0.3506078229 	1.077582785 	-0.005010441744 	1.224323369e-07
0.3562076492 	1.085400453 	-0.004959086464 	1.189754513e-07
0.3618699728 	1.093367927 	-0.004899413386 	1.13230181e-07
0.3675979394 	1.101487097 	-0.004831185555 	1.052605136e-07
0.3733903722 	1.109755566 	-0.004754281766 	9.524444405e-08
0.3792474522 	1.118168303 	-0.00466872312 	8.353756942e-08
0.3851709504 	1.126718314 	-0.00457470178 	7.06828458e-08
0.3911621639 	1.135393939 	-0.004472642431 	5.741947019e-08
0.3972202431 	1.144177716 	-0.004363243374 	4.467607283e-08
0.4033461698 	1.153049114 	-0.00424744823 	3.347171171e-08
0.4095425735 	1.161984624 	-0.004126411583 	2.477303841e-08
0.415808133 	1.170956548 	-0.004001453211 	1.932654688e-08
0.4221436196 	1.179938129 	-0.003873893704 	1.742335381e-08
0.4285517109 	1.18890592 	-0.00374490277 	1.880847001e-08
0.4350314771 	1.197839118 	-0.003615411221 	2.167721733e-08
0.4415835607 	1.206723298 	-0.003485994697 	2.545843079e-08
0.448210299 	1.215550509 	-0.003356844201 	2.914198847e-08
0.4549112516 	1.224315339 	-0.003227835097 	3.177959089e-08
0.4616869897 	1.233013696 	-0.003098626836 	3.290399749e-08
0.4685397235 	1.241639611 	-0.002968778631 	3.242898048e-08
0.4754691032 	1.250179277 	-0.002838037219 	3.085645451e-08
0.4824758482 	1.258606348 	-0.002706283563 	2.860715744e-08
0.48956208 	1.266874398 	-0.002574347275 	2.737656086e-08
0.4967273963 	1.274888685 	-0.002443631033 	2.641473924e-08
0.5038929853 	1.282478979 	-0.002315791754 	2.582265411e-08
0.5109803352 	1.289458508 	-0.002195138452 	2.89105168e-08
0.5179894793 	1.295655387 	-0.002085168754 	3.291096005e-08
0.524921636 	1.300884581 	-0.001987836967 	3.737478786e-08
0.531777805 	1.304991214 	-0.001905313708 	4.230346869e-08
0.538558318 	1.307929517 	-0.001837517461 	4.538215824e-08
0.5452643442 	1.309795842 	-0.001782163082 	4.667684804e-08
0.5518967112 	1.310783734 	-0.001736084205 	4.626488883e-08
0.5584558909 	1.31110387 	-0.001696409462 	4.488210948e-08
0.5649429425 	1.310929621 	-0.001660969755 	4.298131839e-08
0.5713586812 	1.310382424 	-0.001628310247 	4.092182496e-08
0.5777036221 	1.309538505 	-0.001597425203 	3.887936746e-08
0.583978692 	1.308439783 	-0.001567585813 	3.696825588e-08
0.5901847713 	1.307102079 	-0.001538160602 	3.527858611e-08
0.5963223658 	1.30551915 	-0.001508499514 	3.393109404e-08
0.6023922714 	1.303662663 	-0.001477777239 	3.30864175e-08
0.6083954574 	1.301478815 	-0.001444821536 	3.311419845e-08
0.6143323969 	1.298883134 	-0.00140787984 	3.441394429e-08
0.6202038208 	1.295757707 	-0.001364328358 	3.790606568e-08
0.6260106295 	1.29196104 	-0.001310864543 	4.379809321e-08
0.6317534071 	1.287361974 	-0.001243386392 	5.313472889e-08
0.6374328113 	1.281893818 	-0.001160142151 	6.295481415e-08
0.6430495922 	1.275594757 	-0.001060118344 	7.394708002e-08
0.6486045051 	1.268585396 	-0.0009438633919 	8.477049323e-08
0.6540981175 	1.261014567 	-0.000817396959 	8.973719417e-08
0.6595311055 	1.253031144 	-0.0006840139145 	9.321338973e-08
0.6649042208 	1.244766298 	-0.0005455960712 	9.5444696e-08
0.6702180788 	1.236321186 	-0.000405665869 	9.497957495e-08
0.6754732958 	1.227769086 	-0.0002661268925 	9.341651957e-08
0.680670519 	1.219162638 	-0.0001284192059 	9.074599615e-08
0.6858104664 	1.21054046 	6.378825467e-06 	8.734157003e-08
0.6908936988 	1.201931882 	0.0001374654282 	8.337256056e-08
0.695920835 	1.193359553 	0.0002642349828 	7.898310982e-08
0.7008924939 	1.18484078 	0.0003862376896 	7.427857589e-08
0.7058093461 	1.17638869 	0.0005031452427 	6.937044469e-08
0.7106719389 	1.16801337 	0.0006147334258 	6.437087338e-08
0.7154808702 	1.159722534 	0.0007208477558 	5.938955741e-08
0.720236732 	1.151521948 	0.000821480179 	5.460711037e-08
0.724940145 	1.143415765 	0.0009163444132 	5.001186361e-08
0.729591658 	1.135382921 	0.001006015325 	4.576821339e-08
0.7341918387 	1.127353469 	0.00109233745 	4.229989415e-08
0.7387412535 	1.119249937 	0.001177228659 	3.959724573e-08
0.7432404775 	1.111039647 	0.001261413999 	3.730856432e-08
0.7476900611 	1.102732914 	0.001344255897 	3.490462039e-08
0.7520905407 	1.094363426 	0.001424894935 	3.189298069e-08
0.7564424581 	1.085978695 	0.001502261396 	2.805375939e-08
0.7607463499 	1.077636341 	0.001575103983 	2.337795651e-08
0.7650027615 	1.069401809 	0.001642056582 	1.797774882e-08
0.7692122007 	1.061343017 	0.00170179775 	1.213247281e-08
0.773375186 	1.05351875 	0.001753376565 	6.481790184e-09
0.7774922298 	1.04596017 	0.001796252633 	1.934046683e-09
0.781563842 	1.038647783 	0.001832190533 	-7.522251231e-10
0.7855905287 	1.031505073 	0.001863222764 	-1.946247249e-09
0.7895727781 	1.02445256 	0.00188982782 	-2.74445287e-09
0.7935110805 	1.017461737 	0.001913227824 	-3.251736099e-09
0.797405921 	1.01053185 	0.001933766986 	-3.487686974e-09
0.8012577807 	1.003661661 	0.001951206794 	-3.736168382e-09
0.8050671369 	0.996850028 	0.001965826068 	-3.955157653e-09
0.8088344542 	0.9900957658 	0.001977760113 	-4.17140295e-09
0.8125601965 	0.9833975889 	0.00198714067 	-4.386751065e-09
0.8162448224 	0.9767540957 	0.001994086387 	-4.59786208e-09
0.8198887859 	0.9701637902 	0.001998709075 	-4.799441895e-09
0.8234925387 	0.963625119 	0.002001113257 	-4.987821953e-09
0.8270565217 	0.9571365155 	0.002001397079 	-5.161436354e-09
0.8305811736 	0.9506964279 	0.001999652819 	-5.320460208e-09
0.8340669283 	0.9443033371 	0.001995967383 	-5.466391551e-09
0.8375142152 	0.9379557624 	0.001990422788 	-5.601511324e-09
0.8409234592 	0.9316522564 	0.001983096608 	-5.728440876e-09
0.844295081 	0.925391394 	0.001974062426 	-5.849950469e-09
0.8476294945 	0.9191717615 	0.001963390243 	-5.968557826e-09
0.8509271103 	0.9129919416 	0.001951146815 	-6.086429028e-09
0.8541883344 	0.9068505029 	0.001937395959 	-6.20538043e-09
0.8574135685 	0.9007459915 	0.001922198823 	-6.326866943e-09
0.8606032099 	0.8946769227 	0.001905614096 	-6.451996557e-09
0.8637576519 	0.8886417748 	0.001887698213 	-6.581663646e-09
0.8668772823 	0.8826389835 	0.001868505531 	-6.716422867e-09
0.8699624852 	0.8766669338 	0.00184808847 	-6.856524075e-09
0.8730136406 	0.8707239525 	0.001826497646 	-7.00199914e-09
0.8760311243 	0.864808301 	0.001803781999 	-7.152694991e-09
0.8790153077 	0.8589181655 	0.001779988899 	-7.308302596e-09
0.8819665587 	0.8530516462 	0.001755164237 	-7.468420098e-09
0.8848852405 	0.8472067458 	0.001729352523 	-7.632604701e-09
0.8877717125 	0.8413813544 	0.001702596963 	-7.80023604e-09
0.8906263301 	0.8355732321 	0.001674939519 	-7.970615748e-09
0.8934494449 	0.8297799886 	0.001646420983 	-8.142987436e-09
0.8962414044 	0.823999059 	0.00161708103 	-8.31654824e-09
0.8990025526 	0.8182276753 	0.001586958274 	-8.490458485e-09
0.9017332295 	0.8124628319 	0.001556090306 	-8.6638823e-09
0.9044337714 	0.8067012472 	0.001524513748 	-8.836012938e-09
0.9071045107 	0.8009393186 	0.001492264299 	-9.005949982e-09
0.9097457765 	0.7951730731 	0.001459376764 	-9.172768782e-09
0.9123578938 	0.7893981157 	0.001425885104 	-9.335521432e-09
0.9149411845 	0.7836095783 	0.001391822488 	-9.493229109e-09
0.9174959666 	0.7778020736 	0.001357221318 	-9.644870394e-09
0.9200225548 	0.7719696617 	0.001322113433 	-9.789365563e-09
0.9225212602 	0.7661058318 	0.001286529765 	-9.92561143e-09
0.9249923905 	0.760203504 	0.001250501975 	-1.005234993e-08
0.92743625 	0.7542550459 	0.001214047216 	-1.016818918e-08
0.9298531397 	0.748252304 	0.001177224556 	-1.027172169e-08
0.9322433571 	0.7426971131 	0.001143179412 	-1.035398807e-08
0.9338003482 	0.7381627407 	0.001115420107 	-1.04105886e-08
0.9353286156 	0.7341493075 	0.001090925949 	-1.045221197e-08
0.936828689 	0.7301482074 	0.001066598678 	-1.04856346e-08
0.9383010886 	0.7261588364 	0.001042432039 	-1.051064915e-08
0.9397463251 	0.7221806849 	0.001018440762 	-1.052717154e-08
0.9411648994 	0.7182133021 	0.000994633503 	-1.053521966e-08
0.9425573035 	0.7142562582 	0.0009710184418 	-1.053483283e-08
0.9439240201 	0.7103091095 	0.0009476030294 	-1.052607608e-08
0.9452655232 	0.7063713706 	0.0009243941795 	-1.05090388e-08
0.9465822779 	0.7024424935 	0.0009013982441 	-1.048382805e-08
0.9478747407 	0.6985218546 	0.0008786210569 	-1.04505632e-08
0.9491433598 	0.6946087465 	0.0008560679733 	-1.040937198e-08
0.950388575 	0.6907023743 	0.0008337439105 	-1.036038772e-08
0.9516108182 	0.6868018543 	0.000811653384 	-1.030374738e-08
0.9528105132 	0.6829062132 	0.0007898005422 	-1.023959022e-08
0.9539880758 	0.6790143889 	0.0007681891998 	-1.016805692e-08
0.9551439144 	0.675125229 	0.0007468228693 	-1.008928903e-08
0.9562784298 	0.6712374904 	0.0007257047909 	-1.000342861e-08
0.9573920154 	0.6673498365 	0.0007048379617 	-9.910618042e-09
0.9584850572 	0.6634608345 	0.0006842251637 	-9.810999937e-09
0.9595579343 	0.6595689507 	0.00066386899 	-9.704717291e-09
0.9606110187 	0.6556725452 	0.0006437718707 	-9.59191843e-09
0.9616446755 	0.6517698653 	0.0006239360983 	-9.472748543e-09
0.9626592631 	0.6478590373 	0.000604363851 	-9.34735076e-09
0.9636551333 	0.6439380578 	0.0005850572156 	-9.215868662e-09
0.9646326314 	0.6400047829 	0.0005660182099 	-9.078446489e-09
0.9655920964 	0.6360569167 	0.0005472488037 	-8.935229359e-09
0.9665338609 	0.6320919974 	0.0005287509393 	-8.78636354e-09
0.9674582514 	0.6281073823 	0.000510526551 	-8.631996774e-09
0.9683655886 	0.6241002311 	0.0004925775834 	-8.472278653e-09
0.969256187 	0.6200674864 	0.0004749060101 	-8.307361057e-09
0.9701303553 	0.6160058526 	0.0004575138493 	-8.137398648e-09
0.9709883968 	0.6119117715 	0.0004404031811 	-7.962549444e-09
0.9718306089 	0.607781396 	0.0004235761611 	-7.782975461e-09
0.9726572836 	0.6036105597 	0.0004070350353 	-7.598843437e-09
0.9734687076 	0.5993947432 	0.0003907821521 	-7.410325652e-09
0.9742651622 	0.5951290363 	0.0003748199734 	-7.217600849e-09
0.9750469236 	0.5908080959 	0.000359151085 	-7.020855269e-09
0.9758142629 	0.5864260981 	0.0003437782044 	-6.820283811e-09
0.9765674461 	0.5819766856 	0.0003287041868 	-6.616091323e-09
0.9773067343 	0.5774529074 	0.0003139320298 	-6.408494037e-09
0.978032384 	0.5728471521 	0.0002994648747 	-6.197721146e-09
0.9787446467 	0.5681510726 	0.0002853060057 	-5.98401652e-09
0.9794437694 	0.5633555013 	0.0002714588457 	-5.767640637e-09
0.9801299944 	0.5584503551 	0.0002579269482 	-5.548873156e-09
0.9808035598 	0.5534245285 	0.0002447139861 	-5.32801371e-09
0.9814646991 	0.5482657729 	0.0002318237354 	-5.105384543e-09
0.9821136415 	0.5429605606 	0.0002192600546 	-4.881332987e-09
0.982750612 	0.5374939319 	0.0002070268589 	-4.656233763e-09
0.9833758316 	0.5318493212 	0.0001951280894 	-4.430491245e-09
0.9839895169 	0.5260083613 	0.0001835676791 	-4.204541647e-09
0.9845918807 	0.5199506605 	0.0001723495068 	-3.978855064e-09
0.985183132 	0.5136535503 	0.0001614773552 	-3.753937215e-09
0.9857634758 	0.5070917965 	0.0001509547529 	-3.530330851e-09
0.9863331132 	0.5002372718 	0.0001407856269 	-3.308615354e-09
0.9868922417 	0.4930585819 	0.00013097274 	-3.089414429e-09
0.9874410553 	0.4855206411 	0.0001215282036 	-2.873382687e-09
0.9879797443 	0.4775841952 	0.0001123912864 	-2.661342582e-09
0.9885084954 	0.4692053708 	0.0001037152461 	-2.453274917e-09
0.9890274919 	0.461110797 	9.61487806e-05 	-2.267486959e-09
0.9893615162 	0.4541965053 	9.008661495e-05 	-2.121120384e-09
0.9896955405 	0.4477692777 	8.489455648e-05 	-1.993903102e-09
0.9900295649 	0.4409766305 	7.985580276e-05 	-1.867897985e-09
0.9903635892 	0.433782433 	7.489392697e-05 	-1.743847146e-09
0.9906976135 	0.4261472525 	7.004449033e-05 	-1.622074492e-09
0.9910316378 	0.4180281245 	6.530701321e-05 	-1.502886344e-09
0.9913656622 	0.409378373 	6.068527501e-05 	-1.386623276e-09
0.9916996865 	0.4001474461 	5.618257419e-05 	-1.273631874e-09
0.9920337108 	0.3902807948 	5.180283875e-05 	-1.164259244e-09
0.9923677351 	0.3797198432 	4.755071933e-05 	-1.058850855e-09
0.9927017594 	0.3684021491 	4.34324113e-05 	-9.577473839e-10
0.9930357838 	0.3562619362 	3.945674068e-05 	-8.612753902e-10
0.9933698081 	0.3432313074 	3.563627174e-05 	-7.697217583e-10
0.9937038324 	0.3292426273 	3.19872883e-05 	-6.832740113e-10
0.9940378567 	0.3142327453 	2.852600675e-05 	-6.019164369e-10
0.9943718811 	0.2981498078 	2.525758115e-05 	-5.253369542e-10
0.9947059054 	0.2809631099 	2.215899039e-05 	-4.530365281e-10
0.9950399297 	0.2626754091 	1.917112069e-05 	-3.848546227e-10
0.995373954 	0.2433351289 	1.622769747e-05 	-3.216455143e-10
0.9957079784 	0.2230435123 	1.332460592e-05 	-2.650987441e-10
0.9960420027 	0.2019509245 	1.056819285e-05 	-2.161944364e-10
0.996376027 	0.1802394942 	8.124908338e-06 	-1.738761118e-10
0.9967100513 	0.1580959463 	6.09992756e-06 	-1.359550294e-10
0.9970440756 	0.1356844294 	4.473039721e-06 	-1.012945289e-10
0.9973781 	0.1131291973 	3.151593894e-06 	-7.052349903e-11
0.9977121243 	0.09051104656 	2.061111789e-06 	-4.487467762e-11
0.9980461486 	0.06787455065 	1.182426899e-06 	-2.503696157e-11
0.9983801729 	0.0452399412 	5.334045399e-07 	-1.107077701e-11
0.9987141973 	0.02261431362 	1.445868276e-07 	-2.962650261e-12
0.9990482216 	0.009538449948 	1.63671069e-08 	-3.273999145e-13
0.9990482216 	0.009538449948 	1.63671069e-08 	-3.273999145e-13
