0.4709558481 	1.061080853e-07 	-2.203159097e-10 	4.65114994e-15 	1.059063945e-07 	-1.764341095e-12 	2.018870231e-10
0.4709558481 	1.061080853e-07 	-2.203159097e-10 	4.65114994e-15 	1.059063945e-07 	-1.764341095e-12 	2.018870231e-10
0.4711314108 	1.191304316e-06 	-9.666569256e-09 	2.04221477e-13 	1.18907261e-06 	-1.980915939e-11 	2.266702881e-09
0.4713069734 	6.640235345e-06 	-1.261390513e-07 	2.666150327e-12 	6.628697578e-06 	-1.104301265e-10 	1.263613993e-08
0.471482536 	2.210600511e-05 	-7.868829806e-07 	1.662904892e-11 	2.207669649e-05 	-3.677636039e-10 	4.20843194e-08
0.4716580986 	5.459886895e-05 	-3.193107898e-06 	6.737861805e-11 	5.457896574e-05 	-9.089534093e-10 	1.040426781e-07
0.4718336613 	0.0001116850564 	-9.78472981e-06 	2.056959983e-10 	0.0001118538761 	-1.861343018e-09 	2.13224576e-07
0.4720092239 	0.0002009399476 	-2.460211819e-05 	5.134869572e-10 	0.0002018858359 	-3.35354406e-09 	3.848505144e-07
0.4721847865 	0.000329284881 	-5.332956613e-05 	1.099955572e-09 	0.0003324394868 	-5.502820797e-09 	6.337220586e-07
0.4723603491 	0.0005021423227 	-0.0001028009716 	2.083203885e-09 	0.000510342399 	-8.395802782e-09 	9.728544548e-07
0.4725359118 	0.0007225105733 	-0.0001798622743 	3.557400706e-09 	0.0007405012236 	-1.206351997e-08 	1.411601144e-06
0.4727114744 	0.000990200479 	-0.0002897691983 	5.555517122e-09 	0.001024791452 	-1.645792973e-08 	1.953537334e-06
0.472887037 	0.001301528741 	-0.000434639334 	8.025742245e-09 	0.001361166955 	-2.144233613e-08 	2.594762534e-06
0.4730625996 	0.001649655898 	-0.0006126157938 	1.083684421e-08 	0.001743420301 	-2.68060737e-08 	3.323443653e-06
0.4732381623 	0.002025520339 	-0.000818143146 	1.381224565e-08 	0.002161843804 	-3.230232785e-08 	4.121075143e-06
0.4734137249 	0.002419091084 	-0.001043222937 	1.677576935e-08 	0.002604650121 	-3.76946403e-08 	4.965187055e-06
0.4735892875 	0.002820580507 	-0.001279080864 	1.958781982e-08 	0.003059675886 	-4.27937474e-08 	5.832592631e-06
0.4737648501 	0.003221346721 	-0.001517620501 	2.216073323e-08 	0.00351584117 	-4.74743226e-08 	6.702170448e-06
0.4739404128 	0.003614384958 	-0.0017523062 	2.445541814e-08 	0.003964052548 	-5.167280447e-08 	7.556585907e-06
0.4741159754 	0.003994452323 	-0.001978450864 	2.646833268e-08 	0.00439752013 	-5.537423961e-08 	8.382895596e-06
0.474291538 	0.004357941437 	-0.002193084694 	2.821716126e-08 	0.004811641923 	-5.859625578e-08 	9.172326833e-06
0.4744671006 	0.00470262391 	-0.002394619381 	2.972958762e-08 	0.005203655642 	-6.137511843e-08 	9.919613935e-06
0.4746426632 	0.005027355514 	-0.002582468455 	3.103611807e-08 	0.005572219021 	-6.375561e-08 	1.062219817e-05
0.4748182259 	0.005331798504 	-0.002756711326 	3.216619362e-08 	0.005917015439 	-6.578455355e-08 	1.127947598e-05
0.4749937885 	0.005616186805 	-0.002917832849 	3.314643254e-08 	0.006238427607 	-6.750708885e-08 	1.18921769e-05
0.4751693511 	0.005881140617 	-0.003066538638 	3.400004954e-08 	0.006537288194 	-6.896477577e-08 	1.246188824e-05
0.4753449137 	0.006127526755 	-0.003203633087 	3.474683541e-08 	0.006814699008 	-7.019480386e-08 	1.299071036e-05
0.4755204764 	0.006356356925 	-0.003329943906 	3.54033583e-08 	0.007071906578 	-7.122987083e-08 	1.348101947e-05
0.475696039 	0.006568716209 	-0.003446278961 	3.598323475e-08 	0.007310205461 	-7.209808296e-08 	1.393528337e-05
0.4758716016 	0.006765710208 	-0.003553409573 	3.649754796e-08 	0.00753094013 	-7.282418546e-08 	1.4356065e-05
0.4760471642 	0.006948480512 	-0.003651752718 	3.694941953e-08 	0.007735305982 	-7.342755644e-08 	1.474564312e-05
0.4762227269 	0.007140417638 	-0.003755844748 	3.742049484e-08 	0.007950153625 	-7.399447839e-08 	1.515520244e-05
0.4764955107 	0.007358296058 	-0.003872783943 	3.795884821e-08 	0.008193490582 	-7.455527938e-08 	1.561907031e-05
0.4767734216 	0.007575348392 	-0.003986874976 	3.851735998e-08 	0.008434959565 	-7.502487407e-08 	1.607937731e-05
0.4770565557 	0.007771864108 	-0.00408993821 	3.907633869e-08 	0.008653420466 	-7.53712853e-08 	1.64958245e-05
0.4773450114 	0.007949704774 	-0.004182614948 	3.962823686e-08 	0.008850793147 	-7.560627684e-08 	1.687207169e-05
0.4776388886 	0.008110535967 	-0.00426591818 	4.017307684e-08 	0.009029049953 	-7.574082598e-08 	1.721187871e-05
0.4779382892 	0.008255894688 	-0.004340742361 	4.07094331e-08 	0.009189917022 	-7.57820631e-08 	1.751853605e-05
0.4782433171 	0.008387183822 	-0.004407885227 	4.123524828e-08 	0.009334985913 	-7.573588317e-08 	1.779507768e-05
0.4785540779 	0.008505679099 	-0.004468058485 	4.174813486e-08 	0.009465695168 	-7.560688739e-08 	1.804424584e-05
0.4788706795 	0.008612536602 	-0.004521897623 	4.224556288e-08 	0.009583344972 	-7.539887529e-08 	1.826851907e-05
0.4791932316 	0.008708801297 	-0.004569971028 	4.272498056e-08 	0.009689107883 	-7.511510733e-08 	1.847013257e-05
0.4795218461 	0.008795415751 	-0.004612788083 	4.318388937e-08 	0.009784040343 	-7.475849042e-08 	1.865110023e-05
0.4798566368 	0.008873228759 	-0.004650806246 	4.361988966e-08 	0.009869093308 	-7.433169156e-08 	1.881323482e-05
0.48019772 	0.008943003635 	-0.004684437171 	4.403070539e-08 	0.009945122213 	-7.3837208e-08 	1.895816704e-05
0.4805452138 	0.009005426047 	-0.004714051957 	4.441419346e-08 	0.01001289616 	-7.327740623e-08 	1.908736301e-05
0.4808992388 	0.009061111334 	-0.004739985645 	4.476834071e-08 	0.0100731063 	-7.265454001e-08 	1.920214028e-05
0.4812599177 	0.00911061128 	-0.00476254109 	4.509125165e-08 	0.01012637353 	-7.19707545e-08 	1.930368244e-05
0.4816273755 	0.009154420347 	-0.004781992294 	4.538112902e-08 	0.01017325541 	-7.122808209e-08 	1.939305232e-05
0.4820017397 	0.009192981387 	-0.004798587308 	4.563624948e-08 	0.01021425243 	-7.042843401e-08 	1.947120404e-05
0.48238314 	0.009226690844 	-0.004812550767 	4.58549366e-08 	0.01024981377 	-6.957359078e-08 	1.953899384e-05
0.4827717088 	0.009255903493 	-0.004824086125 	4.603553292e-08 	0.0102803424 	-6.866519369e-08 	1.959718988e-05
0.4831675807 	0.009280936726 	-0.004833377632 	4.617637303e-08 	0.01030619972 	-6.770473888e-08 	1.964648112e-05
0.4835708931 	0.009302074435 	-0.004840592104 	4.627575879e-08 	0.01032770978 	-6.669357514e-08 	1.968748529e-05
0.4839817856 	0.009319570513 	-0.004845880502 	4.633193801e-08 	0.01034516308 	-6.563290598e-08 	1.972075612e-05
0.4844004009 	0.009333651999 	-0.004849379361 	4.634308797e-08 	0.0103588199 	-6.452379648e-08 	1.974678982e-05
0.4848268841 	0.009344521916 	-0.004851212072 	4.630730445e-08 	0.01036891345 	-6.336718503e-08 	1.976603093e-05
0.485261383 	0.009352361804 	-0.00485149005 	4.622259662e-08 	0.01037565255 	-6.21638997e-08 	1.977887753e-05
0.4857040484 	0.009357333997 	-0.004850313795 	4.608688851e-08 	0.01037922417 	-6.091467925e-08 	1.978568602e-05
0.4861550336 	0.009359583654 	-0.004847773846 	4.589802746e-08 	0.0103797956 	-5.962019829e-08 	1.978677533e-05
0.4866144951 	0.009359240576 	-0.004843951666 	4.565379962e-08 	0.01037751649 	-5.828109629e-08 	1.978243072e-05
0.4870825921 	0.009356420829 	-0.004838920431 	4.535195256e-08 	0.01037252062 	-5.689800977e-08 	1.97729072e-05
0.487559487 	0.009351228185 	-0.004832745763 	4.499022475e-08 	0.0103649275 	-5.547160716e-08 	1.97584326e-05
0.4880453452 	0.009343755413 	-0.004825486391 	4.456638178e-08 	0.01035484382 	-5.400262559e-08 	1.97392103e-05
0.4885403351 	0.009334085431 	-0.004817194756 	4.407825864e-08 	0.01034236476 	-5.249190892e-08 	1.971542174e-05
0.4890446283 	0.009322292328 	-0.004807917568 	4.352380766e-08 	0.01032757512 	-5.094044599e-08 	1.968722857e-05
0.4895583997 	0.00930844228 	-0.004797696307 	4.290115108e-08 	0.0103105504 	-4.934940852e-08 	1.965477472e-05
0.4900818274 	0.009292594369 	-0.004786567688 	4.220863745e-08 	0.01029135772 	-4.772018745e-08 	1.961818815e-05
0.4906150929 	0.009274801319 	-0.004774564088 	4.144490066e-08 	0.01027005669 	-4.605442694e-08 	1.957758247e-05
0.4911583811 	0.009255110154 	-0.004761713931 	4.06089203e-08 	0.01024670017 	-4.435405498e-08 	1.953305844e-05
0.4917118805 	0.009233562795 	-0.004748042042 	3.970008203e-08 	0.01022133495 	-4.262130968e-08 	1.948470528e-05
0.4922757829 	0.009210196601 	-0.004733569979 	3.871823632e-08 	0.01019400243 	-4.085876033e-08 	1.943260191e-05
0.4928502838 	0.009185044862 	-0.004718316327 	3.76637541e-08 	0.01016473918 	-3.906932228e-08 	1.937681802e-05
0.4934355824 	0.009158137253 	-0.004702296974 	3.653757768e-08 	0.01013357746 	-3.725626499e-08 	1.931741512e-05
0.4940318817 	0.009129500253 	-0.004685525354 	3.534126516e-08 	0.01010054574 	-3.542321242e-08 	1.925444748e-05
0.4946393885 	0.009099157535 	-0.004668012673 	3.407702706e-08 	0.01006566913 	-3.35741354e-08 	1.918796298e-05
0.4952583133 	0.00906713033 	-0.004649768108 	3.274775354e-08 	0.01002896984 	-3.171333546e-08 	1.911800392e-05
0.4958888709 	0.009033437768 	-0.004630798977 	3.135703101e-08 	0.009990467496 	-2.984542023e-08 	1.904460775e-05
0.4965312797 	0.008998097202 	-0.004611110889 	2.990914747e-08 	0.009950179581 	-2.797527025e-08 	1.896780779e-05
0.4971857627 	0.008961124509 	-0.004590707862 	2.840908572e-08 	0.009908121703 	-2.610799795e-08 	1.888763379e-05
0.4978525466 	0.008922534366 	-0.00456959241 	2.686250478e-08 	0.009864307913 	-2.424889922e-08 	1.880411252e-05
0.4985318627 	0.008882340506 	-0.004547765606 	2.527570985e-08 	0.00981875096 	-2.240339898e-08 	1.871726831e-05
0.4992239466 	0.008840555943 	-0.00452522711 	2.365561207e-08 	0.009771462516 	-2.057699194e-08 	1.862712339e-05
0.4999290382 	0.008797193166 	-0.004501975174 	2.200967937e-08 	0.009722453357 	-1.87751802e-08 	1.853369831e-05
0.5006473819 	0.008752264288 	-0.004478006628 	2.034587994e-08 	0.009671733513 	-1.700340907e-08 	1.843701219e-05
0.501379227 	0.008705781153 	-0.004453316873 	1.867261887e-08 	0.009619312451 	-1.526700335e-08 	1.833708308e-05
0.502124827 	0.008657755415 	-0.004427899891 	1.69986673e-08 	0.009565198977 	-1.357111681e-08 	1.823392776e-05
0.5028844406 	0.008608198561 	-0.00440174829 	1.533308189e-08 	0.00950940144 	-1.192067069e-08 	1.812756215e-05
0.5036583311 	0.008557122169 	-0.004374853545 	1.368511045e-08 	0.009451921891 	-1.032024739e-08 	1.801799015e-05
0.5044467669 	0.008504536328 	-0.004347207036 	1.2064084e-08 	0.009392786444 	-8.773129293e-09 	1.790526155e-05
0.5052500214 	0.008450456504 	-0.004318763371 	1.047973292e-08 	0.009331994562 	-7.283658067e-09 	1.778937533e-05
0.506068373 	0.008387622577 	-0.004286453202 	8.736103315e-09 	0.009261639428 	-5.677810851e-09 	1.765525889e-05
0.507324668 	0.008308638207 	-0.004245506027 	6.721934384e-09 	0.009173103756 	-3.837067616e-09 	1.748648529e-05
0.5085949819 	0.008220717251 	-0.004198941977 	4.710374802e-09 	0.009074251581 	-1.994744287e-09 	1.729804557e-05
0.5098794711 	0.00813101435 	-0.004151368008 	2.882554909e-09 	0.008973420537 	-3.15156279e-10 	1.710583358e-05
0.5111782938 	0.008039590328 	-0.004102762474 	1.241613071e-09 	0.008870660697 	1.215437685e-09 	1.690994476e-05
0.5124916099 	0.007946485537 	-0.004053166867 	-2.160226506e-10 	0.00876605405 	2.61468656e-09 	1.671053542e-05
0.5138195812 	0.007851733097 	-0.004002620659 	-1.497929845e-09 	0.008659638414 	3.900337605e-09 	1.650767764e-05
0.5151623712 	0.007755357943 	-0.003951161683 	-2.614804197e-09 	0.008551453131 	5.090783368e-09 	1.630144642e-05
0.5165201452 	0.00765737836 	-0.003898825993 	-3.579633259e-09 	0.008441529176 	6.204525786e-09 	1.609190081e-05
0.5178930705 	0.007557806941 	-0.003845647454 	-4.406981169e-09 	0.008329890748 	7.259838431e-09 	1.587908694e-05
0.5192813161 	0.007456651526 	-0.003791657416 	-5.112399366e-09 	0.008216555859 	8.27448737e-09 	1.566303914e-05
0.520685053 	0.007353916062 	-0.003736884421 	-5.711960376e-09 	0.008101537273 	9.265539963e-09 	1.544378175e-05
0.522104454 	0.0072496014 	-0.00368135399 	-6.221904065e-09 	0.007984843273 	1.024922892e-08 	1.522133055e-05
0.523539694 	0.007143706052 	-0.003625088488 	-6.658379494e-09 	0.007866478424 	1.124085614e-08 	1.499569425e-05
0.5249909497 	0.007036226908 	-0.003568107059 	-7.037263173e-09 	0.007746444319 	1.225472098e-08 	1.476687589e-05
0.5264583998 	0.006927159963 	-0.003510425628 	-7.374034513e-09 	0.007624740346 	1.330405994e-08 	1.453487429e-05
0.527942225 	0.006816501053 	-0.003452056958 	-7.683690694e-09 	0.007501364483 	1.440098671e-08 	1.42996856e-05
0.5294426081 	0.006704246652 	-0.003393010745 	-7.980685375e-09 	0.007376314143 	1.555642411e-08 	1.40613049e-05
0.5309597337 	0.006590394711 	-0.003333293752 	-8.278878168e-09 	0.00724958707 	1.678002166e-08 	1.381972787e-05
0.5324937889 	0.00647494557 	-0.003272909977 	-8.591484156e-09 	0.007121182301 	1.80800552e-08 	1.35749527e-05
0.5340449624 	0.00635790292 	-0.003211860854 	-8.931015166e-09 	0.006991101179 	1.946330774e-08 	1.332698192e-05
0.5356134452 	0.006239274799 	-0.003150145478 	-9.309206698e-09 	0.006859348399 	2.093493365e-08 	1.307582451e-05
0.5371994306 	0.006119074575 	-0.003087760875 	-9.736926499e-09 	0.006725933056 	2.249831189e-08 	1.282149778e-05
0.5388031139 	0.005997321887 	-0.003024702297 	-1.022406276e-08 	0.006590869654 	2.415489709e-08 	1.25640294e-05
0.5404246925 	0.005874043453 	-0.002960963571 	-1.077939179e-08 	0.006454179012 	2.590408047e-08 	1.230345904e-05
0.5420643661 	0.005749273708 	-0.002896537476 	-1.141042705e-08 	0.006315889021 	2.774307463e-08 	1.203983989e-05
0.5437223366 	0.005623055183 	-0.002831416181 	-1.212325318e-08 	0.006176035183 	2.966683721e-08 	1.17732396e-05
0.5453988083 	0.005495438593 	-0.002765591716 	-1.292235075e-08 	0.00603466089 	3.166804644e-08 	1.15037409e-05
0.5470939875 	0.00536648259 	-0.002699056494 	-1.381041929e-08 	0.005891817421 	3.373713833e-08 	1.123144155e-05
0.5488080831 	0.005236253203 	-0.002631803872 	-1.478820785e-08 	0.005747563656 	3.586240848e-08 	1.095645378e-05
0.5505413061 	0.005104823 	-0.002563828751 	-1.585436367e-08 	0.005601965548 	3.803017396e-08 	1.067890332e-05
0.5522938699 	0.004972270078 	-0.002495128201 	-1.700531008e-08 	0.005455095438 	4.022498218e-08 	1.039892807e-05
0.5540659904 	0.004838676993 	-0.002425702121 	-1.823516485e-08 	0.005307031325 	4.242984764e-08 	1.011667672e-05
0.5558578859 	0.004704129792 	-0.002355553921 	-1.95357087e-08 	0.005157856225 	4.462649327e-08 	9.832307517e-06
0.5576697768 	0.004568717295 	-0.00228469123 	-2.089641191e-08 	0.005007657751 	4.679557433e-08 	9.54598748e-06
0.5595018865 	0.004432530763 	-0.002213126636 	-2.230452379e-08 	0.004856528054 	4.891686701e-08 	9.257892273e-06
0.5613544406 	0.004295664049 	-0.002140878458 	-2.374522622e-08 	0.004704564192 	5.096941173e-08 	8.968206917e-06
0.563227667 	0.004158214277 	-0.002067971556 	-2.520184764e-08 	0.004551869002 	5.293160936e-08 	8.677127445e-06
0.5651217966 	0.004020283059 	-0.00199443818 	-2.665612959e-08 	0.004398552451 	5.4781277e-08 	8.384863486e-06
0.5670370626 	0.003881978197 	-0.001920318863 	-2.808853249e-08 	0.004244733452 	5.64956755e-08 	8.091641723e-06
0.5689737009 	0.003743415798 	-0.001845663364 	-2.947856359e-08 	0.004090542069 	5.805152573e-08 	7.797710091e-06
0.5709319499 	0.00360472272 	-0.001770531634 	-3.080510705e-08 	0.003936122026 	5.942503378e-08 	7.50334257e-06
0.5729120508 	0.003466039242 	-0.001694994827 	-3.20467363e-08 	0.003781633432 	6.059194874e-08 	7.208844372e-06
0.5749142474 	0.003327521878 	-0.001619136305 	-3.31819931e-08 	0.003627255671 	6.152767975e-08 	6.914557453e-06
0.5769387863 	0.00318934628 	-0.001543052634 	-3.418962745e-08 	0.003473190252 	6.22075093e-08 	6.620865943e-06
0.5789859169 	0.003051710102 	-0.001466854471 	-3.504880724e-08 	0.003319664611 	6.260690884e-08 	6.328203402e-06
0.5810558911 	0.002914836087 	-0.001390667283 	-3.573931821e-08 	0.003166931711 	6.270205476e-08 	6.037052044e-06
0.583148964 	0.002778974512 	-0.00131463475 	-3.624169788e-08 	0.003015276861 	6.247017852e-08 	5.74795575e-06
0.5852653933 	0.002644416108 	-0.001238835948 	-3.653909426e-08 	0.002865005078 	6.189097815e-08 	5.461495967e-06
0.5874054395 	0.002511446869 	-0.001163528821 	-3.661070168e-08 	0.002716470379 	6.094457436e-08 	5.178347546e-06
0.5895693664 	0.0023805124 	-0.001089080544 	-3.64398633e-08 	0.002570208618 	5.953450176e-08 	4.899531978e-06
0.5917574402 	0.002252312237 	-0.001015553939 	-3.602589099e-08 	0.002426900322 	5.760120555e-08 	4.626346536e-06
0.5939699306 	0.002127393323 	-0.0009430721925 	-3.537145414e-08 	0.002287107538 	5.526802866e-08 	4.359862635e-06
0.5962071099 	0.002006093611 	-0.0008719259836 	-3.44813663e-08 	0.002151251015 	5.261658225e-08 	4.100882345e-06
0.5984692536 	0.001888803962 	-0.0008023558988 	-3.336743556e-08 	0.002019790691 	4.96265688e-08 	3.850282428e-06
0.6007566404 	0.00177599934 	-0.0007346077907 	-3.204793747e-08 	0.001893271176 	4.629276551e-08 	3.60910107e-06
0.6030695519 	0.00166822489 	-0.0006689320611 	-3.054823606e-08 	0.001772307152 	4.261885091e-08 	3.378510019e-06
0.6054082729 	0.001566081738 	-0.0006055802319 	-2.889916999e-08 	0.001657573735 	3.861804048e-08 	3.159796238e-06
0.6077730914 	0.001470208268 	-0.0005448001886 	-2.713537361e-08 	0.001549788329 	3.431382842e-08 	2.954327297e-06
0.6101642987 	0.001381256151 	-0.0004868292181 	-2.529395131e-08 	0.001449686631 	2.974118992e-08 	2.763505638e-06
0.6125821893 	0.001299859845 	-0.0004318842498 	-2.341368845e-08 	0.001357990295 	2.494865844e-08 	2.588706936e-06
0.6150270608 	0.001226598739 	-0.0003801491126 	-2.153467636e-08 	0.001275365109 	2.000062985e-08 	2.431200368e-06
0.6174992144 	0.001161952793 	-0.0003317595798 	-1.969789633e-08 	0.001202370348 	1.497874499e-08 	2.292052066e-06
0.6199989545 	0.001106254851 	-0.0002867882955 	-1.794426712e-08 	0.00113940322 	9.980846235e-09 	2.172019219e-06
0.622526589 	0.001059644972 	-0.0002452321485 	-1.631198054e-08 	0.001086644976 	5.11713643e-09 	2.071447342e-06
0.625082429 	0.001022048257 	-0.0002070156021 	-1.482778741e-08 	0.001044033417 	4.748589691e-10 	1.990217868e-06
0.6276667894 	0.0009931993734 	-0.0001719930753 	-1.351547201e-08 	0.001011282513 	-3.873801274e-09 	1.927785541e-06
0.6302799884 	0.000972635611 	-0.0001399492023 	-1.239402347e-08 	0.0009878738207 	-7.841594699e-09 	1.883162067e-06
0.6329223478 	0.0009596779179 	-0.0001106266757 	-1.146128619e-08 	0.0009730449351 	-1.136902147e-08 	1.85489409e-06
0.6355941931 	0.0009534977234 	-8.375355627e-05 	-1.070561936e-08 	0.0009658654494 	-1.444139058e-08 	1.841207995e-06
0.6382958531 	0.0009532012876 	-5.905772153e-05 	-1.011225475e-08 	0.0009653296696 	-1.70712308e-08 	1.84018665e-06
0.6410276607 	0.0009578867902 	-3.628125272e-05 	-9.66139848e-09 	0.0009704223458 	-1.92919571e-08 	1.849894706e-06
0.6437899523 	0.0009666906625 	-1.518963719e-05 	-9.332098194e-09 	0.0009801719444 	-2.115003399e-08 	1.868480151e-06
0.646583068 	0.000978820031 	4.424050786e-06 	-9.104068065e-09 	0.000993687628 	-2.26976864e-08 	1.8942448e-06
0.6494073518 	0.0009935711358 	2.273863828e-05 	-8.958787154e-09 	0.001010179852 	-2.398715366e-08 	1.925683563e-06
0.6522631514 	0.001010335855 	3.990668531e-05 	-8.880031885e-09 	0.001028967278 	-2.506687205e-08 	1.961497619e-06
0.6551508186 	0.001028599567 	5.605746184e-05 	-8.853965856e-09 	0.001049473808 	-2.597940521e-08 	2.000588763e-06
0.658070709 	0.001047933641 	7.130022e-05 	-8.868981097e-09 	0.001071219578 	-2.676071581e-08 	2.042042247e-06
0.6610231822 	0.001067985291 	8.572732371e-05 	-8.915435821e-09 	0.001093809055 	-2.744030864e-08 	2.085104067e-06
0.6640086017 	0.001088466689 	9.941707052e-05 	-8.985372348e-09 	0.001116918409 	-2.804184726e-08 	2.129156919e-06
0.6670273351 	0.00110914451 	0.0001124361674 	-9.072252882e-09 	0.001140283518 	-2.858396498e-08 	2.173697311e-06
0.6700797543 	0.001129830515 	0.0001248418688 	-9.170726348e-09 	0.001163689251 	-2.908110231e-08 	2.218315142e-06
0.6731662352 	0.001150373405 	0.0001366838007 	-9.276428789e-09 	0.001186960295 	-2.954428474e-08 	2.262676222e-06
0.6762871577 	0.001170651976 	0.0001480055012 	-9.385815512e-09 	0.001209953535 	-2.998180496e-08 	2.306507728e-06
0.6794429063 	0.001190569477 	0.0001588457131 	-9.496021485e-09 	0.001232551853 	-3.039980177e-08 	2.349586401e-06
0.6826338695 	0.001210049037 	0.0001692394634 	-9.604745843e-09 	0.001254659188 	-3.080274015e-08 	2.391729127e-06
0.6858604404 	0.001229029988 	0.0001792189673 	-9.710156311e-09 	0.001276196666 	-3.119380254e-08 	2.432785545e-06
0.6891230163 	0.001247464922 	0.0001888143888 	-9.810809666e-09 	0.001297099601 	-3.157520181e-08 	2.47263235e-06
0.6924219988 	0.001265317348 	0.0001980544881 	-9.905584849e-09 	0.001317315223 	-3.194842651e-08 	2.511168944e-06
0.6957577944 	0.00128255981 	0.000206967183 	-9.993625912e-09 	0.001336800962 	-3.231442821e-08 	2.548314178e-06
0.6991308138 	0.001299172383 	0.0002155800476 	-1.007429259e-08 	0.001355523183 	-3.267376033e-08 	2.584003934e-06
0.7025414724 	0.001315141478 	0.0002239207691 	-1.01471169e-08 	0.001373456273 	-3.302667752e-08 	2.618189388e-06
0.7059901901 	0.001330458902 	0.0002320175832 	-1.021176477e-08 	0.001390581998 	-3.337320416e-08 	2.65083578e-06
0.7094773917 	0.001345121173 	0.0002398997053 	-1.026800213e-08 	0.001406889085 	-3.371317908e-08 	2.681921621e-06
0.7130035066 	0.00135912905 	0.0002475977753 	-1.031566542e-08 	0.001422372998 	-3.404628205e-08 	2.711438262e-06
0.7165689691 	0.001372487317 	0.0002551443411 	-1.035463561e-08 	0.001437035881 	-3.437204492e-08 	2.739389792e-06
0.7201742182 	0.001385204801 	0.0002625743929 	-1.038481723e-08 	0.001450886673 	-3.468984691e-08 	2.765793253e-06
0.7238196978 	0.00139729465 	0.0002699259673 	-1.040612182e-08 	0.00146394146 	-3.499889677e-08 	2.790679304e-06
0.727505857 	0.001408774899 	0.0002772408187 	-1.041844772e-08 	0.001476223999 	-3.529819148e-08 	2.814093237e-06
0.7312331497 	0.001419669293 	0.000284566511 	-1.042184364e-08 	0.001487766586 	-3.558645175e-08 	2.836096617e-06
0.7350020349 	0.00142998716 	0.0002919331817 	-1.041644197e-08 	0.001498587346 	-3.586182757e-08 	2.856723992e-06
0.7387709215 	0.00143970565 	0.0002993280836 	-1.040198131e-08 	0.001508672803 	-3.612147963e-08 	2.875949676e-06
0.7424982157 	0.00144882458 	0.0003067474315 	-1.037822383e-08 	0.001518041153 	-3.636221267e-08 	2.893808356e-06
0.7461843763 	0.001457404265 	0.0003142360833 	-1.034542815e-08 	0.001526780447 	-3.658109544e-08 	2.910467879e-06
0.7498298574 	0.001465531982 	0.0003218556483 	-1.030378341e-08 	0.001535007958 	-3.677510186e-08 	2.926151801e-06
0.7534351078 	0.001473301887 	0.0003296668324 	-1.02531623e-08 	0.00154284764 	-3.694088685e-08 	2.941096415e-06
0.7570005716 	0.001480816115 	0.0003377310315 	-1.019326461e-08 	0.00155043111 	-3.707477147e-08 	2.955552616e-06
0.7605266877 	0.001488185827 	0.000346110457 	-1.012358852e-08 	0.001557898538 	-3.717273289e-08 	2.96978761e-06
0.7640138905 	0.00149553211 	0.0003548682684 	-1.004340363e-08 	0.001565399409 	-3.723040788e-08 	2.984086353e-06
0.7674626093 	0.001502986667 	0.0003640686558 	-9.95171872e-09 	0.001573093107 	-3.724310452e-08 	2.99875268e-06
0.770873269 	0.001510692274 	0.0003737768657 	-9.847243348e-09 	0.0015811493 	-3.720582871e-08 	3.014110023e-06
0.7742462894 	0.001518802945 	0.0003840591624 	-9.728342654e-09 	0.001589748037 	-3.711332399e-08 	3.030501607e-06
0.777582086 	0.001527483735 	0.0003949827189 	-9.592985807e-09 	0.001599079503 	-3.696012241e-08 	3.048289974e-06
0.7808810695 	0.001536910157 	0.0004066154352 	-9.438689823e-09 	0.00160934336 	-3.674060318e-08 	3.067855737e-06
0.7841436462 	0.00154726715 	0.0004190256832 	-9.262462219e-09 	0.001620747635 	-3.644905415e-08 	3.089595456e-06
0.787370218 	0.001558747568 	0.0004322819798 	-9.060747872e-09 	0.001633507116 	-3.607973053e-08 	3.113918573e-06
0.7905611821 	0.001571550198 	0.0004464525955 	-8.829387516e-09 	0.001647841251 	-3.562690538e-08 	3.141243419e-06
0.7937169314 	0.001585877318 	0.0004616051051 	-8.563597215e-09 	0.001663971583 	-3.508490764e-08 	3.171992314e-06
0.7968378547 	0.001601931852 	0.0004778058908 	-8.257979637e-09 	0.001682118782 	-3.444814629e-08 	3.20658592e-06
0.7999243362 	0.001619914218 	0.0004951196066 	-7.906578619e-09 	0.001702499377 	-3.371112322e-08 	3.245436998e-06
0.8029767561 	0.001640018982 	0.0005136086167 	-7.502987828e-09 	0.001725322318 	-3.286844256e-08 	3.288943867e-06
0.8059954902 	0.001662431477 	0.0005333324121 	-7.040522047e-09 	0.001750785523 	-3.191482939e-08 	3.337483813e-06
0.8089809102 	0.001687324525 	0.0005543470136 	-6.512455287e-09 	0.001779072577 	-3.084517475e-08 	3.3914068e-06
0.8119333839 	0.001714855433 	0.0005767043615 	-5.912323731e-09 	0.001810349733 	-2.965462582e-08 	3.451029751e-06
0.8148532749 	0.001745163385 	0.0006004516914 	-5.234283761e-09 	0.001844763346 	-2.833873777e-08 	3.516631663e-06
0.8177409426 	0.001778367347 	0.0006256308936 	-4.473506868e-09 	0.001882437847 	-2.689369804e-08 	3.588449733e-06
0.8205967427 	0.001814564533 	0.0006522778552 	-3.626585405e-09 	0.001923474283 	-2.531662342e-08 	3.666676586e-06
0.8234210268 	0.001853829456 	0.0006804217872 	-2.691917081e-09 	0.00196794945 	-2.360591803e-08 	3.751458614e-06
0.8262141429 	0.001896213542 	0.0007100845459 	-1.670033363e-09 	0.002015915564 	-2.17616669e-08 	3.84289536e-06
0.8289764348 	0.001941745256 	0.0007412799672 	-5.638382145e-10 	0.002067400419 	-1.978602915e-08 	3.941039803e-06
0.8317082427 	0.001990430647 	0.0007740132415 	6.212707598e-10 	0.002122407928 	-1.768358804e-08 	4.045899403e-06
0.8344099031 	0.002042254241 	0.0008082803649 	1.877417182e-09 	0.002180918986 	-1.546161449e-08 	4.157437743e-06
0.8370817486 	0.002097180193 	0.0008440677083 	3.194402992e-09 	0.002242892564 	-1.313020649e-08 	4.275576606e-06
0.8397241082 	0.002155153631 	0.0008813517456 	4.560000658e-09 	0.002308266973 	-1.070227811e-08 	4.4001984e-06
0.8423373074 	0.002216102124 	0.0009200989774 	5.960360803e-09 	0.002376961278 	-8.193386979e-09 	4.531148837e-06
0.844921668 	0.002279937252 	0.000960266078 	7.380505285e-09 	0.002448876804 	-5.62140574e-09 	4.668239819e-06
0.8474775082 	0.002346556228 	0.001001800278 	8.804869109e-09 	0.00252389876 	-3.006058616e-09 	4.811252517e-06
0.8500051427 	0.002415843578 	0.001044639978 	1.021785202e-08 	0.002601897931 	-3.683565488e-10 	4.959940617e-06
0.8525048829 	0.002487672841 	0.001088715584 	1.160434241e-08 	0.002682732476 	2.270027643e-09 	5.114033727e-06
0.8549770366 	0.002561908296 	0.001133950514 	1.295018134e-08 	0.002766249777 	4.887399943e-09 	5.273240915e-06
0.8574219081 	0.002638406687 	0.001180262353 	1.424254259e-08 	0.002852288351 	7.462659642e-09 	5.437254349e-06
0.8598397987 	0.002717018938 	0.001227564095 	1.547021367e-08 	0.002940679779 	9.975851749e-09 	5.605752978e-06
0.862231006 	0.002797591829 	0.001275765418 	1.66237723e-08 	0.003031250637 	1.240863018e-08 	5.778406207e-06
0.8645958245 	0.002879969615 	0.001324773955 	1.769566151e-08 	0.003123824374 	1.474461464e-08 	5.954877479e-06
0.8669345455 	0.002963995559 	0.0013744965 	1.868017319e-08 	0.003218223116 	1.696963408e-08 	6.134827717e-06
0.8692474569 	0.003049513369 	0.001424840131 	1.957335507e-08 	0.003314269354 	1.907185848e-08 	6.317918542e-06
0.8715348435 	0.003136368497 	0.001475713206 	2.037285864e-08 	0.003411787494 	2.104182791e-08 	6.503815222e-06
0.8737969871 	0.003224409308 	0.001527026226 	2.107774649e-08 	0.003510605239 	2.287239267e-08 	6.692189307e-06
0.8760341663 	0.003313488094 	0.001578692551 	2.168827662e-08 	0.003610554781 	2.455858134e-08 	6.882720915e-06
0.8782466565 	0.003403461928 	0.001630628973 	2.220567926e-08 	0.00371147382 	2.60974146e-08 	7.075100651e-06
0.8804347301 	0.003494193356 	0.001682756137 	2.263193912e-08 	0.003813206366 	2.748768218e-08 	7.269031159e-06
0.8825986568 	0.003585550934 	0.001734998847 	2.296959285e-08 	0.003915603369 	2.872969865e-08 	7.464228308e-06
0.8847387028 	0.003677409599 	0.001787286238 	2.32215487e-08 	0.004018523154 	2.982505186e-08 	7.660422022e-06
0.8868551318 	0.003769650904 	0.001839551856 	2.339093242e-08 	0.004121831679 	3.077635484e-08 	7.857356783e-06
0.8889482045 	0.003862163098 	0.001891733648 	2.348096132e-08 	0.004225402637 	3.158700987e-08 	8.054791816e-06
0.8910181784 	0.003954841084 	0.001943773881 	2.349484643e-08 	0.004329117407 	3.226099088e-08 	8.252500994e-06
0.8930653087 	0.004047586245 	0.001995619003 	2.343572163e-08 	0.004432864866 	3.280264828e-08 	8.450272486e-06
0.8950898473 	0.00414030617 	0.002047219471 	2.330659735e-08 	0.004536541087 	3.321653897e-08 	8.647908178e-06
0.8970920436 	0.00423291427 	0.002098529535 	2.311033633e-08 	0.004640048924 	3.350728265e-08 	8.845222885e-06
0.8990721441 	0.004325329309 	0.002149507021 	2.284964831e-08 	0.004743297518 	3.367944514e-08 	9.042043401e-06
0.9010303927 	0.004417474871 	0.002200113086 	2.252710093e-08 	0.00484620172 	3.373744843e-08 	9.238207411e-06
0.9029670306 	0.004509278759 	0.002250311989 	2.214514395e-08 	0.00494868147 	3.368550735e-08 	9.433562297e-06
0.9048822962 	0.004600672374 	0.002300070852 	2.170614425e-08 	0.005050661138 	3.352759183e-08 	9.627963888e-06
0.9067764254 	0.004691590075 	0.002349359442 	2.121242929e-08 	0.00515206886 	3.326741436e-08 	9.82127519e-06
0.9086496514 	0.004781968564 	0.002398149964 	2.066633708e-08 	0.005252835891 	3.290844121e-08 	1.001336516e-05
0.910502205 	0.00487174631 	0.002446416867 	2.007027053e-08 	0.00535289601 	3.245392602e-08 	1.020410756e-05
0.9123343142 	0.004960863066 	0.002494136678 	1.942675471e-08 	0.005452184992 	3.190696369e-08 	1.039337995e-05
0.9141462048 	0.005049259482 	0.00254128785 	1.873849527e-08 	0.005550640194 	3.127056155e-08 	1.058106293e-05
0.9159380997 	0.005136876861 	0.002587850634 	1.800843632e-08 	0.005648200259 	3.05477242e-08 	1.076703953e-05
0.9177102197 	0.005223657064 	0.002633806968 	1.72398164e-08 	0.005744804974 	2.974154745e-08 	1.095119497e-05
0.9194627831 	0.005309542576 	0.002679140387 	1.643622068e-08 	0.00584039526 	2.885531633e-08 	1.113341662e-05
0.9211960055 	0.005394476724 	0.00272383594 	1.560162799e-08 	0.005934913328 	2.789260157e-08 	1.131359433e-05
0.9229101006 	0.005478404034 	0.002767880119 	1.474045082e-08 	0.006028302937 	2.685734958e-08 	1.149162088e-05