2.707325697e-36 	0.0001273412618 	-5.202111476e-18 	-2.987610269e-25 	2.125152793e-31 	1.220490629e-38 	7.009366009e-46
0.0002557009779 	0.0001280032824 	4.125705372e-06 	1.112013347e-09 	5.749063105e-05 	-5.005753873e-09 	1.095931215e-07
0.0005113919582 	0.0001285245967 	3.775978592e-07 	1.337590426e-10 	5.664052896e-05 	-8.778386123e-09 	1.079725906e-07
0.0007670729285 	0.0001284267069 	1.612505347e-08 	-4.917898226e-11 	5.770804847e-05 	-1.186760578e-08 	1.100075795e-07
0.001022743877 	0.0001284681627 	-1.501501775e-07 	-2.221567978e-10 	5.760451358e-05 	-1.533795301e-08 	1.098102132e-07
0.001278404793 	0.0001285044062 	-2.618969523e-07 	-4.150035593e-10 	5.762395694e-05 	-1.872756222e-08 	1.098472777e-07
0.001534055664 	0.0001285469827 	-3.54494132e-07 	-6.403660154e-10 	5.764529569e-05 	-2.211096832e-08 	1.098879553e-07
0.001789696482 	0.0001285951936 	-4.390536681e-07 	-9.031432498e-10 	5.767241326e-05 	-2.548837767e-08 	1.099396489e-07
0.002045327237 	0.0001286494277 	-5.199643442e-07 	-1.20579832e-09 	5.770140539e-05 	-2.886242207e-08 	1.099949159e-07
0.002300947919 	0.0001287095275 	-5.991922971e-07 	-1.54970982e-09 	5.773404875e-05 	-3.223234495e-08 	1.100571433e-07
0.00255655852 	0.0001287755176 	-6.777046785e-07 	-1.935697454e-09 	5.777049458e-05 	-3.55986252e-08 	1.101266191e-07
0.002812159033 	0.0001288474684 	-7.560096541e-07 	-2.364251851e-09 	5.781070294e-05 	-3.896185406e-08 	1.102032675e-07
0.003067749449 	0.0001289254777 	-8.343877471e-07 	-2.835645223e-09 	5.785459497e-05 	-4.232260498e-08 	1.102869379e-07
0.003323329763 	0.0001290096621 	-9.130001897e-07 	-3.349990987e-09 	5.790209854e-05 	-4.568143485e-08 	1.103774929e-07
0.003578899969 	0.0001291001545 	-9.919432798e-07 	-3.9072786e-09 	5.795314137e-05 	-4.903889888e-08 	1.104747947e-07
0.00383446006 	0.0001291971016 	-1.07127709e-06 	-4.507395908e-09 	5.800765262e-05 	-5.239555117e-08 	1.105787083e-07
0.004090010031 	0.0001293006613 	-1.151041273e-06 	-5.150144786e-09 	5.806556319e-05 	-5.575194328e-08 	1.106891019e-07
0.004345549879 	0.000129411001 	-1.231264068e-06 	-5.835253113e-09 	5.812680511e-05 	-5.910862672e-08 	1.108058461e-07
0.004601079599 	0.0001295282969 	-1.311967623e-06 	-6.562385762e-09 	5.819131023e-05 	-6.246617723e-08 	1.109288107e-07
0.004856599189 	0.0001296527325 	-1.393171239e-06 	-7.33115422e-09 	5.825900901e-05 	-6.58252171e-08 	1.110578634e-07
0.005112108645 	0.0001297844919 	-1.47489315e-06 	-8.141113968e-09 	5.832983251e-05 	-6.918629955e-08 	1.111928727e-07
0.005367607965 	0.0001299237542 	-1.557151587e-06 	-8.991759861e-09 	5.840371359e-05 	-7.254982249e-08 	1.113337106e-07
0.005623097148 	0.0001300706971 	-1.639965788e-06 	-9.882535053e-09 	5.848058345e-05 	-7.591614521e-08 	1.114802459e-07
0.005878576193 	0.000130225497 	-1.723356698e-06 	-1.081283231e-08 	5.856036976e-05 	-7.928562587e-08 	1.116323408e-07
0.006134045099 	0.0001303883243 	-1.80734733e-06 	-1.178198099e-08 	5.864300189e-05 	-8.265859351e-08 	1.117898606e-07
0.006389503867 	0.0001305593419 	-1.891963123e-06 	-1.278922716e-08 	5.872843133e-05 	-8.60352365e-08 	1.119527128e-07
0.006644952497 	0.0001307387216 	-1.97723223e-06 	-1.383369457e-08 	5.881658971e-05 	-8.941436246e-08 	1.121207672e-07
0.006900390991 	0.0001309267491 	-2.063186963e-06 	-1.491434624e-08 	5.890695494e-05 	-9.279091792e-08 	1.122930285e-07
0.00715581935 	0.0001311241008 	-2.149873768e-06 	-1.602982809e-08 	5.899790563e-05 	-9.617484313e-08 	1.124664058e-07
0.007411237578 	0.000131332059 	-2.237164469e-06 	-1.717715272e-08 	5.909400971e-05 	-9.963428543e-08 	1.126496068e-07
0.007666645676 	0.0001315850625 	-2.335536836e-06 	-1.846754212e-08 	5.92097287e-05 	-1.032512529e-07 	1.128701994e-07
0.008063470924 	0.0001319161668 	-2.459664351e-06 	-2.025290385e-08 	5.934884091e-05 	-1.088262366e-07 	1.131353859e-07
0.008467729379 	0.000132294403 	-2.599949879e-06 	-2.228003049e-08 	5.95030857e-05 	-1.144097285e-07 	1.134294194e-07
0.008879559814 	0.0001326926446 	-2.744107195e-06 	-2.337171532e-08 	5.967130989e-05 	-1.147895778e-07 	1.137501014e-07
0.009299103586 	0.0001331133068 	-2.89274382e-06 	-2.32258712e-08 	5.985315664e-05 	-1.092866381e-07 	1.140967519e-07
0.009726504672 	0.0001335578116 	-3.045986355e-06 	-2.296447648e-08 	6.004532122e-05 	-1.036980893e-07 	1.14463071e-07
0.01016190973 	0.0001340271839 	-3.203992951e-06 	-2.258250687e-08 	6.024735172e-05 	-9.80123311e-08 	1.148481973e-07
0.01060546813 	0.0001345224021 	-3.366937258e-06 	-2.207504972e-08 	6.045963556e-05 	-9.222155106e-08 	1.152528693e-07
0.01105733204 	0.0001350444963 	-3.535009061e-06 	-2.143715042e-08 	6.06824515e-05 	-8.631985872e-08 	1.156776184e-07
0.01151765644 	0.0001355945579 	-3.708417313e-06 	-2.06638026e-08 	6.091607072e-05 	-8.030115621e-08 	1.161229615e-07
0.01198659919 	0.0001361737501 	-3.88739045e-06 	-1.974987688e-08 	6.11608059e-05 	-7.415890381e-08 	1.165894948e-07
0.01246432108 	0.0001367833106 	-4.07217444e-06 	-1.869000878e-08 	6.141701679e-05 	-6.788604623e-08 	1.17077904e-07
0.01295098591 	0.0001374245395 	-4.263025196e-06 	-1.747842967e-08 	6.168512116e-05 	-6.147488157e-08 	1.175889854e-07
0.0134467605 	0.0001380987894 	-4.460195106e-06 	-1.610882224e-08 	6.196559326e-05 	-5.491729679e-08 	1.181236432e-07
0.0139518148 	0.0001388075229 	-4.663928121e-06 	-1.457444072e-08 	6.225891541e-05 	-4.820557966e-08 	1.186827967e-07
0.01446632189 	0.0001395523902 	-4.874488483e-06 	-1.286861487e-08 	6.256563442e-05 	-4.133180816e-08 	1.192674884e-07
0.0149904581 	0.0001403315544 	-5.091866354e-06 	-1.098276217e-08 	6.288792374e-05 	-3.427743063e-08 	1.198818615e-07
0.01552440303 	0.0001411296138 	-5.314546719e-06 	-8.902333749e-09 	6.323426072e-05 	-2.700187522e-08 	1.20542076e-07
0.01606833962 	0.0001419514395 	-5.542999553e-06 	-6.632037901e-09 	6.36036708e-05 	-1.955321897e-08 	1.212462743e-07
0.01662245423 	0.0001428152301 	-5.779119603e-06 	-4.177593987e-09 	6.398904989e-05 	-1.198101478e-08 	1.219809139e-07
0.01718693669 	0.0001437236549 	-6.023305007e-06 	-1.533501568e-09 	6.439058687e-05 	-4.281352684e-09 	1.22746355e-07
0.01750134298 	0.0001442469956 	-6.161070076e-06 	2.867181097e-10 	6.46190985e-05 	-2.975340081e-08 	1.231819617e-07
0.01776198037 	0.000144758568 	-6.26479575e-06 	-8.137150498e-10 	6.480995188e-05 	-3.487109518e-09 	1.235457813e-07
0.01834778225 	0.0001459374251 	-6.500617243e-06 	-2.71935238e-09 	6.524962931e-05 	-1.127487238e-08 	1.243839287e-07
0.01894454299 	0.0001471654858 	-6.744379563e-06 	-4.772841892e-09 	6.569989848e-05 	-1.914932002e-08 	1.252422668e-07
0.01955246699 	0.0001484435561 	-7.000267781e-06 	-6.986172964e-09 	6.618003367e-05 	-2.710583109e-08 	1.26157538e-07
0.02017340567 	0.0001497832346 	-7.263372553e-06 	-9.371281468e-09 	6.669377734e-05 	-3.513736609e-08 	1.271368762e-07
0.02082217767 	0.0001511952807 	-7.538580234e-06 	-1.201124493e-08 	6.721747903e-05 	-4.348693473e-08 	1.281351972e-07
0.02148308776 	0.0001526632149 	-7.830616985e-06 	-1.485240102e-08 	6.777681465e-05 	-5.203928346e-08 	1.292014463e-07
0.02215636213 	0.0001541812395 	-8.130206077e-06 	-1.791696005e-08 	6.837617608e-05 	-6.079979897e-08 	1.303439958e-07
0.02284223114 	0.0001557545045 	-8.440273701e-06 	-2.122087204e-08 	6.899952309e-05 	-6.972937062e-08 	1.315322684e-07
0.0235409294 	0.0001573859862 	-8.761775691e-06 	-2.478038306e-08 	6.965300507e-05 	-7.883768348e-08 	1.327779867e-07
0.02425269589 	0.0001590791804 	-9.095562827e-06 	-2.861283739e-08 	7.033805364e-05 	-8.812967854e-08 	1.340838797e-07
0.02497777398 	0.0001608378328 	-9.442565865e-06 	-3.273839217e-08 	7.105535182e-05 	-9.761216943e-08 	1.354512494e-07
0.02571641155 	0.0001626659257 	-9.803792737e-06 	-3.717911102e-08 	7.180591118e-05 	-1.072930339e-07 	1.368820241e-07
0.02646886107 	0.0001645677472 	-1.018030012e-05 	-4.195626492e-08 	7.259081663e-05 	-1.171767535e-07 	1.383782721e-07
0.02723537965 	0.0001665479479 	-1.057319824e-05 	-4.085992299e-08 	7.341114004e-05 	-1.10427116e-07 	1.399420365e-07
0.02801622918 	0.0001686115883 	-1.098368965e-05 	-3.843454929e-08 	7.426790614e-05 	-1.005104815e-07 	1.415752708e-07
0.02881167637 	0.0001707638416 	-1.141306824e-05 	-3.572658658e-08 	7.516217656e-05 	-9.040389897e-08 	1.432799988e-07
0.02962199284 	0.0001730093144 	-1.186263976e-05 	-3.271819125e-08 	7.609530394e-05 	-8.011392074e-08 	1.450587989e-07
0.03044745527 	0.0001753514975 	-1.233361999e-05 	-2.939026912e-08 	7.706916614e-05 	-6.964567454e-08 	1.469152509e-07
0.03128834539 	0.0001777926488 	-1.282707516e-05 	-2.571882415e-08 	7.808624244e-05 	-5.899308947e-08 	1.48854081e-07
0.03214495017 	0.0001803340096 	-1.334392431e-05 	-2.167232602e-08 	7.914954986e-05 	-4.813266497e-08 	1.508810405e-07
0.03301756185 	0.0001829763943 	-1.388502571e-05 	-1.721213506e-08 	8.026242435e-05 	-3.702598773e-08 	1.530024886e-07
0.03390647809 	0.0001857211777 	-1.445134513e-05 	-1.229594814e-08 	8.142814587e-05 	-2.562966831e-08 	1.552246778e-07
0.03481200199 	0.0001885710873 	-1.504408895e-05 	-6.881600386e-09 	8.264971266e-05 	-1.390480455e-08 	1.575533236e-07
0.03573444229 	0.0001915305988 	-1.566476617e-05 	-9.287320718e-10 	8.39296282e-05 	-1.819949674e-09 	1.599931984e-07
0.03587252477 	0.0001919828244 	-1.575964419e-05 	-5.673165992e-10 	8.412692615e-05 	-3.718696305e-09 	1.603693031e-07
0.03667411338 	0.0001946325394 	-1.65203099e-05 	-1.455522202e-08 	8.515100768e-05 	-1.585953745e-08 	1.623214871e-07
0.03763133546 	0.0001978575635 	-1.744437227e-05 	-3.224935211e-08 	8.640738005e-05 	-3.508214014e-08 	1.647164821e-07
0.03860643463 	0.0002012101996 	-1.840383826e-05 	-5.062464978e-08 	8.772931663e-05 	-5.4978594e-08 	1.672364606e-07
0.03959974299 	0.000204715338 	-1.940094861e-05 	-6.972353794e-08 	8.912054432e-05 	-7.569051335e-08 	1.698885273e-07
0.04062400445 	0.0002084094028 	-2.045116927e-05 	-8.98076937e-08 	9.05680055e-05 	-9.748103749e-08 	1.726477906e-07
0.04168283404 	0.0002122957597 	-2.156388286e-05 	-1.109814904e-07 	9.209569242e-05 	-1.201363983e-07 	1.755599864e-07
0.04276144599 	0.0002163509414 	-2.272513848e-05 	-1.331031425e-07 	9.372445032e-05 	-1.432949849e-07 	1.786648517e-07
0.04386020817 	0.0002205680401 	-2.393061764e-05 	-1.562228623e-07 	9.543354364e-05 	-1.67087396e-07 	1.819228586e-07
0.04497949521 	0.0002249145833 	-2.517811045e-05 	-1.80484622e-07 	9.7239479e-05 	-1.916977048e-07 	1.853654733e-07
0.04611968868 	0.0002293864247 	-2.646897512e-05 	-1.769281196e-07 	9.915930848e-05 	-1.864866992e-07 	1.890252019e-07
0.04728117716 	0.0002340233038 	-2.781324828e-05 	-1.564765522e-07 	0.0001011843117 	-1.635291882e-07 	1.928854209e-07
0.04846435643 	0.0002388407093 	-2.921488525e-05 	-1.350116474e-07 	0.000103314724 	-1.397800332e-07 	1.969465787e-07
0.04966962954 	0.0002438578421 	-3.067938613e-05 	-1.124053598e-07 	0.0001055775285 	-1.150984359e-07 	2.012601131e-07
0.05089740698 	0.0002491293237 	-3.218900895e-05 	-8.842178866e-08 	0.0001079136461 	-9.106809686e-08 	2.057134024e-07
0.05214810683 	0.0002555620119 	-3.408040996e-05 	-6.408265616e-08 	0.0001103876261 	-6.814253785e-08 	2.10429496e-07
0.05406782255 	0.0002638993029 	-3.650361444e-05 	-2.305850629e-08 	0.0001137056633 	-2.483477272e-08 	2.167545972e-07
0.05513332125 	0.0002689558259 	-3.80012812e-05 	-8.30136174e-09 	0.0001159677235 	2.081915479e-08 	2.210667126e-07
0.05600859301 	0.0002734608888 	-3.921514639e-05 	-1.822508547e-08 	0.0001181181175 	-7.643476451e-09 	2.251659613e-07
0.05797064766 	0.000283573997 	-4.193535819e-05 	-6.185940341e-08 	0.0001231784452 	-2.772743782e-08 	2.348123523e-07
0.05995421845 	0.0002939141982 	-4.47828986e-05 	-1.098181166e-07 	0.0001283658095 	-5.122036094e-08 	2.447009104e-07
0.06200681858 	0.0003045766037 	-4.78044636e-05 	-1.636455403e-07 	0.0001337528887 	-7.883701788e-08 	2.549701806e-07
0.06408691716 	0.0003154823515 	-5.098067113e-05 	-2.218884039e-07 	0.0001393503842 	-1.098934711e-07 	2.656405627e-07
0.06618987704 	0.0003265626334 	-5.426679942e-05 	-2.308105569e-07 	0.0001451029872 	-1.170458229e-07 	2.76606623e-07
0.0683159485 	0.0003378096966 	-5.766155808e-05 	-1.837090942e-07 	0.0001509876572 	-9.492476663e-08 	2.878244396e-07
0.07046538455 	0.0003492212768 	-6.116124885e-05 	-1.322212833e-07 	0.0001570319506 	-6.93778144e-08 	2.993465426e-07
0.07263844095 	0.0003608009409 	-6.476001182e-05 	-7.638881288e-08 	0.00016324944 	-4.058365419e-08 	3.111988055e-07
0.07483537623 	0.0003724990379 	-6.843056901e-05 	-1.632532007e-08 	0.0001696699862 	-8.759455609e-09 	3.234381511e-07
0.07541285244 	0.000375552447 	-6.938446885e-05 	-2.141589648e-09 	0.0001714132709 	2.777614737e-08 	3.267613361e-07
0.07705645173 	0.0003819923818 	-7.26676116e-05 	-7.127194923e-08 	0.0001769364669 	-4.135809148e-10 	3.372900828e-07
0.07930193161 	0.0003907611605 	-7.716656442e-05 	-1.711865699e-07 	0.0001847523798 	2.673007537e-10 	3.521893852e-07
0.08160880498 	0.0003997220004 	-8.183544511e-05 	-2.766282737e-07 	0.0001929240566 	2.005023517e-09 	3.677668724e-07
0.08396062899 	0.0004088705622 	-8.664270508e-05 	-3.869932433e-07 	0.0002015150605 	5.093327998e-09 	3.841437135e-07
0.08633835627 	0.0004181695122 	-9.153000376e-05 	-4.699151948e-07 	0.0002104847239 	8.728950848e-09 	4.012423849e-07
0.08874227161 	0.000427634977 	-9.649404978e-05 	-3.673341463e-07 	0.0002197809683 	8.311710915e-09 	4.189636105e-07
0.09117266288 	0.0004373060749 	-0.0001015490193 	-2.606765388e-07 	0.0002294121764 	6.591691491e-09 	4.3732337e-07
0.09362982109 	0.0004472174048 	-0.0001067017705 	-1.502068893e-07 	0.0002393904378 	4.019398444e-09 	4.563447095e-07
0.0961140404 	0.0004573973931 	-0.0001119553619 	-3.598611732e-08 	0.0002497282037 	9.551825614e-10 	4.760513647e-07
0.09688760698 	0.0004605884821 	-0.0001135772602 	4.803454586e-09 	0.000253044091 	5.605695437e-08 	4.823723674e-07
0.09862561817 	0.0004724472727 	-0.0001173479209 	-8.638159248e-08 	0.0002615463012 	4.809151359e-08 	4.985799432e-07
0.10119209 	0.000490003501 	-0.0001227615516 	-2.132907183e-07 	0.0002744638454 	1.208316924e-07 	5.232043725e-07
0.1038191759 	0.000508225985 	-0.0001282250373 	-3.431950938e-07 	0.0002880688318 	1.967958497e-07 	5.491392579e-07
0.1064752671 	0.00052685637 	-0.0001335103374 	-4.753443255e-07 	0.0003023141754 	2.748687628e-07 	5.762948421e-07
0.1091606836 	0.0005459493549 	-0.0001386474379 	-5.098107724e-07 	0.0003171207566 	2.973015787e-07 	6.045203012e-07
0.111875749 	0.0005657370708 	-0.0001438489889 	-3.8063093e-07 	0.0003324723641 	2.232805959e-07 	6.337847319e-07
0.1146207903 	0.0005862727072 	-0.0001491347851 	-2.495894758e-07 	0.000348413089 	1.46876205e-07 	6.641721841e-07
0.1173961382 	0.0006076499568 	-0.0001545457466 	-1.160480578e-07 	0.0003649632575 	6.83506324e-08 	6.957214051e-07
0.1197759294 	0.0006265726844 	-0.0001592678125 	8.711648874e-09 	0.0003795453104 	4.335177694e-08 	7.235188508e-07
0.1207961827 	0.0006328487509 	-0.0001614569656 	-4.513391119e-08 	0.0003844694011 	3.011474548e-08 	7.329055362e-07
0.1275401903 	0.0006751403167 	-0.0001759566584 	-3.485021873e-07 	0.00041796229 	2.408748839e-07 	7.967522913e-07
0.1342390155 	0.0007183981201 	-0.0001902521729 	-4.42067792e-07 	0.0004529161283 	3.196826147e-07 	8.633840221e-07
0.1408933723 	0.0007622497336 	-0.0002041549001 	-1.776571507e-07 	0.0004894205266 	1.34326168e-07 	9.32971551e-07
0.1453219 	0.0007919210531 	-0.0002131970857 	3.332470125e-08 	0.0005148689822 	1.461292336e-07 	9.814833805e-07
0.1473336285 	0.0008033722511 	-0.0002174837471 	-9.20873142e-08 	0.0005302705252 	2.131019399e-07 	1.010843002e-06
0.1534016459 	0.0008390009364 	-0.0002302960543 	-3.688132696e-07 	0.0005780718865 	8.674155248e-07 	1.101965682e-06
0.1594490221 	0.0008760396346 	-0.0002430000084 	-6.099497762e-07 	0.0006274150845 	1.454783463e-06 	1.196027532e-06
0.1655334216 	0.0009148134242 	-0.0002557941499 	-3.621401547e-07 	0.0006787497305 	8.728880606e-07 	1.293885635e-06
0.1716618299 	0.0009554634095 	-0.000268812734 	-1.106335833e-07 	0.0007321580308 	2.681034623e-07 	1.395696699e-06
0.1743275034 	0.0009738101043 	-0.0002745851047 	4.257804588e-08 	0.0007560330674 	2.737405721e-07 	1.441209155e-06
0.177417951 	0.0009985496659 	-0.0002810094309 	-1.231157287e-07 	0.0007854638356 	3.451879041e-07 	1.497312379e-06
0.18289823 	0.001043846962 	-0.0002930025431 	-3.548296823e-07 	0.0008388031114 	9.597403613e-07 	1.598991864e-06
0.1883761782 	0.00109074752 	-0.0003059741938 	-6.125951498e-07 	0.0008933568306 	1.576511856e-06 	1.702986415e-06
0.1938521216 	0.001139350171 	-0.0003203828253 	-5.967413397e-07 	0.0009490788814 	1.438126176e-06 	1.809208131e-06
0.1993672192 	0.001190070238 	-0.0003369832927 	-3.948013452e-07 	0.001006264248 	8.762155598e-07 	1.918219332e-06
0.2049439151 	0.001243164468 	-0.000356669106 	-1.521663375e-07 	0.001064996521 	3.061643842e-07 	2.030179369e-06
0.2079444388 	0.001272770407 	-0.0003691377652 	-1.370723124e-07 	0.001097044816 	3.450672414e-07 	2.091272328e-06
0.2102620035 	0.001295455754 	-0.000381083371 	-2.033316818e-07 	0.00112332643 	2.647381459e-07 	2.141372388e-06
0.2152872245 	0.001346271764 	-0.0004116862417 	-7.12888324e-07 	0.001181189404 	8.498282825e-07 	2.251675299e-06
0.2203176127 	0.001398858335 	-0.0004488577656 	-1.342169882e-06 	0.001240409512 	1.460808562e-06 	2.364565284e-06
0.2253537002 	0.001452875557 	-0.0004933286779 	-1.401423599e-06 	0.001300993998 	1.404530653e-06 	2.480056152e-06
0.2304675697 	0.001508092714 	-0.0005455082154 	-9.007992242e-07 	0.001362906394 	8.429588238e-07 	2.598078387e-06
0.2356043485 	0.00155775761 	-0.0005922180844 	-2.573296287e-07 	0.001419917006 	2.508703715e-07 	2.706756459e-06
0.2380122946 	0.001576610397 	-0.0006079328411 	-1.618973378e-07 	0.001442993065 	1.20481784e-07 	2.750745842e-06
0.2406777469 	0.001593006776 	-0.0006183611567 	2.550073937e-08 	0.001465571685 	1.436478041e-07 	2.793786967e-06
0.2457008445 	0.001615828838 	-0.0006288897093 	1.668045097e-07 	0.001503225274 	3.550377776e-07 	2.865565171e-06
0.250735156 	0.001631246134 	-0.0006313898687 	2.0615219e-07 	0.00153679661 	5.734852169e-07 	2.929561468e-06
0.2558325572 	0.001645028187 	-0.0006358464631 	1.560393617e-07 	0.001569905536 	7.158882616e-07 	2.992676285e-06
0.2609721718 	0.001658026549 	-0.0006428227767 	8.529685428e-08 	0.001602937082 	4.927923784e-07 	3.055643591e-06
0.2661223867 	0.001669677436 	-0.0006502321366 	4.785360407e-08 	0.001635213941 	2.731228178e-07 	3.117172255e-06
0.271283911 	0.001679888149 	-0.0006572579565 	1.322859031e-08 	0.001666492259 	6.767424708e-08 	3.176797423e-06
0.273085448 	0.001683064183 	-0.0006595210552 	7.844171707e-08 	0.001677114005 	-8.755558578e-08 	3.197045422e-06
0.2763941239 	0.001687866594 	-0.0006631068995 	4.549436302e-08 	0.001696763799 	1.346338369e-07 	3.234503391e-06
0.2815469872 	0.001694285388 	-0.0006680645545 	1.210998063e-07 	0.001726667566 	3.365040512e-07 	3.291508283e-06
0.2867304373 	0.001699796959 	-0.0006724100466 	2.024753325e-07 	0.001756268118 	5.326750895e-07 	3.347935162e-06
0.2919293987 	0.00170449222 	-0.000676143341 	2.882995334e-07 	0.00178557538 	7.241403072e-07 	3.403802949e-06
0.2971446783 	0.001708463757 	-0.0006793017476 	2.395654727e-07 	0.00181470138 	5.788603534e-07 	3.459325201e-06
0.3023972021 	0.001711810757 	-0.0006819372911 	1.68202967e-07 	0.001843820638 	3.934782906e-07 	3.514834599e-06
0.3077176101 	0.001714580451 	-0.0006840787643 	9.250500699e-08 	0.001873145048 	2.106328512e-07 	3.570735075e-06
0.313054455 	0.001716852277 	-0.0006857228231 	1.389939929e-08 	0.001902544808 	3.094933151e-08 	3.626779189e-06
0.3139886584 	0.001717180006 	-0.0006859353868 	6.6121956e-08 	0.001907699415 	-5.387126863e-08 	3.636605304e-06
0.3183414675 	0.001718865319 	-0.0006862931367 	8.612629606e-08 	0.001931653606 	1.465496632e-07 	3.682268649e-06
0.3236377024 	0.001720549803 	-0.0006862872363 	1.912579517e-07 	0.001960911147 	3.221009584e-07 	3.738041654e-06
0.3290180949 	0.001721833157 	-0.00068581208 	2.984436572e-07 	0.001990704969 	4.979143467e-07 	3.794836959e-06
0.3344194035 	0.001722761411 	-0.0006848544132 	4.062430115e-07 	0.00202085457 	6.716585421e-07 	3.852310478e-06
0.3398426614 	0.001723330935 	-0.0006833982348 	4.063584499e-07 	0.00205132578 	6.659299717e-07 	3.910397073e-06
0.3452904742 	0.001723563144 	-0.0006814141615 	3.107714768e-07 	0.002082227431 	5.047628672e-07 	3.969304209e-06
0.3508197691 	0.001723399415 	-0.0006788421825 	2.136033191e-07 	0.002113825811 	3.436856393e-07 	4.029539503e-06
0.3563719332 	0.00172286185 	-0.0006756437225 	1.159719198e-07 	0.002145954502 	1.846908666e-07 	4.090785719e-06
0.3619481526 	0.001721931368 	-0.0006717807216 	1.765783229e-08 	0.002178566316 	2.781557057e-08 	4.152952899e-06
0.3629570058 	0.00172169777 	-0.0006709672944 	9.956067705e-08 	0.002184542334 	-3.209637079e-08 	4.16434485e-06
0.3675345772 	0.00172066164 	-0.0006668756302 	9.335081906e-08 	0.002211330683 	1.132993907e-07 	4.215410889e-06
0.3731844475 	0.001718958741 	-0.0006611544392 	2.069811147e-07 	0.002244712417 	2.478742676e-07 	4.279045753e-06
0.3788622067 	0.001716826506 	-0.000654691933 	3.191078646e-07 	0.002278624992 	3.766099853e-07 	4.343692547e-06
0.3845691096 	0.001714268533 	-0.0006474769131 	4.294940641e-07 	0.00231300567 	4.988410766e-07 	4.409231673e-06
0.3903361571 	0.001711251039 	-0.0006394377485 	5.389974114e-07 	0.002348018338 	6.149119416e-07 	4.475975551e-06
0.3961520378 	0.001707769763 	-0.000630505214 	5.800069871e-07 	0.002383615531 	6.487488905e-07 	4.543833694e-06
0.4019987059 	0.001703816395 	-0.0006206016937 	4.808352887e-07 	0.002419682982 	5.264117785e-07 	4.61258828e-06
0.4078847518 	0.001699357983 	-0.0006096066595 	3.829393632e-07 	0.002456348941 	4.085018887e-07 	4.682483788e-06
0.4138401192 	0.00169443385 	-0.000597454638 	2.858478904e-07 	0.002493720407 	2.966713865e-07 	4.75372419e-06
0.4198282563 	0.001689002527 	-0.0005840722983 	1.891278195e-07 	0.002531547798 	1.922200379e-07 	4.82583371e-06
0.4258507121 	0.001682446884 	-0.0005687628857 	8.434391283e-08 	0.002569758748 	1.047548621e-07 	4.8986744e-06
0.4319424031 	0.001674354741 	-0.0005472758848 	2.609990798e-09 	0.002604418584 	7.264159914e-09 	4.964745682e-06
0.4322943136 	0.001673893124 	-0.0005453482591 	1.010171409e-07 	0.002605679965 	-4.483949323e-08 	4.967150225e-06
0.4380348569 	0.00166642898 	-0.0005133602499 	5.149673265e-08 	0.00262618212 	1.218349025e-07 	5.006233031e-06
0.4441641957 	0.001660098166 	-0.0004710253345 	5.250089067e-08 	0.002636446552 	3.057406058e-07 	5.02579989e-06
0.4503583492 	0.001655486258 	-0.000427224299 	5.565302009e-08 	0.002642622359 	4.701999173e-07 	5.037572694e-06
0.4566034394 	0.001652484481 	-0.0003842644507 	6.570714767e-08 	0.002647468393 	6.034117042e-07 	5.046810582e-06
0.4628906231 	0.001650805072 	-0.0003425793047 	7.458619535e-08 	0.0026517747 	7.118663105e-07 	5.055019601e-06
0.4692413887 	0.001650119689 	-0.0003020918747 	7.987691281e-08 	0.002655894649 	8.016153573e-07 	5.062873369e-06
0.4756460929 	0.001650253505 	-0.0002627360548 	8.262366931e-08 	0.002659826813 	8.743616339e-07 	5.070369167e-06
0.4820960035 	0.001651129363 	-0.0002244808679 	8.327446899e-08 	0.002663515306 	9.319094951e-07 	5.077400459e-06
0.4886119779 	0.001652668381 	-0.0001872854844 	6.750103441e-08 	0.002667104806 	8.008027775e-07 	5.084243044e-06
0.4951819604 	0.001654818521 	-0.0001511097911 	5.336653566e-08 	0.002670512303 	6.734096382e-07 	5.090738679e-06
0.5018006331 	0.001657541753 	-0.0001159229343 	4.151492797e-08 	0.002673677794 	5.604872445e-07 	5.096772986e-06
0.5084900918 	0.001660780095 	-8.168196202e-05 	3.176579078e-08 	0.00267671156 	4.606417436e-07 	5.102556187e-06
0.5152322177 	0.001664494503 	-4.834997362e-05 	2.380053007e-08 	0.002679490661 	3.731633147e-07 	5.107853925e-06
0.5220303514 	0.001668652275 	-1.591026416e-05 	1.735971543e-08 	0.002682006089 	2.967875979e-07 	5.112649031e-06
0.5288981248 	0.001673195896 	1.558859364e-05 	1.229672922e-08 	0.002684319756 	2.305781089e-07 	5.117059523e-06
0.5357442139 	0.001678043239 	4.594063781e-05 	8.375162675e-09 	0.00268630365 	1.742317144e-07 	5.120841376e-06
0.5425033843 	0.001683108646 	7.497121078e-05 	5.4266119e-09 	0.002687998213 	1.268797244e-07 	5.124071685e-06
0.5491769355 	0.001688351595 	0.0001027014585 	3.27859944e-09 	0.00268938967 	8.750491095e-08 	5.126724188e-06
0.5557596557 	0.001693736982 	0.0001292000246 	1.756696927e-09 	0.002690430345 	5.500110032e-08 	5.128708004e-06
0.5622641271 	0.001699205083 	0.0001545326575 	7.491357469e-10 	0.002691205936 	2.833862751e-08 	5.130186496e-06
0.5686844885 	0.001704712877 	0.0001787766929 	1.425221072e-10 	0.002691665508 	6.826238045e-09 	5.131062568e-06
0.5711042508 	0.001706816015 	0.0001876417051 	3.536988763e-07 	0.002691729383 	-5.041188398e-07 	5.131184332e-06
0.5750136979 	0.001710210826 	0.0002020032491 	6.860486648e-10 	0.002691808773 	1.176276731e-08 	5.131335671e-06
0.5812674994 	0.001715678911 	0.0002242716781 	1.496765553e-09 	0.002691695262 	2.726412978e-08 	5.131119288e-06
0.5874418623 	0.001721106658 	0.000245638972 	2.027267662e-09 	0.002691272447 	3.927796559e-08 	5.130313285e-06
0.5935393208 	0.001726475438 	0.000266152994 	2.346028205e-09 	0.00269056838 	4.841293819e-08 	5.128971137e-06
0.5995679114 	0.001731766896 	0.000285871829 	2.51816917e-09 	0.002689616604 	5.50988079e-08 	5.127156787e-06
0.6055216298 	0.001736968 	0.0003048466001 	2.576598415e-09 	0.002688378355 	5.96740321e-08 	5.12479634e-06
0.6114029402 	0.001742067127 	0.0003231162531 	2.562025001e-09 	0.002686890993 	6.255220136e-08 	5.121961016e-06
0.617217998 	0.001747053303 	0.0003407313609 	2.516941631e-09 	0.00268517479 	6.400567134e-08 	5.118689455e-06
0.6229624141 	0.001751919489 	0.0003577345602 	2.45039268e-09 	0.002683204546 	6.425412513e-08 	5.114933624e-06
0.6286378764 	0.001756659862 	0.0003741594398 	2.383081772e-09 	0.002681014016 	6.357525816e-08 	5.110757864e-06
0.6342501096 	0.001761268919 	0.0003900494825 	2.344564351e-09 	0.002678625222 	6.215296568e-08 	5.106204158e-06
0.6397954305 	0.001765744081 	0.0004054428571 	2.332040485e-09 	0.002676020515 	6.011205652e-08 	5.101238863e-06
0.6452752703 	0.0017700843 	0.0004203693708 	2.348040844e-09 	0.002673225419 	5.763479491e-08 	5.095910633e-06
0.6506936869 	0.001774288302 	0.000434865222 	2.415608909e-09 	0.002670271807 	5.485357667e-08 	5.090280227e-06
0.6560491642 	0.001778357271 	0.0004489676819 	2.527499873e-09 	0.002667146221 	5.182596737e-08 	5.084321991e-06
0.6613423103 	0.001782294502 	0.0004627044351 	2.671332243e-09 	0.002663865755 	4.866313569e-08 	5.078068513e-06
0.666575629 	0.001786102447 	0.0004761057217 	2.863896372e-09 	0.002660472061 	4.546211507e-08 	5.071599189e-06
0.6717497053 	0.001789785814 	0.0004892083629 	3.097476387e-09 	0.00265695822 	4.224320471e-08 	5.064900831e-06
0.6768642844 	0.001793351528 	0.000502039845 	3.352465414e-09 	0.002653336089 	3.906073109e-08 	5.057996043e-06
0.6819206085 	0.001796806266 	0.0005146271919 	3.632427342e-09 	0.002649647476 	3.597733381e-08 	5.050964522e-06
0.6869210347 	0.001800158314 	0.0005270051076 	3.932787857e-09 	0.00264590272 	3.300644876e-08 	5.043825976e-06
0.6918645349 	0.001803418039 	0.0005392033908 	4.233634516e-09 	0.002642110642 	3.01535769e-08 	5.036597221e-06
0.6967520775 	0.001806596854 	0.0005512485595 	4.520718708e-09 	0.002638303003 	2.744629891e-08 	5.029338801e-06
0.701585273 	0.001809706943 	0.0005631710027 	4.791946456e-09 	0.002634515204 	2.490035447e-08 	5.022118204e-06
0.7063646295 	0.001812762732 	0.0005750042194 	5.027828298e-09 	0.002630757076 	2.249175719e-08 	5.014954168e-06
0.7110902894 	0.001815780625 	0.0005867767327 	5.205656776e-09 	0.002627053126 	2.021533648e-08 	5.00789341e-06
0.7157630961 	0.001818778009 	0.0005985168832 	5.312992596e-09 	0.002623447017 	1.806997999e-08 	5.001019164e-06
0.7203845629 	0.001821774187 	0.0006102577718 	5.335368356e-09 	0.002619968683 	1.603537275e-08 	4.994388492e-06
0.7249546213 	0.00182479083 	0.0006220319931 	5.246314689e-09 	0.002616640765 	1.4072175e-08 	4.988044557e-06
0.7294738451 	0.001827851608 	0.0006338693334 	5.023120723e-09 	0.002613501122 	1.215644049e-08 	4.982059523e-06
0.733942979 	0.001830981939 	0.00064580061 	4.64909592e-09 	0.002610599408 	1.026192761e-08 	4.97652805e-06
0.738363276 	0.001834209788 	0.0006578601467 	4.101253378e-09 	0.002607972056 	8.344211608e-09 	4.971519588e-06
0.7427346638 	0.001837565695 	0.0006700810471 	3.35028742e-09 	0.002605654787 	6.349751469e-09 	4.967102229e-06
0.7470577888 	0.001841082456 	0.0006824945835 	2.37378501e-09 	0.002603697588 	4.235283906e-09 	4.963371263e-06
0.7513333169 	0.001844795359 	0.0006951329851 	1.151898374e-09 	0.002602157083 	1.953987308e-09 	4.960434632e-06
0.7546583093 	0.00184789963 	0.000705274319 	8.369017105e-08 	0.002601312128 	-1.453427606e-07 	4.958823913e-06
0.7555616001 	0.00184873994 	0.0007080304173 	3.14207629e-10 	0.00260108357 	4.071971115e-10 	4.958388217e-06
0.7597410789 	0.001852949989 	0.000721219841 	1.996976188e-09 	0.002600528232 	2.522063948e-09 	4.95732959e-06
0.763874694 	0.001857478594 	0.0007347323082 	4.02623354e-09 	0.002600546537 	5.003424844e-09 	4.957364484e-06
0.7679630582 	0.001862371937 	0.000748599048 	6.422136852e-09 	0.002601204194 	7.917037665e-09 	4.958618162e-06
0.7720069318 	0.001867679062 	0.0007628517784 	9.206635934e-09 	0.002602563313 	1.133415233e-08 	4.961209019e-06
0.7760066507 	0.001873451615 	0.0007775215458 	1.240700764e-08 	0.002604682182 	1.533665852e-08 	4.965248172e-06
0.7799626731 	0.001879743726 	0.0007926369922 	1.603667554e-08 	0.002607627321 	1.999477799e-08 	4.970862427e-06
0.7838755567 	0.001886611856 	0.0008082251341 	2.010501901e-08 	0.002611472255 	2.537690534e-08 	4.978191939e-06
0.7877458863 	0.001894114967 	0.0008243122302 	2.461861767e-08 	0.002616287157 	3.154927587e-08 	4.98737048e-06
0.7915741986 	0.001902313954 	0.000840923093 	2.959107569e-08 	0.002622138491 	3.858842172e-08 	4.998524749e-06
0.7953608184 	0.001911271247 	0.000858079961 	3.502277706e-08 	0.002629093787 	4.655879275e-08 	5.011783478e-06