0.4706627813 	9.459616005e-08 	-1.912867299e-10 	-3.896993238e-15 	9.441850607e-08 	6.664698958e-13 	1.799879148e-10
0.4708355793 	1.056299754e-06 	-8.280938943e-09 	-4.991713383e-14 	1.054412833e-06 	-4.539634736e-13 	2.010003918e-09
0.4710083775 	5.84948939e-06 	-1.069629089e-07 	2.032174916e-13 	5.840473872e-06 	-2.452896346e-11 	1.113356648e-08
0.4711811759 	1.940078497e-05 	-6.635122719e-07 	4.672723182e-12 	1.938179173e-05 	-1.217279868e-10 	3.694708193e-08
0.4713539745 	4.780998718e-05 	-2.683436986e-06 	2.911564734e-11 	4.781754736e-05 	-3.568574912e-10 	9.115353547e-08
0.4715267733 	9.76677863e-05 	-8.208015901e-06 	1.1334268e-10 	9.788329594e-05 	-7.974322565e-10 	1.865927673e-07
0.4716995723 	0.0001756071554 	-2.062817041e-05 	3.320776738e-10 	0.0001765797843 	-1.505716395e-09 	3.366101467e-07
0.4718723715 	0.0002877718405 	-4.47558302e-05 	7.957251869e-10 	0.0002907902294 	-2.528829993e-09 	5.543269982e-07
0.4720451709 	0.0004391400963 	-8.647714046e-05 	1.63176451e-09 	0.0004467183888 	-3.883361796e-09 	8.51569408e-07
0.4722179705 	0.0006327689619 	-0.0001518850198 	2.944038585e-09 	0.0006491053242 	-5.534405941e-09 	1.237375157e-06
0.4723907703 	0.0008691340527 	-0.0002459917183 	4.761441961e-09 	0.0009003086968 	-7.375387773e-09 	1.716238604e-06
0.4725635703 	0.001145792491 	-0.000371390246 	7.001185439e-09 	0.001199490282 	-9.221750846e-09 	2.286561859e-06
0.4727363705 	0.001457537785 	-0.0005273859169 	9.471037204e-09 	0.001542254129 	-1.0830943e-08 	2.939965017e-06
0.4729091709 	0.001797050836 	-0.0007099869523 	1.191467542e-08 	0.00192098798 	-1.194857308e-08 	3.661937001e-06
0.4730819714 	0.002155868826 	-0.0009127581204 	1.407844228e-08 	0.002325883545 	-1.236383158e-08 	4.433780483e-06
0.4732547721 	0.002525400823 	-0.001128156512 	1.576775189e-08 	0.002746317499 	-1.195095665e-08 	5.235244453e-06
0.4734275731 	0.002897754778 	-0.001348835399 	1.687333571e-08 	0.003172163384 	-1.068290609e-08 	6.047025067e-06
0.4736003742 	0.003266257168 	-0.001568551115 	1.73677186e-08 	0.003594718299 	-8.619135377e-09 	6.852532178e-06
0.4737731754 	0.003625665697 	-0.001782570977 	1.728477118e-08 	0.004007146133 	-5.879224503e-09 	7.638734258e-06
0.4739459769 	0.003972148094 	-0.001987679676 	1.669576797e-08 	0.004404515796 	-2.614468754e-09 	8.396231278e-06
0.4741187785 	0.004303120425 	-0.00218195387 	1.568971643e-08 	0.004783586879 	1.015310559e-09 	9.11884612e-06
0.4742915803 	0.004617025027 	-0.00236445388 	1.436009459e-08 	0.005142486197 	4.857525845e-09 	9.803007971e-06
0.4744643823 	0.004913102308 	-0.002534926128 	1.279707369e-08 	0.005480373448 	8.775930907e-09 	1.044711498e-05
0.4746371844 	0.005191186086 	-0.002693559258 	1.108345607e-08 	0.00579714756 	1.265487642e-08 	1.105097448e-05
0.4748099867 	0.00545153421 	-0.002840803816 	9.292801986e-09 	0.00609321201 	1.640043845e-08 	1.161535561e-05
0.4749827891 	0.005694695527 	-0.002977248907 	7.488735894e-09 	0.006369298066 	1.993970527e-08 	1.214165237e-05
0.4751555917 	0.005921408935 	-0.003103543278 	5.724867517e-09 	0.006626338444 	2.321906291e-08 	1.263164277e-05
0.4753283945 	0.006132529205 	-0.003220348333 	4.045008042e-09 	0.006865367816 	2.62022959e-08 	1.308729919e-05
0.4755011974 	0.006328970113 	-0.003328316885 	2.483876295e-09 	0.007087513708 	2.886800496e-08 	1.3510771e-05
0.4756740004 	0.006511712179 	-0.003427802231 	1.065471748e-09 	0.007293802389 	3.120436288e-08 	1.390401456e-05
0.4758468036 	0.00670409865 	-0.003533321075 	-3.082725812e-10 	0.00751125742 	3.347815197e-08 	1.431854429e-05
0.4761153003 	0.006923043716 	-0.003652174629 	-1.758741434e-09 	0.007758232334 	3.573627899e-08 	1.478934712e-05
0.4763888437 	0.0071417356 	-0.003768455447 	-3.141009045e-09 	0.008004017242 	3.75962732e-08 	1.525788146e-05
0.4766675287 	0.007340229026 	-0.003873586175 	-4.266705171e-09 	0.00822696246 	3.885367453e-08 	1.568287701e-05
0.4769514519 	0.007520263064 	-0.003968226104 	-5.10557972e-09 	0.008428890313 	3.953459446e-08 	1.606780763e-05
0.4772407118 	0.007683421465 	-0.004053377229 	-5.658964776e-09 	0.008611702736 	3.968426451e-08 	1.641629891e-05
0.4775354087 	0.007831185841 	-0.004129934749 	-5.933856337e-09 	0.008777089222 	3.935282225e-08 	1.673157152e-05
0.4778356448 	0.007964923358 	-0.004198702783 	-5.942166832e-09 	0.008926619951 	3.859325196e-08 	1.701661865e-05
0.4781415242 	0.008085888147 	-0.00426040255 	-5.699549625e-09 	0.009061725207 	3.745861608e-08 	1.727416682e-05
0.4784531529 	0.008195224888 	-0.004315680597 	-5.224295179e-09 	0.009183705536 	3.600067244e-08 	1.750669523e-05
0.478770639 	0.008293974453 	-0.004365116937 	-4.536386629e-09 	0.009293739667 	3.426866791e-08 	1.771645087e-05
0.4790940926 	0.008383080526 	-0.004409232576 	-3.656689787e-09 	0.009392893977 	3.230852274e-08 	1.790546654e-05
0.4794236259 	0.008463396684 	-0.004448496258 	-2.606278987e-09 	0.009482131732 	3.016232412e-08 	1.80755785e-05
0.4797593531 	0.008535693558 	-0.004483330413 	-1.405892417e-09 	0.009562322078 	2.786808982e-08 	1.822844359e-05
0.4801013905 	0.00860066584 	-0.004514116324 	-7.551013189e-11 	0.009634248546 	2.545971738e-08 	1.836555543e-05
0.4804498569 	0.008658938978 	-0.00454119862 	1.365957401e-09 	0.009698616956 	2.29671197e-08 	1.848825951e-05
0.480804873 	0.008711075517 	-0.004564889205 	2.900890765e-09 	0.00975606232 	2.041568906e-08 	1.859776634e-05
0.4811665619 	0.008757581015 	-0.004585469926 	4.512193526e-09 	0.009807157095 	1.782922439e-08 	1.869516718e-05
0.4815350489 	0.008798920743 	-0.004603205733 	6.181748033e-09 	0.009852430744 	1.52360607e-08 	1.878147134e-05
0.4819109242 	0.008835515642 	-0.004618333459 	7.89943191e-09 	0.009892358656 	1.265138226e-08 	1.885758504e-05
0.4822941986 	0.008867718215 	-0.004631052128 	9.656888926e-09 	0.009927339519 	1.008135599e-08 	1.892426828e-05
0.482684677 	0.008895834146 	-0.004641546564 	1.144330786e-08 	0.009957724968 	7.532600996e-09 	1.898219139e-05
0.4830824948 	0.008920151295 	-0.004649990578 	1.324967853e-08 	0.00998384535 	5.013539421e-09 	1.90319841e-05
0.4834877901 	0.008940934531 	-0.004656542127 	1.506735853e-08 	0.01000600375 	2.534622386e-09 	1.907422417e-05
0.4839007033 	0.008958420917 	-0.004661345076 	1.688833114e-08 	0.01002447227 	1.054542094e-10 	1.910943031e-05
0.4843213776 	0.00897282263 	-0.0046645299 	1.870546573e-08 	0.01003949504 	-2.26528211e-09 	1.913806788e-05
0.484749959 	0.0089843295 	-0.004666214916 	2.051235588e-08 	0.01005129097 	-4.569644893e-09 	1.916055421e-05
0.485186596 	0.008993111299 	-0.004666507363 	2.230317961e-08 	0.01006005628 	-6.800250897e-09 	1.917726332e-05
0.48563144 	0.008999319785 	-0.004665504385 	2.407256794e-08 	0.01006596672 	-8.950108586e-09 	1.918853026e-05
0.4860846455 	0.009003090533 	-0.004663293918 	2.581548531e-08 	0.01006917961 	-1.101249356e-08 	1.919465492e-05
0.4865463694 	0.009004544577 	-0.004659955492 	2.752712134e-08 	0.01006983564 	-1.298085422e-08 	1.91959055e-05
0.4870167719 	0.009003789872 	-0.004655560956 	2.920279464e-08 	0.0100680605 	-1.484874387e-08 	1.919252158e-05
0.4874960162 	0.009000922604 	-0.004650175138 	3.083786814e-08 	0.01006396631 	-1.660977574e-08 	1.918471692e-05
0.4879842685 	0.008996028361 	-0.004643856437 	3.242767579e-08 	0.01005765295 	-1.825759824e-08 	1.917268191e-05
0.488481698 	0.008989183176 	-0.004636657362 	3.396745974e-08 	0.01004920921 	-1.978588783e-08 	1.915658578e-05
0.4889884774 	0.008980454467 	-0.004628625014 	3.54523177e-08 	0.0100387138 	-2.118835717e-08 	1.913657862e-05
0.4895047822 	0.008969901877 	-0.004619801524 	3.687715984e-08 	0.01002623635 	-2.245877222e-08 	1.911279313e-05
0.4900307917 	0.008957578024 	-0.004610224439 	3.823667495e-08 	0.0100118382 	-2.359098438e-08 	1.908534625e-05
0.4905666881 	0.008943529189 	-0.004599927078 	3.952530672e-08 	0.009995573159 	-2.457895827e-08 	1.905434057e-05
0.4911126574 	0.008927795943 	-0.004588938838 	4.073724919e-08 	0.009977487881 	-2.541717644e-08 	1.9019865e-05
0.4916688889 	0.008910413674 	-0.004577285554 	4.186593825e-08 	0.009957622986 	-2.610005477e-08 	1.898199699e-05
0.4922355755 	0.008891410321 	-0.00456498861 	4.290547858e-08 	0.009936012781 	-2.662166487e-08 	1.894080193e-05
0.4928132114 	0.008870801519 	-0.004552061083 	4.385606406e-08 	0.009912673167 	-2.698883409e-08 	1.889631014e-05
0.4934025382 	0.00884860317 	-0.004538512816 	4.471367992e-08 	0.009887619124 	-2.72063272e-08 	1.884855017e-05
0.4940029419 	0.008824843339 	-0.004524362112 	4.546442079e-08 	0.009860882824 	-2.725508543e-08 	1.879758335e-05
0.4946146306 	0.008799546019 	-0.004509625647 	4.60990762e-08 	0.009832489805 	-2.712812683e-08 	1.874345837e-05
0.4952378166 	0.008772725447 	-0.004494311099 	4.661030837e-08 	0.00980245363 	-2.682292839e-08 	1.868620107e-05
0.4958727159 	0.008744393623 	-0.004478423558 	4.699112678e-08 	0.009770784548 	-2.633798807e-08 	1.8625831e-05
0.4965195487 	0.008714560657 	-0.004461965436 	4.723477274e-08 	0.00973748992 	-2.567271661e-08 	1.856236218e-05
0.4971785393 	0.008683235093 	-0.004444936439 	4.733487775e-08 	0.009702574439 	-2.482776492e-08 	1.849580357e-05
0.4978499162 	0.008650424208 	-0.004427333516 	4.728564397e-08 	0.009666040394 	-2.380510582e-08 	1.842615953e-05
0.4985339123 	0.008616134278 	-0.00440915077 	4.70820487e-08 	0.009627887894 	-2.260817912e-08 	1.835343026e-05
0.4992307647 	0.008580370807 	-0.004390379359 	4.672007257e-08 	0.009588115073 	-2.124203311e-08 	1.827761221e-05
0.4999407151 	0.008543138708 	-0.004371007386 	4.619694608e-08 	0.009546718278 	-1.971345479e-08 	1.819869841e-05
0.5006640096 	0.00850444242 	-0.004351019822 	4.551140528e-08 	0.009503692285 	-1.803109608e-08 	1.811667891e-05
0.5014008992 	0.008464285983 	-0.004330398503 	4.466394728e-08 	0.009459030046 	-1.620575371e-08 	1.803154027e-05
0.5021516393 	0.00842267301 	-0.004309122313 	4.365684611e-08 	0.009412722769 	-1.425078922e-08 	1.794326573e-05
0.5029164903 	0.008379603496 	-0.004287166312 	4.249468251e-08 	0.009364755175 	-1.217990189e-08 	1.785182616e-05
0.503695936 	0.008335058228 	-0.004264495794 	4.119052739e-08 	0.009315114467 	-1.00182104e-08 	1.775719718e-05
0.5044912129 	0.008289030328 	-0.004241027777 	3.97612291e-08 	0.009263758699 	-7.797404053e-09 	1.765929881e-05
0.5053014374 	0.008235293974 	-0.004214308144 	3.803720299e-08 	0.00920396781 	-5.232257612e-09 	1.754532076e-05
0.5065452568 	0.008167438315 	-0.004180186108 	3.562931466e-08 	0.009128205789 	-2.048282335e-09 	1.740089729e-05
0.5078029565 	0.008091536835 	-0.004140975154 	3.292839359e-08 	0.009042965546 	1.362411683e-09 	1.723840569e-05
0.5090746915 	0.008013710799 	-0.004100595504 	3.010337972e-08 	0.008955381543 	4.670476462e-09 	1.707144624e-05
0.5103606185 	0.007934027349 	-0.004058983766 	2.723478181e-08 	0.008865500647 	7.821332855e-09 	1.690010827e-05
0.5116608957 	0.007852534062 	-0.004016157955 	2.437433171e-08 	0.008773417307 	1.0773959e-08 	1.672457183e-05
0.5129756833 	0.007769274295 	-0.003972141658 	2.156925375e-08 	0.008679193205 	1.349606832e-08 	1.654495451e-05
0.5143051433 	0.007684254922 	-0.003926950271 	1.886797742e-08 	0.008582856883 	1.594729306e-08 	1.63613107e-05
0.5156513952 	0.007597474939 	-0.003880598131 	1.631541694e-08 	0.008484426333 	1.808071671e-08 	1.617367472e-05
0.5170128819 	0.007508993887 	-0.00383313799 	1.393377318e-08 	0.00838399672 	1.991399177e-08 	1.598222796e-05
0.5183895608 	0.007418876289 	-0.003784635121 	1.173987204e-08 	0.008281666468 	2.145792819e-08 	1.578715806e-05
0.5197816015 	0.007327154977 	-0.003735139658 	9.748504371e-09 	0.008177497336 	2.271833714e-08 	1.558858274e-05
0.5211891754 	0.007233858602 	-0.003684701468 	7.968699118e-09 	0.008071545047 	2.370505313e-08 	1.538660823e-05
0.5226124558 	0.007139015215 	-0.003633371254 	6.403292465e-09 	0.007963862636 	2.443272746e-08 	1.518133563e-05
0.5240516179 	0.007042646008 	-0.003581196584 	5.050388204e-09 	0.00785449685 	2.491946459e-08 	1.497285404e-05
0.5255072092 	0.006944741759 	-0.003528208569 	3.908950357e-09 	0.007743452219 	2.517066605e-08 	1.476117211e-05
0.5269808209 	0.006845304606 	-0.003474440214 	2.972789133e-09 	0.007630743708 	2.519421376e-08 	1.454631836e-05
0.5284708748 	0.006744396814 	-0.003419955827 	2.217728397e-09 	0.007516457098 	2.504216368e-08 	1.432845632e-05
0.5299775543 	0.006642073741 	-0.00336481617 	1.621798804e-09 	0.007400664538 	2.474820041e-08 	1.410772352e-05
0.5315010449 	0.00653836146 	-0.0033090618 	1.165265805e-09 	0.007283403102 	2.433771259e-08 	1.388419063e-05
0.5330415342 	0.006433286161 	-0.003252729762 	8.27615004e-10 	0.007164706807 	2.383415884e-08 	1.36579225e-05
0.5345992119 	0.006326870958 	-0.00319585184 	5.884318913e-10 	0.007044608119 	2.326031594e-08 	1.342898102e-05
0.5361744585 	0.006219106972 	-0.00313843944 	4.324549076e-10 	0.006923095947 	2.262447729e-08 	1.319734505e-05
0.5377691979 	0.006109992049 	-0.003080500571 	3.4584632e-10 	0.006800164303 	2.19288809e-08 	1.296300317e-05
0.5393817296 	0.005999591802 	-0.003022074873 	3.029723412e-10 	0.006675886967 	2.121267142e-08 	1.272609603e-05
0.5410122523 	0.005887969232 	-0.002963198262 	2.84156466e-10 	0.006550329432 	2.049591558e-08 	1.248674847e-05
0.5426609666 	0.005775157287 	-0.002903884796 	2.756156826e-10 	0.006423521712 	1.978862778e-08 	1.224501771e-05
0.5443280756 	0.005661190812 	-0.002844144862 	2.659469727e-10 	0.006295496637 	1.909833758e-08 	1.200096633e-05
0.5460137845 	0.005546087451 	-0.002783976156 	2.481033468e-10 	0.006166265427 	1.842546674e-08 	1.175461573e-05
0.5477194288 	0.005429850733 	-0.002723364233 	2.195743198e-10 	0.006035819937 	1.776035011e-08 	1.150595037e-05
0.5494450171 	0.005312524444 	-0.002662311202 	1.747418581e-10 	0.005904199342 	1.71082151e-08 	1.125504493e-05
0.5511898565 	0.00519418421 	-0.002600834295 	1.072029428e-10 	0.005771478252 	1.647928769e-08 	1.100204165e-05
0.5529541618 	0.005074886596 	-0.002538939251 	1.542560541e-11 	0.005637708329 	1.587313686e-08 	1.0747039e-05
0.5547381503 	0.004954672802 	-0.002476621998 	-9.905689856e-11 	0.00550292597 	1.528571524e-08 	1.049010636e-05
0.5565420416 	0.004833567587 	-0.002413869664 	-2.32140471e-10 	0.00536714914 	1.470931354e-08 	1.023127798e-05
0.5583670057 	0.004711577537 	-0.002350659358 	-3.770866231e-10 	0.005230373812 	1.413002427e-08 	9.970546192e-06
0.5602133451 	0.004588740054 	-0.002286983661 	-5.294343193e-10 	0.005092633391 	1.354434935e-08 	9.707974668e-06
0.5620802817 	0.004465125003 	-0.002222853938 	-6.867187355e-10 	0.004953999259 	1.295573953e-08 	9.44369948e-06
0.5639680453 	0.004340784749 	-0.002158274475 	-8.441227884e-10 	0.004814522466 	1.236022657e-08 	9.177817947e-06
0.5658768684 	0.00421575463 	-0.002093241825 	-9.956634211e-10 	0.004674238786 	1.175228244e-08 	8.910398264e-06
0.567806986 	0.004090045881 	-0.002027741846 	-1.134293925e-09 	0.00453315552 	1.112369021e-08 	8.641454347e-06
0.5697601668 	0.003963665394 	-0.001961758214 	-1.252413628e-09 	0.004391274895 	1.046251039e-08 	8.370990442e-06
0.571735477 	0.003836674083 	-0.001895303532 	-1.347007459e-09 	0.00424866372 	9.773304027e-09 	8.099133905e-06
0.5737328224 	0.00370914717 	-0.001828399982 	-1.415012769e-09 	0.004105403378 	9.056543102e-09 	7.826039877e-06
0.5757524488 	0.003581141884 	-0.00176106059 	-1.452553013e-09 	0.003961556531 	8.309897409e-09 	7.551827806e-06
0.5777946049 	0.003452705064 	-0.001693292795 	-1.455758876e-09 	0.003817173911 	7.530330749e-09 	7.276594404e-06
0.5798604356 	0.003323881016 	-0.001625101465 	-1.420648425e-09 	0.003672301895 	6.712743875e-09 	7.000428076e-06
0.581950188 	0.003194756483 	-0.001556511989 	-1.345905199e-09 	0.003527035822 	5.860001858e-09 	6.723510566e-06
0.5840632515 	0.003065461905 	-0.001487571699 	-1.231879019e-09 	0.003381519412 	4.978164822e-09 	6.446115844e-06
0.5861998861 	0.002936132737 	-0.00141832866 	-1.078395508e-09 	0.003235901593 	4.070010195e-09 	6.168527809e-06
0.5883603551 	0.002806902358 	-0.001348826754 	-8.856034771e-10 	0.003090327887 	3.138614859e-09 	5.891023866e-06
0.5905457595 	0.002677919556 	-0.001279114011 	-6.538559441e-10 	0.002944959301 	2.186462103e-09 	5.613910938e-06
0.5927563685 	0.002549390897 	-0.00120926495 	-3.861511705e-10 	0.002800022425 	1.223333127e-09 	5.337620968e-06
0.5949916363 	0.00242158413 	-0.001139383152 	-8.68182954e-11 	0.002655811603 	2.614492578e-10 	5.06271506e-06
0.5956145471 	0.002386641759 	-0.001120145956 	8.919080427e-07 	0.002616357418 	-1.843741499e-06 	4.987504418e-06
0.597251833 	0.002294796771 	-0.001069581156 	-2.602181262e-10 	0.002512653315 	7.145818759e-10 	4.789815574e-06
0.5995372403 	0.002169437792 	-0.0009999878336 	-6.342241714e-10 	0.002370983072 	1.671233368e-09 	4.519752716e-06
0.6018493437 	0.002046051091 	-0.0009307569972 	-1.020852022e-09 	0.002231372746 	2.580765688e-09 	4.253616631e-06
0.6041875845 	0.001925142487 	-0.0008620700471 	-1.40977385e-09 	0.002094375478 	3.421074697e-09 	3.992461762e-06
0.6065519077 	0.00180714596 	-0.0007941434729 	-1.791076641e-09 	0.001960494574 	4.175154332e-09 	3.73724755e-06
0.6089426045 	0.001692550755 	-0.0007272234607 	-2.153833978e-09 	0.001830300113 	4.82123998e-09 	3.489060721e-06
0.6113603927 	0.00158194495 	-0.000661580436 	-2.486085675e-09 	0.001704468357 	5.334844709e-09 	3.249190421e-06
0.6138061608 	0.001476033339 	-0.0005975276955 	-2.77426128e-09 	0.001583807291 	5.687701682e-09 	3.019176893e-06
0.6162792104 	0.001375633327 	-0.0005354263832 	-3.004256063e-09 	0.001469255675 	5.850974265e-09 	2.800809675e-06
0.6187798463 	0.001281618445 	-0.0004756603359 	-3.164300532e-09 	0.001361822308 	5.801738164e-09 	2.596011818e-06
0.6213084247 	0.001194867377 	-0.0004186131996 	-3.244299611e-09 	0.001262529572 	5.521934086e-09 	2.406732265e-06
0.6238664781 	0.001116236231 	-0.000364660816 	-3.23835464e-09 	0.001172382518 	5.003848083e-09 	2.234886926e-06
0.6264530657 	0.001046507189 	-0.0003141530089 	-3.145488282e-09 	0.00109230871 	4.253142806e-09 	2.082243994e-06
0.6290685061 	0.0009862816245 	-0.0002673605854 	-2.973563695e-09 	0.001023030164 	3.295714922e-09 	1.950179829e-06
0.6317131215 	0.000935891621 	-0.0002244330288 	-2.7364795e-09 	0.0009649557188 	2.17314939e-09 	1.839473796e-06
0.6343884117 	0.0008953541486 	-0.0001853880653 	-2.452668783e-09 	0.0009181243968 	9.414602534e-10 	1.75020028e-06
0.6370935724 	0.0008643804706 	-0.0001501229718 	-2.141940219e-09 	0.0008822109657 	-3.405346675e-10 	1.681739298e-06
0.6398289089 	0.0008423918578 	-0.0001184153336 	-1.824227668e-09 	0.0008565409433 	-1.617097143e-09 	1.632805101e-06
0.642594864 	0.0008285350543 	-8.994641028e-05 	-1.51457572e-09 	0.0008401188542 	-2.836172302e-09 	1.601500035e-06
0.6453926582 	0.0008217715207 	-6.435785197e-05 	-1.222601389e-09 	0.0008317401846 	-3.961305154e-09 	1.585527962e-06
0.6482216616 	0.0008209964402 	-4.129095483e-05 	-9.538029389e-10 	0.0008301294146 	-4.973752396e-09 	1.582457387e-06
0.6510822229 	0.0008251252667 	-2.0402777e-05 	-7.102722793e-10 	0.0008340393137 	-5.86934279e-09 	1.589910741e-06
0.6539750699 	0.0008331572436 	-1.381073036e-06 	-4.913865856e-10 	0.0008423249187 	-6.653640827e-09 	1.605705407e-06
0.6569007941 	0.0008442100165 	1.604513981e-05 	-2.952572317e-10 	0.0008539830749 	-7.335913791e-09 	1.627929093e-06
0.6598591553 	0.0008575307646 	3.210496132e-05 	-1.198179777e-10 	0.0008681627483 	-7.927718274e-09 	1.654959492e-06
0.6628505183 	0.0008724960813 	4.699210581e-05 	3.713903043e-11 	0.0008841621138 	-8.44162094e-09 	1.685458729e-06
0.6658759722 	0.0008886010222 	6.086892787e-05 	1.777124982e-10 	0.0009014152752 	-8.888680952e-09 	1.71834805e-06
0.6689353345 	0.0009054404849 	7.386854698e-05 	3.033543997e-10 	0.0009194702521 	-9.275946279e-09 	1.752765854e-06
0.6720288258 	0.0009226948425 	8.610180219e-05 	4.151075413e-10 	0.0009379700949 	-9.610816419e-09 	1.788031696e-06
0.6751571363 	0.0009401166388 	9.764874896e-05 	5.136691411e-10 	0.0009566380686 	-9.899297863e-09 	1.823618043e-06
0.6783208177 	0.0009575067864 	0.0001085960692 	5.996034079e-10 	0.0009752624611 	-1.014493102e-08 	1.859121311e-06
0.6815197924 	0.0009746947668 	0.0001190463762 	6.7352305e-10 	0.0009936693132 	-1.03516203e-08 	1.894209887e-06
0.6847545243 	0.0009915496999 	0.0001290237479 	7.350685281e-10 	0.00101170497 	-1.052097451e-08 	1.928590862e-06
0.6880259633 	0.001007978883 	0.0001385440029 	7.837434864e-10 	0.001029253853 	-1.065183582e-08 	1.962043911e-06
0.6913338986 	0.001023910202 	0.0001476600483 	8.195430742e-10 	0.001046235918 	-1.074323942e-08 	1.994416445e-06
0.6946787382 	0.001039290605 	0.0001564035282 	8.425232368e-10 	0.001062590693 	-1.079591898e-08 	2.025593193e-06
0.6980614523 	0.001054081733 	0.0001648039517 	8.528136728e-10 	0.001078275198 	-1.080924167e-08 	2.055492219e-06
0.7014819514 	0.001068254885 	0.0001728888574 	8.504794771e-10 	0.001093257767 	-1.078085893e-08 	2.084053158e-06
0.7049406118 	0.001081790847 	0.0001806860957 	8.359415359e-10 	0.001107516993 	-1.071101253e-08 	2.111235207e-06
0.7084383096 	0.001094678526 	0.0001882246323 	8.097159333e-10 	0.001121042133 	-1.059894844e-08 	2.137017884e-06
0.7119751059 	0.001106912497 	0.0001955351548 	7.723598616e-10 	0.001133830191 	-1.044234393e-08 	2.161395476e-06
0.7155513621 	0.001118493879 	0.0002026515714 	7.249101317e-10 	0.001145885614 	-1.024184092e-08 	2.184376463e-06
0.7191679237 	0.001129430461 	0.0002096115504 	6.686030604e-10 	0.001157222321 	-9.997035883e-09 	2.205987377e-06
0.7228248847 	0.001139736187 	0.0002164572789 	6.048733472e-10 	0.001167862389 	-9.706314452e-09 	2.226270304e-06
0.726522657 	0.001149433184 	0.0002232368741 	5.356560316e-10 	0.00117783739 	-9.371021422e-09 	2.245285427e-06
0.7302620662 	0.001158553388 	0.0002300054833 	4.629960766e-10 	0.001187191678 	-8.990698251e-09 	2.263117301e-06
0.7340431982 	0.001167119218 	0.0002368049298 	3.892649666e-10 	0.001195960429 	-8.564761727e-09 	2.279832978e-06
0.7378244042 	0.001175130958 	0.0002436443329 	3.176386675e-10 	0.00120415764 	-8.100681923e-09 	2.29545914e-06
0.7415641218 	0.001182620067 	0.0002505453087 	2.509881659e-10 	0.001211833691 	-7.604664807e-09 	2.310091826e-06
0.7452625656 	0.001189681448 	0.0002575747742 	1.913356765e-10 	0.001219104701 	-7.079672516e-09 	2.323952393e-06
0.7489202967 	0.001196441444 	0.0002648175728 	1.401768721e-10 	0.001226118362 	-6.529700133e-09 	2.33732238e-06
0.7525378085 	0.001203039545 	0.0002723612191 	9.847931338e-11 	0.00123303612 	-5.95601704e-09 	2.350509549e-06
0.7561153968 	0.001209629875 	0.0002802971904 	6.67578406e-11 	0.001240033533 	-5.362019063e-09 	2.363848564e-06
0.7596536012 	0.001216382768 	0.0002887213084 	4.495114351e-11 	0.00124730298 	-4.751534183e-09 	2.377706149e-06
0.7631528582 	0.00122348577 	0.0002977341813 	3.230485424e-11 	0.001255055032 	-4.12644646e-09 	2.392483716e-06
0.7666134977 	0.001231144448 	0.0003074415228 	2.739443114e-11 	0.001263518255 	-3.491213979e-09 	2.408616971e-06
0.7700360208 	0.001239582889 	0.0003179542853 	2.808705201e-11 	0.001272940817 	-2.85101176e-09 	2.426578992e-06
0.7734208538 	0.001249043332 	0.0003293886195 	3.146562538e-11 	0.001283590403 	-2.209883842e-09 	2.446880063e-06
0.7767683331 	0.001259785173 	0.0003418655727 	3.382742499e-11 	0.001295752313 	-1.574704167e-09 	2.470064045e-06
0.7800789143 	0.001272083346 	0.0003555104928 	3.067904595e-11 	0.001309728598 	-9.536933094e-10 	2.496706728e-06
0.7833530369 	0.001286225455 	0.0003704518643 	1.66825018e-11 	0.001325835249 	-3.546264891e-10 	2.527410482e-06
0.7853498442 	0.001296266366 	0.0003805454709 	2.472698852e-07 	0.001337281915 	2.1824978e-07 	2.549231008e-06
0.7865910269 	0.001302507883 	0.0003868196358 	1.664317046e-11 	0.001344397159 	-2.12417467e-10 	2.562794641e-06
0.7897932947 	0.001321231064 	0.0004047431883 	7.791596195e-11 	0.001365743579 	-7.345739232e-10 	2.603486851e-06
0.7929603021 	0.001342693339 	0.0004243484146 	1.707499448e-10 	0.001390201811 	-1.198862761e-09 	2.650111038e-06
0.796092361 	0.001367184098 	0.0004457543901 	3.027029079e-10 	0.001418088683 	-1.592006786e-09 	2.703271168e-06
0.7991898574 	0.001394976504 	0.0004690699467 	4.811410004e-10 	0.00144970256 	-1.899802322e-09 	2.763536004e-06
0.8022532251 	0.001426319864 	0.0004943898262 	7.130571006e-10 	0.001485315099 	-2.108929109e-09 	2.831423401e-06
0.8052828028 	0.001461431521 	0.0005217904752 	1.004797798e-09 	0.001525161911 	-2.207533655e-09 	2.9073825e-06
0.8082789493 	0.001500490048 	0.000551326688 	1.361225212e-09 	0.001569434413 	-2.184659063e-09 	2.991778193e-06
0.8112420487 	0.001543629745 	0.0005830289382 	1.785571472e-09 	0.001618273993 	-2.031938624e-09 	3.084880007e-06
0.8141724845 	0.001590936103 	0.0006169011424 	2.27958584e-09 	0.001671766887 	-1.744554427e-09 	3.186852329e-06
0.8170705834 	0.001642443157 	0.0006529195861 	2.842764408e-09 	0.001729940923 	-1.320688267e-09 	3.297748211e-06
0.8199367024 	0.001698133598 	0.0006910335749 	3.472347582e-09 	0.001792765846 	-7.620836965e-10 	3.417509976e-06
0.8227712189 	0.001757940569 	0.0007311669828 	4.163760462e-09 	0.001860155788 	-7.420330263e-11 	3.545973935e-06
0.8255744682 	0.00182175071 	0.0007732204323 	4.9111207e-09 	0.00193197286 	7.342192512e-10 	3.682877235e-06
0.8283467843 	0.001889409277 	0.0008170747623 	5.706637445e-09 	0.002008032999 	1.65170792e-09 	3.827869001e-06
0.8310885089 	0.001960726631 	0.0008625952761 	6.541454504e-09 	0.002088113797 	2.66447899e-09 	3.980525259e-06
0.8338000025 	0.002035484799 	0.0009096357807 	7.406496187e-09 	0.002171962265 	3.757274069e-09 	4.140363742e-06
0.8364815777 	0.00211344392 	0.0009580424119 	8.292675376e-09 	0.002259302172 	4.914098663e-09 	4.30685788e-06
0.8391335626 	0.002194349234 	0.001007657763 	9.190529199e-09 	0.002349841975 	6.11845542e-09 	4.47945191e-06
0.841756284 	0.00227793764 	0.001058324629 	1.009104208e-08 	0.002443282452 	7.35410082e-09 	4.657575429e-06
0.8443500818 	0.002363942998 	0.001109888756 	1.098630486e-08 	0.002539322725 	8.60581096e-09 	4.840654882e-06
0.8469152583 	0.002452100551 	0.001162200961 	1.186921546e-08 	0.002637665024 	9.859484027e-09 	5.028122637e-06
0.8494521292 	0.002542151129 	0.001215119187 	1.27329884e-08 	0.002738019287 	1.110190346e-08 	5.219425753e-06
0.8519610068 	0.002633844485 	0.001268509947 	1.357165573e-08 	0.002840106838 	1.232121034e-08 	5.414033e-06
0.8544422104 	0.002726941415 	0.001322248967 	1.43803276e-08 	0.002943662672 	1.350721022e-08 	5.611439202e-06
0.8568960364 	0.002821215185 	0.00137622135 	1.515492213e-08 	0.003048436725 	1.465122481e-08 	5.811167666e-06
0.8593227856 	0.002916452748 	0.001430321781 	1.589128573e-08 	0.003154195029 	1.574528846e-08 	6.012772388e-06
0.8617227567 	0.003012455464 	0.001484454451 	1.658562235e-08 	0.003260720376 	1.678249995e-08 	6.215839306e-06
0.8640962496 	0.003109039158 	0.001538532596 	1.723449456e-08 	0.003367812286 	1.775697722e-08 	6.419986252e-06
0.8664435555 	0.003206033823 	0.001592477776 	1.783499538e-08 	0.003475286426 	1.866401663e-08 	6.624861834e-06
0.8687649599 	0.003303283234 	0.001646219269 	1.838365268e-08 	0.003582973941 	1.949893138e-08 	6.830144168e-06
0.8710607488 	0.00340064447 	0.001699693564 	1.887685105e-08 	0.00369072089 	2.025737456e-08 	7.0355398e-06
0.8733312048 	0.003497987246 	0.001752843672 	1.931086117e-08 	0.003798387368 	2.093525775e-08 	7.240782031e-06
0.8755766123 	0.003595193032 	0.001805618405 	1.968216594e-08 	0.003905846482 	2.152901868e-08 	7.445628968e-06
0.8777972426 	0.003692154121 	0.001857971609 	1.998700984e-08 	0.004012983094 	2.203505245e-08 	7.649861128e-06
0.8799933693 	0.003788772869 	0.001909861758 	2.022124558e-08 	0.004119693008 	2.244943725e-08 	7.853279882e-06
0.8821652628 	0.003884960891 	0.001961251448 	2.038071262e-08 	0.004225881996 	2.276821653e-08 	8.055705608e-06
0.8843131913 	0.003980638159 	0.002012106958 	2.046135971e-08 	0.004331464853 	2.298742238e-08 	8.256975878e-06
0.8864374205 	0.004075732137 	0.002062397761 	2.04596147e-08 	0.004436364396 	2.310340149e-08 	8.456943562e-06
0.8885382098 	0.004170176939 	0.002112096139 	2.037189397e-08 	0.004540510449 	2.311221284e-08 	8.655474885e-06
0.8906158179 	0.004263912595 	0.002161177057 	2.019489353e-08 	0.004643839186 	2.300985565e-08 	8.852448177e-06
0.8926705004 	0.004356884326 	0.00220961788 	1.992580477e-08 	0.004746292284 	2.279244425e-08 	9.047752257e-06
0.8947025109 	0.004449041801 	0.00225739825 	1.956247447e-08 	0.004847816232 	2.245635019e-08 	9.241285119e-06
0.8967121004 	0.004540338429 	0.002304499866 	1.910367806e-08 	0.004948361598 	2.199849492e-08 	9.432952533e-06
0.8986995148 	0.004630730708 	0.002350906329 	1.85487899e-08 	0.005047882287 	2.141601635e-08 	9.622666625e-06
0.900664999 	0.004720177644 	0.002396603201 	1.789799531e-08 	0.005146335082 	2.070650712e-08 	9.810345017e-06
0.9026087948 	0.004808640233 	0.002441577893 	1.715242773e-08 	0.005243679106 	1.986821045e-08 	9.995909781e-06
0.9045311417 	0.004896080972 	0.00248581965 	1.631422721e-08 	0.005339875351 	1.890016981e-08 	1.017928656e-05
0.9064322771 	0.00498246345 	0.002529319537 	1.538666715e-08 	0.00543488635 	1.780244075e-08 	1.036040393e-05
0.9083124343 	0.005067752035 	0.002572070325 	1.43740281e-08 	0.005528675788 	1.657608051e-08 	1.053919267e-05
0.9101718447 	0.005151911686 	0.002614066557 	1.328150099e-08 	0.005621208355 	1.52231466e-08 	1.071558546e-05
0.9120107372 	0.005234907869 	0.002655304586 	1.211533199e-08 	0.005712449731 	1.374693926e-08 	1.088951688e-05
0.9138293381 	0.005316706595 	0.002695782492 	1.088274383e-08 	0.005802366532 	1.215204562e-08 	1.106092329e-05
0.9156278716 	0.005397274556 	0.002735500153 	9.591957598e-09 	0.005890926507 	1.04444437e-08 	1.122974322e-05
0.9174065593 	0.005476579384 	0.002774459167 	8.252148916e-09 	0.005978098751 	8.631527838e-09 	1.139591775e-05
0.9191656197 	0.005554590002 	0.002812662796 	6.873256876e-09 	0.006063853964 	6.721995308e-09 	1.155939102e-05
0.9209052695 	0.00563127704 	0.002850116032 	5.466024072e-09 	0.006148164894 	4.725897043e-09 	1.172011108e-05
0.9226257228 	0.005706613297 	0.002886825522 	4.041939412e-09 	0.006231006751 	2.654578901e-09 	1.187803069e-05