0.4709558481 	1.608806471e-07 	-3.890314042e-10 	1.036408173e-14 	1.605749484e-07 	-3.144982324e-12 	3.061004811e-10
0.4709558481 	1.608806471e-07 	-3.890314042e-10 	1.036408173e-14 	1.605749484e-07 	-3.144982324e-12 	3.061004811e-10
0.4711314108 	1.806228371e-06 	-1.706854019e-08 	4.54689415e-13 	1.802863343e-06 	-3.531065279e-11 	3.436758611e-09
0.4713069734 	1.00671609e-05 	-2.226697925e-07 	5.928693154e-12 	1.00502547e-05 	-1.968388305e-10 	1.915857878e-08
0.471482536 	3.350736605e-05 	-1.387909565e-06 	3.689281842e-11 	3.34697359e-05 	-6.554001703e-10 	6.380261905e-08
0.4716580986 	8.271207083e-05 	-5.621149775e-06 	1.488428148e-10 	8.272619138e-05 	-1.618898543e-09 	1.576991133e-07
0.4718336613 	0.0001689880633 	-1.716075372e-05 	4.509968496e-10 	0.0001694402422 	-3.310405265e-09 	3.230001952e-07
0.4720092239 	0.0003033589289 	-4.287491673e-05 	1.11237306e-09 	0.0003054477791 	-5.946731072e-09 	5.822683618e-07
0.4721847865 	0.0004952917656 	-9.204043595e-05 	2.340786854e-09 	0.0005018168782 	-9.705700262e-09 	9.566024427e-07
0.4723603491 	0.0007511349014 	-0.0001750204946 	4.326194024e-09 	0.0007673886383 	-1.467831341e-08 	1.462856029e-06
0.4725359118 	0.001072595522 	-0.0003008511671 	7.160470372e-09 	0.001106912564 	-2.081570533e-08 	2.110082998e-06
0.4727114744 	0.001455821762 	-0.000474439055 	1.07723687e-08 	0.001519275609 	-2.789739538e-08 	2.896161572e-06
0.472887037 	0.001891591379 	-0.0006946076771 	1.492249431e-08 	0.001996653038 	-3.555071328e-08 	3.806175631e-06
0.4730625996 	0.002366691965 	-0.0009540215531 	1.927080997e-08 	0.002525244654 	-4.33274052e-08 	4.813818166e-06
0.4732381623 	0.002866049955 	-0.001241036539 	2.348043411e-08 	0.003087533094 	-5.080601298e-08 	5.885696212e-06
0.4734137249 	0.003374894941 	-0.001542511817 	2.730154765e-08 	0.003665223923 	-5.767247722e-08 	6.986935494e-06
0.4735892875 	0.003880375212 	-0.001846344819 	3.06030078e-08 	0.004241810598 	-6.375083024e-08 	8.086069951e-06
0.4737648501 	0.004372396393 	-0.002142982856 	3.33573613e-08 	0.004804114706 	-6.898849948e-08 	9.157977865e-06
0.4739404128 	0.004843773876 	-0.002425855976 	3.560459478e-08 	0.005342745402 	-7.341893923e-08 	1.018475768e-05
0.4741159754 	0.005289939199 	-0.002691084547 	3.741666985e-08 	0.005851797151 	-7.712275581e-08 	1.115515179e-05
0.474291538 	0.005708441076 	-0.002936872033 	3.887276066e-08 	0.006328179394 	-8.019820231e-08 	1.206326875e-05
0.4744671006 	0.006098411708 	-0.003162866875 	4.004578403e-08 	0.006770872162 	-8.274304543e-08 	1.290716421e-05
0.4746426632 	0.006460091219 	-0.003369629298 	4.09970028e-08 	0.007180266238 	-8.484547977e-08 	1.36875831e-05
0.4748182259 	0.006794445537 	-0.003558238388 	4.177522187e-08 	0.00755764445 	-8.658084786e-08 	1.440697086e-05
0.4749937885 	0.007102879729 	-0.003730025778 	4.241809774e-08 	0.007904803927 	-8.801152868e-08 	1.506875331e-05
0.4751693511 	0.007387033608 	-0.003886406504 	4.295413339e-08 	0.008223795897 	-8.918827942e-08 	1.567684067e-05
0.4753449137 	0.007648642087 	-0.004028777924 	4.340466404e-08 	0.008516753983 	-9.015205121e-08 	1.62353002e-05
0.4755204764 	0.007889443524 	-0.004158463405 	4.378555859e-08 	0.008785787722 	-9.093583039e-08 	1.674815328e-05
0.475696039 	0.008111123258 	-0.004276684407 	4.410857731e-08 	0.009032902358 	-9.156597487e-08 	1.721922246e-05
0.4758716016 	0.008315276448 	-0.004384556468 	4.438252043e-08 	0.009260035934 	-9.206451386e-08 	1.765220218e-05
0.4760471642 	0.008503447979 	-0.004482731755 	4.460944401e-08 	0.009468846955 	-9.244791735e-08 	1.805025403e-05
0.4762227269 	0.008699754232 	-0.004586227314 	4.484297813e-08 	0.00968696593 	-9.276948067e-08 	1.846604942e-05
0.4764955107 	0.008921047351 	-0.004701594697 	4.507982256e-08 	0.00993220743 	-9.301683219e-08 	1.893354788e-05
0.4767734216 	0.009139846663 	-0.004812938852 	4.527620836e-08 	0.01017355484 	-9.311929969e-08 	1.939362311e-05
0.4770565557 	0.009336387696 	-0.004912857999 	4.544209004e-08 	0.0103901605 	-9.30701553e-08 	1.98065337e-05
0.4773450114 	0.009512858806 	-0.005002093293 	4.557395439e-08 	0.01058427804 	-9.288057934e-08 	2.01765757e-05
0.4776388886 	0.009671151729 	-0.005081777707 	4.567396692e-08 	0.01075814496 	-9.25611578e-08 	2.050801437e-05
0.4779382892 	0.00981296225 	-0.005152889113 	4.574308715e-08 	0.01091365783 	-9.211882669e-08 	2.080446512e-05
0.4782433171 	0.009939800487 	-0.005216281669 	4.5781534e-08 	0.01105252747 	-9.155919444e-08 	2.106918924e-05
0.4785540779 	0.01005301155 	-0.005272702167 	4.578894112e-08 	0.01117626824 	-9.08864361e-08 	2.130507355e-05
0.4788706795 	0.01015379342 	-0.00532280409 	4.576446268e-08 	0.01128622442 	-9.010368584e-08 	2.151468059e-05
0.4791932316 	0.01024321347 	-0.005367160109 	4.570685469e-08 	0.01138358935 	-8.921327491e-08 	2.170028522e-05
0.4795218461 	0.01032222337 	-0.00540627295 	4.561453861e-08 	0.01146942374 	-8.821692633e-08 	2.186390941e-05
0.4798566368 	0.01039167238 	-0.005440584808 	4.548565403e-08 	0.01154467145 	-8.711590023e-08 	2.200735245e-05
0.48019772 	0.01045231915 	-0.005470485451 	4.531810393e-08 	0.01161017343 	-8.591110866e-08 	2.213221744e-05
0.4805452138 	0.01050484205 	-0.005496319177 	4.51095952e-08 	0.01166667997 	-8.460320697e-08 	2.223993461e-05
0.4808992388 	0.01054984838 	-0.005518390777 	4.485767604e-08 	0.01171486132 	-8.319266787e-08 	2.233178165e-05
0.4812599177 	0.01058788231 	-0.00553697063 	4.455977129e-08 	0.011755317 	-8.167984241e-08 	2.240890142e-05
0.4816273755 	0.01061943187 	-0.005552299077 	4.421321687e-08 	0.01178858388 	-8.006501135e-08 	2.247231734e-05
0.4820017397 	0.01064493512 	-0.005564590161 	4.381529359e-08 	0.01181514324 	-7.834842917e-08 	2.252294687e-05
0.48238314 	0.01066478547 	-0.005574034829 	4.33632605e-08 	0.01183542692 	-7.653036275e-08 	2.256161319e-05
0.4827717088 	0.01067933644 	-0.005580803701 	4.285439004e-08 	0.01184982264 	-7.461112621e-08 	2.258905543e-05
0.4831675807 	0.01068890571 	-0.005585049448 	4.228600284e-08 	0.01185867874 	-7.259111271e-08 	2.260593764e-05
0.4835708931 	0.01069377881 	-0.00558690883 	4.165550107e-08 	0.01186230829 	-7.047082342e-08 	2.261285655e-05
0.4839817856 	0.0106942123 	-0.00558650447 	4.096040572e-08 	0.01186099263 	-6.825089566e-08 	2.261034854e-05
0.4844004009 	0.01069043662 	-0.0055839464 	4.019839399e-08 	0.01185498462 	-6.593212932e-08 	2.259889561e-05
0.4848268841 	0.01068265858 	-0.005579333391 	3.936733546e-08 	0.01184451145 	-6.35155118e-08 	2.257893083e-05
0.485261383 	0.01067106359 	-0.00557275413 	3.846533011e-08 	0.01182977705 	-6.10022419e-08 	2.255084298e-05
0.4857040484 	0.01065581765 	-0.005564288239 	3.749074617e-08 	0.0118109644 	-5.83937525e-08 	2.251498084e-05
0.4861550336 	0.01063706915 	-0.005554007176 	3.644225799e-08 	0.01178823743 	-5.569173178e-08 	2.247165692e-05
0.4866144951 	0.01061495045 	-0.005541975036 	3.531888354e-08 	0.01176174283 	-5.289814275e-08 	2.242115084e-05
0.4870825921 	0.01058957929 	-0.005528249256 	3.412002098e-08 	0.01173161158 	-5.001524079e-08 	2.236371231e-05
0.487559487 	0.01056106013 	-0.005512881247 	3.284548416e-08 	0.01169796046 	-4.704558884e-08 	2.229956392e-05
0.4880453452 	0.01052948533 	-0.005495916961 	3.149553612e-08 	0.01166089327 	-4.399206961e-08 	2.222890355e-05
0.4885403351 	0.01049493616 	-0.005477397404 	3.007092025e-08 	0.01162050203 	-4.08578945e-08 	2.215190662e-05
0.4890446283 	0.01045748386 	-0.005457359094 	2.857288816e-08 	0.01157686807 	-3.764660846e-08 	2.206872816e-05
0.4895583997 	0.01041719047 	-0.005435834491 	2.700322379e-08 	0.01153006297 	-3.436209028e-08 	2.197950463e-05
0.4900818274 	0.01037410968 	-0.00541285238 	2.536426258e-08 	0.01148014949 	-3.100854764e-08 	2.188435566e-05
0.4906150929 	0.0103282876 	-0.005388438229 	2.365890514e-08 	0.01142718238 	-2.759050619e-08 	2.178338563e-05
0.4911583811 	0.01027976346 	-0.005362614521 	2.189062417e-08 	0.01137120916 	-2.411279201e-08 	2.167668512e-05
0.4917118805 	0.01022857026 	-0.005335401057 	2.006346395e-08 	0.0113122708 	-2.058050683e-08 	2.156433223e-05
0.4922757829 	0.01017473538 	-0.005306815244 	1.818203116e-08 	0.01125040243 	-1.699899527e-08 	2.144639391e-05
0.4928502838 	0.0101182812 	-0.005276872361 	1.625147634e-08 	0.01118563387 	-1.337380365e-08 	2.132292704e-05
0.4934355824 	0.01005922556 	-0.005245585803 	1.427746483e-08 	0.01111799029 	-9.71062977e-09 	2.119397958e-05
0.4940318817 	0.00999758237 	-0.005212967315 	1.226613653e-08 	0.01104749269 	-6.015263448e-09 	2.105959155e-05
0.4946393885 	0.009933362013 	-0.005179027202 	1.022405363e-08 	0.0109741584 	-2.29351741e-09 	2.091979602e-05
0.4952583133 	0.009866571854 	-0.005143774526 	8.158135827e-09 	0.01089800157 	1.448851302e-09 	2.077461993e-05
0.4958888709 	0.009797216662 	-0.005107217283 	6.075582678e-09 	0.01081903357 	5.206229301e-09 	2.062408499e-05
0.4965312797 	0.009725299033 	-0.005069362562 	3.983782808e-09 	0.01073726345 	8.973243761e-09 	2.04682084e-05
0.4971857627 	0.009650819787 	-0.005030216688 	1.890210218e-09 	0.01065269824 	1.274486749e-08 	2.030700361e-05
0.4978525466 	0.009573778353 	-0.004989785339 	-1.976918053e-10 	0.01056534336 	1.651653111e-08 	2.014048092e-05
0.4985318627 	0.00949417313 	-0.004948073642 	-2.272638447e-09 	0.01047520292 	2.028424099e-08 	1.996864819e-05
0.4992239466 	0.009412001837 	-0.004905086252 	-4.327641427e-09 	0.01038228 	2.404470122e-08 	1.979151129e-05
0.4999290382 	0.009327261838 	-0.004860827393 	-6.35615563e-09 	0.01028657697 	2.779543745e-08 	1.960907471e-05
0.5006473819 	0.009239950452 	-0.004815300884 	-8.352232147e-09 	0.01018809565 	3.153492028e-08 	1.942134194e-05
0.501379227 	0.009150065237 	-0.004768510106 	-1.03106751e-08 	0.01008683766 	3.526268186e-08 	1.922831607e-05
0.502124827 	0.009057604262 	-0.004720457939 	-1.22271996e-08 	0.009982804411 	3.897943053e-08 	1.902999978e-05
0.5028844406 	0.008962566345 	-0.004671146595 	-1.409858952e-08 	0.009875997437 	4.268715547e-08 	1.882639601e-05
0.5036583311 	0.008864951547 	-0.004620577502 	-1.592284659e-08 	0.009766412384 	4.638948133e-08 	1.861749644e-05
0.5044467669 	0.008764759754 	-0.004568752097 	-1.769928846e-08 	0.009654068077 	5.00909784e-08 	1.840333696e-05
0.5052500214 	0.00866199816 	-0.004515629319 	-1.943011468e-08 	0.00953895736 	5.379739337e-08 	1.818390394e-05
0.506068373 	0.008542988662 	-0.004454873539 	-2.130822956e-08 	0.009406028626 	5.798711684e-08 	1.793050483e-05
0.507324668 	0.008393746505 	-0.004378542294 	-2.352915758e-08 	0.00923942866 	6.313245929e-08 	1.761291899e-05
0.5085949819 	0.008227972959 	-0.004293043571 	-2.586804734e-08 	0.009054313963 	6.875179788e-08 	1.726003893e-05
0.5098794711 	0.008059311289 	-0.004206191815 	-2.811759061e-08 	0.008866212105 	7.439785954e-08 	1.690146451e-05
0.5111782938 	0.007887875052 	-0.004117982178 	-3.030891612e-08 	0.008675215845 	8.010341951e-08 	1.653737255e-05
0.5124916099 	0.007713756879 	-0.004028458329 	-3.247301005e-08 	0.008481443644 	8.589964302e-08 	1.616798888e-05
0.5138195812 	0.007537042147 	-0.003937655956 	-3.464136677e-08 	0.008284971337 	9.18152468e-08 	1.579345806e-05
0.5151623712 	0.007357809133 	-0.003845603998 	-3.6844958e-08 	0.008085876301 	9.787475826e-08 	1.541392758e-05
0.5165201452 	0.007176131396 	-0.003752325292 	-3.911341993e-08 	0.007884229403 	1.040981488e-07 	1.502953255e-05
0.5178930705 	0.006992079633 	-0.003657837169 	-4.147436147e-08 	0.007680097816 	1.105001817e-07 	1.464040101e-05
0.5192813161 	0.006805723636 	-0.003562152198 	-4.395280232e-08 	0.007473547 	1.170898452e-07 	1.424665775e-05
0.520685053 	0.006617134394 	-0.003465278966 	-4.657073895e-08 	0.00726464317 	1.238697669e-07 	1.384842898e-05
0.522104454 	0.006426386523 	-0.003367222879 	-4.934675207e-08 	0.007053455763 	1.308357868e-07 	1.344584709e-05
0.523539694 	0.006233561296 	-0.003267987077 	-5.229541729e-08 	0.006840060734 	1.379747257e-07 	1.303905686e-05
0.5249909497 	0.006038750875 	-0.003167573303 	-5.542728889e-08 	0.006624545928 	1.452619701e-07 	1.262822574e-05
0.5264583998 	0.0058420633 	-0.003065994825 	-5.871675931e-08 	0.006407020449 	1.526517759e-07 	1.221356172e-05
0.527942225 	0.00564370265 	-0.002963305484 	-6.212215181e-08 	0.006187694396 	1.599532965e-07 	1.17954653e-05
0.5294426081 	0.005444138523 	-0.002859576629 	-6.565345406e-08 	0.005967020643 	1.668009693e-07 	1.137479979e-05
0.5309597337 	0.005244140563 	-0.002754833943 	-6.935071751e-08 	0.005745703468 	1.729355009e-07 	1.095290775e-05
0.5324937889 	0.005044566664 	-0.002649073 	-7.32136717e-08 	0.005524514263 	1.783550827e-07 	1.053125964e-05
0.5340449624 	0.004846124634 	-0.002542317073 	-7.719188994e-08 	0.00530409998 	1.831878346e-07 	1.011108876e-05
0.5356134452 	0.004649310754 	-0.002434626157 	-8.123715591e-08 	0.005084935143 	1.875579548e-07 	9.693299667e-06
0.5371994306 	0.004454465853 	-0.002326079174 	-8.531691969e-08 	0.00486736754 	1.915430519e-07 	9.278555346e-06
0.5388031139 	0.004261828166 	-0.002216767041 	-8.939589597e-08 	0.004651661864 	1.951890969e-07 	8.867360376e-06
0.5404246925 	0.004071567259 	-0.002106795272 	-9.343341678e-08 	0.004438029944 	1.985168523e-07 	8.46011856e-06
0.5420643661 	0.003883813382 	-0.001996286564 	-9.738400644e-08 	0.004226657921 	2.015199349e-07 	8.057184737e-06
0.5437223366 	0.003698687558 	-0.001885383542 	-1.011971103e-07 	0.004017734373 	2.041605584e-07 	7.658918387e-06
0.5453988083 	0.003516332917 	-0.001774252028 	-1.048166181e-07 	0.003811479833 	2.063657729e-07 	7.265739909e-06
0.5470939875 	0.003336945088 	-0.001663084953 	-1.081802324e-07 	0.003608176022 	2.080264921e-07 	6.878186339e-06
0.5488080831 	0.003160798786 	-0.001552106902 	-1.112188208e-07 	0.003408192319 	2.089997945e-07 	6.496961817e-06
0.5505413061 	0.002988268491 	-0.001441579204 	-1.138558776e-07 	0.003212007614 	2.091136723e-07 	6.122979244e-06
0.5522938699 	0.002819842472 	-0.001331805376 	-1.160072497e-07 	0.003020226787 	2.081730858e-07 	5.757391684e-06
0.5540659904 	0.002656130366 	-0.001223136603 	-1.175813966e-07 	0.002833591766 	2.059667785e-07 	5.401613461e-06
0.5558578859 	0.002497864583 	-0.001115976671 	-1.184806314e-07 	0.002652987014 	2.022753657e-07 	5.057330608e-06
0.5576697768 	0.002345895148 	-0.001010785356 	-1.186040178e-07 	0.002479438303 	1.968821918e-07 	4.726498529e-06
0.5595018865 	0.00220117641 	-0.0009080787386 	-1.178527786e-07 	0.002314102108 	1.895890482e-07 	4.411321789e-06
0.5613544406 	0.002064742903 	-0.0008084242286 	-1.161390997e-07 	0.002158241362 	1.802387935e-07 	4.114207888e-06
0.563227667 	0.001937670981 	-0.0007124276555 	-1.133988714e-07 	0.002013182171 	1.687458614e-07 	3.837684753e-06
0.5651217966 	0.001821023144 	-0.0006207097989 	-1.096079285e-07 	0.001880246326 	1.551331382e-07 	3.584272086e-06
0.5670370626 	0.001715773774 	-0.0005338709545 	-1.047996046e-07 	0.001760657022 	1.39569541e-07 	3.356301634e-06
0.5689737009 	0.0016227185 	-0.0004524449205 	-9.90791533e-08 	0.001655420745 	1.223983129e-07 	3.15569204e-06
0.5709319499 	0.001542374056 	-0.0003768479959 	-9.262865113e-08 	0.00156519617 	1.041438706e-07 	2.983698924e-06
0.5729120508 	0.001474882977 	-0.0003073332883 	-8.569693069e-08 	0.001490172938 	8.548129763e-08 	2.840683792e-06
0.5749142474 	0.001419927186 	-0.000243969898 	-7.851846258e-08 	0.001429973088 	6.724180938e-08 	2.725926145e-06
0.5769387863 	0.001377082473 	-0.000186699064 	-7.131326379e-08 	0.001384009485 	4.962483041e-08 	2.638306745e-06
0.5789859169 	0.001345973047 	-0.0001352745232 	-6.437660949e-08 	0.001351652117 	3.271392495e-08 	2.576624608e-06
0.5810558911 	0.001325730095 	-8.923487832e-05 	-5.792731959e-08 	0.001331720469 	1.742938603e-08 	2.538629346e-06
0.583148964 	0.001314976884 	-4.805833821e-05 	-5.205024615e-08 	0.00132251619 	4.371009382e-09 	2.521083432e-06
0.5852653933 	0.001312244292 	-1.120310801e-05 	-4.68034634e-08 	0.001322269549 	-6.493409822e-09 	2.520613265e-06
0.5874054395 	0.001316136583 	2.188938818e-05 	-4.220346512e-08 	0.00132932486 	-1.532789259e-08 	2.53406265e-06
0.5895693664 	0.001325386098 	5.175503069e-05 	-3.822627173e-08 	0.001342205805 	-2.236588831e-08 	2.558617311e-06
0.5917574402 	0.001338881624 	7.888936166e-05 	-3.482489982e-08 	0.001359644293 	-2.786735346e-08 	2.591859917e-06
0.5939699306 	0.001355675776 	0.0001037377401 	-3.194012576e-08 	0.001380581966 	-3.208790638e-08 	2.63177294e-06
0.5962071099 	0.001374977938 	0.0001266915209 	-2.950779521e-08 	0.001404154162 	-3.526044555e-08 	2.676708097e-06
0.5984692536 	0.001396138801 	0.0001480884631 	-2.746398514e-08 	0.001429665209 	-3.758630406e-08 	2.725339243e-06
0.6007566404 	0.001418631125 	0.0001682159402 	-2.574835693e-08 	0.001456561124 	-3.923317967e-08 	2.776610332e-06
0.6030695519 	0.001442029993 	0.0001873157541 	-2.430604264e-08 	0.001484403481 	-4.033727631e-08 	2.829685603e-06
0.6054082729 	0.001465994553 	0.0002055896104 	-2.308846585e-08 	0.001512846444 	-4.10076889e-08 	2.883905796e-06
0.6077730914 	0.00149025237 	0.0002232046259 	-2.205350782e-08 	0.001541617769 	-4.133159327e-08 	2.938751939e-06
0.6101642987 	0.001514586714 	0.0002402985315 	-2.116534678e-08 	0.001570503806 	-4.137922321e-08 	2.993816754e-06
0.6125821893 	0.001538826569 	0.0002569844437 	-2.039415129e-08 	0.001599338 	-4.120798002e-08 	3.048782742e-06
0.6150270608 	0.001562838827 	0.0002733551669 	-1.971567413e-08 	0.001627992145 	-4.086538738e-08 	3.103405505e-06
0.6174992144 	0.001586521988 	0.0002894870052 	-1.911073179e-08 	0.001656369566 	-4.039095528e-08 	3.157500757e-06
0.6199989545 	0.001609800854 	0.0003054430577 	-1.856456688e-08 	0.001684399556 	-3.981726568e-08 	3.210933709e-06
0.622526589 	0.001632621859 	0.0003212759773 	-1.806613516e-08 	0.001712032615 	-3.917067169e-08 	3.26361e-06
0.625082429 	0.001654948907 	0.0003370301994 	-1.760738566e-08 	0.001739236279 	-3.847192175e-08 	3.315467744e-06
0.6276667894 	0.001676759714 	0.0003527436845 	-1.718259646e-08 	0.001765991483 	-3.773686329e-08 	3.366470599e-06
0.6302799884 	0.001698042694 	0.0003684492388 	-1.67878033e-08 	0.001792289472 	-3.69772395e-08 	3.416601875e-06
0.6329223478 	0.001718794402 	0.0003841754888 	-1.642033275e-08 	0.001818129256 	-3.620151571e-08 	3.465859686e-06
0.6355941931 	0.001739017513 	0.0003999475826 	-1.607843527e-08 	0.001843515602 	-3.54156579e-08 	3.514253115e-06
0.6382958531 	0.001758719281 	0.0004157876813 	-1.576100602e-08 	0.001868457483 	-3.462380758e-08 	3.561799273e-06
0.6410276607 	0.001777910395 	0.000431715294 	-1.546737899e-08 	0.001892966933 	-3.382882846e-08 	3.608521096e-06
0.6437899523 	0.001796604144 	0.0004477474979 	-1.519717982e-08 	0.001917058198 	-3.303272543e-08 	3.654445744e-06
0.646583068 	0.001814815822 	0.0004638990756 	-1.495022402e-08 	0.00194074713 	-3.223695182e-08 	3.699603433e-06
0.6494073518 	0.001832562301 	0.0004801825955 	-1.472644912e-08 	0.001964050747 	-3.144262628e-08 	3.744026603e-06
0.6522631514 	0.001849861718 	0.0004966084495 	-1.452587119e-08 	0.001986986908 	-3.065068181e-08 	3.7877493e-06
0.6551508186 	0.001866733251 	0.0005131848628 	-1.434855817e-08 	0.002009574077 	-2.986196563e-08 	3.830806723e-06
0.658070709 	0.001883196941 	0.0005299178826 	-1.419461439e-08 	0.002031831135 	-2.907730558e-08 	3.873234861e-06
0.6610231822 	0.001899273557 	0.0005468113523 	-1.406417191e-08 	0.002053777226 	-2.829755417e-08 	3.91507021e-06
0.6640086017 	0.001914984479 	0.000563866874 	-1.395738557e-08 	0.002075431629 	-2.75236184e-08 	3.95634952e-06
0.6670273351 	0.001930351601 	0.0005810837631 	-1.387442951e-08 	0.002096813637 	-2.675648056e-08 	3.997109572e-06
0.6700797543 	0.001945397246 	0.0005984589963 	-1.381549374e-08 	0.002117942451 	-2.599721344e-08 	4.037386963e-06
0.6731662352 	0.001960144089 	0.0006159871559 	-1.378077966e-08 	0.002138837064 	-2.524699175e-08 	4.077217903e-06
0.6762871577 	0.001974615089 	0.0006336603714 	-1.377049404e-08 	0.00215951616 	-2.45071009e-08 	4.116638008e-06
0.6794429063 	0.001988833434 	0.0006514682599 	-1.378484104e-08 	0.002179998003 	-2.377894336e-08 	4.155682093e-06
0.6826338695 	0.002002822483 	0.00066939787 	-1.382401239e-08 	0.002200300321 	-2.30640428e-08 	4.194383954e-06
0.6858604404 	0.002016605729 	0.0006874336285 	-1.388817562e-08 	0.002220440193 	-2.23640459e-08 	4.232776148e-06
0.6891230163 	0.00203020676 	0.0007055572953 	-1.397746061e-08 	0.002240433928 	-2.168072158e-08 	4.270889763e-06
0.6924219988 	0.002043649235 	0.0007237479293 	-1.409194466e-08 	0.00226029694 	-2.101595743e-08 	4.308754184e-06
0.6957577944 	0.002056956863 	0.0007419818676 	-1.423163609e-08 	0.00228004362 	-2.037175339e-08 	4.346396846e-06
0.6991308138 	0.002070153391 	0.0007602327244 	-1.439645675e-08 	0.002299687211 	-1.975021221e-08 	4.38384299e-06
0.7025414724 	0.002083262607 	0.0007784714122 	-1.458622321e-08 	0.002319239674 	-1.915352689e-08 	4.421115419e-06
0.7059901901 	0.002096308339 	0.0007966661902 	-1.48006267e-08 	0.002338711566 	-1.858396475e-08 	4.458234256e-06
0.7094773917 	0.002109314467 	0.000814782747 	-1.503921162e-08 	0.002358111918 	-1.804384819e-08 	4.495216719e-06
0.7130035066 	0.002122304943 	0.0008327843201 	-1.530135227e-08 	0.002377448127 	-1.753553196e-08 	4.532076909e-06
0.7165689691 	0.002135303813 	0.0008506318607 	-1.558622754e-08 	0.002396725863 	-1.706137665e-08 	4.568825629e-06
0.7201742182 	0.002148335245 	0.0008682842484 	-1.589279298e-08 	0.002415948989 	-1.662371835e-08 	4.605470251e-06
0.7238196978 	0.002161423561 	0.0008856985638 	-1.621975005e-08 	0.002435119536 	-1.622483339e-08 	4.642014642e-06
0.727505857 	0.002174593276 	0.0009028304254 	-1.656551184e-08 	0.002454237603 	-1.586690297e-08 	4.678458992e-06
0.7312331497 	0.002187869127 	0.0009196344176 	-1.692816497e-08 	0.002473301403 	-1.555197145e-08 	4.714799893e-06
0.7350020349 	0.002201240841 	0.0009360198584 	-1.730457442e-08 	0.002492257105 	-1.5282527e-08 	4.750934729e-06
0.7387709215 	0.002214619814 	0.0009518117819 	-1.768892478e-08 	0.002510943704 	-1.506137816e-08 	4.78655658e-06
0.7424982157 	0.00222791564 	0.000966861647 	-1.807458167e-08 	0.002529209084 	-1.48893156e-08 	4.821375472e-06
0.7461843763 	0.002241113771 	0.0009811291605 	-1.845687606e-08 	0.002547014834 	-1.476460086e-08 	4.855318179e-06
0.7498298574 	0.002254233112 	0.0009946192487 	-1.883228565e-08 	0.002564371515 	-1.468458298e-08 	4.888404838e-06
0.7534351078 	0.002267290736 	0.001007341107 	-1.919729525e-08 	0.002581289521 	-1.464633763e-08 	4.92065526e-06
0.7570005716 	0.002280302124 	0.001019308121 	-1.954840463e-08 	0.002597779422 	-1.464668217e-08 	4.952089593e-06
0.7605266877 	0.002293281393 	0.001030537757 	-1.988214476e-08 	0.002613852385 	-1.468218658e-08 	4.982729129e-06
0.7640138905 	0.002306241507 	0.001041051417 	-2.019509345e-08 	0.00262952048 	-1.474918973e-08 	5.012596872e-06
0.7674626093 	0.002319194486 	0.00105087429 	-2.048389049e-08 	0.002644796946 	-1.484381538e-08 	5.041718063e-06
0.770873269 	0.002332151606 	0.001060035166 	-2.074525316e-08 	0.002659696439 	-1.496198798e-08 	5.070120636e-06
0.7742462894 	0.002345123598 	0.001068566249 	-2.097598887e-08 	0.002674235226 	-1.509944725e-08 	5.097835605e-06
0.777582086 	0.002358120837 	0.00107650296 	-2.117300612e-08 	0.002688431372 	-1.525176168e-08 	5.124897405e-06
0.7808810695 	0.002371153542 	0.001083883733 	-2.133332604e-08 	0.002702304888 	-1.541434144e-08 	5.151344184e-06
0.7841436462 	0.002384231967 	0.001090749798 	-2.145409138e-08 	0.002715877863 	-1.558244913e-08 	5.177218047e-06
0.787370218 	0.00239736661 	0.001097144975 	-2.153257304e-08 	0.002729174576 	-1.575120807e-08 	5.202565276e-06
0.7905611821 	0.002410568415 	0.001103115471 	-2.156617533e-08 	0.0027422216 	-1.59156081e-08 	5.22743653e-06
0.7937169314 	0.002423848984 	0.001108709677 	-2.155243966e-08 	0.002755047898 	-1.607050919e-08 	5.25188702e-06
0.7968378547 	0.002437220797 	0.001113977973 	-2.14890468e-08 	0.002767684913 	-1.621064236e-08 	5.275976683e-06
0.7999243362 	0.002450697439 	0.00111897255 	-2.1373818e-08 	0.002780166655 	-1.633060823e-08 	5.299770351e-06
0.8029767561 	0.002464293837 	0.001123747228 	-2.120471505e-08 	0.002792529792 	-1.64248732e-08 	5.323337927e-06
0.8059954902 	0.002478026499 	0.0011283573 	-2.097983984e-08 	0.002804813745 	-1.64877636e-08 	5.346754556e-06
0.8089809102 	0.00249191377 	0.001132859372 	-2.06974335e-08 	0.00281706079 	-1.651345826e-08 	5.370100827e-06
0.8119333839 	0.002505976089 	0.001137311225 	-2.035587567e-08 	0.002829316164 	-1.649598004e-08 	5.393462976e-06
0.8148532749 	0.002520236251 	0.001141771681 	-1.995368421e-08 	0.002841628186 	-1.642918688e-08 	5.416933112e-06
0.8177409426 	0.002534719685 	0.001146300478 	-1.94895157e-08 	0.00285404838 	-1.630676334e-08 	5.440609454e-06
0.8205967427 	0.002549454719 	0.001150958157 	-1.896216719e-08 	0.002866631615 	-1.612221355e-08 	5.464596597e-06
0.8234210268 	0.002564472862 	0.001155805945 	-1.837057948e-08 	0.002879436243 	-1.586885661e-08 	5.489005777e-06
0.8262141429 	0.002579809073 	0.001160905657 	-1.771384252e-08 	0.002892524249 	-1.553982586e-08 	5.513955154e-06
0.8289764348 	0.002595502027 	0.001166319581 	-1.699120308e-08 	0.002905961401 	-1.512807334e-08 	5.5395701e-06
0.8317082427 	0.002611594376 	0.001172110374 	-1.620207536e-08 	0.002919817393 	-1.462638117e-08 	5.565983473e-06
0.8344099031 	0.002628132988 	0.00117834095 	-1.534605465e-08 	0.00293416599 	-1.40273816e-08 	5.593335887e-06
0.8370817486 	0.00264516917 	0.001185074356 	-1.442293466e-08 	0.002949085146 	-1.332358763e-08 	5.621775945e-06
0.8397241082 	0.00266275886 	0.001192373641 	-1.343272865e-08 	0.002964657108 	-1.250743634e-08 	5.651460432e-06
0.8423373074 	0.002680962784 	0.001200301707 	-1.237569466e-08 	0.002980968485 	-1.157134696e-08 	5.682554451e-06
0.844921668 	0.002699846565 	0.001208921141 	-1.125236503e-08 	0.002998110275 	-1.050779561e-08 	5.715231466e-06
0.8474775082 	0.002719480789 	0.001218294028 	-1.006357992e-08 	0.003016177838 	-9.309408679e-09 	5.749673262e-06
0.8500051427 	0.00273994099 	0.001228481729 	-8.810524684e-09 	0.0030352708 	-7.969075858e-09 	5.786069756e-06
0.8525048829 	0.002761307572 	0.001239544639 	-7.494770008e-09 	0.003055492889 	-6.480083531e-09 	5.824618676e-06
0.8549770366 	0.002783665643 	0.001251541914 	-6.118313761e-09 	0.003076951659 	-4.836267789e-09 	5.865525057e-06
0.8574219081 	0.002807104753 	0.001264531159 	-4.683622485e-09 	0.003099758136 	-3.032185079e-09 	5.909000541e-06
0.8598397987 	0.002831718531 	0.001278568091 	-3.193670034e-09 	0.003124026331 	-1.063296712e-09 	5.955262464e-06
0.862231006 	0.00285760421 	0.001293706174 	-1.651970139e-09 	0.003149872642 	1.073838494e-09 	6.004532717e-06
0.8645958245 	0.002884862045 	0.001309996228 	-6.259920897e-11 	0.003177415138 	3.381370951e-09 	6.05703637e-06
0.8669345455 	0.00291359461 	0.001327486025 	1.569794564e-09 	0.003206772712 	5.859975682e-09 	6.113000065e-06
0.8692474569 	0.002943906 	0.001346219874 	3.239999614e-09 	0.00323806413 	8.508686595e-09 	6.172650204e-06
0.8715348435 	0.002975900915 	0.001366238212 	4.942270072e-09 	0.003271406973 	1.132476031e-08 	6.236210931e-06
0.8737969871 	0.003009683674 	0.001387577218 	6.670377439e-09 	0.003306916507 	1.430357947e-08 	6.303901972e-06
0.8760341663 	0.003045357147 	0.001410268455 	8.417685157e-09 	0.003344704488 	1.743860368e-08 	6.375936366e-06
0.8782466565 	0.003083021645 	0.001434338557 	1.017724409e-08 	0.003384877948 	2.072137384e-08 	6.452518146e-06
0.8804347301 	0.003122773779 	0.00145980898 	1.19419047e-08 	0.003427537981 	2.414157156e-08 	6.533840027e-06
0.8825986568 	0.003164705325 	0.001486695823 	1.370443924e-08 	0.003472778573 	2.768713216e-08 	6.620081169e-06
0.8847387028 	0.003208902111 	0.001515009727 	1.545766565e-08 	0.003520685496 	3.134440514e-08 	6.71140508e-06
0.8868551318 	0.003255442963 	0.001544755855 	1.71945631e-08 	0.00357133531 	3.509835262e-08 	6.807957703e-06
0.8889482045 	0.003304398725 	0.001575933959 	1.890836903e-08 	0.003624794486 	3.893277311e-08 	6.90986575e-06
0.8910181784 	0.003355831376 	0.001608538513 	2.059264751e-08 	0.003681118677 	4.283053571e-08 	7.017235312e-06
0.8930653087 	0.003409793269 	0.001642558926 	2.224132041e-08 	0.00374035215 	4.67738087e-08 	7.130150775e-06
0.8950898473 	0.003466326489 	0.001677979796 	2.384865458e-08 	0.003802527378 	5.074426657e-08 	7.248674041e-06
0.8970920436 	0.003525462351 	0.001714781206 	2.540920127e-08 	0.003867664797 	5.472326049e-08 	7.372844065e-06
0.8990721441 	0.003587221024 	0.001752939039 	2.6917687e-08 	0.003935772711 	5.869193983e-08 	7.502676679e-06
0.9010303927 	0.00365161129 	0.001792425281 	2.836885884e-08 	0.00400684734 	6.263131512e-08 	7.638164675e-06
0.9029670306 	0.003718630414 	0.001833208315 	2.975729021e-08 	0.004080872969 	6.652225734e-08 	7.779278099e-06
0.9048822962 	0.003788264121 	0.001875253162 	3.107715708e-08 	0.004157822201 	7.034543277e-08 	7.925964722e-06
0.9067764254 	0.003860486655 	0.001918521676 	3.232199706e-08 	0.004237656256 	7.408117755e-08 	8.078150619e-06
0.9086496514 	0.003935260908 	0.001962972669 	3.348446652e-08 	0.00432032531 	7.770932133e-08 	8.235740814e-06
0.910502205 	0.00401253859 	0.002008561961 	3.455611242e-08 	0.004405768842 	8.120897367e-08 	8.398619933e-06
0.9123343142 	0.004092260441 	0.002055242358 	3.552717653e-08 	0.004493915953 	8.455829121e-08 	8.566652825e-06
0.9141462048 	0.004174356444 	0.002102963547 	3.638644969e-08 	0.00458468566 	8.773424691e-08 	8.739685116e-06
0.9159380997 	0.004258746056 	0.00215167194 	3.712119274e-08 	0.004677987139 	9.071242482e-08 	8.917543666e-06
0.9177102197 	0.004345338425 	0.002201310453 	3.771713882e-08 	0.004773719906 	9.34668651e-08 	9.100036928e-06
0.9194627831 	0.004434032618 	0.002251818258 	3.815858927e-08 	0.004871773956 	9.596998358e-08 	9.286955199e-06
0.9211960055 	0.004524717836 	0.002303130515 	3.842861149e-08 	0.004972029846 	9.819258888e-08 	9.478070791e-06
0.9229101006 	0.004617273648 	0.002355178117 	3.850934299e-08 	0.005074358755 	1.001040167e-07 	9.673138132e-06
0.9246052793 	0.004711570249 	0.002407887467 	3.838240145e-08 	0.005178622528 	1.016723972e-07 	9.871893863e-06