0.3810449493 	0.01639866788 	0.002107214674 	-1.166697692e-06
0.3810449493 	0.01639866788 	0.002107214674 	-1.166697692e-06
0.3812213909 	0.04787404133 	0.006138554969 	-3.642707461e-06
0.3813978397 	0.09557418887 	0.01224491369 	-7.368880874e-06
0.381574295 	0.1430926191 	0.0183301897 	-1.089558839e-05
0.3817507564 	0.1904029842 	0.02438653719 	-1.428446366e-05
0.3819272234 	0.2374397987 	0.03040563618 	-1.7542501e-05
0.3821036954 	0.2840736331 	0.0363708502 	-2.065446406e-05
0.3822801719 	0.3300896098 	0.04225446939 	-2.359629983e-05
0.3824566525 	0.3751832175 	0.04801730858 	-2.633700439e-05
0.3826331365 	0.4189845268 	0.05361206165 	-2.884415585e-05
0.3828096235 	0.4611098807 	0.05898991768 	-3.109127373e-05
0.382986113 	0.5012242067 	0.06410829466 	-3.306383556e-05
0.3831626043 	0.5390900482 	0.06893690243 	-3.476148476e-05
0.3833390971 	0.5745876659 	0.07346033793 	-3.61961745e-05
0.3835155909 	0.607706561 	0.07767716141 	-3.738793458e-05
0.383692085 	0.6385199177 	0.08159673398 	-3.836042506e-05
0.3838685789 	0.6671548485 	0.08523541162 	-3.913763215e-05
0.3840450723 	0.6937667003 	0.08861321046 	-3.974198672e-05
0.3842215645 	0.7185204229 	0.09175138252 	-4.019357153e-05
0.384398055 	0.7415787082 	0.09467087903 	-4.050997031e-05
0.3845745433 	0.7630953234 	0.09739149266 	-4.070642595e-05
0.384751029 	0.7832119442 	0.09993145352 	-4.079611483e-05
0.3849275114 	0.8020571407 	0.102307302 	-4.079044096e-05
0.3851039901 	0.8197465816 	0.1045339175 	-4.069930826e-05
0.3852804646 	0.8363838661 	0.1066246266 	-4.053135722e-05
0.3854569344 	0.8520616301 	0.1085913453 	-4.029416441e-05
0.385633399 	0.8668627311 	0.1104447336 	-3.999440921e-05
0.3858098578 	0.8808614091 	0.1121943376 	-3.96380106e-05
0.3859863103 	0.8941243656 	0.1138487911 	-3.923025442e-05
0.3861627561 	0.9067118424 	0.1154156958 	-3.877586003e-05
0.3863391946 	0.9202917854 	0.1171026324 	-3.832905241e-05
0.3866133237 	0.9362256725 	0.1190759835 	-3.743384441e-05
0.3868925839 	0.9527502186 	0.1211157643 	-3.648604837e-05
0.3871770685 	0.968413148 	0.1230415813 	-3.544397866e-05
0.3874668729 	0.9832816525 	0.124862295 	-3.431271876e-05
0.3877620936 	0.9974165801 	0.1265855593 	-3.309685017e-05
0.3880628288 	1.010873022 	0.1282184101 	-3.180054416e-05
0.3883691783 	1.023701005 	0.1297672176 	-3.042758036e-05
0.3886812435 	1.03594608 	0.1312377784 	-2.898138157e-05
0.3889991275 	1.047649831 	0.1326353789 	-2.746504851e-05
0.3893229347 	1.058850325 	0.1339648547 	-2.588139924e-05
0.3896527714 	1.0695825 	0.1352306448 	-2.423306767e-05
0.3899887454 	1.079878518 	0.1364368437 	-2.252208931e-05
0.3903309662 	1.089768091 	0.1375871419 	-2.07499391e-05
0.3906795449 	1.099279035 	0.1386849921 	-1.892263621e-05
0.3910345942 	1.108442242 	0.1397347059 	-1.704846931e-05
0.3913962286 	1.117300991 	0.140742094 	-1.512952478e-05
0.391764564 	1.125905596 	0.141713541 	-1.316058675e-05
0.3921397182 	1.134295736 	0.142654503 	-1.113353128e-05
0.3925218105 	1.1424974 	0.1435686091 	-9.043881209e-06
0.3929109619 	1.150530016 	0.144458305 	-6.890717746e-06
0.3933072949 	1.158410193 	0.1453257251 	-4.6736374e-06
0.3937109339 	1.166153444 	0.1461728808 	-2.392188906e-06
0.3941220045 	1.173774946 	0.1470017548 	-4.562954009e-08
0.394129973 	1.173918085 	0.1470172359 	5.917857711e-07
0.3945400737 	1.181295798 	0.1478156988 	-2.318687667e-06
0.3949668698 	1.188779263 	0.1486212585 	-4.755490387e-06
0.3954119652 	1.19627617 	0.1494241065 	-7.339805226e-06
0.395865298 	1.203748466 	0.1502204986 	-1.000257879e-05
0.3963270188 	1.211164823 	0.1510073712 	-1.274590712e-05
0.3967972809 	1.21853483 	0.1517860209 	-1.557142861e-05
0.3972762401 	1.225864933 	0.152557286 	-1.847991087e-05
0.3977640554 	1.23315873 	0.1533215938 	-2.147129421e-05
0.3982608883 	1.240417198 	0.1540789938 	-2.454477755e-05
0.3987669034 	1.247638794 	0.154829177 	-2.769890205e-05
0.399282268 	1.254819584 	0.1555714947 	-3.093162797e-05
0.3998071528 	1.26195338 	0.1563049772 	-3.42403238e-05
0.4003417311 	1.269031765 	0.1570283394 	-3.762162635e-05
0.4008861797 	1.276043962 	0.1577399609 	-4.107116012e-05
0.4014406782 	1.282976506 	0.1584378369 	-4.458307271e-05
0.4020054097 	1.289812663 	0.1591194918 	-4.814935693e-05
0.4025805604 	1.296531597 	0.1597818538 	-5.175895968e-05
0.4031663199 	1.303107326 	0.1604210966 	-5.539676576e-05
0.4037628812 	1.309507643 	0.1610324732 	-5.904274876e-05
0.4043704407 	1.315693414 	0.1616102017 	-6.267186161e-05
0.4049891984 	1.321619074 	0.162147502 	-6.625562571e-05
0.4056193577 	1.327235914 	0.1626369394 	-6.976621953e-05
0.4062611258 	1.332500884 	0.1630715073 	-7.319569452e-05
0.4069147136 	1.337395649 	0.1634492895 	-7.662442002e-05
0.4075803356 	1.341959186 	0.1637767361 	-8.015150275e-05
0.4082582104 	1.346289616 	0.164064496 	-7.63656462e-05
0.4089563963 	1.350464965 	0.1643206513 	-7.21935811e-05
0.4096771504 	1.354466309 	0.1645437037 	-6.782112189e-05
0.4104111267 	1.358215182 	0.1647238137 	-6.328096197e-05
0.411158564 	1.361638772 	0.164850293 	-5.859350351e-05
0.411919705 	1.364671626 	0.1649129275 	-5.3774985e-05
0.4126947969 	1.3672514 	0.1649017482 	-4.887174569e-05
0.4134840914 	1.369333729 	0.164809519 	-4.395544819e-05
0.4142878445 	1.370907614 	0.1646341393 	-3.910457863e-05
0.4151063168 	1.372002826 	0.1643797782 	-3.437701801e-05
0.4159397736 	1.372683791 	0.1640559551 	-2.979437655e-05
0.4167884849 	1.37305742 	0.1636245232 	-2.53091608e-05
0.4180905889 	1.373131317 	0.1630243129 	-1.884392019e-05
0.419406252 	1.372903663 	0.1623201183 	-1.255686374e-05
0.4207356172 	1.37250004 	0.1615854617 	-6.402731835e-06
0.4220788289 	1.371998619 	0.1608294001 	-3.40113488e-07
0.4221548793 	1.371967878 	0.1607868158 	-2.784313991e-06
0.4234639132 	1.371437543 	0.1600547106 	-5.745860773e-06
0.4248663094 	1.370842348 	0.1592673717 	-1.177110799e-05
0.4262832195 	1.370227896 	0.158474284 	-1.772659212e-05
0.4277147966 	1.369600398 	0.1576767328 	-2.361359801e-05
0.4291611958 	1.368962687 	0.1568752221 	-2.943194405e-05
0.4306225742 	1.368316026 	0.1560699942 	-3.518090607e-05
0.4320990907 	1.36766092 	0.1552612013 	-4.085957191e-05
0.4335909064 	1.366997581 	0.1544486917 	-4.64670299e-05
0.4350981844 	1.366323473 	0.1536299083 	-5.200060432e-05
0.4366434922 	1.365635007 	0.1528001768 	-5.756604841e-05
0.4382166345 	1.364933255 	0.1519607186 	-6.001166222e-05
0.4398059559 	1.364221944 	0.1511164015 	-5.368641388e-05
0.4414116291 	1.363502494 	0.1502688602 	-4.744428082e-05
0.4430338293 	1.362775055 	0.1494180863 	-4.128602297e-05
0.4446727339 	1.36203984 	0.1485641343 	-3.521232558e-05
0.4463285227 	1.361297116 	0.1477069333 	-2.922385739e-05
0.4480013782 	1.360545246 	0.1468446189 	-2.332066396e-05
0.4497078613 	1.35978056 	0.1459728043 	-1.743053909e-05
0.4514512468 	1.359002967 	0.1450909157 	-1.154933865e-05
0.4532124669 	1.358216434 	0.1442037168 	-5.767041809e-06
0.454991715 	1.357423289 	0.1433137828 	-8.450403895e-08
0.4550186889 	1.357411292 	0.1433003773 	-8.717456493e-07
0.4567876948 	1.356622766 	0.1424219502 	-5.440851627e-06
0.4586020882 	1.355816046 	0.1415273987 	-1.086727811e-05
0.4604351201 	1.355003052 	0.1406295592 	-1.619549836e-05
0.462291103 	1.354180142 	0.1397245645 	-2.144014089e-05
0.4641986841 	1.353345195 	0.1388087157 	-2.670258175e-05
0.4661257233 	1.352502876 	0.1378867462 	-3.185420024e-05
0.4680724357 	1.351657947 	0.1369629245 	-3.689678185e-05
0.4700390397 	1.35081185 	0.1360374292 	-4.183142914e-05
0.4720257568 	1.349966355 	0.1351104531 	-4.665955035e-05
0.4740328119 	1.349121669 	0.1341805184 	-5.138161666e-05
0.4760774571 	1.348276393 	0.1332438368 	-4.590366538e-05
0.478163013 	1.347432846 	0.1323003472 	-4.036515601e-05
0.4802697826 	1.346597092 	0.1313548602 	-3.494570886e-05
0.4823980057 	1.345773296 	0.1304100457 	-2.964465835e-05
0.4845479263 	1.344963294 	0.129466138 	-2.445988498e-05
0.4867197918 	1.34416721 	0.1285219578 	-1.938878949e-05
0.488928055 	1.343382897 	0.1275738772 	-1.438648927e-05
0.4911816255 	1.342610364 	0.1266210076 	-9.434231866e-06
0.4934580691 	1.341852495 	0.1256675287 	-4.602595983e-06
0.4957035467 	1.34112778 	0.1247381896 	-1.461545838e-06
0.4957576181 	1.341110288 	0.1247158246 	-1.088462265e-07
0.4980792332 	1.340381699 	0.1237662317 	-4.664202897e-06
0.5004245514 	1.33966338 	0.122814491 	-9.10138442e-06
0.5028227957 	1.338951095 	0.1218563651 	-1.349831959e-05
0.5052529341 	1.338237523 	0.1208964335 	-1.779642519e-05
0.5077077682 	1.337495607 	0.1199325237 	-2.191045835e-05
0.5101875913 	1.336690324 	0.1189534602 	-2.58161385e-05
0.5126927018 	1.335810759 	0.1179576298 	-2.95892948e-05
0.5152453314 	1.334866372 	0.116946883 	-3.329402836e-05
0.5178375627 	1.33387143 	0.115923491 	-3.688614765e-05
0.5204561288 	1.332839764 	0.1148926634 	-4.034692663e-05
0.5231013502 	1.331780617 	0.1138571484 	-3.730690238e-05
0.5257735529 	1.330696647 	0.112815587 	-3.307849371e-05
0.5285003312 	1.329588002 	0.1117650914 	-2.89351988e-05
0.5312618722 	1.328458804 	0.1107082114 	-2.49226383e-05
0.5340515049 	1.327314026 	0.1096486087 	-2.105265052e-05
0.53686958 	1.326154442 	0.1085863308 	-1.732134741e-05
0.5397256397 	1.32497733 	0.1075185789 	-1.370883063e-05
0.5426344385 	1.323781638 	0.1064439428 	-1.019498267e-05
0.5455728418 	1.322570876 	0.1053657799 	-6.822181973e-06
0.5485412272 	1.321347598 	0.1042861773 	-3.587297082e-06
0.5515410631 	1.320108741 	0.1032026732 	-4.850470934e-07
0.5520281168 	1.319908673 	0.1030290842 	-1.107266605e-05
0.5546006518 	1.31885085 	0.10211251 	-2.512989085e-06
0.5576913108 	1.317577492 	0.1010186554 	-5.370647595e-06
0.5608136116 	1.316291803 	0.09992367893 	-8.094286106e-06
0.5639687067 	1.314990773 	0.09882534239 	-1.068842971e-05
0.567184494 	1.31367151 	0.09772094665 	-1.318604091e-05
0.5704332106 	1.312336783 	0.09661326794 	-1.554919533e-05
0.5737152938 	1.310988764 	0.09550429157 	-1.77826199e-05
0.5770372296 	1.309624572 	0.09439187385 	-1.989642749e-05
0.5804142413 	1.308242471 	0.09327457392 	-2.190323486e-05
0.5838259791 	1.306844977 	0.09215482928 	-2.378175228e-05
0.5872729134 	1.305432483 	0.09103330062 	-2.553696344e-05
0.5907705878 	1.304002212 	0.08990785104 	-2.718494017e-05
0.5943140224 	1.302554397 	0.08877892172 	-2.871735397e-05
0.5978940924 	1.301090903 	0.08764836383 	-2.644819519e-05
0.6015149511 	1.299610119 	0.08651527807 	-2.419526183e-05
0.6051922863 	1.298110073 	0.08537823117 	-2.204535289e-05
0.6089077541 	1.296592697 	0.08423915245 	-2.00147756e-05
0.612661888 	1.295057742 	0.08309834117 	-1.809823762e-05
0.6164727598 	1.293502625 	0.08195398483 	-1.628009038e-05
0.6203260974 	1.291928387 	0.08080730049 	-1.457300397e-05
0.6242196901 	1.290335316 	0.0796590624 	-1.297375517e-05
0.6281668391 	1.288721227 	0.07850792842 	-1.14703791e-05
0.6321607674 	1.287086264 	0.07735443491 	-1.006913278e-05
0.6361966073 	1.2854306 	0.07619934816 	-8.768284177e-06
0.6402856089 	1.283752386 	0.07504171168 	-7.557862486e-06
0.6444231319 	1.282051404 	0.07388186627 	-6.441808661e-06
0.6486042948 	1.2803275 	0.07272042765 	-5.417712277e-06
0.6528401147 	1.278578829 	0.07155656867 	-4.476913983e-06
0.6571245484 	1.276805163 	0.07039074658 	-3.622874099e-06
0.6614544254 	1.275005861 	0.06922334163 	-2.851496569e-06
0.6658416149 	1.273178833 	0.06805349385 	-2.155651364e-06
0.6702766106 	1.271323836 	0.0668818622 	-1.538323956e-06
0.6747608143 	1.269439777 	0.06570858947 	-9.931789593e-07
0.6793018053 	1.267529738 	0.06453609544 	-5.170856667e-07
0.6838407313 	1.265609446 	0.0633747862 	-1.136294157e-07
0.68533741 	1.264971205 	0.06299461567 	-2.254068887e-05
0.6883321244 	1.263693984 	0.06223395194 	-2.226739825e-07
0.6927764795 	1.26178766 	0.06111580715 	-4.957022914e-07
0.6971701987 	1.259890028 	0.06001998221 	-7.122860234e-07
0.7015195371 	1.257999805 	0.05894544562 	-8.799704309e-07
0.7058210368 	1.256116561 	0.05789179659 	-1.001102444e-06
0.7100738481 	1.254239607 	0.05685857537 	-1.082209989e-06
0.7142840845 	1.252367516 	0.05584476192 	-1.128109651e-06
0.7184469364 	1.250499996 	0.05485013613 	-1.140830745e-06
0.7225632872 	1.248636283 	0.05387422868 	-1.125829224e-06
0.7266374089 	1.246775013 	0.05291616723 	-1.085951099e-06
0.730665764 	1.244915784 	0.0519757377 	-1.023210916e-06
0.7346493111 	1.243057755 	0.05105248073 	-9.418362576e-07
0.7385913566 	1.241199635 	0.05014566214 	-8.437021952e-07
0.7424893035 	1.239340929 	0.04925506517 	-7.303845424e-07
0.74634377 	1.237480769 	0.04838028287 	-6.051308438e-07
0.7501578474 	1.235617865 	0.04752066028 	-4.694734247e-07
0.7539294053 	1.23375162 	0.04667596527 	-3.242937546e-07
0.7576589941 	1.23188122 	0.04584588018 	-1.720979565e-07
0.7613487646 	1.230005439 	0.04502984525 	-1.436051132e-08
0.7616645071 	1.2298426 	0.04496043069 	-3.860419469e-06
0.7649978035 	1.228123421 	0.04422755018 	-1.481175653e-07
0.7686063318 	1.226234455 	0.04343876316 	-3.139458491e-07
0.7721756267 	1.224337446 	0.04266303382 	-4.817036067e-07
0.7757060681 	1.22243144 	0.04190001641 	-6.514858384e-07
0.779197407 	1.220515705 	0.04114950826 	-8.221288449e-07
0.7826502185 	1.218589268 	0.04041116701 	-9.923161332e-07
0.7860658461 	1.216651053 	0.03968461425 	-1.161869011e-06
0.7894437099 	1.21470031 	0.03896964194 	-1.330494158e-06
0.7927842666 	1.212736238 	0.03826602547 	-1.497183328e-06
0.7960883722 	1.210757827 	0.03757342687 	-1.66122473e-06
0.7993563864 	1.208764195 	0.0368915829 	-1.822918057e-06
0.8025883531 	1.206754618 	0.03622031386 	-1.981687461e-06
0.8057846993 	1.20472826 	0.03555937687 	-2.136855139e-06
0.8089462876 	1.202684196 	0.03490848887 	-2.288201106e-06
0.812073146 	1.200621679 	0.03426744949 	-2.435969615e-06
0.8151655736 	1.198540037 	0.03363609324 	-2.579679523e-06
0.8182239713 	1.196438481 	0.03301419309 	-2.718885591e-06
0.8212490869 	1.194316198 	0.03240151128 	-2.853614902e-06
0.8242409391 	1.192172543 	0.03179787867 	-2.984050703e-06
0.8271998887 	1.190006919 	0.03120314039 	-3.109871744e-06
0.8301263136 	1.187818647 	0.03061709876 	-3.230797729e-06
0.8330208137 	1.18560705 	0.03003954928 	-3.346892176e-06
0.835883524 	1.183371579 	0.02947033557 	-3.458390318e-06
0.8387147803 	1.181111748 	0.02890931329 	-3.565102325e-06
0.8415149398 	1.178827042 	0.02835631403 	-3.666865279e-06
0.8442844673 	1.176516949 	0.0278111575 	-3.763676795e-06
0.8470236332 	1.174181052 	0.02727369051 	-3.855851823e-06
0.8497327213 	1.171819016 	0.02674377862 	-3.943321847e-06
0.8524120703 	1.169430535 	0.02622127471 	-4.02600696e-06
0.8550620396 	1.167015312 	0.0257060194 	-4.103859683e-06
0.8576830073 	1.164573107 	0.02519785928 	-4.177147895e-06
0.8602752069 	1.162103786 	0.02469666524 	-4.245973815e-06
0.8628389602 	1.159607282 	0.02420230187 	-4.310314956e-06
0.8653745848 	1.157083557 	0.02371463012 	-4.370164533e-06
0.8678824306 	1.154532623 	0.02323350238 	-4.425582382e-06
0.8703627885 	1.151954576 	0.02275878263 	-4.47684217e-06
0.8728159327 	1.149349616 	0.02229034732 	-4.523996442e-06
0.8752421656 	1.146718026 	0.02182806361 	-4.567072533e-06
0.8776417855 	1.144060181 	0.02137179996 	-4.606110977e-06
0.8800151111 	1.141376588 	0.02092141689 	-4.641216586e-06
0.8823624151 	1.13866798 	0.02047678215 	-4.672646973e-06
0.8846839699 	1.135935426 	0.02003776722 	-4.700511801e-06
0.8869800602 	1.133180474 	0.01960422797 	-4.724945582e-06
0.889250967 	1.130405386 	0.01917601036 	-4.746151024e-06
0.8914969771 	1.127613443 	0.01875293312 	-4.764433852e-06
0.8937183629 	1.124809282 	0.01833478984 	-4.780305181e-06
0.8959153816 	1.121999104 	0.01792134085 	-4.794288484e-06
0.8980883014 	1.119190428 	0.0175122869 	-4.80696878e-06
0.9002373876 	1.116390861 	0.01710721042 	-4.819505663e-06
0.9023629021 	1.113604756 	0.01670619827 	-4.824005651e-06
0.9044651126 	1.1108256 	0.01630956161 	-4.82378877e-06
0.9065442628 	1.108036205 	0.01591686614 	-4.649795165e-06
0.9086006046 	1.105222703 	0.01552830449 	-4.474080035e-06
0.9106343886 	1.102380499 	0.01514442599 	-4.300262557e-06
0.9126458621 	1.09950821 	0.01476501142 	-4.134086017e-06
0.9146352699 	1.09660431 	0.01438987329 	-3.972352755e-06
0.9166028579 	1.093667179 	0.0140189631 	-3.815296367e-06
0.9185488579 	1.090695098 	0.01365222042 	-3.662769592e-06
0.9204735065 	1.087686228 	0.01328958549 	-3.514697569e-06
0.9223770377 	1.084638596 	0.01293099918 	-3.370968399e-06
0.9242596827 	1.081550087 	0.01257640785 	-3.231475492e-06
0.9261216705 	1.078418426 	0.01222576149 	-3.096113639e-06
0.9279632281 	1.075241163 	0.01187901147 	-2.96476442e-06
0.9297845769 	1.072015657 	0.01153611565 	-2.837286925e-06
0.9315859373 	1.068739052 	0.01119703671 	-2.713584899e-06
0.9333675279 	1.065408249 	0.01086173845 	-2.593566791e-06
0.9351295652 	1.062019884 	0.01053018933 	-2.477143976e-06
0.9368722632 	1.058570297 	0.01020236219 	-2.364230513e-06
0.9385958333 	1.055055495 	0.00987823292 	-2.254742703e-06
0.9403004852 	1.051471114 	0.009557780398 	-2.148583138e-06
0.9419864243 	1.047812377 	0.00924098983 	-2.045653712e-06
0.9436538552 	1.044074042 	0.008927850357 	-1.945879925e-06
0.9453029805 	1.040250338 	0.008618353953 	-1.849189152e-06
0.9469340003 	1.036334906 	0.008312497647 	-1.755510942e-06
0.9485471127 	1.032320719 	0.008010283487 	-1.664776866e-06
0.9501425136 	1.028199991 	0.007711718331 	-1.576920554e-06
0.9517203967 	1.02396408 	0.007416813863 	-1.491873692e-06
0.9532809531 	1.019603363 	0.007125566415 	-1.409561993e-06
0.954824372 	1.01510711 	0.00683804282 	-1.32992396e-06
0.9563508411 	1.010862208 	0.006578086471 	-1.256321305e-06
0.9573452296 	1.00732552 	0.006369826294 	-1.203680825e-06
0.9583213075 	1.004150143 	0.006188993829 	-1.156075046e-06
0.9592794114 	1.000938164 	0.006011837905 	-1.110050461e-06
0.9602198716 	0.9976887378 	0.005838292035 	-1.065557932e-06
0.9611430126 	0.994400921 	0.005668321726 	-1.022548637e-06
0.9620491527 	0.9910736626 	0.00550188248 	-9.809766498e-07
0.9629386046 	0.987705799 	0.005338929347 	-9.407977539e-07
0.9638116751 	0.9842960466 	0.005179416942 	-9.019672402e-07
0.9646686653 	0.9808429959 	0.005023299996 	-8.644430567e-07
0.9655098709 	0.9773451033 	0.004870532831 	-8.281861346e-07
0.9663355822 	0.9738006848 	0.004721069505 	-7.931588246e-07
0.9671460842 	0.9702079084 	0.004574864007 	-7.593248377e-07
0.9679416566 	0.9665647878 	0.004431870244 	-7.26649166e-07
0.968722574 	0.9628691743 	0.004292042095 	-6.950980147e-07
0.969489106 	0.9591187505 	0.004155333451 	-6.646387389e-07
0.9702415172 	0.9553110225 	0.004021698258 	-6.352397841e-07
0.9709800674 	0.951443313 	0.003891090554 	-6.068706296e-07
0.9717050115 	0.9475127539 	0.003763464501 	-5.795017369e-07
0.9724166 	0.9435162786 	0.003638774415 	-5.531045001e-07
0.9731150785 	0.9394506145 	0.003516974793 	-5.276511998e-07
0.9738006883 	0.9353122746 	0.00339802034 	-5.031149615e-07
0.9744736661 	0.9310975493 	0.003281866014 	-4.794697168e-07
0.9751342444 	0.9268024976 	0.003168466888 	-4.566900915e-07
0.9757826513 	0.9224229377 	0.003057778343 	-4.34750877e-07
0.9764191108 	0.9179544365 	0.002949756116 	-4.136280988e-07
0.9770438429 	0.913392299 	0.00284435609 	-3.932986226e-07
0.9776570633 	0.9087315565 	0.002741534414 	-3.737399426e-07
0.978258984 	0.9039669535 	0.002641247506 	-3.549301507e-07
0.9788498128 	0.8990929336 	0.00254345204 	-3.368479064e-07
0.979429754 	0.8941036242 	0.002448104936 	-3.194724089e-07
0.979999008 	0.8889928184 	0.002355163359 	-3.027833699e-07
0.9805577716 	0.8837539563 	0.002264584711 	-2.867609911e-07
0.9811062378 	0.8783801031 	0.002176326616 	-2.713859368e-07
0.9816445962 	0.8728639249 	0.002090346925 	-2.566393045e-07
0.9821730329 	0.867197661 	0.002006603716 	-2.425026158e-07
0.9826917307 	0.8613730924 	0.001925055257 	-2.289577937e-07
0.9832008687 	0.8553815069 	0.001845660018 	-2.159871299e-07
0.983700623 	0.8492136605 	0.001768376685 	-2.035732731e-07
0.9841911664 	0.8428597316 	0.001693164148 	-1.916992162e-07
0.9846726686 	0.8363092704 	0.001619981493 	-1.803482772e-07
0.9851452959 	0.8295511401 	0.001548788016 	-1.695040863e-07
0.9856092119 	0.8225734505 	0.001479543233 	-1.591505735e-07
0.9860645769 	0.8153634824 	0.001412206885 	-1.492719588e-07
0.9865115485 	0.8079076012 	0.00134673897 	-1.398527436e-07
0.9869502811 	0.8001911587 	0.001283099737 	-1.308777017e-07
0.9873809266 	0.7921983806 	0.00122124971 	-1.22331837e-07
0.987803634 	0.7839122386 	0.001161149783 	-1.142004223e-07
0.9882185493 	0.7753143042 	0.001102761207 	-1.064690422e-07
0.9886258161 	0.7663845829 	0.001046045622 	-9.912354176e-08
0.9890255754 	0.7571013246 	0.0009909651474 	-9.215003033e-08
0.9894179654 	0.7474408083 	0.00093748244 	-8.553488291e-08
0.9898031218 	0.7373770985 	0.0008855607664 	-7.92647441e-08
0.9901811779 	0.7268817688 	0.000835164102 	-7.332653287e-08
0.9905522645 	0.7159235915 	0.0007862571754 	-6.770744834e-08
0.9909165101 	0.7044681895 	0.0007388063036 	-6.239497702e-08
0.9912740405 	0.6924776507 	0.0006927777312 	-5.737691578e-08
0.9916249796 	0.679910105 	0.0006481463346 	-5.264134821e-08
0.9919694487 	0.6667192716 	0.0006048193254 	-4.817667251e-08
0.9923075672 	0.6528540532 	0.0005629679987 	-4.397029751e-08
0.9926394519 	0.6395325892 	0.0005258725082 	-4.027880473e-08
0.9928530538 	0.6282176138 	0.0004963199272 	-3.754324128e-08
0.9930666574 	0.6177609822 	0.0004706442589 	-3.515820033e-08
0.9932802626 	0.6067791577 	0.0004452888072 	-3.284292981e-08
0.9934938694 	0.5952306734 	0.000420158286 	-3.059822018e-08
0.9937074779 	0.5830703782 	0.0003952944583 	-2.842418363e-08
0.993921088 	0.570249253 	0.0003707092847 	-2.63209415e-08
0.9941346997 	0.5567143671 	0.0003464206331 	-2.428865166e-08
0.9943483131 	0.5424090227 	0.000322449882 	-2.232753583e-08
0.9945619281 	0.5272731923 	0.0002988239821 	-2.043789932e-08
0.9947755447 	0.5112443957 	0.0002755763237 	-1.862017307e-08
0.994989163 	0.4942592058 	0.0002527479487 	-1.687497776e-08
0.995202783 	0.4762556119 	0.0002303883307 	-1.520321391e-08
0.9954164045 	0.4571764768 	0.0002085551504 	-1.360617061e-08
0.9956300277 	0.4369742644 	0.0001873125289 	-1.208561531e-08
0.9958436526 	0.4156170109 	0.0001667281414 	-1.064378659e-08
0.996057279 	0.3930951166 	0.0001468717875 	-9.283212222e-09
0.9962709071 	0.3694279124 	0.0001278200151 	-8.006397359e-09
0.9964845369 	0.3446682626 	0.0001096691971 	-6.815651841e-09
0.9966981683 	0.318903072 	9.255000476e-05 	-5.713365235e-09
0.9969118013 	0.292248 	7.662615366e-05 	-4.702586207e-09
0.9971254359 	0.2648362532 	6.206559749e-05 	-3.787162614e-09
0.9973390722 	0.236803591 	4.899693037e-05 	-2.970887306e-09
0.9975527102 	0.2082734353 	3.748272722e-05 	-2.256161225e-09
0.9977663498 	0.1793460478 	2.752867577e-05 	-1.643301461e-09
0.997979991 	0.1500939911 	1.911569332e-05 	-1.130936864e-09
0.9981936338 	0.1205636265 	1.223876483e-05 	-7.173676491e-10
0.9984072783 	0.09078058687 	6.908330545e-06 	-4.008363841e-10
0.9986209244 	0.06075664942 	3.146860857e-06 	-1.798534519e-10
0.9988345722 	0.03049595152 	-1.172084778e-07 	-8.361192548e-12
0.9990482216 	0.0127073366 	-1.575122952e-06 	6.211083042e-11
0.9990482216 	0.0127073366 	-1.575122952e-06 	6.211083042e-11
