0.3179529243 	3.383123023e-07 	-1.175627682e-09 	1.829419498e-13 	3.36728341e-07 	-4.104249691e-11 	6.418978067e-10
0.3179529243 	3.383123023e-07 	-1.175627682e-09 	1.829419498e-13 	3.36728341e-07 	-4.104249691e-11 	6.418978067e-10
0.318152706 	4.664326488e-06 	-6.631853642e-08 	1.557215997e-11 	4.602851764e-06 	-8.2593111e-10 	8.774314759e-09
0.3183524966 	2.741141394e-05 	-9.23529076e-07 	2.539510286e-10 	2.663731344e-05 	-5.494992094e-09 	5.077812288e-08
0.318552295 	9.459142355e-05 	-5.936778664e-06 	1.8065902e-09 	8.987115894e-05 	-2.029223828e-08 	1.713194073e-07
0.3187521003 	0.000239980938 	-2.429182183e-05 	7.942288549e-09 	0.0002214817565 	-5.322395769e-08 	4.222057856e-07
0.3189519114 	0.0005005237258 	-7.355313114e-05 	2.52437623e-08 	0.000446860585 	-1.120730778e-07 	8.518404735e-07
0.3191517275 	0.0009099014921 	-0.0001787399807 	6.296921768e-08 	0.0007851501957 	-2.021932337e-07 	1.496714494e-06
0.3193515475 	0.001488795356 	-0.0003656221808 	1.292995967e-07 	0.001244690223 	-3.241488483e-07 	2.372725508e-06
0.3195513705 	0.002235096534 	-0.0006496169342 	2.258001935e-07 	0.001819182569 	-4.721033789e-07 	3.467867592e-06
0.3197511955 	0.003120276371 	-0.001026753735 	3.445844222e-07 	0.00248678867 	-6.344268645e-07 	4.740510373e-06
0.3199510214 	0.004095670285 	-0.001473551694 	4.714209692e-07 	0.00321399676 	-7.970180326e-07 	6.12677111e-06
0.3201508474 	0.005105669747 	-0.001955984219 	5.923936345e-07 	0.003963247353 	-9.47575435e-07 	7.555050982e-06
0.3203506724 	0.006100545708 	-0.002440910461 	6.987596502e-07 	0.004700676324 	-1.078253181e-06 	8.960795559e-06
0.3205504955 	0.007043647972 	-0.002903474921 	7.876108687e-07 	0.00540080814 	-1.185829938e-06 	1.029544139e-05
0.3207503157 	0.007912550036 	-0.003328894659 	8.598999933e-07 	0.006047588921 	-1.270374105e-06 	1.152838532e-05
0.3209501321 	0.008696592398 	-0.003710706004 	9.181926884e-07 	0.006633021563 	-1.333691351e-06 	1.264438265e-05
0.3211499436 	0.009393360478 	-0.004047975609 	9.652399697e-07 	0.007154941674 	-1.378206485e-06 	1.363930744e-05
0.3213497493 	0.01000553294 	-0.004342877925 	1.00336918e-06 	0.007614911583 	-1.406357739e-06 	1.451613793e-05
0.3215495483 	0.01053856478 	-0.004599033435 	1.034353301e-06 	0.008016609567 	-1.420348725e-06 	1.528188594e-05
0.3217493395 	0.01099916866 	-0.004820519952 	1.059478197e-06 	0.008364738532 	-1.422086575e-06 	1.59455165e-05
0.3219491221 	0.0113943976 	-0.005011347699 	1.079658274e-06 	0.008664344758 	-1.413194764e-06 	1.651664924e-05
0.322148895 	0.01173113033 	-0.00517521447 	1.095535244e-06 	0.008920418979 	-1.395015172e-06 	1.700479788e-05
0.3223486573 	0.0120158075 	-0.005315419897 	1.107651599e-06 	0.009137701298 	-1.369123629e-06 	1.741899837e-05
0.322548408 	0.01225431493 	-0.005434844408 	1.116173641e-06 	0.009320566477 	-1.336589853e-06 	1.776759022e-05
0.3227481462 	0.01245207859 	-0.005536428551 	1.132162628e-06 	0.009472862004 	-1.295501228e-06 	1.805790783e-05
0.322947871 	0.01261375057 	-0.005621720302 	1.127647791e-06 	0.009598022606 	-1.246865824e-06 	1.829649872e-05
0.3231475813 	0.01274286087 	-0.00568944432 	1.044514372e-06 	0.009699358425 	-1.198154028e-06 	1.848967296e-05
0.3233472762 	0.01284268771 	-0.005739288157 	9.173934484e-07 	0.009779732896 	-1.147555692e-06 	1.864288904e-05
0.3235469548 	0.01291680015 	-0.005774334997 	8.389361935e-07 	0.009841279038 	-1.084783341e-06 	1.876021309e-05
0.3237466161 	0.01296840218 	-0.005798332547 	8.018012712e-07 	0.009885730757 	-1.010796888e-06 	1.884495042e-05
0.3239462591 	0.01300295615 	-0.00581478667 	7.503380147e-07 	0.009917648136 	-9.147422207e-07 	1.890579381e-05
0.32425642 	0.01301349321 	-0.00582071915 	6.788530549e-07 	0.00993257551 	-7.811173174e-07 	1.893424954e-05
0.3245723591 	0.01298784277 	-0.005810506545 	5.810734555e-07 	0.009920533611 	-6.026953132e-07 	1.891129433e-05
0.3248941791 	0.01292613799 	-0.005784025479 	4.634606043e-07 	0.00988071669 	-3.903359611e-07 	1.883539221e-05
0.3252219844 	0.0128307904 	-0.005742290496 	3.238717505e-07 	0.009814721184 	-1.400919991e-07 	1.870958644e-05
0.3255558808 	0.01270364857 	-0.005686080993 	1.596982546e-07 	0.009723787475 	1.527174421e-07 	1.853624152e-05
0.3258959756 	0.01254605193 	-0.005615951532 	-3.21415988e-08 	0.009608760658 	4.935098992e-07 	1.831696843e-05
0.3262423775 	0.01235887679 	-0.0055322561 	-2.422657696e-07 	0.009470141414 	8.433916782e-07 	1.805272163e-05
0.3265951969 	0.01214257317 	-0.005435169218 	-4.574931793e-07 	0.009308132926 	1.197647945e-06 	1.774388842e-05
0.3269545455 	0.0118972078 	-0.005324711369 	-6.772870382e-07 	0.0091226964 	1.5593796e-06 	1.739039486e-05
0.3273205366 	0.01162266049 	-0.005200847293 	-8.978817909e-07 	0.008913739952 	1.921301911e-06 	1.699206579e-05
0.3276932849 	0.01131927168 	-0.005063785575 	-1.108994401e-06 	0.008681648827 	2.264942305e-06 	1.65496356e-05
0.3280729065 	0.0109885203 	-0.004914281002 	-1.29902087e-06 	0.008427801101 	2.569970325e-06 	1.606573129e-05
0.328459519 	0.01063260106 	-0.004753427849 	-1.465720985e-06 	0.008154191913 	2.832673521e-06 	1.554415613e-05
0.3288532414 	0.01025323897 	-0.004582102817 	-1.614282724e-06 	0.007862444897 	3.062614253e-06 	1.498800523e-05
0.3292541942 	0.009851226057 	-0.004400739056 	-1.748550403e-06 	0.007553391748 	3.267300117e-06 	1.439886403e-05
0.329662499 	0.009426779103 	-0.004209485371 	-1.868692502e-06 	0.007227333591 	3.447737551e-06 	1.377730656e-05
0.330078279 	0.008979980878 	-0.004008414891 	-1.972170289e-06 	0.00688441247 	3.599911817e-06 	1.312360359e-05
0.3305016584 	0.008511105383 	-0.003797683304 	-2.054605529e-06 	0.006524904597 	3.716381719e-06 	1.243828166e-05
0.330932763 	0.008020870831 	-0.003577650506 	-2.110602675e-06 	0.006149445966 	3.787854734e-06 	1.172255316e-05
0.3313717196 	0.007510646628 	-0.003348976256 	-2.13440379e-06 	0.005759205917 	3.804444912e-06 	1.097864717e-05
0.3318186562 	0.006982645313 	-0.003112704374 	-2.120434295e-06 	0.005356034743 	3.756696393e-06 	1.021009085e-05
0.332273702 	0.006440115463 	-0.002870343804 	-2.063886303e-06 	0.004942600884 	3.636619201e-06 	9.421971009e-06
0.3327369872 	0.005887509828 	-0.002623938471 	-1.961441678e-06 	0.004522516351 	3.438924628e-06 	8.621173134e-06
0.333208643 	0.005330226094 	-0.002375932568 	-1.812179547e-06 	0.004100057358 	3.162485212e-06 	7.815848876e-06
0.333690202 	0.004771254456 	-0.00212769673 	-1.617872664e-06 	0.003677751194 	2.810647873e-06 	7.010815954e-06
0.3341943182 	0.004216658315 	-0.001881969119 	-1.378410188e-06 	0.003260512294 	2.383239682e-06 	6.215442646e-06
0.3347076387 	0.003681556471 	-0.001645469485 	-1.112362276e-06 	0.002860041753 	1.914021754e-06 	5.452034489e-06
0.3352303273 	0.003180537525 	-0.001424582351 	-8.391947418e-07 	0.002487269965 	1.440120148e-06 	4.741427855e-06
0.3357625509 	0.002722608401 	-0.001222569676 	-6.032452357e-07 	0.002147834986 	9.992659418e-07 	4.094370444e-06
0.3363044791 	0.002310318125 	-0.001033673053 	-4.172484361e-07 	0.00184301485 	6.151406955e-07 	3.513298544e-06
0.3368562843 	0.001937505269 	-0.0008424878246 	-2.150890057e-07 	0.001569156147 	2.85856132e-07 	2.99124774e-06
0.337418142 	0.001600035582 	-0.0006516776671 	-4.826894909e-09 	0.001322270835 	6.286507747e-09 	2.520615717e-06
0.3374324648 	0.001592613264 	-0.0006474149555 	1.921488826e-07 	0.001316844263 	-2.456666343e-07 	2.510271163e-06
0.337988836 	0.001303341959 	-0.0004813001072 	-1.855783512e-07 	0.001105412733 	2.435335146e-07 	2.107223902e-06
0.3385698873 	0.001053543535 	-0.0003393606445 	-3.203507654e-07 	0.0009245465477 	4.191431042e-07 	1.762442684e-06
0.3391615162 	0.0008551332259 	-0.0002274013368 	-3.861391472e-07 	0.0007837961835 	4.991746122e-07 	1.494133371e-06
0.3397639102 	0.0007083591783 	-0.0001448791217 	-3.825889138e-07 	0.0006829971133 	4.838217715e-07 	1.301982327e-06
0.3403772602 	0.0006080765985 	-8.750131223e-05 	-3.321665204e-07 	0.0006180831135 	3.943641945e-07 	1.178238202e-06
0.3410017602 	0.0005454071456 	-4.919286733e-05 	-2.638408609e-07 	0.0005822588657 	2.657702986e-07 	1.109947228e-06
0.3416376076 	0.0005105860131 	-2.41304503e-05 	-1.984218662e-07 	0.0005679934699 	1.301982458e-07 	1.082753419e-06
0.342285003 	0.0004950633704 	-7.773850415e-06 	-1.448463383e-07 	0.0005686158585 	7.255405275e-09 	1.083939865e-06
0.3429441507 	0.0004921216482 	3.022787546e-06 	-1.042624069e-07 	0.0005787836671 	-9.241876458e-08 	1.103322534e-06
0.3436152583 	0.0004968978304 	1.030387355e-05 	-7.462696391e-08 	0.0005946037511 	-1.670833823e-07 	1.133480011e-06
0.3442985368 	0.0005062177612 	1.53658917e-05 	-5.342633046e-08 	0.0006135891468 	-2.226907904e-07 	1.169671452e-06
0.3449942011 	0.0005181726373 	1.902922502e-05 	-3.852991991e-08 	0.000634320653 	-2.662946195e-07 	1.209191465e-06
0.3457024694 	0.0005316603619 	2.181437679e-05 	-2.823929407e-08 	0.0006560485816 	-3.031585077e-07 	1.250610936e-06
0.3464235639 	0.0005460560361 	2.405173731e-05 	-2.124266492e-08 	0.0006783979071 	-3.366500888e-07 	1.293214962e-06
0.3471577105 	0.0005610096548 	2.594945716e-05 	-1.65531467e-08 	0.0007011957602 	-3.687240528e-07 	1.336674006e-06
0.3479051389 	0.0005763269024 	2.764137046e-05 	-1.345631338e-08 	0.000724360298 	-4.004232382e-07 	1.380832054e-06
0.3486660827 	0.0005919547073 	2.921494616e-05 	-1.144229055e-08 	0.0007479354415 	-4.322656195e-07 	1.425772829e-06
0.34945109 	0.0006079552169 	3.072375983e-05 	-1.0066737e-08 	0.0007721012464 	-4.63499781e-07 	1.47183957e-06
0.3502630611 	0.0006243169102 	3.219497549e-05 	-7.870435483e-09 	0.0007968539871 	-4.360699329e-07 	1.519025174e-06
0.3510896352 	0.0006409011112 	3.364134654e-05 	-6.186673587e-09 	0.000822025857 	-4.086504329e-07 	1.567009754e-06
0.3519310666 	0.0006576252375 	3.506867887e-05 	-4.82211604e-09 	0.0008475399802 	-3.809691398e-07 	1.615646764e-06
0.3527876142 	0.0006744781682 	3.648861617e-05 	-3.868439008e-09 	0.0008734215005 	-3.535659154e-07 	1.664984135e-06
0.3536595409 	0.0006914434645 	3.791276361e-05 	-3.413640779e-09 	0.0008997154078 	-3.264342733e-07 	1.71510763e-06
0.3545471142 	0.0007084957608 	3.935357488e-05 	-3.066004702e-09 	0.0009264916832 	-2.970495092e-07 	1.766150653e-06
0.3554506062 	0.0007256084928 	4.082063007e-05 	-2.598993652e-09 	0.0009538099259 	-2.645738414e-07 	1.818226817e-06
0.3563702933 	0.0007427683734 	4.229622984e-05 	-2.025280848e-09 	0.0009816070182 	-2.301737531e-07 	1.8712158e-06
0.357306457 	0.0007599300191 	4.376508785e-05 	-1.40614214e-09 	0.001009928872 	-1.947878116e-07 	1.925205124e-06
0.358259383 	0.000779172147 	4.547798377e-05 	-7.654114657e-10 	0.001042677327 	-1.586429644e-07 	1.987632782e-06
0.3597206513 	0.0008025689518 	4.763933704e-05 	-1.590865834e-10 	0.001082690962 	-1.011938697e-07 	2.063909892e-06
0.3611962551 	0.0008279023379 	5.007327027e-05 	7.364366906e-11 	0.001125601638 	-4.169381818e-08 	2.145709567e-06
0.3622065599 	0.0008449015738 	5.183164974e-05 	3.340573934e-08 	0.001154359498 	5.489772663e-07 	2.200530041e-06
0.3626853298 	0.0008529772499 	5.266617389e-05 	-5.074626953e-12 	0.001168014741 	-2.012213446e-08 	2.226560729e-06
0.3641869071 	0.0008778812475 	5.54459612e-05 	2.270633828e-10 	0.001210611977 	-8.390859716e-08 	2.3077629e-06
0.3657415917 	0.0009027597424 	5.8447085e-05 	1.063323365e-09 	0.001253808045 	-1.497471112e-07 	2.390106613e-06
0.3673153958 	0.0009275337834 	6.165257444e-05 	2.498838706e-09 	0.001297102655 	-2.161992619e-07 	2.472638171e-06
0.3689044967 	0.0009520733994 	6.504351737e-05 	4.406302955e-09 	0.001340231995 	-2.844399208e-07 	2.554854681e-06
0.3705090474 	0.0009763769018 	6.863118871e-05 	6.811869433e-09 	0.001383294513 	-3.543232666e-07 	2.636943808e-06
0.372129203 	0.001000466923 	7.241869527e-05 	9.616902471e-09 	0.00142633595 	-4.255714585e-07 	2.718992751e-06
0.3737651208 	0.00102437079 	7.640811181e-05 	1.278138608e-08 	0.001469398751 	-4.979499407e-07 	2.801082418e-06
0.3754169603 	0.00104811916 	8.059334691e-05 	1.631173606e-08 	0.001512541945 	-5.712815612e-07 	2.883325336e-06
0.3770848833 	0.001071744395 	8.497807614e-05 	1.636862708e-08 	0.001555775581 	-5.228114907e-07 	2.965740663e-06
0.3787690537 	0.00109538414 	8.955882688e-05 	1.549279901e-08 	0.001599335906 	-4.561927796e-07 	3.048778749e-06
0.3804988631 	0.001119229938 	9.434837315e-05 	1.414068303e-08 	0.001643562987 	-3.870177971e-07 	3.133087859e-06
0.3822608994 	0.00114327664 	9.934262138e-05 	1.234391158e-08 	0.001688302244 	-3.160642766e-07 	3.218373316e-06
0.384039893 	0.001167413392 	0.0001044799531 	1.014322676e-08 	0.001733268377 	-2.441765341e-07 	3.304091263e-06
0.3858360178 	0.001191615913 	0.0001097149373 	7.551934245e-09 	0.001778430497 	-1.714563121e-07 	3.390182817e-06
0.3876494502 	0.001215901402 	0.0001150188972 	4.565903543e-09 	0.001823832264 	-9.793626692e-08 	3.476731203e-06
0.3894803696 	0.001240269285 	0.0001203591054 	1.159033665e-09 	0.001869536592 	-2.351200005e-08 	3.563856355e-06
0.3900584941 	0.001247902577 	0.0001220325194 	6.410184175e-08 	0.001883939084 	5.312122814e-07 	3.591311508e-06
0.3913268074 	0.001264676642 	0.0001257075352 	2.367906953e-09 	0.001915600075 	-5.160588519e-08 	3.651666157e-06
0.3931901374 	0.001289139814 	0.0001310529902 	6.232584967e-09 	0.001962258219 	-1.282373813e-07 	3.740609546e-06
0.3950927878 	0.001313707738 	0.0001364032195 	1.070001737e-08 	0.002010014172 	-2.085644491e-07 	3.831645666e-06
0.3970388981 	0.001338224854 	0.0001417821494 	1.583313224e-08 	0.002059077431 	-2.942533429e-07 	3.925173874e-06
0.3990036413 	0.001362312413 	0.0001471683544 	2.157941545e-08 	0.00210942662 	-3.862706189e-07 	4.021153423e-06
0.400987215 	0.001385581646 	0.0001525548438 	2.789939505e-08 	0.00216137009 	-4.874117222e-07 	4.120172114e-06
0.4029898197 	0.00140764116 	0.000157987732 	3.4729299e-08 	0.002215452517 	-6.012071949e-07 	4.223268251e-06
0.4050116593 	0.001428023902 	0.0001635229072 	4.2021454e-08 	0.002272310727 	-7.3190569e-07 	4.331655802e-06
0.4070529411 	0.001446201671 	0.0001692512217 	4.088422043e-08 	0.002332630033 	-7.260243787e-07 	4.446641164e-06
0.4091191997 	0.001461649021 	0.0001752563767 	3.683788426e-08 	0.002397626237 	-6.741820126e-07 	4.570541994e-06
0.4112474576 	0.001473741784 	0.0001817025942 	3.222199888e-08 	0.002468358798 	-6.12067436e-07 	4.705377915e-06
0.4133959597 	0.00148172248 	0.0001887061343 	2.710144839e-08 	0.002544968319 	-5.362469904e-07 	4.851416954e-06
0.4155649276 	0.001484927872 	0.0001962936186 	2.21876362e-08 	0.002627765792 	-4.446591263e-07 	5.00925195e-06
0.4177545874 	0.001482875449 	0.0002043942673 	1.721737351e-08 	0.002717694792 	-3.281679193e-07 	5.180681617e-06
0.4199651688 	0.001475367272 	0.0002132821165 	6.228470319e-09 	0.002813954136 	-1.803286161e-07 	5.364178682e-06
0.4221969057 	0.001461221009 	0.0002261548896 	-1.412187273e-10 	0.00291552782 	-8.949998046e-09 	5.557806354e-06
0.4223203246 	0.001460425351 	0.0002271647041 	4.134425403e-08 	0.002920277424 	1.791133207e-07 	5.566860419e-06
0.424469228 	0.001446438256 	0.0002447001509 	-5.952314959e-09 	0.003003543774 	-1.37261447e-07 	5.725589225e-06
0.4267889352 	0.001442545199 	0.0002643936818 	-8.720002522e-09 	0.003050665988 	-1.397348327e-07 	5.815417262e-06
0.4291306938 	0.001445529636 	0.0002833503637 	-4.747632693e-09 	0.003071732374 	-1.277201655e-07 	5.855575648e-06
0.4314947558 	0.001448574836 	0.0003001156766 	2.222465481e-08 	0.003088436894 	-1.615610879e-07 	5.887419106e-06
0.4338813777 	0.001451753474 	0.0003127815264 	6.969191821e-08 	0.003103228379 	-2.002057073e-07 	5.915615787e-06
0.4362908213 	0.001454812603 	0.0003223302603 	1.158912361e-07 	0.003116579822 	-2.346938522e-07 	5.94106735e-06
0.43874163 	0.001457446489 	0.0003300419256 	1.585231849e-07 	0.003128320814 	-2.626912941e-07 	5.963448942e-06
0.4412451404 	0.001459535986 	0.0003366407724 	1.890985853e-07 	0.003138464156 	-2.730207617e-07 	5.982784973e-06
0.4437723886 	0.001461051436 	0.0003425036104 	1.738543541e-07 	0.003147100196 	-2.270067258e-07 	5.999247665e-06
0.446323657 	0.001462049295 	0.0003478286663 	1.531715314e-07 	0.0031544502 	-1.851361286e-07 	6.013258816e-06
0.4488992335 	0.001462579534 	0.0003528419973 	1.294005305e-07 	0.003160673172 	-1.470832857e-07 	6.025121529e-06
0.4514994119 	0.001462731127 	0.0003576008247 	1.037872406e-07 	0.003166022589 	-1.122333775e-07 	6.035319005e-06
0.4541616688 	0.001462584877 	0.0003622084846 	7.65728274e-08 	0.003170708994 	-7.945889104e-08 	6.044252596e-06
0.4568588278 	0.001462175564 	0.0003667662292 	4.854159325e-08 	0.00317479173 	-4.86890971e-08 	6.052035424e-06
0.4595815725 	0.001461574967 	0.0003712098774 	2.006503559e-08 	0.003178424131 	-1.957061379e-08 	6.058959791e-06
0.4615041402 	0.001461050277 	0.0003742718436 	1.954854522e-08 	0.003180711284 	-1.970355456e-07 	6.06331974e-06
0.4623294293 	0.00146082297 	0.0003755834267 	8.459393599e-09 	0.003181688529 	-8.285357793e-09 	6.065182641e-06
0.4651017109 	0.001459960223 	0.0003798758646 	3.662803259e-08 	0.003184697628 	-3.513137508e-08 	6.07091882e-06
0.4679286799 	0.001459035414 	0.0003841343186 	6.519364876e-08 	0.003187573509 	-6.144493646e-08 	6.076401049e-06
0.4708000474 	0.001458055262 	0.0003884311077 	9.390829274e-08 	0.003190312683 	-8.722831789e-08 	6.081622676e-06
0.4736987461 	0.001457048344 	0.0003927087037 	1.224925687e-07 	0.003192971374 	-1.124098653e-07 	6.086690879e-06
0.476625129 	0.001456024701 	0.0003969877004 	1.509043629e-07 	0.003195561938 	-1.370973873e-07 	6.091629214e-06
0.4795795562 	0.001455006743 	0.0004012402147 	1.790993354e-07 	0.003198160152 	-1.613587144e-07 	6.096582133e-06
0.4825972259 	0.001454013224 	0.0004055128023 	2.074280841e-07 	0.003200810416 	-1.855398745e-07 	6.101634272e-06
0.4856526605 	0.001453030732 	0.0004098612033 	2.269610402e-07 	0.003203458413 	-2.01809316e-07 	6.106682089e-06
0.4887372686 	0.001452070563 	0.0004142173584 	1.998881769e-07 	0.003206130735 	-1.768682248e-07 	6.111776279e-06
0.4918514422 	0.00145113854 	0.0004185865708 	1.730302602e-07 	0.003208839963 	-1.52502663e-07 	6.11694082e-06
0.4950073042 	0.001450249494 	0.0004229632343 	1.462796138e-07 	0.003211635579 	-1.285214099e-07 	6.122270041e-06
0.4982235491 	0.001449401829 	0.0004274093358 	1.195243911e-07 	0.003214496915 	-1.047504541e-07 	6.127724543e-06
0.5014705527 	0.001448586285 	0.0004319142624 	9.312612571e-08 	0.003217391311 	-8.147461371e-08 	6.133242067e-06
0.5047487424 	0.001447799483 	0.00043645086 	6.710314077e-08 	0.003220311486 	-5.864669049e-08 	6.138808732e-06
0.5080599365 	0.001447059112 	0.0004409892649 	4.145048375e-08 	0.003223317884 	-3.621361652e-08 	6.144539761e-06
0.5114411945 	0.001446372967 	0.0004455923803 	1.586684503e-08 	0.003226406629 	-1.386280417e-08 	6.150427767e-06
0.5135991682 	0.001445958623 	0.0004485616309 	1.828594517e-08 	0.003228365337 	-2.862404166e-07 	6.15416161e-06
0.5148541725 	0.001445714995 	0.0004502827262 	8.958046164e-09 	0.003229498733 	-8.001611473e-09 	6.156322177e-06
0.5182988631 	0.001445078567 	0.0004549973096 	3.282967486e-08 	0.003232594143 	-2.936564936e-08 	6.162222889e-06
0.5217779526 	0.00144448772 	0.0004597223892 	5.618960092e-08 	0.00323575632 	-5.036159855e-08 	6.168250879e-06
0.52532682 	0.001443950545 	0.0004645186974 	7.928824161e-08 	0.003238974905 	-7.123388515e-08 	6.174386396e-06
0.528910028 	0.00144343624 	0.0004694243303 	1.017586172e-07 	0.003242158328 	-9.170430407e-08 	6.180454884e-06
0.5325280828 	0.001442945056 	0.0004743601709 	1.235975322e-07 	0.003245334718 	-1.117881175e-07 	6.186509966e-06
0.5361891746 	0.001442498644 	0.0004793287398 	1.448520064e-07 	0.003248542416 	-1.315572062e-07 	6.192624731e-06
0.539912511 	0.001442094941 	0.0004843866316 	1.655974179e-07 	0.003251744613 	-1.510938326e-07 	6.198729008e-06
0.5436721471 	0.001441704516 	0.0004895486008 	1.855935277e-07 	0.003254866176 	-1.702326047e-07 	6.204679574e-06
0.5474686338 	0.001441338351 	0.0004947365253 	2.048396873e-07 	0.003257961604 	-1.889757186e-07 	6.210580321e-06
0.5513216279 	0.001441017284 	0.0004999877178 	2.0864092e-07 	0.003261038454 	-1.93693443e-07 	6.216445651e-06
0.5552246668 	0.001440718943 	0.0005053556403 	1.884184252e-07 	0.003264016876 	-1.761241238e-07 	6.222123352e-06
0.5591661162 	0.001440430108 	0.0005107947162 	1.688702763e-07 	0.003266888689 	-1.590277293e-07 	6.227597826e-06
0.5631511971 	0.001440172792 	0.000516278445 	1.499559759e-07 	0.003269697067 	-1.423450897e-07 	6.232951374e-06
0.5671996694 	0.001439951455 	0.0005218632612 	1.315989443e-07 	0.003272402745 	-1.259799403e-07 	6.238109149e-06
0.5712881919 	0.001439734506 	0.0005275679321 	1.139904064e-07 	0.003274925793 	-1.101210405e-07 	6.242918779e-06
0.5754174009 	0.001439535771 	0.000533313739 	9.712543909e-08 	0.003277330147 	-9.473564993e-08 	6.247502147e-06
0.5796100922 	0.001439378023 	0.0005391511132 	8.089465064e-08 	0.003279600452 	-7.970582917e-08 	6.251829979e-06
0.5838480727 	0.001439227193 	0.0005451282592 	6.545747049e-08 	0.003281633548 	-6.519351582e-08 	6.255705625e-06
0.5881285045 	0.001439089002 	0.0005511613008 	5.08274294e-08 	0.003283485909 	-5.119642152e-08 	6.25923674e-06
0.592468147 	0.001438991323 	0.0005572853548 	3.692587197e-08 	0.003285151859 	-3.763488285e-08 	6.262412504e-06
0.5968582973 	0.001438905934 	0.0005635541472 	2.38528986e-08 	0.003286531756 	-2.461441156e-08 	6.265042972e-06
0.6012927572 	0.001438834746 	0.0005698959604 	1.163074907e-08 	0.003287669222 	-1.215813484e-08 	6.267211298e-06
0.6057856853 	0.001438805976 	0.0005763362094 	1.957773811e-10 	0.003288559586 	-2.074210247e-10 	6.268908578e-06
0.6058686619 	0.001438805813 	0.0005764565719 	1.612617576e-09 	0.00328856968 	-1.901868888e-08 	6.268927821e-06
0.6103303191 	0.00143879411 	0.0005829184884 	1.005749591e-08 	0.00328910709 	-1.099082158e-08 	6.269952274e-06
0.6149212656 	0.001438804289 	0.0005895854739 	1.946265845e-08 	0.003289355177 	-2.157041002e-08 	6.270425196e-06
0.6195723842 	0.001438864501 	0.0005963667309 	2.808127385e-08 	0.003289289197 	-3.157778026e-08 	6.27029942e-06
0.6242759264 	0.001438953535 	0.0006033043144 	3.584980373e-08 	0.003288821301 	-4.092454549e-08 	6.269407481e-06
0.6290278534 	0.001439080514 	0.000610335748 	4.278803868e-08 	0.003288000731 	-4.960465376e-08 	6.267843245e-06
0.6338430612 	0.001439269868 	0.000617506866 	4.894283742e-08 	0.003286787801 	-5.764434166e-08 	6.265531064e-06
0.6387094544 	0.001439506248 	0.0006248334024 	5.426423165e-08 	0.00328512468 	-6.495723911e-08 	6.262360694e-06
0.6436287687 	0.001439810351 	0.0006322735949 	5.880440606e-08 	0.003283054024 	-7.15633416e-08 	6.258413448e-06
0.6486104566 	0.001440193541 	0.0006398644174 	6.25821859e-08 	0.003280514882 	-7.744146445e-08 	6.253573137e-06
0.6535885607 	0.001440643575 	0.0006475176684 	6.556347791e-08 	0.003277532303 	-8.249650675e-08 	6.247887513e-06
0.65851419 	0.00144118502 	0.0006551614532 	6.78062575e-08 	0.003274168928 	-8.674024339e-08 	6.241475986e-06
0.6633878192 	0.001441823892 	0.0006628165307 	6.935434443e-08 	0.003270384613 	-9.016601864e-08 	6.234262029e-06
0.6682048624 	0.001442567256 	0.0006704440637 	7.028980615e-08 	0.003266242304 	-9.282411645e-08 	6.226365637e-06
0.6729731885 	0.001443439421 	0.0006780720721 	7.069255017e-08 	0.003261762819 	-9.478197695e-08 	6.217826493e-06
0.6776883892 	0.001444431717 	0.0006857211204 	7.059459628e-08 	0.003256924242 	-9.603969376e-08 	6.208602821e-06
0.6823494001 	0.001445558612 	0.0006933543024 	7.00781368e-08 	0.003251801896 	-9.6658322e-08 	6.198838205e-06
0.6869638811 	0.001446847617 	0.0007010099655 	6.919743821e-08 	0.00324638956 	-9.667769722e-08 	6.188520788e-06
0.69152573 	0.001448292973 	0.0007086948726 	6.798452379e-08 	0.003240689336 	-9.61092374e-08 	6.177654578e-06
0.6960360527 	0.001449917121 	0.000716386265 	6.650942701e-08 	0.00323477274 	-9.501540659e-08 	6.166375902e-06
0.7005001735 	0.001451744749 	0.0007241238863 	6.480625039e-08 	0.003228630031 	-9.342375456e-08 	6.154666191e-06
0.7049135952 	0.001453774708 	0.0007319063861 	6.290723442e-08 	0.003222283886 	-9.135853149e-08 	6.142568674e-06
0.7092775063 	0.00145603457 	0.0007397220461 	6.086625718e-08 	0.003215802041 	-8.887858631e-08 	6.130212476e-06
0.7135960089 	0.001458549784 	0.0007476075485 	5.870583859e-08 	0.003209181374 	-8.600952442e-08 	6.117591645e-06
0.7178657865 	0.001461323054 	0.0007555631034 	5.645067453e-08 	0.003202451519 	-8.27802979e-08 	6.104762671e-06
0.7220875898 	0.00146438284 	0.0007635791203 	5.414088657e-08 	0.003195684764 	-7.924629838e-08 	6.091863354e-06
0.7262652504 	0.001467760115 	0.0007716889753 	5.179260881e-08 	0.003188890684 	-7.543798716e-08 	6.07891195e-06
0.7303960315 	0.001471460614 	0.0007799006409 	4.941885419e-08 	0.003182095209 	-7.138347371e-08 	6.065957885e-06
0.7344805912 	0.001475509799 	0.00078820117 	4.704903705e-08 	0.003175380532 	-6.713586656e-08 	6.053157845e-06
0.7385215828 	0.001479945547 	0.0007966193774 	4.469558845e-08 	0.003168773378 	-6.273369149e-08 	6.040562774e-06
0.7425178833 	0.001484777731 	0.000805172671 	4.23603984e-08 	0.003162293164 	-5.820276458e-08 	6.028209684e-06
0.7464696505 	0.001490026444 	0.0008138460479 	4.006310301e-08 	0.003156028524 	-5.359383208e-08 	6.016267539e-06
0.7503784336 	0.001495733497 	0.0008226611569 	3.781359614e-08 	0.003150026433 	-4.895207753e-08 	6.004825886e-06
0.7542446399 	0.001501916241 	0.0008316418122 	3.560630826e-08 	0.003144306913 	-4.43037583e-08 	5.993922891e-06
0.7580679078 	0.001508589609 	0.0008407793105 	3.344994993e-08 	0.003138949823 	-3.969443375e-08 	5.983710788e-06
0.7618489142 	0.00151579158 	0.0008500836694 	3.135092006e-08 	0.003134025274 	-3.517032536e-08 	5.97432323e-06
0.7655892833 	0.001523551503 	0.0008595803104 	2.930259708e-08 	0.003129566219 	-3.076285752e-08 	5.965823031e-06
0.7692882266 	0.00153188364 	0.0008692765269 	2.730040275e-08 	0.003125626718 	-2.650750843e-08 	5.958313248e-06
0.7729462699 	0.001540814229 	0.000879170521 	2.534596006e-08 	0.003122294451 	-2.244599558e-08 	5.951961021e-06
0.7765644362 	0.001550382147 	0.0008892842245 	2.34351948e-08 	0.003119621845 	-1.861391519e-08 	5.946866291e-06
0.7801431096 	0.001560609011 	0.0008996386397 	2.155389819e-08 	0.003117645823 	-1.503739592e-08 	5.943099443e-06
0.7836822925 	0.001571512313 	0.0009102360947 	1.969698916e-08 	0.003116440143 	-1.174971314e-08 	5.940801083e-06
0.7871824709 	0.001583125793 	0.0009210872976 	1.785915656e-08 	0.003116078665 	-8.781515029e-09 	5.940112005e-06
0.7906446711 	0.001595483883 	0.0009322170848 	1.602951016e-08 	0.003116603296 	-6.157048368e-09 	5.941112096e-06
0.7940688637 	0.001608607004 	0.0009436431781 	1.419270633e-08 	0.003118056322 	-3.897675874e-09 	5.943881968e-06
0.7974553732 	0.001622516508 	0.0009553719867 	1.23413835e-08 	0.003120507731 	-2.026211197e-09 	5.948555036e-06
0.8008046515 	0.001637247187 	0.000967420288 	1.046772207e-08 	0.003124016593 	-5.6155757e-10 	5.955243902e-06
0.8041175789 	0.00165283062 	0.0009798129543 	8.559125614e-09 	0.003128616064 	4.810204405e-10 	5.964011772e-06
0.8073941181 	0.001669286729 	0.0009925663319 	6.602099364e-09 	0.003134345281 	1.086923413e-09 	5.974933251e-06
0.8106346707 	0.001686637046 	0.001005690172 	4.589853382e-09 	0.003141260551 	1.243799272e-09 	5.988115679e-06
0.8138396595 	0.001704912064 	0.001019200926 	2.516111968e-09 	0.003149408513 	9.428017536e-10 	6.003647958e-06
0.8170097807 	0.001724139513 	0.001033120396 	3.714903638e-10 	0.003158814021 	1.765845435e-10 	6.02157747e-06
0.8175402391 	0.001727557007 	0.001035547219 	7.704258216e-08 	0.003160623542 	-1.036286094e-08 	6.025026922e-06
0.8201450131 	0.001744337439 	0.001047463969 	1.814874261e-09 	0.003169504708 	1.057988083e-09 	6.041956892e-06
0.8232458362 	0.001765520801 	0.001062239965 	4.077306459e-09 	0.003181520559 	2.772328978e-09 	6.064862442e-06
0.8263126747 	0.001787710807 	0.0010774599 	6.426880452e-09 	0.003194896278 	4.966332512e-09 	6.090360281e-06
0.8293460587 	0.001810928037 	0.00109313959 	8.867155579e-09 	0.003209647154 	7.636739031e-09 	6.118479551e-06
0.832346269 	0.001835182838 	0.001109290532 	1.140477204e-08 	0.00322578367 	1.078169526e-08 	6.149240235e-06
0.8353136109 	0.001860480422 	0.001125916958 	1.403915103e-08 	0.003243327223 	1.439158885e-08 	6.182683122e-06
0.8382484591 	0.001886828796 	0.001143023428 	1.676743233e-08 	0.003262295628 	1.845220329e-08 	6.218842175e-06
0.8411512145 	0.001914235397 	0.00116061643 	1.958492859e-08 	0.003282692444 	2.294536178e-08 	6.257724176e-06
0.8440222961 	0.001942700418 	0.001178701091 	2.24901479e-08 	0.00330450869 	2.785506265e-08 	6.299312004e-06
0.8468619449 	0.001972215034 	0.001197274978 	2.547678485e-08 	0.003327742064 	3.315833799e-08 	6.343601272e-06
0.8496705157 	0.002002769424 	0.001216333939 	2.853385649e-08 	0.003352386026 	3.882459119e-08 	6.390579513e-06
0.852448358 	0.002034351495 	0.001235872486 	3.164784292e-08 	0.003378427437 	4.48184683e-08 	6.44022168e-06
0.8551958614 	0.002066946366 	0.001255884738 	3.480375219e-08 	0.003405840185 	5.110120108e-08 	6.492477996e-06
0.857913338 	0.002100529726 	0.001276361395 	3.798832368e-08 	0.003434587798 	5.763596574e-08 	6.547278937e-06
0.8606010833 	0.00213506952 	0.001297286255 	4.118131855e-08 	0.003464639675 	6.43746094e-08 	6.604566167e-06
0.8632594293 	0.002170531599 	0.001318641813 	4.435907533e-08 	0.003495955414 	7.126287908e-08 	6.664262669e-06
0.8658887031 	0.002206876617 	0.001340407723 	4.749521637e-08 	0.003528487707 	7.82420312e-08 	6.726278263e-06
0.8684892567 	0.002244060573 	0.001362561547 	5.056204402e-08 	0.003562178352 	8.525076691e-08 	6.790501995e-06
0.8710613826 	0.002282029466 	0.001385076773 	5.353264351e-08 	0.003596959523 	9.222991056e-08 	6.856804575e-06
0.8736053763 	0.002320720781 	0.00140792036 	5.637378925e-08 	0.003632767489 	9.911008155e-08 	6.92506451e-06
0.8761215493 	0.002360067397 	0.001431056888 	5.904938618e-08 	0.003669528907 	1.058185799e-07 	6.99514199e-06
0.8786102089 	0.002399994433 	0.001454446884 	6.152075806e-08 	0.003707165419 	1.122820373e-07 	7.066887643e-06