0.3362433877 	0.01775476144 	0.003080050578 	-1.124363714e-08
0.3362433877 	0.01775476144 	0.003080050578 	-1.124363714e-08
0.3363017955 	0.02858631174 	0.004953830636 	8.179889e-05
0.3364356309 	0.05346270953 	0.009256641408 	-8.05386422e-08
0.3366277463 	0.1067075624 	0.01846137142 	-3.91192993e-07
0.3368198693 	0.1597199259 	0.0276274298 	-9.302110744e-07
0.3370119991 	0.212452827 	0.0367408539 	-1.694929514e-06
0.3372041348 	0.2647910619 	0.04578174434 	-2.680624999e-06
0.3373962757 	0.3165122064 	0.05471137794 	-3.878290302e-06
0.3375884208 	0.367261907 	0.06346810538 	-5.272325955e-06
0.3377805694 	0.4165695976 	0.07197048292 	-6.83960956e-06
0.3379727207 	0.4639152269 	0.08012907567 	-8.551177736e-06
0.3381648737 	0.5088266601 	0.08786290602 	-1.037619292e-05
0.3383570277 	0.5509648553 	0.09511366218 	-1.228633169e-05
0.3385491818 	0.5901625271 	0.1018523414 	-1.425862669e-05
0.3387413353 	0.6264126752 	0.1080775915 	-1.627607731e-05
0.3389334873 	0.6598273778 	0.1138088196 	-1.832669621e-05
0.3391256369 	0.6905906413 	0.119078037 	-2.040207017e-05
0.3393177834 	0.7189196023 	0.1239230506 	-2.249612736e-05
0.3395099259 	0.7450382101 	0.1283828387 	-2.460430052e-05
0.3397020636 	0.7691618589 	0.1324948675 	-2.672301801e-05
0.3398941957 	0.7914897528 	0.13629377 	-2.884940673e-05
0.3400863214 	0.8122020567 	0.1398108602 	-3.098111758e-05
0.3402784399 	0.831459722 	0.1430741091 	-3.311621913e-05
0.3404705503 	0.8494056531 	0.1461083516 	-3.525312848e-05
0.3406626518 	0.8661664409 	0.1489355892 	-3.739056315e-05
0.3408547436 	0.881854248 	0.1515753187 	-3.952750567e-05
0.3410468249 	0.8965686416 	0.1540448497 	-4.166317667e-05
0.3412388949 	0.9103982874 	0.1563596005 	-4.379701916e-05
0.3414309528 	0.9234224825 	0.1585333559 	-4.592870732e-05
0.3416229978 	0.9357125151 	0.1605785829 	-4.805820184e-05
0.341815029 	0.9473330081 	0.162506372 	-5.018554426e-05
0.3420070457 	0.9598248158 	0.1645722273 	-5.235953577e-05
0.3423053646 	0.9744243667 	0.1669751275 	-5.561489243e-05
0.3426092492 	0.9895124952 	0.1694468652 	-5.901199768e-05
0.3429187992 	1.003796747 	0.1717743933 	-6.254378545e-05
0.343234116 	1.01738465 	0.1739766971 	-6.622373677e-05
0.3435553022 	1.030363584 	0.1760693007 	-7.003467041e-05
0.3438824622 	1.042801594 	0.1780643086 	-7.39572469e-05
0.3442157019 	1.054756049 	0.1799716878 	-7.79895913e-05
0.3445551286 	1.06627831 	0.1818004007 	-8.213837172e-05
0.3449008511 	1.07741567 	0.1835587477 	-8.641223695e-05
0.3452529799 	1.088212296 	0.1852545129 	-9.082128283e-05
0.3456116268 	1.098709772 	0.1868950569 	-9.537664921e-05
0.3459769053 	1.108947447 	0.1884873787 	-0.0001000902525
0.3463489302 	1.118962592 	0.1900381427 	-0.000104974265
0.346727818 	1.128790217 	0.1915536401 	-0.0001100396746
0.3471136864 	1.138462238 	0.193039623 	-0.0001152931821
0.3475066549 	1.1480058 	0.194500983 	-0.0001207333948
0.347906844 	1.157441296 	0.1959413849 	-0.0001201035091
0.348314376 	1.166781378 	0.1973630815 	-0.000117029442
0.3487293745 	1.176031683 	0.1987670322 	-0.0001137741398
0.3491519642 	1.1851927 	0.2001532393 	-0.0001103270782
0.3495822713 	1.194261719 	0.2015211076 	-0.0001066835925
0.3500204234 	1.20323417 	0.2028696935 	-0.0001028422217
0.3504665492 	1.212104209 	0.20419781 	-9.880219066e-05
0.3509207785 	1.220870853 	0.2055048848 	-9.456219672e-05
0.3513845503 	1.22959001 	0.2067988394 	-9.010725599e-05
0.3518696828 	1.238294716 	0.2080834163 	-8.52781233e-05
0.3523637086 	1.246895684 	0.2093444813 	-8.02080143e-05
0.3528667873 	1.255307444 	0.2105678643 	-7.488056064e-05
0.3533790813 	1.263492691 	0.2117461684 	-6.92877316e-05
0.3539007558 	1.271402941 	0.212869755 	-6.342855101e-05
0.354431979 	1.278978183 	0.2139266804 	-5.731382847e-05
0.3549729218 	1.286148428 	0.2149029343 	-5.097090729e-05
0.3555237583 	1.292839045 	0.2157832001 	-4.444780769e-05
0.3560846653 	1.298983588 	0.2165533844 	-3.784494201e-05
0.3566558229 	1.304552057 	0.2172092192 	-3.128372625e-05
0.3572374142 	1.309598372 	0.2177620606 	-2.479592721e-05
0.3578296256 	1.314236283 	0.2182287075 	-1.83340553e-05
0.3584326466 	1.318514862 	0.2186171129 	-1.185977677e-05
0.35904667 	1.322379186 	0.2189190314 	-5.404659671e-06
0.3595770964 	1.325228135 	0.2190851801 	-2.594215733e-07
0.3596716997 	1.325737657 	0.2191152984 	-9.421506681e-07
0.3603070346 	1.328500727 	0.2191880859 	-7.110919772e-06
0.3609539542 	1.330636961 	0.2191286722 	-1.309204688e-05
0.3616126648 	1.332164671 	0.2189403198 	-1.8874141e-05
0.3622833765 	1.333158124 	0.2186374592 	-2.450267989e-05
0.3629663027 	1.333725147 	0.2182413031 	-3.00563264e-05
0.3636616609 	1.333978523 	0.2177742658 	-3.561101807e-05
0.364369672 	1.334015533 	0.21725581 	-4.121627569e-05
0.3650905608 	1.333909926 	0.2167006519 	-4.689284269e-05
0.3658245562 	1.333712093 	0.2161172752 	-5.264159123e-05
0.3665815357 	1.333453454 	0.2155080218 	-5.854214968e-05
0.3673642267 	1.333154604 	0.2148763599 	-6.460403029e-05
0.3681610793 	1.332830832 	0.2142294382 	-7.071066596e-05
0.3689723428 	1.332492009 	0.2135713751 	-7.685569273e-05
0.369798271 	1.332143455 	0.2129031709 	-8.30329408e-05
0.3706391218 	1.331788419 	0.2122254278 	-8.923746594e-05
0.3714951578 	1.331428911 	0.2115384953 	-9.546529e-05
0.372366646 	1.331066236 	0.2108425767 	-9.81485104e-05
0.3732538578 	1.330701358 	0.2101377974 	-9.088646771e-05
0.3741570696 	1.330335191 	0.2094243052 	-8.360076582e-05
0.3750765622 	1.329918861 	0.2086128795 	-7.624540348e-05
0.376486773 	1.329419306 	0.207603446 	-6.529388693e-05
0.3779110756 	1.328875869 	0.2065026705 	-5.443565911e-05
0.3793496129 	1.328334818 	0.2053996348 	-4.37195882e-05
0.3808025294 	1.32779014 	0.2042879466 	-3.314445985e-05
0.3823059562 	1.327237416 	0.2031591818 	-2.242985298e-05
0.3838280091 	1.326677826 	0.20201977 	-1.184829057e-05
0.3853651093 	1.32611374 	0.2008772139 	-1.432558021e-06
0.3855803392 	1.326034813 	0.200718281 	-1.040419838e-05
0.3869151756 	1.325542379 	0.1997338944 	-8.680071633e-06
0.3884802461 	1.3249642 	0.1985880094 	-1.860788858e-05
0.3900608389 	1.324378355 	0.1974391166 	-2.837217947e-05
0.3916571133 	1.323783707 	0.196287076 	-3.797140335e-05
0.3932692312 	1.323179459 	0.1951316305 	-4.740419631e-05
0.3948973565 	1.322562451 	0.1939683104 	-5.666683413e-05
0.3965690669 	1.321928981 	0.1927895041 	-6.593424449e-05
0.3982718105 	1.321279886 	0.1915976697 	-7.510743682e-05
0.3999912797 	1.320618831 	0.1904004805 	-8.228758506e-05
0.4017276483 	1.319947238 	0.1892004984 	-7.189073634e-05
0.4034810924 	1.3192652 	0.1879977276 	-6.168154063e-05
0.4052517911 	1.318572919 	0.1867922144 	-5.166182056e-05
0.4070399258 	1.317870787 	0.1855839578 	-4.183427802e-05
0.4088456808 	1.317157285 	0.1843699585 	-3.219951001e-05
0.4106892378 	1.316429076 	0.1831431522 	-2.264077984e-05
0.4125745154 	1.315686823 	0.1819030653 	-1.315231064e-05
0.4144781776 	1.314935675 	0.1806575784 	-3.878318543e-06
0.4152956098 	1.314614207 	0.1801271076 	-3.483093848e-05
0.4163989494 	1.314178347 	0.1794116902 	-5.117364968e-06
0.4183374299 	1.313417066 	0.1781654409 	-1.385728821e-05
0.4202949142 	1.312655048 	0.176918653 	-2.23916381e-05
0.4222716086 	1.311894571 	0.1756710108 	-3.072264451e-05
0.4242727255 	1.311134444 	0.1744166882 	-3.88753975e-05
0.4263330869 	1.310375682 	0.1731505286 	-4.700985965e-05
0.4284134725 	1.309625566 	0.1718808201 	-5.492882841e-05
0.4305141024 	1.308891272 	0.1706143647 	-6.263941005e-05
0.4326352002 	1.308175935 	0.1693517834 	-6.52766244e-05
0.4347769937 	1.307482224 	0.1680935905 	-5.647175946e-05
0.4369397142 	1.306810296 	0.1668374776 	-4.788067839e-05
0.4391442892 	1.306157967 	0.1655774108 	-3.940581456e-05
0.4413946634 	1.305525295 	0.1643119707 	-3.102579874e-05
0.443666834 	1.304914464 	0.1630471681 	-2.289358298e-05
0.4459610492 	1.304319677 	0.1617896373 	-1.497652744e-05
0.448277562 	1.303712671 	0.160534064 	-7.242441492e-06
0.4505459865 	1.303072433 	0.1593001252 	-2.543842823e-06
0.4506165593 	1.303052457 	0.1592617627 	-2.20150215e-07
0.4529933429 	1.302317702 	0.1579645448 	-7.416120896e-06
0.4554208951 	1.301522902 	0.1566484243 	-1.444959943e-05
0.4578719627 	1.300685653 	0.1553223946 	-2.122024151e-05
0.4603468233 	1.299818173 	0.1539914919 	-2.774306944e-05
0.4628457593 	1.298927063 	0.152657201 	-3.402838831e-05
0.4653690586 	1.298013347 	0.151316382 	-4.007890327e-05
0.4679520536 	1.297076058 	0.1499634913 	-4.59968858e-05
0.470569172 	1.296118819 	0.1486028199 	-5.169384136e-05
0.4732116477 	1.295146764 	0.1472405862 	-4.789186215e-05
0.4758797916 	1.294161522 	0.1458780806 	-4.106863689e-05
0.478573921 	1.293161033 	0.1445123774 	-3.448791751e-05
0.4813208668 	1.292141856 	0.1431380056 	-2.807381245e-05
0.4841109496 	1.291104993 	0.141756532 	-2.186458794e-05
0.4869280722 	1.29005451 	0.1403736737 	-1.590423701e-05
0.4897725782 	1.288992169 	0.138991416 	-1.018796789e-05
0.4926448178 	1.287914885 	0.1376062083 	-4.710040469e-06
0.4952388018 	1.286945902 	0.1363738233 	-1.049795771e-05
0.4955778201 	1.286818963 	0.1362127603 	-6.030033881e-07
0.4985460505 	1.285705369 	0.1348143207 	-5.674780545e-06
0.50154319 	1.284579303 	0.1334160207 	-1.050968985e-05
0.5045696182 	1.283440547 	0.1320176559 	-1.511365592e-05
0.5076367908 	1.28228538 	0.1306148688 	-1.951244783e-05
0.5107623923 	1.281112243 	0.1292054928 	-2.373250486e-05
0.5139184742 	1.279924569 	0.1277945066 	-2.772135218e-05
0.5171054487 	1.278724944 	0.1263849021 	-3.148677225e-05
0.520325042 	1.277509724 	0.1249729616 	-3.503600023e-05
0.523612288 	1.276275765 	0.1235544136 	-3.842111188e-05
0.5269316876 	1.275026188 	0.1221338978 	-3.448770963e-05
0.5302836887 	1.27376428 	0.1207151538 	-3.00725316e-05
0.533669638 	1.272486595 	0.1192948481 	-2.587202282e-05
0.5371230183 	1.271190015 	0.1178690283 	-2.183688675e-05
0.5406103399 	1.269877445 	0.1164418486 	-1.801952103e-05
0.5441320894 	1.268551292 	0.1150161368 	-1.44128773e-05
0.5476960233 	1.267208333 	0.1135887402 	-1.099953158e-05
0.5513203417 	1.265846703 	0.1121575924 	-7.759420594e-06
0.5549805169 	1.264469113 	0.1107262892 	-4.720837473e-06
0.5586770766 	1.263075999 	0.1092957249 	-1.875379591e-06
0.5612874305 	1.262093832 	0.1082985477 	-2.778081989e-05
0.5624282509 	1.261664106 	0.1078626516 	-8.048885338e-07
0.5662275028 	1.260233445 	0.1064275626 	-3.316011428e-06
0.5700647233 	1.258786593 	0.1049934477 	-5.646978703e-06
0.5739448569 	1.257321767 	0.1035589748 	-7.810050633e-06
0.5778866303 	1.25583684 	0.1021221026 	-9.820896515e-06
0.5818679746 	1.254333936 	0.1006856501 	-1.166419332e-05
0.5858894948 	1.252812797 	0.09924999276 	-1.334903754e-05
0.5899727857 	1.251270616 	0.09781253756 	-1.489427963e-05
0.5941006535 	1.249708554 	0.09637507672 	-1.628854702e-05
0.5982704142 	1.248126961 	0.09493867361 	-1.753880927e-05
0.6024979472 	1.246523463 	0.09350140576 	-1.865977423e-05
0.6067750414 	1.244898256 	0.0920640759 	-1.964698056e-05
0.6110958307 	1.243251572 	0.09062774795 	-2.050560744e-05
0.6154737333 	1.24158142 	0.08919104853 	-2.124809638e-05
0.6199031021 	1.239887613 	0.0877544908 	-2.187246788e-05
0.6243780584 	1.238170043 	0.08631892486 	-2.07564653e-05
0.6289117321 	1.236426739 	0.08488316738 	-1.922865132e-05
0.6334968048 	1.234657528 	0.08344788627 	-1.782014708e-05
0.6381294517 	1.232861792 	0.08201359378 	-1.652473615e-05
0.6428238051 	1.23103731 	0.08057907405 	-1.533188273e-05
0.6475684204 	1.229183935 	0.0791452672 	-1.42440067e-05
0.6523649443 	1.227300585 	0.07771234424 	-1.325235903e-05
0.6572223575 	1.22539026 	0.0762831174 	-1.235220717e-05
0.6620766355 	1.223468796 	0.07487034351 	-1.154968906e-05
0.6668799146 	1.221551407 	0.07348518969 	-1.084004199e-05
0.6716326517 	1.219642398 	0.07213012631 	-1.021738573e-05
0.6763304893 	1.217741382 	0.07080457082 	-9.672343152e-06
0.680980885 	1.215847091 	0.06950704058 	-9.194703458e-06
0.6855796658 	1.213959225 	0.06823694783 	-8.780577654e-06
0.690125814 	1.212077189 	0.06699360676 	-8.421620852e-06
0.6946265976 	1.210199561 	0.06577557794 	-8.111207997e-06
0.6990762349 	1.208326196 	0.06458252875 	-7.846327733e-06
0.7034757701 	1.206456411 	0.06341377166 	-7.620234102e-06
0.7078302603 	1.204588853 	0.06226808847 	-7.42890369e-06
0.7121354456 	1.202723247 	0.0611451597 	-7.269634777e-06
0.7163924516 	1.200858818 	0.06004432426 	-7.137326787e-06
0.7206051784 	1.198994289 	0.05896456407 	-7.029315742e-06
0.7247704865 	1.197129272 	0.05790556194 	-6.943567347e-06
0.7288890892 	1.195262959 	0.05686673803 	-6.876260278e-06
0.7329646301 	1.19339406 	0.05584718988 	-6.825302535e-06
0.7369945217 	1.191522068 	0.05484658671 	-6.789519409e-06
0.7409793914 	1.18964622 	0.05386447573 	-6.766038899e-06
0.7449217639 	1.187765296 	0.05290008882 	-6.752999117e-06
0.7488205855 	1.185878566 	0.05195301965 	-6.749946921e-06
0.7526760103 	1.183985309 	0.05102291733 	-6.754801369e-06
0.7564895149 	1.182084426 	0.0501091621 	-6.765824091e-06
0.7602614981 	1.180174991 	0.04921128239 	-6.782928264e-06
0.763991624 	1.178256321 	0.04832899211 	-6.804813967e-06
0.767680541 	1.176327456 	0.04746182123 	-6.829996815e-06
0.7713298015 	1.174387325 	0.04660925809 	-6.858133129e-06
0.7749386674 	1.17243522 	0.04577101717 	-6.888842242e-06
0.7785076447 	1.170470372 	0.04494678788 	-6.921017265e-06
0.7820377123 	1.168491771 	0.04413611481 	-6.953826338e-06
0.7855292473 	1.166498554 	0.0433386451 	-6.987476821e-06
0.7889822604 	1.164490027 	0.04255413374 	-7.021334004e-06
0.7923972207 	1.162465362 	0.04178225306 	-7.054646296e-06
0.7957751119 	1.160423625 	0.04102262687 	-7.087108375e-06
0.799115918 	1.15836407 	0.04027498956 	-7.118906277e-06
0.8024199552 	1.156286023 	0.03953911932 	-7.149516185e-06
0.8056876609 	1.154188662 	0.03881471531 	-7.178436249e-06
0.808919881 	1.152071121 	0.03810146587 	-7.205627083e-06
0.8121165911 	1.1499327 	0.03739915019 	-6.991511587e-06
0.815278181 	1.147772733 	0.0367075648 	-6.684703743e-06
0.8184050606 	1.145590434 	0.03602645181 	-6.387196022e-06
0.8214979011 	1.143384993 	0.03535554694 	-6.098704004e-06
0.824556818 	1.141155716 	0.03469464976 	-5.818820163e-06
0.8275821714 	1.13890195 	0.03404357486 	-5.547549913e-06
0.8305743473 	1.136622974 	0.03340210653 	-5.284866979e-06
0.8335338579 	1.134318043 	0.03277001583 	-5.030594546e-06
0.8364609812 	1.131986483 	0.03214711063 	-4.78427884e-06
0.8393560156 	1.129627681 	0.03153322309 	-4.545845207e-06
0.8422193257 	1.12724102 	0.03092816957 	-4.315228548e-06
0.8450513006 	1.124825858 	0.03033175235 	-4.092334672e-06
0.8478523485 	1.122381588 	0.02974378331 	-3.876780606e-06
0.8506227078 	1.119907686 	0.02916410633 	-3.668359971e-06
0.8533627237 	1.117403672 	0.02859255767 	-3.466985682e-06
0.8560727368 	1.114869064 	0.02802896987 	-3.272559754e-06
0.8587531258 	1.112303406 	0.02747316578 	-3.084922699e-06
0.861404197 	1.109706301 	0.02692498449 	-2.90372389e-06
0.8640262397 	1.107077434 	0.02638428136 	-2.728832753e-06
0.8666195773 	1.104416536 	0.02585090022 	-2.560142601e-06
0.8691845291 	1.101723372 	0.02532468771 	-2.397541479e-06
0.8717214379 	1.098997759 	0.02480548219 	-2.240862111e-06
0.8742305906 	1.0962396 	0.02429313471 	-2.089811297e-06
0.8767122763 	1.093448897 	0.02378750651 	-1.944263558e-06
0.8791667987 	1.090625743 	0.02328844897 	-1.804105368e-06
0.881594458 	1.087770342 	0.02279581854 	-1.669221412e-06
0.8839955611 	1.084883034 	0.02230946433 	-1.539477988e-06
0.8863703967 	1.081964366 	0.02182924105 	-1.414628111e-06
0.8887192369 	1.079015176 	0.02135501233 	-1.294537035e-06
0.891042368 	1.0760367 	0.02088663199 	-1.179101954e-06
0.8933400725 	1.073030718 	0.02042395072 	-1.06822431e-06
0.8956126298 	1.06999977 	0.01996680938 	-9.618100591e-07
0.8978603256 	1.066947396 	0.01951503083 	-8.597157999e-07
0.900083417 	1.063878351 	0.01906842553 	-7.617854344e-07
0.9022821723 	1.060798585 	0.01862677318 	-6.67945601e-07
0.9044568583 	1.057714678 	0.01818979627 	-5.781884806e-07
0.9066077387 	1.054632159 	0.01775716498 	-4.918584416e-07
0.9087350739 	1.051551426 	0.01732918783 	-4.087779079e-07
0.9108391258 	1.048460903 	0.0169058477 	-3.293745154e-07
0.9129201398 	1.045342397 	0.01648646677 	-2.529037169e-07
0.9149783679 	1.042186119 	0.01607147921 	-1.793709132e-07
0.9170140591 	1.038989902 	0.01566116831 	-1.09143175e-07
0.9190274597 	1.035752085 	0.01525516779 	-4.203106941e-08
0.92032514 	1.033613875 	0.01499335303 	-6.621032951e-06
0.9210187949 	1.032470929 	0.01485338398 	-2.144838451e-08
0.9229882931 	1.02914457 	0.01445572876 	-8.092220467e-08
0.9249362238 	1.025770957 	0.01406215643 	-1.37644962e-07
0.9268628213 	1.022347909 	0.01367259773 	-1.916588922e-07
0.9287683185 	1.018873048 	0.01328698573 	-2.430012342e-07
0.9306529456 	1.015343781 	0.01290525985 	-2.917072104e-07
0.9325169302 	1.011757267 	0.01252736513 	-3.378098648e-07
0.9343604974 	1.008110386 	0.01215325045 	-3.813400811e-07
0.9361838701 	1.004399707 	0.01178286821 	-4.223421761e-07
0.9379872663 	1.000621446 	0.01141617822 	-4.608621823e-07
0.9397709039 	0.9967714203 	0.01105314445 	-4.969231334e-07
0.9415349984 	0.992845 	0.01069373351 	-5.305459463e-07
0.9432797627 	0.988837051 	0.01033791714 	-5.617496318e-07
0.9450054076 	0.9847418701 	0.009985671784 	-5.905512519e-07
0.9467121415 	0.9805531104 	0.009636978169 	-6.169658735e-07
0.9484001706 	0.9762636949 	0.009291820729 	-6.410101705e-07
0.9500696979 	0.9718657165 	0.008950171255 	-6.627112887e-07
0.9517209248 	0.9673503265 	0.008612066312 	-6.820784256e-07
0.9533540511 	0.9631053417 	0.008305595861 	-7.006511704e-07
0.9544179371 	0.959582538 	0.008059544355 	-7.090392067e-07
0.9554622464 	0.9564296759 	0.007845447428 	-7.178560871e-07
0.9564873384 	0.9532501181 	0.007635287819 	-7.25603878e-07
0.9574935658 	0.950043114 	0.007428993326 	-7.323145867e-07
0.9584812751 	0.9468078306 	0.007226522195 	-7.380184708e-07
0.9594508062 	0.9435433463 	0.007027824618 	-7.427454187e-07
0.960402493 	0.9402486445 	0.006832850801 	-7.465243651e-07
0.9613366631 	0.9369226077 	0.006641550992 	-7.493855918e-07
0.962253638 	0.9335640105 	0.006453876091 	-7.51357412e-07
0.9631537337 	0.9301715127 	0.00626977706 	-7.52465665e-07
0.9640372602 	0.9267436513 	0.006089205088 	-7.527353623e-07
0.9649045219 	0.9232788339 	0.005912111817 	-7.521907486e-07
0.9657558175 	0.9197753301 	0.005738449324 	-7.508553514e-07
0.9665914405 	0.9162312639 	0.005568170179 	-7.487520382e-07
0.9674116788 	0.9126446051 	0.005401227486 	-7.459030759e-07
0.968216815 	0.9090131609 	0.005237574937 	-7.423301919e-07
0.9690071268 	0.9053345672 	0.005077166845 	-7.380546373e-07
0.9697828866 	0.9016062796 	0.004919958184 	-7.330972501e-07
0.9705443617 	0.897825564 	0.004765904618 	-7.2747852e-07
0.9712918149 	0.8939894867 	0.004614962531 	-7.212186525e-07
0.9720255037 	0.890094905 	0.004467089051 	-7.14337634e-07
0.9727456813 	0.8861384559 	0.004322242103 	-7.068552963e-07
0.9734525961 	0.8821165456 	0.004180380233 	-6.987914309e-07
0.9741464917 	0.8780253376 	0.004041462841 	-6.901664653e-07
0.9748276077 	0.8738607402 	0.003905450219 	-6.810002552e-07
0.975496179 	0.8696183933 	0.003772303295 	-6.713125015e-07
0.9761524362 	0.8652936542 	0.003641983771 	-6.611230378e-07
0.9767966058 	0.8608815825 	0.003514454108 	-6.504518796e-07
0.9774289101 	0.8563769236 	0.003389677495 	-6.393192697e-07
0.9780495673 	0.8517740907 	0.003267617828 	-6.277457205e-07
0.9786587917 	0.8470671456 	0.003148239684 	-6.15752053e-07
0.9792567935 	0.842249777 	0.003031508285 	-6.033594295e-07
0.9798437792 	0.8373152773 	0.002917389475 	-5.905893867e-07
0.9804199514 	0.832256517 	0.002805849672 	-5.774638571e-07
0.9809855091 	0.8270659157 	0.002696855833 	-5.640051809e-07
0.9815406475 	0.8217354106 	0.002590375418 	-5.5023613e-07
0.9820855583 	0.8162564207 	0.002486376333 	-5.361799145e-07
0.9826204297 	0.8106198074 	0.002384826888 	-5.218601704e-07
0.9831454465 	0.8048158304 	0.002285695754 	-5.073009639e-07
0.9836607899 	0.7988340974 	0.002188951918 	-4.925267803e-07
0.984166638 	0.7926635081 	0.002094564622 	-4.775624952e-07
0.9846631655 	0.7862921904 	0.002002503332 	-4.624333471e-07
0.985150544 	0.7797074279 	0.001912737681 	-4.47164902e-07
0.9856289418 	0.7728955787 	0.001825237449 	-4.317830102e-07
0.9860985242 	0.7658419812 	0.001739972488 	-4.163137506e-07
0.9865594535 	0.7585308492 	0.001656912692 	-4.007834212e-07
0.9870118889 	0.7509451499 	0.001576028041 	-3.85218432e-07
0.9874559868 	0.7430664665 	0.001497288528 	-3.696451616e-07
0.9878919007 	0.7348748405 	0.001420664126 	-3.540899423e-07
0.9883197813 	0.7263485922 	0.001346124842 	-3.385789832e-07
0.9887397763 	0.7174641155 	0.001273640719 	-3.231382825e-07
0.9891520311 	0.7081956444 	0.001203181872 	-3.077935394e-07
0.9895566881 	0.6985149883 	0.001134718547 	-2.925700645e-07
0.9899538871 	0.6883912306 	0.001068221133 	-2.774926876e-07
0.9903437656 	0.6777903909 	0.001003660979 	-2.625856734e-07
0.9907264583 	0.6666750459 	0.000941008783 	-2.478726989e-07
0.9911020975 	0.6550039102 	0.0008802432005 	-2.333767213e-07
0.9914708132 	0.6427313816 	0.0008212743411 	-2.191194793e-07
0.9918327327 	0.6298071233 	0.0007642697021 	-2.051157464e-07
0.9921879813 	0.61736687 	0.0007137466982 	-1.926288806e-07
0.9924166211 	0.6067832921 	0.0006735989885 	-1.825259672e-07
0.9926452634 	0.5969890787 	0.0006387241287 	-1.737522237e-07
0.992873908 	0.5866894045 	0.0006042740042 	-1.650100326e-07
0.993102555 	0.5758437029 	0.0005701624011 	-1.563107724e-07
0.9933312044 	0.5644076802 	0.0005364372941 	-1.476632007e-07
0.9935598563 	0.5523330864 	0.0005031169089 	-1.390760457e-07
0.9937885105 	0.5395676069 	0.000470225759 	-1.305585092e-07
0.9940171671 	0.5260549157 	0.0004377923575 	-1.221203239e-07
0.9942458262 	0.5117349892 	0.0004058513836 	-1.137718352e-07
0.9944744876 	0.4965448209 	0.0003744447726 	-1.055241985e-07
0.9947031515 	0.4804197212 	0.0003436232866 	-9.738972294e-08
0.9949318178 	0.4632954361 	0.0003134478271 	-8.938240984e-08
0.9951604864 	0.4451113407 	0.0002839899045 	-8.151868775e-08
0.9953891575 	0.4258149288 	0.0002553305612 	-7.381818025e-08
0.995617831 	0.4053676562 	0.0002275577521 	-6.630406437e-08
0.9958465068 	0.3837518301 	0.0002007642742 	-5.900247954e-08
0.9960751851 	0.3609776232 	0.000175050974 	-5.194111452e-08
0.9963038658 	0.337088534 	0.0001505390885 	-4.514863301e-08
0.9965325489 	0.3121630584 	0.0001273866224 	-3.865724338e-08
0.9967612344 	0.2863105627 	0.0001057911163 	-3.25078679e-08
0.9969899223 	0.2596607916 	8.59625146e-05 	-2.675256955e-08
0.9972186126 	0.2323488236 	6.807485441e-05 	-2.144916723e-08
0.9974473053 	0.2044993914 	5.223095624e-05 	-1.665076646e-08
0.9976760004 	0.1762149187 	3.846615201e-05 	-1.239893988e-08
0.9979046979 	0.1475699841 	2.6781849e-05 	-8.725113444e-09
0.9981333978 	0.118612279 	1.719192406e-05 	-5.658290087e-09
0.9983621002 	0.08936801266 	9.726306994e-06 	-3.228194557e-09
0.9985908049 	0.05984901001 	4.430187261e-06 	-1.468562297e-09
0.998819512 	0.0300592268 	8.3881136e-09 	-2.175711192e-10
0.9990482216 	0.01253312814 	-1.922414176e-06 	2.716785656e-10
