0.4709558481 	1.565788973e-07 	-3.749294502e-10 	9.938748571e-15 	1.562813648e-07 	-3.032608635e-12 	2.979157175e-10
0.4709558481 	1.565788973e-07 	-3.749294502e-10 	9.938748571e-15 	1.562813648e-07 	-3.032608635e-12 	2.979157175e-10
0.4711314108 	1.757933077e-06 	-1.644981547e-08 	4.361449808e-13 	1.754656652e-06 	-3.404892157e-11 	3.344863261e-09
0.4713069734 	9.798024522e-06 	-2.14601593e-07 	5.688350606e-12 	9.781527446e-06 	-1.898037289e-10 	1.864630995e-08
0.471482536 	3.261209285e-05 	-1.337698147e-06 	3.540709938e-11 	3.257497361e-05 	-6.319679239e-10 	6.209695345e-08
0.4716580986 	8.050549165e-05 	-5.418545247e-06 	1.428976711e-10 	8.051602771e-05 	-1.561005074e-09 	1.534859271e-07
0.4718336613 	0.0001644946781 	-1.654673076e-05 	4.331786765e-10 	0.0001649206607 	-3.192064751e-09 	3.143846165e-07
0.4720092239 	0.0002953419453 	-4.135998575e-05 	1.069074534e-09 	0.0002973283734 	-5.734530054e-09 	5.667905178e-07
0.4721847865 	0.0004823347697 	-8.88511979e-05 	2.251465411e-09 	0.00048856343 	-9.360878057e-09 	9.313376868e-07
0.4723603491 	0.0007317830162 	-0.0001691229843 	4.165210269e-09 	0.0007473405771 	-1.416104675e-08 	1.424638853e-06
0.4725359118 	0.001045540462 	-0.0002910835107 	6.90174858e-09 	0.001078472707 	-2.009139556e-08 	2.055868725e-06
0.4727114744 	0.001420086998 	-0.0004597336597 	1.039506684e-08 	0.001481143861 	-2.69432423e-08 	2.823471862e-06
0.472887037 	0.001846660573 	-0.000674221901 	1.4414564e-08 	0.001948034959 	-3.435987614e-08 	3.71349606e-06
0.4730625996 	0.002312541297 	-0.0009276776759 	1.862848104e-08 	0.002465956766 	-4.190900479e-08 	4.700798973e-06
0.4732381623 	0.002803084553 	-0.001208920116 	2.270453712e-08 	0.003017968648 	-4.918169584e-08 	5.753087044e-06
0.4734137249 	0.003303824782 	-0.00150515408 	2.639346167e-08 	0.003586207554 	-5.587201559e-08 	6.836308333e-06
0.4735892875 	0.00380207677 	-0.001804460057 	2.95624528e-08 	0.004154409511 	-6.180890447e-08 	7.919459186e-06
0.4737648501 	0.004287794814 	-0.002097325037 	3.218244113e-08 	0.004709468841 	-6.694328057e-08 	8.977556541e-06
0.4739404128 	0.004753760819 	-0.002377124611 	3.429324083e-08 	0.00524194838 	-7.131190897e-08 	9.992610536e-06
0.4741159754 	0.005195325956 	-0.002639879391 	3.596846017e-08 	0.005745830663 	-7.499892671e-08 	1.095315021e-05
0.474291538 	0.005609938849 	-0.002883682204 	3.729048513e-08 	0.006217888482 	-7.810617253e-08 	1.185302362e-05
0.4744671006 	0.005996629496 	-0.003108078909 	3.833654009e-08 	0.006656965802 	-8.073467949e-08 	1.269002703e-05
0.4746426632 	0.006355543388 	-0.003313542927 	3.917283561e-08 	0.007063330714 	-8.297523217e-08 	1.346467149e-05
0.4748182259 	0.006687563633 	-0.003501083647 	3.985339704e-08 	0.007438161427 	-8.490483626e-08 	1.417920301e-05
0.4749937885 	0.006994025273 	-0.003671978438 	4.042109312e-08 	0.007783168767 	-8.658647283e-08 	1.483688289e-05
0.4751693511 	0.007276510154 	-0.003827600849 	4.090941396e-08 	0.008100334165 	-8.807039998e-08 	1.544148829e-05
0.4753449137 	0.007536705803 	-0.003969316857 	4.134428199e-08 	0.008391735432 	-8.939599554e-08 	1.59969801e-05
0.4755204764 	0.007776312086 	-0.00409842626 	4.174560728e-08 	0.008659437716 	-9.059366009e-08 	1.650729505e-05
0.475696039 	0.007996983098 	-0.00421613293 	4.21285201e-08 	0.008905411396 	-9.168629468e-08 	1.697618925e-05
0.4758716016 	0.008200288663 	-0.004323539259 	4.250437916e-08 	0.009131565919 	-9.269172628e-08 	1.740730263e-05
0.4760471642 	0.008387752089 	-0.004421293691 	4.287822268e-08 	0.009339539078 	-9.362190799e-08 	1.780375727e-05
0.4762227269 	0.008583404688 	-0.004524319808 	4.333327924e-08 	0.009556844437 	-9.460663495e-08 	1.821800168e-05
0.4764955107 	0.008804073871 	-0.004639158283 	4.3884727e-08 	0.009801264674 	-9.572073816e-08 	1.868393459e-05
0.4767734216 	0.009022392344 	-0.004749994805 	4.445117338e-08 	0.01004192081 	-9.681971048e-08 	1.914269208e-05
0.4770565557 	0.00921864816 	-0.004849429739 	4.501715641e-08 	0.01025802008 	-9.781258221e-08 	1.955463734e-05
0.4773450114 	0.009395012056 	-0.004938207586 	4.55833497e-08 	0.01045180253 	-9.870649074e-08 	1.992404056e-05
0.4776388886 	0.009553363316 	-0.005017457116 	4.615441379e-08 	0.01062549271 	-9.950831411e-08 	2.02551423e-05
0.4779382892 	0.009695388002 	-0.005088153774 	4.673375043e-08 	0.01078097923 	-1.002216247e-07 	2.055154283e-05
0.4782433171 	0.00982258867 	-0.0051511505 	4.732375846e-08 	0.01091996677 	-1.008488346e-07 	2.081649172e-05
0.4785540779 	0.009936304458 	-0.005207193875 	4.792594871e-08 	0.01104396556 	-1.01391051e-07 	2.105286787e-05
0.4788706795 	0.01003772854 	-0.005256938043 	4.854102475e-08 	0.01115431718 	-1.018483829e-07 	2.126322872e-05
0.4791932316 	0.01012792438 	-0.005300957094 	4.916894814e-08 	0.01125221346 	-1.02220135e-07 	2.144984625e-05
0.4795218461 	0.01020784035 	-0.005339755847 	4.980899081e-08 	0.01133871449 	-1.025049757e-07 	2.161474126e-05
0.4798566368 	0.0102783229 	-0.005373779185 	5.045977808e-08 	0.01141476422 	-1.027010635e-07 	2.175971317e-05
0.48019772 	0.01034012817 	-0.005403420109 	5.111932437e-08 	0.01148120422 	-1.028061475e-07 	2.188636628e-05
0.4805452138 	0.01039393233 	-0.005429026628 	5.178506364e-08 	0.01153878583 	-1.028176474e-07 	2.199613283e-05
0.4808992388 	0.0104403406 	-0.005450907677 	5.245387616e-08 	0.01158818066 	-1.027327163e-07 	2.209029311e-05
0.4812599177 	0.01047989524 	-0.005469338168 	5.312211304e-08 	0.01162998983 	-1.025482914e-07 	2.216999301e-05
0.4816273755 	0.01051308247 	-0.00548456331 	5.378561986e-08 	0.01166475199 	-1.022611357e-07 	2.223625935e-05
0.4820017397 	0.01054033864 	-0.00549680231 	5.443976041e-08 	0.0116929503 	-1.018678723e-07 	2.229001316e-05
0.48238314 	0.01056205553 	-0.005506251529 	5.507944148e-08 	0.01171501853 	-1.013650147e-07 	2.233208134e-05
0.4827717088 	0.01057858511 	-0.005513087201 	5.569914084e-08 	0.01173134637 	-1.00748994e-07 	2.236320673e-05
0.4831675807 	0.01059024362 	-0.005517467762 	5.629293541e-08 	0.01174228407 	-1.000161843e-07 	2.238405705e-05
0.4835708931 	0.01059731522 	-0.005519535847 	5.685453246e-08 	0.01174814656 	-9.916292797e-08 	2.239523257e-05
0.4839817856 	0.01060005525 	-0.00551942 	5.737730887e-08 	0.01174921692 	-9.818556242e-08 	2.239727298e-05
0.4844004009 	0.01059869299 	-0.005517236171 	5.785435153e-08 	0.01174574963 	-9.708044735e-08 	2.239066336e-05
0.4848268841 	0.01059343423 	-0.005513088991 	5.827850058e-08 	0.01173797325 	-9.584399362e-08 	2.237583942e-05
0.485261383 	0.01058446348 	-0.005507072882 	5.86423993e-08 	0.01172609293 	-9.447269476e-08 	2.235319222e-05
0.4857040484 	0.01057194599 	-0.005499273023 	5.893854808e-08 	0.01171029254 	-9.296316063e-08 	2.232307229e-05
0.4861550336 	0.01055602948 	-0.005489766185 	5.915936288e-08 	0.01169073664 	-9.131215365e-08 	2.22857933e-05
0.4866144951 	0.01053684575 	-0.005478621462 	5.929723844e-08 	0.01166757218 	-8.951662744e-08 	2.22416354e-05
0.4870825921 	0.01051451211 	-0.005465900918 	5.934461572e-08 	0.01164093005 	-8.75737678e-08 	2.21908481e-05
0.487559487 	0.01048913268 	-0.005451660144 	5.929405352e-08 	0.01161092648 	-8.548103573e-08 	2.213365295e-05
0.4880453452 	0.01046079949 	-0.005435948764 	5.913830381e-08 	0.01157766429 	-8.323621232e-08 	2.207024598e-05
0.4885403351 	0.0104295936 	-0.005418810875 	5.88703903e-08 	0.01154123402 	-8.083744495e-08 	2.200079977e-05
0.4890446283 	0.01039558597 	-0.005400285449 	5.848368972e-08 	0.011501715 	-7.82832945e-08 	2.192546552e-05
0.4895583997 	0.01035883841 	-0.00538040669 	5.797201506e-08 	0.01145917624 	-7.557278285e-08 	2.184437483e-05
0.4900818274 	0.01031940429 	-0.005359204362 	5.732969997e-08 	0.01141367736 	-7.270544022e-08 	2.175764131e-05
0.4906150929 	0.01027732931 	-0.005336704094 	5.655168342e-08 	0.01136526936 	-6.96813515e-08 	2.166536221e-05
0.4911583811 	0.01023265217 	-0.005312927654 	5.563359356e-08 	0.01131399538 	-6.650120082e-08 	2.156761976e-05
0.4917118805 	0.01018540515 	-0.005287893218 	5.457182962e-08 	0.01125989141 	-6.316631358e-08 	2.146448256e-05
0.4922757829 	0.01013561471 	-0.005261615619 	5.336364058e-08 	0.01120298692 	-5.967869495e-08 	2.135600678e-05
0.4928502838 	0.01008330202 	-0.005234106586 	5.200719916e-08 	0.0111433055 	-5.604106375e-08 	2.12422374e-05
0.4934355824 	0.01002848349 	-0.005205374978 	5.050166971e-08 	0.01108086543 	-5.225688081e-08 	2.112320929e-05
0.4940318817 	0.009971171195 	-0.005175427014 	4.884726832e-08 	0.01101568028 	-4.833037056e-08 	2.099894827e-05
0.4946393885 	0.009911373387 	-0.005144266498 	4.704531351e-08 	0.0109477594 	-4.42665346e-08 	2.086947219e-05
0.4952583133 	0.009849094904 	-0.005111895042 	4.509826575e-08 	0.01087710845 	-4.007115622e-08 	2.073479185e-05
0.4958888709 	0.009784337607 	-0.005078312294 	4.300975407e-08 	0.01080372995 	-3.575079444e-08 	2.059491202e-05
0.4965312797 	0.009717100794 	-0.005043516153 	4.0784588e-08 	0.01072762368 	-3.131276639e-08 	2.044983231e-05
0.4971857627 	0.009647381613 	-0.005007503001 	3.842875313e-08 	0.01064878723 	-2.676511688e-08 	2.029954813e-05
0.4978525466 	0.009575175459 	-0.00497026792 	3.594938877e-08 	0.01056721642 	-2.211657392e-08 	2.014405151e-05
0.4985318627 	0.009500476384 	-0.004931804914 	3.335474633e-08 	0.01048290578 	-1.737648924e-08 	1.998333199e-05
0.4992239466 	0.009423277489 	-0.004892107127 	3.065412735e-08 	0.01039584895 	-1.255476287e-08 	1.981737747e-05
0.4999290382 	0.009343571328 	-0.00485116705 	2.78578003e-08 	0.01030603912 	-7.661750984e-09 	1.964617498e-05
0.5006473819 	0.009261350299 	-0.004808976721 	2.497689609e-08 	0.01021346947 	-2.708156151e-09 	1.946971149e-05
0.501379227 	0.009176607037 	-0.004765527896 	2.202328249e-08 	0.01011813356 	2.295099661e-09 	1.928797476e-05
0.502124827 	0.009089334811 	-0.00472081219 	1.900941813e-08 	0.01002002561 	7.337005211e-09 	1.910095374e-05
0.5028844406 	0.008999527902 	-0.00467482113 	1.594818767e-08 	0.009919140952 	1.240660602e-08 	1.890863954e-05
0.5036583311 	0.008907182245 	-0.004627546271 	1.285271942e-08 	0.009815470499 	1.749320851e-08 	1.871101484e-05
0.5044467669 	0.008812294199 	-0.004578980159 	9.736220158e-09 	0.009709029937 	2.258766206e-08 	1.850810954e-05
0.5052500214 	0.008714868127 	-0.00452907521 	6.611557408e-09 	0.009599809607 	2.768039618e-08 	1.829990524e-05
0.506068373 	0.008601912 	-0.004471881031 	3.075104772e-09 	0.009473501409 	3.340952476e-08 	1.805912671e-05
0.507324668 	0.008460088585 	-0.00439978537 	-1.177985073e-09 	0.009314940168 	4.034180185e-08 	1.775686491e-05
0.5085949819 	0.00830235409 	-0.004318723125 	-5.64994925e-09 	0.009138462342 	4.773332394e-08 	1.742044913e-05
0.5098794711 	0.008141672685 	-0.004236112765 	-9.951851777e-09 	0.008958868919 	5.493581036e-08 	1.707809415e-05
0.5111782938 	0.007978169808 	-0.004151966978 	-1.407171853e-08 	0.008776282533 	6.19524407e-08 	1.673003375e-05
0.5124916099 	0.007811953579 	-0.004066352578 	-1.800660236e-08 	0.008590855484 	6.879401669e-08 	1.637655826e-05
0.5138195812 	0.007643127233 	-0.003979333202 	-2.176031188e-08 	0.008402698527 	7.547507794e-08 	1.60178788e-05
0.5151623712 	0.007471788131 	-0.003890969142 	-2.534239811e-08 	0.008211923526 	8.201408196e-08 	1.565420863e-05
0.5165201452 	0.007298029003 	-0.003801316794 	-2.876719736e-08 	0.00801863435 	8.843217007e-08 	1.528574574e-05
0.5178930705 	0.00712193871 	-0.00371042812 	-3.205288047e-08 	0.007822928434 	9.475210151e-08 	1.491267587e-05
0.5192813161 	0.006943603112 	-0.003618350379 	-3.522053553e-08 	0.0076248976 	1.009972001e-07 	1.453517406e-05
0.520685053 	0.006763106062 	-0.003525125988 	-3.829330178e-08 	0.007424629402 	1.071903439e-07 	1.415340721e-05
0.522104454 	0.006580530623 	-0.003430792501 	-4.129557046e-08 	0.007222208541 	1.133529636e-07 	1.376753679e-05
0.523539694 	0.006395960613 	-0.003335382659 	-4.425224737e-08 	0.007017718579 	1.195041114e-07 	1.337772208e-05
0.5249909497 	0.006209482728 	-0.003238924558 	-4.718806052e-08 	0.006811243934 	1.256590312e-07 	1.298412403e-05
0.5264583998 	0.006021189561 	-0.003141442006 	-5.01275939e-08 	0.006602873908 	1.318260792e-07 	1.258691284e-05
0.527942225 	0.005831184202 	-0.00304295574 	-5.308294147e-08 	0.006392708545 	1.380028646e-07 	1.218627925e-05
0.5294426081 	0.005639604426 	-0.002943515594 	-5.602579338e-08 	0.006180890249 	1.440937805e-07 	1.17824947e-05
0.5309597337 	0.005446762599 	-0.002843201786 	-5.895986626e-08 	0.005967728073 	1.49859413e-07 	1.137614835e-05
0.5324937889 	0.005253283244 	-0.002742061165 	-6.196163266e-08 	0.005753798625 	1.550692887e-07 	1.096833936e-05
0.5340449624 	0.005059967604 	-0.002640096837 	-6.506414989e-08 	0.005539820538 	1.596604972e-07 	1.056043766e-05
0.5356134452 	0.004867536103 	-0.00253731636 	-6.824131703e-08 	0.005326441386 	1.63728583e-07 	1.015367769e-05
0.5371994306 	0.004676516274 	-0.002433757996 	-7.146980619e-08 	0.005114150023 	1.674057975e-07 	9.748991348e-06
0.5388031139 	0.004487267986 	-0.00232948085 	-7.473631269e-08 	0.004903297922 	1.707822547e-07 	9.34704864e-06
0.5404246925 	0.004300039725 	-0.002224552737 	-7.802872975e-08 	0.004694144789 	1.739120446e-07 	8.948344638e-06
0.5420643661 	0.004115005257 	-0.002119050932 	-8.132883911e-08 	0.004486890608 	1.768238214e-07 	8.553260566e-06
0.5437223366 	0.003932291226 	-0.00201306499 	-8.461262476e-08 	0.004281701105 	1.795226803e-07 	8.162112343e-06
0.5453988083 	0.003752003556 	-0.001906699475 	-8.785000189e-08 	0.004078732601 	1.819882621e-07 	7.775197962e-06
0.5470939875 	0.003574254743 	-0.00180007712 	-9.100430444e-08 	0.003878157842 	1.841718744e-07 	7.392846724e-06
0.5488080831 	0.003399191318 	-0.001693342526 	-9.403166092e-08 	0.003680192342 	1.859946207e-07 	7.01546946e-06
0.5505413061 	0.003227019338 	-0.001586666438 	-9.688033288e-08 	0.003485119505 	1.873475746e-07 	6.643606416e-06
0.5522938699 	0.003058025928 	-0.001480250563 	-9.949009911e-08 	0.003293312779 	1.880938938e-07 	6.277969486e-06
0.5540659904 	0.002892595721 	-0.001374332833 	-1.017917739e-07 	0.003105253813 	1.880722491e-07 	5.919476828e-06
0.5558578859 	0.002731221968 	-0.001269192932 	-1.037070125e-07 	0.00292154632 	1.871010685e-07 	5.569279288e-06
0.5576697768 	0.002574512502 	-0.001165157742 	-1.051486874e-07 	0.002742925573 	1.8498371e-07 	5.228778498e-06
0.5595018865 	0.002423190411 	-0.001062606125 	-1.060223052e-07 	0.002570262954 	1.815154378e-07 	4.899635558e-06
0.5613544406 	0.002278088517 	-0.000961971975 	-1.062291341e-07 	0.00240456394 	1.764937298e-07 	4.583767184e-06
0.563227667 	0.002140135663 	-0.0008637439953 	-1.056718624e-07 	0.002246956426 	1.697337956e-07 	4.283323458e-06
0.5651217966 	0.002010331905 	-0.0007684600366 	-1.042635571e-07 	0.002098664961 	1.610910131e-07 	4.00063871e-06
0.5670370626 	0.001889709328 	-0.0006766934793 	-1.019402344e-07 	0.001960965664 	1.504909544e-07 	3.738145579e-06
0.5689737009 	0.0017792758 	-0.0005890293609 	-9.867624814e-08 	0.001835117261 	1.379653655e-07 	3.498243544e-06
0.5709319499 	0.001679941137 	-0.0005060292898 	-9.449991138e-08 	0.00172226674 	1.236885604e-07 	3.283119086e-06
0.5729120508 	0.001592428924 	-0.0004281870028 	-8.950483655e-08 	0.001623333903 	1.080050358e-07 	3.094525601e-06
0.5749142474 	0.001517181995 	-0.0003558806228 	-8.384990451e-08 	0.001538887497 	9.143240826e-08 	2.933547281e-06
0.5769387863 	0.001454278667 	-0.0002893285231 	-7.776443049e-08 	0.001469038125 	7.462598911e-08 	2.800394965e-06
0.5789859169 	0.001403396833 	-0.0002285960705 	-7.139492514e-08 	0.001413396468 	5.793751238e-08 	2.694326501e-06
0.5810558911 	0.001364193947 	-0.000173617193 	-6.497283561e-08 	0.001371455109 	4.155305718e-08 	2.614374614e-06
0.583148964 	0.001336282192 	-0.0001241238777 	-5.883955599e-08 	0.001342574753 	2.61821013e-08 	2.559320629e-06
0.5852653933 	0.00131868499 	-7.967927538e-05 	-5.312124141e-08 	0.001325479786 	1.255140231e-08 	2.526732871e-06
0.5874054395 	0.001310028709 	-3.9799549e-05 	-4.788150852e-08 	0.001318492762 	8.875998706e-10 	2.51341366e-06
0.5895693664 	0.001308925727 	-3.971890072e-06 	-4.319321133e-08 	0.001319943999 	-8.833533226e-09 	2.516180122e-06
0.5917574402 	0.001314059065 	2.832815933e-05 	-3.906742106e-08 	0.001328273858 	-1.674445514e-08 	2.532059148e-06
0.5939699306 	0.001324233542 	5.760351897e-05 	-3.548668441e-08 	0.001342093037 	-2.304521431e-08 	2.558402344e-06
0.5962071099 	0.001338402045 	8.431950714e-05 	-3.241317547e-08 	0.001360208859 	-2.796452235e-08 	2.592936136e-06
0.5984692536 	0.001355672023 	0.0001088947801 	-2.979731793e-08 	0.001381625786 	-3.172977925e-08 	2.633762751e-06
0.6007566404 	0.001375298551 	0.0001316977248 	-2.758445395e-08 	0.001405530053 	-3.454910976e-08 	2.679330927e-06
0.6030695519 	0.001396669625 	0.0001530468435 	-2.571966435e-08 	0.001431266431 	-3.660278141e-08 	2.728391618e-06
0.6054082729 	0.00141928797 	0.0001732137623 	-2.415086582e-08 	0.001458312649 	-3.804108355e-08 	2.779949226e-06
0.6077730914 	0.001442752364 	0.0001924276765 	-2.283048463e-08 	0.001486254871 	-3.898611966e-08 	2.833214867e-06
0.6101642987 	0.001466740417 	0.000210880334 	-2.171614136e-08 	0.001514766111 	-3.953568438e-08 	2.887565215e-06
0.6125821893 	0.001490993851 	0.0002287309932 	-2.077077673e-08 	0.001543588374 	-3.976793829e-08 	2.94250846e-06
0.6150270608 	0.001515306636 	0.0002461110868 	-1.996253448e-08 	0.001572518607 	-3.974596174e-08 	2.997657524e-06
0.6174992144 	0.001539515776 	0.0002631285092 	-1.926456198e-08 	0.001601398024 	-3.952156306e-08 	3.05270972e-06
0.6199989545 	0.001563494191 	0.0002798715216 	-1.865475654e-08 	0.001630104087 	-3.913802317e-08 	3.107431453e-06
0.622526589 	0.00158714504 	0.0002964122664 	-1.811541962e-08 	0.00165854432 	-3.863178163e-08 	3.161646443e-06
0.625082429 	0.001610396904 	0.0003128098596 	-1.763279001e-08 	0.001686651266 	-3.803333133e-08 	3.215226094e-06
0.6276667894 	0.001633199475 	0.0003291130231 	-1.719647765e-08 	0.001714378101 	-3.736770459e-08 	3.268081147e-06
0.6302799884 	0.001655519621 	0.0003453622431 	-1.679885915e-08 	0.001741694698 	-3.665488306e-08 	3.320154174e-06
0.6329223478 	0.001677337839 	0.0003615914745 	-1.64345001e-08 	0.001768584114 	-3.591031494e-08 	3.371412875e-06
0.6355941931 	0.001698645175 	0.0003778294467 	-1.609964685e-08 	0.001795039528 	-3.514557053e-08 	3.421844246e-06
0.6382958531 	0.001719440656 	0.0003941006332 	-1.57918042e-08 	0.001821061686 	-3.436907458e-08 	3.471449712e-06
0.6410276607 	0.001739729247 	0.000410425955 	-1.550939803e-08 	0.001846656862 	-3.358682895e-08 	3.520241231e-06
0.6437899523 	0.001759520279 	0.0004268232755 	-1.52515138e-08 	0.001871835277 	-3.280305776e-08 	3.568238288e-06
0.646583068 	0.001778826286 	0.0004433077377 	-1.501769915e-08 	0.001896609924 	-3.202073998e-08 	3.615465651e-06
0.6494073518 	0.001797662161 	0.0004598919853 	-1.480781852e-08 	0.001920995706 	-3.124202268e-08 	3.661951728e-06
0.6522631514 	0.001816044549 	0.0004765862982 	-1.462194853e-08 	0.001945008815 	-3.046852626e-08 	3.707727388e-06
0.6551508186 	0.001833991424 	0.0004933986674 	-1.446030402e-08 	0.001968666288 	-2.970156098e-08 	3.752825108e-06
0.658070709 	0.001851521784 	0.0005103348281 	-1.432318637e-08 	0.001991985681 	-2.894227545e-08 	3.797278351e-06
0.6610231822 	0.001868655428 	0.0005273982619 	-1.421094733e-08 	0.002014984822 	-2.819175544e-08 	3.841121107e-06
0.6640086017 	0.001885412794 	0.0005445901799 	-1.412396318e-08 	0.002037681626 	-2.745108816e-08 	3.884387523e-06
0.6670273351 	0.001901814832 	0.0005619094915 	-1.406261545e-08 	0.002060093933 	-2.672140275e-08 	3.927111611e-06
0.6700797543 	0.001917882901 	0.0005793527654 	-1.402727548e-08 	0.002082239378 	-2.600389529e-08 	3.969326984e-06
0.6731662352 	0.001933638686 	0.0005969141853 	-1.401829074e-08 	0.00210413526 	-2.529984323e-08 	4.01106662e-06
0.6762871577 	0.001949104126 	0.0006145855041 	-1.403597193e-08 	0.002125798429 	-2.461061308e-08 	4.05236264e-06
0.6794429063 	0.001964301352 	0.0006323559993 	-1.408057962e-08 	0.002147245166 	-2.393766298e-08 	4.093246082e-06
0.6826338695 	0.001979252634 	0.0006502124322 	-1.415231029e-08 	0.002168491074 	-2.328254179e-08 	4.133746688e-06
0.6858604404 	0.001993980338 	0.0006681390135 	-1.425128106e-08 	0.00218955096 	-2.264688484e-08 	4.173892685e-06
0.6891230163 	0.002008506887 	0.0006861173787 	-1.437751332e-08 	0.002210438721 	-2.203240698e-08 	4.213710563e-06
0.6924219988 	0.002022854733 	0.0007041265759 	-1.4530915e-08 	0.002231167229 	-2.144089272e-08 	4.25322486e-06
0.6957577944 	0.002037046336 	0.0007221430705 	-1.47112615e-08 	0.002251748216 	-2.087418358e-08 	4.292457941e-06
0.6991308138 	0.002051104153 	0.0007401407695 	-1.491817554e-08 	0.002272192165 	-2.033416239e-08 	4.331429789e-06
0.7025414724 	0.002065050628 	0.0007580910711 	-1.515110579e-08 	0.002292508198 	-1.982273463e-08 	4.370157795e-06
0.7059901901 	0.002078908203 	0.0007759629431 	-1.540930457e-08 	0.002312703983 	-1.934180661e-08 	4.408656575e-06
0.7094773917 	0.002092699322 	0.000793723036 	-1.569180469e-08 	0.002332785641 	-1.889326052e-08 	4.446937795e-06
0.7130035066 	0.002106446459 	0.0008113358366 	-1.599739544e-08 	0.002352757669 	-1.847892632e-08 	4.485010033e-06
0.7165689691 	0.002120172141 	0.0008287638673 	-1.632459802e-08 	0.002372622894 	-1.810055049e-08 	4.522878672e-06
0.7201742182 	0.002133898992 	0.0008459679382 	-1.667164024e-08 	0.002392382435 	-1.775976171e-08 	4.560545849e-06
0.7238196978 	0.002147649771 	0.0008629074588 	-1.70364309e-08 	0.002412035728 	-1.745803277e-08 	4.598010488e-06
0.727505857 	0.002161447426 	0.0008795408175 	-1.74165337e-08 	0.002431580477 	-1.71966434e-08 	4.635268212e-06
0.7312331497 	0.002175315151 	0.0008958258545 	-1.780913991e-08 	0.002451012758 	-1.697664075e-08 	4.67231154e-06
0.7350020349 	0.002189239825 	0.0009116768828 	-1.821014048e-08 	0.002470276229 	-1.679917203e-08 	4.70903307e-06
0.7387709215 	0.002203127788 	0.0009269276417 	-1.861272507e-08 	0.002489207319 	-1.666515111e-08 	4.74512099e-06
0.7424982157 	0.002216885135 	0.000941439259 	-1.900951756e-08 	0.002507654031 	-1.657362169e-08 	4.780285549e-06
0.7461843763 	0.002230497645 	0.0009551781846 	-1.939543946e-08 	0.00252558108 	-1.652178699e-08 	4.814459487e-06
0.7498298574 	0.002243986055 	0.0009681543813 	-1.976674743e-08 	0.002543003194 	-1.650627114e-08 	4.847670878e-06
0.7534351078 	0.002257369405 	0.0009803819837 	-2.011983152e-08 	0.002559935242 	-1.652351439e-08 	4.879948069e-06
0.7570005716 	0.002270665286 	0.0009918792113 	-2.045122052e-08 	0.002576392564 	-1.656979415e-08 	4.911320299e-06
0.7605266877 	0.002283890065 	0.001002668233 	-2.075759566e-08 	0.002592391368 	-1.664124121e-08 	4.941818466e-06
0.7640138905 	0.002297059111 	0.001012775011 	-2.103580142e-08 	0.002607949008 	-1.673385811e-08 	4.971475652e-06
0.7674626093 	0.002310187012 	0.001022229128 	-2.128285389e-08 	0.002623084238 	-1.684353472e-08 	5.000327607e-06
0.770873269 	0.002323287783 	0.001031063592 	-2.149594763e-08 	0.002637817428 	-1.696606122e-08 	5.028413161e-06
0.7742462894 	0.002336375075 	0.001039314635 	-2.167245703e-08 	0.00265217075 	-1.709713793e-08 	5.055774582e-06
0.777582086 	0.002349462383 	0.001047021512 	-2.180993813e-08 	0.002666168346 	-1.723238344e-08 	5.082457891e-06
0.7808810695 	0.002362563254 	0.001054226282 	-2.190612947e-08 	0.002679836464 	-1.736734034e-08 	5.108513123e-06
0.7841436462 	0.002375691509 	0.001060973595 	-2.195894795e-08 	0.00269320358 	-1.749747722e-08 	5.133994561e-06
0.787370218 	0.002388861459 	0.001067310483 	-2.196648474e-08 	0.002706300505 	-1.761818777e-08 	5.158960941e-06
0.7905611821 	0.002402088133 	0.001073286149 	-2.192699961e-08 	0.002719160492 	-1.772478703e-08 	5.18347565e-06
0.7937169314 	0.002415387515 	0.001078951778 	-2.183891441e-08 	0.002731819328 	-1.781250553e-08 	5.207606909e-06
0.7968378547 	0.002428776786 	0.001084360341 	-2.170080608e-08 	0.002744315429 	-1.787648102e-08 	5.231427951e-06
0.7999243362 	0.002442274575 	0.001089566416 	-2.151139921e-08 	0.002756689941 	-1.791174833e-08 	5.25501721e-06
0.8029767561 	0.002455901217 	0.001094626019 	-2.12695587e-08 	0.002768986837 	-1.791322774e-08 	5.278458512e-06
0.8059954902 	0.002469679021 	0.001099596449 	-2.097428255e-08 	0.002781253028 	-1.787571241e-08 	5.30184128e-06
0.8089809102 	0.002483632545 	0.001104536133 	-2.062469541e-08 	0.002793538473 	-1.779385551e-08 	5.325260754e-06
0.8119333839 	0.002497788872 	0.001109504494 	-2.022004279e-08 	0.002805896309 	-1.766215776e-08 	5.348818224e-06
0.8148532749 	0.002512177892 	0.001114561817 	-1.975968648e-08 	0.002818382978 	-1.747495634e-08 	5.372621286e-06
0.8177409426 	0.002526832585 	0.00111976913 	-1.924310142e-08 	0.002831058368 	-1.722641609e-08 	5.396784102e-06
0.8205967427 	0.002541789303 	0.001125188085 	-1.866987419e-08 	0.002843985956 	-1.691052432e-08 	5.421427678e-06
0.8234210268 	0.002557088043 	0.001130880842 	-1.80397036e-08 	0.002857232956 	-1.652109043e-08 	5.446680141e-06
0.8262141429 	0.002572772712 	0.001136909961 	-1.735240365e-08 	0.00287087046 	-1.605175199e-08 	5.472677013e-06
0.8289764348 	0.002588891373 	0.001143338282 	-1.660790938e-08 	0.002884973578 	-1.549598902e-08 	5.499561477e-06
0.8317082427 	0.002605496477 	0.001150228801 	-1.580628587e-08 	0.002899621562 	-1.484714835e-08 	5.527484605e-06
0.8344099031 	0.002622645056 	0.001157644546 	-1.494774112e-08 	0.002914897902 	-1.409848034e-08 	5.556605554e-06
0.8370817486 	0.002640398884 	0.001165648422 	-1.403264305e-08 	0.002930890398 	-1.324318989e-08 	5.587091697e-06
0.8397241082 	0.00265882459 	0.001174303058 	-1.306154115e-08 	0.002947691186 	-1.227450429e-08 	5.619118669e-06
0.8423373074 	0.002677993715 	0.001183670617 	-1.203519304e-08 	0.00296539671 	-1.118575954e-08 	5.652870318e-06
0.844921668 	0.002697982702 	0.00119381259 	-1.095459584e-08 	0.002984107621 	-9.970506787e-09 	5.688538516e-06
0.8474775082 	0.002718872809 	0.001204789558 	-9.821021921e-09 	0.003003928608 	-8.622639404e-09 	5.726322825e-06
0.8500051427 	0.002740749928 	0.001216660923 	-8.636058176e-09 	0.003024968119 	-7.136540168e-09 	5.766429981e-06
0.8525048829 	0.00276370432 	0.00122948461 	-7.401646895e-09 	0.003047337989 	-5.507246278e-09 	5.80907317e-06
0.8549770366 	0.002787830229 	0.001243316735 	-6.120125993e-09 	0.003071152945 	-3.73062816e-09 	5.854471097e-06
0.8574219081 	0.0028132254 	0.001258211244 	-4.794265347e-09 	0.003096529997 	-1.803576031e-09 	5.90284681e-06
0.8598397987 	0.002839990471 	0.001274219527 	-3.427295533e-09 	0.003123587694 	2.758136963e-10 	5.9544263e-06
0.862231006 	0.002868228263 	0.001291390023 	-2.022925075e-09 	0.003152445273 	2.508061399e-09 	6.009436866e-06
0.8645958245 	0.002898042961 	0.001309767809 	-5.853425347e-10 	0.00318322169 	4.892146536e-09 	6.068105272e-06
0.8669345455 	0.002929539191 	0.001329394197 	8.807992362e-10 	0.00321603456 	7.425378756e-09 	6.130655723e-06
0.8692474569 	0.002962821025 	0.001350306358 	2.370417888e-09 	0.003250999019 	1.010330591e-08 	6.197307699e-06
0.8715348435 	0.002997990906 	0.001372536967 	3.878054586e-09 	0.003288226539 	1.291966467e-08 	6.268273699e-06
0.8737969871 	0.003035148538 	0.0013961139 	5.397942076e-09 	0.003327823727 	1.586637611e-08 	6.343756944e-06
0.8760341663 	0.003074389745 	0.001421059985 	6.924082408e-09 	0.003369891127 	1.893358537e-08 	6.423949102e-06
0.8782466565 	0.003115805331 	0.001447392818 	8.450327044e-09 	0.003414522071 	2.210974071e-08 	6.509028084e-06
0.8804347301 	0.003159479962 	0.001475124648 	9.970451012e-09 	0.003461801586 	2.538170444e-08 	6.59915598e-06
0.8825986568 	0.003205491099 	0.001504262327 	1.147821251e-08 	0.003511805406 	2.873488604e-08 	6.694477159e-06
0.8847387028 	0.003253907992 	0.001534807323 	1.296739015e-08 	0.003564599087 	3.21533863e-08 	6.79511659e-06
0.8868551318 	0.003304790763 	0.00156675579 	1.443179165e-08 	0.003620237253 	3.562014131e-08 	6.901178397e-06
0.8889482045 	0.003358189584 	0.001600098685 	1.586523032e-08 	0.003678762967 	3.911705564e-08 	7.012744674e-06
0.8910181784 	0.003414143968 	0.001634821904 	1.726146844e-08 	0.003740207247 	4.262511599e-08 	7.12987455e-06
0.8930653087 	0.003472682176 	0.001670906447 	1.861413001e-08 	0.003804588709 	4.612447898e-08 	7.25260351e-06
0.8950898473 	0.003533820732 	0.001708328569 	1.991658826e-08 	0.003871913326 	4.959452971e-08 	7.380942942e-06
0.8970920436 	0.003597564063 	0.001747059933 	2.116183669e-08 	0.003942174304 	5.301391165e-08 	7.514879894e-06
0.8990721441 	0.003663904237 	0.001787067727 	2.234235463e-08 	0.004015352046 	5.63605317e-08 	7.65437701e-06
0.9010303927 	0.003732820807 	0.001828314753 	2.34499806e-08 	0.004091414193 	5.961154851e-08 	7.799372601e-06
0.9029670306 	0.003804280749 	0.001870759483 	2.447580793e-08 	0.004170315718 	6.274335505e-08 	7.949780839e-06
0.9048822962 	0.003878238474 	0.001914356073 	2.541011747e-08 	0.004251999078 	6.573156958e-08 	8.105492024e-06
0.9067764254 	0.003954635923 	0.00195905435 	2.624236208e-08 	0.004336394379 	6.855105108e-08 	8.266372924e-06
0.9086496514 	0.004033402726 	0.002004799778 	2.696121586e-08 	0.004423419582 	7.117595612e-08 	8.432267149e-06
0.910502205 	0.004114456436 	0.002051533408 	2.7554699e-08 	0.004512980726 	7.357985418e-08 	8.602995581e-06
0.9123343142 	0.004197702817 	0.002099191846 	2.801038628e-08 	0.004604972172 	7.573591694e-08 	8.778356846e-06
0.9141462048 	0.004283036218 	0.002147707242 	2.831570305e-08 	0.004699276892 	7.761719472e-08 	8.958127853e-06
0.9159380997 	0.004370340014 	0.002197007322 	2.84583086e-08 	0.004795766792 	7.919698951e-08 	9.142064421e-06
0.9177102197 	0.00445948714 	0.002247015498 	2.84265622e-08 	0.004894303112 	8.044932951e-08 	9.329902033e-06
0.9194627831 	0.004550340724 	0.002297651058 	2.821006223e-08 	0.0049947369 	8.134954475e-08 	9.521356747e-06
0.9211960055 	0.004642754829 	0.002348829461 	2.780024435e-08 	0.005096909599 	8.187493745e-08 	9.716126308e-06
0.9229101006 	0.004736575323 	0.002400462753 	2.719102053e-08 	0.005200653754 	8.200553474e-08 	9.913891501e-06
0.9246052793 	0.004831640875 	0.002452460116 	2.637943674e-08 	0.005305793866 	8.172490497e-08 	1.011431778e-05