6.019744331e-37 	0.00274779012 	-1.122519937e-16 	-6.446713237e-24 	4.585688697e-30 	2.633594206e-37 	1.512492212e-44
0.0003137191626 	0.002747674434 	1.165403409e-05 	-2.10671592e-10 	0.003731810971 	1.199989054e-08 	7.113868914e-06
0.0006274377305 	0.002748094666 	-1.661894596e-05 	-2.247017841e-11 	0.003774259645 	3.335451669e-09 	7.194787885e-06
0.0007529268723 	0.002748420361 	-2.093418813e-05 	-4.331180878e-08 	0.003776187269 	-3.28689803e-05 	7.198462472e-06
0.000941155703 	0.00274889682 	-2.740650273e-05 	-5.032988238e-11 	0.003779067067 	5.507902538e-09 	7.203952168e-06
0.001254873079 	0.002749678225 	-3.729634151e-05 	-1.689076835e-10 	0.003784996349 	1.461673008e-08 	7.215255027e-06
0.001568589859 	0.002750819427 	-4.692151366e-05 	-3.354935766e-10 	0.00378691243 	2.368988562e-08 	7.21890761e-06
0.001882306041 	0.00275220945 	-5.645145381e-05 	-5.512150093e-10 	0.00378916125 	3.270135159e-08 	7.223194486e-06
0.002196021624 	0.002753855222 	-6.593938226e-05 	-8.16093409e-10 	0.003791623944 	4.164269462e-08 	7.227889065e-06
0.00250973661 	0.002755755112 	-7.540626658e-05 	-1.129870584e-09 	0.003794378334 	5.050196249e-08 	7.233139698e-06
0.002823450996 	0.002757908946 	-8.486175346e-05 	-1.492177731e-09 	0.003797427219 	5.926860741e-08 	7.23895172e-06
0.003137164783 	0.002760315478 	-9.431077598e-05 	-1.902589415e-09 	0.00380079371 	6.793121518e-08 	7.245369188e-06
0.003450877969 	0.002762973513 	-0.000103756093 	-2.360639979e-09 	0.003804488595 	7.647860577e-08 	7.252412664e-06
0.003764590556 	0.002765881791 	-0.0001131993628 	-2.865830065e-09 	0.003808518021 	8.489979083e-08 	7.26009387e-06
0.004078302543 	0.002769038972 	-0.0001226416507 	-3.417629169e-09 	0.003812885468 	9.318401663e-08 	7.268419439e-06
0.004392013928 	0.002772443617 	-0.0001320836854 	-4.015476821e-09 	0.00381759309 	1.013207711e-07 	7.277393475e-06
0.004705724713 	0.002776094188 	-0.0001415259971 	-4.658783267e-09 	0.003822642173 	1.092998098e-07 	7.287018429e-06
0.005019434897 	0.002779989042 	-0.0001509689956 	-5.346930068e-09 	0.003828033423 	1.171111802e-07 	7.297295651e-06
0.00533314448 	0.002784126431 	-0.0001604130158 	-6.079270545e-09 	0.003833767144 	1.247452427e-07 	7.308225717e-06
0.005646853463 	0.002788504502 	-0.0001698583464 	-6.855130396e-09 	0.003839843344 	1.321926921e-07 	7.319808643e-06
0.005960561844 	0.002793121291 	-0.000179305247 	-7.67380842e-09 	0.003846261801 	1.394445783e-07 	7.332044006e-06
0.006274269624 	0.00279797472 	-0.0001887539598 	-8.534577287e-09 	0.003853022108 	1.464923244e-07 	7.344931029e-06
0.006587976804 	0.002803062588 	-0.0001982047171 	-9.436684426e-09 	0.0038601237 	1.533277437e-07 	7.358468639e-06
0.006901683384 	0.002808382556 	-0.0002076577459 	-1.037935309e-08 	0.003867565884 	1.599430521e-07 	7.372655509e-06
0.007215389363 	0.002813932098 	-0.0002171132708 	-1.136178342e-08 	0.003875347859 	1.663308802e-07 	7.387490117e-06
0.007529094743 	0.002819708426 	-0.0002265715139 	-1.238315349e-08 	0.00388346876 	1.724842887e-07 	7.402970811e-06
0.007842799523 	0.002825708298 	-0.0002360326931 	-1.344261986e-08 	0.00389192776 	1.78396707e-07 	7.419096017e-06
0.008156503703 	0.002831927634 	-0.0002454970147 	-1.453931818e-08 	0.003900724257 	1.840614564e-07 	7.435864583e-06
0.008470207286 	0.002838360691 	-0.0002549646633 	-1.567236666e-08 	0.003909858513 	1.894708005e-07 	7.453277014e-06
0.00878391027 	0.00284499854 	-0.000264435825 	-1.68408658e-08 	0.003919330386 	1.946212557e-07 	7.471333038e-06
0.009097612657 	0.002851826209 	-0.0002739097804 	-1.804349291e-08 	0.003929144593 	1.995330301e-07 	7.490041643e-06
0.009411314447 	0.002859831382 	-0.0002847080358 	-1.937273471e-08 	0.003940742567 	2.038396005e-07 	7.512150605e-06
0.009898733563 	0.002870267186 	-0.0002982141708 	-2.126885095e-08 	0.003955891498 	2.1102389e-07 	7.541028679e-06
0.01039531224 	0.002882497772 	-0.0003132466757 	-2.336578657e-08 	0.003973585341 	2.173903094e-07 	7.574758062e-06
0.01090122258 	0.002895617496 	-0.0003285705973 	-2.55806792e-08 	0.003992517786 	2.233120061e-07 	7.610848563e-06
0.01141663991 	0.002909636424 	-0.0003441971903 	-2.791386764e-08 	0.004012737983 	2.287975168e-07 	7.649393879e-06
0.01194174287 	0.002924573499 	-0.0003601332532 	-3.036638946e-08 	0.004034287779 	2.338238851e-07 	7.690473779e-06
0.01247671344 	0.002940451509 	-0.0003763860387 	-3.293895349e-08 	0.004057208921 	2.383656248e-07 	7.734167846e-06
0.01302173702 	0.0029572951 	-0.0003929631005 	-3.563191247e-08 	0.004081541502 	2.423995673e-07 	7.780552508e-06
0.0135770025 	0.002975129712 	-0.00040987229 	-3.8445218e-08 	0.004107324936 	2.459038794e-07 	7.8297029e-06
0.01414270231 	0.002993981037 	-0.0004271217592 	-4.137838343e-08 	0.004134598071 	2.488574435e-07 	7.881693075e-06
0.0147190325 	0.003013874734 	-0.0004447199672 	-4.443044344e-08 	0.004163399225 	2.512398438e-07 	7.936596081e-06
0.01530619282 	0.003034836249 	-0.0004626756919 	-4.759990987e-08 	0.00419376616 	2.530314275e-07 	7.994483897e-06
0.01590438673 	0.003056890703 	-0.0004809980426 	-5.088472428e-08 	0.004225736024 	2.542133472e-07 	8.055427345e-06
0.01651382157 	0.003080062785 	-0.0004996964754 	-5.428220748e-08 	0.004259345309 	2.547675937e-07 	8.119495983e-06
0.01713470852 	0.003104376667 	-0.0005187808077 	-5.778900649e-08 	0.004294629777 	2.546769938e-07 	8.186757985e-06
0.01776726278 	0.003129855886 	-0.0005382612373 	-6.140104074e-08 	0.004331624469 	2.539251475e-07 	8.25728015e-06
0.01841170354 	0.003156523215 	-0.0005581482533 	-6.511337396e-08 	0.004370363868 	2.524962515e-07 	8.331128212e-06
0.01906825416 	0.003184400207 	-0.0005784592632 	-6.892048959e-08 	0.004410881812 	2.503774095e-07 	8.408366676e-06
0.01973714216 	0.003213540015 	-0.0005992409381 	-7.280388229e-08 	0.004453259194 	2.475450769e-07 	8.489149744e-06
0.02042153748 	0.003244026723 	-0.0006205016448 	-7.679011626e-08 	0.004497611755 	2.440267573e-07 	8.573698052e-06
0.02112091823 	0.003275881015 	-0.0006422566334 	-8.087945125e-08 	0.004543965663 	2.39793804e-07 	8.662061484e-06
0.02183344139 	0.003309069261 	-0.0006645170985 	-8.502898725e-08 	0.004592276303 	2.3481131e-07 	8.754154991e-06
0.02255935386 	0.003343587219 	-0.0006872604843 	-8.923269021e-08 	0.004642538451 	2.290827187e-07 	8.849968615e-06
0.02329890722 	0.003379452289 	-0.0007105016615 	-9.137084422e-08 	0.004694779552 	2.175722041e-07 	8.949554673e-06
0.02405235775 	0.003416681323 	-0.0007342551916 	-8.951178999e-08 	0.004749026036 	1.971725332e-07 	9.052963548e-06
0.02481996657 	0.003455290441 	-0.0007585362254 	-8.742635519e-08 	0.004805303508 	1.775897534e-07 	9.160244052e-06
0.02560199967 	0.003495294973 	-0.0007833605021 	-8.511594802e-08 	0.004863636462 	1.588492277e-07 	9.271442874e-06
0.02639872806 	0.003536709415 	-0.0008087443645 	-8.25830351e-08 	0.004924048359 	1.40975095e-07 	9.38660474e-06
0.02721042784 	0.003579547413 	-0.0008347047749 	-7.983124111e-08 	0.00498656165 	1.239903054e-07 	9.505772448e-06
0.02803738028 	0.003623821749 	-0.0008612593298 	-7.686545272e-08 	0.00505119779 	1.079166971e-07 	9.628986896e-06
0.02887987195 	0.003669544334 	-0.000888426274 	-7.369192673e-08 	0.005117977246 	9.277509473e-08 	9.756287099e-06
0.0297381948 	0.003716726203 	-0.0009162245149 	-7.031840223e-08 	0.005186919498 	7.858542012e-08 	9.887710192e-06
0.03061264626 	0.003765377506 	-0.0009446736345 	-6.675421664e-08 	0.005258043048 	6.536681589e-08 	1.002329145e-05
0.03150352933 	0.003815507499 	-0.0009737939008 	-6.301042531e-08 	0.00533136542 	5.313777742e-08 	1.016306427e-05
0.03241115274 	0.003867124521 	-0.001003606278 	-5.909992436e-08 	0.005406903157 	4.191629261e-08 	1.030706019e-05
0.03333583098 	0.003920235973 	-0.001034132437 	-5.503757617e-08 	0.005484671815 	3.171998732e-08 	1.045530886e-05
0.03427788447 	0.003974848261 	-0.001065394757 	-5.084033663e-08 	0.00556468596 	2.256627038e-08 	1.060783806e-05
0.03523763963 	0.004030966722 	-0.00109741634 	-4.652738294e-08 	0.005646959164 	1.447244872e-08 	1.076467366e-05
0.03621542904 	0.00408859549 	-0.001130221015 	-4.212024274e-08 	0.005731504046 	7.455818052e-09 	1.09258397e-05
0.03721159148 	0.004147737305 	-0.001163833348 	-3.764291116e-08 	0.005818332202 	1.534010291e-09 	1.10913583e-05
0.03822647215 	0.004208393224 	-0.001198279175 	-3.312262752e-08 	0.005907454149 	-3.273681359e-09 	1.12612495e-05
0.03926042268 	0.00427059185 	-0.001233595904 	-2.858926839e-08 	0.005998921104 	-6.948516086e-09 	1.143561094e-05
0.04031569926 	0.004334444415 	-0.001269875871 	-2.406217565e-08 	0.006092903464 	-9.473706962e-09 	1.161476744e-05
0.04139611951 	0.004400011433 	-0.001307193392 	-1.956716488e-08 	0.006189490037 	-1.081937132e-08 	1.179888829e-05
0.0424968417 	0.004467190001 	-0.001345506193 	-1.516927125e-08 	0.006288529014 	-1.096812985e-08 	1.198768411e-05
0.04361824725 	0.004535897255 	-0.001384789882 	-1.090883809e-08 	0.006389907814 	-9.892092113e-09 	1.218094028e-05
0.04476072477 	0.004606125194 	-0.001425082204 	-6.831607312e-09 	0.006493628833 	-7.568870009e-09 	1.237866137e-05
0.04592467013 	0.004677864962 	-0.001466413531 	-2.986497647e-09 	0.00659969264 	-3.976153253e-09 	1.258084846e-05
0.04691067477 	0.004738765669 	-0.001501669803 	-3.313916983e-08 	0.006689829156 	-4.455048997e-07 	1.275267371e-05
0.04711048667 	0.004751086878 	-0.001508815063 	-5.769734793e-10 	0.006708069834 	2.994967706e-10 	1.278744552e-05
0.04831858527 	0.004825698426 	-0.001552318149 	-3.830969849e-09 	0.006818642797 	1.479425416e-09 	1.299822832e-05
0.04954938458 	0.004901774082 	-0.001596955511 	-6.715224099e-09 	0.00693154047 	1.603170365e-09 	1.321344266e-05
0.05080331105 	0.004979293233 	-0.001642760516 	-9.168576336e-09 	0.00704675482 	6.501007259e-10 	1.343307323e-05
0.0520807992 	0.005058229727 	-0.001689767237 	-1.11258608e-08 	0.007164276024 	-1.402737494e-09 	1.365710131e-05
0.05338229166 	0.005138549311 	-0.001738010463 	-1.251754227e-08 	0.007284092973 	-4.581499702e-09 	1.388550571e-05
0.05470823941 	0.00522020519 	-0.001787525819 	-1.326908774e-08 	0.007406194383 	-8.917307113e-09 	1.411826494e-05
0.05605910188 	0.005303130566 	-0.001838350186 	-1.329989078e-08 	0.007530570568 	-1.44478045e-08 	1.435536052e-05
0.05743534714 	0.005387226883 	-0.001890523355 	-1.252190112e-08 	0.007657216549 	-2.121161288e-08 	1.459678296e-05
0.05883745205 	0.005472369629 	-0.001944097738 	-1.083682796e-08 	0.007786168471 	-2.924027658e-08 	1.484260116e-05
0.06026729956 	0.005558484859 	-0.001999217616 	-8.109348335e-09 	0.007917659572 	-3.87549312e-08 	1.509325974e-05
0.06173156424 	0.005645390564 	-0.002056052007 	-4.215090488e-09 	0.008051844453 	-5.085063291e-08 	1.534905342e-05
0.06322334345 	0.005743977727 	-0.002122586994 	2.159077869e-09 	0.008206056474 	-6.749145044e-08 	1.564302439e-05
0.06551344073 	0.005866352513 	-0.002206394128 	1.128078434e-08 	0.008396903363 	-9.130032227e-08 	1.600683161e-05
0.06782907795 	0.006001542144 	-0.002299203357 	2.435363779e-08 	0.008604832666 	-1.156273226e-07 	1.640320265e-05
0.07017053993 	0.006138154907 	-0.002393873009 	4.057110437e-08 	0.008812540313 	-1.404375053e-07 	1.679915116e-05
0.07253811468 	0.006275784932 	-0.002490442306 	6.006475184e-08 	0.009020034185 	-1.668275679e-07 	1.719469215e-05
0.07493209339 	0.006414162009 	-0.002588823481 	6.999601942e-08 	0.009227245528 	-1.644878731e-07 	1.758969456e-05
0.07735277052 	0.006553091093 	-0.002688936831 	7.684043442e-08 	0.009434018883 	-1.579794622e-07 	1.798386204e-05
0.07980044382 	0.006692600196 	-0.002790836742 	8.101395262e-08 	0.00964041793 	-1.490768916e-07 	1.837731599e-05
0.08228795177 	0.006832780396 	-0.002894630731 	8.229465978e-08 	0.009846506203 	-1.377846395e-07 	1.877017752e-05
0.0848045662 	0.006973368202 	-0.003000097874 	8.057638172e-08 	0.01005177948 	-1.243307941e-07 	1.916148543e-05
0.08734924993 	0.00711406405 	-0.003106980227 	7.572898204e-08 	0.01025570585 	-1.088384784e-07 	1.955022578e-05
0.08992231604 	0.007254733579 	-0.003215185177 	6.765161095e-08 	0.01045800448 	-9.138309563e-08 	1.993586319e-05
0.09252408108 	0.007395262158 	-0.003324604423 	5.62543194e-08 	0.0106584116 	-7.198140803e-08 	2.031789487e-05
0.09515486517 	0.007535533804 	-0.003435119124 	4.146052522e-08 	0.01085665036 	-5.060878568e-08 	2.069579304e-05
0.09781499197 	0.007675463313 	-0.003546609348 	2.320872323e-08 	0.01105247468 	-2.720167639e-08 	2.106908861e-05
0.100507166 	0.007815111802 	-0.003659093933 	1.435734332e-09 	0.0112458249 	-1.625251351e-09 	2.143766787e-05
0.1006723289 	0.007823532403 	-0.003665945416 	-3.517206397e-08 	0.01125734534 	-3.054978276e-07 	2.145962904e-05
0.1032407961 	0.007954011997 	-0.003772353676 	1.622054664e-08 	0.01143590987 	5.463917071e-10 	2.180002267e-05
0.1060049194 	0.008092312438 	-0.003886188578 	3.695414918e-08 	0.01162269421 	-1.282102229e-09 	2.215608553e-05
0.108799876 	0.008229779355 	-0.004000293071 	6.123097653e-08 	0.01180568514 	-5.934435136e-09 	2.25049171e-05
0.11162601 	0.008366282345 	-0.004114470571 	8.899232487e-08 	0.01198453613 	-1.380496939e-08 	2.284585679e-05
0.114483669 	0.008501689127 	-0.004228489629 	1.201560546e-07 	0.01215888832 	-2.53469038e-08 	2.317822052e-05
0.1173732048 	0.008635876117 	-0.004342097953 	1.546176479e-07 	0.01232838852 	-4.107615753e-08 	2.350133502e-05
0.1202961886 	0.008768844313 	-0.004455170184 	1.923120889e-07 	0.01249284199 	-6.16157571e-08 	2.381482904e-05
0.1232641206 	0.008900554054 	-0.00456754925 	2.332721432e-07 	0.01265199422 	-8.776423387e-08 	2.411821742e-05
0.1262651629 	0.009030645586 	-0.004678744164 	2.772753546e-07 	0.01280522809 	-1.203168733e-07 	2.441032377e-05
0.1292996849 	0.009158741654 	-0.004788309687 	3.243363704e-07 	0.01295200108 	-1.602270756e-07 	2.469011388e-05
0.1323680601 	0.009284537802 	-0.004895944543 	3.550822665e-07 	0.01309194923 	-1.977229102e-07 	2.495689395e-05
0.1354706662 	0.009407666461 	-0.005001332195 	3.355421248e-07 	0.01322472503 	-2.088348761e-07 	2.521000153e-05
0.138607885 	0.009527756588 	-0.005104217617 	3.132066481e-07 	0.01335006672 	-2.161785972e-07 	2.544893763e-05
0.1417873791 	0.009644411567 	-0.005204470251 	2.880963129e-07 	0.01346776314 	-2.18773318e-07 	2.567329972e-05
0.1450082501 	0.009757028411 	-0.005301813036 	2.601372113e-07 	0.01357743698 	-2.154941527e-07 	2.588236854e-05
0.1482650567 	0.009864866184 	-0.005395869313 	2.291049478e-07 	0.01367860487 	-2.051450434e-07 	2.607522266e-05
0.1515582 	0.009967243786 	-0.005486412767 	1.945666228e-07 	0.01377083628 	-1.865198611e-07 	2.625104135e-05
0.1548880853 	0.01006355621 	-0.005573244414 	1.560002048e-07 	0.01385368923 	-1.58601954e-07 	2.640898211e-05
0.1582551226 	0.01015329439 	-0.005656151833 	1.129418978e-07 	0.01392666651 	-1.207250681e-07 	2.654809709e-05
0.1616658524 	0.01023604841 	-0.005734951419 	6.506547253e-08 	0.01398917901 	-7.258621772e-08 	2.666726328e-05
0.1651212069 	0.01031139457 	-0.00580924499 	1.253694482e-08 	0.01404044616 	-1.451562046e-08 	2.676499272e-05
0.1659171165 	0.01032674718 	-0.00582499457 	5.47525725e-07 	0.01404933912 	-2.581156856e-06 	2.678194518e-05
0.1686151167 	0.01037866316 	-0.005878260838 	3.715986242e-08 	0.01407923534 	-3.829554731e-08 	2.683893569e-05
0.1721480121 	0.01043771512 	-0.005941481055 	8.707680432e-08 	0.01410491253 	-9.648719821e-08 	2.688788354e-05
0.175720328 	0.01048828573 	-0.005998263585 	1.37822237e-07 	0.01411670198 	-1.63548935e-07 	2.691035751e-05
0.1793325041 	0.0105299947 	-0.00604788957 	1.881097601e-07 	0.01411375479 	-2.387015533e-07 	2.690473935e-05
0.182994898 	0.01056234609 	-0.006089645663 	2.370118159e-07 	0.01409524535 	-3.215333839e-07 	2.68694552e-05
0.1867003698 	0.01058468121 	-0.006122709679 	2.837538769e-07 	0.01406045747 	-4.114822678e-07 	2.680313985e-05
0.1904471912 	0.0105962642 	-0.006146330661 	3.282131291e-07 	0.01400884657 	-5.08226353e-07 	2.670475512e-05
0.1942358234 	0.01059632044 	-0.006159950489 	3.708393739e-07 	0.01394000748 	-6.114612348e-07 	2.657352868e-05
0.1980667329 	0.01058405827 	-0.006163118759 	4.124955011e-07 	0.01385364894 	-7.206970945e-07 	2.640890531e-05
0.201946184 	0.01055868249 	-0.006155565974 	4.543660121e-07 	0.01374954221 	-8.352088914e-07 	2.621044895e-05
0.205874617 	0.01051948103 	-0.006137131758 	4.799009209e-07 	0.01362764389 	-9.198202485e-07 	2.597807687e-05
0.2098468907 	0.01046592 	-0.006107792451 	4.340972188e-07 	0.0134881518 	-8.588732803e-07 	2.571216617e-05
0.2138634941 	0.01039763617 	-0.006067721625 	3.904412886e-07 	0.01333137353 	-7.892236094e-07 	2.541330322e-05
0.2179249219 	0.01031441904 	-0.006017170877 	3.479188823e-07 	0.01315767022 	-7.115133201e-07 	2.508217642e-05
0.2220370961 	0.01021620061 	-0.005956496038 	3.055085697e-07 	0.0129674436 	-6.266537811e-07 	2.471955163e-05
0.226200533 	0.01010316915 	-0.005886132525 	2.624759636e-07 	0.01276134656 	-5.361455129e-07 	2.432667337e-05
0.2304104359 	0.009975809016 	-0.005806600889 	2.183972299e-07 	0.01254032852 	-4.418291819e-07 	2.390535156e-05
0.2346673231 	0.009834768758 	-0.005718496158 	1.7314336e-07 	0.01230542379 	-3.455864612e-07 	2.345755787e-05
0.238971719 	0.009680767823 	-0.005622386199 	1.26932776e-07 	0.01205764695 	-2.493498811e-07 	2.298522633e-05
0.2433319693 	0.009514621111 	-0.005518864004 	8.020195664e-08 	0.01179805323 	-1.548538022e-07 	2.249036855e-05
0.2477431375 	0.009337439105 	-0.005408608539 	3.375254066e-08 	0.01152806424 	-6.402825474e-08 	2.19756945e-05
0.2510499412 	0.009198833247 	-0.005322410021 	2.381561706e-06 	0.01132137409 	-5.416970111e-06 	2.158168563e-05
0.2522035389 	0.009150499626 	-0.005292349969 	1.224075504e-08 	0.01124927453 	-2.256389793e-08 	2.144424383e-05
0.2567137226 	0.008955071594 	-0.005170815494 	5.827998137e-08 	0.01096321453 	-1.055819125e-07 	2.089893397e-05
0.2612769989 	0.008752316195 	-0.005044631699 	1.018805699e-07 	0.01067121085 	-1.816944232e-07 	2.03422938e-05
0.2658977798 	0.008543497543 	-0.004914491253 	1.424428709e-07 	0.01037472535 	-2.504729475e-07 	1.977711003e-05
0.2705701354 	0.008330057406 	-0.004781159514 	1.796079292e-07 	0.01007543702 	-3.118441246e-07 	1.920658328e-05
0.275294641 	0.008113359761 	-0.00464537719 	2.133479759e-07 	0.009774897526 	-3.662216696e-07 	1.863367148e-05
0.2800721922 	0.007894552367 	-0.004507790952 	2.438197761e-07 	0.009474372235 	-4.142288274e-07 	1.806078675e-05
0.2849113354 	0.007674686058 	-0.00436901854 	2.713197691e-07 	0.00917500555 	-4.566385407e-07 	1.749011064e-05
0.2898044922 	0.00745494471 	-0.004229763008 	2.961093578e-07 	0.008878137735 	-4.94158176e-07 	1.692419807e-05
0.2947522652 	0.007236362204 	-0.004090674978 	3.186107906e-07 	0.00858492585 	-5.277185434e-07 	1.636525473e-05
0.2997552636 	0.00701968198 	-0.003952290891 	3.392870315e-07 	0.008296169378 	-5.58196707e-07 	1.581480464e-05
0.3048217599 	0.006805492964 	-0.003815087376 	3.585990413e-07 	0.008012487225 	-5.863676349e-07 	1.527402761e-05
0.3099449938 	0.006594453455 	-0.003679585472 	3.467437596e-07 	0.00773460591 	-5.637869182e-07 	1.474430859e-05
0.3151254131 	0.006387050088 	-0.003546216287 	3.089805707e-07 	0.007463046565 	-4.997570394e-07 	1.4226641e-05
0.3203643454 	0.006183501114 	-0.00341528465 	2.740841037e-07 	0.007198001981 	-4.411501266e-07 	1.372139236e-05
0.3256681805 	0.005983898079 	-0.003287017125 	2.416694866e-07 	0.006939520949 	-3.872126478e-07 	1.322865567e-05
0.3310312183 	0.005788368183 	-0.003161640372 	2.114586853e-07 	0.006687708322 	-3.374016118e-07 	1.274863081e-05
0.3364541189 	0.005596874826 	-0.00303928017 	1.831887247e-07 	0.006442478038 	-2.91096678e-07 	1.228115373e-05
0.3419400009 	0.00540918753 	-0.002919953498 	1.568681788e-07 	0.006203517624 	-2.477087127e-07 	1.182562877e-05
0.3474910806 	0.005225029023 	-0.0028036306 	1.321395451e-07 	0.005970469993 	-2.068465444e-07 	1.138137521e-05
0.3531041231 	0.005044130494 	-0.002690266386 	1.079820215e-07 	0.005742980956 	-1.68138937e-07 	1.094771788e-05
0.3587798191 	0.004866103565 	-0.002579716141 	8.449927175e-08 	0.005520526817 	-1.313196562e-07 	1.052365846e-05
0.3645235755 	0.004690451714 	-0.002471749784 	6.202509011e-08 	0.005302460631 	-9.611130433e-08 	1.010796371e-05
0.3703324803 	0.004516718237 	-0.002366131304 	4.033972318e-08 	0.005088212558 	-6.229160618e-08 	9.699547331e-06
0.3762062255 	0.004344393994 	-0.002262527574 	1.927636409e-08 	0.004877180366 	-2.973963105e-08 	9.297261319e-06
0.3818349366 	0.004181875842 	-0.002166014399 	3.122768024e-07 	0.004679631477 	-6.474375532e-07 	8.920678231e-06
0.3821475528 	0.004172850987 	-0.002160654553 	1.089928371e-09 	0.004668660527 	-1.68691125e-09 	8.899764551e-06
0.3881582854 	0.004001469011 	-0.002060517045 	2.099809163e-08 	0.004462001385 	-3.28407271e-08 	8.50581479e-06
0.3942361112 	0.003829755276 	-0.001961799149 	3.972124897e-08 	0.004256521212 	-6.289475384e-08 	8.114112469e-06
0.4003822316 	0.003657224818 	-0.001863945166 	5.796960987e-08 	0.00405150111 	-9.202445286e-08 	7.723287172e-06
0.4066010098 	0.00348333832 	-0.001766559477 	7.561977291e-08 	0.003846287176 	-1.200771448e-07 	7.332092379e-06
0.4128892032 	0.00330768982 	-0.001669290971 	9.254418057e-08 	0.003640381757 	-1.46919136e-07 	6.939579421e-06
0.4192475857 	0.003129910835 	-0.001571801508 	1.086062651e-07 	0.003433318869 	-1.724927636e-07 	6.544860006e-06
0.4256805892 	0.002949696428 	-0.001473770281 	1.236845354e-07 	0.00322468666 	-1.966437345e-07 	6.147149029e-06
0.4321857004 	0.002766941939 	-0.001374949504 	1.376510296e-07 	0.003014297661 	-2.191065761e-07 	5.746089123e-06
0.4387634212 	0.002581682308 	-0.001275145153 	1.503796445e-07 	0.002802121069 	-2.3964699e-07 	5.341621567e-06
0.4454175046 	0.002394121464 	-0.001174237279 	1.616889782e-07 	0.002588301613 	-2.579303602e-07 	4.934022256e-06
0.4521463543 	0.002204779583 	-0.001072239709 	1.71329051e-07 	0.002373328056 	-2.734831371e-07 	4.524222908e-06
0.4589503101 	0.002014489945 	-0.0009693026264 	1.790672907e-07 	0.002158023776 	-2.858118111e-07 	4.113793109e-06
0.4658328557 	0.001824469132 	-0.0008657503514 	1.845980015e-07 	0.00194361236 	-2.942338365e-07 	3.705065357e-06
0.4727925432 	0.00163651491 	-0.0007621774031 	1.875054618e-07 	0.001731945676 	-2.978164979e-07 	3.301569828e-06
0.479829972 	0.001453081722 	-0.0006595148252 	1.873038404e-07 	0.001525593596 	-2.954450479e-07 	2.908205411e-06
0.486948429 	0.001277397686 	-0.0005591730637 	1.833685526e-07 	0.00132799819 	-2.857426895e-07 	2.531533648e-06
0.4941463394 	0.001113910594 	-0.0004633502194 	1.751128508e-07 	0.001144003326 	-2.674310249e-07 	2.180788298e-06
0.5013447716 	0.0009683968066 	-0.0003750918668 	1.619783363e-07 	0.0009799574697 	-2.394273773e-07 	1.868071302e-06
0.508465376 	0.0008459733705 	-0.0002971972482 	1.33896756e-07 	0.000841472192 	-1.876794392e-07 	1.604079873e-06
0.5155074155 	0.0007494546081 	-0.0002312402754 	1.077901289e-07 	0.0007315580287 	-1.383801207e-07 	1.394552929e-06
0.5224724405 	0.0006793977283 	-0.0001774728257 	8.509599909e-08 	0.0006506308593 	-9.444341916e-08 	1.240283251e-06
0.5293615891 	0.0006341121001 	-0.0001349074279 	6.668497404e-08 	0.0005965798432 	-5.835462819e-08 	1.137246992e-06
0.5361747244 	0.0006099408434 	-0.0001017526846 	5.254188141e-08 	0.0005652212242 	-3.130533408e-08 	1.077468748e-06
0.5429133278 	0.000602094793 	-7.60296842e-05 	4.202503658e-08 	0.0005513027241 	-1.295065865e-08 	1.050936219e-06
0.5495782327 	0.000605664746 	-5.599851833e-05 	3.433246928e-08 	0.0005496004858 	-1.807622186e-09 	1.04769128e-06
0.5561695966 	0.0006163878323 	-4.027345106e-05 	2.877070521e-08 	0.0005556772459 	4.050967463e-09 	1.059275273e-06
0.5626887148 	0.0006310007975 	-2.776254186e-05 	2.482832135e-08 	0.0005661743302 	6.441870742e-09 	1.079285633e-06
0.5691364214 	0.0006472291966 	-1.758417377e-05 	2.210246786e-08 	0.0005787747513 	6.810678146e-09 	1.103305538e-06
0.5755129821 	0.0006635838284 	-9.025005751e-06 	2.018826425e-08 	0.0005920242204 	6.040862686e-09 	1.128562709e-06
0.5818194612 	0.0006791573065 	-1.536374244e-06 	1.876227343e-08 	0.0006050657142 	4.625633254e-09 	1.153423421e-06
0.5880568427 	0.0006934482596 	5.284086676e-06 	1.763244626e-08 	0.0006174118228 	2.891579056e-09 	1.176958535e-06
0.5942253977 	0.0007062130943 	1.172842412e-05 	1.667506902e-08 	0.0006288166491 	1.010107309e-09 	1.198699304e-06
0.6003259628 	0.0007173790617 	1.80088628e-05 	1.582503779e-08 	0.0006391767872 	-9.100785215e-10 	1.218448606e-06
0.6063597157 	0.0007269873381 	2.428538714e-05 	1.506046095e-08 	0.0006484754712 	-2.783934694e-09 	1.236174483e-06
0.612326888 	0.000735158114 	3.068789408e-05 	1.438268026e-08 	0.0006567602369 	-4.539071692e-09 	1.251967549e-06
0.6182282137 	0.0007420737194 	3.733471411e-05 	1.380336079e-08 	0.0006641349103 	-6.10733844e-09 	1.266025726e-06
0.6240647607 	0.0007479707838 	4.434417657e-05 	1.334198726e-08 	0.0006707558777 	-7.420875126e-09 	1.27864713e-06
0.6298369959 	0.0007531398713 	5.184137991e-05 	1.302356182e-08 	0.000676836296 	-8.41185748e-09 	1.290238097e-06
0.6355455349 	0.0007579302722 	5.996545993e-05 	1.287228377e-08 	0.0006826566908 	-9.010342508e-09 	1.301333387e-06
0.6411911782 	0.0007627563767 	6.887641081e-05 	1.291244973e-08 	0.0006885690882 	-9.143244875e-09 	1.31260406e-06
0.6467747435 	0.0007681038807 	7.875846124e-05 	1.317118737e-08 	0.0006950050093 	-8.737535589e-09 	1.324872714e-06
0.6522966938 	0.0007745354821 	8.98244088e-05 	1.367475234e-08 	0.0007024860636 	-7.720321593e-09 	1.339133683e-06
0.6577577088 	0.0007826957351 	0.0001023206399 	1.44491485e-08 	0.0007116297292 	-6.021101735e-09 	1.356564051e-06
0.6631586198 	0.0007933129038 	0.0001165295828 	1.552172144e-08 	0.0007231493808 	-3.575075945e-09 	1.378523709e-06
0.6685000027 	0.0008071946616 	0.0001327690642 	1.692136526e-08 	0.0007378502723 	-3.277292519e-10 	1.406547694e-06
0.6737824424 	0.0008252149013 	0.0001513898849 	1.867020909e-08 	0.0007566189206 	3.758588966e-09 	1.442325954e-06
0.679006589 	0.0008482889779 	0.0001727686753 	2.0779947e-08 	0.0007803964241 	8.693611894e-09 	1.487652484e-06
0.6841732363 	0.0008773349849 	0.0001972914718 	2.324796091e-08 	0.0008101373297 	1.444923944e-08 	1.544346916e-06
0.6892828813 	0.0009132212519 	0.0002253289644 	2.605086613e-08 	0.0008467560515 	2.095091823e-08 	1.614152378e-06
0.6943361397 	0.0009567064203 	0.0002572072567 	2.913618968e-08 	0.0008910648939 	2.806955776e-08 	1.698617346e-06
0.6993336336 	0.001008379882 	0.0002931766492 	3.242629471e-08 	0.0009437082922 	3.562665052e-08 	1.798970295e-06
0.7042760903 	0.001068612382 	0.000333382869 	3.58301734e-08 	0.001005106663 	4.341431903e-08 	1.916012655e-06
0.7091640066 	0.001137526509 	0.0003778490033 	3.925364024e-08 	0.001075423578 	5.12173886e-08 	2.050056238e-06
0.7139979828 	0.001214995809 	0.0004264754936 	4.260720445e-08 	0.001154563023 	5.883192833e-08 	2.200918016e-06
0.7187786138 	0.001300670309 	0.0004790554626 	4.582023482e-08 	0.00124219412 	6.609061458e-08 	2.367967242e-06
0.7235065557 	0.001394021131 	0.0005353001258 	4.885060299e-08 	0.00133779616 	7.288195221e-08 	2.550211301e-06
0.7281823321 	0.00149439469 	0.0005948681802 	5.168452818e-08 	0.001440716825 	7.915313112e-08 	2.746406695e-06
0.7328065091 	0.001601068949 	0.0006573970281 	5.432321104e-08 	0.001550232824 	8.488998289e-08 	2.955174628e-06
0.737379656 	0.001713302918 	0.0007225284889 	5.678259473e-08 	0.001665601941 	9.01141523e-08 	3.17510023e-06
0.7419023644 	0.001830374657 	0.0007899265596 	5.909004989e-08 	0.001786101173 	9.487499937e-08 	3.404805257e-06
0.7463751843 	0.001951607387 	0.0008592864214 	6.128609687e-08 	0.001911053212 	9.92485954e-08 	3.642998572e-06
0.7507986441 	0.002076385668 	0.0009303402218 	6.340778435e-08 	0.002039844659 	1.033072833e-07 	3.888510865e-06
0.7551732887 	0.002204163911 	0.001002860528 	6.549242844e-08 	0.002171933685 	1.07123114e-07 	4.140309262e-06
0.7594996577 	0.002334468644 	0.001076659411 	6.757782877e-08 	0.002306851464 	1.107665629e-07 	4.397500047e-06
0.7637783137 	0.002466896445 	0.001151585986 	6.970798756e-08 	0.002444198509 	1.143154862e-07 	4.659321688e-06
0.7680097523 	0.002601109211 	0.001227521872 	7.192626969e-08 	0.00258364093 	1.178437859e-07 	4.925137699e-06
0.7721944944 	0.002736829223 	0.001304380179 	7.426931886e-08 	0.002724905809 	1.214127163e-07 	5.194427821e-06
0.7763330552 	0.002873833471 	0.001382102064 	7.67710966e-08 	0.002867775488 	1.250789996e-07 	5.466777136e-06
0.7804259499 	0.003011947335 	0.001460653918 	7.946200509e-08 	0.003012080885 	1.288952669e-07 	5.741863331e-06
0.7844736913 	0.003151038523 	0.001540022224 	8.237520196e-08 	0.003157694255 	1.329218051e-07 	6.019442885e-06
0.7884767633 	0.003291010898 	0.001620208726 	8.553327035e-08 	0.003304525332 	1.372057428e-07 	6.299343729e-06
0.7924356588 	0.003431798806 	0.001701228886 	8.894783454e-08 	0.003452515175 	1.417823007e-07 	6.5814535e-06
0.7963508653 	0.003573361535 	0.00178310608 	9.262130937e-08 	0.003601630839 	1.466782316e-07 	6.8657094e-06
0.8002228677 	0.003715677308 	0.00186586846 	9.654591698e-08 	0.003751859374 	1.519109495e-07 	7.152086742e-06
0.8040521488 	0.003858737525 	0.001949542715 	1.007104962e-07 	0.00390320052 	1.574992863e-07 	7.44058503e-06
0.8078391712 	0.004002540716 	0.002034148189 	1.050880484e-07 	0.004055662464 	1.634433137e-07 	7.731219869e-06
0.8115844012 	0.004147086521 	0.002119694661 	1.096349529e-07 	0.004209255513 	1.697239939e-07 	8.024010909e-06
0.8152883001 	0.004292369822 	0.002206176253 	1.142929525e-07 	0.004363985457 	1.763069993e-07 	8.318969188e-06
0.8189513238 	0.004438374457 	0.002293567019 	1.189871674e-07 	0.004519848058 	1.831414671e-07 	8.616086626e-06
0.8225739295 	0.004585066952 	0.002381816483 	1.236278317e-07 	0.004676821413 	1.901656217e-07 	8.915321468e-06
0.8261565578 	0.004732390317 	0.002470842123 	1.281038627e-07 	0.004834860021 	1.973043135e-07 	9.21658698e-06
0.8296996493 	0.004880257655 	0.00256052529 	1.32264982e-07 	0.004993890319 	2.044535541e-07 	9.519742928e-06
0.8332036402 	0.005028545774 	0.0026507061 	1.359443031e-07 	0.00515380872 	2.11590984e-07 	9.824591847e-06