/*--------------------------------*- C++ -*----------------------------------*\
  =========                 |
  \\      /  F ield         | OpenFOAM: The Open Source CFD Toolbox
   \\    /   O peration     | Website:  https://openfoam.org
    \\  /    A nd           | Version:  7
     \\/     M anipulation  |
\*---------------------------------------------------------------------------*/
FoamFile
{
    version     2.0;
    format      ascii;
    class       volScalarField;
    location    "2000";
    object      omega;
}
// * * * * * * * * * * * * * * * * * * * * * * * * * * * * * * * * * * * * * //

dimensions      [0 0 -1 0 0 0 0];

internalField   nonuniform List<scalar> 
15296
(
2.1229677
2.1143017
2.1021793
2.088171
2.0734393
2.0588324
2.0447764
2.0314161
2.0187615
2.00677
1.9953828
1.9845398
1.9741852
1.9642696
1.9547501
1.9455897
1.9367564
1.9282225
1.9199638
1.9119591
1.9041897
1.896639
1.8892923
1.8821361
1.8751587
1.8683499
1.8617022
1.8552125
1.848891
1.8427416
1.8368606
1.8313336
1.8278621
1.8240024
1.8612458
1.787872
2.7086978
2.3205754
2.1231618
2.1143172
2.1021916
2.0881724
2.0734415
2.0588423
2.0447961
2.0314454
2.0187994
2.0068154
1.9954348
1.9845975
1.9742478
1.9643365
1.9548207
1.9456636
1.9368333
1.928302
1.9200456
1.912043
1.9042755
1.8967265
1.8893813
1.8822265
1.8752503
1.8684427
1.8617959
1.855307
1.848986
1.8428363
1.8369538
1.8314152
1.8279325
1.8238516
1.8614202
1.7824228
2.7639699
0.1757136
2.1234695
2.1143802
2.1022066
2.088156
2.073421
2.058834
2.0448054
2.0314724
2.0188426
2.0068727
1.9955043
1.9846775
1.9743368
1.9644332
1.9549241
1.9457728
1.9369474
1.9284205
1.9201679
1.9121685
1.9044039
1.8968574
1.8895144
1.8823616
1.8753871
1.8685809
1.8619354
1.8554473
1.8491268
1.8429768
1.8370923
1.831541
1.8280449
1.8237369
1.8615834
1.7762553
2.7921341
0.10852433
2.1238533
2.1144925
2.1022233
2.0881206
2.0733769
2.0588062
2.0448023
2.0314947
2.0188879
2.0069383
1.9955873
1.9847754
1.9744474
1.9645547
1.9550548
1.9459114
1.9370929
1.9285719
1.9203243
1.9123293
1.9045684
1.8970252
1.889685
1.8825345
1.8755621
1.8687576
1.8621134
1.8556261
1.849306
1.8431557
1.8372691
1.8317049
1.8281938
1.8236744
1.8617327
1.7709615
2.7895121
0.094520349
2.124301
2.1146509
2.1022405
2.0880653
2.0733091
2.058759
2.0447871
2.0315121
2.0189352
2.0070118
1.9956834
1.9848907
1.9745791
1.9647002
1.9552122
1.9460789
1.937269
1.9287554
1.9205142
1.9125245
1.9047683
1.897229
1.8898921
1.8827444
1.8757743
1.8689716
1.8623289
1.8558426
1.8495227
1.843372
1.837483
1.8319059
1.8283781
1.8236648
1.8618397
1.767021
2.7598435
0.011783626
2.1249519
2.1149083
2.1022602
2.0879671
2.0731911
2.0586737
2.0447521
2.0315287
2.018999
2.007117
1.9958242
1.9850618
1.9747759
1.9649189
1.9554494
1.9463318
1.9375355
1.9290332
1.9208017
1.9128203
1.9050711
1.8975377
1.8902057
1.8830622
1.8760954
1.8692955
1.8626547
1.8561697
1.84985
1.8436986
1.8378062
1.8322124
1.8286607
1.8237221
1.8618988
1.7629046
2.7626275
0.00013195148
2.1259095
2.1153207
2.1022709
2.0877851
2.0729809
2.0585187
2.0446793
2.03154
2.0190871
2.0072724
1.9960373
1.9853241
1.97508
1.9652583
1.9558187
1.9467264
1.9379516
1.9294677
1.9212516
1.9132833
1.905545
1.8980208
1.8906964
1.8835591
1.8765973
1.8698012
1.8631631
1.8566796
1.8503597
1.8442072
1.8383098
1.8326948
1.8291063
1.8239398
1.8617256
1.7594791
2.7744098
0.17007257
2.1271423
2.1158544
2.1022412
2.0874991
2.0726677
2.0582879
2.0445652
2.0315437
2.0191982
2.0074775
1.9963232
1.9856786
1.9754925
1.96572
1.956322
1.9472649
1.93852
1.9300613
1.9218664
1.9139159
1.9061926
1.8986808
1.8913666
1.8842375
1.8772821
1.8704908
1.863856
1.857374
1.851053
1.8448991
1.8389952
1.8333565
1.8297173
1.8243726
1.8611294
1.7601799
2.7442759
0.32218323
2.1287158
2.1164723
2.1021127
2.0870607
2.0722194
2.0579632
2.044403
2.031543
2.0193442
2.0077517
1.9967072
1.9861561
1.976049
1.9663433
1.9570019
1.9479925
1.9392881
1.9308633
1.9226971
1.9147707
1.9070673
1.8995719
1.8922711
1.8851527
1.8782056
1.8714203
1.8647893
1.858309
1.851986
1.8458298
1.8399173
1.8342521
1.8305434
1.8250994
1.8598865
1.7676386
2.658298
0.70729381
2.1306792
2.1170703
2.1017783
2.0864008
2.071598
2.0575275
2.044191
2.0315488
2.0195466
2.0081256
1.9972281
1.9868018
1.9768006
1.9671843
1.9579186
1.9489732
1.9403232
1.931944
1.9238162
1.9159219
1.9082453
1.900772
1.8934891
1.8863848
1.8794486
1.8726711
1.866045
1.8595666
1.8532414
1.8470817
1.8411581
1.8354636
1.8316594
1.8262244
1.8578007
1.7834471
2.5086439
1.4928622
2.1329951
2.1174195
2.101063
2.0854307
2.0707673
2.0569731
2.0439402
2.0315869
2.0198436
2.0086477
1.9979429
1.9876805
1.9778181
1.9683197
1.9591537
1.9502928
1.9417147
1.9333959
1.925319
1.9174674
1.9098263
1.9023822
1.8951231
1.8880376
1.8811158
1.8743487
1.867729
1.8612533
1.8549252
1.8487609
1.8428231
1.8370965
1.8331637
1.8278589
1.8549079
1.8061873
2.3226921
2.3742301
2.1353832
2.1170641
2.0997112
2.0840527
2.0697029
2.0563114
2.0436844
2.031707
2.0202971
2.0093896
1.9989314
1.9888787
1.9791944
1.9698469
1.960809
1.9520568
1.9435707
1.93533
1.9273188
1.9195221
1.9119267
1.9045202
1.8972914
1.8902299
1.8833264
1.8765722
1.8699603
1.8634873
1.8571553
1.8509845
1.845028
1.8392661
1.8351665
1.8301079
1.851751
1.829804
2.1683433
2.7951461
2.1369429
2.1152075
2.0974355
2.0822036
2.0684203
2.0555956
2.0435007
2.0320026
2.0210119
2.0104649
2.0003143
1.9905231
1.9810609
1.9719023
1.9630248
1.9544089
1.9460377
1.9378956
1.9299666
1.9222389
1.9147006
1.9073409
1.9001497
1.8931179
1.8862365
1.8794977
1.8728947
1.866424
1.8600861
1.8539057
1.8479244
1.8421228
1.8378168
1.8330889
1.8492112
1.8488808
2.0663869
2.9154037
2.1349058
2.1108653
2.094129
2.079937
2.0670172
2.0549575
2.0435443
2.0326425
2.0221653
2.0120569
2.0022799
1.9928067
1.9836155
1.9746877
1.9660071
1.9575588
1.9493297
1.9413094
1.933482
1.9258396
1.9183722
1.9110705
1.9039261
1.8969307
1.8900766
1.8833565
1.8767639
1.8702954
1.8639496
1.857756
1.8517428
1.8458954
1.8413467
1.8369468
1.8481084
1.8619891
2.0038751
2.9033393
2.1210266
2.1046018
2.0902857
2.077508
2.0657426
2.0546731
2.0441042
2.0339175
2.0240457
2.0144512
2.0051117
1.9960121
1.9871405
1.9784864
1.97004
1.9617921
1.9537337
1.9458586
1.9381546
1.9306157
1.923234
1.9160025
1.9089146
1.9019634
1.8951421
1.8884442
1.8818635
1.8753967
1.8690406
1.8628285
1.8567748
1.8508727
1.8460557
1.8418778
1.8490226
1.8705183
1.9632705
2.8393105
2.1019261
2.095374
2.085346
2.0749865
2.0650094
2.0553757
2.045974
2.0367467
2.0276756
2.0187584
2.0099971
2.0013937
1.9929491
1.9846626
1.9765325
1.9685562
1.9607304
1.9530518
1.9455183
1.9381208
1.9308561
1.9237204
1.9167092
1.9098173
1.9030394
1.8963697
1.8898026
1.8833344
1.8769608
1.8707147
1.8645998
1.8586167
1.8534674
1.8493415
1.8529022
1.8777527
1.9325826
2.7251587
2.099309
2.0895775
2.0821623
2.0749091
2.0672884
2.0593424
2.0512081
2.042993
2.0347662
2.0265708
2.0184341
2.0103743
2.0024032
1.994529
1.9867571
1.9790907
1.9715317
1.9640808
1.9567407
1.9495086
1.9423776
1.9353508
1.9284257
1.9215986
1.9148654
1.9082215
1.9016616
1.8951809
1.8887755
1.8824586
1.8762609
1.870159
1.8646546
1.8602494
1.86122
1.8846931
1.917734
2.5685049
2.0941564
2.0911527
2.0871341
2.0818018
2.0754539
2.068472
2.0611358
2.0536147
2.0460051
2.0383627
2.0307219
2.0231054
2.015529
2.0080042
2.0005394
1.9931414
1.9858148
1.9785634
1.97139
1.9642999
1.9572855
1.9503523
1.9434977
1.9367199
1.9300161
1.9233824
1.9168136
1.9103032
1.9038479
1.8974331
1.8911342
1.8848804
1.8790386
1.8741275
1.8733756
1.8927196
1.9163333
2.4158181
2.1042504
2.1075685
2.1042097
2.09828
2.0915056
2.0844414
2.0772473
2.0699783
2.062664
2.055326
2.0479817
2.0406445
2.0333256
2.026034
2.0187774
2.0115624
2.0043943
1.9972778
1.9902166
1.9832139
1.9762751
1.9693981
1.9625763
1.9558132
1.9491071
1.9424539
1.9358476
1.9292792
1.9227439
1.9162124
1.909778
1.9033284
1.8971421
1.8916063
1.8895104
1.9038731
1.9223473
2.2926086
2.1612773
2.1439309
2.1325
2.1235741
2.115602
2.1080023
2.1005653
2.0932082
2.0858933
2.0786033
2.0713312
2.0640762
2.0568403
2.0496272
2.0424413
2.0352869
2.0281685
2.0210897
2.0140541
2.0070636
2.0001261
1.9932373
1.9863968
1.9795972
1.9728406
1.9661233
1.9594373
1.9527706
1.9461144
1.9394315
1.9328169
1.9261249
1.919566
1.9133728
1.9098852
1.9193513
1.9336711
2.2007344
2.188454
2.1760013
2.1652681
2.1559097
2.1474246
2.1394322
2.1317071
2.1241293
2.1166371
2.1091996
2.1018015
2.0944361
2.0871012
2.0797972
2.0725257
2.0652892
2.05809
2.0509306
2.0438131
2.0367387
2.0297097
2.0227253
2.0157901
2.0088953
2.0020285
1.9951919
1.9883737
1.9815589
1.9747328
1.9678578
1.9609768
1.9540064
1.947044
1.9401948
1.9351019
1.9400949
1.9506229
2.1361492
2.2103019
2.2072102
2.2014657
2.1943992
2.1867972
2.1790192
2.1712063
2.1634085
2.1556419
2.1479122
2.140222
2.1325736
2.1249688
2.1174092
2.1098964
2.1024317
2.0950162
2.0876507
2.0803355
2.0730704
2.065855
2.0586876
2.0515659
2.0444924
2.0374519
2.030437
2.0234236
2.0164024
2.0093517
2.0022323
1.9950088
1.987717
1.9803102
1.9727807
1.9661648
1.9671412
1.9740845
2.0961089
2.2645089
2.2578184
2.2509707
2.2436961
2.2360136
2.2280441
2.219911
2.2117064
2.2034901
2.1952981
2.1871513
2.1790618
2.171036
2.1630776
2.1551879
2.1473672
2.139615
2.1319301
2.1243111
2.1167558
2.1092614
2.1018245
2.0944401
2.0871022
2.0798101
2.0725425
2.0652797
2.0579999
2.0506725
2.043244
2.035651
2.0279649
2.0200561
2.0118023
2.0038913
2.0011692
2.0047194
2.0780726
2.3349214
2.3252032
2.3155863
2.3061184
2.2967845
2.2875563
2.2784191
2.269371
2.2604158
2.251558
2.242801
2.2341461
2.2255932
2.2171406
2.2087858
2.2005258
2.1923573
2.1842766
2.1762798
2.1683628
2.1605207
2.1527479
2.1450375
2.1373804
2.1297672
2.1221806
2.1146092
2.1070138
2.0993532
2.091574
2.0835936
2.0753702
2.0669356
2.057946
2.0489286
2.0424958
2.0429574
2.0796472
2.4147403
2.4013985
2.3890424
2.3774464
2.3664247
2.3558388
2.3455916
2.3356171
2.3258694
2.3163162
2.3069346
2.297708
2.2886237
2.2796714
2.2708429
2.2621309
2.2535291
2.2450315
2.2366323
2.2283258
2.2201057
2.2119649
2.2038949
2.1958851
2.1879219
2.1799867
2.1720564
2.1640964
2.1560584
2.1478859
2.1394884
2.1306693
2.121686
2.1119527
2.1019203
2.0920674
2.0897838
2.0992022
2.487566
2.475404
2.4635439
2.4520251
2.4408449
2.4299733
2.4193746
2.4090163
2.3988702
2.3889128
2.3791256
2.3694939
2.3600059
2.3506524
2.3414255
2.3323186
2.3233258
2.3144416
2.3056606
2.2969772
2.2883851
2.2798769
2.2714437
2.2630737
2.2547517
2.2464569
2.2381614
2.2298254
2.2213967
2.2127942
2.2039396
2.1946062
2.1849213
2.1744525
2.1634269
2.1510952
2.1457204
2.1352308
2.5614718
2.5512792
2.5410484
2.5307798
2.520496
2.5102204
2.4999761
2.4897843
2.479662
2.4696215
2.4596719
2.4498193
2.4400679
2.43042
2.4208766
2.4114378
2.4021026
2.3928694
2.3837356
2.3746974
2.36575
2.3568868
2.348099
2.3393746
2.3306972
2.322044
2.3133839
2.3046722
2.2958503
2.2868253
2.2774984
2.2676649
2.2571909
2.2460136
2.2340229
2.2198506
2.2109258
2.1864085
2.6496846
2.6407505
2.6313888
2.6216859
2.6117377
2.6016216
2.5914008
2.5811272
2.5708421
2.5605775
2.5503579
2.540202
2.5301235
2.5201323
2.5102351
2.5004363
2.4907383
2.4811416
2.4716452
2.4622468
2.4529418
2.443724
2.4345839
2.4255089
2.4164809
2.407475
2.3984565
2.3893757
2.3801669
2.3707276
2.36094
2.350593
2.3394712
2.3273704
2.3144605
2.2988043
2.2872676
2.2526745
2.7673999
2.7557095
2.7440282
2.7323804
2.7207938
2.7092865
2.6978724
2.6865641
2.675371
2.6643003
2.6533568
2.6425437
2.6318628
2.6213144
2.6108979
2.6006117
2.5904534
2.5804198
2.5705066
2.5607084
2.5510186
2.5414283
2.5319259
2.522496
2.513118
2.5037632
2.494393
2.4849518
2.4753662
2.4655239
2.4552917
2.4444339
2.4327491
2.4196808
2.4057901
2.3888645
2.3756634
2.3331008
2.9039178
2.8878847
2.8727181
2.8582683
2.8444007
2.8310089
2.8180155
2.8053656
2.7930189
2.7809447
2.7691192
2.7575232
2.7461409
2.7349587
2.7239647
2.7131483
2.7024996
2.6920094
2.6816682
2.6714663
2.6613932
2.6514365
2.6415813
2.6318091
2.6220954
2.6124078
2.6027025
2.5929181
2.5829732
2.5727456
2.5620864
2.5507442
2.538483
2.5247349
2.5096067
2.4915049
2.477117
2.4290227
3.0275973
3.013799
3.0001183
2.9865812
2.9732145
2.9600362
2.9470588
2.9342911
2.9217373
2.9093983
2.8972722
2.8853549
2.8736409
2.8621239
2.8507965
2.8396511
2.8286795
2.8178734
2.8072237
2.7967203
2.7863522
2.7761059
2.7659653
2.75591
2.7459131
2.7359391
2.72594
2.7158492
2.7055775
2.694994
2.6839341
2.6721367
2.6593203
2.6449581
2.6288119
2.6091504
2.5937187
2.5422083
3.1649094
3.1530939
3.1409894
3.128675
3.1162383
3.1037543
3.0912835
3.078873
3.0665578
3.0543632
3.0423064
3.030399
3.0186475
3.007055
2.995622
2.9843468
2.9732261
2.9622551
2.9514276
2.940736
2.9301704
2.9197185
2.9093644
2.8990871
2.8888588
2.8786418
2.868385
2.858017
2.8474419
2.8365209
2.8250756
2.8128349
2.7994888
2.7844905
2.7676395
2.7465277
2.7295844
2.6753567
3.3466549
3.3308596
3.3158115
3.3013473
3.2873319
3.2736742
3.2603165
3.2472213
3.2343633
3.2217254
3.209295
3.1970618
3.1850172
3.1731534
3.1614632
3.1499393
3.1385746
3.1273616
3.1162922
3.1053572
3.0945456
3.083844
3.0732352
3.0626969
3.0521993
3.0417021
3.0311507
3.0204691
3.0095547
2.9982614
2.9863985
2.9736854
2.9597919
2.9441579
2.9265692
2.9045623
2.8862591
2.8290381
3.5227716
3.5108605
3.4983702
3.4854757
3.4723381
3.4590892
3.4458283
3.4326242
3.4195238
3.4065589
3.3937494
3.3811067
3.3686366
3.3563404
3.3442167
3.3322618
3.3204706
3.3088365
3.2973517
3.2860069
3.2747905
3.2636881
3.2526814
3.2417464
3.2308512
3.2199527
3.2089927
3.1978906
3.1865378
3.1747811
3.1624202
3.1491655
3.1346742
3.118373
3.1000622
3.0771416
3.0582698
2.9981214
3.7432724
3.7264784
3.7103749
3.6947889
3.6795842
3.6646883
3.6500656
3.6356954
3.6215664
3.6076718
3.5940058
3.580563
3.567337
3.554321
3.5415075
3.5288885
3.5164555
3.5041991
3.4921095
3.4801753
3.4683833
3.4567174
3.4451573
3.4336769
3.4222422
3.4108072
3.3993102
3.3876662
3.3757612
3.3634356
3.3504812
3.3366003
3.3214428
3.3044213
3.2853679
3.2615327
3.2421726
3.179515
3.9644815
3.9494282
3.9340061
3.9184013
3.902752
3.8871706
3.871736
3.8564941
3.8414721
3.826685
3.8121386
3.7978331
3.7837645
3.7699266
3.7563112
3.7429094
3.7297115
3.7167071
3.703885
3.691233
3.6787365
3.6663783
3.6541366
3.641984
3.629884
3.6177885
3.6056324
3.5933267
3.5807525
3.5677438
3.5540855
3.5394709
3.5235455
3.5057045
3.4858202
3.4609775
3.4411181
3.3755895
4.2201664
4.201799
4.1840391
4.166729
4.14974
4.1330246
4.1165681
4.1003633
4.0844089
4.0687049
4.0532501
4.0380416
4.0230747
4.008343
3.9938394
3.9795554
3.9654821
3.95161
3.9379285
3.9244257
3.9110875
3.8978962
3.88483
3.8718601
3.8589492
3.8460465
3.8330844
3.8199697
3.8065786
3.7927379
3.7782256
3.762724
3.7458739
3.7270473
3.7061626
3.6801025
3.6596485
3.5904917
4.4952788
4.4790609
4.4622614
4.4451351
4.4278441
4.4105313
4.3932936
4.3761888
4.3592558
4.34252
4.3259973
4.3096965
4.2936217
4.2777731
4.2621484
4.2467433
4.231552
4.2165674
4.2017813
4.1871832
4.1727601
4.1584949
4.1443656
4.1303429
4.1163881
4.1024481
4.0884521
4.0743022
4.0598686
4.0449699
4.0293754
4.0127532
3.9947376
3.9746692
3.9525165
3.9249127
3.9036565
3.8298963
4.827674
4.8090135
4.790329
4.7715912
4.7527763
4.7339491
4.7151746
4.6965029
4.6779759
4.6596261
4.6414768
4.6235442
4.6058387
4.5883658
4.5711276
4.5541233
4.5373502
4.5208037
4.5044772
4.4883619
4.4724452
4.4567103
4.4411343
4.4256868
4.4103265
4.3949974
4.3796241
4.3641026
4.3482957
4.3320113
4.3150078
4.296935
4.2774174
4.2557548
4.2319687
4.2023919
4.1800177
4.1005685
5.2212565
5.2014151
5.1806921
5.1595193
5.1381163
5.1166687
5.0952825
5.07402
5.0529271
5.0320381
5.0113786
4.990968
4.9708202
4.950944
4.9313447
4.9120242
4.8929817
4.8742142
4.8557162
4.8374788
4.8194891
4.8017289
4.7841734
4.7667889
4.7495307
4.7323375
4.7151279
4.6977898
4.6801762
4.6620816
4.6432504
4.6233095
4.6018699
4.5781801
4.5523166
4.5202596
4.4963701
4.4100858
5.7011281
5.6741197
5.6479769
5.6223122
5.5968355
5.5714998
5.5463056
5.5212792
5.4964605
5.4718888
5.447599
5.4236206
5.399976
5.3766815
5.3537478
5.3311808
5.3089818
5.2871489
5.2656762
5.2445535
5.2237652
5.2032897
5.1830978
5.1631506
5.1433972
5.1237692
5.1041764
5.0844962
5.0645691
5.044173
5.0230347
5.0007527
4.9769199
4.950722
4.9222928
4.8872024
4.8613609
4.767024
6.2582789
6.2315504
6.202989
6.173398
6.1432284
6.1128451
6.0824476
6.0521712
6.0221209
5.9923781
5.963009
5.9340663
5.9055899
5.8776084
5.8501401
5.8231949
5.7967749
5.7708763
5.7454896
5.7205996
5.6961841
5.672214
5.6486521
5.6254508
5.6025497
5.57987
5.5573099
5.534733
5.5119641
5.4887602
5.4648263
5.4397259
5.4130279
5.3838416
5.3523595
5.3136738
5.2854574
5.1817186
6.947112
6.9102453
6.8729194
6.8351827
6.7971183
6.7589744
6.7209185
6.6831057
6.6456731
6.6087352
6.5723885
6.5367099
6.5017562
6.4675656
6.4341592
6.4015439
6.3697144
6.3386564
6.3083485
6.2787622
6.2498615
6.2216035
6.193937
6.1668007
6.1401203
6.1138025
6.0877301
6.0617489
6.0356636
6.0092054
5.982051
5.953721
5.9237516
5.8911583
5.8561934
5.8133821
5.7824395
5.6677195
7.7771522
7.7287302
7.6794905
7.6298817
7.5802101
7.5308051
7.4818387
7.4334836
7.3859017
7.3392363
7.2936105
7.249119
7.2058248
7.1637603
7.1229315
7.0833227
7.044902
7.0076272
6.9714494
6.9363137
6.9021597
6.8689215
6.8365267
6.8048945
6.7739316
6.7435256
6.7135392
6.6837955
6.6540733
6.624071
6.5934287
6.5616121
6.5281117
6.4918259
6.4530653
6.4056686
6.3717737
6.2441253
8.7826631
8.716234
8.6499646
8.5839253
8.5183789
8.4536621
8.3899695
8.3275444
8.2666195
8.2073928
8.150017
8.0945868
8.041139
7.9896609
7.9401021
7.8923865
7.8464226
7.8021134
7.759362
7.7180716
7.6781457
7.6394873
7.6019966
7.5655681
7.5300849
7.495411
7.4613839
7.4277974
7.3943966
7.3608367
7.3267073
7.2914033
7.2543477
7.214291
7.1715931
7.1192459
7.0823335
6.9392336
9.9995409
9.9103842
9.8219271
9.734035
9.6472748
9.5622038
9.479203
9.3987084
9.3210784
9.2465577
9.1752703
9.1072249
9.042338
8.9804638
8.9214223
8.8650206
8.8110674
8.7593841
8.7098095
8.6621962
8.6164071
8.5723115
8.5297805
8.4886816
8.4488711
8.4101842
8.3724255
8.3353502
8.298656
8.261939
8.2247163
8.1862872
8.1459718
8.1023324
8.0557533
7.9981671
7.9583339
7.796287
11.490387
11.37147
11.252699
11.134736
11.019245
10.907376
10.799894
10.697473
10.600485
10.509006
10.422879
10.341796
10.265364
10.193174
10.124835
10.059992
9.9983372
9.9396103
9.8835939
9.8301016
9.7789657
9.7300288
9.6831357
9.6381251
9.5948202
9.5530172
9.5124734
9.4728868
9.4338842
9.3949759
9.3555696
9.3148327
9.271924
9.2251673
9.1749151
9.1117639
9.0692002
8.8828468
13.363294
13.193451
13.02864
12.868126
12.714435
12.569221
12.433468
12.307652
12.191493
12.08422
11.984857
11.892421
11.806029
11.724941
11.648563
11.576427
11.50817
11.443505
11.382209
11.324091
11.268972
11.216676
11.167015
11.119785
11.074756
11.031658
10.99017
10.949897
10.910354
10.870922
10.830839
10.78909
10.744575
10.695325
10.641538
10.572144
10.526845
10.30716
15.747932
15.508351
15.282258
15.066881
14.867681
14.687405
14.52618
14.382337
14.253142
14.135812
14.02803
13.928063
13.83469
13.747086
13.664704
13.587178
13.514248
13.445714
13.381406
13.321151
13.26475
13.211976
13.162567
13.116224
13.072608
13.031326
12.991919
12.95384
12.916424
12.878856
12.840117
12.798933
12.753802
12.702391
12.644509
12.567122
12.517749
12.25047
18.433917
18.12539
17.833707
17.565576
17.332766
17.135786
16.968734
16.824011
16.694943
16.576901
16.467123
16.364129
16.267207
16.17607
16.090639
16.010899
15.936811
15.868275
15.805128
15.74713
15.693965
15.645251
15.600559
15.559412
15.521286
15.485602
15.451703
15.418839
15.386111
15.35246
15.316537
15.276761
15.231079
15.176803
15.112982
15.024874
14.967048
14.645982
21.136563
20.741876
20.391632
20.093241
19.855778
19.668585
19.514894
19.381061
19.258509
19.143102
19.033335
18.928987
18.830391
18.738048
18.65242
18.5738
18.50225
18.437615
18.379581
18.3277
18.281426
18.24015
18.203216
18.169935
18.139578
18.111368
18.084453
18.057886
18.030553
18.001162
17.96806
17.929352
17.88249
17.824335
17.75335
17.652793
17.58472
17.204775
24.340816
23.868033
23.482532
23.192595
22.990386
22.841708
22.716585
22.599276
22.484366
22.371287
22.261333
22.156223
22.057617
21.966872
21.88489
21.812045
21.748207
21.692859
21.645273
21.604598
21.569925
21.540321
21.514848
21.492559
21.472493
21.453661
21.435011
21.415394
21.39347
21.367694
21.336071
21.296317
21.245313
21.179287
21.096079
20.976356
20.891097
20.433987
28.225954
27.704843
27.347147
27.133773
27.013991
26.923848
26.830036
26.726145
26.61579
26.503896
26.394568
26.291345
26.197101
26.113807
26.042373
25.982744
25.934085
25.895097
25.864353
25.840452
25.822063
25.807915
25.796781
25.78747
25.778813
25.769644
25.758749
25.744812
25.726287
25.701364
25.667679
25.622451
25.56194
25.481386
25.378225
25.229161
25.117017
24.558234
33.081886
32.602807
32.382466
32.326051
32.317457
32.281096
32.206844
32.110222
32.004524
31.89763
31.795175
31.702066
31.622112
31.557282
31.507666
31.471978
31.448058
31.43344
31.425884
31.423502
31.424661
31.427861
31.43168
31.434774
31.435872
31.433741
31.427108
31.414562
31.394399
31.364519
31.322174
31.263885
31.185315
31.080024
30.945836
30.752415
30.60144
29.90454
39.449038
39.151552
39.201929
39.34993
39.43247
39.421474
39.359105
39.279347
39.194161
39.108853
39.030326
38.965477
38.918479
38.890076
38.878266
38.879705
38.890499
38.907019
38.92657
38.947248
38.967491
38.985821
39.000827
39.011226
39.015863
39.01364
39.003382
38.983676
38.952708
38.90802
38.846456
38.763483
38.654324
38.509581
38.329374
38.069905
37.868025
36.972732
48.277826
48.298786
48.688997
48.99189
49.104251
49.117106
49.110653
49.100955
49.081524
49.055761
49.036022
49.03277
49.049126
49.082327
49.127087
49.177939
49.22975
49.27869
49.322822
49.361202
49.392923
49.4169
49.432088
49.437639
49.432867
49.417072
49.389351
49.348337
49.292115
49.217694
49.121482
48.997258
48.840281
48.635876
48.39046
48.034479
47.774049
46.57371
61.278403
61.439091
62.01305
62.3478
62.522547
62.709314
62.921038
63.104338
63.238914
63.344969
63.448798
63.562581
63.68494
63.808433
63.924868
64.029041
64.116998
64.187296
64.241043
64.279559
64.303191
64.311745
64.305135
64.283518
64.247098
64.195788
64.129035
64.045441
63.942915
63.817575
63.665433
63.4775
63.250245
62.959625
62.626145
62.132883
61.817639
60.12552
81.338176
80.30928
80.685985
81.25246
81.967308
82.803842
83.571624
84.166576
84.617111
84.9939
85.336961
85.651501
85.928755
86.161107
86.346082
86.48511
86.580741
86.638498
86.665432
86.666125
86.64273
86.596824
86.530226
86.44473
86.341661
86.221503
86.083897
85.927127
85.748787
85.543549
85.307335
85.026677
84.701996
84.292748
83.848273
83.169113
82.821396
80.353074
112.30892
106.51142
107.16435
109.69853
112.41359
114.84087
116.73679
118.14873
119.25121
120.17067
120.93518
121.54027
121.98916
122.29893
122.49307
122.59594
122.62337
122.59232
122.51728
122.40636
122.26469
122.09719
121.90843
121.70181
121.47928
121.24128
120.98722
120.71464
120.42084
120.09848
119.74463
119.33899
118.89219
118.33527
117.77414
116.87403
116.54111
113.06267
148.89823
137.38981
141.94971
151.55408
158.62155
163.644
167.34751
170.18567
172.4999
174.32473
175.66836
176.57839
177.13485
177.42327
177.51682
177.47173
177.32649
177.10119
176.81709
176.4904
176.13358
175.75641
175.36541
174.964
174.55353
174.13373
173.70363
173.26026
172.80136
172.31852
171.81193
171.25602
170.67657
169.97626
169.3298
168.27268
167.96032
164.10359
173.74483
174.02016
182.38663
211.46914
226.18662
235.2233
242.81311
249.23488
254.37573
258.15945
260.72665
262.32523
263.2139
263.60874
263.67028
263.506
263.20415
262.74745
262.18836
261.57592
260.9389
260.29268
259.6441
258.99522
258.3461
257.69569
257.04288
256.38458
255.71984
255.03987
254.35038
253.62041
252.89882
252.05222
251.35455
250.1717
249.91139
246.67788
114.9453
249.82122
196.17448
331.17144
369.9292
388.35136
408.83399
426.62329
439.66981
448.5053
454.2072
457.68172
459.62387
460.54202
460.79336
460.59527
460.18614
459.2812
458.1663
457.01724
455.87769
454.75826
453.66012
452.5817
451.52159
450.47881
449.45376
448.44597
447.45936
446.49068
445.55731
444.63551
443.80457
442.92329
442.36178
441.3956
441.48551
441.63723
3593.9983
591.45422
3531.6801
679.53937
871.24632
920.16827
1009.9657
1088.2323
1142.4549
1179.1214
1204.0647
1220.6123
1231.1392
1237.4813
1241.0097
1242.5545
1243.2282
1240.9343
1237.9021
1234.9236
1232.0052
1229.1324
1226.2993
1223.5034
1220.7449
1218.0258
1215.3498
1212.7236
1210.1562
1207.6629
1205.26
1202.9813
1200.8503
1198.9421
1197.2714
1196.0167
1195.0489
1196.516
14821.695
14498.772
14523.924
14441.333
14402.859
14373.916
14341.864
14310.426
14280.71
14252.45
14225.296
14199.007
14173.377
14148.238
14123.456
14098.95
14074.612
14050.629
14026.786
14003.02
13979.326
13955.702
13932.148
13908.662
13885.246
13861.9
13838.625
13815.421
13792.291
13769.24
13746.267
13723.389
13700.588
13677.933
13655.311
13633.02
13610.479
13588.279
14745.093
16284.446
18428.855
19727.038
21124.279
22355.281
23441.273
24418.858
25306.235
26101.438
26803.093
27411.602
27928.031
28353.791
28690.575
28940.425
29105.796
29190.372
29196.947
29129.17
28991.235
28787.645
28523.122
28202.497
27830.51
27414.704
397.71634
1027.9471
1986.4586
1988.1011
2018.9392
2193.2677
2525.8714
2838.041
3049.768
3204.4713
3329.1911
3433.4359
3520.8463
3592.7202
3649.5546
3691.8022
3720.1414
3729.9253
3725.7055
3709.3364
3681.3463
3642.3757
3593.1128
3534.1988
3465.7847
3373.7841
155.72106
247.17448
263.69803
763.30059
993.02795
1078.3432
1157.9939
1241.6033
1314.2031
1375.6219
1428.7178
1474.4087
1512.557
1543.0517
1566.1598
1582.3906
1592.2016
1594.7751
1591.4147
1582.7829
1569.2388
1551.0748
1528.5466
1501.9697
1471.3847
1434.5104
101.26425
121.53556
91.886202
364.73787
582.63457
677.67388
720.2378
752.57821
784.61633
815.85561
845.84327
874.3799
900.79347
924.10311
943.43362
958.24786
968.27154
973.28838
973.73999
970.12094
962.90207
952.37473
938.81388
922.63154
904.10886
882.9635
75.130761
82.803832
64.529587
179.21125
349.39181
462.32517
513.30096
537.91467
555.95626
573.29195
590.00765
606.2693
621.91253
636.45674
649.32538
659.98411
667.97075
672.98046
674.9633
674.01902
670.44253
664.29139
655.80375
645.40413
633.37308
619.97052
56.536745
59.510311
53.020623
77.291082
169.57791
278.01656
349.42959
384.68598
403.16892
416.52016
426.95136
436.29139
444.79251
452.52789
459.43045
465.26115
469.77083
472.80785
474.25037
474.00836
472.18414
468.63819
463.50033
457.09111
449.62096
441.48951
41.56415
44.293996
43.721712
46.761159
69.934682
133.49478
202.8675
254.82706
285.61121
302.88799
313.82642
322.23641
328.51463
333.70886
338.246
341.95447
344.78859
346.71846
347.63277
347.44146
346.12649
343.73669
340.32343
336.02183
331.05052
325.75273
31.513473
34.921529
35.656628
35.920428
40.584851
58.909427
100.40154
146.39178
187.34502
215.12431
232.20689
242.25195
248.92093
253.90719
257.90565
260.66953
262.7085
264.1347
264.78792
264.66129
263.77527
262.16345
259.84696
256.9163
253.55174
250.00778
24.393063
28.283429
29.213271
29.423761
30.192417
34.600073
47.87162
74.022646
105.03971
136.37874
161.64907
178.24337
188.69306
194.94462
198.86456
201.67002
203.84545
205.40426
206.05283
206.10589
205.66078
204.70106
203.19138
201.23285
198.99559
196.64611
19.120949
23.100784
24.138809
24.395286
24.559482
25.506221
28.931513
38.032726
53.35595
74.865638
96.735835
117.86525
134.38118
145.45535
152.15691
156.31898
158.68898
160.03319
160.95428
161.5197
161.72751
161.45014
160.61223
159.44367
158.1139
156.6986
15.134508
18.92703
20.046271
20.324167
20.506989
20.668218
21.501763
24.012404
29.770602
37.800419
51.419945
67.619547
82.641666
97.041178
108.38632
116.40074
121.42836
124.29057
126.00405
126.83662
127.02836
126.88618
126.62911
126.23128
125.74816
125.15598
12.098704
15.554995
16.699498
17.028212
17.223303
17.350872
17.513339
18.170693
19.98319
22.618534
28.193383
34.726669
45.169263
56.781662
66.989158
76.763073
85.073343
91.136242
95.305639
97.946234
99.351044
99.952049
100.15717
100.05521
99.784763
99.398746
9.782916
12.813309
13.930767
14.317911
14.52225
14.705501
14.792916
14.92862
15.472207
16.378877
18.235995
20.550927
25.049218
29.991382
37.125047
44.984585
52.424158
58.631087
64.385639
69.31434
72.949883
75.413696
77.042973
78.058001
78.644275
78.872275
7.9833268
10.543653
11.606351
12.042886
12.277574
12.464039
12.610448
12.668093
12.805425
13.087651
13.720981
14.589688
16.118645
17.917105
21.081319
24.680924
28.50307
33.544281
38.67878
43.505967
47.271198
50.51212
53.447268
55.968821
58.039845
59.512159
6.5691185
8.6664157
9.6672807
10.139714
10.407181
10.5948
10.757184
10.862452
10.921407
10.994588
11.192772
11.508924
12.067622
12.778084
13.880029
15.255227
16.852048
19.223113
21.741578
24.08993
26.94998
30.056506
33.026667
35.757551
38.207516
40.008109
5.311889
6.9484025
7.8423982
8.3181469
8.6030121
8.7944154
8.9411719
9.0677629
9.1547569
9.1975807
9.2332226
9.3041288
9.449963
9.6645954
9.9904158
10.430343
10.951046
11.632152
12.437135
13.223693
14.368494
15.73168
17.096429
18.38541
19.6982
21.269563
4.2692379
5.490133
6.24683
6.7087268
7.0157319
7.231146
7.3893397
7.5159511
7.6243209
7.7049517
7.7526
7.7754224
7.8047485
7.8556376
7.9414958
8.0714153
8.2394985
8.4559651
8.724694
9.0097969
9.3543093
9.768786
10.22336
10.682632
11.177871
11.801871
3.5762734
4.4870631
5.1143135
5.5389103
5.842135
6.0634554
6.2284824
6.3562889
6.4624665
6.5537746
6.6309377
6.6781222
6.702299
6.714206
6.7329546
6.7654901
6.8137991
6.8805773
6.9693485
7.0727394
7.1939617
7.3384277
7.5041123
7.6820704
7.8763856
8.0751209
3.1055586
3.7810293
4.2958054
4.6778717
4.9677559
5.1869846
5.3536523
5.483005
5.5871642
5.6751513
5.7529114
5.8198518
5.8669995
5.89341
5.9039242
5.9108583
5.9208507
5.9367367
5.9609704
5.9931086
6.0331929
6.0826547
6.1423024
6.2104956
6.2904898
6.3643341
2.7815969
3.2836409
3.7032581
4.0406182
4.3107119
4.5223551
4.6871599
4.816722
4.920762
5.0067657
5.0804036
5.1459301
5.2028793
5.2489327
5.2767871
5.2900207
5.2932413
5.2957037
5.2994159
5.3055552
5.3148069
5.3279736
5.3458727
5.3685494
5.3990791
5.4242382
2.5609604
2.9376463
3.2781438
3.5712234
3.817344
4.0169443
4.176479
4.3042606
4.4078549
4.4933521
4.5654407
4.6278005
4.6830368
4.7321956
4.7737879