/*--------------------------------*- C++ -*----------------------------------*\
  =========                 |
  \\      /  F ield         | OpenFOAM: The Open Source CFD Toolbox
   \\    /   O peration     | Website:  https://openfoam.org
    \\  /    A nd           | Version:  7
     \\/     M anipulation  |
\*---------------------------------------------------------------------------*/
FoamFile
{
    version     2.0;
    format      ascii;
    class       volScalarField;
    location    "2000";
    object      p;
}
// * * * * * * * * * * * * * * * * * * * * * * * * * * * * * * * * * * * * * //

dimensions      [0 2 -2 0 0 0 0];

internalField   nonuniform List<scalar> 
15296
(
0.82927231
0.82606216
0.82391482
0.82182625
0.81948443
0.81710734
0.81479632
0.81256346
0.81042671
0.80840003
0.80648397
0.80467231
0.80295691
0.80132932
0.79978217
0.79831081
0.79691462
0.79559836
0.79437395
0.79326304
0.79230062
0.7915405
0.7910634
0.79098894
0.79149408
0.79284007
0.79541688
0.79980499
0.80689441
0.81802797
0.83537855
0.86226235
0.90465962
0.97199959
1.0859436
1.2798576
1.6450314
2.3911189
0.82927563
0.82606433
0.82391724
0.82182981
0.81948917
0.81711296
0.81480267
0.81257041
0.81043413
0.80840782
0.80649204
0.80468062
0.80296542
0.80133799
0.79979098
0.79831972
0.79692354
0.79560716
0.79438244
0.79327087
0.7923073
0.79154526
0.79106506
0.79098571
0.79148328
0.79281759
0.79537645
0.79973696
0.80678387
0.8178512
0.83509816
0.8618141
0.90392816
0.97075083
1.0837347
1.2757121
1.6366372
2.3689474
0.82927771
0.82606585
0.82391891
0.82183259
0.81949301
0.81711766
0.81480811
0.81257651
0.81044078
0.8084149
0.80649949
0.80468838
0.80297345
0.80134626
0.79979946
0.79832835
0.79693226
0.79561584
0.79439089
0.79327882
0.79231428
0.79155058
0.79106766
0.79098399
0.79147478
0.79279856
0.7953411
0.79967625
0.80668367
0.81768862
0.83483638
0.86138954
0.90323268
0.96958492
1.0816686
1.2718276
1.628772
2.3456644
0.8292791
0.82606772
0.82392069
0.82183555
0.81949705
0.81712253
0.81481369
0.81258273
0.8104475
0.80842204
0.80650696
0.80469613
0.80298146
0.80135448
0.79980786
0.79833688
0.79694085
0.79562437
0.79439917
0.79328653
0.79232097
0.79155554
0.7910698
0.79098166
0.79146547
0.79277841
0.79530423
0.79961347
0.80658064
0.8175222
0.83456952
0.86095835
0.90252761
0.96839343
1.0795809
1.2679281
1.6209984
2.3232306
0.82928038
0.8260698
0.8239224
0.82183853
0.8195011
0.81712738
0.81481926
0.81258893
0.81045421
0.80842916
0.80651442
0.80470388
0.80298945
0.80136269
0.79981624
0.7983454
0.79694942
0.79563288
0.79440742
0.79329422
0.79232762
0.79156043
0.79107184
0.79097918
0.79145594
0.79275796
0.79526692
0.79955005
0.80647669
0.81735449
0.83430086
0.86052471
0.90181932
0.96719554
1.077482
1.264008
1.6132699
2.3013764
0.82928152
0.82607285
0.82392445
0.8218423
0.81950625
0.81713355
0.81482635
0.81259683
0.81046277
0.80843824
0.80652395
0.80471378
0.80299967
0.8013732
0.79982699
0.79835632
0.79696042
0.79564379
0.79441799
0.79330405
0.79233611
0.79156664
0.79107437
0.79097587
0.79144352
0.79273143
0.79521861
0.79946804
0.80634237
0.81713791
0.83395405
0.8599652
0.90090592
0.96565277
1.0747783
1.2589568
1.6034175
2.2740583
0.82928349
0.826077
0.82392683
0.82184701
0.81951269
0.81714124
0.81483519
0.8126067
0.81047348
0.80844963
0.8065359
0.80472621
0.80301252
0.80138641
0.79984051
0.79837006
0.79697426
0.79565752
0.79443128
0.79331641
0.79234676
0.79157439
0.79107742
0.79097148
0.79142754
0.7926975
0.79515701
0.79936364
0.80617158
0.81686275
0.8335138
0.85925548
0.89974894
0.9637009
1.0713626
1.2525772
1.5911131
2.2404027
0.82928518
0.82608217
0.82392921
0.82185219
0.81951978
0.81714966
0.81484489
0.81261754
0.81048526
0.80846217
0.80654908
0.80473995
0.80302674
0.80140104
0.79985549
0.7983853
0.7969896
0.79567274
0.79444602
0.79333009
0.79235851
0.79158287
0.7910806
0.7909663
0.79140931
0.79265911
0.79508752
0.79924609
0.80597954
0.81655367
0.83301969
0.85845957
0.89845323
0.96151735
1.0675466
1.2454486
1.5775308
2.2038752
0.82928624
0.82608868
0.82393149
0.82185782
0.81952751
0.8171588
0.81485542
0.81262935
0.81049811
0.80847587
0.80656351
0.80475499
0.80304233
0.80141711
0.79987195
0.79840206
0.79700648
0.79568949
0.79446222
0.7933451
0.79237134
0.79159204
0.79108384
0.79096015
0.79138857
0.7926158
0.79500947
0.79911434
0.80576463
0.8162082
0.83246796
0.8575717
0.89700997
0.95908949
1.0633086
1.2375293
1.5626219
2.1643811
0.82928551
0.82609678
0.82393354
0.8218639
0.81953592
0.81716869
0.81486684
0.81264219
0.81051212
0.80849084
0.80657931
0.80477151
0.80305947
0.8014348
0.7998901
0.79842054
0.79702511
0.79570796
0.79448007
0.79336161
0.7923854
0.79160196
0.79108706
0.7909528
0.79136478
0.79256663
0.79492122
0.7989658
0.80552277
0.81581995
0.83184865
0.85657621
0.89539454
0.95637991
1.0585828
1.2286943
1.5461803
2.1214616
0.82928413
0.82610695
0.82393534
0.82187054
0.81954519
0.8171795
0.81487933
0.81265627
0.81052751
0.80850732
0.80659673
0.80478975
0.80307843
0.80145439
0.79991022
0.79844104
0.79704578
0.79572845
0.79449984
0.79337985
0.79240084
0.79161269
0.79109018
0.79094394
0.79133731
0.79251044
0.79482089
0.7987974
0.80524913
0.81538141
0.83115013
0.85545489
0.89357874
0.95332905
1.0532955
1.2188085
1.5279843
2.0748202
0.82928154
0.8261195
0.82393664
0.8218776
0.81955516
0.81719102
0.81489267
0.81267136
0.81054404
0.80852508
0.80661555
0.80480951
0.80309901
0.80147569
0.79993212
0.79846338
0.79706831
0.79575078
0.79452137
0.79339964
0.79241749
0.79162404
0.791093
0.79093332
0.79130582
0.79244681
0.79470789
0.79860837
0.80494265
0.8148911
0.83037032
0.85420474
0.8915588
0.94991355
1.0474442
1.2078693
1.508046
2.024856
0.82927795
0.82613483
0.82393724
0.82188495
0.81956573
0.81720309
0.81490667
0.81268728
0.81056156
0.80854395
0.80663562
0.80483064
0.80312108
0.80149858
0.79995571
0.79848747
0.79709261
0.79577487
0.79454456
0.79342088
0.7924352
0.79163583
0.79109524
0.79092055
0.79126979
0.79237498
0.79458113
0.79839711
0.804601
0.81434563
0.82950424
0.85281843
0.88932417
0.94613073
1.0410101
1.1958481
1.4863211
1.9717851
0.82927277
0.82615339
0.823937
0.8218926
0.81957699
0.81721577
0.81492141
0.81270414
0.81058018
0.8085641
0.80665713
0.80485338
0.8031449
0.80152335
0.79998127
0.79851362
0.79711901
0.79580102
0.79456968
0.79344381
0.79245413
0.79164805
0.79109668
0.79090507
0.79122813
0.79229307
0.79443756
0.79815879
0.8042167
0.81373344
0.82853417
0.85126848
0.88683281
0.94193004
1.0338881
1.1825595
1.462476
1.915168
0.8292656
0.82617657
0.82393584
0.82190053
0.81958908
0.8172291
0.81493692
0.81272198
0.81059996
0.80858558
0.80668017
0.80487782
0.80317059
0.80155014
0.80000898
0.79854199
0.79714768
0.79582939
0.79459689
0.79346849
0.79247427
0.79166059
0.79109701
0.79088627
0.79117976
0.79219935
0.79427445
0.79788924
0.80378337
0.81304491
0.82744552
0.84953281
0.88405111
0.93726173
1.0260016
1.1678861
1.4363063
1.8550169
0.82925121
0.82621028
0.82393378
0.82190957
0.81960389
0.81724502
0.81495539
0.81274341
0.81062391
0.80861176
0.80670844
0.80490798
0.80320246
0.80158351
0.80004361
0.79857753
0.79718361
0.79586493
0.79463085
0.79349908
0.79249876
0.79167492
0.79109507
0.79085888
0.79111313
0.7920726
0.79405588
0.79753009
0.80320823
0.81213393
0.82600876
0.84724834
0.88039997
0.93117085
1.0157402
1.1489144
1.4024623
1.7805418
0.82924277
0.82624875
0.82393208
0.82191888
0.81961989
0.8172617
0.81497466
0.81276605
0.81064949
0.80864004
0.80673928
0.80494121
0.80323785
0.80162081
0.8000825
0.79861757
0.79722414
0.79590498
0.79466894
0.793533
0.79252519
0.79168887
0.7910891
0.79082186
0.79102833
0.79191481
0.79378691
0.79709129
0.80250927
0.81103147
0.8242771
0.84450459
0.8760394
0.92395028
1.0036634
1.1267068
1.3629737
1.6972002
0.82923675
0.82628732
0.82393173
0.82192677
0.81963455
0.81727635
0.81499137
0.81278601
0.8106724
0.80866574
0.80676773
0.80497225
0.80327126
0.80165632
0.80011976
0.79865608
0.79726319
0.7959435
0.79470534
0.7935649
0.79254904
0.79169939
0.79107842
0.79077821
0.79093414
0.79174362
0.79349875
0.79662499
0.80177085
0.80987231
0.82246424
0.84164406
0.87151552
0.91652194
0.99131985
1.1042656
1.3229773
1.6171007
0.82923434
0.8263284
0.82393306
0.82193293
0.81964736
0.81728834
0.81500475
0.81280244
0.81069177
0.80868798
0.80679289
0.80500023
0.80330183
0.80168921
0.80015457
0.79869228
0.79729997
0.79597971
0.79473926
0.79359399
0.79256954
0.7917057
0.79106224
0.79072721
0.7908299
0.79155852
0.79319117
0.79613144
0.80099411
0.80865919
0.8205755
0.83867746
0.8668455
0.90892288
0.97878286
1.0817947
1.2827572
1.54062
0.82923276
0.82637075
0.82393541
0.82193696
0.81965782
0.81729709
0.81501407
0.81281454
0.81070675
0.8087059
0.80681391
0.80502431
0.80332876
0.80171868
0.80018617
0.79872539
0.79733373
0.79601285
0.79476994
0.79361951
0.79258589
0.79170698
0.79103972
0.79066795
0.79071466
0.79135854
0.79286322
0.79560984
0.80017852
0.8073923
0.81861241
0.83560964
0.8620367
0.9011737
0.96605928
1.0594366
1.2425075
1.4678592
0.82923493
0.82641421
0.82393877
0.82193879
0.81966567
0.81730228
0.81501883
0.81282169
0.81071667
0.80871882
0.80683011
0.80504383
0.80335141
0.80174415
0.80021398
0.79875487
0.79736392
0.79604238
0.79479682
0.79364083
0.7925974
0.79170245
0.79100994
0.79059934
0.79058709
0.791142
0.7925128
0.7950575
0.79932069
0.80606751
0.81656975
0.83243549
0.85707984
0.89326927
0.95308282
1.0372513
1.2023111
1.3986741
0.82924154
0.8264622
0.82394598
0.82193956
0.81967087
0.81730346
0.81501826
0.81282292
0.81072049
0.80872562
0.80684039
0.8050577
0.80336873
0.80176457
0.800237
0.79877973
0.79738958
0.79606733
0.79481893
0.79365698
0.7926031
0.79169108
0.79097185
0.7905203
0.79044609
0.79090786
0.79213895
0.79447376
0.79842053
0.80468591
0.81445057
0.82916315
0.85198849
0.88523947
0.9399266
1.0153994
1.1624501
1.3331383
0.82925169
0.82651468
0.82395736
0.82193945
0.81967304
0.81729988
0.8150113
0.81281694
0.8107168
0.8087249
0.8068433
0.80506452
0.80337934
0.80177862
0.80025393
0.79879872
0.79740946
0.79608648
0.79483503
0.79366674
0.79260172
0.79167164
0.79092421
0.79042962
0.79029054
0.79065516
0.79174106
0.7938586
0.79747903
0.80325046
0.81226081
0.8258052
0.84678489
0.87712586
0.92671995
0.99403104
1.1232627
1.2713351
0.82927332
0.82657365
0.82397289
0.821938
0.81967125
0.81729049
0.81499673
0.8128024
0.8107042
0.80871521
0.80683746
0.80506293
0.80338193
0.80178504
0.80026356
0.79881064
0.79742239
0.79609866
0.79484397
0.79366891
0.79259208
0.79164288
0.79086574
0.79032597
0.79011907
0.79038251
0.79131777
0.79321088
0.79649547
0.8017615
0.81000246
0.82236787
0.84148183
0.86894853
0.91350469
0.973136
1.0850034
1.2131644
0.8292986
0.8266372
0.82399255
0.82193505
0.81966454
0.81727404
0.81497311
0.8127777
0.81068104
0.80869495
0.80682128
0.80505141
0.80337505
0.80178243
0.80026453
0.79881418
0.79742709
0.79610259
0.79484446
0.7936622
0.79257282
0.79160339
0.79079495
0.79020781
0.78993005
0.79008822
0.79086738
0.79252896
0.79546846
0.80021843
0.80767621
0.81885516
0.83608966
0.86072259
0.9002885
0.95270583
1.0479409
1.1584968
0.8293403
0.82670997
0.82401828
0.82193126
0.81965242
0.81724943
0.81493901
0.81274118
0.81064556
0.80866232
0.80679299
0.80502823
0.80335704
0.80176919
0.8002553
0.79880783
0.79742207
0.79609679
0.79483501
0.79364509
0.7925424
0.79155163
0.79071028
0.79007353
0.7897219
0.78977079
0.79038857
0.79181196
0.7943979
0.79862265
0.80528607
0.81527586
0.83062664
0.8524837
0.88712601
0.93289781
1.0123425
1.10726
0.82940078
0.82679426
0.82405234
0.82192814
0.81963491
0.81721572
0.81489296
0.81269097
0.81059567
0.80861518
0.80675047
0.80499132
0.80332588
0.80174337
0.80023398
0.79878975
0.79740552
0.79607949
0.79481385
0.79361583
0.79249909
0.79148585
0.79061
0.78992148
0.78949309
0.78942893
0.78988047
0.79105971
0.79328483
0.79697734
0.80283884
0.8116426
0.82511719
0.84427184
0.87409407
0.91375412
0.97841989
1.0594555
0.82947883
0.82689255
0.82409598
0.82192588
0.81961102
0.81717114
0.81483287
0.81262477
0.81052899
0.80855118
0.80669144
0.80493851
0.80327952
0.80170302
0.80019871
0.79875816
0.79737571
0.79604896
0.79477929
0.79357272
0.79244115
0.79140428
0.79049231
0.78974981
0.78924173
0.78906074
0.78934124
0.79027059
0.79212808
0.79528217
0.80033616
0.80795942
0.81957398
0.83610138
0.86125647
0.89516961
0.94644352
1.0150253
0.82958387
0.82701337
0.82415289
0.82192551
0.8195797
0.81711332
0.81475583
0.81253946
0.81044238
0.80846729
0.80661309
0.80486717
0.80321552
0.80164588
0.80014736
0.79871103
0.7973307
0.79600335
0.7947295
0.79351394
0.79236679
0.79130515
0.79035546
0.78955683
0.78896621
0.78866479
0.78876973
0.78944397
0.79092798
0.79353896
0.79778298
0.80423468
0.8140172
0.8279942
0.84869116
0.87716119
0.91654998
0.97391227
0.82971408
0.82715361
0.82421884
0.82192303
0.81953647
0.81703748
0.81465732
0.81243078
0.81033182
0.80835986
0.80651208
0.80477431
0.80313116
0.80156946
0.80007764
0.79864621
0.79726845
0.79594069
0.79466258
0.79343767
0.79227425
0.79118677
0.79019784
0.78934104
0.78866525
0.78824009
0.7881655
0.78858021
0.78968629
0.79175144
0.79518708
0.80048029
0.80847184
0.81997929
0.83646978
0.85978865
0.88864878
0.93605536
0.82990413
0.82732941
0.82430111
0.82192075
0.81947977
0.81694009
0.81453334
0.81229468
0.81019344
0.80822537
0.80638532
0.80465718
0.80302403
0.80147162
0.79998762
0.79856196
0.79718735
0.79585948
0.79457713
0.79334257
0.79216226
0.79104794
0.79001835
0.78910149
0.78833811
0.78778622
0.78752861
0.78768013
0.78840509
0.78992345
0.79255586
0.79670708
0.80295948
0.81208224
0.8246449
0.843106
0.86275413
0.90120843
0.83014726
0.82753747
0.8244004
0.82192004
0.81940862
0.81681871
0.81438113
0.81212823
0.81002431
0.8080611
0.80623039
0.80451366
0.80289226
0.80135072
0.79987586
0.79845697
0.79708621
0.79575863
0.79447214
0.79322775
0.79203002
0.79088802
0.78981657
0.78883803
0.78798502
0.78730402
0.78686078
0.78674669
0.78708933
0.78806263
0.78990169
0.79293299
0.79750944
0.80434235
0.81327532
0.8271871
0.83890925
0.86922114
0.83048668
0.82779168
0.82451691
0.82191801
0.81931835
0.8166696
0.8141992
0.81193164
0.80982589
0.80786951
0.80605037
0.8043472
0.80273951
0.8012105
0.79974612
0.79833504
0.7969689
0.79564218
0.79435199
0.79309811
0.79188331
0.79071404
0.78960135
0.78856221
0.78762141
0.78681441
0.78619081
0.78581991
0.78579513
0.78624791
0.78733662
0.78931636
0.79234719
0.79707896
0.80280216
0.81266446
0.81784937
0.84120289
0.8308874
0.82806703
0.82463504
0.82190966
0.81921116
0.81650025
0.81399856
0.8117179
0.80961214
0.80766476
0.80585916
0.80417115
0.80257846
0.801063
0.79960987
0.79820721
0.79684626
0.79552101
0.7942279
0.79296563
0.79173539
0.79054127
0.78939094
0.78829653
0.78727586
0.78635461
0.78556806
0.78496621
0.7846128
0.78460284
0.78503024
0.78609044
0.78779056
0.79072774
0.79379117
0.80030675
0.80040859
0.81823313
0.83135515
0.82836593
0.82475407
0.82189667
0.81909288
0.81631992
0.81379005
0.8114987
0.80939515
0.80745871
0.80566806
0.8039962
0.80241916
0.80091764
0.79947601
0.798082
0.7967265
0.79540319
0.79410797
0.79283864
0.79159499
0.79037911
0.78919573
0.78805282
0.78696218
0.78594108
0.78501257
0.78421031
0.78357299
0.78316555
0.78302893
0.78331097
0.78389892
0.78535023
0.78626387
0.7900907
0.78632134
0.79982132
0.83188946
0.82867683
0.82486429
0.82187354
0.81896134
0.81612934
0.8135756
0.81127671
0.80917813
0.80725475
0.80548048
0.80382571
0.80226486
0.80077758
0.7993476
0.79796232
0.79661247
0.79529148
0.79399486
0.79271967
0.79146446
0.79022963
0.78901739
0.78783211
0.78668042
0.7855724
0.78452061
0.78354492
0.78266284
0.78191454
0.78129698
0.78092076
0.78057673
0.78079657
0.77995987
0.78162072
0.77486493
0.7849503
0.8325103
0.82899958
0.82496599
0.82184129
0.81881847
0.81593202
0.8133588
0.81105549
0.80896456
0.80705607
0.80529931
0.80366228
0.80211796
0.80064499
0.79922662
0.79785005
0.79650589
0.79518748
0.79389005
0.79261002
0.79134494
0.7900937
0.78885637
0.78763427
0.78642955
0.78524619
0.78408778
0.78296257
0.78187009
0.78083031
0.77980321
0.77887108
0.77774508
0.77694469
0.77467469
0.77458864
0.76550227
0.77287387
0.83320055
0.82931561
0.82505289
0.8217968
0.81866342
0.81572932
0.81314134
0.81083696
0.80875639
0.80686443
0.80512612
0.80350733
0.80197965
0.80052091
0.79911399
0.79774597
0.79640745
0.79509178
0.79379403
0.79251008
0.79123659
0.78997122
0.78871221
0.78745827
0.78620774
0.78495939
0.78370916
0.7824556
0.78118292
0.77989475
0.77851967
0.77711924
0.77533689
0.77369244
0.77024331
0.76874856
0.75782426
0.76302936
0.83398438
0.82961914
0.82512568
0.82174021
0.81849749
0.81552369
0.81292522
0.81062289
0.80855511
0.80668098
0.80496176
0.80336144
0.80185034
0.80040562
0.79900985
0.79765013
0.79631712
0.79500427
0.79370659
0.7924195
0.79113893
0.78986148
0.78858385
0.78730254
0.78601264
0.78470855
0.78337965
0.78201644
0.78059006
0.77909109
0.77742117
0.77562751
0.77329452
0.77095343
0.76653066
0.76390192
0.75151365
0.75498571
0.83486681
0.82989215
0.825181
0.82166864
0.81832033
0.81531607
0.81271116
0.81041404
0.80836129
0.80650602
0.80480634
0.80322455
0.80172983
0.80029877
0.7989138
0.79756206
0.79623438
0.79492437
0.79362709
0.79233756
0.79105109
0.78976339
0.78846989
0.78716521
0.78584171
0.78449008
0.78309417
0.7816378
0.78008094
0.77840391
0.77648503
0.77436249
0.7715681
0.768654
0.76342488
0.75988653
0.74632062
0.74840723
0.83585293
0.83011629
0.82521738
0.82157976
0.81813265
0.81510783
0.81250003
0.8102112
0.80817536
0.80633965
0.80465974
0.80309635
0.80161767
0.80019984
0.79882523
0.79748112
0.79615853
0.79485136
0.79355475
0.79226343
0.79097211
0.78967582
0.7883689
0.78704443
0.78569245
0.78430057
0.78284792
0.78131286
0.77964582
0.77781917
0.7756909
0.77329455
0.77011423
0.76673084
0.76083231
0.75656839
0.74204524
0.74302909
0.83694786
0.83027511
0.82523642
0.82147243
0.81793633
0.81490064
0.81229287
0.81001514
0.80799767
0.80618193
0.80452176
0.80297648
0.80151337
0.80010826
0.79874353
0.79740667
0.79608893
0.79478459
0.79348892
0.79219636
0.79090117
0.78959778
0.78827964
0.78693857
0.78556264
0.78413694
0.78263658
0.78103548
0.77927594
0.77732428
0.7750207
0.77239759
0.76889528
0.76512966
0.75867437
0.75383657
0.73852632
0.73864162
0.8381537
0.83035309
0.82524149
0.82134587
0.81773384
0.81469607
0.8120906
0.80982653
0.80782845
0.80603279
0.80439216
0.80286457
0.80141648
0.80002354
0.7986682
0.79733822
0.79602513
0.79472359
0.79342912
0.79213586
0.79083767
0.78952852
0.78820114
0.78684628
0.78545041
0.78399649
0.7824563
0.78080017
0.77896345
0.776908
0.77445841
0.77164863
0.7678785
0.76380368
0.7568847
0.75159836
0.73563241
0.73507715
0.83946957
0.83033171
0.82523433
0.82119815
0.81752735
0.81449517
0.81189395
0.8096459
0.80766786
0.80589219
0.80427077
0.80276032
0.80132668
0.79994535
0.79859895
0.79727553
0.79596688
0.79466817
0.79337515
0.7920817
0.79078131
0.78946759
0.78813268
0.78676651
0.78535417
0.78387692
0.78230374
0.78060208
0.77870139
0.77656038
0.77398986
0.77102748
0.76703547
0.76271259
0.75540714
0.74977602
0.7332556
0.73220105
0.84090346
0.83019676
0.82521892
0.82102868
0.81732
0.81429928
0.81170393
0.80947389
0.80751615
0.8057602
0.80415751
0.80266363
0.80124385
0.79987362
0.79853576
0.7972186
0.79591427
0.79461841
0.79332707
0.79203387
0.79073198
0.78941471
0.78807377
0.78669839
0.78527258
0.78377621
0.7821759
0.78043688
0.77848357
0.77627255
0.77360255
0.77051641
0.76634147
0.76182164
0.75419406
0.74830419
0.73130688
0.72990467
0.84245523
0.82993592
0.82519982
0.82083754
0.81711547
0.81410985
0.81152175
0.80931127
0.8073737
0.80563704
0.80405254
0.80257463
0.80116816
0.79980857
0.79847889
0.79716776
0.7958676
0.79457461
0.79328514
0.79199253
0.79068969
0.78936972
0.78802398
0.78664118
0.78520443
0.78369249
0.78207007
0.78030062
0.77830437
0.77603658
0.77328535
0.77009982
0.76577494
0.76110083
0.75320491
0.74712764
0.72971237
0.72809964
0.84411555
0.82954127
0.82518289
0.8206258
0.81691785
0.81392842
0.81134875
0.80915888
0.80724107
0.8055232
0.80395634
0.80249385
0.8011002
0.79975082
0.79842898
0.79712364
0.79582747
0.79453729
0.79324977
0.79195798
0.79065459
0.78933256
0.78798302
0.78659425
0.78514867
0.78362415
0.78198383
0.78018985
0.77815888
0.77584551
0.77302856
0.76976414
0.76531726
0.76052441
0.75240524
0.74619977
0.72841056
0.72671361
0.84587792
0.82900826
0.82517318
0.82039342
0.81672985
0.81375482
0.81118466
0.80901592
0.80711732
0.80541776
0.80386804
0.80242047
0.80103915
0.79969952
0.79838511
0.79708519
0.79579274
0.79450517
0.79321953
0.79192863
0.79062491
0.78930127
0.78794866
0.78655507
0.78510235
0.78356773
0.78191305
0.78009946
0.77804069
0.77569119
0.77282164
0.76949554
0.76495032
0.76006819
0.7517639
0.74547874
0.72734916
0.72568302
0.84773293
0.82833109
0.82517895
0.82014427
0.81655702
0.81359199
0.81103256
0.80888547
0.8070058
0.80532433
0.80379134
0.80235816
0.80098858
0.79965809
0.79835053
0.79705552
0.79576631
0.79448101
0.79319705
0.79190693
0.79060295
0.78927796
0.78792282
0.78652531
0.78506686
0.78352419
0.78185811
0.78002911
0.77794845
0.77557085
0.77265991
0.76928674
0.76466334
0.75971682
0.75125961
0.74493619
0.72648778
0.72496964
0.84942387
0.82763405
0.82520573
0.81992315
0.81642581
0.81346462
0.8109155
0.80878715
0.80692332
0.8052569
0.80373761
0.80231601
0.80095572
0.79963235
0.79833003
0.79703867
0.79575177
0.79446805
0.79318528
0.79189568
0.79059144
0.78926542
0.78790843
0.78650815
0.78504571
0.78349754
0.78182373
0.77998442
0.77788904
0.77549302
0.77255411
0.76915126
0.76447353
0.75949175
0.75091947
0.74460534
0.72586702
0.72460388
0.85076236
0.8270395
0.82522413
0.81974688
0.81632748
0.81336713
0.81082772
0.80871465
0.80686342
0.80520866
0.8036997
0.80228669
0.80093317
0.79961485
0.79831616
0.79702723
0.79574177
0.79445897
0.79317687
0.79188749
0.79058294
0.78925608
0.78789772
0.78649549
0.78503035
0.78347852
0.78179966
0.77995367
0.77784886
0.77544107
0.77248446
0.76906272
0.76435097
0.75934663
0.75070303
0.74439327
0.72547063
0.72437177
0.85201129
0.82646329
0.82523527
0.8195842
0.81623949
0.81327981
0.81075095
0.80865228
0.80681261
0.80516821
0.80366826
0.80226263
0.80091481
0.79960066
0.79830486
0.79701779
0.79573331
0.79445108
0.79316937
0.79188004
0.79057509
0.78924742
0.78788787
0.78648401
0.7850167
0.78346199
0.78177923
0.77992816
0.77781621
0.77539956
0.77242969
0.76899385
0.7642568
0.7592358
0.75053925
0.74423354
0.72516727
0.72420099
0.85317343
0.82591276
0.82523896
0.81943417
0.81616094
0.81320338
0.81068578
0.80860047
0.80677115
0.80513577
0.80364353
0.80224411
0.80090098
0.79959016
0.79829657
0.79701082
0.79572691
0.79444494
0.79316341
0.79187397
0.79056857
0.78924016
0.78787958
0.78647439
0.78500535
0.78344843
0.78176272
0.77990782
0.77779056
0.77536736
0.7723877
0.76894157
0.76418588
0.75915312
0.75041723
0.74411673
0.72493557
0.72408248
0.85424941
0.82539133
0.82523122
0.81929452
0.81609074
0.81313758
0.81063144
0.80855813
0.80673779
0.80511007
0.80362428
0.80222991
0.80089049
0.79958217
0.79829016
0.79700525
0.79572158
0.79443963
0.79315808
0.79186844
0.79056259
0.7892335
0.78787206
0.78646581
0.78499545
0.78343687
0.78174897
0.77989128
0.77777016
0.77534221
0.77235549
0.76890199
0.7641329
0.75909195
0.75032763
0.74403227
0.7247607
0.72400147
0.85523918
0.82489764
0.82520822
0.81916513
0.81602997
0.81308317
0.8105877
0.8085246
0.80671178
0.80509034
0.80360971
0.80221928
0.80088261
0.79957606
0.79828507
0.79700059
0.79571691
0.79443481
0.79315315
0.79186327
0.79055701
0.78922736
0.78786524
0.7864582
0.78498688
0.78342711
0.78173767
0.77987801
0.77775418
0.77532292
0.77233125
0.76887263
0.76409418
0.7590477
0.75026349
0.74397273
0.72463094
0.72394814
0.85614069
0.82442609
0.82516926
0.81904946
0.8159817
0.81304141
0.81055459
0.80849964
0.80669281
0.80507628
0.80359954
0.80221195
0.80087717
0.79957174
0.79828131
0.79699699
0.79571314
0.79443083
0.79314903
0.79185896
0.79055237
0.78922232
0.78785973
0.78645215
0.78498019
0.78341964
0.78172918
0.77986822
0.77774259
0.77530912
0.77231414
0.76885212
0.76406743
0.75901741
0.75021989
0.74393308
0.7245375
0.72391625
0.85694595
0.82397016
0.8251187
0.81895344
0.81594858
0.81301222
0.81053125
0.80848251
0.80668033
0.80506744
0.80359344
0.80220777
0.80087419
0.79956943
0.79827929
0.796995
0.79571098
0.7944285
0.79314663
0.79185645
0.79054968
0.7892194
0.78785654
0.78644867
0.78497635
0.78341535
0.78172429
0.77986255
0.7777358
0.77530096
0.77230392
0.7688398
0.76405123
0.75899913
0.75019334
0.74390974
0.72447386
0.72390134
0.85763965
0.82353
0.82506863
0.81888255
0.81592929
0.81299194
0.81051427
0.80847037
0.80667171
0.80506129
0.80358901
0.80220449
0.80087162
0.79956726
0.79827733
0.7969931
0.79570902
0.79442648
0.79314465
0.7918545
0.79054772
0.78921739
0.78785447
0.78644651
0.78497407
0.78341289
0.78172155
0.77985942
0.77773209
0.77529652
0.77229835
0.76883308
0.76404238
0.75898924
0.75017897
0.74389768
0.72443297
0.72389643
0.85820748
0.82312949
0.82505364
0.81885622
0.8159361
0.81299258
0.81051654
0.8084761
0.80667942
0.80506997
0.80359821
0.802214
0.80088135
0.79957712
0.7982873
0.79700314
0.79571905
0.7944365
0.79315476
0.7918647
0.79055799
0.78922772
0.78786484
0.78645691
0.78498448
0.78342328
0.78173186
0.77986961
0.77774207
0.77530621
0.77230758
0.76884189
0.76405036
0.75899696
0.75018504
0.74390535
0.72442179
0.72390777
0.85852826
0.82281472
0.82507234
0.81886279
0.81595571
0.81300514
0.81053122
0.80849422
0.80669915
0.8050902
0.80361867
0.8022347
0.80090232
0.79959836
0.79830878
0.79702483
0.79574086
0.79445836
0.79317668
0.79188673
0.79058011
0.78924991
0.7878871
0.78647921
0.7850068
0.7834456
0.78175417
0.77989189
0.77776429
0.77532837
0.77232965
0.76886393
0.76407225
0.75901915
0.7502069
0.74392868
0.72443437
0.72392712
0.85854062
0.82254062
0.82510453
0.81886127
0.81596473
0.81302054
0.81055964
0.80853308
0.80674404
0.80513875
0.80366985
0.8022879
0.80095703
0.7996542
0.79836544
0.79708208
0.7957985
0.79451609
0.79323448
0.79194459
0.79063801
0.78930782
0.78794499
0.78653705
0.78506459
0.78350332
0.78181181
0.77994943
0.77782174
0.77538572
0.77238693
0.76892108
0.76412951
0.75907613
0.75026478
0.74398497
0.72448984
0.72396356
0.85864112
0.82237819
0.82533225
0.81897805
0.81608746
0.81315442
0.81070308
0.80867856
0.8068878
0.80528075
0.80381086
0.80242842
0.80109731
0.79979434
0.79850549
0.79722207
0.79593835
0.79465571
0.79337403
0.79208415
0.79077759
0.78944739
0.78808454
0.78667658
0.7852041
0.78364283
0.78195133
0.78008896
0.77796133
0.77552535
0.77252674
0.76906096
0.76426992
0.75921637
0.75040692
0.74412469
0.72463506
0.7240541
0.85917085
0.82255623
0.82570008
0.81919865
0.81629843
0.81335196
0.8108814
0.80883791
0.80703299
0.80541669
0.80394089
0.80255462
0.80122097
0.79991628
0.79862624
0.797342
0.79605759
0.79477457
0.79349281
0.79220297
0.79089646
0.78956632
0.78820353
0.78679565
0.78532328
0.78376213
0.78207079
0.78020862
0.77808124
0.77564556
0.77264738
0.76918201
0.76439184
0.75933869
0.75053134
0.74424815
0.72476487
0.72412489
0.85970647
0.82284744
0.82587383
0.81930404
0.81639875
0.81343386
0.81094436
0.80888861
0.80707732
0.80545768
0.80397993
0.80259241
0.80125794
0.7999527
0.79866226
0.79737775
0.79609312
0.79481009
0.7935284
0.79223862
0.79093216
0.78960206
0.78823932
0.7868315
0.7853592
0.78379814
0.7821069
0.78024487
0.77811765
0.77568217
0.77268425
0.76921921
0.7644295
0.75937683
0.75057038
0.74428773
0.72480555
0.72414693
4.1502863
1.0743894
0.6300845
0.49716464
0.31122736
0.19444944
0.099307528
0.011220341
-0.071046101
-0.1508377
-0.22954557
-0.30719009
-0.3835622
-0.45829149
-0.53088229
-0.60075114
-0.66731401
-0.72998178
-0.78815224
-0.84127593
-0.88873826
-0.9299083
-0.9639133
-0.9896541
-1.0050663
-1.0045185
4.1442175
1.110327
0.63955345
0.4992088
0.31263058
0.1953198
0.10003588
0.011872466
-0.07046804
-0.1503134
-0.22906516
-0.30675162
-0.38316621
-0.45793955
-0.53057609
-0.60049184
-0.66710194
-0.72981677
-0.78803277
-0.84119943
-0.88870131
-0.92990682
-0.96394243
-0.98970793
-1.0051381
-1.0045997
4.1364962
1.14662
0.65454018
0.50459888
0.31540912
0.19674299
0.10090756
0.012499252
-0.069990619
-0.14993211
-0.22875232
-0.30649356
-0.3829562
-0.45777475
-0.53045547
-0.60041499
-0.66706817
-0.72982559
-0.7880826
-0.8412877
-0.8888246
-0.9300612
-0.96412337
-0.98990991
-1.0053553
-1.0048324
4.121413
1.1760864
0.67014303
0.51188915
0.31999145
0.19944303
0.10260077
0.013672624
-0.069125763
-0.14926859
-0.22823213
-0.30608189
-0.38263111
-0.45752244
-0.53026713
-0.60028468
-0.66699124
-0.72979797
-0.78810046
-0.84134678
-0.88892008
-0.93018803
-0.96427614
-0.99008247
-1.0055423
-1.005042
4.1002601
1.2027196
0.68555527
0.51931764
0.32528873
0.20299886
0.10507189
0.015499207
-0.067700356
-0.14810941
-0.22726758
-0.30526814
-0.38193869
-0.45693088
-0.52976176
-0.59985458
-0.66662751
-0.72949275
-0.78784713
-0.84113912
-0.88875171
-0.9300528
-0.9641679
-0.98999459
-1.0054701
-1.0049994
4.0671484
1.2335297
0.70508807
0.52826968
0.33200745
0.20788578
0.10868684
0.018246056
-0.065523594
-0.14630792
-0.22573511
-0.30394246
-0.38077995
-0.45591157
-0.52886196
-0.59905905
-0.66592368
-0.72886978
-0.78729557
-0.84065018
-0.88831673
-0.92966334
-0.96381597
-0.98967196
-1.0051717
-1.0047504
4.0189897
1.2675224
0.72965127
0.53925904
0.34036297
0.21425995
0.11369582
0.022226505
-0.062304263
-0.14363019
-0.2234518
-0.30195866
-0.37903267
-0.45435862
-0.52747373
-0.59781415
-0.66480487
-0.72786256
-0.78638705
-0.83982841
-0.88757025
-0.9289807
-0.96318646
-0.98908538
-1.004623
-1.0042831
3.9576528
1.2996752
0.75581135
0.55145525
0.34931119
0.22115942
0.11933393
0.02691539
-0.058368983
-0.14028109
-0.22056732
-0.29944699
-0.37681961
-0.45238975
-0.52570883
-0.59622371
-0.6633661
-0.7265568
-0.78519857
-0.83874259
-0.88657343
-0.92805959
-0.9623287
-0.98827978
-1.0038659
-1.003635
3.8832978
1.3294789
0.78326444
0.56533094
0.35906889
0.22851326
0.12537098
0.032067336
-0.053915163
-0.13637465
-0.21712292
-0.29640246
-0.37411942
-0.44998438
-0.52355555
-0.5942852
-0.66161266
-0.72496346
-0.78374408
-0.83740842
-0.88534251
-0.92691626
-0.96125899
-0.98727161
-1.0029175
-1.0028262
3.79433
1.3563193
0.8121471
0.58074203
0.37007389
0.23663965
0.13190528
0.037635279
-0.049025891
-0.13200272
-0.21317711
-0.29283042
-0.3708908
-0.44706862
-0.52092358
-0.59190591
-0.65945702
-0.72300418
-0.78195432