/*--------------------------------*- C++ -*----------------------------------*\
  =========                 |
  \\      /  F ield         | OpenFOAM: The Open Source CFD Toolbox
   \\    /   O peration     | Website:  https://openfoam.org
    \\  /    A nd           | Version:  7
     \\/     M anipulation  |
\*---------------------------------------------------------------------------*/
FoamFile
{
    version     2.0;
    format      ascii;
    class       volScalarField;
    location    "2000";
    object      k;
}
// * * * * * * * * * * * * * * * * * * * * * * * * * * * * * * * * * * * * * //

dimensions      [0 2 -2 0 0 0 0];

internalField   nonuniform List<scalar> 
15296
(
0.0016937921
0.0016883643
0.0016831458
0.0016781048
0.001673213
0.0016684536
0.0016638154
0.0016592901
0.0016548709
0.001650552
0.0016463283
0.0016421952
0.0016381485
0.0016341848
0.0016303006
0.001626493
0.0016227581
0.001619094
0.0016154978
0.0016119679
0.0016084991
0.0016050951
0.0016017421
0.0015984498
0.0015953074
0.0015928128
0.0015920723
0.0015865523
0.001604458
0.0015115358
0.0014150651
0.0012723389
0.0010963545
0.0011362181
0.0014558655
0.001374397
0.0010573891
0.0008406066
0.0016938513
0.0016884204
0.0016832045
0.0016781647
0.001673274
0.0016685159
0.001663879
0.001659355
0.001654937
0.0016506193
0.0016463967
0.0016422646
0.0016382189
0.001634256
0.0016303726
0.0016265656
0.0016228311
0.0016191675
0.0016155715
0.001612042
0.0016085733
0.0016051696
0.0016018165
0.0015985224
0.0015953813
0.0015929233
0.0015923418
0.0015867026
0.0016056032
0.0015145748
0.0014188265
0.0012779133
0.0011008629
0.001123179
0.0014400621
0.0013633912
0.0010636899
0.00081559182
0.0016939758
0.0016885419
0.0016833286
0.0016782893
0.0016733994
0.0016686424
0.0016640067
0.0016594841
0.0016550675
0.0016507511
0.0016465297
0.0016423987
0.0016383539
0.0016343918
0.0016305089
0.0016267023
0.0016229679
0.0016193043
0.0016157082
0.0016121785
0.0016087093
0.0016053052
0.0016019515
0.0015986528
0.001595515
0.001593143
0.0015929023
0.0015870978
0.0016075656
0.0015206374
0.0014263742
0.0012891296
0.0011116538
0.001097659
0.0013994167
0.0013343253
0.0010663905
0.00074916552
0.0016941592
0.0016887267
0.001683515
0.0016784754
0.0016735857
0.0016688293
0.0016641946
0.0016596731
0.0016552577
0.0016509425
0.0016467223
0.0016425923
0.0016385484
0.0016345869
0.0016307044
0.0016268979
0.0016231634
0.0016194994
0.0016159026
0.0016123722
0.001608902
0.0016054969
0.001602142
0.001598836
0.0015956999
0.0015934484
0.001593697
0.0015877193
0.0016099267
0.0015298588
0.0014380127
0.0013057866
0.0011299516
0.0010694309
0.0013346956
0.0012830761
0.0010531377
0.00066287354
0.0016943995
0.0016889747
0.0016837629
0.0016787221
0.0016738317
0.0016690753
0.0016644412
0.0016599204
0.001655506
0.0016511918
0.0016469726
0.0016428436
0.0016388005
0.0016348396
0.0016309573
0.0016271508
0.0016234159
0.0016197513
0.0016161535
0.0016126221
0.0016091504
0.0016057436
0.0016023872
0.0015990708
0.0015959306
0.0015938192
0.001594688
0.0015885681
0.0016123019
0.0015430731
0.0014548606
0.0013290901
0.0011576401
0.0010469666
0.0012446789
0.0012082794
0.0010146799
0.00059779257
0.0016947829
0.0016893762
0.0016841624
0.0016791187
0.0016742262
0.0016694687
0.0016648343
0.0016603138
0.0016559
0.0016515866
0.0016473683
0.0016432402
0.001639198
0.0016352377
0.0016313558
0.0016275491
0.0016238136
0.0016201478
0.0016165485
0.0016130152
0.0016095414
0.0016061315
0.0016027732
0.0015994404
0.0015962817
0.0015943424
0.0015961073
0.0015899048
0.0016147735
0.001565527
0.0014817707
0.0013651599
0.0012018765
0.001037273
0.0011089806
0.0010928502
0.00092654422
0.00053140364
0.0016954209
0.0016900485
0.0016848315
0.0016797837
0.0016748873
0.0016701266
0.00166549
0.001660968
0.0016565531
0.0016522388
0.0016480199
0.0016438914
0.0016398488
0.001635888
0.0016320052
0.0016281972
0.0016244599
0.0016207916
0.0016171892
0.0016136523
0.0016101747
0.0016067593
0.001603398
0.0016000443
0.0015968443
0.0015950599
0.0015978879
0.0015918417
0.0016166672
0.0015943574
0.0015123489
0.0014037821
0.001244461
0.0010526002
0.00097344019
0.00096485582
0.00074136042
0.00040475271
0.0016963558
0.0016910074
0.0016857916
0.0016807395
0.001675837
0.0016710706
0.001666429
0.0016619028
0.0016574839
0.0016531661
0.0016489439
0.0016448124
0.0016407671
0.0016368038
0.0016329183
0.0016291073
0.0016253666
0.0016216942
0.0016180869
0.0016145443
0.0016110613
0.0016076379
0.0016042719
0.0016008969
0.0015976283
0.0015959309
0.0015997953
0.0015942438
0.0016172607
0.0016202077
0.0015429023
0.0014427892
0.0012720547
0.0010662653
0.000874654
0.00085833886
0.00046270231
0.00020874983
0.0016976982
0.0016923416
0.0016871363
0.0016820799
0.0016771688
0.0016723932
0.0016677428
0.0016632083
0.0016587815
0.001654456
0.0016502264
0.001646088
0.0016420364
0.0016380672
0.0016341761
0.0016303595
0.0016266131
0.0016229342
0.0016193199
0.0016157691
0.0016122785
0.0016088442
0.0016054707
0.0016020775
0.0015987069
0.0015969975
0.0016017778
0.0015971283
0.0016162003
0.001641899
0.00157254
0.0014843164
0.0012714863
0.0010348699
0.00076501365
0.00075757571
0.00015914154
3.2549772e-05
0.0016995186
0.0016941866
0.0016889904
0.0016839286
0.0016790062
0.0016742174
0.0016695536
0.0016650058
0.0016605659
0.0016562273
0.0016519848
0.001647834
0.0016437707
0.0016397907
0.0016358898
0.0016320638
0.0016283085
0.0016246202
0.0016209962
0.0016174343
0.0016139334
0.0016104856
0.0016071006
0.0016036974
0.0016001913
0.0015983425
0.0016038272
0.0016005737
0.0016132167
0.0016602558
0.0015987092
0.0015282869
0.0012230134
0.00085342393
0.00052065252
0.00056354069
1.9452134e-05
2.637043e-06
0.0017019615
0.0016967061
0.0016915143
0.0016864458
0.0016815094
0.001676703
0.0016720204
0.0016674532
0.0016629936
0.0016586348
0.0016543719
0.0016502011
0.0016461186
0.0016421207
0.0016382033
0.0016343622
0.0016305932
0.001626891
0.0016232535
0.0016196768
0.0016161621
0.0016126985
0.0016092957
0.0016058974
0.0016022308
0.0016000943
0.0016059852
0.0016048864
0.0016080703
0.0016742175
0.0016149851
0.0015698548
0.0010804554
0.00032686651
8.1607356e-05
0.00010311091
4.5983837e-07
2.2724529e-09
0.001705328
0.0017000845
0.0016949098
0.0016898353
0.0016848812
0.0016800516
0.0016753428
0.001670748
0.0016662595
0.0016618708
0.0016575772
0.0016533754
0.0016492624
0.0016452354
0.0016412909
0.0016374248
0.0016336333
0.0016299096
0.0016262522
0.0016226548
0.0016191204
0.0016156379
0.0016122076
0.0016088322
0.0016050032
0.0016024168
0.0016083112
0.0016109062
0.0016004127
0.0016802427
0.0016027799
0.0016031545
0.00031583179
1.014419e-06
1.3705007e-06
1.5678593e-06
2.7119288e-10
1.5529e-12
0.0017098276
0.0017046075
0.0016994447
0.0016943602
0.0016893835
0.0016845235
0.0016797793
0.001675146
0.0016706167
0.0016661852
0.0016618471
0.0016575994
0.0016534403
0.001649368
0.0016453804
0.001641474
0.0016376453
0.0016338883
0.0016301997
0.0016265721
0.0016230084
0.0016195025
0.0016160309
0.0016126932
0.0016087382
0.001605546
0.0016108324
0.0016203726
0.0015893536
0.001676661
0.0014976578
0.0012129557
1.5406578e-05
1.8601049e-07
1.1765203e-07
1.3452702e-07
1.9403873e-11
1.2810152e-13
0.0017157742
0.0017106416
0.0017054691
0.0017003663
0.0016953616
0.0016904631
0.0016856729
0.0016809885
0.0016764044
0.001671915
0.0016675158
0.0016632045
0.00165898
0.001654842
0.0016507901
0.0016468223
0.0016429363
0.0016391274
0.0016353909
0.0016317191
0.0016281122
0.0016245755
0.001621046
0.0016177464
0.0016137513
0.0016098637
0.0016135501
0.0016359618
0.0015719012
0.0016483065
0.0013475409
3.4187983e-05
8.081421e-07
9.8910717e-12
8.5677161e-13
5.9191599e-14
4.7695715e-15
3.3451083e-16
0.0017238422
0.0017186094
0.0017134238
0.0017083008
0.001703261
0.0016983138
0.0016934646
0.0016887137
0.0016840579
0.0016794923
0.0016750126
0.0016706166
0.0016663038
0.0016620751
0.0016579319
0.0016538747
0.0016499034
0.0016460152
0.0016422058
0.0016384681
0.0016347969
0.0016312159
0.0016276093
0.0016243198
0.0016204053
0.0016159129
0.0016164705
0.0016606355
0.0015189946
0.0015695517
0.00051621536
5.5208979e-07
1.2523814e-09
3.8936608e-14
9.2219206e-12
6.9510165e-13
2.8631029e-15
1.0831013e-15
0.0017364218
0.0017311069
0.0017258741
0.0017207061
0.0017156069
0.0017105828
0.0017056415
0.001700787
0.0016960192
0.0016913349
0.0016867303
0.0016822029
0.0016777523
0.0016733802
0.0016690899
0.0016648847
0.001660768
0.0016567399
0.0016528016
0.0016489452
0.0016451585
0.0016414939
0.001637765
0.00163442
0.001630704
0.0016258412
0.0016212738
0.0017084258
0.00099669601
0.0012165438
0.00031390202
2.3187407e-06
2.5026932e-08
3.4137439e-15
7.597531e-13
9.4267495e-16
2.8931868e-15
2.2236956e-15
0.0017552262
0.0017498903
0.0017445821
0.0017393191
0.001734112
0.0017289644
0.0017238829
0.0017188739
0.0017139398
0.0017090801
0.0017042925
0.0016995746
0.0016949258
0.0016903477
0.0016858444
0.0016814214
0.0016770853
0.00167284
0.0016686926
0.0016646393
0.0016606575
0.0016568424
0.0016529129
0.0016494143
0.0016458798
0.0016405639
0.0016390337
0.0017213298
0.00146367
0.0014491814
0.00013873153
9.8672555e-07
1.2177246e-08
2.220446e-16
2.220446e-16
3.1089615e-16
2.8790433e-15
2.6762755e-15
0.0017794491
0.0017739749
0.0017685219
0.0017631055
0.0017577371
0.0017524173
0.0017471507
0.0017419437
0.0017368003
0.0017317217
0.0017267071
0.001721755
0.0017168644
0.0017120364
0.0017072748
0.0017025858
0.001697978
0.0016934583
0.0016890383
0.001684722
0.0016804768
0.0016764564
0.0016722463
0.0016685218
0.0016651552
0.0016591844
0.001665317
0.0017622691
0.00083237359
9.5387605e-05
8.786502e-07
2.700857e-08
3.7728086e-10
2.220446e-16
2.220446e-16
5.2779437e-16
2.8860658e-15
2.8456537e-15
0.0018101122
0.001804367
0.0017986721
0.0017930205
0.0017874166
0.0017818564
0.0017763418
0.0017708781
0.0017654691
0.0017601168
0.0017548214
0.0017495817
0.0017443968
0.0017392669
0.001734195
0.0017291866
0.0017242507
0.0017193954
0.0017146376
0.0017099827
0.001705397
0.0017011142
0.0016964925
0.0016924973
0.001689449
0.0016811805
0.0017215604
0.0014926047
0.00074194097
7.8682587e-06
2.0341251e-07
2.1689476e-11
3.391829e-13
2.220446e-16
2.7291978e-16
3.4409886e-15
2.9434431e-15
2.9182408e-15
0.0018481853
0.0018421309
0.0018361138
0.001830135
0.0018242044
0.0018183178
0.0018124749
0.0018066793
0.001800934
0.0017952403
0.0017895983
0.001784007
0.0017784651
0.0017729723
0.0017675301
0.0017621428
0.0017568183
0.0017515634
0.0017464003
0.0017413293
0.0017363229
0.0017317095
0.0017264968
0.0017222428
0.0017192204
0.0017144833
0.0017607072
0.0017175412
0.0016670532
0.00012479012
1.391568e-07
3.6647246e-09
6.3610315e-11
2.220446e-16
2.4321273e-16
1.4292892e-15
3.0701934e-15
2.9920154e-15
0.0018949348
0.0018884685
0.0018820287
0.0018756227
0.0018692676
0.0018629601
0.0018566987
0.0018504853
0.0018443217
0.0018382082
0.0018321439
0.0018261275
0.0018201574
0.0018142324
0.001808353
0.0018025217
0.0017967445
0.001791025
0.0017853918
0.0017798212
0.001774336
0.0017692847
0.0017633319
0.0017586048
0.0017565848
0.0017591541
0.0017946624
0.0016892523
0.0017637714
0.00050838404
2.3556824e-06
6.5821591e-08
1.406579e-11
8.0359043e-14
3.7876705e-16
2.4381206e-15
4.9608917e-15
3.0833916e-15
0.0019517101
0.0019446614
0.0019376701
0.0019307278
0.0019238459
0.0019170178
0.0019102394
0.001903512
0.0018968363
0.0018902118
0.0018836371
0.00187711
0.0018706282
0.0018641901
0.0018577952
0.0018514447
0.0018451427
0.0018388874
0.0018327185
0.0018265556
0.0018205711
0.0018149021
0.0018082087
0.0018020275
0.0018066206
0.0018044586
0.0018751986
0.001143108
0.00050130416
0.00033672729
2.5973235e-05
2.239943e-07
1.543919e-10
8.8141866e-13
1.4759836e-15
2.9513216e-15
3.4127077e-15
3.3314157e-15
0.0020196929
0.0020119699
0.0020043347
0.0019967578
0.001989245
0.0019817887
0.0019743843
0.0019670337
0.0019597383
0.0019524973
0.0019453087
0.00193817
0.0019310783
0.0019240314
0.0019170281
0.0019100686
0.0019031559
0.0018962826
0.0018895018
0.0018826559
0.0018761331
0.0018697216
0.0018620131
0.0018543524
0.0018721187
0.0018457701
0.0018992102
0.00020252125
1.6056654e-05
1.2960499e-06
9.9738399e-08
2.3492581e-08
4.8543122e-11
1.3033958e-12
3.2008928e-15
3.3714436e-15
3.2105869e-15
3.154804e-15
0.0021001778
0.002091797
0.0020834455
0.0020751236
0.0020668569
0.0020586463
0.0020504902
0.0020423922
0.0020343546
0.0020263767
0.0020184564
0.0020105906
0.0020027759
0.0019950098
0.0019872905
0.0019796178
0.0019719938
0.0019644077
0.0019569201
0.0019493214
0.0019421278
0.0019350281
0.001925661
0.0019181411
0.0019519582
0.0019163337
0.00011432375
8.4468712e-08
1.5519265e-06
7.0725891e-08
1.2001203e-08
3.004581e-10
3.8163175e-12
1.3245446e-14
5.7064162e-15
3.1447634e-15
3.4514758e-15
3.215911e-15
0.0021953106
0.0021858828
0.0021765608
0.0021673041
0.0021581199
0.0021490027
0.0021399479
0.0021309589
0.0021220386
0.0021131863
0.0021043997
0.0020956751
0.0020870086
0.0020783972
0.0020698388
0.0020613329
0.0020528814
0.0020444716
0.0020361653
0.0020277408
0.0020197336
0.0020116034
0.0020030282
0.0019809856
0.0021580409
0.00079138163
4.4985576e-06
1.168341e-07
3.3696044e-09
7.5114645e-09
1.3507272e-12
3.7486292e-14
1.7638657e-14
2.9059143e-14
1.3318337e-14
7.8378175e-15
3.8430242e-15
3.3309343e-15
0.002305955
0.0022954669
0.0022850608
0.0022747108
0.0022644353
0.0022542349
0.0022441068
0.0022340558
0.0022240855
0.0022141955
0.0022043829
0.0021946435
0.0021849728
0.0021753672
0.0021658243
0.0021563432
0.0021469261
0.0021375604
0.0021282991
0.0021189635
0.0021099192
0.0021009164
0.00209117
0.002077279
0.002100465
0.0022309371
0.00095988927
2.2733908e-06
6.6807636e-08
1.0766889e-12
2.220446e-16
6.807648e-16
2.3071652e-14
3.1956513e-14
2.5572512e-14
4.9626329e-14
4.051958e-14
9.5088266e-15
0.0024340401
0.002422164
0.0024104065
0.0023987248
0.0023871312
0.0023756259
0.0023642065
0.0023528794
0.0023416494
0.0023305167
0.0023194781
0.0023085289
0.0022976639
0.0022868787
0.0022761708
0.002265539
0.002254985
0.0022445013
0.0022341094
0.0022237535
0.0022134895
0.0022032147
0.0021939408
0.0021786581
0.0021597119
0.0023103699
0.0015683468
6.4056943e-05
2.7255363e-05
8.2300996e-10
1.1121011e-10
7.4599836e-11
4.6023872e-11
2.7542851e-13
6.0716585e-14
8.6230693e-14
1.124113e-13
2.4865968e-14
0.0025809594
0.002567428
0.0025540291
0.002540718
0.0025275092
0.0025144062
0.0025014094
0.0024885276
0.0024757676
0.0024631301
0.0024506117
0.0024382066
0.0024259087
0.0024137129
0.002401616
0.0023896166
0.0023777152
0.0023659094
0.0023541996
0.0023425843
0.0023310562
0.0023193652
0.0023090658
0.002294591
0.002283896
0.0022806583
0.0024789465
0.00091445274
0.00025905601
1.8027083e-06
1.0297964e-09
7.7041445e-10
4.765509e-10
4.3976827e-12
1.5359764e-11
1.9560377e-13
2.9907422e-13
2.7548943e-14
0.0027485743
0.0027328828
0.0027173679
0.0027019776
0.0026867244
0.0026716126
0.0026566442
0.0026418299
0.0026271775
0.0026126876
0.0025983552
0.002584173
0.0025701327
0.0025562277
0.0025424538
0.0025288088
0.0025152924
0.0025019028
0.002488639
0.0024754883
0.0024624855
0.0024494435
0.0024365728
0.0024249303
0.0024074056
0.0023886039
0.0024545751
0.0023265743
0.0024553895
0.0010248703
1.2395915e-07
7.77111e-09
5.5321182e-09
1.0028665e-08
1.9647425e-10
6.0130539e-11
2.018465e-13
4.4655415e-12
0.0029380233
0.0029195926
0.0029013859
0.0028833515
0.002865504
0.0028478501
0.0028303957
0.0028131544
0.0027961349
0.0027793368
0.0027627529
0.0027463729
0.0027301855
0.0027141815
0.0026983549
0.0026827021
0.0026672221
0.0026519118
0.0026367718
0.0026217815
0.0026069655
0.0025922936
0.0025773925
0.0025637491
0.0025495095
0.0025254358
0.0025330753
0.0025091714
0.0026225572
0.0020920672
1.1309101e-05
2.5427506e-06
2.3074355e-07
1.109219e-07
1.5393291e-08
3.8083364e-10
2.4930917e-10
6.9164336e-10
0.003150264
0.0031283228
0.0031066718
0.0030852641
0.0030641168
0.0030432386
0.0030226399
0.003002338
0.002982342
0.0029626495
0.0029432499
0.0029241283
0.0029052692
0.00288666
0.002868292
0.0028501603
0.0028322624
0.0028145946
0.0027971551
0.0027799302
0.0027629068
0.0027461499
0.0027292154
0.0027131748
0.0026968154
0.0026791163
0.0026597013
0.0026571423
0.002595224
0.0030208009
0.00050099934
2.4489976e-05
4.8485921e-05
1.1987956e-05
2.2432527e-06
1.7063736e-09
6.5953764e-08
1.0095347e-06
0.0033863733
0.0033598319
0.0033336873
0.0033079039
0.0032824975
0.0032574743
0.0032328486
0.0032086396
0.0031848543
0.003161486
0.0031385183
0.0031159297
0.0030936988
0.0030718083
0.0030502467
0.0030290074
0.0030080866
0.0029874805
0.0029671837
0.002947188
0.0029274669
0.0029080623
0.00288877
0.0028698494
0.0028511668
0.0028324432
0.0028120892
0.0027971172
0.0027519469
0.0028410225
0.0024635989
0.0011495994
0.00048536689
0.00022692769
0.00022358432
6.4536986e-05
2.3637428e-07
8.334297e-06
0.0036380627
0.0036057256
0.0035739117
0.0035426116
0.0035118418
0.0034816049
0.0034519209
0.0034228124
0.0033942835
0.0033663222
0.0033389048
0.0033120015
0.0032855837
0.0032596293
0.0032341239
0.0032090594
0.0031844313
0.0031602354
0.0031364648
0.003113109
0.0030901469
0.0030675753
0.0030453279
0.003023385
0.0030017771
0.0029804055
0.0029586121
0.0029377681
0.0029119341
0.0028960238
0.0028813783
0.0026953526
0.0024668903
0.0022706754
0.0021667898
0.0019152182
0.0014125933
0.00032381918
0.0038872489
0.0038480671
0.0038095313
0.0037716753
0.0037345234
0.0036980804
0.0036623806
0.0036274549
0.0035933082
0.0035599243
0.0035272722
0.0034953132
0.0034640107
0.0034333368
0.0034032738
0.0033738118
0.0033449447
0.0033166669
0.0032889693
0.0032618373
0.0032352503
0.0032091856
0.0031835998
0.0031584467
0.0031336981
0.003109287
0.0030849472
0.0030606198
0.0030361288
0.0030109294
0.0029905675
0.0029638031
0.0029216788
0.0028755108
0.0028114948
0.0027375094
0.0027303544
0.0018121262
0.004124034
0.0040770087
0.0040307055
0.0039852537
0.0039407118
0.0038971034
0.00385449
0.003812917
0.0037723911
0.0037328915
0.0036943767
0.0036567949
0.0036200978
0.003584248
0.0035492208
0.0035150011
0.0034815787
0.0034489432
0.0034170806
0.0033859697
0.0033555844
0.0033258915
0.003296843
0.003268389
0.0032404759
0.0032130205
0.0031858643
0.0031588663
0.0031319619
0.0031050853
0.0030781677
0.0030515411
0.0030227876
0.0029906768
0.0029581808
0.0029357828
0.002906762
0.0029491708
0.0043476607
0.0042912783
0.0042358067
0.0041814928
0.004128423
0.0040766369
0.0040262188
0.0039772192
0.0039296368
0.003883435
0.003838551
0.0037949106
0.0037524449
0.0037111004
0.0036708398
0.0036316383
0.0035934771
0.0035563376
0.0035201971
0.0034850255
0.0034507868
0.0034174374
0.0033849206
0.0033531784
0.0033221478
0.003291739
0.0032618228
0.0032322893
0.0032030701
0.0031740618
0.0031450829
0.0031155457
0.0030853127
0.0030534717
0.0030149361
0.002992633
0.0029710076
0.0029544182
0.0045580935
0.0044905057
0.0044241913
0.0043595932
0.0042968103
0.0042358693
0.0041768441
0.0041197576
0.0040645737
0.0040112188
0.0039595917
0.0039095822
0.0038610919
0.003814044
0.0037683838
0.0037240729
0.0036810814
0.0036393796
0.0035989338
0.0035597025
0.0035216375
0.0034846834
0.0034487733
0.00341384
0.0033798139
0.0033466054
0.003314102
0.0032822106
0.0032508704
0.003219934
0.0031892601
0.0031583575
0.0031270043
0.0030949792
0.0030599396
0.003025168
0.0029946558
0.0029823075
0.0047553188
0.0046744932
0.0045958612
0.0045198793
0.0044465075
0.0043756815
0.0043074238
0.0042417067
0.004178448
0.0041175294
0.0040588052
0.0040021248
0.0039473566
0.0038943982
0.003843176
0.0037936369
0.003745738
0.0036994375
0.0036546887
0.0036114364
0.0035696185
0.0035291654
0.0034899992
0.0034520428
0.0034152208
0.0033794458
0.0033446183
0.003310655
0.0032774976
0.0032450036
0.0032130117
0.0031811914
0.0031491912
0.003116931
0.0030832867
0.0030491877
0.0030111936
0.0029876426
0.0049409566
0.0048459054
0.0047538461
0.0046653769
0.0045803669
0.004498694
0.0044203416
0.0043452323
0.0042732347
0.0042041801
0.0041378708
0.0040741096
0.0040127265
0.00395359
0.0038966046
0.0038417004
0.0037888197
0.0037379061
0.0036888971
0.0036417208
0.0035962975
0.0035525407
0.0035103588
0.003469664
0.0034303747
0.0033924052
0.0033556655
0.0033200796
0.0032855874
0.0032520519
0.0032193023
0.0031870594
0.0031549946
0.0031228858
0.0030901531
0.0030571836
0.0030205444
0.0029896157
0.0051161114
0.0050059968
0.0048993976
0.0047972357
0.0046993871
0.0046057461
0.0045162912
0.0044309075
0.0043494159
0.0042715902
0.0041971724
0.0041259099
0.0040575882
0.0039920423
0.0039291518
0.0038688278
0.0038109954
0.0037555809
0.0037025021
0.0036516656
0.0036029691
0.0035563045
0.0035115619
0.0034686402
0.0034274495
0.0033879033
0.0033499162
0.0033134134
0.0032783267
0.003244514
0.0032117953
0.0031798953
0.0031485121
0.0031173098
0.0030859393
0.0030542752
0.0030208946
0.0029892622
0.0052803569
0.0051533722
0.0050306073
0.004913327
0.0048013898
0.0046947061
0.0045932406
0.00449683
0.0044052365
0.0043181647
0.0042352848
0.0041562813
0.0040808907
0.0040089129
0.0039402031
0.0038746535
0.0038121716
0.0037526632
0.0036960207
0.0036421216
0.0035908323
0.0035420147
0.0034955336
0.0034512684
0.0034091165
0.0033689845
0.0033307835
0.0032944303
0.003259839
0.0032268486
0.003195258
0.0031647693
0.0031350762
0.0031057629
0.0030765556
0.0030469952
0.003016876
0.0029865271
0.0054330634
0.0052861361
0.0051447643
0.0050104753
0.0048829884
0.0047621521
0.0046478474
0.0045398134
0.0044377175
0.0043411671
0.0042497415
0.0041630522
0.0040807835
0.0040027018
0.0039286418
0.0038584796
0.0037921033
0.0037293906
0.0036701962
0.003614352
0.0035616762
0.0035119853
0.0034651057
0.0034208872
0.0033792055
0.0033399504
0.0033030165
0.0032682983
0.0032356779
0.0032049588
0.0031759012
0.003148163
0.0031214072
0.003095139
0.0030691047
0.0030425992
0.0030161041
0.0029875118
0.0055723434
0.005401948
0.0052391519
0.0050856729
0.0049409874
0.004804803
0.0046768388
0.0045566783
0.0044438481
0.0043378216
0.004238063
0.0041440982
0.0040555576
0.0039721791
0.0038937821
0.003820225
0.0037513643
0.0036870256
0.0036269935
0.0035710192
0.0035188406
0.0034702026
0.0034248738
0.0033826599
0.0033434016
0.0033069565
0.0032731857
0.0032419448
0.0032130685
0.0031863067
0.0031613642
0.0031378396
0.0031153536
0.0030933286
0.0030715246
0.003048987
0.0030268284
0.0030001755
0.0056960611
0.0054985338
0.005311307
0.0051362514
0.0049725544
0.0048197383
0.0046773025
0.0045446254
0.0044210453
0.0043058595
0.0041983877
0.0040980579
0.0040044486
0.0039172768
0.0038363454
0.0037614744
0.0036924436
0.0036289632
0.0035706774
0.0035171931
0.003468119
0.0034230958
0.0033818145
0.0033440234
0.0033095135
0.0032780912
0.0032495669
0.003223747
0.0032004092
0.0031792385
0.0031598792
0.0031418743
0.0031248153
0.0031080576
0.0030913952
0.0030736155
0.0030565492
0.0030318614
0.0058046661
0.0055752163
0.005359631
0.0051599345
0.0049750075
0.0048041209
0.0046464742
0.004501164
0.0043672594
0.00424381
0.004129945
0.0040249792
0.0039284457
0.0038400427
0.0037595266
0.0036866017
0.0036208527
0.0035617412
0.0035086522
0.0034609646
0.0034181122
0.0033796143
0.0033450833
0.0033142104
0.0032867266
0.0032623725
0.0032409077
0.003222107
0.0032056999
0.0031913063
0.0031785284
0.0031668927
0.0031560053
0.0031451944
0.003134319
0.0031219252
0.0031105568
0.0030885186
0.0059003046
0.0056315165
0.0053819518
0.0051535888
0.0049448396
0.0047545477
0.0045814309
0.0044241363
0.0042812972
0.004151579
0.0040338454
0.0039272867
0.0038314011
0.003745837
0.003670186
0.0036038317
0.003545922
0.0034954581
0.003451435
0.0034129597
0.0033793069
0.0033499164
0.0033243664
0.0033023227
0.0032834571
0.0032674503
0.0032540554
0.0032430815
0.0032342205
0.0032270393
0.0032211692
0.0032162018
0.0032118087
0.0032073298
0.0032026842
0.0031962112
0.0031911039
0.0031726436
0.0059826148
0.0056643639
0.0053736498
0.0051120265
0.0048771144
0.0046669762
0.0044795093
0.0043125518
0.0041639569
0.0040317656
0.0039144921
0.0038112257
0.0037214309
0.0036445587
0.0035797099
0.0035255305
0.0034803686
0.0034425753
0.0034107589
0.0033838834
0.0033612234
0.0033422733
0.0033266746
0.0033141163
0.0033042045
0.0032966291
0.0032912644
0.0032880358
0.0032866744
0.0032867781
0.0032880592
0.0032901591
0.0032927604
0.0032951704
0.0032973069
0.0032973505
0.0032989506
0.0032850738
0.0060469725
0.0056666636
0.0053268232
0.0050278106
0.0047659415
0.0045379081
0.0043400774
0.0041686938
0.0040201753
0.0038916321
0.0037812698
0.0036882139
0.0036118003
0.0035508163
0.0035031802
0.0034661967
0.0034371603
0.0034139225
0.0033951024
0.0033799421
0.0033680136
0.0033590256
0.0033527334
0.0033488922
0.003347262
0.0033477382
0.0033503365
0.003355044
0.0033613533
0.0033686875
0.0033770001
0.0033860623
0.0033955448
0.0034047965
0.0034135846
0.0034202428
0.0034281062
0.0034197416
0.0060877685
0.005629783
0.0052319118
0.004892866
0.0046068775
0.0043677477
0.0041683764
0.0040016718
0.0038617136
0.0037447786
0.0036493525
0.0035748536
0.0035199281
0.0034815413
0.0034553964
0.0034371358
0.0034235022
0.0034127945
0.0034045244
0.003398754
0.0033955248
0.0033946847
0.0033962033
0.0034002397
0.0034062576
0.0034140963
0.0034239751
0.0034358992
0.0034496087
0.003464655
0.0034806028
0.0034969695
0.0035133376
0.0035290193
0.0035438111
0.0035562091
0.003568833
0.0035678108
0.0060998045
0.0055546988
0.0050979652
0.0047262325
0.0044289621
0.004193092
0.0040045149
0.0038512118
0.0037255905
0.0036248729
0.0035490049
0.0034972734
0.003466039
0.0034490709
0.0034397642
0.0034333714
0.0034278384
0.0034232215
0.0034204004
0.0034201113
0.0034225996
0.0034277987
0.0034356976
0.0034460129
0.0034586692
0.0034734812
0.0034902369
0.0035087443
0.0035286449
0.0035493982
0.0035705328
0.0035915591
0.0036121504
0.0036317162
0.0036502023
0.0036665112
0.0036820886
0.0036889551
0.0060916928
0.0054633199
0.0049594024
0.0045714713
0.004278764
0.0040567235
0.0038828329
0.0037419425
0.0036276968
0.0035401037
0.0034805596
0.003447111
0.0034331046
0.0034296527
0.0034292819
0.0034281798
0.0034260339
0.0034243609
0.0034247855
0.0034282862
0.0034351675
0.0034452007
0.0034578872
0.0034732227
0.0034908163
0.0035101844
0.003531007
0.0035530436
0.0035759637
0.0035993071
0.0036226679
0.0036456147
0.0036679674
0.0036892278
0.0037095142
0.0037281535
0.0037451741
0.0037599442
0.0060615484
0.0053430529
0.0048027935
0.0044174317
0.0041446036
0.0039426498
0.0037819814
0.0036488756
0.0035418496
0.003464751
0.0034194371
0.0034012191
0.0033999355
0.0034048532
0.0034088684
0.0034098739
0.0034093063
0.0034096874
0.0034128989
0.0034198917
0.0034308364
0.0034449923
0.0034616765
0.003480616
0.0035012821
0.0035231753
0.0035459307
0.0035692843
0.0035929841
0.0036167137
0.0036402091
0.0036631467
0.0036855182
0.0037068526
0.0037274513
0.0037470648
0.0037642021
0.0037864967
0.0060050469
0.0051989158
0.0046454551
0.0042849538
0.0040396554
0.003852348
0.0036949394
0.0035616555
0.0034576209
0.0033891067
0.0033561729
0.0033500084
0.0033572535
0.0033665914
0.003372235
0.0033740052
0.0033746508
0.003377177
0.0033834106
0.0033939271
0.0034082556
0.0034250983
0.0034439759
0.003464496
0.0034861698
0.0035085332
0.003531227
0.0035540036
0.0035766924
0.0035991088
0.0036211402
0.0036425798
0.0036635813
0.0036837039
0.0037033459
0.0037220915
0.0037375217
0.0037657282
0.0059249218
0.0050477959
0.0045140236
0.0041912419
0.0039627346
0.0037722471
0.0036052639
0.0034663526
0.0033644351
0.0033047078
0.003283118
0.0032862853
0.0032988926
0.0033103516
0.0033168719
0.003319863
0.003322683
0.0033282331
0.0033376488
0.0033506096
0.0033664976
0.0033843134
0.0034035048
0.0034237222
0.0034445626
0.0034656341
0.0034866409
0.0035073958
0.003527806
0.0035477826
0.0035673297
0.0035863266
0.003604986
0.0036224648
0.0036398726
0.003657081
0.0036706311
0.0037020565
0.0058262166
0.0049196439
0.0044351271
0.0041350736
0.0038928062
0.0036787933
0.0034955206
0.0033522056
0.0032556328
0.0032065927
0.0031959139
0.0032067875
0.0032234611
0.0032369081
0.0032443433
0.0032486712
0.0032536563
0.0032617164
0.0032732603
0.0032875426
0.0033036356
0.0033207802
0.0033386737
0.0033570788
0.0033756876
0.0033942085
0.003412444
0.0034302866
0.0034477109
0.003464685
0.0034812869
0.0034974338
0.0035135193
0.0035287647
0.0035436656
0.0035581369
0.0035686188
0.0036008021
0.0057248834
0.0048551046
0.0044153095
0.0040881994
0.0037967739
0.0035491363
0.0033532019
0.0032133581
0.0031291258
0.0030943876
0.0030942701
0.0031097064
0.0031270982
0.0031400402
0.0031479094
0.0031536505
0.0031605292
0.0031702492
0.0031825946
0.0031965309
0.0032112912
0.0032264937
0.0032419974
0.0032576511
0.0032732518
0.0032886206
0.0033036628
0.0033183433
0.0033326831
0.0033466754
0.0033604437
0.003373906
0.0033875699
0.0034005878
0.0034138921
0.0034265738
0.0034350743
0.0034664288
0.0056538351
0.004880827
0.0044233901
0.0040039037
0.0036408218
0.003364451
0.0031708201
0.0030462123
0.0029770897
0.0029531789
0.0029583935
0.0029747724
0.0029903088
0.0030008936
0.0030073991
0.0030127871
0.0030196549
0.0030290284
0.0030403667
0.0030526511
0.0030652534
0.0030779525
0.0030906887
0.0031033933
0.0031159688
0.0031283422
0.0031405064
0.0031524765
0.0031643
0.0031759772
0.0031876755
0.0031992997
0.0032114986
0.0032233355
0.0032361581
0.0032478866
0.0032563149
0.0032869079
0.0056511632
0.0049812243
0.0043964309
0.0038250777
0.003388135
0.0031018957
0.0029175853
0.0028087119
0.0027538024
0.0027363562
0.0027404816
0.0027513886
0.0027602456
0.0027650024
0.0027674608
0.0027702804
0.0027752259
0.0027826998
0.0027919798
0.002802088
0.0028124124
0.002822737
0.0028330293
0.0028432878
0.0028535043
0.0028636932
0.0028739131
0.0028842102
0.002894653
0.0029052565
0.0029162642
0.002927583
0.0029400593
0.0029526445
0.0029675638
0.0029812057
0.0029941907
0.0030267123
0.0057105639
0.0050297143
0.0042144446
0.0034603682
0.0029583695
0.0026634757
0.0024940589
0.0023994013
0.0023502248
0.0023293982
0.0023242157
0.0023241922
0.0023234089
0.0023209499
0.0023186077
0.0023183534
0.0023210605
0.0023265517
0.0023339509
0.002342286
0.0023509394
0.0023596815
0.0023684889
0.0023773976
0.002386454
0.002395729
0.0024053264
0.0024153185
0.002425816
0.0024368865
0.0024489036
0.0024618222
0.0024767734
0.0024925767
0.0025125803
0.0025314164
0.0025542732
0.0025926196
0.0055025093
0.0047478137
0.0036576002
0.0027617182
0.0022403494
0.0019635074
0.0018160833
0.0017362417
0.0016922369
0.0016676855
0.001653448
0.0016436848
0.001635503
0.0016286548
0.0016241125