/*--------------------------------*- C++ -*----------------------------------*\
  =========                 |
  \\      /  F ield         | OpenFOAM: The Open Source CFD Toolbox
   \\    /   O peration     | Website:  https://openfoam.org
    \\  /    A nd           | Version:  7
     \\/     M anipulation  |
\*---------------------------------------------------------------------------*/
FoamFile
{
    version     2.0;
    format      ascii;
    class       volSymmTensorField;
    location    "2000";
    object      Rall;
}
// * * * * * * * * * * * * * * * * * * * * * * * * * * * * * * * * * * * * * //

dimensions      [0 2 -2 0 0 0 0];

internalField   nonuniform List<symmTensor> 
15296
(
(0.0012009844 1.2652248e-05 4.8465278e-15 0.0011003991 2.0298185e-16 0.0010862006)
(0.0011337051 5.6167961e-06 5.0097723e-15 0.0011222779 2.2462175e-16 0.0011207457)
(0.0011250274 4.9873362e-06 -5.0823885e-15 0.0011209523 -3.5451964e-17 0.0011203119)
(0.0011175062 4.6714119e-06 5.1561989e-15 0.0011193224 1.6777584e-16 0.0011193812)
(0.0011102055 4.4019471e-06 -5.2325794e-15 0.0011177514 1.7304561e-17 0.001118469)
(0.0011056235 4.1953216e-06 5.3046624e-15 0.0011151836 1.6911747e-16 0.0011161001)
(0.0011027006 4.0488458e-06 5.3787237e-15 0.0011120437 2.8441639e-16 0.0011128865)
(0.0011004968 3.9437847e-06 3.0569515e-18 0.0011087123 -2.9204466e-17 0.0011093711)
(0.0010987831 3.8703676e-06 3.1531437e-19 0.0011052764 -8.4319185e-17 0.0011056824)
(0.0010973862 3.8228278e-06 5.5983506e-15 0.0011018015 1.8351475e-16 0.0011019164)
(0.0010961196 3.7950106e-06 -1.5278708e-19 0.0010983603 -1.9534001e-17 0.0010981768)
(0.0010948697 3.7817403e-06 2.4464459e-19 0.0010949957 -2.616591e-17 0.0010945249)
(0.0010935875 3.7794607e-06 -5.8341874e-15 0.0010917245 -2.7694627e-16 0.0010909851)
(0.0010922593 3.7858996e-06 1.1828791e-14 0.0010885492 2.3052744e-16 0.0010875611)
(0.0010908947 3.7998964e-06 5.0764894e-19 0.0010854628 -1.331739e-17 0.0010842438)
(0.0010895283 3.8217557e-06 6.0835355e-15 0.0010824481 2.1899758e-16 0.0010810097)
(0.0010882111 3.8531786e-06 6.1725685e-15 0.00107948 -7.0962262e-17 0.0010778251)
(0.0010870138 3.8975854e-06 1.2520255e-14 0.0010765272 1.41208e-16 0.0010746471)
(0.0010860528 3.9627418e-06 6.3513974e-15 0.0010735375 3.4198526e-17 0.0010714053)
(0.0010852274 4.043688e-06 1.1608289e-18 0.00107055 -4.3794646e-17 0.0010681584)
(0.0010847264 4.1575424e-06 -2.0487105e-18 0.0010674848 -2.5690301e-16 0.0010647869)
(0.0010835905 4.2475798e-06 -2.5811308e-18 0.0010647349 2.1502469e-16 0.0010618648)
(0.0010791071 4.0994929e-06 1.348792e-14 0.0010634547 2.5381008e-16 0.0010609223)
(0.0010766611 4.0699233e-06 -6.8461187e-15 0.0010614306 -3.5501581e-17 0.0010588078)
(0.0010830149 4.7060298e-06 1.8143825e-18 0.0010557535 9.8004721e-18 0.0010518466)
(0.0011052541 6.6801483e-06 -6.9724624e-15 0.0010439749 -3.4766918e-16 0.0010363966)
(0.0011347565 1.0039643e-05 -6.9021543e-15 0.0010306174 -3.188445e-16 0.0010187707)
(0.0011451148 1.0178107e-05 -2.2474134e-18 0.0010205068 1.6166867e-17 0.0010074832)
(0.0012117073 1.5873436e-05 9.0957858e-19 0.0010094155 2.932585e-18 0.0009877932)
(0.0011147896 1.3528948e-05 -4.2077092e-15 0.0009609932 -7.2940603e-17 0.00094728871)
(0.00098007934 3.926597e-06 -1.1180914e-15 0.00092407447 -1.778662e-17 0.00092597631)
(0.00087080494 2.6087538e-06 1.0106351e-18 0.00083279015 1.4726525e-17 0.00084108264)
(0.00075863954 3.400585e-06 -3.7989576e-16 0.0007097525 -2.4145892e-16 0.00072431697)
(0.00082873368 8.3276424e-06 -5.6161768e-16 0.00071029129 -3.1370734e-16 0.00073341131)
(0.0012948656 3.6298023e-05 -3.806708e-18 0.00080258855 1.1839851e-17 0.00081427687)
(0.00171562 9.1699525e-05 -2.8884095e-17 0.00052180123 5.7092236e-17 0.00051137279)
(0.00077351164 2.5492242e-06 1.0495925e-16 0.00060716196 3.4818775e-16 0.0007341045)
(0.001037174 -7.6497944e-06 -2.4622071e-16 0.00016881863 -4.984652e-16 0.00047522059)
(0.0011983579 2.8128985e-05 2.7030381e-18 0.0010976414 7.7603842e-17 0.0010917031)
(0.0011338026 1.3388927e-05 -1.6702347e-15 0.001121727 -4.13372e-17 0.0011213111)
(0.001125133 1.1615355e-05 1.6949926e-15 0.0011207013 9.0636682e-17 0.0011205748)
(0.0011175065 1.0943757e-05 -7.5618884e-19 0.0011193909 1.5227857e-16 0.0011194319)
(0.0011100934 1.0432688e-05 -5.6152169e-19 0.001118128 -1.6981598e-17 0.0011183265)
(0.0011054624 1.0029425e-05 -2.7228709e-20 0.0011156628 4.7820544e-17 0.0011159065)
(0.0011025315 9.7234998e-06 1.3112453e-18 0.0011125017 2.2537585e-16 0.0011127248)
(0.001100337 9.4819899e-06 6.3864546e-18 0.001109098 2.4166343e-17 0.0011092749)
(0.0010986443 9.2806847e-06 -1.8387939e-15 0.0011055576 -1.1370409e-16 0.0011056721)
(0.0010972763 9.1080882e-06 -1.8688442e-15 0.0011019595 -1.5461248e-16 0.0011020028)
(0.0010960415 8.9568978e-06 -1.8964777e-15 0.0010983907 -1.4434107e-16 0.0010983612)
(0.0010948235 8.8214639e-06 1.9164734e-15 0.0010949026 8.366932e-17 0.0010948032)
(0.0010935717 8.6977634e-06 1.9433503e-15 0.0010915155 2.7947761e-17 0.0010913507)
(0.0010922718 8.5829819e-06 4.3153364e-18 0.0010882327 1.1195508e-16 0.0010880075)
(0.0010909338 8.4749834e-06 -4.0002092e-15 0.0010850463 -2.0344403e-16 0.001084765)
(0.0010895928 8.3720827e-06 2.0287243e-15 0.0010819365 1.664041e-16 0.0010816018)
(0.0010883013 8.2729005e-06 2.0628629e-15 0.0010788741 -1.1180636e-17 0.0010784868)
(0.0010871319 8.1760679e-06 -2.0877709e-15 0.0010758224 6.1636541e-17 0.0010753807)
(0.0010862049 8.0820563e-06 -1.7595158e-18 0.0010727203 -7.0541985e-17 0.0010722179)
(0.0010854175 7.9896257e-06 2.1502306e-15 0.0010696155 1.2893229e-16 0.001069051)
(0.0010849648 7.9047745e-06 -4.8278007e-18 0.0010664096 -1.635844e-16 0.0010657722)
(0.0010838791 7.8490636e-06 -2.7032018e-18 0.0010635669 1.2331671e-16 0.0010628932)
(0.001079328 7.776296e-06 4.7137554e-18 0.0010624527 6.5351318e-17 0.0010618523)
(0.0010767956 7.6219128e-06 2.6504901e-18 0.0010604423 -3.3511587e-17 0.0010598069)
(0.0010833101 7.447392e-06 -2.3142307e-15 0.0010541957 -1.0001135e-16 0.0010532569)
(0.0011061806 7.3109656e-06 -2.3271403e-15 0.0010407333 -1.3995423e-16 0.0010389328)
(0.00113672 8.987089e-06 2.293591e-15 0.0010253682 5.6475878e-17 0.0010225955)
(0.0011466791 5.8345253e-06 3.9914117e-15 0.0010148914 1.4732568e-16 0.0010118348)
(0.0012150412 6.8931951e-06 2.686995e-18 0.0010006527 -1.7916204e-17 0.00099551248)
(0.0011258403 7.3970882e-06 -2.1264572e-18 0.00095322552 1.6423134e-17 0.00095008386)
(0.00098673653 -9.2861507e-08 3.8183218e-16 0.00092511716 1.175891e-16 0.00092579934)
(0.00087853246 -3.0218339e-07 1.6479365e-16 0.00083753487 1.1448736e-16 0.00083975931)
(0.00076657219 -4.2080861e-07 3.3425277e-18 0.00071571948 -4.7912457e-17 0.0007194341)
(0.00082421922 -1.3434905e-06 -1.7343727e-16 0.00070811289 -2.1883345e-16 0.00071402584)
(0.0012768122 -2.4032578e-06 3.8525533e-16 0.00079959816 2.9005648e-17 0.00080371376)
(0.0017104679 1.1985714e-05 -7.6417864e-18 0.00051087969 2.4301817e-17 0.0005054348)
(0.00082298641 -1.892625e-05 2.7102821e-18 0.00063633015 -9.1969701e-18 0.00066806317)
(0.00091545717 -0.00015863994 -1.4836011e-16 0.00010457254 -4.3009983e-16 0.00061115393)
(0.0011927484 4.353239e-05 3.1426992e-18 0.0011004131 2.872036e-17 0.00109479)
(0.0011334834 2.2264978e-05 1.0041338e-15 0.0011219733 3.1083136e-17 0.001121627)
(0.0011252113 1.8950551e-05 -2.0313336e-15 0.0011207193 1.3504996e-17 0.0011207267)
(0.001117669 1.7819648e-05 -2.0682653e-15 0.0011193981 -1.023922e-17 0.0011195116)
(0.0011103205 1.698422e-05 1.0452801e-15 0.0011181361 6.9145679e-17 0.0011183422)
(0.0011057103 1.6327009e-05 -1.0594517e-15 0.0011156701 -5.001966e-17 0.0011159044)
(0.0011027757 1.5829074e-05 2.3455397e-18 0.0011125066 1.2313266e-16 0.0011127312)
(0.0011005681 1.5436134e-05 -1.0857714e-15 0.0011090998 -5.2992336e-17 0.0011093002)
(0.0010988555 1.5109077e-05 -1.1046584e-15 0.0011055564 -1.6130677e-16 0.001105723)
(0.0010974638 1.4829273e-05 -1.1251623e-15 0.0011019555 -1.7717217e-16 0.0011020829)
(0.0010962047 1.4584698e-05 -2.4346316e-18 0.0010983838 -1.2116657e-16 0.0010984708)
(0.0010949632 1.4366034e-05 -1.1521574e-15 0.0010948931 -9.349192e-17 0.001094941)
(0.0010936894 1.4166667e-05 -1.1705312e-15 0.0010915036 3.0952659e-17 0.0010915149)
(0.001092369 1.3981979e-05 -1.1817576e-15 0.0010882186 3.0101103e-17 0.0010881959)
(0.0010910116 1.3808488e-05 1.2019982e-15 0.0010850303 -1.383522e-16 0.0010849759)
(0.0010896517 1.3643478e-05 3.3696679e-18 0.0010819187 1.27695e-16 0.0010818341)
(0.0010883406 1.3484808e-05 -1.2295995e-15 0.0010788549 -1.9561516e-17 0.0010787403)
(0.0010871497 1.3330383e-05 -1.2214698e-18 0.0010758026 4.5660158e-18 0.0010756564)
(0.0010861979 1.3181062e-05 -1.7543169e-18 0.0010727001 -1.0979468e-16 0.0010725184)
(0.0010853836 1.3035302e-05 -1.2890195e-15 0.0010695961 5.6462158e-17 0.0010693772)
(0.001084903 1.2901226e-05 -1.3177602e-15 0.0010663889 -1.0482462e-16 0.0010661268)
(0.0010838173 1.2814779e-05 1.3270178e-15 0.0010635387 1.5258608e-16 0.0010632544)
(0.0010793033 1.2698773e-05 1.3564857e-15 0.0010624207 1.3867375e-16 0.0010621789)
(0.0010767192 1.2444664e-05 -1.3693509e-15 0.00106042 -1.2403363e-16 0.0010601664)
(0.0010829928 1.2190195e-05 2.4437337e-18 0.0010542404 -6.3623372e-17 0.0010537968)
(0.0011054133 1.2004496e-05 -1.3946617e-15 0.0010409153 -8.5355326e-17 0.0010399572)
(0.0011356108 1.4855932e-05 -1.3885621e-15 0.0010258957 -2.2868149e-17 0.0010242981)
(0.0011432667 9.732588e-06 -3.2585051e-18 0.0010164171 1.5557186e-16 0.0010145117)
(0.0012095246 1.1404535e-05 -1.3792499e-15 0.0010043658 -1.4850317e-17 0.0010012406)
(0.0011379007 1.2354229e-05 -9.5624405e-16 0.0009529825 -1.406506e-17 0.00095039157)
(0.0009936309 -1.0200191e-07 -2.4888787e-16 0.00092980303 4.9455477e-18 0.00092931447)
(0.00088666295 -4.7743648e-07 6.219674e-19 0.0008457472 8.9164982e-17 0.000845849)
(0.00077249629 -6.4971743e-07 -7.2624773e-17 0.00072524851 -1.0029619e-16 0.00072556279)
(0.00079536151 -1.7770044e-06 1.604894e-19 0.00069982297 -1.7197538e-16 0.00070013356)
(0.0011895062 -3.973525e-06 -7.8371225e-18 0.00080607206 1.363184e-17 0.00080325504)
(0.0016739419 1.2075159e-05 4.8638776e-16 0.00050725566 1.7034216e-16 0.00048745297)
(0.00083656473 -2.4764668e-05 2.7285902e-17 0.00064617044 6.4208005e-17 0.00065004582)
(0.0006100685 -3.1803424e-05 -5.3434863e-18 0.00036561715 -9.0683532e-17 0.00052264539)
(0.0011893045 5.7400479e-05 5.7413229e-18 0.0011019175 1.8111611e-17 0.0010970963)
(0.0011332636 3.1490973e-05 -7.1538384e-16 0.0011222476 3.3337048e-17 0.0011219422)
(0.0011253944 2.6416428e-05 4.5377169e-19 0.001120746 -1.1866944e-16 0.0011208895)
(0.0011178709 2.4783522e-05 7.3342958e-16 0.0011194457 -7.2808594e-17 0.0011196342)
(0.0011105043 2.3622097e-05 -2.2205765e-18 0.0011182321 6.8051914e-17 0.0011184349)
(0.0011058859 2.2710161e-05 7.6179405e-16 0.0011157842 -9.3122621e-18 0.0011159884)
(0.0011029514 2.2018904e-05 3.1672926e-18 0.0011126198 9.5872515e-17 0.0011128181)
(0.0011007468 2.1472884e-05 7.8381826e-16 0.0011092048 -7.4191807e-17 0.0011093946)
(0.0010990392 2.1017777e-05 7.0254896e-19 0.0011056484 -1.5282757e-16 0.0011058279)
(0.0010976538 2.0627839e-05 -8.0593547e-16 0.0011020315 -1.1454949e-16 0.0011021998)
(0.0010964015 2.02865e-05 8.0843808e-16 0.001098443 -1.0865917e-17 0.0010986001)
(0.0010951668 1.99809e-05 -9.9058368e-19 0.0010949358 -1.3824552e-16 0.0010950821)
(0.0010938993 1.9701901e-05 -8.37352e-16 0.0010915307 -8.0013926e-17 0.0010916668)
(0.0010925847 1.9443114e-05 2.3269771e-18 0.0010882313 -2.1548856e-17 0.0010883579)
(0.0010912323 1.9199701e-05 3.7266143e-18 0.0010850294 -2.4209964e-17 0.0010851471)
(0.0010898768 1.8967836e-05 -8.6626903e-16 0.001081905 1.1798162e-17 0.001082014)
(0.0010885695 1.8744454e-05 6.610281e-18 0.0010788283 -7.3855598e-17 0.0010789289)
(0.0010873818 1.8526464e-05 -2.4252692e-18 0.0010757626 1.1187553e-17 0.0010758544)
(0.0010864338 1.8314735e-05 9.0672483e-16 0.0010726445 -1.0229247e-17 0.0010727269)
(0.0010856231 1.8107593e-05 -1.843428e-15 0.0010695244 -1.009974e-16 0.0010695969)
(0.0010851508 1.7914766e-05 -9.4566521e-16 0.0010662956 -6.591318e-17 0.0010663577)
(0.0010840863 1.7791607e-05 1.7979729e-19 0.0010634248 5.5338663e-17 0.0010634828)
(0.0010795637 1.7639199e-05 5.3719169e-18 0.0010623303 7.9576819e-17 0.00106239)
(0.0010769222 1.7279821e-05 1.9600264e-15 0.0010603494 -3.0879835e-17 0.0010604003)
(0.0010831371 1.6895682e-05 -1.9863124e-15 0.0010541245 -5.1240904e-17 0.0010541382)
(0.0011056256 1.6534907e-05 -2.1579884e-19 0.001040654 -1.25752e-16 0.0010406172)
(0.0011361919 2.0490524e-05 -9.2948358e-18 0.0010256849 -3.0838793e-17 0.0010255172)
(0.0011411788 1.3289723e-05 8.1034483e-16 0.0010173211 1.320766e-16 0.0010169388)
(0.0012037991 1.5184892e-05 6.3444408e-19 0.0010082488 -1.9323513e-17 0.0010078054)
(0.0011583237 1.6860095e-05 2.1877834e-18 0.00095106208 -5.0761295e-17 0.00095033185)
(0.0010057458 -3.1953363e-07 -7.1080805e-19 0.00093518798 -5.1822947e-17 0.00093509173)
(0.00090008665 -7.4300704e-07 8.0269208e-17 0.00085571232 3.6292583e-17 0.00085577413)
(0.00078491364 -9.4832726e-07 5.6578112e-17 0.00073746769 6.3534059e-19 0.00073752191)
(0.00076652068 -2.1251505e-06 1.6946358e-18 0.0006861486 -1.5613853e-16 0.00068619249)
(0.0010866638 -5.9009894e-06 -1.1730752e-16 0.00079174081 -8.8629445e-17 0.00079098664)
(0.00160977 1.0465582e-05 1.6515207e-16 0.00048434225 2.2228877e-16 0.00047204)
(0.00083131465 -2.5155277e-05 1.8157102e-17 0.00063725796 1.2770221e-16 0.00063770271)
(0.0005061271 -2.4504243e-05 -5.8492815e-19 0.00037174915 -2.1038375e-17 0.00044787083)
(0.0011859851 6.9920893e-05 7.2519405e-18 0.0011040219 1.8171746e-17 0.001098792)
(0.0011330178 4.0836108e-05 -2.2537747e-18 0.0011226093 -8.5392404e-17 0.0011223222)
(0.0011256025 3.3941788e-05 1.2505968e-19 0.0011208413 -1.126593e-16 0.001121082)
(0.0011181416 3.1769936e-05 -2.3545669e-18 0.0011194972 1.104258e-17 0.0011198054)
(0.0011107801 3.027958e-05 5.8100869e-16 0.0011182833 9.3462706e-17 0.0011186)
(0.0011061601 2.9113438e-05 -5.8502212e-16 0.0011158392 5.2867786e-17 0.0011161513)
(0.0011032237 2.8229252e-05 2.8824367e-18 0.0011126777 6.0631821e-17 0.0011129809)
(0.0011010172 2.7530458e-05 6.1007326e-16 0.0011092649 3.9210014e-18 0.0011095588)
(0.0010993072 2.694767e-05 3.951509e-19 0.0011057106 -1.0589902e-16 0.0011059942)
(0.0010979195 2.6448083e-05 6.1942457e-16 0.0011020956 -3.1928098e-17 0.0011023685)
(0.0010966653 2.6010571e-05 6.2874109e-16 0.0010985088 8.0741766e-17 0.0010987711)
(0.0010954289 2.5618713e-05 -6.430784e-16 0.001095003 -7.4439712e-17 0.0010952553)
(0.0010941598 2.5260831e-05 -6.5239267e-16 0.0010915992 -5.1342376e-17 0.0010918421)
(0.0010928435 2.4928753e-05 6.6321916e-16 0.0010883009 2.9993155e-17 0.0010885348)
(0.0010914892 2.461629e-05 -6.6353589e-16 0.0010851 -4.4239634e-17 0.0010853255)
(0.0010901313 2.4318526e-05 -6.7401162e-16 0.0010819765 -7.3935408e-17 0.0010821938)
(0.0010888211 2.403152e-05 -1.3662218e-15 0.0010789008 -1.6858621e-16 0.00107911)
(0.0010876295 2.3751245e-05 -1.3965397e-15 0.0010758361 -8.2663099e-17 0.001076037)
(0.0010866772 2.3478711e-05 -7.1154352e-16 0.0010727188 1.1349047e-19 0.001072911)
(0.0010858616 2.3212e-05 -7.190724e-16 0.0010695996 -1.6601441e-16 0.0010697829)
(0.0010853877 2.2962557e-05 7.1718006e-16 0.0010663694 -1.4662908e-18 0.0010665438)
(0.0010843393 2.2804293e-05 7.3966414e-16 0.0010634874 4.4354918e-17 0.0010636605)
(0.0010798177 2.2613884e-05 -7.4421479e-16 0.0010623953 -3.6398144e-17 0.0010625615)
(0.0010771129 2.2150464e-05 7.6235773e-16 0.001060438 -1.3085446e-17 0.0010605907)
(0.0010832334 2.1651374e-05 7.7976376e-16 0.0010542485 1.5386178e-17 0.0010543792)
(0.0011056837 2.1143588e-05 7.8213484e-19 0.0010409058 -1.0712518e-16 0.0010410489)
(0.0011366367 2.6312774e-05 1.5265643e-15 0.0010263393 4.479053e-17 0.0010264)
(0.0011385941 1.7016099e-05 -4.3249714e-18 0.0010194002 1.3952535e-16 0.0010191419)
(0.0011959648 1.8960254e-05 -1.5206016e-18 0.0010143308 -4.1035545e-17 0.0010143082)
(0.0011839558 2.1495028e-05 6.6810465e-16 0.00095135015 3.1289799e-17 0.00095084034)
(0.0010236812 -5.1935663e-07 -2.7721986e-19 0.00094316141 -1.948245e-17 0.00094287864)
(0.00091964609 -9.590969e-07 -1.4394373e-16 0.00086933719 1.0172382e-17 0.00086919702)
(0.00080511985 -1.1874441e-06 -4.4414244e-17 0.00075520844 8.7397702e-18 0.0007549519)
(0.00074396462 -2.0892787e-06 6.055819e-19 0.00067517213 -1.0951981e-16 0.00067479641)
(0.00097034885 -6.5959863e-06 -2.3535188e-19 0.00075998605 -9.2983627e-17 0.00075902294)
(0.001515884 8.0248401e-06 -1.3685133e-16 0.00045903428 8.5306366e-17 0.00044164051)
(0.00079500768 -2.2514298e-05 -1.2824727e-17 0.00061833856 3.7865833e-17 0.00061601356)
(0.0004481702 -1.8381187e-05 -1.1886118e-19 0.00034661498 3.6992365e-18 0.00040079997)
(0.0011823537 8.3993452e-05 7.8380344e-18 0.0011065386 1.9600834e-17 0.0011006735)
(0.0011327919 5.2870621e-05 -5.6963366e-16 0.001123074 -2.7960755e-17 0.0011228865)
(0.0011259328 4.369923e-05 3.5306511e-18 0.0011210085 -3.5686258e-17 0.0011213834)
(0.0011185772 4.0781959e-05 -5.830602e-16 0.0011195797 -6.9356394e-17 0.0011200804)
(0.0011112247 3.8864796e-05 -2.4012239e-18 0.0011183531 2.7945926e-17 0.0011188746)
(0.0011066008 3.7374352e-05 -5.9460116e-16 0.0011159121 -3.0175616e-17 0.0011164246)
(0.0011036606 3.6243777e-05 3.256822e-18 0.0011127559 1.9198081e-17 0.0011132521)
(0.0011014509 3.534956e-05 -6.117485e-16 0.0011093481 2.3516542e-17 0.0011098287)
(0.0010997374 3.4603356e-05 -6.226676e-16 0.0011057993 -5.0884508e-17 0.0011062632)
(0.0010983465 3.3963435e-05 -6.3445332e-16 0.00110219 -5.8413735e-17 0.0011026366)
(0.0010970897 3.3402891e-05 6.3550188e-16 0.0010986085 6.5638456e-17 0.0010990383)
(0.0010958511 3.2900756e-05 -5.0937419e-18 0.0010951078 -5.7806087e-17 0.0010955215)
(0.0010945799 3.2442095e-05 -1.6508533e-18 0.0010917087 -2.7614649e-17 0.0010921074)
(0.0010932615 3.2016458e-05 6.7343256e-16 0.0010884148 5.3759167e-17 0.0010887992)
(0.0010919047 3.1615927e-05 2.8925893e-18 0.0010852179 -4.3738214e-17 0.0010855889)
(0.0010905439 3.1234208e-05 1.9204731e-18 0.0010820982 -7.1867229e-17 0.0010824561)
(0.0010892298 3.0866276e-05 7.0552625e-16 0.0010790262 -1.4804141e-16 0.0010793712)
(0.0010880331 3.0506954e-05 -1.4164814e-15 0.0010759654 -2.0512364e-16 0.0010762972)
(0.0010870754 3.0157543e-05 7.1175516e-16 0.0010728516 2.2923435e-17 0.0010731699)
(0.0010862538 2.9815716e-05 -7.5986655e-19 0.0010697361 -1.3993392e-16 0.0010700405)
(0.0010857783 2.9495085e-05 -1.1037771e-17 0.0010665072 -4.5283133e-17 0.0010667974)
(0.0010847518 2.9293205e-05 7.4983139e-16 0.0010636099 1.2407344e-16 0.0010639014)
(0.0010802265 2.9052852e-05 6.2125966e-18 0.0010625227 -4.3086324e-17 0.0010627973)
(0.0010774324 2.8457219e-05 1.6205477e-18 0.0010606006 -4.7024155e-17 0.0010608477)
(0.0010834515 2.7820627e-05 7.9558828e-16 0.0010544408 1.3421192e-16 0.0010546711)
(0.0011058894 2.7149754e-05 -7.8283565e-16 0.0010412659 -5.64736e-17 0.0010415294)
(0.0011376131 3.4040243e-05 -5.4046097e-18 0.0010272041 1.0516258e-16 0.0010273975)
(0.0011358185 2.2027764e-05 -6.6317961e-18 0.0010221413 1.1365666e-16 0.0010218498)
(0.0011875962 2.3797794e-05 6.333845e-16 0.0010210318 5.4642003e-17 0.0010209189)
(0.0012251017 2.742849e-05 7.93562e-16 0.0009536298 1.0060287e-16 0.00095232262)
(0.0010540443 -7.8045538e-07 -8.8433016e-19 0.00095517751 -7.4105682e-18 0.0009543196)
(0.00095161619 -1.1449772e-06 -5.5025431e-19 0.00088958014 2.5172751e-17 0.00088912346)
(0.00083982478 -1.4512588e-06 -3.6919685e-21 0.00078226744 -4.4486194e-17 0.00078166081)
(0.00073290998 -1.7486564e-06 5.9768468e-19 0.00067104187 -3.5366128e-17 0.00067059418)
(0.00082884726 -5.9993074e-06 8.7673857e-19 0.00069454748 -4.1452338e-17 0.00069456637)
(0.0013709321 4.6279633e-06 -1.3112588e-16 0.0004191848 -7.168778e-17 0.00039558349)
(0.00072009058 -1.8217831e-05 1.9942674e-18 0.00056833135 -8.1868114e-18 0.00056466652)
(0.00039815606 -1.6143713e-05 -1.8546578e-18 0.00030870756 -1.6425377e-17 0.00035594366)
(0.0011787894 9.9715943e-05 1.1336345e-17 0.0011089547 3.5514884e-17 0.0011030977)
(0.0011325934 6.7881751e-05 -3.9523522e-16 0.0011237629 -8.6992065e-18 0.0011237407)
(0.0011264644 5.6138504e-05 3.9971277e-16 0.0011212864 6.230387e-17 0.0011219122)
(0.0011192878 5.2244872e-05 3.984495e-16 0.001119734 -7.8221445e-17 0.0011205456)
(0.001111955 4.9784711e-05 4.053714e-16 0.0011184945 2.8787817e-17 0.001119325)
(0.001107327 4.7889174e-05 -4.0849096e-16 0.001116058 -1.0170996e-16 0.0011168683)
(0.0011043812 4.6450363e-05 5.5331234e-18 0.0011129071 7.8174591e-18 0.0011136918)
(0.0011021656 4.5310719e-05 2.1817843e-18 0.0011095043 -3.1244203e-17 0.0011102662)
(0.0011004456 4.4358543e-05 -2.2016361e-18 0.0011059606 -9.7080636e-17 0.0011067)
(0.0010990483 4.3541123e-05 -2.8636375e-18 0.0011023562 -9.2262359e-17 0.0011030731)
(0.0010977858 4.2824495e-05 -5.5000191e-18 0.0010987793 3.0327004e-17 0.0010994747)
(0.001096542 4.2182107e-05 8.8880093e-16 0.0010952828 8.7458832e-19 0.001095958)
(0.0010952659 4.1595004e-05 4.5348778e-16 0.0010918878 -3.3753429e-17 0.0010925439)
(0.0010939426 4.1049905e-05 -4.5370546e-16 0.0010885976 -6.036307e-18 0.0010892357)
(0.0010925807 4.0536739e-05 2.308095e-18 0.0010854044 -1.8446981e-17 0.0010860253)
(0.001091214 4.0047475e-05 1.8173839e-18 0.001082288 -4.2048779e-17 0.0010828924)
(0.0010898932 3.95757e-05 -4.7180965e-16 0.0010792192 -8.9912488e-17 0.0010798074)
(0.0010886882 3.9114714e-05 -4.8975281e-16 0.0010761617 -2.1060978e-16 0.0010767334)
(0.0010877219 3.8666108e-05 -3.7113852e-18 0.0010730504 5.3921097e-17 0.001073606)
(0.0010868905 3.8227014e-05 -4.9824852e-18 0.0010699372 -1.5782605e-16 0.0010704769)
(0.0010864115 3.7813233e-05 4.9897776e-16 0.0010667068 -5.5901395e-17 0.0010672311)
(0.0010854113 3.7554308e-05 2.3845139e-18 0.0010637896 1.0432757e-16 0.0010643178)
(0.00108088 3.7253076e-05 5.2830499e-18 0.0010627111 -1.3567381e-17 0.0010632048)
(0.0010779652 3.6489231e-05 5.3566912e-18 0.0010608373 -2.1093339e-17 0.001061286)
(0.0010838587 3.5677769e-05 -1.0852132e-15 0.0010546816 2.921823e-18 0.0010551483)
(0.001106335 3.4772056e-05 4.3868513e-19 0.0010415653 -7.4712099e-17 0.0010422194)
(0.0011392149 4.4005198e-05 -5.4739723e-16 0.0010279147 -5.6604659e-17 0.0010286462)
(0.0011334264 2.8333075e-05 3.8527261e-16 0.0010251468 7.6643192e-17 0.0010251103)
(0.0011799255 2.9437021e-05 -1.6595253e-19 0.0010267089 1.6663853e-16 0.0010267)
(0.0012820769 3.4921448e-05 7.0700935e-18 0.00095466784 1.5299635e-16 0.00095197006)
(0.0010876209 -1.2689841e-06 9.2426975e-20 0.00096903911 -5.7055403e-18 0.00096803781)
(0.00098543375 -1.3076006e-06 7.3848181e-17 0.00091126912 3.8222919e-17 0.00091086124)
(0.0008755674 -1.8733986e-06 8.8480717e-17 0.00080707607 1.6333749e-17 0.00080627852)
(0.00074243871 -1.4910994e-06 6.8960774e-19 0.0006816906 4.1111863e-18 0.00068107115)
(0.00070709049 -4.9099857e-06 2.016636e-17 0.00061990955 -9.0116445e-18 0.00061988034)
(0.0012105808 -9.0869023e-07 -5.0835899e-18 0.00036449176 -5.6965316e-17 0.00035463906)
(0.00054630296 -8.5791958e-06 2.1470395e-19 0.00046880361 3.1805314e-18 0.00046761427)
(0.00029748043 -1.1270994e-05 -6.0977997e-20 0.00024199648 -1.0864934e-17 0.00027002852)
(0.0011757885 0.00011489265 -5.3049507e-16 0.0011112367 -3.4402047e-17 0.0011056865)
(0.0011325515 8.4148037e-05 5.4911041e-16 0.0011245951 -1.8221046e-17 0.0011248682)
(0.001127224 7.011343e-05 6.9552706e-18 0.0011216817 9.0093193e-17 0.0011226774)
(0.0011202944 6.5141409e-05 -3.110824e-18 0.0011199651 -2.480671e-17 0.0011212194)
(0.0011129949 6.2075326e-05 5.750103e-16 0.0011187034 8.8874458e-17 0.0011199757)
(0.0011083634 5.9735438e-05 2.9771666e-16 0.0011162699 -3.8082431e-17 0.0011175079)
(0.0011054105 5.7958425e-05 8.5633871e-18 0.001113124 1.1300426e-17 0.0011143235)
(0.0011031862 5.6548244e-05 -4.6007759e-19 0.0011097268 -4.4933439e-17 0.0011108925)
(0.0011014561 5.5368046e-05 -3.9761338e-18 0.0011061891 -1.0465378e-16 0.0011073226)
(0.0011000488 5.4353464e-05 -3.0896072e-16 0.0011025905 -4.9935553e-17 0.0011036929)
(0.0010987769 5.3463023e-05 -6.3265917e-16 0.0010990189 -4.7611949e-17 0.0011000919)
(0.0010975243 5.2664154e-05 3.0933871e-16 0.0010955275 5.2384035e-17 0.001096573)
(0.0010962399 5.1933531e-05 9.651558e-16 0.0010921373 7.4923435e-17 0.0010931569)
(0.0010949086 5.125479e-05 8.3732394e-18 0.0010888519 -5.2115054e-18 0.001089847)
(0.0010935385 5.0615502e-05 3.8516265e-18 0.0010856632 6.1338499e-18 0.001086635)
(0.001092163 5.0005738e-05 5.2062838e-19 0.0010825512 -3.1437814e-17 0.0010835005)
(0.0010908324 4.9417572e-05 -6.7468123e-16 0.0010794866 -1.2469399e-16 0.0010804141)
(0.001089616 4.8842603e-05 -3.4610658e-16 0.0010764333 -1.9319674e-16 0.0010773391)
(0.001088638 4.828282e-05 -5.5129161e-18 0.0010733253 -1.0234407e-17 0.0010742104)
(0.0010877935 4.7734604e-05 -7.4500983e-18 0.0010702151 -1.4259391e-16 0.00107108)
(0.0010873092 4.7215843e-05 7.1552446e-16 0.0010669833 2.8915223e-17 0.0010678302)
(0.0010863361 4.6893203e-05 3.6980112e-16 0.0010640442 1.1305531e-16 0.0010648955)
(0.0010817979 4.652417e-05 -3.6635932e-16 0.0010629727 3.5149515e-17 0.0010637731)
(0.0010787379 4.5571522e-05 -3.7286882e-16 0.001061163 -2.3133547e-17 0.0010618929)
(0.001084487 4.4572545e-05 5.7986052e-18 0.0010549944 -5.5035968e-17 0.0010557751)
(0.0011071153 4.3428536e-05 -1.0662027e-18 0.0010417797 -9.3918617e-17 0.0010429669)
(0.0011415428 5.5602845e-05 -7.8564789e-18 0.0010282899 -1.3185075e-16 0.0010297579)
(0.0011320606 3.5530594e-05 -2.7320478e-16 0.0010280936 6.0670319e-18 0.0010283333)
(0.0011723001 3.51113e-05 -2.6787064e-16 0.0010310661 8.8087358e-17 0.0010311553)
(0.0013371392 4.2712953e-05 2.7277942e-18 0.00095380793 1.3748915e-16 0.00094946824)
(0.0011172729 -1.8453022e-06 7.3974762e-19 0.00098480487 -1.205651e-17 0.00098372693)
(0.001015933 -1.3019122e-06 -8.0423199e-19 0.00093503244 -5.5192841e-18 0.00093461301)
(0.00090252901 -2.3541583e-06 -3.8700262e-17 0.00082053214 3.3553874e-17 0.00082104829)
(0.00074987481 -1.3035049e-06 3.3879228e-19 0.00069184605 1.0795901e-17 0.00069080981)
(0.00062401697 -3.9088779e-06 2.638529e-19 0.00056265959 1.1787971e-17 0.00056263145)
(0.0010762789 -6.1311326e-06 -3.1804793e-19 0.0003363973 1.6711946e-17 0.00030400148)
(0.00032146397 -1.8513346e-06 -7.8497684e-19 0.00030219827 -1.1769456e-18 0.00030174237)
(0.00014842725 -4.1007764e-06 -6.9527608e-22 0.00013018728 -1.6162791e-18 0.00013888513)
(0.0011732048 0.00012920673 -3.8649952e-16 0.001113563 -1.0195651e-16 0.0011086286)
(0.0011328376 0.000101558 -3.1861123e-19 0.001125497 3.1602317e-18 0.0011263487)
(0.0011283037 8.5684079e-05 -3.9961185e-16 0.001122219 5.505167e-17 0.0011237499)
(0.0011216903 7.9604093e-05 -3.5311265e-18 0.0011202989 -3.5819544e-17 0.0011221707)
(0.0011144453 7.588186e-05 -1.2427353e-18 0.0011189969 8.3591265e-17 0.0011208954)
(0.0011098131 7.3061987e-05 6.0522615e-18 0.0011165616 2.4930428e-17 0.0011184117)
(0.0011068519 7.0918907e-05 -4.2090033e-16 0.0011134184 -1.0147892e-17 0.0011152154)
(0.0011046158 6.9213901e-05 -3.2477456e-18 0.0011100252 -5.0640941e-17 0.0011117756)
(0.0011028714 6.7783409e-05 4.3701114e-16 0.0011064929 -4.8566071e-17 0.0011081988)
(0.0011014495 6.6551048e-05 -3.9051672e-19 0.0011028996 -3.5615473e-17 0.0011045629)
(0.0011001634 6.5467643e-05 -6.4974824e-18 0.0010993331 -7.1642475e-17 0.0011009563)
(0.0010988972 6.4494344e-05 -4.0282598e-18 0.0010958467 3.4821091e-17 0.0010974321)
(0.0010975999 6.3603215e-05 4.6578465e-16 0.0010924617 1.0953907e-16 0.0010940112)
(0.0010962559 6.2774619e-05 7.7057964e-18 0.0010891815 1.5120033e-17 0.001090697)
(0.0010948731 6.1993613e-05 -2.3719992e-16 0.0010859981 -4.4685781e-17 0.0010874809)
(0.0010934846 6.1248213e-05 2.404269e-16 0.0010828916 1.09122e-18 0.0010843428)
(0.0010921401 6.0528845e-05 2.5125316e-16 0.0010798328 -8.5315702e-17 0.0010812532)
(0.0010909079 5.9825177e-05 2.4008743e-18 0.0010767854 -1.3929105e-16 0.0010781751)
(0.0010899139 5.9139652e-05 -2.5960471e-16 0.0010736827 -5.0124875e-17 0.0010750432)
(0.0010890515 5.8467725e-05 -6.0024125e-18 0.0010705774 -9.1647234e-17 0.0010719094)
(0.0010885588 5.782895e-05 -1.1062989e-18 0.0010673453 7.0389837e-17 0.0010686528)
(0.001087614 5.7434118e-05 5.3527139e-16 0.0010643818 1.5657e-16 0.0010656926)
(0.0010830672 5.6992109e-05 2.8958751e-18 0.0010633168 4.4327962e-18 0.0010645575)
(0.0010798292 5.5826421e-05 -2.6766684e-16 0.0010615982 -1.040939e-18 0.0010627275)
(0.001085402 5.4614869e-05 -5.578316e-16 0.0010553993 -1.6439614e-17 0.0010566126)
(0.0011083716 5.3247071e-05 -2.8128948e-16 0.0010418563 -8.3323806e-17 0.0010437671)
(0.0011450138 6.9126282e-05 -7.8182886e-18 0.0010280175 -7.8690895e-17 0.0010305244)
(0.0011318818 4.3712339e-05 -3.840214e-16 0.0010309148 -7.9004393e-17 0.0010314601)
(0.0011647306 4.0741754e-05 -1.2056103e-19 0.0010338505 1.9651241e-17 0.0010338194)
(0.0013875287 4.9958669e-05 2.0817298e-19 0.00094940067 9.3511328e-17 0.00094686856)
(0.0011390573 -2.5744408e-06 1.0911282e-16 0.0010037283 -7.3971439e-19 0.0010022944)
(0.0010420342 -1.2197351e-06 -4.2720152e-17 0.00096350811 -1.6226686e-17 0.00096309047)
(0.00091711144 -2.7757003e-06 3.4041318e-17 0.0008122065 -9.3754392e-19 0.00081365464)
(0.0007174216 -8.8007034e-07 6.8836316e-19 0.00067632696 1.3867916e-17 0.00067599125)
(0.00053503003 -3.1630271e-06 -4.2922401e-18 0.0004973823 -5.3136732e-18 0.00049761498)
(0.0010208455 -1.4721339e-05 -1.2229993e-17 0.00027176253 -1.0633288e-17 0.00022254336)
(0.00010718025 -1.1284788e-07 4.3481393e-20 0.00010558223 4.6217048e-20 0.00010552059)
(2.2425798e-05 -3.3350461e-07 1.8309736e-21 2.1018457e-05 -3.0481768e-20 2.165529e-05)
(0.0011718017 0.00014270599 4.0709406e-18 0.0011154987 -7.3063262e-17 0.0011117367)
(0.0011336662 0.0001199206 1.8024766e-18 0.0011264521 -2.1357566e-17 0.001128255)
(0.0011298205 0.00010286021 5.7790867e-18 0.001122944 2.0786759e-17 0.0011252161)
(0.0011235891 9.5763332e-05 2.9930384e-16 0.001120789 -7.437704e-18 0.0011234791)
(0.0011164255 9.1367284e-05 -3.0796771e-16 0.0011194286 1.9022366e-17 0.0011221582)
(0.0011117977 8.8042401e-05 -3.0687041e-16 0.0011169869 -1.3896405e-17 0.0011196502)