4.1667976e-36 	0.010337267 	-7.0205452e-16 	-2.5517824e-22 	4.7680041e-29 	1.8894915e-35 	1.1662547e-34
0.010869565 	0.011396084 	-0.0016696869 	8.1929408e-07 	0.016858349 	-8.9873372e-06 	0.015033962
0.02173913 	0.011839438 	-0.0024161006 	5.0993538e-07 	0.016769321 	-3.2340869e-06 	0.013635518
0.032608696 	0.012090753 	-0.0027309453 	-1.9726662e-06 	0.016837403 	-1.8786605e-07 	0.0065414516
0.043478261 	0.012844211 	-0.0032578049 	8.0407797e-07 	0.017223905 	-1.2952193e-05 	0.011400856
0.054347826 	0.013329102 	-0.0036527503 	-3.4542261e-06 	0.017646876 	1.4901311e-06 	0.00022796376
0.065217391 	0.014300872 	-0.0041795946 	-1.2313781e-06 	0.018355942 	3.9705879e-07 	0.0054389393
0.076086957 	0.015049006 	-0.0045587794 	-1.5834764e-06 	0.018927232 	-4.0942786e-08 	0.001590228
0.086956522 	0.015901001 	-0.0049713874 	1.2361668e-06 	0.019546905 	-9.9841704e-06 	0.0075522434
0.097826087 	0.016536589 	-0.0052702238 	5.3946126e-06 	0.019982719 	-3.3421548e-05 	0.0065508898
0.10869565 	0.017075831 	-0.0055143954 	-1.5662564e-08 	0.020308 	-2.6235646e-08 	0.0052944952
0.11956522 	0.017467218 	-0.0056798148 	2.6098369e-06 	0.020456792 	-1.3189851e-05 	0.0042156999
0.13043478 	0.017684784 	-0.0057705928 	1.0335922e-05 	0.020442003 	-4.4982806e-05 	0.0030637276
0.14130435 	0.017812879 	-0.0058163489 	-8.6780578e-08 	0.02033141 	-3.8293749e-07 	0.0004647241
0.15217391 	0.017751335 	-0.0057857245 	1.3252587e-05 	0.020040468 	-5.1684325e-05 	0.0008192743
0.16304348 	0.017631491 	-0.0057280408 	5.1394907e-06 	0.019698656 	-1.8517594e-05 	0.00030551352
0.17391304 	0.01737352 	-0.0056137947 	1.1678372e-05 	0.019241401 	-4.2077194e-05 	0.0012990467
0.18478261 	0.017072771 	-0.0054825908 	4.9971739e-06 	0.018748007 	-1.7048612e-05 	0.0021574297
0.19565217 	0.016675802 	-0.0053134964 	1.0751385e-05 	0.018184657 	-3.6679972e-05 	0.0030304668
0.20652174 	0.016261751 	-0.0051394569 	1.5161756e-06 	0.017607197 	-4.9983332e-06 	0.0036317447
0.2173913 	0.015786477 	-0.0049423905 	1.2045412e-05 	0.016999249 	-3.9709767e-05 	0.0043797459
0.22826087 	0.015340195 	-0.0047760568 	1.303421e-06 	0.016366812 	-8.6801464e-07 	0.0013378113
0.23913043 	0.014813397 	-0.0045474147 	1.3409668e-05 	0.01578581 	-4.3438464e-05 	0.0053497909
0.25 	0.014328811 	-0.0043622242 	8.3860143e-07 	0.015169366 	-5.6303763e-07 	0.0039471801
0.26086957 	0.013823656 	-0.0041565217 	3.7610049e-06 	0.014599819 	-1.2134157e-05 	0.005977335
0.27173913 	0.013332367 	-0.00396384 	4.2104941e-06 	0.014029278 	-1.3584347e-05 	0.0064898914
0.2826087 	0.012886536 	-0.0038182398 	2.3063012e-06 	0.013434864 	-1.4591701e-06 	0.0019241922
0.29347826 	0.012387169 	-0.00360616 	7.3579662e-06 	0.012937446 	-2.3857782e-05 	0.0067209178
0.30434783 	0.011935731 	-0.0034428654 	8.46634e-07 	0.012400179 	-4.7767127e-07 	0.0055497155
0.31521739 	0.011501554 	-0.0032926025 	1.7087068e-06 	0.011879308 	-9.6405313e-07 	0.0038646653
0.32608696 	0.011048326 	-0.003109863 	7.086368e-06 	0.01141858 	-2.3108662e-05 	0.0070346248
0.33695652 	0.010644752 	-0.0029760418 	1.9999196e-06 	0.010911442 	-9.4316974e-07 	0.0039864672
0.34782609 	0.010235706 	-0.0028286165 	2.0698516e-06 	0.010446837 	-9.7614994e-07 	0.0036777461
0.35869565 	0.0098190508 	-0.002658871 	5.3342076e-06 	0.010035378 	-1.7265809e-05 	0.0069972411
0.36956522 	0.0094560099 	-0.0025334538 	1.9246924e-06 	0.0095800776 	-6.8069321e-07 	0.0042681533
0.38043478 	0.0091011699 	-0.0024071708 	3.1972606e-06 	0.009146116 	-1.130754e-06 	0.0022130188
0.39130435 	0.0087182895 	-0.002240951 	1.7042711e-06 	0.0087948264 	-5.2977617e-06 	0.0067045121
0.40217391 	0.008402378 	-0.0021141043 	9.0133614e-07 	0.0084177412 	-1.8631281e-07 	0.0055883916
0.41304348 	0.008133086 	-0.0020144864 	4.8099712e-06 	0.0080131672 	-9.9425645e-07 	0.00013334777
0.42391304 	0.0078109139 	-0.0018600779 	1.3122762e-06 	0.0077272359 	-2.7125716e-07 	0.0046485166
0.43478261 	0.0075354616 	-0.0017245457 	1.4748285e-06 	0.0074422391 	-4.1551738e-06 	0.0064228682
0.44565217 	0.0073443579 	-0.0016213798 	2.8057934e-06 	0.0071472124 	-1.0282344e-07 	0.0027473156
0.45652174 	0.007148586 	-0.0015077607 	3.6276877e-06 	0.0068896871 	-1.3294326e-07 	0.0015607179
0.4673913 	0.0069255448 	-0.0013715557 	5.9737854e-07 	0.0066894291 	-2.1892031e-08 	0.0053110681
0.47826087 	0.0067751888 	-0.0012552987 	3.5532018e-07 	0.0065061259 	4.7013403e-08 	0.005658422
0.48913043 	0.0067094446 	-0.0011594193 	3.3741027e-06 	0.0063351109 	4.4643694e-07 	0.0017948311
0.5 	0.0066171982 	-0.0010459354 	3.2546081e-06 	0.0062005011 	4.3062626e-07 	0.0018963186
0.51086957 	0.0065022425 	-0.00091736646 	4.4597567e-07 	0.0060970863 	5.9008284e-08 	0.005395416
0.52173913 	0.006471843 	-0.00080716281 	8.8749362e-07 	0.0060189133 	2.4036035e-07 	0.0048231033
0.5326087 	0.0065028844 	-0.00070809745 	3.6327875e-06 	0.0059560405 	9.8386968e-07 	0.0012272818
0.54347826 	0.0065055767 	-0.00058775167 	2.7251054e-06 	0.0059299222 	7.3804166e-07 	0.0024577184
0.55434783 	0.0064947872 	-0.00045679863 	9.7749372e-08 	0.0059228606 	-8.5303041e-08 	0.0060896499
0.56521739 	0.0065786542 	-0.0003466912 	1.71574e-06 	0.0059394908 	6.2346569e-07 	0.0036412766
0.57608696 	0.0066820432 	-0.00023867467 	4.1313073e-06 	0.0059627146 	1.5012346e-06 	0.00017737913
0.58695652 	0.0067552108 	-0.00010348039 	1.4367102e-06 	0.0060368015 	5.2207181e-07 	0.0042446977
0.59782609 	0.0068565771 	2.4439748e-05 	5.0745194e-07 	0.0061159373 	2.0788182e-07 	0.0055783172
0.60869565 	0.0070150535 	0.00014052701 	2.9992347e-06 	0.0062051906 	1.2286609e-06 	0.0014267312
0.61956522 	0.0071609584 	0.00027390635 	2.151396e-06 	0.0063272112 	8.813369e-07 	0.0030361565
0.63043478 	0.0073050608 	0.0004143947 	1.5380084e-07 	0.0064665209 	3.6341415e-08 	0.0068753995
0.64130435 	0.0075027459 	0.00054155789 	2.2665621e-06 	0.0066121346 	9.5181977e-07 	0.0023413032
0.65217391 	0.0076982013 	0.00068144205 	2.2120471e-06 	0.0067809213 	9.2892675e-07 	0.0026431987
0.66304348 	0.0078922685 	0.00083313682 	3.0970411e-07 	0.0069725627 	1.8575615e-07 	0.0074215567
0.67391304 	0.0081223305 	0.0009717319 	2.0474172e-06 	0.0071667335 	8.3624205e-07 	0.0023956445
0.68478261 	0.0083569604 	0.0011245506 	1.7615287e-06 	0.0073845937 	7.1947446e-07 	0.0033525702
0.69565217 	0.0085982627 	0.0012860329 	2.2205316e-07 	0.0076214194 	8.6552735e-08 	0.0073616939
0.70652174 	0.0088584665 	0.0014349276 	2.232702e-06 	0.0078593401 	8.702712e-07 	0.0012387035
0.7173913 	0.0091329289 	0.0016056138 	9.4439108e-07 	0.008129294 	3.681084e-07 	0.0055883799
0.72826087 	0.0094158844 	0.0017722585 	8.6171737e-07 	0.0084071253 	3.27236e-07 	0.005449507
0.73913043 	0.0097098553 	0.0019368417 	1.8478082e-06 	0.0086940143 	7.0170264e-07 	0.001863575
0.75 	0.010025686 	0.0021227151 	9.0066238e-08 	0.0090106912 	1.1683632e-07 	0.0094087781
0.76086957 	0.010339445 	0.0022884463 	1.7267199e-06 	0.0093259456 	6.8362708e-07 	0.0013995341
0.77173913 	0.010684321 	0.002479192 	4.8778862e-07 	0.0096735189 	1.9312079e-07 	0.0077022582
0.7826087 	0.011027157 	0.0026579873 	1.1212675e-06 	0.010024839 	5.088457e-07 	0.0038595398
0.79347826 	0.011393123 	0.002848618 	7.6498857e-07 	0.010398866 	3.4716171e-07 	0.0062891523
0.80434783 	0.011766103 	0.0030374607 	8.2261976e-07 	0.01078497 	4.5986163e-07 	0.0054153151
0.81521739 	0.012155014 	0.0032305118 	7.822628e-07 	0.01118891 	4.3730125e-07 	0.0060808319
0.82608696 	0.01255328 	0.0034238602 	7.6611126e-07 	0.011606354 	5.3708643e-07 	0.0056178942
0.83695652 	0.012967543 	0.0036212817 	5.7538593e-07 	0.012042464 	4.0337741e-07 	0.007584834
0.84782609 	0.013377745 	0.0038103818 	8.9122646e-07 	0.012481427 	7.6079297e-07 	0.0039296465
0.85869565 	0.013816984 	0.0040125623 	1.7534504e-07 	0.012949678 	1.496828e-07 	0.011387122
0.86956522 	0.014212272 	0.0041835437 	1.0452144e-06 	0.013386637 	1.016583e-06 	0.0003540126
0.88043478 	0.014644035 	0.0043737609 	1.9670144e-07 	0.013860737 	1.878905e-07 	0.010239988
0.89130435 	0.015023736 	0.0045331877 	3.0830371e-07 	0.014296744 	2.9449371e-07 	0.0085496121
0.90217391 	0.015341428 	0.0046598014 	3.0174077e-07 	0.014674546 	4.9252703e-08 	0.0011284501
0.91304348 	0.015629465 	0.0047785172 	-7.6641653e-08 	0.015034465 	-3.5479094e-07 	0.0097641816
0.92391304 	0.015803044 	0.0048500483 	-2.5695205e-08 	0.015289922 	-1.1894871e-07 	0.013434088
0.93478261 	0.015761806 	0.0048183294 	-2.9939061e-07 	0.015342362 	-8.708775e-07 	0.0096550315
0.94565217 	0.015526461 	0.0047234561 	-1.0075714e-07 	0.015214713 	-2.7643036e-07 	0.014150041
0.95652174 	0.014931579 	0.0044919913 	-1.9052403e-06 	0.014722507 	-5.3610812e-06 	0.00085601238
0.9673913 	0.013897524 	0.0041273689 	-1.0149732e-06 	0.013792827 	-3.1095586e-06 	0.0073439136
0.97826087 	0.012127381 	0.0035659882 	-1.7734901e-06 	0.012096938 	-6.0773391e-06 	0.00086027659
0.98913043 	0.0083365029 	0.0025132798 	-1.0626159e-06 	0.0083137977 	-3.8562338e-06 	0.0011922494
