0.37113402 	0.010431264 	-0.0029020412 	-4.9776828e-06 	0.0087160693 	1.2974393e-05 	0.0073676244
0.3814433 	0.010582453 	-0.0030969289 	-3.9487751e-06 	0.0088711989 	1.0386509e-05 	0.0036293789
0.39175258 	0.0041671397 	-0.00083906335 	-1.539193e-06 	0.0039397572 	1.808905e-06 	0.0026433353
0.40206186 	0.0033161915 	-0.000193926 	-3.6064165e-07 	0.0039323011 	-1.0779356e-06 	0.0021853938
0.41237113 	0.0031450101 	0.00013936983 	-1.4562749e-06 	0.0043926148 	-5.4140802e-06 	0.00033540793
0.42268041 	0.0029999128 	0.00036551427 	-1.6815594e-07 	0.0046721898 	-1.007172e-06 	0.0012607314
0.43298969 	0.0028553017 	0.00049653142 	2.8159342e-07 	0.0048050488 	-7.5766165e-08 	0.0012546392
0.44329897 	0.0027251743 	0.0005575663 	1.258493e-07 	0.0048185584 	-8.6386378e-07 	0.00096608942
0.45360825 	0.002626011 	0.00056983172 	-7.8161165e-08 	0.0047297363 	-1.2299746e-06 	0.00073931205
0.46391753 	0.0025439044 	0.00057375149 	-1.7060229e-08 	0.0046192707 	-3.7945037e-07 	0.00053766838
0.4742268 	0.0024755688 	0.00058145465 	1.9086238e-07 	0.0045123381 	-3.5498237e-08 	9.5067651e-05
0.48453608 	0.0024208799 	0.00059730289 	6.92162e-09 	0.0044280159 	-2.2325832e-06 	0.00019772963
0.49484536 	0.0023758786 	0.0006164685 	1.5404419e-07 	0.0043565807 	-4.3537134e-06 	4.6674567e-05
0.50515464 	0.0023378086 	0.00063779734 	6.4692139e-08 	0.0042955054 	-1.0753873e-06 	0.00011705862
0.51546392 	0.0023088409 	0.0006611 	8.4047765e-08 	0.0042474778 	-1.3971388e-06 	0.00025471404
0.5257732 	0.0022860218 	0.00068494058 	2.0334507e-07 	0.0042073032 	-2.755629e-06 	0.0003845735
0.53608247 	0.0022666657 	0.00070872543 	3.2857515e-07 	0.0041697599 	-5.9879214e-08 	1.5831344e-05
0.54639175 	0.0022527597 	0.00073137265 	1.7345423e-07 	0.0041452435 	-2.5291654e-06 	0.00062181879
0.55670103 	0.0022403517 	0.00075285974 	1.8410927e-07 	0.0041193458 	-3.0600428e-08 	0.00044285932
0.56701031 	0.002230941 	0.00077266529 	7.9621819e-08 	0.0041021525 	-1.6622512e-06 	0.00083101899
0.57731959 	0.0022225682 	0.00079092942 	2.4786354e-07 	0.004083471 	-3.4826782e-08 	0.00051302393
0.58762887 	0.0022160455 	0.000808236 	3.8616504e-08 	0.0040723477 	-1.5242829e-06 	0.0010137592
0.59793814 	0.0022103992 	0.00082418031 	4.6708195e-07 	0.0040572778 	-4.9501148e-08 	0.00025965683
0.60824742 	0.0022061453 	0.00084001539 	2.3965988e-08 	0.0040513785 	-1.9110484e-06 	0.0011722744
0.6185567 	0.0022031285 	0.00085518987 	4.7897599e-07 	0.0040399194 	-2.7647458e-08 	0.00032395172
0.62886598 	0.0022011125 	0.00087044797 	1.0983617e-08 	0.0040365036 	-5.8557624e-07 	0.0013102395
0.63917526 	0.0022009901 	0.00088632761 	7.9280145e-08 	0.0040308222 	1.4162322e-09 	0.0011964655
0.64948454 	0.0022029427 	0.00090226812 	3.2382555e-07 	0.0040248404 	5.7847041e-09 	0.00076337609
0.65979381 	0.0022063964 	0.00091925838 	5.925371e-08 	0.0040245856 	-1.2777965e-06 	0.0014631657
0.67010309 	0.0022136143 	0.00093723689 	5.0047926e-07 	0.0040206804 	7.2868027e-08 	0.00043806581
0.68041237 	0.0022218615 	0.00095649109 	2.5541647e-08 	0.0040246305 	3.7187744e-09 	0.0015061065
0.69072165 	0.0022344756 	0.00097771456 	1.7736788e-08 	0.0040286075 	-1.4747568e-07 	0.001577041
0.70103093 	0.0022546062 	0.0010016837 	6.070543e-07 	0.0040331543 	1.9334508e-07 	0.00030864338
0.71134021 	0.0022768365 	0.0010286754 	2.3114951e-07 	0.0040481535 	-7.4426162e-07 	0.0016579049
0.72164948 	0.0023087414 	0.0010592599 	4.547369e-07 	0.0040627788 	2.3342255e-07 	0.00071394091
0.73195876 	0.0023469612 	0.0010940989 	4.0144828e-08 	0.004088313 	2.0606879e-08 	0.0016518369
0.74226804 	0.0023971389 	0.0011282931 	8.5736008e-08 	0.0041162959 	6.5419673e-08 	0.0015412897
0.75257732 	0.0024657567 	0.001162861 	3.318565e-07 	0.0041529947 	2.5321851e-07 	0.0010484046
0.7628866 	0.0025441018 	0.0011994879 	1.160841e-07 	0.0042011546 	-4.4625184e-08 	0.0018106843
0.77319588 	0.0026471754 	0.0012372141 	4.6527376e-07 	0.0042627933 	5.1354331e-07 	0.00073228645
0.78350515 	0.0027636238 	0.0012825412 	2.5899119e-07 	0.0043449564 	2.3007962e-07 	0.0019044634
0.79381443 	0.0029066281 	0.0013373797 	4.5551294e-07 	0.0044480103 	6.420783e-07 	0.00082823263
0.80412371 	0.0030672745 	0.0014012536 	2.6027626e-07 	0.0045769784 	3.9716428e-07 	0.0020138624
0.81443299 	0.0032571029 	0.0014726954 	2.189208e-07 	0.0047309344 	3.7019591e-07 	0.0015313345
0.82474227 	0.0034661487 	0.0015493186 	9.4923887e-08 	0.004907577 	1.8726731e-07 	0.0018358216
0.83505155 	0.0037044762 	0.0016300607 	4.2252644e-07 	0.0051140417 	1.0496084e-06 	0.0022994388
0.84536082 	0.0039593381 	0.0017088515 	5.240084e-07 	0.005328478 	1.1801886e-06 	0.00024604312
0.8556701 	0.0042394005 	0.0017921121 	4.9061627e-07 	0.0055778296 	1.4612301e-06 	0.0024018773
0.86597938 	0.0045344045 	0.0018705452 	1.8830132e-07 	0.0058328096 	6.545658e-07 	0.0025497604
0.87628866 	0.0048387665 	0.0019440232 	3.7478549e-07 	0.0060860665 	1.0651894e-06 	1.2247938e-05
0.88659794 	0.0051588125 	0.0020185869 	5.8762681e-08 	0.006363305 	2.3406018e-07 	0.0025920658
0.89690722 	0.0054789016 	0.0020840602 	5.3799395e-07 	0.0066265951 	2.4544821e-06 	0.0026840468
0.90721649 	0.005797041 	0.0021433642 	2.4103378e-07 	0.0068802022 	1.2715217e-06 	0.002746454
0.91752577 	0.0061092618 	0.0021957639 	3.3799938e-08 	0.0071177302 	2.1127162e-07 	0.0027788233
0.92783505 	0.0064103327 	0.0022406212 	9.5749953e-09 	0.0073325292 	5.2584393e-08 	0.0023713835
0.93814433 	0.0067009228 	0.0022799005 	6.8524913e-09 	0.0075191886 	3.5412395e-08 	0.0024017988
0.94845361 	0.0069824616 	0.002320725 	4.1964431e-09 	0.0076777759 	1.0394553e-07 	0.0027222537
0.95876289 	0.0072629839 	0.002348114 	9.7877746e-08 	0.0078178461 	4.8350196e-07 	0.0026592047
0.96907216 	0.007613029 	0.0024286611 	5.2403889e-07 	0.0079972527 	8.2349682e-07 	0.002635199
0.97938144 	0.0081007311 	0.002586082 	5.4019279e-07 	0.008304424 	1.4175753e-06 	0.00028915277
0.98969072 	0.0081378205 	0.0026481679 	-9.2751429e-07 	0.0081953983 	-3.776342e-06 	0.0025510035
