1.4101108e-19 	0.012178234 	-8.2709686e-16 	-8.5392128e-22 	5.9275175e-18 	1.2926164e-19 	3.022506e-18
0.010869565 	0.012216473 	-0.00049275004 	1.2097512e-08 	0.013516125 	-1.3107375e-05 	0.0099981786
0.02173913 	0.012347809 	-0.0010093838 	-8.4283728e-09 	0.013633187 	-1.5555809e-05 	0.0092261517
0.032608696 	0.012563865 	-0.0015159797 	1.1042537e-07 	0.013823976 	-2.8456665e-07 	0.0072897831
0.043478261 	0.012848879 	-0.0020013784 	1.7346131e-07 	0.014080493 	-1.9099119e-05 	0.0078572312
0.054347826 	0.013193701 	-0.002469663 	6.2477065e-07 	0.014377038 	-1.3439585e-06 	0.0023502618
0.065217391 	0.013593566 	-0.0029272227 	5.2563317e-07 	0.014730251 	-1.1036419e-06 	0.002877605
0.076086957 	0.013960914 	-0.003299015 	4.4337339e-07 	0.015047812 	-9.2216099e-07 	0.0029875514
0.086956522 	0.014347312 	-0.0036611267 	1.0293698e-06 	0.015378533 	-1.5542314e-05 	0.0052394623
0.097826087 	0.014717168 	-0.0039887164 	2.2329691e-06 	0.015681531 	-2.260868e-05 	0.0046063517
0.10869565 	0.015062405 	-0.0042837151 	2.6235906e-07 	0.015952237 	-5.5289189e-07 	0.0023015192
0.11956522 	0.015347595 	-0.0045262149 	2.0597379e-06 	0.016164248 	-1.5053839e-05 	0.0031896515
0.13043478 	0.015578262 	-0.0047298691 	4.5281253e-06 	0.016316022 	-2.5535688e-05 	0.0025098208
0.14130435 	0.01576378 	-0.0049027117 	4.8066115e-09 	0.01642024 	-1.0415427e-08 	0.001757938
0.15217391 	0.01583859 	-0.0050099713 	8.5900882e-06 	0.016412965 	-3.9598882e-05 	0.001119469
0.16304348 	0.015881672 	-0.0050996829 	1.5677987e-06 	0.016373964 	-6.192621e-06 	0.00044247163
0.17391304 	0.015802327 	-0.0051238417 	9.4279737e-06 	0.016215713 	-3.723939e-05 	0.00025266859
0.18478261 	0.015692415 	-0.0051324504 	2.7131435e-06 	0.016029862 	-9.5214679e-06 	0.00085696513
0.19565217 	0.015465796 	-0.0050818214 	1.0349311e-05 	0.015732884 	-3.6319727e-05 	0.0014309544
0.20652174 	0.015211706 	-0.0050173317 	6.4148503e-07 	0.01540981 	-2.0552506e-06 	0.0018998246
0.2173913 	0.014839593 	-0.0048942295 	1.3246326e-05 	0.014979117 	-4.2439837e-05 	0.0024001093
0.22826087 	0.014449334 	-0.0047617388 	7.3295183e-08 	0.01452655 	-2.5465398e-07 	0.00045412951
0.23913043 	0.013972224 	-0.0045857816 	1.2745902e-05 	0.014009063 	-3.8057017e-05 	0.0031072101
0.25 	0.01347982 	-0.0044018748 	1.7766552e-06 	0.013473934 	-5.3047795e-06 	0.0035274879
0.26086957 	0.012930919 	-0.0041876755 	4.4702208e-06 	0.012892173 	-1.2645667e-05 	0.0035252418
0.27173913 	0.012365397 	-0.0039633949 	9.0376731e-06 	0.012301314 	-2.5566389e-05 	0.0038643307
0.2826087 	0.011777523 	-0.0037258911 	-1.3794702e-07 	0.011685463 	-2.0282398e-08 	0.00053954424
0.29347826 	0.011207555 	-0.0034928989 	9.6400319e-06 	0.011108874 	-2.6188277e-05 	0.0039324009
0.30434783 	0.010632748 	-0.0032553459 	2.4094657e-06 	0.010523732 	-6.545596e-06 	0.0041949604
0.31521739 	0.010064253 	-0.0030151485 	-1.0131471e-07 	0.0099464295 	-1.5173927e-08 	0.0021832735
0.32608696 	0.0095396198 	-0.0027906966 	1.0398586e-05 	0.0094231521 	-2.7369087e-05 	0.0039964717
0.33695652 	0.0090198836 	-0.002566172 	-1.4423535e-08 	0.0089020712 	-1.6477533e-08 	0.0038951256
0.34782609 	0.008540135 	-0.0023526971 	-9.18883e-08 	0.0084207755 	-1.0497375e-07 	0.0021028353
0.35869565 	0.0081068951 	-0.0021560801 	7.7619913e-06 	0.0079928251 	-1.9756527e-05 	0.0038488272
0.36956522 	0.0076858745 	-0.0019615103 	-5.6526968e-09 	0.0075739708 	-2.695219e-08 	0.0037869898
0.38043478 	0.0073156408 	-0.0017808964 	-7.7832257e-08 	0.0072013207 	-3.7110602e-07 	0.0011192343
0.39130435 	0.0069834097 	-0.0016155698 	3.5151827e-06 	0.0068759316 	-8.4452634e-06 	0.0036199595
0.40217391 	0.0066760381 	-0.0014538879 	1.6311328e-06 	0.0065706715 	-3.9188138e-06 	0.0037224752
0.41304348 	0.0064090373 	-0.0012999291 	-5.5530157e-09 	0.0062985183 	-7.104356e-07 	0.00037969972
0.42391304 	0.0061699389 	-0.0011605807 	-7.9581878e-10 	0.0060651024 	-1.0181459e-07 	0.0029829419
0.43478261 	0.0059705024 	-0.0010254558 	4.4457929e-06 	0.0058667312 	-9.4322177e-06 	0.0034874332
0.44565217 	0.0057942221 	-0.00089272631 	2.4408749e-08 	0.0056878708 	-3.045926e-07 	0.0023514708
0.45652174 	0.0056530251 	-0.00076702542 	5.4403724e-08 	0.005542587 	-6.7889474e-07 	0.00085204465
0.4673913 	0.0055238248 	-0.00064939176 	5.6011635e-07 	0.0054168114 	-9.2206035e-07 	0.0033622077
0.47826087 	0.0054348027 	-0.00053262644 	2.0111915e-06 	0.0053258986 	-3.3108121e-06 	0.0034160408
0.48913043 	0.0053755464 	-0.00041706642 	6.3993328e-08 	0.0052605282 	-4.7766814e-07 	0.0016178853
0.5 	0.0053334225 	-0.00030365176 	7.9388422e-08 	0.005214467 	-5.9258239e-07 	0.0011815572
0.51086957 	0.0052978267 	-0.0001921864 	8.1031977e-07 	0.0051799586 	-8.1664287e-07 	0.0034448746
0.52173913 	0.005295832 	-8.1089918e-05 	8.1758879e-07 	0.0051743305 	-8.2396861e-07 	0.0034855538
0.5326087 	0.0053272007 	2.9184985e-05 	1.0092785e-07 	0.0051969408 	-5.3250233e-07 	0.0012008628
0.54347826 	0.0053656348 	0.00014156439 	8.3250513e-08 	0.0052316061 	-4.3923549e-07 	0.0016829876
0.55434783 	0.0054151073 	0.0002557494 	1.5868784e-06 	0.0052799837 	-5.3611808e-07 	0.0036795211
0.56521739 	0.0054926444 	0.00037003676 	2.74871e-08 	0.0053513382 	-9.8231365e-08 	0.0031634965
0.57608696 	0.005596212 	0.00048406013 	1.8032314e-07 	0.0054435716 	-6.4442552e-07 	0.00014769646
0.58695652 	0.0057027924 	0.00060293238 	3.7265163e-08 	0.0055501605 	-1.3317549e-07 	0.0032211415
0.59782609 	0.0058312683 	0.00072326308 	1.1285972e-06 	0.0056743488 	2.7449905e-07 	0.0040387694
0.60869565 	0.0059861159 	0.00084466021 	1.4719943e-07 	0.0058183804 	-3.1904179e-07 	0.0014526273
0.61956522 	0.0061507142 	0.00096996072 	1.1180168e-07 	0.0059785153 	-2.4232029e-07 	0.0022921561
0.63043478 	0.0063290241 	0.0010988097 	2.1458833e-06 	0.0061549409 	1.5512438e-06 	0.004477135
0.64130435 	0.0065332337 	0.0012293913 	1.340815e-07 	0.0063492348 	-1.4787866e-07 	0.0022964578
0.65217391 	0.0067510578 	0.0013638501 	1.6416334e-07 	0.0065607421 	-1.8105596e-07 	0.0020094972
0.66304348 	0.006981752 	0.0015032222 	1.8389655e-06 	0.0067914419 	2.042206e-06 	0.0050041191
0.67391304 	0.0072367513 	0.0016437469 	1.5926836e-07 	0.0070365112 	-5.4466131e-08 	0.0024360172
0.68478261 	0.0075058473 	0.0017891397 	1.5977554e-07 	0.0073011991 	-5.4639576e-08 	0.0027083636
0.69565217 	0.0077895035 	0.0019390165 	1.342311e-06 	0.0075858434 	1.9211618e-06 	0.0056007832
0.70652174 	0.0080933181 	0.0020878265 	2.3534129e-07 	0.0078784621 	4.5897165e-08 	0.0014695837
0.7173913 	0.0084119819 	0.0022446524 	6.9544027e-08 	0.0082003903 	1.3562744e-08 	0.0048767121
0.72826087 	0.0087445033 	0.0024007791 	3.4546096e-08 	0.0085322984 	1.9559319e-08 	0.0054945896
0.73913043 	0.0090908939 	0.002555363 	2.2975446e-07 	0.0088705232 	1.3008245e-07 	0.0013814846
0.75 	0.0094525846 	0.0027180975 	1.4977873e-06 	0.0092430372 	2.9468898e-06 	0.0069079853
0.76086957 	0.0098170832 	0.0028706204 	1.5439221e-07 	0.0096006682 	1.1785453e-07 	0.0017317582
0.77173913 	0.010198574 	0.0030321186 	1.2336038e-08 	0.0099961359 	9.4166538e-09 	0.007116219
0.7826087 	0.010572213 	0.0031804055 	3.3507546e-08 	0.010371184 	8.8011826e-09 	0.0041861758
0.79347826 	0.010953653 	0.0033301382 	2.2247892e-08 	0.01076429 	5.8436914e-09 	0.0057635772
0.80434783 	0.011322701 	0.00346958 	-2.9012203e-08 	0.011144796 	-7.5922992e-08 	0.0057692129
0.81521739 	0.011684113 	0.0036015623 	-3.5954011e-08 	0.011519885 	-9.408924e-08 	0.0055401678
0.82608696 	0.012023296 	0.0037212321 	-9.4803992e-08 	0.011876701 	-2.0781959e-07 	0.0059682588
0.83695652 	0.012342584 	0.00382949 	-7.3667759e-08 	0.012217553 	-1.6148691e-07 	0.0069413946
0.84782609 	0.012615981 	0.0039155382 	-2.7153012e-07 	0.012508105 	-6.0742868e-07 	0.0042545456
0.85869565 	0.012866119 	0.0039923776 	8.463873e-09 	0.012793311 	1.5449107e-07 	0.0095796874
0.86956522 	0.013035651 	0.0040318887 	-6.8534811e-07 	0.012970668 	-1.6024859e-06 	0.00014817658
0.88043478 	0.013172206 	0.0040629304 	-9.7457888e-09 	0.01315385 	-9.9562191e-09 	0.0097948603
0.89130435 	0.013217741 	0.0040555378 	-2.2601042e-07 	0.013224245 	-5.5442483e-07 	0.0072545694
0.90217391 	0.013179251 	0.004016452 	-8.2659216e-07 	0.013199923 	-2.1308583e-06 	0.0013657826
0.91304348 	0.01306411 	0.0039544661 	-1.0822104e-07 	0.013121913 	-2.9444626e-07 	0.0087356247
0.92391304 	0.012839681 	0.003857389 	-4.3604694e-07 	0.012917681 	-1.0971975e-06 	0.0095886743
0.93478261 	0.012496707 	0.0037081992 	-2.0303295e-07 	0.012585346 	-5.8271969e-07 	0.0073610835
0.94565217 	0.012011979 	0.0035285228 	-7.5514979e-07 	0.012106217 	-2.2652768e-06 	0.0090037144
0.95652174 	0.011400569 	0.0033240683 	-6.3033556e-07 	0.011468584 	-2.1573195e-06 	0.00096738421
0.9673913 	0.010595012 	0.0030914295 	-1.2511907e-07 	0.010651898 	-4.975382e-07 	0.0058994313
0.97826087 	0.0094903079 	0.0028205062 	-2.3393703e-07 	0.0095146474 	-1.0972315e-06 	0.00087300911
0.98913043 	0.0070226838 	0.0021840835 	-4.9050708e-08 	0.007005564 	-2.9121952e-07 	0.00086842794
