0.47826087 	0.016018146 	-0.0050962276 	1.819257e-08 	0.016008596 	-5.4873792e-08 	0.0074806064
0.48913043 	0.017337043 	-0.0054445454 	6.3031507e-09 	0.017288327 	-1.6674954e-09 	0.0068297718
0.5 	0.015864624 	-0.0050169435 	1.0560663e-07 	0.015800564 	-3.5593478e-07 	0.0086600737
0.51086957 	0.013997006 	-0.0044814299 	1.4494184e-06 	0.013908454 	-4.8758444e-06 	0.0076816457
0.52173913 	0.011971041 	-0.0038470949 	-3.1133794e-07 	0.011866427 	1.0629469e-06 	0.0012036569
0.5326087 	0.0099450435 	-0.003204803 	1.2819195e-06 	0.0098406819 	-3.8591986e-06 	0.0052089831
0.54347826 	0.0080031173 	-0.0025348671 	6.1769235e-06 	0.0078999413 	-1.6854395e-05 	0.0043048247
0.55434783 	0.0062986175 	-0.0018711855 	4.4867102e-06 	0.0062124474 	-1.0984094e-05 	0.003444442
0.56521739 	0.0049481598 	-0.0012800453 	3.8218993e-06 	0.0048856257 	-8.3163064e-06 	0.0027001412
0.57608696 	0.0040233993 	-0.00080603842 	4.2620099e-06 	0.0039840197 	-7.5362902e-06 	0.0021537725
0.58695652 	0.0035052565 	-0.00044493155 	2.1743479e-06 	0.0034864999 	-2.4793284e-06 	0.0018523785
0.59782609 	0.003281727 	-0.00016416528 	-5.3751045e-08 	0.0032808346 	5.0319207e-08 	0.0015600003
0.60869565 	0.0032414937 	6.9927542e-05 	-3.6111299e-07 	0.0032550681 	1.2056788e-07 	0.00024128241
0.61956522 	0.0032828116 	0.00027109085 	-6.2551131e-08 	0.0033140956 	-3.4878579e-12 	0.0014354784
0.63043478 	0.0033744024 	0.00044762374 	2.2074663e-06 	0.003420436 	8.2123325e-07 	0.0018259738
0.64130435 	0.0034900728 	0.00060795228 	-1.0007112e-07 	0.0035476805 	-1.3192139e-08 	0.001226124
0.65217391 	0.0036196925 	0.00075300658 	-7.1771116e-08 	0.0036883922 	-6.6721302e-09 	0.001287655
0.66304348 	0.0037593559 	0.00088669961 	1.3752207e-06 	0.0038388479 	1.092966e-06 	0.0020519382
0.67391304 	0.0039094799 	0.0010123577 	-1.3413642e-07 	0.0039935451 	2.451111e-08 	0.00033698927
0.68478261 	0.0040606737 	0.0011276536 	9.118402e-07 	0.0041547271 	9.0816524e-07 	0.0021961432
0.69565217 	0.0042219837 	0.0012378196 	-4.0417596e-08 	0.0043196755 	4.1916831e-08 	0.0013964053
0.70652174 	0.0043853628 	0.0013405955 	2.8867783e-07 	0.0044887949 	3.5520411e-07 	0.0023599867
0.7173913 	0.0045584894 	0.0014396563 	-9.2387366e-09 	0.0046636292 	5.1047018e-08 	0.0018932162
0.72826087 	0.0047325283 	0.0015322497 	2.2466578e-07 	0.0048403263 	3.389941e-07 	0.0025464314
0.73913043 	0.0049197609 	0.0016236991 	9.5511112e-09 	0.0050264483 	9.791797e-08 	0.001902966
0.75 	0.0051112113 	0.00171186 	2.8153347e-07 	0.0052186103 	5.2147911e-07 	0.0027545571
0.76086957 	0.00531748 	0.0017997468 	3.1393175e-08 	0.0054212226 	1.4265642e-07 	0.0020345261
0.77173913 	0.0055359104 	0.0018886719 	9.2324313e-08 	0.0056380663 	2.0437399e-07 	0.0029765979
0.7826087 	0.0057714123 	0.0019790361 	8.0350468e-09 	0.0058688872 	2.8830262e-08 	0.0030536261
0.79347826 	0.0060229677 	0.002070833 	7.8174762e-08 	0.0061125298 	2.5405603e-07 	0.0021135469
0.80434783 	0.0062987398 	0.0021686258 	7.3963103e-07 	0.0063834522 	2.0399419e-06 	0.0034575562
0.81521739 	0.0065943764 	0.0022685326 	2.6192956e-07 	0.0066645742 	8.1564513e-07 	0.00033255793
0.82608696 	0.0069225254 	0.002378996 	3.1009743e-07 	0.0069894269 	9.0905732e-07 	0.0037244979
0.83695652 	0.0072835402 	0.0024964368 	4.1640706e-07 	0.0073401547 	1.2733986e-06 	0.0040118359
0.84782609 	0.0076780627 	0.0026210083 	3.2575822e-07 	0.0077166779 	1.0030824e-06 	0.0006618218
0.85869565 	0.0081180522 	0.0027600008 	8.3693985e-08 	0.0081496235 	2.6089065e-07 	0.0034586255
0.86956522 	0.008606461 	0.0029111157 	1.0615309e-06 	0.0086277117 	3.4406636e-06 	0.0046530924
0.88043478 	0.0091433131 	0.0030744916 	8.1557844e-07 	0.0091528802 	2.7088725e-06 	0.0050035938
0.89130435 	0.0097324278 	0.0032510999 	1.7524899e-08 	0.0097306843 	5.6901728e-08 	0.0051600481
0.90217391 	0.010376736 	0.0034406937 	1.3692134e-07 	0.010362464 	4.5579736e-07 	0.0039698519
0.91304348 	0.01107418 	0.0036429634 	1.4480395e-07 	0.011051711 	4.9508805e-07 	0.0040301988
0.92391304 	0.01181909 	0.0038554873 	4.023339e-08 	0.01179435 	1.4145908e-07 	0.0058329903
0.93478261 	0.012598178 	0.0040736745 	7.6436044e-07 	0.0125717 	2.8643041e-06 	0.0068638422
0.94565217 	0.013387279 	0.0042911268 	5.2229759e-07 	0.013364608 	2.0014101e-06 	0.0072061708
0.95652174 	0.014145742 	0.0044981789 	2.0181139e-07 	0.014106392 	7.9237254e-07 	0.00024572596
0.9673913 	0.014799279 	0.0046467922 	3.1537047e-08 	0.014784375 	1.9041985e-07 	0.0079842278
0.97826087 	0.015181471 	0.004738925 	-7.9902932e-08 	0.015167296 	-1.6179361e-07 	0.0082215682
0.98913043 	0.014199256 	0.0044699666 	-1.4181522e-06 	0.014209943 	-4.9639777e-06 	0.0076744611
