0.47916667 	0.016631598 	-0.0052693672 	-2.3128495e-07 	0.016631566 	8.4558779e-07 	0.0086028332
0.48958333 	0.017290143 	-0.0054308881 	1.7762794e-08 	0.017229098 	-1.5451702e-10 	0.0015495365
0.5 	0.015830832 	-0.0050083902 	2.0641705e-07 	0.015764189 	-6.9574476e-07 	0.0083539952
0.51041667 	0.013998695 	-0.0044824845 	2.8225709e-06 	0.013907995 	-9.4821397e-06 	0.0073878262
0.52083333 	0.012027816 	-0.0038665224 	-3.0684343e-07 	0.011921511 	1.046029e-06 	0.001512353
0.53125 	0.010039331 	-0.0032363381 	-1.8643205e-07 	0.009929698 	6.0816632e-07 	0.0031928813
0.54166667 	0.0081321833 	-0.0025838814 	1.1151304e-06 	0.0080255974 	-3.0013934e-06 	0.0040669945
0.55208333 	0.0064408305 	-0.0019304853 	2.5671024e-06 	0.0063508332 	-6.2065513e-06 	0.0032344893
0.5625 	0.0050746957 	-0.0013419081 	1.7921617e-06 	0.0050081582 	-3.8313551e-06 	0.002526268
0.57291667 	0.0041076799 	-0.00086266815 	-2.4034204e-08 	0.0040644563 	4.7374308e-08 	0.001960224
0.58333333 	0.0035608929 	-0.00050086011 	-3.2754626e-07 	0.0035365514 	4.8897175e-07 	0.00081787647
0.59375 	0.003302407 	-0.0002183386 	-3.68197e-07 	0.0032957263 	3.0589264e-07 	0.00041671939
0.60416667 	0.0032221941 	1.3034962e-05 	4.1972839e-07 	0.0032346146 	-1.5674529e-07 	0.0016765648
0.61458333 	0.0032498828 	0.00021358813 	1.9862594e-06 	0.0032779021 	1.9068016e-07 	0.0016958568
0.625 	0.0033248851 	0.00039071579 	-1.4857256e-07 	0.0033657492 	-8.3333956e-09 	0.00096224261
0.63541667 	0.00342527 	0.00054761261 	-6.8475512e-08 	0.0034795385 	-1.1778307e-08 	0.0013056398
0.64583333 	0.0035424735 	0.00069013246 	1.5923526e-06 	0.0036091516 	9.6680145e-07 	0.0018636058
0.65625 	0.0036717031 	0.000823126 	-1.5871189e-07 	0.0037455452 	-1.9154383e-08 	0.00045719418
0.66666667 	0.0038042893 	0.00094428925 	7.807692e-07 	0.0038893272 	6.1964439e-07 	0.0019824746
0.67708333 	0.0039457794 	0.0010591787 	-3.2355472e-08 	0.0040372436 	5.4203638e-09 	0.0016645727
0.6875 	0.0040902542 	0.0011655847 	-2.6071623e-09 	0.0041882262 	2.7129021e-09 	0.0020604245
0.69791667 	0.004241294 	0.001266781 	5.2728326e-08 	0.0043442886 	6.4483146e-08 	0.002273446
0.70833333 	0.0043967236 	0.0013617639 	-4.6741475e-09 	0.0045024754 	2.6124562e-08 	0.0019629069
0.71875 	0.0045575355 	0.0014532738 	5.468663e-09 	0.0046665716 	8.2205434e-09 	0.0024489214
0.72916667 	0.0047209077 	0.0015388141 	2.9080998e-08 	0.0048310834 	4.3714818e-08 	0.002449235
0.73958333 	0.0048960354 	0.001623762 	6.0807509e-09 	0.005005566 	6.2815809e-08 	0.0020969403
0.75 	0.0050745755 	0.0017052759 	3.1678836e-07 	0.0051842024 	5.8697235e-07 	0.0026447919
0.76041667 	0.0052660365 	0.0017865709 	3.551633e-08 	0.005371862 	1.6196802e-07 	0.0017793625
0.77083333 	0.0054692134 	0.0018691091 	3.4422275e-07 	0.0055739042 	7.6491995e-07 	0.0028532303
0.78125 	0.0056860169 	0.0019520892 	4.4960823e-08 	0.0057849898 	1.6106157e-07 	0.002198483
0.79166667 	0.0059174796 	0.002037604 	5.1882191e-08 	0.0060125698 	1.3139822e-07 	0.0030720525
0.80208333 	0.0061699667 	0.0021269983 	1.3801088e-07 	0.0062586277 	3.8222477e-07 	0.0033048445
0.8125 	0.0064411767 	0.002219294 	1.3849496e-07 	0.0065187074 	4.2777026e-07 	0.0016540248
0.82291667 	0.0067412697 	0.0023201599 	1.1460437e-06 	0.0068132762 	3.3668538e-06 	0.0035560262
0.83333333 	0.0070656651 	0.0024255078 	1.8832697e-07 	0.0071239303 	5.7259969e-07 	0.0016417776
0.84375 	0.0074244174 	0.0025412114 	5.4027772e-08 	0.0074747082 	1.6450132e-07 	0.0032768317
0.85416667 	0.0078241147 	0.0026675774 	1.2897786e-06 	0.0078641327 	4.061645e-06 	0.0041209
0.86458333 	0.0082607488 	0.002803223 	9.4716708e-08 	0.0082871619 	2.9186886e-07 	0.0034141554
0.875 	0.0087428929 	0.0029502694 	3.7528164e-07 	0.0087516251 	1.1783255e-06 	0.00061348886
0.88541667 	0.0092790002 	0.0031139252 	6.9469732e-08 	0.0092820223 	2.2319388e-07 	0.004029113
0.89583333 	0.0098675493 	0.0032900551 	6.930928e-07 	0.0098614463 	2.3439395e-06 	0.0051239322
0.90625 	0.010507641 	0.0034784398 	1.3229284e-06 	0.010492468 	4.5827399e-06 	0.0054875682
0.91666667 	0.011197267 	0.0036781037 	1.4955648e-06 	0.011175124 	5.3153548e-06 	0.0058563833
0.92708333 	0.011930209 	0.0038864624 	1.1524217e-06 	0.011903503 	4.1901088e-06 	0.0062229658
0.9375 	0.012693667 	0.0041001962 	2.9954409e-07 	0.012665213 	1.1151896e-06 	0.0065797721
0.94791667 	0.013460021 	0.0043095446 	1.6620565e-07 	0.013426084 	6.3303945e-07 	0.00251137
0.95833333 	0.014203895 	0.0045188595 	1.8827973e-08 	0.014175177 	7.3653631e-08 	0.0068371354
0.96875 	0.014815408 	0.0046490928 	1.2928841e-07 	0.014784649 	5.3196223e-07 	0.00033390909
0.97916667 	0.015158764 	0.0047323677 	-4.0460312e-08 	0.015143893 	-7.1644434e-08 	0.0079307064
0.98958333 	0.014025289 	0.0044211573 	-9.1876525e-07 	0.014037466 	-3.213078e-06 	0.0074100062
