0.47777778 	0.01499249 	-0.0047789657 	3.3358146e-08 	0.014968025 	-1.0079233e-07 	0.0011988003
0.48888889 	0.017213371 	-0.0053805205 	3.8509156e-09 	0.01719321 	-4.5957701e-09 	0.0095488827
0.5 	0.016366073 	-0.0051318971 	-7.6753499e-09 	0.0163427 	3.7579787e-08 	0.0092278998
0.51111111 	0.015207144 	-0.0048161469 	-1.6441444e-08 	0.015173604 	6.4751354e-08 	0.0096804519
0.52222222 	0.013925074 	-0.0044150544 	-7.697707e-08 	0.013881109 	2.8939464e-07 	0.0029900094
0.53333333 	0.012644888 	-0.0040209459 	-3.8320527e-09 	0.012608027 	1.3904324e-08 	0.0099682554
0.54444444 	0.011369221 	-0.0036168235 	9.4562271e-08 	0.011329291 	-2.9519379e-07 	0.0093573573
0.55555556 	0.010127666 	-0.0032093304 	-6.5714915e-08 	0.010080687 	2.2079217e-07 	0.0064891284
0.56666667 	0.0089476828 	-0.0028038189 	-9.6685156e-08 	0.0088968917 	3.113142e-07 	0.005362197
0.57777778 	0.0078542523 	-0.0023995256 	-6.8707255e-08 	0.0078026835 	2.0471204e-07 	0.0054237064
0.58888889 	0.0068754696 	-0.0019949405 	7.665516e-07 	0.0068259249 	-1.8150331e-06 	0.0056388058
0.6 	0.0060416937 	-0.0015988387 	-9.747841e-09 	0.0059952044 	2.6670422e-08 	0.0047291871
0.61111111 	0.0053871138 	-0.0012218403 	-2.4013891e-07 	0.0053423304 	6.058284e-07 	0.0020633991
0.62222222 	0.0049024017 	-0.00087770897 	-4.1376175e-07 	0.004861332 	9.6074111e-07 	0.00039559398
0.63333333 	0.0045747021 	-0.00056780399 	-8.3114144e-08 	0.0045453914 	1.7265775e-07 	0.0029971249
0.64444444 	0.0044202641 	-0.00027775401 	-5.1233096e-08 	0.0043986611 	1.0642943e-07 	0.0031275843
0.65555556 	0.0044169786 	-1.3067787e-06 	-3.3906609e-07 	0.0043968678 	6.1817225e-07 	0.00019341291
0.66666667 	0.0044815506 	0.00025386479 	-3.3807731e-08 	0.0044735049 	5.819779e-08 	0.0032038421
0.67777778 	0.0046471448 	0.00049763777 	-1.204544e-07 	0.004642724 	2.0735434e-07 	0.0022706127
0.68888889 	0.0048599323 	0.00073033896 	-1.2445237e-07 	0.0048597875 	2.3959625e-07 	0.0017105973
0.7 	0.0051051844 	0.00095119146 	-2.145293e-08 	0.0051143063 	4.1301276e-08 	0.0038136903
0.71111111 	0.0054060079 	0.0011672853 	-1.1928474e-07 	0.0054140712 	3.2633071e-07 	0.00093219806
0.72222222 	0.0057078558 	0.0013717292 	1.5307685e-07 	0.0057270961 	2.0746672e-07 	0.0047059612
0.73333333 	0.0060553485 	0.0015689309 	-6.8714417e-08 	0.006069982 	3.657197e-07 	0.00088502819
0.74444444 	0.0064108534 	0.0017654343 	2.4780057e-07 	0.0064362937 	4.1903237e-07 	0.0052870062
0.75555556 	0.0067899448 	0.0019478522 	-1.9825515e-08 	0.0068082513 	4.1848366e-07 	0.00089634691
0.76666667 	0.0071936985 	0.0021385931 	7.0086483e-07 	0.0072226019 	1.4082144e-06 	0.005908271
0.77777778 	0.0076072266 	0.0023132148 	2.4678567e-08 	0.0076250159 	5.4916972e-07 	0.00011988447
0.78888889 	0.0080465511 	0.0024973335 	8.8742178e-08 	0.0080762735 	2.0324623e-07 	0.0065338793
0.8 	0.008493454 	0.0026681053 	3.5700884e-08 	0.0085153614 	3.4774014e-07 	0.0030434904
0.81111111 	0.0089571137 	0.0028408587 	4.330352e-08 	0.0089787824 	3.1197516e-07 	0.0036439562
0.82222222 	0.0094364233 	0.0030136221 	2.6561714e-07 	0.0094642392 	7.332147e-07 	0.007759083
0.83333333 	0.0099197955 	0.0031769522 	7.6092374e-08 	0.0099352578 	4.711128e-07 	0.0022880796
0.84444444 	0.010419673 	0.0033435908 	6.3776475e-08 	0.010435775 	3.6245143e-07 	0.0036598958
0.85555556 	0.010931463 	0.0035105193 	1.5104377e-07 	0.01095557 	4.7217348e-07 	0.0089090779
0.86666667 	0.011445755 	0.0036710438 	1.5799055e-08 	0.011466449 	8.5389596e-08 	0.008158325
0.87777778 	0.011962875 	0.0038274467 	6.3435307e-08 	0.011974488 	3.3283946e-07 	0.004396546
0.88888889 	0.012483986 	0.003981812 	9.3025444e-08 	0.012488168 	4.786027e-07 	0.0014668971
0.9 	0.013007183 	0.0041339456 	9.8726776e-08 	0.01300716 	5.0027461e-07 	0.000243988
0.91111111 	0.013528715 	0.0042829045 	9.0974356e-08 	0.013526753 	4.5465356e-07 	0.00024393723
0.92222222 	0.014044673 	0.0044280604 	7.0779937e-08 	0.014043998 	3.4795561e-07 	0.0019538701
0.93333333 	0.014550739 	0.0045698731 	3.3695317e-08 	0.014555922 	1.6172531e-07 	0.0067987284
0.94444444 	0.015034067 	0.0047061181 	2.0778229e-07 	0.015051555 	8.0341586e-07 	0.012304848
0.95555556 	0.015470961 	0.0048290963 	4.2560627e-08 	0.015462726 	1.7957007e-07 	0.0040426321
0.96666667 	0.01580944 	0.0049009426 	-6.316293e-09 	0.01582033 	6.2541028e-08 	0.012930034
0.97777778 	0.015915073 	0.0049318623 	2.1605305e-08 	0.015908078 	7.7184067e-08 	0.0081255781
0.98888889 	0.014783333 	0.0046399051 	1.4517369e-08 	0.014797629 	4.7734257e-08 	0.0089572155
