0.31958763 	0.0010906834 	-0.00019314752 	4.1724353e-07 	0.00093620342 	-1.2383371e-06 	0.0004288965
0.32989691 	0.009022058 	-0.002440177 	-8.6965104e-06 	0.0072046757 	1.8391492e-05 	0.00033563049
0.34020619 	0.003936195 	-0.00051222865 	-6.0556124e-07 	0.0040385049 	-9.9691074e-07 	0.001869872
0.35051546 	0.003425481 	5.0355216e-05 	8.059198e-07 	0.0046271895 	9.8561507e-07 	0.0015778892
0.36082474 	0.0031764984 	0.00023112152 	3.5962629e-07 	0.0049431843 	1.8568271e-07 	0.0010351957
0.37113402 	0.0029562067 	0.00029221792 	4.6277135e-07 	0.0050045491 	-1.6486068e-06 	0.00064522414
0.3814433 	0.002769431 	0.00030935899 	-8.5632872e-08 	0.0048793787 	-4.509129e-06 	0.00035880944
0.39175258 	0.0026217091 	0.00031077618 	-3.1467133e-07 	0.004690847 	-6.5711298e-06 	0.00012013464
0.40206186 	0.002503451 	0.00031228478 	-1.3895356e-07 	0.0045126775 	-5.5874016e-06 	0.00011053914
0.41237113 	0.0024066883 	0.00031930221 	-2.2221323e-08 	0.0043692485 	-2.6496032e-06 	0.00030635003
0.42268041 	0.0023285553 	0.00032954458 	7.3720397e-08 	0.0042573108 	-7.8380882e-09 	0.00040393973
0.43298969 	0.0022683415 	0.00034149835 	1.0427837e-07 	0.0041757349 	-9.9697027e-09 	0.00054681485
0.44329897 	0.0022197938 	0.00035551817 	4.0956549e-08 	0.0041131752 	-2.0503572e-06 	0.00081502824
0.45360825 	0.0021784655 	0.00037137774 	3.7209984e-08 	0.0040610057 	-3.5061302e-09 	0.00092537388
0.46391753 	0.0021453096 	0.00038911837 	6.7212516e-07 	0.004019295 	-6.6648366e-08 	0.00041322605
0.4742268 	0.0021185475 	0.00040999648 	1.1723698e-07 	0.0039919846 	-1.3719034e-06 	0.0012473881
0.48453608 	0.0020955623 	0.00043175193 	1.0258437e-06 	0.0039614781 	-1.1375218e-07 	0.00033066006
0.49484536 	0.0020777035 	0.00045583251 	1.1564442e-07 	0.0039469621 	-1.4748247e-08 	0.0013895508
0.50515464 	0.002062708 	0.0004796173 	9.2746704e-07 	0.0039264656 	-1.1828079e-07 	0.00067766115
0.51546392 	0.002050817 	0.00050412335 	5.0100194e-07 	0.0039161245 	-7.2673598e-08 	0.0012195887
0.5257732 	0.0020411086 	0.00052711801 	1.0751003e-06 	0.0039031239 	-1.5595031e-07 	0.00072276928
0.53608247 	0.0020333468 	0.00055048526 	5.1848433e-07 	0.0038977305 	-8.2886293e-08 	0.0013625998
0.54639175 	0.0020270749 	0.00057091041 	1.2141843e-06 	0.0038878464 	-1.9410275e-07 	0.0004900371
0.55670103 	0.00202198 	0.00059319698 	4.8135377e-08 	0.0038879699 	-8.2209761e-09 	0.0017847196
0.56701031 	0.0020181073 	0.00061074699 	1.428128e-06 	0.0038779181 	-2.4390805e-07 	8.5926562e-06
0.57731959 	0.0020151478 	0.00063171478 	6.1510831e-08 	0.0038819815 	-1.0505352e-08 	0.001678658
0.58762887 	0.0020132489 	0.0006493593 	6.9331367e-07 	0.0038766134 	-1.2078406e-07 	0.00076663594
0.59793814 	0.0020121033 	0.00066794292 	5.8147238e-07 	0.00387596 	-1.0129989e-07 	0.00089112818
0.60824742 	0.0020116527 	0.00068693712 	1.596002e-08 	0.0038772806 	-1.9871521e-07 	0.0016496128
0.6185567 	0.0020132418 	0.00070500525 	9.9159361e-07 	0.003871539 	-1.5883207e-07 	0.00013607784
0.62886598 	0.0020147512 	0.00072501394 	1.3148343e-07 	0.0038752201 	-2.1060831e-08 	0.0014253319
0.63917526 	0.0020183467 	0.00074424819 	1.0529141e-07 	0.0038747541 	-1.1123656e-08 	0.0014229939
0.64948454 	0.0020241058 	0.00076384936 	8.5688876e-07 	0.0038712535 	-9.05272e-08 	0.00015977636
0.65979381 	0.0020296583 	0.00078580081 	3.5499702e-08 	0.0038759699 	-2.383589e-07 	0.0016097926
0.67010309 	0.0020395864 	0.00080751118 	2.1616296e-07 	0.0038769487 	5.750337e-09 	0.0011961948
0.68041237 	0.0020517223 	0.00083064692 	6.0755865e-07 	0.0038778616 	1.6162191e-08 	0.00048173231
0.69072165 	0.0020658691 	0.00085666497 	2.1087413e-07 	0.0038855706 	-7.8211508e-07 	0.0016417408
0.70103093 	0.0020871148 	0.0008842403 	4.728876e-07 	0.0038916006 	1.2261843e-07 	0.0006868564
0.71134021 	0.0021100044 	0.00091436783 	2.2086551e-07 	0.0039025941 	5.7269807e-08 	0.0012520194
0.72164948 	0.0021431609 	0.00094523165 	4.743044e-09 	0.0039182396 	2.9306389e-09 	0.0017152661
0.73195876 	0.002190086 	0.0009732393 	7.2956731e-07 	0.0039297568 	4.5078612e-07 	0.00035777743
0.74226804 	0.0022419271 	0.0010049448 	2.7006715e-07 	0.0039549655 	-3.747978e-07 	0.0018494647
0.75257732 	0.0023174177 	0.0010351393 	8.4016095e-07 	0.0039822452 	8.0773913e-07 	0.00035272072
0.7628866 	0.0023971306 	0.0010695616 	9.0087546e-08 	0.0040241923 	1.7781938e-08 	0.0020280768
0.77319588 	0.0025045518 	0.0011140693 	6.6899325e-07 	0.0040864643 	8.5740747e-07 	0.00080786441
0.78350515 	0.0026180544 	0.0011661084 	7.0579686e-08 	0.0041661653 	9.045764e-08 	0.0021268453
0.79381443 	0.0027636659 	0.0012271672 	6.7843904e-07 	0.004271852 	1.0621869e-06 	0.0009762511
0.80412371 	0.0029197279 	0.0012962513 	5.0920603e-08 	0.0043994948 	7.9723e-08 	0.0024734271
0.81443299 	0.003110946 	0.0013699963 	8.9594496e-07 	0.0045518791 	1.6326083e-06 	0.00071200502
0.82474227 	0.0033163783 	0.0014520645 	3.2635808e-07 	0.0047338082 	6.9940629e-07 	0.0029694048
0.83505155 	0.0035542702 	0.0015325368 	1.1284896e-06 	0.0049297348 	2.3461857e-06 	0.00027102336
0.84536082 	0.0038111227 	0.0016213418 	1.3094213e-07 	0.0051628871 	3.0652507e-07 	0.003031942
0.8556701 	0.0040921624 	0.001707437 	4.0998169e-07 	0.0054065801 	9.597344e-07 	0.0025045933
0.86597938 	0.0043902172 	0.0017912368 	8.4509059e-07 	0.0056604351 	2.2061002e-06 	0.00073957466
0.87628866 	0.004706615 	0.0018794658 	8.9738085e-08 	0.0059450984 	2.5986077e-07 	0.0039533211
0.88659794 	0.005032796 	0.0019608314 	2.0929909e-07 	0.0062235428 	6.0608183e-07 	0.0037412233
0.89690722 	0.0053610571 	0.0020347093 	5.7911404e-07 	0.0064905788 	1.8685601e-06 	0.0010913805
0.90721649 	0.0056923826 	0.0021060742 	4.1560761e-07 	0.0067618833 	1.5263891e-06 	0.0013144544
0.91752577 	0.0060198418 	0.0021716255 	1.634058e-07 	0.0070252061 	7.1776037e-07 	0.0033124896
0.92783505 	0.0063344143 	0.0022274857 	5.1727688e-08 	0.0072634854 	2.9738755e-07 	0.004831232
0.93814433 	0.006631069 	0.0022726304 	1.9086434e-08 	0.0074628693 	1.5047801e-07 	0.0056326974
0.94845361 	0.0068981549 	0.0023067928 	1.992427e-08 	0.0076157544 	1.703191e-07 	0.005479714
0.95876289 	0.0071440821 	0.0023153968 	1.3242498e-07 	0.0077124224 	7.3098731e-07 	0.00028533716
0.96907216 	0.0073888119 	0.002352871 	3.8194566e-07 	0.0077963907 	1.0260117e-06 	0.0012523446
0.97938144 	0.0076374577 	0.0024231308 	1.7890024e-07 	0.0078744114 	4.4068877e-07 	0.0061750818
0.98969072 	0.0072554571 	0.0023581488 	1.4758097e-06 	0.0073128341 	4.1677867e-06 	0.00095062011
