0.4742268 	0.58508131 	-0.0010976758 	1.4544695e-08
0.48453608 	1.0498322 	0.00023257462 	-1.1307139e-08
0.49484536 	1.1822092 	0.00047222225 	1.1623157e-06
0.50515464 	1.2649535 	0.00075177407 	-1.4937058e-08
0.51546392 	1.321117 	0.001075233 	6.1257241e-07
0.5257732 	1.3657942 	0.0013859179 	3.0905743e-06
0.53608247 	1.4012829 	0.0017625027 	1.2975508e-06
0.54639175 	1.428762 	0.0020777751 	1.5017885e-07
0.55670103 	1.4480138 	0.0022802189 	3.5736642e-08
0.56701031 	1.4592124 	0.0023787917 	9.7496821e-08
0.57731959 	1.4643077 	0.0024024393 	-3.5476654e-07
0.58762887 	1.4658431 	0.0023792312 	-1.2115721e-06
0.59793814 	1.4655026 	0.0023259514 	-3.4013656e-07
0.60824742 	1.4640005 	0.002250544 	-2.866289e-07
0.6185567 	1.4618946 	0.0021657404 	-7.0892478e-07
0.62886598 	1.4593025 	0.0020698802 	-1.7333179e-06
0.63917526 	1.4563275 	0.0019659087 	-1.5374054e-07
0.64948454 	1.4530624 	0.0018595756 	-1.3972925e-06
0.65979381 	1.4495223 	0.0017490733 	-6.3881273e-07
0.67010309 	1.4456939 	0.0016346079 	-1.6037935e-08
0.68041237 	1.4416257 	0.0015192969 	-2.0880851e-06
0.69072165 	1.4373156 	0.001400656 	-4.0141248e-08
0.70103093 	1.4328291 	0.0012839039 	-2.7156377e-06
0.71134021 	1.428081 	0.0011637687 	-1.7495347e-08
0.72164948 	1.4232111 	0.0010476502 	-2.4429595e-06
0.73195876 	1.418158 	0.00093077822 	3.4206904e-09
0.74226804 	1.4128012 	0.00081464131 	-1.5599617e-06
0.75257732 	1.4073232 	0.00069990503 	-7.9055164e-08
0.7628866 	1.4014584 	0.00058573126 	-9.0441607e-07
0.77319588 	1.3953665 	0.00047242723 	-2.066191e-07
0.78350515 	1.3889436 	0.00036262717 	-9.855333e-07
0.79381443 	1.3822629 	0.00025503983 	2.3386054e-08
0.80412371 	1.3751318 	0.00015217315 	-1.6232945e-06
0.81443299 	1.3677456 	5.3748691e-05 	1.42878e-07
0.82474227 	1.3597079 	-4.0088341e-05 	-1.3585579e-06
0.83505155 	1.3512727 	-0.00012715053 	-1.2369218e-07
0.84536082 	1.3421892 	-0.00020606197 	9.315337e-08
0.8556701 	1.3322365 	-0.00027516561 	-8.7011686e-07
0.86597938 	1.3214851 	-0.00033387928 	-2.8023099e-07
0.87628866 	1.3096928 	-0.00037974163 	2.0910839e-07
0.88659794 	1.2964516 	-0.0004114318 	1.1915753e-07
0.89690722 	1.2814779 	-0.00042605604 	-2.2645057e-08
0.90721649 	1.2643892 	-0.00042248645 	1.0821903e-07
0.91752577 	1.2446501 	-0.00040046487 	2.8333573e-07
0.92783505 	1.2214912 	-0.00036093139 	3.1656909e-07
0.93814433 	1.1938916 	-0.00030355407 	1.0074782e-07
0.94845361 	1.1601809 	-0.00024590321 	2.2503765e-07
0.95876289 	1.1175922 	-0.00016256148 	3.0012395e-07
0.96907216 	1.0609691 	-9.5837283e-05 	9.6584313e-08
0.97938144 	0.97679531 	-4.238052e-05 	4.6001393e-08
0.98969072 	0.81128641 	-0.00010426688 	-6.9386568e-07
