0.47826087 	0.015989041 	-0.0050866596 	2.1227918e-08 	0.015979761 	-6.4072266e-08 	0.0074678945
0.48913043 	0.017333416 	-0.0054420725 	7.2684398e-09 	0.017285866 	-3.446228e-09 	0.0068274636
0.5 	0.015896111 	-0.0050248646 	8.4384678e-09 	0.015834547 	-2.8438637e-08 	0.0089660832
0.51086957 	0.014068588 	-0.0045020944 	1.2567814e-06 	0.013982812 	-4.2332258e-06 	0.0079758215
0.52173913 	0.012081689 	-0.0038801995 	-3.061881e-07 	0.01197928 	1.0474855e-06 	0.0012167509
0.5326087 	0.010093375 	-0.0032515164 	1.018019e-06 	0.0099919638 	-3.0887616e-06 	0.0054685082
0.54347826 	0.0081758901 	-0.0025974491 	5.815314e-06 	0.0080739069 	-1.6077133e-05 	0.0045458214
0.55434783 	0.0064744131 	-0.0019431423 	4.21444e-06 	0.0063871833 	-1.0444044e-05 	0.0036589559
0.56521739 	0.0051035264 	-0.0013504396 	3.6409486e-06 	0.0050386731 	-8.0462635e-06 	0.0028803161
0.57608696 	0.0041373335 	-0.00086658959 	4.2005849e-06 	0.0040952257 	-7.6648238e-06 	0.0022912426
0.58695652 	0.0035736908 	-0.00049353064 	2.0947125e-06 	0.0035523322 	-2.5725577e-06 	0.0019500546
0.59782609 	0.0033167739 	-0.00020545406 	-7.147078e-08 	0.0033129971 	7.4202077e-08 	0.0015718751
0.60869565 	0.0032566685 	3.4366512e-05 	-3.7896604e-07 	0.0032671651 	1.5776684e-07 	0.00024174456
0.61956522 	0.0032878093 	0.0002404662 	-7.480798e-08 	0.003315941 	4.2751294e-09 	0.0014381514
0.63043478 	0.0033752831 	0.00042140861 	2.1735219e-06 	0.0034183152 	7.5892276e-07 	0.0018870689
0.64130435 	0.0034902635 	0.00058530091 	-1.1036891e-07 	0.0035447469 	-1.0043845e-08 	0.0012258132
0.65217391 	0.0036206509 	0.00073363382 	-7.9862373e-08 	0.0036863004 	-5.0797857e-09 	0.0012873304
0.66304348 	0.0037620018 	0.0008704013 	1.3370629e-06 	0.0038387236 	1.0620845e-06 	0.0021217413
0.67391304 	0.0039150548 	0.00099899288 	-1.412169e-07 	0.0039963064 	2.8505165e-08 	0.00033753971
0.68478261 	0.0040692755 	0.0011171703 	8.7250802e-07 	0.0041607604 	8.7281514e-07 	0.0022735761
0.69565217 	0.004234589 	0.0012301641 	-4.4360886e-08 	0.0043296307 	4.6272761e-08 	0.001400797
0.70652174 	0.0044019128 	0.0013357948 	2.3645767e-07 	0.0045029343 	2.9244976e-07 	0.0024468428
0.7173913 	0.0045798956 	0.0014376843 	-1.0598196e-08 	0.0046825032 	5.8323029e-08 	0.0019023614
0.72826087 	0.0047585736 	0.0015331334 	1.765746e-07 	0.0048640672 	2.673229e-07 	0.0026445827
0.73913043 	0.0049513867 	0.0016274374 	1.0755943e-08 	0.0050556011 	1.0971415e-07 	0.0019155037
0.75 	0.0051482675 	0.0017185488 	2.4213185e-07 	0.0052534124 	4.4845479e-07 	0.0028657375
0.76086957 	0.0053607699 	0.0018093087 	3.5187383e-08 	0.005462049 	1.5975733e-07 	0.0020513418
0.77173913 	0.0055855246 	0.0019012984 	4.8682159e-08 	0.0056854309 	1.0744048e-07 	0.0031018987
0.7826087 	0.0058280486 	0.001994632 	1.3729566e-08 	0.0059230522 	4.9415719e-08 	0.0030834707
0.79347826 	0.0060868879 	0.0020894791 	8.630431e-08 	0.00617395 	2.8233904e-07 	0.002134211
0.80434783 	0.0063701419 	0.0021903491 	7.2010236e-07 	0.00645263 	1.9796935e-06 	0.0036131554
0.81521739 	0.0066737688 	0.0022931788 	2.7156413e-07 	0.0067414766 	8.5336684e-07 	0.00033658678
0.82608696 	0.0070099342 	0.0024066264 	2.7089426e-07 	0.0070747468 	7.9304802e-07 	0.0038961774
0.83695652 	0.0073791045 	0.0025268273 	3.7290047e-07 	0.0074338005 	1.141184e-06 	0.0041999249
0.84782609 	0.0077816122 	0.0026538565 	3.3482477e-07 	0.0078181786 	1.0424129e-06 	0.00067063565
0.85869565 	0.0082291122 	0.0027950869 	9.6053174e-08 	0.0082590059 	3.0279357e-07 	0.0035047004
0.86956522 	0.0087236748 	0.0029478964 	1.0115961e-06 	0.0087439734 	3.2920909e-06 	0.0048735641
0.88043478 	0.009265351 	0.0031123215 	7.5357694e-07 	0.0092744771 	2.5158908e-06 	0.0052391235
0.89130435 	0.0098572425 	0.0032891127 	3.1655708e-08 	0.009855287 	1.0384474e-07 	0.0052242662
0.90217391 	0.010501287 	0.0034779192 	1.4661241e-07 	0.010487349 	4.9281102e-07 	0.0040156204
0.91304348 	0.011195032 	0.0036783003 	1.5282694e-07 	0.011173451 	5.2721885e-07 	0.0040721184
0.92391304 	0.011932319 	0.0038877756 	5.1096535e-08 	0.011908961 	1.8109325e-07 	0.005886304
0.93478261 	0.012699761 	0.004101924 	6.8648913e-07 	0.01267538 	2.5884547e-06 	0.0071496517
0.94565217 	0.013473375 	0.0043143575 	4.5545408e-07 	0.013452998 	1.7553956e-06 	0.0074965387
0.95652174 	0.014213324 	0.004515765 	1.9869202e-07 	0.014175494 	7.8280645e-07 	0.00024701628
0.9673913 	0.014847519 	0.0046587802 	1.5833844e-08 	0.014834383 	9.8703857e-08 	0.0082795499
0.97826087 	0.015210534 	0.0047462007 	-8.1290019e-08 	0.01519754 	-1.8059487e-07 	0.0085129665
0.98913043 	0.014214057 	0.0044741492 	-1.3364068e-06 	0.014225568 	-4.6818108e-06 	0.0079391098
