0.4742268 	0.0066361328 	-0.0019274987 	3.2134451e-08 	0.0066114282 	-1.0041535e-07 	0.001851653
0.48453608 	0.017760009 	-0.0055858804 	3.1098378e-09 	0.017709524 	-7.654969e-09 	0.0060627252
0.49484536 	0.016404044 	-0.0051915353 	3.0785835e-06 	0.01632058 	-1.0534724e-05 	0.0058880422
0.50515464 	0.014199818 	-0.0045435895 	1.5143283e-07 	0.014092382 	-5.2026945e-07 	0.0052508513
0.51546392 	0.011899422 	-0.0038467 	2.2916471e-06 	0.011775067 	-7.2067587e-06 	0.0041226312
0.5257732 	0.0094774414 	-0.0030604841 	8.9590904e-06 	0.0093482588 	-2.6337733e-05 	0.0034320383
0.53608247 	0.0072401129 	-0.0022469072 	3.8379682e-06 	0.0071247325 	-1.0073601e-05 	0.002734763
0.54639175 	0.0054167491 	-0.0015009337 	9.9523296e-07 	0.0053340711 	-2.3592958e-06 	0.0020968735
0.55670103 	0.0041691003 	-0.0009169715 	5.9180175e-07 	0.0041177805 	-1.217353e-06 	0.0015914482
0.56701031 	0.0034963335 	-0.00050415727 	1.4776087e-06 	0.0034708003 	-2.2581957e-06 	0.0012815299
0.57731959 	0.0032164928 	-0.00020893624 	2.6904607e-06 	0.0032120857 	-2.1755726e-06 	0.0011477989
0.58762887 	0.0031408115 	2.7601891e-05 	3.2019153e-06 	0.0031563309 	-6.6608088e-07 	0.0011195554
0.59793814 	0.0031597937 	0.00022626741 	6.8540228e-07 	0.0031941426 	9.1251583e-08 	0.0011392799
0.60824742 	0.0032252556 	0.00039541651 	-2.3448372e-07 	0.0032742543 	-9.1541584e-08 	4.3566932e-05
0.6185567 	0.0033086616 	0.00054114064 	9.1059436e-07 	0.0033742054 	2.9996888e-07 	0.0011805994
0.62886598 	0.0034026585 	0.00067344425 	1.5761552e-06 	0.0034810038 	7.2548141e-07 	0.0012332996
0.63917526 	0.00350245 	0.00079517968 	-1.1890542e-07 	0.0035901081 	-5.6744515e-08 	0.0003296848
0.64948454 	0.0036041738 	0.00090366876 	1.0538695e-06 	0.0037027411 	5.9945198e-07 	0.0012941027
0.65979381 	0.0037095024 	0.0010054997 	4.5936361e-07 	0.0038160825 	3.1520684e-07 	0.0013612327
0.67010309 	0.003815985 	0.001098856 	-4.5080669e-09 	0.0039289694 	1.0014074e-09 	0.0012872912
0.68041237 	0.0039260265 	0.0011848756 	1.0450611e-06 	0.0040444419 	8.7862212e-07 	0.0014352503
0.69072165 	0.0040380213 	0.0012662506 	-2.3674201e-08 	0.0041592629 	4.1909754e-08 	0.00068782419
0.70103093 	0.0041529487 	0.0013411199 	1.1206853e-06 	0.0042787148 	1.1974418e-06 	0.0015173051
0.71134021 	0.0042716853 	0.0014130547 	-5.3294465e-09 	0.0043979852 	8.2466922e-08 	0.00066878083
0.72164948 	0.004393777 	0.0014796306 	8.6945595e-07 	0.0045228602 	1.2142793e-06 	0.0016100365
0.73195876 	0.0045186281 	0.0015434169 	5.5590784e-09 	0.0046473438 	4.8349056e-08 	0.0012489596
0.74226804 	0.0046531768 	0.0016053316 	5.2236238e-07 	0.0047820535 	9.7673573e-07 	0.0017138181
0.75257732 	0.0047901141 	0.0016646435 	8.462507e-08 	0.0049176495 	1.5823561e-07 	0.0017140766
0.7628866 	0.0049399392 	0.001723986 	3.2025351e-07 	0.0050653186 	7.7014422e-07 	0.0018248507
0.77319588 	0.0050963314 	0.0017825701 	1.1491574e-07 	0.005218597 	2.7634887e-07 	0.0018251429
0.78350515 	0.0052658731 	0.0018422482 	3.676969e-07 	0.0053841619 	1.0440719e-06 	0.0019412486
0.79381443 	0.0054438937 	0.0019023606 	1.319984e-08 	0.0055568224 	4.4017415e-08 	0.0017346261
0.80412371 	0.0056408719 	0.0019662759 	6.8416117e-07 	0.0057481352 	2.1243042e-06 	0.0020647852
0.81443299 	0.0058481646 	0.0020314692 	1.4028648e-07 	0.0059448949 	4.2722413e-07 	0.0002634116
0.82474227 	0.0060816401 	0.0021047028 	7.6044367e-07 	0.0061734894 	2.4406135e-06 	0.0021975358
0.83505155 	0.0063336556 	0.0021826196 	1.6252976e-07 	0.0064161291 	5.2282813e-07 	0.0023414241
0.84536082 	0.0066129109 	0.0022681186 	7.9939947e-08 	0.0066828732 	2.2431433e-07 	0.0015726745
0.8556701 	0.0069317087 	0.0023665315 	1.083305e-06 	0.0069907641 	3.4549075e-06 	0.0025000085
0.86597938 	0.0072861524 	0.0024759114 	6.5163635e-07 	0.0073317009 	2.0622631e-06 	0.0026747135
0.87628866 	0.0076854965 	0.0025987818 	2.0971584e-07 	0.0077129294 	5.908012e-07 	0.0010250332
0.88659794 	0.0081448775 	0.00274126 	1.0408681e-07 	0.0081582517 	2.9944426e-07 	0.0020414567
0.89690722 	0.0086739506 	0.0029049843 	6.0391859e-07 	0.0086729614 	1.9212414e-06 	0.0030824092
0.90721649 	0.0092781191 	0.0030904445 	1.3299307e-06 	0.0092617459 	4.2897495e-06 	0.0033156276
0.91752577 	0.0099641597 	0.0032988375 	1.6629988e-06 	0.0099340067 	5.4745851e-06 	0.0035667347
0.92783505 	0.0107362 	0.0035299469 	1.417531e-06 	0.010694757 	4.7691993e-06 	0.0038318966
0.93814433 	0.011589164 	0.0037813497 	4.6952313e-07 	0.011540951 	1.6208143e-06 	0.0041055518
0.94845361 	0.01250098 	0.0040430199 	2.5090016e-07 	0.012444883 	8.9474927e-07 	0.0007618713
0.95876289 	0.013432541 	0.0043112442 	6.2606857e-07 	0.013382423 	2.5741769e-06 	0.0048896539
0.96907216 	0.014278457 	0.0045149215 	1.0214464e-07 	0.014235593 	4.1172357e-07 	0.001844205
0.97938144 	0.014846489 	0.0046563479 	2.7240818e-08 	0.014818261 	2.282762e-07 	0.0053368725
0.98969072 	0.013863364 	0.0043775106 	-1.1551853e-06 	0.013867895 	-3.9930653e-06 	0.0050537242
