1.4326613e-19 	0.010231553 	-6.9487507e-16 	-2.5256867e-22 	1.2137915e-18 	5.1218069e-35 	1.2287387e-18
0.010869565 	0.010224766 	-0.0002375574 	-1.9639005e-08 	0.01101185 	-1.7818794e-05 	0.0059126516
0.02173913 	0.010238308 	-0.00050585813 	-5.2126874e-08 	0.011018709 	-1.9620634e-05 	0.0054695209
0.032608696 	0.010281684 	-0.00077296486 	-1.7218765e-08 	0.011051959 	-9.4434365e-06 	0.0050517111
0.043478261 	0.01035252 	-0.001034685 	7.7690989e-09 	0.011109556 	-1.4300231e-05 	0.0046614889
0.054347826 	0.010447948 	-0.0012909801 	1.7939053e-08 	0.011188228 	-7.0114632e-08 	0.0040382993
0.065217391 	0.01057354 	-0.0015576153 	2.7806705e-07 	0.011288118 	-9.7059881e-07 	0.00075540489
0.076086957 	0.01069357 	-0.0017741541 	3.5767685e-08 	0.011394169 	-1.5431732e-06 	0.0035463744
0.086956522 	0.01083453 	-0.0019980659 	4.6771101e-07 	0.011510522 	-2.0460375e-05 	0.0032113932
0.097826087 	0.01098002 	-0.0022111052 	5.2660614e-07 	0.011629044 	-1.3887806e-05 	0.0028819408
0.10869565 	0.011128578 	-0.0024136664 	3.0013768e-07 	0.011743566 	-8.1050444e-07 	0.00013038852
0.11956522 	0.011267769 	-0.0025947873 	9.8625663e-07 	0.011855787 	-1.6932982e-05 	0.0021961581
0.13043478 	0.011399487 	-0.002764181 	1.0803892e-06 	0.011954227 	-1.2849108e-05 	0.0018758396
0.14130435 	0.011519938 	-0.0029190148 	3.6701149e-07 	0.012039507 	-4.3648812e-06 	0.0015343538
0.15217391 	0.011615597 	-0.0030510774 	2.9734525e-06 	0.012098265 	-2.5889404e-05 	0.0012230146
0.16304348 	0.01170259 	-0.0031756504 	1.057851e-07 	0.012146127 	-2.5650085e-07 	0.00016788721
0.17391304 	0.011746108 	-0.0032688445 	4.124774e-06 	0.012151956 	-2.7670465e-05 	0.0005991363
0.18478261 	0.011783814 	-0.0033582977 	3.0115885e-07 	0.012150325 	-1.6305475e-06 	0.00029550563
0.19565217 	0.011766315 	-0.0034135903 	5.5023421e-06 	0.01209289 	-2.9791022e-05 	3.2522706e-05
0.20652174 	0.011749065 	-0.0034690338 	2.0769928e-08 	0.012036507 	-4.7942683e-08 	0.00016935182
0.2173913 	0.011663252 	-0.0034858895 	7.0370906e-06 	0.011912724 	-3.2023287e-05 	0.00057280462
0.22826087 	0.011576915 	-0.0035024611 	8.0199761e-07 	0.011788134 	-3.6496048e-06 	0.00083155673
0.23913043 	0.011427137 	-0.0034852965 	5.8776495e-06 	0.011601657 	-2.3245844e-05 	0.0010399688
0.25 	0.011261719 	-0.0034598259 	3.3189643e-06 	0.011400186 	-1.3126357e-05 	0.0012680787
0.26086957 	0.011059879 	-0.0034154198 	2.6006007e-06 	0.011163673 	-9.1712763e-06 	0.0014125806
0.27173913 	0.010811907 	-0.0033467298 	7.8808555e-06 	0.010883786 	-2.7792619e-05 	0.0016073097
0.2826087 	0.010558096 	-0.0032750858 	8.5937044e-08 	0.010596536 	-1.8486913e-07 	0.0009520831
0.29347826 	0.010244646 	-0.0031710964 	6.7493024e-06 	0.010257597 	-2.1606023e-05 	0.0018289658
0.30434783 	0.0099195737 	-0.0030604545 	5.3651143e-06 	0.0099068046 	-1.7174928e-05 	0.0019886648
0.31521739 	0.0095739753 	-0.0029386781 	7.1757353e-08 	0.0095349515 	-1.4958617e-07 	0.0010811888
0.32608696 	0.0091963453 	-0.0027947603 	9.2300971e-06 	0.0091407305 	-2.7078067e-05 	0.0020436936
0.33695652 	0.0088142145 	-0.0026478761 	4.1273449e-06 	0.0087409037 	-1.2108271e-05 	0.0021684413
0.34782609 	0.008413903 	-0.0024888291 	3.9403426e-08 	0.0083236491 	-7.9959532e-08 	0.0012587613
0.35869565 	0.0080165514 	-0.0023203155 	9.1734331e-06 	0.0079182521 	-2.4643946e-05 	0.0020645467
0.36956522 	0.0076178604 	-0.0021496747 	4.6634228e-06 	0.0075107104 	-1.252804e-05 	0.0021567793
0.38043478 	0.0072133556 	-0.0019705644 	3.2012011e-08 	0.0070965248 	-6.8367337e-08 	0.00046366796
0.39130435 	0.0068484307 	-0.0017969335 	6.2877288e-06 	0.0067316716 	-1.5215812e-05 	0.0019402609
0.40217391 	0.0064920974 	-0.0016216497 	6.8934185e-06 	0.0063736067 	-1.6681534e-05 	0.0020050171
0.41304348 	0.0061412901 	-0.0014445393 	-3.2377333e-10 	0.0060198402 	-1.0016612e-08 	0.00098215665
0.42391304 	0.0058371302 	-0.0012763008 	1.5041601e-06 	0.0057182086 	-3.0943697e-06 	0.0017648166
0.43478261 	0.0055827476 	-0.001114688 	9.9712234e-06 	0.0054650383 	-2.0512877e-05 	0.0018090485
0.44565217 	0.0053283651 	-0.00095307523 	1.9482601e-06 	0.0052118679 	-4.0079757e-06 	0.0018532804
0.45652174 	0.0051182664 	-0.00079595657 	-3.8033647e-09 	0.0050004779 	-2.1265836e-08 	0.00039491543
0.4673913 	0.0049669232 	-0.0006531774 	3.31563e-06 	0.0048524011 	-4.875695e-06 	0.0016796517
0.47826087 	0.0048496595 	-0.0005119903 	6.5572471e-06 	0.0047354662 	-9.6425525e-06 	0.0017105233
0.48913043 	0.0047323959 	-0.0003708032 	5.282353e-08 	0.0046185314 	-7.7677974e-08 	0.0017413949
0.5 	0.0046850767 	-0.00023487315 	1.0523091e-08 	0.0045684368 	-3.9038057e-08 	0.00071349155
0.51086957 	0.0046721152 	-0.00010299665 	3.4007408e-06 	0.0045558564 	-2.233963e-06 	0.0017238116
0.52173913 	0.0046837629 	2.8047154e-05 	4.6041971e-06 	0.0045655479 	-3.0245192e-06 	0.0017470924
0.5326087 	0.0047059373 	0.00015856787 	1.1538255e-08 	0.0045847595 	-1.7143134e-08 	0.0013491446
0.54347826 	0.0047791497 	0.00028864788 	1.8389015e-08 	0.0046543576 	-2.7321752e-08 	0.0011834295
0.55434783 	0.0048834315 	0.00042004264 	3.9993604e-06 	0.0047564519 	5.9448465e-07 	0.0019121725
0.56521739 	0.004998752 	0.00055096983 	2.3286225e-06 	0.0048681873 	3.4613793e-07 	0.001931276
0.57608696 	0.0051369582 	0.00068053074 	5.4593685e-08 	0.0049997689 	-3.2154537e-08 	0.00044595615
0.58695652 	0.0053027216 	0.00081353017 	7.8805302e-07 	0.0051647567 	6.0466344e-07 	0.0021854505
0.59782609 	0.0054916313 	0.00094551907 	4.1298575e-06 	0.0053502655 	3.1687892e-06 	0.0022018569
0.60869565 	0.005684662 	0.0010771235 	1.6955403e-08 	0.0055390188 	-2.3887642e-09 	0.0017073776
0.61956522 	0.0059040566 	0.0012100193 	2.0275505e-08 	0.0057556827 	-2.8565173e-09 	0.0018322685
0.63043478 	0.006139651 	0.0013429702 	3.9867456e-06 	0.0059905499 	4.8630463e-06 	0.0025371805
0.64130435 	0.0063777692 	0.0014751158 	7.7327311e-08 	0.0062268601 	9.4324128e-08 	0.0025514135
0.65217391 	0.0066340881 	0.0016061321 	2.5573467e-08 	0.0064803589 	-3.7283746e-09 	0.0015574676
0.66304348 	0.0069008633 	0.001737422 	3.1945163e-06 	0.0067497183 	4.995409e-06 	0.0029026903
0.67391304 	0.0071686853 	0.001866563 	4.555414e-10 	0.0070179068 	-1.2054858e-09 	0.002841472
0.68478261 	0.0074470873 	0.0019934737 	5.7313136e-09 	0.0072968023 	-1.5166607e-08 	0.0022307854
0.69565217 	0.0077285342 	0.002117772 	2.905662e-06 	0.007583121 	5.3636473e-06 	0.0032715216
0.70652174 	0.0080080758 	0.0022383017 	-1.3454604e-08 	0.0078635982 	-5.3931677e-08 	0.001920135
0.7173913 	0.0082934178 	0.0023577001 	3.6966854e-07 	0.0081569041 	7.7462931e-07 	0.0036136116
0.72826087 	0.0085703573 	0.0024695085 	1.1329638e-06 	0.0084399065 	2.3740916e-06 	0.0036221197
0.73913043 	0.0088421247 	0.0025758556 	-7.1402235e-08 	0.0087132183 	-1.9536766e-07 	0.00080494512
0.75 	0.0091104092 	0.0026792637 	1.5348396e-06 	0.0089957226 	3.5865612e-06 	0.0039308927
0.76086957 	0.0093656756 	0.0027742685 	-6.5724802e-08 	0.0092566275 	-1.6974289e-07 	0.0021841098
0.77173913 	0.0096116106 	0.0028637724 	4.1535372e-07 	0.0095166911 	1.0863348e-06 	0.0041958611
0.7826087 	0.0098401913 	0.0029444418 	5.5871062e-08 	0.0097561977 	1.4612769e-07 	0.0042012123
0.79347826 	0.010052655 	0.0030167511 	3.1631153e-08 	0.0099810284 	9.8913636e-08 	0.0044095396
0.80434783 	0.01024065 	0.0030784217 	1.2618486e-07 	0.010181403 	3.9459209e-07 	0.0044136005
0.81521739 	0.010411014 	0.0031320876 	-9.3802191e-09 	0.010364691 	-2.5034227e-08 	0.0043932487
0.82608696 	0.010551695 	0.0031739359 	-6.5484419e-11 	0.010518628 	7.6159303e-08 	0.0045719148
0.83695652 	0.010668656 	0.0032060981 	-6.0501285e-08 	0.010648873 	-1.1287213e-07 	0.0046747274
0.84782609 	0.010755334 	0.0032269057 	-3.1566019e-08 	0.01074701 	-9.0368876e-08 	0.0041718827
0.85869565 	0.010809032 	0.0032357869 	-4.7764538e-07 	0.010813566 	-1.1373509e-06 	0.0047303134
0.86956522 	0.010833927 	0.0032338036 	-2.5908789e-07 	0.010840715 	-7.7289563e-07 	0.00058080982
0.88043478 	0.010823259 	0.0032226073 	-6.7083545e-07 	0.010847276 	-1.7786309e-06 	0.0047409735
0.89130435 	0.010780162 	0.0032005819 	-1.616296e-07 	0.010812842 	-4.6790202e-07 	0.0047113773
0.90217391 	0.010700458 	0.0031677734 	-1.7832925e-07 	0.010731204 	-5.8758323e-07 	0.0015030535
0.91304348 	0.01058263 	0.0031285387 	-6.0875793e-07 	0.01061959 	-1.9829396e-06 	0.0046497698
0.92391304 	0.010428832 	0.0030818174 	-9.672249e-07 	0.010463872 	-3.0791932e-06 	0.0045594172
0.93478261 	0.01023374 	0.0030130707 	-2.3978849e-07 	0.010267702 	-7.8531331e-07 	0.0044573797
0.94565217 	0.0099801982 	0.0029424452 	-8.9462772e-07 	0.010006744 	-3.5176306e-06 	0.0043682397
0.95652174 	0.0096886012 	0.0028721582 	-7.6114098e-08 	0.0096990211 	-3.4354453e-07 	0.0011561966
0.9673913 	0.0093162382 	0.0027924965 	-1.973309e-07 	0.0093231171 	-8.7257046e-07 	0.0040913483
0.97826087 	0.0087567189 	0.0026741046 	-2.2690808e-08 	0.0087548293 	-1.2464605e-07 	0.0010437159
0.98913043 	0.0068705011 	0.0021629819 	-5.5817893e-09 	0.0068487801 	-3.1101045e-08 	0.00066461211
