0.47826087 	0.86782629 	0.00038363753 	-5.7635007e-09
0.48913043 	1.0999807 	0.00021368466 	-3.6241088e-08
0.5 	1.2033991 	0.00039596294 	-6.1079893e-09
0.51086957 	1.2716164 	0.00058736005 	3.8299158e-07
0.52173913 	1.322212 	0.00082233973 	-3.319806e-07
0.5326087 	1.3620023 	0.0010308414 	2.4620834e-07
0.54347826 	1.3940353 	0.0012851332 	1.8483448e-06
0.55434783 	1.4199299 	0.0015401939 	1.1968813e-06
0.56521739 	1.4399606 	0.0017383465 	8.0211581e-07
0.57608696 	1.4538819 	0.0018684271 	5.076574e-07
0.58695652 	1.4620766 	0.0019260464 	-8.7201449e-08
0.59782609 	1.4657733 	0.001930976 	-8.4898731e-08
0.60869565 	1.4665545 	0.0019011325 	-3.8080611e-07
0.61956522 	1.4658632 	0.0018538647 	-8.6098025e-08
0.63043478 	1.4641388 	0.0017903032 	-1.2912765e-06
0.64130435 	1.4617434 	0.0017155635 	-1.239927e-07
0.65217391 	1.458863 	0.0016332073 	-9.1587696e-08
0.66304348 	1.4556096 	0.0015459275 	-1.2718375e-06
0.67391304 	1.4518773 	0.0014508788 	-1.6047741e-07
0.68478261 	1.4479797 	0.0013574037 	-9.7060509e-07
0.69565217 	1.4436421 	0.0012583354 	-5.7904987e-08
0.70652174 	1.4391038 	0.001159686 	-2.4435685e-07
0.7173913 	1.4341746 	0.0010585899 	-2.143673e-08
0.72826087 	1.4291063 	0.00095976458 	-1.8910565e-07
0.73913043 	1.4235951 	0.00085969359 	-3.3569536e-09
0.75 	1.417899 	0.00076164117 	-3.1800275e-07
0.76086957 	1.4117804 	0.00066494934 	1.8459697e-08
0.77173913 	1.4052884 	0.00056858402 	-1.3792287e-09
0.7826087 	1.3984018 	0.00047691525 	1.184572e-08
0.79347826 	1.3910921 	0.00038885816 	6.2599428e-08
0.80434783 	1.3832567 	0.00030526022 	-7.8189081e-07
0.81521739 	1.374972 	0.00022869803 	1.9519276e-07
0.82608696 	1.3659358 	0.000156153 	-1.9680145e-07
0.83695652 	1.3562044 	9.3085541e-05 	-2.0290066e-07
0.84782609 	1.3456799 	3.9051376e-05 	2.5117088e-07
0.85869565 	1.3340524 	-7.3144412e-06 	8.0208965e-08
0.86956522 	1.3212111 	-4.2539058e-05 	-2.4426588e-07
0.88043478 	1.3069742 	-6.7025333e-05 	-8.7510612e-08
0.89130435 	1.2910297 	-8.0643745e-05 	3.4134179e-08
0.90217391 	1.2729326 	-8.344161e-05 	1.1889995e-07
0.91304348 	1.2522189 	-7.6341901e-05 	1.2295513e-07
0.92391304 	1.2282142 	-6.145142e-05 	4.6944336e-08
0.93478261 	1.1999112 	-4.1169033e-05 	1.0477809e-07
0.94565217 	1.1659312 	-1.7186097e-05 	2.0384887e-08
0.95652174 	1.1238374 	-5.133859e-06 	1.4573138e-07
0.9673913 	1.0681048 	2.4400561e-05 	-3.9369397e-10
0.97826087 	0.98620824 	1.8496632e-05 	-8.4284359e-09
0.98913043 	0.82567311 	-3.0024341e-05 	-8.7743242e-07
