0.121376578 	0.1346275793 	0.1043787554 	-0.001479711917
0.123583729 	0.4645888176 	0.3445454797 	-0.004410578788
0.1257894093 	0.7203627304 	0.5007995536 	-0.005017645131
0.1279925952 	0.8202150878 	0.5393434688 	-0.004384991029
0.1301922761 	0.8580537048 	0.5423536675 	-0.003875945923
0.132387455 	0.8796691171 	0.5350353096 	-0.003435189347
0.1357557942 	0.9001207815 	0.5221809065 	-0.002915045246
0.1395413836 	0.9191891219 	0.5067823169 	-0.002433465953
0.1437868381 	0.9372106743 	0.4907068699 	-0.002005577878
0.1485346694 	0.9548728679 	0.4731747165 	-0.001604226636
0.1539572698 	0.9728081603 	0.4542029808 	-0.001228694422
0.1600645007 	0.9912892486 	0.4351189935 	-0.0008913122224
0.1668783649 	1.01002149 	0.416566174 	-0.000598131251
0.1744706299 	1.028598721 	0.3975619869 	-0.0003505927854
0.1830959347 	1.046890575 	0.3778029874 	-0.0001473395668
0.1922476596 	1.06438668 	0.356648505 	-8.654713877e-05
0.1926955792 	1.065000906 	0.3552429152 	-1.090102247e-05
0.2053746929 	1.079046899 	0.3256921314 	-0.0002434382302
0.2189675343 	1.092292348 	0.2972909151 	-0.0003634463071
0.2334990144 	1.103942867 	0.2717044601 	-0.0003904310928
0.2489714712 	1.11409589 	0.2487060192 	-0.0003470477238
0.2654937654 	1.12283839 	0.2279453795 	-0.0002547665249
0.2832036071 	1.130200488 	0.2090843019 	-0.0001109553083
0.3020930082 	1.136222298 	0.1918779643 	1.967821729e-06
0.3222472526 	1.140940585 	0.1760592583 	5.528412927e-05
0.3437457136 	1.14439406 	0.161389179 	6.69711469e-05
0.366723401 	1.14661168 	0.1476768623 	5.210590892e-05
0.3912146542 	1.147605235 	0.1347911377 	2.310266297e-05
0.4093312864 	1.147494198 	0.1263796366 	-0.0002762104051
0.4171316319 	1.147599442 	0.1224429815 	4.445924801e-06
0.444521887 	1.146766314 	0.1104919271 	2.247796071e-05
0.4737879914 	1.144583759 	0.09936945737 	4.175259849e-05
0.5050603485 	1.140988045 	0.08898767387 	5.797875844e-05
0.5384624778 	1.135803674 	0.07920462869 	6.941800228e-05
0.574124097 	1.128928526 	0.07003877327 	7.54390447e-05
0.6096731358 	1.120678955 	0.06181274866 	7.539034466e-05
0.642780273 	1.111582046 	0.05473578936 	7.115157467e-05
0.6736372215 	1.101866315 	0.04866973729 	6.503307492e-05
0.7024167125 	1.091520003 	0.04339955977 	5.820055254e-05
0.7292743072 	1.080463512 	0.03877599374 	5.129972242e-05
0.7543509671 	1.068589381 	0.03468551571 	4.468403265e-05
0.777772227 	1.055797459 	0.03103955707 	3.854414895e-05
0.7996531056 	1.042020565 	0.02776712518 	3.295536525e-05
0.8200980707 	1.027232447 	0.02481021835 	2.793454063e-05
0.8392033992 	1.011440103 	0.02212015066 	2.34691478e-05
0.8570577716 	0.9946686379 	0.01965633912 	1.953107909e-05
0.8737433156 	0.9769439935 	0.01738505798 	1.608262667e-05
0.8893364195 	0.9582726679 	0.01527805118 	1.308240853e-05
0.9039082323 	0.9386146786 	0.01331168659 	1.048846583e-05
0.917525146 	0.9178448062 	0.01146704494 	8.258484197e-06
0.9302491908 	0.8956935475 	0.009730248014 	6.353611157e-06
0.9421383606 	0.8733878609 	0.008197941107 	4.829489591e-06
0.9500106837 	0.8532501793 	0.006984716119 	3.774253104e-06
0.9569817698 	0.834350666 	0.005989958811 	2.974490268e-06
0.9631544511 	0.8147727794 	0.005100129532 	2.315207953e-06
0.9686199044 	0.7941211748 	0.004304377567 	1.770092097e-06
0.9734589462 	0.7718687226 	0.003593675286 	1.318439199e-06
0.9777432055 	0.7472868344 	0.002960111248 	9.442000564e-07
0.9815361564 	0.7193185727 	0.002396303866 	6.357150741e-07
0.9848940386 	0.6863339354 	0.001895202521 	3.850681609e-07
0.9878666762 	0.6456063311 	0.001449942178 	1.892672726e-07
0.9904982048 	0.5954891559 	0.001075960739 	5.686958536e-08
0.9922078258 	0.5364261537 	0.0007798682032 	-1.570980559e-08
0.993917638 	0.4548681057 	0.0005141209927 	-4.594988825e-08
0.9956276413 	0.3317289684 	0.0002550643127 	-4.451008691e-08
0.9973378359 	0.1737899491 	2.265412739e-05 	-5.896545258e-08
0.9990482216 	0.04978485785 	-4.737914585e-05 	-4.476871407e-08
