0.2739420079 	0.08744424454 	0.02216603565 	-0.0001208621016
0.275272557 	0.3374760002 	0.08451611179 	-0.0004485701184
0.2766031854 	0.6280789287 	0.1563859154 	-0.000789165575
0.2779335901 	0.8311994058 	0.2063243145 	-0.0009845174213
0.2792634708 	0.956414848 	0.2365190444 	-0.001071137935
0.2805925299 	1.046003625 	0.2575733147 	-0.001102504294
0.2826362867 	1.119400574 	0.274016533 	-0.001075531484
0.2849408702 	1.173294295 	0.284949018 	-0.001003636506
0.2875370716 	1.209278836 	0.2908319629 	-0.000909063132
0.2904580691 	1.232082808 	0.2928732646 	-0.0008111459031
0.2938196317 	1.245850851 	0.2921254807 	-0.0007156264112
0.2976320779 	1.254040825 	0.2894788164 	-0.0006213156446
0.3019179803 	1.259098618 	0.2855390902 	-0.000525628578
0.3067337774 	1.262322178 	0.2805815 	-0.0004275008388
0.3122569715 	1.264274322 	0.2746916553 	-0.0003256874165
0.3185112727 	1.265213592 	0.2673235114 	-0.0002220930558
0.3279565291 	1.265245787 	0.2578954328 	-9.129703215e-05
0.3358853299 	1.264423598 	0.2497580791 	-0.0001500529094
0.3381259885 	1.264110929 	0.2474681301 	-2.167145758e-05
0.3489508731 	1.261833456 	0.2367327995 	-0.0001114512283
0.3605981766 	1.258874283 	0.2256367912 	-0.0001852393007
0.3731708885 	1.255452129 	0.2143264816 	-0.0002434531982
0.3867969958 	1.25172005 	0.2029243898 	-0.0002874210772
0.4014972221 	1.247702547 	0.1915005422 	-0.0003158876413
0.4173643717 	1.243350839 	0.180085687 	-0.0003286130496
0.4344885207 	1.238597996 	0.1687028067 	-0.0003270206706
0.4530046648 	1.233390315 	0.15738168 	-0.0002469796142
0.4729699124 	1.227687821 	0.1461704204 	-0.0001760188994
0.4944634565 	1.221448786 	0.1351045175 	-0.0001210454225
0.5176484568 	1.214621645 	0.1242034007 	-8.005509403e-05
0.542569778 	1.20714169 	0.1134975594 	-5.091651553e-05
0.5693462178 	1.198912901 	0.103004946 	-3.119140193e-05
0.5980874262 	1.189796546 	0.09271989581 	-1.854855755e-05
0.6289040372 	1.17977764 	0.08282086745 	-1.091416675e-05
0.6597287896 	1.169111721 	0.07375064215 	-6.561044115e-06
0.6885070106 	1.158041667 	0.06574656691 	-4.029329772e-06
0.7153735372 	1.146582945 	0.05871881857 	-2.511398855e-06
0.7404577418 	1.134679881 	0.05252294509 	-1.55023061e-06
0.763881608 	1.12225413 	0.04702508789 	-8.694915876e-07
0.7857594625 	1.109223066 	0.04210865732 	-3.946626725e-07
0.8061955834 	1.095543024 	0.03768253346 	-8.36574343e-08
0.8252873287 	1.081208148 	0.03367258198 	8.677309149e-08
0.8431242394 	1.066237122 	0.0300183569 	1.349571603e-07
0.8597896056 	1.050658655 	0.02667002954 	7.941140927e-08
0.8753606451 	1.034497166 	0.02358674541 	-6.043226209e-08
0.8899091601 	1.017756908 	0.02073482849 	-2.643479015e-07
0.9035021065 	1.000402094 	0.01808634983 	-5.117901632e-07
0.9162019423 	0.9823306543 	0.01561813979 	-7.824603574e-07
0.9280669907 	0.963336482 	0.01331122706 	-1.057883853e-06
0.939151752 	0.9430483818 	0.01115164551 	-1.321146219e-06
0.9495071738 	0.9224358039 	0.009263511379 	-1.534535375e-06
0.9563628554 	0.9035526183 	0.007785214757 	-1.666309513e-06
0.962432965 	0.8855176188 	0.006585424645 	-1.74062152e-06
0.9678072944 	0.8664599964 	0.005522725647 	-1.769296663e-06
0.9725654226 	0.8459130214 	0.004583125985 	-1.750320089e-06
0.9767778614 	0.8232639075 	0.003754978833 	-1.683232469e-06
0.9805070848 	0.7976752288 	0.003028118905 	-1.569946761e-06
0.9838084378 	0.7679448852 	0.002393348458 	-1.414725029e-06
0.9867309446 	0.7322373912 	0.00184199503 	-1.2246711e-06
0.9893180269 	0.6875198145 	0.00136611794 	-1.009599661e-06
0.9916081409 	0.6320621867 	0.0009810261656 	-7.947255337e-07
0.9930959046 	0.5667104532 	0.0006890437955 	-6.034359008e-07
0.9945837944 	0.4776828163 	0.0004401776279 	-4.162481423e-07
0.9960718106 	0.346721996 	0.000208735101 	-2.235458164e-07
0.9975599529 	0.1816056775 	-9.276776825e-06 	-8.238356134e-08
0.9990482216 	0.05219538738 	-6.583444776e-05 	-1.960054855e-08
0.9990482216 	0.05219538738 	-6.583444776e-05 	-1.960054855e-08
