1.218267812e-35 	0.7568196049 	-5.142237571e-14 	9.873335226e-19
0.00190503019 	0.7568319121 	-0.0001294104908 	1.235126472e-07
0.003810043283 	0.756878095 	-0.0002432015014 	2.286284739e-07
0.005715039211 	0.7569645458 	-0.0003570665017 	3.305630561e-07
0.007620017961 	0.7570871551 	-0.0004738688804 	4.319203071e-07
0.009524979574 	0.7572712632 	-0.0006080857388 	5.455539305e-07
0.01245757067 	0.7575735663 	-0.0007799289548 	6.826195707e-07
0.01577085506 	0.7580300438 	-0.0009845540344 	8.374582976e-07
0.01951424692 	0.7586720866 	-0.001215289896 	1.000414171e-06
0.02376371923 	0.759558235 	-0.001475445495 	1.169176384e-06
0.02856971015 	0.7607609819 	-0.001767827996 	1.340236466e-06
0.03399956521 	0.7623707004 	-0.002095184263 	1.508517423e-06
0.04013425608 	0.7645048617 	-0.002460984154 	1.667885169e-06
0.04710020392 	0.7673115173 	-0.002868475079 	1.808889324e-06
0.05497248355 	0.7709686955 	-0.003319488451 	1.921310257e-06
0.06388212204 	0.7761970594 	-0.003863674824 	2.015590028e-06
0.07738804933 	0.7839622464 	-0.004531769928 	1.991653986e-06
0.09190225286 	0.7941963458 	-0.005247933765 	1.868285661e-06
0.1074900975 	0.8066265262 	-0.005950904434 	1.621016521e-06
0.1242359314 	0.821444718 	-0.006622818781 	1.255630469e-06
0.1422279963 	0.8388293657 	-0.007242121183 	7.868921719e-07
0.1615588878 	0.8589345195 	-0.007783391684 	2.401436145e-07
0.1701363888 	0.8684012398 	-0.007962571945 	1.04720152e-05
0.1823260612 	0.8818713933 	-0.00821822941 	3.856846187e-07
0.2046323802 	0.907701052 	-0.008513741192 	1.029231823e-06
0.2285867053 	0.9363817493 	-0.008634882122 	1.601209264e-06
0.254304522 	0.967696053 	-0.00854918471 	2.039138388e-06
0.2819095097 	1.001146925 	-0.008233316286 	2.300132374e-06
0.3115423872 	1.035795465 	-0.007685299306 	2.390279438e-06
0.3433329903 	1.070092345 	-0.006940387777 	2.389457727e-06
0.37743697 	1.101874407 	-0.00607832674 	2.420588745e-06
0.414010442 	1.128723217 	-0.005199103334 	2.541827029e-06
0.4532220137 	1.148633042 	-0.004369881486 	2.684158694e-06
0.4952525067 	1.160365711 	-0.003604599208 	2.743338948e-06
0.5373056793 	1.163915112 	-0.00290052716 	2.688635763e-06
0.5765818555 	1.16090382 	-0.002250817189 	2.558260005e-06
0.6132593029 	1.153170852 	-0.001641777901 	2.384939475e-06
0.6475070436 	1.141905215 	-0.001066648423 	2.176750306e-06
0.679484443 	1.127855155 	-0.0005271914971 	1.932805213e-06
0.7093412355 	1.111542287 	-2.941929047e-05 	1.65157778e-06
0.7372173963 	1.093375567 	0.000418921511 	1.334812974e-06
0.7632441099 	1.073702491 	0.0008097952732 	9.887250928e-07
0.7875439148 	1.052830898 	0.001135787041 	6.238937752e-07
0.8102313055 	1.031036147 	0.001390839613 	2.547033061e-07
0.8314132346 	1.008558681 	0.001570924822 	-1.017060525e-07
0.8511895776 	0.9855940168 	0.001674603101 	-4.269800304e-07
0.8696535944 	0.9622762436 	0.001703371461 	-7.034734115e-07
0.8868923629 	0.9386552229 	0.001661724682 	-9.162197952e-07
0.9029871861 	0.9146652724 	0.001556991885 	-1.054681889e-06
0.9180139737 	0.8900777113 	0.001399035092 	-1.113857567e-06
0.9320435986 	0.8662306535 	0.001214353374 	-1.097165955e-06
0.941327225 	0.84540605 	0.001041359704 	-1.03262462e-06
0.9495440518 	0.8263543383 	0.0008851712646 	-9.449856849e-07
0.9568166671 	0.8070577292 	0.0007371821359 	-8.40306909e-07
0.963253572 	0.7871068454 	0.0006008374717 	-7.264716156e-07
0.9689507996 	0.7659866785 	0.0004783237112 	-6.098806498e-07
0.9739933478 	0.7430129186 	0.0003708266679 	-4.957659052e-07
0.9784564469 	0.7172159171 	0.0002787257796 	-3.883177441e-07
0.9824066826 	0.6871156255 	0.0002017239101 	-2.907677181e-07
0.985902989 	0.650244318 	0.000139158006 	-2.057157777e-07
0.9889975281 	0.6050306364 	9.273972e-05 	-1.390669086e-07
0.9910076668 	0.5515298591 	6.129160619e-05 	-9.232904618e-08
0.9930178055 	0.4754834958 	3.736797037e-05 	-5.644022061e-08
0.9950279442 	0.3517792789 	1.744182462e-05 	-2.653270614e-08
0.9970380829 	0.1836631766 	4.402833935e-06 	-6.848739304e-09
0.9990482216 	0.05254517165 	9.295101949e-08 	-2.139036364e-10
0.9990482216 	0.05254517165 	9.295101949e-08 	-2.139036364e-10
