0.4709558481 	3.561525626e-06 	-4.016156126e-08 	3.705337289e-13 	3.554749115e-06 	-2.348745631e-11 	6.776339805e-09
0.4720092239 	0.0002912694272 	-2.682367237e-05 	2.372189486e-10 	0.0002907148807 	-1.915077484e-09 	5.541833625e-07
0.4730625996 	0.002947280505 	-0.0006010284035 	4.219672658e-09 	0.002941657894 	-1.735682035e-08 	5.607617537e-06
0.4741159754 	0.008746954939 	-0.002186509776 	1.116352309e-08 	0.008730228798 	-4.03650716e-08 	1.664224253e-05
0.4751693511 	0.01421060643 	-0.003788797987 	1.458352609e-08 	0.01418335079 	-5.10924008e-08 	2.703740866e-05
0.4762227269 	0.01774613618 	-0.004791848234 	1.471288088e-08 	0.01771194218 	-5.128565198e-08 	3.376388458e-05
0.4778443634 	0.02004188584 	-0.005397850774 	1.377160885e-08 	0.02000300233 	-4.606526185e-08 	3.813128198e-05
0.4796765386 	0.02124651659 	-0.00565967899 	1.168810297e-08 	0.02120490928 	-3.580166684e-08 	4.042245069e-05
0.4817465869 	0.02184776597 	-0.005797441463 	8.810052038e-09 	0.02180446996 	-2.161253011e-08 	4.156537998e-05
0.4840853915 	0.02209582536 	-0.005851789185 	5.071392752e-09 	0.02205138108 	-3.517425173e-09 	4.20360612e-05
0.4867278453 	0.02211160392 	-0.00585192281 	3.751840061e-10 	0.0220662983 	1.877108408e-08 	4.206449756e-05
0.4897133715 	0.02195792302 	-0.005812349221 	-5.395320455e-09 	0.02191189603 	4.573931227e-08 	4.177016393e-05
0.4930865115 	0.02166885075 	-0.005740527391 	-1.238777727e-08 	0.02162214577 	7.806860381e-08 	4.121781941e-05
0.4968975894 	0.02126297236 	-0.005640157457 	-2.079419619e-08 	0.02121556046 	1.166541579e-07 	4.04427548e-05
0.5012034633 	0.02074992423 	-0.005510459854 	-3.075024019e-08 	0.02070171567 	1.626191256e-07 	3.946322381e-05
0.506068373 	0.0200765953 	-0.005358310047 	-4.419297831e-08 	0.02002731748 	2.226017063e-07 	3.817763342e-05
0.5134203412 	0.01917130866 	-0.005139909905 	-6.247906212e-08 	0.01912061009 	3.042309654e-07 	3.644919713e-05
0.5212948542 	0.01810182958 	-0.004856337855 	-8.45809697e-08 	0.01804949558 	4.032113137e-07 	3.440735518e-05
0.529729052 	0.01695703816 	-0.004556436735 	-1.098437465e-07 	0.01690294148 	5.133448877e-07 	3.222170438e-05
0.5387627144 	0.01575020339 	-0.004235318034 	-1.379560872e-07 	0.01569429453 	6.332439965e-07 	2.991768738e-05
0.5484384488 	0.01449343597 	-0.003892265408 	-1.685881942e-07 	0.01443578371 	7.604226858e-07 	2.751861597e-05
0.5588018907 	0.01320198939 	-0.003526671378 	-2.009641381e-07 	0.01314281845 	8.909339611e-07 	2.505386482e-05
0.5699019192 	0.01189772975 	-0.00313862449 	-2.330233987e-07 	0.01183742506 	1.018678061e-06 	2.256542221e-05
0.5817908876 	0.01061358187 	-0.002727578809 	-2.660760023e-07 	0.01055265078 	1.131700487e-06 	2.011628534e-05
0.5945248701 	0.009397539709 	-0.002291405785 	-3.00544236e-07 	0.009336626879 	1.211923599e-06 	1.779820581e-05
0.6081639266 	0.008309567249 	-0.001831933256 	-3.300405465e-07 	0.008249633437 	1.242301829e-06 	1.57260942e-05
0.6227723857 	0.007413777146 	-0.001359677392 	-3.430573319e-07 	0.007356358261 	1.212366416e-06 	1.402326344e-05
0.638419148 	0.006776892961 	-0.0008806928802 	-3.35465951e-07 	0.006724380232 	1.114987647e-06 	1.281853767e-05
0.6551780116 	0.006449405959 	-0.0003943799138 	-3.132602033e-07 	0.00640473221 	9.598993278e-07 	1.22091997e-05
0.6731280194 	0.006439160614 	9.54264348e-05 	-2.783417497e-07 	0.006404694719 	7.870648443e-07 	1.220912823e-05
0.6923538328 	0.006721101524 	0.0005841412092 	-2.316281501e-07 	0.006697800795 	6.398962032e-07 	1.276786987e-05
0.7129461301 	0.007262508087 	0.001069907964 	-1.774916191e-07 	0.007249758678 	5.400715716e-07 	1.382005501e-05
0.7350020349 	0.008022446292 	0.001545537582 	-1.221625689e-07 	0.008018232332 	4.892608471e-07 	1.528497938e-05
0.7570579485 	0.008925548033 	0.001990653904 	-7.2511517e-08 	0.008926995445 	4.756531334e-07 	1.701733445e-05
0.7776502527 	0.009885690326 	0.002390474498 	-3.267122821e-08 	0.009890079792 	4.811112153e-07 	1.885324089e-05
0.7968760713 	0.01085468109 	0.002747933606 	-2.556985448e-09 	0.01086007175 	4.911630018e-07 	2.070231517e-05
0.814826083 	0.01181129323 	0.003070308636 	1.944240396e-08 	0.0118164717 	4.978628197e-07 	2.252547928e-05
0.831584949 	0.01274150382 	0.003362611127 	3.486793055e-08 	0.0127457657 	4.976514186e-07 	2.429697193e-05
0.8472317127 	0.0136359114 	0.003628474635 	4.514918233e-08 	0.01363887152 	4.89651099e-07 	2.599947985e-05
0.8618401721 	0.01448834383 	0.003870692029 	5.154722495e-08 	0.01448978754 	4.745578234e-07 	2.762156228e-05
0.8754792281 	0.0152950034 	0.004091530858 	5.5133693e-08 	0.01529478279 	4.538681784e-07 	2.915610696e-05
0.8882132094 	0.016053857 	0.004292921408 	5.677923165e-08 	0.01605182684 	4.29353178e-07 	3.059924334e-05
0.9001021759 	0.0167641424 	0.004476563725 	5.715770898e-08 	0.01676012795 	4.027221327e-07 	3.19494621e-05
0.9112022019 	0.01742592538 	0.004643982962 	5.676568897e-08 	0.01741971365 	3.754349846e-07 	3.320681578e-05
0.9215656407 	0.01803965934 	0.004796552218 	5.595262981e-08 	0.01803100634 	3.486262419e-07 	3.437210954e-05
0.9312413717 	0.01860568295 	0.004935495444 	5.495608643e-08 	0.0185943307 	3.231073996e-07 	3.544596235e-05
0.9402750304 	0.01912353094 	0.005061879051 	5.393670909e-08 	0.01910922986 	2.994188427e-07 	3.642750324e-05
0.9487092242 	0.01959077426 	0.005176601269 	5.300906975e-08 	0.01957330325 	2.778991544e-07 	3.731215612e-05
0.9565837329 	0.02000065046 	0.005285186399 	5.23786886e-08 	0.01997984763 	2.58739008e-07 	3.808714269e-05
0.9639356968 	0.02031220256 	0.005349851838 	5.169004844e-08 	0.02028821599 	2.431320398e-07 	3.86749785e-05
0.9688006083 	0.02051045467 	0.005381684181 	5.119863401e-08 	0.02048384295 	2.319675412e-07 	3.904789786e-05
0.9731064834 	0.02063151066 	0.005414251651 	5.121421955e-08 	0.02060274372 	2.238496064e-07 	3.927455576e-05
0.976917562 	0.02068533695 	0.005428723555 	5.131819989e-08 	0.02065468387 	2.175074298e-07 	3.937356813e-05
0.9802907021 	0.02065982584 	0.005425038979 	5.152426188e-08 	0.02062759642 	2.126514007e-07 	3.932193192e-05
0.9832762282 	0.02053434002 	0.005398595194 	5.178510485e-08 	0.02050089036 	2.08989399e-07 	3.908039496e-05
0.9859186816 	0.02027345273 	0.005341172054 	5.204849299e-08 	0.02023920973 	2.061975026e-07 	3.858155894e-05
0.9882574856 	0.01981423127 	0.005237694531 	5.225348105e-08 	0.01977974107 	2.038787633e-07 	3.770568397e-05
0.990327533 	0.01903829857 	0.005058578264 	5.233298971e-08 	0.01900432814 	2.014671205e-07 	3.622753142e-05
0.9921597073 	0.01770565474 	0.004761028323 	5.242238924e-08 	0.01767342344 	1.978662147e-07 	3.369045714e-05
0.9937813429 	0.01537692882 	0.004145120084 	5.094036764e-08 	0.01534851149 	1.896382783e-07 	2.925852879e-05
0.9948347186 	0.01195216536 	0.003163654387 	4.723545138e-08 	0.01192984681 	1.726915026e-07 	2.274160375e-05
0.9958880943 	0.007022063261 	0.001720869993 	3.332273354e-08 	0.007008859856 	1.252880718e-07 	1.33608349e-05
0.9969414701 	0.002227555625 	0.0004315257796 	1.134073497e-08 	0.00222334344 	4.95737066e-08 	4.238310544e-06
0.9979948458 	0.0002129893766 	1.764607149e-05 	5.697161067e-10 	0.0002125847228 	5.189673462e-09 	4.052455666e-07
0.9990482216 	2.850672408e-06 	2.829383398e-08 	9.525752234e-13 	2.845248882e-06 	6.968424482e-11 	5.423835164e-09
0.9990482216 	2.850672408e-06 	2.829383398e-08 	9.525752234e-13 	2.845248882e-06 	6.968424482e-11 	5.423835164e-09
