0.4709558481 	4.009193755e-06 	-4.743205666e-08 	3.313885864e-12 	4.00156307e-06 	-1.986509128e-10 	7.628091389e-09
0.4709558481 	4.009193755e-06 	-4.743205666e-08 	3.313885864e-12 	4.00156307e-06 	-1.986509128e-10 	7.628091389e-09
0.4720092239 	0.0003277177591 	-3.139656573e-05 	2.070505395e-09 	0.00032708893 	-1.616404146e-08 	6.235224103e-07
0.4730625996 	0.003273257377 	-0.0006799290453 	3.493494876e-08 	0.003266820565 	-1.429571083e-07 	6.227467963e-06
0.4741159754 	0.00949700386 	-0.002391147575 	8.901076484e-08 	0.009477811714 	-3.24254024e-07 	1.806734335e-05
0.4751693511 	0.01516105961 	-0.004053227475 	1.134663627e-07 	0.01512936663 	-4.053637656e-07 	2.884077778e-05
0.4762227269 	0.01872484874 	-0.005061017364 	1.14606326e-07 	0.01868373575 	-4.128546276e-07 	3.561639322e-05
0.4778443634 	0.02098064231 	-0.005657800591 	1.096709839e-07 	0.02093134558 	-3.899977481e-07 	3.990096225e-05
0.4796765386 	0.02208901957 	-0.005896140007 	9.830778559e-08 	0.02203257976 	-3.415171221e-07 	4.200022066e-05
0.4817465869 	0.02255516978 	-0.006003241436 	8.350140521e-08 	0.02249176628 	-2.748727657e-07 	4.28755578e-05
0.4840853915 	0.02263011535 	-0.0060183413 	6.459145161e-08 	0.02255939995 	-1.901374864e-07 	4.300448637e-05
0.4867278453 	0.02243144439 	-0.005969199102 	4.082745768e-08 	0.02235280043 	-8.553220698e-08 	4.261065026e-05
0.4897133715 	0.02201663819 	-0.005868600448 	1.133759415e-08 	0.02192933234 	4.158547958e-08 	4.180340239e-05
0.4930865115 	0.0214129507 	-0.005721888404 	-2.49369768e-08 	0.02131624484 	1.944113134e-07 	4.06346872e-05
0.4968975894 	0.0206310318 	-0.005530250142 	-6.921520334e-08 	0.02052429509 	3.763627453e-07 	3.912501087e-05
0.5012034633 	0.01967196556 	-0.005290728094 	-1.225588624e-07 	0.0195548242 	5.905195277e-07 	3.727692991e-05
0.506068373 	0.01842393528 	-0.004990378002 	-1.941393647e-07 	0.01829547605 	8.623153091e-07 	3.487626232e-05
0.5134203412 	0.01675879347 	-0.004571372479 	-2.894230128e-07 	0.01661930518 	1.209031494e-06 	3.168101476e-05
0.5212948542 	0.01481221585 	-0.00405144242 	-3.943797081e-07 	0.01466549106 	1.583279412e-06 	2.795650202e-05
0.529729052 	0.01276609799 	-0.003496049344 	-5.072666443e-07 	0.01261793757 	1.918506622e-06 	2.405329597e-05
0.5387627144 	0.01070788633 	-0.002897000879 	-6.376643101e-07 	0.01056560844 	2.132292383e-06 	2.014098625e-05
0.5484384488 	0.008769807399 	-0.002263581495 	-7.385178187e-07 	0.008642514098 	2.134825208e-06 	1.647503393e-05
0.5588018907 	0.007102090316 	-0.00164585084 	-7.48637725e-07 	0.006999223045 	1.877357441e-06 	1.334246446e-05
0.5699019192 	0.005841651207 	-0.001095894984 	-6.748885458e-07 	0.005770377492 	1.372621507e-06 	1.099994329e-05
0.5817908876 	0.005052291335 	-0.0006433651429 	-5.538663957e-07 	0.005015286364 	7.833103395e-07 	9.560529737e-06
0.5945248701 	0.004676426922 	-0.0002726822459 	-4.494970088e-07 	0.004673274697 	3.07276832e-07 	8.908560442e-06
0.6081639266 	0.004582611869 	4.93885534e-05 	-3.759324485e-07 	0.004611398433 	1.930940869e-08 	8.790607085e-06
0.6227723857 	0.004649073407 	0.0003337168408 	-3.056413991e-07 	0.004706369309 	-1.107626243e-07 	8.97164797e-06
0.638419148 	0.00480565109 	0.0005883451382 	-2.455676986e-07 	0.00488753973 	-1.522982246e-07 	9.317009148e-06
0.6551780116 	0.005020448574 	0.0008222370318 	-1.938853173e-07 	0.005123041324 	-1.439984875e-07 	9.765940639e-06
0.6731280194 	0.005279689979 	0.001041013217 	-1.460331071e-07 	0.005399039689 	-1.030628941e-07 	1.029207023e-05
0.6923538328 	0.005579092755 	0.001248612904 	-9.905952583e-08 	0.005711013669 	-3.717892304e-08 	1.088677935e-05
0.7129461301 	0.005921175082 	0.001448796204 	-5.064818605e-08 	0.006061002414 	5.079748923e-08 	1.155395517e-05
0.7350020349 	0.006308462455 	0.001642769774 	6.095810081e-10 	0.006450820353 	1.594976016e-07 	1.229705651e-05
0.7570579485 	0.006732584065 	0.001826780901 	5.408189315e-08 	0.006871730911 	2.851884469e-07 	1.309942902e-05
0.7776502527 	0.007183229249 	0.001999623923 	1.084120177e-07 	0.007313963483 	4.23567059e-07 	1.394244721e-05
0.7968760713 	0.007663057784 	0.002166543196 	1.631096415e-07 	0.007781016347 	5.736158835e-07 	1.483277978e-05
0.814826083 	0.008181444295 	0.002333787553 	2.175536511e-07 	0.008282950798 	7.349427883e-07 	1.578960635e-05
0.831584949 	0.008747018705 	0.002506148694 	2.703095995e-07 	0.008829098104 	9.047516743e-07 	1.683071491e-05
0.8472317127 	0.009366946301 	0.002687098986 	3.192910379e-07 	0.009427475172 	1.077400818e-06 	1.797138791e-05
0.8618401721 	0.01004611147 	0.002878776255 	3.619664809e-07 	0.01008401395 	1.244445836e-06 	1.92229333e-05
0.8754792281 	0.0107862639 	0.003081915512 	3.956434128e-07 	0.01080166695 	1.395167281e-06 	2.059097938e-05
0.8882132094 	0.01158524064 	0.003295810093 	4.178307391e-07 	0.01157951784 	1.517631931e-06 	2.207377935e-05
0.9001021759 	0.01243641877 	0.0035183652 	4.266420839e-07 	0.01241208695 	1.600269432e-06 	2.366088749e-05
0.9112022019 	0.01332856499 	0.003746280275 	4.211659344e-07 	0.01328903841 	1.633759965e-06 	2.533260071e-05
0.9215656407 	0.01424619023 	0.003975363233 	4.017121286e-07 	0.01419542973 	1.612819028e-06 	2.706043448e-05
0.9312413717 	0.01517036803 	0.004200944406 	3.698597466e-07 	0.01511248039 	1.537376797e-06 	2.880858792e-05
0.9402750304 	0.01607974623 	0.004418329995 	3.282790146e-07 	0.01601859067 	1.412778853e-06 	3.053588596e-05
0.9487092242 	0.01695117516 	0.00462322549 	2.803630694e-07 	0.01689003392 	1.248949055e-06 	3.219709899e-05
0.9565837329 	0.01775885972 	0.004816086513 	2.299525263e-07 	0.0177002277 	1.058820558e-06 	3.374155351e-05
0.9639356968 	0.01842064554 	0.004954286351 	1.827318581e-07 	0.01836584812 	8.707423643e-07 	3.501041103e-05
0.9688006083 	0.0188869627 	0.005041039029 	1.455714793e-07 	0.01883589819 	7.145763653e-07 	3.590645712e-05
0.9731064834 	0.0192166679 	0.005112800421 	1.17338708e-07 	0.01916876595 	5.863825153e-07 	3.654099559e-05
0.976917562 	0.01944577985 	0.005159416529 	9.370087514e-08 	0.01940064531 	4.743985776e-07 	3.698302209e-05
0.9802907021 	0.01956585605 	0.005181673446 	7.430082074e-08 	0.01952307224 	3.786001371e-07 	3.721640185e-05
0.9832762282 	0.0195601994 	0.005176087682 	5.859950298e-08 	0.01951940414 	2.981170705e-07 	3.720940943e-05
0.9859186816 	0.01939730942 	0.005135437313 	4.603898976e-08 	0.01935826343 	2.316285618e-07 	3.690223045e-05
0.9882574856 	0.01901808381 	0.005045546681 	3.60754586e-08 	0.01898074583 	1.77626411e-07 	3.618257698e-05
0.990327533 	0.01830801802 	0.004877580643 	2.824938745e-08 	0.0182726568 	1.346145564e-07 	3.483276248e-05
0.9921597073 	0.0170319705 	0.004588479461 	2.242157679e-08 	0.01699939124 	1.012154562e-07 	3.240556443e-05
0.9937813429 	0.01476050248 	0.003983484341 	1.785481279e-08 	0.01473240391 	7.677628143e-08 	2.808405651e-05
0.9948347186 	0.01140846391 	0.003017913499 	1.403090141e-08 	0.01138678416 	5.842619544e-08 	2.170637539e-05
0.9958880943 	0.006637218485 	0.001620439676 	8.719271953e-09 	0.00662460841 	3.707749048e-08 	1.262834484e-05
0.9969414701 	0.002078138941 	0.0003981283092 	2.656788872e-09 	0.002074189011 	1.339963582e-08 	3.953980745e-06
0.9979948458 	0.0001974691967 	1.599942008e-05 	1.236661517e-10 	0.0001970935809 	1.365267237e-09 	3.757151444e-07
0.9990482216 	2.642315799e-06 	2.555575177e-08 	2.009401433e-13 	2.637288443e-06 	1.833238354e-11 	5.027404768e-09
0.9990482216 	2.642315799e-06 	2.555575177e-08 	2.009401433e-13 	2.637288443e-06 	1.833238354e-11 	5.027404768e-09
