0.4709558481 	0.05849372389 	7.665322819e-08 	-3.571965779e-11
0.4720092239 	0.2238344028 	2.526823507e-06 	-1.207758697e-09
0.4730625996 	0.4340226491 	9.750632486e-06 	-4.649654362e-09
0.4741159754 	0.6021870846 	2.061994067e-05 	-9.797467566e-09
0.4751693511 	0.7169767338 	3.306159629e-05 	-1.567156259e-08
0.4762227269 	0.8029596688 	4.806708371e-05 	-2.276813709e-08
0.4778443634 	0.8782063014 	6.849851239e-05 	-3.246196076e-08
0.4796765386 	0.9413032889 	9.45359587e-05 	-4.48525327e-08
0.4817465869 	0.9938361893 	0.0001256068474 	-5.968192444e-08
0.4840853915 	1.039417752 	0.0001625215402 	-7.734854298e-08
0.4867278453 	1.080179353 	0.0002063286179 	-9.836299818e-08
0.4897133715 	1.117468213 	0.0002582615975 	-1.233185577e-07
0.4930865115 	1.152181115 	0.0003197699022 	-1.528967976e-07
0.4968975894 	1.184936753 	0.0003925348605 	-1.878589601e-07
0.5012034633 	1.216169176 	0.0004785321513 	-2.290397096e-07
0.506068373 	1.248791668 	0.0005898033825 	-2.819323771e-07
0.5134203412 	1.283749032 	0.0007389306937 	-3.515904274e-07
0.5212948542 	1.316938028 	0.0009161288849 	-4.31640228e-07
0.529729052 	1.346411329 	0.001108587701 	-5.139520409e-07
0.5387627144 	1.372602819 	0.00131295343 	-5.960366275e-07
0.5484384488 	1.395718165 	0.00152480077 	-6.726210882e-07
0.5588018907 	1.415613953 	0.001734338287 	-7.263076694e-07
0.5699019192 	1.431616772 	0.001919457581 	-7.280133212e-07
0.5817908876 	1.442902618 	0.002047015587 	-6.613181656e-07
0.5945248701 	1.44933502 	0.002094832713 	-5.554445359e-07
0.6081639266 	1.451807803 	0.002068602821 	-4.55664177e-07
0.6227723857 	1.451584039 	0.001988956392 	-3.767198988e-07
0.638419148 	1.449525553 	0.00187213358 	-3.125379015e-07
0.6551780116 	1.446016001 	0.001726343107 	-2.551081964e-07
0.6731280194 	1.441170645 	0.001555915777 	-1.994681451e-07
0.6923538328 	1.434960342 	0.001363604478 	-1.429558925e-07
0.7129461301 	1.427256452 	0.001151906479 	-8.405731594e-08
0.7350020349 	1.418001971 	0.0009279388036 	-2.253446879e-08
0.7570579485 	1.407525689 	0.0007081935297 	3.95224053e-08
0.7776502527 	1.39631665 	0.0005083753783 	9.955690108e-08
0.7968760713 	1.384552681 	0.0003342136626 	1.565463444e-07
0.814826083 	1.372198832 	0.0001867584395 	2.098224881e-07
0.831584949 	1.359186417 	6.639069831e-05 	2.581318125e-07
0.8472317127 	1.345421556 	-2.71886851e-05 	2.997857268e-07
0.8618401721 	1.33079231 	-9.502712605e-05 	3.328944735e-07
0.8754792281 	1.315174857 	-0.0001389768606 	3.556730961e-07
0.8882132094 	1.29843807 	-0.000161686854 	3.667782312e-07
0.9001021759 	1.28044527 	-0.0001664995879 	3.656087222e-07
0.9112022019 	1.261051471 	-0.0001572502283 	3.524962582e-07
0.9215656407 	1.240094284 	-0.000137993155 	3.287325923e-07
0.9312413717 	1.217376195 	-0.0001127007764 	2.964229782e-07
0.9402750304 	1.192634847 	-8.49831078e-05 	2.582028795e-07
0.9487092242 	1.165495026 	-5.785928029e-05 	2.16887153e-07
0.9565837329 	1.135388769 	-3.362980628e-05 	1.751605962e-07
0.9639356968 	1.103906999 	-1.513463917e-05 	1.38045906e-07
0.9688006083 	1.074576889 	-3.414469192e-06 	1.096792785e-07
0.9731064834 	1.046455307 	3.85901249e-06 	8.775823265e-08
0.976917562 	1.01690481 	8.453399046e-06 	6.945679962e-08
0.9802907021 	0.9855000448 	1.094977093e-05 	5.434706289e-08
0.9832762282 	0.9516454759 	1.185925177e-05 	4.199166048e-08
0.9859186816 	0.9144833826 	1.16225283e-05 	3.19629624e-08
0.9882574856 	0.8727275044 	1.060076305e-05 	2.386874772e-08
0.990327533 	0.8243435616 	9.079324718e-06 	1.736296928e-08
0.9921597073 	0.7658918549 	7.28264666e-06 	1.216466252e-08
0.9937813429 	0.6958238235 	5.496636961e-06 	8.274864571e-09
0.9948347186 	0.6156082649 	3.936306123e-06 	5.541405466e-09
0.9958880943 	0.5100682145 	2.495614873e-06 	3.366070625e-09
0.9969414701 	0.3620466051 	1.179544293e-06 	1.555962408e-09
0.9979948458 	0.184937519 	3.035030826e-07 	4.026279302e-10
0.9990482216 	0.05297973223 	1.111764338e-08 	1.717991028e-11
0.9990482216 	0.05297973223 	1.111764338e-08 	1.717991028e-11
