3.197437928e-34 	0.01503827912 	-1.021323349e-15 	-3.712240051e-22 	6.93630817e-29 	2.521164431e-35 	9.163765408e-42
0.001920179623 	0.01503266406 	-4.882392911e-05 	2.000182103e-08 	0.01614395386 	-3.717738903e-06 	3.077486303e-05
0.003840345101 	0.01503229589 	-0.0001201403968 	6.218041928e-08 	0.01619010545 	-3.691929161e-06 	3.086284079e-05
0.005760496377 	0.01503861958 	-0.0001805603692 	9.299873801e-08 	0.01619915014 	-3.646012336e-06 	3.088008249e-05
0.007680633441 	0.01504230706 	-0.0002404420623 	1.223105344e-07 	0.01620917434 	-3.60075525e-06 	3.08991914e-05
0.009600756325 	0.01504932166 	-0.0003086361833 	1.547855791e-07 	0.01621824453 	-3.555490251e-06 	3.091648171e-05
0.01255669343 	0.01506134981 	-0.0003959310998 	1.941283584e-07 	0.0162322565 	-3.485814401e-06 	3.09431924e-05
0.01589636313 	0.0150801216 	-0.0005001631766 	2.39027239e-07 	0.0162536636 	-3.411106961e-06 	3.09840003e-05
0.01966957619 	0.0151068799 	-0.0006177935754 	2.866506541e-07 	0.01628297097 	-3.330694303e-06 	3.103986828e-05
0.02394927615 	0.0151440207 	-0.0007504250459 	3.362034576e-07 	0.01632252678 	-3.240854777e-06 	3.111527266e-05
0.02878858959 	0.01519470183 	-0.0008995610515 	3.86776782e-07 	0.0163749353 	-3.144489784e-06 	3.121517786e-05
0.03425611113 	0.01526257696 	-0.00106680695 	4.370976484e-07 	0.01644332022 	-3.041556234e-06 	3.134553853e-05
0.04043338076 	0.01535202572 	-0.001253970291 	4.854985345e-07 	0.01653147985 	-2.930840998e-06 	3.151359528e-05
0.04744143031 	0.01546816673 	-0.001463009808 	5.29392869e-07 	0.01664372478 	-2.807152299e-06 	3.172756531e-05
0.05536094352 	0.01561648811 	-0.001695125906 	5.659643772e-07 	0.01678451292 	-2.671452164e-06 	3.199594665e-05
0.06432130776 	0.01582210466 	-0.001975198282 	5.979617162e-07 	0.01697568411 	-2.526224364e-06 	3.236037206e-05
0.0778967341 	0.016112791 	-0.002322152977 	5.991650932e-07 	0.01724041607 	-2.278233037e-06 	3.286502476e-05
0.0924770317 	0.01646918458 	-0.002699530263 	5.740259509e-07 	0.01755769862 	-2.003200055e-06 	3.346985347e-05
0.1081284109 	0.01686057155 	-0.003075246399 	5.138358193e-07 	0.017896355 	-1.682670627e-06 	3.411542666e-05
0.12493365 	0.01726753419 	-0.003440929818 	4.192243434e-07 	0.01823576624 	-1.309300037e-06 	3.476243882e-05
0.1429796724 	0.01766225801 	-0.003785989892 	2.930972818e-07 	0.0185470541 	-8.828759991e-07 	3.535584001e-05
0.1623579926 	0.01800727974 	-0.004097324104 	1.412662713e-07 	0.01879217094 	-4.133381616e-07 	3.582310083e-05
0.179915767 	0.01821610084 	-0.004318139758 	1.617729187e-06 	0.01890296191 	-1.38372567e-05 	3.60342992e-05
0.1831652053 	0.01825481243 	-0.004359036998 	2.746663937e-08 	0.01892350405 	-7.802765603e-08 	3.607345824e-05
0.2055035143 	0.01834678227 	-0.004552215532 	2.012023015e-07 	0.01888433533 	-5.580991673e-07 	3.599879177e-05
0.2294813006 	0.01821568563 	-0.004654710737 	3.570550764e-07 	0.01861028337 	-9.651488567e-07 	3.547637256e-05
0.2552137277 	0.01778883978 	-0.004641790314 	4.717271184e-07 	0.01803415443 	-1.236990746e-06 	3.437811068e-05
0.2828241328 	0.01699632434 	-0.004487499229 	5.205867513e-07 	0.01709443049 	-1.314440798e-06 	3.258673566e-05
0.3124514441 	0.01578733859 	-0.004168287736 	4.841518622e-07 	0.0157517864 	-1.163331361e-06 	3.002728285e-05
0.3442271852 	0.01416047798 	-0.003671019066 	3.614101629e-07 	0.01401830118 	-8.152524576e-07 	2.672277824e-05
0.3783059509 	0.01221444694 	-0.003006514526 	1.870655654e-07 	0.0120045193 	-3.9569506e-07 	2.288395027e-05
0.4148445556 	0.0101924463 	-0.002224652458 	3.731608472e-08 	0.00995675273 	-8.771359374e-08 	1.898033804e-05
0.454012114 	0.008455754295 	-0.00140770051 	-2.069525366e-08 	0.008223518025 	-1.792508543e-08 	1.567631096e-05
0.4959899515 	0.007363119575 	-0.0006253780793 	6.096904526e-09 	0.007139294467 	-1.083950549e-07 	1.360947952e-05
0.5379865561 	0.00707141923 	9.114704262e-05 	6.613549764e-08 	0.006844505206 	-1.549278297e-07 	1.304752925e-05
0.577207568 	0.007435481135 	0.0007383253781 	1.133770887e-07 	0.007195757531 	-9.127834028e-08 	1.371711381e-05
0.6138321997 	0.00820928826 	0.001323550525 	1.209443854e-07 	0.007956533736 	1.018414654e-09 	1.516736471e-05
0.6480299089 	0.009201842265 	0.001851446835 	8.487686489e-08 	0.00894304828 	3.713757451e-08 	1.704793561e-05
0.6799601987 	0.01028031357 	0.002320988445 	1.324452021e-08 	0.01002578735 	-2.417248479e-08 	1.911193721e-05
0.7097727691 	0.01135102323 	0.002729125126 	-8.292041376e-08 	0.01111174279 	-1.891191333e-07 	2.118207011e-05
0.7376075325 	0.01234564696 	0.003072630237 	-1.923712177e-07 	0.01213169147 	-4.415309141e-07 	2.312637577e-05
0.7635955286 	0.01321527043 	0.003349537673 	-3.044391766e-07 	0.01303483957 	-7.521352962e-07 	2.484802707e-05
0.787859151 	0.01392805694 	0.003559898226 	-4.094325597e-07 	0.01378682851 	-1.085999323e-06 	2.628152698e-05
0.8105127434 	0.01446753557 	0.003706040496 	-4.990474454e-07 	0.01436827169 	-1.408586776e-06 	2.738991929e-05
0.831663108 	0.01483039743 	0.003792497006 	-5.668182923e-07 	0.01477279378 	-1.690214386e-06 	2.816105082e-05
0.8514099765 	0.01502365746 	0.003825687225 	-6.084809948e-07 	0.01500444581 	-1.908707352e-06 	2.860264399e-05
0.8698464725 	0.01506144658 	0.003813448921 	-6.221186185e-07 	0.01507474557 	-2.050236178e-06 	2.873665486e-05
0.8870595453 	0.01496179506 	0.003764511941 	-6.080515777e-07 	0.01499967982 	-2.108608466e-06 	2.859355868e-05
0.9031303776 	0.01474367416 	0.003688005715 	-5.685234183e-07 	0.0147969118 	-2.083529372e-06 	2.820702648e-05
0.9181347659 	0.01442428163 	0.003595626132 	-5.070455449e-07 	0.01448321351 	-1.978472161e-06 	2.760903035e-05
0.9321434779 	0.01404525052 	0.003485264076 	-4.351221079e-07 	0.01410129917 	-1.813694486e-06 	2.688099548e-05
0.9414132658 	0.01368008156 	0.003384307318 	-3.676548375e-07 	0.01372845531 	-1.631938964e-06 	2.617025144e-05
0.9496178443 	0.01333880091 	0.003307293136 	-3.061849268e-07 	0.01337768646 	-1.446600873e-06 	2.550158853e-05
0.9568796188 	0.01299660682 	0.003234558923 	-2.483834224e-07 	0.01302509169 	-1.251330051e-06 	2.48294449e-05
0.9633069287 	0.01265453823 	0.00316670591 	-1.956594981e-07 	0.01267273397 	-1.052366348e-06 	2.415775316e-05
0.9689956638 	0.01230937312 	0.003101830868 	-1.489345849e-07 	0.01231812011 	-8.553534428e-07 	2.348176058e-05
0.9740306954 	0.01195170445 	0.003036483645 	-1.086268212e-07 	0.01195232308 	-6.657118378e-07 	2.278444977e-05
0.9784871417 	0.01156143533 	0.002964754546 	-7.47497764e-08 	0.01155551533 	-4.888355813e-07 	2.20280239e-05
0.982431489 	0.01109705849 	0.002875813135 	-4.70245311e-08 	0.01108630744 	-3.301461751e-07 	2.113358327e-05
0.9859225838 	0.01046772095 	0.00276153506 	-2.538759637e-08 	0.01045392248 	-1.950971613e-07 	1.992808176e-05
0.98901251 	0.009466148067 	0.002518675489 	-9.530151102e-09 	0.009451384057 	-9.540926695e-08 	1.801696489e-05
0.9910196523 	0.007976746904 	0.002126249624 	7.066458857e-10 	0.00796312921 	-3.248799687e-08 	1.517993751e-05
0.9930267946 	0.005340794812 	0.001373627897 	5.52828839e-09 	0.005331225665 	2.419948215e-09 	1.016279786e-05
0.9950339369 	0.001938629311 	0.0004333244781 	3.572677765e-09 	0.001935050509 	7.439525138e-09 	3.68874409e-06
0.9970410793 	0.0001573928687 	1.615931705e-05 	2.212663838e-10 	0.0001570954671 	8.72634944e-10 	2.994676228e-07
0.9990482216 	1.124552931e-06 	1.089274305e-08 	1.998375769e-13 	1.122413745e-06 	8.235845905e-12 	2.139632556e-09
0.9990482216 	1.124552931e-06 	1.089274305e-08 	1.998375769e-13 	1.122413745e-06 	8.235845905e-12 	2.139632556e-09
