0.4709558481 	3.881560376e-06 	-4.532040843e-08 	3.075690644e-12 	3.874173272e-06 	-1.869972546e-10 	7.385251027e-09
0.4720092239 	0.0003173296855 	-3.007501881e-05 	1.928749794e-09 	0.0003167221271 	-1.521971894e-08 	6.037604026e-07
0.4730625996 	0.003181085329 	-0.0006575030283 	3.295686592e-08 	0.003174881975 	-1.354249059e-07 	6.052207457e-06
0.4741159754 	0.009287038001 	-0.002333748783 	8.481752221e-08 	0.009268550361 	-3.095500155e-07 	1.766843305e-05
0.4751693511 	0.01489734012 	-0.003979797699 	1.089766035e-07 	0.01486691257 	-3.89784771e-07 	2.834046741e-05
0.4762227269 	0.01845490377 	-0.004986682815 	1.106284032e-07 	0.01841576362 	-3.992457706e-07 	3.510556385e-05
0.4778443634 	0.02072364742 	-0.005586460653 	1.065561117e-07 	0.02067731724 	-3.801827854e-07 	3.941671362e-05
0.4796765386 	0.02186103494 	-0.005831882699 	9.654986714e-08 	0.0218088113 	-3.374122462e-07 	4.157365578e-05
0.4817465869 	0.0223674351 	-0.005948211697 	8.351325001e-08 	0.02230972677 	-2.78130045e-07 	4.252853989e-05
0.4840853915 	0.02249374707 	-0.005975099347 	6.684715873e-08 	0.02243043496 	-2.026188799e-07 	4.275864325e-05
0.4867278453 	0.02235861473 	-0.005940759799 	4.592451124e-08 	0.0222893011 	-1.094656274e-07 	4.248960289e-05
0.4897133715 	0.02202113668 	-0.005858508462 	2.000975139e-08 	0.02194527749 	3.530375839e-09 	4.183379826e-05
0.4930865115 	0.02151056812 	-0.005734332491 	-1.17932614e-08 	0.02142755783 	1.391076063e-07 	4.08468807e-05
0.4968975894 	0.0208397798 	-0.005570166027 	-5.053339347e-08 	0.02074902487 	3.003432051e-07 	3.955340829e-05
0.5012034633 	0.02001202708 	-0.005363706017 	-9.713651479e-08 	0.01991304006 	4.903490384e-07 	3.79597889e-05
0.506068373 	0.01893182083 	-0.005107740948 	-1.598110667e-07 	0.01882347687 	7.329619991e-07 	3.588277862e-05
0.5134203412 	0.01748403137 	-0.004748094497 	-2.441640667e-07 	0.01736573844 	1.048502715e-06 	3.310392403e-05
0.5212948542 	0.01577849163 	-0.004295795394 	-3.427908897e-07 	0.0156521802 	1.4030712e-06 	2.983740576e-05
0.529729052 	0.0139614791 	-0.00381000241 	-4.436836315e-07 	0.01383085382 	1.752277768e-06 	2.636545148e-05
0.5387627144 	0.01207921022 	-0.003291190566 	-5.538669186e-07 	0.01194885683 	2.054291147e-06 	2.277784213e-05
0.5484384488 	0.01020622 	-0.002734527965 	-6.782679423e-07 	0.01008186711 	2.232168777e-06 	1.921884082e-05
0.5588018907 	0.008453239698 	-0.002149278182 	-7.713270948e-07 	0.00834200664 	2.213301996e-06 	1.59021832e-05
0.5699019192 	0.006943854139 	-0.001575182739 	-7.851983291e-07 	0.006853435601 	1.95663139e-06 	1.306455307e-05
0.5817908876 	0.005794116109 	-0.001053226381 	-7.18968655e-07 	0.005730982461 	1.467601329e-06 	1.092484541e-05
0.5945248701 	0.005064378348 	-0.0006105854395 	-6.087007102e-07 	0.005031590779 	8.830405465e-07 	9.591610482e-06
0.6081639266 	0.004719303126 	-0.0002354607583 	-5.095037763e-07 	0.004717181898 	3.913022488e-07 	8.99225977e-06
0.6227723857 	0.004653521343 	9.929861518e-05 	-4.259426484e-07 	0.004680690712 	8.589665382e-08 	8.922697428e-06
0.638419148 	0.004757146398 	0.0004002447566 	-3.420868002e-07 	0.004810470095 	-5.290078306e-08 	9.170093003e-06
0.6551780116 	0.004964265009 	0.0006743850581 	-2.668906595e-07 	0.005039835588 	-9.075933062e-08 	9.60732738e-06
0.6731280194 	0.005245026867 	0.0009304486401 	-1.975404293e-07 	0.005338639355 	-6.575084008e-08 	1.017693041e-05
0.6923538328 	0.005588262404 	0.001174792678 	-1.293775504e-07 	0.005695409239 	5.495080735e-09 	1.085703297e-05
0.7129461301 	0.005994194886 	0.00141296544 	-5.899360377e-08 	0.006109866178 	1.175003274e-07 	1.164710308e-05
0.7350020349 	0.006464389645 	0.001647017324 	1.469200863e-08 	0.006582814195 	2.677758431e-07 	1.254867345e-05
0.7570579485 	0.006986879109 	0.001872235747 	8.898440279e-08 	0.007101925289 	4.477398766e-07 	1.353824348e-05
0.7776502527 	0.007546040649 	0.002085889192 	1.602746811e-07 	0.007652285806 	6.443010745e-07 	1.458738359e-05
0.7968760713 	0.008141226464 	0.002292525548 	2.268677858e-07 	0.008234398389 	8.480509151e-07 	1.569705196e-05
0.814826083 	0.00877913838 	0.002497767338 	2.875406449e-07 	0.008856037911 	1.051632759e-06 	1.688206967e-05
0.831584949 	0.009464355967 	0.002705319138 	3.405454922e-07 	0.009522878319 	1.246357846e-06 	1.815325282e-05
0.8472317127 	0.01019859048 	0.002917240255 	3.838621331e-07 	0.01023778959 	1.422320222e-06 	1.951607241e-05
0.8618401721 	0.0109801881 	0.003134102937 	4.155196568e-07 	0.01100029475 	1.569068079e-06 	2.096961917e-05
0.8754792281 	0.01180388778 	0.003355143419 	4.339623712e-07 	0.01180623186 	1.676730652e-06 	2.250595929e-05
0.8882132094 	0.01266089487 	0.003578467707 	4.383893882e-07 	0.01264771794 	1.737403452e-06 	2.411006565e-05
0.9001021759 	0.01353931655 	0.003801333535 	4.289876531e-07 	0.01351349463 	1.746471695e-06 	2.576047664e-05
0.9112022019 	0.01442493317 	0.00402049398 	4.06997626e-07 	0.01438965119 	1.703504242e-06 	2.743067456e-05
0.9215656407 	0.01530217557 	0.004232562712 	3.74592501e-07 	0.01526060188 	1.612442722e-06 	2.909094864e-05
0.9312413717 	0.0161550742 	0.004434350168 	3.346010519e-07 	0.01611007733 	1.481022734e-06 	3.071028496e-05
0.9402750304 	0.01696785561 	0.004623125431 	2.90142809e-07 	0.01692179114 	1.319602496e-06 	3.225763708e-05
0.9487092242 	0.01772473056 	0.004796778949 	2.442587294e-07 	0.0176793155 	1.139729772e-06 	3.370168906e-05
0.9565837329 	0.018408032 	0.004958051886 	1.998713959e-07 	0.01836432661 	9.5281729e-07 	3.500751062e-05
0.9639356968 	0.01895226907 	0.005067426107 	1.605420552e-07 	0.01891060497 	7.816081002e-07 	3.604886901e-05
0.9688006083 	0.01932396408 	0.005131908901 	1.307884093e-07 	0.01928399903 	6.467569614e-07 	3.676066186e-05
0.9731064834 	0.01957749236 	0.005187022047 	1.089744446e-07 	0.01953876398 	5.397272417e-07 	3.724631466e-05
0.976917562 	0.01974095881 	0.005219793569 	9.09678802e-08 	0.01970316744 	4.484302629e-07 	3.755971335e-05
0.9802907021 	0.0198054219 	0.005230739151 	7.632849146e-08 	0.01976833201 	3.716668418e-07 	3.768393514e-05
0.9832762282 	0.01975334485 	0.005216013533 	6.451554159e-08 	0.0197168178 	3.079252609e-07 	3.758573472e-05
0.9859186816 	0.01955223863 	0.00516804375 	5.503571877e-08 	0.01951627141 	2.555991062e-07 	3.720343756e-05
0.9882574856 	0.01914198223 	0.005072325074 	4.744417574e-08 	0.01910676168 	2.131048252e-07 	3.642279821e-05
0.990327533 	0.01840710165 	0.004899749414 	4.137815069e-08 	0.01837310345 	1.789407597e-07 	3.502424171e-05
0.9921597073 	0.01711153679 	0.004607197438 	3.680649979e-08 	0.01707974729 	1.515923204e-07 	3.25587454e-05
0.9937813429 	0.014825122 	0.003999321379 	3.260670169e-08 	0.0147974102 	1.293110872e-07 	2.820797657e-05
0.9948347186 	0.01146061386 	0.003031065008 	2.812976929e-08 	0.01143907728 	1.084065937e-07 	2.180606062e-05
0.9958880943 	0.006671830572 	0.001628965121 	1.873887885e-08 	0.006659240862 	7.394266735e-08 	1.269436392e-05
0.9969414701 	0.002091017996 	0.0004008194768 	6.045117471e-09 	0.002087057222 	2.798330529e-08 	3.978511133e-06
0.9979948458 	0.0001987909876 	1.612747882e-05 	2.914948453e-10 	0.0001984131585 	2.881994559e-09 	3.782306262e-07
0.9990482216 	2.660064915e-06 	2.57658129e-08 	4.808029592e-13 	2.655003946e-06 	3.868727468e-11 	5.061175442e-09
0.9990482216 	2.660064915e-06 	2.57658129e-08 	4.808029592e-13 	2.655003946e-06 	3.868727468e-11 	5.061175442e-09
