2.3823985e-19 	1.798306e-06 	-1.221107e-19 	-1.4293381e-25 	1.7249011e-22 	-7.0733908e-25 	5.1617903e-22
0.011627907 	2.0983115e-08 	-1.1680932e-10 	1.6568259e-13 	2.0344148e-08 	-1.5182312e-11 	3.8781615e-11
0.023255814 	9.6053899e-10 	-1.4330047e-12 	5.2715472e-14 	9.5147886e-10 	-2.9762131e-11 	1.8138075e-12
0.034883721 	7.5775209e-12 	-1.4299839e-15 	6.6786639e-18 	7.5573423e-12 	-2.2802962e-14 	1.4455223e-14
0.046511628 	1.9177092e-13 	-5.6355586e-17 	1.4081107e-18 	1.9135411e-13 	-7.8104415e-15 	7.380319e-16
0.058139535 	1.0107133e-13 	-3.5607559e-17 	7.4593192e-19 	1.0090811e-13 	-1.8014879e-15 	2.0408066e-14
0.069767442 	1.1109163e-13 	-2.9544566e-18 	2.4621674e-20 	1.1096489e-13 	-1.107924e-15 	4.4520189e-14
0.081395349 	1.2253842e-13 	-3.0385755e-18 	-1.9646431e-20 	1.2239381e-13 	-1.2378216e-15 	4.4878216e-14
0.093023256 	1.4057883e-13 	-3.4539455e-18 	-1.8924806e-20 	1.4037356e-13 	-1.601766e-15 	3.0676194e-14
0.10465116 	1.6551869e-13 	-8.6284992e-19 	-2.5782629e-21 	1.6522862e-13 	-1.7796573e-15 	1.295223e-14
0.11627907 	2.0621515e-13 	-2.2415954e-19 	2.116111e-21 	2.0601581e-13 	9.6018471e-17 	1.0154555e-13
0.12790698 	2.4680826e-13 	-1.8706659e-18 	-7.1418583e-20 	2.4650798e-13 	5.286261e-16 	8.8289052e-14
0.13953488 	2.7724199e-13 	-7.5456052e-18 	-3.7642628e-20 	2.7678503e-13 	2.786231e-16 	3.340726e-14
0.15116279 	3.10332e-13 	-1.8956582e-17 	-3.4013594e-19 	3.0979472e-13 	6.9191898e-16 	1.8847612e-14
0.1627907 	3.4929946e-13 	-3.9288221e-17 	-7.2531393e-20 	3.488019e-13 	4.1712079e-18 	6.8479654e-14
0.1744186 	3.7048373e-13 	-7.3897184e-17 	-1.2357336e-19 	3.7007054e-13 	7.1066097e-18 	1.1585479e-13
0.18604651 	4.087128e-13 	-1.4329258e-16 	2.06854e-19 	4.0845171e-13 	-2.0918826e-16 	1.9767386e-13
0.19767442 	3.8320863e-13 	-5.7822178e-17 	1.4244662e-19 	3.8260714e-13 	-9.9391667e-16 	3.731341e-14
0.20930233 	3.8774844e-13 	-1.362364e-17 	7.3313757e-20 	3.8752719e-13 	-2.8758656e-17 	2.6477471e-13
0.22093023 	3.9927283e-13 	-6.644757e-18 	-1.1558078e-20 	3.9885679e-13 	-6.5310927e-16 	1.7724299e-13
0.23255814 	5.8046022e-13 	-4.4925439e-18 	-4.9089421e-21 	5.7971448e-13 	3.445231e-16 	1.8683764e-13
0.24418605 	6.8257546e-13 	-1.5729835e-18 	-2.8561174e-21 	6.820435e-13 	2.0091152e-16 	4.0257978e-13
0.25581395 	1.1291903e-12 	-7.5413084e-19 	-1.3826288e-21 	1.1274229e-12 	3.2214223e-15 	2.0158291e-13
0.26744186 	1.1921507e-12 	-8.6939064e-19 	-1.3526044e-22 	1.1912692e-12 	3.1796522e-16 	7.2923824e-13
0.27906977 	1.3380709e-12 	-4.9132328e-19 	-3.9853533e-22 	1.3360968e-12 	1.8070111e-15 	3.0223147e-13
0.29069767 	1.0943443e-12 	-1.6443919e-19 	-2.0073298e-22 	1.0930122e-12 	-1.4216457e-15 	3.9543919e-13
0.30232558 	9.8676997e-13 	-2.6495328e-19 	-3.6396449e-22 	9.8540483e-13 	2.4348178e-16 	2.7034717e-13
0.31395349 	1.0918801e-12 	-8.4996735e-19 	-1.6682788e-20 	1.0903914e-12 	8.9073324e-16 	3.1004466e-13
0.3255814 	1.260606e-12 	-2.8545255e-18 	-2.4294136e-20 	1.2586474e-12 	1.297119e-15 	2.2985795e-13
0.3372093 	1.4195552e-12 	-9.069127e-18 	-1.9506728e-19 	1.4172802e-12 	-1.3192675e-16 	2.1468877e-13
0.34883721 	1.4613746e-12 	-3.6202702e-17 	-8.648359e-19 	1.4588977e-12 	-5.8490087e-16 	1.1138923e-13
0.36046512 	1.4921898e-12 	-6.2411892e-17 	-1.2521995e-21 	1.4895362e-12 	-6.3659693e-16 	1.1856544e-14
0.37209302 	1.0799653e-12 	-7.2560826e-17 	-3.3458209e-20 	1.0781528e-12 	-1.7008943e-14 	2.5705495e-14
0.38372093 	6.6792632e-13 	-8.3149995e-17 	-5.5520239e-21 	6.6697602e-13 	-2.8203679e-15 	5.0134494e-14
0.39534884 	4.1751932e-13 	-4.5211152e-17 	4.6012406e-19 	4.168388e-13 	-4.6370161e-15 	8.2396604e-16
0.40697674 	1.6503238e-13 	-2.0037554e-17 	5.3320014e-19 	1.6476433e-13 	-5.3734586e-15 	3.523872e-16
0.41860465 	4.4934595e-14 	-8.4036647e-18 	5.0770663e-20 	4.4862779e-14 	-2.7143189e-16 	1.0273315e-16
0.43023256 	2.2272417e-14 	-4.1611022e-18 	1.2217988e-19 	2.2236936e-14 	-6.5233642e-16 	9.7004369e-17
0.44186047 	1.4799382e-16 	-2.3610053e-20 	-3.8102486e-24 	1.4796973e-16 	-3.274094e-21 	5.9978822e-17
0.45348837 	1.4793405e-16 	-4.3722227e-20 	-3.0665477e-23 	1.4811003e-16 	-2.6348735e-20 	4.9320855e-17
0.46511628 	1.2033515e-07 	-7.4312487e-09 	-2.7264799e-10 	2.2406539e-07 	8.2208228e-09 	4.2713099e-10
0.47674419 	3.8602547e-07 	-1.5824568e-08 	2.3201503e-10 	7.3183623e-07 	4.1246586e-09 	1.3950833e-09
0.48837209 	8.5722428e-07 	-3.401274e-08 	1.489864e-10 	1.6387728e-06 	2.6486086e-09 	4.6705667e-07
0.5 	1.8907205e-06 	-6.9844558e-09 	1.0534743e-09 	3.471484e-06 	4.5553663e-08 	7.0969912e-07
0.51162791 	3.7367533e-06 	2.8871732e-07 	9.1145917e-09 	8.4065304e-06 	8.5858618e-08 	3.3534949e-07
0.52325581 	6.9271096e-06 	4.9906355e-07 	7.8190241e-09 	1.4751889e-05 	7.3654541e-08 	3.5170636e-06
0.53488372 	1.5606298e-05 	1.0510704e-06 	2.4068966e-08 	2.7868795e-05 	4.3261692e-07 	6.8375443e-06
0.54651163 	3.8494598e-05 	3.1379832e-06 	1.6062766e-08 	6.2497579e-05 	2.1459101e-07 	4.0940629e-06
0.55813953 	7.074023e-05 	6.7856741e-06 	2.6942559e-08 	0.00011522817 	3.5993993e-07 	2.3952845e-05
0.56976744 	0.00010673699 	1.1020739e-05 	4.7023899e-09 	0.00017586879 	3.5369876e-07 	8.2757226e-05
0.58139535 	0.00018266657 	1.0623766e-05 	8.4806551e-09 	0.00024505625 	2.2866114e-07 	6.0025054e-05
0.59302326 	0.0002888074 	7.8170387e-06 	2.6158065e-08 	0.0003276847 	7.0529015e-07 	4.2102111e-05
0.60465116 	0.00040495598 	6.7155396e-06 	1.2481997e-09 	0.00043309928 	3.3654735e-08 	0.00034299312
0.61627907 	0.00055055121 	8.5543645e-06 	2.3212007e-08 	0.00057933811 	2.5284901e-07 	0.00026178988
0.62790698 	0.00072263022 	1.2643295e-05 	7.3176335e-08 	0.00076047369 	7.971118e-07 	0.00010628953
0.63953488 	0.00091784971 	1.6862743e-05 	1.7457938e-08 	0.00096636426 	2.0478057e-07 	0.00078713717
0.65116279 	0.0010876573 	4.2855027e-05 	1.1573832e-07 	0.0011839437 	1.9125628e-07 	0.00044956873
0.6627907 	0.0012537993 	7.9826235e-05 	1.7391632e-07 	0.0014207231 	2.8739479e-07 	0.00041435064
0.6744186 	0.0014022087 	0.0001435731 	9.0794915e-07 	0.0016717063 	1.6726284e-06 	0.001172246
0.68604651 	0.0013846083 	0.00032035248 	-2.2859146e-07 	0.0018858599 	-3.226399e-07 	0.00025516852
0.69767442 	0.0013406445 	0.00051641122 	-5.702158e-08 	0.0021205651 	-8.0481723e-08 	0.00093978046
0.70930233 	0.0013354703 	0.00061511257 	-3.1023115e-07 	0.0022125693 	-2.2697732e-07 	0.00078450604
0.72093023 	0.001351131 	0.00063145047 	-5.616068e-07 	0.0021939924 	-4.1089365e-07 	0.00048089289
0.73255814 	0.0013574948 	0.00064402939 	5.2848076e-10 	0.0021792446 	-6.9119125e-08 	0.0011681424
0.74418605 	0.0013602837 	0.0006509104 	-8.5373234e-07 	0.0021365599 	-4.5343256e-07 	0.0001514016
0.75581395 	0.0013515585 	0.0006473957 	-2.7628934e-07 	0.00209967 	-8.0104336e-07 	0.0011394599
0.76744186 	0.0013591423 	0.0006154121 	-5.5856125e-07 	0.0020219831 	-2.7647516e-07 	8.5033104e-06
0.77906977 	0.0013545915 	0.00057851955 	-4.4201745e-07 	0.0019485027 	-1.0957911e-06 	0.0010995397
0.79069767 	0.0013466779 	0.0005640606 	2.6213887e-08 	0.0018781272 	-1.0268618e-07 	4.8276927e-05
0.80232558 	0.0013264116 	0.00055771835 	-5.4629583e-08 	0.0018149503 	-6.0800006e-07 	0.0010373686
0.81395349 	0.0013069353 	0.00057439299 	1.7726688e-07 	0.0017538262 	-7.4700359e-08 	0.0003131016
0.8255814 	0.0012793081 	0.00059471985 	7.3500399e-09 	0.0016971704 	-1.7691264e-08 	0.00087859126
0.8372093 	0.0012541176 	0.00061119207 	9.8389496e-09 	0.0016371774 	-2.3681974e-08 	0.00079882872
0.84883721 	0.0012295696 	0.00061058952 	-1.8283269e-07 	0.0015742614 	-1.8567296e-07 	0.00023535796
0.86046512 	0.0011991627 	0.00059970182 	-1.289535e-07 	0.0015087386 	-5.9173805e-07 	0.00083974334
0.87209302 	0.0011679793 	0.00058315072 	-5.4647829e-08 	0.0014397304 	-4.1627555e-08 	0.00064686888
0.88372093 	0.0011338971 	0.00056340068 	-2.2904393e-07 	0.0013680938 	-1.9513846e-07 	7.5824105e-05
0.89534884 	0.0010922967 	0.0005408825 	-1.7902278e-08 	0.0012932385 	-1.6865299e-08 	0.00064250846
0.90697674 	0.0010503035 	0.00051691377 	-3.0858958e-07 	0.001215139 	-9.0603984e-07 	0.00065016762
0.91860465 	0.0010079631 	0.00049217067 	-1.3695802e-07 	0.0011366057 	-3.9447358e-07 	0.00059636123
0.93023256 	0.0009677021 	0.00046807131 	-4.8677634e-09 	0.0010618664 	-5.2206196e-09 	0.00051809635
0.94186047 	0.00093269971 	0.00044666956 	-2.4728235e-08 	0.00099695308 	-6.7441709e-08 	0.00051199898
0.95348837 	0.00088439175 	0.00041942789 	-2.5420643e-09 	0.00092307657 	-3.6948994e-11 	0.00038498352
0.96511628 	0.00080558442 	0.00037973545 	-1.2928881e-07 	0.00082912252 	-2.9339208e-07 	0.0004185754
0.97674419 	0.00060950417 	0.00028627024 	-7.538036e-08 	0.00062227801 	-1.5167004e-07 	2.7896533e-06
0.98837209 	0.00012295894 	5.7612318e-05 	-2.6325904e-07 	0.00012490461 	-5.7120449e-07 	4.8535006e-05
