0.27835052 	0.78325835 	0.19463509 	-0.00022093458
0.28865979 	1.2828187 	0.30805682 	-1.7736612e-05
0.29896907 	1.2758479 	0.293042 	-3.0573484e-05
0.30927835 	1.271565 	0.27962623 	-0.0001210638
0.31958763 	1.2689385 	0.26683125 	-5.2291949e-06
0.32989691 	1.2669069 	0.25594464 	-0.00010692724
0.34020619 	1.2647668 	0.24519674 	-0.00012048315
0.35051546 	1.2626076 	0.23504731 	-3.6318503e-05
0.36082474 	1.2602132 	0.22528627 	-0.00016449486
0.37113402 	1.2581878 	0.21619168 	-4.0177556e-05
0.3814433 	1.2559519 	0.20771512 	-0.00011006471
0.39175258 	1.2535416 	0.19970898 	-2.8622845e-05
0.40206186 	1.2506649 	0.19149352 	-0.00028967374
0.41237113 	1.2485688 	0.18444513 	-6.0188916e-05
0.42268041 	1.2458783 	0.17748851 	-0.00010214534
0.43298969 	1.2429468 	0.1703755 	-0.00026795285
0.44329897 	1.2406762 	0.16460937 	-9.53116e-06
0.45360825 	1.2373729 	0.1577539 	-0.00023461796
0.46391753 	1.2349169 	0.15260333 	-2.7085126e-05
0.4742268 	1.2316767 	0.14635581 	-0.00015221135
0.48453608 	1.228971 	0.14154852 	-7.4350555e-05
0.49484536 	1.2256954 	0.13576456 	-0.00011848899
0.50515464 	1.2228651 	0.13136272 	-0.00010945888
0.51546392 	1.2195935 	0.12625166 	-5.6244203e-05
0.5257732 	1.2165978 	0.12194414 	-4.4206422e-05
0.53608247 	1.2132946 	0.11756159 	-1.4353759e-05
0.54639175 	1.210083 	0.11309732 	-1.9069845e-05
0.55670103 	1.2067821 	0.10917686 	-0.00017544973
0.56701031 	1.2033982 	0.1049997 	-1.8337969e-05
0.57731959 	1.2001234 	0.10133127 	-6.4601639e-05
0.58762887 	1.1966686 	0.097655482 	-0.00012603184
0.59793814 	1.1932287 	0.093772205 	-1.9573256e-05
0.60824742 	1.1898709 	0.090601854 	-0.00011459269
0.6185567 	1.1864272 	0.087303479 	-0.00011901498
0.62886598 	1.1830281 	0.083875445 	-1.2173334e-05
0.63917526 	1.179567 	0.08094169 	-0.00011607757
0.64948454 	1.1761111 	0.077923179 	-0.00011364788
0.65979381 	1.1727472 	0.074829809 	-7.5824358e-06
0.67010309 	1.1691833 	0.07207365 	-0.0001162307
0.68041237 	1.1656632 	0.069262175 	-7.5947398e-05
0.69072165 	1.1621995 	0.06650803 	-1.6605632e-06
0.70103093 	1.1584107 	0.063845501 	-0.00014566509
0.71134021 	1.1546179 	0.061151417 	-1.2352586e-05
0.72164948 	1.1504404 	0.058477321 	-4.6787573e-05
0.73195876 	1.1457291 	0.055872688 	-7.6201617e-05
0.74226804 	1.1408115 	0.053302592 	-1.2136337e-06
0.75257732 	1.1353202 	0.050923809 	-0.00010608496
0.7628866 	1.1299447 	0.048498018 	-1.7043883e-06
0.77319588 	1.1244672 	0.046258002 	-7.7267923e-05
0.78350515 	1.1191694 	0.043939585 	-6.7008171e-07
0.79381443 	1.1139746 	0.041723984 	-5.7544e-05
0.80412371 	1.1087562 	0.039503146 	-7.7947416e-07
0.81443299 	1.1032146 	0.037438717 	-5.5269715e-05
0.82474227 	1.0975802 	0.03530618 	-1.845227e-06
0.83505155 	1.0911386 	0.033320171 	-4.9950565e-05
0.84536082 	1.0844963 	0.031283969 	-7.1105697e-07
0.8556701 	1.0770628 	0.029290425 	-8.3930746e-06
0.86597938 	1.0690952 	0.027317349 	-2.9481595e-05
0.87628866 	1.0606805 	0.025311483 	-2.0862349e-06
0.88659794 	1.0511748 	0.023393113 	-9.0586244e-07
0.89690722 	1.0408648 	0.021465774 	-3.2130205e-05
0.90721649 	1.0294699 	0.01954449 	-6.2933541e-06
0.91752577 	1.0163696 	0.017593883 	-2.2767731e-06
0.92783505 	1.0004201 	0.015644968 	-4.1930208e-06
0.93814433 	0.97948048 	0.013687049 	-3.223303e-06
0.94845361 	0.95171178 	0.01176374 	-3.303758e-06
0.95876289 	0.9019377 	0.0095108397 	-7.1145813e-06
0.96907216 	0.81789912 	0.0070596243 	-4.5940842e-07
0.97938144 	0.67620165 	0.0042574092 	-1.7891363e-07
0.98969072 	0.43973159 	0.0013692167 	-1.1541312e-06
