0.4 	1.2442376e-07 	3.9568864e-10 	9.6090311e-13 	1.2393896e-07 	-4.0075532e-10 	9.4642356e-09
0.41111111 	0.00041585448 	-0.00016972919 	8.7158839e-07 	0.00050499418 	-8.2300414e-07 	9.2988325e-05
0.42222222 	0.0014001725 	-0.00069843417 	-4.1610063e-07 	0.0016607012 	8.4383715e-07 	0.00094701904
0.43333333 	0.0017129542 	-0.00085197705 	-6.9367422e-08 	0.0020001932 	8.213775e-07 	0.0003467505
0.44444444 	0.0017732822 	-0.00087441711 	-1.1815476e-07 	0.0020172769 	4.1081726e-07 	0.0010136682
0.45555556 	0.0017896791 	-0.00087474968 	-5.8483791e-07 	0.0019851064 	1.6497628e-06 	9.9062978e-06
0.46666667 	0.0017961524 	-0.00087036045 	-4.3111574e-07 	0.0019447189 	1.0149144e-06 	0.00058592578
0.47777778 	0.0017815016 	-0.00085580713 	-3.7754782e-07 	0.0018803287 	7.8960153e-07 	0.00083547375
0.48888889 	0.001747179 	-0.0008299822 	-4.5167046e-07 	0.0017777244 	1.0005324e-06 	0.0008097697
0.5 	0.0017058052 	-0.00076360827 	-1.8084223e-06 	0.0016150013 	1.7528895e-06 	0.00057185795
0.51111111 	0.0016623048 	-0.00046296284 	-6.2765793e-06 	0.0014631619 	2.586331e-06 	0.00012654164
0.52222222 	0.0016097984 	-0.00010256745 	-5.0603291e-06 	0.0013450929 	1.9307514e-06 	0.00051733091
0.53333333 	0.0015805593 	0.00020684583 	-9.9948052e-07 	0.0012493144 	7.7062638e-07 	0.0012643819
0.54444444 	0.0015577518 	0.00033107793 	-9.4814418e-07 	0.0011802602 	7.3103495e-07 	0.0012491002
0.55555556 	0.001500312 	0.00038996768 	-1.6102068e-06 	0.0011731102 	2.2852854e-06 	0.00028386389
0.56666667 	0.001501294 	0.00043129291 	-7.3077868e-07 	0.0011257847 	1.1805204e-06 	0.00079945156
0.57777778 	0.0015090307 	0.0004598924 	-2.4298979e-07 	0.0010898735 	3.9245713e-07 	0.0012866752
0.58888889 	0.001477574 	0.00046395158 	-1.3332605e-06 	0.0011126546 	1.8868162e-06 	7.0952048e-05
0.6 	0.0015239064 	0.0005022748 	-1.8934151e-07 	0.0010748041 	2.2458973e-07 	0.0013165584
0.61111111 	0.0015240642 	0.00051992072 	-8.1612481e-07 	0.0010967283 	9.6828654e-07 	0.00059802857
0.62222222 	0.0015578351 	0.0005541557 	-4.0663737e-07 	0.0010985202 	4.515563e-07 	0.00096000749
0.63333333 	0.0015832115 	0.00058456866 	-4.8175205e-07 	0.0011194367 	5.3498777e-07 	0.00087664692
0.64444444 	0.0016174018 	0.00061280602 	-2.5476995e-07 	0.001144415 	3.5047617e-07 	0.00086865585
0.65555556 	0.0016510399 	0.00063273789 	-2.5205743e-07 	0.0011823112 	3.4673671e-07 	0.0009107873
0.66666667 	0.0016929506 	0.00065857062 	-4.2185154e-08 	0.001218916 	1.8315836e-07 	0.0010256182
0.67777778 	0.0017318019 	0.00068082574 	-6.4564784e-08 	0.0012645508 	2.8029213e-07 	0.0007111547
0.68888889 	0.0017825066 	0.00070653717 	9.6810506e-09 	0.0013073712 	6.4176931e-08 	0.0014344265
0.7 	0.001823223 	0.00073270361 	4.2752485e-08 	0.0013615791 	2.8337552e-07 	0.00029485899
0.71111111 	0.0018827653 	0.00075983331 	2.7776611e-08 	0.0014128194 	6.0897992e-08 	0.0018828254
0.72222222 	0.0019261425 	0.00078821791 	5.0612459e-08 	0.0014737964 	2.3085771e-07 	0.00016182933
0.73333333 	0.0019893445 	0.00081938912 	5.3627687e-09 	0.0015370859 	2.4447643e-08 	0.001812154
0.74444444 	0.0020405614 	0.00084935139 	5.056922e-08 	0.0016020886 	1.496278e-07 	0.00039053351
0.75555556 	0.0021043758 	0.00088203363 	1.019395e-08 	0.0016721202 	3.0159107e-08 	0.0017953864
0.76666667 	0.0021604918 	0.00091257828 	6.4922749e-08 	0.0017389961 	1.3135862e-07 	0.00035899325
0.77777778 	0.0022271351 	0.00094614122 	6.7345834e-09 	0.0018127868 	1.3629108e-08 	0.0020928527
0.78888889 	0.002286117 	0.00097584289 	9.2525391e-08 	0.0018767488 	1.4939101e-07 	1.8874816e-05
0.8 	0.0023557004 	0.0010091541 	1.5430576e-08 	0.0019496125 	2.158448e-08 	0.0019867434
0.81111111 	0.0024175778 	0.0010396859 	6.4163149e-08 	0.0020163876 	8.9736218e-08 	0.00090086996
0.82222222 	0.002479485 	0.0010643208 	7.246445e-08 	0.0020881598 	8.1022226e-08 	0.00097167709
0.83333333 	0.0025394391 	0.0010815178 	1.5246683e-09 	0.0021661145 	1.704997e-09 	0.0023500177
0.84444444 	0.0025921124 	0.0011215159 	8.9533993e-08 	0.0022257682 	9.02026e-08 	0.00072245247
0.85555556 	0.0026385908 	0.0011549527 	8.178137e-08 	0.0022900706 	8.2930971e-08 	0.00077883267
0.86666667 	0.002673796 	0.0011780202 	1.3240941e-08 	0.0023574682 	1.338014e-08 	0.0020905387
0.87777778 	0.0026896862 	0.0011935174 	9.2197698e-09 	0.002414174 	9.31691e-09 	0.0021257063
0.88888889 	0.002686297 	0.0011989031 	5.1982407e-08 	0.002448876 	5.5654321e-08 	0.0012425204
0.9 	0.0026625507 	0.001194205 	7.3626132e-08 	0.002460913 	8.0777168e-08 	0.00062879217
0.91111111 	0.0026146072 	0.0011773952 	6.9984928e-08 	0.0024437608 	7.1348468e-08 	0.00032780326
0.92222222 	0.0025391995 	0.0011468376 	4.5706908e-08 	0.0023926874 	3.246132e-08 	0.00036808894
0.93333333 	0.0024345852 	0.0011019241 	1.4678648e-08 	0.0023069085 	-1.0343394e-08 	0.00076181979
0.94444444 	0.0023034729 	0.001044398 	-8.8197253e-10 	0.002191928 	-9.5112598e-09 	0.0015066661
0.95555556 	0.0021638955 	0.00098230843 	-4.254294e-08 	0.0020648837 	-8.7622997e-08 	0.0015866007
0.96666667 	0.0020077698 	0.00091264458 	-2.0576291e-07 	0.0019211314 	-4.2618449e-07 	0.0014323297
0.97777778 	0.0015955783 	0.00072635496 	-2.390465e-08 	0.0015308846 	-8.0069854e-08 	0.0001935277
0.98888889 	0.00038746436 	0.00016966567 	-7.3583076e-08 	0.00037465653 	1.9818643e-08 	6.7911453e-05
