0 	0.0091072422 	-6.1849151e-16 	-3.7835401e-21 	2.226447e-18 	-8.2906697e-19 	1.9957614e-18
0.010869565 	0.0085652068 	-0.0046978561 	1.5933737e-05 	0.0091430104 	0.00037377547 	0.0021808522
0.02173913 	0.0082711936 	-0.0050030084 	1.4889588e-05 	0.0090373752 	0.00010784028 	0.002745926
0.032608696 	0.0078419649 	-0.0046677749 	3.3222921e-06 	0.008875353 	5.3619563e-05 	0.0032372061
0.043478261 	0.0073114598 	-0.0040096307 	1.4151833e-05 	0.0085722799 	5.2054172e-06 	0.0036392538
0.054347826 	0.0065908425 	-0.0027916682 	-1.0596081e-05 	0.0083432635 	1.867921e-06 	0.0011433151
0.065217391 	0.0056800559 	-0.0012947276 	-1.2120826e-05 	0.0080960943 	-2.144024e-06 	0.0014979305
0.076086957 	0.0049159487 	-0.00012480645 	-1.6784225e-05 	0.0077392011 	3.8764287e-07 	0.0012981833
0.086956522 	0.0041187873 	0.0011053707 	9.7732686e-07 	0.0073471405 	-4.2440779e-06 	0.0043649193
0.097826087 	0.0034911354 	0.0016124224 	3.5051449e-09 	0.0067903883 	-3.0664187e-06 	0.004258602
0.10869565 	0.0031365965 	0.0005805461 	4.5971307e-06 	0.0060444422 	9.6774677e-06 	0.00081993298
0.11956522 	0.0028574794 	-0.00037322103 	5.8758228e-06 	0.0052271178 	5.5456628e-06 	0.0028035879
0.13043478 	0.0028246443 	-0.0017608682 	3.6416956e-06 	0.0041214237 	3.416377e-06 	0.0028240087
0.14130435 	0.0025965153 	-0.0021663931 	1.0511537e-05 	0.0032243479 	1.5545203e-05 	0.00034615686
0.15217391 	0.0023582516 	-0.0023238516 	1.512222e-07 	0.0024515686 	-1.0402668e-06 	0.002699081
0.16304348 	0.0019182928 	-0.0018450352 	-6.0777722e-07 	0.0019795289 	1.077453e-05 	0.00029452153
0.17391304 	0.0015827043 	-0.0014934387 	-7.8127e-07 	0.0015626442 	1.3011399e-06 	0.0014769124
0.18478261 	0.0013634933 	-0.0012308385 	-3.1980784e-06 	0.0013710701 	5.3429483e-06 	0.00031913071
0.19565217 	0.0012074717 	-0.0010430358 	-3.009667e-07 	0.001213736 	3.6254468e-07 	0.0010830616
0.20652174 	0.0011926525 	-0.0010060308 	-2.0613159e-06 	0.0012277674 	2.4890369e-06 	0.0002305584
0.2173913 	0.0011795402 	-0.00098417568 	1.6811606e-07 	0.0012346604 	-5.9891253e-08 	0.0011010759
0.22826087 	0.0012230978 	-0.0010046664 	-1.1557477e-06 	0.0012931505 	1.3493208e-06 	1.3946322e-05
0.23913043 	0.0012516184 	-0.0010315373 	6.189933e-08 	0.0013443787 	-5.4943351e-09 	0.0011010541
0.25 	0.0012958397 	-0.0010473588 	-2.937981e-07 	0.0013982098 	3.9638171e-07 	0.00046500549
0.26086957 	0.0013331958 	-0.0010595051 	-1.5876192e-07 	0.0014466679 	2.135328e-07 	0.00075352703
0.27173913 	0.0013650217 	-0.0010603009 	1.2657458e-07 	0.0014911292 	-4.3102673e-08 	0.0010565303
0.2826087 	0.0013996718 	-0.0010330199 	-2.1987106e-07 	0.001522028 	2.6232598e-07 	0.00010393705
0.29347826 	0.0014207444 	-0.0010066069 	8.0488391e-07 	0.0015495441 	-3.3896445e-07 	0.0010311188
0.30434783 	0.0014379525 	-0.00095572145 	-3.4875259e-08 	0.0015693487 	-1.9570677e-09 	0.00078724285
0.31521739 	0.0014526178 	-0.00088611404 	-9.4634636e-08 	0.0015768065 	-3.2962678e-09 	0.00040892409
0.32608696 	0.001456776 	-0.00080856616 	2.7954107e-06 	0.0015810949 	-1.2148263e-06 	0.00093846225
0.33695652 	0.0014549992 	-0.00071392228 	-4.9674137e-08 	0.0015818277 	-5.1924569e-08 	0.00066400493
0.34782609 	0.0014496864 	-0.00060289367 	-8.4960475e-08 	0.0015735705 	-8.8025711e-08 	0.0004549126
0.35869565 	0.001437055 	-0.00048450859 	4.0523119e-06 	0.0015622146 	-1.7404921e-06 	0.00082616693
0.36956522 	0.0014200622 	-0.00035967749 	-1.1439405e-08 	0.001550492 	-1.0849695e-08 	0.00075975328
0.38043478 	0.0013983777 	-0.00022152887 	-1.5344604e-07 	0.0015343523 	-1.3427341e-07 	0.0002790822
0.39130435 	0.0013783223 	-8.3522256e-05 	3.3676442e-06 	0.0015138505 	-1.5145666e-06 	0.00071069391
0.40217391 	0.0013559439 	5.2612437e-05 	2.0600186e-06 	0.0014941117 	-9.2672504e-07 	0.00068540365
0.41304348 	0.0013291521 	0.00018402207 	-3.0006678e-07 	0.0014784334 	-3.8361346e-08 	6.9994111e-05
0.42391304 	0.0013103963 	0.00032351818 	1.0297641e-06 	0.0014571237 	-4.7882006e-07 	0.00061404282
0.43478261 	0.0012955346 	0.00044670928 	4.6773779e-06 	0.0014412604 	-2.173502e-06 	0.00059402781
0.44565217 	0.001280673 	0.00056990038 	7.3418581e-08 	0.0014253972 	-3.4473105e-08 	0.00057401279
0.45652174 	0.0012603834 	0.00067957992 	-2.2264736e-07 	0.0014267143 	2.0418376e-07 	0.00025225752
0.4673913 	0.0012617235 	0.00075228383 	6.088904e-07 	0.0014234214 	-9.609474e-07 	0.00053599349
0.47826087 	0.0012710751 	0.00078809188 	7.8945583e-07 	0.0014226891 	-1.2458709e-06 	0.00052010167
0.48913043 	0.0012811105 	0.00081584127 	-4.9947486e-08 	0.0014239038 	1.0502838e-07 	0.00043904886
0.5 	0.0013051992 	0.00077205328 	-1.0362401e-07 	0.0014402361 	2.18125e-07 	0.00035620958
0.51086957 	0.001337313 	0.00075370026 	-1.2882677e-06 	0.0014558105 	-5.0763486e-07 	0.00047956352
0.52173913 	0.0013694626 	0.00073632151 	-1.1797605e-06 	0.0014728043 	-4.6487842e-07 	0.00046716944
0.5326087 	0.0013999673 	0.0007197878 	-9.0738918e-08 	0.0014934577 	2.9622131e-07 	0.00033618482
0.54347826 	0.0014322555 	0.00072214711 	-1.7594171e-08 	0.0015282318 	4.7975723e-09 	0.00047707995
0.55434783 	0.0014769493 	0.00072960511 	-3.3873308e-07 	0.0015597329 	9.2103028e-08 	0.00046688132
0.56521739 	0.0015216432 	0.00073706312 	-1.5905281e-07 	0.0015912341 	4.3254312e-08 	0.00045668269
0.57608696 	0.0015594176 	0.0007396299 	-3.9916789e-07 	0.0016328202 	1.3736483e-06 	3.1734224e-05
0.58695652 	0.001610124 	0.00076662801 	9.2613256e-08 	0.0016747175 	2.2712271e-07 	0.00047948717
0.59782609 	0.0016650669 	0.00078487017 	1.6376944e-07 	0.0017143493 	4.0161835e-07 	0.000470991
0.60869565 	0.0017196753 	0.00080256193 	-2.4709473e-08 	0.0017543646 	8.7230777e-08 	0.00044042194
0.61956522 	0.0017695668 	0.00082552725 	5.590498e-08 	0.0018062005 	1.0101172e-07 	0.00049611866
0.63043478 	0.0018320322 	0.0008465019 	3.2116201e-07 	0.0018483378 	5.8027742e-07 	0.00048910074
0.64130435 	0.0018944977 	0.00086747656 	4.8504456e-08 	0.0018904751 	8.7640393e-08 	0.00048208282
0.65217391 	0.0019496356 	0.00089098891 	2.0224037e-08 	0.0019408924 	2.509552e-08 	0.00051373439
0.66304348 	0.0020174976 	0.000911201 	2.6319412e-07 	0.0019786004 	3.265877e-07 	0.00050802638
0.67391304 	0.0020853596 	0.0009314131 	3.6318602e-08 	0.0020163085 	4.5066637e-08 	0.00050231837
0.68478261 	0.0021462661 	0.00095424503 	3.024164e-08 	0.0020574616 	-6.7354335e-09 	0.00052963172
0.69565217 	0.0022164779 	0.00097310917 	1.5420575e-07 	0.002087824 	-3.4343732e-08 	0.0005250792
0.70652174 	0.0022861865 	0.00098827604 	-9.1172481e-08 	0.0021183781 	5.0976468e-07 	0.00041601074
0.7173913 	0.0023524416 	0.0010145429 	9.8219214e-08 	0.0021477343 	-4.6760704e-08 	0.00054301247
0.72826087 	0.002417399 	0.001034551 	1.0902717e-07 	0.002176723 	-5.1906197e-08 	0.00053947474
0.73913043 	0.0024846645 	0.0010499621 	-8.4429195e-08 	0.0022021916 	7.6486007e-07 	0.0003822197
0.75 	0.0025390823 	0.0010765519 	2.3070023e-07 	0.0022317795 	-7.6826974e-09 	0.00055463411
0.76086957 	0.002591237 	0.0010948763 	-1.9659798e-08 	0.0022625804 	4.3099907e-07 	0.00043924912
0.77173913 	0.0026412936 	0.0011150645 	6.3126171e-08 	0.0022829798 	-7.7574675e-08 	0.00056570893
0.7826087 	0.0026775838 	0.0011332408 	2.2771976e-08 	0.0023111594 	-2.7984085e-08 	0.00056371038
0.79347826 	0.0027151465 	0.0011457224 	-5.4908667e-08 	0.0023243701 	-1.8189156e-07 	0.00057168573
0.80434783 	0.0027337861 	0.0011574208 	-5.0783451e-08 	0.0023428787 	-1.6822629e-07 	0.00057022447
0.81521739 	0.0027534972 	0.0011630148 	-1.3537776e-07 	0.002345237 	-2.9946996e-07 	0.00057164036
0.82608696 	0.0027526365 	0.001166152 	-1.4313798e-07 	0.0023490003 	-3.1663639e-07 	0.00057058536
0.83695652 	0.0027502815 	0.0011625234 	-2.9708731e-07 	0.0023352187 	-6.0975883e-07 	0.00056521838
0.84782609 	0.0027290842 	0.0011562035 	-9.7957409e-08 	0.0023215071 	-2.0105334e-07 	0.00056446092
0.85869565 	0.0027018603 	0.0011417525 	-6.7792103e-07 	0.0022879298 	-1.3652131e-06 	0.00055248879
0.86956522 	0.0026534777 	0.0011250001 	4.1428807e-08 	0.002262305 	5.1705592e-07 	1.5297152e-05
0.88043478 	0.0026085496 	0.0011004083 	-6.8732175e-07 	0.0022021179 	-1.3621774e-06 	0.00053409835
0.89130435 	0.0025520363 	0.0010715498 	-4.926448e-07 	0.0021411363 	-9.7508483e-07 	0.00051224452
0.90217391 	0.0024757293 	0.00103997 	9.0684512e-09 	0.0020827249 	4.1129222e-08 	0.00023047164
0.91304348 	0.0024222087 	0.0010002146 	-6.5132488e-07 	0.0019983037 	-1.2249946e-06 	0.00048881739
0.92391304 	0.002402767 	0.00093775563 	-1.8915601e-06 	0.0019129426 	-2.3118158e-06 	0.0004553335
0.93478261 	0.0024756342 	0.00070687313 	-4.2431015e-06 	0.0017652119 	5.0820616e-07 	0.00042762511
0.94565217 	0.0021243988 	-0.00013853748 	-9.1153138e-06 	0.0019772093 	4.700955e-06 	0.00044870758
0.95652174 	0.0016718835 	-0.00049020084 	-1.0174226e-06 	0.0022804861 	-2.3488577e-06 	0.00015263876
0.9673913 	0.0014090405 	-0.00056487024 	-5.4961042e-08 	0.0020736175 	-1.4709311e-06 	0.00037359766
0.97826087 	0.00088522072 	-0.00037126653 	-5.119898e-07 	0.0014562826 	-9.6993163e-07 	0.00011298026
0.98913043 	0.00015811094 	1.2917653e-05 	-4.3440207e-08 	0.00026598162 	-1.2724898e-07 	1.9188586e-05
