0 	0.82051662 	-5.5725356e-14 	-2.2199467e-20
0.010869565 	0.83262784 	-0.00029056729 	-0.00014079769
0.02173913 	0.84724148 	-0.00071053494 	-2.0958344e-05
0.032608696 	0.86044845 	-0.00095255467 	1.3574342e-05
0.043478261 	0.85766844 	-0.0030288794 	-1.6350637e-05
0.054347826 	0.83306348 	-0.0043341018 	-2.1505926e-05
0.065217391 	0.79750917 	-0.0066028743 	-2.4370243e-05
0.076086957 	0.77385478 	-0.0077528986 	-5.2554971e-05
0.086956522 	0.75820323 	-0.0080425583 	-6.2266927e-05
0.097826087 	0.75623043 	-0.0083207286 	-4.4319941e-05
0.10869565 	0.76858348 	-0.0080176827 	-9.6239028e-05
0.11956522 	0.78131943 	-0.0069923029 	-3.5213132e-05
0.13043478 	0.80428005 	-0.0052025298 	-5.9241772e-05
0.14130435 	0.83071477 	-0.0039829248 	-0.00011681996
0.15217391 	0.85525624 	-0.0027987813 	-1.9525771e-05
0.16304348 	0.88544995 	-0.0016808844 	-0.00019421409
0.17391304 	0.90829131 	-9.1080865e-05 	-1.058196e-05
0.18478261 	0.93515025 	0.00059079785 	-0.0002052587
0.19565217 	0.95552237 	0.0018431369 	-1.4487361e-05
0.20652174 	0.98175965 	0.0023391831 	-0.00023291001
0.2173913 	1.0009113 	0.0034457884 	-8.6907468e-06
0.22826087 	1.0274564 	0.004234629 	-0.00021256916
0.23913043 	1.048464 	0.005382326 	-6.0587494e-05
0.25 	1.0735055 	0.0065920471 	-0.00013139345
0.26086957 	1.0980891 	0.0078187383 	-0.00016042887
0.27173913 	1.1200279 	0.0093962268 	1.8185832e-07
0.2826087 	1.1471908 	0.010783657 	-0.00027123817
0.29347826 	1.1679712 	0.012454846 	-5.1820002e-05
0.30434783 	1.1902822 	0.014201213 	-7.4278386e-05
0.31521739 	1.2129821 	0.015701105 	-0.00025643573
0.32608696 	1.2308892 	0.017468061 	1.5684318e-06
0.33695652 	1.2494543 	0.019072149 	-0.00010122526
0.34782609 	1.2670151 	0.020449021 	-0.0002407774
0.35869565 	1.2810866 	0.022084759 	3.0832409e-06
0.36956522 	1.2945403 	0.023674764 	-6.4762707e-05
0.38043478 	1.3070246 	0.025088213 	-0.00027576793
0.39130435 	1.3165377 	0.02677444 	-6.5936666e-06
0.40217391 	1.3248746 	0.028372051 	2.1180628e-06
0.41304348 	1.3320229 	0.029726246 	-0.00024348056
0.42391304 	1.3371712 	0.03130373 	-0.00010443852
0.43478261 	1.3408865 	0.032836125 	1.0101677e-05
0.44565217 	1.3435275 	0.034200581 	-7.923092e-05
0.45652174 	1.3448273 	0.035424273 	-0.000251813
0.4673913 	1.3448916 	0.036941309 	-7.4552962e-06
0.47826087 	1.3438269 	0.038290345 	5.457163e-06
0.48913043 	1.3421828 	0.039541963 	-0.00011557176
0.5 	1.3395736 	0.040827483 	-0.00020538893
0.51086957 	1.336114 	0.042369891 	1.7776932e-06
0.52173913 	1.3321311 	0.043707504 	4.3653815e-06
0.5326087 	1.3277464 	0.044903643 	-0.00013991761
0.54347826 	1.3224546 	0.046231558 	-0.00015334379
0.55434783 	1.3164492 	0.047756112 	5.7283072e-06
0.56521739 	1.3104394 	0.049158534 	1.7602358e-06
0.57608696 	1.3042089 	0.05035744 	-0.00022855026
0.58695652 	1.2966521 	0.051947756 	-2.698743e-05
0.59782609 	1.2894296 	0.053497085 	1.05408e-05
0.60869565 	1.2823677 	0.05494812 	-0.00011812254
0.61956522 	1.2745759 	0.05647558 	-0.00011662668
0.63043478 	1.2665476 	0.05819354 	1.5909757e-05
0.64130435 	1.259082 	0.059862327 	-6.123951e-05
0.65217391 	1.2514644 	0.0614646 	-0.00015237136
0.66304348 	1.2431759 	0.063280084 	1.6973803e-05
0.67391304 	1.2356991 	0.065107289 	-6.8129822e-05
0.68478261 	1.2280539 	0.066817594 	-0.00012167102
0.69565217 	1.2197362 	0.068678402 	1.9083106e-05
0.70652174 	1.2122546 	0.070580993 	-0.00015389362
0.7173913 	1.2036306 	0.072220337 	-6.3119927e-06
0.72826087 	1.1947218 	0.074092391 	5.9760789e-06
0.73913043 	1.1862814 	0.07592608 	-0.00023707604
0.75 	1.1754157 	0.077348141 	9.2703106e-06
0.76086957 	1.1645989 	0.079105381 	-0.0001652916
0.77173913 	1.151981 	0.08022925 	3.6519723e-07
0.7826087 	1.1371803 	0.081570073 	-4.1104959e-05
0.79347826 	1.121108 	0.0825193 	-3.0590568e-05
0.80434783 	1.100648 	0.083209727 	-8.5676115e-07
0.81521739 	1.0783305 	0.08376017 	-5.7407528e-05
0.82608696 	1.0502285 	0.083615495 	-1.103616e-06
0.83695652 	1.0194506 	0.083308748 	-6.0632044e-06
0.84782609 	0.98101921 	0.082401215 	-7.3294798e-05
0.85869565 	0.93900771 	0.080746983 	-3.0530332e-05
0.86956522 	0.88948081 	0.079205583 	-0.00022384113
0.88043478 	0.83507537 	0.075586482 	-3.988089e-05
0.89130435 	0.77549357 	0.072251114 	-6.2017083e-06
0.90217391 	0.70655686 	0.068180513 	-0.00014604932
0.91304348 	0.63383796 	0.062476883 	-3.3108303e-05
0.92391304 	0.55637721 	0.056863522 	-5.8157627e-05
0.93478261 	0.47834238 	0.050391199 	-4.5826614e-06
0.94565217 	0.39593202 	0.042605285 	-6.6203084e-05
0.95652174 	0.32350602 	0.034719965 	-6.6459383e-05
0.9673913 	0.26588613 	0.025241949 	-6.0941896e-06
0.97826087 	0.19497442 	0.015548639 	-2.6413971e-05
0.98913043 	0.092326439 	0.0057886316 	-1.1735e-05
