0 	0.0068192234 	-4.6312693e-16 	-1.6833438e-22 	3.1453223e-29 	1.1432414e-35 	4.1553799e-42
0.010869565 	0.0066345949 	-0.0055158928 	1.5321367e-06 	0.012567428 	3.8347297e-05 	0.010667713
0.02173913 	0.0061924766 	-0.00017644838 	-4.5736605e-07 	0.012247935 	-7.5616129e-05 	0.0092810666
0.032608696 	0.0065458683 	-0.0055497258 	1.4246903e-05 	0.01077891 	-1.0995794e-05 	0.0049785728
0.043478261 	0.0063202043 	-0.0067466719 	7.4525608e-07 	0.0096503109 	-1.4208472e-05 	0.0063376248
0.054347826 	0.0064384405 	-0.0086555345 	3.5258797e-05 	0.0076613761 	2.3418428e-06 	0.00060018717
0.065217391 	0.0061348602 	-0.0097274002 	1.1133656e-05 	0.005953904 	1.0177662e-07 	0.0017041287
0.076086957 	0.0051569611 	-0.0083906518 	1.9764938e-08 	0.0049206341 	-1.3118655e-06 	0.00081502321
0.086956522 	0.0039598984 	-0.006266264 	2.2355042e-05 	0.0040212871 	-9.489642e-06 	0.0017894033
0.097826087 	0.0026838357 	-0.0038907719 	3.9100341e-05 	0.0031943547 	-2.1842947e-05 	0.0009908043
0.10869565 	0.0016005395 	-0.0020225204 	-1.2805556e-06 	0.0023114281 	7.5229278e-08 	0.00037533747
0.11956522 	0.00104825 	-0.0011714745 	8.4617405e-06 	0.0016337639 	-7.5210198e-06 	0.0003465407
0.13043478 	0.00075339508 	-0.00074110372 	5.6753854e-06 	0.0012274479 	-7.5755773e-06 	0.00014349537
0.14130435 	0.00065011756 	-0.00057947539 	-1.8518035e-07 	0.0010284753 	3.3126333e-08 	2.0756948e-05
0.15217391 	0.00068528917 	-0.00058623272 	8.7814632e-07 	0.0010512992 	-1.462847e-06 	4.5919977e-05
0.16304348 	0.0007313168 	-0.00060616148 	3.4612788e-08 	0.0010920978 	-2.5804511e-09 	2.2040403e-06
0.17391304 	0.00079172275 	-0.0006432901 	9.5581358e-08 	0.001166258 	-7.1971276e-09 	5.3915959e-05
0.18478261 	0.00085165783 	-0.00068033386 	5.2053501e-08 	0.0012434891 	6.9557518e-08 	0.00012006775
0.19565217 	0.00091303652 	-0.00071539404 	1.3561898e-07 	0.0013257129 	1.8137445e-07 	0.00017519768
0.20652174 	0.00097248832 	-0.00074984508 	4.0619937e-08 	0.0014090431 	1.2665539e-08 	0.00026299865
0.2173913 	0.0010310716 	-0.00077520357 	4.2626537e-07 	0.0014895046 	1.3470184e-07 	0.00032108494
0.22826087 	0.0010857889 	-0.00080341478 	3.8236607e-07 	0.0015703846 	-5.1210645e-07 	7.7571281e-05
0.23913043 	0.001139364 	-0.00081403588 	9.0265281e-07 	0.0016395289 	-2.5875793e-07 	0.00048823471
0.25 	0.001189239 	-0.00082533158 	1.3654587e-07 	0.0017070705 	-1.1469596e-07 	0.0004645167
0.26086957 	0.0012341217 	-0.00082872185 	4.509284e-07 	0.0017603139 	-3.161276e-07 	0.00066471826
0.27173913 	0.001272334 	-0.00082169405 	6.4860837e-07 	0.0018049106 	-4.5464019e-07 	0.00072380462
0.2826087 	0.0013053077 	-0.0008225347 	1.190947e-06 	0.0018364678 	-5.4996351e-07 	0.00021843045
0.29347826 	0.0013380464 	-0.00079779628 	1.2861358e-06 	0.0018542847 	-1.379531e-06 	0.00088644587
0.30434783 	0.0013609568 	-0.00077711372 	1.8088406e-07 	0.0018660556 	-2.9566206e-08 	0.00086894813
0.31521739 	0.0013827906 	-0.00076170552 	1.0442738e-06 	0.0018522601 	-1.6984059e-07 	0.00058298307
0.32608696 	0.0013992329 	-0.00072818352 	1.620643e-06 	0.0018353277 	-2.430422e-06 	0.0010628223
0.33695652 	0.0014068617 	-0.00070572067 	1.0931327e-06 	0.0018068004 	8.8827673e-08 	0.00071918552
0.34782609 	0.0014174111 	-0.00068106084 	1.4471929e-06 	0.0017610228 	1.1766172e-07 	0.00062243004
0.35869565 	0.0014234799 	-0.00064526027 	1.2320353e-06 	0.0017179119 	-2.499274e-06 	0.0011718012
0.36956522 	0.0014204097 	-0.00062335056 	1.1107715e-06 	0.0016650769 	3.2965506e-07 	0.00083363125
0.38043478 	0.0014187884 	-0.00060444914 	2.4434877e-06 	0.0015996586 	7.2519868e-07 	0.00039359274
0.39130435 	0.0014202068 	-0.00056762527 	4.2954128e-07 	0.0015447493 	-1.1179226e-06 	0.0012141015
0.40217391 	0.0014125884 	-0.00054733652 	2.8698305e-07 	0.0014887801 	1.4898813e-07 	0.0011487891
0.41304348 	0.001406556 	-0.00054298723 	3.6886974e-06 	0.0014186465 	1.9146133e-06 	1.6541271e-05
0.42391304 	0.0014056869 	-0.00050970849 	8.5685732e-07 	0.0013663544 	4.4477746e-07 	0.00094654085
0.43478261 	0.0014034687 	-0.00048947398 	4.0291152e-07 	0.0013181997 	-1.208097e-06 	0.0012458915
0.44565217 	0.0014071196 	-0.00048434199 	1.878145e-06 	0.0012667421 	1.4494263e-06 	0.00061668584
0.45652174 	0.0014146135 	-0.00047472056 	2.7459028e-06 	0.0012193311 	2.1190827e-06 	0.00032431739
0.4673913 	0.0014226588 	-0.00044909291 	2.4672341e-07 	0.0011830771 	1.9042838e-07 	0.0011800118
0.47826087 	0.0014357604 	-0.00043638946 	3.7888551e-08 	0.0011545278 	-9.9736294e-08 	0.0012820593
0.48913043 	0.0014638511 	-0.00043015366 	2.1528916e-06 	0.0011299102 	2.2409087e-06 	0.00043878777
0.5 	0.0014954283 	-0.00041807114 	2.2079372e-06 	0.0011045335 	2.2982007e-06 	0.00044060074
0.51086957 	0.0015298014 	-0.00040002938 	1.0998005e-07 	0.0010782774 	1.1449383e-07 	0.0013095217
0.52173913 	0.0015672365 	-0.0003812613 	3.0687136e-07 	0.0010716334 	3.8199085e-07 	0.0012248241
0.5326087 	0.0016128263 	-0.00035689422 	2.2307752e-06 	0.0010804727 	2.776739e-06 	0.00033196216
0.54347826 	0.0016768165 	-0.00033237238 	1.7130425e-06 	0.0010642269 	2.132296e-06 	0.00062166226
0.55434783 	0.0017494275 	-0.00030635173 	2.2229905e-07 	0.0010379938 	-7.4911132e-08 	0.001487095
0.56521739 	0.0018034321 	-0.00026799751 	1.1840457e-06 	0.0010614854 	1.4685409e-06 	0.00099602682
0.57608696 	0.0018552499 	-0.00022729988 	3.5204883e-06 	0.0010998367 	4.3663513e-06 	1.5557105e-05
0.58695652 	0.001969374 	-0.00016968525 	1.0657034e-06 	0.001061616 	1.3217584e-06 	0.001133945
0.59782609 	0.0020567128 	-0.00011204057 	1.7929987e-07 	0.0010605179 	2.1333017e-07 	0.001562884
0.60869565 	0.0020994532 	-6.8664885e-05 	3.4909025e-06 	0.0011293615 	4.1534639e-06 	0.00042132407
0.61956522 	0.0022047619 	1.1879684e-05 	2.5390455e-06 	0.0011308602 	3.0209457e-06 	0.00080300904
0.63043478 	0.0023291541 	0.00010720861 	5.3365013e-07 	0.001111774 	8.6343925e-08 	0.0017431195
0.64130435 	0.0023659651 	0.00014416714 	3.6518478e-06 	0.0011917802 	4.1414888e-06 	0.00067562787
0.65217391 	0.0024594822 	0.00022754077 	3.7633066e-06 	0.0012185195 	4.2678925e-06 	0.00068362741
0.66304348 	0.0026069233 	0.00035862523 	5.6038092e-07 	0.0011922713 	1.8033665e-07 	0.0018561582
0.67391304 	0.0026198633 	0.00036668305 	4.4103907e-06 	0.0012964128 	4.9435313e-06 	0.00068226684
0.68478261 	0.0027096113 	0.00045219354 	3.9355684e-06 	0.001332411 	4.4113117e-06 	0.00085228388
0.69565217 	0.0028408109 	0.00058501014 	2.6818218e-08 	0.0013293392 	2.7730613e-08 	0.0019590856
0.70652174 	0.0027964944 	0.00052259335 	5.8095857e-06 	0.0014814924 	7.5953423e-06 	0.00035933742
0.7173913 	0.002902446 	0.00064727841 	2.2722488e-06 	0.0015056013 	2.9706954e-06 	0.0013903601
0.72826087 	0.0029347876 	0.00068763081 	1.8816991e-06 	0.001586544 	3.4635484e-06 	0.0014225269
0.73913043 	0.0029065778 	0.00065553863 	4.9608662e-06 	0.001715161 	9.1312151e-06 	0.0004217526
0.75 	0.0030317119 	0.00084814975 	2.3709634e-07 	0.0017180064 	3.9014078e-07 	0.0021267983
0.76086957 	0.0029339924 	0.00077493108 	4.6714545e-06 	0.0018951615 	1.0743179e-05 	0.00037549275
0.77173913 	0.0030071905 	0.0009407961 	1.0815815e-06 	0.0019404109 	2.4873677e-06 	0.0017835996
0.7826087 	0.0029661453 	0.00097623128 	2.8097286e-06 	0.0020556806 	6.8490764e-06 	0.00094323308
0.79347826 	0.0029278735 	0.0010549485 	1.9056687e-06 	0.0021747047 	4.6453134e-06 	0.0013877206
0.80434783 	0.0029039888 	0.001123055 	1.0935989e-06 	0.0022558067 	3.3595131e-06 	0.0012563322
0.81521739 	0.0028286585 	0.0011565918 	1.0977709e-06 	0.0023650225 	3.3723292e-06 	0.0012785418
0.82608696 	0.0027758952 	0.0011913927 	2.0792933e-07 	0.0024353698 	1.2546848e-06 	0.0012430746
0.83695652 	0.0027062281 	0.0011998645 	1.5717795e-07 	0.002499527 	9.4844142e-07 	0.0015092927
0.84782609 	0.002644908 	0.0011984131 	-3.9990448e-08 	0.0025256192 	1.0469174e-09 	0.00082753095
0.85869565 	0.0025822367 	0.0011889988 	-4.5154535e-09 	0.0025406884 	1.182105e-10 	0.0021214578
0.86956522 	0.0025077467 	0.0011670055 	-9.3330856e-08 	0.0025156478 	-9.4303755e-07 	3.4525883e-05
0.88043478 	0.0024370922 	0.0011421574 	-1.2604755e-08 	0.0024800025 	-1.8411872e-07 	0.0018061
0.89130435 	0.0023494596 	0.0011077468 	-2.501404e-08 	0.0024159978 	-3.6538221e-07 	0.001341036
0.90217391 	0.0022270065 	0.0010658305 	-7.5813493e-08 	0.0023687348 	-1.9701033e-07 	0.00020125665
0.91304348 	0.0021020407 	0.0010189766 	-2.8516128e-08 	0.0023190106 	1.5405245e-07 	0.0014371176
0.92391304 	0.0018976896 	0.0009532418 	-4.9754925e-09 	0.0023460704 	2.6879064e-08 	0.0017735641
0.93478261 	0.0018266617 	0.00091818929 	5.1643573e-08 	0.0022441599 	-1.3384193e-07 	0.0012199035
0.94565217 	0.0018677613 	0.00089762364 	-2.3815129e-08 	0.0020067181 	-1.2338989e-07 	0.0017435863
0.95652174 	0.0018768138 	0.0004913841 	1.5110912e-05 	0.0017320709 	9.4696639e-08 	0.00012168525
0.9673913 	0.0020269639 	0.00043790108 	2.7941653e-06 	0.0011890232 	1.9912929e-07 	0.00087010125
0.97826087 	0.0012779108 	-0.00030843984 	4.885076e-06 	0.0009001559 	-9.2531959e-07 	9.2568986e-05
0.98913043 	0.0002046964 	-9.0704009e-05 	-1.2130935e-08 	0.00018866095 	-1.6818301e-07 	1.9047094e-05
