0.4742268 	0.21809249 	4.5742414e-05 	-7.6492616e-08
0.48453608 	0.84488205 	0.00072750528 	-4.2120533e-07
0.49484536 	1.2732123 	0.0017645914 	3.5950659e-06
0.50515464 	1.4564192 	0.002385678 	-6.9423021e-08
0.51546392 	1.4946459 	0.0024365181 	-2.8017442e-07
0.5257732 	1.4977992 	0.0023105003 	-1.9421871e-06
0.53608247 	1.4946171 	0.00215869 	-9.036597e-07
0.54639175 	1.4907547 	0.0020099353 	-2.8533087e-07
0.55670103 	1.486811 	0.0018643449 	-1.9822779e-07
0.56701031 	1.482795 	0.0017220978 	-6.5810013e-07
0.57731959 	1.4787153 	0.0015828159 	-1.6423003e-06
0.58762887 	1.4745863 	0.0014469863 	-2.4210637e-06
0.59793814 	1.4704215 	0.0013148402 	-6.3517304e-07
0.60824742 	1.4661866 	0.0011811053 	-7.9093508e-08
0.6185567 	1.4620063 	0.001054127 	-9.8190598e-07
0.62886598 	1.4577687 	0.00093095921 	-1.9698001e-06
0.63917526 	1.4534787 	0.0008038709 	-2.8442596e-08
0.64948454 	1.4492366 	0.00068364219 	-1.4859075e-06
0.65979381 	1.4449473 	0.00056922577 	-7.4151252e-07
0.67010309 	1.4406476 	0.00045254557 	9.3518746e-10
0.68041237 	1.4364263 	0.00033505342 	-1.9813321e-06
0.69072165 	1.4323228 	0.00021855483 	5.6702993e-09
0.70103093 	1.428696 	0.00011020391 	-2.2744133e-06
0.71134021 	1.4254095 	6.044727e-06 	1.9297649e-08
0.72164948 	1.4226067 	-0.00010335399 	-2.5773623e-06
0.73195876 	1.4197723 	-0.00023591186 	-1.2566272e-08
0.74226804 	1.4166872 	-0.00039918407 	-1.9872926e-06
0.75257732 	1.4132284 	-0.00054553686 	-3.2195212e-07
0.7628866 	1.4089698 	-0.00066125559 	-6.8671934e-07
0.77319588 	1.4041803 	-0.00074574323 	-2.4641392e-07
0.78350515 	1.3986727 	-0.00078924098 	-6.081386e-07
0.79381443 	1.3927903 	-0.00086096672 	1.2745258e-08
0.80412371 	1.3864 	-0.00097925539 	-1.7683094e-06
0.81443299 	1.3798894 	-0.001092693 	9.7831633e-08
0.82474227 	1.3730812 	-0.0011992684 	-1.4182085e-06
0.83505155 	1.3662556 	-0.0012918794 	-2.0719466e-07
0.84536082 	1.3593562 	-0.0013822457 	6.5472495e-08
0.8556701 	1.3522774 	-0.0014756728 	-1.1142156e-06
0.86597938 	1.3450096 	-0.0015650653 	-4.9389392e-07
0.87628866 	1.3374211 	-0.0016510535 	1.5299057e-07
0.88659794 	1.3292254 	-0.0017357856 	7.3001102e-08
0.89690722 	1.3202181 	-0.0018182648 	-2.7580357e-07
0.90721649 	1.3100452 	-0.0018973973 	-4.7713256e-07
0.91752577 	1.2980406 	-0.0019713058 	-4.5186534e-07
0.92783505 	1.2828591 	-0.002034501 	-2.4687854e-07
0.93814433 	1.2616193 	-0.0020748718 	-1.7283773e-08
0.94845361 	1.2269623 	-0.0020573082 	2.9539076e-07
0.95876289 	1.1607596 	-0.0019245313 	9.3217743e-07
0.96907216 	1.0271621 	-0.0015617713 	2.6646482e-07
0.97938144 	0.77413365 	-0.00089211853 	9.9698447e-07
0.98969072 	0.40043397 	-0.00019517983 	4.0862577e-07
