0.4742268 	0.21271439 	4.2402042e-05 	-7.0154677e-08
0.48453608 	0.82622521 	0.00067539048 	-4.0642595e-07
0.49484536 	1.2553534 	0.0016530593 	3.224215e-06
0.50515464 	1.4497475 	0.0022855583 	-1.7015509e-07
0.51546392 	1.4946923 	0.0023664708 	-1.4281104e-07
0.5257732 	1.4996166 	0.0022537362 	-1.7159777e-06
0.53608247 	1.4966913 	0.0021081311 	-7.4187458e-07
0.54639175 	1.4928375 	0.0019644338 	-1.464494e-07
0.55670103 	1.4888936 	0.0018238013 	-5.6177499e-08
0.56701031 	1.4848803 	0.0016867543 	-4.9532319e-07
0.57731959 	1.4808026 	0.0015512496 	-1.4547479e-06
0.58762887 	1.4766743 	0.0014184031 	-2.1968361e-06
0.59793814 	1.4725103 	0.0012907267 	-4.5589516e-07
0.60824742 	1.4682728 	0.0011616121 	-6.6113839e-08
0.6185567 	1.4640962 	0.0010382494 	-8.0068186e-07
0.62886598 	1.4598578 	0.00091759546 	-1.7527889e-06
0.63917526 	1.4555634 	0.00079411351 	-2.0703505e-08
0.64948454 	1.4513262 	0.00067652849 	-1.2881157e-06
0.65979381 	1.4470401 	0.00056429191 	-5.5239399e-07
0.67010309 	1.4427402 	0.00045019177 	-1.2293329e-08
0.68041237 	1.4385432 	0.00033359552 	-1.8214421e-06
0.69072165 	1.4345134 	0.00021425782 	-5.7817408e-08
0.70103093 	1.4309709 	0.00010348654 	-2.0644241e-06
0.71134021 	1.4277708 	2.59234e-06 	-6.5429416e-08
0.72164948 	1.4249903 	-0.00010502706 	-2.535381e-06
0.73195876 	1.4221306 	-0.00025074346 	-4.3756386e-08
0.74226804 	1.4189887 	-0.00042973909 	-1.6240687e-06
0.75257732 	1.415464 	-0.00056655373 	-8.2306308e-08
0.7628866 	1.4111469 	-0.00063927056 	-3.7891371e-07
0.77319588 	1.4063261 	-0.00069859621 	-8.6565367e-08
0.78350515 	1.4008059 	-0.0007413289 	-6.3559644e-07
0.79381443 	1.39491 	-0.00082811044 	1.3368e-08
0.80412371 	1.3885164 	-0.00096199501 	-1.6377635e-06
0.81443299 	1.3820044 	-0.0010678487 	8.3964346e-08
0.82474227 	1.3751895 	-0.0011576775 	-1.1268217e-06
0.83505155 	1.3683541 	-0.0012465936 	-1.1673497e-07
0.84536082 	1.3614371 	-0.0013358506 	6.7163869e-08
0.8556701 	1.3543276 	-0.0014257013 	-9.8777988e-07
0.86597938 	1.3470333 	-0.0015112536 	-4.0417707e-07
0.87628866 	1.3394167 	-0.0015937698 	1.4617922e-07
0.88659794 	1.3311929 	-0.0016754552 	8.2474279e-08
0.89690722 	1.3221548 	-0.0017549131 	-2.1146169e-07
0.90721649 	1.3119175 	-0.0018308358 	-4.1045736e-07
0.91752577 	1.2997756 	-0.0019013914 	-3.9026655e-07
0.92783505 	1.2842896 	-0.0019607124 	-1.9937619e-07
0.93814433 	1.2623661 	-0.001995931 	-4.4850651e-09
0.94845361 	1.2259938 	-0.0019697318 	2.9660127e-07
0.95876289 	1.1564351 	-0.0018273173 	8.0990884e-07
0.96907216 	1.0170419 	-0.0014618198 	2.7211128e-07
0.97938144 	0.76073038 	-0.00079780842 	7.4650533e-07
0.98969072 	0.39152014 	-0.00017027424 	2.7389329e-07
