0 	0.008214592 	-5.5789327e-16 	-2.0277944e-22 	3.788927e-29 	1.3771747e-35 	5.0056655e-42
0.010869565 	0.0083356708 	-0.0042854588 	-1.8976886e-05 	0.0098445261 	0.00076826192 	0.0078286696
0.02173913 	0.0081891283 	-0.0040312494 	-2.4829652e-06 	0.0095459499 	0.00024751693 	0.0069677969
0.032608696 	0.0075804693 	-0.0017289751 	-9.3920355e-06 	0.0095201025 	6.5824724e-05 	0.0044518862
0.043478261 	0.0069125554 	-0.00089221786 	-2.2834925e-06 	0.0091334346 	-8.3556789e-06 	0.0052559128
0.054347826 	0.0063390553 	-0.00054232978 	-1.9570218e-06 	0.0085600718 	-7.7871905e-07 	0.00096863906
0.065217391 	0.0057176772 	0.0013172713 	-9.9192751e-07 	0.0077017694 	-8.667465e-08 	0.0016715384
0.076086957 	0.0052753789 	0.0017097645 	3.4569865e-06 	0.0068426367 	1.2618798e-06 	0.0012017436
0.086956522 	0.0049570915 	0.00071750356 	-1.3280579e-05 	0.0059085733 	-1.4206781e-05 	0.0023079424
0.097826087 	0.0047645179 	-0.0013479868 	-2.8202869e-05 	0.0048750601 	-2.7034387e-05 	0.0016019126
0.10869565 	0.0046778854 	-0.0033460991 	3.2867356e-06 	0.0036160951 	1.6119713e-06 	0.00076892558
0.11956522 	0.0042558761 	-0.0038834811 	-1.1473133e-06 	0.0027036077 	-1.1746682e-05 	0.00085134163
0.13043478 	0.0036496791 	-0.0036509885 	2.3623865e-05 	0.002036378 	-1.4127269e-05 	0.00044664633
0.14130435 	0.0028820769 	-0.0028384277 	-7.1567437e-08 	0.0015625879 	3.6525759e-07 	0.00018815922
0.15217391 	0.0022693374 	-0.0020152869 	3.0278061e-05 	0.0012836589 	-1.1203176e-05 	0.00010294399
0.16304348 	0.0017421315 	-0.0012960743 	2.7696629e-06 	0.0010543064 	-1.0115552e-06 	1.6427166e-05
0.17391304 	0.0015289873 	-0.00098514684 	1.078659e-05 	0.00097943273 	-3.9395455e-06 	3.0459518e-05
0.18478261 	0.0013842422 	-0.00075889924 	5.5500114e-07 	0.00094038329 	-8.3289034e-08 	7.2729306e-05
0.19565217 	0.0013956324 	-0.0007345181 	1.7479846e-06 	0.00098494258 	-2.6216145e-07 	0.00011190213
0.20652174 	0.0014277066 	-0.00073543276 	-2.1395467e-08 	0.0010381661 	3.6138636e-08 	0.00016803048
0.2173913 	0.0014873227 	-0.00078296027 	-3.0646875e-07 	0.0011092546 	5.2018773e-07 	0.00020827194
0.22826087 	0.0015450779 	-0.00083349193 	-1.918693e-07 	0.0011830406 	-5.964744e-08 	1.391769e-05
0.23913043 	0.0016030046 	-0.00087519617 	-1.1795814e-08 	0.0012502202 	4.0279522e-07 	0.00031588967
0.25 	0.0016536935 	-0.00091508445 	-3.2806679e-10 	0.001319383 	1.3198665e-08 	0.00035643303
0.26086957 	0.0016930573 	-0.00093514012 	3.6895956e-07 	0.0013842064 	7.766728e-09 	0.00042759164
0.27173913 	0.0017214635 	-0.0009402048 	6.412864e-07 	0.0014427389 	1.3884634e-08 	0.00046711378
0.2826087 	0.0017360317 	-0.00093219319 	-4.3708916e-07 	0.0015015816 	-1.2173725e-07 	0.00011313211
0.29347826 	0.0017489932 	-0.00090580421 	1.8004536e-06 	0.0015460562 	-3.9879842e-07 	0.00057090635
0.30434783 	0.0017511451 	-0.00086856509 	1.6202322e-07 	0.001587866 	-3.6611754e-08 	0.00060789921
0.31521739 	0.0017323411 	-0.00081078604 	-2.7655637e-07 	0.0016260617 	-1.4291521e-07 	0.00037727175
0.32608696 	0.0017153067 	-0.00074132738 	3.2048372e-06 	0.0016520979 	-1.0193384e-06 	0.00068874271
0.33695652 	0.0016877731 	-0.00066006351 	-1.1197483e-07 	0.001673958 	-1.2892745e-07 	0.00055805242
0.34782609 	0.0016453056 	-0.00056697897 	-2.274845e-07 	0.0016916578 	-2.6070253e-07 	0.00041373494
0.35869565 	0.0016104744 	-0.00046989565 	3.3110488e-06 	0.0017000573 	-1.3696508e-06 	0.00076855553
0.36956522 	0.0015699033 	-0.00036377968 	1.4239875e-08 	0.001700112 	-1.5082643e-07 	0.00064098583
0.38043478 	0.0015201992 	-0.00025672483 	5.0284515e-08 	0.0016915957 	-5.3489974e-07 	0.00025846764
0.39130435 	0.0014828544 	-0.00015599337 	1.5847129e-06 	0.0016850223 	-9.1136926e-07 	0.00081265555
0.40217391 	0.0014491478 	-4.910158e-05 	2.4082951e-07 	0.0016679121 	-1.3907112e-07 	0.00083520598
0.41304348 	0.001416417 	4.1451521e-05 	1.199733e-06 	0.0016350989 	-8.3376469e-07 	4.5286254e-05
0.42391304 	0.0013912516 	0.00012462309 	2.3297849e-07 	0.001615936 	-1.6222366e-07 	0.00068504791
0.43478261 	0.0013790683 	0.00020955912 	1.7193247e-06 	0.0015901695 	-1.4465103e-06 	0.0008530343
0.44565217 	0.0013775337 	0.00028101288 	1.2643197e-06 	0.001557036 	-3.9626916e-07 	0.00049157982
0.45652174 	0.0013849061 	0.00033747846 	2.1892698e-06 	0.001523202 	-6.8579092e-07 	0.00022450128
0.4673913 	0.00139558 	0.00039211957 	2.0675242e-09 	0.0014983933 	-7.9454446e-10 	0.00087636634
0.47826087 	0.0014240711 	0.00043969564 	3.2424379e-07 	0.0014711127 	-5.2854551e-07 	0.00089071147
0.48913043 	0.0014671174 	0.00046766263 	2.4637039e-06 	0.0014410314 	-5.5628576e-07 	0.00035813247
0.5 	0.001522806 	0.00050014656 	2.7379008e-06 	0.0014097999 	-6.1811933e-07 	0.00031652126
0.51086957 	0.0015884398 	0.000541786 	5.8858727e-09 	0.0013786862 	-1.1725671e-07 	0.00094820282
0.52173913 	0.0016520316 	0.00055632854 	4.5612204e-10 	0.0013584086 	-9.2361777e-09 	0.00095915011
0.5326087 	0.0017169628 	0.00054182505 	3.0038511e-06 	0.0013464284 	-5.2355056e-07 	0.0002771438
0.54347826 	0.0018203252 	0.00056561537 	2.3779607e-06 	0.0013130816 	-4.1443089e-07 	0.00045852402
0.55434783 	0.0019392762 	0.00060407864 	-1.1949761e-07 	0.0012743858 	-3.2828955e-07 	0.0010513487
0.56521739 	0.00200918 	0.00058775428 	1.0413529e-06 	0.0012789669 	-9.9590055e-08 	0.00079461768
0.57608696 	0.0020517063 	0.00053900758 	4.129966e-06 	0.0013074076 	-3.9524159e-07 	1.5541106e-05
0.58695652 	0.0021987732 	0.00056730634 	1.0637017e-06 	0.0012653158 	-1.0175907e-07 	0.00088183097
0.59782609 	0.0023079702 	0.00057462349 	-6.1415676e-08 	0.0012552904 	-6.8469258e-08 	0.0011868249
0.60869565 	0.0023431859 	0.00053586856 	3.1225657e-06 	0.0013068155 	-1.8680777e-07 	0.00036174018
0.61956522 	0.0024518954 	0.00052935913 	2.3129866e-06 	0.0013057335 	-1.3838057e-07 	0.00063976881
0.63043478 	0.0025894198 	0.00053637964 	-2.7993769e-07 	0.0012852155 	-1.4436301e-07 	0.0013218899
0.64130435 	0.0026356635 	0.00049457785 	3.0270671e-06 	0.0013371537 	-3.3508849e-07 	0.00058737741
0.65217391 	0.002735915 	0.00045870325 	3.3526012e-06 	0.0013495232 	-3.7113147e-07 	0.00055416004
0.66304348 	0.0029042439 	0.00044243287 	-4.409673e-07 	0.0013100435 	-1.6466188e-07 	0.0014453927
0.67391304 	0.0029332698 	0.00037858792 	4.2392459e-06 	0.0013732949 	-7.510547e-07 	0.00060922363
0.68478261 	0.0030411045 	0.00031473715 	3.9717134e-06 	0.0013753809 	-7.0365717e-07 	0.00071490899
0.69565217 	0.0032071723 	0.0002794842 	-1.3841868e-07 	0.0013320203 	-3.4830965e-08 	0.0015643416
0.70652174 	0.0031698739 	0.00026627107 	6.8258058e-06 	0.0014451818 	-1.5052338e-06 	0.00034259597
0.7173913 	0.0033115949 	0.00028834471 	2.3901001e-06 	0.0014176018 	-5.2706788e-07 	0.001214422
0.72826087 	0.0033659981 	0.00034584669 	1.5806106e-06 	0.0014561077 	-3.3389149e-07 	0.0013037613
0.73913043 	0.0033028587 	0.00046262521 	5.7328366e-06 	0.0015848439 	-1.2110132e-06 	0.00035620763
0.75 	0.0033956795 	0.00061859101 	8.2535716e-07 	0.0015883077 	5.9500385e-07 	0.0017910993
0.76086957 	0.0032889937 	0.00073931347 	2.1562034e-06 	0.0017378676 	-3.1287756e-07 	0.00037598613
0.77173913 	0.0032552443 	0.00088282253 	3.5862472e-07 	0.0018355132 	-5.2038429e-08 	0.001666289
0.7826087 	0.0031814587 	0.00097528663 	-5.3373931e-08 	0.0019486825 	-2.2234962e-07 	0.00092954344
0.79347826 	0.0031036798 	0.0010496752 	-3.5898703e-08 	0.0020669524 	-1.4954988e-07 	0.0013093257
0.80434783 	0.0030359033 	0.0010989224 	-1.2840123e-07 	0.0021608555 	-3.7470805e-07 	0.0012463885
0.81521739 	0.0029621348 	0.0011338937 	-1.3962451e-07 	0.0022454145 	-4.0746052e-07 	0.0012060368
0.82608696 	0.00289471 	0.0011554366 	-1.0578373e-07 	0.0023088679 	-4.0107399e-07 	0.0012341696
0.83695652 	0.0028185679 	0.0011667849 	-8.0771276e-08 	0.0023618136 	-3.0624046e-07 	0.0014310472
0.84782609 	0.0027411152 	0.0011673149 	-1.0488063e-07 	0.0023916362 	-5.2289765e-07 	0.00082977357
0.85869565 	0.0026496865 	0.0011626314 	-5.5685172e-10 	0.0024244814 	-3.7444171e-10 	0.002026182
0.86956522 	0.0025647839 	0.0011441413 	-9.9774251e-08 	0.0024108041 	-6.6095887e-07 	6.8235598e-06
0.88043478 	0.00245421 	0.0011235723 	-4.101415e-09 	0.0024171052 	-3.2105711e-08 	0.001777591
0.89130435 	0.0023510972 	0.0010924099 	-1.3604199e-08 	0.0023826874 	-1.0649311e-07 	0.0012826445
0.90217391 	0.0022461705 	0.0010570308 	-1.1309384e-08 	0.0023368101 	1.2790155e-07 	0.00021658402
0.91304348 	0.0021223204 	0.0010179313 	-3.7299309e-09 	0.0022998368 	1.4454545e-07 	0.0014378364
0.92391304 	0.0020081198 	0.0009778894 	-3.4656881e-08 	0.002250803 	-3.1702845e-08 	0.0017215778
0.93478261 	0.0019057334 	0.00094352108 	-2.011253e-08 	0.0022341086 	3.5361622e-07 	0.0012222845
0.94565217 	0.0017550864 	0.00089104297 	-1.8754849e-07 	0.0022439955 	3.1893464e-08 	0.0016254865
0.95652174 	0.0015225317 	0.00077736624 	-1.3661086e-06 	0.0022516656 	3.3507095e-06 	0.00014210043
0.9673913 	0.0012171179 	0.00061146268 	-9.2015136e-07 	0.0021225071 	1.2823205e-06 	0.0009121362
0.97826087 	0.00082026465 	0.00041115761 	-1.2089266e-06 	0.001449003 	1.9372915e-06 	0.00010548707
0.98913043 	0.00016622077 	3.2985506e-05 	8.1359435e-08 	0.0002517796 	2.8521925e-07 	1.923091e-05
