0 	0.0068489083 	-4.6653293e-16 	-6.0855731e-20 	3.3808081e-18 	1.4760927e-19 	6.4447598e-21
0.010869565 	0.006818885 	-0.0046608164 	1.0148971e-05 	0.0074077754 	-0.00012176925 	0.003253987
0.02173913 	0.0066337162 	-0.0045167135 	1.16959e-05 	0.007453621 	-4.0704945e-05 	0.0035680928
0.032608696 	0.006281735 	-0.0025355868 	8.6811087e-06 	0.0076839872 	-3.5166524e-06 	0.0038047338
0.043478261 	0.0055320244 	0.0044887685 	1.3666184e-05 	0.0079211386 	1.2086071e-06 	0.0042787853
0.054347826 	0.0057410388 	0.0058927024 	-1.2428084e-06 	0.0075399239 	2.8780724e-06 	0.0024498123
0.065217391 	0.0056625388 	0.0056341661 	1.1568976e-06 	0.0071874588 	3.3168967e-06 	0.00058683326
0.076086957 	0.005558617 	0.004635059 	7.8860434e-06 	0.0068730571 	1.9874216e-06 	0.0023743624
0.086956522 	0.00560253 	0.0023130584 	-9.1610685e-06 	0.0065050714 	-9.434101e-06 	0.0049447303
0.097826087 	0.0057942055 	-0.00081499967 	4.9981519e-06 	0.0060884355 	-2.7819794e-06 	0.0040147539
0.10869565 	0.0059680206 	-0.0030914336 	1.897899e-05 	0.0056195277 	1.0492447e-05 	7.4933695e-05
0.11956522 	0.006118314 	-0.0047061628 	8.4091223e-07 	0.0052156612 	-1.9533036e-06 	0.0044943987
0.13043478 	0.0060087627 	-0.0048429456 	2.7379557e-06 	0.0051112645 	1.8206589e-06 	0.0031045505
0.14130435 	0.0058659695 	-0.0048958359 	1.1879324e-06 	0.004968703 	3.455642e-06 	0.0014650864
0.15217391 	0.0057285869 	-0.0048148191 	6.2098883e-09 	0.0048139869 	-2.9704242e-07 	0.0046254538
0.16304348 	0.0054969057 	-0.0047170702 	1.7636097e-06 	0.0046207045 	5.1654821e-06 	4.8373893e-05
0.17391304 	0.0053161015 	-0.0046407587 	9.6476089e-08 	0.0044315419 	-6.6904122e-07 	0.0046939305
0.18478261 	0.0050286259 	-0.0043931736 	-3.7563922e-08 	0.0042469808 	4.4163701e-06 	0.00038815976
0.19565217 	0.0047941991 	-0.0041624021 	-2.0731767e-08 	0.00407917 	-2.462588e-07 	0.0042051756
0.20652174 	0.0045194783 	-0.0038857477 	-6.0280998e-07 	0.0038333179 	5.1435707e-06 	0.0001222857
0.2173913 	0.0042987273 	-0.0036075815 	-6.9314989e-09 	0.0036219968 	-8.8213346e-08 	0.0035470761
0.22826087 	0.0040430429 	-0.0033934796 	8.503279e-07 	0.0033537196 	4.5455841e-06 	0.00062453547
0.23913043 	0.0038238924 	-0.0031839998 	2.3953048e-07 	0.00311114 	1.2340362e-06 	0.0022556668
0.25 	0.0035902564 	-0.0029576416 	4.5627522e-07 	0.0028647376 	2.3636899e-06 	0.001535575
0.26086957 	0.0033663776 	-0.002731358 	5.5704038e-07 	0.002625281 	2.9300872e-06 	0.00096389699
0.27173913 	0.0031577806 	-0.002506659 	5.1534994e-07 	0.0024103081 	-4.5044244e-07 	0.0022743326
0.2826087 	0.0029405943 	-0.002250213 	1.6561925e-07 	0.0022129883 	3.6898662e-06 	0.00018399381
0.29347826 	0.0027571173 	-0.0020282447 	3.0917635e-08 	0.0020337297 	6.8481723e-07 	0.0014544988
0.30434783 	0.0025806953 	-0.0018059277 	-6.7436041e-08 	0.0018882241 	6.4481684e-07 	0.0013248877
0.31521739 	0.0024215398 	-0.0015926575 	-2.3533626e-07 	0.0017610808 	2.272187e-06 	0.00023506252
0.32608696 	0.0022854342 	-0.0014096892 	6.9654928e-07 	0.0016444154 	-4.6105384e-07 	0.0013592386
0.33695652 	0.0021733956 	-0.0012392424 	-3.8551124e-08 	0.0015570185 	5.1139683e-07 	0.00091455956
0.34782609 	0.0020811212 	-0.0010811874 	-9.2588335e-08 	0.0014766699 	1.2355524e-06 	0.00026242562
0.35869565 	0.0020022687 	-0.00094407495 	9.7145773e-07 	0.0014042777 	-5.9583414e-07 	0.0010988933
0.36956522 	0.0019438122 	-0.00080997839 	4.1018488e-08 	0.001348599 	1.7205062e-07 	0.00086167859
0.38043478 	0.0019017152 	-0.0006767595 	1.7548112e-07 	0.0012967145 	7.6241797e-07 	0.00011152447
0.39130435 	0.0018663159 	-0.00056179529 	4.0293768e-09 	0.0012495087 	1.0908868e-08 	0.00091392397
0.40217391 	0.0018427307 	-0.0004412481 	6.5480797e-07 	0.0012161168 	-3.3096248e-07 	0.00091765636
0.41304348 	0.0018298619 	-0.00031299355 	2.6119235e-07 	0.0011882771 	3.4146487e-07 	0.00018697109
0.42391304 	0.0018221647 	-0.00019708403 	1.1191632e-07 	0.0011631258 	1.4334879e-07 	0.00054061878
0.43478261 	0.0018226617 	-8.0987196e-05 	3.3480766e-06 	0.0011445212 	-1.2036814e-06 	0.00081337048
0.44565217 	0.0018314862 	4.0091676e-05 	9.308084e-08 	0.0011314172 	3.8333636e-08 	0.00059035883
0.45652174 	0.0018488114 	0.00016393469 	2.9642834e-07 	0.0011219872 	1.3340671e-07 	0.00011319472
0.4673913 	0.0018676877 	0.00027621398 	8.6798178e-09 	0.001113869 	-8.3058165e-11 	0.00074285999
0.47826087 	0.0018794432 	0.00036534265 	1.7907541e-06 	0.0011244994 	-3.3442142e-07 	0.00075328364
0.48913043 	0.001888846 	0.00044330472 	1.6868334e-07 	0.0011434691 	8.7271216e-10 	0.00044435765
0.5 	0.0018965932 	0.00050904542 	2.9991856e-07 	0.0011715874 	5.2142542e-09 	0.00021687533
0.51086957 	0.0019063813 	0.00056987103 	2.110909e-07 	0.0012015042 	6.616466e-08 	0.00078180732
0.52173913 	0.0019183543 	0.00060965558 	5.1080959e-07 	0.001236588 	1.6300144e-07 	0.00077463892
0.5326087 	0.0019339219 	0.00063519231 	2.0727038e-07 	0.0012754143 	1.2724065e-08 	0.00037802986
0.54347826 	0.0019523589 	0.00065187033 	2.2718383e-07 	0.0013198012 	1.471662e-08 	0.00037113625
0.55434783 	0.00197662 	0.00067063678 	1.0339849e-07 	0.001364544 	2.6558057e-07 	0.00083946784
0.56521739 	0.0020088814 	0.00068902475 	3.1706132e-08 	0.0014052671 	8.0947624e-08 	0.00083336824
0.57608696 	0.0020532477 	0.00070596787 	2.9853249e-07 	0.0014424038 	1.2592101e-07 	0.00012318754
0.58695652 	0.0020968565 	0.00072777189 	3.5280949e-08 	0.0014872254 	1.4819308e-08 	0.00081438656
0.59782609 	0.0021489653 	0.00074690905 	1.3606045e-07 	0.0015259231 	2.5963986e-07 	0.00090094227
0.60869565 	0.0022054086 	0.00076440368 	1.6783553e-07 	0.001561718 	1.2325496e-07 	0.00049981102
0.61956522 	0.0022635663 	0.00078393581 	1.6570416e-07 	0.0016012038 	1.2181977e-07 	0.00054466105
0.63043478 	0.002323475 	0.0008040595 	1.2266533e-07 	0.0016415739 	2.3863056e-07 	0.00096628118
0.64130435 	0.0023876955 	0.00082128665 	9.9977536e-08 	0.0016768695 	9.2921231e-08 	0.00074330442
0.65217391 	0.0024534609 	0.00083890853 	2.4870856e-07 	0.0017132511 	2.3095194e-07 	0.00044542896
0.66304348 	0.0025155698 	0.00086057195 	1.3615848e-07 	0.001756861 	2.7118064e-07 	0.0010277927
0.67391304 	0.0025809437 	0.00087925759 	1.1801336e-07 	0.0017952349 	1.2219433e-07 	0.00077029938
0.68478261 	0.0026452132 	0.00089987663 	2.1074027e-07 	0.0018379405 	2.180299e-07 	0.00060682999
0.69565217 	0.0027006603 	0.00092601694 	2.8511959e-07 	0.0018901942 	5.4074562e-07 	0.00108938
0.70652174 	0.0027561582 	0.00094988694 	2.3502524e-07 	0.0019379582 	2.5816618e-07 	0.00049359092
0.7173913 	0.0028034248 	0.00097978563 	9.6371217e-09 	0.0019999045 	1.0656048e-08 	0.0011297532
0.72826087 	0.0028367741 	0.0010125492 	1.6136275e-07 	0.0020655784 	3.1721327e-07 	0.0011535996
0.73913043 	0.0028681942 	0.0010424673 	2.5515467e-07 	0.0021271327 	2.8238034e-07 	0.0002201596
0.75 	0.0028803857 	0.0010796197 	4.2412623e-07 	0.0022096291 	9.7635078e-07 	0.0012210195
0.76086957 	0.0028880243 	0.001112545 	1.0437546e-07 	0.0022822291 	8.7314235e-08 	0.00053554925
0.77173913 	0.002883381 	0.0011463189 	8.7954539e-08 	0.0023670654 	2.7941612e-07 	0.0012857489
0.7826087 	0.0028693287 	0.0011767631 	1.5467948e-08 	0.002446491 	-4.1868785e-09 	0.0011063686
0.79347826 	0.002853314 	0.0012024731 	1.1511676e-08 	0.0025225732 	-3.1204218e-09 	0.0012028073
0.80434783 	0.0028274213 	0.0012247622 	9.3107187e-09 	0.0025964299 	6.4857949e-08 	0.0013405816
0.81521739 	0.0028050682 	0.0012409925 	1.8553996e-08 	0.0026573251 	-3.1810347e-08 	0.0011105968
0.82608696 	0.0027746036 	0.001253384 	-4.1119124e-09 	0.0027148445 	1.6898712e-08 	0.0013814238
0.83695652 	0.002746724 	0.0012603888 	2.3255551e-09 	0.0027573105 	-4.8721155e-09 	0.0013745938
0.84782609 	0.002713064 	0.00126196 	3.4884888e-08 	0.0027874428 	-6.7257096e-08 	0.0010186601
0.85869565 	0.0026760545 	0.0012592449 	-2.0360718e-07 	0.0028070993 	-2.2903519e-07 	0.001409416
0.86956522 	0.0026350079 	0.0012505775 	1.2612837e-07 	0.0028082821 	-2.2002509e-07 	0.00012909425
0.88043478 	0.0025856876 	0.0012385707 	-2.629742e-07 	0.0028053031 	-4.0653532e-07 	0.0013976792
0.89130435 	0.0025323206 	0.001221431 	3.9617641e-09 	0.0027853002 	-6.6505239e-09 	0.0013353675
0.90217391 	0.0024760007 	0.0012006462 	1.0261321e-07 	0.0027538097 	-1.7996752e-07 	0.00035080225
0.91304348 	0.0024179981 	0.0011794126 	-1.7708265e-07 	0.002722586 	-3.1520871e-07 	0.001343774
0.92391304 	0.0023615931 	0.0011585331 	-2.5875758e-07 	0.0026949206 	-4.0895668e-07 	0.0013165085
0.93478261 	0.00230878 	0.0011400572 	-2.100437e-08 	0.0026781038 	-3.0196619e-08 	0.0012993634
0.94565217 	0.002210163 	0.0011022881 	-5.0189225e-07 	0.0026347732 	-7.2806274e-07 	0.0012703352
0.95652174 	0.0020115362 	0.0010190373 	8.6303242e-08 	0.0025264492 	-3.3046786e-07 	0.00026298643
0.9673913 	0.0016800877 	0.00086335305 	-1.1349393e-07 	0.002224734 	-2.8081612e-07 	0.0010494367
0.97826087 	0.0011412195 	0.00057577048 	2.1289853e-08 	0.0014017553 	-1.7820915e-07 	0.00016359355
0.98913043 	0.00019871299 	8.3900373e-05 	5.9200925e-08 	0.00023075417 	-6.1889881e-08 	1.4602491e-05
