0.47916667 	0.00012072477 	-5.6063429e-05 	-2.4312867e-08 	0.00012041146 	5.2194172e-08 	5.8952163e-05
0.48958333 	7.0393138e-05 	-3.2659584e-05 	-1.5904192e-07 	7.003622e-05 	3.4149828e-07 	8.926893e-06
0.5 	3.7241015e-06 	-1.7809766e-06 	3.3057458e-09 	3.700569e-06 	-6.8447335e-09 	2.4318756e-06
0.51041667 	3.3306973e-07 	-1.3527968e-07 	2.0774215e-09 	3.3115625e-07 	-2.3887993e-09 	1.6014818e-07
0.52083333 	3.7521607e-07 	-1.8335103e-08 	-1.2542051e-10 	3.7494399e-07 	1.8397083e-09 	3.5158648e-08
0.53125 	9.1033684e-07 	1.030668e-08 	7.721857e-12 	9.1143685e-07 	1.5617186e-09 	4.0366565e-07
0.54166667 	2.8716724e-06 	7.0257901e-08 	4.1382506e-10 	2.8775052e-06 	1.2973819e-08 	1.6509758e-06
0.55208333 	1.6802583e-05 	6.1667404e-07 	1.0742621e-08 	1.6852664e-05 	2.2394908e-07 	7.661301e-06
0.5625 	0.00010572556 	5.8732424e-06 	6.5383277e-08 	0.00010627189 	7.7667402e-07 	5.8439125e-05
0.57291667 	0.00038296646 	3.2399535e-05 	2.1373704e-09 	0.00038627263 	1.4025622e-08 	0.00024451692
0.58333333 	0.00070624533 	9.2451915e-05 	1.2352288e-07 	0.00071618772 	4.3075728e-07 	0.00021279143
0.59375 	0.00095835451 	0.00018108085 	3.3071681e-07 	0.00097860903 	7.9745735e-07 	0.00010884782
0.60416667 	0.0011289538 	0.00028608307 	2.3676795e-07 	0.0011622371 	3.3047302e-07 	0.00057765523
0.61458333 	0.0012290845 	0.00039282832 	9.8931166e-07 	0.0012733751 	6.5716387e-07 	0.00065581359
0.625 	0.0012835076 	0.00047998715 	3.1880639e-07 	0.0013357039 	6.3010682e-07 	0.00039255516
0.63541667 	0.0013132606 	0.00054440557 	1.9942146e-07 	0.0013714035 	3.8737752e-07 	0.00053265215
0.64583333 	0.0013325369 	0.00059021232 	2.959987e-07 	0.0013934258 	-1.3368818e-07 	0.00071218788
0.65625 	0.0013346616 	0.00061021094 	6.8735256e-07 	0.0013939396 	1.3449167e-06 	0.00017241414
0.66666667 	0.0013573759 	0.00062104191 	-6.4007294e-08 	0.001418218 	-3.4041411e-08 	0.00072172351
0.67708333 	0.0013693644 	0.00060388075 	1.4868064e-07 	0.0014322298 	3.0914178e-07 	0.00059833134
0.6875 	0.0013986171 	0.00058228198 	-4.5803947e-09 	0.0014649311 	1.537052e-09 	0.00073524572
0.69791667 	0.0014204054 	0.0005447557 	-3.5730328e-08 	0.0014901931 	2.5019479e-08 	0.00075694175
0.70833333 	0.0014558776 	0.00052908772 	4.5222155e-08 	0.0015276588 	9.4754467e-08 	0.00067701854
0.71875 	0.0014831004 	0.00052434833 	1.7515001e-08 	0.0015550649 	9.8174376e-09 	0.00078379697
0.72916667 	0.0015186384 	0.0005507306 	2.3728709e-08 	0.0015877659 	1.3300071e-08 	0.00078385931
0.73958333 	0.0015458343 	0.00060070665 	5.1639986e-08 	0.0016079404 	9.5342252e-08 	0.00066713122
0.75 	0.0015760945 	0.00065849066 	3.1289564e-07 	0.0016317046 	6.2257063e-09 	0.00081214957
0.76041667 	0.0015992469 	0.00071889859 	5.6828225e-08 	0.0016472338 	1.0680514e-07 	0.00053918686
0.77083333 	0.0016219928 	0.00076103548 	1.8678685e-07 	0.0016668429 	-2.1099111e-08 	0.00083448025
0.78125 	0.0016381135 	0.00077265383 	2.0864806e-08 	0.0016834172 	4.5183988e-08 	0.00062821878
0.79166667 	0.0016539226 	0.00077998156 	-4.9425913e-09 	0.0017002686 	-9.8703619e-09 	0.00084725732
0.80208333 	0.0016667355 	0.00078570299 	-1.2586012e-08 	0.0017121478 	-3.1463894e-08 	0.00085803054
0.8125 	0.0016794363 	0.00079102955 	1.8733631e-08 	0.0017217454 	3.974183e-08 	0.00044478778
0.82291667 	0.0016911265 	0.00079621668 	-8.4477599e-08 	0.001731495 	-2.0443026e-07 	0.00086769077
0.83333333 	0.0017012964 	0.00080057473 	1.8841622e-08 	0.001739882 	3.9997974e-08 	0.00038894152
0.84375 	0.0017107166 	0.00080497126 	3.7012786e-09 	0.0017493346 	7.8236998e-09 	0.00077604993
0.85416667 	0.0017190071 	0.00080854561 	-9.2612306e-08 	0.0017561788 	-2.1599002e-07 	0.00088101103
0.86458333 	0.001725675 	0.00081113373 	6.7103605e-09 	0.001760478 	1.4226635e-08 	0.0007053228
0.875 	0.0017292888 	0.00081197397 	2.923807e-08 	0.0017603978 	6.2105106e-08 	0.00012663238
0.88541667 	0.0017289892 	0.00081136317 	4.4183726e-09 	0.001758087 	9.387607e-09 	0.00077387452
0.89583333 	0.0017222683 	0.0008073026 	-7.875234e-08 	0.0017474283 	-1.8153722e-07 	0.0008805775
0.90625 	0.0017070101 	0.00079894681 	-1.7821564e-07 	0.0017269668 	-4.0841541e-07 	0.00087108587
0.91666667 	0.0016803684 	0.00078499493 	-2.4850791e-07 	0.0016939512 	-5.6549598e-07 	0.0008555359
0.92708333 	0.0016389923 	0.00076397458 	-2.3782384e-07 	0.001645392 	-5.355344e-07 	0.00083359809
0.9375 	0.0015802255 	0.00073492834 	-8.4148331e-08 	0.0015797601 	-1.8713503e-07 	0.00080563721
0.94791667 	0.0015055611 	0.00069875931 	2.8509645e-08 	0.001499329 	6.0983086e-08 	0.00029080178
0.95833333 	0.0014318899 	0.00066414587 	2.9538215e-09 	0.0014245224 	6.3479138e-09 	0.00067580274
0.96875 	0.0013956242 	0.00064694633 	6.3060334e-08 	0.0013869225 	1.3598556e-07 	3.1813349e-05
0.97916667 	0.0012504731 	0.00058022161 	-1.832453e-07 	0.0012450588 	-3.9262714e-07 	0.00064459492
0.98958333 	0.00037987933 	0.00017643773 	-4.8735728e-07 	0.00037904011 	-1.0456182e-06 	0.00020396818
