0.43820225 	5.4343086e-05 	-9.2314565e-06 	-2.9771999e-08 	5.6819272e-05 	7.9844408e-08 	3.4366066e-05
0.4494382 	0.0012543015 	-0.00061269728 	1.7727644e-07 	0.0013977911 	-2.2023729e-07 	0.0001737718
0.46067416 	0.0017708486 	-0.00086084999 	-1.1947198e-07 	0.0019474296 	4.4682478e-07 	0.00030217958
0.47191011 	0.0018095098 	-0.0008765645 	-3.616174e-08 	0.0019684821 	1.0632572e-07 	0.00094593683
0.48314607 	0.0017906404 	-0.00086516568 	8.3484294e-08 	0.0019291494 	-2.2628725e-07 	0.0010111101
0.49438202 	0.001765754 	-0.00085020293 	-2.0777032e-07 	0.0018741948 	5.7352039e-07 	0.00025658117
0.50561798 	0.001726055 	-0.00082513465 	-1.6246519e-07 	0.0017732928 	5.0794564e-07 	0.0003738902
0.51685393 	0.0016869579 	-0.00073673636 	-1.5732111e-07 	0.0015841638 	1.5915145e-07 	0.0006760831
0.52808989 	0.0016509145 	-0.0002602893 	-1.3564339e-07 	0.0014404237 	5.7838328e-08 	0.0006578132
0.53932584 	0.0016134958 	0.00013391961 	-4.4545143e-07 	0.0013292752 	1.5267725e-07 	0.00042850341
0.5505618 	0.0015776969 	0.0003427053 	-5.8577059e-07 	0.0012431219 	2.8419327e-07 	3.8308116e-05
0.56179775 	0.0015444588 	0.00044369275 	-4.8835658e-09 	0.0011882555 	3.2410791e-09 	0.00053938522
0.57303371 	0.0015179685 	0.00048033387 	1.9609892e-07 	0.0011555725 	-6.716772e-07 	0.00050783742
0.58426966 	0.001504714 	0.00049615419 	3.1923546e-08 	0.0011284928 	-5.5626902e-07 	0.00047886838
0.59550562 	0.0015050807 	0.000508496 	-1.2850981e-08 	0.0011079066 	3.5485921e-08 	0.00023675836
0.60674157 	0.0015205371 	0.00052943088 	9.3142751e-08 	0.0010965932 	-2.3179937e-07 	0.00044709071
0.61797753 	0.0015438097 	0.00055536768 	3.1337305e-07 	0.001094184 	-2.6131248e-07 	0.00044558317
0.62921348 	0.0015710057 	0.0005842656 	-8.27503e-08 	0.0011010794 	-4.5539019e-09 	3.884882e-05
0.64044944 	0.0016033087 	0.00060726751 	2.1430867e-07 	0.001120266 	6.5518652e-08 	0.0004436381
0.65168539 	0.0016356399 	0.00062593353 	1.971379e-08 	0.0011475491 	4.0324192e-08 	0.00045352084
0.66292135 	0.0016722772 	0.0006436708 	8.6724851e-08 	0.0011815388 	1.7734099e-07 	0.0004529911
0.6741573 	0.0017113748 	0.00066294094 	9.3798618e-08 	0.0012186145 	1.9600547e-07 	0.00047253773
0.68539326 	0.0017535549 	0.00068411734 	1.0425274e-07 	0.0012600893 	2.1785021e-07 	0.00047726397
0.69662921 	0.0017976264 	0.00070715586 	1.2789492e-07 	0.0013057435 	2.8209408e-07 	0.00050529525
0.70786517 	0.0018431785 	0.00073189134 	1.8264736e-07 	0.0013562026 	4.0286132e-07 	0.00051538121
0.71910112 	0.0018907524 	0.00075855235 	6.9951388e-08 	0.0014111909 	1.6283325e-07 	0.00055082764
0.73033708 	0.0019403241 	0.00078667963 	2.8768048e-07 	0.001471113 	6.6968379e-07 	0.00056614705
0.74157303 	0.0019917369 	0.00081616504 	-3.0211951e-10 	0.0015344163 	-1.7012202e-09 	0.00059463994
0.75280899 	0.0020465296 	0.00084692471 	3.0262535e-07 	0.0016020856 	7.3148074e-07 	0.00062889761
0.76404494 	0.0021027625 	0.00087831329 	2.076139e-08 	0.0016714937 	5.1060714e-08 	0.00067899618
0.7752809 	0.0021616892 	0.00091007099 	1.813106e-07 	0.0017423784 	4.4591716e-07 	0.00070332669
0.78651685 	0.0022224575 	0.00094221516 	1.5200484e-07 	0.0018141251 	3.7174872e-07 	0.00076098046
0.79775281 	0.0022847933 	0.00097422293 	4.2270902e-09 	0.0018853339 	-6.0245917e-09 	0.00063618819
0.80898876 	0.002349298 	0.0010065195 	3.7332146e-07 	0.0019569373 	9.1214363e-07 	0.00085375308
0.82022472 	0.0024128484 	0.0010383749 	1.3769189e-08 	0.0020278679 	-1.0056006e-08 	0.00050499563
0.83146067 	0.0024755404 	0.0010671757 	3.0169397e-08 	0.0021015024 	9.9858712e-08 	0.00095412391
0.84269663 	0.0025330164 	0.001091672 	2.5028599e-07 	0.0021754989 	6.9952901e-07 	0.0010203778
0.85393258 	0.0025868425 	0.0011267661 	7.0870036e-10 	0.002244946 	7.364492e-10 	0.0010134785
0.86516854 	0.0026283071 	0.0011552207 	4.1976342e-08 	0.0023113207 	8.0313764e-09 	0.00019959429
0.87640449 	0.0026577612 	0.0011768233 	8.4445379e-10 	0.0023771302 	4.1822542e-10 	0.0011601725
0.88764045 	0.0026679887 	0.0011901348 	-2.8977531e-08 	0.0024290476 	9.4113963e-08 	0.0012238669
0.8988764 	0.0026585856 	0.0011936944 	-1.546041e-07 	0.0024602811 	-1.0454056e-07 	0.0012588962
0.91011236 	0.0026255183 	0.001185164 	-2.8458462e-07 	0.0024632527 	-4.1694661e-07 	0.001282737
0.92134831 	0.0025652052 	0.0011624626 	-3.0176297e-07 	0.00243114 	-5.4257085e-07 	0.0012947447
0.93258427 	0.0024745348 	0.0011243211 	-8.9247904e-08 	0.0023610577 	-1.7438594e-07 	0.0012943486
0.94382022 	0.0023522949 	0.0010702644 	-1.4689102e-09 	0.0022524851 	-3.242801e-08 	0.00044196427
0.95505618 	0.0022101419 	0.0010071798 	-2.7773531e-09 	0.0021240407 	-1.2726018e-08 	0.0010134668
0.96629213 	0.0020624884 	0.00094060097 	-3.5385669e-08 	0.0019854249 	-1.1269035e-07 	5.9667027e-05
0.97752809 	0.0016944183 	0.00077442877 	-1.8531854e-07 	0.0016381395 	-3.9043904e-07 	0.0010130795
0.98876404 	0.0004688524 	0.00021499056 	-4.4331084e-07 	0.00045612006 	-9.3969783e-07 	0.0002967705
