0 	0.77956724 	-5.2944238e-14 	-1.9243829e-20
0.010869565 	0.77902414 	-0.00011980282 	0.00061653727
0.02173913 	0.78517509 	-0.00040086246 	3.052986e-05
0.032608696 	0.80109143 	-0.00012439651 	-0.00013556492
0.043478261 	0.82123534 	0.00021791326 	-0.00013785138
0.054347826 	0.84226981 	0.00055986321 	-5.8432199e-05
0.065217391 	0.8649043 	0.00078996001 	-2.0667421e-05
0.076086957 	0.88468867 	0.00096216246 	-4.0240411e-05
0.086956522 	0.90557303 	0.0010823014 	-6.0153871e-05
0.097826087 	0.92906296 	0.0015231217 	-2.0623306e-05
0.10869565 	0.95717913 	0.0024842222 	-1.462172e-05
0.11956522 	0.9845839 	0.0031675924 	-5.9560312e-06
0.13043478 	1.0181744 	0.0045320957 	-4.4110108e-06
0.14130435 	1.056484 	0.0063203779 	-3.3575699e-05
0.15217391 	1.0935134 	0.0076801059 	4.1291735e-06
0.16304348 	1.1360299 	0.0098415515 	-4.2341261e-05
0.17391304 	1.1748699 	0.011282803 	-3.3346866e-06
0.18478261 	1.2138766 	0.012801091 	-2.5490764e-05
0.19565217 	1.2502067 	0.013768675 	-5.3866904e-07
0.20652174 	1.2819585 	0.014317954 	2.0283936e-06
0.2173913 	1.3127689 	0.014501904 	-6.567099e-06
0.22826087 	1.3358748 	0.014053822 	3.1242578e-05
0.23913043 	1.3590832 	0.013309679 	3.1479145e-06
0.25 	1.3769332 	0.012529316 	2.810526e-05
0.26086957 	1.3932445 	0.011576422 	2.4806151e-05
0.27173913 	1.4079633 	0.010473854 	-2.8497043e-06
0.2826087 	1.4194491 	0.0099222655 	5.9965158e-05
0.29347826 	1.4303965 	0.0084750614 	-5.2019948e-07
0.30434783 	1.4388083 	0.0076582141 	1.2600111e-05
0.31521739 	1.4456039 	0.0069020819 	3.997872e-05
0.32608696 	1.4513512 	0.0054970547 	-1.2750111e-05
0.33695652 	1.4558594 	0.0049026814 	1.2546566e-05
0.34782609 	1.4590669 	0.0042335704 	2.6749484e-05
0.35869565 	1.4610775 	0.0029674238 	-1.2383898e-05
0.36956522 	1.4625314 	0.0024366713 	3.0560972e-06
0.38043478 	1.4630833 	0.00205897 	1.6687858e-05
0.39130435 	1.4622023 	0.00061702668 	-6.8375766e-06
0.40217391 	1.4610107 	7.7947939e-05 	-5.7848564e-06
0.41304348 	1.4597355 	1.1713072e-05 	-1.9908173e-06
0.42391304 	1.45685 	-0.0015745238 	-2.5439974e-07
0.43478261 	1.4536066 	-0.0022785445 	-2.0015362e-05
0.44565217 	1.4504216 	-0.0027576276 	-4.5394407e-06
0.45652174 	1.4471386 	-0.0032575947 	-2.0866851e-05
0.4673913 	1.4424536 	-0.0049905889 	-8.7655516e-06
0.47826087 	1.4380491 	-0.0056697441 	-1.8916201e-05
0.48913043 	1.4339929 	-0.0061464325 	-1.7415114e-05
0.5 	1.429809 	-0.0071749859 	-3.1713363e-05
0.51086957 	1.4244193 	-0.0090078694 	-1.8395246e-05
0.52173913 	1.4194794 	-0.009910248 	-2.1343195e-05
0.5326087 	1.4152765 	-0.010471134 	-3.6731299e-05
0.54347826 	1.410415 	-0.01242208 	-2.8873143e-05
0.55434783 	1.4047874 	-0.014308216 	-3.4873555e-05
0.56521739 	1.3995366 	-0.015508317 	-1.476602e-05
0.57608696 	1.3962554 	-0.01573015 	-0.00010432821
0.58695652 	1.3898352 	-0.01955656 	-1.2473784e-05
0.59782609 	1.3847406 	-0.021114964 	-4.3568854e-05
0.60869565 	1.3806011 	-0.022222109 	-4.9814881e-05
0.61956522 	1.3762805 	-0.025647566 	-2.3307986e-05
0.63043478 	1.3714655 	-0.028171163 	-7.1390719e-05
0.64130435 	1.3669731 	-0.030219905 	-2.821229e-06
0.65217391 	1.3646339 	-0.033222776 	-6.3874157e-05
0.66304348 	1.3590206 	-0.037028863 	-7.9158241e-05
0.67391304 	1.3539541 	-0.039536457 	-8.3950208e-06
0.68478261 	1.3488978 	-0.043819447 	-3.5900767e-05
0.69565217 	1.3392747 	-0.047406022 	-7.7740273e-05
0.70652174 	1.3305202 	-0.048803765 	-0.00013205588
0.7173913 	1.3148936 	-0.055495387 	-2.2670812e-05
0.72826087 	1.2964118 	-0.058438437 	-3.6466392e-05
0.73913043 	1.2767441 	-0.059237054 	-0.00023561974
0.75 	1.2449326 	-0.066484589 	-6.355368e-05
0.76086957 	1.214392 	-0.066843717 	-0.0001864209
0.77173913 	1.1709074 	-0.074277421 	-2.5449645e-05
0.7826087 	1.1254436 	-0.076769594 	-4.3707703e-06
0.79347826 	1.0709999 	-0.081739872 	-8.0700074e-06
0.80434783 	1.0112967 	-0.083952819 	-1.0256803e-05
0.81521739 	0.94461288 	-0.08897424 	-3.6783212e-06
0.82608696 	0.87247703 	-0.090965804 	-7.0244826e-06
0.83695652 	0.79451936 	-0.096195391 	-6.1795305e-06
0.84782609 	0.71302682 	-0.097629128 	-2.4662187e-05
0.85869565 	0.62644268 	-0.10353496 	-1.091894e-05
0.86956522 	0.54435383 	-0.093256937 	-0.0006826479
0.88043478 	0.44831933 	-0.11067871 	-4.8908734e-06
0.89130435 	0.35778958 	-0.1159522 	-4.5388422e-07
0.90217391 	0.27327486 	-0.10380765 	-0.00056555062
0.91304348 	0.18925986 	-0.12098156 	-1.2636655e-06
0.92391304 	0.11486283 	-0.12248782 	-9.7815681e-06
0.93478261 	0.055458385 	-0.12115988 	2.2382107e-05
0.94565217 	0.029882381 	-0.10920054 	0.00020191453
0.95652174 	0.074696785 	-0.073982351 	-0.00055555658
0.9673913 	0.18733661 	-0.066503222 	3.518592e-05
0.97826087 	0.38910812 	-0.031917358 	-0.00032162273
0.98913043 	0.5431362 	-0.0071795009 	-0.00012493373
