0.47777778 	0.3009799 	3.1325709e-05 	-3.0790287e-08
0.48888889 	0.75167541 	0.00030104498 	6.8321768e-07
0.5 	1.1179373 	0.00064122791 	9.6636276e-07
0.51111111 	1.3559975 	0.00098191543 	1.8226958e-06
0.52222222 	1.4744082 	0.0010282042 	-1.8582342e-08
0.53333333 	1.5173771 	0.0012521908 	3.0116815e-06
0.54444444 	1.5320427 	0.0012825389 	-3.394173e-06
0.55555556 	1.5339782 	0.00093458817 	-2.4985557e-06
0.56666667 	1.5298304 	0.00087691332 	-1.328987e-07
0.57777778 	1.5239771 	0.00083855617 	-8.832399e-07
0.58888889 	1.5183097 	0.00072767384 	-2.1818929e-06
0.6 	1.5131366 	0.00061777713 	-1.7452301e-06
0.61111111 	1.5082758 	0.00051991276 	-5.0322111e-07
0.62222222 	1.5034996 	0.00042853129 	-2.5563814e-07
0.63333333 	1.4987703 	0.00034817091 	-1.1174616e-06
0.64444444 	1.4940669 	0.00027228403 	-1.2708759e-06
0.65555556 	1.4894188 	0.00019788702 	-3.1115027e-07
0.66666667 	1.4850307 	0.00012532283 	-1.3223452e-06
0.67777778 	1.4807674 	4.8971188e-05 	-7.7071825e-07
0.68888889 	1.4766751 	-2.9656564e-05 	-3.931246e-07
0.7 	1.4727101 	-0.00010763083 	-1.5742961e-06
0.71111111 	1.4687631 	-0.00018440349 	-7.7464298e-08
0.72222222 	1.464789 	-0.00025919079 	-1.9566183e-06
0.73333333 	1.460753 	-0.00033677472 	-1.1662091e-07
0.74444444 	1.4563739 	-0.0004079636 	-1.6342603e-06
0.75555556 	1.4518876 	-0.00047220213 	-1.3607478e-07
0.76666667 	1.446804 	-0.0005215221 	-1.2223959e-06
0.77777778 	1.4415622 	-0.00057203164 	-3.1076087e-07
0.78888889 	1.4356934 	-0.00062952178 	-1.1652025e-06
0.8 	1.4295893 	-0.00069475381 	-2.5446413e-07
0.81111111 	1.4230304 	-0.00076456536 	-3.8978409e-07
0.82222222 	1.416103 	-0.00082946821 	-1.0843668e-06
0.83333333 	1.4089395 	-0.0008872642 	-6.5502966e-09
0.84444444 	1.4014101 	-0.00092699982 	-1.0918839e-07
0.85555556 	1.3935284 	-0.00097701893 	-9.4678698e-07
0.86666667 	1.3852244 	-0.0010614772 	-9.4047493e-07
0.87777778 	1.3762586 	-0.0011368474 	-6.9100193e-08
0.88888889 	1.3660957 	-0.0011663138 	-1.1807357e-07
0.9 	1.3536975 	-0.001201213 	-2.0580658e-07
0.91111111 	1.3372119 	-0.0012451683 	-1.9670635e-07
0.92222222 	1.3128535 	-0.0012510168 	-7.8828452e-08
0.93333333 	1.2720967 	-0.0012119221 	4.0714331e-07
0.94444444 	1.2007023 	-0.0010993773 	2.2251628e-06
0.95555556 	1.0814931 	-0.00089586935 	1.205473e-07
0.96666667 	0.89204955 	-0.00063428082 	2.1084992e-06
0.97777778 	0.62517891 	-0.0003408249 	5.2703934e-07
0.98888889 	0.3101156 	-2.515013e-05 	-1.0398064e-07
