0.2974940496 	0.003541566843 	-0.007766924659 	5.538539032e-07 	-0.003532680856 	1.132476339e-06 	-6.734271568e-06
0.2977032251 	0.003527098494 	-0.007743107209 	5.657172142e-07 	-0.003517858176 	1.165926422e-06 	-6.706015422e-06
0.2979124097 	0.003507211733 	-0.007702066533 	5.727294581e-07 	-0.003495223152 	1.19386355e-06 	-6.662866776e-06
0.2981216023 	0.003486715017 	-0.007658161763 	5.781993963e-07 	-0.003472604916 	1.220599746e-06 	-6.61975013e-06
0.2983308017 	0.003463597646 	-0.007609451694 	5.819764155e-07 	-0.003447007234 	1.245160245e-06 	-6.570953834e-06
0.2985400069 	0.003436961615 	-0.007552737033 	5.83691011e-07 	-0.003417992977 	1.267223296e-06 	-6.515644597e-06
0.2987492165 	0.003406027148 	-0.007486153801 	5.838274981e-07 	-0.003384794527 	1.286622576e-06 	-6.452359124e-06
0.2989584294 	0.003371216004 	-0.007410784026 	5.838713116e-07 	-0.00334769829 	1.303931547e-06 	-6.381643385e-06
0.2991676445 	0.00333449906 	-0.007331307236 	5.859106299e-07 	-0.00330844368 	1.320579878e-06 	-6.306813189e-06
0.2993768607 	0.003298913105 	-0.0072545901 	5.919295809e-07 	-0.003269892781 	1.338458653e-06 	-6.23332446e-06
0.2995860767 	0.003267458737 	-0.007187099927 	6.03518945e-07 	-0.003235009356 	1.359408684e-06 	-6.166826957e-06
0.2997952915 	0.00324216049 	-0.007132896105 	6.219096042e-07 	-0.003205906143 	1.386100957e-06 	-6.111348143e-06
0.3000045038 	0.003224151675 	-0.007092711819 	6.475268201e-07 	-0.003184367546 	1.422470134e-06 	-6.070289592e-06
0.3002137125 	0.00321198898 	-0.00706604334 	6.896598358e-07 	-0.003167869898 	1.455915289e-06 	-6.03884049e-06
0.3004229164 	0.003204124757 	-0.007053139084 	7.357703927e-07 	-0.003153420665 	1.484080468e-06 	-6.011296235e-06
0.3006321145 	0.003188969848 	-0.007019935589 	6.332833884e-07 	-0.003133090622 	1.477530493e-06 	-5.972541523e-06
0.3008413056 	0.003162478586 	-0.006955665751 	5.060295399e-07 	-0.003103642079 	1.455108779e-06 	-5.916404415e-06
0.3010504885 	0.00313278592 	-0.00688773068 	4.884830605e-07 	-0.003069274511 	1.445810853e-06 	-5.850890279e-06
0.3012596621 	0.003101606382 	-0.00681861132 	4.521841229e-07 	-0.003032233475 	1.439520456e-06 	-5.780279769e-06
0.3014688252 	0.003070187877 	-0.006747033716 	4.041019634e-07 	-0.002995372082 	1.440543349e-06 	-5.710011709e-06
0.3016779767 	0.003038179509 	-0.006673245748 	3.481177677e-07 	-0.002957966291 	1.431858302e-06 	-5.638705874e-06
0.3018871155 	0.00300538437 	-0.006597228479 	2.811537611e-07 	-0.002919691573 	1.418133873e-06 	-5.565743624e-06
0.3020962405 	0.002971771585 	-0.006518887178 	2.022927384e-07 	-0.002880567814 	1.399472238e-06 	-5.491162865e-06
0.3023053504 	0.002937313995 	-0.006438135951 	1.105144336e-07 	-0.002840623221 	1.375362011e-06 	-5.415017369e-06
0.3025144442 	0.002901967413 	-0.006354885089 	4.735548315e-09 	-0.002799860152 	1.345198008e-06 	-5.337311632e-06
0.3027235208 	0.002865677991 	-0.006269038801 	-1.16182443e-07 	-0.002758269405 	1.308389108e-06 	-5.258028108e-06
0.3029325789 	0.002828390854 	-0.006180511706 	-2.492220809e-07 	-0.002715840003 	1.242849789e-06 	-5.177145874e-06
0.3031416175 	0.002790052206 	-0.006089215123 	-3.857333546e-07 	-0.00267257084 	1.147246802e-06 	-5.094662824e-06
0.3033506355 	0.00275057664 	-0.005994918971 	-5.27997862e-07 	-0.002628466004 	1.049411363e-06 	-5.010586749e-06
0.3035596318 	0.002709946755 	-0.005897758096 	-6.763080313e-07 	-0.002583510005 	9.489146713e-07 	-4.92488812e-06
0.3037686051 	0.002662721734 	-0.005785049094 	-8.539834692e-07 	-0.002531643872 	8.33423897e-07 	-4.826016853e-06
0.3040932534 	0.002600757474 	-0.005637593563 	-1.081313811e-06 	-0.002464496206 	6.778169301e-07 	-4.69801474e-06
0.3044239396 	0.002527217492 	-0.005462843136 	-1.346530369e-06 	-0.002386166485 	5.011422727e-07 	-4.548696522e-06
0.3047607701 	0.002447602792 	-0.005274645543 	-1.616743042e-06 	-0.00230267086 	3.171583416e-07 	-4.389530654e-06
0.3051038528 	0.002361600454 	-0.005073084511 	-1.874806589e-06 	-0.002213587018 	1.308948879e-07 	-4.219712091e-06
0.3054532974 	0.002269128687 	-0.004858472492 	-2.119250239e-06 	-0.002118784866 	-5.484739373e-08 	-4.038992841e-06
0.3058092146 	0.002169971148 	-0.004630719245 	-2.3534009e-06 	-0.002018048704 	-2.379536836e-07 	-3.846961718e-06
0.306171717 	0.002063888378 	-0.004389570078 	-2.568651796e-06 	-0.001911199154 	-4.140234953e-07 	-3.643276778e-06
0.3065409184 	0.001950841598 	-0.004135244942 	-2.753255453e-06 	-0.001798230242 	-5.781338186e-07 	-3.427926634e-06
0.306916934 	0.001831027684 	-0.003868500654 	-2.897379355e-06 	-0.001679326561 	-7.251940333e-07 	-3.20126317e-06
0.3072998807 	0.001704890516 	-0.003590584806 	-2.991819563e-06 	-0.001554886715 	-8.499009889e-07 	-2.964046237e-06
0.3076898765 	0.001573159433 	-0.00330329214 	-3.027867246e-06 	-0.001425560604 	-9.468868529e-07 	-2.717514725e-06
0.3080870409 	0.001436900412 	-0.003009051341 	-2.998079083e-06 	-0.001292300162 	-1.011099454e-06 	-2.463483284e-06
0.3084914948 	0.001297560298 	-0.0027109952 	-2.897382461e-06 	-0.001156404479 	-1.038510936e-06 	-2.204428343e-06
0.3089033604 	0.00115698821 	-0.002412992918 	-2.724254284e-06 	-0.001019535342 	-1.02683307e-06 	-1.943517727e-06
0.3093227611 	0.001017448334 	-0.002119668951 	-2.480489337e-06 	-0.0008837271318 	-9.750894691e-07 	-1.684629532e-06
0.3097498216 	0.0008815046946 	-0.001836060499 	-2.184234063e-06 	-0.0007513176934 	-8.877714862e-07 	-1.432220342e-06
0.310184668 	0.0007520295927 	-0.001567606201 	-1.853536258e-06 	-0.0006249580194 	-7.77371477e-07 	-1.191343683e-06
0.3106274272 	0.0006314007128 	-0.001319310363 	-1.499436244e-06 	-0.0005066204403 	-6.543241279e-07 	-9.657593671e-07
0.3110782274 	0.0005214328967 	-0.001095494903 	-1.190919524e-06 	-0.0003977955207 	-5.262269842e-07 	-7.583088241e-07
0.311537198 	0.0004213144921 	-0.0008924976156 	-9.45404552e-07 	-0.0002997991348 	-3.990663817e-07 	-5.715004758e-07
0.3120044692 	0.0003291566783 	-0.0007032449904 	-6.789020079e-07 	-0.0002138036734 	-2.776940806e-07 	-4.075692251e-07
0.3124801721 	0.0002483978258 	-0.0005364116874 	-4.177260353e-07 	-0.0001414367776 	-1.762186699e-07 	-2.696178085e-07
0.3129644388 	0.000182204676 	-0.0004014699443 	-2.236827861e-07 	-8.222017403e-05 	-9.867052378e-08 	-1.567345036e-07
0.313457402 	0.0001294052082 	-0.0002950357987 	-9.219509711e-08 	-3.446853202e-05 	-4.223710937e-08 	-6.570660205e-08
0.3139606955 	8.773902395e-05 	-0.0002111739792 	-7.307970067e-09 	3.578869363e-06 	-3.554353463e-09 	6.822319701e-09
0.3140196842 	8.411867383e-05 	-0.0002039290848 	3.253605803e-07 	6.960990418e-06 	1.511922572e-07 	1.326958244e-08
0.3144864039 	5.538160616e-05 	-0.0001464496409 	-6.001676161e-08 	3.381506066e-05 	-2.820901698e-08 	6.446090404e-08
0.3150214844 	3.077288938e-05 	-9.769477068e-05 	-9.445388079e-08 	5.763552372e-05 	-4.839443115e-08 	1.098693272e-07
0.3155662914 	1.254457271e-05 	-6.19885032e-05 	-1.042043633e-07 	7.611055155e-05 	-5.967876466e-08 	1.450878651e-07
0.3161209968 	-7.934243367e-07 	-3.625383125e-05 	-9.89478166e-08 	9.046478199e-05 	-6.542495086e-08 	1.724510179e-07
0.3166857751 	-1.050828693e-05 	-1.789272242e-05 	-8.631505412e-08 	0.0001017383032 	-6.835667852e-08 	1.939414826e-07
0.3172608041 	-1.7610725e-05 	-4.841425547e-06 	-7.13961727e-08 	0.0001107706038 	-7.043091498e-08 	2.111595579e-07
0.3178462644 	-2.28672811e-05 	4.458807204e-06 	-5.703351329e-08 	0.0001182140709 	-7.288941348e-08 	2.25348875e-07
0.3184423396 	-2.683851351e-05 	1.114185093e-05 	-4.449229455e-08 	0.0001245560594 	-7.635315029e-08 	2.374384677e-07
0.3190492165 	-2.992372378e-05 	1.601162176e-05 	-3.41056505e-08 	0.0001301501922 	-8.105172486e-08 	2.481024397e-07
0.3196670849 	-3.240261543e-05 	1.96294453e-05 	-2.575711075e-08 	0.0001352477653 	-8.699785908e-08 	2.578198308e-07
0.320296138 	-3.446965084e-05 	2.238404897e-05 	-1.915480718e-08 	0.0001400267522 	-9.413735297e-08 	2.669299082e-07
0.3209365718 	-3.625979526e-05 	2.454355017e-05 	-1.396877563e-08 	0.0001446143252 	-1.023994594e-07 	2.756750972e-07
0.3215885862 	-3.786693937e-05 	2.629286521e-05 	-9.897140508e-09 	0.0001491024792 	-1.117123067e-07 	2.842307663e-07
0.3222523839 	-3.935670568e-05 	2.776002326e-05 	-6.688767524e-09 	0.0001535577745 	-1.219991995e-07 	2.927237974e-07
0.3229281712 	-4.077490584e-05 	2.903384799e-05 	-4.136726361e-09 	0.0001580264677 	-1.331617083e-07 	3.012423687e-07
0.3236161579 	-4.215353546e-05 	3.01759724e-05 	-2.075344144e-09 	0.000162540493 	-1.451298185e-07 	3.098473555e-07
0.3243165573 	-4.351513435e-05 	3.122954652e-05 	-3.824625191e-10 	0.0001671229641 	-1.578467662e-07 	3.18582819e-07
0.3250295861 	-4.487468357e-05 	3.222574642e-05 	1.004875369e-09 	0.0001717864276 	-1.711119738e-07 	3.274726765e-07
0.3257554648 	-4.624268766e-05 	3.318608892e-05 	2.06812328e-09 	0.0001765341489 	-1.805110906e-07 	3.365231529e-07
0.3264944175 	-4.762513103e-05 	3.41154307e-05 	2.778225655e-09 	0.0001813662643 	-1.71221871e-07 	3.457345079e-07
0.3272466721 	-4.902732295e-05 	3.500835674e-05 	3.395041132e-09 	0.0001863209746 	-1.624781265e-07 	3.551795628e-07
0.3280124601 	-5.046328887e-05 	3.587011154e-05 	3.788983083e-09 	0.0001914744413 	-1.552090621e-07 	3.650035026e-07
0.3287920171 	-5.193383523e-05 	3.671805424e-05 	3.993763267e-09 	0.0001968057278 	-1.475502097e-07 	3.751664165e-07
0.3295855824 	-5.344267802e-05 	3.757375795e-05 	4.025979171e-09 	0.000202278391 	-1.385892889e-07 	3.855988335e-07
0.3304044215 	-5.500567958e-05 	3.843974912e-05 	3.837702477e-09 	0.0002079195016 	-1.28512969e-07 	3.963523582e-07
0.3312516186 	-5.664203862e-05 	3.932318692e-05 	3.535829555e-09 	0.0002138343841 	-1.165224603e-07 	4.076277683e-07
0.3321139468 	-5.835315318e-05 	4.022577012e-05 	3.261457116e-09 	0.0002200563169 	-1.02440103e-07 	4.194885015e-07
0.3329916665 	-6.01104399e-05 	4.112724112e-05 	2.973257198e-09 	0.0002264251421 	-8.76124914e-08 	4.316292524e-07
0.3338850422 	-6.190419729e-05 	4.202962189e-05 	2.668289422e-09 	0.0002328783836 	-7.259252913e-08 	4.439309243e-07
0.3347943428 	-6.373708697e-05 	4.293438065e-05 	2.308150027e-09 	0.0002394569817 	-5.705657764e-08 	4.564715608e-07
0.3357198416 	-6.561277584e-05 	4.383178218e-05 	1.811759881e-09 	0.0002461933341 	-4.081326458e-08 	4.693129206e-07
0.3366618167 	-6.75405843e-05 	4.471448427e-05 	1.148939534e-09 	0.000253132739 	-2.37591284e-08 	4.825413551e-07
0.3376205503 	-6.952942658e-05 	4.55759588e-05 	3.055948943e-10 	0.0002603394263 	-5.836127422e-09 	4.962793041e-07
0.3379264957 	-7.017933339e-05 	4.583260752e-05 	9.096452755e-09 	0.0002627229597 	9.960847435e-08 	5.008229813e-07
0.338594552 	-7.160416794e-05 	4.639349637e-05 	6.236563817e-10 	0.0002679475817 	-1.257635154e-08 	5.107825629e-07
0.3395850516 	-7.411105711e-05 	4.731523683e-05 	1.742583457e-09 	0.0002771735693 	-3.188284321e-08 	5.283698595e-07
0.3411037153 	-7.723245479e-05 	4.85215426e-05 	3.806913649e-09 	0.0002884635955 	-6.25704556e-08 	5.498917873e-07
0.3426370071 	-8.060552126e-05 	4.995348093e-05 	6.386880637e-09 	0.0003003239463 	-9.497127751e-08 	5.725009124e-07
0.3441850697 	-8.400088663e-05 	5.153602763e-05 	9.50071585e-09 	0.000311955691 	-1.288518456e-07 	5.946742507e-07
0.3457480479 	-8.747429687e-05 	5.323241179e-05 	1.321477687e-08 	0.0003236188344 	-1.641279829e-07 	6.169074435e-07
0.3473669816 	-9.106808471e-05 	5.50542729e-05 	1.767928569e-08 	0.00033543723 	-2.016322854e-07 	6.394365903e-07
0.3490055772 	-9.474276358e-05 	5.702149157e-05 	2.288672038e-08 	0.0003472796876 	-2.404143167e-07 	6.620116059e-07
0.3506597448 	-9.847843555e-05 	5.912411851e-05 	2.885265182e-08 	0.0003590806628 	-2.802120646e-07 	6.845075446e-07
0.3523296368 	-0.0001022833785 	6.137199354e-05 	2.797217573e-08 	0.0003708485179 	-2.521719368e-07 	7.069403472e-07
0.3540154081 	-0.000106156239 	6.377794371e-05 	2.610538437e-08 	0.0003825691943 	-2.193477556e-07 	7.292832139e-07
0.3557172157 	-0.0001100972794 	6.635258721e-05 	2.355242773e-08 	0.0003942346108 	-1.851569661e-07 	7.515207401e-07
0.3574352186 	-0.0001141115432 	6.909903434e-05 	2.028595148e-08 	0.0004058506922 	-1.497643256e-07 	7.736642198e-07
0.3591695786 	-0.0001181923111 	7.203032058e-05 	1.629130853e-08 	0.0004174042055 	-1.133473366e-07 	7.956884271e-07
0.3609204596 	-0.0001223619447 	7.514976636e-05 	1.156408935e-08 	0.0004289652211 	-7.606562149e-08 	8.177269362e-07
0.3627191701 	-0.0001266617565 	7.847511502e-05 	5.986904506e-09 	0.0004406264411 	-3.732416764e-08 	8.399564624e-07
0.3644419757 	-0.000130804196 	8.180308194e-05 	7.77989546e-09 	0.0004516166576 	2.69402183e-08 	8.609068697e-07
0.3645511443 	-0.00013106772 	8.201426995e-05 	3.685693346e-10 	0.0004523159234 	-2.324211048e-09 	8.622398647e-07
0.3663965782 	-0.000135553761 	8.57132647e-05 	6.915359039e-09 	0.0004639883292 	-4.15382412e-08 	8.844907144e-07
0.3682594268 	-0.0001401215141 	8.955300371e-05 	1.416502431e-08 	0.0004756859322 	-8.133782799e-08 	9.067895968e-07
0.3701398671 	-0.0001447902061 	9.351309497e-05 	2.212615573e-08 	0.0004875170568 	-1.220593813e-07 	9.293430086e-07
0.3720380791 	-0.0001495938331 	9.756846799e-05 	3.080812949e-08 	0.0004996489035 	-1.644493458e-07 	9.524696802e-07
0.3739542458 	-0.0001545776299 	0.0001017055586 	4.020967947e-08 	0.0005123050403 	-2.098128139e-07 	9.765957946e-07
0.3758885531 	-0.0001598277318 	0.0001059159295 	5.030211956e-08 	0.0005258454254 	-2.601483958e-07 	1.002407532e-06
0.3778638087 	-0.0001654970058 	0.0001102143975 	6.111086484e-08 	0.0005408072985 	-3.187265072e-07 	1.030929021e-06
0.379884383 	-0.000171718451 	0.0001146411249 	6.369611329e-08 	0.0005576880956 	-3.416714519e-07 	1.063108512e-06
0.3819238389 	-0.0001786116525 	0.0001192039655 	5.619679003e-08 	0.0005769800694 	-3.163216772e-07 	1.099884376e-06
0.3839823744 	-0.0001863687734 	0.0001239312812 	4.787673798e-08 	0.0005993624735 	-2.882073861e-07 	1.142551459e-06
0.3860601911 	-0.000195233445 	0.0001289081077 	3.885749643e-08 	0.0006256356798 	-2.545495982e-07 	1.192635492e-06
0.3881574941 	-0.0002054855268 	0.0001342510116 	2.933735495e-08 	0.000656675339 	-2.124515638e-07 	1.25180571e-06
0.390274492 	-0.0002174489983 	0.0001401412494 	1.952206568e-08 	0.0006934376599 	-1.586399559e-07 	1.321884911e-06
0.3924170564 	-0.0002315666814 	0.0001468461376 	9.549828576e-09 	0.0007371333322 	-8.876510128e-08 	1.405181007e-06
0.3945853924 	-0.0002478592277 	0.0001547114998 	5.357763216e-09 	0.0007875420471 	3.79291072e-08 	1.501274028e-06
0.3946244435 	-0.0002481524869 	0.0001548527497 	1.402991493e-10 	0.0007884491476 	-1.730973776e-09 	1.503003213e-06
0.3968485406 	-0.0002679709275 	0.0001656290309 	4.592011451e-09 	0.0008481025602 	-1.126859311e-07 	1.616719198e-06
0.3990933791 	-0.0002856113768 	0.0001774309402 	1.414073622e-08 	0.0008957253479 	-1.535184047e-07 	1.707501467e-06
0.4013591875 	-0.0002962079961 	0.0001874324078 	3.873184541e-08 	0.0009160121082 	-8.473158644e-08 	1.746173671e-06
0.4036461983 	-0.0003033616334 	0.0001962301439 	6.028273439e-08 	0.0009243948631 	-9.452542536e-08 	1.762153531e-06
0.4059546488 	-0.0003097446422 	0.0002040503268 	9.249104738e-08 	0.0009318134144 	-1.192626441e-07 	1.776295352e-06
0.4083080945 	-0.0003155424603 	0.0002106954341 	1.275256651e-07 	0.000938677575 	-1.436547812e-07 	1.78938035e-06
0.4107109084 	-0.0003209111986 	0.0002165776746 	1.62474731e-07 	0.0009449183146 	-1.668733676e-07 	1.801276934e-06
0.4131360043 	-0.0003258960085 	0.0002219378843 	1.625040093e-07 	0.0009504676097 	-1.558013701e-07 	1.811855433e-06
0.4155836376 	-0.0003305593311 	0.0002269038763 	1.439791035e-07 	0.0009553409519 	-1.307358912e-07 	1.821145378e-06
0.418054069 	-0.0003349608558 	0.0002316015677 	1.224181962e-07 	0.0009595828368 	-1.063353082e-07 	1.829231589e-06
0.4205475644 	-0.0003391476911 	0.0002361022316 	9.880632442e-08 	0.0009632608344 	-8.269857551e-08 	1.836242875e-06
0.4230837798 	-0.0003431837148 	0.0002404453597 	7.350506204e-08 	0.0009664652358 	-5.960259269e-08 	1.842351355e-06
0.4256746989 	-0.0003471003943 	0.0002447018723 	4.675350839e-08 	0.0009692468275 	-3.68890319e-08 	1.847653842e-06
0.4282895784 	-0.0003508908373 	0.0002488715103 	1.916137296e-08 	0.0009716469047 	-1.476848419e-08 	1.852229056e-06
0.430085928 	-0.000353396342 	0.0002516247758 	2.585010435e-08 	0.0009730671122 	-4.717661185e-08 	1.854936366e-06
0.4309275931 	-0.0003545732364 	0.0002529124396 	8.820311971e-09 	0.0009737306871 	-6.900667973e-09 	1.856201324e-06
0.4335878205 	-0.0003581646432 	0.0002568700933 	3.674802485e-08 	0.0009755369986 	-2.822671613e-08 	1.859644656e-06
0.4362729455 	-0.000361694763 	0.0002607413454 	6.513714305e-08 	0.0009771404782 	-4.925380926e-08 	1.862701334e-06
0.4390226095 	-0.0003652069189 	0.0002645685093 	9.436096556e-08 	0.0009785869401 	-7.038765814e-08 	1.865458692e-06
0.4418080164 	-0.0003686917426 	0.0002684013904 	1.239710735e-07 	0.0009798824818 	-9.14086644e-08 	1.867928355e-06
0.4446192947 	-0.0003721434922 	0.0002721806818 	1.537700973e-07 	0.0009810657261 	-1.122608894e-07 	1.870183947e-06
0.447456771 	-0.0003755702643 	0.0002759367268 	1.837061897e-07 	0.0009821516731 	-1.329844023e-07 	1.872254064e-06
0.4503207787 	-0.000378989895 	0.0002796627077 	2.137294395e-07 	0.0009831708421 	-1.535991188e-07 	1.874196883e-06
0.4532413803 	-0.0003824340196 	0.0002833844336 	1.947065203e-07 	0.0009841453139 	-1.390449082e-07 	1.876054497e-06
0.4562076383 	-0.0003858977712 	0.0002871527127 	1.669665568e-07 	0.0009850660521 	-1.185927297e-07 	1.87780968e-06
0.4592014673 	-0.0003893686925 	0.0002909219317 	1.391003567e-07 	0.0009859499443 	-9.834712558e-08 	1.879494624e-06
0.4622232313 	-0.000392843964 	0.0002947087039 	1.111564046e-07 	0.0009867966344 	-7.828679158e-08 	1.881108651e-06
0.4652733019 	-0.0003963422275 	0.0002984930389 	8.316802979e-08 	0.0009876292029 	-5.838495585e-08 	1.882695758e-06
0.4683888986 	-0.0003998895563 	0.0003023139098 	5.478426837e-08 	0.0009884515549 	-3.835219441e-08 	1.884263389e-06
0.4715430232 	-0.0004034693887 	0.0003062109458 	2.638434542e-08 	0.0009892439004 	-1.843055848e-08 	1.88577382e-06
0.4745135296 	-0.0004068259857 	0.0003098702239 	3.492736911e-09 	0.0009899672848 	-1.582251701e-08 	1.887152792e-06
0.4747263845 	-0.0004070668328 	0.0003101313251 	1.836748718e-09 	0.0009900185105 	-1.322541919e-09 	1.887250442e-06
0.4779369786 	-0.0004106893977 	0.0003140606276 	2.904745067e-08 	0.0009907728386 	-2.089487815e-08 	1.888688401e-06
0.4811902733 	-0.0004143553798 	0.0003180183912 	5.620136781e-08 	0.0009915246127 	-4.040454368e-08 	1.890121492e-06
0.4845059799 	-0.0004180711832 	0.0003220552896 	8.342038306e-08 	0.0009922586447 	-5.99630458e-08 	1.891520761e-06
0.487852787 	-0.000421816604 	0.000326160434 	1.103422687e-07 	0.0009929680655 	-7.934113942e-08 	1.892873114e-06
0.4912311382 	-0.0004255803328 	0.0003303144947 	1.369508518e-07 	0.000993653721 	-9.854856347e-08 	1.894180164e-06
0.4946429456 	-0.0004293836165 	0.0003344973393 	1.63234682e-07 	0.0009943334293 	-1.175982496e-07 	1.895475877e-06
0.498127308 	-0.0004332424362 	0.0003387624046 	1.894965129e-07 	0.0009949932828 	-1.367232278e-07 	1.896733741e-06
0.5016444901 	-0.0004371320299 	0.0003431294574 	2.152967553e-07 	0.0009956108973 	-1.556573233e-07 	1.897911086e-06
0.5051949766 	-0.0004410377596 	0.0003475535656 	2.037059413e-07 	0.0009961947177 	-1.476410064e-07 	1.89902401e-06
0.508780257 	-0.0004449807143 	0.0003520191769 	1.790936032e-07 	0.0009967594034 	-1.301767942e-07 	1.900100458e-06
0.5124376631 	-0.0004489739753 	0.0003565787163 	1.545432495e-07 	0.0009972880155 	-1.126990899e-07 	1.901108139e-06
0.5161297417 	-0.0004529908617 	0.0003612599576 	1.304467069e-07 	0.0009977526727 	-9.549402535e-08 	1.901993905e-06
0.5198570229 	-0.0004570234663 	0.0003660002396 	1.068219565e-07 	0.0009981724337 	-7.85344327e-08 	1.902794086e-06
0.523628147 	-0.0004610901661 	0.0003708071193 	8.361336411e-08 	0.0009985499194 	-6.176247706e-08 	1.903513679e-06
0.527463351 	-0.0004651922142 	0.0003757291167 	6.073904565e-08 	0.0009988620991 	-4.510014283e-08 	1.90410878e-06
0.5313352305 	-0.0004693054811 	0.000380776295 	3.846990473e-08 	0.0009990886668 	-2.873102599e-08 	1.904540681e-06
0.5352443644 	-0.0004734333826 	0.0003858870867 	1.681848142e-08 	0.0009992543253 	-1.263964182e-08 	1.904856472e-06
0.5383963734 	-0.0004767347748 	0.0003900275797 	1.660108113e-08 	0.0009993269826 	-6.190154582e-08 	1.904994977e-06
0.5392111012 	-0.0004775885371 	0.0003910942468 	4.176409508e-09 	0.000999344612 	-3.260479852e-09 	1.905028584e-06
0.5432275581 	-0.0004817558377 	0.0003964314069 	2.393900175e-08 	0.0009993272906 	-1.882495438e-08 	1.904995565e-06
0.5472829419 	-0.0004859220787 	0.0004018747447 	4.296692873e-08 	0.0009992104132 	-3.405208113e-08 	1.904772764e-06
0.5513827524 	-0.0004900971406 	0.0004074078062 	6.128061881e-08 	0.0009990017361 	-4.897040729e-08 	1.904374967e-06
0.5555477881 	-0.0004942795978 	0.0004130818079 	7.893346039e-08 	0.0009986721828 	-6.363845707e-08 	1.903746747e-06
0.5597534302 	-0.0004984462638 	0.0004189098606 	9.572426252e-08 	0.0009981987063 	-7.791466146e-08 	1.902844169e-06
0.5640003478 	-0.0005026027493 	0.0004248290591 	1.116492144e-07 	0.0009976088486 	-9.179570934e-08 	1.901719736e-06
0.5683125441 	-0.0005067516823 	0.0004308883249 	1.26791549e-07 	0.0009968749749 	-1.05361801e-07 	1.900320769e-06
0.5726708226 	-0.0005108687485 	0.0004371262129 	1.409719053e-07 	0.0009959602599 	-1.184879038e-07 	1.898577068e-06
0.5770721925 	-0.0005149557899 	0.0004434726571 	1.541758216e-07 	0.0009948943548 	-1.311479006e-07 	1.896545157e-06
0.5815342978 	-0.000519012553 	0.0004499638858 	1.664542333e-07 	0.0009936531044 	-1.43391524e-07 	1.894178989e-06
0.5860479421 	-0.0005230168862 	0.0004566445601 	1.776851283e-07 	0.0009921961467 	-1.551328309e-07 	1.891401622e-06
0.5906065957 	-0.0005269684071 	0.00046345293 	1.878468218e-07 	0.0009905484371 	-1.663286184e-07 	1.88826063e-06
0.5952251617 	-0.0005308626768 	0.0004704161108 	1.786135906e-07 	0.0009886872923 	-1.605072958e-07 	1.884712771e-06
0.5998973013 	-0.0005346775756 	0.000477577207 	1.647932617e-07 	0.0009865713219 	-1.504180859e-07 	1.880679143e-06
0.6046164761 	-0.0005384125919 	0.0004848778546 	1.51733751e-07 	0.0009842242842 	-1.407790685e-07 	1.876205037e-06
0.6093972599 	-0.0005420580938 	0.0004923474793 	1.393717641e-07 	0.0009816185738 	-1.315422642e-07 	1.871237828e-06
0.6142314654 	-0.0005455914323 	0.0005000194251 	1.277806604e-07 	0.0009787159898 	-1.227948282e-07 	1.865704697e-06
0.6191148444 	-0.0005490128474 	0.0005078367522 	1.169585684e-07 	0.0009755408207 	-1.145289929e-07 	1.859651942e-06
0.6240630691 	-0.0005523054504 	0.0005158414406 	1.068508848e-07 	0.0009720532869 	-1.067116241e-07 	1.853003733e-06
0.6290633844 	-0.000555450182 	0.0005240408877 	9.751968002e-08 	0.000968230639 	-9.942398965e-08 	1.845716704e-06
0.6341176252 	-0.0005584434692 	0.0005323948606 	8.892415319e-08 	0.000964087194 	-9.263349893e-08 	1.837818146e-06
0.6392357207 	-0.0005612546041 	0.0005409287063 	8.105118517e-08 	0.0009595868681 	-8.634925494e-08 	1.829239274e-06
0.6443496457 	-0.0005638547935 	0.0005495384907 	7.398298818e-08 	0.0009547792875 	-8.066974284e-08 	1.820074689e-06
0.6494093653 	-0.0005662196169 	0.0005581388929 	6.769537458e-08 	0.00094971294 	-7.558835195e-08 	1.810416823e-06
0.6544153788 	-0.000568325221 	0.0005667337332 	6.215461528e-08 	0.0009443664856 	-7.109763819e-08 	1.800224995e-06
0.6593628846 	-0.0005701833568 	0.0005752773066 	5.729099879e-08 	0.0009387776305 	-6.715615259e-08 	1.789571084e-06
0.6642601772 	-0.0005717952381 	0.0005837890005 	5.30169926e-08 	0.000932949819 	-6.371310829e-08 	1.778461655e-06
0.6691026176 	-0.0005731569172 	0.0005922761162 	4.930132452e-08 	0.0009268770845 	-6.076988951e-08 	1.766885335e-06
0.6738891066 	-0.0005742817271 	0.0006006959729 	4.607084674e-08 	0.0009205981387 	-5.826703462e-08 	1.754915919e-06
0.6786277074 	-0.0005751602225 	0.0006090761673 	4.326253622e-08 	0.0009140942134 	-5.616212088e-08 	1.74251763e-06
0.6833120008 	-0.0005757945253 	0.0006174115745 	4.084530387e-08 	0.0009073716399 	-5.444674622e-08 	1.729702537e-06
0.6879431659 	-0.0005761956658 	0.0006256727598 	3.87559347e-08 	0.0009004619788 	-5.306247058e-08 	1.716530802e-06
0.6925268012 	-0.0005763541736 	0.0006338880582 	3.695198171e-08 	0.0008933455384 	-5.198124805e-08 	1.702964889e-06
0.697058177 	-0.000576277245 	0.0006420455507 	3.540388681e-08 	0.0008860371816 	-5.118482584e-08 	1.689033129e-06
0.701538554 	-0.0005759737843 	0.0006501264844 	3.406287406e-08 	0.0008785621939 	-5.06219036e-08 	1.674783725e-06
0.7059722417 	-0.0005754353681 	0.0006581568785 	3.289900469e-08 	0.0008709030207 	-5.026953068e-08 	1.660183212e-06
0.7103557504 	-0.0005746704794 	0.0006661273667 	3.188993616e-08 	0.0008630744195 	-5.010864162e-08 	1.645259723e-06
0.7146898764 	-0.0005736891333 	0.0006740218162 	3.100070639e-08 	0.0008551019244 	-5.009525101e-08 	1.630061931e-06
0.7189786441 	-0.0005724834744 	0.0006818645087 	3.020908601e-08 	0.0008469703243 	-5.020617269e-08 	1.614560841e-06
0.72321917 	-0.0005710602021 	0.0006896545767 	2.950239362e-08 	0.0008386876564 	-5.04276757e-08 	1.598771774e-06
0.7274121495 	-0.0005694333543 	0.0006973732791 	2.885822022e-08 	0.0008302845997 	-5.072287358e-08 	1.582753213e-06
0.7315603692 	-0.0005675959596 	0.000705042102 	2.826063632e-08 	0.0008217501189 	-5.106750193e-08 	1.56648412e-06
0.7356626389 	-0.0005655513153 	0.0007126703689 	2.770592829e-08 	0.0008130829333 	-5.145442793e-08 	1.549962056e-06
0.7397191247 	-0.0005633178472 	0.0007202376837 	2.718287186e-08 	0.0008043179902 	-5.185482421e-08 	1.533253638e-06
0.7437314537 	-0.0005608916763 	0.0007277600029 	2.668121951e-08 	0.0007954520902 	-5.224395432e-08 	1.516352768e-06
0.7477000423 	-0.0005582728212 	0.000735254076 	2.620265196e-08 	0.0007864776003 	-5.261753992e-08 	1.499244896e-06
0.7516245074 	-0.0005554803252 	0.0007427052865 	2.574571866e-08 	0.0007774251774 	-5.295671543e-08 	1.481988462e-06
0.7555055586 	-0.0005525191942 	0.0007501182945 	2.530853003e-08 	0.0007683068453 	-5.324141538e-08 	1.464606387e-06
0.7593448937 	-0.0005493878471 	0.0007575121893 	2.489713707e-08 	0.0007591155297 	-5.34671136e-08 	1.447085185e-06
0.7631416759 	-0.0005460992864 	0.0007648875205 	2.452060862e-08 	0.0007498659111 	-5.363056258e-08 	1.429452841e-06
0.7668964541 	-0.0005426706361 	0.0007722368967 	2.418408089e-08 	0.0007405871054 	-5.371809018e-08 	1.411764858e-06
0.7706102984 	-0.0005391012849 	0.0007795776754 	2.388944592e-08 	0.0007312784122 	-5.37155686e-08 	1.394019902e-06
0.7742836007 	-0.0005353960022 	0.0007869250974 	2.364135138e-08 	0.0007219393396 	-5.361709298e-08 	1.376217034e-06
0.7779163576 	-0.0005315752603 	0.0007942743287 	2.344466668e-08 	0.0007125974917 	-5.341025716e-08 	1.358408875e-06
0.7815090748 	-0.0005276525155 	0.0008016285574 	2.331394848e-08 	0.0007032742114 	-5.309531084e-08 	1.340636112e-06
0.7850628227 	-0.0005236316188 	0.0008090050779 	2.327661641e-08 	0.0006939712708 	-5.269399051e-08 	1.322902121e-06
0.7885775598 	-0.0005195241009 	0.0008164146619 	2.335962087e-08 	0.0006846981598 	-5.223133404e-08 	1.305224995e-06
0.7920536207 	-0.0005153473432 	0.0008238600167 	2.356417688e-08 	0.000675478729 	-5.169527985e-08 	1.287650197e-06
0.7954914742 	-0.000511104912 	0.0008313586533 	2.386952239e-08 	0.0006663188819 	-5.104542304e-08 	1.270188983e-06
0.7988920361 	-0.0005067949529 	0.0008389364912 	2.426468534e-08 	0.0006572104079 	-5.025635517e-08 	1.2528257e-06
0.8022552571 	-0.0005024289192 	0.0008466071756 	2.477271001e-08 	0.0006481615689 	-4.935045316e-08 	1.235576098e-06
0.8055815523 	-0.0004980253447 	0.0008543760283 	2.543600377e-08 	0.0006391953735 	-4.837781951e-08 	1.218484037e-06
0.8088713591 	-0.0004935910408 	0.0008622589923 	2.628077012e-08 	0.0006303210548 	-4.736939915e-08 	1.201567119e-06
0.8121254 	-0.0004891222295 	0.0008702827954 	2.729685966e-08 	0.0006215295097 	-4.630524359e-08 	1.184807991e-06
0.8153437808 	-0.0004846212827 	0.0008784689711 	2.845627249e-08 	0.0006128180998 	-4.513701115e-08 	1.168201622e-06
0.818526883 	-0.00048009761 	0.0008868322144 	2.974948784e-08 	0.0006041961085 	-4.384171533e-08 	1.15176571e-06
0.8216751167 	-0.0004755583144 	0.0008953891297 	3.120307939e-08 	0.0005956712397 	-4.245304579e-08 	1.135514941e-06
0.8247890302 	-0.0004710048678 	0.0009041612805 	3.200622028e-08 	0.0005872414769 	-3.996592017e-08 	1.11944547e-06
0.8278689088 	-0.0004664411041 	0.0009131681039 	3.209968661e-08 	0.0005789063691 	-3.65932648e-08 	1.103556438e-06
0.8309150649 	-0.0004618737166 	0.0009224255611 	3.227720041e-08 	0.0005706721775 	-3.342389577e-08 	1.08785978e-06
0.8339278849 	-0.000457303169 	0.0009319543492 	3.250522144e-08 	0.0005625385745 	-3.041866298e-08 	1.072354873e-06
0.8369077818 	-0.0004527247577 	0.0009417795178 	3.277075881e-08 	0.000554496832 	-2.757152171e-08 	1.057025076e-06
0.8398551864 	-0.0004481358858 	0.0009519247649 	3.307627202e-08 	0.0005465381949 	-2.490387273e-08 	1.041853702e-06
0.8427703435 	-0.0004435425106 	0.0009624064434 	3.342458547e-08 	0.000538666913 	-2.243604223e-08 	1.026848851e-06
0.8456536179 	-0.000438947985 	0.0009732421074 	3.380611903e-08 	0.0005308858128 	-2.016495425e-08 	1.012015911e-06
0.8485053691 	-0.000434352142 	0.0009844517976 	3.41973329e-08 	0.000523193771 	-1.806111524e-08 	9.973527418e-07
0.8513259985 	-0.0004297529485 	0.0009960571504 	3.456684594e-08 	0.0005155860569 	-1.607972987e-08 	9.828503241e-07
0.8541158245 	-0.0004251566665 	0.001008074942 	3.48814049e-08 	0.0005080655334 	-1.41735702e-08 	9.685141161e-07
0.8568751499 	-0.0004205825234 	0.001020513469 	3.511904898e-08 	0.00050065295 	-1.2313126e-08 	9.543836719e-07
0.8596043157 	-0.0004160483051 	0.001033382435 	3.527724147e-08 	0.0004933670692 	-1.050728666e-08 	9.404947582e-07
0.8623036579 	-0.000411561701 	0.001046697869 	3.537795468e-08 	0.0004862142142 	-8.815844311e-09 	9.268594285e-07
0.8649735387 	-0.0004071063639 	0.001060489505 	3.546180262e-08 	0.0004791715394 	-7.340241703e-09 	9.13434133e-07