6.019744331e-37 	0.004013219912 	-1.639469962e-16 	-9.415594642e-24 	6.697519238e-30 	3.846433769e-37 	2.20903475e-44
0.0003137191626 	0.004006058962 	8.744279301e-06 	2.333243612e-10 	0.005182272521 	7.936342246e-08 	9.878851763e-06
0.0006274377305 	0.004004204915 	-2.059653183e-05 	-7.047787475e-11 	0.005223969349 	2.292729737e-08 	9.958337507e-06
0.0007529268723 	0.0040058885 	-2.438040555e-05 	1.456265497e-08 	0.005227011675 	-4.545578611e-05 	9.964137025e-06
0.000941155703 	0.004008408755 	-3.005470401e-05 	-1.653073831e-10 	0.005231578208 	3.425192419e-08 	9.972842107e-06
0.001254873079 	0.004008293811 	-4.058549319e-05 	-5.992751822e-10 	0.005238012458 	9.146827986e-08 	9.985107576e-06
0.001568589859 	0.004010277687 	-5.077090213e-05 	-1.217851278e-09 	0.005241060346 	1.486781577e-07 	9.990917698e-06
0.001882306041 	0.004012528764 	-6.092729571e-05 	-2.023036103e-09 	0.00524456658 	2.058981219e-07 	9.997601553e-06
0.002196021624 	0.00401519878 	-7.106091179e-05 	-3.01358376e-09 	0.005248463896 	2.631079354e-07 	1.000503092e-05
0.00250973661 	0.004018256492 	-8.118815721e-05 	-4.189571603e-09 	0.005252863967 	3.202977767e-07 	1.001341868e-05
0.002823450996 	0.004021719569 	-9.131449118e-05 	-5.550860833e-09 	0.005257765604 	3.774539854e-07 	1.002276256e-05
0.003137164783 	0.004025582375 	-0.0001014429342 	-7.097313914e-09 	0.005263191643 	4.34565767e-07 	1.00331061e-05
0.003450877969 	0.00402984135 	-0.0001115750788 	-8.828734444e-09 	0.005269151336 	4.916223709e-07 	1.004446693e-05
0.003764590556 	0.004034492408 	-0.000121711946 	-1.074488448e-08 	0.005275649423 	5.486134169e-07 	1.005685409e-05
0.004078302543 	0.004039531479 	-0.0001318542505 	-1.284548381e-08 	0.005282687331 	6.055288227e-07 	1.00702703e-05
0.004392013928 	0.004044954202 	-0.0001420025464 	-1.513021217e-08 	0.005290264832 	6.623589167e-07 	1.008471512e-05
0.004705724713 	0.004050755996 	-0.0001521572962 	-1.75987097e-08 	0.005298380518 	7.190944955e-07 	1.010018588e-05
0.005019434897 	0.004056932097 	-0.0001623189094 	-2.025057696e-08 	0.005307032118 	7.757269122e-07 	1.011667823e-05
0.00533314448 	0.004063477638 	-0.0001724877626 	-2.308537386e-08 	0.005316216651 	8.322481802e-07 	1.01341865e-05
0.005646853463 	0.004070387723 	-0.0001826642113 	-2.61026187e-08 	0.005325930518 	8.886510946e-07 	1.015270383e-05
0.005960561844 	0.004077657536 	-0.0001928485956 	-2.930178803e-08 	0.005336169535 	9.449293555e-07 	1.017222225e-05
0.006274269624 	0.004085282426 	-0.0002030412428 	-3.268231866e-08 	0.005346928955 	1.001077657e-06 	1.019273269e-05
0.006587976804 	0.00409325796 	-0.0002132424659 	-3.624361284e-08 	0.005358203493 	1.057091699e-06 	1.021422509e-05
0.006901683384 	0.004101579863 	-0.0002234525589 	-3.998504699e-08 	0.005369987395 	1.112968061e-06 	1.023668849e-05
0.007215389363 	0.004110243773 	-0.000233671785 	-4.390598232e-08 	0.005382274605 	1.16870392e-06 	1.026011132e-05
0.007529094743 	0.004119244701 	-0.0002439003589 	-4.800577648e-08 	0.00539505905 	1.224296621e-06 	1.028448203e-05
0.007842799523 	0.004128576116 	-0.0002541384164 	-5.228379872e-08 	0.005408335098 	1.279743128e-06 	1.030978987e-05
0.008156503703 	0.004138228584 	-0.0002643859988 	-5.673947275e-08 	0.005422098144 	1.335039215e-06 	1.033602606e-05
0.008470207286 	0.004148187769 	-0.0002746427922 	-6.137219816e-08 	0.00543634571 	1.390178829e-06 	1.036318588e-05
0.00878391027 	0.004158431622 	-0.000284909722 	-6.618180264e-08 	0.005451079714 	1.445157813e-06 	1.039127298e-05
0.009097612657 	0.004168929618 	-0.000295174964 	-7.116217059e-08 	0.005466305112 	1.499987851e-06 	1.042029683e-05
0.009411314447 	0.004181193398 	-0.0003066948475 	-7.661908339e-08 	0.005484230806 	1.554374439e-06 	1.045446818e-05
0.009898733563 	0.00419712357 	-0.0003208221288 	-8.440600757e-08 	0.00550746182 	1.639270286e-06 	1.049875295e-05
0.01039531224 	0.004215718629 	-0.0003364561257 	-9.304298446e-08 	0.005534321728 	1.725055792e-06 	1.05499554e-05
0.01090122258 	0.00423558425 	-0.0003524206396 	-1.022568309e-07 	0.005562783336 	1.812015744e-06 	1.060421113e-05
0.01141663991 	0.004256723046 	-0.0003687297068 	-1.120712181e-07 	0.00559290311 	1.90017165e-06 	1.066162779e-05
0.01194174287 	0.004279147512 	-0.000385388551 	-1.225092449e-07 	0.005624735129 	1.989525473e-06 	1.072230847e-05
0.01247671344 	0.004302876348 	-0.0004024041558 	-1.335951656e-07 	0.005658331184 	2.080081081e-06 	1.078635189e-05
0.01302173702 	0.004327933438 	-0.0004197840043 	-1.453537113e-07 	0.005693738652 	2.171845287e-06 	1.085384836e-05
0.0135770025 	0.004354344981 	-0.000437536171 	-1.578101287e-07 	0.005731002951 	2.264827787e-06 	1.092488447e-05
0.01414270231 	0.004382138058 	-0.0004556692101 	-1.709901884e-07 	0.005770168284 	2.359040537e-06 	1.099954448e-05
0.0147190325 	0.004411339823 	-0.0004741921122 	-1.849201972e-07 	0.005811277968 	2.45449762e-06 	1.107791097e-05
0.01530619282 	0.00444197707 	-0.0004931142766 	-1.99626995e-07 	0.005854374547 	2.551215189e-06 	1.116006503e-05
0.01590438673 	0.004474075972 	-0.0005124454957 	-2.151379452e-07 	0.005899499832 	2.64921145e-06 	1.124608636e-05
0.01651382157 	0.004507661902 	-0.0005321959473 	-2.314809189e-07 	0.0059466949 	2.74850663e-06 	1.133605328e-05
0.01713470852 	0.004542759271 	-0.0005523761797 	-2.486842667e-07 	0.00599600013 	2.849122981e-06 	1.143004275e-05
0.01776726278 	0.004579391389 	-0.0005729972117 	-2.667769175e-07 	0.006047455151 	2.951084388e-06 	1.152813032e-05
0.01841170354 	0.004617580688 	-0.0005940698182 	-2.85787368e-07 	0.006101098094 	3.054416224e-06 	1.163038868e-05
0.01906825416 	0.004657347251 	-0.0006156108792 	-3.057518687e-07 	0.006156968302 	3.159147973e-06 	1.173689282e-05
0.01973714216 	0.00469875709 	-0.0006376732726 	-3.267129368e-07 	0.006215167832 	3.265301711e-06 	1.18478373e-05
0.02042153748 	0.004741917932 	-0.0006602621984 	-3.487473134e-07 	0.006275846705 	3.373480061e-06 	1.19635081e-05
0.02112091823 	0.004786847697 	-0.0006833953321 	-3.719132399e-07 	0.006339034345 	3.483755184e-06 	1.20839613e-05
0.02183344139 	0.004833489612 	-0.0007070878126 	-3.962154046e-07 	0.006404660797 	3.595844269e-06 	1.220906356e-05
0.02255935386 	0.004881827686 	-0.000731312227 	-4.216646587e-07 	0.006472710575 	3.709833567e-06 	1.233878535e-05
0.02329890722 	0.004931876347 	-0.0007560866849 	-4.38184925e-07 	0.006543215975 	3.739433334e-06 	1.247318824e-05
0.02405235775 	0.004983648743 	-0.0007814260136 	-4.359953506e-07 	0.006616208954 	3.611030828e-06 	1.261233315e-05
0.02481996657 	0.005037157698 	-0.0008073460913 	-4.328732505e-07 	0.006691719203 	3.481342554e-06 	1.275627667e-05
0.02560199967 	0.005092414874 	-0.000833863373 	-4.287779704e-07 	0.006769775666 	3.350326397e-06 	1.290507398e-05
0.02639872806 	0.005149430882 	-0.0008609949396 	-4.236677092e-07 	0.006850406244 	3.217933979e-06 	1.305877827e-05
0.02721042784 	0.005208215208 	-0.0008887585272 	-4.17499506e-07 	0.006933637908 	3.084110731e-06 	1.321744096e-05
0.02803738028 	0.005268776192 	-0.000917172552 	-4.102292207e-07 	0.007019496712 	2.948795917e-06 	1.33811117e-05
0.02887987195 	0.005331121009 	-0.0009462561398 	-4.018115172e-07 	0.007108007836 	2.811922734e-06 	1.35498385e-05
0.0297381948 	0.005395255647 	-0.0009760291556 	-3.921998454e-07 	0.00719919561 	2.673418472e-06 	1.372366775e-05
0.03061264626 	0.005461184893 	-0.001006512236 	-3.813464285e-07 	0.007293083548 	2.53320471e-06 	1.390264425e-05
0.03150352933 	0.005528912307 	-0.00103772682 	-3.692022529e-07 	0.007389694369 	2.391197549e-06 	1.408681133e-05
0.03241115274 	0.005598440189 	-0.001069695181 	-3.557170592e-07 	0.007489050029 	2.247307826e-06 	1.427621083e-05
0.03333583098 	0.005669769512 	-0.00110244046 	-3.408393234e-07 	0.007591171751 	2.101441331e-06 	1.447088321e-05
0.03427788447 	0.00574289981 	-0.001135986691 	-3.245162243e-07 	0.007696080069 	1.953499027e-06 	1.467086763e-05
0.03523763963 	0.005817828995 	-0.001170358838 	-3.066936128e-07 	0.007803794901 	1.803377372e-06 	1.487620203e-05
0.03621542904 	0.005894553173 	-0.001205582829 	-2.873160124e-07 	0.007914335483 	1.65096865e-06 	1.508692311e-05
0.03721159148 	0.005973066133 	-0.001241685456 	-2.66326407e-07 	0.008027720905 	1.496161762e-06 	1.530306723e-05
0.03822647215 	0.006053359253 	-0.001278695699 	-2.436673466e-07 	0.008143969704 	1.338844129e-06 	1.552466976e-05
0.03926042268 	0.00613546043 	-0.001316653671 	-2.192805636e-07 	0.008263153165 	1.178900816e-06 	1.575186656e-05
0.04031569926 	0.006219505664 	-0.001355658409 	-1.93048618e-07 	0.008385499075 	1.015913653e-06 	1.598509186e-05
0.04139611951 	0.006305563438 	-0.001395794762 	-1.648098957e-07 	0.008511128724 	8.492461494e-07 	1.622457689e-05
0.0424968417 	0.006393486685 	-0.001437020783 	-1.346505359e-07 	0.008639851357 	6.796187372e-07 	1.646995801e-05
0.04361824725 	0.006483154008 	-0.001479313893 	-1.024944449e-07 	0.008771531186 	5.069132877e-07 	1.672097636e-05
0.04476072477 	0.006574541356 	-0.00152271964 	-6.827778283e-08 	0.008906183939 	3.310131901e-07 	1.697766193e-05
0.04592467013 	0.006667621931 	-0.001567273938 	-3.193246051e-08 	0.009043822811 	1.518033728e-07 	1.724003988e-05
0.04691067477 	0.006746403194 	-0.001605310482 	-4.428278493e-08 	0.009160763538 	-6.354883066e-07 	1.746296141e-05
0.04711048667 	0.006762345671 	-0.00161301759 	-6.511305453e-09 	0.009184421915 	3.248453807e-08 	1.750806085e-05
0.04831858527 	0.00685859236 	-0.001659998346 	-4.677399255e-08 	0.009327831346 	2.290294714e-07 	1.778143908e-05
0.04954938458 	0.006956403763 	-0.001708244962 	-8.946053359e-08 	0.009474242722 	4.300792787e-07 	1.806053986e-05
0.05080331105 	0.007055722018 	-0.001757799235 	-1.346518441e-07 	0.00962366735 	6.357740873e-07 	1.834538473e-05
0.0520807992 	0.007156472977 	-0.001808703562 	-1.824311141e-07 	0.00977611824 	8.462460486e-07 	1.86359985e-05
0.05338229166 	0.007258559012 	-0.001861000396 	-2.3288425e-07 	0.009931611917 	1.061616364e-06 	1.893241266e-05
0.05470823941 	0.007361848836 	-0.001914731536 	-2.861004353e-07 	0.0100901706 	1.281991411e-06 	1.923466958e-05
0.05605910188 	0.007466163091 	-0.001969937368 	-3.421722844e-07 	0.01025182626 	1.507459074e-06 	1.95428302e-05
0.05743534714 	0.007571257817 	-0.00202665709 	-4.011955187e-07 	0.01041662295 	1.738090423e-06 	1.985697849e-05
0.05883745205 	0.007676827022 	-0.002084933319 	-4.632728009e-07 	0.01058467454 	1.973938795e-06 	2.017733153e-05
0.06026729956 	0.00778261906 	-0.002144907523 	-5.286027538e-07 	0.01075632376 	2.215160814e-06 	2.050454265e-05
0.06173156424 	0.007888279299 	-0.002206671483 	-5.976965515e-07 	0.01093177871 	2.462020949e-06 	2.083900856e-05
0.06322334345 	0.008006733933 	-0.002278944751 	-6.714384806e-07 	0.01113378968 	2.714341666e-06 	2.122409761e-05
0.06551344073 	0.008152277918 	-0.002370403966 	-7.857151911e-07 	0.01138407669 	3.099553989e-06 	2.170121421e-05
0.06782907795 	0.008311716203 	-0.002472654124 	-9.070684308e-07 	0.01165723176 	3.494828436e-06 	2.22219237e-05
0.07017053993 	0.008471329675 	-0.002578189197 	-1.034210654e-06 	0.01193068849 	3.897045258e-06 	2.274320822e-05
0.07253811468 	0.008630492597 	-0.00268711956 	-1.167430995e-06 	0.01220458122 	4.304807023e-06 	2.32653239e-05
0.07493209339 	0.00878871915 	-0.002799474369 	-1.103333119e-06 	0.01247895514 	3.982621841e-06 	2.378835684e-05
0.07735277052 	0.008945650025 	-0.002915329701 	-1.022526188e-06 	0.01275376671 	3.613661852e-06 	2.431222408e-05
0.07980044382 	0.00910124907 	-0.003034952797 	-9.356051537e-07 	0.01302922848 	3.237417565e-06 	2.483733078e-05
0.08228795177 	0.009255629982 	-0.003158733935 	-8.419974702e-07 	0.01330552777 	2.852311978e-06 	2.536403401e-05
0.0848045662 	0.009408597117 	-0.003286696094 	-7.421244766e-07 	0.01358206646 	2.460757335e-06 	2.589119362e-05
0.08734924993 	0.009559991583 	-0.003418828222 	-6.35934087e-07 	0.01385818729 	2.063528903e-06 	2.641755665e-05
0.08992231604 	0.009709920776 	-0.003555350418 	-5.233701933e-07 	0.01413355514 	1.661361368e-06 	2.694248431e-05
0.09252408108 	0.009858598682 	-0.003696482135 	-4.043765797e-07 	0.01440783703 	1.255174385e-06 	2.746534183e-05
0.09515486517 	0.01000632511 	-0.003842459652 	-2.789174909e-07 	0.01468066404 	8.460947604e-07 	2.798542594e-05
0.09781499197 	0.0101535112 	-0.003993539935 	-1.470025915e-07 	0.0149516952 	4.355236293e-07 	2.850208666e-05
0.100507166 	0.01030079143 	-0.004150221726 	-8.603367871e-09 	0.01522085141 	2.487636066e-08 	2.90151732e-05
0.1006723289 	0.01030973838 	-0.004160058971 	-1.403514953e-07 	0.01523698305 	-3.628228618e-07 	2.90459246e-05
0.1032407961 	0.01044821201 	-0.004312677844 	-1.4955757e-07 	0.01548646335 	4.473222744e-07 	2.952150339e-05
0.1060049194 	0.01059675248 	-0.004481166148 	-3.165252942e-07 	0.01574880668 	9.269695546e-07 	3.002160269e-05
0.108799876 	0.01074687234 	-0.004655802449 	-4.91733847e-07 	0.01600719054 	1.40806779e-06 	3.051415414e-05
0.11162601 	0.010899129 	-0.004836885281 	-6.750716534e-07 	0.01626110546 	1.887323894e-06 	3.099818654e-05
0.114483669 	0.01105406661 	-0.005024689124 	-8.657216188e-07 	0.01651001237 	2.360003118e-06 	3.147267229e-05
0.1173732048 	0.0112122215 	-0.005219479642 	-1.061574518e-06 	0.01675336254 	2.819484196e-06 	3.193656536e-05
0.1202961886 	0.01137426373 	-0.005421779334 	-1.258368859e-06 	0.01699082512 	3.256952479e-06 	3.238923504e-05
0.1232641206 	0.01154082908 	-0.005632075512 	-1.448729828e-06 	0.01722194004 	3.661890473e-06 	3.28298043e-05
0.1262651629 	0.01171219504 	-0.005850225917 	-1.617021533e-06 	0.01744561374 	4.017350259e-06 	3.325618855e-05
0.1292996849 	0.01188902938 	-0.006075982724 	-1.742031755e-06 	0.01766004766 	4.318860303e-06 	3.366495919e-05
0.1323680601 	0.01207193806 	-0.006308357343 	-1.706308136e-06 	0.0178641049 	4.284177482e-06 	3.405394901e-05
0.1354706662 	0.01225974557 	-0.006546374665 	-1.375742291e-06 	0.01806001445 	3.585859601e-06 	3.442740706e-05
0.138607885 	0.01245375748 	-0.006793213651 	-1.033470416e-06 	0.01824516601 	2.940231573e-06 	3.47803574e-05
0.1417873791 	0.0126566624 	-0.007053160429 	-7.557990966e-07 	0.01841308251 	2.29066326e-06 	3.510045292e-05
0.1450082501 	0.01286360026 	-0.007323944464 	-5.555177754e-07 	0.01856787842 	1.608241844e-06 	3.539553695e-05
0.1482650567 	0.01307161647 	-0.007604827992 	-2.924075066e-07 	0.01871021646 	1.031816128e-06 	3.566687281e-05
0.1515582 	0.01330088999 	-0.007878489377 	-1.29419114e-07 	0.01882119395 	6.847702741e-07 	3.587842675e-05
0.1548880853 	0.01356474599 	-0.008123889691 	-1.251623045e-07 	0.01888665396 	5.134596795e-07 	3.600321173e-05
0.1582551226 	0.01384247071 	-0.008340934038 	-9.671880864e-08 	0.01891269523 	3.775095725e-07 	3.605285362e-05
0.1616658524 	0.01410533455 	-0.008528194004 	-3.028594409e-08 	0.01891411693 	2.179436696e-07 	3.605556377e-05
0.1651212069 	0.01433443533 	-0.008685554992 	3.936344003e-09 	0.01890537727 	4.09791937e-08 	3.603890356e-05
0.1659171165 	0.01437880338 	-0.008713337456 	6.188430826e-07 	0.01890266989 	-4.055713364e-06 	3.603374253e-05
0.1686151167 	0.01452869163 	-0.008802584769 	-2.019353697e-07 	0.01889337883 	1.438978206e-07 	3.601603119e-05
0.1721480121 	0.01469882259 	-0.00887636789 	-2.65549161e-07 	0.01887782839 	3.272463782e-07 	3.598638774e-05
0.175720328 	0.01484483545 	-0.008927858539 	-1.995063141e-07 	0.01885698267 	5.222895937e-07 	3.594665e-05
0.1793325041 	0.01496642206 	-0.008971308786 	-2.069076466e-07 	0.01882736493 	6.896585715e-07 	3.589019036e-05
0.182994898 	0.01506827915 	-0.009005600153 	-2.683021254e-07 	0.01878404666 	7.767064046e-07 	3.580761369e-05
0.1867003698 	0.01515168489 	-0.0090324528 	-3.009189189e-07 	0.01872401702 	7.81579856e-07 	3.569318051e-05
0.1904471912 	0.01521685498 	-0.009049648001 	-3.203097722e-07 	0.01864551812 	7.338159408e-07 	3.554353979e-05
0.1942358234 	0.01526291745 	-0.009055698955 	-3.160382437e-07 	0.01854770898 	6.394017349e-07 	3.535708838e-05
0.1980667329 	0.01528881603 	-0.00904935882 	-2.829285757e-07 	0.01842969804 	4.960813102e-07 	3.513212673e-05
0.201946184 	0.01529338254 	-0.009029619499 	-2.184570301e-07 	0.01829030357 	3.076061566e-07 	3.486640213e-05
0.205874617 	0.01527529378 	-0.008995577604 	-1.166339732e-07 	0.01812840368 	7.612772222e-08 	3.455777595e-05
0.2098468907 	0.01523320907 	-0.008946445253 	7.178364901e-09 	0.01794305951 	-1.470586692e-07 	3.420445843e-05
0.2138634941 	0.01516584427 	-0.008881714055 	1.113318266e-07 	0.01773338503 	-3.134438392e-07 	3.380476061e-05
0.2179249219 	0.01507196906 	-0.008801039678 	1.916928221e-07 	0.01749850595 	-4.257581395e-07 	3.33570158e-05
0.2220370961 	0.01495045575 	-0.008704337714 	2.458522215e-07 	0.01723757834 	-4.874462512e-07 	3.285961525e-05
0.226200533 	0.01480047116 	-0.008591770953 	2.729305963e-07 	0.0169501253 	-5.028633337e-07 	3.231164987e-05
0.2304104359 	0.01462162414 	-0.008463760387 	2.735081767e-07 	0.01663617618 	-4.773493679e-07 	3.171317558e-05
0.2346673231 	0.01441388701 	-0.008320962121 	2.494453816e-07 	0.01629600889 	-4.169991853e-07 	3.106472219e-05
0.238971719 	0.01417747991 	-0.008164071289 	2.037018606e-07 	0.01593002194 	-3.285451584e-07 	3.036704934e-05
0.2433319693 	0.01391294226 	-0.007993857491 	1.399789451e-07 	0.01553884964 	-2.189292698e-07 	2.962136622e-05
0.2477431375 	0.01362146224 	-0.00781121823 	6.288183379e-08 	0.0151238982 	-9.573108585e-08 	2.883035344e-05
0.2510499412 	0.01338658237 	-0.007667253339 	3.735795519e-06 	0.01480004803 	-7.899039312e-06 	2.821300501e-05
0.2522035389 	0.01330471972 	-0.007617062287 	2.332223357e-08 	0.01468710103 	-3.468797796e-08 	2.799769664e-05
0.2567137226 	0.01296461989 	-0.00741220371 	1.153807816e-07 	0.01423057896 	-1.684608997e-07 	2.712743868e-05
0.2612769989 	0.01260309516 	-0.007197230777 	2.070425178e-07 	0.01375644021 	-2.973375898e-07 	2.622359845e-05
0.2658977798 	0.01222244796 	-0.006972729217 	2.936712072e-07 	0.01326725457 	-4.155603691e-07 	2.529107464e-05
0.2705701354 	0.01182552312 	-0.006739397211 	3.712225526e-07 	0.01276629942 	-5.185383494e-07 	2.43361149e-05
0.275294641 	0.01141529902 	-0.006497955119 	4.367219265e-07 	0.01225700503 	-6.034632157e-07 	2.336525825e-05
0.2800721922 	0.01099464831 	-0.006249104817 	4.882060018e-07 	0.01174265367 	-6.690897554e-07 	2.238476159e-05
0.2849113354 	0.0105665825 	-0.005993731719 	5.248193016e-07 	0.01122665079 	-7.15718155e-07 	2.140111669e-05
0.2898044922 	0.01013471168 	-0.005733204139 	5.466344535e-07 	0.01071305901 	-7.448313754e-07 	2.042206801e-05
0.2947522652 	0.009702703851 	-0.005469163214 	5.550242983e-07 	0.01020589672 	-7.593890973e-07 	1.945527572e-05
0.2997552636 	0.009273964918 	-0.005203413162 	5.522770345e-07 	0.009708736192 	-7.631017254e-07 	1.850754959e-05
0.3048217599 	0.008851823708 	-0.004938017595 	5.413827442e-07 	0.009224916273 	-7.600657846e-07 	1.758525435e-05
0.3099449938 	0.008439848266 	-0.004675450511 	4.836090415e-07 	0.008757919511 	-6.939736583e-07 	1.669502873e-05
0.3151254131 	0.00804122452 	-0.004418214944 	3.983056815e-07 	0.00831068305 	-5.871215382e-07 	1.584247173e-05
0.3203643454 	0.007658428337 	-0.004168625763 	3.283322285e-07 	0.007885251784 	-4.98664875e-07 	1.503148149e-05
0.3256681805 	0.007293349825 	-0.003928777914 	2.717597913e-07 	0.007482975281 	-4.254261302e-07 	1.426463067e-05
0.3310312183 	0.00694745235 	-0.003700544363 	2.262839723e-07 	0.007104738906 	-3.642269452e-07 	1.354360702e-05
0.3364541189 	0.00662132635 	-0.003485241635 	1.893885702e-07 	0.006750521834 	-3.119186354e-07 	1.286837083e-05
0.3419400009 	0.006314657549 	-0.003283555598 	1.587678907e-07 	0.006419384132 	-2.657119842e-07 	1.223713033e-05
0.3474910806 	0.006026523412 	-0.003095642875 	1.323608383e-07 	0.006109824961 	-2.23550077e-07 	1.164702451e-05
0.3531041231 	0.005755535675 	-0.002921180702 	1.085246769e-07 	0.005819963613 	-1.839678423e-07 	1.109446822e-05
0.3587798191 	0.005499774845 	-0.002759346684 	8.604289476e-08 	0.005547456407 	-1.45758666e-07 	1.057499375e-05
0.3645235755 	0.005256991726 	-0.002608953805 	6.406447726e-08 	0.005289711878 	-1.081504613e-07 	1.008366104e-05
0.3703324803 	0.005024932741 	-0.002468676136 	4.222547038e-08 	0.005044280627 	-7.096918472e-08 	9.61580086e-06
0.3762062255 	0.004801384427 	-0.002337018658 	2.03780362e-08 	0.004808672831 	-3.429306578e-08 	9.166666918e-06
0.3818349366 	0.004595453299 	-0.00221908263 	3.661392762e-07 	0.004592702353 	-6.892194922e-07 	8.75496716e-06
0.3821475528 	0.004584017957 	-0.002212532838 	1.14532665e-09 	0.004580709344 	-1.986369943e-09 	8.732105151e-06
0.3881582854 	0.004370726664 	-0.002093431769 	2.222009448e-08 	0.004358466237 	-3.899701833e-08 	8.308448021e-06
0.3942361112 	0.00416025724 	-0.001977193952 	4.278110182e-08 	0.004139494488 	-7.530812433e-08 	7.891027006e-06
0.4003822316 	0.003951292304 	-0.001863048942 	6.362199569e-08 	0.003922079177 	-1.107082642e-07 	7.476572997e-06
0.4066010098 	0.003742078103 	-0.001752067924 	8.37477398e-08 	0.003705444948 	-1.446873062e-07 	7.063607947e-06
0.4128892032 	0.003531509691 	-0.001643914333 	1.029013108e-07 	0.003488487674 	-1.772640844e-07 	6.650027081e-06
0.4192475857 	0.003318830897 	-0.00153662318 	1.21541126e-07 	0.003270099183 	-2.084346918e-07 	6.23371792e-06
0.4256805892 	0.00310340894 	-0.00142831948 	1.399060873e-07 	0.003049656928 	-2.378751633e-07 	5.813493713e-06
0.4321857004 	0.002885071528 	-0.001317847913 	1.578030491e-07 	0.00282693491 	-2.651691995e-07 	5.388923644e-06
0.4387634212 	0.002664017774 	-0.001204694582 	1.745474457e-07 	0.002602112148 	-2.896993826e-07 	4.960348974e-06
0.4454175046 	0.002440845376 	-0.001088958553 	1.890748811e-07 	0.002375833588 	-3.106641208e-07 	4.528999147e-06
0.4521463543 	0.002216734818 	-0.0009713926646 	2.002073728e-07 	0.002149383406 	-3.270359582e-07 	4.097322162e-06
0.4589503101 	0.001993464378 	-0.0008533194965 	2.070019891e-07 	0.001924661499 	-3.377423379e-07 	3.668939749e-06
0.4658328557 	0.001773501569 	-0.0007365151852 	2.087719037e-07 	0.001704204244 	-3.415435855e-07 	3.248686949e-06
0.4727925432 	0.001560184265 	-0.0006231283802 	2.050474769e-07 	0.001491334987 	-3.370440447e-07 	2.842898979e-06
0.479829972 	0.001357700015 	-0.000515565377 	1.955956473e-07 	0.001290121811 	-3.228815533e-07 	2.459330743e-06
0.486948429 	0.00117103571 	-0.0004164189601 	1.804257592e-07 	0.001105306395 	-2.978195467e-07 	2.107021194e-06
0.4941463394 	0.00100608966 	-0.0003284019972 	1.601689865e-07 	0.0009424117298 	-2.614605687e-07 	1.796498687e-06
0.5013447716 	0.0008691520894 	-0.0002539283112 	1.361873102e-07 	0.0008072224149 	-2.147484843e-07 	1.538790279e-06
0.508465376 	0.0007643327574 	-0.0001939436538 	1.029529335e-07 	0.0007032987272 	-1.49639653e-07 	1.340682846e-06
0.5155074155 	0.0006919759633 	-0.0001474824934 	7.611880611e-08 	0.0006305324101 	-9.31442922e-08 	1.201970021e-06
0.5224724405 	0.0006492554451 	-0.0001123479724 	5.596307515e-08 	0.0005858453349 	-4.816772755e-08 	1.116784036e-06
0.5293615891 	0.0006310805883 	-8.592710054e-05 	4.160471938e-08 	0.0005641630762 	-1.573849413e-08 	1.075451624e-06
0.5361747244 	0.0006312770243 	-6.58593891e-05 	3.16144619e-08 	0.000559578488 	5.204003669e-09 	1.066712125e-06
0.5429133278 	0.0006438457236 	-5.033590298e-05 	2.468470646e-08 	0.0005664981775 	1.709679204e-08 	1.079902976e-06
0.5495782327 	0.0006638094373 	-3.807071868e-05 	1.988088456e-08 	0.0005803724585 	2.271660157e-08 	1.106351212e-06
0.5561695966 	0.0006875044373 	-2.814834906e-05 	1.657061625e-08 	0.0005979083681 	2.440784559e-08 	1.13977953e-06
0.5626887148 	0.0007124793661 	-1.989239193e-05 	1.432378161e-08 	0.0006169174069 	2.387392447e-08 	1.176016041e-06
0.5691364214 	0.0007371936542 	-1.279097286e-05 	1.281284293e-08 	0.0006360519536 	2.227718641e-08 	1.212491805e-06
0.5755129821 	0.0007607028961 	-6.464791459e-06 	1.173751938e-08 	0.000654580433 	2.015801473e-08 	1.247812236e-06
0.5818194612 	0.0007824672602 	-6.52287273e-07 	1.088780787e-08 	0.0006721348698 	1.772816143e-08 	1.281275872e-06
0.5880568427 	0.0008022136209 	4.816921403e-06 	1.015925695e-08 	0.0006885252484 	1.515928091e-08 	1.312520489e-06
0.5942253977 	0.0008198182361 	1.005303133e-05 	9.489770512e-09 	0.0007036741089 	1.251851751e-08 	1.341398428e-06
0.6003259628 	0.0008352516094 	1.512755957e-05 	8.84631646e-09 	0.0007175594575 	9.837263882e-09 	1.367867761e-06
0.6063597157 	0.0008485437818 	2.008767215e-05 	8.216984375e-09 	0.0007301818509 	7.139038889e-09 	1.391929551e-06
0.612326888 	0.0008597611006 	2.496609405e-05 	7.601685942e-09 	0.0007415535277 	4.441309093e-09 	1.413607128e-06
0.6182282137 	0.000868996424 	2.979069861e-05 	7.005580173e-09 	0.0007516946753 	1.760058789e-09 	1.432938974e-06
0.6240647607 	0.000876365683 	3.458963255e-05 	6.438422863e-09 	0.0007606292791 	-8.844941325e-10 	1.449970812e-06
0.6298369959 	0.0008820060014 	3.939266032e-05 	5.913652652e-09 	0.0007683873534 	-3.467297277e-09 	1.464759858e-06
0.6355455349 	0.0008860755343 	4.423467879e-05 	5.44441684e-09 	0.0007750131613 	-5.957007389e-09 	1.477390489e-06
0.6411911782 	0.0008887572511 	4.915946119e-05 	5.042864941e-09 	0.0007805677173 	-8.31315744e-09 	1.487979017e-06
0.6467747435 	0.0008902609815 	5.421868454e-05 	4.721374466e-09 	0.0007851355909 	-1.048958267e-08 	1.496686653e-06
0.6522966938 	0.0008908242482 	5.947259677e-05 	4.49099952e-09 	0.0007888355835 	-1.243608587e-08 	1.503739868e-06
0.6577577088 	0.0008907153326 	6.49924346e-05 	4.361695301e-09 	0.000791827578 	-1.410007965e-08 	1.509443441e-06
0.6631586198 	0.000890237527 	7.086130809e-05 	4.343358718e-09 	0.0007943164467 	-1.542931054e-08 	1.514187916e-06
0.6685000027 	0.0008897325929 	7.717425017e-05 	4.446895085e-09 	0.0007965571638 	-1.637517804e-08 	1.518459346e-06
0.6737824424 	0.0008895836233 	8.404047656e-05 	4.68318223e-09 	0.0007988607758 	-1.688935149e-08 	1.52285067e-06
0.679006589 	0.0008902200105 	9.158696009e-05 	5.063925855e-09 	0.0008015958627 	-1.692563215e-08 	1.528064506e-06
0.6841732363 	0.000892122725 	9.99603463e-05 	5.603151265e-09 	0.000805189859 	-1.64415196e-08 	1.534915662e-06
0.6892828813 	0.0008958288535 	0.0001093292485 	6.317876432e-09 	0.0008101321088 	-1.539676659e-08 	1.544336964e-06
0.6943361397 	0.000901935989 	0.0001198881522 	7.227306766e-09 	0.0008169765952 	-1.374996493e-08 	1.557384457e-06
0.6993336336 	0.0009111062984 	0.0001318612618 	8.353297607e-09 	0.0008263413237 	-1.146154804e-08 	1.575236233e-06
0.7042760903 	0.0009240668179 	0.0001455040316 	9.72089212e-09 	0.0008389050334 	-8.497315802e-09 	1.599186155e-06
0.7091640066 	0.0009416022547 	0.0001611029372 	1.135637998e-08 	0.0008554003907 	-4.831003537e-09 	1.630630891e-06
0.7139979828 	0.0009645393757 	0.000178973757 	1.328284883e-08 	0.00087659935 	-4.500338596e-10 	1.671041999e-06
0.7187786138 	0.0009937209081 	0.0001994555547 	1.551686321e-08 	0.0009032882923 	4.635019748e-09 	1.721918541e-06
0.7235065557 	0.001029968053 	0.0002228986907 	1.806513432e-08 	0.0009362330185 	1.038381988e-08 	1.784720346e-06
0.7281823321 	0.001074033001 	0.0002496468473 	2.092044005e-08 	0.000976137146 	1.672316701e-08 	1.860788704e-06
0.7328065091 	0.001126548453 	0.0002800162359 	2.405499148e-08 	0.001023597743 	2.3544465e-08 	1.951261793e-06
0.737379656 	0.001187981308 	0.0003142730022 	2.742145153e-08 	0.001079063647 	3.070884607e-08 	2.056995222e-06
0.7419023644 	0.001258597675 	0.0003526118293 	3.095673897e-08 	0.001142803177 	3.805903657e-08 	2.178500481e-06
0.7463751843 	0.001338444706 	0.0003951386016 	3.459158585e-08 	0.001214887747 	4.543852839e-08 	2.315913706e-06
0.7507986441 	0.001427352514 	0.0004418625073 	3.825156492e-08 	0.001295194823 	5.269804503e-08 	2.469001313e-06
0.7551732887 	0.001524956317 	0.0004926986655 	4.186745344e-08 	0.001383426517 	5.971001002e-08 	2.637195446e-06
0.7594996577 	0.001630732509 	0.0005474784601 	4.538269816e-08 	0.001479140991 	6.637756055e-08 	2.819653834e-06
0.7637783137 	0.001744042431 	0.0006059657801 	4.876244844e-08 	0.00158179013 	7.264478002e-08 	3.015331624e-06
0.7680097523 	0.001864176721 	0.0006678757379 	5.199186659e-08 	0.001690759612 	7.849063661e-08 	3.223057742e-06
0.7721944944 	0.001990397798 	0.0007328967491 	5.507203617e-08 	0.001805406363 	8.391908505e-08 	3.441606314e-06
0.7763330552 	0.002121975774 	0.0008007101926 	5.802161294e-08 	0.00192508997 	8.895865464e-08 	3.669756534e-06
0.7804259499 	0.002258216333 	0.0008710077132 	6.087392067e-08 	0.002049197039 	9.365805075e-08 	3.906339102e-06
0.7844736913 	0.002398481053 	0.0009435026575 	6.367728569e-08 	0.002177158578 	9.809205393e-08 	4.150269359e-06
0.7884767633 	0.002542199749 	0.001017937133 	6.647973682e-08 	0.002308464451 	1.023465978e-07 	4.400574847e-06
0.7924356588 	0.002688879147 	0.001094089084 	6.933969784e-08 	0.002442673136 	1.065191073e-07 	4.656413903e-06
0.7963508653 	0.002838110655 	0.001171787002 	7.240032885e-08 	0.002579415715 	1.106973915e-07 	4.917083264e-06
0.8002228677 	0.00298958703 	0.001250971807 	7.608128573e-08 	0.00271838461 	1.148971393e-07 	5.181996603e-06
0.8040521488 	0.003143138046 	0.001331849057 	8.127169095e-08 	0.002859291002 	1.189821074e-07 	5.450603349e-06
0.8078391712 	0.003298797549 	0.0014150108 	8.865779263e-08 	0.003001734425 	1.227542383e-07 	5.722140102e-06
0.8115844012 	0.003456503919 	0.001501149143 	9.720115238e-08 	0.003145648822 	1.278714925e-07 	5.996480943e-06
0.8152883001 	0.003615884277 	0.001589869812 	1.028130848e-07 	0.003291380381 	1.340986636e-07 	6.274285798e-06
0.8189513238 	0.003776712891 	0.001679037295 	1.023426592e-07 	0.003438486268 	1.386236358e-07 	6.554710505e-06
0.8225739295 	0.003938552594 	0.001766697041 	9.97616976e-08 	0.003586641248 	1.44071509e-07 	6.837135074e-06
0.8261565578 	0.004100628849 	0.001852734426 	9.971111741e-08 	0.003736393976 	1.509645938e-07 	7.122605396e-06
0.8296996493 	0.004262708277 	0.001937827659 	1.010600784e-07 	0.003887346227 	1.557767696e-07 	7.410362341e-06
0.8332036402 	0.004424758586 	0.002022183797 	1.018922581e-07 	0.004038639139 	1.597318308e-07 	7.69876868e-06