5.927384222e-37 	0.001461950789 	-5.972322618e-17 	-3.429948102e-24 	2.439797407e-30 	1.401193308e-37 	8.047154573e-45
0.0003212932665 	0.001461867663 	-3.195689637e-06 	1.67703819e-10 	0.00148376864 	-1.399091215e-07 	2.828475421e-06
0.000642586183 	0.001462031564 	-6.2352747e-06 	3.762881348e-10 	0.001484840823 	-1.370011831e-07 	2.830519299e-06
0.0009638787489 	0.00146246231 	-9.1513405e-06 	5.377611571e-10 	0.001485344164 	-1.339842298e-07 	2.831478806e-06
0.001285170964 	0.001462943339 	-1.210672116e-05 	6.945408356e-10 	0.001485963711 	-1.309609626e-07 	2.832659836e-06
0.001606462828 	0.001463608151 	-1.507402209e-05 	8.437155627e-10 	0.00148665335 	-1.279250531e-07 	2.83397448e-06
0.00192775434 	0.001464418203 	-1.804958137e-05 	9.853089233e-10 	0.001487492909 	-1.248882918e-07 	2.835574912e-06
0.0022490455 	0.001465376625 	-2.103101789e-05 	1.119150705e-09 	0.001488480653 	-1.218505066e-07 	2.837457827e-06
0.002570336307 	0.001466482535 	-2.401727379e-05 	1.24514986e-09 	0.001489618908 	-1.188120807e-07 	2.839627658e-06
0.002891626762 	0.001467736192 	-2.700782389e-05 	1.363242902e-09 	0.001490907479 	-1.157730213e-07 	2.842084031e-06
0.003212916865 	0.001469137351 	-3.000244295e-05 	1.473386285e-09 	0.00149234671 	-1.127334083e-07 	2.844827605e-06
0.003534206614 	0.001470685812 	-3.300107469e-05 	1.575549166e-09 	0.001493936652 	-1.096932796e-07 	2.847858477e-06
0.003855496009 	0.001472381358 	-3.600376763e-05 	1.669709891e-09 	0.001495677257 	-1.0665266e-07 	2.851176554e-06
0.004176785052 	0.001474223759 	-3.901063606e-05 	1.755853518e-09 	0.001497568396 	-1.036115647e-07 	2.854781591e-06
0.004498073741 	0.001476212765 	-4.20218371e-05 	1.833970322e-09 	0.001499609894 	-1.005700042e-07 	2.858673252e-06
0.004819362076 	0.001478348106 	-4.503755619e-05 	1.904054799e-09 	0.001501801533 	-9.752798606e-08 	2.862851125e-06
0.005140650058 	0.001480629488 	-4.805799774e-05 	1.966104997e-09 	0.001504143063 	-9.44855158e-08 	2.867314732e-06
0.005461937686 	0.001483056592 	-5.10833789e-05 	2.020122062e-09 	0.001506634201 	-9.144259764e-08 	2.872063534e-06
0.00578322496 	0.001485629067 	-5.411392532e-05 	2.066109905e-09 	0.001509274632 	-8.839923478e-08 	2.87709693e-06
0.00610451188 	0.001488346537 	-5.714986805e-05 	2.104074963e-09 	0.001512064011 	-8.535542966e-08 	2.882414261e-06
0.006425798447 	0.001491208591 	-6.019144132e-05 	2.134026017e-09 	0.001515001957 	-8.231118413e-08 	2.888014803e-06
0.00674708466 	0.001494214785 	-6.323888078e-05 	2.155974045e-09 	0.001518088058 	-7.926649949e-08 	2.893897769e-06
0.00706837052 	0.001497364637 	-6.629242201e-05 	2.169932105e-09 	0.001521321865 	-7.62213766e-08 	2.900062304e-06
0.007389656027 	0.001500657626 	-6.935229914e-05 	2.175915207e-09 	0.001524702893 	-7.317581598e-08 	2.906507483e-06
0.00771094118 	0.001504093182 	-7.241874335e-05 	2.173940177e-09 	0.001528230621 	-7.01298179e-08 	2.913232313e-06
0.008032225981 	0.001507670684 	-7.549198071e-05 	2.164025485e-09 	0.001531904484 	-6.708338239e-08 	2.920235717e-06
0.008353510429 	0.001511389436 	-7.857223114e-05 	2.146191149e-09 	0.001535723857 	-6.403650904e-08 	2.927516504e-06
0.008674794525 	0.001515248623 	-8.1659675e-05 	2.120457055e-09 	0.001539688061 	-6.098919727e-08 	2.935073378e-06
0.008996078268 	0.001519246956 	-8.475472899e-05 	2.086856707e-09 	0.001543796836 	-5.794146072e-08 	2.942905845e-06
0.00931736166 	0.001523382726 	-8.785435441e-05 	2.045282128e-09 	0.001548049755 	-5.489331125e-08 	2.95101309e-06
0.009638644701 	0.001528263828 	-9.135387138e-05 	2.003389744e-09 	0.001553071078 	-5.184789196e-08 	2.960585129e-06
0.01013784382 	0.001534618716 	-9.567084092e-05 	1.898947557e-09 	0.001559606244 	-4.710725735e-08 	2.973042971e-06
0.01064642451 	0.001542011397 	-0.0001004589792 	1.781765782e-09 	0.001567205253 	-4.227953111e-08 	2.987528795e-06
0.01116456308 	0.001549896927 	-0.0001053589226 	1.643792886e-09 	0.001575308272 	-3.735996081e-08 	3.002975402e-06
0.01169243912 	0.001558292252 	-0.0001103760107 	1.484066962e-09 	0.001583932573 	-3.234670573e-08 	3.019415716e-06
0.01223023562 	0.001567214447 	-0.0001155132651 	1.301572692e-09 	0.001593096242 	-2.723788649e-08 	3.036884215e-06
0.012778139 	0.001576680803 	-0.0001207740848 	1.095281591e-09 	0.001602817651 	-2.203156525e-08 	3.055415923e-06
0.01333633918 	0.001586708952 	-0.0001261620231 	8.641477849e-10 	0.001613115103 	-1.672573738e-08 	3.075045729e-06
0.01390502967 	0.001597316727 	-0.0001316807942 	6.071076551e-10 	0.001624007028 	-1.131833345e-08 	3.095808764e-06
0.01448440758 	0.00160852211 	-0.000137334257 	3.230795911e-10 	0.001635511999 	-5.807217835e-09 	3.117740436e-06
0.01507467376 	0.001620343211 	-0.0001431264073 	1.096419113e-11 	0.001647648725 	-1.901872346e-10 	3.140876411e-06
0.01509467593 	0.001620757481 	-0.0001433238048 	-3.159145469e-10 	0.001648074046 	-7.707295254e-08 	3.14168719e-06
0.0156760328 	0.001632799546 	-0.0001490614171 	3.323252229e-10 	0.001660437404 	-5.595020857e-09 	3.165255186e-06
0.01628869317 	0.00164590817 	-0.0001551434995 	7.061554646e-10 	0.001673895644 	-1.149368924e-08 	3.190910333e-06
0.01691286722 	0.001659687401 	-0.0001613770285 	1.111624208e-09 	0.001688042391 	-1.75061744e-08 	3.217877964e-06
0.01754877133 	0.001674155638 	-0.0001677664981 	1.549914667e-09 	0.0017028967 	-2.363496855e-08 	3.246194406e-06
0.01819662591 	0.001689331315 	-0.0001743165196 	2.022228806e-09 	0.001718477644 	-2.988262991e-08 	3.275896016e-06
0.01885665553 	0.001705232847 	-0.0001810317687 	2.529784476e-09 	0.001734804352 	-3.625177987e-08 	3.307019258e-06
0.01952908899 	0.001721878616 	-0.0001879176983 	3.073839545e-09 	0.00175189596 	-4.27450984e-08 	3.339600613e-06
0.02021415938 	0.00173929824 	-0.000194982842 	3.655739076e-09 	0.001769782986 	-4.936551155e-08 	3.373698257e-06
0.02091383357 	0.001757530758 	-0.0002022392172 	4.279192891e-09 	0.00178850572 	-5.614630014e-08 	3.409388991e-06
0.02162790732 	0.001776593876 	-0.0002096927828 	4.946111062e-09 	0.001808082645 	-6.309401553e-08 	3.446708052e-06
0.02235540062 	0.001796487926 	-0.0002173412978 	5.656587554e-09 	0.001828514219 	-7.019517755e-08 	3.48565631e-06
0.02309656566 	0.001817223205 	-0.0002251863015 	6.412109692e-09 	0.001849811236 	-7.745532982e-08 	3.526254344e-06
0.02385165934 	0.001838817859 	-0.0002332336657 	7.214371312e-09 	0.001871992719 	-8.488045462e-08 	3.568538415e-06
0.0246209434 	0.001861289961 	-0.0002414889017 	8.065082025e-09 	0.001895077538 	-9.247681378e-08 	3.612544497e-06
0.02540468448 	0.001884657485 	-0.0002499576434 	8.96599888e-09 	0.001919084451 	-1.002509671e-07 	3.658308346e-06
0.02620315426 	0.001908938284 	-0.0002586456074 	9.918937313e-09 	0.001944032122 	-1.08209796e-07 	3.705865541e-06
0.02701662949 	0.00193415009 	-0.0002675585914 	1.092579919e-08 	0.001969939097 	-1.163605198e-07 	3.755251435e-06
0.02784539215 	0.001960310506 	-0.0002767024682 	1.198862722e-08 	0.001996823802 	-1.247106974e-07 	3.806501155e-06
0.0286897295 	0.001987436987 	-0.000286083169 	1.31097841e-08 	0.002024704541 	-1.332682001e-07 	3.859649592e-06
0.0295499342 	0.002015546835 	-0.0002957066818 	1.42920327e-08 	0.002053599498 	-1.420411347e-07 	3.914731411e-06
0.03042630441 	0.002044657173 	-0.0003055791 	1.553811993e-08 	0.002083526741 	-1.510376855e-07 	3.971781055e-06
0.03131914389 	0.002074784956 	-0.0003157066637 	1.685022661e-08 	0.002114504212 	-1.602661424e-07 	4.030832724e-06
0.03222876211 	0.002105946999 	-0.0003260957305 	1.82300985e-08 	0.00214654969 	-1.697352263e-07 	4.091920312e-06
0.03315547435 	0.002138159965 	-0.0003367527201 	1.967962614e-08 	0.002179680784 	-1.794541954e-07 	4.155077386e-06
0.03409960182 	0.002171440346 	-0.0003476841113 	2.120097757e-08 	0.002213914944 	-1.894326898e-07 	4.220337209e-06
0.03506147177 	0.002205804444 	-0.0003588964589 	2.27964629e-08 	0.002249269453 	-1.996807014e-07 	4.28773273e-06
0.03604141757 	0.002241268364 	-0.0003703963988 	2.446851747e-08 	0.002285761422 	-2.102086416e-07 	4.357296565e-06
0.03703977888 	0.002277848001 	-0.0003821906523 	2.621974647e-08 	0.002323407757 	-2.210274228e-07 	4.429060942e-06
0.03805690174 	0.002315559017 	-0.0003942860019 	2.805303484e-08 	0.002362225132 	-2.321485747e-07 	4.503057648e-06
0.03909313868 	0.002354416736 	-0.0004066896558 	2.997180432e-08 	0.002402230084 	-2.435843936e-07 	4.579318206e-06
0.04014884885 	0.002394446934 	-0.0004194120366 	3.198061571e-08 	0.002443449689 	-2.553489933e-07 	4.657894229e-06
0.04122551531 	0.002435705976 	-0.0004324713253 	3.408800091e-08 	0.002485942456 	-2.67476165e-07 	4.738897253e-06
0.04232554311 	0.002478230301 	-0.0004458833836 	3.630597812e-08 	0.002529746802 	-2.800090886e-07 	4.822400512e-06
0.04344624324 	0.002521995501 	-0.0004596433977 	3.863807891e-08 	0.002574838408 	-2.929106021e-07 	4.908357644e-06
0.04458800415 	0.002566985867 	-0.0004737472573 	4.109622318e-08 	0.002621202978 	-3.061747323e-07 	4.996741401e-06
0.0457512216 	0.002613213761 	-0.0004882030852 	4.369965199e-08 	0.002668856533 	-3.1978596e-07 	5.087582322e-06
0.04693629876 	0.002660692308 	-0.0005030178653 	4.646458905e-08 	0.002717813375 	-3.337542795e-07 	5.18090767e-06
0.0481436464 	0.002709436531 	-0.000518200151 	4.937034631e-08 	0.002768085712 	-3.48138293e-07 	5.276740717e-06
0.04937368298 	0.002759460587 	-0.0005337588436 	5.239084121e-08 	0.002819685513 	-3.630050261e-07 	5.375104279e-06
0.05062683484 	0.002810775744 	-0.0005497013697 	5.554977072e-08 	0.002872625651 	-3.783815594e-07 	5.476022897e-06
0.05190353633 	0.002863391785 	-0.0005660348026 	5.88845456e-08 	0.002926919094 	-3.942647135e-07 	5.579521289e-06
0.05320422996 	0.002917318136 	-0.0005827664738 	6.242144938e-08 	0.002982577591 	-4.106585142e-07 	5.685621853e-06
0.05452936655 	0.00297256346 	-0.000599903542 	6.618531554e-08 	0.003039611369 	-4.275823832e-07 	5.794344086e-06
0.05587940539 	0.003029134887 	-0.0006174526849 	7.020215993e-08 	0.003098029148 	-4.450615399e-07 	5.905704608e-06
0.0572548144 	0.003087036846 	-0.0006354197552 	7.180559633e-08 	0.003157837748 	-4.463837148e-07 	6.019716423e-06
0.05865607028 	0.003146268763 	-0.0006538097265 	7.153967984e-08 	0.003219041686 	-4.357607806e-07 	6.136388139e-06
0.06008365872 	0.003206829931 	-0.0006726307736 	7.121869171e-08 	0.003281651034 	-4.247887705e-07 	6.255738959e-06
0.06153889687 	0.003268757663 	-0.0006919036676 	7.08032839e-08 	0.00334570942 	-4.134084631e-07 	6.377852046e-06
0.06302592626 	0.00333204995 	-0.0007116729066 	7.022255872e-08 	0.003411238728 	-4.014793621e-07 	6.50276912e-06
0.06454090063 	0.003404894499 	-0.0007346996446 	6.962188996e-08 	0.003486772561 	-3.894758881e-07 	6.6467576e-06
0.06686661109 	0.003495803643 	-0.0007634813951 	6.743029585e-08 	0.00358104998 	-3.691844834e-07 	6.826476563e-06
0.06921826507 	0.003596063249 	-0.0007951526776 	6.444367953e-08 	0.003684958203 	-3.483117004e-07 	7.024554516e-06
0.07159615198 	0.003697523786 	-0.0008272587627 	6.019474563e-08 	0.003790098177 	-3.266092054e-07 	7.224980529e-06
0.07400056443 	0.003800131577 	-0.0008600134 	5.46655872e-08 	0.003896526525 	-3.041849513e-07 	7.42786254e-06
0.07643179831 	0.003903789078 	-0.0008937172268 	4.90081465e-08 	0.0040042068 	-2.810482114e-07 	7.633131072e-06
0.07889015282 	0.004008493471 	-0.0009281220077 	4.415701837e-08 	0.004112985459 	-2.571686977e-07 	7.84049343e-06
0.08137593047 	0.004114331023 	-0.0009631072657 	3.978856021e-08 	0.004222856447 	-2.325764375e-07 	8.049938071e-06
0.08389681689 	0.004221321995 	-0.0009988191828 	3.597750585e-08 	0.004333915234 	-2.073232348e-07 	8.261646985e-06
0.08644662745 	0.004329302206 	-0.001035180503 	3.23249201e-08 	0.004446047046 	-1.815651359e-07 	8.475401385e-06
0.08902488323 	0.004438111286 	-0.001072114824 	2.833605938e-08 	0.004559106161 	-1.551893431e-07 	8.690923481e-06
0.09163190156 	0.004547691678 	-0.001109653436 	2.411857977e-08 	0.004673019388 	-1.281305132e-07 	8.908073751e-06
0.09426800331 	0.004658004131 	-0.001147799707 	1.957866486e-08 	0.004787701148 	-1.00316129e-07 	9.126689061e-06
0.09693351292 	0.004768982671 	-0.001186522896 	1.451474408e-08 	0.004903071204 	-7.173025468e-08 	9.346616453e-06
0.09962875848 	0.004880545741 	-0.00122579512 	8.837776042e-09 	0.005019082669 	-4.242048641e-08 	9.56776655e-06
0.102355471 	0.004992677997 	-0.001265650003 	2.637540829e-09 	0.005135764793 	-1.239013495e-08 	9.790195108e-06
0.1034723851 	0.005038211751 	-0.001282015293 	-1.088602367e-07 	0.00518318213 	-3.890875234e-07 	9.880585731e-06
0.1051193293 	0.005105360077 	-0.001306147476 	3.922880649e-09 	0.005253109502 	-1.862747021e-08 	1.001388674e-05
0.1079140226 	0.005218437332 	-0.001347289215 	1.089010977e-08 	0.005370937018 	-5.043091001e-08 	1.023849873e-05
0.1107398951 	0.005331776377 	-0.001389067282 	1.831510423e-08 	0.005489088302 	-8.285072284e-08 	1.046372792e-05
0.1135972945 	0.005445304547 	-0.001431492109 	2.615115683e-08 	0.00560747834 	-1.158384704e-07 	1.068941223e-05
0.1164865725 	0.005558942357 	-0.001474567722 	3.434614003e-08 	0.005726022145 	-1.493672169e-07 	1.091538967e-05
0.119408085 	0.005672612101 	-0.001518301832 	4.287350225e-08 	0.005844639126 	-1.834283929e-07 	1.114150661e-05
0.122362907 	0.005786301184 	-0.001562724369 	5.176406619e-08 	0.005963315646 	-2.180472015e-07 	1.136773704e-05
0.1253579596 	0.00589998484 	-0.001607868995 	6.1136377e-08 	0.006082022435 	-2.533455967e-07 	1.159402517e-05
0.1283864287 	0.006013487278 	-0.001653704178 	7.109314852e-08 	0.006200567729 	-2.891779203e-07 	1.182000545e-05
0.1314486871 	0.006126646788 	-0.001700193631 	8.175254627e-08 	0.006318773076 	-3.255007455e-07 	1.20453377e-05
0.1345451119 	0.00623936028 	-0.001747330574 	9.313110021e-08 	0.006436526961 	-3.622312198e-07 	1.226980933e-05
0.1376760841 	0.006351515978 	-0.001795106252 	1.050917794e-07 	0.006553716815 	-3.992860736e-07 	1.249320576e-05
0.1408419893 	0.006463030632 	-0.001843532234 	1.174765782e-07 	0.006670267605 	-4.366495279e-07 	1.271538396e-05
0.1440475001 	0.006573849032 	-0.001892650087 	1.303072604e-07 	0.006786134635 	-4.744137649e-07 	1.293625872e-05
0.1472922521 	0.006683838283 	-0.001942475012 	1.436842288e-07 	0.006901181566 	-5.124895874e-07 	1.315557015e-05
0.1505732086 	0.006792810093 	-0.00199298933 	1.576776055e-07 	0.007015203151 	-5.506820822e-07 	1.337292698e-05
0.1538907736 	0.00690061706 	-0.002044193957 	1.723052836e-07 	0.007128033452 	-5.888388644e-07 	1.358801289e-05
0.1572453555 	0.007007137215 	-0.002096102232 	1.875130484e-07 	0.007239532745 	-6.268216465e-07 	1.380056154e-05
0.1606373674 	0.007112271953 	-0.002148735482 	1.900642194e-07 	0.007349585901 	-6.215620784e-07 	1.401035344e-05
0.1640708329 	0.007215948183 	-0.002202135842 	1.832475263e-07 	0.007458106946 	-5.865822923e-07 	1.421722471e-05
0.167546476 	0.007318030135 	-0.002256321269 	1.757277613e-07 	0.007564944794 	-5.510213605e-07 	1.442088734e-05
0.171060902 	0.00741832298 	-0.002311275773 	1.675742755e-07 	0.007669883922 	-5.150846472e-07 	1.462093049e-05
0.1746145435 	0.007516663924 	-0.002367004955 	1.58893257e-07 	0.007772739968 	-4.788936139e-07 	1.48170027e-05
0.1782078381 	0.007612917482 	-0.002423532375 	1.49832462e-07 	0.007873349711 	-4.425610293e-07 	1.500879283e-05
0.1818412283 	0.007706985387 	-0.002480893423 	1.405395205e-07 	0.007971576835 	-4.061728234e-07 	1.519604103e-05
0.1855209962 	0.007798779413 	-0.002539129598 	1.310709814e-07 	0.008067284678 	-3.69675938e-07 	1.537848678e-05
0.1892431269 	0.007888127383 	-0.002598212631 	1.214404736e-07 	0.008160238292 	-3.33191631e-07 	1.555568221e-05
0.1930067927 	0.007974846184 	-0.002658081931 	1.115019279e-07 	0.008250188905 	-2.967315148e-07 	1.572715308e-05
0.1968124572 	0.008058779632 	-0.002718694149 	1.010291288e-07 	0.008336925675 	-2.603112318e-07 	1.589249747e-05
0.200660589 	0.00813978225 	-0.002780017024 	8.983060536e-08 	0.008420264292 	-2.240067972e-07 	1.605136403e-05
0.2045550713 	0.008217711799 	-0.002842049794 	7.781737136e-08 	0.008500038222 	-1.87891116e-07 	1.620343531e-05
0.208496362 	0.008292381078 	-0.002904779829 	6.503855974e-08 	0.008576033118 	-1.521222746e-07 	1.634830271e-05
0.2124816352 	0.008363574992 	-0.002968170394 	5.157370517e-08 	0.008647987979 	-1.168395898e-07 	1.648546867e-05
0.2165113818 	0.008431105173 	-0.00303220479 	3.744685729e-08 	0.008715647812 	-8.210128205e-08 	1.661444712e-05
0.220586098 	0.008494810143 	-0.003096878725 	2.264173297e-08 	0.008778765867 	-4.797517257e-08 	1.673476768e-05
0.2247094769 	0.008554531868 	-0.003162187966 	7.099838886e-09 	0.008837088137 	-1.451527483e-08 	1.684594613e-05
0.2265534959 	0.008579078183 	-0.003191305677 	-1.311619574e-07 	0.008860614111 	-2.15372619e-06 	1.689079318e-05
0.2288820322 	0.008610072016 	-0.00322808134 	9.282236331e-09 	0.008890318392 	-1.818732956e-08 	1.694741779e-05
0.2331011526 	0.008661192568 	-0.00329445285 	2.64895299e-08 	0.008938126142 	-4.990465764e-08 	1.703855265e-05
0.2373673575 	0.008707649225 	-0.003361196927 	4.443693701e-08 	0.008980185513 	-8.043115515e-08 	1.71187295e-05
0.2416811722 	0.008749193605 	-0.003428221531 	6.307606823e-08 	0.009016176045 	-1.096225968e-07 	1.718733746e-05
0.2460477287 	0.008785549607 	-0.003495435415 	8.235679025e-08 	0.009045758404 	-1.3736264e-07 	1.724372966e-05
0.2504643428 	0.008816387393 	-0.003562693012 	1.021405328e-07 	0.009068550906 	-1.634156495e-07 	1.72871785e-05
0.2549302469 	0.008841351605 	-0.003629829465 	1.223289594e-07 	0.00908415287 	-1.876106537e-07 	1.731692018e-05
0.259445991 	0.008860073999 	-0.003696691653 	1.429212161e-07 	0.009092146434 	-2.09815425e-07 	1.733215813e-05
0.2640137526 	0.008872166481 	-0.003763106367 	1.641383902e-07 	0.0090920769 	-2.299370994e-07 	1.733202558e-05
0.2686363606 	0.008877223538 	-0.003828804627 	1.864454564e-07 	0.009083421175 	-2.478754472e-07 	1.731552537e-05
0.2733105587 	0.008874833708 	-0.003893331478 	2.102901574e-07 	0.009065585579 	-2.634410228e-07 	1.728152576e-05
0.2780369227 	0.008864545709 	-0.003956064982 	2.343145969e-07 	0.009037923079 	-2.753196414e-07 	1.722879335e-05
0.2828162191 	0.008845911791 	-0.004015568409 	2.528206285e-07 	0.008999532418 	-2.852195851e-07 	1.715561008e-05
0.2876537208 	0.008817167341 	-0.004068488153 	2.553737772e-07 	0.008951862681 	-2.913034263e-07 	1.706473831e-05
0.292545212 	0.00877677562 	-0.004108199657 	2.393069377e-07 	0.008895474278 	-2.858318735e-07 	1.695724634e-05
0.2974912951 	0.008726090992 	-0.004127706801 	2.206009517e-07 	0.008825880789 	-2.81860947e-07 	1.682458181e-05
0.302492579 	0.008664349517 	-0.004128197618 	2.10877518e-07 	0.008743578073 	-2.853435772e-07 	1.666768996e-05
0.3075541865 	0.008589385639 	-0.004117128565 	2.057790276e-07 	0.008651614618 	-2.786907655e-07 	1.649238205e-05
0.3126723942 	0.008501993057 	-0.004098548872 	2.008348243e-07 	0.008547377245 	-2.631364176e-07 	1.629367665e-05
0.3178477247 	0.008402328524 	-0.004072639992 	1.935237974e-07 	0.008429464845 	-2.452695748e-07 	1.606890284e-05
0.3230812214 	0.008289435099 	-0.004038751966 	1.675403862e-07 	0.008298478655 	-2.051690323e-07 	1.581920676e-05
0.32837691 	0.008162815147 	-0.003996275278 	1.403853105e-07 	0.008154188851 	-1.654042032e-07 	1.554415029e-05
0.3337317031 	0.008022079095 	-0.003944900862 	1.143169498e-07 	0.007996535326 	-1.28352003e-07 	1.524361885e-05
0.3391462598 	0.007866929537 	-0.003884495539 	8.99494511e-08 	0.007825558075 	-9.433871622e-08 	1.491768869e-05
0.3446226897 	0.007697174481 	-0.003815125935 	6.785376974e-08 	0.007641376015 	-6.360162736e-08 	1.45665865e-05
0.350162574 	0.007512828659 	-0.00373709801 	4.851131182e-08 	0.007444256759 	-3.633238664e-08 	1.419082241e-05
0.3557642883 	0.007314172587 	-0.003650962849 	3.222799478e-08 	0.007234649303 	-1.264137197e-08 	1.379125234e-05
0.3614285223 	0.007101673771 	-0.003557438391 	1.907559591e-08 	0.007013076329 	7.491446688e-09 	1.336887267e-05
0.3671587446 	0.006875960717 	-0.00345732922 	8.880965608e-09 	0.006780096505 	2.421540386e-08 	1.292474837e-05
0.3729535305 	0.0066378948 	-0.00335146687 	1.272289561e-09 	0.006536388674 	3.761485593e-08 	1.246017351e-05
0.3788129912 	0.006388463539 	-0.003240561875 	-4.304951742e-09 	0.006282674591 	4.796840988e-08 	1.197652395e-05
0.3847390365 	0.006128550072 	-0.003125073311 	-8.448970229e-09 	0.006019528314 	5.591634715e-08 	1.147489401e-05
0.3907330384 	0.005858810192 	-0.003005182989 	-1.169352295e-08 	0.00574730596 	6.185930568e-08 	1.095596254e-05
0.3967939386 	0.005579748337 	-0.002880788277 	-1.446671094e-08 	0.005466283073 	6.593222311e-08 	1.042025481e-05
0.40292275 	0.005291686004 	-0.002751475628 	-1.70185466e-08 	0.005176661173 	6.828274629e-08 	9.868154973e-06
0.4091223501 	0.004994779667 	-0.002616601126 	-1.941947475e-08 	0.004878595925 	6.901281523e-08 	9.299959769e-06
0.4153911431 	0.004689180416 	-0.002475432639 	-2.158587332e-08 	0.004572351179 	6.816447456e-08 	8.716172166e-06
0.4217299005 	0.004375016064 	-0.002327201805 	-2.332235598e-08 	0.004258257138 	6.572909566e-08 	8.117421625e-06
0.4281415507 	0.004052506178 	-0.002171205315 	-2.438085346e-08 	0.003936788633 	6.170319877e-08 	7.504613308e-06
0.4346249376 	0.00372220913 	-0.002006964945 	-2.451375016e-08 	0.003608777556 	5.612254838e-08 	6.879333029e-06
0.4411806837 	0.003385073435 	-0.001834280401 	-2.350450414e-08 	0.003275419538 	4.905443738e-08 	6.243859996e-06
0.4478113283 	0.00304257751 	-0.001653339072 	-2.12168268e-08 	0.002938420412 	4.065143273e-08 	5.601445997e-06
0.4545162663 	0.002697069261 	-0.001464905094 	-1.764285614e-08 	0.002600192102 	3.122705072e-08 	4.956688832e-06
0.4612960355 	0.002351830156 	-0.001270516287 	-1.288613843e-08 	0.002264229413 	2.114546136e-08 	4.316250571e-06
0.4681530281 	0.002011674396 	-0.001072860032 	-7.230395191e-09 	0.00193479657 	1.10655007e-08 	3.688260011e-06
0.4750867375 	0.001683039611 	-0.0008758587132 	-1.20503792e-09 	0.001618056725 	1.723664097e-09 	3.084465834e-06
0.4765328118 	0.001619278262 	-0.0008360035194 	1.855304463e-06 	0.001557175816 	-2.871421713e-06 	2.9684099e-06
0.4820978659 	0.001373917884 	-0.000682630671 	-4.407571374e-09 	0.00132290273 	5.757334963e-09 	2.521820284e-06
0.4891887013 	0.001095584622 	-0.0004991442208 	-8.551448781e-09 	0.001058208625 	1.043044301e-08 	2.017239753e-06
0.4963586739 	0.0008604092402 	-0.0003411013338 	-9.800754567e-09 	0.0008339802124 	1.178579876e-08 	1.589798078e-06
0.5035289548 	0.0006773993334 	-0.0002230191826 	-8.105380893e-09 	0.000659565705 	1.00406458e-08 	1.257315551e-06
0.5106210553 	0.0005479658792 	-0.0001433996086 	-5.592060741e-09 	0.0005359072454 	6.741874678e-09 	1.021588157e-06
0.5176348988 	0.0004648368351 	-9.114533502e-05 	-3.668430923e-09 	0.0004560668778 	3.240641725e-09 	8.693902263e-07
0.524571751 	0.00041660033 	-5.65157783e-05 	-2.37639146e-09 	0.0004097428657 	2.576255322e-10 	7.810837842e-07
0.5314326313 	0.0003920129336 	-3.299769433e-05 	-1.569762177e-09 	0.0003862785552 	-1.970629167e-09 	7.363542869e-07
0.5382178046 	0.0003820824488 	-1.644029266e-05 	-1.097172016e-09 	0.0003770086742 	-3.637645376e-09 	7.186833172e-07
0.5449284847 	0.0003805657759 	-4.316431625e-06 	-8.344555816e-10 	0.0003758877391 	-4.932597292e-09 	7.165465033e-07
0.5515655 	0.0003834979068 	4.87406507e-06 	-7.027377388e-10 	0.0003790755627 	-6.009426309e-09 	7.226233811e-07
0.5581292774 	0.0003884908795 	1.204831747e-05 	-6.524517492e-10 	0.0003842441623 	-6.953168457e-09 	7.324761685e-07
0.56462091 	0.0003941446033 	1.77969329e-05 	-6.537973701e-10 	0.0003900313784 	-7.812387971e-09 	7.435082108e-07
0.5710412155 	0.0003996622535 	2.252351827e-05 	-6.863097054e-10 	0.0003956568343 	-8.608241764e-09 	7.542318932e-07
0.5773906736 	0.0004046098109 	2.651966722e-05 	-7.362327899e-10 	0.0004006965697 	-9.350174717e-09 	7.638390296e-07
0.5836702305 	0.0004087775554 	3.000640559e-05 	-7.938386719e-10 	0.0004049446638 	-1.004086379e-08 	7.719370778e-07
0.5898807815 	0.0004120976275 	3.315822003e-05 	-8.521512782e-10 	0.0004083349688 	-1.067611256e-08 	7.783999414e-07
0.596022799 	0.000414597076 	3.611836309e-05 	-9.062180356e-10 	0.0004108945717 	-1.125130042e-08 	7.83279256e-07
0.6020970845 	0.0004163713361 	3.901041993e-05 	-9.520044075e-10 	0.0004127181249 	-1.176086944e-08 	7.86755455e-07
0.6081046371 	0.0004175706518 	4.194781877e-05 	-9.849864318e-10 	0.0004139541069 	-1.219573684e-08 	7.891115803e-07
0.6140458957 	0.0004183956202 	4.504312982e-05 	-9.989922333e-10 	0.000414800344 	-1.254492527e-08 	7.907247434e-07
0.6199215913 	0.0004191007392 	4.841855255e-05 	-9.845800418e-10 	0.0004155072135 	-1.279404446e-08 	7.920722332e-07
0.6257326483 	0.0004200062686 	5.221826039e-05 	-9.265109561e-10 	0.0004163888993 	-1.29193067e-08 	7.937529714e-07
0.6314796341 	0.000421520659 	5.662424062e-05 	-8.001054563e-10 	0.0004178449738 	-1.28812885e-08 	7.965286541e-07
0.6371632004 	0.0004241774115 	6.187848596e-05 	-5.656215306e-10 	0.0004203960359 	-1.261734187e-08 	8.013916875e-07
0.6427841045 	0.0004286925935 	6.831508401e-05 	-1.585696842e-10 	0.0004247388611 	-1.202263572e-08 	8.096703193e-07
0.6483431106 	0.0004360514237 	7.640696748e-05 	5.254276078e-10 	0.0004318300537 	-1.091933416e-08 	8.231881034e-07
0.6538407712 	0.0004476346807 	8.683376397e-05 	1.65329289e-09 	0.0004430061223 	-9.018168817e-09 	8.444927963e-07
0.6592777631 	0.0004653876843 	0.0001005750981 	3.485772542e-09 	0.00046014876 	-5.856628244e-09 	8.771714282e-07
0.6646548492 	0.0004920178506 	0.0001190245466 	6.40810398e-09 	0.0004858646504 	-7.560451262e-10 	9.261930627e-07
0.6699726393 	0.0005311264356 	0.0001440981141 	1.094796505e-08 	0.0005236361183 	7.169625894e-09 	9.981959786e-07
0.6752317453 	0.0005871541703 	0.00017829742 	1.77703112e-08 	0.0005777079592 	1.885636856e-08 	1.101271936e-06
0.6804328147 	0.0006648867183 	0.0002248166021 	2.785578395e-08 	0.0006526670731 	3.460534376e-08 	1.244164841e-06
0.6855765764 	0.0007686921872 	0.0002877721394 	4.243009685e-08 	0.0007521798437 	5.442132612e-08 	1.43386384e-06
0.690663582 	0.0009008824779 	0.0003715786409 	6.03204336e-08 	0.0008787217666 	7.720299914e-08 	1.675087915e-06
0.6956944499 	0.0010607845 	0.0004760880362 	7.632239466e-08 	0.001032536465 	9.983901223e-08 	1.968301481e-06
0.7006697996 	0.001245973024 	0.0005935112896 	8.677094166e-08 	0.001209781882 	1.212873526e-07 	2.306180508e-06
0.7055903096 	0.001451481606 	0.0007165069533 	9.291511959e-08 	0.001406379293 	1.407857674e-07 	2.680949816e-06
0.71045652 	0.00167140957 	0.0008433938015 	9.736675764e-08 	0.001618819592 	1.558879237e-07 	3.08592007e-06
0.7152690291 	0.001901760298 	0.0009731319579 	1.010016515e-07 	0.001841938776 	1.674526203e-07 	3.511247247e-06
0.7200284294 	0.002138997696 	0.001103590129 	1.031264755e-07 	0.002071931862 	1.767308335e-07 	3.949677992e-06
0.7247353465 	0.002379988524 	0.001232986524 	1.034814448e-07 	0.002306358064 	1.834351017e-07 	4.396559489e-06
0.7293903257 	0.00262235459 	0.001359921802 	1.023516709e-07 	0.002542776519 	1.878786438e-07 	4.847238774e-06
0.7339939345 	0.0028640935 	0.001483315498 	1.000131121e-07 	0.002779317944 	1.904385078e-07 	5.298152474e-06
0.7385467395 	0.003103778449 	0.001602332728 	9.678696063e-08 	0.003014590013 	1.915220453e-07 	5.746646426e-06
0.7430493185 	0.003340460427 	0.00171636177 	9.297648598e-08 	0.003247663069 	1.914433692e-07 	6.190948451e-06
0.7475022216 	0.003573555007 	0.001824966773 	8.876604539e-08 	0.003477940263 	1.905174723e-07 	6.629920785e-06
0.7519059841 	0.003802765249 	0.00192784392 	8.392009549e-08 	0.003705138927 	1.894700671e-07 	7.063024585e-06
0.7562611482 	0.00402802218 	0.002024994377 	8.044691166e-08 	0.00392924591 	1.881837636e-07 	7.490234781e-06
0.760568251 	0.00424982188 	0.002124310759 	7.725444885e-08 	0.004150120849 	1.855918072e-07 	7.911283804e-06
0.7648278404 	0.004470097644 	0.002213122446 	6.72083406e-08 	0.004369175841 	1.835166864e-07 	8.328863502e-06
0.7690404224 	0.00469277132 	0.002289088259 	6.206959448e-08 	0.004589606873 	1.849412918e-07 	8.749066315e-06
0.7732065157 	0.004920096319 	0.002370348641 	6.668253598e-08 	0.004813429818 	1.883560674e-07 	9.175735057e-06
0.7773266334 	0.005150675212 	0.002456409322 	7.001988443e-08 	0.00504041106 	1.896713332e-07 	9.60842439e-06
0.781401286 	0.00538173584 	0.002545875214 	7.150186394e-08 	0.005268499648 	1.871418194e-07 	1.004322463e-05
0.7854309805 	0.005609964714 	0.002637014151 	7.098430624e-08 	0.00549464383 	1.809102676e-07 	1.04743183e-05
0.7894162045 	0.005831991034 	0.00272801693 	6.854088338e-08 	0.005715581313 	1.712299821e-07 	1.089548655e-05
0.7933574489 	0.006044757089 	0.0028171857 	6.437117672e-08 	0.005928323049 	1.585285888e-07 	1.130103142e-05
0.7972551988 	0.006245742354 	0.002903051049 	5.875415269e-08 	0.006130393031 	1.433697827e-07 	1.168623297e-05
0.801109936 	0.006433053248 	0.00298442902 	5.201216501e-08 	0.006319906005 	1.263869087e-07 	1.204749737e-05
0.8049221386 	0.006605419998 	0.003060434139 	4.447671475e-08 	0.006495551122 	1.082010991e-07 	1.238232578e-05
0.8086922709 	0.006762140054 	0.003130463024 	3.646240755e-08 	0.006656526693 	8.937477824e-08 	1.268918996e-05
0.8124207971 	0.006902989534 	0.003194159019 	2.824276475e-08 	0.006802453934 	7.039098923e-08 	1.296736784e-05
0.8161081764 	0.007028108232 	0.003251364198 	2.003110041e-08 	0.006933285425 	5.165156237e-08 	1.321676903e-05
0.8197548627 	0.00713786361 	0.003302064031 	1.197074847e-08 	0.007049216778 	3.346552415e-08 	1.343776641e-05
0.8233613088 	0.007232712522 	0.003346331637 	4.140658831e-09 	0.007150605302 	1.601398635e-08 	1.363104111e-05
0.8269279554 	0.007313092852 	0.00338428166 	-3.419605728e-09 	0.007237902368 	-6.574816334e-10 	1.379745359e-05
0.8304552415 	0.007379375423 	0.003416045599 	-1.067286221e-08 	0.007311617593 	-1.652246569e-08 	1.393797529e-05
0.8339436015 	0.007431887657 	0.003441777586 	-1.755003514e-08 	0.007372342082 	-3.136792839e-08 	1.405373304e-05
0.8373934648 	0.007471023605 	0.003461690784 	-2.393173564e-08 	0.007420802084 	-4.472669675e-08 	1.414611128e-05