0.2974940496 	2.151002516e-07 	-5.84123086e-10 	-2.85879229e-14 	2.141597571e-07 	1.254589538e-11 	4.082480197e-10
0.2977032251 	3.122056972e-06 	-3.530901787e-08 	3.378266664e-12 	3.0840396e-06 	-1.397028923e-10 	5.879036643e-09
0.2979124097 	1.864781065e-05 	-5.026867487e-07 	7.599812266e-11 	1.815575617e-05 	-1.455986363e-09 	3.460991739e-08
0.2981216023 	6.492364355e-05 	-3.260956054e-06 	5.943404778e-10 	6.183994987e-05 	-6.141499556e-09 	1.17884132e-07
0.2983308017 	0.0001655983419 	-1.337670231e-05 	2.674658142e-09 	0.000153147574 	-1.666885459e-08 	2.919418411e-07
0.2985400069 	0.0003467681141 	-4.046052519e-05 	8.39621692e-09 	0.0003094219199 	-3.457828225e-08 	5.898441786e-07
0.2987492165 	0.000632970228 	-9.813421149e-05 	2.029026732e-08 	0.0005428313697 	-5.950667461e-08 	1.034787463e-06
0.2989584294 	0.001041244993 	-0.0002007824317 	4.010452964e-08 	0.0008573989072 	-8.873947473e-08 	1.634440619e-06
0.2991676445 	0.001575125295 	-0.000358576595 	6.776728668e-08 	0.001247531148 	-1.175207297e-07 	2.378141102e-06
0.2993768607 	0.002221876569 	-0.0005734928257 	1.01534609e-07 	0.001698872076 	-1.399419142e-07 	3.238522354e-06
0.2995860767 	0.002954908467 	-0.0008386410966 	1.391644091e-07 	0.002191270008 	-1.499120846e-07 	4.177169668e-06
0.2997952915 	0.003740106883 	-0.001140875218 	1.790303362e-07 	0.002702647893 	-1.416266262e-07 	5.151998047e-06
0.3000045038 	0.004542977503 	-0.001464640618 	2.20311793e-07 	0.003212206214 	-1.095777976e-07 	6.123357831e-06
0.3002137125 	0.005333344374 	-0.001795580721 	2.651836481e-07 	0.003703579691 	-5.334318448e-08 	7.060052247e-06
0.3004229164 	0.006087901003 	-0.002122076635 	2.907266924e-07 	0.004165473193 	1.827684603e-08 	7.94054964e-06
0.3006321145 	0.006778593319 	-0.002403004857 	1.518950195e-07 	0.004603675818 	4.387416106e-08 	8.775885635e-06
0.3008413056 	0.007396629001 	-0.002627032148 	-9.839792661e-09 	0.005018323141 	6.833431721e-08 	9.566318678e-06
0.3010504885 	0.007952750749 	-0.002824584159 	-5.262434613e-08 	0.005396860723 	1.520364683e-07 	1.028791652e-05
0.3012596621 	0.008448461101 	-0.003001018516 	-1.084739679e-07 	0.005735544118 	2.620330204e-07 	1.09335412e-05
0.3014688252 	0.008884536302 	-0.003156026642 	-1.787563269e-07 	0.006033321166 	4.00901217e-07 	1.150118702e-05
0.3016779767 	0.009262334728 	-0.003290217468 	-2.621190888e-07 	0.006291426458 	5.635345139e-07 	1.199320744e-05
0.3018871155 	0.009584088845 	-0.003404436759 	-3.601140023e-07 	0.006511495309 	7.537826812e-07 	1.241271984e-05
0.3020962405 	0.00985256959 	-0.003499652202 	-4.735648466e-07 	0.006695342306 	9.733120754e-07 	1.276318331e-05
0.3023053504 	0.0100707794 	-0.003576913335 	-6.031464171e-07 	0.006844938008 	1.223429729e-06 	1.30483543e-05
0.3025144442 	0.01024177534 	-0.003637295886 	-7.494591179e-07 	0.006962307245 	1.505306523e-06 	1.327209268e-05
0.3027235208 	0.01036855747 	-0.003681859797 	-9.1305221e-07 	0.007049445592 	1.820034196e-06 	1.343820259e-05
0.3029325789 	0.01045399783 	-0.003711624338 	-1.075900488e-06 	0.007108269733 	2.131896988e-06 	1.355033775e-05
0.3031416175 	0.01050078613 	-0.003727510945 	-1.223578814e-06 	0.007140598705 	2.415041439e-06 	1.361196576e-05
0.3033506355 	0.0105113811 	-0.003730225196 	-1.374887594e-06 	0.007148156655 	2.706381457e-06 	1.362637331e-05
0.3035596318 	0.01048814709 	-0.003720720623 	-1.529838345e-06 	0.007132530145 	3.003542994e-06 	1.359658484e-05
0.3037686051 	0.01042351107 	-0.003696397186 	-1.7132076e-06 	0.007088559508 	3.354623943e-06 	1.351276458e-05
0.3040932534 	0.01028958752 	-0.003647092732 	-1.934127444e-06 	0.006997057297 	3.77666154e-06 	1.333833594e-05
0.3044239396 	0.01007731462 	-0.003569593453 	-2.18003133e-06 	0.006851470685 	4.246263727e-06 	1.306080739e-05
0.3047607701 	0.009799998149 	-0.003468917423 	-2.407181368e-06 	0.006661164427 	4.679159527e-06 	1.269803077e-05
0.3051038528 	0.009464298501 	-0.003347596666 	-2.595345314e-06 	0.006431062574 	5.036084873e-06 	1.225939269e-05
0.3054532974 	0.009077677312 	-0.003208391811 	-2.74988474e-06 	0.006166491007 	5.327809168e-06 	1.175504575e-05
0.3058092146 	0.008644584425 	-0.003052971349 	-2.884646824e-06 	0.005870658483 	5.581760377e-06 	1.119110673e-05
0.306171717 	0.008167231015 	-0.00288217982 	-2.996145403e-06 	0.005545160672 	5.791409161e-06 	1.057061744e-05
0.3065409184 	0.007648526386 	-0.002697114669 	-3.071964636e-06 	0.005192081793 	5.932792209e-06 	9.897550962e-06
0.306916934 	0.007093174549 	-0.002499511947 	-3.100465068e-06 	0.004814743533 	5.983596914e-06 	9.178239364e-06
0.3072998807 	0.00650774023 	-0.00229175278 	-3.072435713e-06 	0.004417709992 	5.926289347e-06 	8.421383084e-06
0.3076898765 	0.005900576264 	-0.002076832595 	-2.9816364e-06 	0.004006722813 	5.74921665e-06 	7.637927292e-06
0.3080870409 	0.005281722758 	-0.001858324984 	-2.825397091e-06 	0.003588617382 	5.447951337e-06 	6.840902136e-06
0.3084914948 	0.00466272218 	-0.0016403235 	-2.60530187e-06 	0.003171178728 	5.026908105e-06 	6.045148039e-06
0.3089033604 	0.004056271014 	-0.001427342469 	-2.327736044e-06 	0.002762890023 	4.50074376e-06 	5.266836289e-06
0.3093227611 	0.003475657533 	-0.001224162052 	-2.0041693e-06 	0.002372530112 	3.894932921e-06 	4.522701805e-06
0.3097498216 	0.002933827827 	-0.00103533234 	-1.662659059e-06 	0.002008654738 	3.241671678e-06 	3.829054207e-06
0.310184668 	0.002442425344 	-0.0008649512488 	-1.328204397e-06 	0.001678854642 	2.579211915e-06 	3.200363561e-06
0.3106274272 	0.002009885323 	-0.0007153807646 	-1.016949602e-06 	0.001389577228 	1.950192874e-06 	2.64892041e-06
0.3110782274 	0.001639908039 	-0.0005865412088 	-7.921772574e-07 	0.001144999111 	1.391774316e-06 	2.182686542e-06
0.311537198 	0.001327714801 	-0.0004695390909 	-6.441075193e-07 	0.0009459326485 	9.410290093e-07 	1.803210537e-06
0.3120044692 	0.001063631608 	-0.0003544936683 	-4.610297159e-07 	0.0007877247282 	6.111876398e-07 	1.501622269e-06
0.3124801721 	0.0008458937129 	-0.0002515227585 	-2.648387863e-07 	0.0006610236721 	3.677128206e-07 	1.260094841e-06
0.3129644388 	0.0006764253731 	-0.0001732089166 	-1.265441868e-07 	0.0005604373546 	1.870415267e-07 	1.068349363e-06
0.313457402 	0.000552146878 	-0.0001177776353 	-4.579302431e-08 	0.0004850899772 	6.780643223e-08 	9.247163204e-07
0.3139606955 	0.0004660787006 	-7.915520426e-05 	-3.194356451e-09 	0.0004331743246 	4.277312047e-09 	8.257506572e-07
0.3140196842 	0.0004599258843 	-7.62014725e-05 	1.32807001e-07 	0.0004297088413 	-1.591378227e-07 	8.19144483e-07
0.3144864039 	0.0004111852235 	-5.279309806e-05 	-2.730441713e-08 	0.0004022823434 	3.795525774e-08 	7.668619552e-07
0.3150214844 	0.0003793474783 	-3.470806557e-05 	-3.856910209e-08 	0.0003879978418 	4.095719855e-08 	7.396317249e-07
0.3155662914 	0.0003638429294 	-2.216904588e-05 	-3.964257768e-08 	0.0003859170818 	1.836848631e-08 	7.356652179e-07
0.3161209968 	0.0003592475371 	-1.324916245e-05 	-3.658286431e-08 	0.0003921805407 	-1.601271762e-08 	7.476051116e-07
0.3166857751 	0.0003616118102 	-6.729842187e-06 	-3.221092937e-08 	0.0004037477398 	-5.269446116e-08 	7.69655408e-07
0.3172608041 	0.0003682583145 	-1.846802348e-06 	-2.765774954e-08 	0.0004184735547 	-8.693319408e-08 	7.977269039e-07
0.3178462644 	0.0003774914452 	1.892196874e-06 	-2.336580344e-08 	0.0004350015447 	-1.1771028e-07 	8.292338467e-07
0.3184423396 	0.0003882724849 	4.818791862e-06 	-1.953360095e-08 	0.0004525273453 	-1.455264531e-07 	8.626428935e-07
0.3190492165 	0.0003999765569 	7.164121432e-06 	-1.62274945e-08 	0.000470597159 	-1.712668532e-07 	8.970889807e-07
0.3196670849 	0.0004122329732 	9.09262959e-06 	-1.344075131e-08 	0.0004889678872 	-1.957643361e-07 	9.321086947e-07
0.320296138 	0.0004248250108 	1.072275152e-05 	-1.112891925e-08 	0.000507520441 	-2.196985339e-07 	9.674750186e-07
0.3209365718 	0.0004376283297 	1.214033861e-05 	-9.229445746e-09 	0.0005262073331 	-2.43572449e-07 	1.003097429e-06
0.3215885862 	0.0004505735956 	1.34079233e-05 	-7.675795304e-09 	0.0005450208062 	-2.677280771e-07 	1.038961137e-06
0.3222523839 	0.0004636242045 	1.457119566e-05 	-6.403896595e-09 	0.0005639728158 	-2.923705857e-07 	1.075088935e-06
0.3229281712 	0.000476763548 	1.566326313e-05 	-5.350072845e-09 	0.0005830819447 	-3.175868814e-07 	1.111516246e-06
0.3236161579 	0.0004899871708 	1.670798199e-05 	-4.459399498e-09 	0.0006023689295 	-3.434324169e-07 	1.148282599e-06
0.3243165573 	0.0005032976896 	1.772281136e-05 	-3.689885686e-09 	0.0006218559799 	-3.69932569e-07 	1.185430334e-06
0.3250295861 	0.0005167029678 	1.872077796e-05 	-3.015130366e-09 	0.0006415612797 	-3.969471311e-07 	1.222994112e-06
0.3257554648 	0.0005302148005 	1.971046704e-05 	-2.356884471e-09 	0.0006614963592 	-4.146630526e-07 	1.260995914e-06
0.3264944175 	0.0005438484389 	2.069153219e-05 	-1.470842839e-09 	0.0006816721056 	-3.899935211e-07 	1.299456494e-06
0.3272466721 	0.0005576126184 	2.166181545e-05 	-7.237165783e-10 	0.0007021454184 	-3.659404293e-07 	1.338484319e-06
0.3280124601 	0.0005714964897 	2.262838553e-05 	-2.692512795e-10 	0.0007230020493 	-3.434318326e-07 	1.378242854e-06
0.3287920171 	0.0005854963045 	2.359831485e-05 	7.025470814e-11 	0.0007442110064 	-3.20226573e-07 	1.418673021e-06
0.3295855824 	0.0005996648489 	2.458059409e-05 	3.561779439e-10 	0.0007657787976 	-2.953882026e-07 	1.459787226e-06
0.3304044215 	0.0006141136143 	2.557686543e-05 	5.01823905e-10 	0.0007878492569 	-2.690746007e-07 	1.501859655e-06
0.3312516186 	0.0006288475854 	2.659936964e-05 	6.237621645e-10 	0.0008105654701 	-2.403203887e-07 	1.545163071e-06
0.3321139468 	0.0006437542205 	2.765119897e-05 	8.326324494e-10 	0.0008338585887 	-2.092256417e-07 	1.589566229e-06
0.3329916665 	0.0006587902679 	2.870575322e-05 	9.938652495e-10 	0.0008574754209 	-1.774456113e-07 	1.634586475e-06
0.3338850422 	0.0006739637131 	2.97596425e-05 	1.069746684e-09 	0.0008813445094 	-1.456056039e-07 	1.680087592e-06
0.3347943428 	0.0006892768162 	3.081715015e-05 	1.061747209e-09 	0.0009055229809 	-1.132633878e-07 	1.726178479e-06
0.3357198416 	0.0007047289318 	3.187285905e-05 	9.232580106e-10 	0.0009300499904 	-8.016809772e-08 	1.772933776e-06
0.3366618167 	0.0007203108788 	3.292274689e-05 	6.334425705e-10 	0.0009549714743 	-4.618534839e-08 	1.820441051e-06
0.3376205503 	0.0007360050955 	3.396444389e-05 	1.794661363e-10 	0.0009803504049 	-1.122846189e-08 	1.868820346e-06
0.3379264957 	0.0007409453059 	3.428449747e-05 	1.245041865e-08 	0.0009884846128 	3.275985259e-07 	1.884326407e-06
0.338594552 	0.0007517599768 	3.498469708e-05 	3.620939308e-10 	0.00100629744 	-2.460536222e-08 	1.918282607e-06
0.3395850516 	0.0007695150317 	3.615029737e-05 	1.08140576e-09 	0.001036361778 	-6.164597265e-08 	1.97559359e-06
0.3411037153 	0.0007912543084 	3.762019284e-05 	2.512428511e-09 	0.001073197183 	-1.193895115e-07 	2.045812111e-06
0.3426370071 	0.0008149532746 	3.927823945e-05 	4.42586946e-09 	0.001112827499 	-1.790993006e-07 	2.121358507e-06
0.3441850697 	0.0008385546411 	4.103400515e-05 	6.839320947e-09 	0.001152118777 	-2.405073665e-07 	2.196258604e-06
0.3457480479 	0.000862154106 	4.287389724e-05 	9.816564891e-09 	0.00119149507 	-3.035382774e-07 	2.271320762e-06
0.3473669816 	0.0008858798026 	4.481525019e-05 	1.348487085e-08 	0.001231251073 	-3.698636857e-07 	2.347106754e-06
0.3490055772 	0.000909601928 	4.687383302e-05 	1.785151736e-08 	0.001271093779 	-4.378993726e-07 	2.423058025e-06
0.3506597448 	0.0009331558405 	4.904233367e-05 	2.293822335e-08 	0.001310770355 	-5.07256954e-07 	2.498692606e-06
0.3523296368 	0.0009565093016 	5.133174944e-05 	2.260723756e-08 	0.001350261917 	-4.540482526e-07 	2.5739745e-06
0.3540154081 	0.0009796556501 	5.375538198e-05 	2.140359225e-08 	0.001389548226 	-3.931042289e-07 	2.648865123e-06
0.3557172157 	0.001002599079 	5.632473851e-05 	1.95567532e-08 	0.001428626846 	-3.304830427e-07 	2.723359836e-06
0.3574352186 	0.001025346103 	5.904492327e-05 	1.703566931e-08 	0.001467514449 	-2.663547793e-07 	2.797490413e-06
0.3591695786 	0.001047919619 	6.192970031e-05 	1.382039999e-08 	0.001506219797 	-2.009287499e-07 	2.871273566e-06
0.3609204596 	0.001070438514 	6.498604372e-05 	9.900956301e-09 	0.001544957182 	-1.344269503e-07 	2.945117788e-06
0.3627191701 	0.001093069975 	6.823345911e-05 	5.169492007e-09 	0.001584025616 	-6.576723105e-08 	3.01959308e-06
0.3644419757 	0.001114453194 	7.14736701e-05 	7.723839548e-09 	0.001620982439 	8.545347107e-08 	3.090043057e-06
0.3645511443 	0.001115810885 	7.16793666e-05 	3.199724444e-10 	0.0016233306 	-4.156351365e-09 	3.094519305e-06
0.3663965782 	0.001138532963 	7.527645595e-05 	6.048967305e-09 	0.001662670463 	-7.40202883e-08 	3.169512017e-06
0.3682594268 	0.001161236501 	7.901030261e-05 	1.247339685e-08 	0.001702093597 	-1.443464786e-07 	3.244663469e-06
0.3701398671 	0.001183939912 	8.286629206e-05 	1.959587391e-08 	0.00174175076 	-2.15441677e-07 	3.320261042e-06
0.3720380791 	0.001206634817 	8.682639522e-05 	2.741292563e-08 	0.001781839616 	-2.880361163e-07 	3.396681544e-06
0.3739542458 	0.001229281969 	9.088395903e-05 	3.590383718e-08 	0.001822598163 	-3.634106845e-07 	3.474378663e-06
0.3758885531 	0.001251856555 	9.503935671e-05 	4.501692958e-08 	0.001864457276 	-4.435072165e-07 	3.554173767e-06
0.3778638087 	0.001274332329 	9.93162764e-05 	5.474679121e-08 	0.001908085752 	-5.31827615e-07 	3.637341768e-06
0.379884383 	0.001296499474 	0.000103759673 	5.706126311e-08 	0.00195391186 	-5.548124696e-07 	3.724699067e-06
0.3819238389 	0.001317933165 	0.0001083833421 	5.03018383e-08 	0.002002127742 	-4.974102923e-07 	3.816611939e-06
0.3839823744 	0.001338186668 	0.0001132207866 	4.280029132e-08 	0.002053157023 	-4.372821575e-07 	3.913887932e-06
0.3860601911 	0.001356820769 	0.0001183573612 	3.468989578e-08 	0.002107603292 	-3.718625554e-07 	4.017677652e-06
0.3881574941 	0.001373331047 	0.0001239062556 	2.61605648e-08 	0.002166113183 	-2.985603317e-07 	4.129213766e-06
0.390274492 	0.001387163986 	0.0001300399432 	1.739488899e-08 	0.002229406615 	-2.145077396e-07 	4.249868639e-06
0.3924170564 	0.00139775965 	0.0001370134314 	8.502797341e-09 	0.002298565431 	-1.157886898e-07 	4.381704566e-06
0.3945853924 	0.001404514801 	0.0001451383962 	5.622787351e-09 	0.002372770771 	5.030912913e-08 	4.523160568e-06
0.3946244435 	0.00140463743 	0.0001452843696 	1.22848566e-10 	0.002374107198 	-2.217204127e-09 	4.525708169e-06
0.3968485406 	0.001406682176 	0.0001562332438 	3.784323414e-09 	0.002456306651 	-1.39224185e-07 	4.682403172e-06
0.3990933791 	0.001409404276 	0.0001679966749 	1.330741149e-08 	0.002524719545 	-2.038765681e-07 	4.812817162e-06
0.4013591875 	0.001418011934 	0.0001777575047 	3.829979331e-08 	0.002564402377 	-1.588937329e-07 	4.888463669e-06
0.4036461983 	0.001428954525 	0.0001862624661 	5.948169654e-08 	0.002591053612 	-1.927158698e-07 	4.93926833e-06
0.4059546488 	0.001439417908 	0.0001938504246 	9.058574686e-08 	0.002615589141 	-2.393036899e-07 	4.986039869e-06
0.4083080945 	0.001449162686 	0.0002003331398 	1.244366194e-07 	0.002638343928 	-2.827235962e-07 	5.029416816e-06
0.4107109084 	0.00145798332 	0.0002060960152 	1.582587883e-07 	0.002659169535 	-3.223521869e-07 	5.069116212e-06
0.4131360043 	0.001465777527 	0.00021136441 	1.581510228e-07 	0.002677928367 	-2.956009719e-07 	5.10487576e-06
0.4155836376 	0.001472535606 	0.0002162573316 	1.400682733e-07 	0.002694674845 	-2.437419323e-07 	5.1367992e-06
0.418054069 	0.001478320152 	0.0002208936015 	1.190772456e-07 	0.002709568022 	-1.949530935e-07 	5.165189735e-06
0.4205475644 	0.001483235192 	0.0002253412699 	9.610953546e-08 	0.002722824269 	-1.49232448e-07 	5.190459827e-06
0.4230837798 	0.001487390877 	0.0002296383338 	7.150305214e-08 	0.002734704197 	-1.059668845e-07 	5.213106271e-06
0.4256746989 	0.00149088436 	0.0002338528691 	4.548402172e-08 	0.002745386505 	-6.468142699e-08 	5.233469719e-06
0.4282895784 	0.001493802495 	0.0002379846503 	1.864289716e-08 	0.002754991871 	-2.556819818e-08 	5.251780217e-06
0.430085928 	0.001495452065 	0.0002407158099 	2.657302372e-08 	0.002760906561 	-1.029404492e-07 	5.263055259e-06
0.4309275931 	0.001496223358 	0.0002419935658 	8.595489543e-09 	0.002763676644 	-1.181418433e-08 	5.268335807e-06
0.4335878205 	0.001498234288 	0.000245923849 	3.581356406e-08 	0.002771584746 	-4.778009194e-08 	5.283410847e-06
0.4362729455 	0.001499926965 	0.0002497728134 	6.348486219e-08 	0.002778913619 	-8.252666731e-08 	5.297381716e-06
0.4390226095 	0.001501360005 	0.0002535813768 	9.197326999e-08 	0.002785809432 	-1.168435762e-07 	5.310527054e-06
0.4418080164 	0.001502588798 	0.00025739755 	1.208422324e-07 	0.002792326267 	-1.504556273e-07 	5.322949951e-06
0.4446192947 	0.00150365397 	0.0002611641527 	1.498995688e-07 	0.002798534788 	-1.8336258e-07 	5.334785118e-06
0.447456771 	0.001504591949 	0.000264910258 	1.790952306e-07 	0.002804493633 	-2.156895597e-07 	5.346144334e-06
0.4503207787 	0.001505434986 	0.0002686297594 	2.083809071e-07 	0.00281028396 	-2.475249166e-07 	5.357182307e-06
0.4532413803 	0.001506203128 	0.0002723476491 	1.898490296e-07 	0.002815978412 	-2.227251243e-07 	5.368037513e-06
0.4562076383 	0.001506920693 	0.0002761129323 	1.628145846e-07 	0.002821588874 	-1.888882314e-07 	5.378732614e-06
0.4592014673 	0.001507603181 	0.0002798814437 	1.356529467e-07 	0.002827133538 	-1.558121443e-07 	5.389302285e-06
0.4622232313 	0.00150826489 	0.0002836690901 	1.084112266e-07 	0.002832623236 	-1.234085816e-07 	5.399767175e-06
0.4652733019 	0.001508913644 	0.0002874568671 	8.112153384e-08 	0.002838107222 	-9.160149399e-08 	5.410221176e-06
0.4683888986 	0.001509553659 	0.0002912823631 	5.344116747e-08 	0.002843618688 	-5.989604707e-08 	5.420727562e-06
0.4715430232 	0.00151019812 	0.000295183853 	2.573995254e-08 	0.002849136218 	-2.865639774e-08 	5.431245509e-06
0.4745135296 	0.001510809341 	0.0002988487076 	3.772528695e-09 	0.002854293198 	-3.775658876e-08 	5.441076146e-06
0.4747263845 	0.001510852493 	0.0002991102968 	1.793996516e-09 	0.002854661726 	-2.038146488e-09 	5.441778662e-06
0.4779369786 	0.001511510327 	0.0003030479929 	2.837351091e-08 	0.002860192314 	-3.206795348e-08 	5.4523215e-06
0.4811902733 	0.001512179852 	0.0003070154988 	5.49016642e-08 	0.002865772262 	-6.176437267e-08 	5.462958431e-06
0.4845059799 	0.001512865644 	0.0003110618345 	8.149752117e-08 	0.002871397921 	-9.130527663e-08 	5.473682501e-06
0.487852787 	0.001513572459 	0.0003151764011 	1.078072443e-07 	0.002877047419 	-1.203584264e-07 	5.484452014e-06
0.4912311382 	0.001514302859 	0.0003193405147 	1.338150896e-07 	0.002882712875 	-1.489525325e-07 	5.495251948e-06
0.4946429456 	0.001515050298 	0.0003235346444 	1.595097522e-07 	0.002888425234 	-1.771288801e-07 	5.506141292e-06
0.498127308 	0.001515815116 	0.0003278104487 	1.851866995e-07 	0.002894186465 	-2.052268795e-07 	5.517123801e-06
0.5016444901 	0.001516603541 	0.000332187126 	2.104164175e-07 	0.002899957401 	-2.328701423e-07 	5.528124807e-06
0.5051949766 	0.001517415973 	0.0003366212838 	1.991037362e-07 	0.002905732479 	-2.201672544e-07 	5.539133711e-06
0.508780257 	0.001518243184 	0.0003410975832 	1.750608586e-07 	0.002911535928 	-1.935291121e-07 	5.550196698e-06
0.5124376631 	0.001519085658 	0.0003456667485 	1.510744755e-07 	0.002917363936 	-1.670375786e-07 	5.561306502e-06
0.5161297417 	0.001519950583 	0.0003503559471 	1.275280124e-07 	0.002923171647 	-1.411222153e-07 	5.572377613e-06
0.5198570229 	0.00152083336 	0.0003551044816 	1.044392647e-07 	0.002928965191 	-1.157332737e-07 	5.583421717e-06
0.523628147 	0.001521725805 	0.000359919224 	8.175394969e-08 	0.002934754804 	-9.077268995e-08 	5.59445833e-06
0.527463351 	0.001522631201 	0.0003648473006 	5.939215622e-08 	0.00294052255 	-6.610970942e-08 	5.605453257e-06
0.5313352305 	0.001523554833 	0.0003698988424 	3.761915621e-08 	0.002946231705 	-4.20088049e-08 	5.616336492e-06
0.5352443644 	0.001524487199 	0.0003750139229 	1.644751043e-08 	0.002951899347 	-1.843687425e-08 	5.627140593e-06
0.5383963734 	0.001525232434 	0.0003791565013 	1.743825703e-08 	0.002956364768 	-1.400835881e-07 	5.635652928e-06
0.5392111012 	0.001525423816 	0.0003802238817 	4.087363788e-09 	0.00295751697 	-4.724900273e-09 	5.637849344e-06
0.5432275581 	0.001526369363 	0.000385561828 	2.342933491e-08 	0.002963044298 	-2.722111729e-08 	5.648385968e-06
0.5472829419 	0.001527324808 	0.0003910046642 	4.205329034e-08 	0.002968477841 	-4.91395123e-08 	5.65874381e-06
0.5513827524 	0.001528281838 	0.000396535902 	5.99788742e-08 	0.002973824441 	-7.053383484e-08 	5.668935917e-06
0.5555477881 	0.001529244568 	0.0004022052074 	7.725786296e-08 	0.00297905763 	-9.149449814e-08 	5.67891183e-06
0.5597534302 	0.001530218187 	0.0004080257906 	9.369297497e-08 	0.002984138934 	-1.118299335e-07 	5.688598206e-06
0.5640003478 	0.001531191217 	0.0004139362326 	1.09280111e-07 	0.002989088356 	-1.315510293e-07 	5.698033181e-06
0.5683125441 	0.00153216579 	0.0004199835421 	1.241001226e-07 	0.002993881106 	-1.50775586e-07 	5.707169494e-06
0.5726708226 	0.001533151182 	0.0004262057952 	1.379770289e-07 	0.002998468414 	-1.693366029e-07 	5.715914179e-06
0.5770721925 	0.001534135936 	0.0004325347222 	1.508963207e-07 	0.003002869414 	-1.872139592e-07 	5.724303707e-06
0.5815342978 	0.001535121783 	0.0004390048318 	1.629072001e-07 	0.003007059007 	-2.044821314e-07 	5.732290237e-06
0.5860479421 	0.001536119198 	0.0004456601178 	1.738897595e-07 	0.003010987944 	-2.210278166e-07 	5.739779882e-06
0.5906065957 	0.001537117969 	0.000452440409 	1.838224697e-07 	0.003014670089 	-2.368081347e-07 	5.746799073e-06
0.5952251617 	0.001538120986 	0.0004593713331 	1.747730217e-07 	0.003018078925 	-2.283885514e-07 	5.753297263e-06
0.5998973013 	0.001539139294 	0.0004664953089 	1.612341861e-07 	0.003021164442 	-2.139403577e-07 	5.759179117e-06
0.6046164761 	0.001540162943 	0.00047375538 	1.484396854e-07 	0.003023939438 	-2.001821568e-07 	5.76446903e-06
0.6093972599 	0.001541198214 	0.0004811794369 	1.363276419e-07 	0.003026371019 	-1.870324901e-07 	5.769104298e-06
0.6142314654 	0.001542255647 	0.0004888003556 	1.249700052e-07 	0.00302841115 	-1.746097066e-07 	5.772993354e-06
0.6191148444 	0.001543325283 	0.0004965623772 	1.143652115e-07 	0.003030073537 	-1.629028473e-07 	5.776162327e-06
0.6240630691 	0.001544419424 	0.0005045057462 	1.044598349e-07 	0.003031312685 	-1.51852746e-07 	5.778524487e-06
0.6290633844 	0.001545544031 	0.0005126379292 	9.531465714e-08 	0.00303209449 	-1.415735941e-07 	5.780014825e-06
0.6341176252 	0.001546693758 	0.0005209191161 	8.688986213e-08 	0.003032422924 	-1.320165826e-07 	5.780640912e-06
0.6392357207 	0.001547882386 	0.0005293733291 	7.917256901e-08 	0.003032244454 	-1.231833188e-07 	5.780300698e-06
0.6443496457 	0.001549096203 	0.0005378982696 	7.224325505e-08 	0.00303156463 	-1.152174778e-07 	5.779004764e-06
0.6494093653 	0.001550328282 	0.0005464089241 	6.607827662e-08 	0.003030396646 	-1.081096481e-07 	5.776778262e-06
0.6544153788 	0.001551599649 	0.0005549086219 	6.064447041e-08 	0.003028717066 	-1.018493192e-07 	5.773576517e-06
0.6593628846 	0.00155290747 	0.0005633528087 	5.58734481e-08 	0.003026572931 	-9.637985499e-08 	5.7694892e-06
0.6642601772 	0.00155425908 	0.0005717599628 	5.167927033e-08 	0.003023975704 	-9.162278552e-08 	5.764538162e-06
0.6691026176 	0.001555661567 	0.0005801375824 	4.803101282e-08 	0.003020924563 	-8.757982183e-08 	5.758721839e-06
0.6738891066 	0.00155710692 	0.0005884438181 	4.48569974e-08 	0.003017463238 	-8.416725796e-08 	5.752123593e-06
0.6786277074 	0.00155861202 	0.000596705073 	4.20953079e-08 	0.003013580255 	-8.132325966e-08 	5.744721547e-06
0.6833120008 	0.001560179815 	0.0006049167288 	3.971521508e-08 	0.003009288694 	-7.903784024e-08 	5.736540639e-06
0.6879431659 	0.001561806894 	0.0006130497095 	3.7654786e-08 	0.00300462714 	-7.722825264e-08 	5.727654421e-06
0.6925268012 	0.001563511583 	0.000621131293 	3.587222375e-08 	0.002999585014 	-7.585398571e-08 	5.718042729e-06
0.697058177 	0.001565294214 	0.0006291502117 	3.433837485e-08 	0.00299418605 	-7.489032636e-08 	5.707750803e-06
0.701538554 	0.001567155622 	0.0006370877425 	3.30054847e-08 	0.00298846459 	-7.42635326e-08 	5.69684411e-06
0.7059722417 	0.001569114764 	0.0006449689508 	3.184403879e-08 	0.002982413956 	-7.393963581e-08 	5.685309919e-06
0.7103557504 	0.001571173016 	0.0006527850522 	3.08320159e-08 	0.00297605996 	-7.389097416e-08 	5.673197436e-06
0.7146898764 	0.001573332125 	0.0006605199285 	2.993524963e-08 	0.002969439284 	-7.405243846e-08 	5.660576589e-06
0.7189786441 	0.001575612567 	0.0006681968405 	2.913185936e-08 	0.00296254943 	-7.438775638e-08 	5.647442613e-06
0.72321917 	0.001578019842 	0.0006758152999 	2.840931636e-08 	0.002955411862 	-7.487459141e-08 	5.633836423e-06
0.7274121495 	0.001580553759 	0.0006833568043 	2.77458167e-08 	0.002948070674 	-7.545536556e-08 	5.619842079e-06
0.7315603692 	0.001583236277 	0.0006908417023 	2.712576029e-08 	0.002940529503 	-7.608954973e-08 	5.605466511e-06
0.7356626389 	0.001586078905 	0.0006982794049 	2.654539916e-08 	0.002932803133 	-7.676122016e-08 	5.590737901e-06
0.7397191247 	0.00158907941 	0.0007056500405 	2.599392657e-08 	0.002924942579 	-7.74213838e-08 	5.575753501e-06
0.7437314537 	0.001592259317 	0.0007129684535 	2.546143219e-08 	0.002916961653 	-7.802592382e-08 	5.560539638e-06
0.7477000423 	0.001595636427 	0.0007202511137 	2.494948204e-08 	0.002908871548 	-7.855999258e-08 	5.54511765e-06
0.7516245074 	0.001599210574 	0.0007274840403 	2.445685327e-08 	0.002900722135 	-7.898580022e-08 	5.529582604e-06
0.7555055586 	0.001602997314 	0.0007346712442 	2.398190453e-08 	0.00289254535 	-7.926229838e-08 	5.513995378e-06
0.7593448937 	0.00160701959 	0.0007418311149 	2.353052293e-08 	0.002884355827 	-7.936952885e-08 	5.498383871e-06
0.7631416759 	0.001611286426 	0.0007489645843 	2.311159116e-08 	0.002876191089 	-7.928820112e-08 	5.482819612e-06
0.7668964541 	0.001615804358 	0.0007560644362 	2.273031771e-08 	0.002868103652 	-7.898371921e-08 	5.467402708e-06
0.7706102984 	0.001620599154 	0.0007631470474 	2.238872959e-08 	0.002860117626 	-7.842234375e-08 	5.452179123e-06
0.7742836007 	0.001625691868 	0.0007702274335 	2.209151735e-08 	0.002852259064 	-7.758384189e-08 	5.437198519e-06
0.7779163576 	0.001631088979 	0.0007773013144 	2.184392183e-08 	0.002844582864 	-7.64369618e-08 	5.422565551e-06
0.7815090748 	0.001636805646 	0.0007843716201 	2.166046011e-08 	0.002837138522 	-7.496266817e-08 	5.408374564e-06
0.7850628227 	0.001642867769 	0.0007914550141 	2.15675125e-08 	0.002829957609 	-7.316573475e-08 	5.394685749e-06
0.7885775598 	0.001649294162 	0.0007985624799 	2.159052017e-08 	0.002823080718 	-7.105727187e-08 	5.381576484e-06
0.7920536207 	0.001656098953 	0.0008056970774 	2.17304889e-08 	0.002816563418 	-6.86094031e-08 	5.369152698e-06
0.7954914742 	0.001663311637 	0.0008128754632 	2.196817535e-08 	0.002810444242 	-6.576727449e-08 	5.357487848e-06
0.7988920361 	0.001670968025 	0.0008201224728 	2.229436673e-08 	0.002804748926 	-6.249297033e-08 	5.346630992e-06
0.8022552571 	0.001679090863 	0.0008274516635 	2.273195091e-08 	0.002799520288 	-5.879758644e-08 	5.336663755e-06
0.8055815523 	0.001687696379 	0.0008348685976 	2.33209654e-08 	0.002794816118 	-5.471955397e-08 	5.327696301e-06
0.8088713591 	0.001696813366 	0.0008423886403 	2.408509557e-08 	0.002790681021 	-5.027943822e-08 	5.319813656e-06
0.8121254 	0.001706481631 	0.0008500374656 	2.501418264e-08 	0.002787142077 	-4.544771336e-08 	5.313067445e-06
0.8153437808 	0.001716734825 	0.0008578359971 	2.608283429e-08 	0.002784232989 	-4.016675938e-08 	5.307521915e-06
0.818526883 	0.001727599884 	0.0008657984545 	2.728396605e-08 	0.002781999251 	-3.440433885e-08 	5.303263788e-06
0.8216751167 	0.001739106549 	0.0008739405899 	2.864339569e-08 	0.002780484952 	-2.818526197e-08 	5.300377114e-06
0.8247890302 	0.00175129024 	0.0008822829795 	2.941569126e-08 	0.0027797249 	-2.099935341e-08 	5.298928243e-06
0.8278689088 	0.001764183578 	0.0008908446161 	2.95419107e-08 	0.002779755528 	-1.343469782e-08 	5.29898663e-06
0.8309150649 	0.00177781625 	0.0008996410797 	2.974924428e-08 	0.002780619655 	-6.211773272e-09 	5.300633896e-06
0.8339278849 	0.001792224629 	0.0009086918578 	3.000692113e-08 	0.002782353479 	6.998374774e-10 	5.303939046e-06
0.8369077818 	0.001807450729 	0.0009180202575 	3.030313237e-08 	0.002784985225 	7.297953601e-09 	5.308955886e-06
0.8398551864 	0.001823534405 	0.0009276486156 	3.063916647e-08 	0.002788543455 	1.355111052e-08 	5.315738861e-06
0.8427703435 	0.001840506573 	0.0009375926679 	3.1015841e-08 	0.002793069452 	1.943004961e-08 	5.32436667e-06
0.8456536179 	0.001858400729 	0.000947869079 	3.14229263e-08 	0.002798602912 	2.493057923e-08 	5.334914982e-06
0.8485053691 	0.001877254187 	0.000958496568 	3.183836755e-08 	0.002805179731 	3.007481947e-08 	5.347452227e-06
0.8513259985 	0.001897106362 	0.0009694951653 	3.223372883e-08 	0.002812832409 	3.48984174e-08 	5.362040358e-06
0.8541158245 	0.001917987997 	0.0009808808621 	3.257915832e-08 	0.002821600947 	3.943446709e-08 	5.378755628e-06
0.8568751499 	0.001939916217 	0.0009926621098 	3.285501286e-08 	0.002831542382 	4.369926214e-08 	5.397706766e-06
0.8596043157 	0.00196290888 	0.0010048486 	3.30585227e-08 	0.002842710923 	4.76706473e-08 	5.41899711e-06
0.8623036579 	0.001986993379 	0.001017455461 	3.320750361e-08 	0.002855147698 	5.127671798e-08 	5.442705059e-06
0.8649735387 	0.002012221081 	0.001030509325 	3.333452901e-08 	0.002868864592 	5.440595475e-08 	5.468853272e-06
0.8676142563 	0.002038671505 	0.001044048924 	3.346925434e-08 	0.002883840845 	5.694595393e-08 	5.497402172e-06
0.8702261138 	0.002066446606 	0.001058119698 	3.362065901e-08 	0.002900037201 	5.884527518e-08 	5.528276929e-06
0.8728094309 	0.002095657654 	0.001072767725 	3.375910232e-08 	0.002917410968 	6.015492916e-08 	5.561396157e-06
0.8753645232 	0.002126385254 	0.001088022909 	3.381536102e-08 	0.00293596013 	6.103177176e-08 	5.596756017e-06
0.8778917136 	0.002158638256 	0.001103884457 	3.369902307e-08 	0.00295576143 	6.168754252e-08 	5.634502797e-06
0.8803913039 	0.002192325094 	0.001120314257 	3.332772173e-08 	0.002976985412 	6.229767467e-08 	5.674961605e-06