0.2166759971 	0.005378263472 	-0.006924696049 	2.868969743e-06 	-0.005363643713 	5.483748609e-06 	-1.022459566e-05
0.2166759971 	0.005378263472 	-0.006924696049 	2.868969743e-06 	-0.005363643713 	5.483748609e-06 	-1.022459566e-05
0.2169324293 	0.005331671085 	-0.006871743568 	2.88476849e-06 	-0.00531509667 	5.578304189e-06 	-1.013205151e-05
0.2171888698 	0.005268528541 	-0.006786835081 	2.849335891e-06 	-0.005245251544 	5.625063425e-06 	-9.998907286e-06
0.2174453166 	0.005202953086 	-0.006696800767 	2.794907083e-06 	-0.00517434697 	5.656820853e-06 	-9.86374346e-06
0.2177017676 	0.005131702939 	-0.006601130709 	2.72022942e-06 	-0.005097119463 	5.664052403e-06 	-9.716526367e-06
0.2179582206 	0.005053770061 	-0.006497063916 	2.620035962e-06 	-0.005013350461 	5.643518543e-06 	-9.556839367e-06
0.2182146735 	0.004968198923 	-0.006383319695 	2.490423749e-06 	-0.004922056963 	5.590893698e-06 	-9.382808586e-06
0.2184711242 	0.004875140322 	-0.006259808506 	2.32574127e-06 	-0.004823457323 	5.504232326e-06 	-9.194850268e-06
0.2187275707 	0.004775991867 	-0.006128083371 	2.124505669e-06 	-0.004718975955 	5.371977922e-06 	-8.995679742e-06
0.2189840108 	0.004672970475 	-0.005992276236 	1.882579401e-06 	-0.004610016806 	5.192425475e-06 	-8.787973321e-06
0.2192404424 	0.004565507476 	-0.00585195438 	1.513592187e-06 	-0.004495887636 	4.927656323e-06 	-8.570411402e-06
0.2194968635 	0.004445672629 	-0.005694177018 	1.084120148e-06 	-0.004370361784 	4.597703124e-06 	-8.331124239e-06
0.2197532719 	0.004311963431 	-0.005517409719 	6.717364063e-07 	-0.004231802162 	4.235652245e-06 	-8.06699109e-06
0.2200096656 	0.004168424774 	-0.00532936733 	2.033355178e-07 	-0.004082894834 	3.820213826e-06 	-7.783132335e-06
0.2202660425 	0.004014989796 	-0.005129273264 	-3.090224685e-07 	-0.00392405008 	3.359587832e-06 	-7.480330087e-06
0.2205224004 	0.003852339404 	-0.004917370948 	-8.15425403e-07 	-0.003756407283 	2.722921981e-06 	-7.160756322e-06
0.2207787375 	0.003680952006 	-0.004694752656 	-1.298615765e-06 	-0.003580290442 	2.101004147e-06 	-6.825028672e-06
0.2210350515 	0.003501669305 	-0.004462631211 	-1.749472325e-06 	-0.003396570347 	1.502982469e-06 	-6.474807108e-06
0.2212913404 	0.003315574766 	-0.004222486395 	-2.159387683e-06 	-0.003206367448 	9.37505072e-07 	-6.112227519e-06
0.2215476021 	0.003123955282 	-0.003976034291 	-2.52061339e-06 	-0.003010996453 	4.12634421e-07 	-5.739796103e-06
0.2218038346 	0.002928284803 	-0.003725207695 	-2.826471309e-06 	-0.002811943112 	-6.436540958e-08 	-5.360345111e-06
0.2220600359 	0.002730201857 	-0.003472123742 	-3.072329056e-06 	-0.002610841213 	-4.876754537e-07 	-4.976988998e-06
0.2223162038 	0.002531426363 	-0.003218964962 	-3.255664701e-06 	-0.002409400128 	-8.531813599e-07 	-4.592986302e-06
0.2225723364 	0.002333706455 	-0.002967914683 	-3.375263028e-06 	-0.002209353041 	-1.158225106e-06 	-4.211640954e-06
0.2228284315 	0.002138794108 	-0.002721143525 	-3.431849241e-06 	-0.002012424598 	-1.401943485e-06 	-3.836240608e-06
0.2230844872 	0.001948384376 	-0.002480734288 	-3.428364044e-06 	-0.001820272732 	-1.585381986e-06 	-3.469945745e-06
0.2233405014 	0.001764059864 	-0.00224861157 	-3.369420413e-06 	-0.001634437543 	-1.711300071e-06 	-3.115692225e-06
0.223596472 	0.001587241268 	-0.002026499186 	-3.26103277e-06 	-0.001456284933 	-1.784007379e-06 	-2.776083837e-06
0.2238523971 	0.001419144725 	-0.001815894888 	-3.110567464e-06 	-0.001286951607 	-1.808533701e-06 	-2.453287453e-06
0.2241082746 	0.001260866494 	-0.001618007853 	-2.927025279e-06 	-0.001127529513 	-1.789807031e-06 	-2.149384633e-06
0.2243641025 	0.001095221561 	-0.001411232514 	-2.693064294e-06 	-0.0009607482226 	-1.732703013e-06 	-1.831453139e-06
0.2247614969 	0.0009089155096 	-0.001179629499 	-2.332248806e-06 	-0.0007727210211 	-1.599512793e-06 	-1.473021033e-06
0.2251662243 	0.0007264176325 	-0.0009540551072 	-1.966391013e-06 	-0.000587656211 	-1.427529534e-06 	-1.120236069e-06
0.2255784092 	0.0005675501679 	-0.0007580039643 	-1.65047336e-06 	-0.0004267348831 	-1.235244362e-06 	-8.13475292e-07
0.2259981774 	0.000431164695 	-0.000588860857 	-1.311139544e-06 	-0.0002900124959 	-1.023349783e-06 	-5.52844422e-07
0.2264256561 	0.0003183007967 	-0.0004490605467 	-9.723449782e-07 	-0.0001773293327 	-8.165862418e-07 	-3.380389942e-07
0.2268609739 	0.0002283561876 	-0.0003386674018 	-7.046532322e-07 	-8.686169845e-05 	-6.39720524e-07 	-1.655825392e-07
0.2273042604 	0.0001577126634 	-0.0002524319501 	-4.98228487e-07 	-1.523537918e-05 	-4.942487579e-07 	-2.904286717e-08
0.2277556468 	0.0001029109267 	-0.0001858225711 	-3.397965218e-07 	4.089830805e-05 	-3.783074325e-07 	7.796354223e-08
0.2282152651 	6.090675286e-05 	-0.0001352214884 	-2.221929066e-07 	8.465301079e-05 	-2.860574555e-07 	1.613721667e-07
0.2286832487 	2.912410327e-05 	-9.740575624e-05 	-1.379945685e-07 	0.0001185485377 	-2.133608068e-07 	2.259864618e-07
0.2291597319 	5.363066202e-06 	-6.960140293e-05 	-8.012372942e-08 	0.0001447117372 	-1.563998784e-07 	2.758607916e-07
0.2296448501 	-1.222519319e-05 	-4.948669913e-05 	-4.226891061e-08 	0.000164927583 	-1.115179831e-07 	3.143978124e-07
0.2301387393 	-2.515210933e-05 	-3.517080707e-05 	-1.911571333e-08 	0.0001806565933 	-7.544167368e-08 	3.443816777e-07
0.2306415368 	-3.462080508e-05 	-2.515230629e-05 	-6.405358489e-09 	0.0001930612062 	-4.544547934e-08 	3.680283176e-07
0.2311533802 	-4.156658656e-05 	-1.826707401e-05 	-8.780604286e-10 	0.0002030459506 	-1.937686319e-08 	3.870620155e-07
0.2315746914 	-4.571423776e-05 	-1.452590798e-05 	3.915262775e-08 	0.0002097191378 	6.96227098e-08 	3.997829651e-07
0.2316736368 	-4.669808726e-05 	-1.364296353e-05 	-3.481868981e-10 	0.0002113041602 	-4.361222526e-09 	4.028044582e-07
0.2321998972 	-5.054399521e-05 	-1.064552448e-05 	-1.301597623e-11 	0.0002183645356 	-2.645063354e-08 	4.162634961e-07
0.232735561 	-5.351365181e-05 	-8.741405922e-06 	2.94826176e-09 	0.0002246068045 	-4.780853773e-08 	4.281629956e-07
0.2332807678 	-5.588613973e-05 	-7.588686173e-06 	7.523871518e-09 	0.0002303011093 	-6.914322597e-08 	4.390179233e-07
0.2338356578 	-5.786036946e-05 	-6.945282392e-06 	1.3070715e-08 	0.000235642821 	-9.093727976e-08 	4.492007103e-07
0.234400371 	-5.957644861e-05 	-6.642040589e-06 	1.920476481e-08 	0.0002407721607 	-1.135052408e-07 	4.589786574e-07
0.2349750476 	-6.113181521e-05 	-6.561494369e-06 	2.57125081e-08 	0.0002457867775 	-1.370255656e-07 	4.685379108e-07
0.2355598274 	-6.259506609e-05 	-6.625503543e-06 	3.249074387e-08 	0.0002507568116 	-1.615744932e-07 	4.780121771e-07
0.2361548499 	-6.401250543e-05 	-6.777472637e-06 	3.951057022e-08 	0.0002557314988 	-1.871971087e-07 	4.874953136e-07
0.2367621268 	-6.542554454e-05 	-6.981372896e-06 	4.680970822e-08 	0.0002607847898 	-2.14021266e-07 	4.971282907e-07
0.2373985929 	-6.686222516e-05 	-7.213908744e-06 	5.459281373e-08 	0.0002659499187 	-2.4275922e-07 	5.069744621e-07
0.2380464066 	-6.832397588e-05 	-7.449892075e-06 	6.272296105e-08 	0.0002711778151 	-2.726231888e-07 	5.169402855e-07
0.2387057606 	-6.980577143e-05 	-7.668362415e-06 	7.1221136e-08 	0.0002764250936 	-3.035157272e-07 	5.269430569e-07
0.2393768505 	-7.131040598e-05 	-7.860606135e-06 	8.015548645e-08 	0.0002816721037 	-3.352877553e-07 	5.369453164e-07
0.2400598753 	-7.28280193e-05 	-8.040752172e-06 	8.962394792e-08 	0.0002868837981 	-3.679991888e-07 	5.468802545e-07
0.2407550367 	-7.438930689e-05 	-8.247268098e-06 	9.974356159e-08 	0.0002922820604 	-4.024643554e-07 	5.571708426e-07
0.2414625396 	-7.603218471e-05 	-8.492269066e-06 	1.104941781e-07 	0.0002980560289 	-4.38876599e-07 	5.681776315e-07
0.2421825923 	-7.772496009e-05 	-8.736814477e-06 	1.216957538e-07 	0.0003039611631 	-4.763813008e-07 	5.794344584e-07
0.2429154061 	-7.944965639e-05 	-8.946342754e-06 	1.327698219e-07 	0.0003098478523 	-5.125240528e-07 	5.906561243e-07
0.2436611955 	-8.121108822e-05 	-9.124641649e-06 	1.275624403e-07 	0.0003157696984 	-4.854315721e-07 	6.019448088e-07
0.2444201783 	-8.300694983e-05 	-9.289966061e-06 	1.218884092e-07 	0.0003217531079 	-4.56885949e-07 	6.133508503e-07
0.2451925759 	-8.483784757e-05 	-9.45327076e-06 	1.157274743e-07 	0.0003278126141 	-4.269756614e-07 	6.249019532e-07
0.2459786127 	-8.670306523e-05 	-9.619204468e-06 	1.090353113e-07 	0.0003339541035 	-3.957605742e-07 	6.366093391e-07
0.2467785167 	-8.860284844e-05 	-9.791028488e-06 	1.01762234e-07 	0.0003401839255 	-3.632387745e-07 	6.484851112e-07
0.2475925196 	-9.053778811e-05 	-9.971047333e-06 	9.386114615e-08 	0.0003465070958 	-3.293843887e-07 	6.605388312e-07
0.2484208561 	-9.250834104e-05 	-1.01606117e-05 	8.529278546e-08 	0.0003529259332 	-2.941780946e-07 	6.727749194e-07
0.249263765 	-9.451426739e-05 	-1.036043848e-05 	7.602450949e-08 	0.0003594386719 	-2.576277713e-07 	6.851900094e-07
0.2501214883 	-9.655488281e-05 	-1.057144568e-05 	6.602519766e-08 	0.0003660421512 	-2.197709916e-07 	6.977780764e-07
0.250994272 	-9.863016582e-05 	-1.079548391e-05 	5.526113485e-08 	0.0003727377118 	-1.806407664e-07 	7.105416759e-07
0.2518823657 	-0.0001007409586 	-1.103515561e-05 	4.369533919e-08 	0.0003795312392 	-1.402400171e-07 	7.234920273e-07
0.2527860226 	-0.0001028883701 	-1.129308554e-05 	3.128763534e-08 	0.0003864291062 	-9.856332508e-08 	7.366412789e-07
0.2537055001 	-0.0001050737204 	-1.157179427e-05 	1.799551024e-08 	0.0003934379824 	-5.562492239e-08 	7.500021448e-07
0.2546410591 	-0.0001072982219 	-1.187309925e-05 	3.77956992e-09 	0.0004005658388 	-1.146017374e-08 	7.635898202e-07
0.2548826011 	-0.0001078759676 	-1.19586214e-05 	-7.025408856e-09 	0.0004024150971 	7.562198644e-08 	7.671150206e-07
0.2555884152 	-0.0001095836553 	-1.223968712e-05 	9.838247801e-09 	0.0004078795098 	-3.250106966e-08 	7.7753171e-07
0.2565643833 	-0.0001119403847 	-1.265214167e-05 	2.405001068e-08 	0.0004154033022 	-7.786459045e-08 	7.918741495e-07
0.2575742631 	-0.000114353673 	-1.308818178e-05 	3.94994201e-08 	0.0004230772207 	-1.252514029e-07 	8.065027709e-07
0.2586016703 	-0.0001168014093 	-1.354630685e-05 	5.599512784e-08 	0.0004308316642 	-1.738407282e-07 	8.212848954e-07
0.2596468899 	-0.0001192800475 	-1.403397815e-05 	7.357297477e-08 	0.00043866359 	-2.235913706e-07 	8.362147227e-07
0.2607102115 	-0.0001217925615 	-1.455789906e-05 	9.226791916e-08 	0.000446590724 	-2.744732065e-07 	8.513260434e-07
0.2617919288 	-0.0001243419041 	-1.512560066e-05 	1.121245157e-07 	0.0004546326071 	-3.265227353e-07 	8.666561077e-07
0.2628923399 	-0.0001269397965 	-1.575253335e-05 	1.332195605e-07 	0.0004628440121 	-3.799669322e-07 	8.823093279e-07
0.2640117474 	-0.0001296087922 	-1.646135907e-05 	1.55613638e-07 	0.0004713375161 	-4.351838321e-07 	8.985003072e-07
0.2651504585 	-0.000132372895 	-1.726094922e-05 	1.792998477e-07 	0.0004802617492 	-4.926767908e-07 	9.155123758e-07
0.2663087847 	-0.0001352928677 	-1.821868954e-05 	2.045634101e-07 	0.0004898766946 	-5.532168139e-07 	9.338411342e-07
0.2674870424 	-0.0001388999574 	-1.952503851e-05 	2.172054181e-07 	0.0005017767529 	-5.768719648e-07 	9.565259527e-07
0.2692922725 	-0.0001431882746 	-2.100292757e-05 	1.924429238e-07 	0.0005156054589 	-4.977186917e-07 	9.828873097e-07
0.2711132944 	-0.000147459426 	-2.248923066e-05 	1.652804759e-07 	0.0005290298002 	-4.138093979e-07 	1.008477835e-06
0.272950246 	-0.0001514958792 	-2.403030041e-05 	1.35719623e-07 	0.0005415855824 	-3.272822769e-07 	1.032412646e-06
0.2748032671 	-0.0001554434549 	-2.574968617e-05 	1.035722846e-07 	0.0005538729158 	-2.392970243e-07 	1.055835718e-06
0.2767228117 	-0.000159350047 	-2.759490656e-05 	6.748540969e-08 	0.0005660203592 	-1.488725387e-07 	1.078992122e-06
0.2786640575 	-0.0001632173277 	-2.947973468e-05 	2.812540338e-08 	0.0005779558371 	-5.91916082e-08 	1.10174446e-06
0.2799709177 	-0.0001657851801 	-3.073036516e-05 	-3.807387603e-08 	0.0005857826817 	1.401813406e-07 	1.116664601e-06
0.2806184122 	-0.0001670679405 	-3.137742418e-05 	1.301373979e-08 	0.0005896896823 	-2.907195556e-08 	1.12411243e-06
0.2825825063 	-0.0001709467227 	-3.32755235e-05 	5.441188472e-08 	0.0006012958122 	-1.159791015e-07 	1.14623694e-06
0.2845635642 	-0.0001748787132 	-3.506297298e-05 	9.925115408e-08 	0.0006128261 	-2.018525718e-07 	1.168216873e-06
0.2865617386 	-0.0001788817051 	-3.670611824e-05 	1.476864249e-07 	0.0006243111651 	-2.866119881e-07 	1.190110599e-06
0.288577185 	-0.000182976838 	-3.817175487e-05 	1.998388531e-07 	0.0006357903479 	-3.702697965e-07 	1.211993112e-06
0.2906100617 	-0.0001871870382 	-3.942451805e-05 	2.557595319e-07 	0.0006473085556 	-4.530784828e-07 	1.233950017e-06
0.2926605296 	-0.000191559579 	-4.04651595e-05 	3.154453267e-07 	0.0006589854954 	-5.351318027e-07 	1.25620951e-06
0.2947666598 	-0.000196141586 	-4.127840508e-05 	3.013971615e-07 	0.0006709256177 	-4.902705878e-07 	1.278970701e-06
0.2969108531 	-0.0002009292145 	-4.185016078e-05 	2.574322736e-07 	0.0006831246329 	-4.02240576e-07 	1.302225415e-06
0.2990732172 	-0.0002059280469 	-4.222459234e-05 	2.097977083e-07 	0.0006956611986 	-3.154332827e-07 	1.326123594e-06
0.3012539222 	-0.0002111771407 	-4.244861463e-05 	1.585144357e-07 	0.0007087294215 	-2.292732202e-07 	1.351035259e-06
0.3034531416 	-0.0002167851227 	-4.259297812e-05 	1.033657407e-07 	0.0007226900212 	-1.429403585e-07 	1.377648042e-06
0.3056710521 	-0.0002228473873 	-4.274852184e-05 	4.422329404e-08 	0.0007379078354 	-5.554367857e-08 	1.406657425e-06
0.3072890931 	-0.0002276633546 	-4.290018821e-05 	-1.56674469e-08 	0.000750237828 	1.611011967e-07 	1.430161818e-06
0.3079050505 	-0.0002294896721 	-4.297763695e-05 	1.607189942e-08 	0.0007549060116 	-2.326603479e-08 	1.439060673e-06
0.3101508644 	-0.0002362312328 	-4.311201747e-05 	7.515806692e-08 	0.000771796695 	-9.464486386e-08 	1.47125901e-06
0.3124433238 	-0.0002424513588 	-4.288457046e-05 	1.345226996e-07 	0.0007862795746 	-1.1411874e-07 	1.498867404e-06
0.314787554 	-0.0002480091969 	-4.233655307e-05 	1.968466858e-07 	0.0007981249045 	-1.056826983e-07 	1.521447895e-06
0.3171515198 	-0.0002530851376 	-4.1655222e-05 	2.645867977e-07 	0.0008082729067 	-1.169724174e-07 	1.540792808e-06
0.3195354192 	-0.0002580369197 	-4.099445601e-05 	3.364075879e-07 	0.0008180903536 	-1.360292116e-07 	1.55950759e-06
0.3219394548 	-0.0002629864151 	-4.038443974e-05 	4.061627567e-07 	0.0008279631321 	-1.505635739e-07 	1.57832785e-06
0.3243638334 	-0.0002679892918 	-3.980933942e-05 	3.487300392e-07 	0.0008379695331 	-1.188942611e-07 	1.597402832e-06
0.3268087664 	-0.0002730585813 	-3.923006083e-05 	2.883989118e-07 	0.0008480989027 	-9.078689949e-08 	1.616712225e-06
0.3292812814 	-0.0002782014756 	-3.863832749e-05 	2.252963676e-07 	0.0008583017723 	-6.592989215e-08 	1.636161731e-06
0.331828573 	-0.000283403528 	-3.796316529e-05 	1.580566223e-07 	0.0008684460694 	-4.33858795e-08 	1.65549958e-06
0.3343970604 	-0.000288558799 	-3.716688501e-05 	8.818427626e-08 	0.0008782456054 	-2.294327826e-08 	1.67418022e-06
0.3369869718 	-0.0002935837318 	-3.625571148e-05 	1.568586252e-08 	0.000887477421 	-3.900787148e-09 	1.691778626e-06
0.3375406268 	-0.000294613893 	-3.603957132e-05 	-3.674018089e-09 	0.0008892915574 	1.945264072e-08 	1.695236874e-06
0.3395913201 	-0.0002984163563 	-3.528217663e-05 	5.628359157e-08 	0.0008959775037 	-1.627638802e-08 	1.707982146e-06
0.3422157185 	-0.0003030568175 	-3.418452967e-05 	1.29747555e-07 	0.0009037497398 	-3.630807478e-08 	1.722798188e-06
0.3448623645 	-0.0003075160651 	-3.296260004e-05 	2.053730955e-07 	0.000910827126 	-5.568526892e-08 	1.736289653e-06
0.3475593892 	-0.0003118273198 	-3.161631377e-05 	2.838301144e-07 	0.0009172695469 	-7.460212209e-08 	1.748570698e-06
0.3503118469 	-0.0003159972037 	-3.012085778e-05 	3.650653152e-07 	0.0009231082929 	-9.30326383e-08 	1.759700971e-06
0.3530872581 	-0.0003200019602 	-2.850814523e-05 	4.479296583e-07 	0.0009283541601 	-1.106961571e-07 	1.769701052e-06
0.3558858906 	-0.0003238511136 	-2.680654787e-05 	4.306769194e-07 	0.0009330616934 	-1.032126543e-07 	1.778674919e-06
0.3587080186 	-0.000327567223 	-2.500938476e-05 	3.577949805e-07 	0.0009373034938 	-8.315432846e-08 	1.786760969e-06
0.3615539235 	-0.0003311727087 	-2.312968746e-05 	2.831801599e-07 	0.0009411547577 	-6.38227904e-08 	1.794102549e-06
0.3644469882 	-0.0003347138015 	-2.116771692e-05 	2.063108002e-07 	0.0009447018659 	-4.508429847e-08 	1.800864323e-06
0.3674013141 	-0.0003382170912 	-1.908715636e-05 	1.269943366e-07 	0.0009480044962 	-2.690744141e-08 	1.807160054e-06
0.370380176 	-0.0003416691628 	-1.69129037e-05 	4.647364492e-08 	0.0009510889166 	-9.551497038e-09 	1.813039817e-06
0.372097595 	-0.0003436155109 	-1.563700018e-05 	9.2568518e-09 	0.0009527498942 	-8.216255924e-08 	1.816206101e-06
0.3733804333 	-0.0003450559238 	-1.471234839e-05 	3.343616023e-08 	0.0009539613464 	-8.073554105e-09 	1.818515466e-06
0.3764013563 	-0.0003483853184 	-1.247494439e-05 	1.120508125e-07 	0.0009566498352 	-2.638874523e-08 	1.823640473e-06
0.3794479012 	-0.0003517041394 	-1.017440962e-05 	1.915037979e-07 	0.0009592393687 	-4.401799258e-08 	1.828576844e-06
0.3825670015 	-0.0003550547099 	-7.769229918e-06 	2.729550029e-07 	0.0009617754102 	-6.126147556e-08 	1.833411243e-06
0.3857243248 	-0.0003584290938 	-5.23797325e-06 	3.552644708e-07 	0.000964265157 	-7.793465268e-08 	1.838157393e-06
0.388908125 	-0.0003618084769 	-2.632142743e-06 	4.379898589e-07 	0.0009667128493 	-9.399756914e-08 	1.842823375e-06
0.3921187603 	-0.0003652037898 	6.379373032e-08 	4.940075475e-07 	0.0009691334949 	-1.038290388e-07 	1.847437798e-06
0.3953565983 	-0.0003686241735 	2.836656915e-06 	4.179803574e-07 	0.0009715441562 	-8.612168068e-08 	1.852033188e-06
0.3986571242 	-0.000372101729 	5.717953545e-06 	3.40529517e-07 	0.0009739701777 	-6.884521105e-08 	1.85665786e-06
0.4020072152 	-0.0003756352518 	8.739543001e-06 	2.622145406e-07 	0.0009764126498 	-5.208540403e-08 	1.86131389e-06
0.405385442 	-0.0003792016101 	1.185598404e-05 	1.837062835e-07 	0.0009788640945 	-3.590125736e-08 	1.865987025e-06
0.4087922113 	-0.0003828021139 	1.507472416e-05 	1.050886455e-07 	0.0009813264764 	-2.023504343e-08 	1.87068101e-06
0.4122279406 	-0.0003864476876 	1.837953367e-05 	2.643852671e-08 	0.0009838114201 	-5.023088746e-09 	1.875418003e-06
0.4133956475 	-0.000387685039 	1.952273578e-05 	2.112673494e-08 	0.0009846527273 	-7.990543217e-08 	1.877021768e-06
0.4157317818 	-0.0003901362274 	2.176576056e-05 	5.083508304e-08 	0.0009862909287 	-1.150612059e-08 	1.880144635e-06
0.4192741829 	-0.0003938706738 	2.528070452e-05 	1.269353423e-07 	0.0009887773227 	-2.848184095e-08 	1.884884393e-06
0.4228467454 	-0.0003976434971 	2.890454584e-05 	2.026961249e-07 	0.0009912831595 	-4.515226839e-08 	1.889661215e-06
0.426449931 	-0.0004014627991 	3.263889601e-05 	2.780411409e-07 	0.0009938116568 	-6.158053059e-08 	1.894481234e-06
0.4300987495 	-0.000405347221 	3.649631037e-05 	3.532142789e-07 	0.0009963734089 	-7.789729482e-08 	1.899364645e-06
0.4338161841 	-0.0004093115358 	4.052848145e-05 	4.285157885e-07 	0.0009989710754 	-9.425669275e-08 	1.904316519e-06
0.437565381 	-0.0004133314413 	4.471238868e-05 	5.029502836e-07 	0.001001589065 	-1.105426872e-07 	1.909307136e-06
0.4413468516 	-0.0004173945688 	4.902693589e-05 	4.434084871e-07 	0.001004219574 	-9.754424829e-08 	1.914321617e-06
0.4451628312 	-0.0004215182235 	5.346667666e-05 	3.729805508e-07 	0.001006871873 	-8.226455826e-08 	1.919377636e-06
0.4490590092 	-0.0004257283211 	5.809962551e-05 	3.02295389e-07 	0.001009551817 	-6.696367972e-08 	1.924486353e-06
0.452988707 	-0.0004300010825 	6.292482954e-05 	2.325534934e-07 	0.001012239622 	-5.184672738e-08 	1.929610057e-06
0.4569524913 	-0.00043431473 	6.789739242e-05 	1.638297773e-07 	0.001014924469 	-3.682478947e-08 	1.934728121e-06
0.4609521059 	-0.0004386887654 	7.301824054e-05 	9.61607831e-08 	0.001017613963 	-2.18306826e-08 	1.939855045e-06
0.4650310796 	-0.0004431460197 	7.835790323e-05 	2.888800662e-08 	0.001020309247 	-6.636014594e-09 	1.944993004e-06
0.4668357211 	-0.0004451262623 	8.079790396e-05 	6.425608089e-08 	0.001021486699 	-1.148052348e-07 	1.947237556e-06
0.4691427018 	-0.000447638447 	8.388304175e-05 	3.527073005e-08 	0.001022961933 	-9.4855917e-09 	1.950049762e-06
0.4732883754 	-0.0004521522449 	8.954535822e-05 	9.669204127e-08 	0.001025572149 	-2.633934773e-08 	1.955025559e-06
0.4774803843 	-0.0004567282671 	9.540212736e-05 	1.567498279e-07 	0.001028164 	-4.331700033e-08 	1.959966347e-06
0.4817421683 	-0.0004613756286 	0.0001015135193 	2.156031695e-07 	0.001030728708 	-6.054317604e-08 	1.964855394e-06
0.4860417401 	-0.0004660701987 	0.0001078698701 	2.725459679e-07 	0.0010332464 	-7.790274249e-08 	1.969654814e-06
0.4903797886 	-0.0004708038593 	0.0001144214171 	3.275042818e-07 	0.001035714697 	-9.542170144e-08 	1.974360074e-06
0.4947803999 	-0.0004755981429 	0.0001212282831 	3.807090139e-07 	0.001038128402 	-1.13243127e-07 	1.978961267e-06
0.4992354499 	-0.0004804431395 	0.0001283307236 	4.317680154e-07 	0.001040467198 	-1.313391556e-07 	1.983419662e-06
0.5037306601 	-0.0004853169753 	0.0001356808525 	4.553265622e-07 	0.001042719406 	-1.41846764e-07 	1.987712997e-06
0.5082724463 	-0.0004902279109 	0.0001432844988 	4.020984194e-07 	0.001044880215 	-1.284675709e-07 	1.991832099e-06
0.5128848545 	-0.0004951835395 	0.0001512104419 	3.503428107e-07 	0.001046931932 	-1.149705694e-07 	1.995743242e-06
0.5175392283 	-0.0005001596371 	0.0001594526634 	3.006327203e-07 	0.001048851529 	-1.014903832e-07 	1.999402528e-06
0.5222363808 	-0.000505148363 	0.0001679625797 	2.529852638e-07 	0.001050635746 	-8.796825151e-08 	2.002803741e-06
0.5270041097 	-0.0005101626397 	0.0001768159745 	2.071695276e-07 	0.001052264396 	-7.430412088e-08 	2.005908401e-06
0.5318200389 	-0.0005151810128 	0.0001860374272 	1.636814579e-07 	0.001053707787 	-6.064469374e-08 	2.008659904e-06
0.536680741 	-0.0005201883837 	0.0001955616917 	1.225944388e-07 	0.001054961807 	-4.697700976e-08 	2.011050417e-06
0.5416066469 	-0.0005251917625 	0.0002054522394 	8.376223835e-08 	0.001056001764 	-3.323985243e-08 	2.013032862e-06
0.5465869844 	-0.0005301724286 	0.000215746971 	4.751311975e-08 	0.001056793774 	-1.955403238e-08 	2.014542654e-06
0.5516142321 	-0.0005351132227 	0.0002263835935 	1.395167788e-08 	0.001057331177 	-5.961649088e-09 	2.015567094e-06
0.5538787761 	-0.000537293321 	0.0002312925988 	1.597455255e-07 	0.00105744595 	-1.785203596e-07 	2.015785882e-06
0.5567044034 	-0.0005400027852 	0.0002373984494 	1.638633562e-08 	0.001057577374 	-7.760187234e-09 	2.016036414e-06
0.5618504434 	-0.000544824867 	0.0002488351992 	4.351309561e-08 	0.001057497608 	-2.137598187e-08 	2.015884358e-06
0.5670458373 	-0.0005495703136 	0.0002606459255 	6.790411794e-08 	0.00105708951 	-3.464442906e-08 	2.015106409e-06
0.5723074182 	-0.0005542313582 	0.0002728797419 	8.96527572e-08 	0.001056316081 	-4.756532539e-08 	2.013632038e-06
0.5776256405 	-0.0005587843642 	0.0002855601413 	1.085770674e-07 	0.001055137916 	-5.998696793e-08 	2.011386128e-06
0.5829956533 	-0.0005632115804 	0.0002986271923 	1.246986445e-07 	0.001053546434 	-7.183228933e-08 	2.008352321e-06
0.5884355186 	-0.0005674983135 	0.0003121343338 	1.381172319e-07 	0.00105149586 	-8.307204524e-08 	2.004443357e-06
0.5939304637 	-0.0005716185497 	0.0003260717493 	1.487294648e-07 	0.001048955018 	-9.353806597e-08 	1.999599806e-06
0.5994826701 	-0.0005755539166 	0.0003403937451 	1.566710753e-07 	0.001045911192 	-1.031771371e-07 	1.993797428e-06
0.6051035232 	-0.0005792736193 	0.0003551051924 	1.620466743e-07 	0.00104232715 	-1.119118525e-07 	1.986965247e-06
0.6107177553 	-0.0005827287095 	0.0003700249327 	1.648754364e-07 	0.001038233561 	-1.195429342e-07 	1.979161729e-06
0.6162709517 	-0.0005858701221 	0.0003849995794 	1.654093275e-07 	0.001033644984 	-1.259764523e-07 	1.970414627e-06
0.6217637219 	-0.0005886661104 	0.0003999925553 	1.638975759e-07 	0.001028536305 	-1.311635588e-07 	1.960676065e-06
0.6271906782 	-0.0005911269886 	0.0004149313949 	1.606408231e-07 	0.001022959186 	-1.351597332e-07 	1.950044525e-06
0.6325614689 	-0.0005932606828 	0.0004298193213 	1.559327192e-07 	0.001016937705 	-1.380430454e-07 	1.93856591e-06
0.6378707857 	-0.0005950625285 	0.0004446363801 	1.4997762e-07 	0.001010478235 	-1.398202005e-07 	1.926252364e-06
0.6431174905 	-0.0005965382994 	0.0004593175669 	1.430857689e-07 	0.001003618096 	-1.405897239e-07 	1.913175033e-06
0.6483109099 	-0.0005976813206 	0.0004738789189 	1.355117579e-07 	0.0009963516334 	-1.404536483e-07 	1.899323135e-06
0.6534436975 	-0.0005984891627 	0.0004883025256 	1.272655361e-07 	0.0009886919523 	-1.393588966e-07 	1.884721654e-06
0.6585173111 	-0.0005989703199 	0.0005025510325 	1.183495209e-07 	0.0009806689381 	-1.372621328e-07 	1.869427559e-06
0.6635382093 	-0.0005991294122 	0.0005166375912 	1.089071026e-07 	0.0009722798966 	-1.341907214e-07 	1.853435714e-06
0.6685009905 	-0.0005989778764 	0.0005305027736 	1.003373801e-07 	0.00096357334 	-1.311479894e-07 	1.836838597e-06
0.6734071819 	-0.0005985294258 	0.0005441156684 	9.310445636e-08 	0.0009545849503 	-1.285001318e-07 	1.819704228e-06
0.6782617452 	-0.0005971597424 	0.0005569621125 	1.022541197e-07 	0.0009442600542 	-9.381695662e-08 	1.800022107e-06
0.6830606945 	-0.0005943233314 	0.000568419134 	1.318802454e-07 	0.0009317539794 	-2.105007554e-08 	1.776182052e-06
0.6878050043 	-0.0005897715041 	0.0005781121035 	1.690244022e-07 	0.00091681747 	5.747541009e-08 	1.747708914e-06
0.6924993045 	-0.0005836641599 	0.0005861919823 	1.93782005e-07 	0.0008998616225 	1.04898863e-07 	1.715386356e-06
0.6971402893 	-0.0005768162432 	0.0005933693673 	1.976220505e-07 	0.0008822667661 	1.149031927e-07 	1.681845669e-06
0.7017288018 	-0.0005697864987 	0.0006001418808 	1.933796872e-07 	0.0008648576102 	1.17311204e-07 	1.64865898e-06
0.7062680543 	-0.0005627908161 	0.0006067878196 	1.849194773e-07 	0.0008478609982 	1.163440821e-07 	1.616258713e-06
0.7107566673 	-0.0005558880209 	0.0006134060256 	1.760927865e-07 	0.0008313067871 	1.13938022e-07 	1.584701786e-06
0.715194862 	-0.0005490931327 	0.000619983628 	1.677702922e-07 	0.0008151985796 	1.113973979e-07 	1.553995065e-06
0.7195845239 	-0.0005424159272 	0.0006265492747 	1.598444683e-07 	0.0007995453147 	1.088231779e-07 	1.524155592e-06
0.723926108 	-0.0005358362147 	0.0006331184753 	1.521609643e-07 	0.0007843006388 	1.060816439e-07 	1.495095003e-06
0.7282191882 	-0.0005293456316 	0.0006396753506 	1.4464942e-07 	0.00076944438 	1.03147064e-07 	1.466774844e-06
0.732464596 	-0.0005229572658 	0.0006462432835 	1.373300428e-07 	0.0007549897244 	1.000415012e-07 	1.439220253e-06
0.7366642635 	-0.0005166680861 	0.0006528536108 	1.302089926e-07 	0.0007409170011 	9.678085115e-08 	1.412393731e-06
0.7408172213 	-0.0005104672928 	0.0006595084782 	1.232839709e-07 	0.0007271973028 	9.337888434e-08 	1.386240173e-06
0.7449241094 	-0.0005043592707 	0.0006662071059 	1.165691395e-07 	0.0007138324319 	8.986831777e-08 	1.360763015e-06
0.7489861562 	-0.0004983523462 	0.0006729838753 	1.100770671e-07 	0.0007008262017 	8.627158749e-08 	1.335969525e-06
0.7530037844 	-0.0004924373799 	0.0006798581163 	1.037846782e-07 	0.0006881511119 	8.258503213e-08 	1.311807281e-06
0.7569769893 	-0.0004866098034 	0.0006868263425 	9.768804845e-08 	0.0006757928516 	7.882612442e-08 	1.288249002e-06
0.7609063522 	-0.0004808779955 	0.0006939047447 	9.179224701e-08 	0.0006637595151 	7.501709375e-08 	1.265310118e-06
0.7647930889 	-0.0004752436698 	0.0007011244486 	8.609141141e-08 	0.0006520440485 	7.116785521e-08 	1.242977183e-06
0.7686371274 	-0.0004696993496 	0.0007084992425 	8.056123607e-08 	0.000640624392 	6.727473792e-08 	1.221208144e-06
0.7724388481 	-0.0004642444141 	0.0007160302896 	7.51956685e-08 	0.0006294942425 	6.335340511e-08 	1.199990985e-06
0.7761987843 	-0.0004588862462 	0.0007237398026 	6.999273461e-08 	0.0006186600468 	5.941928723e-08 	1.179337997e-06
0.7799179674 	-0.0004536243492 	0.0007316565786 	6.493710356e-08 	0.0006081120804 	5.547473445e-08 	1.159230641e-06
0.7835963191 	-0.0004484532511 	0.0007397932521 	6.000530793e-08 	0.0005978334827 	5.151699609e-08 	1.139636777e-06
0.7872343077 	-0.0004433736002 	0.0007481568407 	5.518814807e-08 	0.0005878205262 	4.755703673e-08 	1.120549299e-06
0.7908324259 	-0.0004383907904 	0.0007567693589 	5.047848238e-08 	0.0005780769466 	4.360538455e-08 	1.101975328e-06
0.7943914833 	-0.0004335047155 	0.0007656593961 	4.585963197e-08 	0.0005685950269 	3.966257797e-08 	1.083900154e-06
0.7979115777 	-0.0004287109707 	0.0007748419272 	4.130767839e-08 	0.0005593607178 	3.572422148e-08 	1.066296994e-06
0.8013931357 	-0.0004240093734 	0.0007843271295 	3.681172455e-08 	0.0005503692197 	3.17975266e-08 	1.0491567e-06
0.8048366157 	-0.0004194036158 	0.0007941344514 	3.236243074e-08 	0.0005416223968 	2.788969568e-08 	1.032482825e-06
0.8082426297 	-0.0004148946554 	0.0008042923078 	2.794694644e-08 	0.000533115859 	2.400314375e-08 	1.016266999e-06
0.8116114793 	-0.000410478401 	0.0008148197344 	2.354192152e-08 	0.0005248367232 	2.013132089e-08 	1.000484665e-06
0.8149435088 	-0.0004061529833 	0.0008257271205 	1.913692405e-08 	0.0005167778803 	1.62786638e-08 	9.851222708e-07
0.8182391471 	-0.0004019204026 	0.0008370315351 	1.472454242e-08 	0.0005089392299 	1.245036377e-08 	9.701796245e-07
0.8214988533 	-0.0003977815756 	0.0008487568077 	1.029869909e-08 	0.0005013179884 	8.650805534e-09 	9.556514201e-07
0.8247230973 	-0.0003937334167 	0.000860924974 	5.84458091e-09 	0.0004939038741 	4.875019829e-09 	9.415180576e-07
0.827912141 	-0.0003897726455 	0.0008735457617 	1.355998293e-09 	0.0004866878393 	1.122968566e-09 	9.277622896e-07
0.8288611916 	-0.0003886069834 	0.000877483499 	1.295624971e-07 	0.0004845749648 	-1.154842346e-07 	9.237345636e-07
0.8310661903 	-0.0003858962954 	0.0008866318982 	3.16575986e-09 	0.0004796630249 	2.740882931e-09 	9.143710408e-07
0.8341857644 	-0.0003821056156 	0.0009001951236 	7.722812313e-09 	0.0004728278019 	6.625635786e-09 	9.013412062e-07
0.8372713925 	-0.000378401777 	0.0009142524624 	1.230767851e-08 	0.0004661799098 	1.046988886e-08 	8.886684761e-07