0.4709558481 	1.316437474e-07 	-2.515215775e-10 	-1.96953515e-17 	1.313932738e-07 	3.021021659e-13 	2.504720987e-10
0.4711314108 	1.478008927e-06 	-1.103536303e-08 	-8.858728015e-16 	1.475196625e-06 	3.392199972e-12 	2.812134777e-09
0.4713069734 	8.238346278e-06 	-1.439641603e-07 	-1.249585206e-14 	8.22266842e-06 	1.891875817e-11 	1.567469138e-08
0.471482536 	2.742558787e-05 	-8.9736796e-07 	-9.208187101e-14 	2.737338431e-05 	6.308181519e-11 	5.218127854e-08
0.4716580986 	6.772938516e-05 	-3.634916466e-06 	-4.869819399e-13 	6.760043055e-05 	1.563460533e-10 	1.288652092e-07
0.4718336613 	0.0001384987114 	-1.110136457e-05 	-2.084939825e-12 	0.0001382349121 	3.219041868e-10 	2.635141628e-07
0.4720092239 	0.0002490079719 	-2.776190428e-05 	-7.502035311e-12 	0.0002485331978 	5.853837003e-10 	4.737733513e-07
0.4721847865 	0.0004075422023 	-5.971198292e-05 	-2.298097602e-11 	0.0004067630456 	9.7443264e-10 	7.754034188e-07
0.4723603491 	0.000620248614 	-0.0001139466242 	-6.057748296e-11 	0.000619056485 	1.517134229e-09 	1.180093718e-06
0.4725359118 	0.0008899498439 	-0.0001970055726 	-1.39170852e-10 	0.0008882264501 	2.238382218e-09 	1.693206484e-06
0.4727114744 	0.001215296792 	-0.0003133716138 	-2.826942736e-10 	0.001212925124 	3.154305142e-09 	2.312172401e-06
0.472887037 	0.001590638848 	-0.0004642451743 	-5.154508229e-10 	0.001587517083 	4.266386809e-09 	3.026248787e-06
0.4730625996 	0.002006750196 	-0.0006472024191 	-8.565672526e-10 	0.002002800699 	5.557902966e-09 	3.817894782e-06
0.4732381623 	0.002452201856 	-0.0008568090339 	-1.31643767e-09 	0.002447370249 	6.994598657e-09 	4.665367906e-06
0.4734137249 	0.002914939842 	-0.001085831503 	-1.896594561e-09 	0.002909187846 	8.529515418e-09 	5.545720602e-06
0.4735892875 	0.003383642574 	-0.001326539589 	-2.592247112e-09 	0.0033769421 	1.011004637e-08 	6.437390215e-06
0.4737648501 	0.003848617982 	-0.001571728164 	-3.39556705e-09 	0.003840949723 	1.168481374e-08 	7.321917709e-06
0.4739404128 	0.004302211415 	-0.001815321067 	-4.298085954e-09 	0.004293566845 	1.320879764e-08 	8.184731742e-06
0.4741159754 	0.004738829819 	-0.002052598325 	-5.291637255e-09 	0.00472921389 	1.464609409e-08 	9.015196091e-06
0.474291538 	0.005154730037 	-0.002280172742 	-6.369511844e-09 	0.005144161046 	1.597048245e-08 	9.8062007e-06
0.4744671006 	0.00554776659 	-0.002495801882 	-7.520947179e-09 	0.005536070573 	1.714078293e-08 	1.055328918e-05
0.4746426632 	0.005916823712 	-0.002698135234 	-8.728628825e-09 	0.005904115265 	1.820332686e-08 	1.125488466e-05
0.4748182259 	0.006261557301 	-0.002886952139 	-1.005337903e-08 	0.006248570632 	1.918591891e-08 	1.191151233e-05
0.4749937885 	0.006583029982 	-0.003053969192 	-1.00045497e-08 	0.00656938264 	1.994699944e-08 	1.252306918e-05
0.4751693511 	0.006882782349 	-0.003196953744 	-9.411440988e-09 	0.006867515962 	2.062190804e-08 	1.309139415e-05
0.4753449137 	0.007161671516 	-0.003326404252 	-9.722894531e-09 	0.007145316566 	2.137352248e-08 	1.362095931e-05
0.4755204764 	0.007420775406 	-0.003446750953 	-9.997404789e-09 	0.007403944674 	2.202015923e-08 	1.411397637e-05
0.475696039 	0.007661452542 	-0.003558498752 	-1.02354062e-08 	0.007643943746 	2.253488027e-08 	1.457148131e-05
0.4758716016 	0.007884832002 	-0.003662175919 	-1.04385848e-08 	0.007866464721 	2.299201349e-08 	1.499566813e-05
0.4760471642 	0.008091998371 	-0.003758317087 	-1.060922656e-08 	0.00807278801 	2.337785176e-08 	1.538897766e-05
0.4762227269 	0.008309618472 	-0.0038593233 	-1.076802126e-08 	0.008289640777 	2.373730533e-08 	1.580235931e-05
0.4764955107 	0.008556403359 	-0.003973848128 	-1.092082425e-08 	0.008535483965 	2.408233828e-08 	1.627100475e-05
0.4767734216 	0.008801731983 	-0.004087640643 	-1.104093706e-08 	0.008779567566 	2.43511426e-08 	1.673629594e-05
0.4770565557 	0.009023403076 	-0.004190424823 	-1.111694283e-08 	0.008999943633 	2.451803905e-08 	1.715639397e-05
0.4773450114 	0.009223366669 	-0.004283121617 	-1.115231741e-08 	0.009198672482 	2.458889975e-08 	1.753522639e-05
0.4776388886 	0.009403495741 	-0.004366588106 	-1.114878035e-08 	0.009377555464 	2.456441683e-08 	1.787622707e-05
0.4779382892 	0.009565499477 	-0.004441619024 	-1.110476895e-08 	0.009538283884 	2.444283867e-08 	1.818262011e-05
0.4782433171 	0.009710933831 	-0.00450893956 	-1.101793754e-08 	0.009682414287 	2.422088097e-08 	1.845737272e-05
0.4785540779 	0.009841212166 	-0.00456920623 	-1.088650708e-08 	0.009811360144 	2.389443985e-08 	1.870317936e-05
0.4788706795 	0.009957613115 	-0.004623013157 	-1.070843269e-08 	0.009926399519 	2.345915502e-08 	1.892247638e-05
0.4791932316 	0.01006128972 	-0.004670896345 	-1.048164539e-08 	0.01002868544 	2.29108446e-08 	1.911746177e-05
0.4795218461 	0.0101532797 	-0.004713338399 	-1.020421842e-08 	0.01011925626 	2.224580925e-08 	1.929011494e-05
0.4798566368 	0.0102345159 	-0.004750773318 	-9.874479568e-09 	0.01019904606 	2.146103832e-08 	1.944221646e-05
0.48019772 	0.0103058364 	-0.004783591183 	-9.491086082e-09 	0.01026889464 	2.055434652e-08 	1.957536728e-05
0.4805452138 	0.01036799412 	-0.004812142583 	-9.053074431e-09 	0.01032955713 	1.95244618e-08 	1.969100683e-05
0.4808992388 	0.01042166566 	-0.004836742726 	-8.559893265e-09 	0.01038171273 	1.837108034e-08 	1.979042991e-05
0.4812599177 	0.01046745947 	-0.004857675213 	-8.011425955e-09 	0.01042597287 	1.70949009e-08 	1.987480204e-05
0.4816273755 	0.01050592318 	-0.004875195448 	-7.408007166e-09 	0.01046288848 	1.5697648e-08 	1.994517344e-05
0.4820017397 	0.01053755033 	-0.00488953372 	-6.750436438e-09 	0.01049295657 	1.418209136e-08 	2.000249159e-05
0.48238314 	0.01056278625 	-0.00490089796 	-6.039991595e-09 	0.01051662619 	1.255206763e-08 	2.004761247e-05
0.4827717088 	0.01058203348 	-0.004909476214 	-5.278443575e-09 	0.01053430364 	1.081250937e-08 	2.008131059e-05
0.4831675807 	0.0105956565 	-0.004915438842 	-4.468073688e-09 	0.01054635718 	8.969485323e-09 	2.0104288e-05
0.4835708931 	0.01060398604 	-0.00491894049 	-3.611694202e-09 	0.01055312127 	7.030255419e-09 	2.011718223e-05
0.4839817856 	0.01060732291 	-0.004920121855 	-2.712672123e-09 	0.01055490026 	5.003342786e-09 	2.012057347e-05
0.4844004009 	0.01060594147 	-0.004919111272 	-1.774955006e-09 	0.01055197179 	2.898622508e-09 	2.0114991e-05
0.4848268841 	0.01060009277 	-0.004916026161 	-8.030969061e-10 	0.01054458985 	7.274238099e-10 	2.010091897e-05
0.485261383 	0.01059000745 	-0.004910974344 	1.977186922e-10 	0.01053298756 	-1.497361353e-09 	2.007880178e-05
0.4857040484 	0.01057589844 	-0.004904055276 	1.221663409e-09 	0.01051737977 	-3.761154697e-09 	2.0049049e-05
0.4861550336 	0.01055796348 	-0.004895361199 	2.262260893e-09 	0.01049796547 	-6.047567692e-09 	2.001203994e-05
0.4866144951 	0.01053638749 	-0.004884978229 	3.312401312e-09 	0.0104749301 	-8.338538984e-09 	1.996812813e-05
0.4870825921 	0.01051134405 	-0.004872987373 	4.364377054e-09 	0.01044844905 	-1.061658661e-08 	1.991764788e-05
0.487559487 	0.01048299716 	-0.004859465391 	5.409891201e-09 	0.01041868967 	-1.286259862e-08 	1.986091823e-05
0.4880453452 	0.01045150662 	-0.004844485334 	6.439955559e-09 	0.01038580402 	-1.504376812e-08 	1.979822904e-05
0.4885403351 	0.01041707611 	-0.004828116275 	7.444320831e-09 	0.01034983355 	-1.696478657e-08 	1.972965934e-05
0.4890446283 	0.01037974458 	-0.004810424348 	8.41516472e-09 	0.01031112078 	-1.921603337e-08 	1.965586203e-05
0.4895583997 	0.01033951346 	-0.004791469067 	9.339474319e-09 	0.01027003524 	-2.164936809e-08 	1.957754158e-05
0.4900818274 	0.0102967609 	-0.004767958378 	4.389334276e-09 	0.0102260532 	-2.277881222e-08 	1.949369958e-05
0.4906150929 	0.01025155099 	-0.00473961276 	1.298694862e-09 	0.01017914217 	-2.4070335e-08 	1.940427413e-05
0.4911583811 	0.01020356595 	-0.004710031491 	4.550580686e-09 	0.0101300113 	-2.636447276e-08 	1.931061703e-05
0.4917118805 	0.01015291283 	-0.004679549741 	6.454847511e-09 	0.01007854015 	-2.781209959e-08 	1.921249871e-05
0.4922757829 	0.01009976788 	-0.004647964383 	8.453686905e-09 	0.01002447898 	-2.879693215e-08 	1.910944309e-05
0.4928502838 	0.01004410675 	-0.004615299775 	1.055355828e-08 	0.00996796729 	-2.995428246e-08 	1.900171611e-05
0.4934355824 	0.009985943138 	-0.004581589443 	1.27485079e-08 	0.00990905745 	-3.092067092e-08 	1.888941758e-05
0.4940318817 	0.009925306281 	-0.004546907356 	1.507320619e-08 	0.009847762618 	-3.173604784e-08 	1.877257259e-05
0.4946393885 	0.009862218936 	-0.004511339049 	1.748880492e-08 	0.009784099897 	-3.240015797e-08 	1.865121375e-05
0.4952583133 	0.009796701304 	-0.004474966219 	1.995070616e-08 	0.009718082269 	-3.290594028e-08 	1.852536581e-05
0.4958888709 	0.00972877039 	-0.004437864142 	2.241494061e-08 	0.009649719701 	-3.324826684e-08 	1.839504775e-05
0.4965312797 	0.00965844004 	-0.004400100915 	2.484016973e-08 	0.009579019003 	-3.341938772e-08 	1.826027257e-05
0.4971857627 	0.009585721052 	-0.004361737573 	2.718877815e-08 	0.00950598362 	-3.34106309e-08 	1.812104683e-05
0.4978525466 	0.009510621229 	-0.004322828363 	2.942678249e-08 	0.009430613697 	-3.321279006e-08 	1.797737081e-05
0.4985318627 	0.009433145455 	-0.00428342097 	3.152378586e-08 	0.009352906185 	-3.281641003e-08 	1.782923869e-05
0.4992239466 	0.009353295831 	-0.004243556684 	3.345293718e-08 	0.009272855009 	-3.221207432e-08 	1.76766389e-05
0.4999290382 	0.009271071852 	-0.004203270453 	3.519087787e-08 	0.009190451293 	-3.139063099e-08 	1.751955452e-05
0.5006473819 	0.009186470642 	-0.004162590751 	3.671767168e-08 	0.009105683665 	-3.034338067e-08 	1.735796386e-05
0.501379227 	0.009099487065 	-0.004121539444 	3.801672752e-08 	0.009018539006 	-2.906221033e-08 	1.719184192e-05
0.502124827 	0.00901011432 	-0.004080132127 	3.907474432e-08 	0.008929002395 	-2.753965223e-08 	1.702116025e-05
0.5028844406 	0.00891834402 	-0.004038380664 	3.988166415e-08 	0.008837058245 	-2.576885951e-08 	1.684588915e-05
0.5036583311 	0.00882416087 	-0.003996317316 	4.042975417e-08 	0.008742702199 	-2.374328595e-08 	1.66660203e-05
0.5044467669 	0.008727595573 	-0.003954008471 	4.071126796e-08 	0.008645835985 	-2.146073955e-08 	1.648136637e-05
0.5052500214 	0.008628631074 	-0.003911571032 	4.071018101e-08 	0.008546454467 	-1.891778746e-08 	1.629191758e-05
0.506068373 	0.008514046976 	-0.003864251612 	4.031946551e-08 	0.008431650788 	-1.573289965e-08 	1.607306986e-05
0.507324668 	0.008370308576 	-0.003805091614 	3.942529701e-08 	0.008287609501 	-1.141215126e-08 	1.579848713e-05
0.5085949819 	0.008210506942 	-0.003738283108 	3.804740007e-08 	0.008127127752 	-6.242198928e-09 	1.549256431e-05
0.5098794711 	0.008047582698 	-0.003670145588 	3.631929389e-08 	0.007963568012 	-6.969515766e-10 	1.518077399e-05
0.5111782938 	0.007881449187 	-0.003600989468 	3.467421377e-08 	0.007796970864 	5.317391794e-09 	1.486319352e-05
0.5124916099 	0.007712272286 	-0.003531085245 	3.343059021e-08 	0.007626881374 	1.281133485e-08 	1.453895568e-05
0.5138195812 	0.007539873991 	-0.003460878775 	3.462711891e-08 	0.007453519278 	1.88870357e-08 	1.420847934e-05
0.5151623712 	0.007363879315 	-0.003391959666 	3.859680992e-08 	0.007277491214 	2.388970762e-08 	1.387292093e-05
0.5165201452 	0.007184549129 	-0.00331768265 	1.166674042e-08 	0.007097196352 	3.647409383e-08 	1.352922881e-05
0.5178930705 	0.007001277763 	-0.003233697954 	-2.072477395e-08 	0.006911139653 	5.21212015e-08 	1.317455303e-05
0.5192813161 	0.006812331909 	-0.003145294716 	-2.73539311e-08 	0.006719929885 	6.368455981e-08 	1.281005407e-05
0.520685053 	0.006616962311 	-0.00305412271 	-3.426417062e-08 	0.00652339246 	7.681781295e-08 	1.243539911e-05
0.522104454 	0.006415155859 	-0.002960070293 	-4.125337808e-08 	0.00632082974 	9.18683135e-08 	1.204925827e-05
0.523539694 	0.006206860633 	-0.002863105829 	-4.817350046e-08 	0.00611219365 	1.061481421e-07 	1.165153989e-05
0.5249909497 	0.005992553471 	-0.002763433606 	-5.471401215e-08 	0.00589791053 	1.198184208e-07 	1.124305671e-05
0.5264583998 	0.005773646119 	-0.002661690786 	-6.048311935e-08 	0.005679320357 	1.319763797e-07 	1.082636309e-05
0.527942225 	0.005552138474 	-0.002558799637 	-6.534671095e-08 	0.005458403182 	1.422413618e-07 	1.040523355e-05
0.5294426081 	0.005330124894 	-0.002455704711 	-6.933941429e-08 	0.005237085455 	1.509002284e-07 	9.98334045e-06
0.5309597337 	0.005109788389 	-0.002353316988 	-7.24441666e-08 	0.005016915271 	1.571555338e-07 	9.563634885e-06
0.5324937889 	0.004892300021 	-0.002252522079 	-7.466776799e-08 	0.004801127852 	1.609233309e-07 	9.15228409e-06
0.5340449624 	0.004678659844 	-0.00215105196 	-8.432591676e-08 	0.004591613918 	1.647070948e-07 	8.752892301e-06
0.5356134452 	0.004469876737 	-0.002031204994 	-9.410785763e-08 	0.004384942468 	1.681008041e-07 	8.358919076e-06
0.5371994306 	0.004264100348 	-0.001899422252 	-9.605424671e-08 	0.004180695314 	1.699195209e-07 	7.969567234e-06
0.5388031139 	0.00405978035 	-0.001774453121 	-9.746985307e-08 	0.003981113272 	1.717867779e-07 	7.589108389e-06
0.5404246925 	0.003858245032 	-0.001653510338 	-9.816891601e-08 	0.003784578032 	1.735926495e-07 	7.214457598e-06
0.5420643661 	0.003660197268 	-0.001536411572 	-9.843798072e-08 	0.003590594388 	1.746255811e-07 	6.844670857e-06
0.5437223366 	0.003465588055 	-0.001422899799 	-9.83879995e-08 	0.003400255036 	1.751016709e-07 	6.481831151e-06
0.5453988083 	0.003274856431 	-0.001312832101 	-9.79821452e-08 	0.003213824406 	1.749077901e-07 	6.126442554e-06
0.5470939875 	0.003088453306 	-0.001206286907 	-9.720659455e-08 	0.003031744648 	1.739510122e-07 	5.77934793e-06
0.5488080831 	0.002906910874 	-0.001103390775 	-9.603976857e-08 	0.002854529504 	1.721284265e-07 	5.441526609e-06
0.5505413061 	0.002730847054 	-0.001004303306 	-9.445585565e-08 	0.0026827732 	1.693278284e-07 	5.114111357e-06
0.5522938699 	0.00256096393 	-0.0009092102151 	-9.242769898e-08 	0.002517157343 	1.654373863e-07 	4.798401503e-06
0.5540659904 	0.002398045751 	-0.0008183192471 	-8.993078727e-08 	0.002358444343 	1.603508747e-07 	4.495850413e-06
0.5558578859 	0.002242949378 	-0.0007318541881 	-8.69487743e-08 	0.002207468322 	1.539759512e-07 	4.208048156e-06
0.5576697768 	0.002096586949 	-0.0006500445308 	-8.347954126e-08 	0.002065118309 	1.462450393e-07 	3.936689468e-06
0.5595018865 	0.001959898279 	-0.0005731106802 	-7.954158182e-08 	0.001932311588 	1.371292894e-07 	3.683522945e-06
0.5613544406 	0.00183381072 	-0.0005012448183 	-7.517997283e-08 	0.001809954795 	1.26655182e-07 	3.450276889e-06
0.563227667 	0.00171918517 	-0.0004345884518 	-7.047059386e-08 	0.001698891354 	1.149220273e-07 	3.238559103e-06
0.5651217966 	0.001616749204 	-0.0003732089735 	-6.55207246e-08 	0.001599836034 	1.021173075e-07 	3.049732133e-06
0.5670370626 	0.001527021699 	-0.0003170789552 	-6.046404504e-08 	0.001513300661 	8.852570775e-08 	2.88477166e-06
0.5689737009 	0.001450236819 	-0.0002660627507 	-5.544909032e-08 	0.001439519158 	7.453009586e-08 	2.744123608e-06
0.5709319499 	0.001386278836 	-0.000219914571 	-5.062430607e-08 	0.001378381308 	6.059918643e-08 	2.627577875e-06
0.5729120508 	0.001334636631 	-0.0001782867736 	-4.610450275e-08 	0.001329387726 	4.727615201e-08 	2.53418249e-06
0.5749142474 	0.00129459584 	-0.000140800216 	-4.192358913e-08 	0.001291845031 	3.458314847e-08 	2.46261568e-06
0.5769387863 	0.001265512263 	-0.0001070480852 	-3.815347266e-08 	0.001265133165 	2.240660193e-08 	2.411695438e-06
0.5789859169 	0.001246556107 	-7.655587561e-05 	-3.487141918e-08 	0.001248441735 	1.129633403e-08 	2.379876933e-06
0.5810558911 	0.001236479662 	-4.886751913e-05 	-3.203389244e-08 	0.001240541473 	1.678666297e-09 	2.364816839e-06
0.583148964 	0.001233895809 	-2.358718226e-05 	-2.959058324e-08 	0.001240064866 	-6.441192622e-09 	2.363908293e-06
0.5852653933 	0.001237499146 	-3.571641806e-07 	-2.750889998e-08 	0.001245724244 	-1.315004687e-08 	2.37469664e-06
0.5874054395 	0.001246111287 	2.11380031e-05 	-2.574364526e-08 	0.001256356813 	-1.858773549e-08 	2.394965273e-06
0.5895693664 	0.001258701989 	4.116993635e-05 	-2.425071686e-08 	0.001270945386 	-2.291693292e-08 	2.422775147e-06
0.5917574402 	0.001274393397 	5.996949751e-05 	-2.298914419e-08 	0.001288622244 	-2.630266403e-08 	2.45647215e-06
0.5939699306 	0.001292452104 	7.773158624e-05 	-2.192212881e-08 	0.001308661625 	-2.889923051e-08 	2.494672781e-06
0.5962071099 	0.00131227405 	9.461999617e-05 	-2.101709509e-08 	0.001330465098 	-3.084322171e-08 	2.536236261e-06
0.5984692536 	0.001333366505 	0.0001107718263 	-2.024540644e-08 	0.001353543951 	-3.225150196e-08 	2.580230968e-06
0.6007566404 	0.001355330236 	0.0001263013721 	-1.958205732e-08 	0.001377501698 	-3.322241921e-08 	2.625901094e-06
0.6030695519 	0.001377843698 	0.0001413035674 	-1.900547414e-08 	0.00140201854 	-3.383858033e-08 	2.672637008e-06
0.6054082729 	0.001400649852 	0.0001558570784 	-1.849741864e-08 	0.0014268384 	-3.4169795e-08 	2.71995056e-06
0.6077730914 	0.001423545402 	0.0001700271204 	-1.804289798e-08 	0.001451758362 	-3.427532799e-08 	2.767454933e-06
0.6101642987 	0.001446371851 	0.0001838680005 	-1.762998032e-08 	0.001476619876 	-3.420524479e-08 	2.814847889e-06
0.6125821893 	0.001469007795 	0.0001974253526 	-1.724948008e-08 	0.001501301178 	-3.400113197e-08 	2.86189731e-06
0.6150270608 	0.001491362093 	0.0002107380271 	-1.689454973e-08 	0.001525710549 	-3.36966405e-08 	2.908428355e-06
0.6174992144 	0.00151336785 	0.0002238396312 	-1.656024424e-08 	0.001549780329 	-3.331817661e-08 	2.954312047e-06
0.6199989545 	0.001534977198 	0.0002367597449 	-1.624311163e-08 	0.001573461727 	-3.288583259e-08 	2.999455372e-06
0.622526589 	0.001556156959 	0.0002495248553 	-1.594083617e-08 	0.001596720468 	-3.241447669e-08 	3.043792998e-06
0.625082429 	0.001576885144 	0.0002621590613 	-1.565194135e-08 	0.001619533295 	-3.191486029e-08 	3.087280587e-06
0.6276667894 	0.001597148242 	0.0002746845909 	-1.537555094e-08 	0.001641885239 	-3.139462394e-08 	3.129889603e-06
0.6302799884 	0.001616939157 	0.0002871221748 	-1.511120213e-08 	0.001663767549 	-3.085913767e-08 	3.171603368e-06
0.6329223478 	0.001636255678 	0.0002994913083 	-1.485870396e-08 	0.001685176163 	-3.031215962e-08 	3.212414138e-06
0.6355941931 	0.001655099359 	0.0003118104299 	-1.461803294e-08 	0.001706110584 	-2.975632791e-08 	3.252320962e-06
0.6382958531 	0.001673474696 	0.0003240970392 	-1.438925849e-08 	0.001726573059 	-2.91935146e-08 	3.291328128e-06
0.6410276607 	0.001691388522 	0.0003363677704 	-1.417249104e-08 	0.001746567989 	-2.862507304e-08 	3.32944402e-06
0.6437899523 	0.001708849567 	0.000348638433 	-1.396784692e-08 	0.001766101487 	-2.80520068e-08 	3.366680298e-06
0.646583068 	0.001725868115 	0.0003609240302 	-1.377542561e-08 	0.001785181062 	-2.74750831e-08 	3.403051269e-06
0.6494073518 	0.001742455747 	0.0003732387596 	-1.359529552e-08 	0.001803815365 	-2.689490808e-08 	3.43857343e-06
0.6522631514 	0.001758625133 	0.0003855960008 	-1.342748588e-08 	0.001822014009 	-2.631197659e-08 	3.473265104e-06
0.6551508186 	0.001774389861 	0.0003980082928 	-1.327198275e-08 	0.001839787416 	-2.572670545e-08 	3.507146158e-06
0.658070709 	0.001789764298 	0.0004104873024 	-1.312872784e-08 	0.001857146701 	-2.513945608e-08 	3.54023778e-06
0.6610231822 	0.001804763466 	0.0004230437837 	-1.299761915e-08 	0.001874103571 	-2.455055072e-08 	3.572562287e-06
0.6640086017 	0.001819402933 	0.0004356875304 	-1.287851279e-08 	0.001890670248 	-2.396028476e-08 	3.604142978e-06
0.6670273351 	0.001833698722 	0.0004484273186 	-1.277122556e-08 	0.001906859401 	-2.336893684e-08 	3.635004003e-06
0.6700797543 	0.00184766722 	0.0004612708418 	-1.26755379e-08 	0.001922684089 	-2.277677779e-08 	3.665170255e-06
0.6731662352 	0.001861325102 	0.0004742246352 	-1.259119703e-08 	0.00193815771 	-2.218407896e-08 	3.694667278e-06
0.6762871577 	0.001874689268 	0.0004872939902 	-1.251792021e-08 	0.001953293965 	-2.159112043e-08 	3.723521186e-06
0.6794429063 	0.001887776773 	0.0005004828569 	-1.245539802e-08 	0.001968106816 	-2.099819907e-08 	3.751758598e-06
0.6826338695 	0.001900604778 	0.0005137937346 	-1.240329757e-08 	0.001982610458 	-2.040563684e-08 	3.77940657e-06
0.6858604404 	0.001913190502 	0.0005272275487 	-1.236126581e-08 	0.001996819288 	-1.981378905e-08 	3.80649255e-06
0.6891230163 	0.001925551182 	0.0005407835133 	-1.232893287e-08 	0.002010747881 	-1.922305295e-08 	3.833044319e-06
0.6924219988 	0.00193770404 	0.0005544589792 	-1.23059155e-08 	0.002024410961 	-1.863387626e-08 	3.859089947e-06
0.6957577944 	0.001949666262 	0.0005682492664 	-1.229182081e-08 	0.00203782338 	-1.804676603e-08 	3.884657745e-06
0.6991308138 	0.00196145498 	0.0005821474809 	-1.228625021e-08 	0.002051000091 	-1.746229744e-08 	3.90977622e-06
0.7025414724 	0.001973087266 	0.0005961443172 	-1.22888038e-08 	0.002063956125 	-1.688112285e-08 	3.934474021e-06
0.7059901901 	0.001984580137 	0.0006102278465 	-1.22990852e-08 	0.00207670656 	-1.630398082e-08 	3.958779894e-06
0.7094773917 	0.001995950561 	0.0006243832934 	-1.231670677e-08 	0.002089266501 	-1.573170523e-08 	3.982722632e-06
0.7130035066 	0.002007215486 	0.0006385928046 	-1.234129534e-08 	0.002101651044 	-1.51652343e-08 	4.006331014e-06
0.7165689691 	0.002018391871 	0.0006528352146 	-1.23724982e-08 	0.002113875255 	-1.460561959e-08 	4.029633758e-06
0.7201742182 	0.002029496729 	0.0006670858217 	-1.240998882e-08 	0.002125954138 	-1.405403457e-08 	4.052659466e-06
0.7238196978 	0.002040547207 	0.0006813161613 	-1.245347167e-08 	0.002137902567 	-1.351178459e-08 	4.075436492e-06
0.727505857 	0.002051560568 	0.0006954937653 	-1.250268571e-08 	0.002149735427 	-1.298031316e-08 	4.097993212e-06
0.7312331497 	0.002062554236 	0.0007095818842 	-1.255740686e-08 	0.00216146766 	-1.24612024e-08 	4.120358109e-06
0.7350020349 	0.002073517212 	0.000723501125 	-1.261736755e-08 	0.002173083036 	-1.195748492e-08 	4.142500244e-06
0.7387709215 	0.002084376618 	0.0007370934114 	-1.26819413e-08 	0.002184500752 	-1.147484038e-08 	4.164265583e-06
0.7424982157 	0.002095062088 	0.0007502142614 	-1.275024662e-08 	0.002195646346 	-1.101825141e-08 	4.185512184e-06
0.7461843763 	0.002105567179 	0.0007628063288 	-1.282169137e-08 	0.002206513912 	-1.058944625e-08 	4.206228786e-06
0.7498298574 	0.002115912935 	0.0007748489011 	-1.289592707e-08 	0.0022171255 	-1.018880364e-08 	4.226457421e-06
0.7534351078 	0.002126118995 	0.0007863235958 	-1.297259668e-08 	0.002227501404 	-9.81662097e-09 	4.246236778e-06
0.7570005716 	0.002136203809 	0.0007972149968 	-1.305131241e-08 	0.00223766042 	-9.473097508e-09 	4.265602686e-06
0.7605266877 	0.002146184891 	0.0008075111876 	-1.313163218e-08 	0.002247619981 	-9.158318351e-09 	4.284588378e-06
0.7640138905 	0.002156078969 	0.0008172042136 	-1.321303641e-08 	0.002257396451 	-8.872233556e-09 	4.303225046e-06
0.7674626093 	0.002165902139 	0.0008262904699 	-1.329490602e-08 	0.002267005357 	-8.614638591e-09 	4.321542291e-06
0.770873269 	0.002175670006 	0.0008347710152 	-1.337650294e-08 	0.002276461614 	-8.385154886e-09 	4.339568546e-06
0.7742462894 	0.002185397819 	0.0008426517883 	-1.345695469e-08 	0.002285779735 	-8.183211126e-09 	4.357331475e-06
0.777582086 	0.002195100599 	0.0008499437198 	-1.353524365e-08 	0.002294974028 	-8.008025475e-09 	4.374858353e-06
0.7808810695 	0.002204793252 	0.0008566627312 	-1.36102021e-08 	0.002304058778 	-7.858589112e-09 	4.39217641e-06
0.7841436462 	0.002214490698 	0.0008628296162 	-1.368051407e-08 	0.002313048423 	-7.733651594e-09 	4.409313173e-06
0.787370218 	0.002224207981 	0.0008684698178 	-1.3744724e-08 	0.002321957722 	-7.631708321e-09 	4.426296774e-06
0.7905611821 	0.002233960389 	0.0008736131118 	-1.380125174e-08 	0.002330801916 	-7.550990329e-09 	4.443156264e-06
0.7937169314 	0.002243763577 	0.0008782932147 	-1.384841334e-08 	0.002339596878 	-7.489456624e-09 	4.459921906e-06
0.7968378547 	0.002253633687 	0.0008825473389 	-1.388444657e-08 	0.002348359271 	-7.444789124e-09 	4.476625463e-06
0.7999243362 	0.002263587483 	0.0008864157156 	-1.390753965e-08 	0.002357106695 	-7.414390127e-09 	4.493300485e-06
0.8029767561 	0.002273642485 	0.0008899411105 	-1.391586162e-08 	0.002365857841 	-7.395382087e-09 	4.509982601e-06
0.8059954902 	0.002283817117 	0.0008931683505 	-1.390759291e-08 	0.002374632638 	-7.3846094e-09 	4.526709803e-06
0.8089809102 	0.002294130859 	0.0008961438812 	-1.388095425e-08 	0.002383452415 	-7.378641762e-09 	4.54352275e-06
0.8119333839 	0.002304604419 	0.0008989153657 	-1.383423271e-08 	0.002392340061 	-7.373778668e-09 	4.560465073e-06
0.8148532749 	0.00231525991 	0.0009015313366 	-1.376580361e-08 	0.002401320189 	-7.366054524e-09 	4.577583693e-06
0.8177409426 	0.002326121037 	0.0009040409048 	-1.367414728e-08 	0.002410419315 	-7.351243902e-09 	4.594929156e-06
0.8205967427 	0.002337213309 	0.0009064935285 	-1.355785986e-08 	0.002419666039 	-7.32486646e-09 	4.612555981e-06
0.8234210268 	0.002348564255 	0.0009089388401 	-1.341565743e-08 	0.002429091234 	-7.282191075e-09 	4.630523023e-06
0.8262141429 	0.002360203658 	0.0009114265295 	-1.324637302e-08 	0.002438728253 	-7.218238811e-09 	4.64889386e-06
0.8289764348 	0.002372163808 	0.0009140062794 	-1.304894568e-08 	0.002448613137 	-7.127784338e-09 	4.667737197e-06
0.8317082427 	0.002384479757 	0.0009167277476 	-1.282240123e-08 	0.002458784837 	-7.005355467e-09 	4.687127283e-06
0.8344099031 	0.002397189604 	0.000919640592 	-1.25658237e-08 	0.002469285444 	-6.84523048e-09 	4.707144359e-06
0.8370817486 	0.002410334782 	0.0009227945327 	-1.227831687e-08 	0.002480160436 	-6.641432903e-09 	4.727875116e-06
0.8397241082 	0.002423960361 	0.0009262394488 	-1.195895467e-08 	0.002491458923 	-6.387723385e-09 	4.749413172e-06
0.8423373074 	0.002438115359 	0.0009300255051 	-1.16067196e-08 	0.002503233909 	-6.077588304e-09 	4.771859569e-06
0.844921668 	0.002452853066 	0.0009342033067 	-1.122042827e-08 	0.002515542558 	-5.704224775e-09 	4.795323275e-06
0.8474775082 	0.00246823137 	0.0009388240796 	-1.079864328e-08 	0.002528446464 	-5.26052172e-09 	4.819921706e-06
0.8500051427 	0.002484313081 	0.0009439398752 	-1.033957144e-08 	0.002542011923 	-4.739036879e-09 	4.845781241e-06
0.8525048829 	0.002501166257 	0.0009496037975 	-9.840949379e-09 	0.002556310207 	-4.131969937e-09 	4.873037744e-06
0.8549770366 	0.002518864518 	0.0009558702515 	-9.299918747e-09 	0.002571417827 	-3.431132438e-09 	4.901837068e-06
0.8574219081 	0.002537487336 	0.0009627952079 	-8.712895823e-09 	0.002587416793 	-2.627916066e-09 	4.932335543e-06
0.8598397987 	0.0025571203 	0.0009704364824 	-8.075442813e-09 	0.002604394841 	-1.713262127e-09 	4.964700422e-06
0.862231006 	0.002577855333 	0.0009788540178 	-7.382151918e-09 	0.002622445648 	-6.776368574e-10 	4.999110275e-06
0.8645958245 	0.002599790851 	0.0009881101602 	-6.626557318e-09 	0.002641668988 	4.88980428e-10 	5.035755304e-06
0.8669345455 	0.002623031837 	0.00099826991 	-5.801094499e-09 	0.002662170846 	1.797086416e-09 	5.074837544e-06
0.8692474569 	0.002647689804 	0.001009401123 	-4.897130208e-09 	0.002684063441 	3.257606862e-09 	5.116570916e-06
0.8715348435 	0.002673882634 	0.001021574636 	-3.905088516e-09 	0.002707465156 	4.881797103e-09 	5.161181089e-06
0.8737969871 	0.002701734235 	0.001034864265 	-2.814697744e-09 	0.002732500325 	6.681071026e-09 	5.208905078e-06
0.8760341663 	0.002731374023 	0.001049346656 	-1.615377746e-09 	0.00275929886 	8.666739201e-09 	5.259990535e-06
0.8782466565 	0.002762936165 	0.001065100915 	-2.96775898e-10 	0.002787995678 	1.084964037e-08 	5.314694646e-06
0.8804347301 	0.002796558598 	0.001082207995 	1.150557654e-09 	0.002818729877 	1.323965988e-08 	5.373282571e-06
0.8825986568 	0.0028323818 	0.001100749801 	2.73438921e-09 	0.002851643653 	1.584514513e-08 	5.436025377e-06
0.8847387028 	0.002870547334 	0.001120807996 	4.459978161e-09 	0.002886880931 	1.867225164e-08 	5.503197422e-06
0.8868551318 	0.002911196208 	0.001142462536 	6.329304849e-09 	0.002924585711 	2.172428009e-08 	5.575073212e-06
0.8889482045 	0.002954467086 	0.001165789977 	8.34046944e-09 	0.002964900176 	2.500108792e-08 	5.651923787e-06
0.8910181784 	0.003000494442 	0.001190861672 	1.048739061e-08 	0.00300796263 	2.849866736e-08 	5.734012793e-06
0.8930653087 	0.003049406713 	0.001217741971 	1.27599087e-08 	0.003053905364 	3.220896696e-08 	5.821592413e-06
0.8950898473 	0.003101324527 	0.001246486618 	1.514432695e-08 	0.003102852576 	3.611999133e-08 	5.914899404e-06
0.8970920436 	0.003156359058 	0.001277141467 	1.762431343e-08 	0.003154918464 	4.021615362e-08 	6.014151456e-06
0.8990721441 	0.003214610543 	0.001309741626 	2.018197655e-08 	0.00321020558 	4.447879859e-08 	6.119544066e-06
0.9010303927 	0.003276166984 	0.001344311048 	2.279887914e-08 	0.003268803508 	4.888678375e-08 	6.231248004e-06
0.9029670306 	0.003341103038 	0.001380862489 	2.545680402e-08 	0.003330787857 	5.34170144e-08 	6.349407399e-06
0.9048822962 	0.003409479093 	0.001419397725 	2.81381975e-08 	0.003396219537 	5.804486348e-08 	6.474138368e-06
0.9067764254 	0.003481340502 	0.001459907914 	3.082632375e-08 	0.003465144274 	6.274444696e-08 	6.605528074e-06
0.9086496514 	0.00355671694 	0.001502374026 	3.35052126e-08 	0.003537592262 	6.748875314e-08 	6.743634075e-06
0.910502205 	0.003635621845 	0.001546767307 	3.615946831e-08 	0.003613577906 	7.224963982e-08 	6.88848383e-06
0.9123343142 	0.003718051867 	0.00159304976 	3.877394983e-08 	0.003693099562 	7.699772064e-08 	7.040074209e-06
0.9141462048 	0.003803986311 	0.001641174557 	4.1333286e-08 	0.003776139236 	8.170217165e-08 	7.198370907e-06
0.9159380997 	0.003893386536 	0.001691086273 	4.382120906e-08 	0.00386266218 	8.633050319e-08 	7.363307687e-06
0.9177102197 	0.00398619534 	0.001742720777 	4.621978187e-08 	0.003952616417 	9.084835339e-08 	7.534785464e-06
0.9194627831 	0.004082336369 	0.001796004726 	4.850870439e-08 	0.004045932211 	9.521936659e-08 	7.712671303e-06
0.9211960055 	0.004181713598 	0.001850854669 	5.066492861e-08 	0.004142521591 	9.940517823e-08 	7.896797507e-06
0.9229101006 	0.004284210958 	0.001907175913 	5.266272756e-08 	0.004242277961 	1.033654994e-07 	8.086960874e-06
0.9246052793 	0.004389691983 	0.001964861608 	5.44746229e-08 	0.004345076152 	1.070587422e-07 	8.282922798e-06