0 	-5.929093681e-05 	2.700819867e-18 	1.216766804e-20 	-1.500030364e-18 	-6.549274009e-20 	-2.859474786e-21
0.0003187685652 	-5.983184839e-05 	-4.769812367e-06 	9.894891655e-11 	2.606226156e-05 	-3.102634508e-09 	4.968191416e-08
0.0006375366988 	-6.001400715e-05 	-1.055879361e-05 	4.27384855e-10 	2.899431789e-05 	-3.314345571e-09 	5.527122845e-08
0.0009563044003 	-5.978732348e-05 	-1.546761829e-05 	5.983069104e-10 	2.945192239e-05 	-3.229207895e-09 	5.614354981e-08
0.001275071669 	-5.991634122e-05 	-2.046012786e-05 	7.588026342e-10 	2.978818281e-05 	-3.127030051e-09 	5.678455564e-08
0.001593838505 	-5.992620711e-05 	-2.546304618e-05 	9.019182049e-10 	2.983708785e-05 	-2.992479402e-09 	5.687778224e-08
0.001912604907 	-5.995159721e-05 	-3.047708318e-05 	1.028752801e-09 	2.988053133e-05 	-2.856815457e-09 	5.696059758e-08
0.002231370875 	-5.998053361e-05 	-3.549839469e-05 	1.139225082e-09 	2.991322756e-05 	-2.71965314e-09 	5.702292568e-08
0.002550136408 	-6.001562571e-05 	-4.052515522e-05 	1.233295395e-09 	2.994434123e-05 	-2.581978091e-09 	5.708223699e-08
0.002868901507 	-6.005523355e-05 	-4.555618095e-05 	1.31091467e-09 	2.997368435e-05 	-2.443810866e-09 	5.713817313e-08
0.003187666171 	-6.00995599e-05 	-5.059072984e-05 	1.372044229e-09 	3.000311298e-05 	-2.305342203e-09 	5.719427227e-08
0.003506430399 	-6.014861429e-05 	-5.562831832e-05 	1.416654551e-09 	3.003346607e-05 	-2.166653756e-09 	5.725213371e-08
0.003825194192 	-6.020244134e-05 	-6.066863515e-05 	1.444724697e-09 	3.006529403e-05 	-2.027792395e-09 	5.731280663e-08
0.004143957549 	-6.026106322e-05 	-6.571148147e-05 	1.456240707e-09 	3.009891599e-05 	-1.88877989e-09 	5.737689944e-08
0.00446272047 	-6.032450738e-05 	-7.075673472e-05 	1.451194431e-09 	3.013454998e-05 	-1.749626126e-09 	5.744482773e-08
0.004781482955 	-6.039280314e-05 	-7.580432502e-05 	1.429582651e-09 	3.017234846e-05 	-1.610333362e-09 	5.751688213e-08
0.005100245004 	-6.046598226e-05 	-8.085421974e-05 	1.391406428e-09 	3.021242332e-05 	-1.470899e-09 	5.759327595e-08
0.005419006617 	-6.054407889e-05 	-8.590641288e-05 	1.336670629e-09 	3.025485986e-05 	-1.331317145e-09 	5.76741718e-08
0.005737767794 	-6.062713003e-05 	-9.096091771e-05 	1.265383573e-09 	3.029972615e-05 	-1.191579589e-09 	5.775969941e-08
0.006056528535 	-6.071517612e-05 	-9.601776149e-05 	1.177556759e-09 	3.0347079e-05 	-1.051676422e-09 	5.78499671e-08
0.006375288839 	-6.080826157e-05 	-0.0001010769815 	1.073204662e-09 	3.039696805e-05 	-9.115964172e-10 	5.794506951e-08
0.006694048708 	-6.090643549e-05 	-0.0001061386222 	9.523445708e-10 	3.044943864e-05 	-7.71327267e-10 	5.804509303e-08
0.007012808141 	-6.100975309e-05 	-0.0001112027318 	8.149964549e-10 	3.050453427e-05 	-6.308557397e-10 	5.815012061e-08
0.007331567139 	-6.111827961e-05 	-0.00011626936 	6.611828625e-10 	3.056230041e-05 	-4.901677735e-10 	5.826023894e-08
0.007650325701 	-6.123209937e-05 	-0.0001213385523 	4.909288433e-10 	3.062279086e-05 	-3.492485055e-10 	5.837555054e-08
0.007969083828 	-6.135133056e-05 	-0.0001264103423 	3.042619013e-10 	3.068606874e-05 	-2.080821497e-10 	5.849617578e-08
0.008287841521 	-6.147614715e-05 	-0.0001314847434 	1.01211983e-10 	3.075218942e-05 	-6.665167979e-11 	5.862222016e-08
0.008437852995 	-6.153765636e-05 	-0.0001338739598 	-3.037953091e-10 	3.078467663e-05 	-2.295200547e-08 	5.868414981e-08
0.008606598778 	-6.160694427e-05 	-0.0001365616896 	1.197009229e-10 	3.082126948e-05 	-7.709094023e-11 	5.875390595e-08
0.008925355602 	-6.174470212e-05 	-0.0001416416295 	3.584371684e-10 	3.08942786e-05 	-2.229496791e-10 	5.889308163e-08
0.009244111993 	-6.189084985e-05 	-0.0001467169364 	6.136197305e-10 	3.097227825e-05 	-3.691573148e-10 	5.904177065e-08
0.00956286795 	-6.206774123e-05 	-0.0001524075228 	8.883529892e-10 	3.106364048e-05 	-5.158258362e-10 	5.921593245e-08
0.0100581404 	-6.229581924e-05 	-0.0001593724123 	1.335004978e-09 	3.11807777e-05 	-7.441729768e-10 	5.943922855e-08
0.01056272042 	-6.255465312e-05 	-0.0001670647163 	1.830623507e-09 	3.131691751e-05 	-9.778788911e-10 	5.969874887e-08
0.01107678291 	-6.282604238e-05 	-0.0001749144717 	2.374382469e-09 	3.146071944e-05 	-1.216974288e-09 	5.997287531e-08
0.01160050605 	-6.311143261e-05 	-0.0001829277385 	2.968573232e-09 	3.161172436e-05 	-1.461619485e-09 	6.026073265e-08
0.01213407137 	-6.34121828e-05 	-0.0001911069061 	3.615504496e-09 	3.177057244e-05 	-1.711993617e-09 	6.056354124e-08
0.01267766381 	-6.37295288e-05 	-0.0001994550101 	4.317551409e-09 	3.193818155e-05 	-1.968298768e-09 	6.08830508e-08
0.0132314718 	-6.406434897e-05 	-0.0002079753206 	5.077152095e-09 	3.211502518e-05 	-2.230739436e-09 	6.122016391e-08
0.01379568728 	-6.441742784e-05 	-0.0002166713372 	5.896810157e-09 	3.230150483e-05 	-2.499527908e-09 	6.157564594e-08
0.01437050582 	-6.47895252e-05 	-0.0002255467522 	6.77909567e-09 	3.249801206e-05 	-2.774885205e-09 	6.195024334e-08
0.01495612667 	-6.518140094e-05 	-0.0002346054342 	7.726645918e-09 	3.270494303e-05 	-3.057041808e-09 	6.234471127e-08
0.01555275281 	-6.559382214e-05 	-0.0002438514168 	8.742165749e-09 	3.292269713e-05 	-3.346237808e-09 	6.275981111e-08
0.01616059102 	-6.60275678e-05 	-0.0002532888919 	9.828427562e-09 	3.315167967e-05 	-3.642723213e-09 	6.319631548e-08
0.016779852 	-6.648343057e-05 	-0.0002629222039 	1.098827094e-08 	3.339230121e-05 	-3.946758057e-09 	6.365500701e-08
0.01741075039 	-6.696222634e-05 	-0.0002727558455 	1.222460182e-08 	3.364499335e-05 	-4.258613818e-09 	6.413670847e-08
0.01805350486 	-6.746476779e-05 	-0.0002827944653 	1.354039318e-08 	3.391014887e-05 	-4.578568453e-09 	6.464216858e-08
0.0187083382 	-6.799192029e-05 	-0.0002930427096 	1.493866371e-08 	3.41882313e-05 	-4.906911166e-09 	6.517227098e-08
0.01937547738 	-6.854462699e-05 	-0.0003035071754 	1.64227164e-08 	3.447980027e-05 	-5.243961608e-09 	6.572808248e-08
0.02005515364 	-6.91241834e-05 	-0.0003141992128 	1.79962142e-08 	3.478538441e-05 	-5.590056034e-09 	6.631061079e-08
0.02074973487 	-6.973221275e-05 	-0.0003251355835 	1.966739444e-08 	3.51057962e-05 	-5.947006132e-09 	6.69214047e-08
0.02145891096 	-7.036954364e-05 	-0.0003363244693 	2.144139504e-08 	3.544167811e-05 	-6.315373599e-09 	6.756168898e-08
0.02218141421 	-7.103626353e-05 	-0.0003477578896 	2.331891036e-08 	3.579300057e-05 	-6.694699778e-09 	6.823140724e-08
0.02291749506 	-7.17329366e-05 	-0.0003594334314 	2.530319993e-08 	3.615991958e-05 	-7.0854349e-09 	6.893085684e-08
0.02366740864 	-7.24605903e-05 	-0.000371357986 	2.739872465e-08 	3.654302684e-05 	-7.48810643e-09 	6.966116577e-08
0.02443141485 	-7.322021713e-05 	-0.0003835374197 	2.960993057e-08 	3.694284031e-05 	-7.903272106e-09 	7.042332136e-08
0.02520977851 	-7.401278758e-05 	-0.0003959778431 	3.194144098e-08 	3.735982734e-05 	-8.331501818e-09 	7.121821453e-08
0.0260027694 	-7.483930312e-05 	-0.0004086855051 	3.439804553e-08 	3.779449777e-05 	-8.773398271e-09 	7.20468172e-08
0.02681066235 	-7.570077458e-05 	-0.0004216668003 	3.698470811e-08 	3.824735768e-05 	-9.22959045e-09 	7.291009404e-08
0.02763373738 	-7.659822924e-05 	-0.0004349282686 	3.970657363e-08 	3.871892064e-05 	-9.700736515e-09 	7.380902411e-08
0.02847227976 	-7.753271079e-05 	-0.0004484765957 	4.256897496e-08 	3.920970631e-05 	-1.018752441e-08 	7.474459801e-08
0.02932658012 	-7.850528037e-05 	-0.0004623186131 	4.557744028e-08 	3.972024135e-05 	-1.069067303e-08 	7.571781968e-08
0.03019693454 	-7.951701716e-05 	-0.0004764612994 	4.873770048e-08 	4.025105943e-05 	-1.121093325e-08 	7.672970647e-08
0.03108364468 	-8.056901899e-05 	-0.0004909117809 	5.205569707e-08 	4.08027015e-05 	-1.174908892e-08 	7.778128958e-08
0.03198701785 	-8.166240321e-05 	-0.000505677333 	5.55375901e-08 	4.137571607e-05 	-1.230595794e-08 	7.887361461e-08
0.03290736715 	-8.279830767e-05 	-0.0005207653807 	5.918976641e-08 	4.197065948e-05 	-1.288239336e-08 	8.00077421e-08
0.03384501154 	-8.397789251e-05 	-0.0005361835002 	6.301884819e-08 	4.258809701e-05 	-1.347928479e-08 	8.118474964e-08
0.034800276 	-8.52023427e-05 	-0.0005519394179 	6.703170191e-08 	4.322860373e-05 	-1.409755985e-08 	8.240573349e-08
0.03577349159 	-8.647287611e-05 	-0.0005680410108 	7.12354473e-08 	4.389277394e-05 	-1.473818735e-08 	8.367182649e-08
0.0367649956 	-8.779073631e-05 	-0.0005844963117 	7.563746831e-08 	4.458119465e-05 	-1.540217187e-08 	8.498414771e-08
0.03777513166 	-8.915720335e-05 	-0.0006013134481 	8.024540502e-08 	4.529445194e-05 	-1.609055764e-08 	8.634381434e-08
0.03880424984 	-9.057373587e-05 	-0.0006185014229 	8.506736933e-08 	4.603339113e-05 	-1.680449817e-08 	8.775243781e-08
0.0398527068 	-9.204216373e-05 	-0.000636074402 	9.011262884e-08 	4.679876525e-05 	-1.754519844e-08 	8.921145361e-08
0.0409222433 	-9.356558189e-05 	-0.0006540590807 	9.401880759e-08 	4.759193906e-05 	-1.805040912e-08 	9.072346334e-08
0.04201573524 	-9.514625156e-05 	-0.0006724809302 	9.325997826e-08 	4.841441584e-05 	-1.76623657e-08 	9.229133268e-08
0.04312977606 	-9.678353887e-05 	-0.0006913288755 	9.234126842e-08 	4.926574799e-05 	-1.725874262e-08 	9.391420837e-08
0.04426475185 	-9.847744093e-05 	-0.0007105916537 	9.125048682e-08 	5.014554031e-05 	-1.683821364e-08 	9.559133707e-08
0.04542105599 	-0.0001002296793 	-0.0007302813342 	8.998050074e-08 	5.105479318e-05 	-1.639977955e-08 	9.732462574e-08
0.04659908922 	-0.0001020419042 	-0.0007504073395 	8.852303972e-08 	5.199433326e-05 	-1.594239365e-08 	9.911565028e-08
0.04779925982 	-0.0001039156904 	-0.0007709795057 	8.68695794e-08 	5.296479976e-05 	-1.546489131e-08 	1.009656291e-07
0.04902198374 	-0.0001058527483 	-0.0007920078463 	8.501125722e-08 	5.396701006e-05 	-1.496609446e-08 	1.028761205e-07
0.05026768475 	-0.0001078548539 	-0.0008135025482 	8.293886188e-08 	5.500177994e-05 	-1.444476589e-08 	1.048486795e-07
0.05153679457 	-0.0001099239189 	-0.0008354739363 	8.0642818e-08 	5.606999242e-05 	-1.389962358e-08 	1.068849894e-07
0.05282975304 	-0.0001120620758 	-0.0008579323848 	7.811316782e-08 	5.717263664e-05 	-1.332934464e-08 	1.089869358e-07
0.05414700825 	-0.0001142718525 	-0.0008808881473 	7.533955293e-08 	5.831089889e-05 	-1.273257625e-08 	1.1115678e-07
0.05548901673 	-0.000116556512 	-0.0009043510638 	7.23112e-08 	5.948632523e-05 	-1.21079482e-08 	1.133974692e-07
0.05685624356 	-0.0001189206763 	-0.0009283300512 	6.901690551e-08 	6.0701101e-05 	-1.145408099e-08 	1.157131695e-07
0.05824916257 	-0.0001213718516 	-0.0009528329454 	6.544508572e-08 	6.195942157e-05 	-1.076968279e-08 	1.181118782e-07
0.0596682565 	-0.0001239228529 	-0.0009778717133 	6.158412366e-08 	6.326907553e-05 	-1.00535865e-08 	1.206084427e-07
0.0611150311 	-0.0001265916223 	-0.001003474747 	5.741685125e-08 	6.463511027e-05 	-9.303910356e-09 	1.232124846e-07
0.06259447225 	-0.0001294044559 	-0.001029693929 	5.290528917e-08 	6.607028632e-05 	-8.514915319e-09 	1.25948329e-07
0.0641017149 	-0.0001327697827 	-0.001060129147 	4.821002066e-08 	6.778890965e-05 	-7.705316648e-09 	1.292245027e-07
0.0664155543 	-0.0001369831385 	-0.001098185434 	4.016793764e-08 	6.993388205e-05 	-6.366306323e-09 	1.333134163e-07
0.0687552027 	-0.0001415450218 	-0.00114015823 	3.160070316e-08 	7.224686979e-05 	-4.962193773e-09 	1.377226138e-07
0.07112094796 	-0.0001461181893 	-0.001182869369 	2.235437657e-08 	7.456598091e-05 	-3.477296411e-09 	1.421434842e-07
0.07351308118 	-0.0001507380188 	-0.001226336388 	1.241273406e-08 	7.690478564e-05 	-1.912614331e-09 	1.46601896e-07
0.07593189667 	-0.0001554222264 	-0.001270547036 	1.758736487e-09 	7.926679183e-05 	-2.684540223e-10 	1.511045363e-07
0.076319773 	-0.0001561771354 	-0.001277675097 	-2.608077867e-08 	7.964639803e-05 	-1.374686394e-09 	1.518281712e-07
0.07837769205 	-0.0001601855744 	-0.001315503439 	9.752936732e-09 	8.166198553e-05 	-1.491825504e-09 	1.556704412e-07
0.08085076825 	-0.0001650356354 	-0.001361238558 	2.204522632e-08 	8.409339717e-05 	-3.340555524e-09 	1.603053876e-07
0.08336052852 	-0.0001699772288 	-0.001407811757 	3.517448285e-08 	8.656341263e-05 	-5.280459659e-09 	1.650139235e-07
0.0858992737 	-0.0001750037792 	-0.001455194957 	4.910097903e-08 	8.906801887e-05 	-7.302411205e-09 	1.697883991e-07
0.0884663388 	-0.0001801081794 	-0.001503342469 	6.383359057e-08 	9.160211666e-05 	-9.404579036e-09 	1.746190938e-07
0.09106203972 	-0.0001852880482 	-0.001552262419 	7.938947768e-08 	9.41639593e-05 	-1.158582085e-08 	1.795026779e-07
0.0936866959 	-0.0001905408812 	-0.001601963489 	9.578587614e-08 	9.675147697e-05 	-1.38445684e-08 	1.844352058e-07
0.09634063034 	-0.0001958636947 	-0.001652455161 	1.13040186e-07 	9.936221964e-05 	-1.617867946e-08 	1.894120069e-07
0.09902416965 	-0.0002012538148 	-0.001703755606 	1.31170676e-07 	0.0001019935512 	-1.858540762e-08 	1.944280563e-07
0.1017393693 	-0.0002067117008 	-0.001755917679 	1.502128797e-07 	0.0001046441337 	-2.10634627e-08 	1.994808033e-07
0.1044931515 	-0.0002122349557 	-0.001808992371 	1.702327732e-07 	0.0001073121349 	-2.361494683e-08 	2.045667549e-07
0.1072776549 	-0.0002178116305 	-0.001862939724 	1.911787946e-07 	0.0001099900764 	-2.622453825e-08 	2.096716558e-07
0.1100932221 	-0.0002234317558 	-0.001917724561 	2.130606305e-07 	0.0001126709399 	-2.888531537e-08 	2.147821266e-07
0.1129401996 	-0.0002290893491 	-0.001973361086 	2.358945454e-07 	0.0001153503874 	-3.158980466e-08 	2.198898983e-07
0.115818938 	-0.0002347776607 	-0.002029858941 	2.596955792e-07 	0.0001180236981 	-3.432946196e-08 	2.249859715e-07
0.1187297916 	-0.0002404887564 	-0.002087233941 	2.5406216e-07 	0.0001206844534 	-3.312786255e-08 	2.300581107e-07
0.1216740008 	-0.000246217497 	-0.002145538355 	2.414833852e-07 	0.0001233273474 	-3.103272286e-08 	2.350962013e-07
0.1246600133 	-0.0002519559633 	-0.002204833919 	2.279536902e-07 	0.0001259466893 	-2.884272783e-08 	2.400893949e-07
0.1276793401 	-0.0002576850754 	-0.002265079953 	2.135437174e-07 	0.0001285304091 	-2.657405449e-08 	2.450146829e-07
0.130732353 	-0.0002633863163 	-0.00232623541 	1.982297427e-07 	0.0001310655934 	-2.423234117e-08 	2.498474488e-07
0.1338194279 	-0.0002690446773 	-0.00238831506 	1.819978923e-07 	0.0001335422759 	-2.182523481e-08 	2.54568694e-07
0.1369409448 	-0.000274642697 	-0.002451329517 	1.648338532e-07 	0.0001359484043 	-1.936173966e-08 	2.591554435e-07
0.1400972879 	-0.0002801618849 	-0.002515309071 	1.467254635e-07 	0.0001382698043 	-1.685232496e-08 	2.63580677e-07
0.1432941265 	-0.0002855828787 	-0.002580316159 	1.276116014e-07 	0.0001404927242 	-1.430384011e-08 	2.678181804e-07
0.1465309181 	-0.0002908777671 	-0.002646357879 	1.075053065e-07 	0.0001425989396 	-1.173404198e-08 	2.718332121e-07
0.1498038247 	-0.0002960123878 	-0.002713383826 	8.643910259e-08 	0.000144565767 	-9.16478346e-09 	2.755825319e-07
0.1531132491 	-0.0003009536772 	-0.00278137778 	6.440528262e-08 	0.0001463715639 	-6.615214906e-09 	2.790248826e-07
0.1564595988 	-0.0003056673295 	-0.002850345502 	4.139967814e-08 	0.0001479936775 	-4.106785003e-09 	2.821170821e-07
0.1598432858 	-0.0003101162688 	-0.002920304984 	1.742061528e-08 	0.0001494062133 	-1.663219991e-09 	2.848097679e-07
0.1622451615 	-0.0003130225855 	-0.002970081203 	-1.000379066e-07 	0.0001502312534 	-2.658238113e-08 	2.863825235e-07
0.1632691727 	-0.0003142619934 	-0.002991307906 	7.654292963e-09 	0.0001505828543 	-7.02717078e-10 	2.870527727e-07
0.166738053 	-0.0003180591322 	-0.003063356953 	3.391122498e-08 	0.0001514940638 	-2.970053098e-09 	2.887897912e-07
0.1702456402 	-0.0003214544981 	-0.003136380293 	6.109698587e-08 	0.000152105751 	-5.079333285e-09 	2.899558371e-07
0.1737923664 	-0.0003243975952 	-0.003210337795 	8.919210333e-08 	0.0001523857233 	-6.998523028e-09 	2.90489542e-07
0.1773786681 	-0.0003268372808 	-0.00328521103 	1.181706567e-07 	0.0001523009132 	-8.694515269e-09 	2.903278705e-07
0.1810049869 	-0.0003287209872 	-0.003361002082 	1.480007656e-07 	0.0001518159386 	-1.013336599e-08 	2.89403374e-07
0.1846789635 	-0.0003299948091 	-0.003437732033 	1.787063872e-07 	0.0001508960837 	-1.128494101e-08 	2.876498749e-07
0.1883955412 	-0.0003306020837 	-0.003515322773 	2.101507801e-07 	0.00014950614 	-1.21107442e-08 	2.85000256e-07
0.1921535922 	-0.000330488324 	-0.003593664296 	2.422455777e-07 	0.0001476121407 	-1.257987085e-08 	2.813897669e-07
0.1959535793 	-0.0003296027408 	-0.003672687409 	2.749104656e-07 	0.0001451829289 	-1.266573741e-08 	2.767590139e-07
0.1997959703 	-0.0003278962406 	-0.003752332005 	3.080547266e-07 	0.0001421876538 	-1.234582663e-08 	2.710491871e-07
0.2036854422 	-0.0003253212789 	-0.003832557643 	3.416163988e-07 	0.0001385968974 	-1.160401166e-08 	2.642042074e-07
0.207622447 	-0.0003218340153 	-0.003913261591 	3.754488645e-07 	0.0001343850276 	-1.042965561e-08 	2.56175213e-07
0.211603387 	-0.0003173966425 	-0.003994271831 	4.093832716e-07 	0.0001295308144 	-8.82349785e-09 	2.469217335e-07
0.2156287526 	-0.000311975799 	-0.00407543556 	4.433077058e-07 	0.0001240160159 	-6.798210366e-09 	2.364089947e-07
0.2196990393 	-0.0003055390635 	-0.004156617885 	4.345300787e-07 	0.0001178223292 	-3.982478334e-09 	2.246021065e-07
0.2238186833 	-0.0002980540242 	-0.004237689449 	4.064737835e-07 	0.0001109316806 	-1.241978342e-09 	2.114666152e-07
0.2279881991 	-0.0002894935428 	-0.004318448004 	3.777175105e-07 	0.0001033304371 	1.151783994e-09 	1.969765324e-07
0.232204247 	-0.0002798400829 	-0.00439861542 	3.482225433e-07 	9.501227289e-05 	3.253755524e-09 	1.811197994e-07
0.236467346 	-0.0002690858814 	-0.004477931202 	3.177497224e-07 	8.597900982e-05 	5.149446536e-09 	1.638998894e-07
0.2407780212 	-0.0002572308508 	-0.004556189843 	2.860270445e-07 	7.623182305e-05 	6.908389673e-09 	1.453190423e-07
0.2451424756 	-0.00024429227 	-0.004633238699 	2.530189942e-07 	6.577813809e-05 	8.440252884e-09 	1.253914133e-07
0.2495572744 	-0.0002303272172 	-0.004708832703 	2.194169247e-07 	5.46596741e-05 	9.391253813e-09 	1.041965307e-07
0.2540213442 	-0.0002151950773 	-0.004781813726 	1.858071581e-07 	4.25017807e-05 	9.679217773e-09 	8.102020678e-08
0.2585352349 	-0.0001997939769 	-0.004848474339 	1.519895085e-07 	3.098160447e-05 	7.414588459e-09 	5.905954901e-08
0.2631015014 	-0.0001849069551 	-0.004900154548 	1.163270583e-07 	2.134915796e-05 	4.520118455e-09 	4.069742876e-08
0.2677235003 	-0.0001688354944 	-0.004927007543 	8.040274307e-08 	9.596123418e-06 	4.676571174e-09 	1.829287834e-08
0.2723970843 	-0.0001520985 	-0.00492906414 	5.068420401e-08 	-3.653269535e-06 	4.158538762e-09 	-6.964147107e-09
0.2771228288 	-0.0001368594784 	-0.004914923497 	2.874779142e-08 	-1.395613625e-05 	2.205512209e-09 	-2.660427459e-08
0.2819015435 	-0.0001222160004 	-0.004890468055 	1.131242765e-08 	-2.301868926e-05 	9.384491581e-10 	-4.388001944e-08
0.2856242117 	-0.0001108424224 	-0.004864754781 	1.16464559e-06 	-3.030667156e-05 	-8.954045441e-08 	-5.77729393e-08
0.2867395923 	-0.0001074342323 	-0.004857042407 	3.02950143e-09 	-3.249073284e-05 	3.008094777e-10 	-6.193636712e-08
0.2916316387 	-9.311230424e-05 	-0.004814571555 	1.415050731e-08 	-4.147011492e-05 	1.496969529e-09 	-7.905356507e-08
0.2965782851 	-7.953359172e-05 	-0.004762901797 	2.214870219e-08 	-4.968529625e-05 	2.471790028e-09 	-9.471398397e-08
0.3015801405 	-6.686543998e-05 	-0.004702246007 	2.73162391e-08 	-5.70278259e-05 	3.186657239e-09 	-1.087108862e-07
0.3066433776 	-5.522079561e-05 	-0.004633041902 	3.006213142e-08 	-6.34359342e-05 	3.638593256e-09 	-1.209265217e-07
0.3117632607 	-4.466087185e-05 	-0.004555946979 	3.084358548e-08 	-6.888440292e-05 	3.865245509e-09 	-1.313128174e-07
0.3169402875 	-3.517118514e-05 	-0.004471731597 	3.012657513e-08 	-7.34061073e-05 	3.947359648e-09 	-1.399324427e-07
0.322175596 	-2.665940651e-05 	-0.004381160943 	2.825938587e-08 	-7.709153362e-05 	3.992704217e-09 	-1.469578896e-07
0.3274740002 	-1.897237755e-05 	-0.004284920248 	2.538142866e-08 	-8.007543098e-05 	4.115621512e-09 	-1.526460273e-07
0.3328315415 	-1.19242336e-05 	-0.004183574061 	2.137935601e-08 	-8.251327072e-05 	4.406950489e-09 	-1.572932274e-07
0.3382488795 	-5.320289116e-06 	-0.00407742053 	1.58870354e-08 	-8.455881683e-05 	4.912715949e-09 	-1.611926068e-07
0.3437284601 	1.014345195e-06 	-0.003966439469 	8.337277672e-09 	-8.634421744e-05 	5.62394433e-09 	-1.645960766e-07
0.3492720762 	7.203332344e-06 	-0.003850348805 	-1.959198432e-09 	-8.795715675e-05 	6.465813529e-09 	-1.676707872e-07
0.3548775666 	1.329944973e-05 	-0.003728660348 	-1.570040526e-08 	-8.942516557e-05 	7.307563804e-09 	-1.7046922e-07
0.3605456212 	1.928403461e-05 	-0.003600687672 	-3.347459157e-08 	-9.07163777e-05 	7.991962885e-09 	-1.729306292e-07
0.3662803549 	2.507368759e-05 	-0.00346563619 	-5.567391879e-08 	-9.174800361e-05 	8.358491192e-09 	-1.748971949e-07
0.3720798471 	3.053151481e-05 	-0.003322775613 	-8.239293975e-08 	-9.239879058e-05 	8.264192434e-09 	-1.761377758e-07
0.3779440693 	3.548892184e-05 	-0.003171480069 	-1.134077938e-07 	-9.252607627e-05 	7.604765933e-09 	-1.763804177e-07
0.3838752086 	3.976736246e-05 	-0.003011271276 	-1.44884968e-07 	-9.198414668e-05 	6.183244189e-09 	-1.753473492e-07
0.3898747874 	4.319462223e-05 	-0.002841944745 	-1.648656103e-07 	-9.06397103e-05 	3.916911188e-09 	-1.727844798e-07
0.3959413294 	4.561947838e-05 	-0.002663661735 	-1.812969881e-07 	-8.838443445e-05 	1.548883175e-09 	-1.684852972e-07
0.4020759105 	4.692604788e-05 	-0.002476937801 	-1.932598033e-07 	-8.514586775e-05 	-7.736190681e-10 	-1.62311689e-07
0.4082819033 	4.704399913e-05 	-0.002282724965 	-1.999781531e-07 	-8.089662966e-05 	-2.897396962e-09 	-1.542114602e-07
0.4145571631 	4.596017159e-05 	-0.002082551842 	-2.008419816e-07 	-7.56678147e-05 	-4.717708215e-09 	-1.442438856e-07
0.4209024622 	4.372388003e-05 	-0.001878479479 	-1.954820501e-07 	-6.954392704e-05 	-6.039384604e-09 	-1.325700537e-07
0.4273212302 	4.047647722e-05 	-0.001673088142 	-1.837474541e-07 	-6.271586606e-05 	-7.121964427e-09 	-1.195538717e-07
0.4338118585 	3.636570057e-05 	-0.001469611881 	-1.657493105e-07 	-5.528590764e-05 	-7.099437864e-09 	-1.053903059e-07
0.4403749295 	3.197234252e-05 	-0.001271376216 	-1.43269195e-07 	-4.813103689e-05 	-6.648159826e-09 	-9.175113365e-08
0.4470133871 	2.725854782e-05 	-0.001081179674 	-1.218064248e-07 	-4.085863542e-05 	-6.495075535e-09 	-7.788791519e-08
0.4537262956 	2.167171943e-05 	-0.0009007151518 	-1.019143644e-07 	-3.255602766e-05 	-4.007592465e-09 	-6.206083719e-08
0.460514127 	1.661035873e-05 	-0.000732570011 	-7.712318815e-08 	-2.571842936e-05 	-2.259382255e-09 	-4.902647442e-08
0.4673796373 	1.288085922e-05 	-0.0005837283487 	-4.995165703e-08 	-2.079766251e-05 	-2.468394606e-09 	-3.964612516e-08
0.4743220061 	9.893350906e-06 	-0.0004592591745 	-2.951284022e-08 	-1.63305471e-05 	-1.489382263e-09 	-3.113056162e-08
0.4813419013 	7.752174813e-06 	-0.0003563120678 	-1.753569657e-08 	-1.296692879e-05 	-5.214159005e-10 	-2.471857024e-08
0.4884419439 	6.230119855e-06 	-0.0002702675179 	-1.068985843e-08 	-1.058265737e-05 	-2.229671807e-10 	-2.017348624e-08
0.4956212291 	5.001481961e-06 	-0.0001992822945 	-6.525322322e-09 	-8.653576914e-06 	-4.443679132e-11 	-1.649612274e-08
0.5028008937 	4.066312542e-06 	-0.0001427249375 	-3.914957394e-09 	-7.202598952e-06 	3.839220339e-11 	-1.373015546e-08
0.5099024955 	3.388217099e-06 	-9.92010595e-05 	-2.31803132e-09 	-6.167358595e-06 	9.049831091e-11 	-1.175669961e-08
0.5169257377 	2.928412049e-06 	-6.631146751e-05 	-1.370136461e-09 	-5.48170531e-06 	1.132457127e-10 	-1.044965388e-08
0.5238719808 	2.635760311e-06 	-4.150546909e-05 	-8.215269606e-10 	-5.057435747e-06 	1.214946461e-10 	-9.640878175e-09
0.5307422839 	2.462172688e-06 	-2.261547763e-05 	-5.082638526e-10 	-4.81312927e-06 	1.192373996e-10 	-9.175162129e-09
0.5375367778 	2.367583208e-06 	-7.99090522e-06 	-3.284050891e-10 	-4.681912778e-06 	1.109083544e-10 	-8.925027026e-09
0.5442567658 	2.322452174e-06 	3.558027093e-06 	-2.223842511e-10 	-4.61541954e-06 	9.845937854e-11 	-8.798272433e-09
0.5509030776 	2.306682639e-06 	1.287071452e-05 	-1.565276457e-10 	-4.58155742e-06 	8.346272153e-11 	-8.73372182e-09
0.5574760505 	2.30693063e-06 	2.053925194e-05 	-1.118455344e-10 	-4.559666728e-06 	6.678846924e-11 	-8.691992076e-09
0.5639768449 	2.314688456e-06 	2.698775755e-05 	-7.770338656e-11 	-4.537252289e-06 	4.905467375e-11 	-8.649263927e-09
0.5704062841 	2.324827488e-06 	3.25268372e-05 	-4.823261685e-11 	-4.507513231e-06 	3.083819877e-11 	-8.592573018e-09
0.5767647764 	2.334406102e-06 	3.739090437e-05 	-1.995189522e-11 	-4.46725789e-06 	1.253156779e-11 	-8.515835149e-09
0.5811455924 	2.339737049e-06 	4.043713267e-05 	5.194319651e-08 	-4.43145851e-06 	1.316927071e-09 	-8.44759158e-09
0.5830533074 	2.342061824e-06 	4.176368076e-05 	-8.982804393e-12 	-4.415873567e-06 	5.658477569e-12 	-8.417882347e-09
0.5892728019 	2.347636523e-06 	4.579457345e-05 	-3.921995867e-11 	-4.354667109e-06 	2.348542116e-11 	-8.301205826e-09
0.5954236652 	2.351650763e-06 	4.96099722e-05 	-7.147714949e-11 	-4.285853634e-06 	4.042530483e-11 	-8.170028218e-09
0.6015067106 	2.355118318e-06 	5.332173535e-05 	-1.055545829e-10 	-4.212211584e-06 	5.630060707e-11 	-8.029646002e-09
0.6075229967 	2.359484187e-06 	5.703320832e-05 	-1.405454323e-10 	-4.136949268e-06 	7.090198586e-11 	-7.886175111e-09
0.6134728931 	2.366439732e-06 	6.084417565e-05 	-1.750246885e-10 	-4.063321916e-06 	8.410387069e-11 	-7.745820913e-09
0.6193571321 	2.377888784e-06 	6.485604647e-05 	-2.070603311e-10 	-3.994528976e-06 	9.587712951e-11 	-7.61468245e-09
0.6251766857 	2.396083342e-06 	6.917693282e-05 	-2.33906304e-10 	-3.933930798e-06 	1.061892561e-10 	-7.49916548e-09
0.630932088 	2.423737916e-06 	7.392709309e-05 	-2.517503791e-10 	-3.88519106e-06 	1.149850314e-10 	-7.406253993e-09
0.6366239785 	2.464084887e-06 	7.924584086e-05 	-2.556182732e-10 	-3.852252476e-06 	1.222785781e-10 	-7.343463897e-09
0.6422531291 	2.521189217e-06 	8.530002544e-05 	-2.386153595e-10 	-3.839776518e-06 	1.280482013e-10 	-7.319681255e-09
0.6478203216 	2.600307428e-06 	9.229410058e-05 	-1.909582298e-10 	-3.853591601e-06 	1.321459985e-10 	-7.346016641e-09
0.6533260787 	2.708190105e-06 	0.0001004827 	-9.900772407e-11 	-3.900935887e-06 	1.34353517e-10 	-7.43626801e-09
0.6587710783 	2.853603628e-06 	0.0001101864043 	5.653645646e-11 	-3.991012258e-06 	1.342944888e-10 	-7.607978609e-09
0.6641561061 	3.048038681e-06 	0.0001218101895 	3.030143376e-10 	-4.135774244e-06 	1.313035344e-10 	-7.883935189e-09
0.6694817605 	3.30648189e-06 	0.0001358639804 	6.786365302e-10 	-4.350675652e-06 	1.242771841e-10 	-8.293597001e-09
0.6747486444 	3.64829696e-06 	0.0001529844515 	1.23616791e-09 	-4.655488681e-06 	1.116189745e-10 	-8.874655352e-09
0.6799574061 	4.09813855e-06 	0.0001739548418 	2.046797717e-09 	-5.075118245e-06 	9.081527454e-11 	-9.674585932e-09
0.6851087964 	4.686830861e-06 	0.0001997164617 	3.202297945e-09 	-5.640461107e-06 	5.91938206e-11 	-1.075228655e-08
0.6902033484 	5.451459255e-06 	0.0002313641891 	4.814034127e-09 	-6.388139975e-06 	1.150975011e-11 	-1.217757028e-08
0.6952416799 	6.432479269e-06 	0.0002701206892 	7.011381646e-09 	-7.355175612e-06 	-5.041301502e-11 	-1.402100898e-08
0.7002244109 	7.678642955e-06 	0.0003173127285 	9.952215007e-09 	-8.589121512e-06 	-1.462983795e-10 	-1.637325283e-08
0.7051522365 	9.23773623e-06 	0.0003744798728 	1.39252052e-08 	-1.012506622e-05 	-2.58735995e-10 	-1.930119033e-08
0.7100256822 	1.132308976e-05 	0.0004437915817 	1.945093283e-08 	-1.22865275e-05 	-5.994826855e-10 	-2.342153628e-08
0.714845347 	1.402819265e-05 	0.0005281513463 	2.689586683e-08 	-1.507898271e-05 	-8.0360735e-10 	-2.874473202e-08
0.7196118242 	1.711290851e-05 	0.0006282359556 	3.428815898e-08 	-1.785716299e-05 	-6.262453632e-10 	-3.40407158e-08
0.7243257496 	2.067107828e-05 	0.0007390349554 	3.840055866e-08 	-2.117067445e-05 	-1.220199293e-09 	-4.035718958e-08
0.7289876612 	2.453263676e-05 	0.0008539232926 	4.0405043e-08 	-2.523828833e-05 	-1.646117725e-09 	-4.811119217e-08
0.733598126 	2.806934442e-05 	0.0009706086782 	4.323602632e-08 	-2.87543648e-05 	-1.04841142e-09 	-5.481381117e-08
0.7381577117 	3.138659677e-05 	0.001089516617 	4.631155757e-08 	-3.179196228e-05 	-9.1474662e-10 	-6.060431622e-08
0.7426670004 	3.473119316e-05 	0.001210256428 	4.854017488e-08 	-3.494064177e-05 	-1.015481189e-09 	-6.660657446e-08
0.7471265425 	3.792647766e-05 	0.001331501449 	4.998548323e-08 	-3.793274987e-05 	-8.730106302e-10 	-7.231036411e-08
0.7515368708 	4.086887514e-05 	0.001451909167 	5.073817392e-08 	-4.063456638e-05 	-7.591801517e-10 	-7.746077731e-08
0.7558985284 	4.351836088e-05 	0.00157036171 	5.086130951e-08 	-4.302142289e-05 	-5.934102886e-10 	-8.201078922e-08
0.7602120532 	4.582433098e-05 	0.001685886678 	5.036796662e-08 	-4.504292477e-05 	-3.959840451e-10 	-8.586433365e-08
0.7644779982 	4.774808396e-05 	0.001797627675 	4.929056797e-08 	-4.666501125e-05 	-1.713480888e-10 	-8.895648131e-08
0.7686968657 	4.925952507e-05 	0.001904838822 	4.771522615e-08 	-4.786093172e-05 	5.242719464e-11 	-9.123623811e-08
0.7728691753 	5.035266637e-05 	0.002006881873 	4.583592414e-08 	-4.863461613e-05 	2.186510766e-10 	-9.271109563e-08
0.7769954407 	5.099997173e-05 	0.002103250487 	4.395066333e-08 	-4.892001438e-05 	2.940994306e-10 	-9.325514402e-08
0.781076174 	5.131078404e-05 	0.00219865815 	4.71564821e-08 	-4.889837774e-05 	2.069668601e-10 	-9.321389858e-08
0.7851118841 	5.180272063e-05 	0.002289972302 	4.325706454e-08 	-4.914242714e-05 	2.139990064e-10 	-9.367912455e-08
0.7891030575 	5.310724874e-05 	0.00237133602 	3.756715773e-08 	-5.016927123e-05 	1.174702599e-10 	-9.563657479e-08
0.7930501855 	5.518216005e-05 	0.002452448616 	4.210181051e-08 	-5.198299558e-05 	-2.953302986e-10 	-9.909403751e-08
0.7969537543 	5.750053382e-05 	0.002540262585 	4.603129464e-08 	-5.407518985e-05 	-5.494742606e-10 	-1.030823413e-07
0.8008142465 	5.976443408e-05 	0.00263346204 	4.911926227e-08 	-5.608341133e-05 	-4.979387901e-10 	-1.069105696e-07
0.804632142 	6.18250647e-05 	0.002730418967 	5.117921665e-08 	-5.786989836e-05 	-2.256480813e-10 	-1.103161104e-07
0.8084079044 	6.35395947e-05 	0.002829394291 	5.210186852e-08 	-5.928943099e-05 	1.420056158e-10 	-1.130221341e-07