1.812976133e-33 	0.001051108711 	-4.324006572e-17 	1.311551897e-20 	1.206997246e-16 	-5.269863786e-18 	2.300872219e-19
0.0003225556171 	0.001051085513 	-2.638203751e-06 	1.732577503e-10 	0.001063518103 	-1.156585932e-07 	2.027361094e-06
0.000645110925 	0.001051257579 	-5.013519931e-06 	3.55917398e-10 	0.001064226695 	-1.138318282e-07 	2.028711867e-06
0.0009676659232 	0.001051639496 	-7.364763362e-06 	5.120850891e-10 	0.001064653525 	-1.119350639e-07 	2.029525523e-06
0.001290220611 	0.001052105934 	-9.745794781e-06 	6.651547442e-10 	0.001065202354 	-1.100362882e-07 	2.030571744e-06
0.001612774989 	0.001052733479 	-1.213757442e-05 	8.129898066e-10 	0.001065847015 	-1.08131128e-07 	2.031800648e-06
0.001935329056 	0.001053499662 	-1.453656382e-05 	9.554460521e-10 	0.001066633641 	-1.062273233e-07 	2.033300176e-06
0.002257882812 	0.00105440618 	-1.69409378e-05 	1.092348402e-09 	0.001067561133 	-1.043246458e-07 	2.035068233e-06
0.002580436257 	0.001055452472 	-1.93499435e-05 	1.223601794e-09 	0.001068630727 	-1.024232409e-07 	2.037107176e-06
0.00290298939 	0.001056638611 	-2.176327611e-05 	1.349142432e-09 	0.001069842264 	-1.005230045e-07 	2.039416702e-06
0.003225542212 	0.001057964392 	-2.418087374e-05 	1.468926448e-09 	0.001071195883 	-9.862388106e-08 	2.041997077e-06
0.003548094721 	0.001059429633 	-2.660280984e-05 	1.582922259e-09 	0.001072691555 	-9.67257865e-08 	2.044848244e-06
0.003870646918 	0.001061034141 	-2.902923997e-05 	1.691106853e-09 	0.001074329187 	-9.482862798e-08 	2.047970026e-06
0.004193198803 	0.001062777709 	-3.146037035e-05 	1.793463373e-09 	0.001076108636 	-9.293230605e-08 	2.051362149e-06
0.004515750376 	0.001064660115 	-3.389643936e-05 	1.889979691e-09 	0.001078029723 	-9.103671837e-08 	2.055024275e-06
0.004838301637 	0.001066681115 	-3.633770602e-05 	1.980647475e-09 	0.001080092242 	-8.914176088e-08 	2.058956009e-06
0.005160852584 	0.001068840444 	-3.878444246e-05 	2.065461591e-09 	0.001082295956 	-8.724732871e-08 	2.063156901e-06
0.00548340322 	0.001071137812 	-4.123692899e-05 	2.144419693e-09 	0.001084640602 	-8.535331669e-08 	2.067626448e-06
0.005805953543 	0.001073572904 	-4.369545068e-05 	2.217521936e-09 	0.001087125887 	-8.345961974e-08 	2.072364092e-06
0.006128503553 	0.001076145373 	-4.616029493e-05 	2.284770747e-09 	0.00108975149 	-8.156613324e-08 	2.077369221e-06
0.006451053251 	0.001078854844 	-4.863174958e-05 	2.346170663e-09 	0.001092517057 	-7.967275318e-08 	2.082641161e-06
0.006773602636 	0.001081700908 	-5.111010158e-05 	2.401728195e-09 	0.001095422203 	-7.77793764e-08 	2.088179177e-06
0.00709615171 	0.00108468312 	-5.359563574e-05 	2.451451716e-09 	0.001098466508 	-7.588590076e-08 	2.093982467e-06
0.007418700471 	0.001087800996 	-5.608863382e-05 	2.495351329e-09 	0.001101649515 	-7.399222534e-08 	2.100050163e-06
0.00774124892 	0.001091054009 	-5.858937361e-05 	2.533438711e-09 	0.001104970731 	-7.209825068e-08 	2.106381323e-06
0.008063797057 	0.001094441581 	-6.109812793e-05 	2.565726847e-09 	0.001108429617 	-7.02038788e-08 	2.112974923e-06
0.008386344883 	0.00109796307 	-6.361516502e-05 	2.592229698e-09 	0.001112025579 	-6.830901291e-08 	2.119829825e-06
0.008708892398 	0.001101617731 	-6.614072849e-05 	2.612959859e-09 	0.001115757963 	-6.641355778e-08 	2.126944786e-06
0.009031439602 	0.001105404442 	-6.867522315e-05 	2.627941225e-09 	0.001119626416 	-6.451743969e-08 	2.134319133e-06
0.009353986494 	0.001109321722 	-7.121669001e-05 	2.637038631e-09 	0.001123630381 	-6.262058852e-08 	2.141951803e-06
0.009676533077 	0.001113945569 	-7.409475936e-05 	2.650538878e-09 	0.001128358005 	-6.073046251e-08 	2.150963969e-06
0.01017769553 	0.001119966742 	-7.765727057e-05 	2.62875533e-09 	0.00113451276 	-5.777228865e-08 	2.162696643e-06
0.01068827656 	0.001126972714 	-8.161696201e-05 	2.603101742e-09 	0.001141672014 	-5.476225302e-08 	2.176344169e-06
0.01120845316 	0.001134447095 	-8.567584279e-05 	2.563350251e-09 	0.001149308495 	-5.169191855e-08 	2.190901426e-06
0.01173840565 	0.001142405458 	-8.983906077e-05 	2.508836844e-09 	0.001157437951 	-4.855989049e-08 	2.206398427e-06
0.01227831774 	0.001150863406 	-9.410976542e-05 	2.438844219e-09 	0.001166076735 	-4.536473851e-08 	2.22286635e-06
0.01282837659 	0.001159836659 	-9.849141505e-05 	2.35265409e-09 	0.001175241392 	-4.210497836e-08 	2.240336734e-06
0.01338877288 	0.00116934116 	-0.0001029875963 	2.249539676e-09 	0.001184948383 	-3.87790615e-08 	2.258840957e-06
0.01395970086 	0.00117939297 	-0.000107602032 	2.128764551e-09 	0.001195214236 	-3.538537965e-08 	2.278410526e-06
0.01454135846 	0.001190008233 	-0.000112338569 	1.989581593e-09 	0.001206055562 	-3.19222643e-08 	2.299077107e-06
0.0151339473 	0.001201203155 	-0.0001172011721 	1.831232432e-09 	0.001217489042 	-2.838798563e-08 	2.320872497e-06
0.0157376728 	0.001212993984 	-0.0001221939186 	1.652947113e-09 	0.001229531411 	-2.478075178e-08 	2.3438286e-06
0.01635274424 	0.001225397 	-0.0001273209937 	1.45394384e-09 	0.001242199444 	-2.109870859e-08 	2.367977391e-06
0.01697937483 	0.001238428495 	-0.000132586686 	1.233428804e-09 	0.00125550994 	-1.733993995e-08 	2.393350896e-06
0.01761778179 	0.001252104762 	-0.0001379953831 	9.905960745e-10 	0.001269479715 	-1.350246899e-08 	2.419981171e-06
0.01826818643 	0.001266442083 	-0.0001435515698 	7.246275988e-10 	0.001284125572 	-9.584259727e-09 	2.447900244e-06
0.0189308142 	0.001281456701 	-0.0001492597951 	4.346929649e-10 	0.001299464322 	-5.583220517e-09 	2.477140166e-06
0.0196058948 	0.001297164808 	-0.0001551251203 	1.199512441e-10 	0.001315512758 	-1.49720748e-09 	2.507732944e-06
0.01985315174 	0.001303070386 	-0.0001572928839 	-9.109566048e-09 	0.001321546757 	-4.624185733e-07 	2.519235423e-06
0.02029366225 	0.001313592478 	-0.0001611551385 	2.219338486e-10 	0.001332297684 	-2.702993805e-09 	2.539729678e-06
0.02099588292 	0.001330772709 	-0.0001673601 	5.930978206e-10 	0.001349853041 	-7.028818142e-09 	2.573195069e-06
0.0217124055 	0.001348720688 	-0.0001737453222 	9.940095675e-10 	0.001368194628 	-1.146955308e-08 	2.608159231e-06
0.02244239383 	0.00136743755 	-0.0001803101454 	1.424754718e-09 	0.001387323767 	-1.60164681e-08 	2.644624687e-06
0.02318610096 	0.001386932725 	-0.0001870569012 	1.886470424e-09 	0.001407250346 	-2.06737568e-08 	2.682610284e-06
0.0239437847 	0.00140722217 	-0.0001939910227 	2.38036138e-09 	0.001427991031 	-2.544583274e-08 	2.722147794e-06
0.02471570767 	0.001428321792 	-0.0002011177216 	2.907673122e-09 	0.001449562391 	-3.033730464e-08 	2.763268803e-06
0.02550213747 	0.001450247439 	-0.0002084422996 	3.469699131e-09 	0.001471980935 	-3.535297918e-08 	2.806004778e-06
0.02630334669 	0.001473014884 	-0.0002159701259 	4.067782603e-09 	0.001495263127 	-4.049786386e-08 	2.850387107e-06
0.02711961307 	0.001496639836 	-0.0002237066376 	4.703318729e-09 	0.001519425379 	-4.57771684e-08 	2.896447075e-06
0.02795121954 	0.001521137939 	-0.0002316573394 	5.377756949e-09 	0.001544484054 	-5.119630619e-08 	2.944215874e-06
0.02879845437 	0.001546524772 	-0.0002398278033 	6.092603228e-09 	0.001570455466 	-5.676089507e-08 	2.993724604e-06
0.02966161124 	0.00157281585 	-0.0002482236689 	6.84942229e-09 	0.001597355884 	-6.24767578e-08 	3.045004277e-06
0.03054098934 	0.001600026625 	-0.0002568506435 	7.649839822e-09 	0.001625201529 	-6.834992207e-08 	3.098085816e-06
0.03143689349 	0.001628172484 	-0.0002657145029 	8.495544678e-09 	0.001654008578 	-7.438662e-08 	3.153000058e-06
0.03234963424 	0.001657268752 	-0.0002748210923 	9.388291078e-09 	0.001683793164 	-8.059328744e-08 	3.209777757e-06
0.03327952795 	0.001687330689 	-0.0002841763274 	1.032990077e-08 	0.001714571371 	-8.697656272e-08 	3.268449575e-06
0.03422689696 	0.001718373484 	-0.0002937861956 	1.132226521e-08 	0.001746359239 	-9.354328519e-08 	3.329046085e-06
0.03519206965 	0.001750412256 	-0.0003036567569 	1.236734761e-08 	0.001779172752 	-1.003004933e-07 	3.39159776e-06
0.03617538056 	0.00178346204 	-0.0003137941453 	1.3467185e-08 	0.001813027842 	-1.072554225e-07 	3.456134972e-06
0.03717717053 	0.001817537782 	-0.0003242045724 	1.462389047e-08 	0.001847940366 	-1.144155019e-07 	3.522687946e-06
0.03819778679 	0.001852654316 	-0.0003348943155 	1.583965315e-08 	0.001883926086 	-1.217883513e-07 	3.59128673e-06
0.0392375831 	0.001888826286 	-0.0003458699829 	1.711676708e-08 	0.001921000733 	-1.29381787e-07 	3.661961313e-06
0.04029691988 	0.001926076961 	-0.0003571407849 	1.845779934e-08 	0.001959188753 	-1.372044156e-07 	3.734758291e-06
0.04137715132 	0.001964454742 	-0.0003687221833 	1.986730602e-08 	0.001998540297 	-1.452779009e-07 	3.809773272e-06
0.04248044704 	0.002003991834 	-0.000380627407 	2.135104997e-08 	0.00203908915 	-1.53630772e-07 	3.887070656e-06
0.04360447683 	0.002044670852 	-0.0003928538038 	2.290714165e-08 	0.002080817977 	-1.622387832e-07 	3.966617399e-06
0.0447496303 	0.002086482043 	-0.0004053997 	2.453744864e-08 	0.002123717349 	-1.711087368e-07 	4.048395524e-06
0.04591630441 	0.002129439154 	-0.000418272881 	2.624486326e-08 	0.002167802335 	-1.802494011e-07 	4.132433761e-06
0.04710490354 	0.002173555687 	-0.0004314803237 	2.803225796e-08 	0.002213087623 	-1.896696743e-07 	4.218760105e-06
0.04831583968 	0.002218844839 	-0.0004450291618 	2.990261162e-08 	0.002259587534 	-1.993785781e-07 	4.30740186e-06
0.04954953259 	0.002265319408 	-0.0004589266276 	3.185900201e-08 	0.002307316098 	-2.093852664e-07 	4.398385768e-06
0.05080640988 	0.002312991757 	-0.0004731800524 	3.390460873e-08 	0.002356286931 	-2.196990064e-07 	4.491737786e-06
0.05208690721 	0.002361873721 	-0.0004877968557 	3.60427153e-08 	0.002406513183 	-2.303291707e-07 	4.587482983e-06
0.05339146842 	0.002411976476 	-0.0005027845109 	3.827670915e-08 	0.002458007446 	-2.412852249e-07 	4.685645359e-06
0.0547205457 	0.002463310305 	-0.0005181504711 	4.061007886e-08 	0.0025107816 	-2.525767165e-07 	4.786247565e-06
0.05607459972 	0.002515884151 	-0.0005339020319 	4.304640919e-08 	0.002564846562 	-2.642132614e-07 	4.889310409e-06
0.05745409982 	0.002569704681 	-0.0005500461046 	4.558936836e-08 	0.00262021181 	-2.762045282e-07 	4.994851959e-06
0.05885952414 	0.002624774243 	-0.0005665891988 	4.824271999e-08 	0.002676884831 	-2.885602952e-07 	5.10288649e-06
0.06029135983 	0.002681094305 	-0.0005835410381 	5.101058451e-08 	0.002734877206 	-3.012914345e-07 	5.213436074e-06
0.06175082976 	0.002738696722 	-0.0006009228898 	5.389925046e-08 	0.002794224418 	-3.144225384e-07 	5.326568355e-06
0.06324165326 	0.002797577098 	-0.0006187807582 	5.691845477e-08 	0.002854942454 	-3.280002212e-07 	5.442313808e-06
0.06476049349 	0.002865356332 	-0.0006396385177 	6.022731149e-08 	0.002924946942 	-3.424137885e-07 	5.575761819e-06
0.06709213948 	0.00294996973 	-0.0006657515262 	6.502701159e-08 	0.003012346521 	-3.637512899e-07 	5.742369708e-06
0.06944979626 	0.003043313017 	-0.0006945061934 	6.610055666e-08 	0.0031086881 	-3.634252967e-07 	5.926023534e-06
0.07183375399 	0.003137791589 	-0.0007237996448 	6.49414049e-08 	0.003206188395 	-3.510988684e-07 	6.111886194e-06
0.07424430605 	0.003233392652 	-0.0007536540007 	6.359699894e-08 	0.003304860744 	-3.382400846e-07 	6.299983116e-06
0.07668174913 	0.0033300895 	-0.000784060523 	6.206266799e-08 	0.003404680192 	-3.248392871e-07 	6.490266729e-06
0.0791463832 	0.003427839468 	-0.0008150146946 	6.033424516e-08 	0.003505617196 	-3.108871902e-07 	6.682680711e-06
0.08163851157 	0.003526660878 	-0.0008465305288 	5.840936114e-08 	0.003607694903 	-2.963827648e-07 	6.877269191e-06
0.08416496108 	0.003626581412 	-0.0008786323726 	5.626287585e-08 	0.003710943681 	-2.812117516e-07 	7.074090059e-06
0.08672030433 	0.003727491928 	-0.0009113021115 	5.391042243e-08 	0.003815250841 	-2.654735305e-07 	7.272928498e-06
0.08930415545 	0.003829272955 	-0.0009445151721 	5.134692802e-08 	0.003920492858 	-2.491684005e-07 	7.473549032e-06
0.09191683248 	0.003931865475 	-0.0009782717386 	4.856781155e-08 	0.004026609473 	-2.32292251e-07 	7.675836793e-06
0.09455865701 	0.004035215442 	-0.001012572573 	4.556832343e-08 	0.004133545041 	-2.148426433e-07 	7.879685708e-06
0.09722995422 	0.004139266863 	-0.001047418747 	4.234350332e-08 	0.004241241826 	-1.968181099e-07 	8.084985713e-06
0.0999310529 	0.004243973472 	-0.00108281588 	3.888839936e-08 	0.004349651976 	-1.782188715e-07 	8.291645589e-06
0.1026635218 	0.004349344158 	-0.001118786182 	3.519392205e-08 	0.004458784172 	-1.590278949e-07 	8.499681887e-06
0.1054324181 	0.004455364808 	-0.001155349579 	3.123894289e-08 	0.004568623302 	-1.391787972e-07 	8.709065797e-06
0.1082322065 	0.004561899053 	-0.001192482492 	2.703926817e-08 	0.004679026943 	-1.187773885e-07 	8.919525821e-06
0.1110632316 	0.004668826746 	-0.001230164363 	2.258736416e-08 	0.004789869827 	-9.782572988e-08 	9.130823166e-06
0.1139258419 	0.00477607944 	-0.001268397912 	1.787665355e-08 	0.004901080966 	-7.632998989e-08 	9.342822505e-06
0.1168203898 	0.004883585967 	-0.001307183868 	1.289996994e-08 	0.005012586492 	-5.42974799e-08 	9.555383031e-06
0.1197472317 	0.004991278215 	-0.001346526237 	7.649663565e-09 	0.005124315009 	-3.173675435e-08 	9.768368637e-06
0.12270736 	0.00509914266 	-0.001386446211 	2.115046629e-09 	0.005236251284 	-8.64769019e-09 	9.981750289e-06
0.1238093945 	0.005138824999 	-0.00140133324 	-1.041960105e-07 	0.005277441811 	-2.63540785e-07 	1.006027088e-05
0.1257069328 	0.005207157174 	-0.00142696906 	3.754989525e-09 	0.00534837143 	-1.51385779e-08 	1.019548245e-05
0.128739973 	0.005315169148 	-0.001468070646 	9.935726135e-09 	0.005460515199 	-3.945716609e-08 	1.040925964e-05
0.1318068542 	0.005423037457 	-0.001509727126 	1.642433714e-08 	0.0055725341 	-6.423372763e-08 	1.06227988e-05
0.1349079538 	0.005530673744 	-0.001551941557 	2.323129125e-08 	0.00568433587 	-8.945060688e-08 	1.083592405e-05
0.1380436537 	0.005637986407 	-0.001594715562 	3.036782573e-08 	0.005795824281 	-1.150884409e-07 	1.104845195e-05
0.14121434 	0.005744911592 	-0.001638060675 	3.784646731e-08 	0.005906930634 	-1.411272299e-07 	1.126025153e-05
0.1444241869 	0.00585140896 	-0.00168200282 	4.569549186e-08 	0.00601761093 	-1.675973748e-07 	1.147123894e-05
0.1476729191 	0.005957367636 	-0.001726542434 	5.392123935e-08 	0.006127747162 	-1.944422943e-07 	1.168118921e-05
0.1509579006 	0.006062624279 	-0.001771654018 	6.252386113e-08 	0.006237165738 	-2.215840248e-07 	1.188977143e-05
0.1542795359 	0.006167046821 	-0.00181732849 	7.151734787e-08 	0.006345726359 	-2.489900354e-07 	1.209671814e-05
0.1576382339 	0.006270523432 	-0.001863568821 	8.091723531e-08 	0.006453309626 	-2.766265407e-07 	1.230180175e-05
0.1610344082 	0.006372962181 	-0.001910385143 	9.074068803e-08 	0.006559814945 	-3.04458958e-07 	1.250483049e-05
0.1644716629 	0.006474293525 	-0.001957802752 	1.010191337e-07 	0.006665164423 	-3.32489655e-07 	1.270565588e-05
0.1679506875 	0.00657439377 	-0.002005825982 	1.117653655e-07 	0.006769222758 	-3.606548272e-07 	1.290401999e-05
0.1714685328 	0.006673086638 	-0.002054429859 	1.229800637e-07 	0.006871797854 	-3.888565689e-07 	1.309955663e-05
0.1750256321 	0.006770221024 	-0.002103603699 	1.346799656e-07 	0.006972723854 	-4.170438913e-07 	1.329194963e-05
0.1786224232 	0.006865666235 	-0.002153350555 	1.468838174e-07 	0.007071854733 	-4.451647957e-07 	1.348092064e-05
0.182259349 	0.006959320588 	-0.002203685014 	1.596129329e-07 	0.007169071473 	-4.731673973e-07 	1.366624277e-05
0.1859420126 	0.007051088351 	-0.002254633491 	1.729073685e-07 	0.007264259807 	-5.010422413e-07 	1.384769819e-05
0.1896669197 	0.007140798099 	-0.002306180182 	1.867606421e-07 	0.007357223749 	-5.286544596e-07 	1.40249133e-05
0.193433393 	0.007228269927 	-0.002358297342 	1.937203957e-07 	0.007447755777 	-5.353034525e-07 	1.419749251e-05
0.1972418962 	0.007313353857 	-0.002410979997 	1.886999709e-07 	0.007535678044 	-5.086754502e-07 	1.436509678e-05
0.2010928983 	0.00739591931 	-0.002464231144 	1.833258999e-07 	0.007620828989 	-4.817643803e-07 	1.452741815e-05
0.2049898859 	0.007475847812 	-0.002518065915 	1.775663696e-07 	0.007703056196 	-4.545656665e-07 	1.468416606e-05
0.2089333194 	0.007552982182 	-0.002572474861 	1.714136303e-07 	0.007782163782 	-4.271522884e-07 	1.483496711e-05
0.2129207593 	0.007627133696 	-0.002627418873 	1.64865305e-07 	0.007857919733 	-3.996198644e-07 	1.497937901e-05
0.2169526964 	0.007698129919 	-0.002682870466 	1.579018481e-07 	0.007930106611 	-3.720144259e-07 	1.511698726e-05
0.2210296273 	0.007765818365 	-0.002738814907 	1.505062993e-07 	0.007998524072 	-3.443858732e-07 	1.524740996e-05
0.2251548737 	0.007830050743 	-0.002795244921 	1.426480145e-07 	0.008062972863 	-3.16751599e-07 	1.537026726e-05
0.2293289488 	0.007890645335 	-0.002852125413 	1.343234508e-07 	0.008123216683 	-2.892010389e-07 	1.548510873e-05
0.2335496053 	0.007947393134 	-0.002909388943 	1.255333959e-07 	0.008178989785 	-2.61837696e-07 	1.559142776e-05
0.2378173632 	0.008000091119 	-0.002966974898 	1.162617556e-07 	0.008230032073 	-2.34723403e-07 	1.568872855e-05
0.2421327478 	0.008048544794 	-0.003024833854 	1.064951528e-07 	0.008276091002 	-2.079241127e-07 	1.577652967e-05
0.2465003553 	0.008092547174 	-0.003082916336 	9.620457535e-08 	0.008316901338 	-1.814754299e-07 	1.585432551e-05
0.250917877 	0.008131849552 	-0.003141128353 	8.541573649e-08 	0.008352158321 	-1.555232304e-07 	1.592153512e-05
0.2553846982 	0.008166186736 	-0.003199357377 	7.413984518e-08 	0.008381543397 	-1.301696566e-07 	1.597755124e-05
0.259901369 	0.008195288558 	-0.00325750265 	6.239563198e-08 	0.008404735077 	-1.055095269e-07 	1.602176103e-05
0.2644698782 	0.008218870378 	-0.003315465627 	5.020546423e-08 	0.008421396205 	-8.163109161e-08 	1.605352177e-05
0.2690927907 	0.008236620513 	-0.003373117358 	3.76010643e-08 	0.008431158248 	-5.865037183e-08 	1.607213094e-05
0.273767296 	0.008248202305 	-0.003430266641 	2.460536794e-08 	0.008433621785 	-3.671173802e-08 	1.607682713e-05
0.2784939697 	0.008253266619 	-0.003486689965 	1.118608336e-08 	0.008428367274 	-1.591877695e-08 	1.606681057e-05
0.2823705472 	0.008251787637 	-0.003531674577 	3.808679204e-08 	0.008417482271 	-1.285598898e-06 	1.604606073e-05
0.283273557 	0.008251441267 	-0.003542154748 	2.669312587e-09 	0.008414944273 	-3.599854971e-09 	1.60412226e-05
0.2881107851 	0.008242302165 	-0.003596433647 	1.69339517e-08 	0.00839287856 	-2.168539668e-08 	1.599915922e-05
0.2930019987 	0.008225347763 	-0.003649286895 	3.107703191e-08 	0.008361732841 	-3.795171127e-08 	1.593978682e-05
0.2979478001 	0.00820018721 	-0.003699951583 	4.424674303e-08 	0.008320742234 	-5.196888018e-08 	1.586164733e-05
0.3029487983 	0.008165626287 	-0.003745872414 	5.559621387e-08 	0.008270609212 	-6.477191634e-08 	1.576607985e-05
0.3080095909 	0.008120499687 	-0.003780801837 	6.390213332e-08 	0.008211849268 	-7.725934001e-08 	1.565406707e-05
0.3131269609 	0.008065590542 	-0.003797602183 	6.716441337e-08 	0.008141101679 	-8.56721795e-08 	1.55192025e-05
0.3183014433 	0.008000166042 	-0.003796399701 	6.752472281e-08 	0.008058245244 	-9.075266165e-08 	1.536125511e-05
0.323534034 	0.007922383286 	-0.003783493385 	6.962004057e-08 	0.007966011115 	-9.566343714e-08 	1.518543122e-05
0.3288283649 	0.007832739257 	-0.003763129355 	7.285512444e-08 	0.007862641048 	-9.701230101e-08 	1.498837915e-05
0.3341817839 	0.007731556492 	-0.003736134097 	7.472599371e-08 	0.007746479022 	-9.479203343e-08 	1.476694204e-05
0.33959495 	0.007618118194 	-0.003702059677 	7.452896675e-08 	0.007617818715 	-9.063245409e-08 	1.452167973e-05
0.3450698045 	0.007491886977 	-0.003660234776 	7.218436072e-08 	0.007476514374 	-8.372188465e-08 	1.425231439e-05
0.3506078229 	0.007352421437 	-0.003610196308 	6.777799208e-08 	0.007322385787 	-7.408377144e-08 	1.395850246e-05
0.3562076492 	0.007199374362 	-0.00355162847 	6.136980828e-08 	0.007155363358 	-6.185642455e-08 	1.364011129e-05
0.3618699728 	0.007032468699 	-0.003484367192 	5.317162498e-08 	0.00697546614 	-4.725091653e-08 	1.329717719e-05
0.3675979394 	0.006851542041 	-0.003408436929 	4.355166533e-08 	0.006782807852 	-3.054663104e-08 	1.292991695e-05
0.3733903722 	0.006656660656 	-0.003324104944 	3.301521404e-08 	0.006577687643 	-1.210167073e-08 	1.253890082e-05
0.3792474522 	0.00644810112 	-0.003231858796 	2.215254734e-08 	0.006360539809 	7.676956554e-09 	1.21249567e-05
0.3851709504 	0.006226318799 	-0.003132350326 	1.15260224e-08 	0.006131873962 	2.838706224e-08 	1.168905604e-05
0.3911621639 	0.005991971316 	-0.003026334861 	1.560620553e-09 	0.005892286977 	4.964532024e-08 	1.123233666e-05
0.3972202431 	0.005745985439 	-0.002914586015 	-7.556972319e-09 	0.005642548578 	7.112809643e-08 	1.075626585e-05
0.4033461698 	0.005489354777 	-0.00279773543 	-1.595759747e-08 	0.005383423817 	9.289425421e-08 	1.026230204e-05
0.4095425735 	0.005222816193 	-0.002676174447 	-2.403095277e-08 	0.005115380407 	1.153484878e-07 	9.751336803e-06
0.415808133 	0.004946952782 	-0.002550048718 	-3.23700338e-08 	0.004838758303 	1.386530182e-07 	9.224018189e-06
0.4221436196 	0.004662233954 	-0.002419196067 	-4.169890756e-08 	0.004553865834 	1.628055522e-07 	8.680933961e-06
0.4285517109 	0.004368976427 	-0.002283176118 	-5.270653207e-08 	0.004260954156 	1.878829953e-07 	8.122562893e-06
0.4350314771 	0.004067467423 	-0.002141385946 	-6.27705183e-08 	0.003960342384 	2.034051702e-07 	7.549513304e-06
0.4415835607 	0.003757970872 	-0.001993113366 	-7.365879644e-08 	0.003652423025 	2.157901419e-07 	6.962533423e-06
0.448210299 	0.003440840869 	-0.001837653721 	-8.579576617e-08 	0.003337767911 	2.264791794e-07 	6.362713324e-06
0.4549112516 	0.003116782994 	-0.001674496086 	-9.861314665e-08 	0.003017327534 	2.34851636e-07 	5.751864902e-06
0.4616869897 	0.002786989544 	-0.001503543158 	-1.111369388e-07 	0.002692571955 	2.402327885e-07 	5.132790509e-06
0.4685397235 	0.002453392183 	-0.001324911057 	-1.224231605e-07 	0.002365487022 	2.418311036e-07 	4.509275717e-06
0.4754691032 	0.002118792708 	-0.001139283136 	-1.310982894e-07 	0.00203938437 	2.383975094e-07 	3.887633426e-06
0.4824758482 	0.001788018365 	-0.0009487115894 	-1.365119668e-07 	0.001718139184 	2.293474862e-07 	3.275250817e-06
0.48956208 	0.001467579357 	-0.0007566007119 	-1.391915443e-07 	0.001408904873 	2.117769747e-07 	2.685764273e-06
0.4967273963 	0.001167330161 	-0.0005670385987 	-1.333469226e-07 	0.001123197934 	1.831451725e-07 	2.141127438e-06
0.5038929853 	0.0009043421681 	-0.0003907499991 	-1.106132342e-07 	0.000873175335 	1.454017199e-07 	1.664514875e-06
0.5109803352 	0.0006938372086 	-0.0002478306796 	-7.58443506e-08 	0.0006721829984 	1.021115724e-07 	1.281367619e-06
0.5179894793 	0.0005418949582 	-0.000149631861 	-4.398892345e-08 	0.0005280561753 	6.034608423e-08 	1.006621836e-06
0.524921636 	0.0004453199298 	-8.842287996e-05 	-2.332014047e-08 	0.0004363171087 	2.805317857e-08 	8.317416773e-07
0.531777805 	0.0003914923179 	-5.065078274e-05 	-1.216120999e-08 	0.0003849822875 	7.645087448e-09 	7.338832403e-07
0.538558318 	0.0003652133741 	-2.671762824e-05 	-6.526102392e-09 	0.0003601497874 	-3.427049345e-09 	6.865455933e-07
0.5452643442 	0.0003546216663 	-1.085895081e-05 	-3.746848199e-09 	0.0003503469761 	-8.920361174e-09 	6.678587103e-07
0.5518967112 	0.0003521867767 	1.864417645e-07 	-2.403929328e-09 	0.0003483899684 	-1.162898946e-08 	6.641281098e-07
0.5584558909 	0.0003536907488 	8.245394079e-06 	-1.759280809e-09 	0.0003501890492 	-1.30318419e-08 	6.675576578e-07
0.5649429425 	0.0003568528502 	1.437704044e-05 	-1.453456357e-09 	0.0003535538537 	-1.379807031e-08 	6.739719103e-07
0.5713586812 	0.0003604669638 	1.923032102e-05 	-1.309630817e-09 	0.000357311841 	-1.423554066e-08 	6.811356786e-07
0.5777036221 	0.0003639052208 	2.322940373e-05 	-1.2407996e-09 	0.0003608585024 	-1.447622249e-08 	6.87896601e-07
0.583978692 	0.0003668667166 	2.666805951e-05 	-1.203711477e-09 	0.0003639027556 	-1.458409132e-08 	6.936997937e-07
0.5901847713 	0.0003692413183 	2.976195084e-05 	-1.176694245e-09 	0.000366340837 	-1.459022652e-08 	6.983474545e-07
0.5963223658 	0.0003710396133 	3.267945058e-05 	-1.147919825e-09 	0.0003681859574 	-1.451012339e-08 	7.018647668e-07
0.6023922714 	0.0003723564743 	3.556324706e-05 	-1.109085033e-09 	0.0003695337175 	-1.434894441e-08 	7.044339721e-07
0.6083954574 	0.0003733558195 	3.854722336e-05 	-1.051497488e-09 	0.000370546667 	-1.410628627e-08 	7.063649355e-07
0.6143323969 	0.0003742703594 	4.177263871e-05 	-9.623848827e-10 	0.0003714540493 	-1.37718975e-08 	7.080946582e-07
0.6202038208 	0.0003754159248 	4.540683864e-05 	-8.208839092e-10 	0.0003725653408 	-1.332071207e-08 	7.102130887e-07
0.6260106295 	0.0003772235062 	4.966785302e-05 	-5.921201367e-10 	0.0003743012646 	-1.270496227e-08 	7.13522242e-07
0.6317534071 	0.0003802979544 	5.486024235e-05 	-2.176010162e-10 	0.0003772497598 	-1.183610605e-08 	7.191428933e-07
0.6374328113 	0.0003855180936 	6.143068474e-05 	4.014880185e-10 	0.0003822632277 	-1.055288776e-08 	7.286999565e-07
0.6430495922 	0.0003942027657 	7.005421338e-05 	1.429392276e-09 	0.0003906169597 	-8.565580373e-09 	7.446244915e-07
0.6486045051 	0.0004083663289 	8.176471719e-05 	3.133570285e-09 	0.0004042555691 	-5.394096899e-09 	7.706234717e-07
0.6540981175 	0.0004310615148 	9.813270115e-05 	5.925794195e-09 	0.000426125087 	-2.669171702e-10 	8.123128512e-07
0.6595311055 	0.0004667123207 	0.0001214725489 	1.038432809e-08 	0.0004604800027 	7.787909003e-09 	8.778028689e-07
0.6649042208 	0.0005211120174 	0.0001550257025 	1.729228926e-08 	0.0005129255513 	1.978326536e-08 	9.777786611e-07
0.6702180788 	0.000600801187 	0.0002031999672 	2.769472096e-08 	0.0005894650786 	3.572312478e-08 	1.123684273e-06
0.6754732958 	0.0007112602256 	0.0002716164276 	4.239641347e-08 	0.0006951444954 	5.498001457e-08 	1.325138614e-06
0.680670519 	0.0008546481107 	0.000364139944 	5.809510737e-08 	0.0008326065821 	7.567065092e-08 	1.587179557e-06
0.6858104664 	0.001029347817 	0.0004772983942 	6.820187888e-08 	0.0009999913419 	9.388164569e-08 	1.906261431e-06
0.6908936988 	0.001230347453 	0.0006019466347 	7.277300535e-08 	0.001192255717 	1.088931501e-07 	2.272770766e-06
0.695920835 	0.001450647221 	0.0007316832206 	7.625138021e-08 	0.001404207943 	1.212112416e-07 	2.676810618e-06
0.7008924939 	0.001684157003 	0.0008644853541 	7.865205906e-08 	0.001630095086 	1.293467669e-07 	3.107414295e-06
0.7058093461 	0.001926181478 	0.0009987016957 	7.901598612e-08 	0.001864560975 	1.342016398e-07 	3.554371446e-06
0.7106719389 	0.002172781502 	0.001132185961 	7.792925901e-08 	0.002104084854 	1.370571192e-07 	4.010970531e-06
0.7154808702 	0.002420977542 	0.001263205681 	7.579844209e-08 	0.002345948127 	1.379954128e-07 	4.472029153e-06
0.720236732 	0.002668426206 	0.001390489969 	7.283758253e-08 	0.002587840996 	1.373681682e-07 	4.933144191e-06
0.724940145 	0.002913312667 	0.001513094109 	6.919885308e-08 	0.002828021925 	1.355347875e-07 	5.390995797e-06
0.729591658 	0.003154415671 	0.00163032336 	6.503126484e-08 	0.003065305025 	1.328908036e-07 	5.843323336e-06
0.7341918387 	0.003390960046 	0.001741656385 	6.047798983e-08 	0.003298942018 	1.296397351e-07 	6.28870038e-06
0.7387412535 	0.003622524974 	0.001846699805 	5.577694866e-08 	0.003528492732 	1.259432269e-07 	6.726287841e-06
0.7432404775 	0.003848947078 	0.001945184148 	5.123074085e-08 	0.003753863224 	1.219872314e-07 	7.155906637e-06
0.7476900611 	0.004070420685 	0.002041359322 	5.286111285e-08 	0.003974987314 	1.178975468e-07 	7.577430611e-06
0.7520905407 	0.004288423322 	0.002132983078 	4.494654514e-08 	0.004192320993 	1.150133759e-07 	7.991729008e-06
0.7564424581 	0.004506192736 	0.002213027192 	3.471142413e-08 	0.004408172576 	1.142400587e-07 	8.403202119e-06
0.7607463499 	0.004726561247 	0.002289657929 	3.731969635e-08 	0.004625552263 	1.141326382e-07 	8.81758822e-06
0.7650027615 	0.00494972224 	0.002371088096 	3.927238549e-08 	0.004845571427 	1.132517591e-07 	9.237005897e-06
0.7692122007 	0.005173707898 	0.002456197253 	4.023216821e-08 	0.005066838125 	1.109366489e-07 	9.658801721e-06
0.773375186 	0.005395550219 	0.002543385228 	4.007011125e-08 	0.0052866163 	1.068040311e-07 	1.007776001e-05
0.7774922298 	0.005611965957 	0.002630899994 	3.878979023e-08 	0.005501841801 	1.007490203e-07 	1.048803963e-05
0.781563842 	0.005819893529 	0.002717052049 	3.650026065e-08 	0.005709583719 	9.29720462e-08 	1.088405346e-05
0.7855905287 	0.006016780809 	0.002800351821 	3.33843308e-08 	0.005907337154 	8.386150486e-08 	1.126102648e-05
0.7895727781 	0.006200707087 	0.002879586183 	2.965648872e-08 	0.006093161357 	7.385803929e-08 	1.161525905e-05
0.7935110805 	0.006370392103 	0.002953845167 	2.552989717e-08 	0.006265707643 	6.337277735e-08 	1.194418023e-05
0.797405921 	0.006525134235 	0.003022510002 	2.11944911e-08 	0.006424170778 	5.27522805e-08 	1.224625501e-05
0.8012577807 	0.006664707194 	0.003085215195 	1.680466595e-08 	0.00656819871 	4.226872825e-08 	1.252081228e-05
0.8050671369 	0.006789236709 	0.003141796667 	1.247536353e-08 	0.006697787603 	3.212281323e-08 	1.276784473e-05
0.8088344542 	0.006899074933 	0.003192236148 	8.283292326e-09 	0.006813180028 	2.244838784e-08 	1.298781476e-05
0.8125601965 	0.006994690125 	0.003236610415 	4.275510873e-09 	0.006914777351 	1.332560498e-08 	1.318148749e-05
0.8162448224 	0.007076588485 	0.003275052296 	4.818033791e-10 	0.007003073108 	4.797569176e-09 	1.334980375e-05
0.8198887859 	0.007145281899 	0.003307728711 	-3.072369364e-09 	0.007078612559 	-3.112529491e-09 	1.349380294e-05
0.8234925387 	0.007201306446 	0.003334837872 	-6.356167828e-09 	0.007141980581 	-1.038817147e-08 	1.36146e-05
0.8270565217 	0.007245278789 	0.003356623106 	-9.330595869e-09 	0.007193822174 	-1.70115165e-08 	1.371342448e-05
0.8305811736 	0.007277971405 	0.003373395069 	-1.195377491e-08 	0.007234873301 	-2.295671302e-08 	1.379167934e-05
0.8340669283 	0.007300365662 	0.003385549437 	-1.419309018e-08 	0.007265992123 	-2.814857193e-08 	1.385100046e-05
0.8375142152 	0.007313967466 	0.003393565536 	-1.60382019e-08 	0.007287527732 	-3.255882867e-08 	1.389205332e-05
0.8409234592 	0.007319516881 	0.003397980149 	-1.750927802e-08 	0.007301721398 	-3.586246269e-08 	1.391911039e-05