0 	-1.975358134e-05 	8.069680694e-19 	4.634476024e-26 	-3.29660457e-32 	-1.893263862e-39 	-1.087315138e-46
0 	-1.975358134e-05 	8.069680694e-19 	4.634476024e-26 	-3.29660457e-32 	-1.893263862e-39 	-1.087315138e-46
0.0003212932665 	-1.993090427e-05 	-3.698298434e-06 	1.460938956e-10 	8.671290031e-06 	-1.201932902e-09 	1.652988886e-08
0.000642586183 	-1.999231543e-05 	-7.215745762e-06 	3.439515911e-10 	9.660722375e-06 	-1.307184109e-09 	1.841602191e-08
0.0009638787489 	-1.992149038e-05 	-1.058988118e-05 	4.910407894e-10 	9.815050773e-06 	-1.298196429e-09 	1.871021472e-08
0.001285170964 	-1.996797984e-05 	-1.400897805e-05 	6.340978927e-10 	9.928188178e-06 	-1.283189457e-09 	1.892588606e-08
0.001606462828 	-1.997659177e-05 	-1.744115662e-05 	7.701809842e-10 	9.947460088e-06 	-1.255369327e-09 	1.896262368e-08
0.00192775434 	-1.99915336e-05 	-2.088200106e-05 	8.993916682e-10 	9.965637191e-06 	-1.227213512e-09 	1.899727429e-08
0.0022490455 	-2.000889747e-05 	-2.432857795e-05 	1.021583613e-09 	9.980992996e-06 	-1.198525378e-09 	1.902654672e-08
0.002570336307 	-2.002946818e-05 	-2.777948557e-05 	1.136680281e-09 	9.996450413e-06 	-1.169700987e-09 	1.905601286e-08
0.002891626762 	-2.005272769e-05 	-3.123393921e-05 	1.24462717e-09 	1.001199963e-05 	-1.140736575e-09 	1.908565399e-08
0.003212916865 	-2.007874137e-05 	-3.469150188e-05 	1.345386673e-09 	1.002825549e-05 	-1.111706971e-09 	1.911664217e-08
0.003534206614 	-2.01075133e-05 	-3.81519328e-05 	1.438931746e-09 	1.004549889e-05 	-1.082642744e-09 	1.914951288e-08
0.003855496009 	-2.013905711e-05 	-4.161511318e-05 	1.525242847e-09 	1.006391112e-05 	-1.053561101e-09 	1.918461171e-08
0.004176785052 	-2.017337956e-05 	-4.508100123e-05 	1.604305686e-09 	1.008359786e-05 	-1.024469131e-09 	1.92221401e-08
0.004498073741 	-2.0210489e-05 	-4.854960561e-05 	1.676109857e-09 	1.010463093e-05 	-9.953693031e-10 	1.926223499e-08
0.004819362076 	-2.025039437e-05 	-5.202096878e-05 	1.740647922e-09 	1.012706034e-05 	-9.66261118e-10 	1.930499167e-08
0.005140650058 	-2.02931054e-05 	-5.549515617e-05 	1.797914798e-09 	1.015092251e-05 	-9.371422448e-10 	1.935047961e-08
0.005461937686 	-2.033863272e-05 	-5.897224899e-05 	1.84790734e-09 	1.017624509e-05 	-9.080091452e-10 	1.939875148e-08
0.00578322496 	-2.038698803e-05 	-6.245233925e-05 	1.890624049e-09 	1.020304997e-05 	-8.788574754e-10 	1.944984904e-08
0.00610451188 	-2.043818426e-05 	-6.593552621e-05 	1.926064859e-09 	1.023135536e-05 	-8.496823515e-10 	1.950380697e-08
0.006425798447 	-2.049223558e-05 	-6.942191375e-05 	1.954230983e-09 	1.026117699e-05 	-8.204785152e-10 	1.956065529e-08
0.00674708466 	-2.054915759e-05 	-7.291160827e-05 	1.975124798e-09 	1.029252906e-05 	-7.912404487e-10 	1.962042105e-08
0.00706837052 	-2.060896765e-05 	-7.64047168e-05 	1.988749761e-09 	1.032542505e-05 	-7.619624765e-10 	1.968312994e-08
0.007389656027 	-2.067168636e-05 	-7.990134468e-05 	1.995110322e-09 	1.035987916e-05 	-7.326388698e-10 	1.974880905e-08
0.00771094118 	-2.073734083e-05 	-8.340159181e-05 	1.994211856e-09 	1.039590875e-05 	-7.032639834e-10 	1.981749147e-08
0.008032225981 	-2.080596879e-05 	-8.690554504e-05 	1.986060625e-09 	1.043353166e-05 	-6.738323169e-10 	1.988921119e-08
0.008353510429 	-2.087762486e-05 	-9.041326429e-05 	1.97066401e-09 	1.047275325e-05 	-6.443383091e-10 	1.996397844e-08
0.008674794525 	-2.095241864e-05 	-9.392471381e-05 	1.948029661e-09 	1.05135846e-05 	-6.147765112e-10 	2.004181436e-08
0.008996078268 	-2.103086799e-05 	-9.744001189e-05 	1.918181933e-09 	1.055661817e-05 	-5.851550772e-10 	2.01238483e-08
0.00931736166 	-2.111374408e-05 	-0.0001009550527 	1.881008904e-09 	1.060241239e-05 	-5.554801836e-10 	2.021114479e-08
0.009638644701 	-2.121359014e-05 	-0.0001049153184 	1.843592819e-09 	1.065610231e-05 	-5.258810717e-10 	2.031349272e-08
0.01013784382 	-2.134232087e-05 	-0.0001097912667 	1.748668712e-09 	1.072474312e-05 	-4.791912159e-10 	2.044434117e-08
0.01064642451 	-2.148900872e-05 	-0.0001151904312 	1.641978211e-09 	1.08044716e-05 	-4.315233805e-10 	2.059632581e-08
0.01116456308 	-2.164340901e-05 	-0.0001207053729 	1.516033995e-09 	1.088908569e-05 	-3.826339162e-10 	2.075762379e-08
0.01169243912 	-2.180615698e-05 	-0.0001263406682 	1.369889955e-09 	1.097810666e-05 	-3.324682198e-10 	2.092732251e-08
0.01223023562 	-2.197794078e-05 	-0.0001320985163 	1.202531127e-09 	1.107188987e-05 	-2.809836301e-10 	2.110609936e-08
0.012778139 	-2.215940612e-05 	-0.0001379816532 	1.01291728e-09 	1.117095488e-05 	-2.281351014e-10 	2.12949448e-08
0.01333633918 	-2.235100889e-05 	-0.0001439930232 	7.999816405e-10 	1.127555562e-05 	-1.738699315e-10 	2.149434289e-08
0.01390502967 	-2.255316488e-05 	-0.0001501357524 	5.626312977e-10 	1.13859082e-05 	-1.181321405e-10 	2.170470557e-08
0.01448440758 	-2.276628463e-05 	-0.0001564131163 	2.997471633e-10 	1.15022288e-05 	-6.086314309e-11 	2.192644498e-08
0.01507467376 	-2.299078252e-05 	-0.0001628285262 	1.018426149e-11 	1.162473837e-05 	-2.00181076e-12 	2.215998226e-08
0.01509467593 	-2.299864162e-05 	-0.0001630466139 	-7.865182237e-11 	1.162902627e-05 	-4.882408312e-10 	2.216815619e-08
0.0156760328 	-2.322712951e-05 	-0.0001693855691 	3.092874965e-10 	1.175368582e-05 	-5.962266933e-11 	2.240579193e-08
0.01628869317 	-2.347570486e-05 	-0.0001760878665 	6.580239807e-10 	1.188927443e-05 	-1.230380954e-10 	2.266426151e-08
0.01691286722 	-2.373694194e-05 	-0.0001829392011 	1.037191597e-09 	1.203173346e-05 	-1.882770053e-10 	2.293582803e-08
0.01754877133 	-2.401128816e-05 	-0.0001899434746 	1.448053061e-09 	1.218130371e-05 	-2.554114898e-10 	2.322095048e-08
0.01819662591 	-2.429919011e-05 	-0.0001971047063 	1.89189739e-09 	1.23382074e-05 	-3.245144058e-10 	2.352005254e-08
0.01885665553 	-2.460112612e-05 	-0.0002044269722 	2.370036558e-09 	1.250271199e-05 	-3.956598722e-10 	2.3833644e-08
0.01952908899 	-2.491760107e-05 	-0.0002119152057 	2.883830411e-09 	1.267510553e-05 	-4.689235463e-10 	2.416227401e-08
0.02021415938 	-2.524928145e-05 	-0.0002195775964 	3.434733373e-09 	1.285566122e-05 	-5.443804145e-10 	2.450646332e-08
0.02091383357 	-2.559702479e-05 	-0.0002274261156 	4.026400356e-09 	1.304485476e-05 	-6.224508642e-10 	2.48671188e-08
0.02162790732 	-2.596130806e-05 	-0.0002354663053 	4.660843809e-09 	1.324303509e-05 	-7.032585826e-10 	2.52449056e-08
0.02235540062 	-2.634223855e-05 	-0.0002436947551 	5.338369069e-09 	1.345018682e-05 	-7.86687647e-10 	2.563979437e-08
0.02309656566 	-2.674017308e-05 	-0.0002521121195 	6.060568795e-09 	1.36664457e-05 	-8.728376828e-10 	2.605204391e-08
0.02385165934 	-2.71556835e-05 	-0.0002607237997 	6.829248584e-09 	1.389214973e-05 	-9.618260171e-10 	2.648229852e-08
0.0246209434 	-2.758931351e-05 	-0.0002695348096 	7.646228289e-09 	1.412757714e-05 	-1.053784096e-09 	2.693108859e-08
0.02540468448 	-2.804160191e-05 	-0.0002785503146 	8.513374657e-09 	1.437299123e-05 	-1.148873805e-09 	2.739891605e-08
0.02620315426 	-2.851310059e-05 	-0.0002877755863 	9.432612913e-09 	1.462867192e-05 	-1.247309457e-09 	2.788631451e-08
0.02701662949 	-2.900436496e-05 	-0.0002972160004 	1.040595718e-08 	1.489489465e-05 	-1.349370145e-09 	2.839380903e-08
0.02784539215 	-2.951595919e-05 	-0.0003068770318 	1.143557025e-08 	1.517193796e-05 	-1.455393978e-09 	2.892193057e-08
0.0286897295 	-3.004846099e-05 	-0.0003167642348 	1.252396134e-08 	1.546008789e-05 	-1.565737273e-09 	2.947122442e-08
0.0295499342 	-3.060247074e-05 	-0.0003268832444 	1.367407079e-08 	1.575964588e-05 	-1.680679042e-09 	3.004226521e-08
0.03042630441 	-3.117862661e-05 	-0.0003372398295 	1.488880223e-08 	1.607094079e-05 	-1.800250063e-09 	3.063567983e-08
0.03131914389 	-3.177759233e-05 	-0.0003478399393 	1.61704169e-08 	1.639431888e-05 	-1.924288332e-09 	3.125212835e-08
0.03222876211 	-3.240002122e-05 	-0.0003586896694 	1.752068882e-08 	1.673011085e-05 	-2.052824233e-09 	3.189224118e-08
0.03315547435 	-3.304655845e-05 	-0.0003697952007 	1.894154599e-08 	1.707862949e-05 	-2.186201761e-09 	3.255661458e-08
0.03409960182 	-3.371786074e-05 	-0.0003811627958 	2.043521302e-08 	1.744018967e-05 	-2.324905285e-09 	3.324584877e-08
0.03506147177 	-3.441459971e-05 	-0.0003927988167 	2.200406036e-08 	1.781511288e-05 	-2.46952523e-09 	3.396055661e-08
0.03604141757 	-3.51374634e-05 	-0.0004047097285 	2.365058506e-08 	1.820372892e-05 	-2.620826289e-09 	3.470136679e-08
0.03703977888 	-3.588714975e-05 	-0.0004169021 	2.537745975e-08 	1.860635987e-05 	-2.779819884e-09 	3.546889328e-08
0.03805690174 	-3.666436723e-05 	-0.0004293825715 	2.718765397e-08 	1.902331647e-05 	-2.947854859e-09 	3.626372846e-08
0.03909313868 	-3.746990881e-05 	-0.0004421582414 	2.90847146e-08 	1.945503447e-05 	-3.126709708e-09 	3.708670295e-08
0.04014884885 	-3.830472596e-05 	-0.0004552394945 	3.107340896e-08 	1.990188135e-05 	-3.318557728e-09 	3.79385173e-08
0.04122551531 	-3.917036894e-05 	-0.000468644617 	3.316249201e-08 	2.036453745e-05 	-3.525971754e-09 	3.88204684e-08
0.04232554311 	-4.006808135e-05 	-0.0004823898734 	3.536430249e-08 	2.084383209e-05 	-3.75069891e-09 	3.973413721e-08
0.04344624324 	-4.09978984e-05 	-0.0004964701967 	3.768338663e-08 	2.133975711e-05 	-3.988586994e-09 	4.067950814e-08
0.04458800415 	-4.196062455e-05 	-0.0005108809943 	4.013242532e-08 	2.18529393e-05 	-4.219907973e-09 	4.165777601e-08
0.0457512216 	-4.295845281e-05 	-0.0005256304379 	4.273104218e-08 	2.238503335e-05 	-4.411216847e-09 	4.267209517e-08
0.04693629876 	-4.399236946e-05 	-0.0005407255444 	4.549405285e-08 	2.293621862e-05 	-4.558649463e-09 	4.372280749e-08
0.0481436464 	-4.50609363e-05 	-0.0005561749617 	4.839826196e-08 	2.350480341e-05 	-4.714170115e-09 	4.480668813e-08
0.04937368298 	-4.616305308e-05 	-0.0005719876236 	5.141753503e-08 	2.408944357e-05 	-4.938040813e-09 	4.592117475e-08
0.05062683484 	-4.729992833e-05 	-0.0005881709236 	5.457806943e-08 	2.469056998e-05 	-5.242178337e-09 	4.706708877e-08
0.05190353633 	-4.847352748e-05 	-0.0006047319071 	5.791921586e-08 	2.530954198e-05 	-5.601897051e-09 	4.824702144e-08
0.05320422996 	-4.968528881e-05 	-0.0006216778565 	6.14680779e-08 	2.594730966e-05 	-5.998186445e-09 	4.946278389e-08
0.05452936655 	-5.093632359e-05 	-0.0006390157706 	6.525009552e-08 	2.660431513e-05 	-6.426567801e-09 	5.071521892e-08
0.05587940539 	-5.222782782e-05 	-0.0006567519194 	6.929186101e-08 	2.728091175e-05 	-6.886753545e-09 	5.200500013e-08
0.0572548144 	-5.356154527e-05 	-0.0006748912469 	7.095914568e-08 	2.797769333e-05 	-7.110305833e-09 	5.333325948e-08
0.05865607028 	-5.494076167e-05 	-0.000693436888 	7.078088328e-08 	2.869645129e-05 	-7.13605062e-09 	5.470341192e-08
0.06008365872 	-5.637199836e-05 	-0.0007123936812 	7.054588914e-08 	2.944154769e-05 	-7.12707229e-09 	5.612377276e-08
0.06153889687 	-5.786257402e-05 	-0.000731776721 	7.021185242e-08 	3.021148507e-05 	-7.05673049e-09 	5.75914874e-08
0.06302592626 	-5.94279132e-05 	-0.0007516237998 	6.970300879e-08 	3.101483803e-05 	-6.890049889e-09 	5.912290141e-08
0.06454090063 	-6.13014476e-05 	-0.0007747033793 	6.915794524e-08 	3.198236058e-05 	-6.58882356e-09 	6.09672683e-08
0.06686661109 	-6.364712835e-05 	-0.0008035461284 	6.699901114e-08 	3.31939425e-05 	-5.935263654e-09 	6.327688018e-08
0.06921826507 	-6.619042889e-05 	-0.0008353108527 	6.399970089e-08 	3.45075152e-05 	-5.224440023e-09 	6.578091483e-08
0.07159615198 	-6.875264721e-05 	-0.0008675328083 	5.972273398e-08 	3.583693765e-05 	-4.820310996e-09 	6.831516351e-08
0.07400056443 	-7.140235135e-05 	-0.0009003982609 	5.421102128e-08 	3.72247264e-05 	-4.746321508e-09 	7.096067459e-08
0.07643179831 	-7.417662057e-05 	-0.0009341912863 	4.863712275e-08 	3.869365959e-05 	-4.709267583e-09 	7.376086953e-08
0.07889015282 	-7.69962633e-05 	-0.0009686716667 	4.390090934e-08 	4.016737194e-05 	-4.434210812e-09 	7.657017487e-08
0.08137593047 	-7.98105885e-05 	-0.001003728371 	3.963304331e-08 	4.1602245e-05 	-3.882251379e-09 	7.930544172e-08
0.08389681689 	-8.265489826e-05 	-0.001039504423 	3.588003324e-08 	4.304073472e-05 	-3.327239009e-09 	8.204760292e-08
0.08644662745 	-8.555781352e-05 	-0.001075918719 	3.225050562e-08 	4.450543726e-05 	-2.919922998e-09 	8.483973307e-08
0.08902488323 	-8.852915018e-05 	-0.001112896147 	2.827929969e-08 	4.600192461e-05 	-2.592593869e-09 	8.769245389e-08
0.09163190156 	-9.155756017e-05 	-0.001150469984 	2.408605388e-08 	4.752520168e-05 	-2.252529384e-09 	9.059624335e-08
0.09426800331 	-9.461805381e-05 	-0.001188643151 	1.956785836e-08 	4.905204351e-05 	-1.813892553e-09 	9.350682824e-08
0.09693351292 	-9.77043723e-05 	-0.00122738365 	1.451494358e-08 	5.057389346e-05 	-1.287978695e-09 	9.640789723e-08
0.09962875848 	-0.0001008353956 	-0.001266663597 	8.840068451e-09 	5.210782402e-05 	-7.481111245e-10 	9.93319952e-08
0.102355471 	-0.0001040342863 	-0.001306518062 	2.638439869e-09 	5.367678615e-05 	-2.189602347e-10 	1.023228731e-07
0.1034723851 	-0.0001053560564 	-0.001322880805 	-8.927723253e-08 	5.432735825e-05 	2.609849399e-09 	1.035630443e-07
0.1051193293 	-0.0001073060566 	-0.001347009226 	3.923871554e-09 	5.528733061e-05 	-3.522200954e-10 	1.053930185e-07
0.1079140226 	-0.0001106371564 	-0.001388140405 	1.089517579e-08 	5.692686878e-05 	-9.82266636e-10 	1.085184339e-07
0.1107398951 	-0.0001140141861 	-0.00142990432 	1.832948659e-08 	5.85821841e-05 	-1.62942634e-09 	1.11673925e-07
0.1135972945 	-0.000117430652 	-0.001472311817 	2.618025964e-08 	6.024696491e-05 	-2.266840107e-09 	1.148474599e-07
0.1164865725 	-0.0001208835097 	-0.001515367126 	3.439439048e-08 	6.191851806e-05 	-2.892148607e-09 	1.180339048e-07
0.119408085 	-0.0001243712031 	-0.0015590782 	4.294472244e-08 	6.359536691e-05 	-3.523353641e-09 	1.212304447e-07
0.122362907 	-0.0001278936514 	-0.00160347513 	5.186264135e-08 	6.527650424e-05 	-4.194045582e-09 	1.244351598e-07
0.1253579596 	-0.0001314484618 	-0.001648592131 	6.126831609e-08 	6.695970557e-05 	-4.942044044e-09 	1.276438093e-07
0.1283864287 	-0.000135026248 	-0.001694398046 	7.126607338e-08 	6.863786466e-05 	-5.778931146e-09 	1.308428469e-07
0.1314486871 	-0.0001386176208 	-0.001740856449 	8.197388484e-08 	7.03030998e-05 	-6.677268636e-09 	1.34017248e-07
0.1345451119 	-0.0001422176155 	-0.001787960566 	9.340527642e-08 	7.195169339e-05 	-7.580965699e-09 	1.371599255e-07
0.1376760841 	-0.0001458252554 	-0.001835701743 	1.054189348e-07 	7.358376435e-05 	-8.455912795e-09 	1.402711064e-07
0.1408419893 	-0.0001494446578 	-0.001884091835 	1.178545421e-07 	7.520356695e-05 	-9.348627565e-09 	1.433589003e-07
0.1440475001 	-0.0001530808984 	-0.001933173156 	1.307352316e-07 	7.681675361e-05 	-1.035121745e-08 	1.464340825e-07
0.1472922521 	-0.0001567310561 	-0.001982961953 	1.441649613e-07 	7.842263961e-05 	-1.148190796e-08 	1.494953475e-07
0.1505732086 	-0.0001603850628 	-0.002033441385 	1.582169418e-07 	8.001384292e-05 	-1.267259985e-08 	1.525286233e-07
0.1538907736 	-0.0001640321521 	-0.002084613122 	1.729103409e-07 	8.15821096e-05 	-1.383590493e-08 	1.555181755e-07
0.1572453555 	-0.0001676620189 	-0.002136491276 	1.881904961e-07 	8.311957359e-05 	-1.490086143e-08 	1.584490092e-07
0.1606373674 	-0.0001712653136 	-0.002189097897 	1.90770586e-07 	8.461872075e-05 	-1.480400105e-08 	1.613068003e-07
0.1640708329 	-0.000174834377 	-0.002242476073 	1.839470657e-07 	8.607411223e-05 	-1.388066501e-08 	1.64081181e-07
0.167546476 	-0.0001783593635 	-0.002296644959 	1.764158917e-07 	8.747998693e-05 	-1.288041537e-08 	1.667611689e-07
0.171060902 	-0.0001818272594 	-0.002351589669 	1.682474246e-07 	8.882823692e-05 	-1.186846646e-08 	1.693313081e-07
0.1746145435 	-0.0001852246265 	-0.002407316942 	1.595494206e-07 	9.011032492e-05 	-1.090195783e-08 	1.717753242e-07
0.1782078381 	-0.0001885349562 	-0.002463851572 	1.504713161e-07 	9.131455143e-05 	-1.001992957e-08 	1.740709146e-07
0.1818412283 	-0.0001917368266 	-0.002521230078 	1.411617755e-07 	9.24237095e-05 	-9.230712638e-09 	1.761852782e-07
0.1855209962 	-0.0001948028331 	-0.002579495251 	1.316768068e-07 	9.341607592e-05 	-8.502338587e-09 	1.780770044e-07
0.1892431269 	-0.0001976970391 	-0.002638619935 	1.220281348e-07 	9.4263871e-05 	-7.775416351e-09 	1.796931374e-07
0.1930067927 	-0.0002003817709 	-0.002698544314 	1.120663027e-07 	9.493816286e-05 	-6.98469432e-09 	1.809785251e-07
0.1968124572 	-0.0002028247217 	-0.002759225993 	1.015616882e-07 	9.541590385e-05 	-6.09972301e-09 	1.818892322e-07
0.200660589 	-0.0002050015972 	-0.002820633908 	9.032092353e-08 	9.568215467e-05 	-5.1500339e-09 	1.823967803e-07
0.2045550713 	-0.0002068949731 	-0.002882769122 	7.825503751e-08 	9.572988881e-05 	-4.205083029e-09 	1.824877748e-07
0.208496362 	-0.0002084849455 	-0.002945621341 	6.541458323e-08 	9.555162111e-05 	-3.318625301e-09 	1.82147947e-07
0.2124816352 	-0.0002097416253 	-0.0030091563 	5.188037665e-08 	9.513078191e-05 	-2.497754383e-09 	1.813457106e-07
0.2165113818 	-0.0002106245397 	-0.00307335994 	3.76764883e-08 	9.444038787e-05 	-1.723824528e-09 	1.800296276e-07
0.220586098 	-0.0002110838095 	-0.003138230605 	2.278544611e-08 	9.34439739e-05 	-9.842741653e-10 	1.781301857e-07
0.2247094769 	-0.0002110638468 	-0.003203766666 	7.146650954e-09 	9.209993857e-05 	-2.87030393e-10 	1.755680808e-07
0.2265534959 	-0.0002108183062 	-0.003232998899 	-1.212176088e-07 	9.133391773e-05 	-6.673325004e-08 	1.741078321e-07
0.2288820322 	-0.000210507713 	-0.003269919286 	9.346120372e-09 	9.036602713e-05 	-3.36252721e-10 	1.722627636e-07
0.2331011526 	-0.0002093610512 	-0.003336584329 	2.66800218e-08 	8.820282613e-05 	-8.306444166e-10 	1.681391013e-07
0.2373673575 	-0.0002075752083 	-0.00340365797 	4.477101416e-08 	8.557619763e-05 	-1.153625404e-09 	1.631320174e-07
0.2416811722 	-0.0002051066487 	-0.003471049979 	6.357179303e-08 	8.245643349e-05 	-1.274026697e-09 	1.571848798e-07
0.2460477287 	-0.0002019161893 	-0.00353867115 	8.303321604e-08 	7.881832032e-05 	-1.167661044e-09 	1.50249625e-07
0.2504643428 	-0.0001979704705 	-0.003606377865 	1.030170642e-07 	7.464221193e-05 	-8.160862373e-10 	1.422888017e-07
0.2549302469 	-0.0001932398283 	-0.003674007341 	1.234259465e-07 	6.991123769e-05 	-2.174650379e-10 	1.332702499e-07
0.259445991 	-0.0001876923089 	-0.003741409018 	1.442614598e-07 	6.460633652e-05 	5.928112186e-10 	1.231576338e-07
0.2640137526 	-0.0001812861355 	-0.003808412566 	1.657502186e-07 	5.870091617e-05 	1.533904331e-09 	1.119002613e-07
0.2686363606 	-0.0001739559227 	-0.003874751514 	1.883661427e-07 	5.214021779e-05 	2.477673482e-09 	9.939374673e-08
0.2733105587 	-0.0001656095913 	-0.003939971917 	2.125661795e-07 	4.483055553e-05 	3.334052064e-09 	8.545949886e-08
0.2780369227 	-0.0001561549693 	-0.004003450591 	2.36981797e-07 	3.666433411e-05 	5.155811364e-09 	6.989241113e-08
0.2828162191 	-0.0001454594876 	-0.004063739589 	2.558528108e-07 	2.731316606e-05 	5.893767198e-09 	5.206648582e-08
0.2876537208 	-0.0001347187847 	-0.004117453393 	2.58621827e-07 	1.883162915e-05 	7.103230293e-09 	3.589831914e-08
0.292545212 	-0.0001249289602 	-0.004157895648 	2.425875011e-07 	1.234410746e-05 	1.642194232e-08 	2.353129968e-08
0.2974912951 	-0.0001142183317 	-0.004177989593 	2.239201524e-07 	3.808791088e-06 	2.045079747e-08 	7.260614413e-09
0.302492579 	-0.0001028503006 	-0.004178938917 	2.143792037e-07 	-5.764941803e-06 	1.297464698e-08 	-1.098958136e-08
0.3075541865 	-9.252920661e-05 	-0.004168290944 	2.09551503e-07 	-1.280576305e-05 	1.173588441e-08 	-2.441134356e-08
0.3126723942 	-8.208505787e-05 	-0.004150143415 	2.049071339e-07 	-1.959421809e-05 	1.532744491e-08 	-3.735202561e-08
0.3178477247 	-7.1006327e-05 	-0.004124677076 	1.978847071e-07 	-2.719814653e-05 	1.695081767e-08 	-5.184722662e-08
0.3230812214 	-5.988673822e-05 	-0.004091228062 	1.717725908e-07 	-3.463595479e-05 	1.686800722e-08 	-6.602575639e-08
0.32837691 	-4.888754965e-05 	-0.004049169604 	1.444009202e-07 	-4.179959591e-05 	1.616360288e-08 	-7.96816474e-08
0.3337317031 	-3.819819983e-05 	-0.003998174503 	1.180662603e-07 	-4.854611587e-05 	1.505427139e-08 	-9.254238954e-08
0.3391462598 	-2.801163184e-05 	-0.003938089716 	9.338715371e-08 	-5.472729808e-05 	1.356784851e-08 	-1.043254408e-07
0.3446226897 	-1.850663648e-05 	-0.003868961747 	7.094351214e-08 	-6.020679782e-05 	1.181075113e-08 	-1.147708903e-07
0.350162574 	-9.832531199e-06 	-0.003791078127 	5.123110074e-08 	-6.487660956e-05 	9.915875289e-09 	-1.236728493e-07
0.3557642883 	-2.093804188e-06 	-0.00370497589 	3.457429318e-08 	-6.866847986e-05 	8.021094258e-09 	-1.30901208e-07
0.3614285223 	4.667489393e-06 	-0.003611366119 	2.106521266e-08 	-7.156605895e-05 	6.258086918e-09 	-1.364247991e-07
0.3671587446 	1.047858531e-05 	-0.003511055852 	1.055006553e-08 	-7.361034773e-05 	4.737507028e-09 	-1.403217817e-07
0.3729535305 	1.542952618e-05 	-0.003404889201 	2.672306645e-09 	-7.489390529e-05 	3.521564954e-09 	-1.427685992e-07
0.3788129912 	1.965966555e-05 	-0.00329359838 	-3.114979049e-09 	-7.554495689e-05 	2.627116791e-09 	-1.440096845e-07
0.3847390365 	2.333569525e-05 	-0.003177670335 	-7.411386575e-09 	-7.57094784e-05 	2.037285009e-09 	-1.443233082e-07
0.3907330384 	2.66207342e-05 	-0.00305731659 	-1.075997319e-08 	-7.552879561e-05 	1.686059024e-09 	-1.439788766e-07
0.3967939386 	2.964151431e-05 	-0.002932461298 	-1.360324765e-08 	-7.510972949e-05 	1.481322742e-09 	-1.431800201e-07
0.40292275 	3.246786948e-05 	-0.002802710669 	-1.620709303e-08 	-7.450619154e-05 	1.341268808e-09 	-1.42029509e-07
0.4091223501 	3.510484962e-05 	-0.002667431101 	-1.865598642e-08 	-7.371630491e-05 	1.201454401e-09 	-1.405237656e-07
0.4153911431 	3.749426119e-05 	-0.002525890531 	-2.087654009e-08 	-7.268587399e-05 	1.021727503e-09 	-1.385594778e-07
0.4217299005 	3.952792154e-05 	-0.002377310494 	-2.267932944e-08 	-7.13191578e-05 	7.902605392e-10 	-1.359541369e-07
0.4281415507 	4.106657283e-05 	-0.002220968175 	-2.381800725e-08 	-6.949675817e-05 	5.197452999e-10 	-1.324801367e-07
0.4346249376 	4.195783652e-05 	-0.002056357151 	-2.404329212e-08 	-6.709191377e-05 	2.379260985e-10 	-1.278958349e-07
0.4411806837 	4.205831809e-05 	-0.001883239468 	-2.313508143e-08 	-6.399338677e-05 	-1.640855369e-11 	-1.219891812e-07
0.4478113283 	4.123629507e-05 	-0.001701753032 	-2.095181853e-08 	-6.009460822e-05 	-2.150569062e-10 	-1.145570257e-07
0.4545162663 	3.94251403e-05 	-0.001512595626 	-1.747888199e-08 	-5.53864911e-05 	-3.109575836e-10 	-1.055820459e-07
0.4612960355 	3.651910959e-05 	-0.001317214917 	-1.281054775e-08 	-4.973553779e-05 	-3.300950924e-10 	-9.48097583e-08
0.4681530281 	3.269568488e-05 	-0.001118177737 	-7.216956357e-09 	-4.350746345e-05 	-2.074790803e-10 	-8.293731761e-08
0.4750867375 	2.807022468e-05 	-0.0009192291161 	-1.20884189e-09 	-3.682659618e-05 	-4.296409436e-11 	-7.020172774e-08
0.4765328118 	2.689760757e-05 	-0.0008787722181 	1.887335356e-06 	-3.519712149e-05 	7.59954014e-08 	-6.70954961e-08
0.4820978659 	2.23837839e-05 	-0.00072308295 	-4.458496498e-09 	-2.892492391e-05 	-2.243864346e-10 	-5.513894423e-08
0.4891887013 	1.651681701e-05 	-0.0005352090711 	-8.748861344e-09 	-2.135928707e-05 	-4.143964823e-10 	-4.071673767e-08
0.4963586739 	1.150923994e-05 	-0.0003715278029 	-1.015944923e-08 	-1.551989517e-05 	-3.994521063e-10 	-2.958523372e-08
0.5035289548 	7.603139229e-06 	-0.0002475070211 	-8.521892295e-09 	-1.077294779e-05 	-4.190110446e-10 	-2.053623268e-08
0.5106210553 	5.031832685e-06 	-0.0001622818352 	-5.9943897e-09 	-7.449032043e-06 	-2.715790261e-10 	-1.419992543e-08
0.5176348988 	3.534008305e-06 	-0.0001049133527 	-4.041941706e-09 	-5.554710842e-06 	-1.134192638e-10 	-1.058882272e-08
0.524571751 	2.637140135e-06 	-6.582972131e-05 	-2.698375669e-09 	-4.436165412e-06 	-5.305046477e-11 	-8.456564243e-09
0.5314326313 	2.093248354e-06 	-3.867862735e-05 	-1.827492619e-09 	-3.760059505e-06 	9.469244463e-12 	-7.16771847e-09
0.5382178046 	1.760911006e-06 	-1.931111895e-05 	-1.294768194e-09 	-3.348354393e-06 	4.326770574e-11 	-6.3828941e-09
0.5449284847 	1.553967983e-06 	-5.071122513e-06 	-9.83230769e-10 	-3.090646207e-06 	7.250671952e-11 	-5.89163067e-09
0.5515655 	1.417683366e-06 	5.709526403e-06 	-8.141848809e-10 	-2.913597349e-06 	9.26695106e-11 	-5.554126339e-09
0.5581292774 	1.325034034e-06 	1.410049262e-05 	-7.352313224e-10 	-2.783207236e-06 	1.095081331e-10 	-5.305566544e-09
0.56462091 	1.258694494e-06 	2.081151058e-05 	-7.138643479e-10 	-2.676902088e-06 	1.229598958e-10 	-5.102919387e-09
0.5710412155 	1.210457359e-06 	2.633320202e-05 	-7.274086557e-10 	-2.585692011e-06 	1.335567787e-10 	-4.929047629e-09
0.5773906736 	1.174971606e-06 	3.101926174e-05 	-7.606363664e-10 	-2.50389366e-06 	1.418166697e-10 	-4.773117238e-09
0.5836702305 	1.149602426e-06 	3.513528469e-05 	-8.027699084e-10 	-2.429746704e-06 	1.477983747e-10 	-4.631772531e-09
0.5898807815 	1.132748716e-06 	3.888868656e-05 	-8.460104303e-10 	-2.362558954e-06 	1.519362822e-10 	-4.503694005e-09
0.596022799 	1.123677437e-06 	4.244834035e-05 	-8.846276305e-10 	-2.302569695e-06 	1.544231347e-10 	-4.389337804e-09
0.6020970845 	1.122193015e-06 	4.595934078e-05 	-9.136946708e-10 	-2.250370432e-06 	1.555589876e-10 	-4.289831501e-09
0.6081046371 	1.128712443e-06 	4.955483085e-05 	-9.275426119e-10 	-2.20705189e-06 	1.554492193e-10 	-4.20725432e-09
0.6140458957 	1.144296962e-06 	5.336714618e-05 	-9.184414864e-10 	-2.174198383e-06 	1.541219549e-10 	-4.144626405e-09
0.6199215913 	1.170827008e-06 	5.754003503e-05 	-8.747906005e-10 	-2.154096032e-06 	1.514139688e-10 	-4.106305738e-09
0.6257326483 	1.211301911e-06 	6.224268536e-05 	-7.783503361e-10 	-2.15010222e-06 	1.469408392e-10 	-4.098692422e-09
0.6314796341 	1.270273926e-06 	6.76872581e-05 	-6.002114552e-10 	-2.167127044e-06 	1.398563622e-10 	-4.131146468e-09
0.6371632004 	1.354503745e-06 	7.415292073e-05 	-2.945762055e-10 	-2.212275789e-06 	1.289006186e-10 	-4.217212524e-09
0.6427841045 	1.474170912e-06 	8.201982163e-05 	2.115600849e-10 	-2.296184473e-06 	1.114749813e-10 	-4.377165798e-09
0.6483431106 	1.644435093e-06 	9.181719748e-05 	1.033900909e-09 	-2.434458506e-06 	8.420330443e-11 	-4.640754534e-09
0.6538407712 	1.888482037e-06 	0.0001042908081 	2.352916177e-09 	-2.651294054e-06 	3.945521441e-11 	-5.054103356e-09
0.6592777631 	2.239580147e-06 	0.0001204914477 	4.44202493e-09 	-2.980214115e-06 	-3.05275578e-11 	-5.681116411e-09
0.6646548492 	2.748567959e-06 	0.000141876036 	7.690690414e-09 	-3.475143072e-06 	-1.433106518e-10 	-6.624588561e-09
0.6699726393 	3.476293308e-06 	0.0001703934558 	1.261332014e-08 	-4.192015707e-06 	-3.131308605e-10 	-7.991147049e-09
0.6752317453 	4.51593054e-06 	0.0002085250988 	1.984488827e-08 	-5.232471515e-06 	-5.279000784e-10 	-9.974544998e-09
0.6804328147 	5.96578654e-06 	0.0002594106998 	3.037064986e-08 	-6.684021671e-06 	-1.098655993e-09 	-1.274160303e-08
0.6855765764 	8.130342857e-06 	0.0003271533893 	4.546740482e-08 	-8.988527213e-06 	-1.682429693e-09 	-1.71346311e-08
0.690663582 	1.101602894e-05 	0.0004161704644 	6.376233493e-08 	-1.190363272e-05 	-1.904072654e-09 	-2.269163241e-08
0.6956944499 	1.425040026e-05 	0.0005259024242 	7.960561294e-08 	-1.475213799e-05 	-2.924920953e-09 	-2.812167515e-08
0.7006697996 	1.821802963e-05 	0.0006477200077 	8.934191354e-08 	-1.871876151e-05 	-3.37980104e-09 	-3.568316204e-08
0.7055903096 	2.250246039e-05 	0.0007739518023 	9.466588975e-08 	-2.327458349e-05 	-2.424697402e-09 	-4.436782498e-08
0.71045652 	2.620578107e-05 	0.0009032523496 	9.84723909e-08 	-2.676326015e-05 	-2.473955229e-09 	-5.101821231e-08
0.7152690291 	2.975845739e-05 	0.001034871983 	1.0165261e-07 	-3.006762483e-05 	-2.837766424e-09 	-5.731724978e-08
0.7200284294 	3.325420599e-05 	0.001166792236 	1.034160742e-07 	-3.341442531e-05 	-2.553799806e-09 	-6.369718169e-08
0.7247353465 	3.642614641e-05 	0.001297312821 	1.03455696e-07 	-3.635205247e-05 	-2.279001848e-09 	-6.929711553e-08
0.7293903257 	3.928321354e-05 	0.001425098898 	1.02053605e-07 	-3.895672526e-05 	-1.938753948e-09 	-7.42623458e-08
0.7339939345 	4.176811127e-05 	0.001549122035 	9.948040295e-08 	-4.115858213e-05 	-1.569790049e-09 	-7.845969697e-08
0.7385467395 	4.386276362e-05 	0.001668586715 	9.605471732e-08 	-4.294911713e-05 	-1.206572663e-09 	-8.187295434e-08
0.7430493185 	4.555872279e-05 	0.001782911876 	9.207881866e-08 	-4.432299349e-05 	-8.756543028e-10 	-8.449194453e-08
0.7475022216 	4.686229434e-05 	0.001891686129 	8.773280516e-08 	-4.529106358e-05 	-5.590721752e-10 	-8.633735519e-08
0.7519059841 	4.776880814e-05 	0.001994624943 	8.276410846e-08 	-4.584584031e-05 	2.402921656e-10 	-8.739491383e-08
0.7562611482 	4.824865595e-05 	0.002091751229 	7.924051021e-08 	-4.596073808e-05 	1.250805598e-09 	-8.76139409e-08
0.760568251 	4.860882443e-05 	0.0021912411 	7.637916618e-08 	-4.598657473e-05 	9.069753065e-10 	-8.766319274e-08
0.7648278404 	4.911978409e-05 	0.002281059505 	6.722686865e-08 	-4.622755917e-05 	-5.908353748e-10 	-8.812257607e-08
0.7690404224 	5.017984788e-05 	0.002359121812 	6.302350389e-08 	-4.703445532e-05 	-1.306467135e-09 	-8.966074439e-08
0.7732065157 	5.18942151e-05 	0.002443122149 	6.80009482e-08 	-4.849722391e-05 	-7.219954058e-10 	-9.244918788e-08
0.7773266334 	5.364888532e-05 	0.002532025053 	7.115874756e-08 	-5.000999682e-05 	-5.887184642e-11 	-9.53329535e-08
0.781401286 	5.508165982e-05 	0.002624110963 	7.220182146e-08 	-5.118495324e-05 	2.641424542e-10 	-9.7572747e-08
0.7854309805 	5.606081906e-05 	0.002717467504 	7.114941919e-08 	-5.188582677e-05 	7.105042073e-10 	-9.890880674e-08
0.7894162045 	5.653329254e-05 	0.002810209591 	6.815377995e-08 	-5.206114018e-05 	1.304005785e-09 	-9.924300283e-08
0.7933574489 	5.646687569e-05 	0.002900633692 	6.345534333e-08 	-5.168237223e-05 	1.972278257e-09 	-9.852096585e-08
0.7972551988 	5.584161684e-05 	0.002987306263 	5.735780191e-08 	-5.073419119e-05 	2.64724927e-09 	-9.671346925e-08
0.801109936 	5.465542339e-05 	0.003069100772 	5.02007253e-08 	-4.921981103e-05 	3.283683358e-09 	-9.382663976e-08
0.8049221386 	5.293052651e-05 	0.003145199518 	4.232929562e-08 	-4.716733721e-05 	3.840629538e-09 	-8.99140542e-08
0.8086922709 	5.071786036e-05 	0.003215072191 	3.406884296e-08 	-4.463394039e-05 	4.275017858e-09 	-8.508469576e-08