0.4642857292 	0.009887932941 	-0.000289436634 	-3.036478438e-07
0.4642857292 	0.009887932941 	-0.000289436634 	-3.036478438e-07
0.4644580585 	0.02749502567 	-0.0008038270818 	-8.486484452e-07
0.4646303886 	0.05496066229 	-0.001605122946 	-1.692750297e-06
0.4648027194 	0.08239650725 	-0.002404161421 	-2.528231594e-06
0.464975051 	0.1097979632 	-0.003200820439 	-3.35621897e-06
0.4651473832 	0.1371536019 	-0.003994875054 	-4.17618257e-06
0.4653197161 	0.1644400495 	-0.004785721167 	-4.987232372e-06
0.4654920495 	0.1916163141 	-0.005572186982 	-5.787971595e-06
0.4656643834 	0.2186192148 	-0.006352390726 	-6.576369367e-06
0.4658367177 	0.2453620009 	-0.007123738799 	-7.349700506e-06
0.4660090525 	0.2717378006 	-0.007883103287 	-8.104651801e-06
0.4661813876 	0.2976280352 	-0.008627130623 	-8.837589213e-06
0.466353723 	0.3229139595 	-0.009352571672 	-9.544925407e-06
0.4665260587 	0.3474882225 	-0.01005654371 	-1.022348316e-05
0.4666983945 	0.3712635498 	-0.01073669889 	-1.087076069e-05
0.4668707305 	0.3941770952 	-0.0113913127 	-1.148505645e-05
0.4670430666 	0.4161906689 	-0.01201930576 	-1.206546492e-05
0.4672154027 	0.4372880899 	-0.01262020569 	-1.261178481e-05
0.4673877388 	0.4574711276 	-0.01319406178 	-1.312438522e-05
0.4675600748 	0.4767551799 	-0.0137413349 	-1.3604065e-05
0.4677324107 	0.4951653642 	-0.01426278529 	-1.405192609e-05
0.4679047464 	0.5127333041 	-0.01475937386 	-1.446926939e-05
0.4680770819 	0.5294946444 	-0.01523218336 	-1.485751422e-05
0.4682494171 	0.5454872076 	-0.01568236012 	-1.521813801e-05
0.468421752 	0.560749666 	-0.01611107499 	-1.555263178e-05
0.4685940865 	0.5753206134 	-0.01651949847 	-1.586246846e-05
0.4687664205 	0.5892379975 	-0.01690878494 	-1.614908078e-05
0.4689387541 	0.6025385952 	-0.01727948129 	-1.641422674e-05
0.4691110871 	0.6152576417 	-0.01763343292 	-1.665830012e-05
0.4692834196 	0.6274307599 	-0.01797243166 	-1.688277466e-05
0.4694557514 	0.6406740514 	-0.01833957489 	-1.713021113e-05
0.4697235139 	0.6563595361 	-0.01877253237 	-1.738227095e-05
0.469996307 	0.6727834822 	-0.01922476394 	-1.763899467e-05
0.4702742251 	0.6884917259 	-0.01965552701 	-1.786614218e-05
0.4705573642 	0.7035266429 	-0.02006605207 	-1.806481174e-05
0.470845822 	0.7179290108 	-0.02045758018 	-1.823658557e-05
0.4711396981 	0.7317379474 	-0.0208312515 	-1.838296181e-05
0.471439094 	0.7449908228 	-0.02118814776 	-1.850535034e-05
0.4717441131 	0.7577230966 	-0.02152929534 	-1.860506377e-05
0.4720548606 	0.7699681247 	-0.02185565944 	-1.868331841e-05
0.4723714436 	0.7817571867 	-0.02216814441 	-1.874123847e-05
0.4726939714 	0.7931196157 	-0.02246759786 	-1.877986481e-05
0.473022555 	0.8040828823 	-0.02275481358 	-1.880016189e-05
0.4733573078 	0.8146726777 	-0.02303053409 	-1.880302418e-05
0.473698345 	0.824913002 	-0.02329545329 	-1.878928257e-05
0.4740457841 	0.834826254 	-0.02355021914 	-1.87597107e-05
0.4743997447 	0.8444333218 	-0.0237954365 	-1.871503111e-05
0.4747603486 	0.8537536672 	-0.02403166565 	-1.865592344e-05
0.4751277197 	0.8628115646 	-0.02425958408 	-1.85831619e-05
0.4755030077 	0.8716333138 	-0.02447991685 	-1.849604391e-05
0.4758860811 	0.8802312249 	-0.02469302906 	-1.839486167e-05
0.4762763472 	0.8886091224 	-0.02489906739 	-1.828071302e-05
0.4766739408 	0.8967764703 	-0.02509832016 	-1.815388987e-05
0.4770789995 	0.9047458658 	-0.02529115451 	-1.801476451e-05
0.4774916633 	0.9125289874 	-0.0254779139 	-1.786369127e-05
0.4779120749 	0.9201367861 	-0.02565890605 	-1.770091647e-05
0.4783403796 	0.9275795698 	-0.02583415906 	-1.75256718e-05
0.4787767255 	0.9348673828 	-0.02600438844 	-1.734194326e-05
0.4792212634 	0.9420119663 	-0.02617041034 	-1.714841671e-05
0.4796741471 	0.9490268922 	-0.02633166358 	-1.694037556e-05
0.480135533 	0.9559240774 	-0.02648838264 	-1.672427374e-05
0.4806055808 	0.9627124124 	-0.0266415248 	-1.649999687e-05
0.4810844527 	0.9693994044 	-0.02679118942 	-1.626434301e-05
0.4815723144 	0.9759920353 	-0.02693741414 	-1.601917777e-05
0.4820693345 	0.9824966786 	-0.02708039109 	-1.576449102e-05
0.4825756847 	0.9889191669 	-0.02722027194 	-1.550041103e-05
0.4830915401 	0.9952648788 	-0.02735719601 	-1.522707228e-05
0.483617079 	1.001538771 	-0.02749129068 	-1.494457644e-05
0.4841524829 	1.007745406 	-0.02762267115 	-1.465301503e-05
0.4846979369 	1.01388897 	-0.02775144265 	-1.435246621e-05
0.4852536295 	1.019973294 	-0.0278776989 	-1.404299647e-05
0.4858197528 	1.026003596 	-0.02800155518 	-1.372467708e-05
0.4863971602 	1.03198933 	-0.02812322033 	-1.339668071e-05
0.4869872469 	1.037935821 	-0.02824281294 	-1.305746208e-05
0.4875884075 	1.043838915 	-0.02836024796 	-1.270960367e-05
0.4882008498 	1.049696317 	-0.02847548195 	-1.235309993e-05
0.4888247852 	1.055510065 	-0.02858856484 	-1.198799182e-05
0.4894604292 	1.061281918 	-0.02869953458 	-1.161431557e-05
0.4901080013 	1.067013368 	-0.02880842264 	-1.123210686e-05
0.4907677251 	1.072705651 	-0.02891525351 	-1.084140117e-05
0.4914398285 	1.078359761 	-0.02902004493 	-1.044223471e-05
0.4921245435 	1.083976483 	-0.02912280845 	-1.003464531e-05
0.4928221066 	1.089556419 	-0.02922354998 	-9.618673243e-06
0.4935327586 	1.095100034 	-0.02932227068 	-9.194362019e-06
0.494256745 	1.100607702 	-0.02941896781 	-8.761759089e-06
0.4949943156 	1.106079766 	-0.02951363708 	-8.32091661e-06
0.4957457251 	1.111516597 	-0.02960627254 	-7.871892282e-06
0.496511233 	1.116919492 	-0.02969687523 	-7.414750738e-06
0.4972915864 	1.122294315 	-0.02978557233 	-6.948910107e-06
0.4980891876 	1.127645232 	-0.02987226911 	-6.471677639e-06
0.4989017502 	1.13364467 	-0.02996788644 	-5.987686823e-06
0.5001491012 	1.140893179 	-0.030080376 	-5.245249612e-06
0.5014103017 	1.148628318 	-0.03019732699 	-4.499674673e-06
0.502685506 	1.156187314 	-0.03030794737 	-3.75065295e-06
0.5039748697 	1.16358526 	-0.0304128753 	-2.998729965e-06
0.5052785505 	1.170836594 	-0.03051232453 	-2.244392664e-06
0.5065967078 	1.177954954 	-0.03060656134 	-1.488071456e-06
0.5079295026 	1.1849586 	-0.030695916 	-7.301502003e-07
0.5092206927 	1.191554829 	-0.03077687757 	-4.03340524e-08
0.5092813988 	1.191864986 	-0.03078070734 	-3.332026462e-08
0.5106484713 	1.198678479 	-0.03086151338 	-7.754025058e-07
0.5120307241 	1.205403792 	-0.03093793867 	-1.517215002e-06
0.5134283261 	1.212049309 	-0.03101014149 	-2.258506149e-06
0.5148414483 	1.218623079 	-0.03107825774 	-2.999048106e-06
0.5162702635 	1.225132286 	-0.03114240584 	-3.738632921e-06
0.5177149467 	1.231584183 	-0.03120269003 	-4.477068203e-06
0.5191764905 	1.237989453 	-0.03125925368 	-5.215139339e-06
0.5206581837 	1.24435609 	-0.0313121978 	-5.955773795e-06
0.5221563259 	1.250682901 	-0.03136152605 	-6.693797136e-06
0.5236711006 	1.256969388 	-0.03140725946 	-7.429012283e-06
0.525202693 	1.263218692 	-0.03144946201 	-8.161232345e-06
0.5267512907 	1.26943346 	-0.03148818394 	-8.890270694e-06
0.5283170833 	1.275616298 	-0.03152346622 	-9.615941287e-06
0.5299006786 	1.281773446 	-0.03155538409 	-1.033852088e-05
0.5315060786 	1.287909866 	-0.03158399377 	-1.10614297e-05
0.5331292981 	1.294021936 	-0.0316092935 	-1.177932101e-05
0.5347705361 	1.300106492 	-0.03163129512 	-1.249197299e-05
0.5364299936 	1.306164091 	-0.03165004451 	-1.31991745e-05
0.5381078739 	1.312195018 	-0.03166556977 	-1.390071053e-05
0.5398043827 	1.318201472 	-0.03167790938 	-1.459636699e-05
0.541522211 	1.324187104 	-0.03168710429 	-1.528831624e-05
0.543261121 	1.330150837 	-0.03169316924 	-1.597493414e-05
0.5450193315 	1.336088009 	-0.03169611216 	-1.665379045e-05
0.546797058 	1.341996045 	-0.0316959563 	-1.732465938e-05
0.5485945187 	1.34787387 	-0.03169271923 	-1.798731857e-05
0.550411934 	1.353721856 	-0.03168641394 	-1.864154457e-05
0.5522516129 	1.359541911 	-0.03167705071 	-1.92889548e-05
0.554113947 	1.365332319 	-0.03166462602 	-1.992844624e-05
0.555996951 	1.371087781 	-0.03164913801 	-2.055749004e-05
0.557900856 	1.376804674 	-0.0316305916 	-2.117588006e-05
0.5598258958 	1.38248096 	-0.03160897864 	-2.178341512e-05
0.561772307 	1.388116863 	-0.03158428346 	-2.237988574e-05
0.5637436946 	1.393712954 	-0.0315564787 	-2.296755224e-05
0.565737713 	1.399264671 	-0.03152554221 	-2.354295843e-05
0.5677538642 	1.404766498 	-0.03149145862 	-2.410525044e-05
0.5697923962 	1.410215173 	-0.03145420578 	-2.465426601e-05
0.5718535597 	1.415608992 	-0.03141374204 	-2.518983005e-05
0.5739395723 	1.420947174 	-0.03137001156 	-2.571314432e-05
0.5760506688 	1.426225961 	-0.03132296016 	-2.622279538e-05
0.578185199 	1.431438872 	-0.03127255003 	-2.67168998e-05
0.5803434258 	1.436580406 	-0.03121873295 	-2.719532661e-05
0.5825256149 	1.44164676 	-0.0311614347 	-2.765792102e-05
0.5847338703 	1.446634456 	-0.03110055672 	-2.81056352e-05
0.5869684579 	1.45153701 	-0.03103600191 	-2.853698315e-05
0.5892278534 	1.456345078 	-0.03096769388 	-2.895029353e-05
0.5915123353 	1.461049352 	-0.03089554231 	-2.934541524e-05
0.5938221857 	1.465641424 	-0.03081940315 	-2.972216462e-05
0.5961603287 	1.470111821 	-0.03073909334 	-3.008152881e-05
0.5985251933 	1.474447112 	-0.03065446607 	-3.042076801e-05
0.6009163178 	1.478632064 	-0.03056538589 	-3.073913849e-05
0.6033339976 	1.482651606 	-0.03047167838 	-3.103642152e-05
0.6057794613 	1.486490113 	-0.03037311904 	-3.131278951e-05
0.6082543018 	1.490129328 	-0.03026947636 	-3.156731602e-05
0.6107566274 	1.493547833 	-0.03016055607 	-3.179791449e-05
0.6132867477 	1.496723916 	-0.03004615752 	-3.200430938e-05
0.6158450817 	1.499637352 	-0.02992604663 	-3.218620378e-05
0.6184346228 	1.502268895 	-0.02980000959 	-3.228581518e-05
0.6210529287 	1.504600844 	-0.02966795516 	-3.176413138e-05
0.6237003239 	1.506621136 	-0.02952987496 	-3.125185114e-05
0.6263771365 	1.508325939 	-0.02938580701 	-3.074861494e-05
0.6290862714 	1.50971954 	-0.02923588106 	-3.02538599e-05
0.6318255697 	1.510814036 	-0.02908040035 	-2.976997324e-05
0.6345953098 	1.511629478 	-0.02891975078 	-2.929715559e-05
0.6373960678 	1.512191907 	-0.02875432027 	-2.883545649e-05
0.6402301167 	1.5125302 	-0.02858450996 	-2.838540445e-05
0.6430956648 	1.512673694 	-0.02841077905 	-2.794907301e-05
0.6459930683 	1.512650616 	-0.02823354698 	-2.75265918e-05
0.6489235108 	1.512486649 	-0.02805314723 	-2.711773887e-05
0.6518878645 	1.512204268 	-0.0278698729 	-2.672374083e-05
0.6548851782 	1.511822699 	-0.0276840101 	-2.634533703e-05
0.6579158249 	1.511357944 	-0.0274957703 	-2.598215762e-05
0.6609817596 	1.510823021 	-0.02730528971 	-2.563385903e-05
0.6640821389 	1.510228556 	-0.02711271453 	-2.530176221e-05
0.6672170054 	1.509583043 	-0.0269181631 	-2.498541595e-05
0.6703874269 	1.50889327 	-0.02672168206 	-2.468403377e-05
0.673594155 	1.508165141 	-0.02652333987 	-2.439835193e-05
0.6768365625 	1.507403606 	-0.02632323685 	-2.412832238e-05
0.6801152063 	1.506612051 	-0.02612139024 	-2.387300501e-05
0.6834316982 	1.505792706 	-0.0259177934 	-2.363239346e-05
0.6867851015 	1.50494725 	-0.02571247843 	-2.340681854e-05
0.6901758354 	1.504076588 	-0.02550544285 	-2.319527429e-05
0.6936055424 	1.503180898 	-0.02529665283 	-2.299732622e-05
0.6970735343 	1.502259959 	-0.02508609483 	-2.281342944e-05
0.700580145 	1.501312969 	-0.02487374454 	-2.264249205e-05
0.7041267955 	1.500338541 	-0.0246595514 	-2.248392506e-05
0.7077131112 	1.499334965 	-0.02444347445 	-2.23380768e-05
0.7113393773 	1.498300028 	-0.02422546526 	-2.220377882e-05
0.7150069301 	1.497230956 	-0.02400545209 	-2.20804567e-05
0.7187154514 	1.4961246 	-0.02378336675 	-2.196826164e-05
0.7224653199 	1.49497721 	-0.02355913123 	-2.186589976e-05
0.7262578107 	1.493784354 	-0.02333264492 	-2.17729898e-05
0.7300925709 	1.492544396 	-0.02310441132 	-2.169006888e-05
0.7339274599 	1.491262961 	-0.02287626216 	-2.161577501e-05
0.7377205243 	1.48994648 	-0.02265000015 	-2.154966406e-05
0.7414716977 	1.488594482 	-0.02242609294 	-2.149129388e-05
0.7451816807 	1.487202869 	-0.02220441122 	-2.121038557e-05
0.7488510254 	1.485767317 	-0.02198480941 	-2.066751711e-05
0.7524798606 	1.484283326 	-0.02176714645 	-2.012900049e-05
0.7560688559 	1.482746111 	-0.02155128522 	-1.959572563e-05
0.7596184549 	1.481150664 	-0.02133707619 	-1.906747173e-05
0.7631288782 	1.479491771 	-0.02112437287 	-1.854491752e-05
0.7666007261 	1.477763929 	-0.0209130323 	-1.80287303e-05
0.7700344366 	1.475961424 	-0.02070289926 	-1.751862575e-05
0.7734302599 	1.474078358 	-0.02049382034 	-1.701509011e-05
0.7767887125 	1.472108594 	-0.02028564653 	-1.651866829e-05
0.7801102773 	1.470045834 	-0.02007821735 	-1.602906614e-05
0.7833951996 	1.467883705 	-0.01987137371 	-1.554655312e-05
0.7866439137 	1.465615723 	-0.01966496207 	-1.507158687e-05
0.7898569628 	1.46323537 	-0.01945882126 	-1.460397973e-05
0.7930345721 	1.460736261 	-0.01925279223 	-1.414374536e-05
0.7961771359 	1.458112127 	-0.01904672234 	-1.369123823e-05
0.7992851568 	1.455356898 	-0.01884046148 	-1.324652556e-05
0.8023589322 	1.452464893 	-0.01863386163 	-1.280935216e-05
0.805398811 	1.449430885 	-0.01842678422 	-1.237997856e-05
0.8084052021 	1.446250152 	-0.01821910579 	-1.195863453e-05
0.8113785157 	1.442918637 	-0.0180107088 	-1.154507047e-05
0.8143190433 	1.439433083 	-0.01780149149 	-1.113935641e-05
0.8172271484 	1.43579106 	-0.0175913736 	-1.074171639e-05
0.8201032429 	1.431991027 	-0.01738029405 	-1.035222366e-05
0.8229476498 	1.428032456 	-0.01716821052 	-9.970672789e-06
0.8257606958 	1.423915845 	-0.01695510478 	-9.597229619e-06
0.8285427279 	1.419642666 	-0.01674098632 	-9.232073532e-06
0.8312941389 	1.415215365 	-0.01652588613 	-8.875169222e-06
0.8340152199 	1.410637363 	-0.01630985743 	-8.526403474e-06
0.836706302 	1.40591294 	-0.01609297669 	-8.185913142e-06
0.8393677168 	1.401047098 	-0.01587534213 	-7.853816025e-06
0.841999829 	1.396045475 	-0.01565706729 	-7.530026272e-06
0.8446029242 	1.390914266 	-0.01543827916 	-7.214436236e-06
0.8471773226 	1.385660054 	-0.01521911745 	-6.907112399e-06
0.8497233412 	1.380289665 	-0.01499973078 	-6.608098968e-06
0.8522413154 	1.374810068 	-0.0147802723 	-6.317305371e-06
0.8547315346 	1.3692283 	-0.01456089636 	-6.034560718e-06
0.8571943021 	1.36355135 	-0.0143417581 	-5.759857927e-06
0.8596299208 	1.357786059 	-0.01412301131 	-5.493173382e-06
0.8620386999 	1.351939065 	-0.01390480576 	-5.234428418e-06
0.8644209325 	1.346016772 	-0.01368728459 	-4.983396155e-06
0.8667769039 	1.340025308 	-0.01347058409 	-4.739992347e-06
0.8691069039 	1.333970482 	-0.01325483464 	-4.504142135e-06
0.8714112196 	1.327857767 	-0.01304015797 	-4.275757705e-06
0.8736901437 	1.321692298 	-0.01282666724 	-4.054645226e-06
0.8759439454 	1.315478888 	-0.01261446615 	-3.84062152e-06
0.8781729018 	1.309222017 	-0.01240365059 	-3.633580763e-06
0.880377287 	1.302925831 	-0.01219430779 	-3.433410217e-06
0.8825573737 	1.296594159 	-0.01198651674 	-3.239986511e-06
0.8847134322 	1.290230533 	-0.01178034784 	-3.053093608e-06
0.8868457226 	1.283838199 	-0.01157586289 	-2.872576006e-06
0.8889545069 	1.277420129 	-0.01137311705 	-2.69831241e-06
0.8910400442 	1.270979028 	-0.01117215767 	-2.530179182e-06
0.8931025917 	1.264517344 	-0.01097302517 	-2.368048383e-06
0.8951424045 	1.258037286 	-0.01077575287 	-2.211726537e-06
0.8971597301 	1.251540831 	-0.0105803668 	-2.06106368e-06
0.8991548164 	1.245029729 	-0.01038688719 	-1.915939621e-06
0.9011279084 	1.238505498 	-0.01019532782 	-1.776234532e-06
0.9030792486 	1.231969437 	-0.0100056962 	-1.641829325e-06
0.9050090786 	1.225422619 	-0.009817994078 	-1.512575923e-06
0.9069176333 	1.2188659 	-0.00963221696 	-1.388318756e-06
0.9088051471 	1.212299909 	-0.009448354811 	-1.268946891e-06
0.9106718518 	1.20572505 	-0.009266392706 	-1.15435153e-06
0.9125179768 	1.199141495 	-0.009086310238 	-1.044425669e-06
0.914343749 	1.192549182 	-0.008908082441 	-9.390627684e-07
0.9161493933 	1.185947815 	-0.008731679826 	-8.381256346e-07
0.9179351304 	1.179336859 	-0.00855706838 	-7.415021066e-07
0.9197011796 	1.17271554 	-0.008384210639 	-6.490968588e-07
0.921447758 	1.166082837 	-0.008213065838 	-5.608167407e-07
0.9231750801 	1.159437487 	-0.008043589954 	-4.765707215e-07
0.9248833582 	1.152777979 	-0.007875736486 	-3.962691753e-07
0.9265728023 	1.146102554 	-0.007709456668 	-3.198029578e-07
0.9282436194 	1.139409205 	-0.007544699496 	-2.470785468e-07
0.9298960149 	1.132695676 	-0.007381412566 	-1.780154784e-07
0.9315301917 	1.125959453 	-0.007219542278 	-1.12535257e-07
0.9331463504 	1.119197767 	-0.007059033963 	-5.056129071e-08
0.9345222492 	1.113352576 	-0.006921991944 	1.047185297e-06
0.934744687 	1.112407553 	-0.006899836688 	-8.179678912e-09
0.9363253843 	1.105585343 	-0.006741916868 	-6.473757366e-08
0.9378886538 	1.098727746 	-0.006585189748 	-1.179393798e-07
0.9394346874 	1.091830888 	-0.006429599241 	-1.678560769e-07
0.940963675 	1.08489059 	-0.006275089801 	-2.145562687e-07
0.9424758045 	1.077902354 	-0.006121606466 	-2.581071307e-07
0.9439712616 	1.070861345 	-0.005969095161 	-2.985745445e-07
0.9454502299 	1.063762378 	-0.005817503037 	-3.360232446e-07
0.9469128912 	1.056599898 	-0.005666779045 	-3.705207272e-07
0.9483594251 	1.049367963 	-0.005516874168 	-4.021385001e-07
0.9497900093 	1.042060237 	-0.005367741891 	-4.309382477e-07
0.9512048194 	1.034669974 	-0.005219339048 	-4.56980806e-07
0.9526040292 	1.02719002 	-0.00507162627 	-4.803267636e-07
0.9539878108 	1.019612805 	-0.004924568674 	-5.010366634e-07
0.9553563339 	1.011930357 	-0.004778136476 	-5.191711729e-07
0.9567097669 	1.004134311 	-0.004632304333 	-5.347914393e-07
0.9580482759 	0.9962159262 	-0.004487054369 	-5.479636476e-07
0.9593720254 	0.9881661178 	-0.004342372463 	-5.587519615e-07
0.960681178 	0.9799755911 	-0.004198206158 	-5.672220473e-07
0.9619758945 	0.9716349044 	-0.004054851668 	-5.734323795e-07
0.963256334 	0.9638606724 	-0.00392418879 	-5.793586824e-07
0.9640904201 	0.9574588303 	-0.003818422458 	-5.789271212e-07
0.9649091234 	0.9517700266 	-0.003726072901 	-5.794977848e-07
0.9657127275 	0.9460719525 	-0.003635184455 	-5.792138103e-07
0.9665015107 	0.9403650757 	-0.003545602308 	-5.781253611e-07
0.9672757463 	0.9346498838 	-0.003457345909 	-5.762776356e-07
0.9680357026 	0.9289268351 	-0.003370413693 	-5.737163134e-07
0.9687816429 	0.9231962795 	-0.003284801215 	-5.704857298e-07
0.9695138255 	0.9174584353 	-0.003200503912 	-5.666289472e-07
0.9702325042 	0.9117133746 	-0.003117516263 	-5.621880707e-07
0.9709379278 	0.9059610126 	-0.003035832596 	-5.572042084e-07
0.971630341 	0.900201097 	-0.002955447223 	-5.517174963e-07
0.9723099835 	0.8944331997 	-0.002876354483 	-5.45767204e-07
0.9729770908 	0.8886567092 	-0.002798548805 	-5.393919292e-07
0.9736318941 	0.8828708253 	-0.002722024787 	-5.32629853e-07
0.9742746202 	0.8770745558 	-0.002646777368 	-5.255202599e-07
0.9749054919 	0.8712667153 	-0.00257280234 	-5.181030172e-07
0.9755247278 	0.8654459243 	-0.00250009656 	-5.104166717e-07
0.9761325423 	0.8596106044 	-0.002428658915 	-5.025412694e-07
0.9767291462 	0.8537589475 	-0.002358493745 	-4.942820743e-07
0.9773147462 	0.8478888699 	-0.002289544413 	-4.854395684e-07
0.9778895451 	0.8419979294 	-0.002221755432 	-4.774035653e-07
0.9784537421 	0.8360827147 	-0.002155327129 	-4.693160796e-07
0.9790075328 	0.8301378271 	-0.002090201317 	-4.589173902e-07
0.979551109 	0.8241564284 	-0.002025962106 	-4.482721045e-07
0.9800846592 	0.8181321679 	-0.001962630504 	-4.383383898e-07
0.9806083682 	0.8120596927 	-0.00190034584 	-4.279648248e-07
0.9811224175 	0.8059339466 	-0.001839041539 	-4.173276422e-07
0.9816269852 	0.7997498125 	-0.001778695025 	-4.066070192e-07
0.9821222462 	0.7935019976 	-0.001719308003 	-3.958313924e-07
0.9826083721 	0.7871849213 	-0.001660883701 	-3.850135114e-07
0.9830855314 	0.7807926277 	-0.001603424517 	-3.741688767e-07
0.9835538894 	0.774318723 	-0.001546932532 	-3.633128284e-07
0.9840136086 	0.7677563236 	-0.0014914095 	-3.524595238e-07
0.984464848 	0.7610980113 	-0.001436856766 	-3.416223577e-07
0.9849077643 	0.7543357884 	-0.001383275271 	-3.308142007e-07
0.9853425108 	0.7474610343 	-0.001330665606 	-3.200474406e-07
0.9857692383 	0.7404644599 	-0.001279028072 	-3.093339698e-07
0.9861880946 	0.7333360615 	-0.001228362752 	-2.986851673e-07
0.9865992248 	0.726065072 	-0.001178669561 	-2.881118836e-07
0.9870027716 	0.7186399107 	-0.001129948305 	-2.776244355e-07
0.9873988747 	0.7110481305 	-0.001082198726 	-2.672326086e-07
0.9877876714 	0.7032763645 	-0.001035420545 	-2.569456704e-07
0.9881692965 	0.69531027 	-0.0009896135101 	-2.467723893e-07
0.9885438823 	0.687134472 	-0.0009447774345 	-2.367210619e-07
0.9889115585 	0.6787325068 	-0.0009009122431 	-2.267995516e-07
0.9892724526 	0.6700867652 	-0.0008580180187 	-2.170152815e-07
0.9896266897 	0.6611784383 	-0.00081609506 	-2.073752706e-07
0.9899743926 	0.6519874665 	-0.0007751439432 	-1.978861628e-07
0.9903156818 	0.6424924945 	-0.0007351656057 	-1.885542557e-07
0.9906506755 	0.6326708344 	-0.0006961614422 	-1.793853994e-07
0.99097949 	0.6224984426 	-0.0006581332315 	-1.703846476e-07
0.9913022391 	0.6119499105 	-0.0006210827178 	-1.615566603e-07
0.9916190347 	0.6009984811 	-0.0005850135597 	-1.529171143e-07
0.9919299867 	0.5896160927 	-0.0005499453346 	-1.444813347e-07
0.9922352028 	0.577773397 	-0.0005159058907 	-1.36202544e-07
0.9925347888 	0.5654397753 	-0.0004826956272 	-1.270993485e-07
0.9928288486 	0.5525839209 	-0.0004494336643 	-1.201706388e-07
0.993117484 	0.5391730649 	-0.0004182947286 	-1.143847932e-07
0.9934007952 	0.5251669001 	-0.0003906919193 	-1.049004921e-07
0.9936788803 	0.5117936698 	-0.0003645244411 	-9.726004784e-08
0.9938578551 	0.5004999217 	-0.0003420373631 	-9.286261682e-08
0.9940368302 	0.4901198529 	-0.0003234909471 	-8.818312204e-08
0.9942158055 	0.479281223 	-0.0003055683924 	-8.347730442e-08
0.994394781 	0.4679574005 	-0.0002877412148 	-7.881779924e-08
0.9945737568 	0.4561213638 	-0.0002701589262 	-7.419476208e-08
0.9947527327 	0.4437460809 	-0.0002528449281 	-6.960763585e-08
0.9949317089 	0.4308049352 	-0.0002358226479 	-6.506153871e-08
0.9951106853 	0.4172724077 	-0.0002191159116 	-6.056392991e-08
0.9952896619 	0.4031249542 	-0.0002027497335 	-5.612330084e-08
0.9954686388 	0.3883421402 	-0.0001867481937 	-5.174917881e-08
0.9956476158 	0.3729080839 	-0.0001711318165 	-4.745224251e-08
0.9958265931 	0.3568132481 	-0.0001559152711 	-4.324439977e-08
0.9960055706 	0.3400565692 	-0.0001411069207 	-3.913889434e-08
0.9961845483 	0.3226478231 	-0.000126712731 	-3.515049248e-08
0.9963635262 	0.3046099754 	-0.0001127468024 	-3.129570017e-08
0.9965425044 	0.2859810637 	-9.924768534e-05 	-2.759276841e-08
0.9967214828 	0.2668149711 	-8.629337981e-05 	-2.406107568e-08
0.9969004614 	0.2471803862 	-7.400246882e-05 	-2.071966461e-08
0.9970794402 	0.2271574626 	-6.251211948e-05 	-1.758543398e-08
0.9972584192 	0.2068322608 	-5.193917964e-05 	-1.467218289e-08
0.9974373985 	0.1862898349 	-4.234739032e-05 	-1.19913275e-08
0.9976163779 	0.1656074526 	-3.374310792e-05 	-9.553634929e-09
0.9977953576 	0.1448495021 	-2.610058256e-05 	-7.370356764e-09
0.9979743375 	0.1240650646 	-1.939619665e-05 	-5.452908709e-09
0.9981533176 	0.1032882082 	-1.36294954e-05 	-3.811708631e-09
0.998332298 	0.08254029195 	-8.822765433e-06 	-2.454309075e-09
0.9985112786 	0.06183323557 	-5.012522873e-06 	-1.386353121e-09
0.9986902593 	0.04117281668 	-2.243746691e-06 	-6.139446185e-10
0.9988692404 	0.02056137779 	-7.268432139e-07 	-2.448358196e-10
0.9990482216 	0.008596581614 	-2.745937286e-07 	-1.571189498e-10
