0 	0.4813146978 	-1.966339947e-14 	-3.863401377e-20
0.0003162438639 	0.4813160911 	-2.944389768e-05 	1.973961758e-09
0.0006324872147 	0.4813205279 	-5.539746541e-05 	3.392300947e-09
0.0009487300516 	0.4813284464 	-8.113940369e-05 	4.497905871e-09
0.001264972374 	0.4813396283 	-0.0001078337116 	5.352184798e-09
0.001581214182 	0.4813539686 	-0.000134537229 	5.896922786e-09
0.001897455474 	0.4813714517 	-0.0001612859056 	6.133200197e-09
0.002213696249 	0.4813920683 	-0.0001880485127 	6.059149168e-09
0.002529936509 	0.4814158133 	-0.0002148260785 	5.674503675e-09
0.002846176251 	0.4814426821 	-0.0002416128338 	4.978866913e-09
0.003162415477 	0.4814726705 	-0.0002684061357 	3.972054837e-09
0.003478654184 	0.4815057742 	-0.0002952041549 	2.65398493e-09
0.003794892374 	0.4815419883 	-0.0003220057856 	1.024652086e-09
0.003968138875 	0.4815635284 	-0.0003366893704 	1.375112624e-09
0.004111130046 	0.4815811351 	-0.0003488109639 	9.466927571e-10
0.004427367199 	0.4816231724 	-0.0003756194724 	3.27406136e-09
0.004743603834 	0.4816683036 	-0.0004024301306 	5.922840752e-09
0.005059839951 	0.4817165221 	-0.0004292426503 	8.892838144e-09
0.005376075549 	0.481767821 	-0.0004560568159 	1.218382199e-08
0.005692310628 	0.4818221929 	-0.0004828724631 	1.579552336e-08
0.006008545189 	0.4818796297 	-0.000509689465 	1.972763719e-08
0.006324779232 	0.481940123 	-0.0005365077227 	2.397982276e-08
0.006641012756 	0.4820036639 	-0.0005633271572 	2.855170434e-08
0.006957245763 	0.4820702428 	-0.0005901477053 	3.344287143e-08
0.007273478251 	0.4821398496 	-0.000616969315 	3.865287912e-08
0.007589710222 	0.482212474 	-0.0006437919435 	4.418124811e-08
0.007905941675 	0.4822881046 	-0.0006706155566 	5.002746492e-08
0.008222172612 	0.4823667296 	-0.0006974401204 	5.619098226e-08
0.008538403032 	0.4824483366 	-0.0007242655535 	6.267121764e-08
0.008854632936 	0.4825329118 	-0.0007510916996 	6.946755494e-08
0.009170862325 	0.4826204412 	-0.0007779190319 	7.657933684e-08
0.009487091198 	0.4827238498 	-0.0008085123212 	8.439778026e-08
0.009978436983 	0.4828581116 	-0.0008467353404 	9.620198525e-08
0.01047901633 	0.4830137317 	-0.000889211426 	1.093727225e-07
0.01098900275 	0.48317923 	-0.0009324881409 	1.235939545e-07
0.01150857298 	0.4833550172 	-0.0009765810469 	1.38912224e-07
0.01203790712 	0.4835415127 	-0.001021504771 	1.553754016e-07
0.01257718863 	0.4837391454 	-0.001067274905 	1.730328222e-07
0.01312660441 	0.4839483547 	-0.001113907364 	1.919352516e-07
0.01368634489 	0.4841695909 	-0.00116141834 	2.121348825e-07
0.01425660407 	0.4844033149 	-0.001209824295 	2.336853205e-07
0.01483757959 	0.4846499987 	-0.001259141975 	2.566415683e-07
0.01542947281 	0.4849101253 	-0.001309388411 	2.810600019e-07
0.01603248888 	0.4851841886 	-0.001360580919 	3.069983383e-07
0.01664683679 	0.4854726937 	-0.001412737107 	3.345155973e-07
0.01727272946 	0.4857761563 	-0.001465874864 	3.636720518e-07
0.01791038382 	0.4860951033 	-0.001520012415 	3.945291772e-07
0.01856002087 	0.4864300718 	-0.001575168126 	4.27149557e-07
0.01922186577 	0.486781609 	-0.001631360687 	4.615967723e-07
0.0198961479 	0.4871506273 	-0.001688663994 	4.979534154e-07
0.02058563617 	0.4875383539 	-0.00174719085 	5.364134061e-07
0.02128991459 	0.4879453586 	-0.001806947041 	5.770661455e-07
0.0220074278 	0.4883716667 	-0.001867862942 	6.199079213e-07
0.02273842446 	0.488817629 	-0.001929921202 	6.650089846e-07
0.02348315793 	0.48928386 	-0.001993142123 	7.124547266e-07
0.0242418863 	0.4897709823 	-0.002057546666 	7.623331725e-07
0.02501487254 	0.4902796275 	-0.002123155896 	8.147348379e-07
0.02580238453 	0.4908104356 	-0.002189991173 	8.69752829e-07
0.0266046952 	0.4913640547 	-0.002258074102 	9.274828696e-07
0.02742208261 	0.4919411405 	-0.002327426538 	9.880233451e-07
0.02825483002 	0.4925423564 	-0.00239807057 	1.051475342e-06
0.02910322603 	0.4931683728 	-0.002470028519 	1.117942685e-06
0.02996756467 	0.4938198666 	-0.002543322925 	1.18753198e-06
0.03084814547 	0.4944975213 	-0.00261797654 	1.213475647e-06
0.03174527359 	0.4952020263 	-0.002694012312 	1.205566569e-06
0.03265925994 	0.4959340765 	-0.002771453382 	1.195218616e-06
0.03359042126 	0.4966943719 	-0.002850323064 	1.18232036e-06
0.03453908024 	0.4974836174 	-0.002930644837 	1.16675713e-06
0.03550556561 	0.4983025222 	-0.003012442329 	1.148410969e-06
0.03649021232 	0.4991517993 	-0.003095739328 	1.1271606e-06
0.03749336157 	0.500032165 	-0.003180559642 	1.102881357e-06
0.03851536099 	0.500944338 	-0.003266927148 	1.075445191e-06
0.03955656474 	0.5018894158 	-0.003354901445 	1.044732519e-06
0.04061897128 	0.5028695992 	-0.003444638376 	1.010530522e-06
0.04170592738 	0.5038864224 	-0.003536225578 	9.724970124e-07
0.04281330888 	0.5049392747 	-0.003629560293 	9.307661204e-07
0.04394149955 	0.5060278609 	-0.003724572794 	8.851633807e-07
0.04509089038 	0.5071529196 	-0.003821286632 	8.355406216e-07
0.04626187967 	0.5083151874 	-0.003919726591 	7.817464402e-07
0.04745487324 	0.5095153998 	-0.004019916704 	7.236258474e-07
0.04867028451 	0.5107542907 	-0.004121881109 	6.610203842e-07
0.04990853466 	0.5120325913 	-0.00422564381 	5.937680685e-07
0.05117005281 	0.5133510287 	-0.004331228688 	5.217033787e-07
0.05245527612 	0.5147103235 	-0.004438659466 	4.446572314e-07
0.05376464996 	0.5161111865 	-0.004547959695 	3.62456959e-07
0.05509862807 	0.5175543125 	-0.004659152729 	2.749262857e-07
0.05645767272 	0.5190403692 	-0.004772261625 	1.81885296e-07
0.05784225485 	0.5205699784 	-0.004887308827 	8.315040851e-08
0.05896828177 	0.5218264626 	-0.004980724745 	3.95079246e-08
0.05925285427 	0.5221437563 	-0.005004359421 	2.216479809e-08
0.06069116533 	0.5237635313 	-0.005123650382 	1.365751741e-07
0.06216301825 	0.5254322529 	-0.00524525098 	2.580783121e-07
0.06366252918 	0.5273704092 	-0.00538494429 	3.873308461e-07
0.06596449751 	0.5298100672 	-0.005558764514 	5.915395057e-07
0.06829214032 	0.5325280934 	-0.005749695895 	8.092163583e-07
0.07064574395 	0.5353070861 	-0.00594206795 	1.039382496e-06
0.07302559793 	0.538147841 	-0.006135861964 	1.282096421e-06
0.07543199503 	0.5410507921 	-0.006331037975 	1.537417954e-06
0.07786523129 	0.544016186 	-0.006527566302 	1.805405309e-06
0.08032560603 	0.5470475167 	-0.00672562905 	2.086185072e-06
0.08282424014 	0.5501489515 	-0.006925437097 	2.381047815e-06
0.08535191995 	0.5533177674 	-0.007126752351 	2.688889373e-06
0.08790779437 	0.5565506578 	-0.007329302763 	3.009543847e-06
0.09049217788 	0.559847609 	-0.007533020978 	3.309601397e-06
0.09310538849 	0.5632090198 	-0.007737864225 	3.117794491e-06
0.09574774776 	0.5666353569 	-0.007943784737 	2.912982907e-06
0.09841958081 	0.5701278281 	-0.008150773017 	2.695139512e-06
0.1011232676 	0.5736910163 	-0.008359000361 	2.464019861e-06
0.1038669738 	0.5773285412 	-0.00856856344 	2.218700085e-06
0.1066412871 	0.5810373007 	-0.008779162083 	1.960426474e-06
0.109446549 	0.5848151558 	-0.008990547688 	1.689131946e-06
0.1122831048 	0.5886632164 	-0.009202646518 	1.404807407e-06
0.1151513035 	0.5925827261 	-0.009415382544 	1.107447711e-06
0.1180514982 	0.5965754382 	-0.009628692369 	7.970531531e-07
0.1209850947 	0.6006469663 	-0.009842691536 	4.734920257e-07
0.1239620669 	0.6048028324 	-0.01005746115 	1.356025357e-07
0.1251390251 	0.6064597147 	-0.01014156999 	6.338280729e-07
0.1269722515 	0.6090397235 	-0.01027282899 	2.221861073e-07
0.1300160189 	0.6133568401 	-0.01048843995 	5.976395407e-07
0.133093744 	0.6177575093 	-0.01070405576 	9.861789034e-07
0.1362058055 	0.6222445884 	-0.01091953518 	1.387710767e-06
0.1393525864 	0.6268235008 	-0.01113482026 	1.80213692e-06
0.1425407528 	0.6315022068 	-0.01134992638 	2.230217333e-06
0.1457695841 	0.6362844068 	-0.0115646312 	2.671325673e-06
0.1490344407 	0.6411703371 	-0.01177852131 	3.12442231e-06
0.1523357245 	0.6461630096 	-0.01199127479 	3.589207454e-06
0.155673842 	0.6512676568 	-0.01220263397 	4.065357001e-06
0.1590492042 	0.6564919552 	-0.01241239183 	4.552529327e-06
0.1624675126 	0.6618465921 	-0.01262040137 	5.051086617e-06
0.1659296299 	0.6673386594 	-0.01282632196 	5.194005106e-06
0.1694303785 	0.6729709913 	-0.01302960949 	4.812744885e-06
0.1729701892 	0.6787490442 	-0.01322978417 	4.419445455e-06
0.176549498 	0.6846808415 	-0.01342642335 	4.014437018e-06
0.1801687455 	0.6907783605 	-0.01361917572 	3.598122042e-06
0.1838369307 	0.6970556771 	-0.01380768752 	3.16982613e-06
0.1875479555 	0.7035194571 	-0.01399132529 	2.731426618e-06
0.1913003917 	0.7101753672 	-0.01416939267 	2.283750054e-06
0.1950947013 	0.7170330706 	-0.01434127033 	1.827408439e-06
0.1989313516 	0.7241057347 	-0.01450637574 	1.363091161e-06
0.2028158131 	0.7314098947 	-0.01466413164 	8.909183692e-07
0.206748532 	0.7389579955 	-0.01481381208 	4.12313751e-07
0.2101444497 	0.7456186244 	-0.01493399957 	9.722649547e-07
0.2107251389 	0.7467577202 	-0.01495461664 	7.33605891e-08
0.2147461234 	0.7548189412 	-0.01508599294 	5.76732178e-07
0.2188119806 	0.7631580965 	-0.01520683214 	1.082588597e-06
0.2229278897 	0.771793444 	-0.01531628409 	1.590602575e-06
0.2270943661 	0.7807377609 	-0.0154133192 	2.09944846e-06
0.2313073414 	0.7899967704 	-0.01549655768 	2.605365654e-06
0.2355673346 	0.7995737343 	-0.01556427951 	3.116179554e-06
0.2398748701 	0.8094677737 	-0.01562112844 	3.624572812e-06
0.2442372224 	0.8196640582 	-0.01566726381 	4.107418388e-06
0.248650206 	0.8301271442 	-0.01569544314 	4.594790095e-06
0.2531124416 	0.8408292583 	-0.0157097423 	5.092151173e-06
0.2576244788 	0.8517592504 	-0.01571341072 	5.574848404e-06
0.2621892502 	0.8629093691 	-0.01570375806 	6.051048869e-06
0.2668106401 	0.8742656629 	-0.01568083796 	6.187270193e-06
0.2714836098 	0.8858022439 	-0.01564488159 	5.698219216e-06
0.2762087349 	0.8974934415 	-0.01559623069 	5.212671757e-06
0.2809868679 	0.909320253 	-0.01553527649 	4.731398625e-06
0.2858254639 	0.9212654762 	-0.0154624387 	4.254794899e-06
0.2907180655 	0.933303499 	-0.01537818265 	3.784695856e-06
0.2956652752 	0.9454136145 	-0.01528292682 	3.321496745e-06
0.3006677021 	0.9575867919 	-0.01517695215 	2.865513348e-06
0.3057325688 	0.969819239 	-0.01506043909 	2.416862917e-06
0.3108541272 	0.9821005129 	-0.01493359564 	1.977069663e-06
0.3160328503 	0.9944238546 	-0.0147966102 	1.546334401e-06
0.3212699707 	1.006790123 	-0.014649633 	1.124659263e-06
0.3265710904 	1.019199984 	-0.01449290096 	7.121511735e-07
0.3319313799 	1.031644224 	-0.01432689571 	3.094778059e-07
0.3361906379 	1.041442692 	-0.01418966887 	3.843284698e-06
0.3373514992 	1.044113468 	-0.014152331 	8.710640241e-08
0.3428342305 	1.05659984 	-0.0139701838 	4.868650359e-07
0.3483815784 	1.069089731 	-0.013781236 	8.785363867e-07
0.3539908448 	1.081560882 	-0.01358681539 	1.262881173e-06
0.3596627202 	1.09399141 	-0.01338836852 	1.641284017e-06
0.3654019652 	1.106359492 	-0.01318742327 	2.014993738e-06
0.3712061637 	1.118635732 	-0.01298564841 	2.384118575e-06
0.3770751474 	1.130790544 	-0.01278464977 	2.749504946e-06
0.3830113807 	1.142798611 	-0.01258582495 	3.111463688e-06
0.3890165364 	1.154635088 	-0.01239041299 	3.47129008e-06
0.3950887203 	1.166275715 	-0.01219926362 	3.818442239e-06
0.4012290711 	1.177699876 	-0.01200930416 	4.174105976e-06
0.4074414565 	1.188880861 	-0.01182769805 	4.533717423e-06
0.4137231831 	1.199777627 	-0.01165742954 	4.840094762e-06
0.420075024 	1.210356163 	-0.01148700153 	5.150793457e-06
0.4265009097 	1.220624915 	-0.01131990099 	5.47265864e-06
0.4329987794 	1.230609005 	-0.01115771252 	5.759602606e-06
0.4395691754 	1.240308669 	-0.01099451014 	6.034178621e-06
0.4462154458 	1.24970073 	-0.010829922 	5.904401024e-06
0.452936325 	1.258742519 	-0.01066364379 	5.590469691e-06
0.4597322186 	1.267377785 	-0.01049569944 	5.283057459e-06
0.4666062465 	1.275535344 	-0.0103261711 	4.982780968e-06
0.4735572746 	1.283123786 	-0.01015530065 	4.690524808e-06
0.4805859366 	1.290034082 	-0.009983403737 	4.406068493e-06
0.4876951865 	1.296145509 	-0.009810844293 	4.1297696e-06
0.4948837842 	1.301330103 	-0.009638487808 	3.862167129e-06
0.5020728327 	1.305480989 	-0.009468206612 	3.605657919e-06
0.5091839357 	1.308590228 	-0.009301625609 	3.363238917e-06
0.5162165766 	1.310763395 	-0.009139094399 	3.13471364e-06
0.5231722107 	1.312160728 	-0.008980475571 	2.919478155e-06
0.5300519365 	1.312950441 	-0.008825627015 	2.717730595e-06
0.5368557511 	1.313281809 	-0.008674413243 	2.52885289e-06
0.5435850468 	1.313273918 	-0.008526699701 	2.352029525e-06
0.5502406551 	1.31301569 	-0.008382356289 	2.187105218e-06
0.5568228235 	1.312571021 	-0.008241237422 	2.033225005e-06
0.5633327798 	1.311984682 	-0.008103192539 	1.889508606e-06
0.5697713528 	1.311287433 	-0.007968072043 	1.755717063e-06
0.5761388792 	1.310499933 	-0.007835715341 	1.631067584e-06
0.5824363843 	1.309635489 	-0.007705960516 	1.514747183e-06
0.5886648223 	1.308702049 	-0.007578646075 	1.406531309e-06
0.5948245315 	1.30770361 	-0.007453602211 	1.30581347e-06
0.6009163367 	1.306641071 	-0.007330656051 	1.211875223e-06
0.6069413562 	1.30551287 	-0.007209632791 	1.124459133e-06
0.6128998905 	1.304315469 	-0.007090354432 	1.04318487e-06
0.6187926729 	1.303043531 	-0.006972635454 	9.67451977e-07
0.6246207232 	1.301690055 	-0.006856290053 	8.96880205e-07
0.630384542 	1.300246516 	-0.006741130905 	8.313327847e-07
0.6360847567 	1.298702833 	-0.006626958525 	7.703292214e-07
0.6417221536 	1.297047275 	-0.00651357158 	7.134365519e-07
0.6472975325 	1.295266407 	-0.006400758807 	6.605744249e-07
0.6528113863 	1.293345003 	-0.006288293026 	6.114576002e-07
0.6582643935 	1.291265852 	-0.006175926811 	5.657137535e-07
0.663657363 	1.289009618 	-0.006063391599 	5.23095523e-07
0.6689908816 	1.286554835 	-0.005950389204 	4.835674819e-07
0.6742655434 	1.283877939 	-0.005836583267 	4.468452298e-07
0.6794819976 	1.280953466 	-0.005721603271 	4.126493268e-07
0.6846410163 	1.277754601 	-0.00560504561 	3.80860712e-07
0.6897431149 	1.274254133 	-0.005486480098 	3.514220213e-07
0.6947889098 	1.270425708 	-0.005365463059 	3.241013268e-07
0.6997790223 	1.266245394 	-0.005241564693 	2.986831019e-07
0.7047141634 	1.261693447 	-0.005114396296 	2.750969325e-07
0.7095948444 	1.256755976 	-0.004983636591 	2.532873384e-07
0.7144216649 	1.251425986 	-0.004849054018 	2.330733221e-07
0.719195219 	1.245703697 	-0.004710517654 	2.142892169e-07
0.7239161526 	1.239596106 	-0.004567995298 	1.968659955e-07
0.7285849967 	1.23311592 	-0.004421551415 	1.807854175e-07
0.7332023176 	1.22627995 	-0.004271341768 	1.659008316e-07
0.7377686838 	1.219106742 	-0.004117603307 	1.521510762e-07
0.7422846824 	1.211611806 	-0.003960140917 	1.393916656e-07
0.7467508634 	1.203798849 	-0.003796788844 	1.285913602e-07
0.7511677575 	1.195655648 	-0.003625599905 	1.177354013e-07
0.7555359085 	1.187178493 	-0.003453015559 	1.072691402e-07
0.7598558555 	1.178407999 	-0.003277014008 	9.925173636e-08
0.764128156 	1.169416669 	-0.003091709078 	9.08451277e-08
0.768353309 	1.160257377 	-0.002905237271 	8.234146369e-08
0.7725318348 	1.150957608 	-0.002720188337 	7.49181043e-08
0.776664248 	1.141541635 	-0.002534850693 	6.794365956e-08
0.7807510619 	1.132032782 	-0.002350642433 	6.147127381e-08
0.7847927877 	1.122453597 	-0.002168242993 	5.550069374e-08
0.7887899104 	1.112825696 	-0.001988434991 	5.00106477e-08
0.7927429222 	1.103170306 	-0.001811973337 	4.495235004e-08
0.7966523098 	1.093508641 	-0.001639623129 	4.028504999e-08
0.8005185571 	1.083862198 	-0.001472156941 	3.597784076e-08
0.8043421454 	1.074252996 	-0.001310226965 	3.206287424e-08
0.8081235378 	1.064703372 	-0.001155083892 	2.852302826e-08
0.8118631999 	1.055202113 	-0.00100627107 	2.535224432e-08
0.8155615922 	1.045663198 	-0.0008606203411 	2.255011285e-08
0.8192191701 	1.035972997 	-0.000714234726 	2.005843193e-08
0.8228363893 	1.026066087 	-0.000564784659 	1.782872024e-08
0.8264136904 	1.015929348 	-0.0004120788997 	1.582195486e-08
0.8299515134 	1.005575958 	-0.0002563242256 	1.398626893e-08
0.833450294 	0.9950317267 	-9.817382318e-05 	1.229388373e-08
0.836910463 	0.9843283248 	6.145079778e-05 	1.07275523e-08
0.8403324473 	0.973499607 	0.0002214914309 	9.275266812e-09
0.8437166697 	0.9625793992 	0.0003808486247 	7.951753337e-09
0.8470635448 	0.9516001195 	0.0005384393848 	6.755856623e-09
0.8503734847 	0.940591969 	0.0006932321532 	5.676441019e-09
0.853646897 	0.929582541 	0.0008442692276 	4.703152067e-09
0.8568841848 	0.9185967175 	0.0009906800191 	3.826282582e-09
0.860085747 	0.9076567582 	0.001131686135 	3.037263808e-09
0.8632519787 	0.8967825306 	0.001266600321 	2.343389153e-09
0.8663832688 	0.8859918362 	0.001394819604 	1.742017606e-09
0.8694800027 	0.8753007466 	0.001515814193 	1.223063922e-09
0.8725425619 	0.8647238098 	0.001629118978 	7.771684766e-10
0.8755713235 	0.8542739259 	0.001734335704 	3.957754834e-10
0.8785666604 	0.8439617026 	0.001831153843 	7.110295044e-11
0.8793111533 	0.841406387 	0.001853330026 	9.00555077e-07
0.881528942 	0.8337942912 	0.001919391246 	2.105776777e-10
0.8844585328 	0.8237740646 	0.001999044097 	4.393593973e-10
0.8873557934 	0.8138979864 	0.002070315026 	6.19983314e-10
0.8902210805 	0.804158852 	0.002133581303 	7.606321451e-10
0.893054747 	0.7945495327 	0.002189258727 	8.684674217e-10
0.8958571419 	0.7850704946 	0.002237523748 	9.482950452e-10
0.8986286103 	0.7757388794 	0.002277935105 	1.000830639e-09
0.9013694936 	0.7665945103 	0.002309310888 	1.021495946e-09
0.9040801293 	0.7576965875 	0.002331011429 	1.028736085e-09
0.906760851 	0.749102663 	0.002340399685 	9.455973675e-10
0.909411989 	0.7408218195 	0.002331953114 	8.430613338e-10
0.9120338697 	0.732781949 	0.002312899875 	8.744277269e-10
0.9146268159 	0.7248907762 	0.002293112911 	8.452868474e-10
0.9171911471 	0.7171023444 	0.00226693492 	7.554012236e-10
0.9197271789 	0.7093976233 	0.002233171146 	7.120927814e-10
0.9222352237 	0.7017597644 	0.002195704964 	6.612215893e-10
0.9247155904 	0.6941730073 	0.002154201281 	6.102354556e-10
0.9271685843 	0.6866225792 	0.002109027518 	5.600648991e-10
0.9295945076 	0.6790935237 	0.002060247663 	5.106243853e-10
0.931993659 	0.6722006133 	0.002012738645 	4.669127878e-10
0.9335564697 	0.6666251517 	0.001972769425 	4.31465855e-10
0.9350904493 	0.661725124 	0.001936458204 	4.016871508e-10
0.9365961296 	0.6568715384 	0.001899445524 	3.73096827e-10
0.9380740326 	0.6520624192 	0.001861962732 	3.45735623e-10
0.939524671 	0.6472961722 	0.001824067047 	3.196281843e-10
0.9409485475 	0.6425714795 	0.001785837048 	2.94662982e-10
0.942346156 	0.6378871858 	0.001747347009 	2.7081467e-10
0.9437179811 	0.6332422354 	0.001708665536 	2.48102876e-10
0.9450644983 	0.6286356171 	0.001669856348 	2.265309581e-10
0.9463861746 	0.6240663204 	0.001630978208 	2.060901816e-10
0.9476834683 	0.6195333012 	0.001592085428 	1.867628324e-10
0.9489568292 	0.6150354584 	0.00155322827 	1.685245407e-10
0.9502066987 	0.610571618 	0.001514453288 	1.513460382e-10
0.9514335103 	0.6061405236 	0.001475803611 	1.351945119e-10
0.9526376894 	0.6017408313 	0.001437319203 	1.200346753e-10
0.9538196534 	0.5973711076 	0.001399037089 	1.058296386e-10
0.9549798122 	0.5930298286 	0.001360991564 	9.254162517e-11
0.9561185681 	0.5887153804 	0.001323214381 	8.013256476e-11
0.957236316 	0.5844260586 	0.001285734925 	6.856458626e-11
0.9583334433 	0.5801600681 	0.001248580373 	5.780041266e-11
0.9594103305 	0.5759155217 	0.001211775834 	4.780339272e-11
0.960467351 	0.5716904372 	0.001175344504 	3.85328807e-11
0.9615048713 	0.5674827336 	0.001139307783 	2.995715599e-11
0.9625232512 	0.5632902262 	0.00110368539 	2.204857109e-11
0.9635228437 	0.5591106192 	0.001068495478 	1.478006791e-11
0.9645039954 	0.5549414977 	0.001033754738 	8.125273644e-12
0.9654670466 	0.550780317 	0.0009994784924 	2.058559496e-12
0.9664123311 	0.546624391 	0.0009656807831 	-3.444935055e-12
0.9673401768 	0.5424708776 	0.0009323744588 	-8.409303754e-12
0.9682509054 	0.5383167622 	0.0008995712521 	-1.285789564e-11
0.9691448325 	0.5341588393 	0.0008672818564 	-1.681335032e-11
0.9700222683 	0.5299936895 	0.000835515999 	-2.029763913e-11
0.9708835169 	0.5258176555 	0.0008042825139 	-2.333211165e-11
0.9717288769 	0.5216268122 	0.0007735894146 	-2.593753861e-11
0.9725586415 	0.5174169349 	0.0007434439681 	-2.813415611e-11
0.9733730984 	0.5131834614 	0.0007138527716 	-2.99417137e-11
0.97417253 	0.5089214509 	0.0006848218286 	-3.137953837e-11
0.9749572134 	0.504625538 	0.000656356624 	-3.246662294e-11
0.9757274208 	0.5002898819 	0.0006284621928 	-3.322173773e-11
0.9764834191 	0.4959081105 	0.0006011431804 	-3.366355029e-11
0.9772254706 	0.491473259 	0.0005744038953 	-3.381072665e-11
0.9779538326 	0.4869777018 	0.000548248356 	-3.368199601e-11
0.9786687575 	0.482413077 	0.0005226803347 	-3.329618469e-11
0.9793704933 	0.4777702029 	0.0004977034007 	-3.267213616e-11
0.9800592833 	0.4730389847 	0.0004733209688 	-3.1827928e-11
0.9807353663 	0.4682083118 	0.0004495363394 	-3.078296387e-11
0.9813989767 	0.4632659435 	0.0004263527346 	-2.955753566e-11
0.9820503447 	0.4581983846 	0.0004037733331 	-2.81726509e-11
0.982689696 	0.4529907469 	0.0003818012955 	-2.66500528e-11
0.9833172525 	0.4476265994 	0.0003604397837 	-2.501212408e-11
0.9839332316 	0.4420878026 	0.0003396919658 	-2.328172054e-11
0.9845378469 	0.4363543289 	0.0003195609996 	-2.148200003e-11
0.9851313081 	0.430404066 	0.0003000499676 	-1.963632997e-11
0.985713821 	0.4242126058 	0.0002811613591 	-1.776826351e-11
0.9862855876 	0.4177530191 	0.0002628981784 	-1.590121844e-11
0.986846806 	0.4109956226 	0.000245260891 	-1.405995793e-11
0.987397671 	0.4039077159 	0.0002282325933 	-1.226642372e-11
0.9879383734 	0.3964534974 	0.0002120396242 	-1.053822528e-11
0.9884691008 	0.3885937242 	0.0001959304955 	-8.931023044e-12
0.9889900372 	0.3810125795 	0.0001815538736 	-7.560805906e-12
0.98932531 	0.3745485683 	0.0001710113776 	-6.49448369e-12
0.9896605828 	0.3685516831 	0.0001617782344 	-5.623422163e-12
0.9899958556 	0.3622288457 	0.0001524066595 	-4.824319297e-12
0.9903311284 	0.3555522705 	0.0001433094119 	-4.085412197e-12
0.9906664012 	0.348492164 	0.0001343778088 	-3.416271154e-12
0.991001674 	0.3410167896 	0.0001256239752 	-2.822317558e-12
0.9913369469 	0.3330924288 	0.0001170538211 	-2.307348341e-12
0.9916722197 	0.3246834776 	0.0001086711182 	-1.874408388e-12
0.9920074925 	0.3157526191 	0.0001004771073 	-1.524809429e-12
0.9923427653 	0.3062611375 	9.246931966e-05 	-1.257874839e-12
0.9926780381 	0.2961694641 	8.464169839e-05 	-1.070706175e-12
0.9930133109 	0.2854380804 	7.698671196e-05 	-9.581903394e-13
0.9933485837 	0.2740289623 	6.950170343e-05 	-9.134377369e-13
0.9936838566 	0.2619078041 	6.220172938e-05 	-9.287532391e-13
0.9940191294 	0.2490472985 	5.513873259e-05 	-9.967761429e-13
0.9943544022 	0.2354316959 	4.841900245e-05 	-1.110319013e-12
0.994689675 	0.2210626113 	4.219745651e-05 	-1.258453708e-12
0.9950249478 	0.2059654414 	3.662125137e-05 	-1.418494533e-12
0.9953602206 	0.1901947676 	3.172514334e-05 	-1.551070389e-12
0.9956954934 	0.1738361157 	2.735277242e-05 	-1.610924381e-12
0.9960307663 	0.1570013453 	2.321358037e-05 	-1.573235574e-12
0.9963660391 	0.1398167661 	1.907991398e-05 	-1.450301332e-12
0.9967013119 	0.122406594 	1.495693621e-05 	-1.276378343e-12
0.9970365847 	0.1048773028 	1.105983357e-05 	-1.077570983e-12
0.9973718575 	0.08730823162 	7.641197814e-06 	-8.616665334e-13
0.9977071303 	0.0697504185 	4.849460659e-06 	-6.322542841e-13
0.9980424031 	0.05223175568 	2.713960642e-06 	-4.035503878e-13
0.998377676 	0.03476475027 	1.209447132e-06 	-2.022152781e-13
0.9987129488 	0.01735368465 	3.277848853e-07 	-6.168149965e-14
0.9990482216 	0.007309318357 	3.772905259e-08 	-9.291210326e-15
0.9990482216 	0.007309318357 	3.772905259e-08 	-9.291210317e-15
