0.4709558481 	0.01216637533 	1.232999662e-08 	-1.657306013e-12
0.4709558481 	0.01216637533 	1.232999662e-08 	-1.657306013e-12
0.4711314108 	0.03345450115 	1.180101974e-07 	-1.671873452e-11
0.4713069734 	0.06687338506 	4.181136798e-07 	-6.135923973e-11
0.471482536 	0.1002548314 	8.750701314e-07 	-1.35762836e-10
0.4716580986 	0.1335888984 	1.406245414e-06 	-2.371060384e-10
0.4718336613 	0.1668502297 	1.952595608e-06 	-3.643774802e-10
0.4720092239 	0.1999870337 	2.558760765e-06 	-5.19631396e-10
0.4721847865 	0.2329103948 	3.43402247e-06 	-7.080710707e-10
0.4723603491 	0.2654887124 	4.892445088e-06 	-9.342090402e-10
0.4725359118 	0.2975519537 	7.150677708e-06 	-1.195960497e-09
0.4727114744 	0.3289072053 	1.013373444e-05 	-1.482967206e-09
0.472887037 	0.35936183 	1.34860301e-05 	-1.782236386e-09
0.4730625996 	0.3887468067 	1.679204214e-05 	-2.085704373e-09
0.4732381623 	0.4169332799 	1.980402944e-05 	-2.392471471e-09
0.4734137249 	0.4438392465 	2.250611456e-05 	-2.705299783e-09
0.4735892875 	0.4694275582 	2.50295794e-05 	-3.026280063e-09
0.4737648501 	0.4936986254 	2.753574056e-05 	-3.355065266e-09
0.4739404128 	0.5166812101 	3.014469154e-05 	-3.689417456e-09
0.4741159754 	0.5384235917 	3.291085649e-05 	-4.026623986e-09
0.474291538 	0.558986213 	3.583012568e-05 	-4.364428408e-09
0.4744671006 	0.5784361908 	3.886704994e-05 	-4.701058354e-09
0.4746426632 	0.5968431279 	4.308440827e-05 	-5.00778566e-09
0.4748182259 	0.6142762296 	4.705356084e-05 	-5.32367936e-09
0.4749937885 	0.6308065632 	4.861359034e-05 	-5.685959947e-09
0.4751693511 	0.6465066147 	5.125267623e-05 	-6.008552199e-09
0.4753449137 	0.6614406893 	5.616353305e-05 	-6.288796604e-09
0.4755204764 	0.6756616551 	6.058814492e-05 	-6.575882208e-09
0.475696039 	0.6892167472 	6.440014591e-05 	-6.859135022e-09
0.4758716016 	0.7021505684 	6.833136189e-05 	-7.132209055e-09
0.4760471642 	0.71450475 	7.252364309e-05 	-7.395398043e-09
0.4762227269 	0.7279171495 	7.73734634e-05 	-7.682845152e-09
0.4764955107 	0.7437683835 	8.304177967e-05 	-8.022362492e-09
0.4767734216 	0.760333717 	8.944243524e-05 	-8.376100403e-09
0.4770565557 	0.776156459 	9.641205195e-05 	-8.711167039e-09
0.4773450114 	0.7912916164 	0.000103680143 	-9.025940219e-09
0.4776388886 	0.8057900752 	0.0001111976883 	-9.319386033e-09
0.4779382892 	0.8196988663 	0.0001189760634 	-9.590718493e-09
0.4782433171 	0.8330613148 	0.0001270216525 	-9.839258676e-09
0.4785540779 	0.8459172619 	0.0001353367999 	-1.006444069e-08
0.4788706795 	0.8583033196 	0.0001439237056 	-1.026582324e-08
0.4791932316 	0.8702531243 	0.0001527847579 	-1.044309908e-08
0.4795218461 	0.8817975821 	0.0001619223261 	-1.05961045e-08
0.4798566368 	0.8929651026 	0.0001713386986 	-1.072483071e-08
0.48019772 	0.9037818185 	0.0001810360806 	-1.082943683e-08
0.4805452138 	0.914271789 	0.0001910165956 	-1.091026401e-08
0.4808992388 	0.9244571873 	0.0002012822912 	-1.096785046e-08
0.4812599177 	0.9343584717 	0.0002118351493 	-1.100294705e-08
0.4816273755 	0.9439945414 	0.0002226771028 	-1.101653327e-08
0.4820017397 	0.9533828781 	0.0002338100558 	-1.100983305e-08
0.48238314 	0.9625396737 	0.0002452359102 	-1.098433033e-08
0.4827717088 	0.9714799459 	0.0002569565945 	-1.09417838e-08
0.4831675807 	0.9802176427 	0.0002689740988 	-1.088424047e-08
0.4835708931 	0.9887657362 	0.0002812905124 	-1.081404763e-08
0.4839817856 	0.9971363075 	0.0002939080652 	-1.07338627e-08
0.4844004009 	1.005340623 	0.0003068291725 	-1.064666031e-08
0.4848268841 	1.013389205 	0.0003200564827 	-1.055573618e-08
0.485261383 	1.021291891 	0.0003335929264 	-1.046470689e-08
0.4857040484 	1.029057891 	0.0003474417677 	-1.037750485e-08
0.4861550336 	1.03669584 	0.0003616066564 	-1.029836738e-08
0.4866144951 	1.044213843 	0.0003760916802 	-1.023181851e-08
0.4870825921 	1.051619513 	0.0003909014164 	-1.018264126e-08
0.487559487 	1.058920013 	0.000406040983 	-1.015583684e-08
0.4880453452 	1.066122087 	0.0004215160872 	-1.015656432e-08
0.4885403351 	1.073232091 	0.0004373330718 	-1.019005013e-08
0.4890446283 	1.080256021 	0.0004534989582 	-1.026145098e-08
0.4895583997 	1.087199536 	0.0004700214843 	-1.037563255e-08
0.4900818274 	1.094067982 	0.0004869091369 	-1.053675049e-08
0.4906150929 	1.100866413 	0.0005041711831 	-1.074749874e-08
0.4911583811 	1.107599609 	0.0005218176806 	-1.100911407e-08
0.4917118805 	1.114272095 	0.0005398593489 	-1.13241585e-08
0.4922757829 	1.120888159 	0.000558307134 	-1.169279834e-08
0.4928502838 	1.127451871 	0.0005771742666 	-1.201154554e-08
0.4934355824 	1.133967095 	0.0005964805506 	-1.212355733e-08
0.4940318817 	1.140437473 	0.0006162465222 	-1.270760782e-08
0.4946393885 	1.146866453 	0.0006364290963 	-1.382356389e-08
0.4952583133 	1.153257378 	0.0006570355713 	-1.426617648e-08
0.4958888709 	1.159613394 	0.000678150843 	-1.441181813e-08
0.4965312797 	1.165937235 	0.0006997544042 	-1.514678252e-08
0.4971857627 	1.172231222 	0.0007218242335 	-1.62034661e-08
0.4978525466 	1.17849738 	0.0007443770513 	-1.724133797e-08
0.4985318627 	1.184737501 	0.0007674218859 	-1.828450077e-08
0.4992239466 	1.190953189 	0.0007909793367 	-1.942651984e-08
0.4999290382 	1.197145864 	0.0008150831689 	-2.090988643e-08
0.5006473819 	1.203316767 	0.0008397624614 	-2.30058394e-08
0.501379227 	1.209467092 	0.0008650548825 	-2.524451067e-08
0.502124827 	1.215598284 	0.0008910074595 	-2.763612948e-08
0.5028844406 	1.221712372 	0.0009176568098 	-3.098580036e-08
0.5036583311 	1.227811877 	0.0009451525008 	-3.638042304e-08
0.5044467669 	1.233899115 	0.0009736328904 	-4.279303809e-08
0.5052500214 	1.239975662 	0.0010030828 	-4.73008584e-08
0.506068373 	1.246815636 	0.001037347342 	-5.069069688e-08
0.507324668 	1.255125269 	0.001080506334 	-5.432786635e-08
0.5085949819 	1.264042383 	0.001128745617 	-5.786100822e-08
0.5098794711 	1.272800777 	0.001178188561 	-6.170448712e-08
0.5111782938 	1.281410223 	0.001228889142 	-6.605486151e-08
0.5124916099 	1.289881236 	0.001280922223 	-7.081135725e-08
0.5138195812 	1.298224852 	0.00133436496 	-7.581502579e-08
0.5151623712 	1.30645247 	0.001389295358 	-8.098670553e-08
0.5165201452 	1.314575442 	0.001445791936 	-8.630888034e-08
0.5178930705 	1.322604036 	0.001503921978 	-9.178133857e-08
0.5192813161 	1.330545282 	0.001563741251 	-9.741556123e-08
0.520685053 	1.338399201 	0.001625274866 	-1.031423011e-07
0.522104454 	1.346154163 	0.001688413406 	-1.087206609e-07
0.523539694 	1.353783887 	0.001752829078 	-1.138651285e-07
0.5249909497 	1.361248172 	0.001817989187 	-1.183332645e-07
0.5264583998 	1.368497105 	0.001883209872 	-1.219075246e-07
0.527942225 	1.375477752 	0.001947768858 	-1.244610642e-07
0.5294426081 	1.382140785 	0.002013727798 	-1.287654217e-07
0.5309597337 	1.388452546 	0.002075790118 	-1.267811929e-07
0.5324937889 	1.394423226 	0.002130115918 	-1.223978811e-07
0.5340449624 	1.400105563 	0.002187329938 	-1.288507802e-07
0.5356134452 	1.405544773 	0.002246459282 	-1.307333449e-07
0.5371994306 	1.410757787 	0.002301074256 	-1.277567245e-07
0.5388031139 	1.415750926 	0.002353432014 	-1.285480746e-07
0.5404246925 	1.420527556 	0.002404222699 	-1.285869662e-07
0.5420643661 	1.425087954 	0.002453110743 	-1.283382746e-07
0.5437223366 	1.42943054 	0.002499928392 	-1.277451798e-07
0.5453988083 	1.433552469 	0.002544479043 	-1.267715893e-07
0.5470939875 	1.437449737 	0.002586567811 	-1.254160943e-07
0.5488080831 	1.441117282 	0.002625989545 	-1.236586358e-07
0.5505413061 	1.444549131 	0.002662524166 	-1.214800444e-07
0.5522938699 	1.447738655 	0.002695939314 	-1.188644717e-07
0.5540659904 	1.450678945 	0.002725995599 	-1.158039066e-07
0.5558578859 	1.453363343 	0.002752454763 	-1.123026532e-07
0.5576697768 	1.455786129 	0.002775090903 	-1.083820583e-07
0.5595018865 	1.457943344 	0.002793704775 	-1.040846348e-07
0.5613544406 	1.459833672 	0.002808140732 	-9.947900406e-08
0.563227667 	1.461459245 	0.002818303296 	-9.465403541e-08
0.5651217966 	1.462826199 	0.002824171763 	-8.973281974e-08
0.5670370626 	1.463944725 	0.002825810471 	-8.483751788e-08
0.5689737009 	1.464828441 	0.00282335093 	-8.00498462e-08
0.5709319499 	1.46549383 	0.002816983593 	-7.546985812e-08
0.5729120508 	1.46596006 	0.002806975325 	-7.119649691e-08
0.5749142474 	1.466248118 	0.002793641706 	-6.727918281e-08
0.5769387863 	1.46637927 	0.002777309686 	-6.374153888e-08
0.5789859169 	1.466373944 	0.002758306077 	-6.058588724e-08
0.5810558911 	1.466251107 	0.002736943032 	-5.779209314e-08
0.583148964 	1.466027893 	0.002713507164 	-5.532815163e-08
0.5852653933 	1.465719417 	0.002688254858 	-5.315582097e-08
0.5874054395 	1.465338744 	0.002661410152 	-5.123438462e-08
0.5895693664 	1.464896977 	0.002633165078 	-4.952368708e-08
0.5917574402 	1.464403435 	0.002603681756 	-4.798644463e-08
0.5939699306 	1.463865871 	0.002573095609 	-4.658973931e-08
0.5962071099 	1.463290698 	0.002541519097 	-4.530577532e-08
0.5984692536 	1.462683212 	0.002509045533 	-4.411201846e-08
0.6007566404 	1.462047788 	0.002475752644 	-4.299086812e-08
0.6030695519 	1.461388049 	0.002441705698 	-4.192902616e-08
0.6054082729 	1.460707007 	0.002406960117 	-4.091672327e-08
0.6077730914 	1.460007172 	0.002371563556 	-3.994693457e-08
0.6101642987 	1.459290643 	0.002335557525 	-3.901467208e-08
0.6125821893 	1.458559181 	0.002298978599 	-3.811639665e-08
0.6150270608 	1.457814256 	0.002261859323 	-3.724955799e-08
0.6174992144 	1.457057095 	0.002224228867 	-3.641225124e-08
0.6199989545 	1.456288714 	0.002186113514 	-3.560296968e-08
0.622526589 	1.455509944 	0.002147537003 	-3.482043204e-08
0.625082429 	1.454721449 	0.002108520791 	-3.406346542e-08
0.6276667894 	1.45392375 	0.00206908424 	-3.33309284e-08
0.6302799884 	1.453117232 	0.002029244765 	-3.262166261e-08
0.6329223478 	1.45230216 	0.001989017945 	-3.193446417e-08
0.6355941931 	1.451478688 	0.001948417604 	-3.126806877e-08
0.6382958531 	1.450646866 	0.00190745589 	-3.062114599e-08
0.6410276607 	1.449806646 	0.001866143323 	-2.999229976e-08
0.6437899523 	1.448957894 	0.00182448885 	-2.93800728e-08
0.646583068 	1.448100385 	0.001782499883 	-2.878295348e-08
0.6494073518 	1.447233819 	0.001740182333 	-2.819938408e-08
0.6522631514 	1.446357813 	0.00169754064 	-2.762776975e-08
0.6551508186 	1.445471915 	0.001654577799 	-2.706648752e-08
0.658070709 	1.444575596 	0.001611295382 	-2.651389523e-08
0.6610231822 	1.443668262 	0.001567693554 	-2.596834007e-08
0.6640086017 	1.442749248 	0.001523771092 	-2.542816663e-08
0.6670273351 	1.441817824 	0.001479525397 	-2.48917246e-08
0.6700797543 	1.440873196 	0.001434952503 	-2.435737622e-08
0.6731662352 	1.439914504 	0.001390047093 	-2.382350354e-08
0.6762871577 	1.438940827 	0.001344802503 	-2.328851617e-08
0.6794429063 	1.437951178 	0.001299210741 	-2.275085947e-08
0.6826338695 	1.436944512 	0.001253262496 	-2.220902404e-08
0.6858604404 	1.435919723 	0.001206947159 	-2.166155678e-08
0.6891230163 	1.434875641 	0.001160252848 	-2.11070741e-08
0.6924219988 	1.433811041 	0.001113166436 	-2.054427794e-08
0.6957577944 	1.432724639 	0.001065673598 	-1.997197492e-08
0.6991308138 	1.431615091 	0.001017758858 	-1.938909919e-08
0.7025414724 	1.430481002 	0.0009694056645 	-1.879473917e-08
0.7059901901 	1.429320918 	0.000920596467 	-1.818816837e-08
0.7094773917 	1.428133337 	0.0008713128227 	-1.756888018e-08
0.7130035066 	1.426916706 	0.0008215355167 	-1.693662626e-08
0.7165689691 	1.425669422 	0.0007712447062 	-1.629145788e-08
0.7201742182 	1.424389839 	0.0007204200907 	-1.56337687e-08
0.7238196978 	1.423076269 	0.0006690411002 	-1.496433827e-08
0.727505857 	1.421726981 	0.0006170872173 	-1.428436324e-08
0.7312331497 	1.42034021 	0.0005645377734 	-1.359550798e-08
0.7350020349 	1.418917975 	0.0005115135009 	-1.290180408e-08
0.7387709215 	1.417471104 	0.0004584488246 	-1.221175606e-08
0.7424982157 	1.416011282 	0.0004057808839 	-1.15340219e-08
0.7461843763 	1.414542251 	0.0003536376762 	-1.087322162e-08
0.7498298574 	1.413064011 	0.0003020088018 	-1.02320905e-08
0.7534351078 	1.411576617 	0.0002508861405 	-9.613244786e-09
0.7570005716 	1.410080166 	0.0002002633231 	-9.019114697e-09
0.7605266877 	1.408574787 	0.0001501356341 	-8.451862086e-09
0.7640138905 	1.407060632 	0.0001004998113 	-7.913312936e-09
0.7674626093 	1.405537858 	5.135385479e-05 	-7.404898275e-09
0.770873269 	1.404006627 	2.696849966e-06 	-6.927605924e-09
0.7742462894 	1.402467086 	-4.54711906e-05 	-6.481944207e-09
0.777582086 	1.400919364 	-9.31494633e-05 	-6.067919312e-09
0.7808810695 	1.399363561 	-0.0001403364838 	-5.685025519e-09
0.7841436462 	1.397799741 	-0.0001870301655 	-5.332247639e-09
0.787370218 	1.396227925 	-0.0002332278686 	-5.008076143e-09
0.7905611821 	1.394648083 	-0.000278926422 	-4.710533095e-09
0.7937169314 	1.39306013 	-0.0003241221178 	-4.437207026e-09
0.7968378547 	1.391463922 	-0.0003688106814 	-4.185295451e-09
0.7999243362 	1.38985925 	-0.000412987223 	-3.951653008e-09
0.8029767561 	1.388245838 	-0.0004566461727 	-3.732843426e-09
0.8059954902 	1.386623339 	-0.0004997812038 	-3.525193563e-09
0.8089809102 	1.384991334 	-0.0005423851507 	-3.32484785e-09
0.8119333839 	1.38334933 	-0.0005844499224 	-3.127821716e-09
0.8148532749 	1.381696757 	-0.0006259664168 	-2.930052732e-09
0.8177409426 	1.380032965 	-0.0006669244389 	-2.727448447e-09
0.8205967427 	1.378357229 	-0.0007073126236 	-2.515930142e-09
0.8234210268 	1.37666874 	-0.0007471183652 	-2.291471917e-09
0.8262141429 	1.37496661 	-0.0007863277557 	-2.050134792e-09
0.8289764348 	1.373249866 	-0.00082492553 	-1.788095663e-09
0.8317082427 	1.371517452 	-0.0008628950205 	-1.501671162e-09
0.8344099031 	1.369768225 	-0.0009002181186 	-1.187336557e-09
0.8370817486 	1.368000956 	-0.0009368752443 	-8.417400106e-10
0.8397241082 	1.366214325 	-0.0009728453213 	-4.617125025e-10
0.8423373074 	1.364406923 	-0.00100810576 	-4.427380657e-11
0.844921668 	1.362577246 	-0.001042632442 	4.133651028e-10
0.8474775082 	1.360723695 	-0.001076399717 	9.138028936e-10
0.8500051427 	1.358844572 	-0.001109380393 	1.459451682e-09
0.8525048829 	1.356938079 	-0.001141545741 	2.052543611e-09
0.8549770366 	1.355002314 	-0.001172865496 	2.69514009e-09
0.8574219081 	1.35303527 	-0.001203307869 	3.38914368e-09
0.8598397987 	1.35103483 	-0.001232839556 	4.136312644e-09
0.862231006 	1.348998766 	-0.001261425756 	4.938278251e-09
0.8645958245 	1.346924734 	-0.001289030198 	5.796564859e-09
0.8669345455 	1.344810277 	-0.001315615167 	6.712612684e-09
0.8692474569 	1.342652816 	-0.00134114154 	7.687802924e-09
0.8715348435 	1.340449657 	-0.001365568843 	8.723484479e-09
0.8737969871 	1.338197981 	-0.001388855299 	9.82100093e-09
0.8760341663 	1.335894852 	-0.001410957911 	1.098171558e-08
0.8782466565 	1.333537214 	-0.001431832552 	1.220703126e-08
0.8804347301 	1.331121896 	-0.001451434081 	1.349840031e-08
0.8825986568 	1.328645613 	-0.001469716485 	1.485731875e-08
0.8847387028 	1.326104972 	-0.001486633062 	1.628529713e-08
0.8868551318 	1.323496482 	-0.001502136643 	1.778379973e-08
0.8889482045 	1.320816562 	-0.001516179866 	1.935414382e-08
0.8910181784 	1.318061552 	-0.001528715514 	2.099735237e-08
0.8930653087 	1.315227727 	-0.001539696924 	2.271395798e-08
0.8950898473 	1.312311317 	-0.001549078468 	2.450376379e-08
0.8970920436 	1.309308523 	-0.001556816115 	2.636557767e-08
0.8990721441 	1.306215538 	-0.001562868056 	2.829694972e-08
0.9010303927 	1.30302857 	-0.00156719537 	3.02939554e-08
0.9029670306 	1.29974386 	-0.001569762708 	3.235107323e-08
0.9048822962 	1.296357705 	-0.001570538928 	3.446120152e-08
0.9067764254 	1.292866475 	-0.001569497642 	3.661583848e-08
0.9086496514 	1.289266621 	-0.001566617615 	3.880541534e-08
0.910502205 	1.285554686 	-0.001561882986 	4.101973317e-08
0.9123343142 	1.281727307 	-0.001555283301 	4.324842379e-08
0.9141462048 	1.277781215 	-0.001546813381 	4.548134854e-08
0.9159380997 	1.273713234 	-0.001536473087 	4.770886764e-08
0.9177102197 	1.269520281 	-0.001524267043 	4.992194943e-08
0.9194627831 	1.265199366 	-0.0015102044 	5.211213214e-08
0.9211960055 	1.260747597 	-0.001494298679 	5.427139061e-08
0.9229101006 	1.256162184 	-0.001476567725 	5.639193107e-08
0.9246052793 	1.251440449 	-0.001457033846 	5.846603368e-08
0.9262817504 	1.246579833 	-0.001435723999 	6.048598582e-08
0.9279397204 	1.241577906 	-0.001412671555 	6.244197731e-08
0.9295793934 	1.236432364 	-0.00138791676 	6.432893703e-08
0.9312009714 	1.231141027 	-0.001361501303 	6.613690356e-08
0.9328046541 	1.225701708 	-0.00133352335 	6.779600479e-08
0.9343906389 	1.220112026 	-0.001303818894 	6.977734047e-08
0.9359591211 	1.214369493 	-0.001272045148 	7.110773662e-08
0.937510294 	1.208469625 	-0.001239622465 	7.179895108e-08
0.9390443485 	1.202401776 	-0.001206657661 	7.357089821e-08
0.9405614735 	1.19615304 	-0.001171111355 	7.493452719e-08
0.942061856 	1.189718213 	-0.001133907766 	7.54572617e-08
0.9435456805 	1.18310001 	-0.001096105152 	7.60766971e-08
0.9450131299 	1.176303694 	-0.00105728183 	7.645794179e-08
0.946464385 	1.169335178 	-0.001017589321 	7.658579733e-08
0.9478996243 	1.162200309 	-0.0009771890045 	7.645478044e-08
0.9493190246 	1.154904233 	-0.0009362327342 	7.605725568e-08
0.9507227608 	1.147451162 	-0.000894865116 	7.537881963e-08
0.9521110058 	1.139844369 	-0.0008532297385 	7.44010965e-08
0.9534839303 	1.132086297 	-0.000811470043 	7.310207045e-08
0.9548417036 	1.124178697 	-0.0007697306095 	7.145720824e-08
0.9561844929 	1.116122758 	-0.0007281585117 	6.944115019e-08
0.9575124634 	1.107919229 	-0.0006869042895 	6.702970554e-08
0.9588257788 	1.099568498 	-0.0006461221193 	6.42020088e-08
0.9601246008 	1.091070667 	-0.0006059693292 	6.09426116e-08
0.9614090893 	1.082425607 	-0.0005666098491 	5.724222275e-08
0.9626794024 	1.073633023 	-0.0005282221657 	5.309773518e-08
0.9639356968 	1.065454914 	-0.0004940525247 	4.893165207e-08
0.9647540487 	1.058737326 	-0.0004671218979 	4.530725052e-08
0.9655573034 	1.052781944 	-0.0004441369147 	4.195407956e-08
0.9663457395 	1.046830532 	-0.0004220326902 	3.848478389e-08
0.9671196303 	1.040883712 	-0.0004008148208 	3.492048091e-08
0.9678792442 	1.034941919 	-0.0003804920038 	3.128070709e-08
0.9686248445 	1.02900533 	-0.0003610703144 	2.758584207e-08
0.9693566897 	1.023073821 	-0.0003425510874 	2.385752369e-08
0.9700750337 	1.017146937 	-0.0003249311319 	2.0118154e-08
0.9707801255 	1.011223875 	-0.0003082030141 	1.638986419e-08
0.9714722095 	1.005303478 	-0.0002923552941 	1.269302338e-08
0.9721515258 	0.9993842346 	-0.0002773728226 	9.044722427e-09
0.9728183099 	0.9934642847 	-0.0002632371001 	5.458118455e-09
0.9734727929 	0.9875414251 	-0.0002499266474 	1.943690655e-09
0.9741152019 	0.9816131175 	-0.0002374173104 	-1.486946699e-09
0.9747457596 	0.9756764957 	-0.0002256824229 	-4.815159509e-09
0.9753646845 	0.9697283698 	-0.0002146927919 	-8.009525979e-09
0.9759721914 	0.9637652296 	-0.0002044165616 	-1.102405322e-08
0.9765684907 	0.9577832455 	-0.0001948191438 	-1.380488658e-08
0.9771537895 	0.9517782727 	-0.0001858635084 	-1.630860567e-08
0.9777282904 	0.9457458594 	-0.0001775111411 	-1.853062456e-08
0.9782921928 	0.9396812644 	-0.0001697237698 	-2.053313844e-08
0.9788456922 	0.9335794813 	-0.0001624657868 	-2.246286708e-08
0.9793889805 	0.927435263 	-0.0001557065426 	-2.453786082e-08
0.979922246 	0.9212431333 	-0.0001494199522 	-2.694670381e-08
0.9804456737 	0.914997374 	-0.0001435770739 	-2.947467078e-08
0.9809594451 	0.9086919763 	-0.0001381682291 	-3.256316643e-08
0.9814637383 	0.9023205404 	-0.0001331730993 	-3.633399893e-08
0.9819587281 	0.8958762075 	-0.0001285251764 	-3.930556336e-08
0.9824445862 	0.8893517566 	-0.0001241673133 	-4.133744858e-08
0.9829214811 	0.8827396787 	-0.0001201050699 	-4.306040683e-08
0.9833895781 	0.8760320772 	-0.0001162846497 	-4.422835341e-08
0.9838490396 	0.8692207426 	-0.0001125866619 	-4.4765615e-08
0.9843000247 	0.8622973884 	-0.0001090082387 	-4.481974836e-08
0.98474269 	0.8552535435 	-0.0001055775173 	-4.422699889e-08
0.9851771888 	0.8480802298 	-0.0001022645895 	-4.326372818e-08
0.9856036719 	0.8407678489 	-9.902755432e-05 	-4.26296252e-08
0.9860222871 	0.833306221 	-9.585614097e-05 	-4.18288154e-08
0.9864331796 	0.8256845757 	-9.275619115e-05 	-4.050744027e-08
0.9868364919 	0.8178915018 	-8.971974692e-05 	-3.91872707e-08
0.9872323637 	0.8099149059 	-8.673842811e-05 	-3.794793128e-08
0.9876209323 	0.8017419524 	-8.38009533e-05 	-3.66595913e-08
0.9880023326 	0.7933589951 	-8.089992841e-05 	-3.53245139e-08
0.9883766967 	0.7847514979 	-7.802896887e-05 	-3.395142399e-08
0.9887441544 	0.7759039499 	-7.518273374e-05 	-3.254750107e-08
0.9891048331 	0.7667997742 	-7.235691874e-05 	-3.111960721e-08
0.9894588579 	0.7574212334 	-6.95482092e-05 	-2.967513482e-08
0.9898063516 	0.7477493314 	-6.675420041e-05 	-2.822152595e-08
0.9901474347 	0.7377637113 	-6.397332452e-05 	-2.676596531e-08
0.9904822253 	0.7274425533 	-6.120478548e-05 	-2.531524501e-08
0.9908108397 	0.7167624726 	-5.844850068e-05 	-2.387570789e-08
0.9911333916 	0.7056984218 	-5.5705042e-05 	-2.245322619e-08
0.9914499931 	0.6942235964 	-5.297563106e-05 	-2.105320611e-08
0.9917607538 	0.6823093372 	-5.02622015e-05 	-1.968059951e-08
0.9920657815 	0.669925074 	-4.756745646e-05 	-1.833994233e-08
0.9923651819 	0.6570383585 	-4.489422098e-05 	-1.703542848e-08
0.992659059 	0.6436149244 	-4.224111654e-05 	-1.577098859e-08
0.9929475145 	0.629618787 	-3.96116127e-05 	-1.454715052e-08
0.9932306485 	0.6150124178 	-3.707144368e-05 	-1.336781683e-08
0.9935085592 	0.5997566664 	-3.492340892e-05 	-1.222505754e-08
0.9937813429 	0.5852006653 	-3.217166453e-05 	-1.147571811e-08
0.9939569055 	0.5729208381 	-2.9866338e-05 	-1.047837126e-08
0.9941324681 	0.5616411031 	-2.926474426e-05 	-9.368442482e-09
0.9943080307 	0.5498620723 	-2.786154331e-05 	-9.233547437e-09
0.9944835934 	0.5375487687 	-2.574613863e-05 	-8.812948321e-09
0.994659156 	0.5246671461 	-2.415425842e-05 	-7.944335559e-09
0.9948347186 	0.5111821838 	-2.266396663e-05 	-7.377622329e-09
0.9950102812 	0.4970578805 	-2.119266567e-05 	-6.824390723e-09
0.9951858439 	0.482258012 	-1.975979983e-05 	-6.28708349e-09
0.9953614065 	0.4667469477 	-1.837668397e-05 	-5.768943269e-09
0.9955369691 	0.4504908426 	-1.704705828e-05 	-5.271587173e-09
0.9957125317 	0.4334592701 	-1.576777062e-05 	-4.794876145e-09
0.9958880943 	0.4156273437 	-1.452653092e-05 	-4.338436653e-09
0.996063657 	0.396978359 	-1.329903041e-05 	-3.90204306e-09
0.9962392196 	0.3775069017 	-1.204910176e-05 	-3.485762011e-09
0.9964147822 	0.3572222164 	-1.073578667e-05 	-3.090116604e-09
0.9965903448 	0.3361514033 	-9.330134223e-06 	-2.71614403e-09
0.9967659075 	0.3143417319 	-7.839114232e-06 	-2.365144352e-09
0.9969414701 	0.2918611369 	-6.324245081e-06 	-2.038067856e-09
0.9971170327 	0.2687959739 	-4.896045315e-06 	-1.734862323e-09
0.9972925953 	0.2452455639 	-3.674792322e-06 	-1.4543997e-09
0.997468158 	0.2213139904 	-2.734678192e-06 	-1.19530931e-09
0.9976437206 	0.1971007163 	-2.069438127e-06 	-9.571932483e-10
0.9978192832 	0.1726922584 	-1.605484657e-06 	-7.412094013e-10
0.9979948458 	0.1481568938 	-1.250207427e-06 	-5.495808504e-10
0.9981704085 	0.1235432532 	-9.377868064e-07 	-3.845890146e-10
0.9983459711 	0.09888231586 	-6.458198416e-07 	-2.478818666e-10
0.9985215337 	0.0741914427 	-3.847333894e-07 	-1.404373563e-10
0.9986970963 	0.0494789405 	-1.780712701e-07 	-6.300152226e-11
0.998872659 	0.02474802983 	-4.915437365e-08 	-1.711053487e-11
0.9990482216 	0.01042228631 	-5.726751598e-09 	-1.968814951e-12
0.9990482216 	0.01042228631 	-5.726751598e-09 	-1.968814951e-12
