0.3675691744 	2.054650776e-07 	-5.121800854e-10 	1.313875655e-13 	2.047785262e-07 	-4.025910273e-11 	3.903647863e-10
0.3677500057 	2.520063154e-06 	-2.464682799e-08 	8.715588279e-12 	2.501053814e-06 	-6.661701446e-10 	4.767703701e-09
0.3679308446 	1.420892809e-05 	-3.241310041e-07 	1.233599044e-10 	1.399491734e-05 	-3.95594512e-09 	2.667820214e-08
0.3681116904 	4.775824629e-05 	-2.022268236e-06 	7.865977185e-10 	4.650099195e-05 	-1.334667377e-08 	8.864381493e-08
0.3682925426 	0.0001189981573 	-8.15249137e-06 	3.160771271e-09 	0.0001140704595 	-3.245711784e-08 	2.1745e-07
0.3684734006 	0.0002453106994 	-2.462477058e-05 	9.348946055e-09 	0.0002306458805 	-6.404052855e-08 	4.39675153e-07
0.3686542637 	0.0004438369748 	-6.046332269e-05 	2.212896857e-08 	0.0004081347283 	-1.09195392e-07 	7.780182274e-07
0.3688351313 	0.0007288085743 	-0.0001266911365 	4.403161738e-08 	0.0006543886917 	-1.667929433e-07 	1.247446724e-06
0.3690160028 	0.001108283335 	-0.0002337515291 	7.605825094e-08 	0.0009714362641 	-2.333871667e-07 	1.851827516e-06
0.3691968776 	0.001581452799 	-0.0003883234228 	1.168098003e-07 	0.001354641642 	-3.038177363e-07 	2.582323473e-06
0.3693777551 	0.00213790404 	-0.0005910527223 	1.626921532e-07 	0.001793279307 	-3.723677961e-07 	3.418488776e-06
0.3695586347 	0.002759389572 	-0.0008363176998 	2.091021024e-07 	0.002272419578 	-4.340034075e-07 	4.331863303e-06
0.3697395158 	0.003423361035 	-0.001113926161 	2.518295382e-07 	0.002775455988 	-4.852134176e-07 	5.290790511e-06
0.3699203977 	0.004106806307 	-0.001411678637 	2.87956718e-07 	0.003286456188 	-5.24250843e-07 	6.264898917e-06
0.3701012798 	0.00478918958 	-0.001717672213 	3.160695742e-07 	0.003791781473 	-5.508821563e-07 	7.22818936e-06
0.3702821617 	0.00545407881 	-0.002021741542 	3.35894956e-07 	0.004280757487 	-5.656840866e-07 	8.160313545e-06
0.3704630425 	0.006089463349 	-0.002316056619 	3.48115306e-07 	0.004745895704 	-5.707818902e-07 	9.046996265e-06
0.3706439218 	0.006687239378 	-0.002595459138 	3.544750068e-07 	0.005182934119 	-5.677591926e-07 	9.880112953e-06
0.370824799 	0.007241140985 	-0.002849383256 	3.347547623e-07 	0.00559142051 	-5.629759003e-07 	1.065880155e-05
0.3710056733 	0.007746845265 	-0.003062664782 	3.103814913e-07 	0.005973803511 	-5.546323529e-07 	1.138772982e-05
0.3711865443 	0.008207623233 	-0.003244600596 	3.024110324e-07 	0.006329054514 	-5.389739224e-07 	1.206493697e-05
0.3713674113 	0.0086285454 	-0.003411154278 	2.921375784e-07 	0.006654899129 	-5.189311616e-07 	1.268608737e-05
0.3715482738 	0.009011314815 	-0.003562699835 	2.799880945e-07 	0.006951587725 	-4.952742799e-07 	1.32516583e-05
0.371729131 	0.009357900024 	-0.003699871105 	2.665583246e-07 	0.007220087076 	-4.696659028e-07 	1.376349269e-05
0.3719099825 	0.009670208023 	-0.003823557824 	2.521422915e-07 	0.007462261386 	-4.42457507e-07 	1.422514423e-05
0.3720908276 	0.009950415579 	-0.003934642652 	2.37025597e-07 	0.00767978928 	-4.141570058e-07 	1.463981286e-05
0.3722716657 	0.01020074366 	-0.004034018412 	2.214512743e-07 	0.007874355258 	-3.852123016e-07 	1.501070969e-05
0.3724524963 	0.01042338372 	-0.004122565777 	2.056232135e-07 	0.0080476181 	-3.560003194e-07 	1.534099682e-05
0.3726333187 	0.01062046836 	-0.004201132217 	1.897126938e-07 	0.0082011546 	-3.268334876e-07 	1.563368006e-05
0.3728141323 	0.01079400036 	-0.004270545851 	1.738701523e-07 	0.008336541332 	-2.979804763e-07 	1.58917648e-05
0.3729949365 	0.01096516812 	-0.004338548106 	1.567937964e-07 	0.008470977896 	-2.686828752e-07 	1.614803826e-05
0.3732758447 	0.01114302532 	-0.004408349679 	1.331558071e-07 	0.008611871852 	-2.276385904e-07 	1.64166213e-05
0.3735620054 	0.01129973981 	-0.004469694964 	1.104320456e-07 	0.008736793416 	-1.86764618e-07 	1.665475652e-05
0.3738535141 	0.01142000162 	-0.00451696835 	8.861930489e-08 	0.008833585044 	-1.480943e-07 	1.683926826e-05
0.3741504675 	0.01150656576 	-0.004551159331 	6.809310063e-08 	0.008904534214 	-1.12218534e-07 	1.69745171e-05
0.374452964 	0.01156197802 	-0.004573163552 	4.920713861e-08 	0.008951541791 	-7.972087303e-08 	1.706412661e-05
0.3747611033 	0.01158849862 	-0.004583810057 	3.230872107e-08 	0.008976321467 	-5.120051603e-08 	1.711136356e-05
0.3750749871 	0.01158812714 	-0.004583848938 	1.775019336e-08 	0.008980386081 	-2.729032881e-08 	1.711911184e-05
0.3753947182 	0.01156262184 	-0.004573946086 	5.900164933e-09 	0.008965047675 	-8.675163088e-09 	1.708987258e-05
0.3755993181 	0.01153174833 	-0.0045618363 	3.735449532e-07 	0.00894391187 	-6.667443474e-07 	1.704958186e-05
0.3757202004 	0.0115134954 	-0.004554675021 	3.104875102e-09 	0.008931414232 	-4.37755099e-09 	1.702575788e-05
0.3760513922 	0.01144203713 	-0.004526525372 	9.190436849e-09 	0.008880414204 	-1.171246565e-08 	1.692853766e-05
0.376388741 	0.01134937246 	-0.004489928015 	1.154481733e-08 	0.008812849783 	-1.17685083e-08 	1.679974109e-05
0.3767323563 	0.01123639987 	-0.004445222441 	9.66849073e-09 	0.008729337967 	-3.550922477e-09 	1.664054436e-05
0.3770823489 	0.01110381945 	-0.004392670677 	2.991518582e-09 	0.008630339118 	1.408356816e-08 	1.645182504e-05
0.3774388313 	0.01095213458 	-0.004332458279 	-9.140750951e-09 	0.008516160693 	4.245233831e-08 	1.623416922e-05
0.3778019175 	0.01078165202 	-0.004264695509 	-2.748094091e-08 	0.008386962323 	8.306634753e-08 	1.598788122e-05
0.3781717233 	0.01059248279 	-0.004189419448 	-5.288950865e-08 	0.008242763906 	1.376402191e-07 	1.571299896e-05
0.3785483659 	0.01038457017 	-0.004106605581 	-8.629702233e-08 	0.008083471669 	2.080113299e-07 	1.540934369e-05
0.3789319641 	0.01015790189 	-0.004016254334 	-1.283091154e-07 	0.007909056877 	2.953261367e-07 	1.507686062e-05
0.3793226385 	0.009913028821 	-0.003918605464 	-1.78452042e-07 	0.007719997851 	3.984878774e-07 	1.471646157e-05
0.3797205109 	0.009651277885 	-0.003814225072 	-2.356106473e-07 	0.007517458601 	5.150705489e-07 	1.433036546e-05
0.3801257049 	0.009374101088 	-0.003703732572 	-2.997482013e-07 	0.007302723111 	6.448800947e-07 	1.392101994e-05
0.3805383456 	0.009082391029 	-0.003587514565 	-3.721122757e-07 	0.007076599186 	7.903974708e-07 	1.348996489e-05
0.3809585596 	0.008776480787 	-0.003465729064 	-4.540835191e-07 	0.006839426744 	9.54410002e-07 	1.303784829e-05
0.381386475 	0.008456246668 	-0.003338326927 	-5.467643213e-07 	0.006591089663 	1.139142809e-06 	1.25644488e-05
0.3818233582 	0.008119289857 	-0.003204375544 	-6.51579348e-07 	0.006329778475 	1.347444872e-06 	1.206631704e-05
0.3822794906 	0.007763533921 	-0.003063070914 	-7.710429902e-07 	0.006053922752 	1.584363771e-06 	1.154045937e-05
0.3827440409 	0.007391384089 	-0.002915369966 	-9.037513619e-07 	0.005765355532 	1.846957771e-06 	1.099037004e-05
0.3832171622 	0.007005395122 	-0.002762309421 	-1.048712316e-06 	0.005466110628 	2.133171499e-06 	1.041992608e-05
0.3836990102 	0.006606388057 	-0.002604233393 	-1.203977161e-06 	0.005156875696 	2.438921512e-06 	9.830438357e-06
0.3841897433 	0.006195807506 	-0.002441739801 	-1.366839261e-06 	0.00483886516 	2.758609704e-06 	9.224221889e-06
0.384689523 	0.005775700122 	-0.002275664291 	-1.53379426e-06 	0.004513779765 	3.085074716e-06 	8.604518772e-06
0.3851985134 	0.005348741842 	-0.002107088522 	-1.699771578e-06 	0.004183821573 	3.408019064e-06 	7.97552675e-06
0.3857168816 	0.004918367617 	-0.001937390275 	-1.858040685e-06 	0.003851796493 	3.713801403e-06 	7.342594667e-06
0.3862447977 	0.004488865837 	-0.001768280715 	-2.000128397e-06 	0.003521197218 	3.98518163e-06 	6.712380563e-06
0.3867824347 	0.004065423695 	-0.001601820647 	-2.116065651e-06 	0.00319624591 	4.201785095e-06 	6.092933056e-06
0.3873299689 	0.003654091046 	-0.001440388098 	-2.195422773e-06 	0.002881813496 	4.343014131e-06 	5.493537482e-06
0.3878875794 	0.003261706205 	-0.001286535178 	-2.22954656e-06 	0.002582933452 	4.395295888e-06 	4.923789049e-06
0.3884554486 	0.002894700378 	-0.001142949028 	-2.091669129e-06 	0.002305508063 	4.093275911e-06 	4.394939152e-06
0.3890337624 	0.002557675871 	-0.00101141602 	-1.875129994e-06 	0.002054565466 	3.60389934e-06 	3.916572816e-06
0.3896227096 	0.002248276691 	-0.0008789249582 	-1.971577965e-06 	0.001829031414 	3.185283719e-06 	3.486642228e-06
0.3902224824 	0.001959215588 	-0.0007336560254 	-2.015059931e-06 	0.001621961251 	2.869999819e-06 	3.091908945e-06
0.3908332767 	0.001689369662 	-0.0005924090771 	-1.714997905e-06 	0.001428054904 	2.579333042e-06 	2.722269555e-06
0.3914552915 	0.001442423584 	-0.0004696544833 	-1.424117596e-06 	0.001247720114 	2.259604578e-06 	2.378501324e-06
0.3920887296 	0.00122202466 	-0.0003635837677 	-1.160550387e-06 	0.001084014308 	1.908569247e-06 	2.066432556e-06
0.3927337972 	0.001031817244 	-0.0002735978405 	-9.088280032e-07 	0.0009409390304 	1.525794604e-06 	1.793691312e-06
0.3933907042 	0.0008745184263 	-0.0001996712065 	-6.7958513e-07 	0.0008223801557 	1.142435829e-06 	1.567685145e-06
0.3940596643 	0.0007513511234 	-0.0001410556569 	-4.845073482e-07 	0.0007303336443 	7.894476783e-07 	1.392218912e-06
0.3947408949 	0.0006610652203 	-9.610254835e-05 	-3.313808704e-07 	0.0006646538178 	4.945681225e-07 	1.267014908e-06
0.3954346172 	0.0005997009129 	-6.237893772e-05 	-2.194473372e-07 	0.0006227987507 	2.722685261e-07 	1.187227517e-06
0.3961494788 	0.0005618996338 	-3.727249233e-05 	-1.412099193e-07 	0.0006008776437 	1.176118259e-07 	1.145439794e-06
0.3968878893 	0.0005427162034 	-1.861901867e-05 	-8.846693011e-08 	0.0005950740629 	2.143961358e-08 	1.134376556e-06
0.3976397877 	0.0005374429306 	-4.757411989e-06 	-5.403940697e-08 	0.0006013908592 	-2.684601002e-08 	1.146418126e-06
0.3984054155 	0.0005415162023 	5.640600784e-06 	-3.180819953e-08 	0.0006157558967 	-4.33734655e-08 	1.17380188e-06
0.3991850187 	0.0005514706351 	1.357700802e-05 	-1.759234089e-08 	0.000635052809 	-4.205176043e-08 	1.210587158e-06
0.3999788474 	0.0005650599656 	1.975846572e-05 	-8.644457047e-09 	0.0006572782388 	-3.143288803e-08 	1.252955004e-06
0.4007871563 	0.0005808853967 	2.469170165e-05 	-3.127170901e-09 	0.0006812391062 	-1.618120952e-08 	1.298631077e-06
0.4015479658 	0.0005967892404 	2.843581553e-05 	1.343773365e-08 	0.0007043724468 	7.919119774e-08 	1.342729654e-06
0.4016101199 	0.0005980902414 	2.87423854e-05 	-2.468561776e-10 	0.0007062650973 	-1.328777214e-09 	1.346337572e-06
0.4024470408 	0.0006161527667 	3.216678831e-05 	-2.701010302e-09 	0.0007320064644 	-1.975195014e-08 	1.395407772e-06
0.4032992213 	0.000634713913 	3.517501083e-05 	-4.036921842e-09 	0.000758302765 	-3.913088638e-08 	1.44553583e-06
0.4041669344 	0.0006559596043 	3.823376348e-05 	-4.62718989e-09 	0.0007885538705 	-5.929351485e-08 	1.503202844e-06
0.4054980656 	0.0006820389178 	4.169362927e-05 	-5.201322244e-09 	0.0008256223915 	-9.038939836e-08 	1.573865748e-06
0.4068429052 	0.0007102792815 	4.52702433e-05 	-5.220589755e-09 	0.0008655691059 	-1.222313068e-07 	1.650015288e-06
0.4082015963 	0.0007381803658 	4.878608789e-05 	-5.143429449e-09 	0.0009050345939 	-1.547820755e-07 	1.725247477e-06
0.4095742835 	0.0007658742621 	5.233147128e-05 	-5.035316435e-09 	0.0009443887488 	-1.882405433e-07 	1.800267435e-06
0.4109925526 	0.0007935767645 	5.597587805e-05 	-4.935100102e-09 	0.0009840694409 	-2.238282815e-07 	1.875909862e-06
0.4124285917 	0.0008212851614 	5.976140751e-05 	-4.823812489e-09 	0.001024016479 	-2.607604065e-07 	1.95206002e-06
0.4138792945 	0.000848873518 	6.367840373e-05 	-4.678252751e-09 	0.001064068077 	-2.986070931e-07 	2.028409497e-06
0.4153448143 	0.0008762986641 	6.773677282e-05 	-4.480305235e-09 	0.001104204387 	-3.371733946e-07 	2.104920458e-06
0.4168253059 	0.0009035573277 	7.194840404e-05 	-3.716241868e-09 	0.001144407469 	-3.314015611e-07 	2.181558708e-06
0.4183209264 	0.0009306521093 	7.63184274e-05 	-2.797137099e-09 	0.00118467104 	-2.997439547e-07 	2.258312264e-06
0.4198318349 	0.0009575904526 	8.084552452e-05 	-2.029585769e-09 	0.001225027408 	-2.671616381e-07 	2.335242719e-06
0.4213581924 	0.0009844004363 	8.55436766e-05 	-1.397540209e-09 	0.001265478182 	-2.336641268e-07 	2.412353137e-06
0.4229001622 	0.001011184715 	9.041729562e-05 	-8.874706768e-10 	0.001306181241 	-1.992683685e-07 	2.48994448e-06
0.4244819438 	0.001038068934 	9.548649737e-05 	-4.873266188e-10 	0.001347395278 	-1.633071404e-07 	2.568509889e-06
0.4260925758 	0.001065014255 	0.0001007622055 	-1.948189739e-10 	0.001388984755 	-1.261601474e-07 	2.647790991e-06
0.4277195391 	0.001091875736 	0.0001062022682 	-1.048452861e-11 	0.00143068006 	-8.822710204e-08 	2.727273831e-06
0.4293630066 	0.001118588408 	0.0001117830898 	6.42637115e-11 	0.001472420659 	-4.95368625e-08 	2.806843014e-06
0.4310231538 	0.001145145399 	0.0001174978308 	2.746412812e-11 	0.001514205083 	-1.011691282e-08 	2.88649574e-06
0.431448537 	0.001151836696 	0.0001189774734 	5.951216094e-08 	0.001524812628 	4.080157493e-07 	2.906716669e-06
0.4326988195 	0.001171530361 	0.0001233319057 	5.785877577e-11 	0.001556031053 	-2.975025255e-08 	2.966227663e-06
0.4343910777 	0.001197737316 	0.000129284272 	2.326202246e-10 	0.001597860448 	-7.027179881e-08 	3.045966116e-06
0.436100568 	0.001223822729 	0.000135353087 	5.383868497e-10 	0.001639754963 	-1.115661585e-07 	3.125828705e-06
0.4378450104 	0.001249880774 	0.0001415443309 	1.012506572e-09 	0.0016819484 	-1.542074573e-07 	3.206261124e-06
0.4396278893 	0.001275887381 	0.0001478755755 	1.700894385e-09 	0.001724392226 	-1.983365393e-07 	3.287170853e-06
0.4414287725 	0.001301679138 	0.0001543080198 	2.632698e-09 	0.001766777605 	-2.434041591e-07 	3.367969165e-06
0.4432478542 	0.001327126875 	0.0001608034912 	3.82057384e-09 	0.001808988701 	-2.895036223e-07 	3.448435247e-06
0.445085332 	0.001352168508 	0.0001673643851 	5.262911617e-09 	0.001851042839 	-3.368104892e-07 	3.528602122e-06
0.4469414059 	0.001376729023 	0.0001739896858 	6.951974608e-09 	0.001892982788 	-3.856140039e-07 	3.608551322e-06
0.4488162792 	0.001400760292 	0.0001807089678 	8.434980575e-09 	0.001934842396 	-4.1482102e-07 	3.688347368e-06
0.4507145584 	0.001424255601 	0.0001875264143 	8.431669244e-09 	0.00197697603 	-3.765120556e-07 	3.768665785e-06
0.4526669111 	0.001447134243 	0.0001945164026 	8.086683993e-09 	0.002019710757 	-3.369264394e-07 	3.850130052e-06
0.4546388831 	0.001469136535 	0.0002017159157 	7.37565411e-09 	0.002062910753 	-2.968923414e-07 	3.932481252e-06
0.4566306909 	0.001489963464 	0.0002091097622 	6.283296605e-09 	0.002106629707 	-2.559759789e-07 	4.015821728e-06
0.4586425543 	0.001509373695 	0.0002167817714 	4.856079832e-09 	0.002151171971 	-2.135862365e-07 	4.100731665e-06
0.4606746966 	0.001527132143 	0.0002248406214 	3.220233052e-09 	0.002196807633 	-1.688934536e-07 	4.187725921e-06
0.4627273447 	0.001543017294 	0.0002334149759 	1.599457492e-09 	0.002243935277 	-1.208439348e-07 	4.277564307e-06
0.4648189542 	0.001556790505 	0.0002426810682 	3.376327798e-10 	0.002293126071 	-6.747465145e-08 	4.371335632e-06
0.466953052 	0.001568177702 	0.0002528591699 	-4.056627222e-11 	0.002344615656 	-7.132537093e-09 	4.469489092e-06
0.4671922495 	0.001569140193 	0.0002541077297 	4.889859306e-08 	0.002350585397 	2.153424634e-07 	4.480869078e-06
0.469107006 	0.001576880351 	0.0002640971893 	-1.028305398e-09 	0.002398378865 	-5.893187963e-08 	4.571976712e-06
0.4712824151 	0.00158268359 	0.0002765598125 	-4.201635208e-09 	0.002454510951 	-1.331064101e-07 	4.678980068e-06
0.4734797172 	0.001585439365 	0.0002904927757 	-1.030543719e-08 	0.002513191585 	-2.168625453e-07 	4.790841667e-06
0.4756991628 	0.001585050956 	0.0003061598866 	-2.034692291e-08 	0.002574625892 	-3.110757625e-07 	4.907952531e-06
0.4779561872 	0.001581536943 	0.0003239293625 	-3.575240483e-08 	0.002638887115 	-4.151979046e-07 	5.030452282e-06
0.4802602884 	0.00157478816 	0.0003447603251 	-6.846589724e-08 	0.002705881862 	-5.354188292e-07 	5.15816289e-06
0.4825874655 	0.001565581262 	0.0003694711079 	-9.107725212e-08 	0.002771364039 	-5.53704225e-07 	5.282990118e-06
0.4849379871 	0.001562356537 	0.0003907916134 	-4.642601787e-08 	0.002811505586 	-3.520160269e-07 	5.359511065e-06
0.4873121266 	0.001566683372 	0.0004064729224 	-8.347652337e-09 	0.002825188416 	-2.284787163e-07 	5.385594341e-06
0.4897101617 	0.001571905474 	0.0004207658573 	9.501004236e-09 	0.002834517321 	-2.285468511e-07 	5.403377827e-06
0.492163323 	0.001576997531 	0.0004330206434 	3.249835546e-08 	0.002843680669 	-2.085915526e-07 	5.420845714e-06
0.4946490888 	0.00158176971 	0.0004432985297 	4.551245044e-08 	0.002852600839 	-1.842737991e-07 	5.437850038e-06
0.4971597453 	0.001586075059 	0.0004519128605 	4.990329247e-08 	0.002861097791 	-1.571050384e-07 	5.45404759e-06
0.4996955911 	0.001589887803 	0.0004593075378 	4.829059103e-08 	0.002868993267 	-1.290118142e-07 	5.469098563e-06
0.5022569303 	0.001593211324 	0.0004657664512 	4.269011377e-08 	0.002876264957 	-1.01297959e-07 	5.482960424e-06
0.5048675072 	0.001596068345 	0.0004715262085 	3.428932283e-08 	0.002882935681 	-7.432646179e-08 	5.495676678e-06
0.507518827 	0.001598508065 	0.0004768124953 	2.407018926e-08 	0.002888979245 	-4.859120887e-08 	5.507197391e-06
0.5101966917 	0.001600565572 	0.0004816869956 	1.275308307e-08 	0.00289445923 	-2.432403181e-08 	5.517643766e-06
0.5129014286 	0.00160230157 	0.0004862578901 	7.674286165e-10 	0.002899429081 	-1.398492492e-09 	5.527117682e-06
0.5130736398 	0.001602393184 	0.0004865286235 	3.92446759e-09 	0.002899717798 	-2.849969564e-08 	5.527668058e-06
0.5156320481 	0.001603756828 	0.0004905514441 	1.138204115e-08 	0.002904004274 	-2.052287667e-08 	5.535839272e-06
0.518419256 	0.001604983318 	0.0004946539502 	2.393092571e-08 	0.002908276278 	-4.174759647e-08 	5.543982899e-06
0.5212419599 	0.001606038269 	0.0004986603461 	3.659462164e-08 	0.002912255583 	-6.218599392e-08 	5.55156856e-06
0.5240930218 	0.001606949059 	0.0005025413515 	4.921643866e-08 	0.002916021134 	-8.193114346e-08 	5.558746747e-06
0.5269728009 	0.001607748377 	0.0005063291104 	6.171977128e-08 	0.002919619273 	-1.011238887e-07 	5.565605801e-06
0.5298914659 	0.001608451121 	0.0005100237906 	7.410173146e-08 	0.002923124165 	-1.199433118e-07 	5.572287099e-06
0.532864735 	0.001609085918 	0.0005136933007 	8.639019598e-08 	0.002926536998 	-1.385537022e-07 	5.578792906e-06
0.5358678962 	0.001609672615 	0.0005173504008 	9.840209456e-08 	0.002929861534 	-1.567799687e-07 	5.585130397e-06
0.538901337 	0.001610224759 	0.0005209879618 	1.101231605e-07 	0.002933116634 	-1.746550911e-07 	5.591335522e-06
0.5419666093 	0.001610737053 	0.0005245784907 	1.215419601e-07 	0.00293635911 	-1.921995336e-07 	5.597516582e-06
0.5450948104 	0.001611220591 	0.0005281726469 	1.181313834e-07 	0.002939581011 	-1.864647211e-07 	5.603658422e-06
0.5482545274 	0.001611695188 	0.0005318124743 	1.064647111e-07 	0.002942741407 	-1.679437435e-07 	5.609683015e-06
0.5514461789 	0.001612160222 	0.00053545972 	9.502454828e-08 	0.002945861015 	-1.499362707e-07 	5.615629854e-06
0.5546709803 	0.001612604308 	0.0005390883642 	8.381640314e-08 	0.002948978474 	-1.323859837e-07 	5.621572598e-06
0.5579586754 	0.001613033662 	0.000542740652 	7.272907028e-08 	0.002952077223 	-1.150453949e-07 	5.627479674e-06
0.5612796104 	0.001613467587 	0.000546463222 	6.193857763e-08 	0.002955103216 	-9.819364779e-08 	5.633248059e-06
0.564634237 	0.001613894005 	0.000550197041 	5.145348614e-08 	0.002958090619 	-8.17930473e-08 	5.638942878e-06
0.5680294603 	0.001614304925 	0.0005539371155 	4.124404997e-08 	0.002961053569 	-6.577142205e-08 	5.644591085e-06
0.5714814891 	0.001614708474 	0.00055772304 	3.126872977e-08 	0.002963963398 	-5.004023958e-08 	5.650138027e-06
0.5749685919 	0.001615117644 	0.0005615811219 	2.163974713e-08 	0.002966778725 	-3.477207959e-08 	5.655504824e-06
0.5784912566 	0.001615513244 	0.0005654485411 	1.235558478e-08 	0.002969542664 	-1.994255976e-08 	5.660773658e-06
0.5820660421 	0.001615895327 	0.0005693466429 	3.355546281e-09 	0.00297224279 	-5.441996045e-09 	5.665920849e-06
0.583462122 	0.001616042991 	0.0005708783139 	3.88842374e-09 	0.002973241573 	-2.621914295e-07 	5.667824808e-06
0.5856870712 	0.001616277768 	0.0005733172172 	5.251373475e-09 	0.002974829511 	-8.637836417e-09 	5.67085186e-06
0.5893448323 	0.001616655675 	0.0005773356428 	1.344932766e-08 	0.002977307041 	-2.224754523e-08 	5.675574719e-06
0.593044075 	0.001617016639 	0.0005813760906 	2.12934269e-08 	0.002979697098 	-3.543489403e-08 	5.680130834e-06
0.5968014921 	0.001617369405 	0.0005854756256 	2.881756392e-08 	0.002981965772 	-4.825944221e-08 	5.684455556e-06
0.6005975097 	0.001617725834 	0.0005896600673 	3.594189365e-08 	0.002984069734 	-6.0601517e-08 	5.688466293e-06
0.6044326823 	0.001618063816 	0.0005938671044 	4.267744528e-08 	0.002986052981 	-7.247575872e-08 	5.692246913e-06
0.6083262453 	0.001618389959 	0.0005981274656 	4.907221212e-08 	0.002987886736 	-8.395921846e-08 	5.695742559e-06
0.6122629626 	0.001618721385 	0.0006024836969 	5.505496261e-08 	0.002989514669 	-9.494897905e-08 	5.698845852e-06
0.6162404639 	0.00161903682 	0.0006068749588 	6.063343538e-08 	0.002990977037 	-1.054448024e-07 	5.701633531e-06
0.6202729019 	0.001619340969 	0.0006113205823 	6.584184383e-08 	0.002992250781 	-1.154977157e-07 	5.704061641e-06
0.6243530268 	0.001619650923 	0.0006158629408 	7.063282814e-08 	0.002993281087 	-1.250400164e-07 	5.706025692e-06
0.6284756376 	0.00161994897 	0.0006204523549 	7.501072045e-08 	0.002994098386 	-1.340611604e-07 	5.707583691e-06
0.6326526999 	0.001620239665 	0.0006251013799 	7.900374096e-08 	0.002994682157 	-1.425968959e-07 	5.70869652e-06
0.6368792419 	0.001620539979 	0.0006298493753 	8.257376637e-08 	0.002994979328 	-1.505902976e-07 	5.709263011e-06
0.6411500483 	0.001620833247 	0.0006346504131 	8.573156881e-08 	0.002995018168 	-1.580350171e-07 	5.709337051e-06
0.6454768345 	0.001621127643 	0.0006395203321 	8.850129799e-08 	0.002994772774 	-1.649553165e-07 	5.708869261e-06
0.6498531354 	0.001621438922 	0.000644491294 	9.084899228e-08 	0.002994194987 	-1.712957939e-07 	5.707767839e-06
0.65427556 	0.001621750777 	0.0006495180939 	9.279748276e-08 	0.002993314578 	-1.770617288e-07 	5.706089535e-06
0.6587567266 	0.001622079022 	0.0006546288965 	9.280730257e-08 	0.002992091946 	-1.792561867e-07 	5.703758858e-06
0.6632864859 	0.001622432995 	0.0006598363401 	8.833434471e-08 	0.0029904975 	-1.727865205e-07 	5.700719401e-06
0.6678663167 	0.001622803631 	0.0006651080977 	8.416175706e-08 	0.002988550477 	-1.667651928e-07 	5.697007833e-06
0.6725042632 	0.001623211982 	0.0006704670431 	8.027745529e-08 	0.002986207323 	-1.611722925e-07 	5.69254113e-06
0.6771398434 	0.00162365141 	0.0006758507208 	7.672529572e-08 	0.002983498277 	-1.560994599e-07 	5.687376936e-06
0.6817269438 	0.001624121154 	0.0006812042669 	7.350200661e-08 	0.00298046096 	-1.515343976e-07 	5.681586965e-06
0.6862659936 	0.001624641414 	0.0006865415576 	7.059342779e-08 	0.002977081005 	-1.4746016e-07 	5.675143832e-06
0.6907531043 	0.001625205069 	0.0006918347705 	6.798044251e-08 	0.002973402367 	-1.43842786e-07 	5.668131326e-06
0.6951949272 	0.001625827115 	0.0006971000153 	6.562551523e-08 	0.002969426328 	-1.40623342e-07 	5.66055189e-06
0.6995877647 	0.001626520174 	0.000702351914 	6.351820035e-08 	0.002965150351 	-1.378016117e-07 	5.652400689e-06
0.7039307073 	0.001627276482 	0.0007075629428 	6.163830689e-08 	0.00296062203 	-1.353290377e-07 	5.643768451e-06
0.7082302496 	0.001628117642 	0.0007127568319 	5.995860089e-08 	0.002955832031 	-1.331578828e-07 	5.634637382e-06
0.7124812566 	0.001629051299 	0.0007179376008 	5.847126253e-08 	0.002950792827 	-1.312834874e-07 	5.62503126e-06
0.7166846618 	0.001630075837 	0.000723087353 	5.715777324e-08 	0.002945545502 	-1.296561138e-07 	5.615028399e-06
0.7208449964 	0.001631214779 	0.0007282312036 	5.599987297e-08 	0.002940080932 	-1.282425606e-07 	5.604611411e-06
0.7249584804 	0.001632473064 	0.0007333673436 	5.499149115e-08 	0.002934422129 	-1.270295007e-07 	5.593824158e-06
0.729026125 	0.001633854524 	0.0007384857177 	5.41181306e-08 	0.002928605161 	-1.259720448e-07 	5.582735401e-06
0.7330514326 	0.001635383393 	0.0007436097305 	5.336717359e-08 	0.002922625224 	-1.2504249e-07 	5.571335978e-06
0.7370316237 	0.001637066095 	0.0007487388279 	5.273489803e-08 	0.002916507531 	-1.242254436e-07 	5.559673956e-06
0.7409673456 	0.001638907964 	0.0007538647017 	5.221192421e-08 	0.002910290382 	-1.234816674e-07 	5.547822342e-06
0.744861872 	0.001640934622 	0.0007590089705 	5.178855601e-08 	0.002903974191 	-1.227824214e-07 	5.535781926e-06
0.7487129188 	0.00164315723 	0.0007641769364 	5.146353237e-08 	0.002897580336 	-1.221143229e-07 	5.52359346e-06
0.7525210598 	0.001645579737 	0.0007693584975 	5.123297289e-08 	0.00289115403 	-1.214434683e-07 	5.511343136e-06
0.7562885687 	0.001648229063 	0.0007745728365 	5.108887076e-08 	0.002884702475 	-1.20739109e-07 	5.49904468e-06
0.7600145333 	0.00165112276 	0.0007798323741 	5.103198925e-08 	0.002878241149 	-1.199894364e-07 	5.486727596e-06
0.7636991078 	0.001654263424 	0.0007851261938 	5.106332582e-08 	0.002871821065 	-1.191667701e-07 	5.474489132e-06
0.7673436288 	0.001657677265 	0.0007904692129 	5.117699972e-08 	0.002865459274 	-1.182396892e-07 	5.462361789e-06
0.7709484819 	0.001661387982 	0.0007958787194 	5.137490929e-08 	0.002859168414 	-1.171957536e-07 	5.450369661e-06
0.7745133872 	0.001665401045 	0.0008013486971 	5.166116565e-08 	0.002852996889 	-1.160141283e-07 	5.43860502e-06
0.7780389421 	0.001669736804 	0.0008068860317 	5.203441752e-08 	0.00284697757 	-1.146673714e-07 	5.427130524e-06
0.7815265585 	0.001674423574 	0.0008125090511 	5.249571418e-08 	0.002841126309 	-1.131374586e-07 	5.415976396e-06
0.784975603 	0.0016794762 	0.0008182232518 	5.305047629e-08 	0.002835478348 	-1.114112537e-07 	5.405209812e-06
0.7883865467 	0.001684905646 	0.0008240265478 	5.171487429e-08 	0.002830084307 	-1.054151193e-07 	5.39492727e-06
0.7917602851 	0.001690740906 	0.0008299343115 	5.044375421e-08 	0.00282496947 	-9.938551327e-08 	5.385176969e-06
0.7950971832 	0.001697006995 	0.0008359614336 	4.923990999e-08 	0.002820159165 	-9.33514749e-08 	5.376007191e-06
0.7983972724 	0.001703715178 	0.0008421084196 	4.810603863e-08 	0.002815703522 	-8.733636738e-08 	5.367513498e-06
0.8016609923 	0.001710885537 	0.0008483815769 	4.704243735e-08 	0.002811646886 	-8.136134841e-08 	5.359780422e-06
0.8048892448 	0.001718549156 	0.0008547982775 	4.604298401e-08 	0.002808015835 	-7.543892041e-08 	5.35285863e-06
0.8080820428 	0.001726729117 	0.0008613707986 	4.510073855e-08 	0.002804844977 	-6.958057432e-08 	5.346814092e-06
0.8112396897 	0.001735440002 	0.0008681024649 	4.421549407e-08 	0.00280218652 	-6.380691063e-08 	5.341746335e-06
0.8143625974 	0.001744707998 	0.0008750049273 	4.338343683e-08 	0.002800081151 	-5.813399869e-08 	5.337732917e-06
0.8174515457 	0.001754566538 	0.0008820970533 	4.259574636e-08 	0.002798556636 	-5.257098046e-08 	5.334826767e-06
0.8205065383 	0.001765040346 	0.0008893917403 	4.184447785e-08 	0.0027976508 	-4.712884104e-08 	5.333099992e-06
0.8235279445 	0.001776149446 	0.0008968969518 	4.112610757e-08 	0.002797412273 	-4.18231942e-08 	5.332645294e-06
0.8265161521 	0.001787923222 	0.000904626815 	4.043481207e-08 	0.002797880381 	-3.666620221e-08 	5.333537636e-06
0.8294717838 	0.001800397378 	0.0009126009889 	3.976143819e-08 	0.002799083267 	-3.166614152e-08 	5.335830671e-06
0.8323949679 	0.001813600004 	0.0009208343751 	3.909784666e-08 	0.002801056997 	-2.683412705e-08 	5.33959315e-06
0.8352860472 	0.001827555127 	0.0009293381436 	3.844106358e-08 	0.002803845537 	-2.218680875e-08 	5.344908882e-06
0.8381453877 	0.001842294108 	0.0009381275984 	3.778818862e-08 	0.002807485845 	-1.774140389e-08 	5.35184832e-06
0.8409734693 	0.001857857245 	0.0009472240471 	3.71350028e-08 	0.002812001322 	-1.35147413e-08 	5.360456074e-06
0.8437705646 	0.001874282379 	0.0009566475816 	3.64754174e-08 	0.002817415438 	-9.523969446e-09 	5.370776885e-06
0.8465369613 	0.001891601985 	0.000966413873 	3.580576515e-08 	0.002823759726 	-5.784795817e-09 	5.382870862e-06
0.8492730063 	0.001909851339 	0.0009765394184 	3.51180801e-08 	0.002831063395 	-2.302316806e-09 	5.396793684e-06
0.851979068 	0.001929066382 	0.0009870411273 	3.43984818e-08 	0.002839352831 	9.327141262e-10 	5.412595652e-06
0.8546555343 	0.00194927215 	0.0009979309005 	3.362620138e-08 	0.002848662294 	3.940950874e-09 	5.430342076e-06
0.8573026396 	0.001970470252 	0.001009208744 	3.278278523e-08 	0.002859050362 	6.744477397e-09 	5.450144622e-06
0.859920713 	0.001992647845 	0.001020868662 	3.185640506e-08 	0.002870587113 	9.355268323e-09 	5.472136875e-06
0.862510079 	0.002015787436 	0.00103290425 	3.084620759e-08 	0.002883340857 	1.176002131e-08 	5.496449057e-06
0.8650710966 	0.002039885415 	0.001045317515 	2.976459732e-08 	0.002897354599 	1.391102176e-08 	5.523163144e-06
0.8676040616 	0.002064967921 	0.001058125108 	2.863374045e-08 	0.002912628371 	1.5728767e-08 	5.552279198e-06
0.8701092526 	0.002091106605 	0.001071362075 	2.748288832e-08 	0.002929110126 	1.712520952e-08 	5.583698005e-06
0.8725869784 	0.002118433151 	0.00108508614 	2.633349032e-08 	0.002946684541 	1.803805486e-08 	5.617199723e-06
0.8750375438 	0.002147119091 	0.001099366423 	2.518793254e-08 	0.002965203364 	1.846263934e-08 	5.652501748e-06
0.8774612751 	0.002177330388 	0.001114263518 	2.402382504e-08 	0.002984538366 	1.846707484e-08 	5.689359635e-06
0.8798584493 	0.002209156951 	0.001129802681 	2.27979099e-08 	0.003004653018 	1.817798119e-08 	5.727703752e-06
0.8822293439 	0.00224254731 	0.001145952222 	2.146463896e-08 	0.00302566154 	1.774325618e-08 	5.767751834e-06
0.8845742495 	0.002277284119 	0.001162622092 	1.99909387e-08 	0.003047827375 	1.727880644e-08 	5.810006076e-06
0.886893453 	0.00231300249 	0.001179677593 	1.836874315e-08 	0.003071514697 	1.682673234e-08 	5.855160697e-06
0.8891872474 	0.002349267031 	0.001196970413 	1.661772987e-08 	0.003097083657 	1.634384144e-08 	5.90390224e-06
0.8914559102 	0.002385684887 	0.001214376258 	1.477796442e-08 	0.003124765525 	1.572113453e-08 	5.956671574e-06
0.8936997032 	0.002422027281 	0.001231829116 	1.29036616e-08 	0.003154560753 	1.482951117e-08 	6.013469559e-06