0.4709477638 	-1.558503927e-06 	-0.005348081591 	-1.634434228e-08 	1.564192485e-06 	5.01666546e-10 	2.981785621e-09
0.4711221554 	-1.571202765e-06 	-0.005344423048 	-1.500577158e-08 	1.567901479e-06 	5.248100531e-10 	2.988855995e-09
0.471296547 	-1.612335055e-06 	-0.005336406087 	-1.288057602e-08 	1.607628155e-06 	6.005228014e-10 	3.06458608e-09
0.4714709388 	-1.656979337e-06 	-0.005328128429 	-1.077646887e-08 	1.660761999e-06 	6.954055141e-10 	3.165873954e-09
0.4716453306 	-1.695697092e-06 	-0.005319233798 	-8.714695319e-09 	1.708486725e-06 	7.88441376e-10 	3.256850548e-09
0.4718197225 	-1.730498166e-06 	-0.005309134263 	-6.725415383e-09 	1.75479216e-06 	8.856898563e-10 	3.345121576e-09
0.4719941144 	-1.755818475e-06 	-0.005297022932 	-4.844142258e-09 	1.788441504e-06 	9.86554636e-10 	3.409266578e-09
0.4721685065 	-1.763564453e-06 	-0.005282011924 	-3.104007485e-09 	1.792937175e-06 	1.090524019e-09 	3.417836577e-09
0.4723428986 	-1.748386616e-06 	-0.005263411904 	-1.523181172e-09 	1.75692497e-06 	1.196875935e-09 	3.349187305e-09
0.4725172908 	-1.713957033e-06 	-0.005241083277 	-9.261436125e-11 	1.686626418e-06 	1.304324536e-09 	3.215178727e-09
0.4726916831 	-1.67435844e-06 	-0.005215699899 	1.227447762e-09 	1.6085981e-06 	1.411300564e-09 	3.066435065e-09
0.4728660755 	-1.647552418e-06 	-0.005188755994 	2.496656755e-09 	1.556806329e-06 	1.517040642e-09 	2.967705556e-09
0.4730404679 	-1.645290954e-06 	-0.005162260064 	3.772931221e-09 	1.552713259e-06 	1.622369754e-09 	2.959903026e-09
0.4732148605 	-1.667678906e-06 	-0.00513823201 	5.091324548e-09 	1.594681053e-06 	1.729291302e-09 	3.039905306e-09
0.4733892531 	-1.705897998e-06 	-0.005118222178 	6.454160882e-09 	1.663608616e-06 	1.839726494e-09 	3.171300399e-09
0.4735636458 	-1.749259467e-06 	-0.005103033779 	7.83522469e-09 	1.737094884e-06 	1.954482086e-09 	3.311385649e-09
0.4737380385 	-1.79069055e-06 	-0.005092701748 	9.192811122e-09 	1.80036542e-06 	2.073057679e-09 	3.431996876e-09
0.4739124314 	-1.828151567e-06 	-0.005086663348 	1.048395843e-08 	1.849007615e-06 	2.194076215e-09 	3.524722419e-09
0.4740868243 	-1.863184472e-06 	-0.005084008953 	1.167464055e-08 	1.885959585e-06 	2.315830611e-09 	3.595163144e-09
0.4742612173 	-1.898791862e-06 	-0.005083718931 	1.274447934e-08 	1.917175492e-06 	2.436653655e-09 	3.65466934e-09
0.4744356104 	-1.93793564e-06 	-0.00508483649 	1.368704655e-08 	1.94855529e-06 	2.555087595e-09 	3.714487955e-09
0.4746100035 	-1.98287179e-06 	-0.005086565865 	1.450760574e-08 	1.98457211e-06 	2.669935905e-09 	3.783146025e-09
0.4747843968 	-2.035046444e-06 	-0.005088308329 	1.521986811e-08 	2.02804338e-06 	2.780268429e-09 	3.866014348e-09
0.4749587901 	-2.095288568e-06 	-0.005089656534 	1.584273829e-08 	2.080510225e-06 	2.885423947e-09 	3.966030738e-09
0.4751331835 	-2.164227837e-06 	-0.005090366637 	1.639749653e-08 	2.14307617e-06 	2.985038024e-09 	4.085298818e-09
0.475307577 	-2.242851724e-06 	-0.005090323555 	1.690543605e-08 	2.217527793e-06 	3.07906225e-09 	4.227224304e-09
0.4754819705 	-2.332740949e-06 	-0.005089516478 	1.738508543e-08 	2.306807693e-06 	3.167574725e-09 	4.397416608e-09
0.4756563641 	-2.390748522e-06 	-0.005088004362 	1.785510249e-08 	2.324548527e-06 	3.236983367e-09 	4.431235567e-09
0.4758307578 	-2.431283009e-06 	-0.005085850654 	1.833300314e-08 	2.299429674e-06 	3.325267405e-09 	4.383352052e-09
0.4760051516 	-2.628077329e-06 	-0.005083290724 	1.878968815e-08 	2.577963525e-06 	3.445790285e-09 	4.914314986e-09
0.4761795455 	-2.91446496e-06 	-0.005078949861 	1.97225607e-08 	3.008771302e-06 	3.484345619e-09 	5.735554347e-09
0.4764505135 	-3.033496974e-06 	-0.005069289116 	2.086838216e-08 	3.055629446e-06 	3.517746406e-09 	5.824878992e-09
0.4767265746 	-3.131591458e-06 	-0.005056227698 	2.174742733e-08 	3.020645354e-06 	3.649931536e-09 	5.75818959e-09
0.4770078244 	-3.403014422e-06 	-0.005043447396 	2.270500653e-08 	3.306322213e-06 	3.755100218e-09 	6.302769083e-09
0.4772943605 	-3.719825026e-06 	-0.005030747508 	2.372031198e-08 	3.656704846e-06 	3.822738317e-09 	6.970695765e-09
0.4775862823 	-4.020723166e-06 	-0.005018119809 	2.479368483e-08 	3.949291515e-06 	3.912332732e-09 	7.528447277e-09
0.477883691 	-4.347077041e-06 	-0.005005558668 	2.592018051e-08 	4.266843593e-06 	4.00759217e-09 	8.133789796e-09
0.4781866897 	-4.699845441e-06 	-0.004993049597 	2.709968057e-08 	4.611799369e-06 	4.10930715e-09 	8.79137138e-09
0.4784953834 	-5.076957381e-06 	-0.004980598437 	2.832791911e-08 	4.980904671e-06 	4.219210549e-09 	9.494988674e-09
0.4788098793 	-5.476514767e-06 	-0.004968212556 	2.959240814e-08 	5.371724286e-06 	4.33851387e-09 	1.023999948e-08
0.4791302864 	-5.896599306e-06 	-0.004955885668 	3.088813337e-08 	5.782329949e-06 	4.467437302e-09 	1.1022728e-08
0.4794567158 	-6.334721786e-06 	-0.004943613024 	3.220911939e-08 	6.210206479e-06 	4.605321023e-09 	1.183837959e-08
0.4797892807 	-6.787756011e-06 	-0.004931388956 	3.354978249e-08 	6.652174548e-06 	4.750448165e-09 	1.268089357e-08
0.4801280965 	-7.251942874e-06 	-0.004919206257 	3.490511009e-08 	7.10446681e-06 	4.900869511e-09 	1.354308832e-08
0.4804732805 	-7.723026005e-06 	-0.004907056286 	3.626902002e-08 	7.563038796e-06 	5.056390753e-09 	1.441725398e-08
0.4808249525 	-8.196109684e-06 	-0.004894929814 	3.762933117e-08 	8.023179361e-06 	5.213556107e-09 	1.529440979e-08
0.4811832346 	-8.659996305e-06 	-0.004882817742 	3.896755317e-08 	8.467905074e-06 	5.280263541e-09 	1.61421806e-08
0.4815482508 	-9.104352873e-06 	-0.004870710831 	4.02633564e-08 	8.882371495e-06 	5.273039407e-09 	1.69322688e-08
0.4819201278 	-9.554402861e-06 	-0.004858606064 	4.143150586e-08 	9.321026301e-06 	5.683084758e-09 	1.776846678e-08
0.4822991814 	-1.003074804e-05 	-0.004846219283 	4.46297161e-08 	9.820161346e-06 	6.492641166e-09 	1.87199569e-08
0.4826854948 	-1.048338603e-05 	-0.004832754664 	5.374367145e-08 	1.026693377e-05 	6.495554019e-09 	1.957162932e-08
0.4830790692 	-1.089540741e-05 	-0.0048179323 	6.58899933e-08 	1.062070785e-05 	5.983515178e-09 	2.024602103e-08
0.4834800412 	-1.132766062e-05 	-0.004802422449 	7.218577941e-08 	1.101024518e-05 	6.658145051e-09 	2.098858746e-08
0.4838885498 	-1.17868366e-05 	-0.004786729363 	7.384086694e-08 	1.146094418e-05 	7.732040483e-09 	2.1847745e-08
0.4843047367 	-1.222955585e-05 	-0.004770916832 	7.572126524e-08 	1.189227935e-05 	7.981340416e-09 	2.266998973e-08
0.4847287461 	-1.264569899e-05 	-0.004754986259 	7.728865002e-08 	1.228622239e-05 	8.152832448e-09 	2.342095466e-08
0.4851607251 	-1.304178793e-05 	-0.004738941909 	7.873818174e-08 	1.265813532e-05 	8.551598168e-09 	2.412992407e-08
0.4856008235 	-1.3417255e-05 	-0.004722788737 	8.006902778e-08 	1.300900885e-05 	8.931652385e-09 	2.479878654e-08
0.486049194 	-1.377004854e-05 	-0.004706536284 	8.123113603e-08 	1.333644665e-05 	9.315772344e-09 	2.5422974e-08
0.486505992 	-1.409875922e-05 	-0.004690194857 	8.221575179e-08 	1.363907182e-05 	9.700723132e-09 	2.599986166e-08
0.4869713759 	-1.440216005e-05 	-0.00467377339 	8.301894865e-08 	1.39156335e-05 	1.008441676e-08 	2.652706509e-08
0.4874455071 	-1.467924546e-05 	-0.004657278851 	8.364024889e-08 	1.416513886e-05 	1.046597217e-08 	2.700269167e-08
0.4879285501 	-1.492918027e-05 	-0.004640715928 	8.408033179e-08 	1.438678104e-05 	1.084405075e-08 	2.742520326e-08
0.4884206723 	-1.51512571e-05 	-0.004624086883 	8.434010539e-08 	1.457988223e-05 	1.121760957e-08 	2.779330779e-08
0.4889220444 	-1.534486911e-05 	-0.004607391495 	8.44205718e-08 	1.474386709e-05 	1.158575854e-08 	2.810590852e-08
0.4894328402 	-1.550948472e-05 	-0.004590627038 	8.432267169e-08 	1.487823685e-05 	1.194774253e-08 	2.836205462e-08
0.489953237 	-1.564462649e-05 	-0.004573788312 	8.404713304e-08 	1.498254817e-05 	1.230290933e-08 	2.856090099e-08
0.4904834151 	-1.574985341e-05 	-0.004556867684 	8.359432596e-08 	1.505639516e-05 	1.265068815e-08 	2.870167388e-08
0.4910235584 	-1.582475202e-05 	-0.004539855164 	8.296416305e-08 	1.509940512e-05 	1.299057142e-08 	2.878366282e-08
0.4915738543 	-1.586887033e-05 	-0.00452273848 	8.215610072e-08 	1.511111636e-05 	1.332200542e-08 	2.880598771e-08
0.4921344935 	-1.588174912e-05 	-0.004505503032 	8.116916452e-08 	1.509104775e-05 	1.3644573e-08 	2.876773135e-08
0.4927056705 	-1.586333491e-05 	-0.00448813117 	8.000264719e-08 	1.503948592e-05 	1.395841757e-08 	2.866944016e-08
0.4932877038 	-1.581326513e-05 	-0.004470600296 	7.866004059e-08 	1.49560823e-05 	1.426306163e-08 	2.85104497e-08
0.493881014 	-1.573051616e-05 	-0.004452885983 	7.714454241e-08 	1.483942325e-05 	1.455818021e-08 	2.828806511e-08
0.494485476 	-1.561474297e-05 	-0.004434967363 	7.544474289e-08 	1.468934592e-05 	1.484364748e-08 	2.800197601e-08
0.4951012995 	-1.546591581e-05 	-0.004416821155 	7.355409432e-08 	1.450609896e-05 	1.51194496e-08 	2.765265637e-08
0.4957286979 	-1.528359951e-05 	-0.004398418088 	7.146698821e-08 	1.428922764e-05 	1.538532103e-08 	2.723923937e-08
0.4963678888 	-1.506741215e-05 	-0.00437972597 	6.917699124e-08 	1.403835194e-05 	1.564103618e-08 	2.676100055e-08
0.4970190939 	-1.481709824e-05 	-0.004360709197 	6.667734312e-08 	1.375328737e-05 	1.588609862e-08 	2.621758826e-08
0.4976825391 	-1.453248229e-05 	-0.004341328341 	6.396135319e-08 	1.343391829e-05 	1.611965518e-08 	2.560878202e-08
0.4983584543 	-1.421352802e-05 	-0.004321539678 	6.102267789e-08 	1.308027597e-05 	1.634051678e-08 	2.493464148e-08
0.499047074 	-1.386038327e-05 	-0.004301294601 	5.785538838e-08 	1.269258649e-05 	1.654719576e-08 	2.419559757e-08
0.499748637 	-1.347342869e-05 	-0.004280538991 	5.445388543e-08 	1.227132475e-05 	1.673794361e-08 	2.339255561e-08
0.5004633866 	-1.305332933e-05 	-0.004259212602 	5.08129716e-08 	1.18172688e-05 	1.691074975e-08 	2.252699878e-08
0.5011915706 	-1.260126714e-05 	-0.004237248919 	4.692874188e-08 	1.133189639e-05 	1.706331548e-08 	2.160174407e-08
0.5019334415 	-1.211873874e-05 	-0.004214576187 	4.280113896e-08 	1.081687454e-05 	1.719294023e-08 	2.061996926e-08
0.5026892566 	-1.160757136e-05 	-0.004191120377 	3.843847498e-08 	1.027393882e-05 	1.729623154e-08 	1.958498288e-08
0.5034592781 	-1.107688286e-05 	-0.004166824924 	3.386175196e-08 	9.718553247e-06 	1.736953208e-08 	1.852626362e-08
0.5042438613 	-1.049874899e-05 	-0.004141655223 	2.910806048e-08 	9.091186991e-06 	1.740195621e-08 	1.733032917e-08
0.5050436692 	-9.881752498e-06 	-0.004115580996 	2.42218942e-08 	8.404813769e-06 	1.7394387e-08 	1.602191104e-08
0.5058585101 	-9.256580632e-06 	-0.004085574344 	1.856206727e-08 	7.787656313e-06 	1.733287242e-08 	1.48454374e-08
0.5071094171 	-8.4905875e-06 	-0.004046761429 	1.174018457e-08 	7.0357748e-06 	1.720974972e-08 	1.341214226e-08
0.5083742844 	-7.580184028e-06 	-0.004001530771 	4.453254712e-09 	6.053854542e-06 	1.697918095e-08 	1.154032934e-08
0.5096532679 	-6.712402174e-06 	-0.003954122425 	-2.755282764e-09 	5.132012274e-06 	1.672417695e-08 	9.783041764e-09
0.5109465251 	-5.912913502e-06 	-0.00390469627 	-9.766438148e-09 	4.312703646e-06 	1.644332972e-08 	8.221211804e-09
0.5122542152 	-5.147688543e-06 	-0.003853417541 	-1.639065927e-08 	3.520765457e-06 	1.610462921e-08 	6.711557508e-09
0.5135764994 	-4.43542858e-06 	-0.003800447876 	-2.252644075e-08 	2.78595221e-06 	1.571554991e-08 	5.310799228e-09
0.5149135406 	-3.782193078e-06 	-0.003745920411 	-2.812380305e-08 	2.113910675e-06 	1.529241538e-08 	4.029701278e-09
0.5162662944 	-3.190474371e-06 	-0.003689969585 	-3.311350493e-08 	1.505963006e-06 	1.484326274e-08 	2.870784051e-09
0.5176342307 	-2.661949932e-06 	-0.003632753617 	-3.746105412e-08 	9.641604215e-07 	1.437715224e-08 	1.837957738e-09
0.5190174329 	-2.196406587e-06 	-0.003574438599 	-4.115629237e-08 	4.885100527e-07 	1.390622617e-08 	9.312359351e-10
0.5204160715 	-1.791213144e-06 	-0.003515179995 	-4.420577473e-08 	7.619056839e-08 	1.343964955e-08 	1.452403996e-10
0.5218303186 	-1.442404541e-06 	-0.00345512469 	-4.66353319e-08 	-2.769949045e-07 	1.298444351e-08 	-5.280292745e-10
0.5232603485 	-1.145107884e-06 	-0.003394407753 	-4.848530577e-08 	-5.762193758e-07 	1.254546465e-08 	-1.098434282e-09
0.5247063373 	-8.943963606e-07 	-0.003333148631 	-4.980427915e-08 	-8.263003577e-07 	1.212662839e-08 	-1.57515814e-09
0.5261686128 	-6.84915506e-07 	-0.00327144482 	-5.063866295e-08 	-1.03278282e-06 	1.172945143e-08 	-1.968771102e-09
0.5276479262 	-5.10706628e-07 	-0.00320937942 	-5.103755664e-08 	-1.202159191e-06 	1.135455357e-08 	-2.29164954e-09
0.5291437481 	-3.666915691e-07 	-0.003147035005 	-5.106884238e-08 	-1.339453274e-06 	1.100209397e-08 	-2.553370222e-09
0.5306562627 	-2.483083487e-07 	-0.003084479137 	-5.07974158e-08 	-1.449222945e-06 	1.067141141e-08 	-2.762621723e-09
0.5321856561 	-1.510511976e-07 	-0.00302175757 	-5.027805059e-08 	-1.53613187e-06 	1.03611277e-08 	-2.928294289e-09
0.5337321168 	-7.075797225e-08 	-0.002958902917 	-4.956203267e-08 	-1.604602096e-06 	1.006948422e-08 	-3.05881757e-09
0.5352958352 	-4.205793714e-09 	-0.002895935016 	-4.869610206e-08 	-1.657652349e-06 	9.795389459e-09 	-3.159946097e-09
0.5368770803 	5.151500371e-08 	-0.002832856327 	-4.771489962e-08 	-1.698249422e-06 	9.536541904e-09 	-3.237335403e-09
0.5384767466 	9.947819058e-08 	-0.002769659907 	-4.664726958e-08 	-1.729906959e-06 	9.29065244e-09 	-3.297683467e-09
0.5400942639 	1.41704383e-07 	-0.002706345879 	-4.553826431e-08 	-1.754515358e-06 	9.056013425e-09 	-3.344593915e-09
0.5417298313 	1.796124111e-07 	-0.002642908283 	-4.442775477e-08 	-1.773420742e-06 	8.830627857e-09 	-3.380632831e-09
0.5433836504 	2.146354239e-07 	-0.002579328428 	-4.334329762e-08 	-1.78824832e-06 	8.612210985e-09 	-3.408898315e-09
0.5450559248 	2.476464129e-07 	-0.00251558427 	-4.230847329e-08 	-1.799847953e-06 	8.399239502e-09 	-3.431010441e-09
0.5467468603 	2.790794185e-07 	-0.002451648455 	-4.133861561e-08 	-1.808561452e-06 	8.190073896e-09 	-3.447620791e-09
0.5484571216 	3.094961101e-07 	-0.002387490002 	-4.043983769e-08 	-1.815191211e-06 	7.982741111e-09 	-3.460258954e-09
0.5501868379 	3.391536769e-07 	-0.002323087486 	-3.962501273e-08 	-1.820085432e-06 	7.775835915e-09 	-3.469588701e-09
0.551935856 	3.677835608e-07 	-0.002258429949 	-3.891336571e-08 	-1.822879636e-06 	7.568177217e-09 	-3.47491523e-09
0.5537043912 	3.950985588e-07 	-0.002193506735 	-3.831589768e-08 	-1.82338105e-06 	7.358336186e-09 	-3.475871064e-09
0.5554926614 	4.206468113e-07 	-0.002128308692 	-3.783679099e-08 	-1.821155797e-06 	7.145449457e-09 	-3.471629114e-09
0.5573008867 	4.437337631e-07 	-0.002062829109 	-3.74737233e-08 	-1.815436575e-06 	6.928830915e-09 	-3.460726687e-09
0.5591296733 	4.638811688e-07 	-0.001997063242 	-3.721630737e-08 	-1.805933874e-06 	6.707497665e-09 	-3.442611897e-09
0.560979278 	4.805502563e-07 	-0.001931018437 	-3.705994812e-08 	-1.792213168e-06 	6.481041842e-09 	-3.416456418e-09
0.5628495219 	4.92883018e-07 	-0.001864715243 	-3.700838317e-08 	-1.773333817e-06 	6.249387788e-09 	-3.380467128e-09
0.5647406352 	5.001696048e-07 	-0.00179817622 	-3.705908741e-08 	-1.748717252e-06 	6.012138e-09 	-3.333541113e-09
0.5666528508 	5.01555316e-07 	-0.001731424994 	-3.720370965e-08 	-1.717445384e-06 	5.76970793e-09 	-3.27392824e-09
0.5685864042 	4.962120105e-07 	-0.00166448476 	-3.742648172e-08 	-1.678710065e-06 	5.52219051e-09 	-3.200087958e-09
0.570542153 	4.836819692e-07 	-0.001597381185 	-3.770728481e-08 	-1.63232734e-06 	5.269631418e-09 	-3.111669592e-09
0.572519863 	4.63227422e-07 	-0.001530154616 	-3.803996855e-08 	-1.577521676e-06 	5.012913139e-09 	-3.007194765e-09
0.5745196412 	4.340683769e-07 	-0.001462852288 	-3.842100574e-08 	-1.513559996e-06 	4.752625985e-09 	-2.885266025e-09
0.5765417339 	3.954705594e-07 	-0.001395520982 	-3.88404298e-08 	-1.439774839e-06 	4.489572621e-09 	-2.744611007e-09
0.5785863901 	3.466053423e-07 	-0.00132820921 	-3.928339764e-08 	-1.355363646e-06 	4.224690629e-09 	-2.583699812e-09
0.580654223 	2.868063175e-07 	-0.001260969427 	-3.973051271e-08 	-1.259869879e-06 	3.958591945e-09 	-2.401662151e-09
0.5827454845 	2.153663898e-07 	-0.001193868281 	-4.016843039e-08 	-1.152749151e-06 	3.692241204e-09 	-2.197460271e-09
0.584860081 	1.314269745e-07 	-0.001126988311 	-4.0589481e-08 	-1.033263109e-06 	3.426748738e-09 	-1.969686667e-09
0.5869982727 	3.403075295e-08 	-0.001060420267 	-4.097903193e-08 	-9.00522682e-07 	3.161708801e-09 	-1.716646519e-09
0.5891603231 	-7.8107562e-08 	-0.0009942572866 	-4.131552066e-08 	-7.529549837e-07 	2.895832871e-09 	-1.435341472e-09
0.5913468362 	-2.062648538e-07 	-0.0009286065351 	-4.157269468e-08 	-5.890768171e-07 	2.632655533e-09 	-1.122944139e-09
0.5935580815 	-3.502477074e-07 	-0.0008636013012 	-4.171999615e-08 	-4.103651325e-07 	2.376171216e-09 	-7.822699976e-10
0.5957940003 	-5.092675147e-07 	-0.0007994038252 	-4.172120812e-08 	-2.189616222e-07 	2.123551025e-09 	-4.17401709e-10
0.5980548679 	-6.841592229e-07 	-0.0007362218587 	-4.153381612e-08 	-1.294345654e-08 	1.8739828e-09 	-2.467382557e-11
0.6003409626 	-8.752682595e-07 	-0.0006742942526 	-4.111900311e-08 	2.089080242e-07 	1.630934127e-09 	3.982367571e-10
0.6026530526 	-1.08112932e-06 	-0.0006138693759 	-4.044749434e-08 	4.442177474e-07 	1.396117805e-09 	8.468024906e-10
0.6049910812 	-1.300593074e-06 	-0.0005552121064 	-3.9501147e-08 	6.911573974e-07 	1.170445649e-09 	1.317538097e-09
0.6073551978 	-1.533180573e-06 	-0.0004986005935 	-3.82675286e-08 	9.489110704e-07 	9.547847303e-10 	1.808888236e-09
0.6097456934 	-1.778719972e-06 	-0.0004443197517 	-3.67355953e-08 	1.216902516e-06 	7.496309063e-10 	2.319754416e-09
0.6121630337 	-2.03747607e-06 	-0.000392656049 	-3.490217009e-08 	1.494925148e-06 	5.550507924e-10 	2.849742826e-09
0.6146077555 	-2.310237277e-06 	-0.0003438893126 	-3.278348204e-08 	1.783305202e-06 	3.708098295e-10 	3.399475359e-09
0.6170797555 	-2.598475466e-06 	-0.000298274798 	-3.042234667e-08 	2.083077224e-06 	1.961750734e-10 	3.970924151e-09
0.6195793382 	-2.904339441e-06 	-0.0002560129329 	-2.788171089e-08 	2.395967489e-06 	2.983315578e-11 	4.56737996e-09
0.6221068308 	-3.230301053e-06 	-0.0002172216281 	-2.523865934e-08 	2.723906061e-06 	-1.298749655e-10 	5.192522022e-09
0.6246630389 	-3.578756873e-06 	-0.0001819191099 	-2.258160124e-08 	3.068621211e-06 	-2.847249828e-10 	5.849644908e-09
0.6272477691 	-3.952264496e-06 	-0.0001500230859 	-1.999987329e-08 	3.432104542e-06 	-4.362053719e-10 	6.542545161e-09
0.6298613396 	-4.353132627e-06 	-0.0001213529262 	-1.757352528e-08 	3.816023063e-06 	-5.853702934e-10 	7.274400567e-09
0.6325040724 	-4.782597238e-06 	-9.564369627e-05 	-1.536040286e-08 	4.220897545e-06 	-7.334210166e-10 	8.046203859e-09
0.6351767681 	-5.241143347e-06 	-7.258400563e-05 	-1.33874968e-08 	4.64676797e-06 	-8.821154055e-10 	8.858031252e-09
0.637879297 	-5.728876036e-06 	-5.185018499e-05 	-1.166177968e-08 	5.093585938e-06 	-1.033057847e-09 	9.709790487e-09
0.6406119808 	-6.245260697e-06 	-3.312629293e-05 	-1.01733819e-08 	5.560721082e-06 	-1.187921626e-09 	1.060027991e-08
0.6433751986 	-6.78897412e-06 	-1.612023672e-05 	-8.898051198e-09 	6.046842347e-06 	-1.348218428e-09 	1.152696215e-08
0.6461696471 	-7.357896685e-06 	-5.739052187e-07 	-7.806865423e-09 	6.549972829e-06 	-1.514680086e-09 	1.248606868e-08
0.6489952759 	-7.949238336e-06 	1.373339726e-05 	-6.872570361e-09 	7.067613353e-06 	-1.687486578e-09 	1.347283539e-08
0.651852433 	-8.559676553e-06 	2.698791893e-05 	-6.070236481e-09 	7.596710262e-06 	-1.867032065e-09 	1.448144116e-08
0.6547416225 	-9.185527535e-06 	3.934539081e-05 	-5.377412912e-09 	8.133852287e-06 	-2.053638717e-09 	1.550538315e-08
0.6576632951 	-9.822927135e-06 	5.093424069e-05 	-4.775598766e-09 	8.675562704e-06 	-2.247206315e-09 	1.653803376e-08
0.6606175679 	-1.046781165e-05 	6.185983824e-05 	-4.250018711e-09 	9.21821284e-06 	-2.447650949e-09 	1.757247574e-08
0.6636048046 	-1.111588911e-05 	7.220947528e-05 	-3.787731571e-09 	9.757924018e-06 	-2.655099685e-09 	1.860131525e-08
0.6666256648 	-1.176259907e-05 	8.205577613e-05 	-3.377391753e-09 	1.029058932e-05 	-2.86926844e-09 	1.961672337e-08
0.669680296 	-1.240319595e-05 	9.145899281e-05 	-3.010125853e-09 	1.081212243e-05 	-3.088998693e-09 	2.061091042e-08
0.6727690111 	-1.303274607e-05 	0.0001004710625 	-2.679486391e-09 	1.131836399e-05 	-3.312897885e-09 	2.157594755e-08
0.6758923155 	-1.364604171e-05 	0.00010912527 	-2.38145381e-09 	1.18047085e-05 	-3.539020242e-09 	2.250305535e-08
0.6790506612 	-1.424410654e-05 	0.0001174628921 	-2.114282621e-09 	1.227212892e-05 	-3.766309951e-09 	2.339408859e-08
0.6822442482 	-1.483064007e-05 	0.0001255413993 	-1.877127406e-09 	1.272421516e-05 	-3.995194967e-09 	2.425589061e-08
0.6854734979 	-1.539607641e-05 	0.0001333675455 	-1.668353491e-09 	1.315274902e-05 	-4.224127605e-09 	2.507279526e-08
0.6887390312 	-1.592877818e-05 	0.0001409487679 	-1.484630063e-09 	1.354801737e-05 	-4.450851056e-09 	2.582628659e-08
0.6920410019 	-1.642447156e-05 	0.0001483186153 	-1.321659347e-09 	1.390700903e-05 	-4.674292047e-09 	2.651062446e-08
0.6953798168 	-1.687847881e-05 	0.0001554937113 	-1.175814982e-09 	1.422591869e-05 	-4.893134866e-09 	2.711855491e-08
0.698756113 	-1.728609141e-05 	0.0001624912324 	-1.045740034e-09 	1.450108081e-05 	-5.105137863e-09 	2.764309039e-08
0.7021701015 	-1.764271387e-05 	0.0001693285678 	-9.328983359e-10 	1.472917243e-05 	-5.30760292e-09 	2.807789642e-08
0.7056221843 	-1.794369985e-05 	0.0001760243918 	-8.4053125e-10 	1.490666228e-05 	-5.498553671e-09 	2.84162414e-08
0.7091129689 	-1.818479888e-05 	0.0001825987739 	-7.725064173e-10 	1.503050744e-05 	-5.676063667e-09 	2.86523247e-08
0.7126427354 	-1.836230092e-05 	0.0001890731987 	-7.320196349e-10 	1.509826933e-05 	-5.838281482e-09 	2.878149768e-08
0.7162118886 	-1.847297039e-05 	0.0001954708472 	-7.209440363e-10 	1.510781872e-05 	-5.98408592e-09 	2.879970148e-08
0.7198210316 	-1.851430659e-05 	0.0002018165967 	-7.400913425e-10 	1.505777782e-05 	-6.112117873e-09 	2.870430963e-08
0.723470467 	-1.848453347e-05 	0.0002081373718 	-7.892792314e-10 	1.494743874e-05 	-6.220956179e-09 	2.849397267e-08
0.7271606282 	-1.838246689e-05 	0.000214462681 	-8.677138348e-10 	1.477645488e-05 	-6.309746356e-09 	2.81680299e-08
0.7308921198 	-1.820775654e-05 	0.000220825761 	-9.747684498e-10 	1.454534815e-05 	-6.377412242e-09 	2.772747625e-08
0.7346652493 	-1.796122828e-05 	0.0002272449264 	-1.109188023e-09 	1.42557582e-05 	-6.422992981e-09 	2.717543732e-08
0.7384384104 	-1.764656404e-05 	0.0002337019976 	-1.268011725e-09 	1.391193615e-05 	-6.446068574e-09 	2.652001692e-08
0.7421700295 	-1.727058592e-05 	0.0002401831819 	-1.447882377e-09 	1.352085728e-05 	-6.446694642e-09 	2.57745119e-08
0.7458604665 	-1.68405365e-05 	0.0002467146307 	-1.645990926e-09 	1.308916564e-05 	-6.426206272e-09 	2.495158765e-08
0.7495102185 	-1.636325281e-05 	0.0002533379801 	-1.859913297e-09 	1.262266558e-05 	-6.386576095e-09 	2.406230889e-08
0.7531197524 	-1.584564642e-05 	0.0002600943616 	-2.087404372e-09 	1.212723253e-05 	-6.329558251e-09 	2.311787579e-08
0.756689452 	-1.529441911e-05 	0.0002670254434 	-2.326177222e-09 	1.160838855e-05 	-6.257387888e-09 	2.212881495e-08
0.7602197968 	-1.471600507e-05 	0.0002741733452 	-2.574131201e-09 	1.107133896e-05 	-6.172317056e-09 	2.110504918e-08
0.7637112218 	-1.411657246e-05 	0.0002815808342 	-2.829112741e-09 	1.052109387e-05 	-6.076283372e-09 	2.00561291e-08
0.7671641163 	-1.350176718e-05 	0.0002892914422 	-3.088885292e-09 	9.962040062e-06 	-5.971575469e-09 	1.899041716e-08
0.7705789354 	-1.287675797e-05 	0.0002973493911 	-3.351252502e-09 	9.398119821e-06 	-5.860376634e-09 	1.791542845e-08
0.7739561018 	-1.224627462e-05 	0.000305799707 	-3.613820008e-09 	8.832961216e-06 	-5.744510325e-09 	1.683807907e-08
0.7772959987 	-1.161441791e-05 	0.0003146882571 	-3.873948689e-09 	8.269526738e-06 	-5.626024739e-09 	1.576401636e-08
0.7805990549 	-1.098472635e-05 	0.0003240616407 	-4.128755559e-09 	7.710283314e-06 	-5.506845142e-09 	1.469794296e-08
0.7838656901 	-1.036024335e-05 	0.0003339672021 	-4.374862418e-09 	7.157353379e-06 	-5.388531512e-09 	1.364390482e-08
0.7870962757 	-9.743385964e-06 	0.0003444529843 	-4.608310819e-09 	6.612248868e-06 	-5.272743778e-09 	1.260478412e-08
0.7902912146 	-9.135992046e-06 	0.0003555676344 	-4.82446337e-09 	6.075972167e-06 	-5.16104663e-09 	1.158249168e-08
0.7934509267 	-8.539399027e-06 	0.0003673603539 	-5.01782196e-09 	5.549174638e-06 	-5.054656667e-09 	1.057826917e-08
0.7965757693 	-7.954386763e-06 	0.0003798808323 	-5.181998033e-09 	5.032020167e-06 	-4.95472635e-09 	9.592429016e-09
0.7996661275 	-7.381169486e-06 	0.0003931792628 	-5.309679675e-09 	4.524155826e-06 	-4.862434926e-09 	8.624298429e-09
0.802722403 	-6.819483227e-06 	0.0004073063341 	-5.39248008e-09 	4.02487759e-06 	-4.778765916e-09 	7.672535344e-09
0.8057449565 	-6.26861369e-06 	0.0004223132782 	-5.420671006e-09 	3.533144675e-06 	-4.704512042e-09 	6.735155737e-09
0.8087341544 	-5.727351953e-06 	0.0004382520322 	-5.383130592e-09 	3.047448051e-06 	-4.640483727e-09 	5.80928298e-09
0.811690371 	-5.194096414e-06 	0.0004551753673 	-5.267333267e-09 	2.565974111e-06 	-4.587290053e-09 	4.891459831e-09
0.8146139778 	-4.666939657e-06 	0.000473137007 	-5.059653883e-09 	2.086716798e-06 	-4.545246187e-09 	3.97786219e-09
0.8175053211 	-4.143664689e-06 	0.0004921917034 	-4.746151793e-09 	1.60739888e-06 	-4.514570264e-09 	3.064149018e-09
0.8203647569 	-3.621816294e-06 	0.0005123952697 	-4.313113265e-09 	1.125538634e-06 	-4.495362157e-09 	2.145589464e-09
0.8231926472 	-3.098827938e-06 	0.0005338043931 	-3.747701066e-09 	6.386200447e-07 	-4.487483003e-09 	1.217387301e-09
0.8259893348 	-2.572100731e-06 	0.0005564762103 	-3.038785869e-09 	1.441562157e-07 	-4.490596053e-09 	2.748018132e-10
0.8287551595 	-2.039040216e-06 	0.0005804676942 	-2.177621239e-09 	-3.603299957e-07 	-4.504350764e-09 	-6.868891203e-10
0.831490462 	-1.497165348e-06 	0.0006058347631 	-1.158365471e-09 	-8.771772316e-07 	-4.528282227e-09 	-1.672143602e-09
0.8341955884 	-9.442257552e-07 	0.0006326310597 	2.126930126e-11 	-1.408440177e-06 	-4.561727282e-09 	-2.684878433e-09
0.8368708632 	-3.782613963e-07 	0.0006609064478 	1.359422236e-09 	-1.95585937e-06 	-4.603895555e-09 	-3.728411562e-09
0.8395166151 	2.023493835e-07 	0.0006907053928 	2.849739042e-09 	-2.520842463e-06 	-4.653967892e-09 	-4.805426367e-09
0.8421331699 	7.988061871e-07 	0.0007220651907 	4.481234742e-09 	-3.104358995e-06 	-4.711028395e-09 	-5.917771057e-09
0.8447208566 	1.411817416e-06 	0.0007550141017 	6.238225122e-09 	-3.706852511e-06 	-4.774024778e-09 	-7.066291153e-09
0.8472799872 	2.041590919e-06 	0.0007895695659 	8.100558136e-09 	-4.328257678e-06 	-4.841865043e-09 	-8.250862111e-09
0.8498108765 	2.687835349e-06 	0.0008257367135 	1.004423962e-08 	-4.968017441e-06 	-4.913498182e-09 	-9.470422032e-09
0.8523138363 	3.349754021e-06 	0.0008635071672 	1.204223058e-08 	-5.625063491e-06 	-4.987892878e-09 	-1.072293442e-08
0.8547891789 	4.026053546e-06 	0.0009028581799 	1.406530629e-08 	-6.297810215e-06 	-5.064022331e-09 	-1.200537666e-08
0.8572372056 	4.715000924e-06 	0.0009437522428 	1.608310085e-08 	-6.984229293e-06 	-5.140934668e-09 	-1.33138822e-08
0.8596582172 	5.414497005e-06 	0.0009861372685 	1.806542365e-08 	-7.681940182e-06 	-5.217840629e-09 	-1.464391307e-08
0.8620525118 	6.122141062e-06 	0.001029947257 	1.998340268e-08 	-8.388269201e-06 	-5.294093708e-09 	-1.59903725e-08
0.8644203861 	6.835294139e-06 	0.001075103374 	2.181050241e-08 	-9.100300027e-06 	-5.36916636e-09 	-1.734770115e-08
0.8667621311 	7.551165306e-06 	0.001121515405 	2.352331118e-08 	-9.814966802e-06 	-5.442647692e-09 	-1.871005465e-08
0.8690780339 	8.266914435e-06 	0.001169083573 	2.510247141e-08 	-1.052918002e-05 	-5.514322631e-09 	-2.007154354e-08
0.8713683797 	8.979723095e-06 	0.001217700576 	2.653313117e-08 	-1.123989141e-05 	-5.584115059e-09 	-2.142635699e-08
0.8736334505 	9.68685737e-06 	0.001267253704 	2.780514958e-08 	-1.19441512e-05 	-5.65205027e-09 	-2.276887189e-08
0.8758735272 	1.038572317e-05 	0.00131762693 	2.891293344e-08 	-1.263916082e-05 	-5.718194192e-09 	-2.409375339e-08
0.8780888836 	1.107392502e-05 	0.001368702909 	2.985523927e-08 	-1.332234551e-05 	-5.782666266e-09 	-2.53960933e-08
0.8802797925 	1.174930183e-05 	0.001420364897 	3.06348338e-08 	-1.39913931e-05 	-5.845613147e-09 	-2.667148395e-08
0.8824465238 	1.240994241e-05 	0.001472498398 	3.125779312e-08 	-1.464426534e-05 	-5.90714984e-09 	-2.79160399e-08
0.8845893445 	1.305418607e-05 	0.001524992544 	3.173273852e-08 	-1.527919379e-05 	-5.967311322e-09 	-2.912638999e-08
0.8867085191 	1.368061071e-05 	0.00157774117 	3.206987244e-08 	-1.589466303e-05 	-6.025996696e-09 	-3.029964543e-08
0.8888043077 	1.42880298e-05 	0.001630643607 	3.228031135e-08 	-1.648942322e-05 	-6.083008777e-09 	-3.143342366e-08
0.8908769682 	1.487545646e-05 	0.001683605254 	3.237528627e-08 	-1.706244514e-05 	-6.138011367e-09 	-3.25257627e-08
0.892926756 	1.544206687e-05 	0.001736537815 	3.236531799e-08 	-1.761288193e-05 	-6.190519291e-09 	-3.357504821e-08
0.8949539235 	1.598715676e-05 	0.001789359337 	3.225954961e-08 	-1.814002249e-05 	-6.239890619e-09 	-3.457992462e-08
0.8969587209 	1.651008968e-05 	0.001841994002 	3.206507245e-08 	-1.864323209e-05 	-6.285314208e-09 	-3.553918199e-08
0.8989413945 	1.701026456e-05 	0.001894371784 	3.178665982e-08 	-1.912193259e-05 	-6.325886476e-09 	-3.645171819e-08
0.9009021883 	1.748706452e-05 	0.001946428041 	3.142654736e-08 	-1.95755435e-05 	-6.360623083e-09 	-3.731642666e-08
0.9028413438 	1.793981249e-05 	0.001998102984 	3.098430032e-08 	-2.000343299e-05 	-6.388492476e-09 	-3.813210294e-08
0.9047590998 	1.836774054e-05 	0.002049341138 	3.045691531e-08 	-2.040489054e-05 	-6.40847041e-09 	-3.889739261e-08
0.9066556928 	1.876995444e-05 	0.002100090829 	2.983904649e-08 	-2.077908189e-05 	-6.419569595e-09 	-3.961070533e-08
0.9085313561 	1.914542363e-05 	0.0021503037 	2.912344926e-08 	-2.112504478e-05 	-6.420921652e-09 	-4.027020676e-08
0.9103863205 	1.949298139e-05 	0.002199934383 	2.830168209e-08 	-2.144169267e-05 	-6.411857772e-09 	-4.087382565e-08
0.9122208145 	1.981132456e-05 	0.00224894027 	2.736477228e-08 	-2.172780393e-05 	-6.391937769e-09 	-4.141923322e-08