0.2478607252 	9.513331986e-08 	-2.551579076e-10 	-4.593055522e-13 	9.463545305e-08 	1.742800905e-10 	1.804014761e-10
0.2480966905 	1.581995859e-06 	-1.846684143e-08 	-2.852213599e-11 	1.556077705e-06 	2.591829388e-09 	2.966316595e-09
0.248332665 	9.892322406e-06 	-2.792090067e-07 	-4.151151118e-10 	9.527176579e-06 	1.567808932e-08 	1.81614465e-08
0.248568647 	3.544387296e-05 	-1.863738249e-06 	-2.761714374e-09 	3.306595875e-05 	5.489952857e-08 	6.303290758e-08
0.2488046349 	9.227126568e-05 	-7.744016789e-06 	-1.1652825e-08 	8.250128906e-05 	1.399053462e-07 	1.57270387e-07
0.2490406268 	0.0001962835519 	-2.350140814e-05 	-3.631641639e-08 	0.0001668110395 	2.911026293e-07 	3.17988204e-07
0.2492766213 	0.0003627780036 	-5.690398718e-05 	-9.073307289e-08 	0.0002916729763 	5.262445876e-07 	5.560097592e-07
0.2495126165 	0.0006027539836 	-0.000116122579 	-1.908115309e-07 	0.0004580000223 	8.570330041e-07 	8.730753371e-07
0.2497486107 	0.0009192503734 	-0.0002073454021 	-3.491714889e-07 	0.0006612254985 	1.287031654e-06 	1.260479578e-06
0.2499846024 	0.001305497487 	-0.0003329550694 	-5.703575297e-07 	0.0008915552072 	1.811386202e-06 	1.69955202e-06
0.2502205898 	0.001745638816 	-0.0004911470819 	-8.492072896e-07 	0.001135631279 	2.418089918e-06 	2.16482885e-06
0.2504565713 	0.002217139267 	-0.0006755421733 	-1.230977037e-06 	0.001379534846 	3.056787366e-06 	2.629776839e-06
0.2506925451 	0.002677694816 	-0.0008462611801 	-1.731146305e-06 	0.001629197682 	3.565908164e-06 	3.105703594e-06
0.2509285096 	0.003102091855 	-0.0009839442945 	-2.125809802e-06 	0.001882366473 	4.006828357e-06 	3.588313674e-06
0.2511644632 	0.003491161655 	-0.001107080129 	-2.374858123e-06 	0.002118503354 	4.477234013e-06 	4.0384562e-06
0.2514004042 	0.003836620971 	-0.001216447432 	-2.602262366e-06 	0.002328512368 	4.908148206e-06 	4.43879175e-06
0.2516363308 	0.004130389197 	-0.001309243753 	-2.805651234e-06 	0.002506951283 	5.294677683e-06 	4.778945916e-06
0.2518722415 	0.00436690792 	-0.001383761089 	-2.982841174e-06 	0.002650538541 	5.632373138e-06 	5.052663139e-06
0.2521081347 	0.004543182007 	-0.001439097469 	-3.133181551e-06 	0.002757525822 	5.920162674e-06 	5.256610632e-06
0.2523440085 	0.004658497969 	-0.001475053903 	-3.255544051e-06 	0.002827496785 	6.155827537e-06 	5.389994735e-06
0.2525798615 	0.004714059429 	-0.001492044125 	-3.348642378e-06 	0.002861204899 	6.336782392e-06 	5.454251768e-06
0.2528156919 	0.004712631019 	-0.001490981716 	-3.411173349e-06 	0.002860360771 	6.460376945e-06 	5.452642625e-06
0.2530514981 	0.004658224901 	-0.001473173723 	-3.441669906e-06 	0.002827430025 	6.523615911e-06 	5.389867471e-06
0.2532872785 	0.004556144209 	-0.001440331116 	-3.436803442e-06 	0.002765656508 	6.51987482e-06 	5.272109978e-06
0.2535230314 	0.004413200002 	-0.001394642006 	-3.394895775e-06 	0.002679206749 	6.445676953e-06 	5.107312711e-06
0.2537587551 	0.004236645589 	-0.001338431294 	-3.321449956e-06 	0.002572516325 	6.311383636e-06 	4.903931109e-06
0.2539944482 	0.004032670317 	-0.00127367173 	-3.221907135e-06 	0.002449348347 	6.127260544e-06 	4.669138711e-06
0.2542301088 	0.003806740746 	-0.001202095692 	-3.096802588e-06 	0.002313008947 	5.894130173e-06 	4.409237921e-06
0.2544657354 	0.003564428893 	-0.001125475789 	-2.946722634e-06 	0.00216689039 	5.612922126e-06 	4.13069534e-06
0.2547013264 	0.003311372396 	-0.001045588823 	-2.774112101e-06 	0.002014393662 	5.288164309e-06 	3.839994192e-06
0.2549368801 	0.00301680024 	-0.0009526994767 	-2.568081086e-06 	0.001836907008 	4.899465897e-06 	3.501655298e-06
0.2553027985 	0.002652587363 	-0.0008380008073 	-2.258901113e-06 	0.001617567589 	4.313688508e-06 	3.083533404e-06
0.2556754916 	0.00226407122 	-0.0007158269685 	-1.914574407e-06 	0.001383792415 	3.659529433e-06 	2.637892948e-06
0.2560550761 	0.001899919746 	-0.0006014792 	-1.568346155e-06 	0.001164912222 	2.999989903e-06 	2.220646466e-06
0.2564416703 	0.001571101469 	-0.0004983496074 	-1.238764202e-06 	0.0009675040458 	2.370563747e-06 	1.844331615e-06
0.2568353939 	0.001284839622 	-0.0004086668365 	-9.410928657e-07 	0.0007959442649 	1.800420402e-06 	1.51729099e-06
0.2572363681 	0.001044517477 	-0.0003334981093 	-6.853160779e-07 	0.0006524362024 	1.308291403e-06 	1.243724737e-06
0.2576447153 	0.0008497217213 	-0.000272534468 	-4.914369387e-07 	0.00053740506 	8.993370379e-07 	1.024443408e-06
0.2580605592 	0.0006952401575 	-0.0002215544111 	-3.877231076e-07 	0.0004504315699 	5.686044723e-07 	8.586477632e-07
0.2584840249 	0.0005721836704 	-0.0001730381936 	-3.089855419e-07 	0.0003898792375 	3.323331799e-07 	7.432181879e-07
0.2589152389 	0.0004759739868 	-0.0001276832941 	-2.025802445e-07 	0.0003500162294 	1.859184331e-07 	6.672282153e-07
0.2593543286 	0.0004064185262 	-9.261378011e-05 	-1.158344195e-07 	0.0003240329478 	9.06973214e-08 	6.176968589e-07
0.2598014228 	0.0003599468363 	-6.806405362e-05 	-6.472996946e-08 	0.0003089140152 	2.872014575e-08 	5.888759713e-07
0.2602566512 	0.0003310081019 	-5.053983841e-05 	-3.462788788e-08 	0.000303197993 	-5.398097844e-09 	5.779796441e-07
0.260720145 	0.0003149791997 	-3.776030105e-05 	-1.690130054e-08 	0.0003051898547 	-1.763067844e-08 	5.817766861e-07
0.2611920358 	0.0003081761334 	-2.820041129e-05 	-6.349952492e-09 	0.0003131066269 	-1.396401411e-08 	5.968682543e-07
0.2616714541 	0.0003077595457 	-2.0879976e-05 	6.853377788e-10 	0.0003251962348 	1.078916579e-09 	6.199144072e-07
0.261672451 	0.0003077587093 	-2.086467566e-05 	-1.384038866e-11 	0.0003252215627 	-2.717023945e-11 	6.199626892e-07
0.2621588784 	0.0003117003702 	-1.516269166e-05 	-5.100455712e-09 	0.0003401479546 	-1.707873234e-08 	6.484165406e-07
0.2626540653 	0.0003183875682 	-1.065696709e-05 	-7.816972602e-09 	0.0003566798226 	-3.941454891e-08 	6.799308759e-07
0.2631581466 	0.0003268353764 	-7.087880159e-06 	-8.959267423e-09 	0.0003740720499 	-6.436271184e-08 	7.13085295e-07
0.2636712583 	0.0003363743333 	-4.264519107e-06 	-8.997175045e-09 	0.0003918324095 	-9.042005274e-08 	7.469414768e-07
0.2641935365 	0.0003465539309 	-2.036841203e-06 	-8.248991218e-09 	0.0004096556828 	-1.168498994e-07 	7.809175893e-07
0.2647251181 	0.0003570742346 	-2.820998063e-07 	-6.953612918e-09 	0.0004273666822 	-1.433686866e-07 	8.146796768e-07
0.2652661398 	0.0003677372936 	1.10035877e-06 	-5.293591098e-09 	0.0004448801497 	-1.699367237e-07 	8.480652133e-07
0.265816739 	0.0003784241378 	2.196250282e-06 	-3.403023428e-09 	0.0004621792562 	-1.966377323e-07 	8.810421185e-07
0.2663787789 	0.0003891421012 	3.07876849e-06 	-1.366373487e-09 	0.0004794103026 	-2.236985103e-07 	9.13889282e-07
0.2669678609 	0.000399904447 	3.804478103e-06 	7.699013254e-10 	0.0004966814391 	-2.519670903e-07 	9.468128684e-07
0.2675675323 	0.0004105959361 	4.412922078e-06 	2.955001647e-09 	0.0005138575931 	-2.806793941e-07 	9.795553918e-07
0.2681779758 	0.0004211326622 	4.936164087e-06 	5.1371443e-09 	0.0005308456728 	-3.098156105e-07 	1.011939393e-06
0.2687993775 	0.0004315209326 	5.402843419e-06 	7.296640088e-09 	0.0005476816169 	-3.393135675e-07 	1.044033382e-06
0.269431926 	0.0004417783947 	5.829960815e-06 	9.488247796e-09 	0.0005643988821 	-3.68970145e-07 	1.075901136e-06
0.2700758133 	0.0004519193023 	6.226664435e-06 	1.179859536e-08 	0.0005810826745 	-4.000290483e-07 	1.107705081e-06
0.2707312343 	0.0004619457124 	6.603803087e-06 	1.428199147e-08 	0.0005978389574 	-4.341452472e-07 	1.139647214e-06
0.2713983871 	0.0004718800853 	6.969540629e-06 	1.696096606e-08 	0.0006146254956 	-4.700135617e-07 	1.171647021e-06
0.2720774729 	0.000481733923 	7.333662735e-06 	1.966398242e-08 	0.0006314705043 	-5.066076027e-07 	1.203758289e-06
0.2727686961 	0.0004915020221 	7.70645066e-06 	2.24033359e-08 	0.0006484941462 	-5.41740495e-07 	1.236210082e-06
0.2734722645 	0.0005012108592 	8.088401105e-06 	2.30330418e-08 	0.000665646462 	-5.224219193e-07 	1.268907163e-06
0.274188389 	0.0005108917892 	8.479867888e-06 	2.289506928e-08 	0.0006828687191 	-4.88751043e-07 	1.301737572e-06
0.274917284 	0.0005205640867 	8.882342888e-06 	2.264408989e-08 	0.0007001905416 	-4.556262944e-07 	1.33475778e-06
0.2756591673 	0.0005302452429 	9.293431104e-06 	2.224807801e-08 	0.0007176505158 	-4.223577537e-07 	1.368041344e-06
0.27641426 	0.0005399512906 	9.710379338e-06 	2.163694464e-08 	0.000735281312 	-3.885109268e-07 	1.401650542e-06
0.277182787 	0.0005496970138 	1.013150362e-05 	2.07847671e-08 	0.0007531115124 	-3.539039728e-07 	1.435639859e-06
0.2779649765 	0.0005594959004 	1.055543868e-05 	1.968449165e-08 	0.0007711648439 	-3.184977212e-07 	1.470054527e-06
0.2787610603 	0.0005693599916 	1.098117194e-05 	1.832903155e-08 	0.0007894608289 	-2.822578566e-07 	1.504931759e-06
0.2795712742 	0.0005793008424 	1.140792818e-05 	1.670663394e-08 	0.0008080123975 	-2.451459926e-07 	1.540296205e-06
0.2803958572 	0.0005893301702 	1.183474036e-05 	1.480255313e-08 	0.000826826689 	-2.071540622e-07 	1.576161474e-06
0.2812350526 	0.0005994592289 	1.225998334e-05 	1.26000696e-08 	0.0008459122385 	-1.683068149e-07 	1.612543836e-06
0.2820891073 	0.0006096971901 	1.268060959e-05 	1.007968354e-08 	0.0008652869163 	-1.286163917e-07 	1.649477356e-06
0.2829582719 	0.0006200522409 	1.309442523e-05 	7.219328124e-09 	0.000884974236 	-8.806697723e-08 	1.68700686e-06
0.2838428013 	0.0006305680265 	1.349961237e-05 	3.99568743e-09 	0.0009050725987 	-4.663004095e-08 	1.725319925e-06
0.2847556243 	0.0006413365788 	1.389678048e-05 	3.279577482e-10 	0.0009257464773 	-3.663015274e-09 	1.764730084e-06
0.2848333523 	0.000642244335 	1.392872092e-05 	9.008824573e-10 	0.0009274928018 	6.887728206e-08 	1.768059064e-06
0.2856962892 	0.0006523574268 	1.427395762e-05 	3.177646534e-09 	0.0009469773336 	-4.059887219e-08 	1.805201997e-06
0.2866531183 	0.0006635910086 	1.463939907e-05 	7.027852738e-09 	0.0009686027469 	-8.579795386e-08 	1.846426045e-06
0.2876267427 	0.0006750055496 	1.498615482e-05 	1.13056779e-08 	0.0009905682837 	-1.319948784e-07 	1.888298463e-06
0.2886174419 	0.0006866117924 	1.530826115e-05 	1.604194724e-08 	0.001012907901 	-1.792392097e-07 	1.930883982e-06
0.2896255 	0.0006984194579 	1.560007836e-05 	2.127079607e-08 	0.001035653143 	-2.27582724e-07 	1.974242736e-06
0.2906512055 	0.0007104330609 	1.585458224e-05 	2.703303322e-08 	0.001058842899 	-2.770762654e-07 	2.018448855e-06
0.2916948513 	0.0007226490985 	1.606091834e-05 	3.33828824e-08 	0.00108253851 	-3.278159307e-07 	2.063619277e-06
0.292756735 	0.0007350661183 	1.621084487e-05 	4.037465199e-08 	0.001106855392 	-3.800399382e-07 	2.109974011e-06
0.2938371588 	0.0007476518967 	1.627384927e-05 	4.810580297e-08 	0.001132021222 	-4.340988117e-07 	2.157947078e-06
0.2949364296 	0.0007619188931 	1.625670717e-05 	5.703814164e-08 	0.001161600551 	-4.907184767e-07 	2.214333499e-06
0.2966211408 	0.0007796687824 	1.626719387e-05 	7.104754491e-08 	0.001197746043 	-5.756750983e-07 	2.283236854e-06
0.2983211975 	0.0007993645311 	1.632709524e-05 	7.058052602e-08 	0.00123617433 	-5.370092365e-07 	2.35649185e-06
0.3000367404 	0.0008192975034 	1.64012698e-05 	6.426317134e-08 	0.00127406146 	-4.589367634e-07 	2.42871525e-06
0.3017679123 	0.0008395443728 	1.643522232e-05 	5.668892501e-08 	0.001312050218 	-3.79949521e-07 	2.501132381e-06
0.3035615948 	0.000860244232 	1.64493074e-05 	4.729024455e-08 	0.001350474306 	-2.977139718e-07 	2.574379371e-06
0.3053762146 	0.000881268548 	1.648377625e-05 	3.612000451e-08 	0.001389070004 	-2.141290248e-07 	2.6479535e-06
0.3072070693 	0.0009024308327 	1.656211367e-05 	2.306388369e-08 	0.001427616715 	-1.292158644e-07 	2.721434244e-06
0.309054309 	0.0009236533696 	1.671582367e-05 	8.024389193e-09 	0.00146610792 	-4.266264965e-08 	2.794809178e-06
0.3099572036 	0.0009339264156 	1.683720495e-05 	-4.880387446e-09 	0.001484709012 	6.679200416e-07 	2.830268031e-06
0.3109144486 	0.000944836028 	1.695401891e-05 	8.015846415e-09 	0.001504503122 	-4.570482335e-08 	2.868001105e-06
0.3127878846 	0.000965917641 	1.730315843e-05 	2.503458946e-08 	0.001542777144 	-1.362186792e-07 	2.940962029e-06
0.3146782044 	0.0009868706812 	1.780428856e-05 	4.399270881e-08 	0.001580922339 	-2.293386251e-07 	3.013677372e-06
0.3165855688 	0.00100764168 	1.847798273e-05 	6.489887552e-08 	0.001618923261 	-3.252131746e-07 	3.086117692e-06
0.318510141 	0.001028264556 	1.932636974e-05 	8.77886122e-08 	0.001656985425 	-4.238956171e-07 	3.158674755e-06
0.3204874336 	0.001048828655 	2.036376189e-05 	1.131192557e-07 	0.001695397523 	-5.269854096e-07 	3.23189889e-06
0.3225010989 	0.00106925628 	2.160338855e-05 	1.407886718e-07 	0.001734097012 	-6.331975088e-07 	3.305670873e-06
0.324532613 	0.001089365561 	2.301681044e-05 	1.442543812e-07 	0.001772999537 	-6.264019064e-07 	3.379829897e-06
0.3265821488 	0.001109051413 	2.457314326e-05 	1.26965081e-07 	0.001812318761 	-5.320511052e-07 	3.454783266e-06
0.3286498823 	0.001128248846 	2.624586522e-05 	1.077113826e-07 	0.001852414601 	-4.35161889e-07 	3.531217081e-06
0.3307359925 	0.001146866673 	2.800356239e-05 	8.642037196e-08 	0.001893723853 	-3.361474381e-07 	3.609963996e-06
0.3328406618 	0.001164783583 	2.98233992e-05 	6.295479645e-08 	0.001936737191 	-2.353797234e-07 	3.691959375e-06
0.334964076 	0.001181882847 	3.168226408e-05 	3.712346346e-08 	0.001982136459 	-1.331724145e-07 	3.778502997e-06
0.3371320833 	0.001198046309 	3.357696421e-05 	8.24713199e-09 	0.002030798572 	-2.831626148e-08 	3.871266509e-06
0.3377175152 	0.0012019892 	3.408306604e-05 	1.128970891e-08 	0.00204464751 	4.790531137e-07 	3.897666435e-06
0.3393444052 	0.00121298147 	3.546674411e-05 	2.178358558e-08 	0.002083220311 	-8.08758544e-08 	3.971196915e-06
0.3415743451 	0.001226339265 	3.741613228e-05 	5.408664033e-08 	0.002139621868 	-1.930326468e-07 	4.078713957e-06
0.3438239536 	0.001237590089 	3.980727492e-05 	8.78468573e-08 	0.002200508373 	-3.071185634e-07 	4.194780559e-06
0.346093434 	0.001249279999 	4.278080867e-05 	1.262215074e-07 	0.002256416476 	-3.106457198e-07 	4.301356942e-06
0.3483829935 	0.001264176119 	4.590436891e-05 	1.701514087e-07 	0.002298683153 	-2.465067057e-07 	4.381928975e-06
0.3506928437 	0.001280685099 	4.888822247e-05 	2.175491747e-07 	0.00233375534 	-2.882516657e-07 	4.448786311e-06
0.3530295839 	0.001296947567 	5.160013637e-05 	2.611718301e-07 	0.002367955805 	-3.230105856e-07 	4.513981904e-06
0.3554374975 	0.001312646539 	5.405716714e-05 	2.301667272e-07 	0.002401071006 	-2.69879521e-07 	4.57710868e-06
0.3578664156 	0.001327360432 	5.644045267e-05 	1.939050932e-07 	0.002432426287 	-2.179801886e-07 	4.636880561e-06
0.3603165657 	0.001340840015 	5.880843624e-05 	1.543518581e-07 	0.002461578797 	-1.673114193e-07 	4.692453347e-06
0.3627881801 	0.001353002444 	6.12045835e-05 	1.123499434e-07 	0.002488412826 	-1.178005449e-07 	4.743606466e-06
0.3652814963 	0.001363843357 	6.365417763e-05 	6.82844582e-08 	0.002512914281 	-6.939491324e-08 	4.790313048e-06
0.3677967568 	0.001373424228 	6.615108674e-05 	2.237661472e-08 	0.002535196155 	-2.207043991e-08 	4.832788492e-06
0.3690001284 	0.001377374483 	6.734109659e-05 	2.005734003e-08 	0.002544708059 	7.528466125e-08 	4.850920825e-06
0.3703570904 	0.001381829691 	6.866823688e-05 	2.450411635e-08 	0.002555431814 	-2.529926013e-08 	4.871363283e-06
0.3729676944 	0.001389136602 	7.123318852e-05 	7.240612335e-08 	0.002573745173 	-7.249919871e-08 	4.906273636e-06
0.3756010887 	0.001395421251 	7.384107514e-05 	1.217318675e-07 	0.002590227361 	-1.183658684e-07 	4.937693267e-06
0.3782575372 	0.001400783024 	7.646044136e-05 	1.723696992e-07 	0.002605041824 	-1.629831103e-07 	4.96593375e-06
0.3809373097 	0.001405344961 	7.910199659e-05 	2.242171555e-07 	0.002618405354 	-2.064569872e-07 	4.991408353e-06
0.3836406821 	0.001409236312 	8.176067871e-05 	2.771879657e-07 	0.002630549389 	-2.489042076e-07 	5.01455826e-06
0.3863896793 	0.001412573054 	8.443649684e-05 	3.301636798e-07 	0.002641722302 	-2.894864199e-07 	5.035856937e-06
0.389197645 	0.001415445749 	8.716755314e-05 	2.833278756e-07 	0.002652093721 	-2.428539813e-07 	5.055627743e-06
0.3920300409 	0.001417927841 	8.993653078e-05 	2.353393046e-07 	0.002661752773 	-1.974844637e-07 	5.074040581e-06
0.3948871681 	0.001420086105 	9.271229123e-05 	1.862801094e-07 	0.002670814026 	-1.532374294e-07 	5.091313848e-06
0.397769335 	0.001421985206 	9.552611246e-05 	1.36252385e-07 	0.002679394948 	-1.10012678e-07 	5.107671469e-06
0.4006768572 	0.001423686993 	9.835751979e-05 	8.533829057e-08 	0.002687628366 	-6.770736663e-08 	5.123366652e-06
0.4036541291 	0.001425232872 	0.0001012445758 	3.276779077e-08 	0.002695637026 	-2.55653279e-08 	5.138633386e-06
0.4055087421 	0.001426109606 	0.0001030704296 	1.646430317e-08 	0.002700445842 	-1.896345794e-07 	5.147800326e-06
0.4066666498 	0.001426653492 	0.0001041950971 	1.974279632e-08 	0.002703433061 	-1.606751668e-08 	5.153494794e-06
0.4097021532 	0.001427978621 	0.0001071437628 	7.131661137e-08 	0.002711031173 	-5.71832866e-08 	5.167978909e-06
0.4127643706 	0.001429232188 	0.0001101445911 	1.233918083e-07 	0.002718499622 	-9.756455317e-08 	5.182215847e-06
0.4158536567 	0.001430439339 	0.000113187576 	1.759115991e-07 	0.002725897985 	-1.372735494e-07 	5.196319184e-06
0.4190035533 	0.001431614164 	0.000116298715 	2.294203268e-07 	0.002733291976 	-1.76792237e-07 	5.210414185e-06
0.4222017372 	0.001432769469 	0.0001195148345 	2.835582846e-07 	0.002740689528 	-2.159347558e-07 	5.224515976e-06
0.4254279802 	0.001433917274 	0.0001227925139 	3.378733593e-07 	0.002748081527 	-2.544535138e-07 	5.23860718e-06
0.428682672 	0.001435063239 	0.000126141106 	3.273254773e-07 	0.002755472157 	-2.439596783e-07 	5.252695775e-06
0.4319662123 	0.001436217126 	0.00012954387 	2.780057508e-07 	0.002762901286 	-2.052036887e-07 	5.266857761e-06
0.4353200549 	0.00143738193 	0.0001330426581 	2.277408436e-07 	0.002770410611 	-1.665634147e-07 	5.28117262e-06
0.4387139945 	0.001438562624 	0.0001366637273 	1.771996326e-07 	0.002777979124 	-1.285127041e-07 	5.29560031e-06
0.4421378657 	0.001439765972 	0.0001403603544 	1.26621764e-07 	0.002785588857 	-9.112767416e-08 	5.310106577e-06
0.445592109 	0.001440990487 	0.000144134458 	7.605950138e-08 	0.002793246765 	-5.435862983e-08 	5.324704678e-06
0.4490909705 	0.001442238957 	0.0001479929024 	2.5332175e-08 	0.002800985458 	-1.799139401e-08 	5.339456777e-06
0.4508620033 	0.001442873038 	0.0001499740224 	3.558391774e-08 	0.002804876604 	-2.943231947e-07 	5.346874383e-06
0.4526540059 	0.001443513442 	0.0001519576476 	2.463911793e-08 	0.002808795818 	-1.834367603e-08 	5.354345493e-06
0.4562464102 	0.001444816722 	0.0001560120007 	7.319929528e-08 	0.002816646676 	-5.423655462e-08 	5.36931141e-06
0.4598709613 	0.001446149162 	0.000160162264 	1.214154562e-07 	0.002824539387 	-8.959945096e-08 	5.384357112e-06
0.4635297771 	0.001447508947 	0.0001643974158 	1.692581789e-07 	0.002832501878 	-1.244999252e-07 	5.399535833e-06
0.4672662354 	0.001448895277 	0.0001687764684 	2.172499834e-07 	0.002840551484 	-1.593838183e-07 	5.414880618e-06
0.4710361103 	0.001450308 	0.0001733076907 	2.645842167e-07 	0.002848646834 	-1.937870925e-07 	5.430312606e-06
0.4748399356 	0.001451749065 	0.0001779474973 	3.112130799e-07 	0.002856767645 	-2.277409885e-07 	5.445793128e-06
0.4786793613 	0.001453212916 	0.0001826896399 	3.570840654e-07 	0.002864935983 	-2.613059561e-07 	5.461364251e-06
0.4825957524 	0.00145469901 	0.000187594766 	3.22922254e-07 	0.002873162318 	-2.36482403e-07 	5.477045932e-06
0.486547475 	0.001456207424 	0.0001926777138 	2.790293196e-07 	0.002881402384 	-2.047005437e-07 	5.492753788e-06
0.4905351173 	0.001457738493 	0.0001978795604 	2.358439769e-07 	0.002889644061 	-1.734747989e-07 	5.508464714e-06
0.4945682564 	0.001459285054 	0.000203217899 	1.932821218e-07 	0.002897899924 	-1.426740179e-07 	5.524202685e-06
0.4986692407 	0.001460848125 	0.0002087470028 	1.512162465e-07 	0.002906162563 	-1.121230504e-07 	5.539953571e-06
0.5028076531 	0.001462428468 	0.0002144655977 	1.101595223e-07 	0.002914392912 	-8.213384869e-08 	5.555642903e-06
0.5069841407 	0.001464023161 	0.000220319512 	7.01535575e-08 	0.002922590942 	-5.26461619e-08 	5.571270628e-06
0.5112216396 	0.001465627096 	0.0002263568139 	3.100421779e-08 	0.002930756754 	-2.344136248e-08 	5.586836934e-06
0.5147184832 	0.001466944416 	0.0002314608294 	2.794399681e-08 	0.002937361514 	-1.269115524e-07 	5.599427442e-06
0.5155119101 	0.001467243558 	0.0002326118522 	6.689810285e-09 	0.00293885583 	-5.340886583e-09 	5.602276025e-06
0.5198395751 	0.001468874955 	0.0002390164894 	4.167489498e-08 	0.002946858654 	-3.357104609e-08 	5.617531632e-06
0.5242131926 	0.001470512636 	0.0002455994438 	7.538013376e-08 	0.002954779114 	-6.13313731e-08 	5.632630231e-06
0.5286556948 	0.001472157753 	0.0002524208158 	1.078794591e-07 	0.002962599254 	-8.874840583e-08 	5.64753759e-06
0.5331398208 	0.001473811604 	0.0002594831255 	1.387905693e-07 	0.002970279011 	-1.155801988e-07 	5.662177341e-06
0.5376663255 	0.001475470591 	0.0002667314681 	1.680801407e-07 	0.002977819755 	-1.418429663e-07 	5.676552095e-06
0.5422617001 	0.001477133996 	0.0002742279197 	1.958729798e-07 	0.002985202933 	-1.676961262e-07 	5.690626485e-06
0.5469046699 	0.001478805734 	0.0002820035903 	2.218331289e-07 	0.002992383031 	-1.929225109e-07 	5.704313747e-06
0.5515919481 	0.001480482914 	0.0002899909303 	2.459037222e-07 	0.002999358838 	-2.174856167e-07 	5.717611574e-06
0.556343005 	0.001482165283 	0.000298239484 	2.681502153e-07 	0.003006105985 	-2.414825317e-07 	5.730473511e-06
0.5611476171 	0.001483858681 	0.0003067905063 	2.883454886e-07 	0.003012578758 	-2.647580821e-07 	5.742812416e-06
0.5659985932 	0.001485560633 	0.0003155815668 	3.017846343e-07 	0.003018772191 	-2.828865593e-07 	5.75461882e-06
0.5709123736 	0.001487273131 	0.0003246517779 	2.750176634e-07 	0.003024656173 	-2.635342351e-07 	5.765835325e-06
0.5758818988 	0.001489003278 	0.0003340415906 	2.496525973e-07 	0.003030182478 	-2.449099455e-07 	5.776369998e-06
0.5808999763 	0.001490748839 	0.0003436910089 	2.257383369e-07 	0.003035345024 	-2.270261028e-07 	5.786211245e-06
0.585982671 	0.001492515263 	0.0003536392978 	2.031779367e-07 	0.003040105865 	-2.097924998e-07 	5.795286733e-06
0.5911208992 	0.001494310236 	0.0003639150084 	1.821192693e-07 	0.003044415728 	-1.933759926e-07 	5.80350253e-06
0.5963100062 	0.001496131745 	0.0003744594571 	1.625565657e-07 	0.003048268851 	-1.777695544e-07 	5.810847652e-06
0.6015672442 	0.001497990158 	0.0003853208555 	1.444049809e-07 	0.003051616483 	-1.62920106e-07 	5.81722917e-06
0.6068785218 	0.001499890498 	0.0003964987199 	1.277806306e-07 	0.00305441889 	-1.48987594e-07 	5.822571336e-06
0.6122458951 	0.001501833614 	0.0004079503481 	1.126070161e-07 	0.003056662623 	-1.359305447e-07 	5.826848514e-06
0.6176802584 	0.001503828854 	0.0004196918113 	9.886268414e-08 	0.00305828928 	-1.237808489e-07 	5.829949376e-06
0.6231089688 	0.001505858536 	0.0004315802372 	8.667912479e-08 	0.003059282058 	-1.127449299e-07 	5.831841886e-06
0.628479262 	0.001507918341 	0.0004434947456 	7.600178253e-08 	0.003059626688 	-1.028287717e-07 	5.832498846e-06
0.6337917032 	0.001510032868 	0.0004554193595 	6.674925633e-08 	0.00305929802 	-9.404271735e-08 	5.831872313e-06
0.6390410869 	0.001512200106 	0.0004672959738 	5.877339916e-08 	0.003058350241 	-8.632895743e-08 	5.830065583e-06
0.644236594 	0.001514420916 	0.0004791365257 	5.190903825e-08 	0.003056803949 	-7.959248279e-08 	5.827117921e-06
0.6493731342 	0.001516698934 	0.0004909351218 	4.60763362e-08 	0.0030546616 	-7.384541729e-08 	5.823034009e-06
0.6544495689 	0.001519028316 	0.0005026386195 	4.112675421e-08 	0.003051962199 	-6.898222905e-08 	5.817888201e-06
0.6594747915 	0.001521422327 	0.000514269014 	3.693709854e-08 	0.003048698615 	-6.49286693e-08 	5.811666902e-06
0.6644417602 	0.001523881589 	0.0005258096453 	3.343030097e-08 	0.00304488809 	-6.167350285e-08 	5.804402983e-06
0.6693518272 	0.001526403342 	0.0005372228379 	3.048254205e-08 	0.003040568333 	-5.910678075e-08 	5.796168325e-06
0.6742111561 	0.001529001868 	0.0005485318926 	2.800880543e-08 	0.00303573479 	-5.717672571e-08 	5.786954248e-06
0.6790145641 	0.001531675319 	0.0005597154646 	2.594094296e-08 	0.003030415376 	-5.584779895e-08 	5.776813967e-06
0.6837634788 	0.001534423473 	0.0005707482583 	2.418861321e-08 	0.003024645553 	-5.502026973e-08 	5.76581508e-06
0.6884626381 	0.001537260953 	0.0005816523817 	2.269696798e-08 	0.003018424148 	-5.465197205e-08 	5.753955353e-06
0.6931082167 	0.001540186973 	0.0005924122514 	2.141463631e-08 	0.00301178032 	-5.470131609e-08 	5.741290372e-06
0.6977011208 	0.001543202037 	0.0006030079184 	2.026560255e-08 	0.003004750843 	-5.506816397e-08 	5.727890233e-06
0.7022457724 	0.001546320005 	0.0006134586227 	1.920739554e-08 	0.002997339174 	-5.569996575e-08 	5.713761532e-06
0.7067390029 	0.001549542579 	0.0006237601993 	1.821887837e-08 	0.002989568701 	-5.656551601e-08 	5.698948851e-06
0.7111815988 	0.001552877442 	0.0006339011944 	1.729718012e-08 	0.002981473973 	-5.763656975e-08 	5.683518051e-06
0.7155766245 	0.001556342678 	0.0006439040848 	1.658480677e-08 	0.002973057027 	-5.903208597e-08 	5.667473011e-06
0.7199227611 	0.001559964764 	0.0006536857208 	1.813223547e-08 	0.002964311893 	-5.782052851e-08 	5.650802355e-06
0.7242202053 	0.001563819895 	0.0006631044823 	2.627378069e-08 	0.002955168479 	-4.779210408e-08 	5.633372467e-06
0.7284707509 	0.00156848152 	0.0006715686669 	3.958390603e-08 	0.002944820816 	-3.141298691e-08 	5.613646945e-06
0.7326748377 	0.001574070071 	0.0006788951381 	5.470731247e-08 	0.002933148092 	-1.391194281e-08 	5.59139549e-06
0.7368320496 	0.001580553711 	0.0006850744444 	6.569314207e-08 	0.002920307995 	-3.241876614e-09 	5.566918696e-06
0.7409431719 	0.001587698126 	0.0006904263251 	7.0620403e-08 	0.002906751175 	-7.293660634e-10 	5.541075629e-06
0.7450100561 	0.00159486732 	0.0006956760151 	7.387188956e-08 	0.002893427402 	1.196809752e-09 	5.515676814e-06
0.7490317742 	0.001602022676 	0.0007009340089 	7.582189074e-08 	0.002880390413 	2.467149069e-09 	5.49082469e-06
0.7530089314 	0.001609117838 	0.0007063200854 	7.785960016e-08 	0.002867723017 	3.573734408e-09 	5.466677113e-06
0.7569426995 	0.001616135905 	0.0007118744563 	8.025818129e-08 	0.002855479373 	5.030627252e-09 	5.443337324e-06
0.7608334894 	0.001623117718 	0.0007175964577 	8.29211185e-08 	0.002843645496 	6.848794115e-09 	5.420778666e-06
0.7646812936 	0.001630101736 	0.0007234677642 	8.570274448e-08 	0.002832221461 	8.947084286e-09 	5.399001279e-06
0.7684866645 	0.001637108601 	0.0007295008024 	8.853302743e-08 	0.002821237639 	1.127781539e-08 	5.378063062e-06
0.7722507669 	0.001644162843 	0.0007357277675 	9.14143239e-08 	0.002810714199 	1.384250934e-08 	5.358002462e-06
0.7759735373 	0.001651298395 	0.0007421620177 	9.437783433e-08 	0.00280065778 	1.667015704e-08 	5.338832131e-06
0.779655338 	0.00165854344 	0.0007488026953 	9.743145432e-08 	0.002791092674 	1.979546742e-08 	5.320598381e-06
0.7832966776 	0.001665920244 	0.0007556714146 	1.005792143e-07 	0.002782057128 	2.324934407e-08 	5.303374119e-06
0.7868985473 	0.001673461032 	0.0007627961491 	1.038312879e-07 	0.002773573899 	2.705894777e-08 	5.287202726e-06
0.7904608766 	0.001681204593 	0.0007701868557 	1.071948386e-07 	0.002765659111 	3.124774664e-08 	5.272114941e-06
0.7939841139 	0.001689184731 	0.000777847523 	1.106627476e-07 	0.002758343851 	3.583667923e-08 	5.258170022e-06
0.7974687307 	0.00169743188 	0.0007857985302 	1.142324516e-07 	0.002751668579 	4.084790045e-08 	5.245445098e-06
0.8009155059 	0.001705983561 	0.0007940668236 	1.179097764e-07 	0.002745663176 	4.630574603e-08 	5.233997132e-06
0.8043245387 	0.001714882688 	0.0008026638222 	1.216971066e-07 	0.002740351916 	5.223559016e-08 	5.223872393e-06
0.8076962384 	0.001724168929 	0.0008115953108 	1.255787258e-07 	0.002735769609 	5.865907056e-08 	5.215137242e-06
0.8110310454 	0.001733878979 	0.000820876747 	1.295350713e-07 	0.002731959459 	6.559880624e-08 	5.207874039e-06
0.8143295486 	0.001744053241 	0.0008305323388 	1.335429564e-07 	0.002728959178 	7.307833874e-08 	5.202154669e-06
0.8175920432 	0.001754737591 	0.0008405745162 	1.375696386e-07 	0.002726798355 	8.112605111e-08 	5.19803554e-06
0.820818861 	0.001765975548 	0.0008510046322 	1.415474148e-07 	0.002725513328 	8.976995457e-08 	5.195585921e-06
0.824010415 	0.001777806336 	0.0008618292488 	1.453776775e-07 	0.002725148698 	9.904752547e-08 	5.194890834e-06
0.8271671471 	0.00179026934 	0.0008730589921 	1.489115068e-07 	0.002725747533 	1.090062883e-07 	5.19603238e-06
0.8302895134 	0.001803406573 	0.0008846975977 	1.486055029e-07 	0.002727345497 	1.170805557e-07 	5.199078544e-06
0.8333777685 	0.001817257185 	0.0008967291567 	1.427355392e-07 	0.002729980596 	1.214958385e-07 	5.204101776e-06
0.8364323014 	0.001831852104 	0.0009091329187 	1.359940756e-07 	0.002733699515 	1.259878937e-07 	5.211191068e-06
0.839453495 	0.001847212102 	0.0009218710314 	1.27893198e-07 	0.002738557608 	1.309949295e-07 	5.220451943e-06
0.8424417766 	0.001863354014 	0.0009348861693 	1.174477506e-07 	0.002744603834 	1.363286842e-07 	5.23197773e-06
0.8453974796 	0.001880292941 	0.0009480775772 	1.035870084e-07 	0.002751885721 	1.414721992e-07 	5.245859031e-06
0.8483209236 	0.001898053732 	0.0009613586017 	8.864187177e-08 	0.00276043237 	1.455804196e-07 	5.26215132e-06
0.851212471 	0.001916804579 	0.0009745082806 	6.898014696e-08 	0.002770097956 	1.412049864e-07 	5.280576614e-06
0.8540724785 	0.001936734645 	0.0009874778748 	4.682777562e-08 	0.002780739579 	1.265561681e-07 	5.300862505e-06
0.8569013304 	0.001958120864 	0.001000210297 	2.973706165e-08 	0.002792112823 	1.087527982e-07 	5.322543068e-06
0.8596993388 	0.001981163095 	0.001012739649 	2.175451945e-08 	0.002804072226 	9.583948369e-08 	5.345341014e-06
0.862466824 	0.002005755926 	0.001025440767 	2.240994444e-08 	0.002816852639 	9.150984583e-08 	5.369704033e-06
0.8652041249 	0.002031766222 	0.00103855025 	2.479943298e-08 	0.002830698794 	9.166680018e-08 	5.396098653e-06
0.8679115756 	0.002059119551 	0.001052190481 	2.649821884e-08 	0.002845773991 	9.291839693e-08 	5.424836168e-06