0.4709558481 	2.695171857e-08 	-0.005478990895 	2.32087042e-08 	-2.561357839e-08 	5.382990718e-12 	-4.88266002e-11
0.4709558481 	2.695171857e-08 	-0.005478990895 	2.32087042e-08 	-2.561357839e-08 	5.382990718e-12 	-4.88266002e-11
0.4711314108 	5.580154545e-08 	-0.005476738485 	2.320258216e-08 	-5.503944845e-08 	1.189899345e-11 	-1.049204859e-10
0.4713069734 	1.089568314e-07 	-0.005470863258 	2.318105523e-08 	-1.048233562e-07 	2.360099557e-11 	-1.998224508e-10
0.471482536 	1.586343377e-07 	-0.005464653913 	2.315216388e-08 	-1.476949769e-07 	3.549078554e-11 	-2.815476755e-10
0.4716580986 	2.028070522e-07 	-0.005457676062 	2.310801489e-08 	-1.796171919e-07 	4.712222925e-11 	-3.424002895e-10
0.4718336613 	2.443310499e-07 	-0.005449223833 	2.30369692e-08 	-2.062920029e-07 	5.880244048e-11 	-3.932498932e-10
0.4720092239 	2.908978424e-07 	-0.005438346139 	2.2925301e-08 	-2.430482793e-07 	7.093539759e-11 	-4.633175719e-10
0.4721847865 	3.530180236e-07 	-0.005424029771 	2.276200438e-08 	-3.107915689e-07 	8.389698284e-11 	-5.924551101e-10
0.4723603491 	4.370927913e-07 	-0.005405550291 	2.254588639e-08 	-4.221458221e-07 	9.76544356e-11 	-8.04727266e-10
0.4725359118 	5.37991532e-07 	-0.005382888712 	2.229139402e-08 	-5.666163446e-07 	1.115662378e-10 	-1.080128235e-09
0.4727114744 	6.389142057e-07 	-0.005357008204 	2.202855032e-08 	-7.103116597e-07 	1.247302721e-10 	-1.354051444e-09
0.472887037 	7.211169987e-07 	-0.005329796381 	2.179513768e-08 	-8.15376945e-07 	1.366754248e-10 	-1.554335079e-09
0.4730625996 	7.760254533e-07 	-0.005303642044 	2.162449574e-08 	-8.64216111e-07 	1.477276164e-10 	-1.647436104e-09
0.4732381623 	8.094757555e-07 	-0.005280823982 	2.153539472e-08 	-8.680171436e-07 	1.587082621e-10 	-1.654681928e-09
0.4734137249 	8.359051215e-07 	-0.005262981567 	2.152857663e-08 	-8.552175148e-07 	1.703267739e-10 	-1.630282278e-09
0.4735892875 	8.691136607e-07 	-0.005250855814 	2.15898795e-08 	-8.531108658e-07 	1.82821685e-10 	-1.62626642e-09
0.4737648501 	9.16676536e-07 	-0.005244324766 	2.169658154e-08 	-8.767113945e-07 	1.96008488e-10 	-1.671255587e-09
0.4739404128 	9.796826834e-07 	-0.005242632814 	2.182348506e-08 	-9.28219939e-07 	2.095188108e-10 	-1.769445189e-09
0.4741159754 	1.055353081e-06 	-0.005244681776 	2.194701016e-08 	-1.002216557e-06 	2.229944442e-10 	-1.91050331e-09
0.474291538 	1.139727457e-06 	-0.005249286566 	2.204724098e-08 	-1.09098216e-06 	2.361493001e-10 	-2.079715219e-09
0.4744671006 	1.228931565e-06 	-0.005255351703 	2.210863495e-08 	-1.186990913e-06 	2.487088009e-10 	-2.262734586e-09
0.4746426632 	1.319271495e-06 	-0.005261966733 	2.212021079e-08 	-1.283072234e-06 	2.604035145e-10 	-2.44589229e-09
0.4748182259 	1.407352503e-06 	-0.005268448115 	2.207657743e-08 	-1.372633278e-06 	2.710767658e-10 	-2.616620532e-09
0.4749937885 	1.551860987e-06 	-0.005274318793 	2.197362128e-08 	-1.572977343e-06 	2.953974685e-10 	-2.998532002e-09
0.4751693511 	1.70201071e-06 	-0.005279242375 	2.18095786e-08 	-1.782727971e-06 	2.902397994e-10 	-3.398374996e-09
0.4753449137 	1.629022304e-06 	-0.005283363731 	2.163300548e-08 	-1.545440673e-06 	2.563851918e-10 	-2.946039455e-09
0.4755204764 	1.567276858e-06 	-0.005284049621 	2.105680352e-08 	-1.330494955e-06 	3.118218352e-10 	-2.536293176e-09
0.475696039 	1.858530552e-06 	-0.00527862318 	2.050957798e-08 	-1.820939337e-06 	3.589789634e-10 	-3.471216481e-09
0.4758716016 	2.144698608e-06 	-0.005270507979 	2.038174136e-08 	-2.300674506e-06 	3.091954566e-10 	-4.385725048e-09
0.4760471642 	2.179344736e-06 	-0.005262650394 	2.022929879e-08 	-2.277007082e-06 	2.962778922e-10 	-4.340608359e-09
0.4762227269 	2.168556243e-06 	-0.005254723354 	2.006640283e-08 	-2.148255727e-06 	3.158252677e-10 	-4.095172492e-09
0.4764955107 	2.244272354e-06 	-0.005244726388 	1.986708011e-08 	-2.163365392e-06 	3.151036758e-10 	-4.123975714e-09
0.4767734216 	2.420167437e-06 	-0.005232731758 	1.964534942e-08 	-2.360624502e-06 	3.120330686e-10 	-4.500006403e-09
0.4770565557 	2.613910665e-06 	-0.005220668142 	1.94288533e-08 	-2.587918568e-06 	3.068248163e-10 	-4.933292065e-09
0.4773450114 	2.778870825e-06 	-0.005208470606 	1.922067366e-08 	-2.752282435e-06 	2.990430299e-10 	-5.246615278e-09
0.4776388886 	2.944032135e-06 	-0.005196124854 	1.902200786e-08 	-2.911670311e-06 	2.888877616e-10 	-5.550452869e-09
0.4779382892 	3.115553345e-06 	-0.005183620565 	1.883447187e-08 	-3.078486904e-06 	2.765562144e-10 	-5.868451659e-09
0.4782433171 	3.292300356e-06 	-0.005170951426 	1.865933259e-08 	-3.250591682e-06 	2.622373588e-10 	-6.1965312e-09
0.4785540779 	3.473643813e-06 	-0.005158115499 	1.849687623e-08 	-3.426858455e-06 	2.461748799e-10 	-6.532544661e-09
0.4788706795 	3.659455447e-06 	-0.005145102045 	1.834777978e-08 	-3.607178513e-06 	2.286701503e-10 	-6.876284808e-09
0.4791932316 	3.849611969e-06 	-0.00513190198 	1.821237991e-08 	-3.791465026e-06 	2.100778654e-10 	-7.227586122e-09
0.4795218461 	4.043944529e-06 	-0.005118506571 	1.80907362e-08 	-3.979548954e-06 	1.908018221e-10 	-7.586126364e-09
0.4798566368 	4.242270596e-06 	-0.005104907142 	1.798263861e-08 	-4.171240021e-06 	1.712920294e-10 	-7.951542816e-09
0.48019772 	4.444402864e-06 	-0.005091095039 	1.788760111e-08 	-4.366342169e-06 	1.520428688e-10 	-8.323461737e-09
0.4805452138 	4.65015105e-06 	-0.005077061648 	1.780485207e-08 	-4.56465531e-06 	1.335918901e-10 	-8.7015017e-09
0.4808992388 	4.85932305e-06 	-0.005062798419 	1.773332391e-08 	-4.765976718e-06 	1.165199011e-10 	-9.085276259e-09
0.4812599177 	5.071724891e-06 	-0.005048296878 	1.767164318e-08 	-4.970101526e-06 	1.014530632e-10 	-9.474394876e-09
0.4816273755 	5.287158288e-06 	-0.00503354865 	1.761812313e-08 	-5.176820682e-06 	8.906747332e-11 	-9.868459042e-09
0.4820017397 	5.50541483e-06 	-0.00501854548 	1.757076389e-08 	-5.38591525e-06 	8.009579418e-11 	-1.02670514e-08
0.48238314 	5.726265706e-06 	-0.005003279286 	1.752727224e-08 	-5.597145651e-06 	7.53365391e-11 	-1.066971526e-08
0.4827717088 	5.949448264e-06 	-0.004987742275 	1.748512491e-08 	-5.810238766e-06 	7.56873394e-11 	-1.107592996e-08
0.4831675807 	6.174659412e-06 	-0.004971927171 	1.744171867e-08 	-6.024892072e-06 	8.221250068e-11 	-1.148511882e-08
0.4835708931 	6.401553652e-06 	-0.004955827657 	1.739470608e-08 	-6.24078727e-06 	9.602647325e-11 	-1.189667507e-08
0.4839817856 	6.629565301e-06 	-0.004939439242 	1.734288401e-08 	-6.457243973e-06 	1.164148525e-10 	-1.230930171e-08
0.4844004009 	6.85740972e-06 	-0.004922761005 	1.728815717e-08 	-6.672188837e-06 	1.430327351e-10 	-1.271904636e-08
0.4848268841 	7.084493527e-06 	-0.00490579884 	1.723803671e-08 	-6.884822562e-06 	1.886276866e-10 	-1.312438534e-08
0.485261383 	7.326611666e-06 	-0.004888568493 	1.719681787e-08 	-7.126631405e-06 	4.112224059e-10 	-1.35853402e-08
0.4857040484 	7.60386925e-06 	-0.004871096577 	1.718646287e-08 	-7.437800839e-06 	2.852939595e-10 	-1.417851563e-08
0.4861550336 	7.788832735e-06 	-0.004853444908 	1.731822465e-08 	-7.562042712e-06 	-1.08969882e-10 	-1.441535517e-08
0.4866144951 	7.894818031e-06 	-0.004834966412 	1.279599024e-08 	-7.516763934e-06 	5.327101196e-10 	-1.432904123e-08
0.4870825921 	8.223918528e-06 	-0.004813031259 	8.987564598e-09 	-7.902675516e-06 	9.633305398e-10 	-1.506469597e-08
0.487559487 	8.627178829e-06 	-0.004788913725 	9.576044335e-09 	-8.431353228e-06 	3.491137118e-10 	-1.607250263e-08
0.4880453452 	8.837321174e-06 	-0.004765184734 	9.003925803e-09 	-8.576343652e-06 	2.529886709e-10 	-1.634889467e-08
0.4885403351 	9.041740688e-06 	-0.004741175661 	8.370452866e-09 	-8.713745192e-06 	4.33066843e-10 	-1.66108202e-08
0.4890446283 	9.305536867e-06 	-0.004716850096 	7.721749794e-09 	-8.97332556e-06 	3.625635722e-10 	-1.710565252e-08
0.4895583997 	9.553724451e-06 	-0.004692174356 	7.071498937e-09 	-9.206159947e-06 	3.27452795e-10 	-1.754949958e-08
0.4900818274 	9.796087833e-06 	-0.004667130969 	6.478414112e-09 	-9.431863501e-06 	2.959232137e-10 	-1.797975328e-08
0.4906150929 	1.003311399e-05 	-0.004641738264 	5.945369609e-09 	-9.651387711e-06 	2.648014541e-10 	-1.839822744e-08
0.4911583811 	1.026478357e-05 	-0.004616015944 	5.470240797e-09 	-9.864654245e-06 	2.349178836e-10 	-1.880477273e-08
0.4917118805 	1.049152186e-05 	-0.00458998117 	5.050115542e-09 	-1.007245061e-05 	2.047001143e-10 	-1.920089035e-08
0.4922757829 	1.071343549e-05 	-0.004563647564 	4.682180908e-09 	-1.027490458e-05 	1.739008219e-10 	-1.958682389e-08
0.4928502838 	1.093064442e-05 	-0.004537025143 	4.364233061e-09 	-1.047213478e-05 	1.425120329e-10 	-1.996279947e-08
0.4934355824 	1.114330751e-05 	-0.00451012075 	4.094428024e-09 	-1.066429219e-05 	1.10685288e-10 	-2.03291049e-08
0.4940318817 	1.135163125e-05 	-0.00448293844 	3.871176697e-09 	-1.085157204e-05 	7.870498282e-11 	-2.068611234e-08
0.4946393885 	1.155587616e-05 	-0.004455479868 	3.693108542e-09 	-1.103422449e-05 	4.693987904e-11 	-2.103429868e-08
0.4952583133 	1.175635329e-05 	-0.004427744678 	3.559046748e-09 	-1.121255012e-05 	1.581613039e-11 	-2.137423689e-08
0.4958888709 	1.195341729e-05 	-0.004399730882 	3.467953779e-09 	-1.138689168e-05 	-1.420867226e-11 	-2.170658037e-08
0.4965312797 	1.214745624e-05 	-0.004371435163 	3.418822231e-09 	-1.155762267e-05 	-4.266873106e-11 	-2.203204107e-08
0.4971857627 	1.233888005e-05 	-0.004342853078 	3.410517277e-09 	-1.172513441e-05 	-6.911010694e-11 	-2.235136502e-08
0.4978525466 	1.252810867e-05 	-0.004313979074 	3.441603574e-09 	-1.188982393e-05 	-9.310836533e-11 	-2.266530902e-08
0.4985318627 	1.271556143e-05 	-0.004284806337 	3.510203481e-09 	-1.205208418e-05 	-1.142847689e-10 	-2.297462216e-08
0.4992239466 	1.290164504e-05 	-0.004255326453 	3.613929448e-09 	-1.221229226e-05 	-1.323217392e-10 	-2.328002327e-08
0.4999290382 	1.308674023e-05 	-0.004225528945 	3.749912175e-09 	-1.237079576e-05 	-1.469771434e-10 	-2.3582175e-08
0.5006473819 	1.327118396e-05 	-0.004195400713 	3.914915464e-09 	-1.252789217e-05 	-1.580963069e-10 	-2.388164442e-08
0.501379227 	1.345507564e-05 	-0.004164925634 	4.105506354e-09 	-1.2683459e-05 	-1.656254655e-10 	-2.417819805e-08
0.502124827 	1.36384659e-05 	-0.004134084782 	4.318242658e-09 	-1.283735087e-05 	-1.696044086e-10 	-2.447155871e-08
0.5028844406 	1.382117236e-05 	-0.004102858267 	4.549901939e-09 	-1.298904917e-05 	-1.701877457e-10 	-2.476073784e-08
0.5036583311 	1.399669782e-05 	-0.004071245895 	4.798146555e-09 	-1.31255411e-05 	-1.676710624e-10 	-2.502092939e-08
0.5044467669 	1.420080691e-05 	-0.004039276954 	5.061860491e-09 	-1.331834651e-05 	-1.600325741e-10 	-2.538847008e-08
0.5052500214 	1.442763314e-05 	-0.004007011343 	5.342432405e-09 	-1.355558444e-05 	-1.482278722e-10 	-2.584071152e-08
0.506068373 	1.458977204e-05 	-0.003970908908 	5.690921913e-09 	-1.363544542e-05 	-1.370521549e-10 	-2.599294875e-08
0.507324668 	1.477911969e-05 	-0.003925578878 	6.098367869e-09 	-1.372339741e-05 	-1.195849135e-10 	-2.616060969e-08
0.5085949819 	1.506973441e-05 	-0.003874256904 	6.481681972e-09 	-1.400276098e-05 	-9.139899023e-11 	-2.669315429e-08
0.5098794711 	1.532711635e-05 	-0.0038219978 	6.820263176e-09 	-1.423110102e-05 	-6.227873667e-11 	-2.712843387e-08
0.5111782938 	1.553269117e-05 	-0.003768998272 	7.117878322e-09 	-1.437143968e-05 	-3.533932978e-11 	-2.739595837e-08
0.5124916099 	1.573537009e-05 	-0.003715365019 	7.376702076e-09 	-1.452076773e-05 	-8.528775325e-12 	-2.768061914e-08
0.5138195812 	1.592497508e-05 	-0.003661156317 	7.598565441e-09 	-1.465825644e-05 	1.768878195e-11 	-2.794271083e-08
0.5151623712 	1.61017079e-05 	-0.003606397924 	7.783964619e-09 	-1.478373119e-05 	4.372335596e-11 	-2.818190057e-08
0.5165201452 	1.626613925e-05 	-0.00355111198 	7.931824489e-09 	-1.489764575e-05 	7.038981648e-11 	-2.839905339e-08
0.5178930705 	1.641889708e-05 	-0.003495318145 	8.038955783e-09 	-1.500046819e-05 	9.864628209e-11 	-2.859506154e-08
0.5192813161 	1.656095183e-05 	-0.003439033128 	8.09982286e-09 	-1.509327987e-05 	1.294416812e-10 	-2.87719864e-08
0.520685053 	1.669328102e-05 	-0.003382269789 	8.106631694e-09 	-1.517716203e-05 	1.635641787e-10 	-2.89318891e-08
0.522104454 	1.681680434e-05 	-0.003325036321 	8.049672307e-09 	-1.525313596e-05 	2.015377608e-10 	-2.907671653e-08
0.523539694 	1.693230588e-05 	-0.003267335749 	7.917847291e-09 	-1.532208298e-05 	2.435558479e-10 	-2.920814871e-08
0.5249909497 	1.70403589e-05 	-0.003209165675 	7.699314556e-09 	-1.538466851e-05 	2.89449896e-10 	-2.932745414e-08
0.5264583998 	1.714126018e-05 	-0.003150518211 	7.382182035e-09 	-1.544127854e-05 	3.386898087e-10 	-2.943536859e-08
0.527942225 	1.723497485e-05 	-0.003091380067 	6.955202825e-09 	-1.549196579e-05 	3.904113173e-10 	-2.953199256e-08
0.5294426081 	1.732109566e-05 	-0.003031732772 	6.408430272e-09 	-1.553641043e-05 	4.434650388e-10 	-2.96167164e-08
0.5309597337 	1.739881887e-05 	-0.002971553015 	5.733803542e-09 	-1.55738975e-05 	4.964817891e-10 	-2.968817717e-08
0.5324937889 	1.746693814e-05 	-0.002910813112 	4.92564413e-09 	-1.560331214e-05 	5.479488258e-10 	-2.974424965e-08
0.5340449624 	1.752385652e-05 	-0.002849481618 	3.981052356e-09 	-1.562315315e-05 	5.962920092e-10 	-2.978207214e-08
0.5356134452 	1.756761651e-05 	-0.002787524106 	2.900199103e-09 	-1.563156441e-05 	6.399592098e-10 	-2.979810633e-08
0.5371994306 	1.759594692e-05 	-0.002724904158 	1.686511818e-09 	-1.562638292e-05 	6.775007474e-10 	-2.978822897e-08
0.5388031139 	1.760632478e-05 	-0.002661584592 	3.467544263e-10 	-1.560520176e-05 	7.076430183e-10 	-2.97478518e-08
0.5404246925 	1.759605e-05 	-0.002597528964 	-1.109001176e-09 	-1.556544525e-05 	7.293519148e-10 	-2.967206483e-08
0.5420643661 	1.756232947e-05 	-0.002532703325 	-2.667518096e-09 	-1.550445299e-05 	7.418829767e-10 	-2.955579663e-08
0.5437223366 	1.7502367e-05 	-0.002467078199 	-4.31266158e-09 	-1.541956904e-05 	7.448157839e-10 	-2.939398425e-08
0.5453988083 	1.741345484e-05 	-0.002400630709 	-6.025800476e-09 	-1.53082318e-05 	7.380707025e-10 	-2.918174451e-08
0.5470939875 	1.729306195e-05 	-0.00233334671 	-7.786349179e-09 	-1.516806007e-05 	7.219070476e-10 	-2.891453824e-08
0.5488080831 	1.713891473e-05 	-0.002265222791 	-9.572445837e-09 	-1.499693117e-05 	6.969028417e-10 	-2.858831899e-08
0.5505413061 	1.694906573e-05 	-0.00219626798 	-1.13617497e-08 	-1.479304693e-05 	6.639180138e-10 	-2.819965897e-08
0.5522938699 	1.672194701e-05 	-0.002126504998 	-1.313232768e-08 	-1.455498479e-05 	6.240448759e-10 	-2.774584637e-08
0.5540659904 	1.64564057e-05 	-0.002055970979 	-1.486359495e-08 	-1.428173155e-05 	5.785518151e-10 	-2.722494973e-08
0.5558578859 	1.615172048e-05 	-0.001984717613 	-1.653727317e-08 	-1.397269888e-05 	5.288272041e-10 	-2.663584758e-08
0.5576697768 	1.580759894e-05 	-0.001912810758 	-1.813831926e-08 	-1.362772059e-05 	4.763280262e-10 	-2.597822307e-08
0.5595018865 	1.542415707e-05 	-0.001840329626 	-1.965571974e-08 	-1.324703283e-05 	4.225286908e-10 	-2.52525264e-08
0.5613544406 	1.500188495e-05 	-0.001767365706 	-2.108290201e-08 	-1.283124135e-05 	3.688483635e-10 	-2.445991228e-08
0.563227667 	1.454160861e-05 	-0.001694021574 	-2.241728503e-08 	-1.238128472e-05 	3.165166575e-10 	-2.360216988e-08
0.5651217966 	1.404446911e-05 	-0.001620409641 	-2.365831582e-08 	-1.189841211e-05 	2.663377789e-10 	-2.268168047e-08
0.5670370626 	1.351195396e-05 	-0.00154665072 	-2.480355642e-08 	-1.138420583e-05 	2.183734753e-10 	-2.170146039e-08
0.5689737009 	1.2946022e-05 	-0.001472872064 	-2.584344186e-08 	-1.084068581e-05 	1.717105593e-10 	-2.066536017e-08
0.5709319499 	1.234933251e-05 	-0.001399204418 	-2.675729354e-08 	-1.027050811e-05 	1.24690675e-10 	-1.9578443e-08
0.5729120508 	1.172550544e-05 	-0.001325777999 	-2.751501235e-08 	-9.67721054e-06 	7.603084124e-11 	-1.844745293e-08
0.5749142474 	1.10792376e-05 	-0.001252718239 	-2.808790176e-08 	-9.065422367e-06 	2.660457663e-11 	-1.728121464e-08
0.5769387863 	1.041569919e-05 	-0.001180143653 	-2.846688945e-08 	-8.44024624e-06 	-1.824235173e-11 	-1.608945518e-08
0.5789859169 	9.739850328e-06 	-0.001108167073 	-2.867648606e-08 	-7.80727298e-06 	-5.33402662e-11 	-1.488283222e-08
0.5810558911 	9.050083656e-06 	-0.001036897776 	-2.877187109e-08 	-7.161513487e-06 	-7.787968264e-11 	-1.365183515e-08
0.583148964 	8.343960841e-06 	-0.0009664631606 	-2.881275721e-08 	-6.499554298e-06 	-9.203460132e-11 	-1.238995695e-08
0.5852653933 	7.629697283e-06 	-0.0008969691581 	-2.879128951e-08 	-5.840866852e-06 	-1.06646813e-10 	-1.11343156e-08
0.5874054395 	6.904385708e-06 	-0.0008287078118 	-2.862051482e-08 	-5.17714853e-06 	-1.38835273e-10 	-9.869084013e-09
0.5895693664 	6.161998247e-06 	-0.0007620844965 	-2.821595977e-08 	-4.487201746e-06 	-1.841134455e-10 	-8.553853681e-09
0.5917574402 	5.422502418e-06 	-0.0006972281473 	-2.756908829e-08 	-3.801407397e-06 	-2.184986093e-10 	-7.246539044e-09
0.5939699306 	4.701099885e-06 	-0.0006342790018 	-2.676180482e-08 	-3.140862196e-06 	-2.26082045e-10 	-5.987356304e-09
0.5962071099 	3.995646221e-06 	-0.0005734942276 	-2.589208813e-08 	-2.494962041e-06 	-2.131355533e-10 	-4.756091089e-09
0.5984692536 	3.307391339e-06 	-0.0005150808404 	-2.499433251e-08 	-1.86501354e-06 	-1.983469811e-10 	-3.55523416e-09
0.6007566404 	2.636687615e-06 	-0.0004592640092 	-2.403455993e-08 	-1.252180501e-06 	-1.943545255e-10 	-2.38700406e-09
0.6030695519 	1.981584123e-06 	-0.0004062839239 	-2.295912551e-08 	-6.523034592e-07 	-2.016805019e-10 	-1.243471692e-09
0.6054082729 	1.342083856e-06 	-0.0003563763322 	-2.173910121e-08 	-6.401359491e-08 	-2.14873921e-10 	-1.220277035e-10
0.6077730914 	7.184375707e-07 	-0.0003097467643 	-2.038351589e-08 	5.13845907e-07 	-2.292126007e-10 	9.795331148e-10
0.6101642987 	1.103346356e-07 	-0.0002665441998 	-1.893089704e-08 	1.082911549e-06 	-2.427883253e-10 	2.064330393e-09
0.6125821893 	-4.835322902e-07 	-0.0002268384943 	-1.743590541e-08 	1.645602242e-06 	-2.556324001e-10 	3.136975244e-09
0.6150270608 	-1.065582964e-06 	-0.000190604915 	-1.595623411e-08 	2.205116691e-06 	-2.68657765e-10 	4.203565293e-09
0.6174992144 	-1.639488319e-06 	-0.000157727858 	-1.454326637e-08 	2.765678967e-06 	-2.82606375e-10 	5.272152791e-09
0.6199989545 	-2.209530573e-06 	-0.0001280069172 	-1.324141283e-08 	3.331596058e-06 	-2.974795958e-10 	6.350948056e-09
0.622526589 	-2.779867196e-06 	-0.000101170018 	-1.208186126e-08 	3.906420708e-06 	-3.131512602e-10 	7.446723603e-09
0.625082429 	-3.354703153e-06 	-7.690894206e-05 	-1.107813759e-08 	4.493585945e-06 	-3.29608027e-10 	8.566023738e-09
0.6276667894 	-3.938150736e-06 	-5.490565778e-05 	-1.023212342e-08 	5.096273066e-06 	-3.466528973e-10 	9.714912899e-09
0.6302799884 	-4.53382022e-06 	-3.485000367e-05 	-9.537127416e-09 	5.716938339e-06 	-3.640331828e-10 	1.089807342e-08
0.6329223478 	-5.144731612e-06 	-1.645578361e-05 	-8.980488555e-09 	6.357398977e-06 	-3.815097479e-10 	1.21189694e-08
0.6355941931 	-5.773188696e-06 	5.312590917e-07 	-8.546799398e-09 	7.018724207e-06 	-3.988255672e-10 	1.337963909e-08
0.6382958531 	-6.420745806e-06 	1.63304927e-05 	-8.22008654e-09 	7.701207848e-06 	-4.157791616e-10 	1.46806426e-08
0.6410276607 	-7.088295398e-06 	3.112701213e-05 	-7.985162452e-09 	8.404497975e-06 	-4.322662071e-10 	1.602130905e-08
0.6437899523 	-7.776192827e-06 	4.507437408e-05 	-7.828310497e-09 	9.127753581e-06 	-4.48286979e-10 	1.740003525e-08
0.646583068 	-8.484387357e-06 	5.829834273e-05 	-7.737524419e-09 	9.869803675e-06 	-4.639264923e-10 	1.881458898e-08
0.6494073518 	-9.212524862e-06 	7.090090203e-05 	-7.702493705e-09 	1.062926593e-05 	-4.793244068e-10 	2.026233511e-08
0.6522631514 	-9.960012457e-06 	8.296410684e-05 	-7.714470078e-09 	1.140461616e-05 	-4.946490603e-10 	2.174036815e-08
0.6551508186 	-1.072604713e-05 	9.455356595e-05 	-7.766086071e-09 	1.219421374e-05 	-5.100813785e-10 	2.32455606e-08
0.658070709 	-1.15096159e-05 	0.0001057214805 	-7.851157472e-09 	1.299629419e-05 	-5.258070363e-10 	2.477454886e-08
0.6610231822 	-1.230947468e-05 	0.0001165092335 	-7.964485178e-09 	1.380893899e-05 	-5.420129667e-10 	2.632367571e-08
0.6640086017 	-1.312411171e-05 	0.0001269495618 	-8.101666942e-09 	1.463003027e-05 	-5.588851042e-10 	2.78889039e-08
0.6670273351 	-1.395169974e-05 	0.0001370683609 	-8.258926002e-09 	1.54571957e-05 	-5.766058274e-10 	2.946571111e-08
0.6700797543 	-1.479004099e-05 	0.0001468861745 	-8.432960698e-09 	1.628774812e-05 	-5.95350635e-10 	3.104897487e-08
0.6731662352 	-1.563650849e-05 	0.0001564194203 	-8.620816229e-09 	1.711862419e-05 	-6.152841756e-10 	3.263285559e-08
0.6762871577 	-1.648798844e-05 	0.0001656814007 	-8.819778168e-09 	1.794632672e-05 	-6.365557883e-10 	3.421068666e-08
0.6794429063 	-1.734082807e-05 	0.0001746831366 	-9.027286149e-09 	1.876687562e-05 	-6.59294742e-10 	3.577488091e-08
0.6826338695 	-1.819079428e-05 	0.0001834340614 	-9.240866143e-09 	1.957577246e-05 	-6.836051201e-10 	3.731686311e-08
0.6858604404 	-1.903304793e-05 	0.0001919426047 	-9.458079491e-09 	2.036798329e-05 	-7.095602563e-10 	3.882703714e-08
0.6891230163 	-1.986213799e-05 	0.0002002166895 	-9.676487224e-09 	2.113794348e-05 	-7.371963973e-10 	4.029479526e-08
0.6924219988 	-2.067201906e-05 	0.0002082641655 	-9.893628e-09 	2.187958729e-05 	-7.665053695e-10 	4.170857449e-08
0.6957577944 	-2.145609467e-05 	0.0002160931938 	-1.01070082e-08 	2.258640372e-05 	-7.974260005e-10 	4.305596305e-08
0.6991308138 	-2.22072879e-05 	0.0002237125979 	-1.031410259e-08 	2.325151915e-05 	-8.298344426e-10 	4.432385792e-08
0.7025414724 	-2.291814012e-05 	0.0002311321895 	-1.051236407e-08 	2.386780665e-05 	-8.63533869e-10 	4.549867319e-08
0.7059901901 	-2.358093798e-05 	0.0002383630801 	-1.069924085e-08 	2.442802117e-05 	-8.982447243e-10 	4.656659777e-08
0.7094773917 	-2.418786778e-05 	0.0002454179831 	-1.08721991e-08 	2.492495838e-05 	-9.335972852e-10 	4.751389821e-08
0.7130035066 	-2.473119543e-05 	0.0002523115163 	-1.102874874e-08 	2.535163573e-05 	-9.691290989e-10 	4.832726383e-08
0.7165689691 	-2.52034635e-05 	0.0002590605096 	-1.116646944e-08 	2.570148317e-05 	-1.004290118e-09 	4.899417028e-08
0.7201742182 	-2.559771302e-05 	0.000265684335 	-1.128303364e-08 	2.596856829e-05 	-1.03845975e-09 	4.950330876e-08
0.7238196978 	-2.590765926e-05 	0.0002722052889 	-1.137622276e-08 	2.614772875e-05 	-1.07097335e-09 	4.984483839e-08
0.727505857 	-2.612783875e-05 	0.000278648928 	-1.144393213e-08 	2.623466886e-05 	-1.10115384e-09 	5.00105704e-08
0.7312331497 	-2.625387598e-05 	0.0002850462984 	-1.148423431e-08 	2.622633972e-05 	-1.128368924e-09 	4.999469273e-08
0.7350020349 	-2.628191166e-05 	0.0002914157295 	-1.149556894e-08 	2.612064415e-05 	-1.151978895e-09 	4.979320761e-08
0.7387709215 	-2.620898384e-05 	0.0002977390491 	-1.147688612e-08 	2.591695638e-05 	-1.171172967e-09 	4.94049221e-08
0.7424982157 	-2.603579943e-05 	0.0003040043833 	-1.142792172e-08 	2.561822095e-05 	-1.185161581e-09 	4.883544935e-08
0.7461843763 	-2.576685465e-05 	0.0003102437468 	-1.134930072e-08 	2.523036826e-05 	-1.193477728e-09 	4.809609432e-08
0.7498298574 	-2.540832406e-05 	0.0003165054013 	-1.124206027e-08 	2.476037264e-05 	-1.195909127e-09 	4.720015204e-08
0.7534351078 	-2.496727744e-05 	0.0003228365547 	-1.110730099e-08 	2.421585107e-05 	-1.192399908e-09 	4.616214258e-08
0.7570005716 	-2.445155319e-05 	0.0003292850849 	-1.094620567e-08 	2.360505967e-05 	-1.183066143e-09 	4.499780443e-08
0.7605266877 	-2.386944713e-05 	0.000335899604 	-1.076000867e-08 	2.293653716e-05 	-1.168169782e-09 	4.37234147e-08
0.7640138905 	-2.322944803e-05 	0.0003427296543 	-1.054998773e-08 	2.22188393e-05 	-1.148077162e-09 	4.235528311e-08
0.7674626093 	-2.254002342e-05 	0.0003498259029 	-1.031747747e-08 	2.146035241e-05 	-1.123222168e-09 	4.09093963e-08
0.770873269 	-2.180943088e-05 	0.0003572403279 	-1.006390735e-08 	2.066912217e-05 	-1.09406741e-09 	3.940109155e-08
0.7742462894 	-2.104557758e-05 	0.0003650263729 	-9.790865207e-09 	1.985273366e-05 	-1.061070765e-09 	3.784482814e-08
0.777582086 	-2.02559279e-05 	0.0003732390375 	-9.500184238e-09 	1.901823875e-05 	-1.02466065e-09 	3.625404891e-08
0.7808810695 	-1.944745623e-05 	0.0003819348709 	-9.194049306e-09 	1.817212749e-05 	-9.852223274e-10 	3.464112568e-08
0.7841436462 	-1.862663628e-05 	0.0003911718377 	-8.875115433e-09 	1.732033413e-05 	-9.43095412e-10 	3.301737078e-08
0.787370218 	-1.779945559e-05 	0.0004010090287 	-8.546628804e-09 	1.646826626e-05 	-8.985811968e-10 	3.13930926e-08
0.7905611821 	-1.697144264e-05 	0.0004115061975 	-8.212537903e-09 	1.562084447e-05 	-8.519572e-10 	2.977767115e-08
0.7937169314 	-1.614769395e-05 	0.0004227231119 	-7.877580141e-09 	1.47825406e-05 	-8.034956993e-10 	2.817963098e-08
0.7968378547 	-1.533289073e-05 	0.0004347187234 	-7.547327599e-09 	1.395740453e-05 	-7.534828492e-10 	2.66066923e-08
0.7999243362 	-1.45312973e-05 	0.0004475501645 	-7.228175341e-09 	1.314907287e-05 	-7.022352414e-10 	2.506578749e-08
0.8029767561 	-1.374673854e-05 	0.0004612715944 	-6.9272576e-09 	1.236075721e-05 	-6.50111335e-10 	2.356303874e-08
0.8059954902 	-1.298255877e-05 	0.0004759329198 	-6.652281515e-09 	1.159521485e-05 	-5.975161905e-10 	2.210370222e-08
0.8089809102 	-1.224157055e-05 	0.0004915784332 	-6.411274538e-09 	1.085470992e-05 	-5.448991669e-10 	2.069209401e-08
0.8119333839 	-1.152600635e-05 	0.0005082454373 	-6.212249896e-09 	1.014097644e-05 	-4.9274558e-10 	1.933151962e-08
0.8148532749 	-1.083748631e-05 	0.0005259629532 	-6.062803768e-09 	9.455195185e-06 	-4.415642283e-10 	1.802422996e-08
0.8177409426 	-1.017701246e-05 	0.0005447506404 	-5.969667181e-09 	8.797993419e-06 	-3.918729488e-10 	1.677142073e-08
0.8205967427 	-9.544992484e-06 	0.0005646180483 	-5.938242143e-09 	8.169470369e-06 	-3.441837219e-10 	1.557328111e-08
0.8234210268 	-8.941289577e-06 	0.0005855642896 	-5.972153142e-09 	7.569245329e-06 	-2.989881392e-10 	1.442908536e-08
0.8262141429 	-8.36529091e-06 	0.0006075781769 	-6.072841899e-09 	6.996521321e-06 	-2.567442019e-10 	1.333731422e-08
0.8289764348 	-7.81598639e-06 	0.0006306388202 	-6.239229423e-09 	6.450156747e-06 	-2.17867076e-10 	1.229579149e-08
0.8317082427 	-7.29204823e-06 	0.0006547166594 	-6.467470484e-09 	5.928736859e-06 	-1.82728722e-10 	1.130182026e-08
0.8344099031 	-6.791898397e-06 	0.0006797748731 	-6.750828894e-09 	5.430633698e-06 	-1.516721657e-10 	1.035229719e-08
0.8370817486 	-6.313747978e-06 	0.0007057710883 	-7.079686494e-09 	4.954039514e-06 	-1.250407114e-10 	9.443776217e-09
0.8397241082 	-5.855597107e-06 	0.0007326593082 	-7.441654536e-09 	4.496961995e-06 	-1.032094116e-10 	8.572459428e-09
0.8423373074 	-5.415199587e-06 	0.0007603920122 	-7.821728434e-09 	4.057184716e-06 	-8.659645953e-11 	7.734121704e-09
0.844921668 	-4.990014627e-06 	0.0007889224032 	-8.202469407e-09 	3.632215232e-06 	-7.563951307e-11 	6.924011754e-09
0.8474775082 	-4.577175588e-06 	0.0008182067576 	-8.56427829e-09 	3.219251149e-06 	-7.07417956e-11 	6.136787435e-09
0.8500051427 	-4.173497103e-06 	0.0008482067482 	-8.885861089e-09 	2.815185327e-06 	-7.220739115e-11 	5.366525674e-09
0.8525048829 	-3.775525555e-06 	0.0008788915414 	-9.144937076e-09 	2.416654204e-06 	-8.018512093e-11 	4.606814586e-09
0.8549770366 	-3.379624516e-06 	0.0009102394516 	-9.319151905e-09 	2.020120188e-06 	-9.463152224e-11 	3.850910541e-09
0.8574219081 	-2.982081382e-06 	0.0009422389985 	-9.387092274e-09 	1.621974507e-06 	-1.152947018e-10 	3.091934214e-09
0.8598397987 	-2.57922233e-06 	0.0009748892939 	-9.329282208e-09 	1.218648305e-06 	-1.417162404e-10 	2.323082375e-09
0.862231006 	-2.167526162e-06 	0.001008199774 	-9.129063355e-09 	8.067231928e-07 	-1.732470392e-10 	1.537838623e-09
0.8645958245 	-1.743730942e-06 	0.001042189344 	-8.773298651e-09 	3.830354282e-07 	-2.090732896e-10 	7.301719853e-10
0.8669345455 	-1.304929555e-06 	0.001076885048 	-8.252872466e-09 	-5.523010402e-08 	-2.482493252e-10 	-1.052839287e-10
0.8692474569 	-8.4865166e-07 	0.001112320374 	-7.562984417e-09 	-5.104588292e-07 	-2.897346408e-10 	-9.730764032e-10
0.8715348435 	-3.729301988e-07 	0.001148533314 	-6.703248751e-09 	-9.845403258e-07 	-3.324326212e-10 	-1.8768075e-09
0.8737969871 	1.236487589e-07 	0.001185564292 	-5.677619962e-09 	-1.478818481e-06 	-3.752287287e-10 	-2.81903904e-09
0.8760341663 	6.419135019e-07 	0.001223454054 	-4.494170288e-09 	-1.994058737e-06 	-4.170260968e-10 	-3.801230172e-09
0.8782466565 	1.182091503e-06 	0.001262241618 	-3.164747453e-09 	-2.53043254e-06 	-4.567768439e-10 	-4.823707719e-09
0.8804347301 	1.743810907e-06 	0.00130196233 	-1.704541749e-09 	-3.087518386e-06 	-4.935079041e-10 	-5.885668174e-09
0.8825986568 	2.326117398e-06 	0.001342646115 	-1.315907915e-10 	-3.664318222e-06 	-5.26340763e-10 	-6.985208976e-09
0.8847387028 	2.927504589e-06 	0.001384315942 	1.533751926e-09 	-4.259287425e-06 	-5.545050534e-10 	-8.119385639e-09
0.8868551318 	3.545955762e-06 	0.001426986533 	3.269361576e-09 	-4.870376162e-06 	-5.773464428e-10 	-9.284290616e-09
0.8889482045 	4.17899452e-06 	0.001470663341 	5.05188027e-09 	-5.49507977e-06 	-5.943295834e-10 	-1.047514932e-08
0.8910181784 	4.823741902e-06 	0.001515341794 	6.85723346e-09 	-6.130495668e-06 	-6.050371002e-10 	-1.168642863e-08
0.8930653087 	5.476977581e-06 	0.001561006798 	8.661112653e-09 	-6.773384464e-06 	-6.091656343e-10 	-1.291195335e-08
0.8950898473 	6.135202987e-06 	0.001607632486 	1.043941616e-08 	-7.420233054e-06 	-6.065198916e-10 	-1.414502655e-08
0.8970920436 	6.794704449e-06 	0.001655182197 	1.216864284e-08 	-8.06731784e-06 	-5.970055258e-10 	-1.537855e-08
0.8990721441 	7.451614837e-06 	0.001703608653 	1.382623697e-08 	-8.710766486e-06 	-5.806215084e-10 	-1.660514196e-08
0.9010303927 	8.101972511e-06 	0.001752854324 	1.539088474e-08 	-9.346617049e-06 	-5.574524718e-10 	-1.781724985e-08
0.9029670306 	8.741776795e-06 	0.001802851941 	1.684276591e-08 	-9.970873665e-06 	-5.27661338e-10 	-1.900725647e-08
0.9048822962 	9.367039582e-06 	0.001853525155 	1.816376567e-08 	-1.057955839e-05 	-4.914824432e-10 	-2.016757873e-08
0.9067764254 	9.973833018e-06 	0.001904789318 	1.933765377e-08 	-1.116875915e-05 	-4.492152609e-10 	-2.129075913e-08
0.9086496514 	1.055833355e-05 	0.001956552383 	2.03502386e-08 	-1.173467404e-05 	-4.01218767e-10 	-2.23695502e-08