0.4706627813 	0.01006849114 	-2.859107351e-05 	-3.429352375e-08
0.4708355793 	0.02789667266 	-7.886218387e-05 	-9.534410316e-08
0.4710083775 	0.05574498266 	-0.0001574760583 	-1.930055833e-07
0.4711811759 	0.08354444474 	-0.0002362774969 	-2.942306911e-07
0.4713539745 	0.1112906807 	-0.0003150992931 	-3.982095043e-07
0.4715267733 	0.1389722974 	-0.0003939190673 	-5.046164017e-07
0.4716995723 	0.166565546 	-0.0004726574127 	-6.13105224e-07
0.4718723715 	0.1940284442 	-0.000551129285 	-7.232714673e-07
0.4720451709 	0.2212961131 	-0.0006290209865 	-8.346323613e-07
0.4722179705 	0.2482795016 	-0.0007059284599 	-9.466251481e-07
0.4723907703 	0.2748691732 	-0.0007814481516 	-1.058615057e-06
0.4725635703 	0.3009442184 	-0.0008552658583 	-1.169925426e-06
0.4727363705 	0.3263843027 	-0.0009271807284 	-1.2798867e-06
0.4729091709 	0.3510815804 	-0.0009970592595 	-1.38788788e-06
0.4730819714 	0.3749494925 	-0.00106477384 	-1.49341256e-06
0.4732547721 	0.3979270034 	-0.001130178657 	-1.596052769e-06
0.4734275731 	0.4199785677 	-0.001193128715 	-1.695505506e-06
0.4736003742 	0.4410911652 	-0.001253513637 	-1.791560583e-06
0.4737731754 	0.4612699421 	-0.001311279886 	-1.88408594e-06
0.4739459769 	0.4805336448 	-0.001366433893 	-1.97301327e-06
0.4741187785 	0.4989105363 	-0.001419031868 	-2.058325001e-06
0.4742915803 	0.5164350737 	-0.001469164831 	-2.140043081e-06
0.4744643823 	0.5331453666 	-0.00151694467 	-2.218220831e-06
0.4746371844 	0.5490813171 	-0.001562494576 	-2.292940794e-06
0.4748099867 	0.5642833027 	-0.001605944733 	-2.364310216e-06
0.4749827891 	0.5787912903 	-0.001647430549 	-2.432450245e-06
0.4751555917 	0.5926442707 	-0.001686963454 	-2.496360205e-06
0.4753283945 	0.6058797371 	-0.001724344715 	-2.558942899e-06
0.4755011974 	0.6185339227 	-0.001760741563 	-2.619890493e-06
0.4756740004 	0.6306435044 	-0.001796228757 	-2.674603878e-06
0.4758468036 	0.6438154304 	-0.001833572369 	-2.735360479e-06
0.4761153003 	0.6594101582 	-0.00187807979 	-2.806756936e-06
0.4763888437 	0.6757306229 	-0.001925539835 	-2.880507353e-06
0.4766675287 	0.6913310913 	-0.001970740969 	-2.950060152e-06
0.4769514519 	0.7062539187 	-0.002014119804 	-3.015589576e-06
0.4772407118 	0.7205396213 	-0.0020558692 	-3.077302789e-06
0.4775354087 	0.7342269723 	-0.00209611256 	-3.135401001e-06
0.4778356448 	0.7473528978 	-0.002134964466 	-3.190092579e-06
0.4781415242 	0.7599523524 	-0.002172537849 	-3.241578616e-06
0.4784531529 	0.772058175 	-0.002208939345 	-3.290049641e-06
0.478770639 	0.7837011236 	-0.002244268778 	-3.335684064e-06
0.4790940926 	0.794910003 	-0.002278619857 	-3.378647817e-06
0.4794236259 	0.8057117578 	-0.002312080704 	-3.419094401e-06
0.4797593531 	0.816131568 	-0.00234473415 	-3.4571641e-06
0.4801013905 	0.8261929541 	-0.00237665881 	-3.492969986e-06
0.4804498569 	0.8359179034 	-0.002407931752 	-3.526609549e-06
0.480804873 	0.8453270409 	-0.002438623847 	-3.558260564e-06
0.4811665619 	0.8544398329 	-0.002468737085 	-3.589149477e-06
0.4815350489 	0.8632775074 	-0.002498239647 	-3.616449465e-06
0.4819109242 	0.8718626267 	-0.00252766292 	-3.63976879e-06
0.4822941986 	0.8802134528 	-0.00255699143 	-3.665773105e-06
0.482684677 	0.8883448606 	-0.00258547532 	-3.691339331e-06
0.4830824948 	0.8962714799 	-0.002613515485 	-3.712017802e-06
0.4834877901 	0.9040071075 	-0.002641489911 	-3.731353819e-06
0.4839007033 	0.9115645753 	-0.00266919901 	-3.750012959e-06
0.4843213776 	0.9189559725 	-0.002696694495 	-3.767022604e-06
0.484749959 	0.9261926311 	-0.002724021029 	-3.782552174e-06
0.485186596 	0.9332852211 	-0.002751214122 	-3.796650719e-06
0.48563144 	0.9402437873 	-0.002778306834 	-3.809360038e-06
0.4860846455 	0.9470777742 	-0.0028053282 	-3.820723655e-06
0.4865463694 	0.9537960497 	-0.002832304153 	-3.830779516e-06
0.4870167719 	0.9604069284 	-0.002859257773 	-3.839563289e-06
0.4874960162 	0.9669181954 	-0.0028862094 	-3.847108338e-06
0.4879842685 	0.9733371299 	-0.00291317673 	-3.853445585e-06
0.488481698 	0.9796705285 	-0.002940174898 	-3.858603433e-06
0.4889884774 	0.985924729 	-0.002967216544 	-3.862607703e-06
0.4895047822 	0.9921056332 	-0.002994311879 	-3.865481608e-06
0.4900307917 	0.9982187287 	-0.003021468729 	-3.867245755e-06
0.4905666881 	1.004269111 	-0.00304869258 	-3.867918172e-06
0.4911126574 	1.010261503 	-0.003075986666 	-3.867514303e-06
0.4916688889 	1.016200276 	-0.003103351355 	-3.866046459e-06
0.4922355755 	1.022090231 	-0.003130787865 	-3.863529693e-06
0.4928132114 	1.027937868 	-0.003158308167 	-3.859912775e-06
0.4934025382 	1.033747713 	-0.003185912582 	-3.855069363e-06
0.4940029419 	1.039519951 	-0.003213577041 	-3.849205259e-06
0.4946146306 	1.045255437 	-0.003241281631 	-3.84230862e-06
0.4952378166 	1.050956814 	-0.003269013919 	-3.834379106e-06
0.4958727159 	1.056626489 	-0.003296758753 	-3.825414385e-06
0.4965195487 	1.062266648 	-0.003324498861 	-3.815410065e-06
0.4971785393 	1.067879283 	-0.003352214809 	-3.804359818e-06
0.4978499162 	1.073466205 	-0.003379885075 	-3.792255412e-06
0.4985339123 	1.079029077 	-0.003407486145 	-3.77908673e-06
0.4992307647 	1.084569437 	-0.003434992647 	-3.764841745e-06
0.4999407151 	1.090088728 	-0.003462377509 	-3.749506475e-06
0.5006640096 	1.095588326 	-0.003489612114 	-3.733064901e-06
0.5014008992 	1.101069578 	-0.003516667289 	-3.715498993e-06
0.5021516393 	1.106533823 	-0.003543512231 	-3.696788442e-06
0.5029164903 	1.111982811 	-0.003570116006 	-3.676912663e-06
0.503695936 	1.1174204 	-0.003596491492 	-3.655806719e-06
0.5044912129 	1.1228497 	-0.003622476734 	-3.633189013e-06
0.5053014374 	1.128960436 	-0.00365133262 	-3.612202614e-06
0.5065452568 	1.136380974 	-0.003686086445 	-3.57128389e-06
0.5078029565 	1.144344617 	-0.003722546634 	-3.531001327e-06
0.5090746915 	1.15217028 	-0.003757264315 	-3.488551024e-06
0.5103606185 	1.159868342 	-0.003790506571 	-3.443971169e-06
0.5116608957 	1.167448328 	-0.003822209698 	-3.397276512e-06
0.5129756833 	1.174918926 	-0.003852390268 	-3.348502953e-06
0.5143051433 	1.182290615 	-0.003881093782 	-3.297704009e-06
0.5156513952 	1.189573188 	-0.003908370881 	-3.244392737e-06
0.5170128819 	1.196770276 	-0.003934253914 	-3.18915075e-06
0.5183895608 	1.203884556 	-0.003958788086 	-3.132082709e-06
0.5197816015 	1.210920762 	-0.003982034025 	-3.073247084e-06
0.5211891754 	1.217883367 	-0.0040040565 	-3.012707267e-06
0.5226124558 	1.224776365 	-0.004024922436 	-2.950529776e-06
0.5240516179 	1.231603765 	-0.00404469948 	-2.886784888e-06
0.5255072092 	1.238371226 	-0.004063466704 	-2.821447317e-06
0.5269808209 	1.24508313 	-0.004081294912 	-2.75424865e-06
0.5284708748 	1.251739481 	-0.004098238253 	-2.685801367e-06
0.5299775543 	1.258340675 	-0.004114355963 	-2.61618117e-06
0.5315010449 	1.264888908 	-0.004129708772 	-2.545468647e-06
0.5330415342 	1.271386193 	-0.004144353213 	-2.473743062e-06
0.5345992119 	1.277834566 	-0.004158339624 	-2.401081583e-06
0.5361744585 	1.284237816 	-0.004171724534 	-2.327511873e-06
0.5377691979 	1.290599131 	-0.004184555104 	-2.252693922e-06
0.5393817296 	1.296917646 	-0.004196861415 	-2.177278313e-06
0.5410122523 	1.303192719 	-0.004208675653 	-2.101334474e-06
0.5426609666 	1.30942545 	-0.004220028676 	-2.024931099e-06
0.5443280756 	1.315616773 	-0.004230944563 	-1.948132169e-06
0.5460137845 	1.321768465 	-0.00424144787 	-1.870999347e-06
0.5477194288 	1.327882904 	-0.004251561379 	-1.793309844e-06
0.5494450171 	1.333960184 	-0.004261296168 	-1.715276422e-06
0.5511898565 	1.33999864 	-0.004270658943 	-1.637207832e-06
0.5529541618 	1.345997488 	-0.004279657216 	-1.559153915e-06
0.5547381503 	1.351956536 	-0.004288294857 	-1.481160905e-06
0.5565420416 	1.35787615 	-0.004296576451 	-1.403272096e-06
0.5583670057 	1.363757274 	-0.004304507024 	-1.325305912e-06
0.5602133451 	1.369599054 	-0.004312083658 	-1.247401421e-06
0.5620802817 	1.375398836 	-0.004319301198 	-1.16987368e-06
0.5639680453 	1.381154599 	-0.004326157178 	-1.092759329e-06
0.5658768684 	1.386864894 	-0.004332646367 	-1.016092205e-06
0.567806986 	1.392529143 	-0.004338769704 	-9.39904361e-07
0.5697601668 	1.398146745 	-0.004344526117 	-8.639205718e-07
0.571735477 	1.403714535 	-0.004349908898 	-7.885691571e-07
0.5737328224 	1.409228689 	-0.004354916723 	-7.139651875e-07
0.5757524488 	1.414686176 	-0.004359548618 	-6.401381634e-07
0.5777946049 	1.420084411 	-0.004363808142 	-5.671155655e-07
0.5798604356 	1.425420932 	-0.004367701653 	-4.947491334e-07
0.581950188 	1.430691571 	-0.004371233612 	-4.232168273e-07
0.5840632515 	1.435890531 	-0.004374413328 	-3.527651538e-07
0.5861998861 	1.441012028 	-0.004377253573 	-2.834208191e-07
0.5883603551 	1.446050557 	-0.004379773523 	-2.152084465e-07
0.5905457595 	1.451000171 	-0.004381999663 	-1.480049171e-07
0.5927563685 	1.455852795 	-0.004383966904 	-8.199795904e-08
0.5949916363 	1.460598124 	-0.004385717369 	-1.741074572e-08
0.5956145471 	1.46187331 	-0.004386148784 	1.642047361e-07
0.597251833 	1.465225078 	-0.004387345423 	-4.302466438e-08
0.5995372403 	1.469722405 	-0.004388858345 	-1.010625966e-07
0.6018493437 	1.474077756 	-0.00439030332 	-1.57864424e-07
0.6041875845 	1.47827617 	-0.004391754534 	-2.131050744e-07
0.6065519077 	1.482300942 	-0.004393293082 	-2.666925859e-07
0.6089426045 	1.486134538 	-0.004395008944 	-3.186040834e-07
0.6113603927 	1.489758417 	-0.004397003064 	-3.688781164e-07
0.6138061608 	1.49315249 	-0.00439938088 	-4.174225922e-07
0.6162792104 	1.496295537 	-0.004402255562 	-4.63990675e-07
0.6187798463 	1.499167369 	-0.004405742528 	-5.085630416e-07
0.6213084247 	1.501750747 	-0.004409956107 	-5.511331314e-07
0.6238664781 	1.504032459 	-0.004414994214 	-5.917425976e-07
0.6264530657 	1.506004764 	-0.004420928772 	-6.300833662e-07
0.6290685061 	1.507667697 	-0.004427800054 	-6.6616339e-07
0.6317131215 	1.509029914 	-0.004435611448 	-7.000033267e-07
0.6343884117 	1.510107773 	-0.004444320351 	-7.316697659e-07
0.6370935724 	1.510923692 	-0.004453844697 	-7.60910112e-07
0.6398289089 	1.511504329 	-0.004464084901 	-7.877691273e-07
0.642594864 	1.511878201 	-0.004474929377 	-8.123156451e-07
0.6453926582 	1.512073442 	-0.00448626305 	-8.345599153e-07
0.6482216616 	1.512116345 	-0.004497975082 	-8.543371904e-07
0.6510822229 	1.512030575 	-0.004509969476 	-8.717185817e-07
0.6539750699 	1.511836704 	-0.004522159286 	-8.868004393e-07
0.6569007941 	1.511552191 	-0.004534467117 	-8.994802003e-07
0.6598591553 	1.511191639 	-0.004546826499 	-9.097194541e-07
0.6628505183 	1.510767047 	-0.004559181887 	-9.176038012e-07
0.6658759722 	1.510288142 	-0.004571482733 	-9.231963055e-07
0.6689353345 	1.50976281 	-0.004583681853 	-9.263481196e-07
0.6720288258 	1.509197349 	-0.004595742329 	-9.27135038e-07
0.6751571363 	1.508596659 	-0.004607630088 	-9.256611387e-07
0.6783208177 	1.507964689 	-0.004619307983 	-9.218271751e-07
0.6815197924 	1.507304893 	-0.004630749751 	-9.156465471e-07
0.6847545243 	1.506619968 	-0.004641934856 	-9.072358188e-07
0.6880259633 	1.505911564 	-0.004652834009 	-8.965771636e-07
0.6913338986 	1.505180639 	-0.004663422973 	-8.836221768e-07
0.6946787382 	1.504427612 	-0.004673681069 	-8.684949184e-07
0.6980614523 	1.5036524 	-0.004683582217 	-8.512336091e-07
0.7014819514 	1.502854566 	-0.00469310102 	-8.317649618e-07
0.7049406118 	1.502033246 	-0.004702213254 	-8.102217051e-07
0.7084383096 	1.501187142 	-0.004710890482 	-7.866618115e-07
0.7119751059 	1.50031462 	-0.004719102481 	-7.610212317e-07
0.7155513621 	1.499413628 	-0.004726819048 	-7.334426291e-07
0.7191679237 	1.498481657 	-0.00473400443 	-7.039824894e-07
0.7228248847 	1.497515804 	-0.004740620577 	-6.726021891e-07
0.726522657 	1.496512655 	-0.004746627258 	-6.394618078e-07
0.7302620662 	1.495468229 	-0.00475197779 	-6.045904546e-07
0.7340431982 	1.49438094 	-0.004756611351 	-5.68017817e-07
0.7378244042 	1.493255613 	-0.00476044919 	-5.303249332e-07
0.7415641218 	1.492097835 	-0.004763433095 	-4.91958521e-07
0.7452625656 	1.490907123 	-0.004765544593 	-4.53078955e-07
0.7489202967 	1.489679814 	-0.004766773729 	-4.13885995e-07
0.7525378085 	1.488412046 	-0.004767106503 	-3.743986068e-07
0.7561153968 	1.487099774 	-0.004766529407 	-3.34760628e-07
0.7596536012 	1.485738727 	-0.004765025243 	-2.951243259e-07
0.7631528582 	1.484324429 	-0.004762574106 	-2.554919638e-07
0.7666134977 	1.48285222 	-0.004759156256 	-2.159887091e-07
0.7700360208 	1.481317213 	-0.004754748204 	-1.767371935e-07
0.7734208538 	1.479714342 	-0.00474932385 	-1.377306388e-07
0.7767683331 	1.478038376 	-0.004742857046 	-9.906813294e-08
0.7800789143 	1.476283914 	-0.004735318253 	-6.085547643e-08
0.7833530369 	1.474445431 	-0.004726675328 	-2.308358226e-08
0.7853498442 	1.473256415 	-0.004720646945 	5.028945684e-07
0.7865910269 	1.472517322 	-0.004716913775 	-1.49585374e-08
0.7897932947 	1.470493927 	-0.004706008997 	-5.362841421e-08
0.7929603021 	1.468369613 	-0.004693894445 	-9.165091687e-08
0.796092361 	1.466138825 	-0.004680532172 	-1.289940733e-07
0.7991898574 	1.463796125 	-0.004665883031 	-1.655769913e-07
0.8022532251 	1.46133626 	-0.004649905598 	-2.013623437e-07
0.8052828028 	1.458754262 	-0.004632557895 	-2.363615161e-07
0.8082789493 	1.456045503 	-0.004613798317 	-2.705109318e-07
0.8112420487 	1.453205738 	-0.004593584004 	-3.03754508e-07
0.8141724845 	1.450231182 	-0.004571872257 	-3.361083705e-07
0.8170705834 	1.447118586 	-0.004548622181 	-3.675433757e-07
0.8199367024 	1.443865255 	-0.004523794628 	-3.980103234e-07
0.8227712189 	1.440469082 	-0.004497352485 	-4.274850097e-07
0.8255744682 	1.436928611 	-0.0044692628 	-4.559871001e-07
0.8283467843 	1.433243052 	-0.004439498432 	-4.834832351e-07
0.8310885089 	1.429412277 	-0.004408038321 	-5.09941214e-07
0.8338000025 	1.425436833 	-0.004374868892 	-5.353631761e-07
0.8364815777 	1.421317962 	-0.004339986134 	-5.59765263e-07
0.8391335626 	1.417057579 	-0.004303396673 	-5.831282316e-07
0.841756284 	1.412658225 	-0.004265117895 	-6.054379827e-07
0.8443500818 	1.408123051 	-0.004225178664 	-6.267125449e-07
0.8469152583 	1.40345579 	-0.004183620089 	-6.469745282e-07
0.8494521292 	1.398660687 	-0.004140495082 	-6.662213456e-07
0.8519610068 	1.39374242 	-0.00409586728 	-6.844544873e-07
0.8544422104 	1.388706042 	-0.004049810055 	-7.016959777e-07
0.8568960364 	1.383556916 	-0.004002405665 	-7.179797063e-07
0.8593227856 	1.378300625 	-0.003953743636 	-7.333142587e-07
0.8617227567 	1.372942888 	-0.003903918835 	-7.477100218e-07
0.8640962496 	1.367489485 	-0.003853029702 	-7.611847287e-07
0.8664435555 	1.361946199 	-0.003801176908 	-7.73777397e-07
0.8687649599 	1.356318751 	-0.003748461949 	-7.855041294e-07
0.8710607488 	1.350612738 	-0.003694985557 	-7.96378678e-07
0.8733312048 	1.344833585 	-0.003640846506 	-8.064156728e-07
0.8755766123 	1.338986514 	-0.003586140723 	-8.156450654e-07
0.8777972426 	1.333076522 	-0.003530960809 	-8.24094436e-07
0.8799933693 	1.327108357 	-0.003475395391 	-8.317791908e-07
0.8821652628 	1.321086498 	-0.003419528755 	-8.387154995e-07
0.8843131913 	1.315015156 	-0.003363440623 	-8.449210649e-07
0.8864374205 	1.308898273 	-0.003307206228 	-8.504277736e-07
0.8885382098 	1.302739529 	-0.003250896492 	-8.552583113e-07
0.8906158179 	1.296542347 	-0.003194578064 	-8.594304419e-07
0.8926705004 	1.290309899 	-0.003138313568 	-8.62962447e-07
0.8947025109 	1.28404512 	-0.003082161777 	-8.65873493e-07
0.8967121004 	1.277750719 	-0.003026177957 	-8.681929487e-07
0.8986995148 	1.271429197 	-0.002970414176 	-8.699435064e-07
0.900664999 	1.265082853 	-0.002914919461 	-8.711432974e-07
0.9026087948 	1.25871379 	-0.002859740023 	-8.718101772e-07
0.9045311417 	1.25232393 	-0.002804919377 	-8.719614979e-07
0.9064322771 	1.245915015 	-0.002750498454 	-8.716185694e-07
0.9083124343 	1.239488614 	-0.002696515725 	-8.708031152e-07
0.9101718447 	1.233046121 	-0.002643007144 	-8.695290715e-07
0.9120107372 	1.226588752 	-0.002590006091 	-8.678090277e-07
0.9138293381 	1.220117541 	-0.002537543288 	-8.656540549e-07
0.9156278716 	1.213633329 	-0.002485646611 	-8.630738661e-07
0.9174065593 	1.207136761 	-0.002434340986 	-8.600815913e-07
0.9191656197 	1.20062827 	-0.002383648227 	-8.566850716e-07
0.9209052695 	1.194108068 	-0.002333586829 	-8.528882146e-07
0.9226257228 	1.187576134 	-0.002284171849 	-8.486933412e-07
0.9243271915 	1.181032202 	-0.002235414774 	-8.441012961e-07
0.926009885 	1.174475752 	-0.002187323406 	-8.391117665e-07
0.9276740106 	1.167906 	-0.002139901866 	-8.337267876e-07
0.9293197732 	1.161321892 	-0.002093150586 	-8.27945407e-07
0.9309473751 	1.154722095 	-0.002047066335 	-8.217643345e-07
0.9325570169 	1.148104988 	-0.002001642325 	-8.15179899e-07
0.9341488968 	1.141468658 	-0.001956868337 	-8.081882483e-07
0.9357232106 	1.134810887 	-0.001912730863 	-8.007855299e-07
0.9372801523 	1.128129144 	-0.001869213297 	-7.929689958e-07
0.9388199136 	1.121420572 	-0.00182629617 	-7.847375579e-07
0.9403426839 	1.114681974 	-0.001783957344 	-7.760880386e-07
0.9418486508 	1.10790979 	-0.001742172247 	-7.67017521e-07
0.9433379996 	1.101100082 	-0.001700914122 	-7.575234645e-07
0.9448109137 	1.094248504 	-0.001660154239 	-7.476036849e-07
0.9462675745 	1.08735028 	-0.001619862128 	-7.372563247e-07
0.9477081614 	1.080400177 	-0.001580005792 	-7.264804458e-07
0.9491328516 	1.073392469 	-0.00154055194 	-7.152762069e-07
0.9505418206 	1.066320914 	-0.001501466167 	-7.036426511e-07
0.9519352418 	1.059178721 	-0.001462713175 	-6.915792423e-07
0.9533132867 	1.051958524 	-0.001424256969 	-6.790861261e-07
0.9546761252 	1.044652357 	-0.001386061061 	-6.661644434e-07
0.9560239248 	1.03725163 	-0.001348088725 	-6.528167364e-07
0.9573568517 	1.029747114 	-0.001310301514 	-6.390475711e-07
0.9586750698 	1.022128922 	-0.001272661474 	-6.248649407e-07
0.9599787416 	1.014386496 	-0.001235128192 	-6.102794543e-07
0.9612680274 	1.006508717 	-0.001197594866 	-5.953108385e-07
0.962543086 	0.9984839411 	-0.001160344053 	-5.799800278e-07
0.9638040745 	0.9909995091 	-0.001126317635 	-5.660122684e-07
0.9646254847 	0.9848314811 	-0.001098435863 	-5.538427909e-07
0.9654317418 	0.9793463753 	-0.0010740479 	-5.433686782e-07
0.9662231253 	0.9738482425 	-0.001050057514 	-5.329078731e-07
0.9669999095 	0.9683374379 	-0.001026296762 	-5.224730904e-07
0.9677623638 	0.9628143689 	-0.001002791916 	-5.120752885e-07
0.9685107524 	0.9572794282 	-0.00097954573 	-5.017255953e-07
0.969245335 	0.9517328979 	-0.0009565585004 	-4.914340231e-07
0.9699663661 	0.9461749125 	-0.0009338309604 	-4.812095913e-07
0.9706740958 	0.9406054315 	-0.0009113633145 	-4.710604129e-07
0.9713687694 	0.9350242182 	-0.0008891558943 	-4.609937258e-07
0.9720506278 	0.9294308243 	-0.0008672091094 	-4.510159606e-07
0.9727199074 	0.923824582 	-0.0008455234005 	-4.411328194e-07
0.9733768402 	0.9182045998 	-0.0008240992308 	-4.313493573e-07
0.974021654 	0.9125697627 	-0.0008029370982 	-4.216700533e-07
0.9746545724 	0.9069187342 	-0.0007820375597 	-4.120988677e-07
0.9752758147 	0.9012499578 	-0.0007614012553 	-4.026392838e-07
0.9758855965 	0.8955616571 	-0.0007410289268 	-3.932943364e-07
0.9764841291 	0.8898518339 	-0.0007209214283 	-3.840666164e-07
0.9770716201 	0.8841182634 	-0.0007010797292 	-3.749582523e-07
0.977648273 	0.8783584875 	-0.0006815049043 	-3.659708783e-07
0.9782142879 	0.8725698045 	-0.000662198115 	-3.571056169e-07
0.9787698611 	0.8667492579 	-0.0006431605852 	-3.483631139e-07
0.979315185 	0.8608936226 	-0.0006243936016 	-3.397434979e-07
0.9798504489 	0.8549993893 	-0.0006058984972 	-3.312463996e-07
0.9803758383 	0.8490627482 	-0.000587676739 	-3.228709969e-07
0.9808915353 	0.843079568 	-0.0005697316336 	-3.146162322e-07
0.9813977188 	0.8370453728 	-0.0005520636019 	-3.064799523e-07
0.9818945642 	0.8309553046 	-0.0005346783632 	-2.984610913e-07
0.9823822438 	0.82480397 	-0.0005176303765 	-2.905627645e-07
0.9828609268 	0.8185855232 	-0.0005004659149 	-2.82715421e-07
0.983330779 	0.8122935621 	-0.0004837562417 	-2.750822616e-07
0.9837919634 	0.805918775 	-0.0004680931039 	-2.675979435e-07
0.9842446399 	0.7994484885 	-0.0004521674242 	-2.599618378e-07
0.9846889654 	0.7928710426 	-0.0004361213416 	-2.524663019e-07
0.985125094 	0.7861771205 	-0.0004206605346 	-2.451495264e-07
0.9855531769 	0.7793575731 	-0.0004054919392 	-2.378189163e-07
0.9859733625 	0.7724027576 	-0.0003905900016 	-2.305383215e-07
0.9863857966 	0.7653024734 	-0.0003759597935 	-2.233087696e-07
0.986790622 	0.7580457611 	-0.0003616038489 	-2.161269319e-07
0.9871879793 	0.750620773 	-0.0003475203758 	-2.089898445e-07
0.9875780061 	0.7430146933 	-0.0003337070634 	-2.018956546e-07
0.9879608376 	0.7352136791 	-0.0003201613747 	-1.948429181e-07
0.9883366067 	0.7272028077 	-0.0003068804856 	-1.878306655e-07
0.9887054436 	0.7189660236 	-0.0002938613251 	-1.808585163e-07
0.9890674761 	0.710486087 	-0.0002811006601 	-1.739267579e-07
0.9894228299 	0.7017445203 	-0.0002685951793 	-1.67036389e-07
0.9897716281 	0.6927215554 	-0.0002563415751 	-1.60189157e-07
0.9901139916 	0.683396082 	-0.0002443366269 	-1.533875806e-07
0.9904500392 	0.6737456012 	-0.0002325772886 	-1.466349621e-07
0.9907798874 	0.6637461844 	-0.0002210607894 	-1.399353926e-07
0.9911036505 	0.6533724432 	-0.0002097847726 	-1.332937349e-07
0.9914214408 	0.6425975096 	-0.0001987472601 	-1.267155083e-07
0.9917333685 	0.6313930432 	-0.0001879460993 	-1.202068291e-07
0.9920395418 	0.6197292885 	-0.0001773792193 	-1.137764347e-07
0.9923400667 	0.6075751648 	-0.000167063413 	-1.074381184e-07
0.9926350475 	0.5948983366 	-0.0001570287645 	-1.01194868e-07
0.9929245865 	0.5816651963 	-0.0001472222786 	-9.487263778e-08
0.993208784 	0.5678417863 	-0.0001360196469 	-8.859594044e-08
0.9934877387 	0.5533933927 	-0.0001270507113 	-8.331539446e-08
0.9937615472 	0.5395947933 	-0.0001212807773 	-7.833283586e-08
0.9939377693 	0.5279379596 	-0.0001141112974 	-7.337423313e-08
0.9941139915 	0.517217486 	-0.000107330985 	-6.954957176e-08
0.9942902138 	0.5060167242 	-0.0001017374991 	-6.605134346e-08
0.994466436 	0.4943074899 	-9.606577847e-05 	-6.235547952e-08
0.9946426583 	0.4820607955 	-9.043084979e-05 	-5.869368795e-08
0.9948188806 	0.4692474865 	-8.48554838e-05 	-5.50685769e-08
0.9949951029 	0.4558385517 	-7.935583329e-05 	-5.148285679e-08
0.9951713252 	0.4418057691 	-7.394360581e-05 	-4.794088793e-08
0.9953475475 	0.4271225706 	-6.862949435e-05 	-4.444874796e-08
0.9955237699 	0.4117651767 	-6.342192109e-05 	-4.101323702e-08
0.9956999923 	0.3957140564 	-5.832417926e-05 	-3.76417433e-08
0.9958762147 	0.3789557584 	-5.333171393e-05 	-3.434242455e-08
0.9960524371 	0.3614851128 	-4.843108128e-05 	-3.112446144e-08
0.9962286596 	0.3433077157 	-4.360305893e-05 	-2.799834105e-08
0.9964048821 	0.3244424617 	-3.883242917e-05 	-2.497605408e-08
0.9965811045 	0.3049236822 	-3.412434545e-05 	-2.207094664e-08
0.9967573271 	0.2848022474 	-2.952117251e-05 	-1.929695129e-08
0.9969335496 	0.264144886 	-2.510743007e-05 	-1.666725316e-08
0.9971097721 	0.2430311491 	-2.099176478e-05 	-1.419308219e-08
0.9972859947 	0.22154798 	-1.726899338e-05 	-1.188363464e-08
0.9974622173 	0.1997826503 	-1.398379814e-05 	-9.747413961e-09
0.9976384399 	0.1778155429 	-1.112117051e-05 	-7.793945233e-09
0.9978146626 	0.1557144504 	-8.629277496e-06 	-6.034365095e-09
0.9979908852 	0.1335315616 	-6.455875029e-06 	-4.480488632e-09
0.9981671079 	0.1113033633 	-4.573591467e-06 	-3.14332982e-09
0.9983433306 	0.08905281201 	-2.983974384e-06 	-2.032041707e-09
0.9985195533 	0.06679269473 	-1.707344915e-06 	-1.154329224e-09
0.998695776 	0.04452913711 	-7.714234009e-07 	-5.183121674e-10
0.9988719988 	0.02226454463 	-2.055774712e-07 	-1.526984382e-10
0.9990482216 	0.009320016868 	-1.57953594e-08 	-3.647537933e-11
0.9990482216 	0.009320016868 	-1.57953594e-08 	-3.647537933e-11
