0.4709558481 	0.01029665832 	2.683514546e-09 	9.431013479e-12
0.4709558481 	0.01029665832 	2.683514546e-09 	9.431013479e-12
0.4711314108 	0.02831109945 	2.819875297e-08 	9.409143501e-12
0.4713069734 	0.0565879314 	1.001901324e-07 	-1.490348721e-11
0.471482536 	0.08482991733 	2.033473443e-07 	-7.408434688e-11
0.4716580986 	0.1130318971 	3.028661642e-07 	-1.622479838e-10
0.4718336613 	0.1411805459 	3.649243643e-07 	-2.678285422e-10
0.4720092239 	0.1692481988 	3.883318565e-07 	-3.820068723e-10
0.4721847865 	0.1971861553 	4.407537007e-07 	-4.992441195e-10
0.4723603491 	0.2249196048 	6.639052202e-07 	-6.169408019e-10
0.4725359118 	0.2523467628 	1.215837235e-06 	-7.335205649e-10
0.4727114744 	0.2793440556 	2.1695048e-06 	-8.45978307e-10
0.472887037 	0.3057771163 	3.444971503e-06 	-9.493402147e-10
0.4730625996 	0.3315149007 	4.840137322e-06 	-1.038970655e-09
0.4732381623 	0.3564429448 	6.138297531e-06 	-1.113613195e-09
0.4734137249 	0.3804724621 	7.206221513e-06 	-1.176407973e-09
0.4735892875 	0.4035439978 	8.021453875e-06 	-1.23344493e-09
0.4737648501 	0.4256263523 	8.637190971e-06 	-1.291513744e-09
0.4739404128 	0.4467125184 	9.129787974e-06 	-1.356618238e-09
0.4741159754 	0.4668144104 	9.562416936e-06 	-1.433592377e-09
0.474291538 	0.4859576491 	9.972008259e-06 	-1.526360431e-09
0.4744671006 	0.5041770708 	1.037153594e-05 	-1.638348956e-09
0.4746426632 	0.5215131815 	1.075803351e-05 	-1.772832794e-09
0.4748182259 	0.5380095161 	1.11205291e-05 	-1.933112181e-09
0.4749937885 	0.5537107571 	1.144525293e-05 	-2.121614999e-09
0.4751693511 	0.5686614398 	1.171699752e-05 	-2.337500878e-09
0.4753449137 	0.5829050989 	1.191715952e-05 	-2.573643113e-09
0.4755204764 	0.5964837877 	1.202010826e-05 	-2.815607359e-09
0.475696039 	0.6094376558 	1.248273647e-05 	-3.956851781e-09
0.4758716016 	0.6218047609 	1.263372979e-05 	-3.705489454e-09
0.4760471642 	0.633622802 	1.190068189e-05 	-2.49579596e-09
0.4762227269 	0.6464598043 	1.171163455e-05 	-5.004482297e-09
0.4764955107 	0.6616374428 	1.165815869e-05 	-6.533638617e-09
0.4767734216 	0.6774996872 	1.103551448e-05 	-6.127485898e-09
0.4770565557 	0.6926431717 	1.039750001e-05 	-7.236696154e-09
0.4773450114 	0.7071134783 	9.689940688e-06 	-8.49526607e-09
0.4776388886 	0.7209540357 	8.866519743e-06 	-9.879289463e-09
0.4779382892 	0.7342061768 	7.934457074e-06 	-1.140604263e-08
0.4782433171 	0.746909061 	6.905675925e-06 	-1.309166353e-08
0.4785540779 	0.7590995911 	5.79096787e-06 	-1.493686895e-08
0.4788706795 	0.7708124213 	4.601530731e-06 	-1.694201721e-08
0.4791932316 	0.7820800394 	3.349357839e-06 	-1.910708821e-08
0.4795218461 	0.7929328647 	2.046989362e-06 	-2.143117056e-08
0.4798566368 	0.8033993508 	7.073118819e-07 	-2.391228478e-08
0.48019772 	0.8135060939 	-6.565891347e-07 	-2.654736911e-08
0.4805452138 	0.8232779427 	-2.031566435e-06 	-2.933227325e-08
0.4808992388 	0.8327381065 	-3.404541756e-06 	-3.226176545e-08
0.4812599177 	0.8419082599 	-4.762628929e-06 	-3.532956128e-08
0.4816273755 	0.8508086422 	-6.093249356e-06 	-3.85283714e-08
0.4820017397 	0.8594581504 	-7.384240737e-06 	-4.184996172e-08
0.48238314 	0.8678744268 	-8.623959065e-06 	-4.528522471e-08
0.4827717088 	0.8760739406 	-9.801373309e-06 	-4.882426056e-08
0.4831675807 	0.8840720638 	-1.090615228e-05 	-5.24564658e-08
0.4835708931 	0.8918831417 	-1.192874305e-05 	-5.617062739e-08
0.4839817856 	0.899520559 	-1.286044028e-05 	-5.995502063e-08
0.4844004009 	0.9069968013 	-1.369344561e-05 	-6.379750928e-08
0.4848268841 	0.9143235128 	-1.442091637e-05 	-6.768564633e-08
0.485261383 	0.9215115503 	-1.503700289e-05 	-7.160677394e-08
0.4857040484 	0.9285710345 	-1.55368732e-05 	-7.554812152e-08
0.4861550336 	0.9355113978 	-1.591672423e-05 	-7.949690116e-08
0.4866144951 	0.9423414306 	-1.617377742e-05 	-8.344040097e-08
0.4870825921 	0.9490693252 	-1.630625665e-05 	-8.736607813e-08
0.487559487 	0.955702717 	-1.631334521e-05 	-9.126165622e-08
0.4880453452 	0.962248726 	-1.619511731e-05 	-9.511523469e-08
0.4885403351 	0.9687139951 	-1.595243854e-05 	-9.891542341e-08
0.4890446283 	0.9751047284 	-1.558682679e-05 	-1.026515262e-07
0.4895583997 	0.9814267291 	-1.510025786e-05 	-1.063138336e-07
0.4900818274 	0.9876854354 	-1.449489315e-05 	-1.098940847e-07
0.4906150929 	0.9938859585 	-1.377273065e-05 	-1.133860251e-07
0.4911583811 	1.00003312 	-1.293543846e-05 	-1.167846552e-07
0.4917118805 	1.006131494 	-1.19835576e-05 	-1.200911824e-07
0.4922757829 	1.012185452 	-1.091353136e-05 	-1.233250774e-07
0.4928502838 	1.018199193 	-9.690816514e-06 	-1.266692605e-07
0.4934355824 	1.024176813 	-8.359531718e-06 	-1.296425098e-07
0.4940318817 	1.030122508 	-6.932391493e-06 	-1.325947443e-07
0.4946393885 	1.036040382 	-5.251377577e-06 	-1.363915262e-07
0.4952583133 	1.041933734 	-3.305362617e-06 	-1.4002982e-07
0.4958888709 	1.04780494 	-1.160135896e-06 	-1.435006285e-07
0.4965312797 	1.053655884 	1.229148402e-06 	-1.473370787e-07
0.4971857627 	1.059488161 	3.890424605e-06 	-1.512223345e-07
0.4978525466 	1.065303107 	6.829668584e-06 	-1.551616038e-07
0.4985318627 	1.071101837 	1.005485613e-05 	-1.591353859e-07
0.4992239466 	1.076885271 	1.35724699e-05 	-1.63122648e-07
0.4999290382 	1.082654157 	1.738773191e-05 	-1.671079455e-07
0.5006473819 	1.088409084 	2.150458207e-05 	-1.71076357e-07
0.501379227 	1.094150506 	2.592548693e-05 	-1.750139861e-07
0.502124827 	1.099878753 	3.065069525e-05 	-1.789083062e-07
0.5028844406 	1.105594049 	3.567906948e-05 	-1.827482379e-07
0.5036583311 	1.111296535 	4.100706553e-05 	-1.865230208e-07
0.5044467669 	1.116986328 	4.660596869e-05 	-1.902218383e-07
0.5052500214 	1.122663558 	5.258955374e-05 	-1.93829539e-07
0.506068373 	1.129049722 	5.971389553e-05 	-1.976987968e-07
0.507324668 	1.136800366 	6.853933423e-05 	-2.020261685e-07
0.5085949819 	1.145108333 	7.858597117e-05 	-2.063393598e-07
0.5098794711 	1.153258988 	8.91235819e-05 	-2.103536652e-07
0.5111782938 	1.161260685 	9.984617057e-05 	-2.140931233e-07
0.5124916099 	1.16912164 	0.0001107568924 	-2.175881176e-07
0.5138195812 	1.176849887 	0.0001218107742 	-2.208685567e-07
0.5151623712 	1.18445316 	0.0001329692401 	-2.239655857e-07
0.5165201452 	1.191938874 	0.0001442017737 	-2.269112991e-07
0.5178930705 	1.199314104 	0.0001554833638 	-2.297375819e-07
0.5192813161 	1.206585567 	0.0001667954366 	-2.324753263e-07
0.520685053 	1.213759609 	0.0001781251612 	-2.351538074e-07
0.522104454 	1.220842202 	0.0001894647196 	-2.378001642e-07
0.523539694 	1.227838941 	0.0002008105446 	-2.404389752e-07
0.5249909497 	1.234755042 	0.0002121625421 	-2.430919383e-07
0.5264583998 	1.241595354 	0.0002235233448 	-2.45777666e-07
0.527942225 	1.248364364 	0.0002348976103 	-2.485115957e-07
0.5294426081 	1.255066212 	0.0002462913765 	-2.513060037e-07
0.5309597337 	1.261704702 	0.0002577114822 	-2.541700935e-07
0.5324937889 	1.268283313 	0.0002691650586 	-2.571101343e-07
0.5340449624 	1.274805217 	0.0002806590936 	-2.601296427e-07
0.5356134452 	1.281273285 	0.0002922000696 	-2.632296077e-07
0.5371994306 	1.287690097 	0.0003037936711 	-2.664087622e-07
0.5388031139 	1.294057956 	0.0003154445595 	-2.696638991e-07
0.5404246925 	1.300378887 	0.0003271562071 	-2.729902201e-07
0.5420643661 	1.306654642 	0.0003389307844 	-2.763816869e-07
0.5437223366 	1.312886706 	0.0003507690921 	-2.798313487e-07
0.5453988083 	1.319076294 	0.0003626705275 	-2.833316387e-07
0.5470939875 	1.325224353 	0.000374633077 	-2.868746439e-07
0.5488080831 	1.331331563 	0.0003866533234 	-2.904523572e-07
0.5505413061 	1.337398335 	0.0003987264593 	-2.940569102e-07
0.5522938699 	1.343424816 	0.0004108462985 	-2.976807703e-07
0.5540659904 	1.349410888 	0.000423005277 	-3.013168751e-07
0.5558578859 	1.355356175 	0.00043519444 	-3.049586921e-07
0.5576697768 	1.361260045 	0.0004474034078 	-3.086002118e-07
0.5595018865 	1.367121614 	0.0004596203205 	-3.122358975e-07
0.5613544406 	1.37293975 	0.0004718317574 	-3.158606108e-07
0.563227667 	1.378713069 	0.0004840226323 	-3.194695175e-07
0.5651217966 	1.384439936 	0.0004961760653 	-3.230579646e-07
0.5670370626 	1.390118453 	0.0005082732291 	-3.266213336e-07
0.5689737009 	1.395746445 	0.0005202931692 	-3.301548966e-07
0.5709319499 	1.401321437 	0.0005322125885 	-3.336537141e-07
0.5729120508 	1.406840624 	0.0005440055823 	-3.371125916e-07
0.5749142474 	1.412300824 	0.0005556433026 	-3.405260737e-07
0.5769387863 	1.417698433 	0.0005670935269 	-3.438884273e-07
0.5789859169 	1.423029353 	0.0005783201053 	-3.471936042e-07
0.5810558911 	1.428288924 	0.0005892822372 	-3.504351673e-07
0.583148964 	1.433471824 	0.000599934253 	-3.53606323e-07
0.5852653933 	1.438571965 	0.0006102233412 	-3.567004017e-07
0.5874054395 	1.443582361 	0.0006200897008 	-3.597061745e-07
0.5895693664 	1.448494925 	0.0006294583498 	-3.626093106e-07
0.5917574402 	1.453300243 	0.0006382353396 	-3.654056482e-07
0.5939699306 	1.457987566 	0.0006463320828 	-3.680917947e-07
0.5962071099 	1.462544988 	0.0006536520969 	-3.706504192e-07
0.5984692536 	1.466959532 	0.0006600634818 	-3.730631192e-07
0.6007566404 	1.47121705 	0.0006654197965 	-3.753170601e-07
0.6030695519 	1.475302093 	0.0006695691693 	-3.773977578e-07
0.6054082729 	1.479197857 	0.0006723469104 	-3.792889366e-07
0.6077730914 	1.482886236 	0.0006735783277 	-3.809764127e-07
0.6101642987 	1.486348086 	0.000673082724 	-3.824518357e-07
0.6125821893 	1.489563765 	0.0006706788216 	-3.837162899e-07
0.6150270608 	1.492514065 	0.0006661905647 	-3.847799249e-07
0.6174992144 	1.495181607 	0.0006594538761 	-3.856564421e-07
0.6199989545 	1.49755264 	0.0006503247903 	-3.86355346e-07
0.622526589 	1.49961898 	0.000638695054 	-3.868793848e-07
0.625082429 	1.501379593 	0.0006245123219 	-3.872390662e-07
0.6276667894 	1.502841312 	0.0006077941789 	-3.874739651e-07
0.6302799884 	1.50401857 	0.0005886334636 	-3.87644157e-07
0.6329223478 	1.504932145 	0.0005671812181 	-3.877962481e-07
0.6355941931 	1.505607175 	0.0005436268468 	-3.879454258e-07
0.6382958531 	1.506070827 	0.0005181705816 	-3.880677724e-07
0.6410276607 	1.5063503 	0.0004910131799 	-3.881877644e-07
0.6437899523 	1.506471692 	0.0004623566669 	-3.883418823e-07
0.646583068 	1.506459054 	0.0004323848887 	-3.885239809e-07
0.6494073518 	1.506333539 	0.0004012612074 	-3.887006083e-07
0.6522631514 	1.506113253 	0.0003691248673 	-3.888030647e-07
0.6551508186 	1.505813444 	0.0003360854755 	-3.88827206e-07
0.658070709 	1.505446788 	0.0003022336457 	-3.888060267e-07
0.6610231822 	1.505023752 	0.0002676496033 	-3.887479825e-07
0.6640086017 	1.50455291 	0.0002324012699 	-3.886489371e-07
0.6670273351 	1.504041233 	0.0001965446975 	-3.884959566e-07
0.6700797543 	1.503494351 	0.0001601267222 	-3.882777417e-07
0.6731662352 	1.502916774 	0.0001231868025 	-3.879878679e-07
0.6762871577 	1.502312082 	8.575853988e-05 	-3.876240729e-07
0.6794429063 	1.501683063 	4.787092702e-05 	-3.871841359e-07
0.6826338695 	1.501031837 	9.549333266e-06 	-3.866635118e-07
0.6858604404 	1.500359946 	-2.918363834e-05 	-3.860572138e-07
0.6891230163 	1.499668424 	-6.830737717e-05 	-3.853617293e-07
0.6924219988 	1.498957851 	-0.0001078026836 	-3.84576529e-07
0.6957577944 	1.498228396 	-0.0001476512778 	-3.837006425e-07
0.6991308138 	1.497479842 	-0.0001878353967 	-3.827320696e-07
0.7025414724 	1.496711605 	-0.0002283374383 	-3.816685013e-07
0.7059901901 	1.495922749 	-0.0002691396259 	-3.805076035e-07
0.7094773917 	1.495111988 	-0.0003102236903 	-3.792471279e-07
0.7130035066 	1.494277683 	-0.0003515705561 	-3.778849114e-07
0.7165689691 	1.493417833 	-0.0003931600291 	-3.764188553e-07
0.7201742182 	1.49253006 	-0.000434970437 	-3.748469063e-07
0.7238196978 	1.491611587 	-0.0004769783625 	-3.731670384e-07
0.727505857 	1.490659201 	-0.0005191579166 	-3.713772498e-07
0.7312331497 	1.48966921 	-0.0005614803142 	-3.694756042e-07
0.7350020349 	1.488640166 	-0.0006038018988 	-3.674652808e-07
0.7387709215 	1.487576723 	-0.0006457340282 	-3.653621757e-07
0.7424982157 	1.486484233 	-0.0006868985503 	-3.631852096e-07
0.7461843763 	1.48536223 	-0.0007271709286 	-3.609433504e-07
0.7498298574 	1.484207281 	-0.0007665378452 	-3.586401846e-07
0.7534351078 	1.483015772 	-0.0008049847064 	-3.562790436e-07
0.7570005716 	1.481783899 	-0.0008424961418 	-3.538630401e-07
0.7605266877 	1.480507672 	-0.0008790559207 	-3.513950626e-07
0.7640138905 	1.479182905 	-0.0009146468806 	-3.488777912e-07
0.7674626093 	1.477805224 	-0.0009492509371 	-3.463136942e-07
0.770873269 	1.476370065 	-0.0009828491097 	-3.437050234e-07
0.7742462894 	1.474872686 	-0.001015421579 	-3.410537996e-07
0.777582086 	1.473308178 	-0.001046947774 	-3.3836179e-07
0.7808810695 	1.471671487 	-0.001077406495 	-3.356304762e-07
0.7841436462 	1.469957442 	-0.001106776061 	-3.32861012e-07
0.787370218 	1.468160789 	-0.001135034486 	-3.300541708e-07
0.7905611821 	1.466276237 	-0.001162159668 	-3.272102845e-07
0.7937169314 	1.464298511 	-0.001188129573 	-3.243291776e-07
0.7968378547 	1.462222413 	-0.001212922416 	-3.214100967e-07
0.7999243362 	1.460042883 	-0.001236516803 	-3.184516443e-07
0.8029767561 	1.457755072 	-0.001258891828 	-3.154517213e-07
0.8059954902 	1.455354408 	-0.001280027114 	-3.124074867e-07
0.8089809102 	1.452836663 	-0.001299902787 	-3.093153417e-07
0.8119333839 	1.450198015 	-0.001318499381 	-3.061709494e-07
0.8148532749 	1.447435095 	-0.001335797694 	-3.029692966e-07
0.8177409426 	1.444545026 	-0.001351778601 	-2.997048064e-07
0.8205967427 	1.441525454 	-0.001366422872 	-2.963715063e-07
0.8234210268 	1.438374558 	-0.00137971101 	-2.929632554e-07
0.8262141429 	1.435091048 	-0.001391623168 	-2.894740269e-07
0.8289764348 	1.431674158 	-0.001402139184 	-2.858982398e-07
0.8317082427 	1.428123622 	-0.001411238755 	-2.822311258e-07
0.8344099031 	1.424439652 	-0.001418901798 	-2.784691136e-07
0.8370817486 	1.420622903 	-0.001425108986 	-2.746102058e-07
0.8397241082 	1.416674451 	-0.00142984248 	-2.706543211e-07
0.8423373074 	1.412595758 	-0.001433086805 	-2.666035766e-07
0.844921668 	1.408388651 	-0.001434829856 	-2.62462482e-07
0.8474775082 	1.404055297 	-0.001435063963 	-2.582380259e-07
0.8500051427 	1.399598188 	-0.001433786958 	-2.539396384e-07
0.8525048829 	1.395020119 	-0.001431003169 	-2.49579027e-07
0.8549770366 	1.390324177 	-0.001426724282 	-2.45169888e-07
0.8574219081 	1.385513721 	-0.001420969999 	-2.407275111e-07
0.8598397987 	1.380592363 	-0.001413768458 	-2.362682984e-07
0.862231006 	1.375563949 	-0.001405156383 	-2.31809228e-07
0.8645958245 	1.370432532 	-0.00139517894 	-2.273672945e-07
0.8669345455 	1.365202341 	-0.001383889327 	-2.229589583e-07
0.8692474569 	1.35987775 	-0.001371348108 	-2.185996349e-07
0.8715348435 	1.354463242 	-0.00135762234 	-2.143032481e-07
0.8737969871 	1.348963369 	-0.001342784531 	-2.100818659e-07
0.8760341663 	1.343382714 	-0.001326911489 	-2.059454291e-07
0.8782466565 	1.337725854 	-0.00131008311 	-2.019015768e-07
0.8804347301 	1.331997321 	-0.001292381165 	-1.97955566e-07
0.8825986568 	1.326201567 	-0.00127388811 	-1.941102796e-07
0.8847387028 	1.320342934 	-0.001254685974 	-1.903663107e-07
0.8868551318 	1.314425625 	-0.001234855342 	-1.867221139e-07
0.8889482045 	1.308453684 	-0.001214474457 	-1.831742115e-07
0.8910181784 	1.302430968 	-0.001193618446 	-1.797174424e-07
0.8930653087 	1.296361142 	-0.00117235868 	-1.763452462e-07
0.8950898473 	1.290247657 	-0.00115076227 	-1.730499734e-07
0.8970920436 	1.284093749 	-0.001128891687 	-1.69823215e-07
0.8990721441 	1.277902425 	-0.001106804508 	-1.666561471e-07
0.9010303927 	1.271676465 	-0.001084553281 	-1.635398849e-07
0.9029670306 	1.265418416 	-0.00106218549 	-1.604658421e-07
0.9048822962 	1.259130592 	-0.001039743633 	-1.574260895e-07
0.9067764254 	1.25281507 	-0.001017265384 	-1.544137078e-07
0.9086496514 	1.246473693 	-0.0009947838529 	-1.514231248e-07
0.910502205 	1.24010807 	-0.0009723279164 	-1.484504284e-07
0.9123343142 	1.233719573 	-0.0009499226346 	-1.454936431e-07
0.9141462048 	1.227309337 	-0.0009275897274 	-1.425529569e-07
0.9159380997 	1.220878264 	-0.0009053481117 	-1.396308843e-07
0.9177102197 	1.214427019 	-0.0008832144842 	-1.367323517e-07
0.9194627831 	1.207956032 	-0.0008612039372 	-1.3386469e-07
0.9211960055 	1.201465503 	-0.0008393305909 	-1.310375254e-07
0.9229101006 	1.1949554 	-0.0008176082231 	-1.282625579e-07
0.9246052793 	1.188425466 	-0.0007960508772 	-1.255532237e-07
0.9262817504 	1.181875226 	-0.0007746734256 	-1.229242423e-07
0.9279397204 	1.175303986 	-0.0007534920666 	-1.203910534e-07
0.9295793934 	1.168710847 	-0.0007325247334 	-1.179691564e-07
0.9312009714 	1.162094703 	-0.0007117913929 	-1.156733702e-07
0.9328046541 	1.155454254 	-0.0006913142187 	-1.135170381e-07
0.9343906389 	1.148787999 	-0.0006711176201 	-1.115112084e-07
0.9359591211 	1.142094245 	-0.0006512281177 	-1.096638276e-07
0.937510294 	1.135371094 	-0.0006316740585 	-1.079789863e-07
0.9390443485 	1.128616439 	-0.0006124851686 	-1.064562644e-07
0.9405614735 	1.121827948 	-0.0005936919497 	-1.050902213e-07
0.942061856 	1.115003043 	-0.0005753249294 	-1.03870077e-07
0.9435456805 	1.108138873 	-0.0005574137853 	-1.027796261e-07
0.9450131299 	1.101232283 	-0.0005399863687 	-1.017974198e-07
0.946464385 	1.094279774 	-0.0005230676636 	-1.008972354e-07
0.9478996243 	1.087277461 	-0.0005066787222 	-1.000488405e-07
0.9493190246 	1.080221026 	-0.0004908356269 	-9.921903125e-08
0.9507227608 	1.073105664 	-0.0004755485325 	-9.837290785e-08
0.9521110058 	1.065926036 	-0.000460820848 	-9.747531736e-08
0.9534839303 	1.058676212 	-0.0004466485934 	-9.649237913e-08
0.9548417036 	1.051349623 	-0.0004330199936 	-9.539298635e-08
0.9561844929 	1.04393901 	-0.0004199154106 	-9.415018549e-08
0.9575124634 	1.036436377 	-0.0004073058338 	-9.274234243e-08
0.9588257788 	1.028832949 	-0.0003951552579 	-9.115391204e-08
0.9601246008 	1.021119131 	-0.0003834188588 	-8.937604342e-08
0.9614090893 	1.013284576 	-0.0003719770913 	-8.740463949e-08
0.9626794024 	1.005318206 	-0.0003610775534 	-8.52380819e-08
0.9639356968 	0.9979005356 	-0.0003513915197 	-8.307304462e-08
0.9647540487 	0.99179649 	-0.0003433916279 	-8.118007791e-08
0.9655573034 	0.9863739185 	-0.0003365185944 	-7.94292086e-08
0.9663457395 	0.9809432526 	-0.0003299090466 	-7.763040068e-08
0.9671196303 	0.9755041811 	-0.0003233913304 	-7.579452375e-08
0.9678792442 	0.970056467 	-0.0003169806499 	-7.392828145e-08
0.9686248445 	0.9645998966 	-0.000310668749 	-7.203741302e-08
0.9693566897 	0.9591341991 	-0.0003044465228 	-7.012725411e-08
0.9700750337 	0.9536590191 	-0.0002983064716 	-6.820261194e-08
0.9707801255 	0.9481738938 	-0.0002922418193 	-6.626767209e-08
0.9714722095 	0.9426782311 	-0.0002862471336 	-6.432592301e-08
0.9721515258 	0.9371712896 	-0.0002803181952 	-6.238013288e-08
0.9728183099 	0.9316521617 	-0.000274451823 	-6.043236438e-08
0.9734727929 	0.9261197576 	-0.0002686456949 	-5.848401898e-08
0.9741152019 	0.9205727935 	-0.0002628981684 	-5.653590673e-08
0.9747457596 	0.9150097804 	-0.0002572081173 	-5.458833662e-08
0.9753646845 	0.9094290146 	-0.000251574788 	-5.264122062e-08
0.9759721914 	0.9038285688 	-0.0002459976774 	-5.069418249e-08
0.9765684907 	0.8982062821 	-0.000240476433 	-4.874666318e-08
0.9771537895 	0.8925597494 	-0.0002350107751 	-4.679801822e-08
0.9777282904 	0.8868863096 	-0.0002296004402 	-4.484760734e-08
0.9782921928 	0.8811830319 	-0.0002242451466 	-4.289487999e-08
0.9788456922 	0.8754467007 	-0.000218944579 	-4.093945902e-08
0.9793889805 	0.8696737992 	-0.0002136983921 	-3.898122294e-08
0.979922246 	0.8638604917 	-0.0002085062269 	-3.702038766e-08
0.9804456737 	0.8580026048 	-0.0002033677379 	-3.505761651e-08
0.9809594451 	0.8520956074 	-0.0001982826534 	-3.30941693e-08
0.9814637383 	0.846134591 	-0.0001932508479 	-3.113212385e-08
0.9819587281 	0.8401142489 	-0.00018827255 	-2.917604415e-08
0.9824445862 	0.8340288548 	-0.000183349796 	-2.723127084e-08
0.9829214811 	0.8278722398 	-0.0001784834979 	-2.530413863e-08
0.9833895781 	0.8216377572 	-0.0001736803157 	-2.345211734e-08
0.9838490396 	0.8153181557 	-0.0001689792136 	-2.134284822e-08
0.9843000247 	0.8089056105 	-0.0001640285007 	-1.892111563e-08
0.98474269 	0.8023915728 	-0.0001592245178 	-1.798406856e-08
0.9851771888 	0.7957646571 	-0.0001551165639 	-1.692589585e-08
0.9856036719 	0.7890097526 	-0.0001506988251 	-1.357118074e-08
0.9860222871 	0.7821118385 	-0.0001458372649 	-1.104192103e-08
0.9864331796 	0.7750581297 	-0.0001411285274 	-9.501727277e-09
0.9868364919 	0.7678364353 	-0.0001364537133 	-7.40944949e-09
0.9872323637 	0.7604341471 	-0.0001317393046 	-5.330943802e-09
0.9876209323 	0.7528380391 	-0.0001269921637 	-3.318350703e-09
0.9880023326 	0.7450340744 	-0.0001222227105 	-1.378351381e-09
0.9883766967 	0.737007253 	-0.0001174382751 	4.821344458e-10
0.9887441544 	0.7287415162 	-0.000112645876 	2.250115712e-09
0.9891048331 	0.7202196784 	-0.0001078530652 	3.913458527e-09
0.9894588579 	0.711423367 	-0.0001030678359 	5.461427873e-09
0.9898063516 	0.7023329679 	-9.829855075e-05 	6.884582657e-09
0.9901474347 	0.6929275713 	-9.355391197e-05 	8.174795033e-09
0.9904822253 	0.6831849226 	-8.884292118e-05 	9.325326973e-09
0.9908108397 	0.6730813772 	-8.417482828e-05 	1.033088563e-08
0.9911333916 	0.6625918646 	-7.955910401e-05 	1.118766243e-08
0.9914499931 	0.6516898579 	-7.500529213e-05 	1.189326936e-08
0.9917607538 	0.6403473708 	-7.052245518e-05 	1.244650828e-08
0.9920657815 	0.6285350093 	-6.611904665e-05 	1.284756377e-08
0.9923651819 	0.616222054 	-6.181585372e-05 	1.310558508e-08
0.992659059 	0.603376539 	-5.764532115e-05 	1.323068447e-08
0.9929475145 	0.58996528 	-5.358676707e-05 	1.319906389e-08
0.9932306485 	0.5759545542 	-4.850295566e-05 	1.235989109e-08
0.9935085592 	0.5613100232 	-4.464188286e-05 	1.271442982e-08
0.9937813429 	0.5473266889 	-4.307787573e-05 	1.332599146e-08
0.9939569055 	0.5355180213 	-4.049454088e-05 	1.191285184e-08
0.9941324681 	0.5246609414 	-3.743283687e-05 	1.12345001e-08
0.9943080307 	0.5133196198 	-3.508746124e-05 	1.122748043e-08
0.9944835934 	0.5014658645 	-3.291883526e-05 	1.077221529e-08
0.994659156 	0.4890705681 	-3.078628905e-05 	1.029205262e-08
0.9948347186 	0.476104276 	-2.870896339e-05 	9.788097573e-09
0.9950102812 	0.4625375796 	-2.670005627e-05 	9.259661459e-09
0.9951858439 	0.4483417193 	-2.476634969e-05 	8.708123167e-09
0.9953614065 	0.4334894361 	-2.291111587e-05 	8.13727582e-09
0.9955369691 	0.4179561049 	-2.11338216e-05 	7.551594989e-09
0.9957125317 	0.401721203 	-1.942755215e-05 	6.955813216e-09
0.9958880943 	0.3847701612 	-1.777632126e-05 	6.354943044e-09
0.996063657 	0.3670965991 	-1.615406249e-05 	5.754277159e-09
0.9962392196 	0.3487048573 	-1.452776869e-05 	5.159325341e-09
0.9964147822 	0.3296125899 	-1.286728427e-05 	4.575715777e-09
0.9965903448 	0.3098529779 	-1.116174393e-05 	4.00910681e-09
0.9967659075 	0.2894759122 	-9.436759817e-06 	3.465161359e-09
0.9969414701 	0.2685473977 	-7.760172515e-06 	2.949572501e-09
0.9971170327 	0.2471465863 	-6.225118409e-06 	2.467993458e-09
0.9972925953 	0.2253603785 	-4.912807764e-06 	2.02566884e-09
0.997468158 	0.2032763345 	-3.85599373e-06 	1.626763982e-09
0.9976437206 	0.180975366 	-3.028441945e-06 	1.273736256e-09
0.9978192832 	0.1585259027 	-2.367034872e-06 	9.67184755e-10
0.9979948458 	0.1359807404 	-1.808310911e-06 	7.062724252e-10
0.9981704085 	0.1133768445 	-1.314472549e-06 	4.893893764e-10
0.9983459711 	0.09073748194 	-8.779889144e-07 	3.146288592e-10
0.9985215337 	0.06807559384 	-5.11228158e-07 	1.799571363e-10
0.9986970963 	0.04539735012 	-2.334183757e-07 	8.32824938e-11
0.998872659 	0.02270514367 	-6.404743819e-08 	2.481191304e-11
0.9990482216 	0.0095613758 	-7.469265484e-09 	4.581850393e-12
0.9990482216 	0.0095613758 	-7.469265484e-09 	4.581850393e-12
