0.4709558481 	3.004131193e-08 	-0.006250458328 	2.678788551e-08 	-2.859614058e-08 	-2.300845875e-11 	-5.45121928e-11
0.4709558481 	3.004131193e-08 	-0.006250458328 	2.678788551e-08 	-2.859614058e-08 	-2.300845875e-11 	-5.45121928e-11
0.4711314108 	6.162344149e-08 	-0.006248030193 	2.681642601e-08 	-6.023035427e-08 	-5.068590813e-11 	-1.148157951e-10
0.4713069734 	1.186270915e-07 	-0.006241495633 	2.685066019e-08 	-1.111358455e-07 	-1.005001042e-10 	-2.118558098e-10
0.471482536 	1.688751817e-07 	-0.006234399413 	2.688209283e-08 	-1.484447378e-07 	-1.515578356e-10 	-2.829769281e-10
0.4716580986 	2.105507654e-07 	-0.006226025386 	2.690066684e-08 	-1.685270397e-07 	-2.019105163e-10 	-3.21259377e-10
0.4718336613 	2.512858282e-07 	-0.006215245685 	2.688935633e-08 	-1.866105639e-07 	-2.515454711e-10 	-3.557316002e-10
0.4720092239 	3.076963174e-07 	-0.006200632822 	2.682894601e-08 	-2.358387124e-07 	-2.996163961e-10 	-4.495741334e-10
0.4721847865 	3.972304342e-07 	-0.006180857425 	2.6709116e-08 	-3.509721778e-07 	-3.456363945e-10 	-6.690505182e-10
0.4723603491 	5.222067615e-07 	-0.006155321509 	2.654165411e-08 	-5.364953293e-07 	-3.905488216e-10 	-1.022709208e-09
0.4725359118 	6.60543928e-07 	-0.006124752433 	2.636624883e-08 	-7.480882542e-07 	-4.366786279e-10 	-1.426064133e-09
0.4727114744 	7.76869871e-07 	-0.006091372799 	2.624108615e-08 	-9.148011757e-07 	-4.862016374e-10 	-1.743865296e-09
0.472887037 	8.472975505e-07 	-0.006058441456 	2.622125351e-08 	-9.885412777e-07 	-5.395859298e-10 	-1.884434426e-09
0.4730625996 	8.749326425e-07 	-0.006029345989 	2.633838597e-08 	-9.750966433e-07 	-5.956423009e-10 	-1.858805216e-09
0.4732381623 	8.834327508e-07 	-0.00600669702 	2.659403238e-08 	-9.213756269e-07 	-6.529169169e-10 	-1.756398028e-09
0.4734137249 	8.985887516e-07 	-0.005991813919 	2.69681929e-08 	-8.787343082e-07 	-7.108207014e-10 	-1.675111823e-09
0.4735892875 	9.350825702e-07 	-0.005984705188 	2.743473907e-08 	-8.765983619e-07 	-7.696409298e-10 	-1.671040115e-09
0.4737648501 	9.948443922e-07 	-0.00598439386 	2.797423079e-08 	-9.19182176e-07 	-8.299019475e-10 	-1.752216701e-09
0.4739404128 	1.072159059e-06 	-0.005989359373 	2.857953067e-08 	-9.956313369e-07 	-8.918804756e-10 	-1.897950049e-09
0.4741159754 	1.15835931e-06 	-0.005997926503 	2.925475357e-08 	-1.089315215e-06 	-9.556775973e-10 	-2.076537559e-09
0.474291538 	1.244352156e-06 	-0.006008531758 	3.001081173e-08 	-1.182793785e-06 	-1.021408801e-09 	-2.254733694e-09
0.4744671006 	1.322524637e-06 	-0.006019893297 	3.086425909e-08 	-1.261555851e-06 	-1.089273363e-09 	-2.404876082e-09
0.4746426632 	1.572699663e-06 	-0.006030993917 	3.182072791e-08 	-1.68515096e-06 	-1.105240341e-09 	-3.212366093e-09
0.4748182259 	1.664061768e-06 	-0.00604103105 	3.287199087e-08 	-1.793295484e-06 	-1.190608691e-09 	-3.418519613e-09
0.4749937885 	1.226412341e-06 	-0.006050559366 	3.417469836e-08 	-8.481723838e-07 	-1.397241995e-09 	-1.616852301e-09
0.4751693511 	1.328446512e-06 	-0.006050505873 	3.437498571e-08 	-9.858648866e-07 	-1.361151361e-09 	-1.879332481e-09
0.4753449137 	1.963655006e-06 	-0.006041138092 	3.418854542e-08 	-2.190727166e-06 	-1.25667667e-09 	-4.176134859e-09
0.4755204764 	1.993841413e-06 	-0.00603231438 	3.487556584e-08 	-2.188075541e-06 	-1.397274211e-09 	-4.171080126e-09
0.475696039 	1.833006777e-06 	-0.006023641736 	3.551454816e-08 	-1.805328702e-06 	-1.481968899e-09 	-3.441458271e-09
0.4758716016 	1.924653836e-06 	-0.006015117187 	3.615563148e-08 	-1.927132448e-06 	-1.470554983e-09 	-3.673650064e-09
0.4760471642 	2.024906055e-06 	-0.006006723467 	3.679702386e-08 	-2.066250873e-06 	-1.490986183e-09 	-3.938848448e-09
0.4762227269 	2.037785825e-06 	-0.00599841021 	3.753236066e-08 	-2.022561955e-06 	-1.510687275e-09 	-3.855565229e-09
0.4764955107 	2.052011565e-06 	-0.005987895866 	3.842629848e-08 	-1.963188975e-06 	-1.52233465e-09 	-3.742383826e-09
0.4767734216 	2.177398852e-06 	-0.005975127398 	3.936666549e-08 	-2.112900119e-06 	-1.516707244e-09 	-4.027774876e-09
0.4770565557 	2.324668276e-06 	-0.005962292051 	4.027038469e-08 	-2.299697484e-06 	-1.491749354e-09 	-4.383862573e-09
0.4773450114 	2.440401982e-06 	-0.005949354654 	4.112802213e-08 	-2.414804165e-06 	-1.446727496e-09 	-4.603287898e-09
0.4776388886 	2.561603222e-06 	-0.005936299478 	4.192748704e-08 	-2.529529754e-06 	-1.379048469e-09 	-4.821986757e-09
0.4779382892 	2.698507692e-06 	-0.005923118028 	4.265554291e-08 	-2.661393746e-06 	-1.287023891e-09 	-5.073356176e-09
0.4782433171 	2.853175867e-06 	-0.00590979514 	4.329860904e-08 	-2.811263215e-06 	-1.169420399e-09 	-5.359049037e-09
0.4785540779 	3.028568026e-06 	-0.005896311945 	4.384349816e-08 	-2.981482102e-06 	-1.025323685e-09 	-5.683533547e-09
0.4788706795 	3.228548264e-06 	-0.005882647852 	4.427720487e-08 	-3.175901136e-06 	-8.541720716e-10 	-6.054150261e-09
0.4791932316 	3.457270244e-06 	-0.00586878061 	4.458712447e-08 	-3.398684559e-06 	-6.557934517e-10 	-6.478837385e-09
0.4795218461 	3.719064767e-06 	-0.005854686228 	4.476119626e-08 	-3.654131307e-06 	-4.304129501e-10 	-6.965789885e-09
0.4798566368 	4.018408316e-06 	-0.005840338928 	4.478800222e-08 	-3.946672419e-06 	-1.786370461e-10 	-7.523454551e-09
0.48019772 	4.359854526e-06 	-0.005825711097 	4.465682359e-08 	-4.280811016e-06 	9.858135218e-11 	-8.160415586e-09
0.4805452138 	4.747937975e-06 	-0.005810773253 	4.435765615e-08 	-4.661025781e-06 	3.999870645e-10 	-8.885210604e-09
0.4808992388 	5.187057424e-06 	-0.005795494009 	4.388119696e-08 	-5.091654323e-06 	7.240535091e-10 	-9.706108291e-09
0.4812599177 	5.681337748e-06 	-0.005779840047 	4.321883343e-08 	-5.576756651e-06 	1.068962024e-09 	-1.063084816e-08
0.4816273755 	6.234470588e-06 	-0.005763776077 	4.236268123e-08 	-6.119958237e-06 	1.432480549e-09 	-1.166634135e-08
0.4820017397 	6.849490399e-06 	-0.005747264747 	4.130571218e-08 	-6.724180231e-06 	1.811661498e-09 	-1.281815641e-08
0.48238314 	7.528636113e-06 	-0.005730266406 	4.004195176e-08 	-7.391540516e-06 	2.202371204e-09 	-1.40903306e-08
0.4827717088 	8.273369219e-06 	-0.005712738154 	3.85663588e-08 	-8.12352881e-06 	2.599021355e-09 	-1.548570373e-08
0.4831675807 	9.084191159e-06 	-0.005694636997 	3.687520544e-08 	-8.920657232e-06 	2.994969553e-09 	-1.700525205e-08
0.4835708931 	9.960581732e-06 	-0.005675923017 	3.49672164e-08 	-9.782204731e-06 	3.38363773e-09 	-1.864760104e-08
0.4839817856 	1.09014036e-05 	-0.005656556169 	3.284361322e-08 	-1.070686837e-05 	3.759731098e-09 	-2.041026693e-08
0.4844004009 	1.190507895e-05 	-0.005636494618 	3.050756878e-08 	-1.169303906e-05 	4.11963201e-09 	-2.229018235e-08
0.4848268841 	1.296943317e-05 	-0.005615695771 	2.79638049e-08 	-1.273848823e-05 	4.46088572e-09 	-2.428309905e-08
0.485261383 	1.409163692e-05 	-0.0055941167 	2.521803354e-08 	-1.384029743e-05 	4.78144094e-09 	-2.638345361e-08
0.4857040484 	1.526817776e-05 	-0.005571714426 	2.227674423e-08 	-1.499487003e-05 	5.07900959e-09 	-2.858438989e-08
0.4861550336 	1.649478983e-05 	-0.00554844619 	1.914739564e-08 	-1.619786053e-05 	5.350655153e-09 	-3.087762413e-08
0.4866144951 	1.77664006e-05 	-0.005524269756 	1.583890593e-08 	-1.744412091e-05 	5.592676878e-09 	-3.32533428e-08
0.4870825921 	1.90771076e-05 	-0.005499143769 	1.236227791e-08 	-1.872767793e-05 	5.800752606e-09 	-3.570015922e-08
0.487559487 	2.042018928e-05 	-0.005473028173 	8.7312024e-09 	-2.004174486e-05 	5.970252008e-09 	-3.820513602e-08
0.4880453452 	2.178814857e-05 	-0.005445884677 	4.962527297e-09 	-2.137876577e-05 	6.096617937e-09 	-4.075386948e-08
0.4885403351 	2.317278415e-05 	-0.00541767727 	1.076535918e-09 	-2.273048748e-05 	6.175726984e-09 	-4.333062675e-08
0.4890446283 	2.456528258e-05 	-0.005388372757 	-2.902971582e-09 	-2.408805217e-05 	6.204169677e-09 	-4.591852236e-08
0.4895583997 	2.595632431e-05 	-0.005357941322 	-6.948763944e-09 	-2.54421039e-05 	6.179424859e-09 	-4.84997213e-08
0.4900818274 	2.733619837e-05 	-0.005326357111 	-1.103038338e-08 	-2.678290367e-05 	6.099933053e-09 	-5.105565832e-08
0.4906150929 	2.869492319e-05 	-0.005293598817 	-1.511441734e-08 	-2.81004505e-05 	5.965094922e-09 	-5.356726877e-08
0.4911583811 	3.002237417e-05 	-0.005259650288 	-1.916479183e-08 	-2.938460917e-05 	5.775231778e-09 	-5.60152321e-08
0.4917118805 	3.130842233e-05 	-0.005224501137 	-2.314305036e-08 	-3.062524887e-05 	5.531546621e-09 	-5.83802362e-08
0.4922757829 	3.254309298e-05 	-0.005188147378 	-2.700858933e-08 	-3.181240116e-05 	5.236126097e-09 	-6.06432784e-08
0.4928502838 	3.371676159e-05 	-0.005150592072 	-3.071882173e-08 	-3.293645607e-05 	4.892067493e-09 	-6.278603948e-08
0.4934355824 	3.482042402e-05 	-0.005111846029 	-3.422923669e-08 	-3.398844541e-05 	4.50385171e-09 	-6.479142355e-08
0.4940318817 	3.584607661e-05 	-0.005071928566 	-3.749328417e-08 	-3.496044472e-05 	4.077636406e-09 	-6.664432439e-08
0.4946393885 	3.678707294e-05 	-0.005030868398 	-4.046176573e-08 	-3.584576433e-05 	3.618665277e-09 	-6.833198963e-08
0.4952583133 	3.763824e-05 	-0.004988704861 	-4.308121705e-08 	-3.663834275e-05 	3.13262765e-09 	-6.984286439e-08
0.4958888709 	3.839866373e-05 	-0.004945489587 	-4.529229777e-08 	-3.733688368e-05 	2.657090573e-09 	-7.117447755e-08
0.4965312797 	3.908907643e-05 	-0.004901287227 	-4.70412006e-08 	-3.797736102e-05 	2.491874881e-09 	-7.239540537e-08
0.4971857627 	3.975718576e-05 	-0.004856172887 	-4.826734708e-08 	-3.864437274e-05 	2.129503358e-09 	-7.36669151e-08
0.4978525466 	4.027108914e-05 	-0.004810246653 	-4.881458906e-08 	-3.905238965e-05 	7.298052956e-10 	-7.444470872e-08
0.4985318627 	4.065420245e-05 	-0.004762955066 	-5.617009937e-08 	-3.919396609e-05 	6.920130411e-10 	-7.471459276e-08
0.4992239466 	4.132179745e-05 	-0.004710867686 	-7.174458951e-08 	-3.98654086e-05 	2.520105166e-09 	-7.59945488e-08
0.4999290382 	4.211983904e-05 	-0.004655230939 	-7.794364116e-08 	-4.078187122e-05 	2.097754235e-09 	-7.774158128e-08
0.5006473819 	4.263960441e-05 	-0.004599548863 	-7.667778315e-08 	-4.11840648e-05 	3.219825914e-10 	-7.850827402e-08
0.501379227 	4.305320101e-05 	-0.004543048921 	-7.832686525e-08 	-4.145822866e-05 	1.060992582e-10 	-7.903090654e-08
0.502124827 	4.346058917e-05 	-0.004485517068 	-7.982204643e-08 	-4.180847379e-05 	3.610176395e-11 	-7.96985711e-08
0.5028844406 	4.376663036e-05 	-0.00442696203 	-8.096281814e-08 	-4.204667349e-05 	-5.092275371e-10 	-8.015264594e-08
0.5036583311 	4.39737663e-05 	-0.004367477431 	-8.154739493e-08 	-4.217589147e-05 	-9.46345002e-10 	-8.039897133e-08
0.5044467669 	4.412188593e-05 	-0.004307254675 	-8.142882232e-08 	-4.227027727e-05 	-1.334733811e-09 	-8.05788969e-08
0.5052500214 	4.420788224e-05 	-0.004246555796 	-8.059508864e-08 	-4.231636951e-05 	-1.672255197e-09 	-8.066676151e-08
0.506068373 	4.413051002e-05 	-0.004178195358 	-7.863864383e-08 	-4.210333987e-05 	-2.029009014e-09 	-8.02606678e-08
0.507324668 	4.389980535e-05 	-0.004093485267 	-7.529650982e-08 	-4.170771229e-05 	-2.402167033e-09 	-7.950649169e-08
0.5085949819 	4.357829172e-05 	-0.003999799907 	-7.086800069e-08 	-4.130332542e-05 	-2.699722627e-09 	-7.873561792e-08
0.5098794711 	4.310088362e-05 	-0.00390598626 	-6.555808482e-08 	-4.073252297e-05 	-2.921746172e-09 	-7.764750979e-08
0.5111782938 	4.247401701e-05 	-0.003812623039 	-5.949720227e-08 	-3.997725351e-05 	-3.074885596e-09 	-7.620775629e-08
0.5124916099 	4.177134982e-05 	-0.003720072945 	-5.28368455e-08 	-3.915478085e-05 	-3.147630913e-09 	-7.463989482e-08
0.5138195812 	4.101622454e-05 	-0.003628559508 	-4.572644877e-08 	-3.828391211e-05 	-3.151982993e-09 	-7.297977694e-08
0.5151623712 	4.0233658e-05 	-0.003538189554 	-3.830685452e-08 	-3.73888983e-05 	-3.093278836e-09 	-7.127363187e-08
0.5165201452 	3.944741802e-05 	-0.00344898969 	-3.070837787e-08 	-3.649357708e-05 	-2.976069175e-09 	-6.956690078e-08
0.5178930705 	3.867895371e-05 	-0.003360917558 	-2.305672294e-08 	-3.561934475e-05 	-2.804218141e-09 	-6.790037098e-08
0.5192813161 	3.794750514e-05 	-0.003273867633 	-1.547996936e-08 	-3.478560223e-05 	-2.580795303e-09 	-6.631102601e-08
0.520685053 	3.726950116e-05 	-0.003187675573 	-8.116384469e-09 	-3.400893588e-05 	-2.308142579e-09 	-6.483048409e-08
0.522104454 	3.665797894e-05 	-0.003102122643 	-1.12220604e-09 	-3.330251525e-05 	-1.988068817e-09 	-6.348385003e-08
0.523539694 	3.612185575e-05 	-0.003016941631 	5.322314034e-09 	-3.267536929e-05 	-1.622336505e-09 	-6.228833551e-08
0.5249909497 	3.566513318e-05 	-0.002931825362 	1.101121916e-08 	-3.213166104e-05 	-1.213684286e-09 	-6.125187647e-08
0.5264583998 	3.528579816e-05 	-0.00284643944 	1.572063837e-08 	-3.166938144e-05 	-7.68835081e-10 	-6.037064307e-08
0.527942225 	3.497677119e-05 	-0.002760439427 	1.922312714e-08 	-3.128288347e-05 	-2.872910257e-10 	-5.963387052e-08
0.5294426081 	3.472730408e-05 	-0.002673485338 	2.130662532e-08 	-3.096601155e-05 	2.103622362e-10 	-5.902982457e-08
0.5309597337 	3.450969905e-05 	-0.002585263676 	2.183381809e-08 	-3.068530921e-05 	6.619374267e-10 	-5.849472789e-08
0.5324937889 	3.428051657e-05 	-0.00249546461 	2.052765491e-08 	-3.038195858e-05 	1.067408569e-09 	-5.791645728e-08
0.5340449624 	3.401496344e-05 	-0.002403597952 	1.716478504e-08 	-3.004195928e-05 	1.459408202e-09 	-5.726832411e-08
0.5356134452 	3.369768111e-05 	-0.002309172878 	1.203549356e-08 	-2.967328605e-05 	1.782980959e-09 	-5.656553047e-08
0.5371994306 	3.329106093e-05 	-0.002212142414 	5.618598948e-09 	-2.923252686e-05 	1.994953117e-09 	-5.572532096e-08
0.5388031139 	3.276060787e-05 	-0.002112836527 	-1.64071597e-09 	-2.867263885e-05 	2.114464265e-09 	-5.46580188e-08
0.5404246925 	3.209544873e-05 	-0.002011757546 	-9.274127301e-09 	-2.798461781e-05 	2.1488038e-09 	-5.334645947e-08
0.5420643661 	3.129401427e-05 	-0.001909513225 	-1.68683436e-08 	-2.716915894e-05 	2.101936798e-09 	-5.179196822e-08
0.5437223366 	3.035981155e-05 	-0.001806734381 	-2.410146955e-08 	-2.622971475e-05 	1.989550252e-09 	-5.000112649e-08
0.5453988083 	2.930244069e-05 	-0.00170402179 	-3.075467231e-08 	-2.517639941e-05 	1.828287211e-09 	-4.799321469e-08
0.5470939875 	2.813479373e-05 	-0.001601914605 	-3.670643892e-08 	-2.402248357e-05 	1.634421012e-09 	-4.579353039e-08
0.5488080831 	2.687131904e-05 	-0.001500877176 	-4.191069831e-08 	-2.278272196e-05 	1.421879874e-09 	-4.343020018e-08
0.5505413061 	2.552664269e-05 	-0.001401300606 	-4.636994451e-08 	-2.147188546e-05 	1.201299734e-09 	-4.093138149e-08
0.5522938699 	2.411476509e-05 	-0.0013035135 	-5.011053707e-08 	-2.010389934e-05 	9.801509934e-10 	-3.832361973e-08
0.5540659904 	2.26487509e-05 	-0.001207797032 	-5.316468985e-08 	-1.869151776e-05 	7.634118719e-10 	-3.563122788e-08
0.5558578859 	2.114065927e-05 	-0.00111440086 	-5.556136329e-08 	-1.724619349e-05 	5.549333761e-10 	-3.287603812e-08
0.5576697768 	1.960214329e-05 	-0.001023557179 	-5.732567596e-08 	-1.57792215e-05 	3.573660171e-10 	-3.007958178e-08
0.5595018865 	1.804212238e-05 	-0.0009354929954 	-5.848304625e-08 	-1.429712242e-05 	1.759632603e-10 	-2.725428902e-08
0.5613544406 	1.646975524e-05 	-0.0008504409246 	-5.90634232e-08 	-1.280801562e-05 	2.064279508e-11 	-2.441563758e-08
0.563227667 	1.489621007e-05 	-0.000768609394 	-5.907555022e-08 	-1.132578969e-05 	-1.214150028e-10 	-2.159010299e-08
0.5651217966 	1.332916303e-05 	-0.0006903042505 	-5.844461283e-08 	-9.851869064e-06 	-2.559025378e-10 	-1.878040062e-08
0.5670370626 	1.178213268e-05 	-0.0006158152522 	-5.736126365e-08 	-8.393265512e-06 	-3.485243546e-10 	-1.599989685e-08
0.5689737009 	1.027357307e-05 	-0.0005452799432 	-5.594582435e-08 	-6.972413096e-06 	-4.069064741e-10 	-1.329135724e-08
0.5709319499 	8.809407615e-06 	-0.0004788704315 	-5.409721208e-08 	-5.59372915e-06 	-4.72814235e-10 	-1.066320246e-08
0.5729120508 	7.389858861e-06 	-0.0004167607458 	-5.185319611e-08 	-4.251461322e-06 	-5.485072918e-10 	-8.104466913e-09
0.5749142474 	6.019805227e-06 	-0.0003590525516 	-4.924472877e-08 	-2.948320646e-06 	-6.220572986e-10 	-5.620318594e-09
0.5769387863 	4.703678098e-06 	-0.0003057750708 	-4.635710811e-08 	-1.68669398e-06 	-6.854484867e-10 	-3.215307518e-09
0.5789859169 	3.443885135e-06 	-0.0002568687884 	-4.33129099e-08 	-4.669276671e-07 	-7.326693441e-10 	-8.900939093e-10
0.5810558911 	2.241073184e-06 	-0.0002121761951 	-4.025047673e-08 	7.114483551e-07 	-7.680372751e-10 	1.356218302e-09
0.583148964 	1.092084121e-06 	-0.0001714740894 	-3.723775014e-08 	1.853366354e-06 	-7.997615103e-10 	3.533031388e-09
0.5852653933 	-9.132600446e-09 	-0.0001344987774 	-3.435127925e-08 	2.966655935e-06 	-8.299654466e-10 	5.655270752e-09
0.5874054395 	-1.068071855e-06 	-0.000100918248 	-3.17055774e-08 	4.056433093e-06 	-8.560003525e-10 	7.732688902e-09
0.5895693664 	-2.089805723e-06 	-7.036663532e-05 	-2.931789144e-08 	5.12622559e-06 	-8.803240724e-10 	9.772010736e-09
0.5917574402 	-3.080452625e-06 	-4.249443694e-05 	-2.718125593e-08 	6.180898455e-06 	-9.05503461e-10 	1.178251035e-08
0.5939699306 	-4.046422067e-06 	-1.696585053e-05 	-2.530027868e-08 	7.225513796e-06 	-9.310260521e-10 	1.377383752e-08
0.5962071099 	-4.993774223e-06 	6.535626106e-06 	-2.366092162e-08 	8.264651605e-06 	-9.57046915e-10 	1.5754723e-08
0.5984692536 	-5.928039886e-06 	2.829739904e-05 	-2.224387442e-08 	9.302346659e-06 	-9.834023659e-10 	1.773285819e-08
0.6007566404 	-6.853961386e-06 	4.857566436e-05 	-2.10268818e-08 	1.034172438e-05 	-1.009608793e-09 	1.9714201e-08
0.6030695519 	-7.775497062e-06 	6.759588588e-05 	-1.998722819e-08 	1.138504377e-05 	-1.035301535e-09 	2.170305773e-08
0.6054082729 	-8.69590794e-06 	8.555459887e-05 	-1.910286631e-08 	1.24338531e-05 	-1.060172493e-09 	2.370237982e-08
0.6077730914 	-9.617843985e-06 	0.0001026218101 	-1.835297152e-08 	1.348911651e-05 	-1.083958475e-09 	2.571400517e-08
0.6101642987 	-1.054342251e-05 	0.0001189436051 	-1.771817699e-08 	1.455131229e-05 	-1.106407894e-09 	2.773884555e-08
0.6125821893 	-1.147429185e-05 	0.0001346447253 	-1.718062293e-08 	1.562050193e-05 	-1.127265724e-09 	2.977701818e-08
0.6150270608 	-1.241168064e-05 	0.000149830992 	-1.672393851e-08 	1.669637867e-05 	-1.146276272e-09 	3.182793826e-08
0.6174992144 	-1.335643929e-05 	0.0001645915489 	-1.633325688e-08 	1.777831108e-05 	-1.163208207e-09 	3.389040214e-08
0.6199989545 	-1.430908205e-05 	0.0001790009611 	-1.599531279e-08 	1.88653972e-05 	-1.177892891e-09 	3.596269044e-08
0.622526589 	-1.526983503e-05 	0.0001931212207 	-1.569859708e-08 	1.995653536e-05 	-1.190258778e-09 	3.804270303e-08
0.625082429 	-1.623868949e-05 	0.0002070036812 	-1.543348782e-08 	2.105050532e-05 	-1.200343894e-09 	4.012811383e-08
0.6276667894 	-1.721545419e-05 	0.0002206908945 	-1.519228e-08 	2.214604426e-05 	-1.208279169e-09 	4.221651553e-08
0.6302799884 	-1.819979935e-05 	0.0002342182926 	-1.496908715e-08 	2.324190195e-05 	-1.214250111e-09 	4.430552488e-08
0.6329223478 	-1.919128797e-05 	0.0002476156611 	-1.475964098e-08 	2.433686761e-05 	-1.218453172e-09 	4.639283376e-08
0.6355941931 	-2.018939394e-05 	0.000260908378 	-1.456103718e-08 	2.542977073e-05 	-1.221061136e-09 	4.847621085e-08
0.6382958531 	-2.119351034e-05 	0.0002741184156 	-1.437146883e-08 	2.651946461e-05 	-1.222203891e-09 	5.055347025e-08
0.6410276607 	-2.220295154e-05 	0.0002872651242 	-1.418997433e-08 	2.760480247e-05 	-1.221963407e-09 	5.262242587e-08
0.6437899523 	-2.321695264e-05 	0.0003003658223 	-1.40162148e-08 	2.868461353e-05 	-1.220378208e-09 	5.468084586e-08
0.646583068 	-2.423466823e-05 	0.0003134362267 	-1.385028811e-08 	2.97576835e-05 	-1.217452407e-09 	5.672641547e-08
0.6494073518 	-2.525517176e-05 	0.0003264907506 	-1.369258124e-08 	3.082274104e-05 	-1.21316581e-09 	5.875671116e-08
0.6522631514 	-2.627745587e-05 	0.0003395426991 	-1.354365865e-08 	3.187845018e-05 	-1.207483193e-09 	6.07691862e-08
0.6551508186 	-2.73004337e-05 	0.0003526043873 	-1.340418175e-08 	3.292340777e-05 	-1.200362035e-09 	6.27611658e-08
0.658070709 	-2.832294122e-05 	0.000365687199 	-1.327485341e-08 	3.395614506e-05 	-1.191758707e-09 	6.47298501e-08
0.6610231822 	-2.934374031e-05 	0.0003788016034 	-1.315638157e-08 	3.497513227e-05 	-1.181633356e-09 	6.667232294e-08
0.6640086017 	-3.036152263e-05 	0.0003919571393 	-1.304945675e-08 	3.597878546e-05 	-1.169953859e-09 	6.858556488e-08
0.6670273351 	-3.13749139e-05 	0.0004051623757 	-1.295473909e-08 	3.696547496e-05 	-1.156699091e-09 	7.04664693e-08
0.6700797543 	-3.238247872e-05 	0.0004184248531 	-1.287285182e-08 	3.793353482e-05 	-1.141861753e-09 	7.231186045e-08
0.6731662352 	-3.338272546e-05 	0.0004317510103 	-1.280437852e-08 	3.888127289e-05 	-1.125450857e-09 	7.411851262e-08
0.6762871577 	-3.437411132e-05 	0.0004451460969 	-1.27498626e-08 	3.980698096e-05 	-1.107493953e-09 	7.58831695e-08
0.6794429063 	-3.535504693e-05 	0.0004586140746 	-1.270980755e-08 	4.070894471e-05 	-1.088039107e-09 	7.760256308e-08
0.6826338695 	-3.632390058e-05 	0.000472157506 	-1.268467714e-08 	4.158545277e-05 	-1.06715664e-09 	7.927343105e-08
0.6858604404 	-3.727900139e-05 	0.0004857774321 	-1.267489497e-08 	4.243480473e-05 	-1.044940569e-09 	8.089253196e-08
0.6891230163 	-3.821864124e-05 	0.0004994732385 	-1.268084269e-08 	4.325531733e-05 	-1.021509763e-09 	8.245665702e-08
0.6924219988 	-3.914107485e-05 	0.000513242509 	-1.270285666e-08 	4.404532845e-05 	-9.97008724e-10 	8.39626378e-08
0.6957577944 	-4.004451771e-05 	0.0005270808696 	-1.27412227e-08 	4.480319839e-05 	-9.71608017e-10 	8.540734854e-08
0.6991308138 	-4.092714122e-05 	0.0005409818197 	-1.279616857e-08 	4.552730775e-05 	-9.455042684e-10 	8.678770224e-08
0.7025414724 	-4.17870646e-05 	0.0005549365559 	-1.286785395e-08 	4.621605157e-05 	-9.189197496e-10 	8.810063939e-08
0.7059901901 	-4.262234306e-05 	0.0005689337869 	-1.295635779e-08 	4.686782912e-05 	-8.921014957e-10 	8.934310854e-08
0.7094773917 	-4.343095187e-05 	0.0005829595452 	-1.306166259e-08 	4.748102899e-05 	-8.653199824e-10 	9.051203793e-08
0.7130035066 	-4.421076604e-05 	0.0005969969984 	-1.318363573e-08 	4.805400948e-05 	-8.388672801e-10 	9.160429799e-08
0.7165689691 	-4.495953429e-05 	0.0006110262683 	-1.332200749e-08 	4.858507183e-05 	-8.130547599e-10 	9.261665043e-08
0.7201742182 	-4.567484984e-05 	0.0006250242711 	-1.347634608e-08 	4.907243122e-05 	-7.882101692e-10 	9.354569288e-08
0.7238196978 	-4.635409128e-05 	0.0006389645696 	-1.364602911e-08 	4.951413197e-05 	-7.646750968e-10 	9.438769727e-08
0.727505857 	-4.699446725e-05 	0.0006528172273 	-1.383021195e-08 	4.990817395e-05 	-7.428014308e-10 	9.51388508e-08
0.7312331497 	-4.75930187e-05 	0.000666548635 	-1.402779443e-08 	5.025255297e-05 	-7.229436149e-10 	9.579533293e-08
0.7350020349 	-4.814486279e-05 	0.0006800839723 	-1.423688648e-08 	5.054387431e-05 	-7.054947475e-10 	9.635067238e-08
0.7387709215 	-4.864261796e-05 	0.0006932728918 	-1.445399104e-08 	5.077779121e-05 	-6.908725658e-10 	9.679658301e-08
0.7424982157 	-4.908104519e-05 	0.000705980315 	-1.467508472e-08 	5.095253635e-05 	-6.793422168e-10 	9.712969581e-08
0.7461843763 	-4.945882189e-05 	0.0007181566996 	-1.48971838e-08 	5.106868775e-05 	-6.709711257e-10 	9.735111266e-08
0.7498298574 	-4.977567675e-05 	0.000729788028 	-1.511792139e-08 	5.112687741e-05 	-6.657435413e-10 	9.746203832e-08
0.7534351078 	-5.00312738e-05 	0.0007408627461 	-1.533498172e-08 	5.112764713e-05 	-6.636013864e-10 	9.746350562e-08
0.7570005716 	-5.022523233e-05 	0.000751372315 	-1.554615053e-08 	5.10714598e-05 	-6.644446541e-10 	9.735639696e-08
0.7605266877 	-5.035709431e-05 	0.0007613116486 	-1.574936632e-08 	5.095860341e-05 	-6.681356434e-10 	9.714126131e-08
0.7640138905 	-5.042638784e-05 	0.0007706794682 	-1.594277155e-08 	5.078928196e-05 	-6.74501403e-10 	9.681848758e-08
0.7674626093 	-5.043266821e-05 	0.000779478579 	-1.612476138e-08 	5.056365991e-05 	-6.833373535e-10 	9.638838923e-08
0.770873269 	-5.03755597e-05 	0.0007877160737 	-1.629402679e-08 	5.028190797e-05 	-6.944115598e-10 	9.585129173e-08
0.7742462894 	-5.025479541e-05 	0.0007954034465 	-1.644958913e-08 	4.994424592e-05 	-7.074699541e-10 	9.520761401e-08
0.777582086 	-5.007025449e-05 	0.0008025566188 	-1.659082241e-08 	4.955098283e-05 	-7.222422775e-10 	9.445794525e-08
0.7808810695 	-4.982199386e-05 	0.0008091958789 	-1.671746052e-08 	4.910255086e-05 	-7.384488319e-10 	9.360310929e-08
0.7841436462 	-4.951027287e-05 	0.0008153457285 	-1.68295892e-08 	4.859953148e-05 	-7.558082313e-10 	9.264421454e-08
0.787370218 	-4.913557193e-05 	0.0008210346525 	-1.69276214e-08 	4.804267581e-05 	-7.74045834e-10 	9.158269286e-08
0.7905611821 	-4.869860388e-05 	0.0008262948281 	-1.701225551e-08 	4.743291784e-05 	-7.929026075e-10 	9.04203247e-08
0.7937169314 	-4.820031723e-05 	0.0008311617871 	-1.7084418e-08 	4.677137903e-05 	-8.121443962e-10 	8.915924787e-08
0.7968378547 	-4.764189119e-05 	0.0008356740523 	-1.71451913e-08 	4.60593649e-05 	-8.315713912e-10 	8.780195104e-08
0.7999243362 	-4.702472279e-05 	0.0008398727677 	-1.719572864e-08 	4.529835371e-05 	-8.510275438e-10 	8.635125219e-08
0.8029767561 	-4.635040629e-05 	0.0008438013414 	-1.72371574e-08 	4.448997764e-05 	-8.70409673e-10 	8.481026273e-08
0.8059954902 	-4.562070551e-05 	0.0008475051222 	-1.727047226e-08 	4.363599707e-05 	-8.896759511e-10 	8.318233841e-08
0.8089809102 	-4.483751998e-05 	0.000851031124 	-1.72964195e-08 	4.273826876e-05 	-9.088533998e-10 	8.147101875e-08
0.8119333839 	-4.40028459e-05 	0.0008544278138 	-1.731537312e-08 	4.17987091e-05 	-9.280439572e-10 	7.96799569e-08
0.8148532749 	-4.311873317e-05 	0.0008577449739 	-1.732720381e-08 	4.081925355e-05 	-9.474285852e-10 	7.78128424e-08
0.8177409426 	-4.21872399e-05 	0.0008610336456 	-1.73311413e-08 	3.980181372e-05 	-9.672687821e-10 	7.58733193e-08
0.8205967427 	-4.121038624e-05 	0.0008643461627 	-1.732563147e-08 	3.874823373e-05 	-9.879047125e-10 	7.3864903e-08
0.8234210268 	-4.019010927e-05 	0.0008677362743 	-1.730819013e-08 	3.766024773e-05 	-1.009749024e-09 	7.179089929e-08
0.8262141429 	-3.91282214e-05 	0.0008712593598 	-1.727525671e-08 	3.653944078e-05 	-1.033275242e-09 	6.965432973e-08
0.8289764348 	-3.802637496e-05 	0.000874972731 	-1.722205318e-08 	3.538721568e-05 	-1.058999443e-09 	6.745786844e-08
0.8317082427 	-3.688603608e-05 	0.0008789360162 	-1.714245584e-08 	3.420476878e-05 	-1.087453777e-09 	6.520379603e-08
0.8344099031 	-3.570847156e-05 	0.0008832116131 	-1.702889093e-08 	3.299307838e-05 	-1.119150363e-09 	6.289397734e-08
0.8370817486 	-3.449475297e-05 	0.0008878651954 	-1.687226878e-08 	3.175290959e-05 	-1.154534285e-09 	6.052987094e-08
0.8397241082 	-3.324578236e-05 	0.0008929662474 	-1.666197502e-08 	3.048484023e-05 	-1.193924981e-09 	5.81125783e-08
0.8423373074 	-3.196234394e-05 	0.0008985885944 	-1.638594098e-08 	2.918931184e-05 	-1.237446709e-09 	5.564294112e-08
0.844921668 	-3.064518541e-05 	0.0009048108854 	-1.603081792e-08 	2.786670935e-05 	-1.284950989e-09 	5.312169317e-08
0.8474775082 	-2.929512998e-05 	0.0009117169756 	-1.558227889e-08 	2.651747085e-05 	-1.335937596e-09 	5.054966959e-08
0.8500051427 	-2.791321706e-05 	0.000919396146 	-1.502546822e-08 	2.51422253e-05 	-1.38948539e-09 	4.792806934e-08
0.8525048829 	-2.650086287e-05 	0.000927943091 	-1.434560811e-08 	2.374195022e-05 	-1.444209664e-09 	4.525875586e-08
0.8549770366 	-2.506002523e-05 	0.0009374576057 	-1.352875556e-08 	2.231813411e-05 	-1.498266806e-09 	4.254456662e-08
0.8574219081 	-2.359334794e-05 	0.0009480439115 	-1.256267917e-08 	2.087292019e-05 	-1.54942735e-09 	3.978958721e-08
0.8598397987 	-2.21042536e-05 	0.0009598095793 	-1.143779553e-08 	1.940920151e-05 	-1.595231471e-09 	3.69993326e-08
0.862231006 	-2.059695243e-05 	0.0009728640446 	-1.014807089e-08 	1.793063601e-05 	-1.633224706e-09 	3.418077579e-08
0.8645958245 	-1.907634162e-05 	0.0009873167535 	-8.691762741e-09 	1.644155667e-05 	-1.661247518e-09 	3.134217671e-08
0.8669345455 	-1.754778742e-05 	0.001003275041 	-7.071859916e-09 	1.494676883e-05 	-1.677727199e-09 	2.849269562e-08
0.8692474569 	-1.601680731e-05 	0.001020841897 	-5.296097085e-09 	1.345125059e-05 	-1.681905936e-09 	2.564182221e-08
0.8715348435 	-1.448869629e-05 	0.001040113818 	-3.376481706e-09 	1.195979835e-05 	-1.673945075e-09 	2.27986997e-08
0.8737969871 	-1.296815899e-05 	0.001061178953 	-1.328373688e-09 	1.047667649e-05 	-1.654875335e-09 	1.997145724e-08
0.8760341663 	-1.145901154e-05 	0.001084115695 	8.307317504e-10 	9.005333085e-06 	-1.626406097e-09 	1.716666776e-08
0.8782466565 	-9.96400114e-06 	0.001108991828 	3.082493255e-09 	7.548227732e-06 	-1.590646348e-09 	1.438901998e-08
0.8804347301 	-8.484762962e-06 	0.001135864189 	5.408854456e-09 	6.106790731e-06 	-1.549808778e-09 	1.164124043e-08
0.8825986568 	-7.021903132e-06 	0.001164778775 	7.792853333e-09 	4.681502747e-06 	-1.505960887e-09 	8.924245391e-09
0.8847387028 	-5.575174087e-06 	0.001195771122 	1.021905388e-08 	3.272062429e-06 	-1.460858927e-09 	6.237460413e-09
0.8868551318 	-4.143699957e-06 	0.001228866808 	1.267364608e-08 	1.87760122e-06 	-1.415866857e-09 	3.579229778e-09
0.8889482045 	-2.726215007e-06 	0.001264081949 	1.514431672e-08 	4.969098961e-07 	-1.371937834e-09 	9.472483708e-10
0.8910181784 	-1.32129207e-06 	0.001301423586 	1.761999359e-08 	-8.713452131e-07 	-1.329627699e-09 	-1.661026154e-09
0.8930653087 	7.244715272e-08 	0.001340889943 	2.009052805e-08 	-2.228423857e-06 	-1.289116254e-09 	-4.24799523e-09
0.8950898473 	1.456137976e-06 	0.001382470523 	2.254633895e-08 	-3.575329017e-06 	-1.250225287e-09 	-6.815570817e-09
0.8970920436 	2.830490764e-06 	0.001426146056 	2.497801272e-08 	-4.912635103e-06 	-1.212435913e-09 	-9.364847903e-09
0.8990721441 	4.195622483e-06 	0.001471888273 	2.737584179e-08 	-6.240327995e-06 	-1.174918705e-09 	-1.189579957e-08
0.9010303927 	5.550912158e-06 	0.001519659492 	2.972929459e-08 	-7.557666829e-06 	-1.136593427e-09 	-1.440701352e-08
0.9029670306 	6.894897679e-06 	0.001569411976 	3.202645447e-08 	-8.863084895e-06 	-1.096226509e-09 	-1.689550318e-08
0.9048822962 	8.225231332e-06 	0.001621087065 	3.425352796e-08 	-1.015414743e-05 	-1.052557506e-09 	-1.93566272e-08
0.9067764254 	9.538703097e-06 	0.001674614139 	3.639456207e-08 	-1.142757597e-05 	-1.004431797e-09 	-2.178413593e-08
0.9086496514 	1.08313276e-05 	0.001729909539 	3.843149191e-08 	-1.267933561e-05 	-9.509144095e-10 	-2.417033771e-08