0.4709558481 	8.617500884e-08 	-1.423033152e-10 	3.324573846e-15 	8.601104611e-08 	-1.583476789e-12 	1.639609594e-10
0.4711314108 	9.675227994e-07 	-6.24354042e-09 	1.459939242e-13 	9.656817256e-07 	-1.777814367e-11 	1.840857766e-09
0.4713069734 	5.393145548e-06 	-8.146964277e-08 	1.906050156e-12 	5.382879753e-06 	-9.909042328e-11 	1.02612649e-08
0.471482536 	1.79567218e-05 	-5.08211396e-07 	1.188731321e-11 	1.792251899e-05 	-3.298278805e-10 	3.416530251e-08
0.4716580986 	4.436452109e-05 	-2.062295651e-06 	4.815716475e-11 	4.427992576e-05 	-8.142475745e-10 	8.440984547e-08
0.4718336613 	9.080622136e-05 	-6.320404597e-06 	1.469887172e-10 	9.06327807e-05 	-1.663806249e-09 	1.727712701e-07
0.4720092239 	0.0001635526655 	-1.589878482e-05 	3.66951433e-10 	0.0001632394857 	-2.987212106e-09 	3.111798299e-07
0.4721847865 	0.0002684809005 	-3.450046983e-05 	7.866265519e-10 	0.0002679647487 	-4.877476128e-09 	5.10815288e-07
0.4723603491 	0.0004104624581 	-6.66465477e-05 	1.492846541e-09 	0.0004096685053 	-7.395456046e-09 	7.809420327e-07
0.4725359118 	0.0005926687142 	-0.0001170383472 	2.559906247e-09 	0.0005915125444 	-1.055305032e-08 	1.127587312e-06
0.4727114744 	0.0008159495077 	-0.0001896526821 	4.025971834e-09 	0.000814341603 	-1.43020803e-08 	1.55236143e-06
0.472887037 	0.001078491377 	-0.0002868397521 	5.876905492e-09 	0.001076344449 	-1.853489001e-08 	2.051811674e-06
0.4730625996 	0.001375910759 	-0.0004087485949 	8.045569923e-09 	0.001373147697 	-2.309868328e-08 	2.617601157e-06
0.4732381623 	0.0017017926 	-0.0005532815604 	1.042681952e-08 	0.001698351303 	-2.781966714e-08 	3.237529616e-06
0.4734137249 	0.0020485253 	-0.00071654909 	1.290068358e-08 	0.002044358775 	-3.252912939e-08 	3.897116025e-06
0.4735892875 	0.002408200619 	-0.0008936107955 	1.535413607e-08 	0.002403274357 	-3.708394938e-08 	4.581308879e-06
0.4737648501 	0.002773373374 	-0.001079243489 	1.769530682e-08 	0.002767663077 	-4.137769442e-08 	5.275935057e-06
0.4739404128 	0.003137570114 	-0.001268551017 	1.985904786e-08 	0.003131061009 	-4.534259002e-08 	5.968672517e-06
0.4741159754 	0.003495534987 	-0.001457343567 	2.180607198e-08 	0.003488221983 	-4.894516004e-08 	6.649520601e-06
0.474291538 	0.003843264722 	-0.001642301391 	2.351872606e-08 	0.003835152255 	-5.217882182e-08 	7.310866123e-06
0.4744671006 	0.004177906766 	-0.001820979755 	2.499580926e-08 	0.004169007869 	-5.505595144e-08 	7.947287714e-06
0.4746426632 	0.0044975882 	-0.001991718323 	2.624779032e-08 	0.004487923276 	-5.760082397e-08 	8.555229118e-06
0.4748182259 	0.004801224612 	-0.00215350684 	2.729285313e-08 	0.00479082059 	-5.984404658e-08 	9.132635585e-06
0.4749937885 	0.005088338793 	-0.002305846412 	2.815299204e-08 	0.005077228686 	-6.181863519e-08 	9.678609018e-06
0.4751693511 	0.005358931817 	-0.002448612007 	2.885463805e-08 	0.005347069786 	-6.356983695e-08 	1.019300115e-05
0.4753449137 	0.005613272677 	-0.002581925495 	2.942661915e-08 	0.005600695282 	-6.509604409e-08 	1.067648184e-05
0.4755204764 	0.005851778449 	-0.002706255328 	2.985597862e-08 	0.005838824632 	-6.641645108e-08 	1.113042257e-05
0.475696039 	0.006075295485 	-0.002819181245 	3.088040516e-08 	0.006061933675 	-6.763868556e-08 	1.155573041e-05
0.4758716016 	0.006284879163 	-0.002919153424 	3.195077691e-08 	0.006270620581 	-6.870529273e-08 	1.195354566e-05
0.4760471642 	0.006481221119 	-0.003010289803 	3.236163334e-08 	0.006466177548 	-6.956278855e-08 	1.232633159e-05
0.4762227269 	0.006689555362 	-0.003107066859 	3.27721695e-08 	0.006674161281 	-7.044710654e-08 	1.272280639e-05
0.4764955107 	0.006928627682 	-0.003218113586 	3.321303671e-08 	0.006912779692 	-7.143127001e-08 	1.31776794e-05
0.4767734216 	0.007169434379 	-0.003329922939 	3.362567845e-08 	0.007152859325 	-7.234255877e-08 	1.363533791e-05
0.4770565557 	0.007389895135 	-0.003432276556 	3.397779046e-08 	0.007372601191 	-7.312385636e-08 	1.405422698e-05
0.4773450114 	0.007591327423 	-0.003525802812 	3.427990722e-08 	0.00757341975 	-7.37995319e-08 	1.443704297e-05
0.4776388886 	0.007775092512 	-0.003611126859 	3.454072425e-08 	0.007756617582 	-7.438693685e-08 	1.478626895e-05
0.4779382892 	0.007942499242 	-0.003688846135 	3.476709562e-08 	0.007923487146 	-7.490043883e-08 	1.510436872e-05
0.4782433171 	0.008094791318 	-0.003759537314 	3.496581338e-08 	0.008075271533 	-7.535183517e-08 	1.539371195e-05
0.4785540779 	0.008233139467 	-0.003823752897 	3.514166918e-08 	0.008213139798 	-7.575038927e-08 	1.565652718e-05
0.4788706795 	0.008358635062 	-0.003881999642 	3.529725781e-08 	0.008338180398 	-7.610319783e-08 	1.589488932e-05
0.4791932316 	0.00847228839 	-0.003934745667 	3.543543782e-08 	0.008451400568 	-7.641549562e-08 	1.611071843e-05
0.4795218461 	0.00857503005 	-0.003982422521 	3.555818906e-08 	0.008553727867 	-7.669083959e-08 	1.63057827e-05
0.4798566368 	0.008667714276 	-0.004025426471 	3.566671351e-08 	0.008646013444 	-7.693126003e-08 	1.648170466e-05
0.48019772 	0.008751123387 	-0.004064120447 	3.576150362e-08 	0.008729036457 	-7.713735876e-08 	1.66399696e-05
0.4805452138 	0.008825972825 	-0.004098836319 	3.584238385e-08 	0.008803509117 	-7.730834631e-08 	1.678193519e-05
0.4808992388 	0.008892916424 	-0.004129877321 	3.590852969e-08 	0.008870081935 	-7.744201396e-08 	1.690884148e-05
0.4812599177 	0.008952551659 	-0.00415752046 	3.595846738e-08 	0.008929348945 	-7.753463482e-08 	1.702182087e-05
0.4816273755 	0.009005424716 	-0.004182018872 	3.599005751e-08 	0.008981852755 	-7.758079165e-08 	1.712190773e-05
0.4820017397 	0.009052035324 	-0.004203604049 	3.600046769e-08 	0.009028089333 	-7.75731413e-08 	1.72100475e-05
0.48238314 	0.009092841318 	-0.004222487948 	3.598614357e-08 	0.0090685125 	-7.750214233e-08 	1.728710529e-05
0.4827717088 	0.009128262884 	-0.004238864976 	3.594279401e-08 	0.009103538203 	-7.735576532e-08 	1.735387401e-05
0.4831675807 	0.009158686005 	-0.004252913843 	3.5865414e-08 	0.009133549599 	-7.711921943e-08 	1.741108407e-05
0.4835708931 	0.009184466035 	-0.004264799321 	3.574838201e-08 	0.00915890103 	-7.677588005e-08 	1.745941095e-05
0.4839817856 	0.009205934304 	-0.004274673813 	3.558568591e-08 	0.009179914778 	-7.631123311e-08 	1.749946899e-05
0.4844004009 	0.009223441378 	-0.004282678555 	3.537134206e-08 	0.009196802415 	-7.572397654e-08 	1.753166152e-05
0.4848268841 	0.009237183288 	-0.004288944888 	3.509991756e-08 	0.009210017944 	-7.492801205e-08 	1.755685399e-05
0.485261383 	0.009247315299 	-0.004293594538 	3.476770263e-08 	0.009220030195 	-7.399246466e-08 	1.757594013e-05
0.4857040484 	0.009254327387 	-0.004293764014 	3.491755236e-08 	0.009226555515 	-7.316325402e-08 	1.75883792e-05
0.4861550336 	0.009258439748 	-0.004289323764 	3.434658857e-08 	0.009229759242 	-7.225359395e-08 	1.759448639e-05
0.4866144951 	0.009259532585 	-0.00428344577 	3.266883555e-08 	0.009230392928 	-7.116084781e-08 	1.759569438e-05
0.4870825921 	0.009257828414 	-0.004276423864 	3.123428228e-08 	0.009228442524 	-7.012602496e-08 	1.759197636e-05
0.487559487 	0.009253570962 	-0.004268219596 	3.004850412e-08 	0.00922380164 	-6.908095828e-08 	1.758312955e-05
0.4880453452 	0.009246825662 	-0.004258900712 	2.913897376e-08 	0.009216682604 	-6.794371686e-08 	1.756955869e-05
0.4885403351 	0.009237687658 	-0.00424852572 	2.850104094e-08 	0.009207205423 	-6.677095053e-08 	1.755149255e-05
0.4890446283 	0.009226253044 	-0.004237176894 	2.81105613e-08 	0.00919545849 	-6.556473555e-08 	1.752909963e-05
0.4895583997 	0.009212606487 	-0.004224939904 	2.795127348e-08 	0.00918152624 	-6.432982421e-08 	1.750254089e-05
0.4900818274 	0.009196824933 	-0.004211894149 	2.800788348e-08 	0.009165483989 	-6.306882534e-08 	1.74719599e-05
0.4906150929 	0.009178977765 	-0.00419811141 	2.826460955e-08 	0.009147399612 	-6.178177907e-08 	1.743748605e-05
0.4911583811 	0.009159127487 	-0.00418365566 	2.870419191e-08 	0.00912733397 	-6.046723107e-08 	1.739923536e-05
0.4917118805 	0.009137330355 	-0.00416858345 	2.930721897e-08 	0.009105341278 	-5.912233957e-08 	1.735731117e-05
0.4922757829 	0.00911363688 	-0.004152944349 	3.005184828e-08 	0.009081469604 	-5.774314497e-08 	1.731180513e-05
0.4928502838 	0.009088092276 	-0.004136781331 	3.091372167e-08 	0.009055761327 	-5.632483575e-08 	1.726279801e-05
0.4934355824 	0.009060736869 	-0.004120131088 	3.186604919e-08 	0.009028253569 	-5.486201691e-08 	1.721036058e-05
0.4940318817 	0.009031606462 	-0.00410302427 	3.287980798e-08 	0.008998978609 	-5.334899147e-08 	1.715455437e-05
0.4946393885 	0.009000732677 	-0.004085485657 	3.392399087e-08 	0.008967964271 	-5.178004706e-08 	1.709543242e-05
0.4952583133 	0.008968143261 	-0.004067534327 	3.496586952e-08 	0.008935234293 	-5.014974367e-08 	1.703303998e-05
0.4958888709 	0.008933862387 	-0.004049183838 	3.59712874e-08 	0.008900808692 	-4.84531991e-08 	1.696741522e-05
0.4965312797 	0.00889791093 	-0.004030442485 	3.690503214e-08 	0.008864704112 	-4.668636709e-08 	1.689858985e-05
0.4971857627 	0.00886030675 	-0.004011313613 	3.773134505e-08 	0.008826934176 	-4.484630055e-08 	1.682658986e-05
0.4978525466 	0.008821064962 	-0.003991795951 	3.841462241e-08 	0.008787509842 	-4.29313916e-08 	1.675143612e-05
0.4985318627 	0.008780198219 	-0.00397188388 	3.892035172e-08 	0.008746439759 	-4.094158407e-08 	1.667314513e-05
0.4992239466 	0.008737716967 	-0.003951567529 	3.921628378e-08 	0.008703730634 	-3.887855586e-08 	1.659172966e-05
0.4999290382 	0.008693629705 	-0.003930832589 	3.927376543e-08 	0.008659387602 	-3.674586549e-08 	1.650719952e-05
0.5006473819 	0.008647943204 	-0.003909659788 	3.906908526e-08 	0.00861341459 	-3.454905374e-08 	1.641956218e-05
0.501379227 	0.008600662551 	-0.003888024278 	3.858466011e-08 	0.008565814992 	-3.229565822e-08 	1.632882412e-05
0.502124827 	0.008551791531 	-0.003865895516 	3.780993284e-08 	0.008516591537 	-2.999514004e-08 	1.623499053e-05
0.5028844406 	0.008501332658 	-0.003843238783 	3.674201434e-08 	0.008465746814 	-2.765876202e-08 	1.613806636e-05
0.5036583311 	0.008449281568 	-0.003820034726 	3.538486507e-08 	0.008413294886 	-2.529806679e-08 	1.603807841e-05
0.5044467669 	0.008395673287 	-0.003796287464 	3.374714904e-08 	0.008359168732 	-2.29304748e-08 	1.593489891e-05
0.5052500214 	0.008340500856 	-0.003772020903 	3.183926284e-08 	0.00830338234 	-2.057327822e-08 	1.582855455e-05
0.506068373 	0.008276314971 	-0.003744578703 	2.933615969e-08 	0.008238741917 	-1.793980091e-08 	1.570533193e-05
0.507324668 	0.008195441929 	-0.003709270035 	2.595602674e-08 	0.008157293407 	-1.48099571e-08 	1.555006844e-05
0.5085949819 	0.008105189851 	-0.003668081582 	2.206514383e-08 	0.008066125279 	-1.15842741e-08 	1.537627665e-05
0.5098794711 	0.008012859918 	-0.003625043135 	1.803406564e-08 	0.007972950314 	-8.592911713e-09 	1.519865926e-05
0.5111782938 	0.007918483979 	-0.003580348181 	1.398953562e-08 	0.007877879584 	-5.861014907e-09 	1.501742803e-05
0.5124916099 	0.007822159735 	-0.003534132592 	1.005491666e-08 	0.007780890539 	-3.404180199e-09 	1.483253995e-05
0.5138195812 	0.007723927131 	-0.00348650633 	6.337085982e-09 	0.007682067975 	-1.221853124e-09 	1.464415668e-05
0.5151623712 	0.007623834107 	-0.003437563002 	2.919122603e-09 	0.007581470508 	6.936747613e-10 	1.445238995e-05
0.5165201452 	0.007521926474 	-0.003387403046 	-1.424975425e-10 	0.007479149928 	2.357435678e-09 	1.425733848e-05
0.5178930705 	0.007418247228 	-0.003336130754 	-2.816506588e-09 	0.007375151877 	3.789978232e-09 	1.40590893e-05
0.5192813161 	0.007312836512 	-0.003283850375 	-5.093736514e-09 	0.007269515457 	5.015773982e-09 	1.385771692e-05
0.520685053 	0.007205731064 	-0.003230662481 	-6.983027104e-09 	0.007162274161 	6.061825795e-09 	1.36532852e-05
0.522104454 	0.007096964082 	-0.003176661102 	-8.506853265e-09 	0.007053456365 	6.956451688e-09 	1.344584824e-05
0.523539694 	0.006986565259 	-0.003121931798 	-9.697168652e-09 	0.006943085945 	7.728282504e-09 	1.323545154e-05
0.5249909497 	0.006874561019 	-0.003066550477 	-1.059176475e-08 	0.006831182982 	8.40545603e-09 	1.302213339e-05
0.5264583998 	0.006760974948 	-0.003010582755 	-1.123129028e-08 	0.006717764577 	9.01498907e-09 	1.280592639e-05
0.527942225 	0.006645828415 	-0.002954083736 	-1.165695881e-08 	0.006602845747 	9.582305555e-09 	1.258685916e-05
0.5294426081 	0.006529141347 	-0.002897098069 	-1.190889677e-08 	0.006486440407 	1.013089698e-08 	1.236495823e-05
0.5309597337 	0.006410933129 	-0.002839660206 	-1.202504246e-08 	0.006368562407 	1.068209141e-08 	1.214025e-05
0.5324937889 	0.006291223577 	-0.002781794803 	-1.204048976e-08 	0.00624922659 	1.12549083e-08 	1.191276276e-05
0.5340449624 	0.006170033928 	-0.002723517234 	-1.198716919e-08 	0.006128449825 	1.186597796e-08 	1.168252868e-05
0.5356134452 	0.006047387791 	-0.002664834228 	-1.189376773e-08 	0.006006251973 	1.252950761e-08 	1.144958561e-05
0.5371994306 	0.005923311984 	-0.002605744622 	-1.178580181e-08 	0.00588265672 	1.325727903e-08 	1.121397871e-05
0.5388031139 	0.005797837197 	-0.002546240272 	-1.168577266e-08 	0.005757692232 	1.405866676e-08 	1.097576166e-05
0.5404246925 	0.005670998439 	-0.002486307134 	-1.161334828e-08 	0.005631391573 	1.494067019e-08 	1.07349975e-05
0.5420643661 	0.00554283523 	-0.00242592653 	-1.158553008e-08 	0.005503792879 	1.590795659e-08 	1.049175893e-05
0.5437223366 	0.00541339153 	-0.002365076592 	-1.161677599e-08 	0.005374939259 	1.696291537e-08 	1.024612811e-05
0.5453988083 	0.005282715439 	-0.002303733871 	-1.171906511e-08 	0.005244878472 	1.810572609e-08 	9.998196106e-06
0.5470939875 	0.005150858722 	-0.002241875049 	-1.190190141e-08 	0.00511366242 	1.93344432e-08 	9.748061841e-06
0.5488080831 	0.005017876242 	-0.00217947871 	-1.217226624e-08 	0.004981346553 	2.064509958e-08 	9.495831024e-06
0.5505413061 	0.00488382542 	-0.002116527073 	-1.253453918e-08 	0.004847989285 	2.20318287e-08 	9.241615006e-06
0.5522938699 	0.004748765822 	-0.00205300762 	-1.299041453e-08 	0.004713651534 	2.348700225e-08 	8.985529916e-06
0.5540659904 	0.004612758992 	-0.00198891454 	-1.353884299e-08 	0.004578396492 	2.500137744e-08 	8.727696214e-06
0.5558578859 	0.004475868605 	-0.001924249936 	-1.417602658e-08 	0.004442289706 	2.656424534e-08 	8.46823885e-06
0.5576697768 	0.004338160997 	-0.001859024762 	-1.489548672e-08 	0.004305399522 	2.816357135e-08 	8.207288113e-06
0.5595018865 	0.004199706087 	-0.001793259481 	-1.568821387e-08 	0.004167797916 	2.97861183e-08 	7.944981208e-06
0.5613544406 	0.004060578679 	-0.001726984477 	-1.654289266e-08 	0.004029561699 	3.141754428e-08 	7.681464557e-06
0.563227667 	0.003920860113 	-0.001660240249 	-1.744618371e-08 	0.003890774061 	3.304246855e-08 	7.416896744e-06
0.5651217966 	0.0037806402 	-0.001593077455 	-1.83830387e-08 	0.003751526413 	3.464450147e-08 	7.151452027e-06
0.5670370626 	0.003640019417 	-0.001525556867 	-1.933703268e-08 	0.003611920485 	3.620623765e-08 	6.885324326e-06
0.5689737009 	0.003499111304 	-0.001457749293 	-2.029072009e-08 	0.003472070623 	3.770921504e-08 	6.61873162e-06
0.5709319499 	0.00335804504 	-0.00138973555 	-2.122605411e-08 	0.003332106294 	3.913384773e-08 	6.351920708e-06
0.5729120508 	0.003216968196 	-0.001321606551 	-2.212491963e-08 	0.003192174753 	4.045934486e-08 	6.085172297e-06
0.5749142474 	0.003076049686 	-0.001253463589 	-2.296977475e-08 	0.003052443875 	4.166364582e-08 	5.818806409e-06
0.5769387863 	0.002935482776 	-0.001185419097 	-2.374423126e-08 	0.002913105455 	4.27234011e-08 	5.553188653e-06
0.5789859169 	0.002795489452 	-0.001117596557 	-2.443315389e-08 	0.00277437644 	4.361409803e-08 	5.288732592e-06
0.5810558911 	0.002656319781 	-0.001050130355 	-2.502212321e-08 	0.002636510988 	4.43107221e-08 	5.025922723e-06
0.583148964 	0.002518260398 	-0.0009831648472 	-2.549633783e-08 	0.002499795145 	4.478711783e-08 	4.765304329e-06
0.5852653933 	0.002381647041 	-0.0009167930302 	-2.584240618e-08 	0.002364534996 	4.501759623e-08 	4.50746089e-06
0.5874054395 	0.002246969623 	-0.0008512753929 	-2.604978613e-08 	0.002231226751 	4.492318377e-08 	4.253338324e-06
0.5895693664 	0.002114896173 	-0.0007869524571 	-2.610058393e-08 	0.002100557518 	4.444870925e-08 	4.004246449e-06
0.5917574402 	0.001985976266 	-0.0007238813355 	-2.59691171e-08 	0.001973037036 	4.365635464e-08 	3.761156968e-06
0.5939699306 	0.001860603186 	-0.0006622080327 	-2.564124023e-08 	0.001849044145 	4.256762052e-08 	3.524792056e-06
0.5962071099 	0.00173926804 	-0.0006022586782 	-2.511835639e-08 	0.001729087579 	4.11308718e-08 	3.2961215e-06
0.5984692536 	0.0016226018 	-0.0005443083006 	-2.440612854e-08 	0.001613784461 	3.930127363e-08 	3.076321711e-06
0.6007566404 	0.001511328412 	-0.0004886308517 	-2.351067529e-08 	0.001503843246 	3.703961453e-08 	2.866743199e-06
0.6030695519 	0.001406248428 	-0.0004355009088 	-2.244092825e-08 	0.001400059231 	3.431775755e-08 	2.668902021e-06
0.6054082729 	0.001308221426 	-0.0003851885225 	-2.121161175e-08 	0.001303285543 	3.112203501e-08 	2.484424475e-06
0.6077730914 	0.001218131981 	-0.0003379469934 	-1.984584657e-08 	0.001214402339 	2.745882975e-08 	2.314988383e-06
0.6101642987 	0.001136841478 	-0.0002939934862 	-1.837689482e-08 	0.001134268878 	2.336163382e-08 	2.162231735e-06
0.6125821893 	0.00106512315 	-0.0002534852638 	-1.68485769e-08 	0.00106365923 	1.889789186e-08 	2.02763012e-06
0.6150270608 	0.001003583639 	-0.0002164952642 	-1.531342387e-08 	0.001003184096 	1.417304354e-08 	1.912347708e-06
0.6174992144 	0.0009525803991 	-0.0001829927446 	-1.382901234e-08 	0.000953208031 	9.327826015e-09 	1.817079438e-06
0.6199989545 	0.0009121483439 	-0.000152837939 	-1.244587941e-08 	0.0009137761451 	4.516970966e-09 	1.741911303e-06
0.622526589 	0.0008820058563 	-0.0001257971725 	-1.120493865e-08 	0.0008846194949 	-1.101761695e-10 	1.686330624e-06
0.625082429 	0.0008615707248 	-0.0001015615381 	-1.013595072e-08 	0.0008651687283 	-4.40626443e-09 	1.649252057e-06
0.6276667894 	0.0008499552726 	-7.977755238e-05 	-9.246070974e-09 	0.0008545480234 	-8.250691764e-09 	1.629006042e-06
0.6302799884 	0.0008460625563 	-6.009066883e-05 	-8.526677899e-09 	0.0008516714611 	-1.158194179e-08 	1.623522515e-06
0.6329223478 	0.0008487166932 	-4.217106444e-05 	-7.961547116e-09 	0.0008553724836 	-1.439051839e-08 	1.630577692e-06
0.6355941931 	0.0008567559681 	-2.572698298e-05 	-7.529321992e-09 	0.0008644962898 	-1.670383277e-08 	1.647970203e-06
0.6382958531 	0.0008691014376 	-1.051175384e-05 	-7.208455591e-09 	0.0008779684991 	-1.857385556e-08 	1.673651978e-06
0.6410276607 	0.0008847982888 	3.677187442e-06 	-6.979276228e-09 	0.0008948365493 	-2.006474499e-08 	1.70580717e-06
0.6437899523 	0.0009030329701 	1.700301518e-05 	-6.824912422e-09 	0.0009142871055 	-2.124307914e-08 	1.742885336e-06
0.646583068 	0.0009231323918 	2.959576385e-05 	-6.731422769e-09 	0.0009356457157 	-2.217135311e-08 	1.783600783e-06
0.6494073518 	0.0009445519727 	4.15586228e-05 	-6.687499729e-09 	0.0009583653107 	-2.29044818e-08 	1.826910646e-06
0.6522631514 	0.0009668582298 	5.297348771e-05 	-6.684005854e-09 	0.0009820091577 	-2.348852802e-08 	1.87198239e-06
0.6551508186 	0.0009897099688 	6.390551049e-05 	-6.713503296e-09 	0.001006232283 	-2.396085041e-08 	1.9181584e-06
0.658070709 	0.001012840519 	7.44067065e-05 	-6.769851187e-09 	0.001030763821 	-2.43509965e-08 	1.964922329e-06
0.6610231822 	0.001036042198 	8.451879164e-05 	-6.847890309e-09 	0.001055391502 	-2.468188022e-08 	2.011869534e-06
0.6640086017 	0.001059153373 	9.427542304e-05 	-6.943208586e-09 	0.00107994869 	-2.497097617e-08 	2.05868236e-06
0.6670273351 	0.001082048037 	0.0001037039828 	-7.05197172e-09 	0.001104303898 	-2.523140154e-08 	2.105110155e-06
0.6700797543 	0.001104627618 	0.0001128270093 	-7.170802212e-09 	0.001128352515 	-2.547284045e-08 	2.150953504e-06
0.6731662352 	0.001126814657 	0.0001216633553 	-7.296692752e-09 	0.001152010407 	-2.570230886e-08 	2.196052021e-06
0.6762871577 	0.001148548026 	0.0001302291307 	-7.426943493e-09 	0.001175209046 	-2.592477662e-08 	2.240275075e-06
0.6794429063 	0.001169779366 	0.000138538475 	-7.559116027e-09 	0.001197891884 	-2.614366838e-08 	2.283514868e-06
0.6826338695 	0.001190470472 	0.0001466041954 	-7.690999326e-09 	0.001220011693 	-2.636126357e-08 	2.325681371e-06
0.6858604404 	0.00121059141 	0.0001544382961 	-7.820584693e-09 	0.001241528664 	-2.657901187e-08 	2.366698699e-06
0.6891230163 	0.00123011915 	0.0001620524214 	-7.946047778e-09 	0.001262409082 	-2.679777651e-08 	2.406502578e-06
0.6924219988 	0.001249036585 	0.0001694582307 	-8.065736199e-09 	0.001282624412 	-2.701801515e-08 	2.445038617e-06
0.6957577944 	0.001267331787 	0.0001766677201 	-8.178161496e-09 	0.001302150692 	-2.723990614e-08 	2.482261133e-06
0.6991308138 	0.00128499742 	0.0001836935033 	-8.281994262e-09 	0.001320968126 	-2.746342776e-08 	2.518132393e-06
0.7025414724 	0.001302030246 	0.0001905490633 	-8.376061203e-09 	0.00133906082 	-2.768839847e-08 	2.552622096e-06
0.7059901901 	0.001318430687 	0.0001972489853 	-8.459342872e-09 	0.00135641662 	-2.791448667e-08 	2.585707074e-06
0.7094773917 	0.00133420244 	0.0002038091826 	-8.530970891e-09 	0.001373027029 	-2.81411992e-08 	2.61737113e-06
0.7130035066 	0.001349352168 	0.0002102471269 	-8.590223825e-09 	0.001388887211 	-2.836785768e-08 	2.647605046e-06
0.7165689691 	0.001363889282 	0.0002165820945 	-8.63652101e-09 	0.001403996083 	-2.859357133e-08 	2.676406755e-06
0.7201742182 	0.00137782585 	0.0002228354464 	-8.669414542e-09 	0.001418356528 	-2.881721466e-08 	2.703781754e-06
0.7238196978 	0.001391176721 	0.000229030974 	-8.688579247e-09 	0.001431975666 	-2.903740813e-08 	2.729743617e-06
0.727505857 	0.001403959837 	0.0002351952223 	-8.693801714e-09 	0.001444865273 	-2.925249815e-08 	2.75431479e-06
0.7312331497 	0.001416196661 	0.0002413592583 	-8.685100589e-09 	0.001457042583 	-2.946056687e-08 	2.777528126e-06
0.7350020349 	0.00142789212 	0.0002475403258 	-8.662854563e-09 	0.00146850993 	-2.965969988e-08 	2.799388077e-06
0.7387709215 	0.001439015664 	0.0002537192024 	-8.627600616e-09 	0.001479237767 	-2.984810518e-08 	2.819838316e-06
0.7424982157 	0.001449554937 	0.0002598816934 	-8.580097608e-09 	0.001489221642 	-3.002380166e-08 	2.838870357e-06
0.7461843763 	0.001459553668 	0.0002660543804 	-8.521540073e-09 	0.001498517701 	-3.018440666e-08 	2.856591229e-06
0.7498298574 	0.001469078455 	0.0002722788642 	-8.453223331e-09 	0.001507206123 	-3.032734211e-08 	2.873153777e-06
0.7534351078 	0.001478199149 	0.0002785957584 	-8.376358667e-09 	0.001515371076 	-3.04500613e-08 	2.888718447e-06
0.7570005716 	0.001486989892 	0.0002850460444 	-8.292194524e-09 	0.001523101582 	-3.055006333e-08 	2.90345494e-06
0.7605266877 	0.00149553021 	0.0002916711431 	-8.202021668e-09 	0.001530492127 	-3.062489019e-08 	2.917543373e-06
0.7640138905 	0.001503906006 	0.0002985130533 	-8.107190885e-09 	0.001537643335 	-3.067213774e-08 	2.931175563e-06
0.7674626093 	0.001512210458 	0.0003056144547 	-8.009131924e-09 	0.001544662627 	-3.068949235e-08 	2.944556284e-06
0.770873269 	0.001520544802 	0.0003130187719 	-7.90937188e-09 	0.001551664811 	-3.067478575e-08 	2.957904394e-06
0.7742462894 	0.001529018989 	0.0003207701827 	-7.809549856e-09 	0.001558772592 	-3.062607317e-08 	2.971453799e-06
0.777582086 	0.001537752143 	0.0003289135549 	-7.711424145e-09 	0.001566116941 	-3.054173499e-08 	2.985454169e-06
0.7808810695 	0.001546872804 	0.0003374942959 	-7.616868637e-09 	0.001573837282 	-3.042060131e-08 	3.000171285e-06
0.7841436462 	0.001556518892 	0.0003465581051 	-7.527856109e-09 	0.00158208143 	-3.026209505e-08 	3.015886922e-06
0.787370218 	0.001566837332 	0.000356150626 	-7.446427445e-09 	0.001591005202 	-3.00663858e-08 	3.032898111e-06
0.7905611821 	0.001577983284 	0.0003663170026 	-7.37464746e-09 	0.001600771642 	-2.983454095e-08 	3.051515661e-06
0.7937169314 	0.001590118938 	0.0003771013596 	-7.314548695e-09 	0.001611549802 	-2.956865593e-08 	3.07206183e-06
0.7968378547 	0.001603411819 	0.0003885462389 	-7.268063263e-09 	0.001623513031 	-2.927193986e-08 	3.09486707e-06
0.7999243362 	0.001618032618 	0.0004006920324 	-7.236938699e-09 	0.001636836772 	-2.894873131e-08 	3.120265823e-06
0.8029767561 	0.001634152551 	0.0004135764553 	-7.222628179e-09 	0.001651695887 	-2.860441985e-08 	3.148591427e-06
0.8059954902 	0.00165194034 	0.0004272340908 	-7.226142223e-09 	0.001668261613 	-2.824525636e-08 	3.180170303e-06
0.8089809102 	0.001671558938 	0.0004416960237 	-7.247853175e-09 	0.001686698263 	-2.787804718e-08 	3.215315682e-06
0.8119333839 	0.00169316217 	0.0004569895648 	-7.287257553e-09 	0.001707159892 	-2.750974318e-08 	3.254321234e-06
0.8148532749 	0.001716891504 	0.0004731380764 	-7.34272079e-09 	0.001729787131 	-2.714695132e-08 	3.297455042e-06
0.8177409426 	0.001742873186 	0.0004901609252 	-7.411243385e-09 	0.001754704428 	-2.679540875e-08 	3.344954335e-06
0.8205967427 	0.001771215921 	0.0005080736044 	-7.488287419e-09 	0.001782017877 	-2.645946308e-08 	3.39702136e-06
0.8234210268 	0.001802009284 	0.0005268880621 	-7.567686026e-09 	0.001811813778 	-2.614159527e-08 	3.453820629e-06
0.8262141429 	0.001835322934 	0.0005466132394 	-7.641631778e-09 	0.001844157985 	-2.584200652e-08 	3.515477678e-06
0.8289764348 	0.001871206668 	0.0005672557971 	-7.700716782e-09 	0.001879096044 	-2.555827733e-08 	3.582079328e-06
0.8317082427 	0.001909691285 	0.0005888210032 	-7.733998579e-09 	0.001916654096 	-2.528510748e-08 	3.653675414e-06
0.8344099031 	0.001950790178 	0.0006113137599 	-7.729102843e-09 	0.001956840487 	-2.501416405e-08 	3.730281845e-06
0.8370817486 	0.00199450151 	0.0006347397362 	-7.672419864e-09 	0.001999647979 	-2.473408462e-08 	3.811884822e-06
0.8397241082 	0.002040810796 	0.0006591065209 	-7.549459626e-09 	0.002045056407 	-2.443068417e-08 	3.898445907e-06
0.8423373074 	0.002089693691 	0.000684424668 	-7.345387458e-09 	0.002093035586 	-2.408738928e-08 	3.989907556e-06
0.844921668 	0.002141118745 	0.0007107084876 	-7.04570181e-09 	0.002143548223 	-2.368588575e-08 	4.086198682e-06
0.8474775082 	0.002195049953 	0.0007379764638 	-6.636977318e-09 	0.002196552635 	-2.320693487e-08 	4.187239823e-06
0.8500051427 	0.002251448895 	0.0007662512369 	-6.107592762e-09 	0.002252005062 	-2.263129769e-08 	4.292947561e-06
0.8525048829 	0.002310276372 	0.0007955591387 	-5.448383038e-09 	0.002309861461 	-2.194070334e-08 	4.403237937e-06
0.8549770366 	0.002371493454 	0.0008259293174 	-4.653179034e-09 	0.002370078694 	-2.111880276e-08 	4.51802872e-06
0.8574219081 	0.00243506192 	0.0008573925175 	-3.719218306e-09 	0.0024326151 	-2.015205552e-08 	4.63724049e-06
0.8598397987 	0.002500944134 	0.0008899795985 	-2.647420426e-09 	0.002497430457 	-1.903050533e-08 	4.760796576e-06
0.862231006 	0.002569102406 	0.0009237198832 	-1.442526079e-09 	0.00256448543 	-1.774840708e-08 	4.888621992e-06
0.8645958245 	0.002639497949 	0.0009586394319 	-1.131014979e-10 	0.002633740572 	-1.630467596e-08 	5.020641541e-06
0.8669345455 	0.002712089551 	0.0009947593302 	1.32858803e-09 	0.002705155018 	-1.470313819e-08 	5.156777324e-06
0.8692474569 	0.002786832078 	0.001032094077 	2.866829144e-09 	0.002778684991 	-1.295257219e-08 	5.296945888e-06
0.8715348435 	0.002863674951 	0.001070650142 	4.48282596e-09 	0.002854282243 	-1.106654032e-08 	5.441055263e-06
0.8737969871 	0.002942560704 	0.001110424751 	6.155166273e-09 	0.00293189257 	-9.063022001e-09 	5.589002116e-06
0.8760341663 	0.003023423735 	0.001151404947 	7.860370381e-09 	0.003011454485 	-6.963870054e-09 	5.74066924e-06
0.8782466565 	0.003106189341 	0.001193566947 	9.573500766e-09 	0.003092898163 	-4.794121617e-09 	5.895923525e-06
0.8804347301 	0.003190773077 	0.001236875809 	1.126880806e-08 	0.003176144692 	-2.581202511e-09 	6.054614547e-06
0.8825986568 	0.003277080486 	0.001281285403 	1.292038743e-08 	0.003261105695 	-3.540684017e-10 	6.216573832e-06
0.8847387028 	0.003365007214 	0.001326738666 	1.450281984e-08 	0.003347683313 	1.857672485e-09 	6.381614836e-06
0.8868551318 	0.003454439473 	0.001373168111 	1.599177515e-08 	0.003435770549 	4.024612412e-09 	6.54953359e-06
0.8889482045 	0.003545254825 	0.001420496556 	1.736455797e-08 	0.00352525193 	6.118335338e-09 	6.720109972e-06
0.8910181784 	0.003637323246 	0.00146863802 	1.860058289e-08 	0.003616004446 	8.112116125e-09 	6.893109491e-06
0.8930653087 	0.003730508381 	0.001517498753 	1.968177205e-08 	0.003707898699 	9.981506538e-09 	7.068285478e-06
0.8950898473 	0.003824668942 	0.001566978352 	2.059287438e-08 	0.003800800196 	1.170479635e-08 	7.245381552e-06
0.8970920436 	0.00391966017 	0.001616970935 	2.132171167e-08 	0.003894570719 	1.326334706e-08 	7.42413423e-06
0.8990721441 	0.004015335302 	0.001667366339 	2.18593612e-08 	0.003989069702 	1.464180383e-08 	7.604275557e-06
0.9010303927 	0.00411154697 	0.001718051337 	2.220028671e-08 	0.004084155562 	1.58281977e-08 	7.785535633e-06
0.9029670306 	0.004208148497 	0.001768910862 	2.234243022e-08 	0.00417968692 	1.681395501e-08 	7.967644953e-06
0.9048822962 	0.00430499505 	0.00181982924 	2.228727451e-08 	0.00427552369 	1.759383336e-08 	8.150336474e-06
0.9067764254 	0.004401944605 	0.001870691451 	2.203988217e-08 	0.00437152799 	1.816580492e-08 	8.333347353e-06
0.9086496514 	0.004498858737 	0.001921384429 	2.160891085e-08 	0.004467564864 	1.853090678e-08 	8.516420327e-06
0.910502205 	0.004595603212 	0.001971798405 	2.100659801e-08 	0.004563502825 	1.869307661e-08 	8.699304744e-06
0.9123343142 	0.004692048401 	0.002021828307 	2.02487021e-08 	0.004659214212 	1.865898814e-08 	8.881757249e-06
0.9141462048 	0.004788069546 	0.002071375196 	1.935438301e-08 	0.004754575406 	1.843789751e-08 	9.063542189e-06
0.9159380997 	0.004883546907 	0.002120347716 	1.834600342e-08 	0.004849466933 	1.804150618e-08 	9.244431814e-06
0.9177102197 	0.004978365838 	0.002168663497 	1.724883577e-08 	0.00494377351 	1.748384089e-08 	9.42420636e-06
0.9194627831 	0.005072416854 	0.00221625046 	1.609066635e-08 	0.005037384086 	1.678114556e-08 	9.602654136e-06
0.9211960055 	0.005165595726 	0.002263047922 	1.490129836e-08 	0.005130191945 	1.595177501e-08 	9.77957171e-06
0.9229101006 	0.005257803671 	0.002309007434 	1.371196782e-08 	0.00522209491 	1.501607644e-08 	9.954764304e-06