/*--------------------------------*- C++ -*----------------------------------*\
  =========                 |
  \\      /  F ield         | OpenFOAM: The Open Source CFD Toolbox
   \\    /   O peration     | Website:  https://openfoam.org
    \\  /    A nd           | Version:  7
     \\/     M anipulation  |
\*---------------------------------------------------------------------------*/
FoamFile
{
    version     2.0;
    format      ascii;
    class       volVectorField;
    location    "2000";
    object      U;
}
// * * * * * * * * * * * * * * * * * * * * * * * * * * * * * * * * * * * * * //

dimensions      [0 1 -1 0 0 0 0];

internalField   nonuniform List<vector> 
15296
(
(1.2142699 6.7221051e-06 5.0272909e-17)
(1.2140559 9.1676137e-07 6.1796228e-18)
(1.2139441 5.3287229e-07 -3.9966555e-17)
(1.2138665 2.1737746e-07 -1.1289429e-17)
(1.213872 -1.0585204e-07 1.2674003e-17)
(1.213916 -2.0991618e-07 7.3645925e-17)
(1.2139625 -1.8656457e-07 2.6386989e-17)
(1.2140001 -1.1641032e-07 -2.2366872e-17)
(1.2140222 -1.7568165e-08 -9.4358192e-17)
(1.2140241 9.66547e-08 1.36523e-17)
(1.214004 2.1169863e-07 -2.0502182e-17)
(1.2139625 3.192975e-07 -5.6584918e-19)
(1.2139012 4.1666231e-07 -1.0355959e-16)
(1.2138219 5.0375244e-07 8.6828044e-17)
(1.2137262 5.82239e-07 -7.0624237e-17)
(1.2136154 6.5523183e-07 5.519048e-17)
(1.2134898 7.2706025e-07 -3.9736685e-17)
(1.213349 8.0326433e-07 -2.9675657e-17)
(1.2131911 8.909497e-07 2.5060525e-17)
(1.2130126 9.9947664e-07 -6.1646622e-17)
(1.2128075 1.1415488e-06 -3.1034514e-17)
(1.2125666 1.3348206e-06 3.0261001e-17)
(1.2122759 1.6044246e-06 5.5390481e-17)
(1.2119148 1.986543e-06 -6.3883004e-17)
(1.2114526 2.5345492e-06 -5.6124304e-17)
(1.2108437 3.3271501e-06 -1.1788339e-16)
(1.2100202 4.4854375e-06 -3.8090978e-17)
(1.2088793 6.192433e-06 7.6555864e-17)
(1.2072659 8.7493016e-06 2.3039267e-17)
(1.2049339 1.2632686e-05 2.5879023e-17)
(1.2015008 1.8687682e-05 -1.210203e-16)
(1.1963252 2.8750206e-05 4.7519802e-17)
(1.1882211 4.2447052e-05 -4.0979211e-16)
(1.1769575 8.3845856e-05 -1.47114e-15)
(1.1566726 0.00013814342 -3.6165814e-17)
(1.1225468 0.00029619601 3.5866652e-16)
(1.0307496 0.00028299227 8.8257988e-16)
(0.92649504 0.0015350464 -5.6853987e-15)
(1.2142591 1.9103671e-05 -3.5409189e-17)
(1.2140515 2.6530032e-06 -1.6827742e-16)
(1.2139401 1.5147986e-06 -1.1984105e-16)
(1.2138628 5.8214946e-07 -1.9662195e-16)
(1.2138683 -3.7954472e-07 9.502797e-17)
(1.2139125 -6.9868215e-07 8.1244338e-17)
(1.2139591 -6.4274802e-07 2.304414e-17)
(1.2139968 -4.4864979e-07 -6.6952523e-17)
(1.2140191 -1.6906228e-07 -2.8213447e-16)
(1.2140211 1.571947e-07 -2.4114156e-16)
(1.2140012 4.871046e-07 -6.9220547e-17)
(1.2139599 7.9609745e-07 -3.4857872e-17)
(1.2138988 1.0757886e-06 4.8830165e-17)
(1.2138196 1.3259176e-06 1.5471523e-16)
(1.2137241 1.551311e-06 -2.163174e-16)
(1.2136134 1.7611165e-06 4.777396e-18)
(1.2134881 1.9681785e-06 -1.1940682e-16)
(1.2133475 2.1890294e-06 -2.4293398e-16)
(1.2131898 2.4449718e-06 -1.0599755e-16)
(1.2130116 2.7641734e-06 -1.6070566e-16)
(1.2128069 3.1849704e-06 -8.5388221e-17)
(1.2125664 3.7607547e-06 1.1833402e-16)
(1.2122765 4.5676416e-06 9.4087279e-18)
(1.2119164 5.715348e-06 -2.8597773e-17)
(1.2114556 7.3657511e-06 -1.3745208e-16)
(1.2108486 9.7576942e-06 -2.0241066e-16)
(1.2100282 1.3257932e-05 1.0525062e-16)
(1.2088919 1.8420327e-05 2.6188144e-16)
(1.2072855 2.6149616e-05 8.2610721e-17)
(1.204964 3.7867055e-05 1.0355146e-16)
(1.2015468 5.6023758e-05 -4.6472244e-17)
(1.1963931 8.5606359e-05 1.546684e-16)
(1.1883015 0.00012299484 -9.9816514e-18)
(1.1769347 0.00020190827 -7.3964296e-16)
(1.1566385 0.00034057609 -7.9350072e-17)
(1.1224657 0.00076896205 9.2324133e-16)
(1.0318705 0.001160819 -1.7042525e-16)
(0.91947813 -2.330909e-05 -5.3574879e-15)
(1.2142367 2.8254921e-05 -9.97103e-17)
(1.2140414 4.0884398e-06 -1.7105374e-16)
(1.2139314 2.3496665e-06 -2.5492772e-16)
(1.2138545 8.9602809e-07 -3.0342901e-16)
(1.2138604 -6.0614705e-07 1.8971982e-16)
(1.2139049 -1.1081208e-06 2.5847408e-17)
(1.2139517 -1.0247031e-06 -1.2951287e-16)
(1.2139896 -7.2497192e-07 -1.1689831e-16)
(1.2140122 -2.9139766e-07 -3.2145585e-16)
(1.2140145 2.1548304e-07 -2.7949287e-16)
(1.2139948 7.2852947e-07 4.7829465e-17)
(1.2139537 1.2092732e-06 -1.9297383e-16)
(1.2138928 1.6445138e-06 -2.7273089e-17)
(1.213814 2.0337621e-06 9.820778e-17)
(1.2137187 2.3844876e-06 -1.2443878e-16)
(1.2136083 2.7109248e-06 -1.0663096e-16)
(1.2134831 3.0331003e-06 -3.3355459e-16)
(1.2133428 3.3768155e-06 -4.4909216e-16)
(1.2131855 3.7753348e-06 -1.5330075e-16)
(1.2130076 4.272654e-06 -3.8088747e-16)
(1.2128033 4.9286601e-06 -1.5424727e-16)
(1.2125634 5.8267652e-06 2.3896412e-16)
(1.2122742 7.0858862e-06 -1.5606421e-17)
(1.211915 8.877443e-06 -8.5671514e-18)
(1.2114557 1.1454369e-05 -8.8960829e-17)
(1.2108508 1.5189904e-05 -1.4475369e-16)
(1.2100335 2.0657337e-05 -5.615053e-18)
(1.2089019 2.8722947e-05 3.0344535e-16)
(1.2073027 4.0803443e-05 1.2975444e-16)
(1.2049925 5.9132389e-05 8.6656836e-17)
(1.2015934 8.758889e-05 -1.5948584e-16)
(1.1964685 0.00013435794 5.4467316e-17)
(1.1884147 0.00019594315 -4.0266646e-17)
(1.1768845 0.0003135258 -3.4216228e-16)
(1.1565529 0.00053177931 -3.6410869e-16)
(1.1222353 0.0012054864 5.0802669e-16)
(1.0346509 0.002045782 9.173568e-16)
(0.91105699 -0.001503739 -3.0161728e-15)
(1.2142048 3.7468758e-05 -1.5141463e-16)
(1.2140257 5.5533379e-06 -3.3137399e-16)
(1.2139181 3.2532921e-06 -2.0735074e-16)
(1.213842 1.2389843e-06 -2.3195704e-16)
(1.2138485 -8.5237944e-07 1.7686891e-16)
(1.2138933 -1.5520748e-06 3.2778602e-18)
(1.2139406 -1.4360301e-06 -1.654396e-16)
(1.2139789 -1.0182917e-06 -1.6485052e-16)
(1.2140018 -4.1403767e-07 -3.1984729e-16)
(1.2140044 2.9246837e-07 -2.4789448e-16)
(1.213985 1.0077159e-06 5.6684268e-17)
(1.2139443 1.6780281e-06 -9.5416847e-17)
(1.2138837 2.2849366e-06 3.0461488e-17)
(1.2138051 2.8277093e-06 1.8882251e-16)
(1.2137102 3.3167078e-06 -1.3430481e-16)
(1.2136 3.7717181e-06 -1.9149001e-16)
(1.2134752 4.2205912e-06 -4.0317686e-16)
(1.2133352 4.6992102e-06 -5.5553019e-16)
(1.2131782 5.2538257e-06 -2.0014467e-16)
(1.2130008 5.9455893e-06 -3.9024724e-16)
(1.2127969 6.8577135e-06 -1.1994332e-16)
(1.2125576 8.1060607e-06 2.1467086e-16)
(1.2122692 9.8557644e-06 -1.5671102e-16)
(1.2119112 1.2344786e-05 4.9135653e-17)
(1.2114533 1.5924152e-05 -1.317551e-16)
(1.2108506 2.1111607e-05 -1.2146991e-16)
(1.2100365 2.8702202e-05 4.8637877e-17)
(1.2089097 3.9896308e-05 2.9225089e-16)
(1.2073179 5.6656396e-05 1.7576812e-16)
(1.2050191 8.2072761e-05 1.6610629e-16)
(1.2016384 0.00012150772 -1.1756455e-16)
(1.196543 0.00018635455 2.9701282e-17)
(1.1885453 0.00027391942 8.3103736e-17)
(1.1768422 0.0004396795 -2.4438751e-16)
(1.15647 0.0007432978 -5.0332315e-16)
(1.1219854 0.0016539206 -6.5813811e-16)
(1.0379763 0.0028466943 1.3501931e-15)
(0.90531947 -0.00085601432 -1.9159693e-15)
(1.2141643 4.5741843e-05 -2.0898546e-16)
(1.2140044 6.8507459e-06 -3.6160012e-16)
(1.2139001 4.1204886e-06 -1.9613484e-16)
(1.2138253 1.5658269e-06 -3.0185548e-16)
(1.2138325 -1.1085358e-06 1.9737562e-16)
(1.213878 -2.0034121e-06 -2.4250016e-17)
(1.2139257 -1.8536464e-06 -2.235021e-16)
(1.2139645 -1.3175248e-06 -2.7910536e-16)
(1.2139878 -5.4272054e-07 -3.2332059e-16)
(1.2139908 3.6306583e-07 -2.646824e-16)
(1.2139719 1.2801523e-06 -4.6200821e-19)
(1.2139315 2.1397144e-06 -3.1228918e-17)
(1.2138713 2.918021e-06 1.3996829e-16)
(1.2137931 3.6140812e-06 1.8018697e-16)
(1.2136985 4.2411125e-06 -1.710863e-16)
(1.2135888 4.8243951e-06 -1.867482e-16)
(1.2134643 5.3995287e-06 -4.2937162e-16)
(1.2133247 6.0123765e-06 -7.5774277e-16)
(1.2131682 6.7220343e-06 -2.7520502e-16)
(1.2129911 7.606609e-06 -4.0162782e-16)
(1.2127878 8.7723471e-06 -3.6850651e-17)
(1.2125492 1.0367131e-05 2.6039365e-16)
(1.2122616 1.2601668e-05 -1.8791589e-16)
(1.2119047 1.5779488e-05 -4.6045538e-17)
(1.2114484 2.0348236e-05 -4.780735e-17)
(1.2108479 2.6967848e-05 -8.1548738e-17)
(1.2100371 3.6651558e-05 1.3004587e-18)
(1.2089151 5.0927928e-05 2.7674035e-16)
(1.2073307 7.2295801e-05 2.0615155e-16)
(1.2050435 0.00010468582 1.9960708e-16)
(1.2016812 0.00015491839 -1.2438086e-16)
(1.1966154 0.00023747099 -6.0476123e-17)
(1.1886854 0.00035181796 9.4985669e-17)
(1.1768174 0.00056729014 6.810699e-17)
(1.1564025 0.00095713799 -4.7018768e-16)
(1.121756 0.0020834388 -1.1478527e-15)
(1.0413201 0.0037309408 8.8490097e-16)
(0.90103904 -0.00062833411 -1.4142356e-15)
(1.2141022 5.5350585e-05 -2.848393e-16)
(1.2139696 8.38854e-06 -3.5683551e-16)
(1.2138711 5.1951523e-06 -1.7390522e-16)
(1.2137982 1.9745854e-06 -4.5486175e-16)
(1.2138066 -1.4456149e-06 1.1109569e-16)
(1.2138532 -2.5911218e-06 -4.4897685e-17)
(1.2139018 -2.3966192e-06 -2.5673896e-16)
(1.2139413 -1.7059617e-06 -4.5273597e-16)
(1.2139653 -7.0941962e-07 -3.4880828e-16)
(1.2139689 4.5508106e-07 -3.8759096e-16)
(1.2139506 1.6341638e-06 -8.5508897e-17)
(1.2139108 2.7393987e-06 -6.1213451e-18)
(1.2138512 3.7402059e-06 2.4857116e-16)
(1.2137736 4.6352362e-06 1.3139863e-16)
(1.2136796 5.4413772e-06 -1.1941085e-16)
(1.2135704 6.190981e-06 -1.4431947e-16)
(1.2134465 6.9296226e-06 -3.1959306e-16)
(1.2133074 7.7160058e-06 -7.9929329e-16)
(1.2131515 8.6257385e-06 -2.3246577e-16)
(1.2129751 9.7587e-06 -3.9901439e-16)
(1.2127725 1.1250687e-05 -4.7893131e-17)
(1.2125348 1.3290625e-05 3.0348345e-16)
(1.2122484 1.6147595e-05 -9.3469501e-17)
(1.211893 2.0209042e-05 -1.145888e-16)
(1.2114387 2.6046189e-05 -6.4674138e-17)
(1.2108412 3.4500664e-05 -1.108055e-16)
(1.2100346 4.6864318e-05 -1.0246563e-16)
(1.208919 6.5084174e-05 2.5513691e-16)
(1.2073442 9.2342437e-05 2.8457081e-16)
(1.2050719 0.00013363754 1.8810008e-16)
(1.2017335 0.00019764224 -1.4292378e-16)
(1.1967056 0.00030255418 -7.1373324e-18)
(1.1888704 0.00045255565 1.2752954e-16)
(1.1768155 0.00072957648 7.933912e-17)
(1.1563449 0.0012293359 -5.9814016e-16)
(1.1215112 0.0026003511 -7.717411e-16)
(1.0455004 0.0048753557 1.2177237e-16)
(0.89685491 -0.00044341186 -3.5755093e-15)
(1.2140064 6.5666738e-05 -4.049309e-16)
(1.213911 1.0029781e-05 -3.5135271e-16)
(1.2138225 6.446155e-06 -1.7988085e-16)
(1.2137529 2.4549078e-06 -3.1239525e-16)
(1.2137636 -1.8945789e-06 2.5129137e-16)
(1.2138118 -3.3548319e-06 2.1083754e-17)
(1.2138619 -3.1016284e-06 -3.228207e-16)
(1.2139026 -2.2121859e-06 -4.8758062e-16)
(1.2139277 -9.3188035e-07 -2.4479421e-16)
(1.2139324 5.6308715e-07 -3.3459717e-16)
(1.2139151 2.0767851e-06 -1.6197206e-16)
(1.2138762 3.4958213e-06 3.7445766e-17)
(1.2138176 4.780821e-06 3.9630202e-16)
(1.2137408 5.9299316e-06 1.1525941e-16)
(1.2136476 6.9646691e-06 -1.2470455e-16)
(1.2135393 7.9263326e-06 -1.2659e-16)
(1.2134162 8.8731259e-06 -3.3842306e-16)
(1.2132781 9.8800048e-06 -7.8016313e-16)
(1.213123 1.1043456e-05 -3.8417855e-16)
(1.2129476 1.2490858e-05 -3.7262221e-16)
(1.2127461 1.4395289e-05 3.7160096e-17)
(1.2125097 1.6997397e-05 2.1970137e-16)
(1.2122248 2.0639763e-05 -7.1084982e-17)
(1.2118715 2.5815384e-05 -6.8705824e-17)
(1.21142 3.3250784e-05 -2.8995852e-16)
(1.2108263 4.4015647e-05 -9.5287923e-17)
(1.2100253 5.9751197e-05 -1.9836848e-16)
(1.2089178 8.2928183e-05 2.7280603e-16)
(1.2073554 0.00011758289 1.5585373e-16)
(1.2051021 0.00017004403 1.104923e-16)
(1.2017942 0.00025129983 -1.1198866e-16)
(1.1968141 0.00038376838 -1.006253e-16)
(1.1891014 0.00058107032 3.3076882e-16)
(1.1768804 0.00093594968 -1.1362736e-17)
(1.1563398 0.001562821 -3.9114598e-16)
(1.1213137 0.0032104112 -3.364092e-16)
(1.0503778 0.0063473568 -4.2377014e-17)
(0.89400753 0.0005977804 -1.9409583e-15)
(1.2138799 7.5283499e-05 -5.3860407e-16)
(1.2138271 1.1311634e-05 -3.0464939e-16)
(1.2137527 7.6507105e-06 -3.1890549e-16)
(1.2136883 2.916533e-06 -3.9255877e-16)
(1.2137021 -2.4477515e-06 1.6873486e-16)
(1.2137528 -4.2513702e-06 1.7509807e-16)
(1.2138049 -3.9252907e-06 -4.1009462e-16)
(1.2138473 -2.8066695e-06 -5.5276799e-16)
(1.213874 -1.202895e-06 -1.8433456e-16)
(1.2138802 6.6734143e-07 -4.049938e-16)
(1.2138642 2.5606141e-06 -2.3384045e-16)
(1.2138266 4.335484e-06 -8.2634742e-17)
(1.2137692 5.9426586e-06 4.5542351e-16)
(1.2136936 7.3797114e-06 1.4565536e-16)
(1.2136016 8.6733459e-06 -1.3031237e-16)
(1.2134944 9.8748889e-06 -1.1011648e-16)
(1.2133725 1.1056693e-05 -1.7617608e-16)
(1.2132355 1.2311905e-05 -7.023667e-16)
(1.2130816 1.3760347e-05 -4.8399503e-16)
(1.2129075 1.5560084e-05 -3.1186024e-16)
(1.2127074 1.7925738e-05 -1.5273729e-16)
(1.2124726 2.1155522e-05 1.9398478e-16)
(1.2121897 2.5673717e-05 -6.782771e-17)
(1.2118388 3.2090518e-05 -7.5690724e-17)
(1.2113905 4.1304714e-05 -2.2521981e-16)
(1.2108013 5.4638557e-05 -1.5495689e-16)
(1.2100067 7.4119869e-05 -1.2994302e-16)
(1.2089085 0.0001027974 1.9920948e-16)
(1.2073601 0.0001456493 5.3550794e-17)
(1.2051283 0.0002104635 4.4124102e-17)
(1.2018547 0.00031078875 -1.0521353e-16)
(1.1969284 0.00047318599 -1.1219135e-16)
(1.1893439 0.00072488342 3.6512183e-16)
(1.1770598 0.001172272 -4.1264506e-17)
(1.1564945 0.0019382097 -5.9438491e-16)
(1.1212694 0.0038239633 -9.7683602e-17)
(1.0551829 0.0080123742 -2.0420133e-16)
(0.89323234 0.0018734296 -9.4355164e-16)
(1.213717 8.3879463e-05 -3.5499934e-16)
(1.2137107 1.2035816e-05 -2.1317257e-16)
(1.2136551 8.691349e-06 -4.8991563e-16)
(1.213598 3.3063818e-06 -4.4240144e-16)
(1.2136163 -3.1496513e-06 2.131437e-17)
(1.2136704 -5.3232155e-06 1.9540887e-16)
(1.2137253 -4.9050259e-06 -4.2069895e-16)
(1.2137701 -3.520688e-06 -6.376159e-16)
(1.213799 -1.5470938e-06 -1.347134e-16)
(1.2138071 7.5021898e-07 -4.1771699e-16)
(1.2137929 3.0749169e-06 -4.418015e-17)
(1.2137572 5.2540487e-06 -1.2090159e-16)
(1.2137014 7.227146e-06 3.1671114e-16)
(1.2136275 8.9911401e-06 1.31961e-16)
(1.213537 1.0578562e-05 -1.622167e-16)
(1.2134314 1.2051991e-05 -9.9589632e-17)
(1.213311 1.3499655e-05 -3.4411054e-17)
(1.2131755 1.503508e-05 -5.766912e-16)
(1.2130231 1.6804196e-05 -4.3953323e-16)
(1.2128507 1.8999335e-05 -3.2453019e-16)
(1.2126524 2.1881438e-05 -3.3034826e-16)
(1.2124196 2.5812791e-05 2.9369802e-17)
(1.212139 3.1308503e-05 -3.4389053e-17)
(1.2117911 3.910885e-05 4.7104212e-17)
(1.2113467 5.0303611e-05 -2.9238247e-16)
(1.2107627 6.6494525e-05 -2.6325207e-16)
(1.2099753 9.0136743e-05 -1.3815623e-16)
(1.2088877 0.00012491595 2.186218e-16)
(1.2073551 0.00017684719 6.1910526e-17)
(1.2051475 0.0002553146 8.1187657e-18)
(1.2019124 0.00037669338 -1.8299104e-17)
(1.1970467 0.00057169523 -9.882316e-18)
(1.1895854 0.00088370204 4.2807986e-16)
(1.177411 0.0014388 -7.7287897e-17)
(1.1570689 0.0023985764 -7.1198732e-16)
(1.1215946 0.0044710005 -5.4486097e-16)
(1.0597481 0.0098568145 2.0291052e-16)
(0.89520573 0.003484969 -8.9025929e-17)
(1.2135119 9.1384524e-05 -2.7307086e-16)
(1.2135528 1.1967818e-05 -2.070545e-16)
(1.213521 9.3979851e-06 -5.1105202e-16)
(1.2134739 3.5511093e-06 -4.7070797e-16)
(1.2134984 -4.0433551e-06 -2.7520767e-17)
(1.2135572 -6.5998277e-06 1.5911905e-16)
(1.2136159 -6.0574783e-06 -3.617827e-16)
(1.213664 -4.3583396e-06 -7.4253626e-16)
(1.2136957 -1.9566949e-06 -1.9663251e-16)
(1.2137064 8.3075765e-07 -4.9610985e-16)
(1.2136948 3.6491841e-06 8.1960106e-18)
(1.2136613 6.2904461e-06 -1.966202e-16)
(1.2136078 8.6815882e-06 2.681756e-16)
(1.213536 1.0818894e-05 2.2507481e-17)
(1.2134476 1.2741485e-05 -1.2105282e-16)
(1.2133439 1.4524596e-05 -1.8453159e-16)
(1.2132256 1.6274277e-05 -3.3218841e-17)
(1.213092 1.8126922e-05 -5.6000488e-16)
(1.2129417 2.0257698e-05 -3.9907359e-16)
(1.2127713 2.2897279e-05 -2.4525169e-16)
(1.2125753 2.6358364e-05 -4.1623557e-16)
(1.212345 3.1074776e-05 -1.8528027e-16)
(1.2120674 3.766295e-05 2.9069195e-17)
(1.211723 4.7008166e-05 1.0621381e-16)
(1.2112832 6.0412967e-05 -2.3035953e-16)
(1.2107053 7.9790049e-05 -2.0023045e-16)
(1.2099263 0.00010806974 -1.3171291e-16)
(1.2088509 0.00014964417 3.7516016e-16)
(1.2073362 0.00021167783 4.9420692e-17)
(1.2051559 0.00030531334 -2.1706543e-17)
(1.201964 0.0004500594 -9.8641854e-17)
(1.1971673 0.00068110858 1.6118854e-16)
(1.1898225 0.0010575479 4.1528034e-16)
(1.1779419 0.0017237169 -1.567012e-16)
(1.1582408 0.0029040175 -5.1019802e-16)
(1.1227062 0.0052209629 -7.429497e-16)
(1.0642963 0.011863728 -4.4320322e-16)
(0.90119828 0.0056468676 5.2873511e-16)
(1.2132571 9.7916129e-05 -2.6057591e-16)
(1.2133431 1.0890298e-05 -2.0504972e-16)
(1.2133399 9.507633e-06 -6.0637027e-16)
(1.2133059 3.49273e-06 -6.440293e-16)
(1.2133386 -5.2527897e-06 1.123826e-16)
(1.2134037 -8.1937795e-06 3.6196382e-16)
(1.2134673 -7.4845661e-06 -1.7510558e-16)
(1.2135197 -5.410828e-06 -7.2608192e-16)
(1.2135552 -2.5120894e-06 -1.6378138e-16)
(1.2135695 8.3970093e-07 -8.1487415e-16)
(1.213561 4.2251517e-06 1.0147555e-16)
(1.2135307 7.3967812e-06 -1.7618069e-16)
(1.21348 1.026766e-05 2.6800445e-16)
(1.213411 1.2833425e-05 -8.3488474e-17)
(1.2133253 1.514066e-05 -1.8939069e-16)
(1.2132243 1.7278868e-05 -1.2748137e-16)
(1.2131084 1.9374164e-05 -7.3842924e-17)
(1.2129775 2.1588657e-05 -4.5004759e-16)
(1.2128298 2.413035e-05 -3.5406026e-16)
(1.2126621 2.7272886e-05 -2.9448519e-16)
(1.2124689 3.138689e-05 -5.4867632e-16)
(1.2122418 3.6986117e-05 -3.0593277e-16)
(1.2119678 4.4800067e-05 -9.6926801e-17)
(1.2116277 5.5875582e-05 5.6535264e-17)
(1.2111933 7.1751966e-05 -2.6997982e-16)
(1.2106225 9.4687265e-05 -1.7951527e-16)
(1.2098534 0.00012813881 -1.1188293e-16)
(1.2087918 0.00017727962 3.2783673e-16)
(1.2072977 0.00025054286 1.5040525e-17)
(1.2051484 0.0003609988 -6.9657582e-17)
(1.2020052 0.0005315852 -2.7292897e-16)
(1.1972874 0.00080265785 2.016377e-16)
(1.1900617 0.0012459273 4.884961e-16)
(1.1785799 0.0020187899 -1.6637191e-16)
(1.1597952 0.0034096703 -7.0602184e-16)
(1.1248294 0.005999978 -1.0948374e-15)
(1.069297 0.013966237 -6.5778563e-16)
(0.91112621 0.0080720625 1.6751854e-15)
(1.212941 0.00010306216 8.1696742e-17)
(1.2130696 8.6785187e-06 -3.8939417e-16)
(1.2130986 8.7661884e-06 -3.6319539e-16)
(1.2130812 2.9689897e-06 -5.0120995e-16)
(1.2131246 -6.8790522e-06 2.6486309e-17)
(1.2131978 -1.0177845e-05 2.4585234e-16)
(1.2132681 -9.2389358e-06 -2.0166597e-16)
(1.2133261 -6.7139799e-06 -8.0857126e-16)
(1.2133666 -3.2348671e-06 -3.391508e-16)
(1.2133854 7.6782676e-07 -8.7903184e-16)
(1.2133812 4.8043106e-06 -1.9362593e-16)
(1.2133548 8.5835923e-06 -2.7407093e-16)
(1.2133079 1.200337e-05 6.4685257e-17)
(1.2132425 1.5058809e-05 -1.9656788e-16)
(1.2131604 1.780502e-05 -2.739635e-17)
(1.2130627 2.0347576e-05 -1.7814835e-16)
(1.2129503 2.2835102e-05 -8.8265432e-17)
(1.2128226 2.5458456e-05 -6.228128e-16)
(1.2126783 2.8462248e-05 -6.1512333e-16)
(1.212514 3.216789e-05 -3.5753316e-16)
(1.2123245 3.701023e-05 -6.5676393e-16)
(1.2121013 4.3591465e-05 -6.583285e-16)
(1.2118317 5.2765951e-05 -1.6698991e-16)
(1.2114968 6.5758612e-05 4.8966999e-17)
(1.2110689 8.4369291e-05 -2.9710795e-16)
(1.2105065 0.00011123517 -1.3851113e-16)
(1.2097487 0.00015039115 -8.8231986e-17)
(1.208703 0.0002078627 3.6665082e-16)
(1.2072321 0.00029346551 2.4906676e-17)
(1.2051177 0.0004223555 -1.1182612e-16)
(1.2020291 0.0006211438 -4.8612807e-16)
(1.1973998 0.00093621759 2.7109902e-16)
(1.1903088 0.0014484438 5.9016031e-16)
(1.179206 0.0023293645 -2.2911991e-16)
(1.1613216 0.0039660532 -6.526739e-16)
(1.1274939 0.0067633184 -1.3210624e-15)
(1.0748394 0.016120537 -1.959639e-15)
(0.92327199 0.010831478 2.1355896e-15)
(1.2125531 0.00010704561 -2.1379346e-17)
(1.2127176 5.1704396e-06 -2.4034527e-16)
(1.2127815 6.8371847e-06 -3.0038933e-16)
(1.2127839 1.7349563e-06 -3.5299266e-16)
(1.2128407 -9.1005523e-06 1.3690626e-16)
(1.2129245 -1.2695182e-05 2.4407218e-16)
(1.2130033 -1.1436652e-05 -5.3414133e-16)
(1.2130686 -8.3616719e-06 -7.6549788e-16)
(1.2131155 -4.2000695e-06 -3.1773368e-16)
(1.2131403 5.5695277e-07 -1.1155567e-15)
(1.2131416 5.3435851e-06 -4.3563024e-16)
(1.2131204 9.8210475e-06 -3.9599196e-16)
(1.2130785 1.3870352e-05 -1.8929167e-17)
(1.2130178 1.7486563e-05 -2.6024811e-16)
(1.2129402 2.0734619e-05 -1.8902825e-16)
(1.2128469 2.3738237e-05 -2.0696022e-16)
(1.2127388 2.6671287e-05 -1.5274891e-16)
(1.2126155 2.9756732e-05 -6.8681895e-16)
(1.2124754 3.3279904e-05 -7.2558672e-16)
(1.2123156 3.7615123e-05 -5.6136147e-16)
(1.2121306 4.3268163e-05 -8.0602901e-16)
(1.2119123 5.0938603e-05 -6.1817731e-16)
(1.2116482 6.161795e-05 3.7591127e-17)
(1.2113197 7.6726257e-05 6.2391412e-17)
(1.2108995 9.834823e-05 -1.4969767e-16)
(1.2103469 0.00012953437 -5.2791399e-17)
(1.2096022 0.00017494789 -5.8397847e-17)
(1.2085747 0.00024153709 4.2411063e-16)
(1.2071301 0.00034061115 -2.749732e-17)
(1.2050548 0.00048956112 -2.8298869e-16)
(1.2020271 0.00071888203 -3.6097224e-16)
(1.1974954 0.0010817423 6.7359479e-17)
(1.1905643 0.0016670072 2.9672184e-16)
(1.1797462 0.002656151 -1.8017078e-16)
(1.1625952 0.0045625003 -3.6746675e-16)
(1.1300388 0.0075817048 -8.0264495e-16)
(1.0805251 0.018297721 -1.2000338e-15)
(0.93635518 0.013929183 1.9417571e-15)
(1.2120779 0.00011046941 -1.7927524e-17)
(1.2122691 4.9536835e-07 -5.8793483e-17)
(1.2123691 3.3827574e-06 -2.3251722e-16)
(1.2123938 -4.9153454e-07 -2.8262991e-16)
(1.212467 -1.2121808e-05 1.201445e-16)
(1.212564 -1.5901885e-05 1.2597311e-16)
(1.2126536 -1.4192658e-05 -4.6013304e-16)
(1.2127281 -1.0433449e-05 -7.4646012e-16)
(1.2127833 -5.4570019e-06 -4.679672e-16)
(1.2128157 1.8428643e-07 -9.7896936e-16)
(1.212824 5.8436168e-06 -4.994427e-16)
(1.2128094 1.1130286e-05 -2.4643085e-16)
(1.2127738 1.590751e-05 -9.6440721e-17)
(1.2127191 2.0170928e-05 -1.6164355e-16)
(1.2126473 2.3996915e-05 -2.9405406e-16)
(1.2125598 2.7529729e-05 -2.8596388e-16)
(1.2124572 3.0971547e-05 -3.0155537e-16)
(1.2123394 3.458113e-05 -6.327944e-16)
(1.2122048 3.8689025e-05 -7.87049e-16)
(1.2120505 4.3728041e-05 -7.7396352e-16)
(1.2118713 5.0282121e-05 -9.1289846e-16)
(1.2116592 5.9157894e-05 -5.8062609e-16)
(1.2114018 7.1497311e-05 3.7640252e-17)
(1.2110811 8.8934048e-05 4.1667703e-16)
(1.2106701 0.00011386413 -7.7020875e-17)
(1.2101291 0.00014978864 3.8479627e-17)
(1.2093996 0.00020205449 3.5816516e-18)
(1.208393 0.00027860976 3.0995017e-16)
(1.2069784 0.00039237855 6.8529944e-17)
(1.2049472 0.00056314825 -1.7147114e-16)
(1.2019881 0.00082554564 -5.2370192e-16)
(1.197564 0.0012399149 -1.6359895e-16)
(1.1908237 0.0019057851 -1.0591977e-16)
(1.1802249 0.0030024113 -2.3206077e-16)
(1.1636682 0.0051785044 -1.8746079e-16)
(1.1322477 0.0084298826 -5.5221807e-16)
(1.0860029 0.020486241 -4.7546826e-16)
(0.94990337 0.017351397 8.9950539e-16)
(1.2114887 0.00011157946 -4.0729793e-17)
(1.2117032 -4.9930911e-06 -3.2371464e-17)
(1.2118381 -2.0343168e-06 -1.4180759e-16)
(1.2118864 -4.1991542e-06 -4.7164162e-16)
(1.2119786 -1.6359007e-05 5.850704e-17)
(1.2120915 -2.0182774e-05 -6.7923374e-17)
(1.2121944 -1.7854734e-05 -7.2100791e-16)
(1.2122804 -1.3242538e-05 -8.431668e-16)
(1.212346 -7.2900723e-06 -6.8535144e-16)
(1.2123879 -6.0855989e-07 -9.3865334e-16)
(1.2124051 6.0701623e-06 -5.3227668e-16)
(1.2123989 1.2299048e-05 -5.9204868e-17)
(1.2123712 1.7922411e-05 -1.832653e-16)
(1.2123242 2.2937391e-05 1.2110065e-18)
(1.2122598 2.7433767e-05 -3.2982178e-16)
(1.2121794 3.1579171e-05 -3.3261397e-16)
(1.2120839 3.5607714e-05 -4.2429028e-16)
(1.211973 3.9818305e-05 -4.7432725e-16)
(1.2118453 4.4591858e-05 -6.6036261e-16)
(1.211698 5.0426274e-05 -6.0415703e-16)
(1.2115261 5.7991915e-05 -8.3477327e-16)
(1.2113215 6.8213477e-05 -6.1992528e-16)
(1.2110725 8.2398319e-05 -1.7940875e-17)
(1.2107611 0.00010241436 5.745389e-16)
(1.2103612 0.0001309979 1.5087027e-16)
(1.2098339 0.00017214117 3.191645e-16)
(1.2091222 0.00023193323 7.7229814e-17)
(1.2081397 0.00031940286 2.492507e-18)
(1.2067592 0.00044921032 1.7641594e-16)
(1.2047781 0.00064369425 -1.3534975e-16)
(1.2018963 0.00094189166 -6.7580112e-16)
(1.1975909 0.0014111098 -3.79962e-16)
(1.1910716 0.0021668086 -1.7171244e-16)
(1.1807161 0.0033801292 -3.1694764e-16)
(1.1647557 0.0058345328 -2.0689897e-17)
(1.1343557 0.0092838353 -6.0426254e-16)
(1.0912749 0.022647255 4.9791198e-16)
(0.96391137 0.020994675 1.6902713e-15)
(1.2106279 0.00010523503 -9.5968076e-17)
(1.2108572 -1.0558396e-05 9.1725653e-18)
(1.2110314 -1.0560033e-05 3.1708462e-17)
(1.2111082 -1.0759542e-05 -2.7561977e-16)
(1.2112252 -2.2871973e-05 5.8981475e-18)
(1.2113604 -2.6491748e-05 -8.7696347e-17)
(1.2114825 -2.3208535e-05 -5.5672652e-16)
(1.2115853 -1.7330509e-05 -1.0781458e-15)
(1.2116662 -9.97861e-06 -8.089435e-16)
(1.2117221 -1.8401278e-06 -6.1508708e-16)
(1.2117526 6.2538101e-06 -3.960769e-16)
(1.2117589 1.3785952e-05 1.8398598e-16)
(1.2117431 2.0576467e-05 -2.7549574e-18)
(1.2117076 2.6625514e-05 -5.3223006e-17)
(1.2116542 3.2041662e-05 -2.8052999e-16)
(1.2115846 3.702417e-05 -1.7168224e-16)
(1.2114996 4.1849723e-05 -3.4566107e-16)
(1.2113991 4.6870357e-05 -4.5278962e-16)
(1.2112818 5.2533154e-05 -4.8257836e-16)
(1.2111449 5.9421072e-05 -5.6714707e-16)
(1.2109837 6.8316873e-05 -1.0765126e-15)
(1.2107904 8.0297957e-05 -6.9675124e-16)
(1.2105535 9.6884845e-05 -4.790711e-17)
(1.2102556 0.00012024658 3.3331844e-16)
(1.2098714 0.00015355455 5.5993863e-17)
(1.2093633 0.00020142854 2.8994402e-16)
(1.2086762 0.00027089686 -5.8633489e-18)
(1.2077265 0.00037236003 -2.1499758e-16)
(1.2063921 0.00052264034 2.5165444e-16)
(1.2044776 0.00074726974 -3.1320368e-16)
(1.2016984 0.0010907582 -5.658479e-16)
(1.197548 0.0016278629 -6.8669187e-16)
(1.1913189 0.0024984693 -3.2952823e-16)
(1.18134 0.0038622609 -4.164692e-16)
(1.1662137 0.0066609862 -1.5772178e-16)
(1.1371512 0.010337808 -5.6107365e-16)
(1.097614 0.024971401 -5.3511588e-16)
(0.98125288 0.026004345 2.1767641e-16)
(1.2094323 9.2994673e-05 -1.6956831e-16)
(1.2096623 -1.5166141e-05 6.7645138e-17)
(1.209871 -2.1758057e-05 1.4784943e-16)
(1.2099763 -2.1080793e-05 -1.5187597e-16)
(1.210121 -3.2593001e-05 -2.0610187e-16)
(1.2102834 -3.5612778e-05 -7.3807326e-17)
(1.2104301 -3.0934604e-05 -2.9527512e-16)
(1.2105553 -2.3277331e-05 -5.9343203e-16)
(1.2106569 -1.4022078e-05 -7.241131e-16)
(1.2107323 -3.9554272e-06 -4.9230951e-16)
(1.210781 5.9870439e-06 -5.3519892e-16)
(1.2108047 1.5210861e-05 6.521311e-17)
(1.2108057 2.3509668e-05 -2.3644249e-16)
(1.2107862 3.0889576e-05 -1.4752127e-16)
(1.2107484 3.7484015e-05 -3.2440072e-16)
(1.210694 4.3532075e-05 -1.2509212e-17)
(1.2106239 4.9362928e-05 -3.0983561e-17)
(1.2105381 5.5393266e-05 -1.9859559e-16)
(1.2104354 6.2150226e-05 -2.4137581e-16)
(1.2103133 7.0318046e-05 -6.2046253e-16)
(1.2101671 8.0813264e-05 -9.2775951e-16)
(1.2099894 9.4893697e-05 -8.9369934e-16)
(1.2097691 0.00011433018 -2.8786238e-16)
(1.2094896 0.0001416445 2.1191493e-17)
(1.2091265 0.00018051457 -3.2139189e-17)
(1.2086436 0.00023628966 9.29781e-17)
(1.207988 0.00031707865 1.0658772e-16)
(1.2070799 0.00043486076 7.1169617e-17)
(1.2058028 0.00060890558 -2.4244315e-16)
(1.2039702 0.00086830581 -6.2912053e-17)
(1.2013161 0.0012638921 -5.0281378e-16)
(1.1973519 0.001876758 -5.8669256e-16)
(1.1914633 0.0028774127 -3.0103572e-16)
(1.1819788 0.0044065552 -4.1033117e-16)
(1.1679121 0.0075850876 -3.0280638e-17)
(1.1406752 0.011550195 -2.7096714e-16)
(1.1048105 0.027222781 1.0945871e-16)
(1.0010083 0.031680296 1.9722109e-16)
(1.2079791 8.3340378e-05 1.2232569e-16)
(1.2082083 -1.9273785e-05 4.8334714e-17)
(1.2084464 -3.4100242e-05 1.9411848e-16)
(1.2085763 -3.3653677e-05 -2.3550592e-16)
(1.2087464 -4.4779074e-05 -2.7704708e-17)
(1.208936 -4.7195783e-05 4.3142832e-17)
(1.209109 -4.0904598e-05 1.2292395e-16)
(1.2092587 -3.1163126e-05 -8.5809961e-17)
(1.2093835 -1.9705052e-05 -1.641129e-16)
(1.209481 -7.4318858e-06 -1.0804065e-16)
(1.2095508 4.6124126e-06 -1.3153943e-16)
(1.2095948 1.5752413e-05 4.4442175e-17)
(1.2096153 2.5755713e-05 -2.2071364e-16)
(1.2096148 3.4637161e-05 -3.6987696e-16)
(1.2095954 4.2558224e-05 -2.7661237e-16)
(1.209559 4.9801228e-05 -1.2363442e-16)
(1.2095066 5.6751416e-05 -1.2381504e-16)
(1.2094383 6.3893758e-05 -2.062314e-17)
(1.2093531 7.1838877e-05 -2.396546e-16)
(1.2092484 8.1376119e-05 -4.8177921e-16)
(1.20912 9.3558485e-05 -4.9286129e-16)
(1.2089607 0.00010982809 -7.5495854e-16)
(1.20876 0.00013220971 -4.1692958e-16)
(1.2085018 0.00016357994 -3.7703461e-16)
(1.2081627 0.00020812456 -1.1223934e-16)
(1.2077081 0.00027191936 -5.7862134e-17)
(1.2070876 0.00036414507 1.1093732e-16)
(1.2062249 0.00049832385 1.3602733e-16)
(1.2050095 0.000696137 -4.0807066e-17)
(1.203264 0.00098995794 -3.7735522e-16)
(1.2007413 0.0014371258 -3.3093237e-16)
(1.1969716 0.0021225221 -4.7459644e-16)
(1.1914289 0.0032486265 -2.143975e-16)
(1.1824615 0.0049279591 -4.7528118e-16)
(1.1694807 0.0084504406 -3.5572912e-16)
(1.144273 0.012680493 -3.5938269e-16)
(1.1117851 0.029047946 -3.5241262e-16)
(1.020396 0.036334752 -3.2346486e-17)
(1.2062158 7.4829362e-05 3.3853438e-17)
(1.206448 -2.3886189e-05 1.1956553e-16)
(1.2067152 -4.7111236e-05 1.4423875e-16)
(1.2068685 -4.7894973e-05 4.9143147e-17)
(1.2070626 -5.9028599e-05 1.147175e-16)
(1.2072792 -6.1036466e-05 5.6861588e-18)
(1.2074791 -5.3095071e-05 -1.04392e-16)
(1.2076549 -4.1075212e-05 -5.1674676e-17)
(1.2078051 -2.7169928e-05 4.2885273e-17)
(1.2079271 -1.243612e-05 4.987966e-17)
(1.2080206 1.9554552e-06 -1.4725691e-16)
(1.2080876 1.5236469e-05 -2.8479276e-18)
(1.2081304 2.7144402e-05 1.4153137e-16)
(1.2081517 3.7703261e-05 -3.1802699e-16)
(1.2081537 4.7104476e-05 -1.7479382e-16)
(1.2081382 5.5676304e-05 2.7505524e-18)
(1.2081065 6.3863224e-05 -5.1372506e-17)
(1.2080586 7.222179e-05 1.7082526e-16)
(1.2079936 8.1449246e-05 -1.1224034e-16)
(1.2079094 9.2443317e-05 -1.5166797e-16)
(1.2078018 0.00010639651 -2.5757817e-16)
(1.2076639 0.00012493766 -4.8096983e-16)
(1.2074857 0.00015034738 -3.6050782e-16)
(1.2072519 0.00018585877 -2.847318e-16)
(1.2069401 0.00023616345 -7.1021932e-17)
(1.2065173 0.00030805621 -1.1993678e-16)
(1.2059355 0.00041177496 -2.8110058e-16)
(1.2051221 0.00056233599 -4.8861308e-17)
(1.2039731 0.00078378736 5.6644206e-17)
(1.2023197 0.0011114557 5.9002945e-17)
(1.1999346 0.0016093291 -2.5289794e-16)
(1.1963674 0.0023637339 -3.6801407e-16)
(1.1911736 0.0036097092 -4.3419028e-16)
(1.1827394 0.0054226766 -4.4443332e-16)
(1.1708351 0.0092456062 -3.5855141e-16)
(1.1477365 0.013729487 -3.3622286e-16)
(1.1183645 0.030455914 -4.3845187e-16)
(1.0388048 0.040180698 -4.337715e-16)
(1.2040925 6.7398883e-05 2.1970612e-16)
(1.2043292 -2.8876945e-05 7.0559932e-17)
(1.2046274 -6.0852682e-05 1.0434021e-16)