7.19479502e-38 	0.02969066433 	-1.327342812e-15 	1.713708935e-23 	5.933982885e-29 	-7.66126083e-37 	9.891318975e-45
0.0006400614409 	0.02967366656 	-5.257286109e-05 	-1.12958746e-09 	0.03272414086 	-2.038228012e-06 	6.238130767e-05
0.001280121317 	0.02966786123 	-0.0001794302805 	2.228355901e-08 	0.032843951 	-2.034693919e-06 	6.260969911e-05
0.001920179623 	0.02967724102 	-0.0002729071805 	3.468359023e-08 	0.03285868369 	-2.012881064e-06 	6.263778371e-05
0.002560236358 	0.02967621846 	-0.0003644071593 	4.608594564e-08 	0.0328721945 	-1.990763789e-06 	6.266353907e-05
0.003200291518 	0.02967851046 	-0.0004555045873 	5.704014879e-08 	0.03287751292 	-1.967203574e-06 	6.267367746e-05
0.003840345101 	0.02968174333 	-0.000546478181 	6.765282299e-08 	0.03288192393 	-1.943440265e-06 	6.268208608e-05
0.004480397105 	0.02968544068 	-0.0006374019764 	7.795558504e-08 	0.03288677228 	-1.919700302e-06 	6.269132837e-05
0.005120447531 	0.02968965286 	-0.0007282993342 	8.79601579e-08 	0.0328921167 	-1.895995254e-06 	6.270151633e-05
0.005760496377 	0.02969442415 	-0.0008191777145 	9.767155171e-08 	0.03289796608 	-1.872328404e-06 	6.271266687e-05
0.006400543643 	0.02969975526 	-0.0009100388249 	1.070921576e-07 	0.03290436916 	-1.848709138e-06 	6.272487292e-05
0.007040589331 	0.02970563959 	-0.001000882083 	1.16223254e-07 	0.03291136222 	-1.825144563e-06 	6.273820363e-05
0.007680633441 	0.02971207174 	-0.001091705939 	1.250656338e-07 	0.03291896516 	-1.801638935e-06 	6.275269694e-05
0.008320675975 	0.0297190527 	-0.001182508414 	1.336198911e-07 	0.03292717713 	-1.778193027e-06 	6.276835124e-05
0.008960716935 	0.02972657827 	-0.001273272478 	1.41882241e-07 	0.03293600473 	-1.754809406e-06 	6.278517911e-05
0.009600756325 	0.02973581623 	-0.001376755522 	1.512469489e-07 	0.03294659647 	-1.731634803e-06 	6.280536991e-05
0.01059351163 	0.02974854465 	-0.001506597835 	1.618532456e-07 	0.03296108282 	-1.695437633e-06 	6.283298491e-05
0.01162459314 	0.02976446488 	-0.001652738291 	1.733988471e-07 	0.03297910597 	-1.65823496e-06 	6.286734204e-05
0.01269548034 	0.02978276596 	-0.001804408649 	1.846077899e-07 	0.03299943781 	-1.619813832e-06 	6.290610018e-05
0.01380770981 	0.0298036498 	-0.001961817932 	1.954133498e-07 	0.03302229111 	-1.580146822e-06 	6.294966493e-05
0.01496287746 	0.02982734926 	-0.002125166398 	2.05741457e-07 	0.03304787342 	-1.539204286e-06 	6.299843192e-05
0.01616264078 	0.02985410697 	-0.00229465952 	2.1551253e-07 	0.03307642124 	-1.496959696e-06 	6.3052852e-05
0.01740872125 	0.02988418457 	-0.002470507304 	2.246416482e-07 	0.03310818358 	-1.453387705e-06 	6.311339984e-05
0.01870290682 	0.02991786312 	-0.002653017944 	2.330482607e-07 	0.03314342318 	-1.408464422e-06 	6.318057631e-05
0.02004705445 	0.02995547842 	-0.002842457319 	2.40664482e-07 	0.03318245434 	-1.362175203e-06 	6.325498055e-05
0.02144793596 	0.02999741185 	-0.003039189643 	2.47278584e-07 	0.03322563332 	-1.313578805e-06 	6.333729169e-05
0.02290475435 	0.03004400199 	-0.003243535361 	2.527961836e-07 	0.03327326603 	-1.263110049e-06 	6.342809288e-05
0.02441781343 	0.0300955704 	-0.003455479002 	2.57097268e-07 	0.03332563684 	-1.210983926e-06 	6.35279262e-05
0.02598928413 	0.03015248909 	-0.003675122936 	2.600140028e-07 	0.03338307805 	-1.157073385e-06 	6.363742511e-05
0.0276214212 	0.03021516531 	-0.00390272131 	2.613890105e-07 	0.03344595222 	-1.101242611e-06 	6.375728075e-05
0.02931656639 	0.03028402753 	-0.004138503967 	2.610521668e-07 	0.03351463802 	-1.043342575e-06 	6.388821497e-05
0.03107715185 	0.03035952531 	-0.00438269932 	2.588210342e-07 	0.03358952915 	-9.832091462e-07 	6.403097829e-05
0.03290570357 	0.03044212872 	-0.004635533 	2.545003735e-07 	0.0336710333 	-9.206611605e-07 	6.418634785e-05
0.03480484502 	0.03053232733 	-0.004897226303 	2.478816962e-07 	0.03375957063 	-8.554984759e-07 	6.435512461e-05
0.03677730095 	0.03063062888 	-0.005167999889 	2.387429775e-07 	0.0338555719 	-7.874999919e-07 	6.453812971e-05
0.03882590125 	0.03073756741 	-0.005448122063 	2.268499268e-07 	0.033959485 	-7.164225853e-07 	6.473621697e-05
0.04095431298 	0.03085381729 	-0.0057379319 	2.119539961e-07 	0.03407188593 	-6.419434662e-07 	6.495048438e-05
0.04317377286 	0.03098007085 	-0.006038085783 	1.936066585e-07 	0.03419335317 	-5.631133448e-07 	6.518203468e-05
0.04547891331 	0.03111678085 	-0.006348528561 	1.717147439e-07 	0.03432422556 	-4.804278607e-07 	6.543151384e-05
0.04787304162 	0.03126439032 	-0.006668894251 	1.459632537e-07 	0.0344648256 	-3.935236562e-07 	6.569953661e-05
0.05035959269 	0.03142345637 	-0.006999393397 	1.160515339e-07 	0.03461557123 	-3.020184969e-07 	6.598689966e-05
0.052942134 	0.03159452421 	-0.0073401206 	8.166488564e-08 	0.03477685862 	-2.0550098e-07 	6.629435826e-05
0.0556243707 	0.03177811924 	-0.00769114168 	4.247802368e-08 	0.03494905239 	-1.035310224e-07 	6.662260743e-05
0.05829909905 	0.03196691518 	-0.008038126468 	4.120271882e-08 	0.03512516871 	-2.601382658e-06 	6.695833409e-05
0.05841015096 	0.03197475597 	-0.00805253496 	1.853028294e-09 	0.03513248291 	-4.385829389e-09 	6.697227699e-05
0.06130429948 	0.03218512241 	-0.008424378665 	5.193971977e-08 	0.03532764656 	-1.19471303e-07 	6.734431316e-05
0.06432130776 	0.03243836653 	-0.008854059425 	1.087292049e-07 	0.03556094332 	-2.4264125e-07 	6.778904163e-05
0.06895613894 	0.03276619063 	-0.009387011955 	2.019289e-07 	0.03586065109 	-4.356132951e-07 	6.836036793e-05
0.07369602013 	0.03314036739 	-0.009968720851 	3.064566292e-07 	0.03619983981 	-6.397194351e-07 	6.900695591e-05
0.07854333226 	0.03353175468 	-0.01055085034 	4.216365858e-07 	0.03655113931 	-8.548949295e-07 	6.967663039e-05
0.08350831304 	0.03393874075 	-0.01113270962 	5.475332554e-07 	0.03691268583 	-1.081676817e-06 	7.036583854e-05
0.0885963033 	0.03435907475 	-0.01171295876 	6.838392019e-07 	0.03728196797 	-1.319831509e-06 	7.106979294e-05
0.09379962282 	0.03478968607 	-0.01228933767 	8.297438247e-07 	0.0376557287 	-1.568357304e-06 	7.178228477e-05
0.09912088576 	0.03522748807 	-0.01285987458 	9.846055116e-07 	0.03803065748 	-1.826441533e-06 	7.249700322e-05
0.1045726484 	0.03566937007 	-0.01342314343 	1.147890541e-06 	0.03840336389 	-2.093212233e-06 	7.320748523e-05
0.1101562834 	0.03611136334 	-0.01397698733 	1.318299482e-06 	0.03876967035 	-2.366587621e-06 	7.390576715e-05
0.1158664915 	0.03654872666 	-0.0145184923 	1.49408098e-06 	0.03912471093 	-2.643966739e-06 	7.458257318e-05
0.1217061418 	0.03697679707 	-0.01504518345 	1.673519656e-06 	0.03946362837 	-2.92271322e-06 	7.522864403e-05
0.1276959025 	0.03739056039 	-0.01555479272 	1.854963384e-06 	0.03978118798 	-3.200031984e-06 	7.58340009e-05
0.1338215875 	0.03778382085 	-0.01604386747 	2.0356485e-06 	0.04007114643 	-3.471599175e-06 	7.63867423e-05
0.1400861426 	0.03815015119 	-0.01650883075 	2.211563973e-06 	0.04032702704 	-3.733379786e-06 	7.687452186e-05
0.146505121 	0.03848290638 	-0.01694644732 	2.383054785e-06 	0.0405421109 	-3.980798791e-06 	7.728453147e-05
0.1530746084 	0.03877445561 	-0.01735264423 	2.354925713e-06 	0.04070897684 	-3.882578896e-06 	7.760262434e-05
0.1597930364 	0.03901668097 	-0.01772310482 	2.206763583e-06 	0.04081983511 	-3.586011608e-06 	7.7813951e-05
0.1666750677 	0.03920116466 	-0.01805359079 	2.044903601e-06 	0.04086650271 	-3.272967184e-06 	7.790291243e-05
0.173718607 	0.03931882894 	-0.01833919185 	1.872226157e-06 	0.04084030935 	-2.94770685e-06 	7.785298061e-05
0.1809218435 	0.03936018283 	-0.01857459237 	1.690507985e-06 	0.04073233441 	-2.614567542e-06 	7.764715036e-05
0.1883018346 	0.0393153331 	-0.01875446985 	1.501502251e-06 	0.04053335295 	-2.277048354e-06 	7.726783639e-05
0.1958517386 	0.03917406647 	-0.01887298877 	1.308600683e-06 	0.0402341355 	-1.941212494e-06 	7.669744477e-05
0.203575587 	0.03892604532 	-0.01892407591 	1.114841462e-06 	0.03982549418 	-1.612424934e-06 	7.591846083e-05
0.21148699 	0.03856086575 	-0.01890162208 	9.235671362e-07 	0.03929834634 	-1.296454964e-06 	7.491357054e-05
0.2195777847 	0.0380685735 	-0.01879933932 	7.390912882e-07 	0.03864439251 	-1.000555721e-06 	7.366695277e-05
0.2278617542 	0.0374397489 	-0.01861105997 	5.653339002e-07 	0.03785605958 	-7.311047747e-07 	7.216417111e-05
0.2363381284 	0.03666618118 	-0.01833096328 	4.070912912e-07 	0.03692726847 	-4.953743488e-07 	7.039363711e-05
0.2450109654 	0.03574138146 	-0.01795378594 	2.689352584e-07 	0.03585390205 	-2.997563494e-07 	6.834750239e-05
0.2538895418 	0.03466125083 	-0.01747529206 	1.554632127e-07 	0.03463442115 	-1.498821042e-07 	6.602283285e-05
0.2629704837 	0.03342524696 	-0.01689278004 	7.086970356e-08 	0.03327100956 	-4.988523129e-08 	6.342379141e-05
0.2722686725 	0.03203710535 	-0.01620565804 	1.829950093e-08 	0.03177013092 	-1.389337623e-09 	6.056269958e-05
0.280546899 	0.03070473832 	-0.01551860891 	7.402841549e-06 	0.03035467639 	-1.493759564e-05 	5.786444984e-05
0.2817777185 	0.03050655585 	-0.01541640026 	2.044887763e-10 	0.03014414383 	3.356261214e-09 	5.746311628e-05
0.2915132865 	0.02885025841 	-0.01453119266 	-1.663009127e-08 	0.02841196157 	5.259173122e-08 	5.416109544e-05
0.3014701175 	0.02709360448 	-0.01356112942 	-6.252522202e-08 	0.0266006022 	1.344623966e-07 	5.070814105e-05
0.311662422 	0.02526949624 	-0.01252236022 	-1.296986095e-07 	0.02474362746 	2.333337822e-07 	4.716823107e-05
0.3220865804 	0.02341828224 	-0.01143667576 	-2.066185768e-07 	0.02288079195 	3.298651344e-07 	4.361714885e-05
0.3327565425 	0.02158614381 	-0.01033040536 	-2.79529155e-07 	0.02105619958 	4.037736973e-07 	4.013896866e-05
0.3436697307 	0.01982204077 	-0.009232655444 	-3.346267005e-07 	0.01931522547 	4.378351973e-07 	3.682018814e-05
0.3548376897 	0.01817171666 	-0.00817161566 	-3.615787255e-07 	0.01769881938 	4.225850394e-07 	3.373886888e-05
0.3662617118 	0.01667253589 	-0.00717094308 	-3.562336878e-07 	0.01623897165 	3.588329777e-07 	3.095599335e-05
0.3779496338 	0.01534903228 	-0.006246235608 	-3.215235023e-07 	0.01495509342 	2.57231233e-07 	2.850856461e-05
0.3899070915 	0.0142116931 	-0.005403570924 	-2.659574351e-07 	0.01385355165 	1.345960919e-07 	2.640871984e-05
0.4021381477 	0.01325868636 	-0.004640126257 	-2.001978396e-07 	0.01292983151 	8.518952405e-09 	2.464785252e-05
0.4146524372 	0.01247957687 	-0.003946412998 	-1.339190719e-07 	0.01217226874 	-1.068748692e-07 	2.320372733e-05
0.427452813 	0.01185969626 	-0.003309315282 	-7.378308099e-08 	0.01156610647 	-2.029275335e-07 	2.204821356e-05
0.4405464341 	0.01138282325 	-0.002715222323 	-2.260038268e-08 	0.01109569539 	-2.75805623e-07 	2.115147929e-05
0.4539411442 	0.01103435061 	-0.002151488316 	1.896589087e-08 	0.01074727429 	-3.262421353e-07 	2.048729185e-05
0.4676417292 	0.01080305408 	-0.001606423017 	5.137780221e-08 	0.01051057291 	-3.57254911e-07 	2.003607323e-05
0.4816552705 	0.01067954295 	-0.001070299702 	7.696406871e-08 	0.01037709046 	-3.709737505e-07 	1.978161857e-05
0.4959899515 	0.01065570699 	-0.0005378687957 	9.812948597e-08 	0.01033951634 	-3.695894822e-07 	1.970999187e-05
0.5103264015 	0.01072250797 	-1.219042351e-05 	1.16403382e-07 	0.01038973368 	-3.556787144e-07 	1.980572007e-05
0.5243465443 	0.01086763177 	0.0005023097143 	1.330520596e-07 	0.01051635334 	-3.317684302e-07 	2.004709233e-05
0.5380575886 	0.01107961365 	0.001006895714 	1.490629432e-07 	0.01070858936 	-2.99937292e-07 	2.041354761e-05
0.5514659774 	0.01134960881 	0.001504270187 	1.650081617e-07 	0.01095815795 	-2.616788435e-07 	2.088929471e-05
0.5645778658 	0.01167038576 	0.001996224038 	1.810968085e-07 	0.01125836914 	-2.182222666e-07 	2.146158068e-05
0.5774000476 	0.01203581466 	0.002483869971 	1.973063442e-07 	0.01160359992 	-1.706564708e-07 	2.21196865e-05
0.5899386871 	0.01244067262 	0.002967841379 	2.134819664e-07 	0.01198906221 	-1.199617414e-07 	2.285448475e-05
0.6021997198 	0.01288061347 	0.003448461543 	2.29369423e-07 	0.01241074773 	-6.699492121e-08 	2.365833457e-05
0.6141896168 	0.01335211607 	0.003925836078 	2.446658608e-07 	0.01286537739 	-1.252883002e-08 	2.452498506e-05
0.6259139456 	0.01385232765 	0.00439988503 	2.590477639e-07 	0.01335026449 	4.271656918e-08 	2.544931462e-05
0.637378669 	0.0143788845 	0.004870368099 	2.721820562e-07 	0.01386315898 	9.804886569e-08 	2.642703408e-05
0.6485895102 	0.01492973085 	0.005336909344 	2.837766061e-07 	0.01440208417 	1.527898074e-07 	2.745437528e-05
0.65955193 	0.01550297624 	0.005799019604 	2.91315289e-07 	0.01496520613 	2.046821879e-07 	2.852784225e-05
0.6702715792 	0.01609680165 	0.006256119088 	2.952503486e-07 	0.01555074634 	2.525924474e-07 	2.964404463e-05
0.6807536035 	0.01670939235 	0.006707557376 	2.973861366e-07 	0.01615691753 	2.971974276e-07 	3.07995754e-05
0.6910034469 	0.0173389078 	0.00715262965 	2.976704237e-07 	0.01678189497 	3.381503175e-07 	3.19909561e-05
0.7010260524 	0.01798346054 	0.007590592945 	2.960727479e-07 	0.01742379533 	3.751052023e-07 	3.32145966e-05
0.7108265908 	0.01864111778 	0.008020681651 	2.925583781e-07 	0.01808067877 	4.077165108e-07 	3.4466799e-05
0.7204098437 	0.01930990474 	0.008442119675 	2.870602371e-07 	0.01875055264 	4.3561249e-07 	3.574376478e-05
0.7297807288 	0.01998781948 	0.008854135439 	2.794876548e-07 	0.01943138718 	4.58355437e-07 	3.704162464e-05
0.7389438533 	0.02067284574 	0.009255966919 	2.697973855e-07 	0.02012113075 	4.75391796e-07 	3.835646758e-05
0.7479038795 	0.02136296649 	0.009646877522 	2.581413984e-07 	0.02081774557 	4.861523117e-07 	3.968440905e-05
0.7566652635 	0.02205623423 	0.01002766139 	2.56981066e-07 	0.02151912423 	4.895906889e-07 	4.102143171e-05
0.7652324241 	0.02275125712 	0.01041348231 	2.382787151e-07 	0.02222302833 	4.865519168e-07 	4.236326856e-05
0.7736096596 	0.02344736098 	0.01077454223 	2.121093656e-07 	0.02293016946 	4.783265368e-07 	4.37112761e-05
0.7818011685 	0.02414637416 	0.01110265114 	2.048845504e-07 	0.02364266033 	4.635609421e-07 	4.506948173e-05
0.7898110838 	0.02484821183 	0.01143221901 	1.92034861e-07 	0.02435841373 	4.390142634e-07 	4.643390664e-05
0.7976434107 	0.02554663902 	0.01176030373 	1.717340322e-07 	0.02507116244 	3.997403148e-07 	4.779260379e-05
0.805302097 	0.02623274941 	0.01208292438 	1.426814275e-07 	0.02577265981 	3.414716782e-07 	4.912985273e-05
0.8127909866 	0.02689707358 	0.01239586889 	1.043475258e-07 	0.0264542344 	2.62380518e-07 	5.042912334e-05
0.8201138393 	0.0275307192 	0.01269510351 	5.68567347e-08 	0.02710741315 	1.627363227e-07 	5.167426359e-05
0.8272743445 	0.02812561659 	0.01297690429 	6.334495113e-10 	0.02772424005 	4.388701095e-08 	5.285010709e-05
0.8342760931 	0.0286741982 	0.01323780736 	-6.3941776e-08 	0.02829738274 	-9.224538854e-08 	5.394267635e-05
0.8411226058 	0.02916884471 	0.01347448251 	-1.366012889e-07 	0.0288201423 	-2.431669924e-07 	5.493920137e-05
0.8478173271 	0.02960153252 	0.01368366797 	-2.167806428e-07 	0.02928652693 	-4.059267465e-07 	5.58282601e-05
0.8543636186 	0.02996425994 	0.01386233249 	-3.026874355e-07 	0.02969153459 	-5.774187164e-07 	5.660031727e-05
0.8607647715 	0.03025072804 	0.01400817079 	-3.903392652e-07 	0.03003161419 	-7.539810353e-07 	5.724860351e-05
0.8670240052 	0.03045913631 	0.01412030661 	-4.737204521e-07 	0.03030480326 	-9.295428454e-07 	5.77693778e-05
0.8731444643 	0.03059477966 	0.01419972778 	-5.469876615e-07 	0.03050971338 	-1.094149717e-06 	5.815999344e-05
0.8791292256 	0.03066875236 	0.0142063951 	-7.8920766e-07 	0.03064560021 	-1.240173151e-06 	5.84190315e-05
0.8849812985 	0.03068967855 	0.01414025989 	-9.369986773e-07 	0.03071493716 	-1.364053656e-06 	5.855120701e-05
0.890703624 	0.03065836945 	0.01405476276 	-9.000732935e-07 	0.03072325309 	-1.46908925e-06 	5.856705947e-05
0.8962990789 	0.03057371125 	0.01395265122 	-9.400193567e-07 	0.03067528856 	-1.560222702e-06 	5.847562576e-05
0.9017704759 	0.03043704328 	0.01382489335 	-9.658348203e-07 	0.03057315833 	-1.636708074e-06 	5.828093714e-05
0.9071205657 	0.0302505199 	0.01367308334 	-9.795173796e-07 	0.03041803412 	-1.69796686e-06 	5.798522728e-05
0.9123520377 	0.03001633604 	0.01349902079 	-9.825523851e-07 	0.03021150819 	-1.74399777e-06 	5.759153147e-05
0.9174675217 	0.0297367212 	0.01330464231 	-9.761859533e-07 	0.02995540193 	-1.774995322e-06 	5.710332175e-05
0.9224695893 	0.02941391066 	0.01309199264 	-9.603816712e-07 	0.02965161116 	-1.791029512e-06 	5.652421211e-05
0.9273607551 	0.02905006592 	0.01286389117 	-9.352543357e-07 	0.02930205081 	-1.792125115e-06 	5.585785292e-05
0.9321434779 	0.02868153711 	0.01263695322 	-9.058439934e-07 	0.02894241194 	-1.780151295e-06 	5.517228129e-05
0.9352567366 	0.02835970334 	0.01244382959 	-8.77492826e-07 	0.02862463941 	-1.761390824e-06 	5.456651853e-05
0.938254261 	0.02806339381 	0.01227474834 	-8.489049005e-07 	0.02832948206 	-1.738557611e-06 	5.400386658e-05
0.9411403536 	0.02775995269 	0.01210539408 	-8.181919743e-07 	0.02802509872 	-1.710483841e-06 	5.342362734e-05
0.9439191569 	0.02745061844 	0.01193692055 	-7.85629467e-07 	0.02771289419 	-1.677622928e-06 	5.282847874e-05
0.9465946591 	0.027136494 	0.01176997097 	-7.515186212e-07 	0.02739412529 	-1.640388142e-06 	5.22208166e-05
0.9491707006 	0.02681854633 	0.01160509981 	-7.161508143e-07 	0.02706992611 	-1.599168051e-06 	5.160280287e-05
0.9516509787 	0.02649761685 	0.01144277829 	-6.798057648e-07 	0.0267413112 	-1.554328076e-06 	5.09763715e-05
0.9540390534 	0.02617443106 	0.01128339886 	-6.427499927e-07 	0.02640917914 	-1.506210292e-06 	5.034323549e-05
0.9563383523 	0.02584960603 	0.0111272793 	-6.052351143e-07 	0.02607431829 	-1.455134146e-06 	4.970489765e-05
0.9585521757 	0.02552365684 	0.01097466644 	-5.674964887e-07 	0.02573741185 	-1.401397431e-06 	4.906266033e-05
0.960683701 	0.02519700173 	0.01082573911 	-5.297524969e-07 	0.02539904173 	-1.345277692e-06 	4.841763283e-05
0.9627359876 	0.02486996581 	0.01068061069 	-4.922044483e-07 	0.02505969104 	-1.287033967e-06 	4.77707361e-05
0.9647119813 	0.02454278287 	0.01053933061 	-4.550363671e-07 	0.02471974485 	-1.22690762e-06 	4.712270418e-05
0.9666145182 	0.02421559495 	0.01040188474 	-4.184158445e-07 	0.02437948886 	-1.165125404e-06 	4.647408169e-05
0.9684463289 	0.02388844911 	0.01026819479 	-3.824949297e-07 	0.02403910553 	-1.101902242e-06 	4.582521647e-05
0.9702100428 	0.02356129088 	0.01013811608 	-3.474110617e-07 	0.02369866693 	-1.037444238e-06 	4.517624588e-05
0.9719081913 	0.02323395342 	0.01001143349 	-3.132880424e-07 	0.02335812346 	-9.719519534e-07 	4.452707536e-05
0.9735432117 	0.02290614121 	0.009887855053 	-2.802369855e-07 	0.02301728726 	-9.056238942e-07 	4.387734685e-05
0.9751174509 	0.02257740662 	0.009767002483 	-2.48357198e-07 	0.02267580872 	-8.386602239e-07 	4.322639384e-05
0.9766331683 	0.02224711719 	0.009648397737 	-2.177369679e-07 	0.02233314362 	-7.712666792e-07 	4.257317891e-05
0.9780925395 	0.0219144102 	0.009531444169 	-1.884542444e-07 	0.02198850779 	-7.036586943e-07 	4.191620723e-05
0.9794976592 	0.02157812983 	0.009415400301 	-1.605771927e-07 	0.02164081459 	-6.360657318e-07 	4.125340736e-05
0.980850544 	0.02123674026 	0.009299343275 	-1.341646676e-07 	0.02128858821 	-5.687358574e-07 	4.058196598e-05
0.9821531359 	0.0208882042 	0.009182117529 	-1.092665472e-07 	0.02092984269 	-5.019402994e-07 	3.989809732e-05
0.9834073043 	0.0205298116 	0.009062261862 	-8.592405816e-08 	0.02056191121 	-4.359783205e-07 	3.919671765e-05
0.9846148496 	0.02015793416 	0.008937904304 	-6.41701629e-08 	0.02018120194 	-3.711823294e-07 	3.847097998e-05
0.9857775048 	0.0197676677 	0.008806607636 	-4.403010429e-08 	0.01978284275 	-3.079231162e-07 	3.771159663e-05
0.9868969387 	0.01935230305 	0.008665137377 	-2.552224142e-08 	0.01936014762 	-2.466128376e-07 	3.690582224e-05
0.9879747581 	0.01890251713 	0.00851283359 	-8.751073608e-09 	0.01890381159 	-1.877096828e-07 	3.603591893e-05
0.98901251 	0.01844677727 	0.008339280148 	5.39434951e-09 	0.01844270324 	-1.360871006e-07 	3.515691827e-05
0.9896815574 	0.01803262672 	0.008175153511 	1.600705994e-08 	0.01802466035 	-9.567895042e-08 	3.436001232e-05
0.9903506049 	0.01761992897 	0.008022766161 	2.456488359e-08 	0.01760892375 	-6.097108334e-08 	3.356750282e-05
0.9910196523 	0.01714684871 	0.007840587163 	3.257255801e-08 	0.01713315709 	-2.73255754e-08 	3.266055932e-05
0.9916886998 	0.01659316526 	0.007621128137 	3.991965854e-08 	0.01657719128 	4.968328767e-09 	3.160073398e-05
0.9923577472 	0.01592942521 	0.007350951195 	5.076603419e-08 	0.01591163326 	3.563308329e-08 	3.03319954e-05
0.9930267946 	0.01511108718 	0.007006064484 	4.665496257e-08 	0.01509201452 	6.219996367e-08 	2.876957429e-05
0.9936958421 	0.01406798912 	0.006537288977 	3.899078972e-08 	0.01404831187 	8.220548976e-08 	2.677998696e-05
0.9943648895 	0.01269470457 	0.005898770361 	4.488291992e-08 	0.01267539093 	9.535181759e-08 	2.416281805e-05
0.9950339369 	0.01084363389 	0.005021990436 	5.471395442e-08 	0.01082602171 	1.026470884e-07 	2.063740631e-05
0.9957029844 	0.008342955928 	0.0037575582 	5.803754743e-08 	0.008328705795 	1.007130462e-07 	1.587682809e-05
0.9963720318 	0.005234294527 	0.002136996726 	4.25780894e-08 	0.005224997776 	8.022049402e-08 	9.960297974e-06
0.9970410793 	0.002295991216 	0.0007436093133 	1.920544347e-08 	0.002291788115 	4.283528239e-08 	4.368785116e-06
0.9977101267 	0.0005754760674 	0.0001133421348 	3.590989759e-09 	0.0005743984236 	1.206170263e-08 	1.094963041e-06
0.9983791741 	6.058102473e-05 	4.26661232e-06 	1.497857363e-10 	6.046614389e-05 	1.32273607e-09 	1.152652759e-07
0.9990482216 	1.621711889e-06 	1.583276646e-08 	5.900152792e-13 	1.618626841e-06 	3.699773915e-11 	3.085552632e-09
0.9990482216 	1.621711889e-06 	1.583276646e-08 	5.900152792e-13 	1.618626841e-06 	3.699773915e-11 	3.085552632e-09
