/*--------------------------------*- C++ -*----------------------------------*\
  =========                 |
  \\      /  F ield         | OpenFOAM: The Open Source CFD Toolbox
   \\    /   O peration     | Website:  https://openfoam.org
    \\  /    A nd           | Version:  7
     \\/     M anipulation  |
\*---------------------------------------------------------------------------*/
FoamFile
{
    version     2.0;
    format      ascii;
    class       volScalarField;
    location    "2000";
    object      k;
}
// * * * * * * * * * * * * * * * * * * * * * * * * * * * * * * * * * * * * * //

dimensions      [0 2 -2 0 0 0 0];

internalField   nonuniform List<scalar> 
15296
(
0.0016938066
0.0016883935
0.001683159
0.0016780765
0.0016731234
0.0016682857
0.0016635533
0.0016589186
0.0016543753
0.001649918
0.0016455421
0.0016412434
0.001637018
0.0016328627
0.0016287742
0.0016247498
0.0016207858
0.0016168802
0.0016130307
0.0016092347
0.0016054899
0.001601794
0.0015981445
0.0015945392
0.0015909761
0.0015874542
0.0015839748
0.0015805448
0.0015771883
0.0015739319
0.0015708961
0.0015683863
0.0015674116
0.0015698663
0.0015769252
0.0015900219
0.0016539484
0.0017160027
0.0016938667
0.001688451
0.0016832199
0.001678139
0.0016731872
0.0016683507
0.0016636193
0.0016589855
0.0016544431
0.0016499866
0.0016456113
0.0016413132
0.0016370884
0.0016329336
0.0016288456
0.0016248217
0.001620858
0.0016169528
0.0016131036
0.0016093079
0.0016055633
0.0016018676
0.0015982184
0.0015946133
0.0015910503
0.0015875285
0.0015840491
0.001580619
0.0015772619
0.0015740041
0.0015709645
0.0015684429
0.0015674374
0.0015698471
0.0015768378
0.0015896048
0.0016538756
0.0016929271
0.0016939929
0.0016885759
0.001683349
0.0016782698
0.0016733191
0.0016684835
0.0016637528
0.0016591196
0.0016545775
0.0016501213
0.0016457462
0.0016414481
0.0016372233
0.0016330683
0.0016289801
0.0016249559
0.0016209919
0.0016170864
0.0016132367
0.0016094405
0.0016056955
0.0016019993
0.0015983495
0.0015947438
0.0015911802
0.0015876577
0.0015841775
0.0015807464
0.0015773879
0.0015741277
0.0015710829
0.0015685478
0.0015675066
0.0015698681
0.0015767794
0.0015891587
0.0016540767
0.0016363563
0.0016941783
0.0016887654
0.0016835426
0.001678465
0.0016735152
0.0016686802
0.0016639498
0.0016593165
0.0016547743
0.0016503177
0.0016459422
0.0016416435
0.0016374179
0.0016332621
0.001629173
0.0016251479
0.0016211828
0.0016172761
0.0016134252
0.0016096278
0.0016058815
0.001602184
0.0015985328
0.0015949257
0.0015913607
0.0015878367
0.0015843548
0.0015809218
0.0015775609
0.0015742975
0.0015712465
0.0015686969
0.0015676177
0.0015699318
0.0015767618
0.0015887756
0.0016538632
0.0016192132
0.0016944208
0.0016890194
0.0016838002
0.0016787239
0.0016737749
0.0016689401
0.0016642095
0.0016595757
0.0016550328
0.0016505753
0.0016461986
0.0016418987
0.0016376717
0.0016335144
0.0016294236
0.0016253967
0.0016214298
0.0016175212
0.0016136684
0.001609869
0.0016061206
0.001602421
0.0015987676
0.0015951583
0.001591591
0.0015880646
0.0015845803
0.0015811444
0.0015777803
0.0015745127
0.0015714547
0.0015688897
0.0015677705
0.001570038
0.0015767845
0.0015884715
0.0016527521
0.001624686
0.0016948067
0.0016894296
0.0016842143
0.0016791398
0.0016741915
0.0016693564
0.001664625
0.00165999
0.0016554454
0.001650986
0.001646607
0.0016423046
0.0016380749
0.0016339147
0.0016298209
0.0016257908
0.0016218206
0.0016179086
0.0016140522
0.0016102492
0.0016064971
0.0016027936
0.0015991365
0.0015955232
0.001591952
0.0015884215
0.0015849328
0.0015814922
0.0015781227
0.0015748486
0.0015717802
0.0015691942
0.0015680214
0.0015702296
0.0015768649
0.0015881954
0.0016502598
0.0016432517
0.0016954467
0.0016901117
0.0016849012
0.0016798292
0.0016748812
0.001670045
0.0016653114
0.0016606736
0.0016561256
0.0016516621
0.0016472788
0.0016429715
0.0016387367
0.001634571
0.0016304714
0.0016264353
0.0016224591
0.0016185408
0.001614678
0.0016108683
0.0016071095
0.0016033992
0.0015997351
0.0015961149
0.0015925364
0.0015889986
0.0015855022
0.0015820534
0.0015786746
0.00157539
0.001572306
0.0015696912
0.0015684462
0.0015705799
0.0015770656
0.0015880778
0.0016458714
0.0016703099
0.0016963821
0.0016910792
0.0016858792
0.0016808109
0.0016758628
0.0016710243
0.0016662871
0.0016616445
0.0016570908
0.001652621
0.0016482306
0.0016439157
0.0016396729
0.0016354987
0.0016313904
0.0016273451
0.0016233597
0.0016194317
0.0016155591
0.0016117394
0.0016079705
0.0016042499
0.0016005754
0.0015969445
0.0015933553
0.0015898064
0.0015862987
0.0015828377
0.0015794452
0.001576146
0.0015730413
0.0015703912
0.0015690606
0.0015711102
0.0015774162
0.0015882012
0.0016405311
0.0016959224
0.0016977233
0.0016924193
0.0016872405
0.001682178
0.0016772292
0.0016723868
0.0016676438
0.0016629939
0.0016584317
0.0016539523
0.0016495514
0.0016452253
0.0016409706
0.001636784
0.0016326627
0.0016286041
0.0016246051
0.0016206632
0.0016167763
0.0016129421
0.0016091584
0.0016054229
0.0016017333
0.0015980871
0.0015944824
0.0015909176
0.0015873934
0.0015839151
0.0015805033
0.0015771839
0.0015740521
0.0015713585
0.001569927
0.00157188
0.00157797
0.0015885871
0.0016351571
0.0017135474
0.0016995406
0.001694266
0.0016891076
0.0016840518
0.001679102
0.0016742545
0.0016695034
0.0016648433
0.0016602692
0.0016557765
0.0016513611
0.0016470194
0.0016427481
0.0016385442
0.001634405
0.0016303279
0.0016263102
0.0016223488
0.0016184421
0.0016145878
0.0016107838
0.0016070276
0.001603317
0.0015996497
0.0015960234
0.0015924366
0.0015888898
0.0015853877
0.0015819496
0.0015786027
0.0015754354
0.0015726883
0.0015711379
0.0015729761
0.0015788075
0.0015892527
0.0016305021
0.001721434
0.0017019792
0.0016967821
0.0016916387
0.0016865896
0.0016816388
0.0016767846
0.0016720231
0.0016673496
0.0016627597
0.0016582491
0.0016538142
0.0016494515
0.0016451581
0.001640931
0.0016367677
0.0016326657
0.0016286228
0.0016246353
0.0016207019
0.0016168206
0.0016129891
0.0016092051
0.0016054663
0.0016017703
0.0015981149
0.0015944985
0.0015909211
0.001587387
0.0015839139
0.0015805303
0.0015773171
0.0015745037
0.0015728136
0.0015745091
0.0015800342
0.0015902351
0.0016269378
0.0017228758
0.0017053409
0.0017001519
0.0016950334
0.0016899917
0.0016850382
0.0016801748
0.001675399
0.0016707074
0.001666096
0.0016615614
0.0016571
0.0016527091
0.0016483857
0.0016441273
0.0016399314
0.0016357958
0.0016317188
0.0016276961
0.0016237269
0.0016198091
0.0016159406
0.0016121191
0.0016083423
0.0016046078
0.0016009133
0.0015972569
0.0015936384
0.0015900613
0.0015865417
0.0015831095
0.0015798368
0.0015769408
0.001575089
0.0015765982
0.0015817687
0.0015916141
0.0016245619
0.0017201493
0.0017098358
0.0017046623
0.0016995585
0.0016945182
0.0016895578
0.0016846805
0.0016798847
0.0016751679
0.0016705273
0.0016659599
0.0016614629
0.0016570337
0.0016526699
0.0016483693
0.0016441297
0.001639949
0.0016358255
0.0016317562
0.0016277389
0.0016237722
0.0016198541
0.0016159824
0.0016121547
0.0016083686
0.0016046217
0.0016009119
0.0015972384
0.0015936042
0.0015900229
0.0015865265
0.001583177
0.0015801781
0.0015781405
0.0015793907
0.0015841599
0.0015935329
0.0016233002
0.0017150986
0.0017157788
0.0017106814
0.0017055647
0.0017005128
0.0016955385
0.0016906405
0.001685817
0.0016810666
0.0016763872
0.0016717765
0.0016672325
0.0016627532
0.0016583366
0.0016539808
0.001649684
0.0016454443
0.0016412602
0.0016371301
0.0016330498
0.0016290193
0.0016250364
0.0016210989
0.0016172047
0.0016133512
0.0016095358
0.0016057561
0.0016020108
0.0015983021
0.0015946408
0.0015910606
0.001587613
0.0015844856
0.0015822367
0.0015830956
0.0015874318
0.0015962326
0.0016231401
0.0017088856
0.0017238442
0.0017186338
0.0017134949
0.0017084235
0.001703424
0.0016984938
0.0016936311
0.0016888349
0.0016841038
0.0016794364
0.0016748311
0.0016702867
0.0016658017
0.0016613747
0.0016570041
0.0016526885
0.0016484264
0.0016442173
0.0016400563
0.0016359437
0.0016318774
0.0016278553
0.0016238754
0.001619935
0.0016160313
0.0016121616
0.0016083238
0.0016045189
0.0016007552
0.0015970668
0.0015934948
0.0015902072
0.0015877187
0.001588013
0.0015918895
0.0016000431
0.0016241759
0.0017024815
0.0017364213
0.0017311143
0.0017259131
0.0017207892
0.0017157345
0.0017107422
0.0017058097
0.0017009359
0.0016961201
0.0016913615
0.0016866592
0.0016820127
0.0016774209
0.0016728832
0.0016683985
0.0016639657
0.0016595838
0.0016552517
0.0016509681
0.0016467297
0.0016425353
0.0016383836
0.0016342725
0.001630199
0.0016261602
0.0016221526
0.0016181732
0.0016142215
0.001610302
0.0016064476
0.001602689
0.0015991655
0.0015963525
0.0015958522
0.0015990854
0.0016063772
0.0016273775
0.0016954699
0.0017552232
0.0017498831
0.0017445894
0.0017393551
0.0017341847
0.001729072
0.001724013
0.0017190063
0.001714051
0.0017091465
0.0017042925
0.0016994888
0.0016947351
0.0016900309
0.0016853759
0.0016807694
0.0016762105
0.0016716984
0.0016672331
0.0016628117
0.0016584303
0.0016540896
0.0016497875
0.0016455206
0.0016412853
0.0016370775
0.0016328929
0.0016287283
0.0016245852
0.0016204848
0.0016164637
0.0016126133
0.0016093793
0.0016079112
0.0016103373
0.0016164842
0.0016345136
0.0016894737
0.0017794436
0.0017739566
0.0017685045
0.0017631004
0.001757754
0.0017524606
0.0017472163
0.00174202
0.0017368706
0.0017317678
0.0017267114
0.0017217014
0.0017167377
0.0017118202
0.0017069487
0.0017021228
0.001697342
0.0016926055
0.0016879127
0.0016832637
0.0016786523
0.0016740798
0.0016695429
0.0016650384
0.0016605621
0.001656109
0.0016516733
0.0016472489
0.0016428339
0.0016384319
0.0016340962
0.0016298604
0.0016261461
0.00162367
0.0016252659
0.0016301055
0.0016455993
0.0016871149
0.0018101027
0.0018043367
0.0017986322
0.0017929791
0.0017873811
0.0017818325
0.0017763296
0.0017708718
0.0017654588
0.0017600903
0.0017547662
0.0017494867
0.0017442517
0.0017390612
0.0017339151
0.0017288131
0.0017237546
0.0017187391
0.0017137657
0.0017088334
0.0017039413
0.0016990862
0.0016942625
0.0016894685
0.0016846996
0.0016799494
0.0016752103
0.0016704728
0.0016657309
0.0016609744
0.0016562617
0.0016515753
0.0016473102
0.0016437937
0.0016445324
0.0016479347
0.0016611184
0.0016899311
0.001848169
0.0018420827
0.0018360457
0.0018300532
0.0018241133
0.0018182213
0.0018123738
0.0018065705
0.0018008118
0.0017950976
0.0017894278
0.0017838029
0.0017782227
0.0017726873
0.0017671964
0.0017617498
0.001756347
0.0017509871
0.0017456692
0.0017403919
0.0017351555
0.0017299553
0.001724787
0.0017196445
0.0017145238
0.0017094178
0.0017043162
0.0016992058
0.0016940757
0.0016889039
0.0016837453
0.0016785391
0.0016736443
0.0016690708
0.0016688321
0.0016706542
0.0016816501
0.0016987707
0.0018949085
0.0018883931
0.0018819184
0.0018754842
0.0018691036
0.0018627729
0.001856488
0.0018502487
0.0018440553
0.0018379079
0.0018318068
0.0018257523
0.0018197446
0.0018137837
0.0018078693
0.0018020012
0.0017961786
0.0017904008
0.0017846666
0.0017789741
0.001773322
0.0017677069
0.0017621269
0.0017565733
0.0017510365
0.0017455105
0.0017399819
0.0017344338
0.0017288491
0.0017231975
0.0017175069
0.001711714
0.0017061038
0.0017005066
0.0016987253
0.0016988852
0.0017078563
0.0017142751
0.0019516694
0.0019445454
0.001937496
0.0019305047
0.0019235774
0.0019167059
0.0019098836
0.0019031094
0.0018963839
0.0018897071
0.0018830797
0.0018765022
0.001869975
0.0018634981
0.0018570715
0.0018506947
0.0018443672
0.0018380878
0.0018318552
0.0018256674
0.0018195221
0.0018134157
0.0018073438
0.0018013025
0.0017952789
0.0017892628
0.0017832344
0.0017771762
0.0017710643
0.00176486
0.0017585496
0.0017520979
0.0017456775
0.0017390912
0.0017349628
0.0017334984
0.0017406009
0.0017372606
0.0020196331
0.0020117985
0.0020040727
0.0019964182
0.0019888342
0.00198131
0.0019738378
0.001966417
0.0019590485
0.0019517331
0.0019444715
0.0019372648
0.0019301136
0.001923018
0.0019159782
0.0019089936
0.0019020637
0.0018951872
0.0018883625
0.0018815876
0.0018748593
0.0018681737
0.0018615251
0.0018549064
0.0018483103
0.0018417193
0.0018351128
0.0018284661
0.0018217478
0.0018149063
0.0018079032
0.0018007021
0.0017933755
0.0017857444
0.0017793193
0.0017760478
0.0017811791
0.0017689317
0.0021000942
0.0020915579
0.0020830762
0.0020746415
0.002066271
0.0020579621
0.002049709
0.0020415122
0.0020333737
0.0020252946
0.0020172763
0.0020093201
0.0020014269
0.001993597
0.0019858304
0.0019781269
0.0019704856
0.0019629053
0.001955384
0.0019479193
0.0019405077
0.0019331445
0.0019258232
0.0019185349
0.0019112685
0.0019040068
0.001896731
0.0018894058
0.001881991
0.0018744271
0.0018666545
0.0018585824
0.0018502737
0.0018414897
0.0018331016
0.001827268
0.0018303372
0.0018102118
0.0021951991
0.0021855657
0.0021760685
0.0021666584
0.0021573324
0.0021480804
0.0021388931
0.0021297708
0.0021207157
0.0021117297
0.0021028146
0.0020939718
0.0020852026
0.0020765074
0.0020678863
0.0020593388
0.0020508641
0.0020424605
0.0020341261
0.0020258578
0.0020176515
0.0020095018
0.0020014013
0.0019933397
0.0019853033
0.0019772728
0.0019692231
0.0019611173
0.0019529074
0.0019445256
0.0019358945
0.0019268491
0.0019174838
0.0019074267
0.001897348
0.0018876723
0.001888708
0.0018618285
0.0023058115
0.0022950602
0.0022844277
0.0022738783
0.0022634183
0.0022530417
0.0022427408
0.0022325165
0.0022223721
0.0022123101
0.0022023329
0.0021924422
0.0021826395
0.0021729254
0.0021632999
0.0021537625
0.002144312
0.0021349467
0.0021256641
0.0021164606
0.0021073315
0.0020982706
0.0020892693
0.0020803158
0.0020713943
0.002062483
0.0020535522
0.0020445597
0.0020354508
0.0020261413
0.002016546
0.0020064682
0.0019959202
0.0019845021
0.0019727838
0.0019594592
0.0019578029
0.0019250647
0.0024338618
0.0024216593
0.0024096181
0.002397685
0.0023858586
0.0023741311
0.002362494
0.0023509491
0.0023395011
0.0023281534
0.002316909
0.0023057704
0.0022947393
0.0022838164
0.0022730018
0.0022622947
0.0022516939
0.0022411971
0.0022308015
0.0022205028
0.0022102957
0.0022001729
0.0021901245
0.0021801373
0.0021701933
0.0021602677
0.002150327
0.0021403236
0.0021301953
0.0021198462
0.0021091727
0.0020979682
0.0020861206
0.0020732925
0.0020598345
0.0020438408
0.0020375721
0.0019999762
0.0025807466
0.0025668251
0.0025530837
0.0025394669
0.0025259742
0.0025125998
0.0024993366
0.0024861883
0.0024731611
0.0024602598
0.0024474881
0.0024348491
0.0024223447
0.0024099757
0.002397742
0.0023856426
0.0023736758
0.002361839
0.0023501285
0.0023385396
0.0023270658
0.0023156987
0.0023044271
0.0022932362
0.0022821056
0.0022710077
0.0022599051
0.0022487449
0.0022374578
0.0022259383
0.002214065
0.0022016181
0.0021884197
0.0021740677
0.0021588011
0.0021406796
0.0021289962
0.0020873489
0.0027483289
0.0027321902
0.0027162809
0.0027005359
0.0026849509
0.002669519
0.0026542335
0.0026390994
0.0026241242
0.0026093133
0.0025946709
0.0025802003
0.0025659032
0.00255178
0.0025378301
0.0025240519
0.002510443
0.0024969999
0.002483718
0.0024705914
0.0024576126
0.0024447719
0.0024320565
0.0024194494
0.0024069283
0.0023944623
0.0023820106
0.0023695153
0.0023569005
0.0023440526
0.0023308358
0.002317016
0.0023023872
0.0022864329
0.0022693476
0.0022491598
0.0022338661
0.0021871421
0.0029377505
0.0029188277
0.0029001855
0.0028817553
0.0028635324
0.0028455108
0.0028276863
0.0028100664
0.0027926601
0.0027754737
0.0027585115
0.0027417767
0.0027252703
0.0027089918
0.0026929398
0.0026771114
0.0026615029
0.0026461096
0.0026309255
0.0026159432
0.0026011536
0.0025865453
0.0025721036
0.0025578095
0.002543638
0.0025295556
0.0025155177
0.0025014625
0.0024873081
0.002472935
0.002458196
0.0024428498
0.0024266591
0.002409105
0.0023901638
0.002367942
0.0023501292
0.0022980976
0.003149973
0.00312751
0.0031053922
0.0030835512
0.0030619844
0.0030406872
0.0030196593
0.0029989117
0.0029784552
0.0029582965
0.0029384398
0.0029188875
0.0028996393
0.0028806932
0.002862046
0.0028436931
0.0028256287
0.0028078463
0.0027903377
0.0027730937
0.002756103
0.002739352
0.0027228238
0.0027064971
0.0026903444
0.0026743293
0.002658404
0.0026425034
0.0026265413
0.0026103945
0.0025939079
0.002576841
0.0025589321
0.0025396919
0.0025189438
0.0024947918
0.0024744918
0.0024211174
0.0033860748
0.0033590005
0.0033323686
0.003306118
0.0032802476
0.0032547516
0.0032296341
0.0032049088
0.0031805864
0.0031566722
0.003133169
0.0031100765
0.0030873919
0.0030651103
0.0030432253
0.0030217296
0.0030006145
0.0029798705
0.0029594868
0.0029394512
0.00291975
0.0029003669
0.0028812823
0.0028624722
0.0028439065
0.0028255465
0.0028073416
0.0027892242
0.0027711057
0.0027528622
0.0027343355
0.0027152922
0.0026954618
0.0026743872
0.0026518524
0.0026260166
0.0026031068
0.0025509403
0.0036377669
0.0036049054
0.0035726024
0.0035408202
0.0035095629
0.0034788231
0.0034486104
0.0034189414
0.0033898247
0.0033612632
0.0033332565
0.0033058005
0.0032788882
0.0032525107
0.0032266577
0.0032013178
0.0031764787
0.0031521271
0.0031282487
0.0031048281
0.0030818482
0.0030592895
0.0030371296
0.0030153416
0.0029938929
0.0029727423
0.0029518375
0.0029311098
0.0029104702
0.0028897972
0.0028689351
0.0028476638
0.0028257186
0.0028026905
0.0027783274
0.0027511225
0.0027258196
0.0026765651
0.0038869659
0.0038472963
0.0038083078
0.0037700023
0.0037323941
0.0036954754
0.003659265
0.0036237837
0.0035890384
0.0035550293
0.003521753
0.0034892013
0.0034573628
0.0034262243
0.0033957712
0.0033659874
0.0033368564
0.0033083607
0.0032804816
0.0032531996
0.0032264935
0.0032003402
0.0031747135
0.0031495834
0.0031249142
0.0031006626
0.0030767747
0.0030531817
0.0030297959
0.0030065006
0.0029831476
0.002959534
0.0029354125
0.0029104306
0.0028843186
0.0028559425
0.0028286733
0.002783448
0.0041237708
0.0040763273
0.0040296536
0.0039838335
0.0039389081
0.0038948793
0.0038517831
0.0038096482
0.0037684812
0.0037282812
0.0036890417
0.0036507498
0.0036133889
0.0035769399
0.0035413819
0.0035066929
0.0034728496
0.0034398281
0.0034076036
0.0033761503
0.0033454411
0.0033154472
0.0032861372
0.0032574764
0.003229425
0.0032019365
0.0031749552
0.0031484119
0.003122221
0.0030962714
0.0030704246
0.0030444972
0.0030182645
0.0029914322
0.0029637243
0.0029343853
0.0029054329
0.0028647053
0.0043474431
0.0042907498
0.00423499
0.0041803477
0.0041268878
0.0040746259
0.0040236191
0.0039739016
0.0039254764
0.0038783367
0.0038324671
0.0037878442
0.0037444398
0.0037022232
0.0036611618
0.0036212219
0.0035823692
0.003544569
0.0035077862
0.0034719854
0.0034371303
0.0034031838
0.0033701068
0.0033378577
0.0033063908
0.0032756552
0.0032455919
0.0032161307
0.0031871877
0.0031586574
0.0031304116
0.0031022858
0.0030740809
0.0030455565
0.0030164382
0.0029863227
0.0029559852
0.0029195956
0.0045579154
0.0044900659
0.0044234204
0.0043583557
0.0042949707
0.0042332857
0.0041733589
0.0041152039
0.0040587975
0.0040041076
0.0039510935
0.0038997077
0.0038498997
0.003801618
0.0037548108
0.0037094265
0.0036654144
0.0036227243
0.0035813071
0.003541114
0.0035020969
0.0034642074
0.0034273965
0.0033916137
0.0033568058
0.0033229155
0.0032898795
0.0032576256
0.0032260702
0.0031951126
0.0031646341
0.0031344868
0.0031044966
0.0030744691
0.0030441382
0.0030133987
0.002981976
0.0029493875
0.0047551783
0.0046740366
0.0045948696
0.0045181115
0.0044437697
0.0043718021
0.0043022255
0.004235006
0.0041700784
0.0041073743
0.0040468199
0.0039883371
0.0039318477
0.0038772747
0.0038245428
0.0037735787
0.0037243116
0.0036766727
0.0036305955
0.0035860155
0.0035428697
0.0035010964
0.0034606343
0.003421422
0.0033833969
0.0033464937
0.003310643
0.0032757686
0.0032417862
0.0032085971
0.0031760904
0.003144131
0.0031125671
0.003081239
0.0030498946
0.0030186577
0.0029864361
0.0029569336
0.0049408472
0.0048454327
0.0047526688
0.0046631688
0.0045768844
0.0044937347
0.0044137016
0.0043367009
0.0042626225
0.0041913575
0.0041227939
0.0040568181
0.0039933193
0.00393219
0.0038733268
0.0038166299
0.0037620042
0.0037093582
0.0036586043
0.0036096584
0.0035624397
0.0035168698
0.0034728724
0.0034303727
0.0033892961
0.0033495671
0.0033111079
0.0032738361
0.0032376639
0.0032024923
0.0031682149
0.0031347043
0.0031018269
0.0030694452
0.0030373259
0.0030057476
0.0029730374
0.0029459221
0.0051160421
0.0050056029
0.0048982673
0.0047949811
0.0046957127
0.0046004037
0.0045090291
0.0044214656
0.0043375611
0.004257164
0.0041801182
0.0041062682
0.0040354635
0.0039675591
0.0039024162
0.0038399027
0.0037798928
0.0037222669
0.0036669114
0.0036137182
0.0035625844
0.0035134115
0.0034661048
0.0034205729
0.0033767264
0.003334477
0.003293736
0.003254412
0.0032164111
0.0031796304
0.0031439645
0.0031092881
0.0030754813
0.0030424147
0.0030098787
0.0029782324
0.0029454499
0.0029201835
0.0052803335
0.0051530468
0.0050295084
0.0049110302
0.0047975696
0.0046890851
0.0045855279
0.0044867181
0.0043924478
0.0043025086
0.004216688
0.0041347765
0.0040565729
0.003981885
0.00391053
0.0038423353
0.0037771375
0.0037147827
0.0036551258
0.0035980297
0.0035433652
0.0034910098
0.0034408471
0.0033927659
0.0033466592
0.0033024228
0.0032599543
0.0032191505
0.0031799081
0.0031421162
0.0031056663
0.0030704287
0.0030362914
0.0030031188
0.002970729
0.002939487
0.0029072379
0.002883494
0.0054330686
0.0052857398
0.0051433972
0.0050076747
0.0048784235
0.00475555
0.0046389082
0.0045282077
0.0044231442
0.0043234193
0.0042287367
0.0041388112
0.0040533729
0.003972167
0.0038949542
0.0038215103
0.0037516258
0.0036851046
0.0036217633
0.0035614304
0.0035039454
0.003449157
0.003396923
0.0033471083
0.0032995843
0.0032542269
0.0032109159
0.0031695317
0.0031299564
0.0030920658
0.0030557415
0.0030208411
0.0029872534
0.0029548194
0.002923389
0.0028932555
0.0028623666
0.0028400025
0.0055723662
0.0054013299
0.005237162
0.0050817792
0.0049348542
0.0047961776
0.0046654331
0.0045421603
0.0044259084
0.0043162468
0.0042127617
0.0041150629
0.0040227874
0.0039355973
0.0038531797
0.0037752448
0.0037015243
0.0036317696
0.0035657497
0.0035032501
0.0034440706
0.0033880237
0.0033349332
0.0032846326
0.0032369638
0.0031917749
0.0031489194
0.0031082527
0.0030696336
0.003032915
0.0029979591
0.0029646
0.0029327169
0.0029021096
0.0028726631
0.0028445213
0.0028159717
0.0027949562
0.0056960889
0.00549756
0.0053083843
0.0051307422
0.0049641017
0.0048080936
0.0046621681
0.0045256457
0.0043978834
0.0042782743
0.0041662464
0.0040612721
0.0039628677
0.0038705889
0.0037840282
0.0037028115
0.0036265944
0.0035550586
0.0034879091
0.0034248715
0.0033656897
0.0033101232
0.0032579456
0.003208943
0.0031629122
0.0031196583
0.0030789939
0.0030407361
0.0030047077
0.0029707274
0.0029386274
0.0029082069
0.0028793266
0.0028517296
0.0028253424
0.0028000907
0.0027748298
0.0027551413
0.0058046946
0.0055737894
0.005355538
0.0051523868
0.0049635801
0.0047885126
0.0046263059
0.0044759815
0.0043366333
0.0042074188
0.0040875611
0.0039763539
0.0038731563
0.003777384
0.0036885025
0.0036060194
0.0035294793
0.0034584591
0.0033925644
0.003331426
0.0032746982
0.0032220563
0.0031731961
0.0031278314
0.0030856914
0.0030465189
0.0030100712
0.0029761152
0.0029444321
0.0029148019
0.0028870227
0.0028608552
0.0028361409
0.0028125626
0.0027901041
0.0027684237
0.0027471524
0.0027286551
0.0059003322
0.0056295263
0.0053764002
0.0051434596
0.0049295523
0.0047336193
0.0045542634
0.0043900684
0.0042397579
0.0041021717
0.0039762589
0.0038610697
0.003755737
0.0036594618
0.003571502
0.0034911676
0.003417813
0.0033508354
0.0032896746
0.0032338095
0.0031827574
0.0031360768
0.0030933594
0.0030542259
0.0030183266
0.0029853408
0.0029549776
0.0029269664
0.0029010689
0.0028770384
0.0028546457
0.0028336238
0.0028138087
0.0027948405
0.0027767829
0.0027589959
0.0027420835
0.0027244358
0.0059825991
0.0056615267
0.0053660012
0.0050981864
0.0048561574
0.0046380095
0.0044415527
0.0042647587
0.0041058445
0.0039631977
0.0038353385
0.003720893
0.0036185698
0.0035271548
0.0034455139
0.0033725962
0.0033074326
0.0032491515
0.003196964
0.0031501646
0.0031081187
0.0030702922
0.0030361873
0.0030053512
0.0029773921
0.0029519757
0.0029288173
0.0029076593
0.0028882999
0.0028704618
0.0028538967
0.0028383443
0.0028236635
0.0028094908
0.0027959661
0.0027821507
0.0027697606
0.0027524076
0.0060467944
0.0056623908
0.0053157691
0.0050078751
0.0047354688
0.0044954009
0.0042844613
0.0040997874
0.0039387593
0.0037988542
0.0036776346
0.0035727718
0.0034820744
0.0034035586
0.0033354532
0.0032762086
0.0032244906
0.0031792236
0.0031394553
0.0031043825
0.0030733419
0.0030458731
0.0030214187
0.0029995343
0.002979894
0.0029622534
0.0029464163
0.0029321955
0.0029194946
0.0029077269
0.0028967159
0.0028863691
0.0028766187
0.0028671902
0.0028581355
0.002848439
0.0028406532
0.0028224789
0.0060871893
0.0056228932
0.0052145656
0.004861493
0.0045589901
0.0043023996
0.0040869028
0.003907674
0.003759729
0.0036380313
0.0035378926
0.0034551293
0.0033861942
0.0033283421
0.0032793395
0.003237443
0.0032013564
0.0031702471
0.0031431923
0.003119586
0.0030990107
0.0030813643
0.0030653986
0.0030510174
0.0030382808
0.0030271949
0.0030177097
0.0030097257
0.0030031297
0.0029977544
0.0029933715
0.0029897104
0.0029865394
0.002983455
0.0029804013
0.0029760302
0.0029739801
0.0029551878
0.0060987711
0.0055442641
0.0050711849
0.0046782526
0.0043596546
0.0041078266
0.0039129611
0.0037640385
0.0036501024
0.0035615799
0.0034913602
0.0034341086
0.0033862746
0.003345901
0.0033111917
0.0032810949
0.0032550772
0.0032330406
0.0032133922
0.0031962292
0.0031817013
0.0031698678
0.003160548
0.0031534564
0.0031483836
0.0031451757
0.0031436936
0.0031437847
0.0031452742
0.0031479387
0.0031515127
0.003155663
0.0031600415
0.0031641362
0.0031676915
0.0031691858
0.0031727403
0.0031539273
0.0060900332
0.0054473336
0.0049198606
0.0045076065
0.0042010885
0.0039833766
0.0038322613
0.0037263201
0.0036485313
0.0035876035
0.0035377046
0.0034946816
0.0034570608
0.0034247309
0.0033957475
0.0033701413
0.003348297
0.0033304036
0.0033162391
0.0033054284
0.0032977281
0.0032929989
0.0032910413
0.0032916163
0.0032944835
0.0032994132
0.0033061798
0.0033145453
0.0033242524
0.0033350022
0.0033464523
0.0033581801
0.0033697176
0.0033804483
0.0033899153
0.0033965452
0.0034044406
0.0033860679
0.006058018
0.005316366
0.0047489258
0.0043553973
0.0041076257
0.0039611534
0.0038710843
0.0038073939
0.0037540373
0.0037053051
0.0036612887
0.0036194743
0.0035817412
0.0035494129
0.0035227032
0.0035012502
0.0034847367
0.0034729736
0.0034656389
0.0034623535
0.003462755
0.0034665384
0.003473396
0.0034830067
0.0034950416
0.0035091696
0.003525057
0.0035423592
0.003560716
0.0035797241
0.0035989659
0.0036179287
0.0036360446
0.0036525966
0.0036669655
0.0036776701
0.0036879881
0.0036716767
0.00599616
0.0051569617
0.004599518
0.0042990817
0.0041649103
0.0041034158
0.0040552291
0.0040027453
0.0039441716
0.0038844217
0.0038295339
0.0037820505
0.0037423751
0.0037105931
0.0036863682
0.0036691177
0.0036582205
0.0036531352
0.0036533013
0.003658147
0.0036671172
0.0036797035
0.0036954379
0.003713867
0.0037345386
0.0037570037
0.0037808219
0.0038055574
0.0038307748
0.0038560065
0.0038807928
0.0039045682
0.0039267717
0.0039465847
0.0039634818
0.0039759768
0.0039860345
0.0039745274
0.0059033076
0.0050046902
0.0045718006
0.0044564198
0.0044430299
0.0044157184
0.0043485068
0.0042598546
0.0041697635
0.0040881289
0.0040188861
0.0039627292
0.0039189302
0.0038864094
0.0038639608
0.0038503709
0.0038444996
0.003845333
0.0038519587
0.0038635324
0.0038792691
0.0038984592
0.0039204674
0.0039447011
0.0039705989
0.0039976404
0.0040253508
0.0040532863
0.0040810253
0.0041081338
0.0041341963
0.0041586572
0.0041811368
0.004200652
0.0042172621
0.0042289113
0.004236668
0.004233445
0.0057828265
0.0049601106
0.0048257416
0.0049080406
0.0049167464
0.0048184185
0.0046706192
0.0045185877
0.0043839169
0.0042727631
0.0041847369
0.0041172204
0.0040671841
0.0040318839
0.0040089868
0.0039964866
0.0039926324
0.0039959059
0.0040050084
0.0040188315
0.0040364182
0.0040569641
0.004079753
0.0041041081
0.0041294363
0.0041552518
0.0041811565
0.0042067956
0.0042318524
0.0042560046
0.0042789763
0.0043002613
0.004319845
0.0043364068
0.0043512565
0.0043606607
0.0043663798
0.0043757085
0.0056687718
0.0052157799
0.0054683087
0.0055954593
0.0054632763
0.005202561
0.0049295499
0.0046948755
0.0045081964
0.0043640844
0.0042546183
0.0041727885
0.0041128927
0.0040705129
0.0040422137
0.0040252437
0.0040173496
0.0040166753
0.0040216994
0.0040311875
0.0040441312
0.0040597512
0.0040772774
0.0040959886
0.0041153669
0.0041350464
0.0041547481
0.0041742233
0.0041932894
0.004211744
0.0042295069
0.0042461125
0.0042620678
0.004275471
0.0042896283
0.0042976638
0.0043046639
0.0043313802
0.0056670204
0.0059333947
0.0064303151
0.0063558429
0.0059085986
0.0054073601
0.0049887479
0.0046703873
0.0044330424
0.0042554011
0.0041218622
0.0040215802
0.003946767
0.0038917208
0.0038521291
0.0038246611
0.0038067186
0.0037962643
0.0037916906
0.0037917326
0.0037953889
0.0038019085
0.0038105732
0.0038207292
0.003831907
0.0038437779
0.0038561146
0.0038687301
0.0038815735
0.0038945628
0.0039078632
0.0039210058
0.0039351223
0.0039475383
0.0039642011
0.0039737614
0.0039875582
0.0040361744
0.0059374872
0.0070866224
0.0075324992
0.0068936997
0.0059824035
0.0052264155
0.0046846164
0.0043034981
0.0040290853
0.0038263821
0.0036742419
0.0035591639
0.0034718474
0.0034056156
0.0033555596
0.0033180161
0.0032902317
0.0032701223
0.0032560878
0.0032468928
0.0032415771
0.0032394177
0.0032397987
0.0032421655
0.0032460783
0.0032512204
0.0032573869
0.0032644356
0.0032724728
0.0032815173
0.003291945
0.0033032895
0.0033172912
0.0033305682
0.0033517381
0.0033647221
0.0033889336
0.0034583049
0.0064732678
0.008519522
0.0082610809
0.00673943
0.0053709935
0.0044513226
0.0038625646
0.0034676401
0.0031880715
0.0029824898
0.0028279498
0.0027103964
0.0026204001
0.0025512701
0.0024981083
0.0024572709
0.0024260315
0.0024023392
0.0023846296
0.0023717037
0.0023626384
0.002356736
0.0023534364
0.002352261
0.0023528231
0.0023548392
0.0023581288
0.0023626144
0.0023686025
0.002376183
0.0023858198
0.0023970851
0.0024120936
0.0024271751
0.0024525566
0.0024692299
0.0025029634
0.002585247
0.0068869642
0.0092515482
0.0078205401
0.0055650115
0.0040294474
0.0031492334
0.0026317713
0.0022998194
0.0020708879
0.0019056712
0.0017831785
0.0016908826
0.0016206339
0.0015668135
0.0015254073
0.0014934891
0.0014689036
0.0014500496
0.0014357217
0.0014250066
0.0014172072
0.0014117975
0.0014083661
0.0014065724
0.0014061417
0.0014068717
0.001408628
0.0014114252
0.0014157511