/*--------------------------------*- C++ -*----------------------------------*\
  =========                 |
  \\      /  F ield         | OpenFOAM: The Open Source CFD Toolbox
   \\    /   O peration     | Website:  https://openfoam.org
    \\  /    A nd           | Version:  7
     \\/     M anipulation  |
\*---------------------------------------------------------------------------*/
FoamFile
{
    version     2.0;
    format      ascii;
    class       volSymmTensorField;
    location    "2000";
    object      Rall;
}
// * * * * * * * * * * * * * * * * * * * * * * * * * * * * * * * * * * * * * //

dimensions      [0 2 -2 0 0 0 0];

internalField   nonuniform List<symmTensor> 
15296
(
(0.0011401708 5.2044372e-06 1.2354087e-15 0.0011263036 2.3803779e-16 0.0011211388)
(0.0011235796 2.1538968e-06 1.2077004e-15 0.0011262399 2.2179845e-16 0.0011269676)
(0.001117481 1.7436644e-06 -1.2141295e-15 0.0011235208 7.2793979e-17 0.0011253162)
(0.0011122284 1.5037299e-06 2.4472456e-15 0.0011207031 1.8606648e-16 0.0011232215)
(0.0011072901 1.3037361e-06 -1.2343406e-15 0.0011179099 -1.529487e-16 0.0011210467)
(0.0011032029 1.1423656e-06 2.4925972e-15 0.0011149614 2.4528046e-16 0.0011184071)
(0.0010997549 1.0136364e-06 1.2645472e-15 0.0011119109 2.0012595e-16 0.0011154408)
(0.00109668 9.0889233e-07 2.4117535e-18 0.0011088321 -7.5014641e-17 0.0011123251)
(0.0010938714 8.2337969e-07 -4.5532745e-19 0.0011057509 -2.0374189e-16 0.0011091283)
(0.0010912563 7.5385266e-07 1.3176417e-15 0.0011026841 5.0547127e-17 0.0011058957)
(0.0010887671 6.9705296e-07 -8.1138986e-20 0.0010996482 -1.7845681e-16 0.001102669)
(0.0010863573 6.5023532e-07 -3.2472397e-19 0.0010966538 -6.0698831e-17 0.0010994757)
(0.001084001 6.1142678e-07 -1.3819694e-15 0.0010937056 -2.6368514e-16 0.0010963294)
(0.0010816847 5.7926846e-07 1.402031e-15 0.001090805 2.2298695e-16 0.0010932357)
(0.0010794036 5.5293994e-07 3.3792149e-19 0.0010879506 -1.1928924e-16 0.0010901942)
(0.0010771601 5.3221705e-07 2.8918034e-15 0.0010851394 1.8111985e-16 0.0010872002)
(0.0010749623 5.1756123e-07 -5.6788663e-19 0.0010823654 2.9144852e-16 0.0010842439)
(0.0010728263 5.1026806e-07 1.4947265e-15 0.0010796218 3.2554707e-16 0.0010813125)
(0.0010707748 5.1275394e-07 2.0581313e-18 0.0010768989 9.7267371e-17 0.0010783877)
(0.0010688406 5.2904004e-07 6.3092129e-19 0.0010741838 -1.1640792e-16 0.001075445)
(0.0010670704 5.6552294e-07 -1.6723007e-18 0.0010714588 -8.1757443e-17 0.0010724506)
(0.0010655304 6.3217332e-07 -1.2665135e-18 0.0010686996 8.712269e-17 0.0010693579)
(0.0010643159 7.4446188e-07 1.6309234e-15 0.001065872 2.0808087e-16 0.0010661011)
(0.0010635647 9.2633875e-07 -1.6608371e-15 0.0010629272 -2.4308972e-16 0.0010625865)
(0.0010634796 1.215338e-06 1.0706504e-18 0.0010597948 -1.2137522e-16 0.0010586779)
(0.0010643601 1.6704265e-06 -3.4869937e-15 0.0010563719 -4.6025099e-16 0.0010541763)
(0.0010666643 2.3875421e-06 -1.7969466e-15 0.0010525046 -2.1409773e-16 0.0010487806)
(0.0010710825 3.5222583e-06 1.9413844e-19 0.0010479646 1.0484655e-16 0.0010420425)
(0.0010787475 5.3483409e-06 1.2332962e-18 0.0010423942 4.3092034e-17 0.0010332347)
(0.001091367 8.329985e-06 -2.0514305e-15 0.0010352443 -2.7393467e-17 0.0010212524)
(0.00111216 1.3410097e-05 1.2811659e-18 0.0010255835 -2.5346777e-16 0.0010040486)
(0.0011459265 2.2230806e-05 3.316379e-18 0.0010121285 7.7690084e-17 0.00097871741)
(0.0012039118 3.8773697e-05 -2.7572995e-15 0.00099249272 -3.6936371e-16 0.00093841866)
(0.0012472814 5.2601076e-05 -2.297615e-15 0.00097821045 -4.9072345e-16 0.0009142405)
(0.0012534952 5.5168623e-05 -5.5369732e-18 0.00097380792 -9.2195843e-17 0.00092654715)
(0.0012628934 6.2323045e-05 9.0669235e-19 0.0009663254 2.9420238e-17 0.00095082484)
(0.0013150246 5.1261503e-05 3.5337699e-16 0.00096921336 4.1725077e-16 0.0010236586)
(0.0013551714 0.00010773003 -1.2685319e-17 0.00096128099 -4.7532522e-16 0.0011155536)
(0.0011386377 1.135899e-05 -1.5269596e-18 0.0011253192 7.3454641e-17 0.0011237765)
(0.0011234761 5.2229119e-06 -4.0293944e-16 0.001126757 2.008662e-17 0.0011266689)
(0.0011174998 4.1916395e-06 4.0439751e-16 0.0011244341 7.7326666e-17 0.0011245059)
(0.001112278 3.7216865e-06 -1.5708314e-18 0.0011219268 5.5704459e-17 0.0011220733)
(0.0011073583 3.3824422e-06 -4.1349925e-16 0.001119405 -6.961911e-17 0.001119611)
(0.0011032785 3.1267621e-06 -2.3948001e-18 0.001116593 9.1791703e-17 0.0011168298)
(0.0010998308 2.9321989e-06 4.2347217e-16 0.0011135802 1.0382672e-16 0.0011138276)
(0.0010967525 2.7794619e-06 3.3715151e-18 0.0011104857 -1.1116629e-17 0.0011107329)
(0.0010939384 2.6562886e-06 -4.3430743e-16 0.0011073539 -1.0816164e-16 0.0011075938)
(0.0010913168 2.5551676e-06 -4.427199e-16 0.0011042141 -4.3320573e-17 0.0011044422)
(0.0010888209 2.4706428e-06 -4.4866357e-16 0.0011010939 -1.4140362e-16 0.0011013079)
(0.0010864044 2.3986613e-06 9.0631198e-16 0.0010980115 7.8441652e-18 0.0010982105)
(0.0010840418 2.3363481e-06 4.5912534e-16 0.0010949756 -2.5756373e-17 0.0010951595)
(0.0010817196 2.2816587e-06 4.6968916e-16 0.0010919893 1.1099178e-16 0.0010921583)
(0.0010794329 2.2331164e-06 -4.7495339e-16 0.0010890519 -9.7359905e-17 0.0010892064)
(0.0010771842 2.1896816e-06 4.8048438e-16 0.0010861594 1.242268e-16 0.0010862998)
(0.0010749816 2.1506807e-06 4.9023023e-16 0.0010833041 1.4858152e-16 0.0010834303)
(0.001072841 2.1157829e-06 1.4998665e-19 0.0010804765 1.8017201e-16 0.0010805881)
(0.0010707851 2.0850426e-06 2.0642998e-18 0.0010776631 4.1814476e-17 0.0010777589)
(0.0010688468 2.0590267e-06 5.1511675e-16 0.0010748454 -1.6950502e-18 0.0010749235)
(0.0010670727 2.0390538e-06 -3.7944606e-18 0.0010719984 -2.2938275e-17 0.0010720555)
(0.0010655293 2.0275786e-06 -1.1571727e-18 0.0010690874 1.5945231e-17 0.0010691186)
(0.0010643118 2.0288236e-06 2.0796013e-18 0.0010660635 6.8736536e-17 0.0010660613)
(0.0010635588 2.0497218e-06 2.8084537e-18 0.0010628571 -8.2524868e-17 0.0010628107)
(0.0010634739 2.1015445e-06 -1.1305468e-15 0.0010593667 -6.374001e-17 0.0010592601)
(0.0010643584 2.2021702e-06 -1.9290683e-18 0.0010554444 -1.4990316e-16 0.0010552542)
(0.0010666743 2.3807864e-06 1.1896869e-15 0.0010508663 -1.4459709e-18 0.0010505575)
(0.0010711198 2.6832195e-06 6.1705438e-16 0.001045299 8.6812549e-17 0.0010448192)
(0.001078845 3.1884821e-06 1.0174192e-18 0.0010382059 1.1497371e-17 0.0010374728)
(0.0010915976 4.0178962e-06 6.8078083e-16 0.0010287621 1.5748735e-17 0.0010276484)
(0.0011126881 5.410017e-06 7.2791112e-16 0.0010154786 -6.0297782e-17 0.0010137621)
(0.0011471372 7.6786843e-06 7.97722e-16 0.00099621258 9.2557593e-17 0.00099353596)
(0.0012067149 1.1662419e-05 9.8447959e-19 0.00096627471 -7.0660596e-17 0.00096188501)
(0.0012576466 1.4824461e-05 -7.6675457e-16 0.00094371325 -2.0100788e-16 0.00093833426)
(0.0012633961 1.2785024e-05 4.4339367e-16 0.0009468757 -1.8646538e-17 0.00094340367)
(0.001273068 1.9134721e-05 2.3174517e-16 0.00095349437 2.2374989e-17 0.00095264707)
(0.0013246513 -1.6957135e-05 2.8664978e-18 0.0009879547 6.6359208e-17 0.00099514516)
(0.0013352026 1.1992963e-05 2.6577662e-17 0.00089618638 -2.1788685e-16 0.0011544737)
(0.0011372318 1.6979465e-05 -1.0950821e-18 0.001126371 3.5039216e-17 0.001124383)
(0.0011232223 8.7181352e-06 4.8405282e-16 0.0011271547 2.8746129e-17 0.0011267747)
(0.0011174178 6.8727248e-06 -2.4384119e-16 0.0011247227 -3.6210488e-18 0.0011245575)
(0.0011122233 6.100544e-06 -2.4800812e-16 0.0011222109 -4.5355019e-17 0.0011221053)
(0.0011073125 5.5744457e-06 2.4618571e-16 0.0011196975 -1.0245469e-17 0.0011196282)
(0.0011032403 5.1841963e-06 -2.5235596e-16 0.0011168864 4.4317464e-17 0.0011168403)
(0.0010998006 4.8903846e-06 2.8444124e-19 0.0011138683 7.2139507e-17 0.0011138368)
(0.0010967304 4.6615572e-06 -2.537491e-16 0.0011107653 -3.0244115e-17 0.0011107434)
(0.0010939242 4.4774775e-06 -5.2115772e-16 0.0011076232 -1.2239247e-16 0.0011076076)
(0.0010913103 4.3260268e-06 -2.6718192e-16 0.001104472 -7.9509061e-17 0.0011044603)
(0.0010888216 4.1988085e-06 -3.4938546e-20 0.0011013401 -1.2298948e-16 0.0011013307)
(0.0010864119 4.0897177e-06 -5.470342e-16 0.0010982461 -4.3273762e-17 0.0010982381)
(0.0010840555 3.9944437e-06 -2.7983872e-16 0.0010951992 -2.0303529e-17 0.0010951918)
(0.0010817391 3.9099177e-06 7.348886e-19 0.0010922023 3.9943977e-17 0.0010921952)
(0.0010794577 3.833868e-06 2.8786612e-16 0.0010892549 -7.3209589e-17 0.0010892477)
(0.0010772138 3.7645586e-06 -2.3048299e-18 0.0010863529 8.4984344e-17 0.0010863452)
(0.0010750155 3.7006245e-06 -5.9024396e-16 0.0010834884 7.0952597e-17 0.00108348)
(0.0010728789 3.6409605e-06 -1.4224754e-18 0.0010806517 1.2531426e-16 0.0010806421)
(0.0010708268 3.5846601e-06 -3.0243577e-16 0.0010778289 -1.1366529e-17 0.0010778177)
(0.0010688919 3.5310131e-06 -3.1005824e-16 0.0010750014 -3.7186013e-17 0.0010749877)
(0.001067121 3.4795652e-06 -3.2050793e-16 0.0010721437 -4.7175539e-17 0.0010721264)
(0.0010655803 3.4302398e-06 3.1872157e-16 0.0010692204 4.3170431e-17 0.0010691978)
(0.0010643653 3.3835651e-06 3.2818415e-16 0.001066182 9.5768239e-17 0.0010661516)
(0.001063614 3.3409946e-06 -3.2937219e-16 0.0010629576 -4.3990339e-17 0.0010629159)
(0.0010635298 3.3055073e-06 3.0614381e-18 0.0010594445 -3.854056e-17 0.0010593862)
(0.001064413 3.2822691e-06 -1.7791103e-18 0.0010554926 -1.2812564e-16 0.0010554097)
(0.0010667243 3.280367e-06 -3.6264509e-16 0.0010508751 1.6376212e-17 0.0010507556)
(0.0010711589 3.313636e-06 3.6931252e-16 0.0010452542 9.1440395e-17 0.0010450797)
(0.0010788627 3.4070196e-06 -3.8566177e-16 0.0010380859 2.4892206e-17 0.0010378271)
(0.0010915722 3.5923626e-06 -4.0407738e-16 0.0010285364 1.1326098e-17 0.0010281468)
(0.0011125824 3.9405043e-06 -4.3433784e-16 0.0010150924 -7.2735424e-17 0.0010144909)
(0.0011468567 4.478542e-06 4.7787194e-16 0.00099559477 9.0025998e-17 0.00099464412)
(0.0012060904 5.4320339e-06 -5.3238757e-16 0.00096524989 -1.0843792e-16 0.00096367283)
(0.0012581942 5.8026228e-06 -4.620621e-16 0.00094195445 -2.0100423e-16 0.00093958745)
(0.0012637881 2.1215528e-06 -1.1595885e-18 0.00094624782 -3.0737087e-17 0.00094352278)
(0.0012733181 1.2359426e-05 1.4199089e-16 0.00095489796 5.7985603e-17 0.00095010124)
(0.0013217938 -3.8589645e-05 7.2334085e-17 0.00099714185 4.7557437e-17 0.00098921771)
(0.0012885201 7.2662225e-06 2.6168734e-17 0.00086947942 -1.5572369e-16 0.0011147273)
(0.0011358798 2.1529502e-05 -1.6126912e-19 0.0011276014 1.9167474e-17 0.0011248754)
(0.0011228899 1.2240227e-05 -1.7254554e-16 0.001127684 -1.2240477e-18 0.0011269569)
(0.0011173475 9.5786035e-06 -1.7330391e-16 0.0011250419 -6.692415e-17 0.0011246959)
(0.0011122215 8.4768001e-06 1.7380595e-16 0.0011224727 -6.2913443e-17 0.0011222357)
(0.0011073416 7.7543106e-06 -1.4691573e-18 0.0011199338 1.1139127e-17 0.0011197552)
(0.001103288 7.2226314e-06 -1.8083018e-18 0.0011171069 2.5553357e-17 0.0011169656)
(0.0010998604 6.8232267e-06 1.8050182e-16 0.0011140781 6.8282614e-17 0.0011139611)
(0.0010967982 6.5124506e-06 1.8656052e-16 0.0011109677 -1.9302929e-17 0.0011108671)
(0.0010939974 6.262376e-06 3.254111e-19 0.0011078202 -8.7207407e-17 0.0011077309)
(0.0010913873 6.0564101e-06 -1.9210315e-16 0.0011046649 -7.5318031e-17 0.0011045833)
(0.0010889011 5.8831386e-06 1.9156744e-16 0.0011015297 -5.4065e-17 0.0011014535)
(0.0010864933 5.7342782e-06 -4.5242363e-19 0.001098433 -5.7112281e-17 0.0010983607)
(0.0010841381 5.6039863e-06 -2.0013718e-16 0.0010953836 -6.5863906e-17 0.0010953141)
(0.0010818224 5.4881103e-06 2.0211196e-16 0.0010923847 1.8084581e-17 0.0010923171)
(0.0010795415 5.3835726e-06 3.6682262e-18 0.0010894354 -5.3378595e-17 0.0010893693)
(0.0010772976 5.2880029e-06 -2.0850471e-16 0.0010865316 1.5748329e-17 0.0010864665)
(0.0010750992 5.1995017e-06 -2.1081153e-16 0.0010836655 2.8410423e-17 0.0010836009)
(0.0010729619 5.1164721e-06 2.1104402e-16 0.0010808273 1.016626e-16 0.0010807629)
(0.0010709087 5.0375001e-06 1.1693968e-18 0.0010780033 -7.9635864e-18 0.0010779385)
(0.0010689721 4.9612962e-06 -2.2099837e-16 0.0010751747 -9.3495569e-17 0.0010751088)
(0.0010671986 4.8866866e-06 -2.3140164e-16 0.0010723162 -6.1595295e-17 0.0010722482)
(0.0010656542 4.8126453e-06 -1.169315e-18 0.0010693925 6.5615087e-17 0.0010693212)
(0.0010644338 4.7383899e-06 -2.317218e-16 0.0010663541 8.6998077e-17 0.0010662777)
(0.0010636746 4.6635086e-06 4.7789722e-16 0.0010631306 2.2872637e-17 0.0010630463)
(0.0010635787 4.5882532e-06 -4.8206131e-16 0.0010596194 -6.1366196e-17 0.0010595233)
(0.0010644447 4.5137226e-06 -1.3045921e-18 0.0010556711 -1.2815934e-16 0.0010555575)
(0.0010667301 4.4427874e-06 2.5096139e-16 0.0010510596 5.5187391e-17 0.0010509199)
(0.001071125 4.3796541e-06 -1.3907023e-18 0.0010454486 7.7753451e-17 0.0010452698)
(0.0010787673 4.333823e-06 -7.5176394e-19 0.0010382962 3.8691381e-17 0.0010380582)
(0.001091378 4.3123965e-06 2.4361004e-18 0.0010287725 1.6049288e-17 0.0010284443)
(0.0011122266 4.3442529e-06 2.8329541e-18 0.0010153685 -5.8821194e-17 0.0010148978)
(0.0011462175 4.3814037e-06 6.1265243e-19 0.00099593534 6.8230832e-17 0.00099524092)
(0.001204958 4.4947253e-06 3.845103e-16 0.00096567235 -1.022554e-16 0.00096460489)
(0.0012583002 3.9587093e-06 -3.31754e-16 0.00094148867 -1.9842725e-16 0.00094007458)
(0.001263781 -1.2666309e-06 -1.852939e-19 0.00094537405 -6.5368668e-17 0.00094436847)
(0.0012730598 1.2086793e-05 1.0093938e-16 0.00095349166 8.4970588e-17 0.00095099965)
(0.0013197758 -4.6858049e-05 1.0601187e-16 0.00099690816 7.0992385e-17 0.00099104252)
(0.0012756465 1.4407847e-06 1.0136674e-17 0.00086642868 -6.7206374e-17 0.0010964406)
(0.0011347458 2.5116201e-05 1.9361844e-19 0.0011287533 1.4124087e-17 0.0011253426)
(0.0011225052 1.5618737e-05 8.0361952e-19 0.0011283347 -2.4354218e-17 0.0011271989)
(0.0011172388 1.225899e-05 -1.3354944e-16 0.0011254814 -8.5756439e-17 0.0011248802)
(0.0011122001 1.0827585e-05 -1.2487265e-18 0.0011228401 -4.5069827e-17 0.0011224076)
(0.0011073572 9.9102836e-06 1.3691756e-16 0.0011202702 7.2034967e-18 0.0011199224)
(0.0011033256 9.2396556e-06 -1.2708757e-18 0.0011174242 6.197889e-18 0.0011171303)
(0.0010999131 8.7361416e-06 -1.4224336e-16 0.0011143814 4.0085273e-17 0.0011141245)
(0.0010968618 8.34408e-06 1.4476781e-16 0.0011112599 -3.4443374e-18 0.0011110298)
(0.001094069 8.0282522e-06 -5.3822421e-19 0.0011081033 -5.5532734e-17 0.0011078933)
(0.0010914649 7.7678431e-06 2.9066996e-16 0.0011049403 -3.6853703e-17 0.0011047455)
(0.0010889834 7.548535e-06 1.476836e-16 0.0011017983 1.164983e-18 0.0011016155)
(0.0010865793 7.359917e-06 -7.1977701e-19 0.0010986956 -5.9251388e-17 0.0010985224)
(0.0010842271 7.1946437e-06 -1.3847194e-18 0.0010956408 -6.8246752e-17 0.0010954755)
(0.0010819137 7.0475023e-06 1.5775349e-16 0.0010926368 3.1388975e-17 0.0010924782)
(0.0010796346 6.9146386e-06 -1.5454063e-16 0.0010896829 -3.984478e-17 0.0010895299)
(0.0010773921 6.7930937e-06 -1.6082951e-16 0.0010867747 -3.550396e-17 0.0010866266)
(0.0010751945 6.6805087e-06 -4.9001343e-16 0.0010839045 -2.0289697e-17 0.0010837606)
(0.0010730578 6.574909e-06 -3.3609036e-16 0.0010810625 2.7278367e-17 0.0010809222)
(0.0010710045 6.4745437e-06 -1.6999963e-16 0.0010782349 -5.8933674e-18 0.0010780975)
(0.0010690673 6.3777936e-06 4.7693557e-19 0.0010754028 -1.0487364e-16 0.0010752678)
(0.0010672925 6.2831292e-06 1.6826868e-16 0.001072541 -3.3901252e-17 0.0010724077)
(0.0010657459 6.1891041e-06 -9.7966638e-19 0.0010696143 8.3604873e-17 0.0010694818)
(0.0010645218 6.0944021e-06 -3.6039829e-16 0.0010665731 2.1036618e-17 0.0010664403)
(0.001063757 5.9978908e-06 1.8555692e-16 0.0010633472 6.1816711e-17 0.0010632124)
(0.0010636526 5.8988109e-06 1.9223375e-16 0.0010598343 -3.3118743e-17 0.0010596951)
(0.0010645057 5.7967752e-06 1.9339495e-16 0.0010558852 -9.9269883e-17 0.0010557383)
(0.0010667711 5.6924358e-06 3.9245674e-16 0.0010512747 1.0193981e-16 0.0010511148)
(0.0010711347 5.5864886e-06 -2.5997877e-18 0.0010456674 8.49909e-17 0.0010454867)
(0.0010787272 5.4829588e-06 -1.6602993e-18 0.0010385238 3.7578312e-17 0.0010383096)
(0.0010912554 5.3793148e-06 4.5319428e-16 0.0010290186 6.9473338e-17 0.0010287515)
(0.0011119648 5.2891097e-06 3.5009087e-18 0.0010156496 -2.4083338e-17 0.0010152948)
(0.0011457012 5.1267738e-06 -2.6360077e-16 0.00099628683 1.9666434e-17 0.0009957912)
(0.0012039782 4.8823706e-06 -2.9444063e-16 0.00096615267 -1.1709628e-16 0.00096540997)
(0.0012583945 3.8405176e-06 2.2017753e-18 0.00094138978 -1.5998938e-16 0.00094029154)
(0.0012637774 -2.8757445e-06 7.1940059e-19 0.00094526654 -7.7069371e-17 0.00094452496)
(0.0012727876 1.2786491e-05 -8.5075855e-17 0.00095368465 2.7706726e-17 0.00095047062)
(0.0013180439 -5.0024955e-05 -3.5769832e-17 0.00099765347 4.3842509e-17 0.00098980791)
(0.00128064 -2.3017656e-06 5.2017997e-18 0.00087336209 -2.512829e-17 0.0010957802)
(0.001133597 2.8507979e-05 -4.7005188e-20 0.0011301101 1.367281e-17 0.0011259063)
(0.0011220009 1.9572577e-05 9.4753892e-19 0.0011292782 -3.4132701e-17 0.00112758)
(0.001117066 1.5604767e-05 2.0827051e-18 0.001126173 -5.6689409e-17 0.0011251896)
(0.0011121612 1.3791977e-05 -1.3859262e-16 0.0011234152 -4.9088468e-17 0.0011227032)
(0.0011073781 1.263795e-05 8.5098032e-19 0.0011207892 -2.8552186e-17 0.0011202156)
(0.0011033811 1.1798949e-05 -1.4091949e-16 0.0011179095 -3.2413081e-17 0.0011174221)
(0.0010999921 1.1168761e-05 -7.2785718e-19 0.0011148432 1.6002768e-17 0.0011144146)
(0.0010969578 1.0677013e-05 -1.432822e-16 0.0011117038 -2.2202121e-17 0.0011113183)
(0.0010941778 1.0279956e-05 -1.4713055e-16 0.001108533 -7.5892423e-17 0.00110818)
(0.0010915833 9.9519017e-06 -1.5276682e-16 0.0011053582 -5.1151212e-17 0.0011050303)
(0.0010891094 9.6751377e-06 -3.2243964e-18 0.0011022064 1.2275561e-17 0.0011018983)
(0.0010867112 9.4367261e-06 -1.6165585e-18 0.001099095 -5.3777249e-17 0.0010988029)
(0.0010843637 9.2275249e-06 -8.003975e-19 0.0010960324 -4.5720327e-17 0.0010957537)
(0.001082054 9.041055e-06 1.5262611e-18 0.0010930214 3.8825159e-17 0.0010927539)
(0.0010797777 8.8725442e-06 3.9644037e-18 0.001090061 -1.3295434e-17 0.0010898031)
(0.0010775373 8.7183619e-06 1.2837669e-18 0.0010871468 -4.0449362e-17 0.0010868973)
(0.0010753413 8.575659e-06 1.6932332e-16 0.0010842711 -1.1266481e-17 0.0010840288)
(0.0010732053 8.4421079e-06 -3.3814098e-16 0.001081424 -7.7951035e-17 0.0010811879)
(0.001071152 8.3157021e-06 1.6880709e-16 0.0010785916 2.4392669e-17 0.0010783608)
(0.0010692141 8.1946384e-06 3.3927711e-19 0.0010757554 -7.7942507e-17 0.0010755289)
(0.0010674375 8.0772561e-06 -6.2695663e-18 0.00107289 -3.1106222e-17 0.0010726667)
(0.0010658878 7.9620127e-06 3.590263e-16 0.0010699605 1.0527574e-16 0.001069739)
(0.0010646589 7.8475178e-06 3.6130436e-18 0.0010669178 -1.6612927e-18 0.0010666962)
(0.0010638866 7.7325667e-06 3.2524122e-19 0.001063692 5.2414757e-17 0.0010634679)
(0.001063771 7.6163219e-06 1.926885e-16 0.0010601816 1.7357622e-17 0.0010599514)
(0.0010646069 7.4982546e-06 -1.9549048e-16 0.0010562387 -7.0038145e-17 0.0010559973)
(0.0010668461 7.3788341e-06 1.9618475e-16 0.0010516399 8.8547771e-17 0.0010513796)
(0.0010711689 7.2582537e-06 -4.4767784e-18 0.0010460533 7.3852034e-17 0.0010457622)
(0.0010786967 7.1400252e-06 2.1414236e-16 0.0010389446 7.2461227e-17 0.001038604)
(0.0010911186 7.019223e-06 2.2866556e-16 0.0010294985 1.129602e-16 0.00102908)
(0.0011116493 6.9082116e-06 2.7540396e-18 0.00101623 1.5043422e-17 0.001015681)
(0.0011450612 6.7035397e-06 2.6883018e-16 0.00099704205 9.4426842e-18 0.00099628513)
(0.0012027476 6.359053e-06 2.0538668e-18 0.00096721728 -1.1264376e-16 0.00096607779)
(0.0012585322 5.0070205e-06 1.9133096e-18 0.00094183919 -8.2096079e-17 0.00094008769)
(0.0012638294 -3.4847539e-06 1.106929e-18 0.00094562537 -5.9307147e-17 0.00094427479)
(0.0012725138 1.3806087e-05 -3.3399033e-19 0.00095445221 -2.7482863e-17 0.00094942472)
(0.0013163472 -4.8712093e-05 1.8018427e-19 0.00099719885 5.6607204e-18 0.00098697583)
(0.0012937431 -1.1215517e-05 -4.0363828e-18 0.00088773794 -3.5304991e-17 0.0011053901)
(0.0011325787 3.1901899e-05 -5.6244549e-19 0.0011316305 1.5615757e-17 0.0011266841)
(0.0011214131 2.4029435e-05 1.2984366e-18 0.0011306408 -3.9794526e-17 0.0011281695)
(0.0011168384 1.9652466e-05 9.5273282e-17 0.001127267 -1.613117e-17 0.001125697)
(0.0011121223 1.7455961e-05 -9.8053653e-20 0.0011243524 -3.5343473e-17 0.0011231837)
(0.0011074305 1.6034977e-05 9.7496786e-17 0.0011216451 -1.251075e-17 0.0011206867)
(0.0011034869 1.5001996e-05 -9.4054751e-17 0.0011187149 -6.09432e-17 0.0011178881)
(0.0011001338 1.4224736e-05 1.3468903e-19 0.0011156124 -8.6496273e-19 0.0011148767)
(0.0010971255 1.3616222e-05 1.9978675e-18 0.0011124448 -4.2713714e-17 0.0011117769)
(0.0010943645 1.3123158e-05 -1.0004405e-16 0.0011092512 -9.8298002e-17 0.0011086354)
(0.0010917845 1.2714499e-05 -2.0053346e-18 0.0011060572 -5.1091881e-17 0.0011054826)
(0.0010893218 1.2368778e-05 -3.4649167e-18 0.0011028886 -2.9246016e-18 0.0011023472)
(0.0010869322 1.2070221e-05 1.0238845e-16 0.0010997624 -1.9856984e-17 0.0010992485)
(0.0010845913 1.1807655e-05 -4.383767e-19 0.0010966863 -1.3709983e-17 0.0010961957)
(0.0010822868 1.1573163e-05 -1.0726083e-16 0.0010936629 3.4146617e-17 0.0010931922)
(0.0010800143 1.136093e-05 3.091089e-18 0.0010906909 4.7251246e-18 0.0010902376)
(0.0010777767 1.1166561e-05 1.3512223e-18 0.001087766 -2.6180448e-17 0.001087328)
(0.0010755824 1.0986657e-05 -1.1178796e-16 0.0010848801 -1.6854166e-17 0.0010844557)
(0.0010734472 1.0818503e-05 -1.1368353e-16 0.0010820233 -1.1504235e-16 0.0010816111)
(0.0010713937 1.0659819e-05 -3.2779804e-18 0.0010791818 2.308189e-17 0.0010787804)
(0.0010694544 1.0508621e-05 -1.2115055e-16 0.001076337 -6.3708746e-17 0.0010759452)
(0.0010676752 1.0363125e-05 1.1701947e-16 0.0010734636 -2.0831548e-17 0.0010730803)
(0.001066121 1.0221703e-05 -2.3344891e-18 0.0010705268 7.8540703e-17 0.0010701506)
(0.0010648854 1.0082886e-05 3.2671688e-18 0.0010674777 1.059402e-17 0.0010671071)
(0.0010641032 9.9453556e-06 1.097355e-18 0.0010642466 3.6819371e-17 0.0010638799)
(0.0010639729 9.808082e-06 -2.6392261e-16 0.0010607327 -1.6594151e-17 0.0010603673)
(0.0010647869 9.6701351e-06 6.849012e-19 0.0010567889 -2.6454702e-17 0.0010564213)
(0.001066993 9.5312912e-06 -2.8172212e-16 0.0010521933 -3.7312606e-18 0.0010518182)
(0.0010712646 9.3901723e-06 1.3806779e-16 0.0010466163 7.0463414e-17 0.0010462259)
(0.0010787121 9.2477901e-06 -4.5900838e-18 0.0010395278 8.6896039e-17 0.0010391091)
(0.0010910027 9.0923271e-06 -1.8623306e-18 0.0010301214 1.0702522e-16 0.0010296557)
(0.0011113137 8.9263318e-06 1.3893677e-18 0.0010169247 3.6879731e-17 0.0010163734)
(0.0011443268 8.6079284e-06 1.840627e-16 0.00099787112 1.0113616e-17 0.00099718428)
(0.0012012973 8.0070358e-06 4.1416112e-16 0.00096827086 -4.6097026e-17 0.00096732401)
(0.0012588005 6.1003642e-06 1.5713651e-18 0.00094194253 -2.4201175e-17 0.00094041659)
(0.0012639687 -4.4472321e-06 1.1051069e-18 0.00094545159 -3.5184074e-17 0.00094471087)
(0.0012724965 1.331474e-05 2.9583358e-19 0.00095435302 -4.0750878e-17 0.00094930596)
(0.0013136817 -4.51764e-05 2.9721775e-19 0.00099439968 1.1579184e-17 0.0009836627)
(0.0013135467 -2.607706e-05 7.9446396e-19 0.00090930729 -3.3973207e-17 0.0011178687)
(0.0011319201 3.479468e-05 -1.3223152e-16 0.0011332266 -2.5384005e-17 0.0011276176)
(0.0011209081 2.8265874e-05 6.7201298e-17 0.0011322867 -2.2216812e-17 0.0011289635)
(0.0011166224 2.3847111e-05 -9.4508957e-19 0.0011287183 7.0178929e-18 0.0011264176)
(0.001112111 2.1388725e-05 -7.348753e-19 0.0011256391 -1.8894776e-17 0.0011238718)
(0.0011075311 1.9732856e-05 6.6395692e-17 0.0011228328 2.4362132e-17 0.0011213617)
(0.0011036551 1.8516659e-05 7.2802328e-17 0.0011198379 -3.4045515e-17 0.0011185556)
(0.001100348 1.7597184e-05 1.3057715e-18 0.0011166881 -1.3489152e-17 0.0011155381)
(0.0010973727 1.6873804e-05 1.5496384e-18 0.0011134834 -4.5959618e-17 0.0011124328)
(0.0010946363 1.6284771e-05 2.2946024e-18 0.0011102592 -8.0114771e-17 0.001109286)
(0.0010920749 1.5794404e-05 -7.3351317e-17 0.0011070392 -5.0832804e-17 0.0011061279)
(0.0010896263 1.5377929e-05 -1.4963506e-16 0.0011038478 -4.4183396e-17 0.0011029871)
(0.0010872477 1.5016997e-05 6.9435257e-17 0.0011007011 7.701068e-18 0.0010998827)
(0.0010849153 1.4698561e-05 1.4967027e-16 0.0010976063 5.6476775e-17 0.0010968241)
(0.0010826171 1.4413368e-05 2.4111519e-18 0.0010945656 3.8307114e-17 0.0010938147)
(0.0010803493 1.4154626e-05 2.2277802e-18 0.0010915774 1.3898966e-17 0.001090854)
(0.0010781149 1.3917221e-05 7.2405463e-19 0.0010886371 -1.2060923e-17 0.0010879383)
(0.0010759227 1.3697235e-05 -1.5979385e-16 0.0010857367 -3.4840282e-17 0.0010850599)
(0.0010737881 1.349159e-05 -7.8557343e-17 0.0010828661 -8.8578097e-17 0.0010822092)
(0.0010717341 1.3297759e-05 -1.2804757e-18 0.0010800114 -1.5870611e-17 0.0010793726)
(0.001069793 1.3113598e-05 -1.1352859e-18 0.001077154 -5.7784466e-17 0.0010765319)
(0.0010680103 1.2937232e-05 8.1385068e-17 0.0010742689 8.1788382e-19 0.0010736619)
(0.0010664507 1.276698e-05 8.5503449e-17 0.0010713212 7.712914e-17 0.001070728)
(0.0010652071 1.2601336e-05 3.2744404e-18 0.0010682622 1.1156263e-17 0.0010676815)
(0.0010644131 1.243892e-05 -9.1168253e-17 0.0010650229 2.6259484e-17 0.0010644531)
(0.0010642656 1.2278577e-05 7.617562e-20 0.0010615028 -7.8881873e-18 0.0010609422)
(0.0010650543 1.2119047e-05 -5.1642067e-20 0.0010575562 -3.3627611e-18 0.0010570023)
(0.0010672227 1.1959524e-05 -8.1265558e-19 0.0010529628 -3.6988266e-17 0.0010524119)
(0.0010714363 1.1797129e-05 -1.0679855e-16 0.001047396 4.0746227e-17 0.001046843)
(0.0010787931 1.1630613e-05 -1.111279e-16 0.0010403308 5.7516732e-17 0.0010397666)
(0.0010909365 1.1441113e-05 -2.9292701e-18 0.0010309716 8.2223086e-17 0.0010303838)
(0.0011110018 1.1222121e-05 6.3910653e-19 0.0010178609 2.2189516e-17 0.0010172199)
(0.0011435688 1.079341e-05 -1.3162364e-16 0.00099897102 -4.2827145e-19 0.00099824252)
(0.0011997535 9.9468761e-06 -4.8579857e-20 0.00096963288 -7.7144412e-18 0.00096873472)
(0.0012592044 7.4513998e-06 1.2487199e-18 0.00094227051 2.3270222e-18 0.00094074544)
(0.0012642351 -5.0596543e-06 8.7007374e-19 0.00094547575 -1.4175305e-17 0.00094512147)
(0.0012727596 1.1442309e-05 4.4759162e-17 0.00095440565 -1.7858506e-17 0.00094923709)
(0.0013105854 -3.9708109e-05 -1.9933222e-17 0.00099131537 1.296393e-17 0.00097916169)
(0.0013323021 -4.0570192e-05 -3.3444109e-19 0.00093085504 -1.2628155e-17 0.001128708)
(0.0011316477 3.7153628e-05 4.3960378e-18 0.0011349917 -2.876752e-17 0.0011288071)
(0.0011206145 3.2206173e-05 -9.4711678e-17 0.0011342062 -2.7788792e-17 0.0011300178)
(0.0011165057 2.8063816e-05 -9.8285192e-17 0.001130564 -3.332008e-19 0.0011274112)
(0.0011121821 2.5518396e-05 -9.6573427e-19 0.0011273436 -1.1729072e-17 0.0011248302)
(0.0011077231 2.3698639e-05 -3.3988857e-18 0.0011244311 2.5699551e-17 0.0011223042)
(0.0011039256 2.2330385e-05 2.0423231e-18 0.00112136 -1.6844731e-17 0.001119488)
(0.001100673 2.128589e-05 -9.8244479e-17 0.0011181523 -3.8678262e-17 0.0011164622)
(0.0010977375 2.045812e-05 5.2923701e-19 0.0011149011 -3.3997886e-17 0.0011133492)
(0.0010950306 1.9779428e-05 1.0469212e-16 0.0011116379 -3.2846297e-17 0.0011101948)
(0.0010924917 1.9210934e-05 -4.5765315e-20 0.001108384 -3.945019e-17 0.0011070289)
(0.0010900603 1.8725454e-05 5.3872751e-19 0.0011051625 -4.3441908e-17 0.00110388)
(0.0010876948 1.8302625e-05 -4.3262157e-18 0.0011019886 4.6977194e-18 0.0011007673)
(0.0010853723 1.7927892e-05 -5.6897659e-18 0.0010988687 7.3065609e-17 0.0010977001)
(0.0010830815 1.7590917e-05 1.0897824e-18 0.0010958046 3.7457321e-17 0.0010946818)
(0.001080819 1.72841e-05 -5.5319967e-17 0.0010927944 1.0289355e-17 0.001091712)
(0.0010785879 1.7001723e-05 5.7909888e-17 0.0010898333 -1.2479889e-17 0.001088787)
(0.0010763975 1.6739429e-05 6.0478751e-17 0.0010869132 -1.1383076e-17 0.0010858995)
(0.0010742633 1.649383e-05 6.3411731e-17 0.0010840236 -4.9541517e-17 0.0010830395)
(0.0010722079 1.6262187e-05 -5.954532e-17 0.0010811508 -5.4733898e-17 0.0010801938)
(0.0010702638 1.6042217e-05 3.7820625e-20 0.0010782763 -5.4534075e-17 0.0010773441)
(0.0010684763 1.5831962e-05 5.7722534e-17 0.0010753749 1.9706783e-17 0.0010744657)
(0.0010669096 1.5629687e-05 5.9163352e-17 0.0010724122 8.2033336e-17 0.0010715241)
(0.0010656557 1.5433845e-05 2.7905872e-18 0.0010693397 1.3329545e-17 0.0010684712)
(0.0010648472 1.5242972e-05 1.4213938e-18 0.0010660889 1.1595574e-17 0.0010652382)
(0.0010646791 1.5055758e-05 -6.8614837e-17 0.0010625601 -3.7021343e-18 0.0010617255)
(0.001065438 1.4870554e-05 -7.0389096e-17 0.0010586089 -4.6549372e-18 0.0010577882)
(0.0010675625 1.4685902e-05 -4.1957085e-19 0.001054017 -3.0798407e-17 0.0010532074)
(0.0010717096 1.4497243e-05 -7.582477e-17 0.0010484614 -9.7850878e-18 0.0010476592)
(0.0010789635 1.4300939e-05 -4.0479812e-18 0.0010414222 2.314946e-17 0.0010406209)
(0.0010909417 1.407034e-05 -3.4013566e-18 0.0010321169 5.1363534e-17 0.001031309)
(0.0011107335 1.3789699e-05 8.6004787e-17 0.001019104 2.255902e-17 0.0010182665)
(0.0011428062 1.3238437e-05 -1.4368975e-18 0.0010003985 -4.6965858e-21 0.00099951225)
(0.0011981341 1.2137952e-05 -2.3431319e-19 0.00097134871 -1.4856264e-18 0.00097037117)
(0.0012597916 8.9919603e-06 1.1638253e-18 0.00094282384 1.3487513e-17 0.00094114434)
(0.0012646782 -5.2916568e-06 -5.7100654e-17 0.000945692 -1.6266228e-17 0.00094556972)
(0.0012732728 8.1788791e-06 -4.0459504e-19 0.00095448445 -1.769994e-18 0.00094941685)
(0.001307468 -3.3296133e-05 1.5618504e-17 0.00098830751 1.4783346e-17 0.00097453866)
(0.0013438018 -5.3608142e-05 -3.9323393e-19 0.00094783927 -2.1777529e-18 0.0011354556)
(0.00113194 3.9202338e-05 3.5193444e-18 0.0011368694 -2.1201841e-17 0.0011302718)
(0.0011206853 3.5845137e-05 2.3772042e-18 0.0011364344 -1.6509876e-17 0.0011314123)
(0.001116609 3.2196254e-05 -5.8277353e-19 0.0011328513 1.5365886e-20 0.0011287549)
(0.0011124222 2.9761325e-05 6.9811198e-17 0.0011295438 7.0386256e-18 0.0011261375)
(0.0011080736 2.7883629e-05 -1.6481886e-18 0.0011265381 -3.722378e-18 0.0011235924)
(0.0011043568 2.6417194e-05 -7.066915e-17 0.0011233891 -3.5569932e-17 0.0011207631)
(0.0011011632 2.5279256e-05 -6.9588037e-17 0.0011201177 -4.4946372e-17 0.0011177258)