/*--------------------------------*- C++ -*----------------------------------*\
| =========                 |                                                 |
| \\      /  F ield         | OpenFOAM: The Open Source CFD Toolbox           |
|  \\    /   O peration     | Version:  2.4.0                                 |
|   \\  /    A nd           | Web:      www.OpenFOAM.org                      |
|    \\/     M anipulation  |                                                 |
\*---------------------------------------------------------------------------*/
FoamFile
{
    version     2.0;
    format      ascii;
    class       volScalarField;
    location    "2000";
    object      k;
}
// * * * * * * * * * * * * * * * * * * * * * * * * * * * * * * * * * * * * * //

dimensions      [0 2 -2 0 0 0 0];

internalField   nonuniform List<scalar> 
15296
(
0.0016937893
0.001688338
0.0016830686
0.0016779548
0.0016729743
0.0016681142
0.0016633649
0.0016587195
0.0016541718
0.0016497164
0.0016453486
0.0016410639
0.0016368585
0.0016327287
0.0016286712
0.0016246829
0.00162076
0.0016169004
0.0016131014
0.0016093605
0.0016056749
0.0016020419
0.001598459
0.0015949235
0.001591433
0.0015879861
0.0015845837
0.0015812325
0.0015779557
0.0015747755
0.0015717922
0.0015692307
0.0015678229
0.0015689589
0.0015736397
0.0015795827
0.0016428877
0.0016154591
0.0016938488
0.0016883952
0.0016831292
0.0016780171
0.001673038
0.0016681791
0.001663431
0.0016587865
0.0016542397
0.0016497851
0.001645418
0.001641134
0.0016369292
0.0016327999
0.0016287428
0.001624755
0.0016208324
0.0016169732
0.0016131745
0.0016094338
0.0016057485
0.0016021157
0.0015985329
0.0015949976
0.0015915073
0.0015880604
0.0015846581
0.0015813067
0.0015780292
0.0015748475
0.0015718605
0.0015692891
0.0015678571
0.0015689566
0.001573599
0.0015792372
0.0016431056
0.0015849645
0.0016939742
0.0016885192
0.0016832577
0.0016781474
0.0016731696
0.0016683117
0.0016635645
0.0016589207
0.0016543744
0.0016499202
0.0016455533
0.0016412694
0.0016370646
0.0016329353
0.0016288781
0.0016248901
0.0016209672
0.0016171076
0.0016133085
0.0016095674
0.0016058815
0.0016022483
0.0015986649
0.001595129
0.001591638
0.0015881906
0.0015847874
0.0015814349
0.0015781558
0.0015749712
0.0015719784
0.0015693937
0.0015679302
0.0015689885
0.0015735732
0.0015789018
0.0016435083
0.0015278022
0.0016941586
0.0016887077
0.0016834504
0.0016783419
0.0016733653
0.0016685082
0.0016637614
0.0016591179
0.0016545716
0.0016501172
0.0016457501
0.0016414657
0.0016372603
0.0016331302
0.0016290722
0.0016250833
0.0016211594
0.0016172988
0.0016134986
0.0016097562
0.0016060691
0.0016024345
0.0015988499
0.0015953125
0.0015918202
0.0015883713
0.0015849665
0.001581612
0.0015783302
0.0015751417
0.0015721415
0.0015695416
0.0015680429
0.0015690582
0.0015735761
0.0015786518
0.0016432235
0.0015163458
0.0016944002
0.0016889604
0.0016837069
0.0016786
0.0016736244
0.0016687678
0.0016640211
0.0016593774
0.0016548306
0.0016503756
0.0016460076
0.0016417221
0.0016375155
0.0016333841
0.0016293246
0.001625334
0.0016214085
0.001617546
0.0016137439
0.0016099996
0.0016063105
0.0016026738
0.001599087
0.0015955475
0.001592053
0.0015886018
0.0015851946
0.0015818372
0.0015785518
0.0015753581
0.0015723491
0.0015697321
0.0015681947
0.0015691659
0.001573606
0.0015784992
0.0016419135
0.0015263949
0.0016947852
0.001689369
0.0016841194
0.0016790146
0.00167404
0.0016691837
0.0016644367
0.0016597921
0.0016552442
0.0016507876
0.0016464177
0.0016421301
0.0016379211
0.001633787
0.0016297247
0.0016257312
0.0016218026
0.0016179368
0.0016141314
0.0016103836
0.0016066908
0.0016030505
0.0015994599
0.0015959166
0.0015924181
0.001588963
0.0015855516
0.0015821894
0.001578898
0.0015756964
0.0015726744
0.0015700334
0.0015684427
0.0015693565
0.0015736837
0.0015784421
0.0016391165
0.0015482785
0.0016954247
0.0016900494
0.0016848043
0.0016797023
0.0016747286
0.0016698719
0.0016651235
0.0016604769
0.0016559262
0.0016514663
0.0016470925
0.0016428006
0.0016385869
0.0016344479
0.0016303802
0.0016263811
0.0016224468
0.0016185751
0.0016147634
0.0016110093
0.00160731
0.001603663
0.0016000656
0.0015965153
0.0015930099
0.0015895475
0.0015861285
0.001582758
0.0015794567
0.001576243
0.0015732025
0.0015705295
0.0015688685
0.0015697132
0.0015738776
0.0015786565
0.00163422
0.0015796511
0.0016963605
0.0016910159
0.0016857806
0.0016806824
0.0016757094
0.0016708512
0.0016661001
0.0016614496
0.0016568943
0.0016524289
0.0016480489
0.0016437503
0.0016395292
0.0016353824
0.0016313066
0.0016272989
0.0016233558
0.001619475
0.0016156539
0.0016118901
0.001608181
0.0016045239
0.0016009162
0.0015973556
0.0015938396
0.0015903663
0.001586936
0.0015835532
0.0015802376
0.0015770076
0.0015739438
0.0015712328
0.0015694902
0.0015702607
0.0015742194
0.0015792119
0.0016279871
0.0016135976
0.0016977028
0.0016923566
0.0016871414
0.0016820488
0.0016770757
0.0016722147
0.001667459
0.0016628025
0.0016582399
0.0016537661
0.0016493768
0.001645068
0.001640836
0.0016366776
0.0016325897
0.0016285695
0.0016246136
0.0016207194
0.0016168847
0.0016131068
0.0016093834
0.0016057116
0.0016020892
0.0015985134
0.001594982
0.001591493
0.0015880464
0.0015846461
0.0015813105
0.0015780587
0.0015749652
0.0015722089
0.0015703717
0.0015710608
0.0015747647
0.001580145
0.0016210091
0.0016469514
0.0016995219
0.0016942062
0.0016890104
0.001683924
0.0016789504
0.0016740854
0.0016693232
0.0016646581
0.0016600851
0.0016555995
0.0016511971
0.001646874
0.0016426269
0.0016384524
0.0016343477
0.00163031
0.0016263364
0.0016224237
0.0016185699
0.0016147726
0.0016110294
0.0016073374
0.0016036943
0.0016000977
0.001596545
0.0015930341
0.0015895648
0.0015861405
0.0015827779
0.0015794971
0.0015763657
0.0015735546
0.0015716077
0.0015722031
0.0015755983
0.0015814799
0.0016139129
0.0016778635
0.0017019624
0.0016967275
0.0016915469
0.0016864669
0.0016814928
0.0016766225
0.0016718514
0.0016671748
0.0016625879
0.0016580864
0.0016536663
0.0016493241
0.0016450564
0.0016408603
0.001636733
0.0016326718
0.0016286743
0.0016247365
0.0016208572
0.0016170338
0.0016132639
0.0016095446
0.0016058738
0.001602249
0.0015986674
0.0015951271
0.0015916271
0.0015881704
0.0015847718
0.0015814527
0.0015782732
0.0015753953
0.0015733209
0.0015738008
0.0015768358
0.0015832108
0.0016075992
0.0017039491
0.0017053257
0.0017001047
0.0016949513
0.0016898795
0.0016849037
0.0016800257
0.0016752425
0.0016705499
0.001665944
0.0016614207
0.0016569765
0.0016526082
0.0016483127
0.0016440872
0.0016399292
0.0016358361
0.0016318061
0.0016278348
0.0016239209
0.0016200623
0.0016162563
0.0016125003
0.0016087921
0.0016051292
0.0016015088
0.0015979286
0.0015943873
0.001590887
0.0015874406
0.001584071
0.0015808298
0.0015778697
0.0015756486
0.0015759727
0.0015786124
0.0015852916
0.0016037048
0.0017109582
0.0017098218
0.0017046239
0.0016994908
0.0016944234
0.001689443
0.0016845536
0.001679753
0.0016750383
0.0016704061
0.0016658529
0.0016613758
0.0016569719
0.0016526386
0.0016483734
0.001644174
0.001640038
0.0016359635
0.0016319475
0.0016279872
0.0016240812
0.0016202269
0.0016164215
0.0016126631
0.0016089491
0.0016052766
0.001601643
0.0015980463
0.001594488
0.0015909783
0.001587542
0.0015842214
0.0015811591
0.00157877
0.0015788641
0.0015810979
0.0015877635
0.0016025798
0.0017067122
0.0017157652
0.0017106524
0.0017055153
0.001700443
0.0016954538
0.0016905481
0.0016857241
0.0016809797
0.0016763126
0.00167172
0.0016671996
0.001662749
0.0016583661
0.0016540487
0.0016497949
0.0016456027
0.0016414701
0.0016373956
0.0016333745
0.0016294064
0.0016254888
0.0016216188
0.0016177947
0.0016140138
0.0016102732
0.0016065695
0.0016029004
0.0015992661
0.0015956741
0.0015921509
0.0015887289
0.0015855386
0.0015829577
0.0015826923
0.0015845393
0.0015908639
0.0016036947
0.0016988616
0.0017238307
0.0017186144
0.001713467
0.0017083858
0.0017033808
0.001698451
0.0016935947
0.0016888109
0.0016840978
0.0016794538
0.0016748771
0.001670366
0.0016659188
0.0016615341
0.0016572102
0.0016529455
0.0016487381
0.0016445874
0.0016404882
0.0016364403
0.0016324412
0.0016284879
0.001624579
0.0016207119
0.0016168831
0.001613089
0.0016093263
0.0016055939
0.0016018963
0.0015982608
0.0015947098
0.0015913593
0.0015885581
0.0015877883
0.0015892638
0.0015949871
0.001606565
0.0016912812
0.001736408
0.0017311062
0.001725913
0.001720797
0.0017157541
0.001710778
0.0017058655
0.0017010162
0.0016962291
0.0016915033
0.001686838
0.0016822323
0.0016776855
0.0016731964
0.0016687642
0.0016643875
0.0016600651
0.0016557959
0.001651578
0.0016474076
0.0016432833
0.0016392021
0.0016351633
0.0016311639
0.0016272001
0.0016232673
0.0016193612
0.0016154786
0.0016116202
0.0016078116
0.0016040662
0.0016004778
0.0015973724
0.0015959114
0.0015968928
0.0016016881
0.0016120746
0.001683547
0.0017552099
0.0017498874
0.0017446219
0.0017394196
0.0017342878
0.0017292179
0.0017242037
0.0017192437
0.0017143369
0.0017094828
0.0017046812
0.0016999321
0.0016952354
0.0016905908
0.001685998
0.0016814562
0.0016769647
0.0016725223
0.0016681289
0.0016637807
0.0016594733
0.0016552061
0.0016509781
0.0016467861
0.0016426257
0.0016384915
0.001634377
0.0016302764
0.0016261864
0.0016221212
0.0016181006
0.001614179
0.0016106677
0.0016083565
0.0016087382
0.0016123027
0.001621676
0.0016762865
0.0017794308
0.0017739748
0.0017685734
0.0017632284
0.0017579519
0.0017527346
0.0017475682
0.0017424496
0.0017373775
0.0017323511
0.0017273704
0.0017224358
0.0017175477
0.0017127063
0.0017079116
0.0017031636
0.0016984618
0.0016938052
0.001689193
0.0016846248
0.0016800935
0.0016755987
0.0016711386
0.0016667104
0.0016623092
0.0016579281
0.0016535588
0.001649192
0.0016448203
0.0016404397
0.0016360876
0.0016317689
0.0016277829
0.0016245737
0.0016243398
0.0016265474
0.0016351268
0.0016729974
0.0018100927
0.0018043758
0.0017987486
0.0017931849
0.0017876921
0.001782258
0.0017768723
0.0017715312
0.0017662326
0.0017609752
0.0017557589
0.001750584
0.0017454511
0.0017403605
0.0017353127
0.0017303077
0.0017253452
0.0017204246
0.0017155448
0.0017107044
0.0017059016
0.0017011313
0.0016963888
0.001691674
0.0016869811
0.0016823018
0.0016776254
0.0016729382
0.0016682281
0.0016634767
0.0016587262
0.0016539387
0.001649397
0.0016452432
0.0016443579
0.00164513
0.0016528114
0.0016759368
0.0018481659
0.001842155
0.0018362293
0.0018303625
0.0018245682
0.0018188344
0.0018131493
0.001807508
0.0018019079
0.0017963473
0.0017908255
0.0017853426
0.0017798991
0.0017744953
0.0017691316
0.0017638082
0.0017585249
0.0017532811
0.0017480755
0.0017429062
0.0017377728
0.0017326683
0.0017275888
0.0017225306
0.0017174889
0.001712454
0.0017074121
0.0017023449
0.0016972342
0.0016920492
0.0016868275
0.0016814952
0.0016763076
0.0016711723
0.0016694905
0.0016687387
0.001675333
0.0016856829
0.0018949174
0.001888515
0.0018821971
0.001875935
0.001869749
0.001863628
0.0018575575
0.0018515319
0.0018455478
0.0018396031
0.0018336967
0.0018278287
0.0018219993
0.001816209
0.0018104579
0.0018047463
0.0017990739
0.0017934398
0.0017878428
0.0017822805
0.0017767504
0.0017712469
0.0017657675
0.0017603073
0.0017548554
0.0017494034
0.0017439334
0.0017384225
0.001732845
0.0017271607
0.0017213785
0.0017154282
0.0017094996
0.0017033897
0.0017002732
0.0016979853
0.0017034344
0.0017026051
0.0019516964
0.001944737
0.0019379051
0.0019311464
0.0019244753
0.001917876
0.0019113297
0.0019048289
0.0018983703
0.0018919514
0.0018855715
0.0018792305
0.0018729291
0.0018666676
0.0018604464
0.0018542656
0.0018481247
0.001842023
0.0018359586
0.0018299291
0.0018239306
0.0018179575
0.0018120025
0.0018060677
0.0018001392
0.0017942034
0.0017882354
0.0017822106
0.0017760951
0.0017698389
0.0017634069
0.0017567606
0.0017499906
0.001742902
0.0017375646
0.0017338184
0.0017381102
0.0017273964
0.0020196854
0.0020120829
0.0020046533
0.0019973088
0.0019900577
0.0019828817
0.001975759
0.0019686814
0.0019616461
0.0019546512
0.0019476963
0.0019407821
0.0019339095
0.0019270793
0.001920292
0.0019135478
0.0019068463
0.0019001864
0.0018935663
0.0018869828
0.0018804314
0.0018739058
0.0018673954
0.0018609006
0.0018544137
0.0018479131
0.0018413723
0.0018347584
0.0018280279
0.0018211166
0.0018139622
0.0018065248
0.0017988127
0.0017906538
0.001783259
0.0017778726
0.0017807659
0.0017612839
0.0021001801
0.00209196
0.0020838707
0.0020758401
0.0020678952
0.0020600254
0.0020522088
0.0020444373
0.002036709
0.0020290227
0.0020213787
0.0020137784
0.0020062232
0.0019987144
0.0019912531
0.0019838394
0.0019764731
0.0019691531
0.0019618772
0.0019546418
0.0019474418
0.00194027
0.0019331132
0.0019259703
0.0019188307
0.001911673
0.0019044715
0.0018971816
0.0018897491
0.0018820996
0.001874148
0.0018657953
0.0018570577
0.0018477039
0.0018385105
0.0018307107
0.0018320905
0.0018051259
0.0021953272
0.0021861107
0.0021771184
0.002168222
0.002159429
0.0021507213
0.0021420713
0.0021334693
0.0021249135
0.0021164036
0.0021079405
0.0020995261
0.0020911627
0.0020828521
0.0020745955
0.0020663936
0.0020582462
0.002050152
0.0020421087
0.0020341124
0.0020261571
0.0020182347
0.0020103308
0.0020024399
0.0019945513
0.0019866419
0.0019786786
0.0019706138
0.0019623841
0.001953904
0.0019450687
0.0019356995
0.0019258539
0.0019151793
0.00190436
0.0018929048
0.0018928044
0.0018596594
0.002305989
0.0022957695
0.0022857702
0.0022758594
0.0022660532
0.0022563392
0.0022466886
0.0022370913
0.0022275467
0.0022180549
0.0022086176
0.0021992375
0.0021899174
0.0021806597
0.002171466
0.0021623372
0.0021532731
0.0021442725
0.0021353328
0.0021264498
0.0021176166
0.0021088242
0.0021000575
0.0020913045
0.0020825562
0.0020737871
0.002064959
0.0020560178
0.0020468913
0.0020374751
0.0020276544
0.0020172148
0.0020061306
0.0019940409
0.0019815681
0.0019668117
0.0019645123
0.0019262717
0.002434094
0.0024225491
0.002411282
0.0024001251
0.0023890854
0.0023781497
0.0023672865
0.0023564851
0.0023457463
0.0023350716
0.0023244635
0.0023139258
0.0023034621
0.0022930753
0.0022827674
0.0022725395
0.0022623914
0.002252322
0.0022423283
0.0022324054
0.0022225461
0.0022127399
0.0022029714
0.0021932205
0.0021834809
0.0021737247
0.0021639092
0.0021539735
0.0021438365
0.0021333796
0.0021224664
0.002110869
0.002098434
0.0020848697
0.0020706054
0.0020534319
0.0020468646
0.00200481
0.0025810341
0.0025678983
0.0025550782
0.0025423837
0.0025298189
0.0025173729
0.002505014
0.002492732
0.0024805294
0.0024684096
0.0024563765
0.0024444349
0.0024325893
0.0024208429
0.0024091982
0.0023976561
0.0023862166
0.0023748779
0.0023636369
0.0023524879
0.0023414229
0.0023304299
0.0023194932
0.0023085848
0.002297699
0.0022868065
0.0022758607
0.0022647942
0.0022535173
0.0022418994
0.0022297842
0.0022169243
0.0022031016
0.0021879442
0.0021717973
0.0021526187
0.0021408416
0.0020960305
0.0027486714
0.0027334437
0.0027185996
0.0027039203
0.0026894015
0.0026750325
0.0026607804
0.002646635
0.0026326006
0.0026186818
0.0026048835
0.0025912112
0.0025776695
0.0025642619
0.0025509906
0.0025378562
0.002524858
0.0025119938
0.0024992592
0.0024866479
0.0024741505
0.0024617537
0.0024494398
0.00243718
0.0024249561
0.0024127429
0.0024004912
0.0023881281
0.0023755562
0.0023626342
0.0023491899
0.0023349545
0.0023196838
0.0023028686
0.0022848192
0.0022635817
0.0022482744
0.002199763
0.002938141
0.0029202398
0.0029027941
0.0028855614
0.0028685321
0.0028516981
0.0028350279
0.0028185128
0.0028021591
0.0027859732
0.0027699605
0.0027541268
0.0027384765
0.0027230123
0.0027077355
0.0026926457
0.002677741
0.0026630176
0.00264847
0.0026340901
0.002619867
0.0026057856
0.0025918257
0.0025779588
0.0025641512
0.0025503831
0.0025366031
0.0025227339
0.0025086715
0.0024942669
0.0024793351
0.0024635942
0.0024467682
0.0024283258
0.0024083477
0.0023849832
0.0023671227
0.0023143771
0.0031503974
0.00312904
0.0031082279
0.0030876988
0.0030674381
0.0030474399
0.0030276759
0.0030081403
0.0029888416
0.0029697874
0.0029509834
0.0029324347
0.0029141445
0.0028961141
0.0028783428
0.0028608283
0.0028435665
0.0028265517
0.002809776
0.0027932293
0.0027768985
0.0027607664
0.0027448103
0.0027290012
0.002713293
0.0026976652
0.0026820674
0.0026664198
0.002650614
0.0026344962
0.0026178731
0.0026004588
0.002581951
0.0025618329
0.0025399935
0.0025146827
0.0024935395
0.0024411398
0.0033865167
0.0033606012
0.0033353591
0.0033105153
0.0032860466
0.003261946
0.0032381884
0.0032147701
0.0031916999
0.0031689846
0.0031466285
0.0031246341
0.0031030019
0.0030817301
0.0030608149
0.003040251
0.0030200311
0.0030001466
0.002980587
0.0029613394
0.0029423882
0.0029237137
0.0029052909
0.0028870883
0.0028690608
0.0028511656
0.0028333627
0.0028155732
0.0027976869
0.0027795494
0.0027609647
0.0027416505
0.0027212953
0.0026993964
0.0026757856
0.0026487248
0.0026246622
0.0025729359
0.0036382119
0.0036065327
0.0035756746
0.0035453689
0.003515586
0.0034863146
0.003457533
0.0034292395
0.0034014415
0.0033741437
0.0033473477
0.0033210528
0.0032952556
0.0032699507
0.0032451305
0.0032207861
0.0031969069
0.0031734809
0.0031504945
0.0031279319
0.0031057746
0.0030840003
0.003062582
0.003041485
0.0030206668
0.0030000624
0.0029796414
0.0029593278
0.0029390129
0.0029185454
0.0028977333
0.002876306
0.0028539586
0.0028302183
0.0028048803
0.0027764115
0.0027499804
0.0026998006
0.0038874092
0.0038489366
0.0038114301
0.0037746405
0.003738539
0.003703113
0.00366835
0.0036342545
0.003600835
0.0035680957
0.0035360371
0.0035046561
0.0034739464
0.0034438991
0.0034145033
0.0033857459
0.0033576127
0.0033300877
0.0033031533
0.00327679
0.0032509754
0.003225684
0.0032008851
0.0031765418
0.0031526087
0.0031290237
0.0031057286
0.0030826642
0.0030597279
0.0030367749
0.0030136223
0.0029900162
0.0029656701
0.0029401526
0.0029132427
0.0028836705
0.0028553445
0.002808548
0.0041242032
0.0040779403
0.0040327476
0.0039884363
0.0039449982
0.0039024315
0.0038607442
0.0038199546
0.0037800768
0.0037411177
0.0037030775
0.0036659503
0.0036297256
0.003594389
0.0035599234
0.0035263092
0.0034935252
0.0034615485
0.0034303547
0.0033999175
0.0033702085
0.003341196
0.0033128443
0.0032851117
0.0032579483
0.0032312948
0.003205067
0.0031792191
0.0031536542
0.0031282347
0.0031027888
0.0030770817
0.003050851
0.003023711
0.0029954364
0.0029650445
0.0029351973
0.0028924094
0.0043478338
0.0042922637
0.0042379405
0.0041847566
0.0041327325
0.0040818857
0.0040322502
0.0039838561
0.0039367175
0.0038908363
0.003846204
0.0038028033
0.0037606107
0.0037195987
0.0036797367
0.0036409922
0.0036033313
0.0035667193
0.0035311206
0.0034964985
0.0034628149
0.0034300294
0.0033980984
0.0033669736
0.0033365999
0.0033069135
0.0032778323
0.0032492822
0.0032211851
0.0031934132
0.0031658073
0.0031381508
0.0031102081
0.0030816359
0.0030522152
0.0030212337
0.0029902362
0.002951379
0.0045582295
0.0044913944
0.0044261299
0.0043624985
0.0043005538
0.0042403153
0.0041818156
0.0041250647
0.0040700487
0.0040167407
0.0039651043
0.0039150954
0.0038666659
0.0038197652
0.0037743421
0.0037303449
0.0036877222
0.0036464233
0.003606398
0.0035675964
0.0035299681
0.003493462
0.0034580249
0.0034236001
0.0033901258
0.0033575325
0.0033257402
0.0032946487
0.0032641944
0.0032342576
0.003204691
0.0031752939
0.0031458577
0.0031160748
0.0030857413
0.0030543691
0.0030225882
0.0029872428
0.0047553835
0.0046751615
0.0045973851
0.0045221331
0.0044493479
0.0043789679
0.0043109761
0.0042453338
0.0041819819
0.0041208551
0.0040618817
0.0040049857
0.00395009
0.0038971177
0.0038459932
0.0037966429
0.0037489949
0.0037029801
0.0036585312
0.0036155827
0.0035740702
0.0035339298
0.003495097
0.0034575052
0.0034210845
0.0033857589
0.0033514453
0.0033180391
0.0032854583
0.0032536001
0.0032223299
0.0031914599
0.0031608065
0.0031300861
0.0030991199
0.0030675746
0.0030354178
0.003002998
0.0049409824
0.0048464491
0.0047551465
0.0046672799
0.0045827146
0.0045013284
0.0044230621
0.0043478287
0.004275524
0.0042060416
0.0041392714
0.0040751016
0.0040134219
0.0039541245
0.0038971054
0.0038422644
0.0037895056
0.0037387372
0.0036898718
0.0036428249
0.0035975153
0.0035538639
0.0035117927
0.0034712235
0.0034320768
0.0033942688
0.0033577106
0.0033222996
0.0032879263
0.0032545042
0.0032219091
0.0031899612
0.0031584982
0.0031272459
0.0030960601
0.0030646726
0.0030326894
0.0030025642
0.0051161678
0.0050067176
0.0049009763
0.0047994421
0.004702018
0.0046086019
0.0045191324
0.0044334894
0.0043515275
0.0042730965
0.0041980418
0.0041262086
0.0040574458
0.0039916077
0.0039285547
0.0038681542
0.0038102801
0.0037548136
0.0037016423
0.0036506599
0.0036017653
0.0035548624
0.003509858
0.0034666611
0.0034251818
0.0033853283
0.0033470047
0.0033101067
0.0032745111
0.0032401222
0.0032068295
0.0031744551
0.0031428523
0.0031117353
0.0030810041
0.0030503434
0.003019353
0.002990944
0.0052804533
0.0051543363
0.0050326127
0.0049160717
0.0048046242
0.004698183
0.0045966747
0.004499937
0.0044077733
0.004319979
0.0042363443
0.0041566611
0.0040807281
0.0040083525
0.0039393519
0.0038735545
0.003810799
0.0037509358
0.0036938252
0.0036393372
0.0035873506
0.0035377522
0.0034904339
0.003445292
0.0034022253
0.0033611325
0.0033219095
0.0032844432
0.0032486081
0.0032142702
0.0031813315
0.0031496036
0.0031189441
0.0030890278
0.003059806
0.0030307867
0.0030019642
0.0029748329
0.0054331991
0.0052873375
0.005147147
0.0050136613
0.0048866982
0.004766109
0.0046517392
0.0045433312
0.0044405982
0.0043432501
0.0042509976
0.0041635601
0.004080671
0.0040020792
0.0039275512
0.0038568708
0.0037898393
0.0037262755
0.0036660136
0.003608901
0.0035547969
0.0035035706
0.0034550979
0.003409259
0.0033659363
0.0033250111
0.0032863616
0.0032498545
0.0032153496
0.0031826663
0.0031516979
0.0031222245
0.0030940905
0.0030668966
0.0030406498
0.0030145478
0.0029893826
0.0029633248
0.0055724984
0.0054033285
0.0052417721
0.0050890688
0.0049448594
0.0048088555
0.0046807469
0.0045601225
0.0044465564
0.0043396325
0.0042389499
0.0041441312
0.0040548269
0.0039707172
0.0038915126
0.0038169518
0.0037467988
0.0036808412
0.0036188855
0.0035607525
0.0035062746
0.0034552916
0.0034076482
0.0033631914
0.0033217694
0.0032832264
0.003247401
0.0032141162
0.0031831873
0.0031543771
0.0031275155
0.0031023422
0.0030786743
0.0030560067
0.0030344107
0.0030126656
0.0029926951
0.0029677955
0.005696226
0.0055000797
0.0053140848
0.0051396918
0.0049763295
0.0048235266
0.0046807604
0.0045474131
0.0044228742
0.0043065622
0.004197935
0.0040965004
0.0040018185
0.0039134987
0.0038311946
0.0037545955
0.0036834187
0.0036174028
0.0035563002
0.0034998728
0.003447891
0.0034001295
0.0033563601
0.0033163507
0.0032798698
0.0032466856
0.0032165651
0.0031892598
0.00316452
0.0031420501
0.0031216161
0.003102872
0.0030855955
0.0030691549
0.0030537133
0.0030375673
0.0030239867
0.0030005888
0.0058048409
0.0055769734
0.0053625844
0.0051633707
0.0049785273
0.0048073327
0.0046489702
0.0045025467
0.0043672074
0.0042421717
0.0041267461
0.0040203235
0.0039223708
0.0038324116
0.0037500101
0.0036747537
0.003606246
0.0035441028
0.0034879444
0.0034373878
0.0033920527
0.003351567
0.0033155747
0.0032837355
0.0032557109
0.0032311587
0.0032097397
0.0031911138
0.0031749511
0.003160886
0.0031485942
0.003137716
0.003128026
0.0031187807
0.0031102849
0.0031003382
0.0030936677
0.00307225
0.0059005083
0.0056335877
0.0053851457
0.00515698
0.0049478818
0.0047566793
0.0045821008
0.0044228808
0.0042778843
0.0041461284
0.0040267638
0.0039190324
0.0038222195
0.0037356328
0.0036585866
0.0035903956
0.0035303663
0.0034778153
0.0034320827
0.0033925548
0.00335865
0.0033298069
0.0033054821
0.0032851628
0.0032683868
0.0032547311
0.0032437993
0.0032352264
0.003228691
0.0032237992
0.0032202179
0.0032175062
0.003215463
0.0032133277
0.0032116148
0.0032076724
0.003207776
0.0031886111
0.0059828565
0.0056667821
0.0053769652
0.0051149937
0.0048788741
0.0046666452
0.0044764287
0.0043065808
0.0041557036
0.0040225449
0.0039058908
0.0038044992
0.0037170861
0.003642331
0.003578909
0.0035255487
0.0034810892
0.0034444435
0.0034146061
0.0033906429
0.0033717262
0.00335717
0.0033464009
0.0033388617
0.0033340318
0.0033314863
0.0033308817
0.0033319588
0.0033344882
0.0033381025
0.0033424943
0.003347202
0.0033521409
0.0033565941
0.0033612096
0.0033629468
0.0033695898
0.0033524696
0.0060472292
0.005669372
0.0053299088
0.0050293861
0.0047645663
0.0045325963
0.0043311263
0.004158127
0.0040115354
0.0038890373
0.0037880637
0.0037058955
0.0036398385
0.003587423
0.003546441
0.0035149677
0.0034912851
0.0034739786
0.0034619745
0.0034543797
0.00345037
0.0034493493
0.0034509068
0.0034546331
0.0034601774
0.0034672675
0.0034756918
0.0034853007
0.0034956343
0.0035061377
0.0035168235
0.0035275174
0.0035382181
0.0035483552
0.0035584442
0.0035655016
0.0035775374
0.0035627907
0.0060879975
0.0056324705
0.0052335124
0.0048902572
0.0045987097
0.0043556807
0.0041580115
0.0040015562
0.0038809088
0.0037899648
0.003722722
0.0036739268
0.0036393112
0.0036154718
0.0035997441
0.0035903507
0.0035858458
0.0035850303
0.0035872451
0.0035920734
0.0035992077
0.0036084823
0.0036191951
0.0036306821
0.0036431139
0.0036566435
0.0036712956
0.0036869726
0.0037034984
0.0037205898
0.003738051
0.0037555081
0.0037727803
0.0037891373
0.0038050623
0.0038175386
0.0038343684
0.0038241881
0.0061001052
0.005556717
0.0050957202
0.0047168273
0.0044167313
0.0041903152
0.0040282423
0.0039174609
0.0038441185
0.0037963734
0.0037657222
0.003746411
0.0037349036
0.003728995
0.00372715
0.003728737
0.0037331952
0.003740179
0.003749554
0.0037603548
0.0037725928
0.003786617
0.0038024434
0.0038198167
0.0038384804
0.0038582718
0.0038790682
0.0039007116
0.0039229854
0.003945552
0.0039681285
0.0039903145
0.0040119636
0.0040323083
0.0040518781
0.004067736
0.0040870346
0.004081732
0.0060921078
0.0054632491
0.0049515441
0.0045605401
0.0042846026
0.0041069357
0.0040015566
0.0039418637
0.0039078654
0.0038877335
0.0038755088
0.0038682421
0.0038646579
0.0038642378
0.0038667609
0.0038723016
0.0038795274
0.0038891202
0.0039014231
0.0039162371
0.0039332247
0.0039522195
0.0039729781
0.003995133
0.0040183839
0.0040424807
0.0040672357
0.004092473
0.0041179965
0.0041435036
0.0041687515
0.0041933064
0.0042171
0.0042392751
0.0042604614
0.0042777657
0.0042974844
0.0042964054
0.0060612682
0.0053376427
0.004792353
0.0044315912
0.0042287218
0.0041322168
0.004089804
0.0040677256
0.0040516491
0.0040378841
0.0040264511
0.0040179697
0.0040131906
0.0040116314
0.0040134691
0.0040193538
0.0040290622
0.0040422665
0.0040587281
0.0040780039
0.0040994993
0.0041227702
0.0041474765
0.0041732662
0.0041998237
0.0042268578
0.0042541175
0.0042813756
0.0043084536
0.0043351285
0.0043612432
0.0043863998
0.0044105553
0.0044327886
0.0044539093
0.0044710938
0.0044894796
0.0044924848
0.0060015407
0.0051868075
0.0046593408
0.0044008962
0.0043145285
0.0042945356
0.0042806985
0.0042578137
0.0042297206
0.0042026354
0.0041804277
0.0041636951
0.00415335
0.0041497592
0.004152428
0.0041608764
0.004173999
0.0041909357
0.0042110716
0.0042338229
0.0042585808
0.0042847895
0.0043120102
0.0043399019
0.0043681503
0.0043964514
0.0044245351
0.0044521578
0.0044791404
0.0045052878
0.0045305
0.0045544246
0.0045771765
0.0045977638
0.0046172832
0.0046329074
0.0046484745
0.004655467
0.0059132334
0.0050455685
0.0046370849
0.0045507718
0.0045650287
0.0045563411
0.0045101557
0.00444856
0.0043900208
0.0043424396
0.0043067119
0.004283309
0.0042712953
0.0042688596
0.00427405
0.0042855548
0.0043019363
0.0043220048
0.0043448344
0.0043697696
0.004396213
0.0044236071
0.0044514733
0.0044794485
0.004507256
0.0045346632
0.0045614669
0.0045874725
0.0046125339
0.0046364691
0.0046592423
0.0046805082
0.0047005719
0.0047182882
0.0047352335
0.0047482576
0.004760191
0.0047712625
0.0058020131
0.0049951659
0.0048350354
0.0049071811
0.0049132395
0.0048232095
0.0046987529
0.0045846606
0.0044958713
0.0044316106
0.0043895027
0.0043652222
0.0043547954
0.0043550165
0.0043632063
0.0043773522
0.0043959123
0.0044176083
0.0044413891
0.0044664762
0.0044923001
0.0045184231
0.0045444902
0.0045702208
0.004595404
0.0046198789
0.0046435205
0.0046662054
0.0046878541
0.0047083146
0.0047276202
0.0047453887
0.0047621424
0.0047764415
0.0047906029
0.0048005689
0.0048090293
0.0048246049
0.0057029219
0.0051731419
0.0053060444
0.0053826991
0.0052336761
0.004999714
0.0047894082
0.0046328256
0.0045244202
0.0044541644
0.0044119186
0.0043897328
0.0043818495
0.0043842267
0.0043938953
0.0044086358
0.0044268176
0.0044472552
0.0044690517
0.004491525
0.004514178
0.0045366792
0.0045588171
0.0045804262
0.0046013744
0.0046215577
0.0046409072
0.0046593531
0.0046768781
0.0046933578
0.0047089075
0.0047230817
0.0047366676
0.0047477769
0.0047598059
0.0047669303
0.00477357
0.0047942401
0.0056892293
0.0056904392
0.0059531325
0.0057989087
0.005398232
0.0050168551
0.0047424948
0.0045606487
0.0044454964
0.0043749257
0.0043338156
0.0043124712
0.0043045343
0.0043057254
0.0043131308
0.0043247271
0.0043390598
0.0043551068
0.0043721483
0.0043896547
0.0044072227
0.0044246053
0.004441684
0.0044583521
0.0044745202
0.0044901132
0.0045050907
0.0045194101
0.0045330981
0.0045460444
0.004558458
0.00456982
0.00458125
0.0045902873
0.0046018008
0.0046071708
0.0046153609
0.0046416861
0.0058768164
0.0064773251
0.0065723479
0.0059893297
0.0053003564
0.004808253
0.0044961447
0.0043046056
0.0041868259
0.0041142833
0.0040704082
0.0040451922
0.0040323764
0.0040279243
0.0040291809
0.0040343671
0.0040422243
0.0040518589
0.0040626452
0.0040741296
0.0040859534
0.0040979495
0.004110019
0.0041220365
0.0041338978
0.0041455287
0.0041569012
0.0041679882
0.0041788517
0.0041893933
0.0041999297
0.0042098855
0.0042207709
0.0042295192
0.004242791
0.0042482827
0.0042627364
0.0042941786
0.0062778964
0.0073164928
0.0068601745
0.0057314873
0.0048122499
0.0042586721
0.0039359153
0.0037421107
0.003621311
0.0035443661
0.0034949555
0.0034634021
0.0034438064
0.0034324377
0.0034268571
0.0034254247
0.0034269753
0.0034306741
0.0034359182
0.0034422591
0.0034493359
0.0034570499
0.0034652746
0.0034738331
0.003482587
0.003491457
0.0035004278
0.0035094892
0.0035187397
0.0035281037
0.0035380068
0.0035478581
0.0035595373
0.0035694931
0.003586112
0.0035933267
0.0036175764
0.0036511417
0.0064036647
0.0076604811
0.0064560858
0.0048288957
0.0038256805
0.0032959237
0.002985178
0.002793617
0.0026722929
0.0025937549
0.0025418713
0.0025072494
0.0024842731
0.002469407
0.0024603359
0.0024554837
0.0024537366
0.0024543032
0.0024565956
0.0024601755
0.002464696
0.0024702362