/*--------------------------------*- C++ -*----------------------------------*\
| =========                 |                                                 |
| \\      /  F ield         | OpenFOAM: The Open Source CFD Toolbox           |
|  \\    /   O peration     | Version:  2.4.0                                 |
|   \\  /    A nd           | Web:      www.OpenFOAM.org                      |
|    \\/     M anipulation  |                                                 |
\*---------------------------------------------------------------------------*/
FoamFile
{
    version     2.0;
    format      ascii;
    class       surfaceScalarField;
    location    "2000";
    object      phi;
}
// * * * * * * * * * * * * * * * * * * * * * * * * * * * * * * * * * * * * * //

dimensions      [0 3 -1 0 0 0 0];

internalField   nonuniform List<scalar> 
30289
(
2.0795434e-07
2.7715161e-09
2.0536054e-07
2.5938017e-09
2.0280579e-07
2.5547537e-09
2.0028302e-07
2.5227713e-09
1.9778986e-07
2.4931626e-09
1.9531814e-07
2.4717142e-09
1.9286254e-07
2.4556061e-09
1.9042048e-07
2.4420552e-09
1.8799041e-07
2.4300747e-09
1.8557144e-07
2.4189696e-09
1.8316332e-07
2.4081132e-09
1.807662e-07
2.3971183e-09
1.783804e-07
2.3858073e-09
1.7600628e-07
2.3741202e-09
1.736442e-07
2.3620748e-09
1.7129446e-07
2.3497464e-09
1.689572e-07
2.337259e-09
1.6663242e-07
2.3247775e-09
1.643199e-07
2.3125166e-09
1.6201915e-07
2.3007547e-09
1.5972928e-07
2.2898644e-09
1.5744893e-07
2.2803508e-09
1.5517602e-07
2.2729181e-09
1.5290746e-07
2.268559e-09
1.5063875e-07
2.2687089e-09
1.483633e-07
2.2754505e-09
1.4607137e-07
2.2919288e-09
1.4374856e-07
2.3228137e-09
1.4137287e-07
2.3756901e-09
1.3891101e-07
2.4618538e-09
1.3630844e-07
2.6025706e-09
1.3348131e-07
2.8271311e-09
1.3026475e-07
3.2165575e-09
1.2640068e-07
3.8640709e-09
1.212204e-07
5.1802798e-09
1.1334658e-07
7.8738228e-09
9.8409319e-08
1.493726e-08
1.3913304e-08
8.4496016e-08
6.2385897e-07
1.1043631e-08
6.1607879e-07
1.0373991e-08
6.0841478e-07
1.0218756e-08
6.0084659e-07
1.0090961e-08
5.9336712e-07
9.9726355e-09
5.8595198e-07
9.8868543e-09
5.7858518e-07
9.8224049e-09
5.7125905e-07
9.7681917e-09
5.6396886e-07
9.7202562e-09
5.5671201e-07
9.6758233e-09
5.4948774e-07
9.632387e-09
5.4229645e-07
9.5884012e-09
5.3513911e-07
9.5431517e-09
5.2801683e-07
9.4964009e-09
5.2093069e-07
9.4482146e-09
5.1388154e-07
9.3988963e-09
5.0686986e-07
9.3489376e-09
4.9989564e-07
9.298998e-09
4.9295823e-07
9.2499306e-09
4.8605613e-07
9.2028479e-09
4.7918677e-07
9.15923e-09
4.7234603e-07
9.1210916e-09
4.6552771e-07
9.0912328e-09
4.5872267e-07
9.0736055e-09
4.5191746e-07
9.0739162e-09
4.4509246e-07
9.1004452e-09
4.3821871e-07
9.1656834e-09
4.3125336e-07
9.2881597e-09
4.2413111e-07
9.4979481e-09
4.1675325e-07
9.8397084e-09
4.0895819e-07
1.0397629e-08
4.0049881e-07
1.1286515e-08
3.9088758e-07
1.282779e-08
3.7936745e-07
1.5384203e-08
3.6397929e-07
2.0568431e-08
3.4075846e-07
3.1094655e-08
2.963741e-07
5.9321619e-08
1.9163486e-09
3.0837106e-07
1.0397482e-06
2.4764379e-08
1.0267877e-06
2.3334437e-08
1.0140155e-06
2.2990945e-08
1.0014024e-06
2.2704075e-08
9.8893694e-07
2.2438106e-08
9.7657862e-07
2.2245173e-08
9.6430084e-07
2.2100179e-08
9.5209083e-07
2.1978203e-08
9.3994075e-07
2.1870338e-08
9.2784623e-07
2.1770349e-08
9.1580601e-07
2.1672606e-08
9.0382077e-07
2.1573633e-08
8.9189211e-07
2.1471818e-08
8.8002188e-07
2.1366627e-08
8.6821189e-07
2.1258204e-08
8.5646356e-07
2.1147231e-08
8.4477769e-07
2.1034807e-08
8.3315427e-07
2.0922415e-08
8.2159224e-07
2.0811964e-08
8.1008914e-07
2.0705948e-08
7.9864068e-07
2.0607685e-08
7.8724009e-07
2.0521687e-08
7.758771e-07
2.0454221e-08
7.6453657e-07
2.0414137e-08
7.5319628e-07
2.0414205e-08
7.4182378e-07
2.0472949e-08
7.3037115e-07
2.0618304e-08
7.1876764e-07
2.0891675e-08
7.0690532e-07
2.1360266e-08
6.9462137e-07
2.2123655e-08
6.8164906e-07
2.3369947e-08
6.6758199e-07
2.535358e-08
6.5161689e-07
2.8792892e-08
6.3251971e-07
3.4481381e-08
6.0708569e-07
4.6002456e-08
5.6895815e-07
6.9222194e-08
4.9534647e-07
1.3293329e-07
-4.099903e-09
5.0136272e-07
1.4556122e-06
4.3891829e-08
1.4374807e-06
4.1465873e-08
1.4196025e-06
4.0869145e-08
1.4019455e-06
4.0361136e-08
1.3844947e-06
3.9888897e-08
1.3671937e-06
3.9546135e-08
1.3500054e-06
3.9288476e-08
1.3329119e-06
3.9071687e-08
1.3159023e-06
3.8879941e-08
1.2989705e-06
3.8702183e-08
1.2821147e-06
3.8528419e-08
1.2653359e-06
3.8352469e-08
1.2486362e-06
3.8171473e-08
1.2320184e-06
3.7984472e-08
1.2154848e-06
3.7791724e-08
1.1990376e-06
3.7594431e-08
1.1826779e-06
3.7394546e-08
1.1664056e-06
3.719469e-08
1.1502193e-06
3.699825e-08
1.1341156e-06
3.680964e-08
1.1180886e-06
3.6634734e-08
1.1021288e-06
3.6481513e-08
1.0862219e-06
3.6361073e-08
1.070347e-06
3.6289059e-08
1.0544731e-06
3.6288056e-08
1.0385553e-06
3.6390806e-08
1.0225269e-06
3.664668e-08
1.0062898e-06
3.7128778e-08
9.8969429e-07
3.7955787e-08
9.7251482e-07
3.9303132e-08
9.5438182e-07
4.1502941e-08
9.347349e-07
4.5000506e-08
9.1246292e-07
5.1064872e-08
8.8587707e-07
6.1067223e-08
8.5056902e-07
8.1310509e-08
7.9800588e-07
1.2178534e-07
6.9593556e-07
2.3500361e-07
6.773617e-09
6.8506204e-07
1.8714434e-06
6.8390119e-08
1.8481512e-06
6.4758138e-08
1.8251704e-06
6.3849945e-08
1.8024709e-06
6.3060571e-08
1.7800358e-06
6.2323979e-08
1.757793e-06
6.1788932e-08
1.7356949e-06
6.1386615e-08
1.7137185e-06
6.1048046e-08
1.69185e-06
6.0748518e-08
1.6700813e-06
6.047081e-08
1.6484104e-06
6.0199334e-08
1.6268384e-06
5.9924444e-08
1.6053683e-06
5.9641666e-08
1.5840032e-06
5.9349503e-08
1.5627466e-06
5.9048352e-08
1.5416009e-06
5.8740081e-08
1.5205678e-06
5.8427736e-08
1.499647e-06
5.8115396e-08
1.478837e-06
5.7808336e-08
1.4581332e-06
5.7513424e-08
1.4375281e-06
5.72398e-08
1.4170098e-06
5.6999876e-08
1.3965599e-06
5.6810905e-08
1.3761518e-06
5.6697207e-08
1.3557459e-06
5.6693886e-08
1.3352849e-06
5.6851806e-08
1.314684e-06
5.7247658e-08
1.2938179e-06
5.7994881e-08
1.2724959e-06
5.9277703e-08
1.2504313e-06
6.1367763e-08
1.2271537e-06
6.4780521e-08
1.2019533e-06
7.0200895e-08
1.1734184e-06
7.959977e-08
1.1394278e-06
9.5057887e-08
1.0944119e-06
1.2632642e-07
1.0278986e-06
1.8829856e-07
8.9789071e-07
3.6501155e-07
3.4692864e-08
8.6997146e-07
3.6937735e-06
1.1650746e-07
3.6478432e-06
1.1068843e-07
3.6025015e-06
1.091917e-07
3.5577054e-06
1.0785667e-07
3.5134275e-06
1.0660188e-07
3.4695278e-06
1.0568858e-07
3.4259132e-06
1.0500129e-07
3.3825384e-06
1.0442278e-07
3.3393761e-06
1.0391079e-07
3.296411e-06
1.0343595e-07
3.2536386e-06
1.0297173e-07
3.2110614e-06
1.0250166e-07
3.168685e-06
1.0201809e-07
3.1265161e-06
1.0151842e-07
3.0845611e-06
1.0100335e-07
3.0428251e-06
1.0047608e-07
3.0013111e-06
9.9941734e-08
2.9600192e-06
9.9407304e-08
2.9189457e-06
9.8881761e-08
2.8780824e-06
9.8376747e-08
2.8374144e-06
9.7907826e-08
2.7969182e-06
9.749607e-08
2.7565583e-06
9.7170776e-08
2.7162823e-06
9.6973189e-08
2.6760133e-06
9.6962893e-08
2.635639e-06
9.7226135e-08
2.5949938e-06
9.7892865e-08
2.5538335e-06
9.9155155e-08
2.5117863e-06
1.0132489e-07
2.4682937e-06
1.0486044e-07
2.4224401e-06
1.1063403e-07
2.3728512e-06
1.1978984e-07
2.3167882e-06
1.356628e-07
2.2501941e-06
1.61652e-07
2.1623716e-06
2.1414888e-07
2.0340745e-06
3.1659565e-07
1.7813525e-06
6.1773356e-07
1.3338426e-07
1.6826611e-06
5.3587456e-06
1.8598258e-07
5.2922098e-06
1.772243e-07
5.2264699e-06
1.7493156e-07
5.161499e-06
1.728276e-07
5.097272e-06
1.7082886e-07
5.0335907e-06
1.6936987e-07
4.9703211e-06
1.6827086e-07
4.9073985e-06
1.673454e-07
4.8447834e-06
1.6652589e-07
4.7824538e-06
1.6576556e-07
4.7204035e-06
1.6502207e-07
4.658636e-06
1.6426914e-07
4.5971596e-06
1.6349449e-07
4.535984e-06
1.6269402e-07
4.4751186e-06
1.6186878e-07
4.4145708e-06
1.6102383e-07
4.3543451e-06
1.6016748e-07
4.2944416e-06
1.5931075e-07
4.2348554e-06
1.5846796e-07
4.1755745e-06
1.5765768e-07
4.1165777e-06
1.5690466e-07
4.0578314e-06
1.5624236e-07
3.9992848e-06
1.5571735e-07
3.9408628e-06
1.5539519e-07
3.8824553e-06
1.5537041e-07
3.8239015e-06
1.5577992e-07
3.7649645e-06
1.5682985e-07
3.7052953e-06
1.5882439e-07
3.6443625e-06
1.6225762e-07
3.5813701e-06
1.6785291e-07
3.5150126e-06
1.7699152e-07
3.4433445e-06
1.9145792e-07
3.362472e-06
2.1653532e-07
3.26674e-06
2.5738396e-07
3.141056e-06
3.3983286e-07
2.9600004e-06
4.9765127e-07
2.6006913e-06
9.7704269e-07
3.1735631e-07
2.4167193e-06
7.5673065e-06
2.8366026e-07
7.4735071e-06
2.7102362e-07
7.3807496e-06
2.676891e-07
7.2890367e-06
2.6454046e-07
7.198359e-06
2.6150662e-07
7.1084454e-06
2.5928345e-07
7.0191096e-06
2.576066e-07
6.9302615e-06
2.5619355e-07
6.841846e-06
2.5494139e-07
6.7538326e-06
2.5377898e-07
6.6662126e-06
2.5264198e-07
6.5789915e-06
2.5149024e-07
6.4921809e-06
2.5030513e-07
6.4057946e-06
2.4908032e-07
6.319846e-06
2.4781741e-07
6.2343456e-06
2.4652416e-07
6.1493e-06
2.4521312e-07
6.0647095e-06
2.4390121e-07
5.9805674e-06
2.426101e-07
5.896857e-06
2.4136808e-07
5.813549e-06
2.4021262e-07
5.7305968e-06
2.3919464e-07
5.6479295e-06
2.3838465e-07
5.5654426e-06
2.3788206e-07
5.4829829e-06
2.3783012e-07
5.4003268e-06
2.3843597e-07
5.317145e-06
2.400117e-07
5.2329525e-06
2.4301683e-07
5.1470121e-06
2.4819809e-07
5.0582212e-06
2.5664378e-07
4.9647718e-06
2.7044095e-07
4.8639917e-06
2.9223802e-07
4.7505015e-06
3.3002548e-07
4.616674e-06
3.9121151e-07
4.4417773e-06
5.1472947e-07
4.1938115e-06
7.4561712e-07
3.6985345e-06
1.4723196e-06
6.2174216e-07
3.3941487e-06
1.048034e-05
4.1833658e-07
1.0350665e-05
4.0069843e-07
1.0222334e-05
3.9601987e-07
1.0095384e-05
3.9149029e-07
9.9698395e-06
3.8705137e-07
9.8453408e-06
3.8378211e-07
9.7216356e-06
3.8131187e-07
9.5986009e-06
3.7922824e-07
9.4761623e-06
3.7737998e-07
9.3542784e-06
3.7566289e-07
9.2329377e-06
3.7398261e-07
9.112148e-06
3.7227994e-07
8.9919257e-06
3.7052747e-07
8.8722902e-06
3.6871585e-07
8.75326e-06
3.6684757e-07
8.6348503e-06
3.6493392e-07
8.5170698e-06
3.6299354e-07
8.3999199e-06
3.6105115e-07
8.2833912e-06
3.5913878e-07
8.1674615e-06
3.5729782e-07
8.0520907e-06
3.5558339e-07
7.9372154e-06
3.5406991e-07
7.8227392e-06
3.5286086e-07
7.7085197e-06
3.521016e-07
7.594348e-06
3.520018e-07
7.4799198e-06
3.528642e-07
7.3647867e-06
3.5514483e-07
7.2482896e-06
3.5951386e-07
7.1294268e-06
3.6706091e-07
7.0067048e-06
3.7936584e-07
6.8776722e-06
3.9947347e-07
6.7387417e-06
4.3116852e-07
6.5826408e-06
4.8612641e-07
6.3993486e-06
5.7450373e-07
6.1609383e-06
7.5313978e-07
5.8289054e-06
1.07765e-06
5.1627294e-06
2.1384956e-06
1.0955014e-06
4.6889702e-06
1.4311232e-05
5.947153e-07
1.414123e-05
5.7070083e-07
1.3972891e-05
5.643589e-07
1.380626e-05
5.5812095e-07
1.364142e-05
5.5189115e-07
1.3477907e-05
5.472953e-07
1.3315384e-05
5.4383457e-07
1.3153688e-05
5.4092476e-07
1.2992718e-05
5.3834998e-07
1.2832419e-05
5.3596204e-07
1.2672775e-05
5.3362604e-07
1.2513798e-05
5.3125714e-07
1.235551e-05
5.288159e-07
1.2197936e-05
5.2628905e-07
1.2041104e-05
5.2368005e-07
1.1885033e-05
5.210052e-07
1.1729735e-05
5.1829122e-07
1.1575212e-05
5.1557379e-07
1.1421452e-05
5.128987e-07
1.1268425e-05
5.1032559e-07
1.1116075e-05
5.0793336e-07
1.0964316e-05
5.0582889e-07
1.0813016e-05
5.0416029e-07
1.0661982e-05
5.0313605e-07
1.0510927e-05
5.030563e-07
1.0359437e-05
5.0435447e-07
1.0206899e-05
5.0768286e-07
1.0052414e-05
5.139988e-07
9.8946158e-06
5.2485914e-07
9.7314723e-06
5.4250939e-07
9.5596448e-06
5.7130096e-07
9.3742944e-06
6.1651889e-07
9.1655402e-06
6.948806e-07
8.9202028e-06
8.1984119e-07
8.6003761e-06
1.0729664e-06
8.1607402e-06
1.5172859e-06
7.2703114e-06
3.0289244e-06
1.8165542e-06
6.5492586e-06
1.9318444e-05
8.2756276e-07
1.9093851e-05
7.9529325e-07
1.887141e-05
7.8679975e-07
1.8651099e-05
7.7843235e-07
1.843308e-05
7.6990952e-07
1.8216766e-05
7.6361016e-07
1.8001715e-05
7.588853e-07
1.7787713e-05
7.5492707e-07
1.7574628e-05
7.514345e-07
1.7362389e-05
7.4820153e-07
1.7150975e-05
7.4503973e-07
1.6940402e-05
7.4183018e-07
1.67307e-05
7.3851736e-07
1.6521907e-05
7.3508272e-07
1.6314056e-05
7.3153115e-07
1.6107175e-05
7.2788575e-07
1.5901282e-05
7.2418414e-07
1.5696379e-05
7.2047646e-07
1.5492451e-05
7.1682734e-07
1.5289456e-05
7.1332052e-07
1.5087322e-05
7.1006691e-07
1.4885935e-05
7.0721662e-07
1.4685117e-05
7.0497765e-07
1.4484611e-05
7.0364238e-07
1.4284035e-05
7.0363175e-07
1.4082837e-05
7.0555317e-07
1.3880199e-05
7.1032034e-07
1.3674927e-05
7.1927151e-07
1.3465201e-05
7.3458442e-07
1.324833e-05
7.5938096e-07
1.301988e-05
7.9975026e-07
1.2773506e-05
8.6289355e-07
1.249613e-05
9.7225658e-07
1.2171001e-05
1.1449698e-06
1.1747858e-05
1.4961096e-06
1.1176706e-05
2.0884379e-06
1.0017995e-05
4.1876352e-06
2.855358e-06
8.9791914e-06
2.5841264e-05
1.1360379e-06
2.5543154e-05
1.0934032e-06
2.5247931e-05
1.0820232e-06
2.49554e-05
1.0709635e-06
2.4665817e-05
1.0594926e-06
2.4378439e-05
1.0509875e-06
2.40927e-05
1.0446247e-06
2.380832e-05
1.0393075e-06
2.352513e-05
1.0346242e-06
2.3243038e-05
1.0302938e-06
2.2962019e-05
1.0260579e-06
2.2682097e-05
1.0217528e-06
2.2403312e-05
1.0173019e-06
2.2125715e-05
1.0126797e-06
2.1849353e-05
1.0078934e-06
2.1574264e-05
1.0029749e-06
2.1300472e-05
9.9797626e-07
2.1027981e-05
9.929672e-07
2.0756772e-05
9.8803692e-07
2.0486791e-05
9.8330111e-07
2.0217945e-05
9.7891291e-07
1.9950082e-05
9.7507916e-07
1.9682974e-05
9.7208638e-07
1.9416279e-05
9.7033717e-07
1.91495e-05
9.7041051e-07
1.8881912e-05
9.7314099e-07
1.8612449e-05
9.7978392e-07
1.8339547e-05
9.9217309e-07
1.8060837e-05
1.013295e-06
1.7772816e-05
1.0474013e-06
1.746972e-05
1.1028468e-06
1.7143396e-05
1.1892173e-06
1.6776891e-05
1.3387611e-06
1.6349506e-05
1.5723547e-06
1.5795729e-05
2.0498872e-06
1.5063976e-05
2.8201904e-06
1.3588754e-05
5.6628578e-06
4.2949576e-06
1.2149154e-05
3.4317422e-05
1.5424568e-06
3.3923976e-05
1.4868486e-06
3.3534517e-05
1.4714826e-06
3.3148484e-05
1.4569966e-06
3.276622e-05
1.441756e-06
3.2386795e-05
1.4304133e-06
3.2009476e-05
1.4219433e-06
3.1633906e-05
1.4148777e-06
3.125987e-05
1.40866e-06
3.0887251e-05
1.4029133e-06
3.051602e-05
1.3972888e-06
3.0146209e-05
1.3915639e-06
2.9777875e-05
1.3856351e-06
2.9411087e-05
1.3794679e-06
2.9045908e-05
1.3730723e-06
2.8682391e-05
1.3664923e-06
2.8320568e-05
1.3597991e-06
2.7960447e-05
1.3530879e-06
2.7602004e-05
1.3464802e-06
2.7245171e-05
1.3401337e-06
2.6889828e-05
1.3342563e-06
2.6535778e-05
1.3291289e-06
2.6182725e-05
1.32514e-06
2.5830227e-05
1.322835e-06
2.547764e-05
1.3229978e-06
2.5124024e-05
1.3267565e-06
2.4768e-05
1.3358075e-06
2.4407552e-05
1.3526218e-06
2.4039619e-05
1.3812274e-06
2.3659707e-05
1.4273134e-06
2.32604e-05
1.502154e-06
2.283136e-05
1.6182571e-06
2.2350899e-05
1.8192223e-06
2.1793915e-05
2.1293388e-06
2.1075871e-05
2.7679315e-06
2.0147139e-05
3.7489222e-06
1.829871e-05
7.5112869e-06
6.2384035e-06
1.6355264e-05
4.5323899e-05
2.0563084e-06
4.4826294e-05
1.9844538e-06
4.4334117e-05
1.9636591e-06
4.3846128e-05
1.9449858e-06
4.3362735e-05
1.9251487e-06
4.2882769e-05
1.9103796e-06
4.2405285e-05
1.8994269e-06
4.192982e-05
1.890343e-06
4.1456099e-05
1.8823807e-06
4.0983973e-05
1.8750395e-06
4.0513407e-05
1.8678542e-06
4.0044445e-05
1.8605259e-06
3.9577165e-05
1.8529152e-06
3.9111657e-05
1.8449764e-06
3.8648006e-05
1.8367232e-06
3.8186282e-05
1.8282157e-06
3.7726531e-05
1.8195501e-06
3.7268764e-05
1.8108549e-06
3.681295e-05
1.8022945e-06
3.6359003e-05
1.7940811e-06
3.5906764e-05
1.7864948e-06
3.545598e-05
1.7799132e-06
3.5006262e-05
1.7748582e-06
3.4557035e-05
1.7720616e-06
3.4107458e-05
1.7725747e-06
3.3656307e-05
1.7779082e-06
3.3201782e-05
1.7903319e-06
3.274126e-05
1.8131441e-06
3.2270763e-05
1.8517241e-06
3.178447e-05
1.9136066e-06
3.1272767e-05
2.0138569e-06
3.072242e-05
2.168604e-06
3.0105582e-05
2.4360603e-06
2.9391553e-05
2.843368e-06
2.8470399e-05
3.6890855e-06
2.7297181e-05
4.9221398e-06
2.4991097e-05
9.8173711e-06
8.8461396e-06
2.2383361e-05
5.9554861e-05
2.7115136e-06
5.8918058e-05
2.6212569e-06
5.8288868e-05
2.5928493e-06
5.7665018e-05
2.5688363e-06
5.7046868e-05
2.5432987e-06
5.6432964e-05
2.524283e-06
5.5822086e-05
2.5103054e-06
5.5213623e-05
2.4988057e-06
5.4607225e-05
2.4887784e-06
5.4002703e-05
2.4795621e-06
5.3400015e-05
2.470542e-06
5.2799221e-05
2.4613203e-06
5.2200425e-05
2.4517109e-06
5.1603748e-05
2.4416535e-06
5.1009304e-05
2.4311669e-06
5.0417188e-05
2.4203319e-06
4.9827461e-05
2.4092775e-06
4.924014e-05
2.3981755e-06
4.8655189e-05
2.3872456e-06
4.8072499e-05
2.3767711e-06
4.7491869e-05
2.3671249e-06
4.6912973e-05
2.3588096e-06
4.6335312e-05
2.3525187e-06
4.575815e-05
2.3492237e-06
4.5180406e-05
2.3503184e-06
4.4600511e-05
2.3578033e-06
4.4016161e-05
2.3746814e-06
4.3424002e-05
2.4053035e-06
4.2818958e-05
2.4567684e-06
4.2193629e-05
2.538935e-06
4.1535809e-05
2.6716772e-06
4.0828848e-05
2.8755648e-06
4.0037947e-05
3.226962e-06
3.9126237e-05
3.7550773e-06
3.7954788e-05
4.8605346e-06
3.6485592e-05
6.3913365e-06
3.3673574e-05
1.2629389e-05
1.2255751e-05
3.0263963e-05
0.00010678159
3.8444812e-06
0.00010566961
3.7332434e-06
0.00010457369
3.6887681e-06
0.00010348761
3.6549181e-06
0.00010241097
3.6199385e-06
0.0001013415
3.5937475e-06
0.0001002771
3.574712e-06
9.9216611e-05
3.5592916e-06
9.8159417e-05
3.5459721e-06
9.7105189e-05
3.5337906e-06
9.6053859e-05
3.5218718e-06
9.5005535e-05
3.5096437e-06
9.396041e-05
3.4968361e-06
9.2918701e-05
3.4833623e-06
9.1880619e-05
3.4692497e-06
9.0846335e-05
3.4546151e-06
8.9815967e-05
3.4396459e-06
8.8789552e-05
3.4245902e-06
8.7767033e-05
3.4097649e-06
8.6748227e-05
3.3955774e-06
8.5732788e-05
3.3825635e-06
8.4720154e-05
3.3714431e-06
8.3709465e-05
3.363208e-06
8.2699444e-05
3.359245e-06
8.1688222e-05
3.3615403e-06
8.0673086e-05
3.3729396e-06
7.9650064e-05
3.3977035e-06
7.8613377e-05
3.4419904e-06
7.7554328e-05
3.5158173e-06
7.646025e-05
3.633013e-06
7.531046e-05
3.8214665e-06
7.4076554e-05
4.1094708e-06
7.2701404e-05
4.602112e-06
7.1124729e-05
5.331753e-06
6.9120798e-05
6.8644656e-06
6.6628859e-05
8.8832755e-06
6.2137274e-05
1.7120973e-05
1.8481539e-05
5.5911486e-05
0.00013676162
5.2152254e-06
0.00013541451
5.0803504e-06
0.0001340881
5.0151785e-06
0.00013277408
4.9689392e-06
0.00013147123
4.9227919e-06
0.00013017678
4.8881907e-06
0.00012888803
4.8634656e-06
0.00012760346
4.8438624e-06
0.00012632225
4.8271785e-06
0.00012504399
4.8120564e-06
0.00012376857
4.7972895e-06
0.00012249613
4.7820803e-06
0.00012122692
4.7660488e-06
0.00011996121
4.7490716e-06
0.00011869927
4.7311864e-06
0.00011744133
4.7125543e-06
0.00011618755
4.6934348e-06
0.00011493796
4.6741718e-06
0.00011369252
4.6552036e-06
0.00011245101
4.6370934e-06
0.00011121299
4.620579e-06
0.00010997779
4.6066515e-06
0.00010874432
4.5966731e-06
0.00010751102
4.5925447e-06
0.00010627558
4.5969841e-06
0.00010503464
4.6138782e-06
0.00010378331
4.6490308e-06
0.00010251449
4.7108087e-06
0.00010121753
4.812782e-06
9.9876979e-05
4.9735615e-06
9.8467766e-05
5.2306794e-06
9.6955594e-05
5.6216435e-06
9.5272486e-05
6.2852202e-06
9.3349317e-05
7.2549218e-06
9.0920099e-05
9.2936835e-06
8.793289e-05
1.1870484e-05
8.2817886e-05
2.2235978e-05
2.5817851e-05
7.5481574e-05
0.00017211162
6.8427166e-06
0.00017051167
6.680303e-06
0.00016893715
6.5896995e-06
0.00016737792
6.5281663e-06
0.00016583178
6.4689314e-06
0.00016429538
6.4245895e-06
0.00016276529
6.3935554e-06
0.00016123955
6.3696045e-06
0.0001597171
6.3496264e-06
0.0001581974
6.3317609e-06
0.0001566803
6.3143839e-06
0.00015516597
6.2964101e-06
0.0001536547
6.2773171e-06
0.00015214684
6.2569324e-06
0.00015064273
6.2353027e-06
0.00014914264
6.2126426e-06
0.00014764678
6.1892986e-06
0.00014615522
6.1657317e-06
0.00014466789
6.142528e-06
0.00014318454
6.1204437e-06
0.00014170466
6.1004599e-06
0.00014022741
6.0838994e-06
0.00013875151
6.072574e-06
0.00013727505
6.0690075e-06
0.00013579523
6.0768017e-06
0.00013430801
6.1010967e-06
0.00013280749
6.1495497e-06
0.00013128514
6.233161e-06
0.00012972819
6.369733e-06
0.00012811826
6.5834928e-06
0.00012642563
6.9233076e-06
0.0001246099
7.437377e-06
0.00012259169
8.3034253e-06
0.0001202929
9.5537145e-06
0.00011741087
1.2175708e-05
0.00011389981
1.5381551e-05
0.00010820166
2.7934121e-05
3.4164132e-05
9.9855384e-05
0.00021365166
8.7512901e-06
0.0002117743
8.5576662e-06
0.0002099274
8.4365953e-06
0.00020809915
8.3564174e-06
0.00020628606
8.2820204e-06
0.00020448413
8.2265143e-06
0.00020268915
8.1885398e-06
0.00020089861
8.1601445e-06
0.00019911118
8.1370549e-06
0.00019732617
8.1167758e-06
0.00019554338
8.0971732e-06
0.00019376299
8.0767961e-06
0.00019198536
8.054946e-06
0.00019021091
8.0313824e-06
0.00018844006
8.0061595e-06
0.00018667314
7.9795574e-06
0.00018491042
7.9520232e-06
0.00018315199
7.9241582e-06
0.00018139779
7.8967316e-06
0.00017964751
7.87072e-06
0.00017790056
7.8474051e-06
0.00017615596
7.8285045e-06
0.00017441217
7.8163627e-06
0.00017266693
7.8142444e-06
0.00017091693
7.8268017e-06
0.00016915738
7.8606503e-06
0.0001673813
7.9256277e-06
0.00016557865
8.0358153e-06
0.00016373444
8.2139443e-06
0.00016182722
8.4907074e-06
0.00015982255
8.9279757e-06
0.00015767385
9.5860778e-06
0.00015529042
1.0686863e-05
0.00015258393
1.2260198e-05
0.00014922423
1.5535414e-05
0.00014516091
1.9444872e-05
0.00013893209
3.4162938e-05
4.3420359e-05
0.00012967586
0.00026235371
1.0934403e-05
0.00026020612
1.0705253e-05
0.00025809442
1.05483e-05
0.00025600497
1.0445864e-05
0.0002539326
1.0354387e-05
0.00025187254
1.0286578e-05
0.00024981969
1.0241394e-05
0.00024777093
1.0208903e-05
0.00024572462
1.0183364e-05
0.00024367989
1.0161501e-05
0.00024163651
1.0140554e-05
0.00023959467
1.0118636e-05
0.0002375548
1.0094818e-05
0.0002355174
1.0068782e-05
0.00023348297
1.0040587e-05
0.00023145195
1.0010585e-05
0.00022942463
9.9793436e-06
0.00022740115
9.9476351e-06
0.00022538145
9.9164353e-06
0.00022336517
9.8869945e-06
0.00022135163
9.8609443e-06
0.00021933967
9.8404632e-06
0.0002173275
9.8285317e-06
0.00021531247
9.8292803e-06
0.00021329068
9.8485871e-06
0.00021125654
9.8947951e-06
0.00020920189
9.9802756e-06
0.00020711505
1.012266e-05
0.00020497863
1.035036e-05
0.00020276793
1.070141e-05
0.00020044352
1.1252379e-05
0.00019795244
1.2077158e-05
0.0001951927
1.3446611e-05
0.00019206303
1.5389867e-05
0.00018821585
1.9382593e-05
0.0001835808
2.4079918e-05
0.00017686831
4.0875428e-05
5.3498795e-05
0.00016678988
0.00031930993
1.3356912e-05
0.00031692755
1.3087636e-05
0.00031458657
1.2889279e-05
0.00031227158
1.2760858e-05
0.00030997523
1.2650738e-05
0.00030769177
1.2570033e-05
0.00030541517
1.2517995e-05
0.0003031416
1.2482469e-05
0.00030086907
1.2455903e-05
0.00029859652
1.2434043e-05
0.00029632368
1.2413397e-05
0.00029405077
1.2391548e-05
0.0002917783
1.2367288e-05
0.00028950687
1.2340205e-05
0.0002872371
1.2310365e-05
0.00028496949
1.2278194e-05
0.00028270442
1.2244416e-05
0.00028044206
1.2209993e-05
0.00027818235
1.2176147e-05
0.00027592489
1.2144451e-05
0.00027366889
1.2116946e-05
0.000271413
1.209635e-05
0.00026915515
1.2086382e-05
0.00026689224
1.2092188e-05
0.00026461977
1.2121059e-05
0.00026233123
1.2183339e-05
0.00026001719
1.2294313e-05
0.00025766417
1.2475679e-05
0.00025525223
1.2762301e-05
0.00025275315
1.3200492e-05
0.00025012228
1.388325e-05
0.00024730023
1.4899203e-05
0.00024417293
1.6573913e-05
0.00024063194
1.8930855e-05
0.00023631256
2.3701974e-05
0.00023110114
2.929134e-05
0.00022396
4.8016561e-05
6.4282766e-05
0.00021317603
0.00038568187
1.6023731e-05
0.00038306048
1.5709027e-05
0.0003804863
1.5463455e-05
0.00037794227
1.5304894e-05
0.00037541851
1.5174494e-05
0.00037290809
1.5080449e-05
0.00037040392
1.5022173e-05
0.00036790136
1.4985024e-05
0.00036539803
1.4959231e-05
0.00036289272
1.4939354e-05
0.00036038509
1.4921032e-05
0.00035787542
1.4901216e-05
0.00035536433
1.4878378e-05
0.00035285255
1.485198e-05
0.00035034082
1.4822099e-05
0.00034782975
1.4789264e-05
0.0003453198
1.4754365e-05
0.00034281121
1.4718587e-05
0.0003403039
1.4683455e-05
0.00033779745
1.46509e-05
0.00033529095
1.4623444e-05
0.00033278287
1.4604428e-05
0.00033027083
1.4598421e-05
0.0003277513
1.4611726e-05
0.00032521909
1.4653266e-05
0.00032266678
1.4735642e-05
0.00032008365
1.4877453e-05
0.00031745436
1.5104968e-05
0.00031475637
1.5460284e-05
0.00031195801
1.5998855e-05
0.00030900949
1.6831768e-05
0.00030584571
1.8062985e-05
0.00030234084
2.0078782e-05
0.00029838624
2.2885458e-05
0.00029360056
2.8487657e-05
0.00028781281
3.5079089e-05
0.00028030551
5.5523859e-05
7.5575778e-05
0.0002690125
0.00046287051
1.8897231e-05
0.00046004911
1.8530426e-05
0.00045728127
1.82313e-05
0.00045454815
1.8038012e-05
0.00045183693
1.7885719e-05
0.00044913905
1.7778326e-05
0.00044644621
1.7715012e-05
0.00044375288
1.7678352e-05
0.00044105621
1.7655901e-05
0.0004383548
1.7640769e-05
0.00043564827
1.7627558e-05
0.000432937
1.7612484e-05
0.00043022174
1.7593638e-05
0.00042750338
1.7570343e-05
0.00042478279
1.7542689e-05
0.00042206073
1.7511322e-05
0.00041933777
1.7477325e-05
0.0004166142
1.7442162e-05
0.00041388997
1.7407686e-05
0.00041116462
1.7376252e-05
0.00040843713
1.735093e-05
0.00040570577
1.7335785e-05
0.00040296786
1.7336339e-05
0.00040021936
1.736022e-05
0.00039745444
1.7418186e-05
0.00039466468
1.75254e-05
0.00039183798
1.7704153e-05
0.00038895713
1.7985823e-05
0.00038599693
1.8420486e-05
0.00038292217
1.907361e-05
0.00037967803
2.0075912e-05
0.00037619391
2.1547102e-05
0.00037233383
2.3938867e-05
0.00036798013
2.7239152e-05
0.0003627533
3.3714484e-05
0.00035642752
4.1404872e-05
0.00034862374
6.3327639e-05
8.7180082e-05
0.00033701944
0.00055241295
2.1930396e-05
0.00054944274
2.1500634e-05
0.00054653466
2.1139377e-05
0.000543667
2.0905676e-05
0.00054082307
2.0729651e-05
0.0005379921
2.0609299e-05
0.0005351643
2.0542804e-05
0.00053233311
2.0509545e-05
0.00052949516
2.0493857e-05
0.00052664884
2.0487082e-05
0.00052379379
2.048261e-05
0.00052093049
2.0475787e-05
0.00051805986
2.0464268e-05
0.00051518298
2.044722e-05
0.00051230092
2.0424753e-05
0.0005094146
2.0397644e-05
0.0005065247
2.0367224e-05
0.0005036316
2.0335256e-05
0.00050073531
2.0303979e-05
0.00049783531
2.0276248e-05
0.0004949305
2.0255738e-05
0.00049201895
2.0247338e-05
0.00048909763
2.0257657e-05
0.00048616205
2.0295802e-05
0.00048320564
2.0374595e-05
0.000480219
2.0512039e-05
0.00047718862
2.0734541e-05
0.00047409535
2.107909e-05
0.00047091137
2.1604464e-05
0.00046759797
2.2387006e-05
0.00046409565
2.3578235e-05
0.00046032804
2.5314716e-05
0.00045615431
2.8112595e-05
0.0004514357
3.1957758e-05
0.00044583361
3.9316575e-05
0.00043904572
4.8192766e-05
0.00043101912
7.1354234e-05
9.8879722e-05
0.00041931948
0.0006560517
2.5009962e-05
0.0006530452
2.4507141e-05
0.00065010849
2.4076089e-05
0.0006472174
2.379676e-05
0.00064435144
2.3595608e-05
0.00064149716
2.3463579e-05
0.0006386431
2.3396872e-05
0.00063578155
2.3371089e-05
0.0006329086
2.336681e-05
0.00063002246
2.3373222e-05
0.00062712279
2.3382282e-05
0.00062421023
2.3388347e-05
0.00062128594
2.3388558e-05
0.00061835123
2.3381928e-05
0.0006154074
2.3368579e-05
0.00061245557
2.3349478e-05
0.00060949658
2.3326213e-05
0.00060653092
2.3300914e-05
0.00060355863
2.3276266e-05
0.00060057921
2.3255668e-05
0.00059759144
2.3243507e-05
0.0005945932
2.3245584e-05
0.00059158113
2.3269728e-05
0.00058855023
2.3326701e-05
0.00058549322
2.3431603e-05
0.00058239966
2.3605598e-05
0.00057925462
2.3879582e-05
0.000576037
2.4296707e-05
0.00057271637
2.49251e-05
0.00056925052
2.5852857e-05
0.00056557586
2.725289e-05
0.00056160944
2.9281135e-05
0.00055721205
3.2509985e-05
0.00055221528
3.6954527e-05
0.0005463655
4.5166357e-05
0.00053922806
5.5330204e-05
0.00053108282
7.9499479e-05
0.00011042195
0.00051954059
0.00077563717
2.8076586e-05
0.00077266134
2.7482976e-05
0.00076976664
2.6970783e-05
0.0007669243
2.6639108e-05
0.00076410888
2.6411023e-05
0.00076130335
2.6269106e-05
0.00075849419
2.6206039e-05
0.00075567252
2.6192756e-05
0.00075283386
2.6205471e-05
0.0007499763
2.6230784e-05
0.0007470996
2.6258973e-05
0.00074420469
2.6283266e-05
0.000741293
2.6300245e-05
0.00073836617
2.6308757e-05
0.00073542577
2.6308978e-05
0.00073247318
2.6302072e-05
0.00072950942
2.6289965e-05
0.00072653515
2.627519e-05
0.00072355047
2.6260947e-05
0.00072055488
2.6251257e-05
0.00071754709
2.6251295e-05
0.0007145248
2.6267876e-05
0.00071148435
2.631018e-05
0.00070842025
2.6390794e-05
0.00070532454
2.6527322e-05
0.00070218577
2.6744362e-05
0.00069898767
2.7077685e-05
0.00069570731
2.7577063e-05
0.0006923119
2.8320516e-05
0.00068875598
2.9408769e-05
0.00068497301
3.1035863e-05
0.00068087351
3.3380633e-05
0.00067632462
3.7058878e-05
0.00067113121
4.2147942e-05
0.00066511735
5.118021e-05
0.00065774043
6.2707128e-05
0.00064962343
8.7616476e-05
0.00012151776
0.00063852762
0.00091326832
3.1033524e-05
0.00091042299
3.0328302e-05
0.00090767085
2.9722928e-05
0.00090497771
2.9332242e-05
0.000902313
2.907573e-05
0.00089965539
2.8926721e-05
0.00089698898
2.8872448e-05
0.00089430379
2.887795e-05
0.00089159484
2.8914419e-05
0.00088886019
2.8965429e-05
0.00088609988
2.9019286e-05
0.00088331519
2.9067957e-05
0.00088050798
2.9107454e-05
0.00087768028
2.9136455e-05
0.00087483404
2.9155226e-05
0.00087197091
2.9165197e-05
0.0008690922
2.9168677e-05
0.0008661987
2.9168686e-05
0.00086329066
2.916899e-05
0.0008603676
2.9174314e-05
0.0008574282
2.9190698e-05
0.00085446999
2.9226084e-05
0.00085148904
2.9291133e-05
0.00084847942
2.9400407e-05
0.00084543253
2.9574219e-05
0.00084233602
2.9840869e-05
0.0008391724
3.0241306e-05
0.00083591708
3.0832383e-05
0.00083253527
3.1702323e-05
0.00082897873
3.2965307e-05
0.00082517908
3.4835518e-05
0.00082104155
3.751816e-05
0.0008164412
4.1659231e-05
0.0008111701
4.7419042e-05
0.00080510113
5.7249177e-05
0.0007976778
7.013046e-05
0.00078977755
9.5516728e-05
0.00013190482
0.00077939049
0.0010713561
3.3690023e-05
0.0010688425
3.2841883e-05
0.0010664387
3.212667e-05
0.0010641022
3.1668773e-05
0.0010617957
3.1382188e-05
0.0010594923
3.1230131e-05
0.0010571731
3.1191672e-05
0.001054827
3.1224055e-05
0.0010524486
3.1292776e-05
0.0010500362
3.1377905e-05
0.00104759
3.1465414e-05
0.0010451121
3.1545895e-05
0.0010426048
3.1614794e-05
0.0010400706
3.1670664e-05
0.0010375119
3.1713909e-05
0.0010349308
3.1746313e-05
0.0010323288
3.177063e-05
0.001029707
3.1790448e-05
0.0010270659
3.181017e-05
0.0010244049
3.1835308e-05
0.0010217227
3.1872857e-05
0.0010190168
3.1931986e-05
0.001016283
3.202494e-05
0.001013515
3.2168428e-05
0.0010107036
3.2385641e-05
0.0010078356