/*--------------------------------*- C++ -*----------------------------------*\
  =========                 |
  \\      /  F ield         | OpenFOAM: The Open Source CFD Toolbox
   \\    /   O peration     | Website:  https://openfoam.org
    \\  /    A nd           | Version:  7
     \\/     M anipulation  |
\*---------------------------------------------------------------------------*/
FoamFile
{
    version     2.0;
    format      ascii;
    class       volVectorField;
    location    "2000";
    object      U;
}
// * * * * * * * * * * * * * * * * * * * * * * * * * * * * * * * * * * * * * //

dimensions      [0 1 -1 0 0 0 0];

internalField   nonuniform List<vector> 
15296
(
(1.2143405 6.5214525e-06 5.4241614e-17)
(1.21417 5.8585041e-07 -3.9077118e-17)
(1.2141456 -3.1300993e-08 -3.895177e-17)
(1.2141862 -4.9822794e-07 2.4731574e-17)
(1.2143276 -9.1912904e-07 7.2889111e-17)
(1.21452 -1.0782182e-06 7.2160448e-17)
(1.2147221 -1.0719859e-06 4.5333529e-17)
(1.2149169 -9.8982854e-07 -2.1703062e-17)
(1.2150941 -8.6038384e-07 -7.483953e-17)
(1.2152466 -7.056132e-07 -3.7077714e-17)
(1.2153715 -5.462447e-07 -8.6882001e-18)
(1.215469 -3.9465867e-07 -2.1506408e-18)
(1.2155408 -2.5587882e-07 -4.4604814e-17)
(1.2155889 -1.3062828e-07 7.9032126e-17)
(1.2156154 -1.6937513e-08 -6.4901765e-17)
(1.2156218 8.9089451e-08 5.9005425e-18)
(1.2156088 1.9277727e-07 -4.5456693e-17)
(1.2155758 3.0076016e-07 -5.7712179e-17)
(1.2155209 4.2132767e-07 -6.561875e-17)
(1.2154402 5.6515808e-07 -3.8099421e-17)
(1.2153272 7.4648284e-07 -5.1317215e-17)
(1.2151719 9.8481053e-07 9.4029834e-17)
(1.2149593 1.3075747e-06 6.6459553e-17)
(1.2146674 1.7538885e-06 -3.4975016e-17)
(1.2142637 2.3807668e-06 -4.1060363e-17)
(1.2137002 3.271455e-06 -9.8961003e-17)
(1.2129062 4.5521303e-06 8.721557e-19)
(1.2117754 6.4101511e-06 5.3487395e-17)
(1.2101485 9.1487102e-06 2.4307843e-17)
(1.2077743 1.3218532e-05 4.4501558e-17)
(1.2042716 1.9451891e-05 -1.9634053e-17)
(1.1989774 2.9014284e-05 3.2080733e-17)
(1.190895 4.4722047e-05 -2.2221137e-17)
(1.1778962 6.991193e-05 -7.9919623e-17)
(1.1567403 0.00011638142 -5.3958428e-17)
(1.1176607 0.0001995887 3.7983409e-17)
(1.0414657 0.00033698147 7.2854992e-16)
(0.87268987 0.00055119276 -2.7448342e-15)
(1.2143292 1.7487902e-05 2.1020712e-17)
(1.2141647 1.5940206e-06 -1.1700196e-16)
(1.2141401 -1.2188952e-07 -7.5882124e-17)
(1.2141803 -1.4228329e-06 -9.1035474e-17)
(1.2143216 -2.6049001e-06 6.3203352e-17)
(1.2145145 -3.064531e-06 6.0497889e-17)
(1.2147174 -3.0667415e-06 1.2620838e-16)
(1.2149136 -2.858133e-06 -6.4724742e-17)
(1.2150923 -2.5161619e-06 -1.7111144e-16)
(1.2152463 -2.1005739e-06 -1.3092027e-16)
(1.2153725 -1.6688999e-06 -3.852178e-17)
(1.2154709 -1.256108e-06 1.5796719e-17)
(1.2155432 -8.7690758e-07 7.7418704e-17)
(1.2155915 -5.339945e-07 7.8319839e-17)
(1.2156178 -2.223535e-07 -2.0570323e-16)
(1.2156238 6.8716148e-08 2.9676598e-17)
(1.2156102 3.5422675e-07 -9.0771955e-17)
(1.2155766 6.5310973e-07 -1.9328306e-16)
(1.2155211 9.8913606e-07 -1.7531685e-16)
(1.2154398 1.3930048e-06 -9.7595934e-17)
(1.2153264 1.905737e-06 -9.7743185e-17)
(1.2151709 2.5837481e-06 1.3836557e-16)
(1.2149584 3.5066534e-06 3.4038269e-17)
(1.214667 4.7884521e-06 -9.8190748e-17)
(1.2142644 6.5960361e-06 -8.2817909e-17)
(1.2137027 9.1745993e-06 -1.3520187e-16)
(1.2129118 1.2897892e-05 3.812943e-17)
(1.2117856 1.8327131e-05 1.9867185e-16)
(1.210166 2.6377581e-05 7.7222153e-17)
(1.2078032 3.8442068e-05 1.0943041e-16)
(1.2043192 5.711384e-05 -1.1020128e-16)
(1.1990555 8.6227792e-05 1.1862713e-16)
(1.1910269 0.00013497809 -6.3826846e-17)
(1.1781222 0.00021664527 -1.913569e-16)
(1.1571537 0.00037551704 -1.4978564e-16)
(1.1184706 0.00070115442 1.2449073e-16)
(1.0433428 0.001445478 3.710051e-16)
(0.87530945 -0.00012562777 -4.6607509e-15)
(1.2143057 2.5922524e-05 -1.0432077e-17)
(1.2141533 2.4567371e-06 -7.9139214e-17)
(1.2141294 -1.968548e-07 -1.9595871e-16)
(1.2141696 -2.246812e-06 -2.2459962e-16)
(1.214311 -4.1159176e-06 5.8527701e-17)
(1.2145045 -4.8518879e-06 3.4626787e-17)
(1.2147086 -4.866851e-06 3.4382707e-17)
(1.2149062 -4.5462426e-06 -1.1771389e-16)
(1.2150867 -4.0114943e-06 -2.3195041e-16)
(1.2152424 -3.3568923e-06 -1.0784331e-16)
(1.2153701 -2.6738247e-06 8.6474484e-17)
(1.2154696 -2.0185323e-06 -5.4334108e-17)
(1.2155427 -1.4153778e-06 3.6775639e-17)
(1.2155913 -8.6961806e-07 7.9970801e-17)
(1.2156176 -3.7408574e-07 -8.0385781e-17)
(1.2156233 8.7664026e-08 -7.6120423e-17)
(1.2156092 5.391592e-07 -2.6121384e-16)
(1.2155749 1.0102948e-06 -3.4464784e-16)
(1.2155187 1.5386804e-06 -2.3282422e-16)
(1.2154368 2.1728609e-06 -2.9337366e-16)
(1.2153229 2.9776127e-06 -1.2339423e-16)
(1.2151672 4.0418786e-06 2.2254172e-16)
(1.2149548 5.4909889e-06 3.5563094e-17)
(1.214664 7.5041649e-06 -1.564558e-16)
(1.2142624 1.0343473e-05 -7.6836259e-17)
(1.2137027 1.4393434e-05 -1.2816232e-16)
(1.2129149 2.023938e-05 1.7439781e-17)
(1.2117936 2.8758378e-05 2.1916614e-16)
(1.2101814 4.1377958e-05 1.2112026e-16)
(1.2078303 6.0261103e-05 1.0419142e-16)
(1.2043648 8.9425953e-05 -1.2421386e-16)
(1.199131 0.00013475893 1.0205178e-16)
(1.1911535 0.00021039585 -8.6975432e-17)
(1.1783368 0.00033737985 -1.4447471e-16)
(1.1575489 0.0005873706 -2.2265611e-16)
(1.119235 0.0011054082 9.6975966e-17)
(1.0452558 0.002372584 8.4344121e-16)
(0.87688434 -0.00075552269 -2.7562164e-15)
(1.214272 3.4227455e-05 -2.0318031e-17)
(1.2141358 3.2818333e-06 -1.1073911e-16)
(1.2141135 -2.831813e-07 -2.0597197e-16)
(1.2141539 -3.1338423e-06 -2.1392367e-16)
(1.2142957 -5.7459252e-06 3.0954253e-17)
(1.2144899 -6.7833752e-06 -1.3678314e-18)
(1.2146953 -6.8147487e-06 -2.3289005e-17)
(1.2148948 -6.3741544e-06 -1.558916e-16)
(1.2150773 -5.6304693e-06 -1.7594439e-16)
(1.2152351 -4.7155888e-06 -1.0301012e-16)
(1.2153646 -3.7577878e-06 1.1706397e-16)
(1.2154657 -2.8366091e-06 3.2611158e-18)
(1.2155398 -1.9871955e-06 6.0244446e-17)
(1.215589 -1.2179541e-06 1.2119504e-16)
(1.2156154 -5.1979023e-07 -1.2995165e-16)
(1.2156208 1.2957635e-07 -1.6249406e-16)
(1.2156062 7.6257249e-07 -2.9891291e-16)
(1.2155712 1.4207191e-06 -4.4123972e-16)
(1.2155142 2.1564245e-06 -2.0073759e-16)
(1.2154316 3.037395e-06 -3.8032039e-16)
(1.2153171 4.1539327e-06 -8.5267097e-17)
(1.2151611 5.6298888e-06 2.2790684e-16)
(1.2149487 7.6395642e-06 -3.1430887e-17)
(1.2146583 1.0431922e-05 -1.2648719e-16)
(1.2142578 1.4370706e-05 -6.8689656e-17)
(1.2137 1.9989197e-05 -1.076545e-16)
(1.2129153 2.809887e-05 3.4222127e-17)
(1.2117989 3.9914589e-05 1.9617564e-16)
(1.2101944 5.7413936e-05 1.3659599e-16)
(1.2078551 8.3587891e-05 1.160913e-16)
(1.2044086 0.0001240004 -1.2523031e-16)
(1.1992054 0.00018676467 6.9133927e-17)
(1.1912802 0.00029142855 -1.3432538e-17)
(1.1785537 0.00046646766 -9.9999163e-17)
(1.1579505 0.00081113457 -3.1804373e-16)
(1.1200028 0.00152116 1.563866e-17)
(1.0472706 0.0033092563 4.9530352e-16)
(0.87902535 -0.00056273001 -2.2930674e-15)
(1.2142294 4.1695286e-05 -3.6722792e-17)
(1.2141121 3.9641665e-06 -1.4664e-16)
(1.2140925 -3.8151381e-07 -1.6223012e-16)
(1.2141333 -4.0182614e-06 -2.4577716e-16)
(1.2142754 -7.3774315e-06 8.5599591e-18)
(1.2144704 -8.7250783e-06 -4.2683611e-17)
(1.2146774 -8.7822196e-06 -6.4260836e-17)
(1.214879 -8.2288358e-06 -1.9545148e-16)
(1.215064 -7.2796304e-06 -2.0597884e-16)
(1.2152243 -6.1037786e-06 -1.0855415e-16)
(1.2153561 -4.8671274e-06 9.6968591e-17)
(1.2154592 -3.6737401e-06 2.9814485e-17)
(1.2155347 -2.5708348e-06 1.0783764e-16)
(1.2155848 -1.5710371e-06 9.2062077e-17)
(1.2156115 -6.6405187e-07 -1.9302809e-16)
(1.2156168 1.7783307e-07 -2.0806354e-16)
(1.2156017 9.95787e-07 -3.4468639e-16)
(1.215566 1.8429555e-06 -5.4186051e-16)
(1.2155081 2.78661e-06 -2.3621251e-16)
(1.2154246 3.9136696e-06 -4.1839999e-16)
(1.2153094 5.3399453e-06 -3.7509635e-17)
(1.2151528 7.2240642e-06 2.3913669e-16)
(1.2149402 9.7889972e-06 -4.2018638e-17)
(1.2146501 1.3352889e-05 -1.5165774e-16)
(1.2142506 1.8380199e-05 -6.9009556e-17)
(1.2136946 2.5551314e-05 -1.226536e-16)
(1.212913 3.5901137e-05 -1.2586035e-17)
(1.2118014 5.097746e-05 1.5843501e-16)
(1.2102046 7.329999e-05 1.4969654e-16)
(1.2078772 0.00010667144 1.4248718e-16)
(1.2044498 0.00015817528 -1.321694e-16)
(1.1992772 0.0002380837 7.3909429e-18)
(1.1914044 0.00037124437 1.7208357e-17)
(1.1787675 0.00059355632 -6.4404411e-17)
(1.1583489 0.0010308185 -2.6701834e-16)
(1.1207558 0.0019245893 -2.8533719e-16)
(1.0493229 0.0042350693 1.8486287e-16)
(0.88129664 -0.00037316025 -2.0143818e-15)
(1.2141643 5.0237405e-05 -5.5497152e-17)
(1.2140735 4.7035753e-06 -1.5359567e-16)
(1.2140587 -5.3632074e-07 -1.3558883e-16)
(1.2141001 -5.155147e-06 -3.1574248e-16)
(1.2142426 -9.4804267e-06 -2.3581418e-17)
(1.2144388 -1.1243672e-05 -1.1724461e-16)
(1.2146479 -1.1352128e-05 -9.5521622e-17)
(1.2148525 -1.066755e-05 -2.6858414e-16)
(1.2150412 -9.4610618e-06 -2.5683083e-16)
(1.2152053 -7.9492064e-06 -1.8474355e-16)
(1.2153408 -6.3471988e-06 5.1351769e-18)
(1.215447 -4.7926065e-06 3.0642448e-17)
(1.215525 -3.3503171e-06 1.9483098e-16)
(1.2155766 -2.0402518e-06 7.0063619e-17)
(1.2156043 -8.5198681e-07 -1.829861e-16)
(1.2156097 2.4826007e-07 -2.2027095e-16)
(1.2155941 1.3124398e-06 -2.9799569e-16)
(1.2155574 2.4085355e-06 -6.0575678e-16)
(1.2154984 3.6230339e-06 -1.8834757e-16)
(1.2154136 5.0677492e-06 -4.1910477e-16)
(1.2152972 6.8914694e-06 -9.5063449e-17)
(1.2151397 9.2976249e-06 2.5196837e-16)
(1.2149266 1.2571695e-05 -3.0507085e-17)
(1.2146367 1.7120445e-05 -1.5218957e-16)
(1.2142381 2.3537103e-05 -1.2214775e-16)
(1.2136843 3.2689801e-05 -1.3591675e-16)
(1.2129065 4.5898305e-05 -7.7021227e-17)
(1.2118012 6.5134105e-05 1.5223418e-16)
(1.2102142 9.3606874e-05 1.9556914e-16)
(1.2079022 0.00013614887 1.8301949e-16)
(1.2044994 0.00020177609 -1.1241188e-16)
(1.1993664 0.00030348516 2.3992261e-17)
(1.1915611 0.00047285587 1.0490682e-16)
(1.1790395 0.00075460194 -9.5445683e-18)
(1.1588593 0.0013076775 -2.6919867e-16)
(1.1217097 0.0024239243 -2.6559498e-16)
(1.0520003 0.005399392 5.1764376e-16)
(0.88434475 4.6755595e-05 -2.1481016e-15)
(1.214064 5.9277049e-05 -8.4596416e-17)
(1.2140093 5.3097434e-06 -2.3438122e-16)
(1.2140036 -8.4475365e-07 -9.199782e-17)
(1.214047 -6.6346708e-06 -2.98816e-16)
(1.2141905 -1.2184823e-05 3.7211162e-18)
(1.2143883 -1.4497417e-05 -1.3205057e-16)
(1.2146001 -1.4695128e-05 -1.2969582e-16)
(1.2148086 -1.3861165e-05 -3.5211973e-16)
(1.2150018 -1.2336122e-05 -2.5277208e-16)
(1.2151708 -1.0396769e-05 -1.7910599e-16)
(1.2153111 -8.3223403e-06 -1.4194239e-16)
(1.2154215 -6.2948571e-06 1.7887253e-17)
(1.215503 -4.4036404e-06 2.3222569e-16)
(1.2155573 -2.6798453e-06 5.2176821e-17)
(1.2155865 -1.1147546e-06 -2.0073455e-16)
(1.2155927 3.3150786e-07 -2.2399437e-16)
(1.2155769 1.7233698e-06 -2.8019114e-16)
(1.2155396 3.1468837e-06 -5.9554098e-16)
(1.2154795 4.7125605e-06 -2.7630948e-16)
(1.2153934 6.5637546e-06 -4.3229043e-16)
(1.2152757 8.8912353e-06 -1.1019763e-16)
(1.2151171 1.1955463e-05 2.0121077e-16)
(1.2149036 1.6121291e-05 -1.908425e-17)
(1.2146137 2.1907676e-05 -1.1909406e-16)
(1.2142164 3.0070389e-05 -2.7712343e-16)
(1.2136654 4.1713906e-05 -1.7794777e-16)
(1.2128924 5.8515881e-05 -2.5497117e-16)
(1.211795 8.2978635e-05 1.2807441e-16)
(1.2102205 0.00011917557 1.4922298e-16)
(1.2079282 0.00017322119 1.7372337e-16)
(1.2045567 0.00025654272 -1.1323131e-16)
(1.199474 0.00038549498 -3.8802419e-17)
(1.1917543 0.00060001032 2.1207411e-16)
(1.1793782 0.00095533253 -2.8603234e-17)
(1.1595013 0.0016517483 -2.9166516e-16)
(1.1228896 0.0030320521 -1.9124574e-16)
(1.0554122 0.0068628853 1.4382627e-16)
(0.88860201 0.0010470002 -9.3339693e-16)
(1.213932 6.7685771e-05 -1.3227628e-16)
(1.2139182 5.4379981e-06 -1.773865e-16)
(1.2139259 -1.3761285e-06 -1.4796491e-16)
(1.213973 -8.3533575e-06 -2.7961739e-16)
(1.2141183 -1.5266466e-05 -4.7534615e-17)
(1.2143182 -1.8216816e-05 -5.3289517e-17)
(1.2145331 -1.8542374e-05 -1.5881165e-16)
(1.2147457 -1.7563009e-05 -3.3720855e-16)
(1.2149441 -1.5692434e-05 -2.0700251e-16)
(1.2151186 -1.3274219e-05 -1.795039e-16)
(1.2152645 -1.0660901e-05 -1.7451172e-16)
(1.21538 -8.0865294e-06 -1.8149251e-17)
(1.215466 -5.6700341e-06 2.7101998e-16)
(1.2155238 -3.4574226e-06 5.8001352e-17)
(1.2155556 -1.4441827e-06 -2.223101e-16)
(1.2155633 4.1428766e-07 -2.3435759e-16)
(1.2155482 2.1947294e-06 -1.9852517e-16)
(1.2155108 4.0023188e-06 -5.0483827e-16)
(1.2154499 5.9738746e-06 -3.7181314e-16)
(1.2153628 8.2878841e-06 -4.2651214e-16)
(1.215244 1.1182204e-05 -2.0804213e-16)
(1.2150844 1.4981324e-05 1.7836484e-16)
(1.2148703 2.0139044e-05 -2.4174233e-17)
(1.2145807 2.7299672e-05 -1.2772145e-16)
(1.2141848 3.7400093e-05 -2.2005648e-16)
(1.2136367 5.1807315e-05 -2.2452332e-16)
(1.2128691 7.2595789e-05 -2.2051253e-16)
(1.2117805 0.00010285421 3.370745e-17)
(1.2102201 0.00014760982 5.304734e-17)
(1.2079498 0.00021438287 1.2606937e-16)
(1.2046134 0.00031725419 -1.4186241e-16)
(1.1995871 0.00047621107 -9.266225e-17)
(1.1919632 0.00074035596 2.4357553e-16)
(1.179749 0.0011756973 -5.3594046e-17)
(1.1602124 0.0020286097 -2.8834479e-16)
(1.1241763 0.0036812016 -3.5499266e-16)
(1.059196 0.0084663852 3.4064444e-16)
(0.89380965 0.0023274231 -2.7915983e-16)
(1.2137629 7.5184558e-05 -1.4578957e-16)
(1.2137932 4.8768635e-06 -1.3730657e-16)
(1.2138187 -2.2669522e-06 -2.5540834e-16)
(1.2138716 -1.0379693e-05 -2.7548431e-16)
(1.2140198 -1.8784749e-05 -1.3970219e-16)
(1.2142223 -2.2467952e-05 1.4939564e-17)
(1.2144406 -2.2969482e-05 -2.6272365e-16)
(1.2146579 -2.1857794e-05 -3.5784875e-16)
(1.214862 -1.9620249e-05 -1.430994e-16)
(1.2150429 -1.6672588e-05 -1.974719e-16)
(1.2151951 -1.3450578e-05 -1.1500339e-16)
(1.2153169 -1.0248827e-05 -3.2533437e-17)
(1.2154085 -7.2216835e-06 1.6756914e-16)
(1.2154711 -4.4340762e-06 2.9494254e-17)
(1.2155067 -1.8886815e-06 -2.5716512e-16)
(1.2155171 4.618764e-07 -2.5923445e-16)
(1.2155037 2.7058832e-06 -1.4036452e-16)
(1.2154669 4.9682031e-06 -4.15761e-16)
(1.215406 7.4139834e-06 -3.7689374e-16)
(1.2153183 1.0260449e-05 -3.6536691e-16)
(1.2151986 1.3797946e-05 -2.9854103e-16)
(1.2150383 1.8422573e-05 6.2900203e-17)
(1.2148237 2.4687569e-05 -6.3029835e-17)
(1.2145344 3.3377073e-05 -1.5414855e-16)
(1.21414 4.5629536e-05 -3.2062854e-16)
(1.2135952 6.3103302e-05 -3.1342378e-16)
(1.2128335 8.8312326e-05 -2.0861769e-16)
(1.2117546 0.00012499223 2.8688064e-17)
(1.2102098 0.00017922229 2.3863015e-17)
(1.2079639 0.00026006076 9.7413383e-17)
(1.2046668 0.00038450429 -5.2731479e-17)
(1.1997034 0.00057645589 -7.9845229e-17)
(1.192186 0.00089508735 2.2890989e-16)
(1.1801511 0.0014171421 -7.1282975e-17)
(1.1609945 0.0024407912 -3.3310854e-16)
(1.1255735 0.0043695797 -5.1081254e-16)
(1.0633219 0.01020697 2.1793518e-16)
(0.90005562 0.0038942465 2.4522619e-16)
(1.2135515 8.1640499e-05 -1.3731658e-16)
(1.2136253 3.4175018e-06 -1.0430182e-16)
(1.2136734 -3.7094622e-06 -2.631444e-16)
(1.2137347 -1.2815052e-05 -2.5603325e-16)
(1.2138869 -2.2810907e-05 -2.5114512e-16)
(1.2140927 -2.7318676e-05 -3.2630709e-17)
(1.2143149 -2.8048907e-05 -2.4633911e-16)
(1.2145374 -2.6823472e-05 -3.8184802e-16)
(1.2147478 -2.4199706e-05 -1.7882295e-16)
(1.2149358 -2.0669639e-05 -2.0335846e-16)
(1.2150955 -1.6763199e-05 -3.313381e-17)
(1.2152246 -1.2845253e-05 -5.4306731e-17)
(1.2153231 -9.1117351e-06 5.1443994e-17)
(1.215392 -5.6504218e-06 -3.8121613e-17)
(1.2154329 -2.4740996e-06 -3.1108511e-16)
(1.2154475 4.6508325e-07 -2.9568011e-16)
(1.2154371 3.2654649e-06 -1.0164635e-16)
(1.2154022 6.0713118e-06 -4.0919136e-16)
(1.2153423 9.0774373e-06 -3.8514698e-16)
(1.2152548 1.2543109e-05 -2.293914e-16)
(1.2151348 1.681677e-05 -3.543696e-16)
(1.214974 2.2374488e-05 -1.3861383e-16)
(1.2147592 2.9880863e-05 -6.0483064e-17)
(1.2144704 4.0276609e-05 -6.9026346e-17)
(1.2140776 5.4925609e-05 -3.091201e-16)
(1.2135363 7.5811357e-05 -2.7409592e-16)
(1.2127811 0.00010593772 -2.0235928e-16)
(1.211713 0.00014975894 1.007967e-16)
(1.2101854 0.00021452315 1.2516949e-17)
(1.207967 0.00031098387 8.6092078e-17)
(1.2047137 0.00045936607 -7.5884648e-17)
(1.1998208 0.00068782481 2.5819564e-17)
(1.1924225 0.0010666918 2.6983726e-16)
(1.1805869 0.0016831661 -1.1688459e-16)
(1.1618561 0.0028950269 -1.8496716e-16)
(1.1271 0.0051039346 -6.6137722e-16)
(1.0677882 0.012105893 -3.402669e-16)
(0.90753139 0.0059236803 6.4478343e-16)
(1.2132908 8.7282945e-05 -1.7526978e-16)
(1.2134046 8.9189374e-07 -8.864546e-18)
(1.2134793 -5.9708966e-06 -3.3907619e-16)
(1.213552 -1.5834e-05 -3.6695512e-16)
(1.2137098 -2.7482946e-05 -2.0982148e-16)
(1.2139197 -3.2903879e-05 1.3661268e-17)
(1.2141463 -3.3924966e-05 -1.855647e-16)
(1.2143744 -3.2617782e-05 -3.9638533e-16)
(1.2145918 -2.9598729e-05 -1.4452406e-16)
(1.2147877 -2.5437061e-05 -3.6259766e-16)
(1.2149558 -2.0768766e-05 4.8024546e-17)
(1.2150935 -1.604048e-05 -8.6912497e-17)
(1.2152004 -1.1496602e-05 6.9637184e-17)
(1.2152771 -7.2513563e-06 -5.2990251e-17)
(1.2153251 -3.3300485e-06 -3.680905e-16)
(1.2153457 3.134313e-07 -2.9630629e-16)
(1.21534 3.7854357e-06 -1.7233413e-16)
(1.2153087 7.2483713e-06 -3.4061962e-16)
(1.2152511 1.0927022e-05 -3.2859349e-16)
(1.215165 1.5125255e-05 -2.2399019e-16)
(1.2150456 2.0254975e-05 -4.4095604e-16)
(1.2148851 2.6880925e-05 -2.3978607e-16)
(1.2146706 3.579196e-05 -1.4744258e-16)
(1.2143826 4.8103709e-05 -1.4769892e-16)
(1.2139918 6.5431713e-05 -3.5044945e-16)
(1.2134546 9.0121617e-05 -2.4808969e-16)
(1.2127065 0.00012572202 -1.7490282e-16)
(1.2116503 0.00017748282 7.0183083e-17)
(1.2101421 0.00025394564 -3.7579311e-17)
(1.2079542 0.00036772246 2.0781318e-17)
(1.2047501 0.0005425922 -1.8508448e-16)
(1.1999362 0.00081128342 1.8880486e-17)
(1.1926716 0.0012564508 2.3993251e-16)
(1.1810588 0.0019747924 -2.0028469e-16)
(1.1628056 0.0033927428 -2.9649214e-16)
(1.1287794 0.0058766754 -8.6934466e-16)
(1.0725714 0.01412508 -7.5176833e-16)
(0.91649543 0.0083583314 1.4359234e-15)
(1.2129697 9.2015781e-05 -2.2063668e-17)
(1.2131201 -2.8279041e-06 -6.2669586e-17)
(1.213224 -9.3078572e-06 -3.0954618e-16)
(1.2133108 -1.9609035e-05 -4.3134885e-16)
(1.2134762 -3.2908091e-05 -2.0767355e-16)
(1.2136912 -3.9306699e-05 -2.9902416e-17)
(1.2139228 -4.0680086e-05 -1.6333746e-16)
(1.2141572 -3.9333368e-05 -5.1157972e-16)
(1.2143822 -3.5920594e-05 -2.988793e-16)
(1.2145869 -3.108353e-05 -4.7122695e-16)
(1.2147645 -2.5576492e-05 -5.6832338e-17)
(1.214912 -1.9942019e-05 -1.6802703e-16)
(1.2150287 -1.4481208e-05 -4.2785998e-17)
(1.215115 -9.3377464e-06 -1.9784529e-16)
(1.2151719 -4.550304e-06 -2.4682313e-16)
(1.2152006 -7.5474049e-08 -3.1358003e-16)
(1.2152019 4.1992897e-06 -2.0955566e-16)
(1.2151763 8.4524066e-06 -4.4263652e-16)
(1.215123 1.2937398e-05 -3.962697e-16)
(1.2150399 1.8003618e-05 -2.0977279e-16)
(1.2149226 2.4130378e-05 -5.3354551e-16)
(1.2147635 3.1978798e-05 -5.3403022e-16)
(1.2145502 4.2474238e-05 -2.999143e-16)
(1.2142638 5.6925164e-05 -1.3544066e-16)
(1.2138757 7.7224611e-05 -2.9684661e-16)
(1.2133431 0.00010611676 -2.0546805e-16)
(1.212603 0.00014774869 -1.4982795e-16)
(1.21156 0.00020824041 1.1904885e-16)
(1.2100731 0.00029754739 3.9785056e-17)
(1.2079192 0.00043029131 6.137027e-17)
(1.2047697 0.00063411213 -2.8722258e-16)
(1.2000436 0.00094657144 3.9850123e-18)
(1.1929274 0.0014638047 2.6999975e-16)
(1.1815611 0.0022903102 -2.1806603e-16)
(1.1638362 0.0039317601 -3.036469e-16)
(1.130614 0.0066810177 -9.9939775e-16)
(1.0775859 0.016236628 -1.796935e-15)
(0.92688303 0.011160568 1.4552218e-15)
(1.2125781 9.5562108e-05 4.4456566e-17)
(1.2127579 -7.7997559e-06 -1.6442779e-16)
(1.2128923 -1.3984415e-05 -3.4562998e-16)
(1.2129958 -2.4366644e-05 -4.2537604e-16)
(1.2131708 -3.9249094e-05 -1.6751949e-16)
(1.2133923 -4.6658361e-05 -4.5981402e-17)
(1.2136297 -4.8441427e-05 -3.3119591e-16)
(1.2138708 -4.7110361e-05 -5.3419698e-16)
(1.2141042 -4.3320766e-05 -3.6315248e-16)
(1.2143187 -3.7772453e-05 -6.9780761e-16)
(1.2145069 -3.1349852e-05 -2.8852798e-16)
(1.2146654 -2.4709933e-05 -3.0904515e-16)
(1.2147934 -1.8222229e-05 -1.4618131e-16)
(1.214891 -1.2063138e-05 -3.4963387e-16)
(1.214959 -6.2832899e-06 -3.4393487e-16)
(1.2149981 -8.401309e-07 -3.6204389e-16)
(1.215009 4.384991e-06 -2.2944387e-16)
(1.2149915 9.5844131e-06 -5.7289081e-16)
(1.214945 1.5037784e-05 -5.6367285e-16)
(1.2148674 2.1138796e-05 -3.3545267e-16)
(1.2147542 2.8436141e-05 -6.1862643e-16)
(1.2145984 3.769353e-05 -6.5092669e-16)
(1.2143878 4.9984216e-05 -2.3662094e-16)
(1.2141042 6.6827059e-05 -1.3293741e-16)
(1.2137198 9.0418368e-05 -2.1093437e-16)
(1.213193 0.00012393717 -1.3702195e-16)
(1.212462 0.00017218253 -1.1564257e-16)
(1.2114336 0.00024221753 2.0927551e-16)
(1.2099703 0.00034552934 4.3024726e-17)
(1.2078537 0.00049889017 -1.1777101e-16)
(1.2047644 0.00073409493 -2.5616381e-16)
(1.2001351 0.0010937298 2.3637275e-17)
(1.1931827 0.0016885841 1.6003514e-16)
(1.1820887 0.0026287326 -2.0972519e-16)
(1.1649408 0.0045095561 -2.127905e-16)
(1.1326098 0.0075077007 -5.812136e-16)
(1.0827753 0.018391379 -1.0217463e-15)
(0.93857648 0.014247274 9.4294448e-16)
(1.2121013 9.8649003e-05 2.066923e-17)
(1.2123006 -1.3833157e-05 -8.9920616e-17)
(1.2124659 -2.0278318e-05 -2.3150117e-16)
(1.2125877 -3.0347621e-05 -2.5984966e-16)
(1.2127743 -4.6675854e-05 -9.6531879e-17)
(1.2130036 -5.5082201e-05 -9.0946249e-17)
(1.2132474 -5.7314395e-05 -3.9861235e-16)
(1.2134958 -5.606177e-05 -4.8744001e-16)
(1.2137383 -5.192687e-05 -2.8554018e-16)
(1.2139636 -4.5637372e-05 -6.1731285e-16)
(1.2141636 -3.8216735e-05 -3.8889694e-16)
(1.2143346 -3.0461082e-05 -2.7228709e-16)
(1.2144753 -2.2826896e-05 -2.0637608e-16)
(1.2145859 -1.5528699e-05 -3.8369749e-16)
(1.214667 -8.6250243e-06 -4.170936e-16)
(1.214719 -2.0675669e-06 -3.4356257e-16)
(1.2147421 4.2722861e-06 -2.673307e-16)
(1.2147359 1.0600197e-05 -5.8346947e-16)
(1.2146994 1.7218353e-05 -6.3470551e-16)
(1.2146301 2.4561134e-05 -5.1156865e-16)
(1.2145239 3.3245739e-05 -7.1796089e-16)
(1.2143738 4.4142457e-05 -6.3528154e-16)
(1.2141682 5.8482718e-05 -1.96143e-16)
(1.2138893 7.8013491e-05 5.1652135e-17)
(1.2135104 0.00010526163 -1.1390163e-16)
(1.2129908 0.00014388012 -7.0522632e-17)
(1.2122706 0.00019937837 -6.1260719e-17)
(1.2112589 0.00027984215 3.0384273e-16)
(1.2098218 0.00039842084 -6.3586626e-17)
(1.2077468 0.0005741898 -1.8193337e-16)
(1.2047243 0.00084342823 -2.4976706e-16)
(1.2002023 0.0012539218 -7.1556964e-17)
(1.1934321 0.0019324962 -5.7201445e-17)
(1.1826426 0.0029896801 -2.4953422e-16)
(1.1661234 0.0051288671 -1.5448806e-16)
(1.1347966 0.0083598995 -4.0859888e-16)
(1.0881642 0.020568503 -1.8116738e-16)
(0.95156822 0.017657082 -5.8568778e-16)
(1.2115116 0.00010051556 3.6321691e-18)
(1.2117282 -2.040088e-05 -3.4408931e-17)
(1.2119226 -2.8491723e-05 -2.0239657e-16)
(1.2120633 -3.7874672e-05 -2.1324975e-16)
(1.2122627 -5.5432012e-05 -1.6111623e-16)
(1.2125011 -6.4774608e-05 -1.5565054e-16)
(1.212752 -6.7452492e-05 -5.2225253e-16)
(1.2130081 -6.6335287e-05 -5.2088044e-16)
(1.2132603 -6.191555e-05 -4.3133642e-16)
(1.2134973 -5.4892043e-05 -6.4794104e-16)
(1.2137106 -4.6416857e-05 -3.8548136e-16)
(1.2138954 -3.7447135e-05 -2.0337509e-16)
(1.2140504 -2.8552272e-05 -2.6612319e-16)
(1.2141756 -1.9998604e-05 -2.5827007e-16)
(1.2142717 -1.1851523e-05 -3.6844697e-16)
(1.214339 -4.0472898e-06 -4.6831935e-16)
(1.2143772 3.5629514e-06 -4.2728749e-16)
(1.2143856 1.1203867e-05 -5.3159863e-16)
(1.2143624 1.9200442e-05 -5.991275e-16)
(1.2143052 2.8024852e-05 -5.0955335e-16)
(1.2142095 3.8360534e-05 -6.7495653e-16)
(1.2140684 5.1186132e-05 -7.472919e-16)
(1.2138708 6.7899762e-05 -2.4533912e-16)
(1.2135995 9.0493593e-05 1.5773491e-16)
(1.2132286 0.0001218529 9.0427099e-17)
(1.2127186 0.00016614549 4.6875043e-17)
(1.2120116 0.00022965152 6.7295971e-17)
(1.2110194 0.00032156135 1.1716233e-16)
(1.2096121 0.00045681587 5.3369096e-17)
(1.2075834 0.00065694271 -2.115581e-16)
(1.2046353 0.00096301026 -4.1799153e-16)
(1.2002323 0.0014280895 -1.0317294e-16)
(1.1936654 0.0021963133 -1.0053762e-16)
(1.1832139 0.0033743108 -2.7504609e-16)
(1.1673754 0.0057879144 -1.2085628e-16)
(1.1371878 0.0092340005 -3.7733765e-16)
(1.0937419 0.022736257 5.5354575e-16)
(0.96580933 0.021306992 3.704361e-16)
(1.2106497 9.497998e-05 -6.5705939e-18)
(1.210878 -2.7295002e-05 -2.3267358e-18)
(1.2111051 -4.04079e-05 -3.7244637e-17)
(1.2112677 -4.9200953e-05 -1.6634578e-16)
(1.2114838 -6.7578337e-05 -1.5568068e-16)
(1.2117346 -7.7841469e-05 -1.1593727e-16)
(1.2119951 -8.1060368e-05 -6.0416116e-16)
(1.2122608 -8.0234516e-05 -7.4266445e-16)
(1.2125252 -7.5649756e-05 -6.2375595e-16)
(1.2127775 -6.7853996e-05 -6.3737642e-16)
(1.2130081 -5.8102043e-05 -4.0001377e-16)
(1.2132113 -4.7572705e-05 -6.7890988e-17)
(1.2133851 -3.7027887e-05 -1.4184765e-16)
(1.2135295 -2.6836861e-05 -2.1677878e-16)
(1.2136454 -1.7081584e-05 -3.6911613e-16)
(1.2137331 -7.6627943e-06 -4.2516172e-16)
(1.2137923 1.6181069e-06 -4.5782687e-16)
(1.2138217 1.1028041e-05 -3.0162259e-16)
(1.2138188 2.092666e-05 -4.7004597e-16)
(1.2137805 3.1828271e-05 -4.5308311e-16)
(1.2137022 4.4487735e-05 -7.6052703e-16)
(1.2135767 6.0007387e-05 -6.4897055e-16)
(1.2133933 7.9985668e-05 -2.2450394e-16)
(1.2131354 0.00010671918 1.8846728e-16)
(1.2127782 0.00014354456 2.4069331e-17)
(1.2122838 0.0001952826 6.9141823e-17)
(1.2115965 0.00026918667 1.5265116e-17)
(1.2106316 0.00037584616 -8.061876e-17)
(1.2092647 0.00053243532 1.3946095e-16)
(1.2072978 0.00076357203 -3.6961543e-16)
(1.2044473 0.0011161567 -4.1487961e-16)
(1.2001996 0.0016497535 -3.8895174e-16)
(1.193898 0.0025291914 -2.4282843e-16)
(1.1838819 0.0038555228 -4.2820465e-16)
(1.1689083 0.0065965755 -1.3337012e-16)
(1.1402433 0.010293067 -5.586234e-16)
(1.100499 0.025064502 -3.4845638e-16)
(0.98381411 0.02632898 2.4793368e-17)
(1.2094536 8.2155657e-05 -9.4098789e-17)
(1.2096824 -3.4359182e-05 9.811792e-17)
(1.2099388 -5.5501072e-05 7.8887575e-17)
(1.2101233 -6.4835442e-05 -4.9897511e-17)
(1.210359 -8.3672744e-05 -1.9800295e-16)
(1.2106274 -9.4732777e-05 -2.0626546e-16)
(1.2109027 -9.8518783e-05 -2.8870975e-16)
(1.2111825 -9.8093629e-05 -6.0916432e-16)
(1.2114624 -9.3463827e-05 -6.5649859e-16)
(1.2117325 -8.4894694e-05 -6.4521119e-16)
(1.2119828 -7.3687161e-05 -5.3715542e-16)
(1.2122069 -6.1289195e-05 -1.3828571e-16)
(1.2124019 -4.8743825e-05 -2.2462049e-16)
(1.212568 -3.6589067e-05 -2.6459832e-16)
(1.2127062 -2.4938177e-05 -2.9831837e-16)
(1.2128174 -1.3627402e-05 -3.7747759e-16)
(1.212901 -2.3620005e-06 -1.8752135e-16)
(1.2129555 9.2062993e-06 -1.830747e-16)
(1.2129779 2.1491668e-05 -2.4885255e-16)
(1.2129644 3.505318e-05 -4.6945173e-16)
(1.2129098 5.0711775e-05 -6.9044104e-16)
(1.2128068 6.9692194e-05 -6.4795563e-16)
(1.2126449 9.380585e-05 -3.4850741e-16)
(1.212408 0.00012568805 -6.0908268e-17)
(1.2120723 0.00016918846 -1.7858161e-17)
(1.2116019 0.00022987791 -2.2551566e-17)
(1.2109435 0.0003161234 9.3858106e-18)
(1.2100163 0.00044011924 -1.7977012e-17)
(1.2087025 0.00062155781 -1.5200476e-16)
(1.2068134 0.00088856711 -2.5287547e-16)
(1.2040833 0.0012944678 -4.2721026e-16)
(1.200023 0.0019058247 -4.4003701e-16)
(1.1940385 0.0029099592 -3.211084e-16)
(1.1845366 0.0043977383 -4.0148427e-16)
(1.1705489 0.0074934946 6.0321358e-18)
(1.1437367 0.011488939 -3.6581644e-16)
(1.1078293 0.027299941 -3.6681197e-17)
(1.0039848 0.032017195 1.0222852e-16)
(1.2080011 7.2301325e-05 7.2773787e-17)
(1.2082298 -4.1072107e-05 -2.1129885e-17)
(1.2085121 -7.1662711e-05 8.8209606e-17)
(1.2087164 -8.2282161e-05 -1.2811767e-16)
(1.2089708 -0.00010161544 -1.2207761e-16)
(1.2092582 -0.00011344403 -9.0564032e-17)
(1.2095507 -0.00011773053 -5.9626931e-17)
(1.2098467 -0.00011772125 -2.7401806e-16)
(1.2101437 -0.00011315586 -2.7358385e-16)
(1.2104325 -0.00010391697 -3.4008797e-16)
(1.210703 -9.1271565e-05 -3.4072291e-16)
(1.2109483 -7.6929473e-05 2.7882903e-17)
(1.211165 -6.2263411e-05 -2.251307e-16)
(1.2113529 -4.8040953e-05 -3.4702711e-16)
(1.2115135 -3.4440798e-05 -2.3727249e-16)
(1.211648 -2.1228029e-05 -2.7134869e-16)
(1.2117561 -7.9754761e-06 -1.3821486e-16)
(1.2118363 5.7899139e-06 -8.4391831e-17)
(1.2118852 2.0568609e-05 -1.2196761e-16)
(1.2118987 3.6976102e-05 -4.4163332e-16)
(1.2118709 5.5893542e-05 -4.4484741e-16)
(1.2117944 7.8651097e-05 -5.8149778e-16)
(1.2116586 0.000107253 -2.8248118e-16)
(1.211448 0.00014465531 -3.4313823e-16)
(1.2111396 0.00019520619 -1.4959407e-16)
(1.2106991 0.00026521206 -6.8297185e-17)
(1.2100759 0.0003641353 4.9946985e-17)
(1.2091932 0.00050573393 6.0293496e-17)
(1.2079393 0.00071215666 -2.2264711e-16)
(1.2061356 0.0010148436 -3.4817903e-16)
(1.2035339 0.0014733805 -2.3852127e-16)
(1.1996702 0.0021600988 -4.8402155e-16)
(1.1940129 0.0032850039 -3.1805724e-16)
(1.1850378 0.0049242826 -3.9149446e-16)
(1.1720159 0.008345138 -3.0141637e-16)
(1.1471376 0.012603385 -5.4097718e-16)
(1.1146921 0.029096146 -2.8112596e-16)
(1.0233499 0.036680298 -3.1157374e-16)
(1.2062387 6.3887063e-05 -2.1106642e-18)
(1.2064713 -4.833411e-05 5.8636951e-17)
(1.2067809 -8.8755537e-05 7.1088544e-17)
(1.2070054 -0.00010150372 -1.0637616e-16)
(1.2072787 -0.00012149877 -3.9600954e-17)
(1.207586 -0.00013411542 -4.7209997e-17)
(1.2078973 -0.00013883781 -9.1789567e-17)
(1.2082113 -0.0001392032 -1.4678807e-16)
(1.2085268 -0.00013475287 -1.3189589e-16)
(1.2088354 -0.00012493046 -2.2947257e-16)
(1.2091272 -0.00011088491 -2.1471342e-16)
(1.2093946 -9.4548828e-05 -2.4051939e-17)
(1.209634 -7.7645977e-05 2.2811367e-17)
(1.2098447 -6.1231153e-05 -2.0603337e-16)
(1.2100283 -4.5601953e-05 -2.2270546e-16)
(1.2101864 -3.047188e-05 -2.0272738e-16)
(1.2103193 -1.5262464e-05 -1.2549225e-16)
(1.2104255 6.6610062e-07 4.0822684e-17)
(1.210502 1.7944379e-05 -1.2667642e-16)
(1.2105441 3.7273966e-05 -1.5119546e-16)
(1.2105457 5.9606129e-05 -7.6520887e-17)
(1.2104991 8.6369505e-05 -3.3011954e-16)
(1.2103936 0.00011974441 -2.5526703e-16)
(1.210214 0.00016298719 -2.8497243e-16)
(1.2099383 0.00022092488 -8.3058055e-17)
(1.2095337 0.00030057843 -3.6388526e-17)
(1.208952 0.00041247939 -1.3718946e-16)
(1.2081205 0.00057189745 -5.1854366e-17)
(1.2069338 0.00080336075 2.7901171e-17)
(1.2052231 0.0011413892 -9.5133365e-17)
(1.2027584 0.0016516522 -1.7948146e-16)
(1.1991005 0.002410961 -2.6342383e-16)
(1.1937793 0.0036518824 -3.2905631e-16)
(1.1853426 0.005433413 -3.8483593e-16)
(1.1732617 0.0091431679 -2.9319662e-16)
(1.150368 0.013641683 -3.263352e-16)