0.2163284104 	9.141665192e-06 	-2.95810495e-07 	-4.082167071e-10 	8.664409754e-06 	1.67564914e-08 	1.651677314e-08
0.2172949085 	0.0007506377373 	-0.0001369180412 	-1.258466129e-07 	0.0005366568263 	7.936685402e-07 	1.023017067e-06
0.2182614382 	0.006751844149 	-0.001862627875 	-3.175940216e-06 	0.003859063221 	6.763025955e-06 	7.35644707e-06
0.2192278865 	0.01531707262 	-0.004578782429 	-1.292853672e-05 	0.008298531796 	1.872986275e-05 	1.581930806e-05
0.220194141 	0.01860234784 	-0.005699668454 	-2.020655514e-05 	0.01002277103 	2.361598455e-05 	1.910618728e-05
0.2211600902 	0.01761983961 	-0.005283760908 	-1.66487045e-05 	0.009894280403 	1.397196134e-05 	1.886124842e-05
0.2221256232 	0.01590606174 	-0.004574126785 	-1.170606285e-05 	0.009652192776 	-4.70500658e-06 	1.839976212e-05
0.22309063 	0.01461499701 	-0.00393210257 	-9.718622867e-06 	0.009952994938 	-2.381681476e-05 	1.897317464e-05
0.224055001 	0.01374082977 	-0.003376590416 	-7.293328408e-06 	0.01086636639 	-3.883634664e-05 	2.071431448e-05
0.2256430888 	0.01311022748 	-0.002851458571 	-4.093771973e-06 	0.01236588329 	-4.763303444e-05 	2.357281047e-05
0.2273579821 	0.0126033361 	-0.002331264342 	-1.185962163e-06 	0.01412461064 	-4.966468818e-05 	2.692543361e-05
0.2292088695 	0.01222554494 	-0.001957908938 	4.330779443e-09 	0.01562909918 	-4.537302405e-05 	2.979340693e-05
0.2312053214 	0.01187245488 	-0.001653637916 	-1.081901479e-07 	0.01682097018 	-3.660321312e-05 	3.206544432e-05
0.2333572177 	0.0115125657 	-0.001356013149 	-2.517064175e-07 	0.01758278868 	-2.680739063e-05 	3.351768211e-05
0.2356746414 	0.01114365942 	-0.001052069168 	1.159658649e-07 	0.01790718245 	-1.821953446e-05 	3.413606679e-05
0.2382242805 	0.0107770345 	-0.0007805527427 	9.393902699e-07 	0.01791831749 	-1.224133136e-05 	3.415729327e-05
0.2409997431 	0.01043229359 	-0.0005676590707 	1.634185517e-06 	0.01769931555 	-8.3543872e-06 	3.373981471e-05
0.2439887877 	0.01011950387 	-0.0004330427661 	1.812626781e-06 	0.01739426366 	-5.553367257e-06 	3.315830102e-05
0.2472069494 	0.009845323421 	-0.0003619906982 	1.501500657e-06 	0.01705432414 	-3.463290245e-06 	3.251028181e-05
0.250670784 	0.009606257104 	-0.0003322215886 	8.788388403e-07 	0.0167180644 	-1.737726616e-06 	3.18692773e-05
0.2543979268 	0.009396337973 	-0.000321537378 	1.030829918e-07 	0.01640567424 	-1.85470289e-07 	3.127377481e-05
0.2548847519 	0.00937409156 	-0.0003205892516 	-3.501933948e-08 	0.01637214894 	-2.648633803e-06 	3.120986629e-05
0.2583863514 	0.009208937482 	-0.0003171034125 	6.036399058e-07 	0.01611916822 	-1.265087725e-06 	3.072761473e-05
0.2627203435 	0.009039308979 	-0.0003120145119 	1.384074565e-06 	0.01586663108 	-2.636675442e-06 	3.024620874e-05
0.2673805111 	0.008865538113 	-0.0003105206423 	2.246930381e-06 	0.01562282299 	-3.904791602e-06 	2.978144276e-05
0.2747906081 	0.008686829952 	-0.0003030693635 	3.6436786e-06 	0.01538396226 	-5.595842947e-06 	2.932610782e-05
0.2827164586 	0.008534619 	-0.0002896225188 	5.202964085e-06 	0.01519144252 	-7.019913712e-06 	2.895911169e-05
0.2909472081 	0.0084198576 	-0.0002765043471 	6.9046329e-06 	0.01506515605 	-8.188400928e-06 	2.871837458e-05
0.2996704832 	0.008335241095 	-0.0002623481057 	8.783205027e-06 	0.0149966273 	-9.145231891e-06 	2.858773974e-05
0.3087867966 	0.008276870337 	-0.0002439465716 	9.6145706e-06 	0.01497795757 	-8.790408631e-06 	2.855215003e-05
0.3184329064 	0.008241383072 	-0.000220587369 	8.321487243e-06 	0.01500494238 	-6.676300871e-06 	2.860359058e-05
0.3285017348 	0.008225789186 	-0.000191115165 	6.892139542e-06 	0.01507374176 	-4.856703297e-06 	2.873474133e-05
0.3391917837 	0.008227966752 	-0.0001541097873 	5.2903096e-06 	0.01518215508 	-3.273292265e-06 	2.894140724e-05
0.3503762366 	0.008246163841 	-0.0001082962048 	3.541546049e-06 	0.01532770985 	-1.929811099e-06 	2.921887509e-05
0.362133793 	0.008278985592 	-5.223791537e-05 	1.64158641e-06 	0.01550878003 	-7.913257374e-07 	2.956404519e-05
0.3721479015 	0.008316590959 	2.296176415e-06 	1.768087023e-07 	0.01568285225 	-2.408044709e-06 	2.989587521e-05
0.3745249096 	0.008325996001 	1.423744462e-05 	3.427886582e-07 	0.01572267286 	-2.11510353e-07 	2.997178437e-05
0.387427163 	0.008388908734 	8.80383488e-05 	2.167806379e-06 	0.01596126304 	-1.237735876e-06 	3.042660355e-05
0.4010002185 	0.008464987438 	0.0001768383938 	4.07186376e-06 	0.01623149235 	-2.178645322e-06 	3.094173572e-05
0.4152863501 	0.00855368128 	0.0002827530736 	6.017296335e-06 	0.01653239762 	-3.062504511e-06 	3.15153448e-05
0.4303240074 	0.0086547875 	0.0004082002417 	7.954740067e-06 	0.01686292272 	-3.917937828e-06 	3.21454175e-05
0.4461483453 	0.008768423883 	0.0005560602132 	9.821756419e-06 	0.01722179061 	-4.773091036e-06 	3.282951945e-05
0.4627920111 	0.008895030704 	0.0007299406866 	1.154100904e-05 	0.0176071905 	-5.653729641e-06 	3.356419876e-05
0.4802861374 	0.009035597224 	0.0009341704352 	1.033723785e-05 	0.01801658319 	-5.227238673e-06 	3.434461501e-05
0.4986614767 	0.009191520188 	0.001173698534 	8.727630142e-06 	0.01844579531 	-4.673979664e-06 	3.51628126e-05
0.5179496086 	0.009364780887 	0.001453565538 	7.163669202e-06 	0.01888860583 	-4.174530273e-06 	3.600693252e-05
0.5381849568 	0.00955802959 	0.00177828658 	5.690076729e-06 	0.01933631835 	-3.707851712e-06 	3.686039702e-05
0.5594315811 	0.009774900808 	0.002151336653 	4.350279834e-06 	0.01977764807 	-3.257228801e-06 	3.770169413e-05
0.5816967972 	0.01002012032 	0.002574390968 	3.183970964e-06 	0.02019855783 	-2.82078804e-06 	3.850406512e-05
0.6050449193 	0.01029285809 	0.003035290599 	2.228681094e-06 	0.02057717889 	-2.404890404e-06 	3.92258221e-05
0.6274398969 	0.01058058001 	0.003500558108 	1.51990441e-06 	0.0208885835 	-2.062518196e-06 	3.981944584e-05
0.6488225468 	0.01087587494 	0.003950406823 	1.00167383e-06 	0.02112681665 	-1.780699227e-06 	4.027358444e-05
0.6692325106 	0.01117622823 	0.00437806203 	6.135443902e-07 	0.02129720681 	-1.545380977e-06 	4.059839543e-05
0.688719305 	0.01147762573 	0.00477717784 	3.135307209e-07 	0.02140901498 	-1.346506138e-06 	4.081153288e-05
0.7073297456 	0.01177634829 	0.005143945226 	7.646309052e-08 	0.02147110878 	-1.176862352e-06 	4.092990092e-05
0.7251037726 	0.01207135169 	0.005477721752 	-6.497509726e-08 	0.02148772049 	-9.715064239e-07 	4.096156746e-05
0.7420821851 	0.01236148116 	0.005778483358 	-6.589759885e-08 	0.02146296609 	-6.699006438e-07 	4.091437869e-05
0.7583030432 	0.01264262403 	0.006047478619 	1.052124345e-08 	0.02140544271 	-3.348504514e-07 	4.080472314e-05
0.7738020204 	0.01291086289 	0.006286566462 	9.877216813e-08 	0.02132288867 	-3.170072945e-08 	4.06473522e-05
0.7886126726 	0.0131648952 	0.006498055212 	1.968447256e-07 	0.02121847872 	2.309921484e-07 	4.044831781e-05
0.8027666493 	0.01340732311 	0.006680106459 	3.044828929e-07 	0.02109036725 	4.475461119e-07 	4.020410174e-05
0.8162938648 	0.01363928396 	0.006832264976 	4.278407013e-07 	0.0209392604 	6.309675792e-07 	3.991605009e-05
0.8292226427 	0.01385703612 	0.006961303226 	5.571008792e-07 	0.02077213416 	7.944628014e-07 	3.959746103e-05
0.8415798402 	0.01405855054 	0.00707158037 	6.805780312e-07 	0.02059341291 	9.415282474e-07 	3.925676865e-05
0.853390959 	0.01424574473 	0.007162440626 	7.640029169e-07 	0.02040281892 	1.04732736e-06 	3.889344353e-05
0.8646802507 	0.01442172388 	0.007232304746 	7.459439291e-07 	0.02019915168 	1.075956458e-06 	3.850519717e-05
0.8754708315 	0.01458690453 	0.007285193016 	6.51345283e-07 	0.01998452698 	1.046105871e-06 	3.809606283e-05
0.8857846555 	0.01474092676 	0.007326013908 	5.30962051e-07 	0.01976176667 	9.90611435e-07 	3.767141977e-05
0.8956427015 	0.01488470357 	0.007356338999 	3.917650242e-07 	0.01953198533 	9.148512441e-07 	3.723339268e-05
0.9050650144 	0.01501881043 	0.007377943751 	2.55074278e-07 	0.01929625344 	8.261970689e-07 	3.678402218e-05
0.9140707159 	0.01514365912 	0.007391877156 	1.269063156e-07 	0.01905515445 	7.264073385e-07 	3.632442049e-05
0.9226780739 	0.01525931151 	0.007398875588 	5.238293085e-09 	0.01880880781 	6.141889294e-07 	3.585481533e-05
0.9309045726 	0.01536529446 	0.007399698793 	-1.114469696e-07 	0.01855663407 	4.872579016e-07 	3.537410209e-05
0.9387669064 	0.01545986488 	0.007398414242 	-2.20551019e-07 	0.01829809831 	3.438576752e-07 	3.488126107e-05
0.9462810583 	0.01553556547 	0.00737491913 	-3.100409968e-07 	0.01805043001 	2.028638388e-07 	3.440913646e-05
0.9511666838 	0.01558794084 	0.007346112233 	-3.727606115e-07 	0.01784193296 	7.580624657e-08 	3.401168313e-05
0.9556849155 	0.01562563088 	0.007332525282 	-4.099593578e-07 	0.01766012008 	-2.156125247e-08 	3.366509724e-05
0.9598632878 	0.01565533459 	0.007316574449 	-4.289190999e-07 	0.0174828481 	-1.023220197e-07 	3.332716759e-05
0.963727286 	0.01567724276 	0.007300864403 	-4.263505703e-07 	0.01731012412 	-1.597754924e-07 	3.299790766e-05
0.9673004968 	0.01569181511 	0.00728615508 	-3.992495571e-07 	0.01714162217 	-1.858364353e-07 	3.267669613e-05
0.9706047457 	0.0156993746 	0.0072731583 	-3.448796789e-07 	0.0169771257 	-1.723738854e-07 	3.236312014e-05
0.9736602275 	0.01569997722 	0.007262422485 	-2.60964033e-07 	0.01681623406 	-1.11477242e-07 	3.205641596e-05
0.9764856286 	0.01569309261 	0.007254151434 	-1.45906411e-07 	0.01665805461 	4.484048494e-09 	3.175488196e-05
0.9790982379 	0.01567706447 	0.007247915334 	8.933822694e-10 	0.01650067943 	1.826433683e-07 	3.145488112e-05
0.9815140506 	0.01564818668 	0.007242161738 	1.785101526e-07 	0.01634028315 	4.293066913e-07 	3.114912123e-05
0.9837478637 	0.01559909314 	0.007233381302 	3.835723561e-07 	0.01616951197 	7.489102729e-07 	3.082358391e-05
0.9858133656 	0.01551592323 	0.007216548156 	6.517831666e-07 	0.01597440461 	1.142960054e-06 	3.045165504e-05
0.9877232184 	0.01537189841 	0.007189297769 	8.498738384e-07 	0.01572798785 	1.582548427e-06 	2.998191621e-05
0.9894891347 	0.01510413366 	0.007081769681 	9.588115764e-07 	0.01536544256 	2.008992072e-06 	2.929080412e-05
0.9911219479 	0.01463514453 	0.006847014713 	1.071437416e-06 	0.01481807311 	2.293274613e-06 	2.824736581e-05
0.9921125156 	0.01399801419 	0.006539065227 	1.107120394e-06 	0.01412571649 	2.353771688e-06 	2.692754166e-05
0.9931031452 	0.01308528008 	0.006111389054 	1.045124987e-06 	0.01317041541 	2.184721219e-06 	2.510647229e-05
0.9940938367 	0.01154322907 	0.005387482577 	7.963236007e-07 	0.01159233604 	1.668963209e-06 	2.209821442e-05
0.9950845899 	0.008927748954 	0.004125799016 	3.291744089e-07 	0.008949109477 	7.724930343e-07 	1.705948994e-05
0.9960754051 	0.004985765695 	0.002126628425 	-4.032127797e-08 	0.00499030827 	3.644852187e-08 	9.512914547e-06
0.9970662821 	0.001481957298 	0.0004834624995 	-6.54793252e-08 	0.001481358497 	-6.569004384e-08 	2.823881018e-06
0.9980572209 	0.0001408723475 	1.932965437e-05 	1.16741549e-09 	0.0001406682677 	1.877389576e-08 	2.681528151e-07
0.9990482216 	2.130803257e-06 	3.70454636e-08 	2.919005165e-11 	2.126758004e-06 	1.325016914e-09 	4.054191856e-09
0.9990482216 	2.130803257e-06 	3.70454636e-08 	2.919005165e-11 	2.126758004e-06 	1.325016914e-09 	4.054191856e-09
