0.3178316238 	1.295408656e-05 	-3.667358528e-07 	5.751975091e-10 	1.263367568e-05 	-1.357047559e-08 	2.408329718e-08
0.3185820886 	0.0007976975912 	-0.000139385092 	2.933767016e-07 	0.0006841877286 	-9.857696953e-07 	1.304251971e-06
0.3193326393 	0.007090863317 	-0.002231968876 	3.71052432e-06 	0.005283037289 	-6.514478966e-06 	1.007093742e-05
0.3200832237 	0.01917473363 	-0.00696696803 	7.368186915e-06 	0.01354978741 	-1.061373377e-05 	2.582966078e-05
0.3208337899 	0.02873142268 	-0.0109922463 	5.988813986e-06 	0.01988223746 	-6.606877726e-06 	3.790107059e-05
0.3215842863 	0.03239582203 	-0.01233382292 	1.543065038e-06 	0.02249196346 	1.051459293e-06 	4.287593367e-05
0.3223346615 	0.03271178144 	-0.01223305596 	-3.292223654e-06 	0.02291492374 	9.11140377e-06 	4.368221352e-05
0.3230848644 	0.03141466726 	-0.01165968961 	-7.610540032e-06 	0.02210638505 	1.64760186e-05 	4.214091406e-05
0.3238348441 	0.02881438547 	-0.01065421579 	-1.144027331e-05 	0.02035035608 	2.296638352e-05 	3.879343478e-05
0.325070563 	0.02484200096 	-0.009167809029 	-1.321862931e-05 	0.01764034529 	2.559637551e-05 	3.362740101e-05
0.3264060604 	0.02049725557 	-0.007538324589 	-1.311024722e-05 	0.01472458802 	2.111678229e-05 	2.806915726e-05
0.3278489768 	0.01689228751 	-0.005967818327 	-1.234127416e-05 	0.01255584911 	1.142132623e-05 	2.393493812e-05
0.3294074102 	0.01431197476 	-0.00456567829 	-9.431412428e-06 	0.01135454881 	1.018124543e-06 	2.164492586e-05
0.3310899051 	0.01274838261 	-0.003536744592 	-6.012031398e-06 	0.01100906078 	-7.453638175e-06 	2.098632965e-05
0.3329054277 	0.01188777816 	-0.002788461423 	-4.183615613e-06 	0.0113129033 	-1.289053913e-05 	2.156553796e-05
0.3349048804 	0.01141001584 	-0.002193345008 	-3.124422953e-06 	0.01200841528 	-1.508776002e-05 	2.28913771e-05
0.3370843312 	0.01111803457 	-0.0016939976 	-2.287104241e-06 	0.01286811935 	-1.517221702e-05 	2.453021199e-05
0.3394362318 	0.01091406383 	-0.001270747988 	-1.694904351e-06 	0.01375529803 	-1.425620405e-05 	2.622142113e-05
0.3419738594 	0.01074552597 	-0.0008975809609 	-1.304909956e-06 	0.01461445166 	-1.27675755e-05 	2.785920674e-05
0.3447114712 	0.01058436463 	-0.0005519500032 	-1.080461154e-06 	0.01542154607 	-1.089559359e-05 	2.939775301e-05
0.3476643739 	0.01041710394 	-0.000212725722 	-9.700188071e-07 	0.01614682402 	-8.003947661e-06 	3.078033436e-05
0.3509021905 	0.0102437741 	0.0001373138784 	-7.733711996e-07 	0.01669403275 	-4.5712284e-06 	3.182346629e-05
0.3544366928 	0.01007790258 	0.000486449335 	-4.237669017e-07 	0.01695444584 	-2.258752021e-06 	3.231988601e-05
0.3582461641 	0.009913762805 	0.0008190136704 	-8.706205455e-08 	0.0169893486 	-9.210862392e-07 	3.238642037e-05
0.3622230053 	0.00980132728 	0.001009473198 	4.169091912e-06 	0.01693834708 	-4.962139852e-06 	3.228919731e-05
0.3643047946 	0.009741547101 	0.001110924883 	-1.688438475e-08 	0.01691165333 	-4.251676172e-07 	3.22383116e-05
0.370765452 	0.009586615897 	0.001309415546 	2.718007039e-07 	0.01678849351 	-1.470026967e-06 	3.200353475e-05
0.3775045562 	0.009468768351 	0.001420789019 	8.908971516e-07 	0.01667635525 	-2.338425359e-06 	3.178976806e-05
0.3846701963 	0.009380501182 	0.00149259691 	1.581094448e-06 	0.01659742506 	-3.149762525e-06 	3.163930519e-05
0.3921906403 	0.009316603981 	0.001554340573 	2.234233463e-06 	0.01655602934 	-3.919002326e-06 	3.156039344e-05
0.4001762014 	0.009273707943 	0.001618387616 	2.866102882e-06 	0.01655072355 	-4.66103831e-06 	3.155027913e-05
0.4085492173 	0.009249398121 	0.001688756654 	3.501672759e-06 	0.01657878471 	-5.366018814e-06 	3.16037715e-05
0.4174695372 	0.009241941874 	0.001766258903 	4.170225765e-06 	0.01663807679 	-6.048934259e-06 	3.171679867e-05
0.4268440928 	0.009250433427 	0.001851755696 	4.170002361e-06 	0.0167261152 	-5.748765469e-06 	3.188462436e-05
0.4367404718 	0.009274027947 	0.001945138826 	3.649758773e-06 	0.01684142671 	-4.802867827e-06 	3.210444015e-05
0.4472333779 	0.009311960566 	0.002046673403 	3.101806758e-06 	0.01698311404 	-3.9134894e-06 	3.237453557e-05
0.4582953895 	0.009363898702 	0.002156918185 	2.53346129e-06 	0.01714967729 	-3.080519565e-06 	3.269205141e-05
0.4699689866 	0.009429520896 	0.002276034104 	1.949394805e-06 	0.01734017116 	-2.296380902e-06 	3.305518568e-05
0.4822936115 	0.009508683231 	0.002404586242 	1.356335248e-06 	0.01755396537 	-1.556397447e-06 	3.346273686e-05
0.4953057774 	0.009601523522 	0.002543494096 	7.632882745e-07 	0.01779028795 	-8.582341884e-07 	3.391323339e-05
0.5090393984 	0.009708323646 	0.002693817227 	1.815807815e-07 	0.01804821166 	-2.01367248e-07 	3.440490767e-05
0.513762713 	0.009747781791 	0.002746932296 	1.0444568e-06 	0.01813899443 	-3.144876997e-06 	3.457796486e-05
0.5235044868 	0.009829121975 	0.002855807982 	3.35918478e-07 	0.01832592954 	-4.008927382e-07 	3.493431514e-05
0.5387465651 	0.009964701366 	0.003031432655 	7.949328868e-07 	0.01862195884 	-9.501415479e-07 	3.549862925e-05
0.5548066837 	0.01011582933 	0.003222655359 	1.199063998e-06 	0.01893379785 	-1.447559962e-06 	3.609308108e-05
0.5717152009 	0.01028317009 	0.003430955122 	1.5332451e-06 	0.01925764522 	-1.887199349e-06 	3.671042417e-05
0.5895042168 	0.01046754793 	0.003657687646 	1.78340097e-06 	0.01958874829 	-2.261217588e-06 	3.734159865e-05
0.6082296249 	0.01066987581 	0.003903690241 	1.938194343e-06 	0.01992143832 	-2.559696078e-06 	3.797579831e-05
0.6279001201 	0.01089122452 	0.0041696486 	1.989165162e-06 	0.02024812958 	-2.770807953e-06 	3.859856265e-05
0.6485703006 	0.01112775573 	0.004450167814 	1.941416368e-06 	0.02055335753 	-2.882113121e-06 	3.918041196e-05
0.66843191 	0.01136723198 	0.004728977737 	1.809881756e-06 	0.02081782242 	-2.89531075e-06 	3.968455554e-05
0.6874212629 	0.01160313608 	0.004997029862 	1.629231446e-06 	0.02103536346 	-2.827042982e-06 	4.009924922e-05
0.7055658705 	0.01183465978 	0.005253085593 	1.424216537e-06 	0.02120683483 	-2.697421537e-06 	4.042612132e-05
0.7229031623 	0.01206118716 	0.005496144529 	1.21441201e-06 	0.0213344871 	-2.525874966e-06 	4.066946202e-05
0.7394698793 	0.01228213432 	0.005725328666 	1.012741874e-06 	0.02142126331 	-2.327997778e-06 	4.08348816e-05
0.755298117 	0.01249708578 	0.005940226643 	8.267670614e-07 	0.02147009472 	-2.116205548e-06 	4.092796785e-05
0.7704214875 	0.01270557058 	0.006140554591 	6.610453553e-07 	0.02148409968 	-1.900860066e-06 	4.095466519e-05
0.7848719432 	0.01290707702 	0.006326181475 	5.179911275e-07 	0.02146635342 	-1.690322345e-06 	4.092083588e-05
0.7986798927 	0.0131011966 	0.006497189643 	3.977667521e-07 	0.02141970707 	-1.490218449e-06 	4.083191497e-05
0.8118742916 	0.01328773804 	0.006653905753 	2.986378192e-07 	0.02134668701 	-1.3035518e-06 	4.069271845e-05
0.8244827192 	0.0134666337 	0.006796783231 	2.181325968e-07 	0.02124958661 	-1.131988588e-06 	4.050761809e-05
0.8365314472 	0.01363778651 	0.006926268382 	1.538051957e-07 	0.02113060083 	-9.767355999e-07 	4.028079814e-05
0.8480455046 	0.01380103485 	0.007042771113 	1.029775242e-07 	0.02099184684 	-8.379472394e-07 	4.001629445e-05
0.8590487402 	0.01395611725 	0.007146646967 	6.221082464e-08 	0.02083543204 	-7.134785155e-07 	3.971812437e-05
0.8695638843 	0.01410251237 	0.007238139275 	2.775955103e-08 	0.02066363022 	-5.992955622e-07 	3.939062237e-05
0.8796126135 	0.0142396598 	0.007317569534 	-1.979981415e-09 	0.02047843504 	-4.949378388e-07 	3.903758888e-05
0.8892156238 	0.01436877381 	0.007386143736 	-2.448885727e-08 	0.02027938366 	-4.084350894e-07 	3.865814162e-05
0.8983926083 	0.01449694358 	0.007439139705 	-8.893406191e-08 	0.02006012008 	-3.676011224e-07 	3.82401643e-05
0.9071624053 	0.01463395884 	0.007458410016 	-1.465614002e-07 	0.01981126767 	-3.475064479e-07 	3.776578243e-05
0.9155430186 	0.01477326762 	0.007453112791 	-1.543966884e-07 	0.01954001275 	-3.19102848e-07 	3.724869517e-05
0.9235516277 	0.01490397 	0.007439161445 	-1.548501691e-07 	0.01925789451 	-2.923527759e-07 	3.67108994e-05
0.9312046532 	0.01502514431 	0.007413163496 	-1.482255314e-07 	0.01896620727 	-2.663536244e-07 	3.615486244e-05
0.9385178002 	0.01513613578 	0.007379790722 	-1.38322878e-07 	0.01866635613 	-2.423117218e-07 	3.558326282e-05
0.9455060684 	0.0152368498 	0.007347288314 	-1.247618844e-07 	0.01835950837 	-2.185018697e-07 	3.499832572e-05
0.9521838081 	0.01532219071 	0.007299700604 	-1.080876228e-07 	0.01806928308 	-1.91857927e-07 	3.444507565e-05
0.9565250531 	0.0153873152 	0.007257554693 	-9.221076382e-08 	0.01783062656 	-1.698858964e-07 	3.399012999e-05
0.960539451 	0.01544163879 	0.007240486118 	-7.234227589e-08 	0.01762972475 	-1.442422769e-07 	3.36071553e-05
0.9642515544 	0.01549515824 	0.007228852671 	-4.940212273e-08 	0.01744262341 	-1.141062716e-07 	3.325048815e-05
0.9676840802 	0.01555009026 	0.007226249019 	-2.34342722e-08 	0.01727135845 	-7.890912395e-08 	3.292400954e-05
0.970858045 	0.01560889701 	0.007234202595 	5.242162723e-09 	0.01711804954 	-3.814173266e-08 	3.263176013e-05
0.9737928911 	0.01567402426 	0.007254034692 	3.615122539e-08 	0.01698500664 	8.511804431e-09 	3.23781434e-05
0.9765066032 	0.0157477334 	0.007286670265 	6.865353172e-08 	0.01687438124 	6.115162224e-08 	3.216726063e-05
0.9790158178 	0.01583168067 	0.007332349267 	1.019328821e-07 	0.01678779758 	1.196242166e-07 	3.200220811e-05
0.9813359236 	0.01592621463 	0.007390181296 	1.349769437e-07 	0.01672567312 	1.834438985e-07 	3.188378163e-05
0.9834811545 	0.01602924147 	0.007457424428 	1.665524525e-07 	0.01668597092 	2.515139202e-07 	3.180809819e-05
0.9854646754 	0.01613439253 	0.007534255271 	2.061818429e-07 	0.01666203879 	3.225254774e-07 	3.176247691e-05
0.9872986626 	0.01622613838 	0.007609508924 	2.175479512e-07 	0.0166367261 	3.899398177e-07 	3.171422388e-05
0.9889943775 	0.01626432386 	0.007631474879 	2.177041926e-07 	0.01656831338 	4.484545208e-07 	3.158381022e-05
0.9905622351 	0.01615918652 	0.007561898661 	2.343812941e-07 	0.01636988661 	4.89608082e-07 	3.120555366e-05
0.9920118673 	0.01578457575 	0.00737230396 	2.358959978e-07 	0.01592462117 	4.968222152e-07 	3.035675396e-05
0.9928912821 	0.01515728278 	0.007072828011 	2.27828367e-07 	0.01525052882 	4.805395299e-07 	2.907174659e-05
0.9937707338 	0.01417434184 	0.006614553992 	2.0705864e-07 	0.01423324609 	4.381811103e-07 	2.713252297e-05
0.9946502226 	0.01245030623 	0.005805271347 	1.701454032e-07 	0.01248131638 	3.626535682e-07 	2.379285802e-05
0.9955297484 	0.00952485903 	0.004394333203 	1.148780592e-07 	0.009535750982 	2.504100695e-07 	1.81777917e-05
0.9964093112 	0.005249185604 	0.002228498087 	5.049315516e-08 	0.005249600913 	1.239920161e-07 	1.000719839e-05
0.997288911 	0.001552950375 	0.0004984625193 	1.014378384e-08 	0.001551616518 	3.627728685e-08 	2.957812333e-06
0.9981685478 	0.0001543000327 	2.096842279e-05 	6.374060734e-10 	0.0001540583663 	4.960281383e-09 	2.936780644e-07
0.9990482216 	2.620283159e-06 	4.751742977e-08 	2.936524039e-12 	2.615293742e-06 	1.419646388e-10 	4.985476756e-09
0.9990482216 	2.620283159e-06 	4.751742977e-08 	2.936524039e-12 	2.615293742e-06 	1.419646388e-10 	4.985476756e-09
