1.763310544e-35 	1.544649028 	-5.212556357e-14 	-1.62593773e-20
0.001200113918 	1.544661532 	-0.0001204472851 	2.195067981e-08
0.002400222322 	1.544706704 	-0.0002263934604 	4.033671773e-08
0.003600325192 	1.544789965 	-0.0003324306123 	5.78662317e-08
0.004800422516 	1.544908053 	-0.0004412647228 	7.499756026e-08
0.006000514287 	1.545060469 	-0.0005505806842 	9.131201449e-08
0.007200600506 	1.545247033 	-0.000659941658 	1.067334314e-07
0.008400681181 	1.545467646 	-0.0007693005872 	1.212553256e-07
0.009600756325 	1.545768849 	-0.0008972522727 	1.377341186e-07
0.01157906614 	1.546232447 	-0.001064347984 	1.561907971e-07
0.01371885541 	1.546873452 	-0.001259444588 	1.756544156e-07
0.01603330369 	1.547687884 	-0.001470096664 	1.935426729e-07
0.01853666616 	1.548710389 	-0.0016975451 	2.092881332e-07
0.02124826084 	1.549983098 	-0.001943274208 	2.222029842e-07
0.02419087601 	1.551554974 	-0.002208640546 	2.312801281e-07
0.02737367697 	1.553480597 	-0.002494612945 	2.355422045e-07
0.03081626632 	1.555823597 	-0.00280225411 	2.337385861e-07
0.03453984619 	1.558659176 	-0.003132805445 	2.244566839e-07
0.0385673488 	1.562076671 	-0.003487673145 	2.0608942e-07
0.04293289934 	1.566182608 	-0.003868403341 	1.766078506e-07
0.04766524241 	1.571096144 	-0.004275995651 	1.338733446e-07
0.05278384335 	1.576948127 	-0.004710800367 	7.573999547e-08
0.05829882684 	1.583866937 	-0.005171506757 	5.121843291e-09
0.05832022515 	1.583893775 	-0.005173295226 	3.337220026e-10
0.06432130776 	1.593258976 	-0.005728918599 	1.020135334e-07
0.07395526336 	1.606820185 	-0.006430320109 	2.919198664e-07
0.08407022611 	1.624045129 	-0.007194612809 	5.262516076e-07
0.09470815666 	1.644082756 	-0.007953553286 	8.028935964e-07
0.1058805843 	1.667140987 	-0.008697695179 	1.118269883e-06
0.1176232903 	1.693431817 	-0.009415901535 	1.466779383e-06
0.1299648788 	1.723163481 	-0.010095013 	1.839907454e-06
0.1429259042 	1.756540247 	-0.01071970396 	2.225034978e-06
0.1565546987 	1.793770399 	-0.01127242279 	2.606113934e-06
0.1708716409 	1.835032845 	-0.01173275783 	2.961520615e-06
0.1859111099 	1.880478771 	-0.01207776786 	3.264646261e-06
0.2017118559 	1.930224504 	-0.01228226441 	3.484153585e-06
0.2183168245 	1.984295686 	-0.01231938005 	3.585560545e-06
0.2357583309 	2.042550261 	-0.01216253491 	3.535434034e-06
0.2540781403 	2.104585665 	-0.01178934874 	3.311190556e-06
0.2733193765 	2.169569105 	-0.01118870176 	2.918404079e-06
0.2935267019 	2.235994014 	-0.01037251357 	2.246412658e-06
0.3147464998 	2.301457997 	-0.009391314568 	1.619414203e-06
0.3370270579 	2.362734899 	-0.008341311536 	1.26192934e-06
0.3604187528 	2.416510134 	-0.007337258328 	1.15251836e-06
0.3849759362 	2.460533749 	-0.006454262205 	1.150815339e-06
0.4107528496 	2.494158874 	-0.005696735152 	1.126748306e-06
0.4378060855 	2.517860447 	-0.005025212904 	1.043540142e-06
0.4661974354 	2.532507597 	-0.004397568564 	9.230182074e-07
0.4959899515 	2.538937588 	-0.00379633225 	7.948510532e-07
0.5246045288 	2.53842556 	-0.003233398451 	6.820380106e-07
0.5519451451 	2.53275222 	-0.002706813932 	5.885685196e-07
0.5780663255 	2.523193583 	-0.002208013779 	5.119001591e-07
0.6030216539 	2.510528444 	-0.001730924087 	4.484407923e-07
0.626862383 	2.495218784 	-0.001271671321 	3.945938062e-07
0.6496376184 	2.477543336 	-0.0008281066588 	3.471222254e-07
0.6713946505 	2.457683819 	-0.0003994828272 	3.033456735e-07
0.6921787651 	2.435774078 	1.379368e-05 	2.612970839e-07
0.712033304 	2.41192692 	0.0004104386285 	2.198795034e-07
0.7309997296 	2.386248208 	0.0007887113797 	1.790654758e-07
0.7491176921 	2.358842328 	0.001145562747 	1.390237818e-07
0.766425097 	2.32970561 	0.00148071133 	1.001830247e-07
0.7829581743 	2.298581819 	0.001797616439 	6.183198091e-08
0.7987515486 	2.265147729 	0.002099456308 	2.023243572e-08
0.8138383009 	2.229340639 	0.002384881756 	-2.879617141e-08
0.8282500318 	2.191385651 	0.002646522443 	-8.936478958e-08
0.8420169394 	2.15170137 	0.002873045763 	-1.673535617e-07
0.8551678739 	2.110891746 	0.003047868024 	-2.713233458e-07
0.8677303912 	2.069708389 	0.003151318455 	-4.026341433e-07
0.8797308176 	2.028822376 	0.003171911105 	-5.19090363e-07
0.8911943033 	1.988374545 	0.003113152786 	-5.966856579e-07
0.9021448712 	1.948019973 	0.002987835879 	-6.324259625e-07
0.9126054714 	1.907486215 	0.002810048706 	-6.382096718e-07
0.9225980263 	1.866601598 	0.002588616383 	-6.36357956e-07
0.9321434779 	1.828274293 	0.002350767498 	-6.193747141e-07
0.9383474253 	1.796404029 	0.002137258811 	-5.928589728e-07
0.9440831459 	1.768279404 	0.001943126619 	-5.615334762e-07
0.9493859779 	1.740574885 	0.001751343559 	-5.2502174e-07
0.9542885925 	1.71307327 	0.001564688275 	-4.848695551e-07
0.958821195 	1.685533976 	0.001385377633 	-4.424157723e-07
0.963011711 	1.657686933 	0.001215121834 	-3.988192749e-07
0.9668859588 	1.629222863 	0.001055177037 	-3.550577704e-07
0.9704678078 	1.59977862 	0.0009064168543 	-3.119430139e-07
0.973779326 	1.568915324 	0.0007693991189 	-2.701455784e-07
0.976840916 	1.536085372 	0.0006444231474 	-2.302194756e-07
0.9796714404 	1.500581303 	0.0005315772023 	-1.926245494e-07
0.9822883383 	1.46145349 	0.0004307667196 	-1.57741635e-07
0.9847077327 	1.417371076 	0.0003417057713 	-1.258716036e-07
0.9869445296 	1.366372422 	0.0002640586713 	-9.72850281e-08
0.98901251 	1.310684744 	0.0002024703833 	-7.413759632e-08
0.9902669739 	1.256300394 	0.0001587946508 	-5.752849943e-08
0.9915214379 	1.196646473 	0.0001239699427 	-4.424802644e-08
0.9927759018 	1.118258081 	9.210060443e-05 	-3.220037977e-08
0.9940303658 	1.008428721 	6.343240437e-05 	-2.159544644e-08
0.9952848297 	0.8437285452 	3.814423057e-05 	-1.258984898e-08
0.9965392937 	0.6035570966 	1.755974243e-05 	-5.632132239e-09
0.9977937576 	0.3089073123 	4.53498535e-06 	-1.412531677e-09
0.9990482216 	0.0964632333 	2.063058938e-07 	-5.083416375e-11
0.9990482216 	0.0964632333 	2.063058938e-07 	-5.083416375e-11
