0.2742025579 	1.308441103e-05 	-3.97853458e-07 	4.375339183e-10 	1.263889704e-05 	-7.417461403e-09 	2.409325056e-08
0.2750330748 	0.0009053861366 	-0.0001658797983 	2.772961718e-07 	0.0007287909566 	-6.997010999e-07 	1.38927812e-06
0.2758636678 	0.00804879423 	-0.002464421803 	2.774005623e-06 	0.005436192796 	-3.769696009e-06 	1.036289438e-05
0.2766942627 	0.0202119002 	-0.006936184067 	2.991779937e-06 	0.01288870778 	-1.900809952e-06 	2.456945926e-05
0.2775247859 	0.02779517908 	-0.00995335579 	-2.268931118e-06 	0.01733127388 	8.264925658e-06 	3.303822499e-05
0.2783551643 	0.02879191567 	-0.01022507175 	-9.101412371e-06 	0.01809371064 	1.889107563e-05 	3.449164137e-05
0.279185325 	0.02667714145 	-0.009248041439 	-1.420343229e-05 	0.01706711654 	2.58462077e-05 	3.253466769e-05
0.2800151957 	0.02369868916 	-0.008121997958 	-1.534154972e-05 	0.01534690365 	2.725446871e-05 	2.925546381e-05
0.2808447044 	0.02035497981 	-0.006933359288 	-1.382239632e-05 	0.01337922503 	2.158802422e-05 	2.550452146e-05
0.2822111683 	0.01698791322 	-0.005604209555 	-1.180268693e-05 	0.01167232835 	8.261987796e-06 	2.225070198e-05
0.2836874877 	0.01446164904 	-0.004327330954 	-8.39891755e-06 	0.01092803531 	-6.265372153e-06 	2.08318726e-05
0.2852818933 	0.01302654252 	-0.003363474536 	-5.221738282e-06 	0.01114583561 	-1.623680286e-05 	2.12470605e-05
0.2870030499 	0.01227345929 	-0.002676528956 	-3.792251473e-06 	0.01193510091 	-2.113111615e-05 	2.275161953e-05
0.2888600224 	0.01183455538 	-0.002134969639 	-2.580088627e-06 	0.01296597885 	-2.218574767e-05 	2.47167594e-05
0.290862223 	0.01153665287 	-0.001702569206 	-1.713349615e-06 	0.01402753335 	-2.125523865e-05 	2.674037732e-05
0.2930672759 	0.01129347578 	-0.001338863729 	-1.227679516e-06 	0.01503729389 	-1.922705234e-05 	2.866526155e-05
0.2954700297 	0.01106056097 	-0.001008013499 	-1.098396115e-06 	0.01593736067 	-1.555589067e-05 	3.038103899e-05
0.2980608319 	0.01082225222 	-0.000685576887 	-1.079460143e-06 	0.01664367594 	-1.07391774e-05 	3.172747222e-05
0.3008538481 	0.0105777393 	-0.0003620770827 	-8.22959648e-07 	0.01708539945 	-6.430865272e-06 	3.256951999e-05
0.303864246 	0.01033954615 	-5.301690818e-05 	-3.633609774e-07 	0.01722102432 	-3.63471629e-06 	3.282805869e-05
0.3071082616 	0.01011535221 	0.0002101629739 	1.230961104e-08 	0.01715416619 	-1.887570175e-06 	3.270060851e-05
0.3106642132 	0.009908281584 	0.000405662716 	7.705180202e-08 	0.01701915576 	-5.095178554e-07 	3.24432411e-05
0.3123107191 	0.009829343922 	0.0004585537356 	2.137940873e-06 	0.01694520157 	-6.65494046e-06 	3.230226386e-05
0.3145133283 	0.009721331104 	0.000529479462 	6.301403048e-08 	0.01684381029 	-6.410499303e-07 	3.21089839e-05
0.318634215 	0.009535247109 	0.0005992696264 	4.142377012e-07 	0.01663684666 	-1.600122839e-06 	3.17144537e-05
0.3252001067 	0.009347418862 	0.0006456331787 	1.155525533e-06 	0.01641382526 	-2.857446682e-06 	3.128931294e-05
0.3322369739 	0.009186649992 	0.0006849510745 	2.007078933e-06 	0.01622345815 	-4.001127847e-06 	3.092642032e-05
0.3395637721 	0.009062554773 	0.0007209662456 	2.848009736e-06 	0.01609086732 	-5.048863691e-06 	3.067366533e-05
0.347346627 	0.008966910429 	0.0007589570261 	3.736422135e-06 	0.01601080446 	-6.022358209e-06 	3.052104327e-05
0.3555016104 	0.008896084081 	0.00080223587 	4.696318302e-06 	0.01597626599 	-6.912620172e-06 	3.045520335e-05
0.3641513193 	0.008847293672 	0.0008514501667 	5.754017614e-06 	0.0159825178 	-7.746670223e-06 	3.046712103e-05
0.3732050964 	0.008818097477 	0.0009072905305 	5.350674722e-06 	0.01602595195 	-6.617486418e-06 	3.054991861e-05
0.3828408245 	0.008806704066 	0.0009705489022 	4.636913508e-06 	0.01610410127 	-5.286850753e-06 	3.069889293e-05
0.3929504152 	0.008811866147 	0.001042285913 	3.852490211e-06 	0.01621437486 	-4.072411525e-06 	3.090910503e-05
0.4036070055 	0.008832586833 	0.001123024093 	2.99215281e-06 	0.01635506183 	-2.950210526e-06 	3.117729351e-05
0.4148914854 	0.008868025106 	0.001213554858 	2.053329963e-06 	0.01652511081 	-1.90066174e-06 	3.150145411e-05
0.4267696454 	0.008917676242 	0.001314801799 	1.049997283e-06 	0.01672278216 	-9.19731928e-07 	3.187827064e-05
0.4392139803 	0.008980786728 	0.001426699825 	1.199657714e-08 	0.01694557416 	-5.976384105e-08 	3.230297413e-05
0.439285429 	0.008981146606 	0.00142733078 	5.416422934e-09 	0.01694684221 	-5.218201348e-09 	3.230539139e-05
0.4524163498 	0.009057597318 	0.001548569472 	9.493333121e-07 	0.01719396129 	-8.845324689e-07 	3.277646903e-05
0.466268763 	0.009148061823 	0.001683239254 	1.896442958e-06 	0.01746588671 	-1.723117736e-06 	3.329483446e-05
0.4808776983 	0.009252855112 	0.001833051936 	2.822634463e-06 	0.01776155133 	-2.523885063e-06 	3.38584534e-05
0.4962758623 	0.009372510103 	0.002000115317 	3.69786814e-06 	0.0180794682 	-3.28751431e-06 	3.446449131e-05
0.5124944429 	0.009507775486 	0.002186825758 	4.485991502e-06 	0.01841746457 	-4.012096201e-06 	3.510880634e-05
0.5295640407 	0.009659551979 	0.00239570651 	5.145651221e-06 	0.01877228846 	-4.691101592e-06 	3.57851993e-05
0.5475156713 	0.009828933615 	0.002629245212 	5.633302223e-06 	0.01913937674 	-5.311508408e-06 	3.648497158e-05
0.5663825102 	0.01001731447 	0.002889712444 	5.907658916e-06 	0.01951285866 	-5.851519559e-06 	3.719693192e-05
0.5862242789 	0.01022645762 	0.003178792297 	5.534035179e-06 	0.01988552045 	-5.855190128e-06 	3.790732887e-05
0.6070486872 	0.01045851805 	0.003497681387 	4.707920829e-06 	0.02024802887 	-5.421866184e-06 	3.859837067e-05
0.6289146241 	0.01071040454 	0.003839284539 	3.928916794e-06 	0.02058299878 	-5.009404594e-06 	3.923691643e-05
0.6499112074 	0.01096942095 	0.004182205553 	3.241477431e-06 	0.02086893922 	-4.651976663e-06 	3.978199837e-05
0.6699756811 	0.01122860102 	0.00451412091 	2.640940708e-06 	0.02109937363 	-4.322177913e-06 	4.022127041e-05
0.689140023 	0.0114864932 	0.004831975348 	2.113056195e-06 	0.02127639197 	-4.008203497e-06 	4.055871655e-05
0.7074464267 	0.01174151549 	0.005133063436 	1.651325744e-06 	0.0214040029 	-3.706772532e-06 	4.080197847e-05
0.7249356803 	0.01199228625 	0.005415559557 	1.249103357e-06 	0.02148651974 	-3.41443586e-06 	4.095927849e-05
0.7416430176 	0.01223793744 	0.005678916901 	8.954297088e-07 	0.02152773224 	-3.123701013e-06 	4.103784097e-05
0.7576050211 	0.01247739754 	0.005922772533 	5.835097783e-07 	0.02153176214 	-2.832109931e-06 	4.104552308e-05
0.7728562021 	0.01270920168 	0.00614671167 	3.140535025e-07 	0.02150299839 	-2.546251685e-06 	4.099069137e-05
0.7874292039 	0.01293215604 	0.006350804323 	8.747983882e-08 	0.02144525367 	-2.272047379e-06 	4.088061389e-05
0.8013549591 	0.01314585832 	0.006535886663 	-1.013920215e-07 	0.02136128556 	-2.007229499e-06 	4.072054734e-05
0.8146628155 	0.01335025911 	0.006703047548 	-2.589773944e-07 	0.02125340105 	-1.747282866e-06 	4.051488949e-05
0.8273806435 	0.01354497077 	0.006853086047 	-3.870032202e-07 	0.02112420651 	-1.49511617e-06 	4.026860878e-05
0.8395349301 	0.01372943539 	0.00698664956 	-4.602013004e-07 	0.02097639917 	-1.194851833e-06 	3.998684691e-05
0.8511508653 	0.0139036053 	0.007104632886 	-4.993542796e-07 	0.02081211487 	-9.354178074e-07 	3.967367537e-05
0.8622524219 	0.01406794783 	0.007208155948 	-5.153937644e-07 	0.02063289563 	-7.118436526e-07 	3.933203369e-05
0.8728624365 	0.01422302421 	0.007298342607 	-5.159806149e-07 	0.02043991313 	-5.163646032e-07 	3.89641554e-05
0.8830026987 	0.0143704922 	0.007374563744 	-4.441101902e-07 	0.02023289713 	-3.223197796e-07 	3.856952537e-05
0.8926939257 	0.01451509119 	0.007428729586 	-2.147349112e-07 	0.02000794438 	-1.116631914e-07 	3.814070291e-05
0.9019559283 	0.01466038007 	0.007453072318 	-6.839333958e-08 	0.0197625681 	4.626408343e-09 	3.767294752e-05
0.9108076381 	0.01480271171 	0.007456272542 	-7.227554703e-08 	0.01950230021 	9.429556828e-09 	3.717680458e-05
0.9192671182 	0.01493758713 	0.007448174537 	-8.615637642e-08 	0.01923282929 	-1.912543446e-08 	3.666311811e-05
0.9273516305 	0.01506359155 	0.007431130036 	-1.447784591e-07 	0.01895585777 	-7.799322427e-08 	3.613513342e-05
0.93507769 	0.01517947251 	0.007408628727 	-2.196046134e-07 	0.01867217847 	-1.512649445e-07 	3.559436182e-05
0.9424610683 	0.01528378522 	0.007386502861 	-2.886365629e-07 	0.01838194297 	-2.294068585e-07 	3.504109229e-05
0.9495168592 	0.01536948487 	0.007346603013 	-3.353338982e-07 	0.01810562136 	-2.919555941e-07 	3.451434651e-05
0.9541041393 	0.01543146357 	0.00730745193 	-3.585659089e-07 	0.01787542559 	-3.373368624e-07 	3.407552939e-05
0.9583462332 	0.01547924865 	0.007288419414 	-3.546664298e-07 	0.01767770659 	-3.547318582e-07 	3.369862203e-05
0.9622690439 	0.01552155825 	0.007270539727 	-3.305453315e-07 	0.01748853334 	-3.497247205e-07 	3.333800522e-05
0.9658965423 	0.01555952648 	0.007256823311 	-2.843560475e-07 	0.01730875198 	-3.178514533e-07 	3.2995292e-05
0.9692509086 	0.01559451558 	0.00724838382 	-2.147105195e-07 	0.01713909393 	-2.536066404e-07 	3.267187659e-05
0.972352664 	0.01562779466 	0.007246256068 	-1.204762397e-07 	0.01698043629 	-1.512879887e-07 	3.236943104e-05
0.9752207934 	0.01566040475 	0.007251249735 	-9.669602329e-10 	0.0168334932 	-5.062682448e-09 	3.208931666e-05
0.9778728611 	0.01569281424 	0.007263727216 	1.437455169e-07 	0.01669850436 	1.908876369e-07 	3.183199042e-05
0.9803251154 	0.01572433585 	0.007283253382 	3.123661452e-07 	0.01657466894 	4.419240748e-07 	3.159592569e-05
0.982592587 	0.01575211468 	0.007308006589 	5.016955484e-07 	0.01645915004 	7.520996605e-07 	3.137571455e-05
0.9846891791 	0.01576941988 	0.007333780391 	7.056654439e-07 	0.01634519323 	1.121913357e-06 	3.115848121e-05
0.9866277518 	0.01576250408 	0.007363573684 	9.723371352e-07 	0.01621900648 	1.549036181e-06 	3.091793419e-05
0.9884201999 	0.01569977384 	0.007362074499 	1.097925165e-06 	0.01604704378 	1.990561346e-06 	3.059012548e-05
0.9900775251 	0.01550716413 	0.007266919074 	1.1468371e-06 	0.01575495162 	2.39184198e-06 	3.003331666e-05
0.9916099026 	0.01508474944 	0.007053086886 	1.257796297e-06 	0.01525364793 	2.642581192e-06 	2.907769249e-05
0.9925395258 	0.01445623034 	0.006750218896 	1.279075292e-06 	0.01457130146 	2.69055402e-06 	2.777695046e-05
0.9934691967 	0.01351509435 	0.006310077279 	1.205413068e-06 	0.01358984254 	2.545812733e-06 	2.590601697e-05
0.9943989151 	0.01189249766 	0.005548181644 	1.005041753e-06 	0.01193394129 	2.139182578e-06 	2.274940896e-05
0.9953286812 	0.009138345452 	0.004219130716 	6.604133158e-07 	0.009155013875 	1.434695939e-06 	1.745200095e-05
0.9962584949 	0.005060776348 	0.002152722877 	2.645728432e-07 	0.005063403641 	6.574615777e-07 	9.652254639e-06
0.9971883561 	0.001497828234 	0.0004839702923 	4.403290474e-08 	0.001496891047 	1.843186608e-07 	2.853490376e-06
0.9981182651 	0.0001457127464 	1.986984974e-05 	4.121556577e-09 	0.0001454936858 	3.263328611e-08 	2.77351403e-07
0.9990482216 	2.344836155e-06 	4.170800432e-08 	2.435921817e-11 	2.34037636e-06 	1.135560088e-09 	4.461407816e-09
