0.47777778 	3.4568481e-10 	1.4045589e-10 	-2.9126641e-13 	2.7400187e-10 	-5.6202535e-13 	5.2233436e-13
0.48888889 	1.6908546e-07 	-8.096306e-08 	1.1625495e-10 	2.0193194e-07 	-5.159671e-10 	3.8857134e-08
0.5 	1.7533852e-07 	-8.7379966e-08 	-1.5984647e-10 	2.0510565e-07 	4.5945188e-10 	4.6200203e-08
0.51111111 	2.2699349e-07 	-1.1483384e-07 	-9.6561528e-12 	2.76266e-07 	7.1990809e-11 	6.4713011e-08
0.52222222 	1.9622228e-07 	-9.9269965e-08 	-4.7188904e-13 	2.3844977e-07 	-5.3687628e-11 	4.6390845e-08
0.53333333 	1.5073438e-07 	-7.6086143e-08 	2.2169645e-10 	1.8154758e-07 	-5.899954e-10 	3.7834292e-08
0.54444444 	1.2400677e-07 	-6.2496451e-08 	8.9736324e-11 	1.4828519e-07 	-2.6717348e-10 	3.1651714e-08
0.55555556 	1.3148702e-07 	-6.5985834e-08 	-5.6163755e-11 	1.5502071e-07 	8.6976421e-11 	3.3663123e-08
0.56666667 	1.5731878e-07 	-7.8428649e-08 	-8.4853221e-11 	1.8199754e-07 	1.6276883e-10 	4.1499942e-08
0.57777778 	1.7388114e-07 	-8.6048446e-08 	-2.5188066e-11 	1.9730638e-07 	2.9964611e-11 	4.8116552e-08
0.58888889 	1.6670011e-07 	-8.1915663e-08 	1.7882159e-10 	1.8585226e-07 	-4.3846505e-10 	4.7315389e-08
0.6 	1.3794836e-07 	-6.7342323e-08 	3.1958184e-10 	1.5129075e-07 	-7.4388268e-10 	3.8069782e-08
0.61111111 	9.6120338e-08 	-4.6609253e-08 	1.0619409e-10 	1.0365981e-07 	-2.4397945e-10 	2.3013984e-08
0.62222222 	5.4553524e-08 	-2.6286439e-08 	-6.1809827e-11 	5.7898574e-08 	1.3305818e-10 	7.6796512e-09
0.63333333 	2.5352896e-08 	-1.2137275e-08 	1.5789318e-10 	2.6520046e-08 	-3.5128437e-10 	8.28228e-09
0.64444444 	8.7744323e-09 	-4.1684533e-09 	4.9600428e-11 	9.038487e-09 	-1.0884246e-10 	1.0584056e-09
0.65555556 	4.5265497e-09 	-2.1356625e-09 	-1.6347622e-11 	4.6161842e-09 	3.746229e-11 	2.455371e-10
0.66666667 	5.5283599e-09 	-2.520377e-09 	-1.1504286e-11 	5.3368109e-09 	2.3365399e-11 	1.2987693e-09
0.67777778 	7.8923389e-09 	-3.625288e-09 	-7.2722925e-12 	7.7341049e-09 	1.5356819e-11 	2.7673254e-09
0.68888889 	9.6419794e-09 	-4.4117502e-09 	-3.7869989e-12 	9.4351046e-09 	7.8044631e-12 	2.770568e-09
0.7 	1.0507649e-08 	-4.9176378e-09 	-9.2537015e-12 	1.0723394e-08 	2.3623724e-11 	3.2169033e-09
0.71111111 	1.151242e-08 	-5.5133923e-09 	-7.2259073e-12 	1.2203771e-08 	1.6849426e-11 	2.5347499e-09
0.72222222 	1.3365341e-08 	-6.4838006e-09 	-2.7765231e-11 	1.4465735e-08 	6.3557665e-11 	4.1417287e-09
0.73333333 	1.5943441e-08 	-7.7878692e-09 	-1.360828e-11 	1.7381364e-08 	2.9068248e-11 	2.7781444e-09
0.74444444 	2.0380102e-08 	-9.8237239e-09 	-5.6754104e-11 	2.1617319e-08 	1.1652699e-10 	6.1869266e-09
0.75555556 	2.5644148e-08 	-1.2169225e-08 	-1.6713844e-11 	2.6394264e-08 	3.2880692e-11 	3.7415812e-09
0.76666667 	3.1661225e-08 	-1.4738442e-08 	-6.6241903e-11 	3.1380664e-08 	1.2811149e-10 	8.9455678e-09
0.77777778 	3.711748e-08 	-1.7003835e-08 	-2.5930853e-11 	3.5690193e-08 	4.8503058e-11 	6.5326545e-10
0.78888889 	3.864581e-08 	-1.754139e-08 	-3.141051e-12 	3.6503976e-08 	2.7079914e-12 	1.0166319e-08
0.8 	3.6488129e-08 	-1.6400606e-08 	1.1825356e-11 	3.3868038e-08 	-1.6778782e-11 	7.7266734e-09
0.81111111 	3.1324779e-08 	-1.3980272e-08 	1.7771017e-11 	2.8695973e-08 	-2.9449532e-11 	7.716814e-09
0.82222222 	2.5743037e-08 	-1.1432726e-08 	5.1292643e-11 	2.3383593e-08 	-9.9444379e-11 	5.273344e-09
0.83333333 	2.3564718e-08 	-1.0406669e-08 	-6.5676119e-13 	2.1183027e-08 	7.9395712e-12 	6.0844123e-09
0.84444444 	2.4200207e-08 	-1.0623901e-08 	-9.4082541e-14 	2.1523354e-08 	6.62836e-12 	6.2249289e-09
0.85555556 	2.9210689e-08 	-1.2720305e-08 	-4.1891558e-11 	2.5647954e-08 	8.5999303e-11 	7.55749e-09
0.86666667 	3.7844184e-08 	-1.6366967e-08 	-8.6290075e-11 	3.28944e-08 	1.719317e-10 	8.8962218e-09
0.87777778 	5.7164553e-08 	-2.4595157e-08 	-3.9227464e-11 	4.9330944e-08 	7.4402349e-11 	1.5180666e-08
0.88888889 	8.6759766e-08 	-3.7167682e-08 	-3.3296412e-12 	7.4420778e-08 	2.9139684e-14 	1.256492e-08
0.9 	1.1468452e-07 	-4.892333e-08 	-3.4177825e-11 	9.7789048e-08 	6.0723385e-11 	2.0733645e-09
0.91111111 	1.3429956e-07 	-5.7112162e-08 	-7.5822183e-11 	1.1405777e-07 	1.41817e-10 	2.54079e-09
0.92222222 	1.4419201e-07 	-6.1262629e-08 	-4.6138917e-11 	1.2242752e-07 	8.0838171e-11 	2.118412e-08
0.93333333 	1.9122719e-07 	-8.0850845e-08 	-3.0254292e-10 	1.6135528e-07 	5.8367992e-10 	4.5684703e-08
0.94444444 	5.6494335e-07 	-2.308443e-07 	-3.6203922e-09 	4.5429035e-07 	6.9809957e-09 	1.0773346e-07
0.95555556 	2.0623612e-06 	-6.9843676e-07 	-2.8449434e-10 	1.3545656e-06 	4.093645e-10 	3.0893629e-07
0.96666667 	3.3217631e-06 	3.8907539e-07 	1.0229861e-08 	1.6076168e-06 	-7.3110117e-09 	6.9170147e-07
0.97777778 	1.2240629e-07 	5.1414458e-08 	-3.2545919e-10 	1.0273505e-07 	-6.4772968e-10 	1.6506654e-08
0.98888889 	1.8174197e-11 	8.2850213e-12 	9.8780929e-14 	1.7494716e-11 	2.088033e-13 	4.8773225e-12
