0.4742268 	1.7247357e-08 	8.0615825e-09 	1.7930825e-11 	1.7581476e-08 	2.8733755e-11 	6.5096752e-09
0.48453608 	6.9748764e-06 	-2.6632484e-06 	-9.467059e-10 	6.1620577e-06 	8.7890993e-09 	2.1503552e-06
0.49484536 	8.8714823e-06 	-3.6671069e-06 	1.7531715e-10 	7.2828069e-06 	3.2784049e-09 	3.7660813e-06
0.50515464 	7.966245e-06 	-3.2310279e-06 	1.23114e-09 	6.375022e-06 	-1.8689449e-09 	2.7717255e-06
0.51546392 	5.4948319e-06 	-2.2379741e-06 	1.0594131e-09 	4.4336278e-06 	-3.4831624e-09 	1.8091836e-06
0.5257732 	3.4654383e-06 	-1.4386512e-06 	6.3016387e-09 	2.8766294e-06 	-1.3400453e-08 	1.1744896e-06
0.53608247 	2.0931634e-06 	-8.8440883e-07 	1.4188654e-09 	1.7851399e-06 	-3.4345899e-09 	7.2469457e-07
0.54639175 	1.2748036e-06 	-5.4582925e-07 	2.1548875e-10 	1.1104684e-06 	-7.3783135e-10 	4.0817378e-07
0.55670103 	8.110508e-07 	-3.5057259e-07 	2.7762112e-10 	7.1766115e-07 	-6.998364e-10 	2.3030359e-07
0.56701031 	5.3941095e-07 	-2.3492539e-07 	2.1457728e-10 	4.834661e-07 	-4.9854225e-10 	1.5150238e-07
0.57731959 	3.8994548e-07 	-1.7077647e-07 	5.748928e-10 	3.5290121e-07 	-1.1962113e-09 	9.476678e-08
0.58762887 	2.9823701e-07 	-1.3124622e-07 	5.7949826e-10 	2.7221611e-07 	-1.1944762e-09 	6.3189435e-08
0.59793814 	2.3818231e-07 	-1.0528563e-07 	4.0563934e-11 	2.1912832e-07 	-8.8952851e-11 	4.5158175e-08
0.60824742 	2.1897061e-07 	-9.722945e-08 	9.4301562e-10 	2.0309862e-07 	-1.9686643e-09 	1.2502571e-09
0.6185567 	1.5725035e-07 	-7.021127e-08 	7.4415999e-11 	1.4729497e-07 	-1.555646e-10 	3.432285e-08
0.62886598 	1.398051e-07 	-6.2594406e-08 	1.4330603e-10 	1.3161488e-07 	-2.9642967e-10 	2.7575491e-08
0.63917526 	1.3686934e-07 	-6.1507976e-08 	5.0455736e-10 	1.2973348e-07 	-1.0642163e-09 	4.8622434e-09
0.64948454 	1.0632039e-07 	-4.7988339e-08 	7.5491705e-11 	1.0157301e-07 	-1.565284e-10 	2.3261155e-08
0.65979381 	9.9218212e-08 	-4.4891209e-08 	1.6447223e-11 	9.5209225e-08 	-3.4383186e-11 	2.0627519e-08
0.67010309 	8.9697231e-08 	-4.0774915e-08 	1.0538003e-10 	8.6819399e-08 	-2.2487229e-10 	1.5579507e-08
0.68041237 	8.2365077e-08 	-3.752742e-08 	6.6024179e-11 	8.0055784e-08 	-1.3732015e-10 	1.900465e-08
0.69072165 	7.9729398e-08 	-3.6477622e-08 	2.2027455e-10 	7.809287e-08 	-4.7221161e-10 	7.3099939e-09
0.70103093 	7.0394608e-08 	-3.2284289e-08 	7.4179313e-11 	6.9251647e-08 	-1.5503931e-10 	1.793191e-08
0.71134021 	6.7908903e-08 	-3.1267848e-08 	1.8639075e-10 	6.7302366e-08 	-4.0189635e-10 	6.3407036e-09
0.72164948 	6.0737436e-08 	-2.802311e-08 	6.3127493e-11 	6.0419144e-08 	-1.3344381e-10 	1.7041373e-08
0.73195876 	5.534158e-08 	-2.5623604e-08 	8.344703e-11 	5.5410391e-08 	-1.8099182e-10 	1.055961e-08
0.74226804 	5.1254295e-08 	-2.3771186e-08 	1.9317176e-11 	5.1471414e-08 	-4.0245462e-11 	1.4726785e-08
0.75257732 	4.8264072e-08 	-2.2465137e-08 	1.4215437e-11 	4.8796231e-08 	-3.0959007e-11 	1.3393263e-08
0.7628866 	5.4022172e-08 	-2.5199923e-08 	4.6521007e-12 	5.4840248e-08 	-8.7959765e-12 	2.1114278e-08
0.77319588 	5.2672648e-08 	-2.4649401e-08 	2.4241957e-12 	5.3828745e-08 	-4.9837173e-12 	2.0432974e-08
0.78350515 	5.3983481e-08 	-2.5354094e-08 	2.8438904e-11 	5.5607952e-08 	-6.0937651e-11 	2.3913467e-08
0.79381443 	4.4684857e-08 	-2.1046123e-08 	-6.1238337e-13 	4.632248e-08 	1.2444761e-12 	1.7041405e-08
0.80412371 	3.2916679e-08 	-1.5560494e-08 	8.9046234e-11 	3.4407161e-08 	-1.9556613e-10 	1.4835705e-08
0.81443299 	1.9275909e-08 	-9.1321132e-09 	-2.6157723e-11 	2.0247729e-08 	5.7797818e-11 	1.4844563e-09
0.82474227 	8.6959281e-09 	-4.1302088e-09 	5.2394028e-11 	9.1832416e-09 	-1.1612304e-10 	4.2257107e-09
0.83505155 	2.3173089e-09 	-1.1016967e-09 	-2.3212398e-13 	2.4518614e-09 	5.1954267e-13 	2.6325863e-10
0.84536082 	6.5611062e-10 	-3.1308353e-10 	-6.8230659e-13 	6.9935419e-10 	1.5321621e-12 	1.4175856e-10
0.8556701 	1.749437e-09 	-8.4135056e-10 	-1.1159012e-11 	1.8991671e-09 	2.5346372e-11 	4.5204578e-10
0.86597938 	4.9086848e-09 	-2.3748913e-09 	-2.3033227e-11 	5.4076181e-09 	5.3045118e-11 	2.0496264e-09
0.87628866 	1.7341693e-08 	-8.4455979e-09 	1.5696517e-11 	1.9431904e-08 	-3.5980307e-11 	3.2319817e-09
0.88659794 	3.9530084e-08 	-1.9396135e-08 	1.692157e-11 	4.520214e-08 	-3.9293149e-11 	6.4926301e-09
0.89690722 	6.8910616e-08 	-3.4082607e-08 	-3.3215751e-11 	8.0583165e-08 	7.9918397e-11 	2.7647221e-08
0.90721649 	9.8708365e-08 	-4.9218019e-08 	-8.4925293e-11 	1.1828616e-07 	2.1752548e-10 	4.5309692e-08
0.91752577 	1.2018614e-07 	-6.0416049e-08 	-5.3733285e-11 	1.478707e-07 	1.5974518e-10 	5.8730969e-08
0.92783505 	1.2589693e-07 	-6.3807123e-08 	5.786357e-12 	1.5942776e-07 	2.0843156e-11 	6.399806e-08
0.93814433 	1.1420077e-07 	-5.8337554e-08 	3.5150053e-12 	1.4906737e-07 	1.8948903e-11 	6.0644187e-08
0.94845361 	9.3974046e-08 	-4.8275249e-08 	-2.2063215e-11 	1.2562759e-07 	4.8296681e-11 	7.3379394e-09
0.95876289 	7.456791e-08 	-3.8602998e-08 	1.5779949e-11 	1.0361274e-07 	-1.1989121e-11 	3.9272149e-08
0.96907216 	6.6702709e-08 	-3.4815953e-08 	-5.3421943e-11 	1.0079664e-07 	1.2285818e-10 	1.1264618e-08
0.97938144 	7.1431334e-08 	-3.7362056e-08 	-2.8643109e-12 	1.0980375e-07 	-5.3095758e-11 	4.3098306e-08
0.98969072 	5.9825396e-08 	-3.0363215e-08 	7.4314444e-12 	7.4799507e-08 	-5.514735e-11 	3.198808e-08
