0.47826087 	9.4596094e-06 	1.000602e-06 	7.9197624e-10 	5.2523273e-06 	3.1154448e-08 	5.405382e-06
0.48913043 	4.2275135e-06 	-1.7301654e-06 	2.4430858e-09 	3.4197454e-06 	-4.7985442e-09 	1.8162472e-06
0.5 	6.994082e-08 	-3.1568379e-08 	4.3372776e-12 	6.6695567e-08 	-1.1585746e-10 	3.0228363e-08
0.51086957 	3.9474682e-08 	-1.7742916e-08 	1.1801505e-12 	3.7133591e-08 	-6.4594133e-11 	2.8319176e-08
0.52173913 	6.7000401e-09 	-2.9978872e-09 	3.4635197e-12 	6.2429745e-09 	-6.620721e-12 	2.2709714e-10
0.5326087 	8.6320576e-10 	-3.8633298e-10 	5.8806354e-13 	8.0553356e-10 	-1.2746709e-12 	2.0734024e-10
0.54347826 	5.070963e-10 	-2.2729443e-10 	-9.5411769e-13 	4.7463942e-10 	1.9753475e-12 	1.8825589e-10
0.55434783 	1.4171322e-09 	-6.3681237e-10 	-2.6244352e-12 	1.3326381e-09 	5.4029745e-12 	7.4871246e-10
0.56521739 	2.8692482e-09 	-1.2903496e-09 	-3.4318141e-12 	2.7027966e-09 	7.0210674e-12 	1.6401581e-09
0.57608696 	4.3158665e-09 	-1.9424441e-09 	-5.0001874e-12 	4.0723382e-09 	1.0311243e-11 	2.5480043e-09
0.58695652 	5.6249662e-09 	-2.5353369e-09 	-2.7512462e-12 	5.3229841e-09 	5.6845772e-12 	3.4107046e-09
0.59782609 	6.7112141e-09 	-3.0318633e-09 	-1.69266e-12 	6.3786001e-09 	3.6743083e-12 	3.4712602e-09
0.60869565 	7.2595143e-09 	-3.2890686e-09 	-9.1890035e-12 	6.9373308e-09 	2.0291618e-11 	5.6360637e-10
0.61956522 	7.2050706e-09 	-3.274185e-09 	-1.8924843e-12 	6.9238972e-09 	4.2352334e-12 	3.3592645e-09
0.63043478 	6.3663636e-09 	-2.9042735e-09 	5.9193033e-12 	6.1625315e-09 	-1.2238711e-11 	3.7800845e-09
0.64130435 	4.9817632e-09 	-2.2790749e-09 	-1.4306454e-12 	4.8483334e-09 	3.3141008e-12 	1.4699026e-09
0.65217391 	3.5881753e-09 	-1.6479059e-09 	2.0874291e-13 	3.5173273e-09 	-3.1844849e-13 	1.5407513e-09
0.66304348 	2.1706788e-09 	-9.9930984e-10 	5.5888299e-12 	2.1378751e-09 	-1.1839498e-11 	1.0780557e-09
0.67391304 	1.2158721e-09 	-5.6004808e-10 	1.9088555e-12 	1.1988256e-09 	-4.031419e-12 	3.4200199e-11
0.68478261 	5.0447166e-10 	-2.3319823e-10 	2.1502578e-12 	5.0078686e-10 	-4.5867649e-12 	2.2726029e-10
0.69565217 	2.4317145e-10 	-1.1231135e-10 	6.8485669e-13 	2.4108829e-10 	-1.4680656e-12 	3.525323e-12
0.70652174 	4.8983964e-11 	-2.2691381e-11 	1.631209e-13 	4.8843206e-11 	-3.4968041e-13 	5.6358868e-12
0.7173913 	4.4531811e-11 	-2.0640958e-11 	1.3967855e-13 	4.4458148e-11 	-3.0088637e-13 	1.502755e-12
0.72826087 	1.0769203e-11 	-5.0056155e-12 	2.5395249e-14 	1.080385e-11 	-5.4634692e-14 	2.0584822e-12
0.73913043 	9.3784501e-12 	-4.3638114e-12 	3.4261492e-14 	9.4283587e-12 	-7.4056811e-14 	1.8027959e-14
0.75 	1.6661573e-12 	-7.7672029e-13 	1.0089353e-14 	1.6796466e-12 	-2.1795339e-14 	3.2867946e-15
0.76086957 	1.7350156e-12 	-8.0712245e-13 	3.494508e-16 	1.7407061e-12 	-9.9424025e-16 	3.3727483e-15
0.77173913 	3.5065259e-10 	-1.6335462e-10 	-2.6473381e-15 	3.5283995e-10 	5.7181208e-15 	6.7269621e-13
0.7826087 	1.0424689e-09 	-4.8480696e-10 	3.1367236e-13 	1.0448956e-09 	-6.7407564e-13 	6.5422562e-10
0.79347826 	3.7301848e-09 	-1.7398665e-09 	5.0967334e-12 	3.7663682e-09 	-1.1141692e-11 	4.5778104e-10
0.80434783 	7.9091529e-09 	-3.6924727e-09 	-2.9545446e-11 	8.0026521e-09 	6.4655739e-11 	4.1394294e-09
0.81521739 	1.6518252e-08 	-7.7341086e-09 	1.5356188e-11 	1.6819592e-08 	-3.4801407e-11 	1.1412461e-09
0.82608696 	2.2938904e-08 	-1.076004e-08 	-4.2025885e-12 	2.3443532e-08 	9.7313592e-12 	1.3780886e-08
0.83695652 	2.1772152e-08 	-1.0246317e-08 	1.0829842e-11 	2.2406748e-08 	-2.3340299e-11 	1.2966314e-08
0.84782609 	1.3401199e-08 	-6.3103007e-09 	-1.7782764e-11 	1.3810208e-08 	3.7220428e-11 	6.5116459e-10
0.85869565 	5.2411985e-09 	-2.4726704e-09 	-2.8697336e-12 	5.4210945e-09 	6.1894525e-12 	3.3349152e-09
0.86956522 	1.379595e-09 	-6.5485866e-10 	3.0968833e-12 	1.447453e-09 	-6.6203101e-12 	3.2095852e-10
0.88043478 	3.5658282e-09 	-1.7056819e-09 	-3.0098849e-11 	3.8086659e-09 	6.7916455e-11 	1.2430271e-09
0.89130435 	2.063427e-08 	-9.8985033e-09 	3.0252101e-12 	2.2174179e-08 	-7.1789505e-12 	1.3233279e-08
0.90217391 	6.9741838e-08 	-3.3839661e-08 	1.6115233e-11 	7.70936e-08 	-4.1920187e-11 	3.4289453e-08
0.91304348 	1.5725231e-07 	-7.7404946e-08 	-1.6877865e-12 	1.8062555e-07 	-1.2312647e-11 	7.2564961e-08
0.92391304 	2.606933e-07 	-1.303556e-07 	-2.1511366e-11 	3.133922e-07 	6.2760157e-11 	1.5489798e-07
0.93478261 	3.2207954e-07 	-1.6269254e-07 	-3.5550486e-11 	3.9953998e-07 	1.6575949e-10 	2.1803597e-07
0.94565217 	3.1920395e-07 	-1.6124481e-07 	3.4869687e-11 	3.9496553e-07 	-2.538088e-11 	2.150969e-07
0.95652174 	2.7917972e-07 	-1.403079e-07 	-2.6633026e-10 	3.3978136e-07 	5.0792554e-10 	5.9625587e-09
0.9673913 	2.5943581e-07 	-1.3306691e-07 	5.508948e-12 	3.3939985e-07 	-5.2423536e-11 	1.7774905e-07
0.97826087 	2.1205451e-07 	-1.0962922e-07 	9.8716706e-11 	2.8633013e-07 	-4.0185593e-10 	1.464763e-07
0.98913043 	6.6132282e-08 	-3.2891063e-08 	7.2414118e-11 	7.7442473e-08 	-1.9263438e-10 	3.9769852e-08
