0.4742268 	5.1088065e-09 	2.3838888e-09 	2.1656041e-12 	5.1774436e-09 	2.3940248e-12 	1.8241227e-09
0.48453608 	3.3425322e-06 	-1.343411e-06 	-3.4525905e-10 	2.9233562e-06 	2.0106371e-09 	1.0788015e-06
0.49484536 	5.3943254e-06 	-2.3151403e-06 	-3.8446171e-09 	4.6821916e-06 	9.1358543e-09 	2.151992e-06
0.50515464 	7.5213382e-06 	-3.1599364e-06 	3.4164499e-11 	6.3278087e-06 	1.4967705e-09 	2.6201123e-06
0.51546392 	8.1684703e-06 	-3.3982439e-06 	5.5403013e-10 	6.7916287e-06 	-7.0212704e-10 	2.9810502e-06
0.5257732 	7.4015053e-06 	-3.1029043e-06 	4.6618583e-09 	6.2291071e-06 	-9.5118594e-09 	2.6846941e-06
0.53608247 	6.1555669e-06 	-2.6049111e-06 	2.1423662e-09 	5.2588967e-06 	-4.9445213e-09 	2.2709136e-06
0.54639175 	4.9503477e-06 	-2.1126203e-06 	3.2859809e-10 	4.2877043e-06 	-1.3421217e-09 	1.8491403e-06
0.55670103 	3.9697539e-06 	-1.7067603e-06 	1.1416157e-10 	3.4810694e-06 	-7.6695097e-10 	1.4776064e-06
0.56701031 	3.2238685e-06 	-1.3952844e-06 	9.5018826e-10 	2.8588762e-06 	-2.2904368e-09 	1.1762406e-06
0.57731959 	2.6627976e-06 	-1.159434e-06 	2.1532531e-09 	2.3859377e-06 	-4.5975728e-09 	9.417159e-07
0.58762887 	2.2324406e-06 	-9.7754412e-07 	2.5794577e-09 	2.0200188e-06 	-5.3880951e-09 	7.606608e-07
0.59793814 	1.8920704e-06 	-8.3297613e-07 	4.1936167e-10 	1.7282933e-06 	-9.6530261e-10 	6.1849839e-07
0.60824742 	1.5986344e-06 	-7.0731188e-07 	1.6673965e-09 	1.4730504e-06 	-3.4747391e-09 	1.7261288e-08
0.6185567 	1.3859372e-06 	-6.1622169e-07 	6.1091295e-10 	1.2885434e-06 	-1.3182227e-09 	5.0328085e-07
0.62886598 	1.2007954e-06 	-5.3631069e-07 	1.1149955e-09 	1.1254814e-06 	-2.3314204e-09 	4.0805416e-07
0.63917526 	1.0265491e-06 	-4.6051028e-07 	8.588192e-10 	9.6977671e-07 	-1.811369e-09 	7.6000693e-08
0.64948454 	8.9251619e-07 	-4.0219428e-07 	6.990703e-10 	8.5023094e-07 	-1.4689605e-09 	3.2724843e-07
0.65979381 	7.7340741e-07 	-3.4998548e-07 	2.535135e-10 	7.4244871e-07 	-5.415439e-10 	2.5828817e-07
0.67010309 	6.5793093e-07 	-2.9902554e-07 	8.4482981e-11 	6.3668893e-07 	-1.9219239e-10 	2.2163933e-07
0.68041237 	5.6893497e-07 	-2.5956697e-07 	6.7374197e-10 	5.5448418e-07 	-1.4189521e-09 	1.9848288e-07
0.69072165 	4.7657967e-07 	-2.1830684e-07 	2.2766172e-10 	4.6795413e-07 	-4.9012907e-10 	8.6253995e-08
0.70103093 	4.0767806e-07 	-1.8746697e-07 	7.1412063e-10 	4.0322571e-07 	-1.5132729e-09 	1.4634203e-07
0.71134021 	3.3385338e-07 	-1.5410576e-07 	1.3790287e-10 	3.3256001e-07 	-2.9814696e-10 	5.8465063e-08
0.72164948 	2.7926058e-07 	-1.2937774e-07 	5.2021759e-10 	2.8010566e-07 	-1.1113855e-09 	1.0044299e-07
0.73195876 	2.2222488e-07 	-1.033566e-07 	2.893525e-11 	2.245599e-07 	-6.3703112e-11 	7.066481e-08
0.74226804 	1.77846e-07 	-8.3008816e-08 	2.608318e-10 	1.8096444e-07 	-5.6188167e-10 	6.2330416e-08
0.75257732 	1.3459162e-07 	-6.3081897e-08 	1.2984675e-11 	1.3809497e-07 	-2.8322817e-11 	6.2248695e-08
0.7628866 	1.0057285e-07 	-4.7282432e-08 	1.141645e-10 	1.0385713e-07 	-2.4874131e-10 	3.450273e-08
0.77319588 	6.9101124e-08 	-3.2609944e-08 	2.6025652e-11 	7.192376e-08 	-5.685329e-11 	3.4441856e-08
0.78350515 	4.3876764e-08 	-2.0757284e-08 	8.3445295e-11 	4.5905145e-08 	-1.8386364e-10 	1.4331956e-08
0.79381443 	2.4563214e-08 	-1.1658019e-08 	-5.6078402e-12 	2.5868659e-08 	1.2273328e-11 	1.1594976e-08
0.80412371 	1.1658536e-08 	-5.537372e-09 	6.6896857e-11 	1.2293405e-08 	-1.4835745e-10 	3.4068776e-09
0.81443299 	4.3079794e-09 	-2.0478711e-09 	-8.8177644e-12 	4.5492989e-09 	1.9641616e-11 	3.856693e-10
0.82474227 	1.2159633e-09 	-5.7730598e-10 	1.3020576e-11 	1.2797384e-09 	-2.8948579e-11 	1.5637527e-10
0.83505155 	7.8027954e-10 	-3.6969495e-10 	-1.2770109e-12 	8.1689943e-10 	2.8341013e-12 	2.8309254e-10
0.84536082 	2.5490094e-09 	-1.2102678e-09 	3.3047722e-12 	2.6810933e-09 	-7.3120671e-12 	1.7628593e-10
0.8556701 	8.8713639e-09 	-4.2344879e-09 	-6.7209364e-11 	9.4472034e-09 	1.5044686e-10 	1.3595977e-09
0.86597938 	2.3599538e-08 	-1.1307963e-08 	-7.1680733e-11 	2.5362204e-08 	1.6179669e-10 	9.6112913e-09
0.87628866 	4.9819898e-08 	-2.398459e-08 	4.0025275e-11 	5.4161806e-08 	-8.9487133e-11 	8.1282876e-09
0.88659794 	8.1923298e-08 	-3.9656963e-08 	2.5401642e-11 	9.0282861e-08 	-5.7081587e-11 	1.6263841e-08
0.89690722 	1.1330319e-07 	-5.5184953e-08 	-5.0593945e-11 	1.2682812e-07 	1.1798986e-10 	4.2203462e-08
0.90721649 	1.3673035e-07 	-6.703478e-08 	-6.6758126e-11 	1.5575742e-07 	1.7141253e-10 	5.538407e-08
0.91752577 	1.474083e-07 	-7.2832659e-08 	-1.489635e-11 	1.7162272e-07 	7.2259264e-11 	6.2186458e-08
0.92783505 	1.4236699e-07 	-7.105339e-08 	3.593119e-11 	1.7088434e-07 	-3.2459434e-11 	6.2109861e-08
0.93814433 	1.2189328e-07 	-6.1627502e-08 	1.7084966e-11 	1.5286326e-07 	4.8260686e-12 	5.5991844e-08
0.94845361 	9.2213255e-08 	-4.722674e-08 	5.3735744e-12 	1.2186915e-07 	-5.9341799e-13 	7.3167371e-09
0.95876289 	6.4373098e-08 	-3.3373663e-08 	3.423638e-11 	9.1666663e-08 	-3.9063302e-11 	2.8586334e-08
0.96907216 	4.557267e-08 	-2.3346219e-08 	-9.8780882e-12 	7.8738478e-08 	-4.1087465e-12 	7.635476e-09
0.97938144 	4.117816e-08 	-2.0736198e-08 	-4.242748e-12 	7.5739277e-08 	-6.3539638e-11 	2.3323943e-08
0.98969072 	3.44235e-08 	-1.7402051e-08 	4.9486442e-12 	4.2515599e-08 	-4.5321231e-11 	1.6020505e-08
