0.27835052 	0.82269089 	0.20339303 	-0.00021494493
0.28865979 	1.2565704 	0.30056929 	-6.499097e-06
0.29896907 	1.2645386 	0.28981124 	-2.2364836e-05
0.30927835 	1.261314 	0.27671955 	-0.0001208249
0.31958763 	1.2585572 	0.26392534 	-6.2414556e-06
0.32989691 	1.2566222 	0.25309477 	-0.00010631935
0.34020619 	1.2546855 	0.24241182 	-0.00011950804
0.35051546 	1.252742 	0.23233252 	-3.5883894e-05
0.36082474 	1.2505659 	0.22263912 	-0.0001622313
0.37113402 	1.2487542 	0.21360275 	-3.9415854e-05
0.3814433 	1.2467271 	0.20518405 	-0.00010906799
0.39175258 	1.2445254 	0.19722745 	-2.8412685e-05
0.40206186 	1.2418543 	0.18906176 	-0.00028492553
0.41237113 	1.2399487 	0.18205443 	-5.9167495e-05
0.42268041 	1.2374445 	0.17513491 	-0.00010035669
0.43298969 	1.2346921 	0.16805949 	-0.0002627365
0.44329897 	1.2325883 	0.16231756 	-9.3533757e-06
0.45360825 	1.2294466 	0.15549687 	-0.00022952199
0.46391753 	1.2271401 	0.15036294 	-2.6888551e-05
0.4742268 	1.2240403 	0.14414324 	-0.00014845971
0.48453608 	1.2214656 	0.139347 	-7.3836331e-05
0.49484536 	1.2183127 	0.1335868 	-0.00011510853
0.50515464 	1.2155976 	0.12919142 	-0.00010870556
0.51546392 	1.2124388 	0.12409816 	-5.4333873e-05
0.5257732 	1.2095517 	0.11979749 	-4.3905209e-05
0.53608247 	1.2063587 	0.11542398 	-1.425605e-05
0.54639175 	1.2032585 	0.11096857 	-1.8271457e-05
0.55670103 	1.2000652 	0.10705157 	-0.00017425913
0.56701031 	1.1967886 	0.102884 	-1.7399182e-05
0.57731959 	1.1936138 	0.099218895 	-6.4120424e-05
0.58762887 	1.1902401 	0.09554919 	-0.000125093
0.59793814 	1.1868759 	0.091677289 	-1.8272712e-05
0.60824742 	1.1835533 	0.088507604 	-0.00011381776
0.6185567 	1.1801168 	0.085208051 	-0.00011821014
0.62886598 	1.1767129 	0.081777879 	-1.1081031e-05
0.63917526 	1.1731587 	0.078832685 	-0.00011534579
0.64948454 	1.1695614 	0.075808747 	-0.00011293142
0.65979381 	1.1660314 	0.072718263 	-6.7448031e-06
0.67010309 	1.1621598 	0.069935969 	-0.00011619686
0.68041237 	1.1582805 	0.067093091 	-7.5925281e-05
0.69072165 	1.1544245 	0.064285659 	-1.3757678e-06
0.70103093 	1.1502603 	0.06164523 	-0.00014298525
0.71134021 	1.1460956 	0.058985888 	-1.2125333e-05
0.72164948 	1.1417918 	0.056433459 	-4.5130511e-05
0.73195876 	1.1372693 	0.053921395 	-7.3502806e-05
0.74226804 	1.1327465 	0.051423652 	-8.5801544e-07
0.75257732 	1.1277816 	0.04905599 	-0.00010491874
0.7628866 	1.1228699 	0.04663151 	-9.948356e-07
0.77319588 	1.1174455 	0.044375484 	-7.6496883e-05
0.78350515 	1.1119692 	0.042064222 	-2.8693555e-07
0.79381443 	1.1060291 	0.039862599 	-5.72188e-05
0.80412371 	1.0999269 	0.037627115 	-2.2501471e-07
0.81443299 	1.0932594 	0.035497835 	-5.601083e-05
0.82474227 	1.0864641 	0.033307491 	-3.5898641e-07
0.83505155 	1.0788128 	0.031261326 	-5.0502689e-05
0.84536082 	1.0709772 	0.029172077 	-1.0503976e-07
0.8556701 	1.0623005 	0.027130587 	-8.4578022e-06
0.86597938 	1.0530453 	0.025114046 	-2.9622652e-05
0.87628866 	1.0432343 	0.023072719 	-3.0045398e-07
0.88659794 	1.0321862 	0.021114919 	-9.0862432e-07
0.89690722 	1.0202248 	0.019152245 	-3.2172904e-05
0.90721649 	1.007169 	0.017200092 	-6.2782695e-06
0.91752577 	0.99271501 	0.015230771 	-5.2234998e-07
0.92783505 	0.97642779 	0.013268695 	-1.1083072e-06
0.93814433 	0.95764093 	0.011330486 	-9.4767032e-07
0.94845361 	0.93695641 	0.0094884424 	-1.0474894e-06
0.95876289 	0.90823602 	0.0074012597 	-6.2368571e-06
0.96907216 	0.8715046 	0.0053714948 	-1.7482378e-07
0.97938144 	0.81200905 	0.003290639 	-1.3162693e-07
0.98969072 	0.66115773 	0.0011413726 	-6.5838083e-07
