1.640171e-35 	0.0045698919 	-3.1036379e-16 	-1.1280902e-22 	2.1078416e-29 	9.5595168e-36 	1.3275083e-34
0.010869565 	0.0045857851 	-0.00026465796 	2.2184068e-08 	0.0051492496 	-5.7937325e-06 	0.0035482086
0.02173913 	0.004645838 	-0.00052536758 	1.5963805e-08 	0.0052057925 	-7.5592819e-06 	0.0032886357
0.032608696 	0.0047427837 	-0.00078115571 	8.5699903e-10 	0.0052966593 	-2.6910392e-09 	0.0030365263
0.043478261 	0.0048714846 	-0.0010280933 	9.4330103e-08 	0.0054168972 	-7.0028839e-06 	0.0028369877
0.054347826 	0.0050274956 	-0.0012673022 	1.6448859e-07 	0.0055590748 	-3.9120725e-07 	0.0011822227
0.065217391 	0.005212579 	-0.0015067968 	1.9075e-07 	0.0057292907 	-4.2541165e-07 	0.00093678683
0.076086957 	0.0053835072 	-0.0017032079 	1.1306169e-07 	0.0058857055 	-2.3871432e-07 	0.0013866941
0.086956522 	0.0055695849 	-0.0019001824 	4.970731e-07 	0.0060536221 	-6.5926934e-06 	0.001968289
0.097826087 	0.0057532899 	-0.002083828 	8.6480719e-07 	0.006214866 	-7.7986676e-06 	0.0017599128
0.10869565 	0.0059311761 	-0.0022548478 	1.3741349e-07 	0.0063659777 	-2.6949776e-07 	0.00068029442
0.11956522 	0.0060884553 	-0.0024039613 	9.4361248e-07 	0.0064964062 	-6.1535659e-06 	0.0012623225
0.13043478 	0.006227341 	-0.0025373594 	1.7352382e-06 	0.0066045759 	-8.6614783e-06 	0.0010264022
0.14130435 	0.0063487099 	-0.002656933 	1.061434e-07 	0.0066931605 	-5.2981701e-07 	0.00076029013
0.15217391 	0.0064277523 	-0.0027474494 	3.7947374e-06 	0.0067368026 	-1.5264351e-05 	0.00051843336
0.16304348 	0.0064942873 	-0.0028299104 	3.9461068e-07 	0.0067672828 	-1.3349841e-06 	0.00026682061
0.17391304 	0.0065047606 	-0.0028774828 	4.4609697e-06 	0.0067403465 	-1.5091643e-05 	2.7929579e-05
0.18478261 	0.0065041651 	-0.0029183907 	1.1325774e-06 	0.0067033003 	-3.3312241e-06 	0.00023262361
0.19565217 	0.0064462047 	-0.0029244816 	5.2641199e-06 	0.0066091361 	-1.5483236e-05 	0.00045286239
0.20652174 	0.006378096 	-0.0029244428 	2.1436381e-07 	0.0065048387 	-5.6234202e-07 	0.000644008
0.2173913 	0.0062454831 	-0.002885042 	7.1524124e-06 	0.0063391373 	-1.8762972e-05 	0.00083774334
0.22826087 	0.0061078332 	-0.0028425071 	4.9112443e-08 	0.0061673835 	-7.4886683e-08 	0.00044054012
0.23913043 	0.0059142347 	-0.0027642985 	6.781661e-06 	0.005947839 	-1.6107841e-05 	0.0011236548
0.25 	0.0057124604 	-0.0026805378 	1.6619191e-06 	0.0057202409 	-3.9473999e-06 	0.0012870607
0.26086957 	0.0054779575 	-0.0025734344 	2.6251011e-06 	0.0054646418 	-5.6937993e-06 	0.0012904996
0.27173913 	0.005227298 	-0.0024525562 	6.0140078e-06 	0.0051972547 	-1.304428e-05 	0.0014218081
0.2826087 	0.0049645589 	-0.0023218592 	-3.2239617e-08 	0.0049167198 	2.0551811e-08 	8.4250731e-05
0.29347826 	0.0047020589 	-0.0021850875 	6.0114429e-06 	0.0046476547 	-1.2069564e-05 	0.0014389546
0.30434783 	0.004436411 	-0.0020443386 	2.4007353e-06 	0.0043745989 	-4.8201122e-06 	0.001539254
0.31521739 	0.0041698535 	-0.0018981384 	-4.3255355e-08 	0.0041028618 	2.6176864e-08 	0.00078413323
0.32608696 	0.0039235612 	-0.0017597555 	6.7422777e-06 	0.0038569453 	-1.2767758e-05 	0.0014409804
0.33695652 	0.0036788012 	-0.0016211502 	5.7731456e-07 	0.0036119515 	-1.0932526e-06 	0.0015142304
0.34782609 	0.0034504371 	-0.0014870971 	-4.897663e-08 	0.00338422 	5.6060647e-09 	0.00075412068
0.35869565 	0.0032457616 	-0.0013646196 	5.1958446e-06 	0.0031828485 	-9.4084532e-06 	0.0013552839
0.36956522 	0.0030449865 	-0.0012431118 	5.9389869e-07 	0.0029844123 	-1.0754109e-06 	0.0014070758
0.38043478 	0.0028646853 	-0.0011293362 	-5.4913049e-08 	0.0028046099 	-5.706194e-08 	0.00036806795
0.39130435 	0.0027052661 	-0.0010263772 	2.5608957e-06 	0.0026488462 	-4.3896231e-06 	0.0012332664
0.40217391 	0.0025549729 	-0.00092535424 	1.762536e-06 	0.0025003911 	-3.0211573e-06 	0.0012691327
0.41304348 	0.0024181748 	-0.00082813205 	-1.9976302e-08 	0.0023629261 	-1.3065519e-07 	0.00020643885
0.42391304 	0.0022973457 	-0.00074059004 	-1.4394936e-09 	0.0022446698 	-9.4150211e-09 	0.001046805
0.43478261 	0.0021969287 	-0.00065550823 	3.4462761e-06 	0.0021446221 	-5.1912419e-06 	0.0011373339
0.44565217 	0.0021021313 	-0.00057105506 	4.8720441e-09 	0.0020493289 	-3.7849338e-08 	0.00090593824
0.45652174 	0.0020265478 	-0.00049073386 	1.6816998e-08 	0.0019716544 	-1.3064583e-07 	0.00026311906
0.4673913 	0.001960304 	-0.00041561329 	7.3041955e-07 	0.0019058863 	-7.8999157e-07 	0.0010498082
0.47826087 	0.0019136152 	-0.00033950103 	1.8827838e-06 	0.0018575819 	-2.036341e-06 	0.0010669954
0.48913043 	0.0018789002 	-0.00026308659 	2.4090497e-08 	0.0018198818 	-6.5146359e-08 	0.00060032519
0.5 	0.001857569 	-0.00018727428 	3.5116269e-08 	0.0017955335 	-9.4962635e-08 	0.00037593983
0.51086957 	0.0018425175 	-0.00011235243 	9.1934624e-07 	0.0017790567 	-4.608265e-07 	0.0010604926
0.52173913 	0.0018442177 	-3.6044646e-05 	1.1007181e-06 	0.0017776628 	-5.5174e-07 	0.0010733074
0.5326087 	0.0018612441 	4.1304477e-05 	4.535773e-08 	0.0017899482 	-5.7963042e-08 	0.0004437051
0.54347826 	0.0018863097 	0.00012064801 	3.9668945e-08 	0.0018113743 	-5.0693293e-08 	0.00055992762
0.55434783 	0.0019192157 	0.00020144162 	1.469003e-06 	0.001841421 	5.0202495e-08 	0.0011578973
0.56521739 	0.0019625399 	0.00028247291 	1.9342873e-09 	0.0018806582 	-9.0074451e-10 	0.0011441766
0.57608696 	0.0020226262 	0.00036359794 	8.7999306e-08 	0.0019345118 	-4.0978861e-08 	8.2585846e-05
0.58695652 	0.0020847485 	0.00044801048 	1.2332104e-08 	0.0019942211 	-5.7427224e-09 	0.0011429888
0.59782609 	0.0021586118 	0.00053250627 	1.2627924e-06 	0.0020642916 	5.7436524e-07 	0.0013218095
0.60869565 	0.002242044 	0.00061665836 	6.3075507e-08 	0.0021424121 	6.7048409e-09 	0.00056457034
0.61956522 	0.0023324853 	0.00070301667 	4.9684662e-08 	0.0022295021 	5.2814122e-09 	0.00083361335
0.63043478 	0.0024302075 	0.00079092688 	1.7828683e-06 	0.0023249109 	1.4236193e-06 	0.0015262596
0.64130435 	0.0025366383 	0.00087810158 	4.9260055e-08 	0.002427076 	2.6897981e-08 	0.0009114848
0.65217391 	0.002650757 	0.00096678366 	7.0067056e-08 	0.0025380697 	3.8259446e-08 	0.00074838616
0.66304348 	0.0027714033 	0.0010579036 	1.4510541e-06 	0.002658052 	1.5759237e-06 	0.0017668384
0.67391304 	0.0028993921 	0.0011475788 	5.5316688e-08 	0.0027826927 	5.0502197e-08 	0.001001632
0.68478261 	0.003034432 	0.0012391187 	6.1519958e-08 	0.0029162803 	5.6165565e-08 	0.0010481921
0.69565217 	0.0031758051 	0.0013323437 	1.1813341e-06 	0.003058407 	1.57819e-06 	0.0020316876
0.70652174 	0.0033222694 	0.0014227413 	8.5247012e-08 	0.0032020181 	1.0590987e-07 	0.00064050477
0.7173913 	0.0034758403 	0.0015169831 	1.8658191e-08 	0.0033581809 	2.3180713e-08 	0.0019595081
0.72826087 	0.0036334315 	0.0016098637 	8.6652197e-09 	0.0035171043 	1.344779e-08 	0.0023095943
0.73913043 	0.0037943967 	0.0016999866 	9.0750014e-08 	0.0036760648 	1.3977342e-07 	0.00051916448
0.75 	0.0039618758 	0.0017940169 	1.025783e-06 	0.003849334 	1.822748e-06 	0.0025855997
0.76086957 	0.004127416 	0.001880348 	6.0895321e-08 	0.0040146806 	1.2105529e-07 	0.00077675686
0.77173913 	0.0042992798 	0.0019699325 	5.1026503e-08 	0.004194332 	1.0516217e-07 	0.0028538381
0.7826087 	0.0044649682 	0.002050688 	1.8443587e-08 	0.0043639351 	4.8131901e-08 	0.0018182879
0.79347826 	0.00463194 	0.0021301726 	1.1970705e-08 	0.0045388863 	3.1239736e-08 	0.0023709687
0.80434783 	0.0047904681 	0.0022051902 	-4.6929118e-09 	0.0047061361 	7.3700922e-09 	0.0024958889
0.81521739 	0.0049419254 	0.00227785 	-7.5098535e-09 	0.0048670407 	1.1794024e-08 	0.0022764916
0.82608696 	0.0050799518 	0.002336871 	-3.2182624e-08 	0.0050170452 	-2.2570335e-08 	0.0025822726
0.83695652 	0.0052042156 	0.0023814931 	-2.5972908e-08 	0.0051551254 	-1.8215334e-08 	0.0028604487
0.84782609 	0.0053056164 	0.0024138118 	-1.1222425e-07 	0.0052679155 	-1.23438e-07 	0.0018519292
0.85869565 	0.0053919488 	0.0024388833 	-8.8160655e-08 	0.0053715184 	4.794637e-08 	0.0035992726
0.86956522 	0.0054435264 	0.0024443769 	-2.9767221e-07 	0.0054300949 	-4.146215e-07 	0.00011863901
0.88043478 	0.0054747257 	0.0024421247 	-1.3476275e-07 	0.00548258 	-1.2470259e-07 	0.0036569849
0.89130435 	0.0054667442 	0.0024193603 	-7.1887984e-08 	0.0054882128 	-1.1299891e-07 	0.0029445129
0.90217391 	0.00541902 	0.0023775676 	-3.3754627e-07 	0.0054491179 	-5.848377e-07 	0.00061380937
0.91304348 	0.0053360716 	0.0023222627 	-1.356141e-08 	0.0053835983 	-2.3083831e-08 	0.0035987868
0.92391304 	0.0052045334 	0.0022471606 	-5.150286e-07 	0.0052603506 	-9.5348512e-07 	0.0034885591
0.93478261 	0.005024732 	0.0021450154 	-5.1997135e-08 	0.005084297 	-1.0574165e-07 	0.0029083139
0.94565217 	0.0047798002 	0.0020236989 	-7.0289386e-07 	0.0048384384 	-1.5545109e-06 	0.0032187699
0.95652174 	0.004480925 	0.0018885826 	-2.3217007e-07 	0.0045255944 	-5.8140701e-07 	0.00042266255
0.9673913 	0.0040922036 	0.0017339251 	-2.8215175e-08 	0.0041256329 	-8.3383434e-08 	0.0023216171
0.97826087 	0.0035484939 	0.001540055 	-7.3976071e-08 	0.0035613268 	-2.6145625e-07 	0.00035492035
0.98913043 	0.0022604135 	0.0010275692 	-8.2877186e-09 	0.0022540821 	-4.5573015e-08 	0.00024978563
