0.47916667 	0.0056967742 	-0.0026357558 	-2.3650293e-07 	0.0056906114 	5.3272185e-07 	0.002919579
0.48958333 	0.0063728365 	-0.0029189309 	-5.4535302e-09 	0.0063450719 	3.3023908e-08 	0.00057043997
0.5 	0.0057980205 	-0.0026733286 	1.2177193e-07 	0.0057618132 	-2.8843772e-07 	0.0030629218
0.51041667 	0.0049816995 	-0.0023046905 	2.0000245e-06 	0.0049322509 	-4.3121461e-06 	0.0026387538
0.52083333 	0.0040188438 	-0.0018549258 	-2.9919934e-07 	0.0039619687 	6.4573395e-07 	0.00051832036
0.53125 	0.0030910504 	-0.0014238858 	-1.4871937e-07 	0.0030359234 	3.2088713e-07 	0.00095708328
0.54166667 	0.0023824487 	-0.0010363939 	5.7480522e-07 	0.0023376116 	-8.6458917e-07 	0.0011774449
0.55208333 	0.0019360627 	-0.00071368967 	1.0886695e-06 	0.0019052511 	-1.2473325e-06 	0.0009720165
0.5625 	0.0017035807 	-0.00047654636 	6.8930867e-07 	0.0016842882 	-4.9487643e-07 	0.00086497811
0.57291667 	0.0016061195 	-0.00029058433 	-9.1871213e-09 	0.0015988875 	3.279469e-09 	0.00079889616
0.58333333 	0.0015805008 	-0.00013394206 	-1.405531e-07 	0.0015845114 	-8.8550521e-09 	0.00038112286
0.59375 	0.001585608 	2.3440485e-07 	-1.7606144e-07 	0.0015999753 	-5.6006099e-08 	0.00019437099
0.60416667 	0.0016052074 	0.00011551953 	2.0654135e-07 	0.0016302105 	6.9352128e-09 	0.00083344388
0.61458333 	0.0016330108 	0.00021675126 	9.9340717e-07 	0.0016664698 	1.0677948e-07 	0.00085540742
0.625 	0.0016646319 	0.00030747205 	-7.9503537e-08 	0.001704816 	-4.9478183e-08 	0.00048109333
0.63541667 	0.0016977389 	0.00038786384 	-3.9301857e-08 	0.0017446464 	-2.8222527e-08 	0.00065273434
0.64583333 	0.0017317232 	0.00045999726 	7.7421859e-07 	0.0017845827 	1.3151896e-07 	0.00091304992
0.65625 	0.001766362 	0.00052595408 	-9.8276955e-08 	0.0018225895 	-7.7477645e-08 	0.00021811892
0.66666667 	0.0017998143 	0.00058483292 	3.6151914e-07 	0.001861373 	6.2203752e-08 	0.00094551495
0.67708333 	0.0018335704 	0.00063917906 	-2.2460404e-08 	0.0018980959 	-1.8686116e-08 	0.00076926686
0.6875 	0.0018663242 	0.00068829901 	-2.2591852e-09 	0.0019338617 	-1.897098e-09 	0.00095212656
0.69791667 	0.0018990258 	0.00073364485 	2.1125318e-08 	0.0019687666 	2.9113822e-09 	0.0010139607
0.70833333 	0.0019311508 	0.00077497102 	-7.93703e-09 	0.0020021534 	-6.2121131e-09 	0.00087539707
0.71875 	0.001963289 	0.00081365471 	1.9689245e-09 	0.0020357293 	2.141589e-10 	0.0010501285
0.72916667 	0.0019948107 	0.00084866387 	1.0470254e-08 	0.0020677431 	1.1388441e-09 	0.0010501896
0.73958333 	0.0020276789 	0.00088213617 	-7.1883327e-09 	0.0021002101 	-4.0015826e-09 	0.00086246816
0.75 	0.002060502 	0.00091331789 	1.002255e-07 	0.0021331542 	1.5933279e-08 	0.0010877007
0.76041667 	0.0020950312 	0.00094306922 	-4.7489311e-09 	0.002166331 	2.9838032e-09 	0.00070209216
0.77083333 	0.0021314157 	0.00097222911 	9.3975775e-08 	0.0022024761 	3.4040068e-08 	0.0011256766
0.78125 	0.0021700456 	0.00099994773 	2.1268609e-09 	0.0022389459 	9.9946391e-09 	0.00083367644
0.79166667 	0.0022115578 	0.0010290478 	1.3758414e-08 	0.0022788785 	8.4070961e-09 	0.0011648158
0.80208333 	0.002257336 	0.0010600198 	2.97422e-08 	0.0023217586 	3.3943844e-08 	0.0012068714
0.8125 	0.0023077529 	0.0010866047 	2.3311873e-08 	0.0023674102 	4.7163776e-08 	0.00060396155
0.82291667 	0.0023651667 	0.0011127036 	2.0591141e-07 	0.0024217304 	3.9583056e-07 	0.0012534705
0.83333333 	0.0024300149 	0.0011414677 	3.6997213e-08 	0.0024800459 	7.579089e-08 	0.00056082288
0.84375 	0.0025050867 	0.0011753156 	1.2693273e-08 	0.0025500006 	2.6149332e-08 	0.0011191649
0.85416667 	0.0025944454 	0.0012153968 	3.6984332e-07 	0.0026324741 	7.3872255e-07 	0.001370473
0.86458333 	0.0026990539 	0.0012621172 	2.7189999e-08 	0.0027284163 	5.6272807e-08 	0.0011126512
0.875 	0.0028260823 	0.001318653 	1.3355642e-07 	0.0028443048 	2.7807722e-07 	0.00019990793
0.88541667 	0.0029818769 	0.001389124 	3.0760096e-08 	0.0029915119 	6.4524372e-08 	0.0012975818
0.89583333 	0.0031766136 	0.001477151 	3.7346672e-07 	0.0031754589 	7.7547443e-07 	0.0016476053
0.90625 	0.0034175219 	0.0015865788 	8.6387188e-07 	0.0034054248 	1.8132075e-06 	0.0017808475
0.91666667 	0.0037098226 	0.0017202564 	1.1470195e-06 	0.0036883767 	2.4299912e-06 	0.0019357378
0.92708333 	0.0040516482 	0.0018776853 	9.9127983e-07 	0.0040239226 	2.1162825e-06 	0.0021064039
0.9375 	0.0044285062 	0.0020524354 	2.7494329e-07 	0.0043989026 	5.9154658e-07 	0.0022825997
0.94791667 	0.0048113984 	0.0022305107 	1.4395208e-07 	0.0047821606 	3.1404608e-07 	0.00089043425
0.95833333 	0.0051736206 	0.0024008866 	1.6202042e-08 	0.0051523623 	3.5394811e-08 	0.0024965876
0.96875 	0.0054631878 	0.0025085728 	8.987643e-08 	0.005444993 	2.4532114e-07 	0.00012284521
0.97916667 	0.0056053476 	0.0025595761 	-3.8670579e-08 	0.0055970723 	-5.9614048e-08 	0.0029340991
0.98958333 	0.004881829 	0.0022494474 	-8.3798877e-07 	0.0048814521 	-1.9249334e-06 	0.0025976534
