0.27835052 	0.0015404064 	-0.00052820004 	5.3252385e-08 	0.0009784998 	-3.4242543e-08 	0.00087593271
0.28865979 	0.0015927906 	-0.00043423784 	4.7874515e-07 	0.0015573863 	8.6326478e-07 	0.00065308192
0.29896907 	0.0013963484 	3.4975671e-05 	3.0354868e-07 	0.0023515175 	2.7075533e-07 	0.0004784542
0.30927835 	0.0014033052 	9.1792704e-05 	-7.8110275e-08 	0.0024642117 	-2.0233385e-07 	0.00034914284
0.31958763 	0.0014066744 	7.3340222e-05 	-5.4439304e-09 	0.0024764187 	-2.8339691e-08 	0.00021010677
0.32989691 	0.0013972523 	6.7196544e-05 	-4.098403e-08 	0.0024711358 	-5.0286323e-07 	7.8570428e-05
0.34020619 	0.0013843677 	6.758427e-05 	-1.6056475e-08 	0.0024638443 	-5.6437393e-07 	5.8273843e-05
0.35051546 	0.0013717692 	7.1574555e-05 	1.192941e-10 	0.0024595017 	-1.6126579e-07 	0.00018311375
0.36082474 	0.0013611094 	7.6867689e-05 	3.2090182e-07 	0.0024581874 	-5.6465482e-07 	4.2462429e-05
0.37113402 	0.0013545099 	8.4660224e-05 	9.1662453e-08 	0.0024655953 	-1.4416359e-07 	0.00034860392
0.3814433 	0.001350335 	9.3524401e-05 	2.0703442e-08 	0.0024768259 	-4.2459041e-07 	0.00053496471
0.39175258 	0.0013479792 	0.00010330755 	7.9540348e-09 	0.0024908497 	-1.0419523e-07 	0.00065104467
0.40206186 	0.001346817 	0.00011140199 	9.4086022e-07 	0.0025035465 	-1.2216496e-06 	8.2644503e-05
0.41237113 	0.0013482316 	0.00012382925 	2.3577755e-07 	0.002526067 	-2.8349352e-07 	0.00070352838
0.42268041 	0.0013498463 	0.00013555877 	3.9991309e-07 	0.0025457052 	-4.8084633e-07 	0.00069943441
0.43298969 	0.0013520926 	0.00014614287 	1.2732023e-06 	0.0025634353 	-1.4403398e-06 	0.00020370516
0.44329897 	0.0013554639 	0.00016182695 	4.5325791e-08 	0.0025901924 	-5.1275857e-08 	0.0010973541
0.45360825 	0.0013585215 	0.00017222406 	1.3614743e-06 	0.0026053456 	-1.4769531e-06 	7.6431098e-05
0.46391753 	0.001362418 	0.00018940049 	2.4655499e-08 	0.0026321418 	-1.1204587e-07 	0.00100151
0.4742268 	0.0013661399 	0.00020133017 	1.0830295e-06 	0.0026480842 	-1.1520098e-06 	0.00014782303
0.48453608 	0.0013701409 	0.00021887711 	7.8514755e-08 	0.0026726653 	-3.3087259e-07 	0.00088656891
0.49484536 	0.0013741332 	0.00023167921 	1.0359331e-06 	0.002687706 	-1.1069917e-06 	4.6776844e-05
0.50515464 	0.0013780724 	0.00024981056 	1.3181753e-07 	0.002710572 	-5.3830206e-07 	0.00078520274
0.51546392 	0.0013820628 	0.00026421889 	6.0468217e-07 	0.0027254544 	-6.6556149e-07 	0.00024759734
0.5257732 	0.0013859019 	0.00028190114 	6.0843493e-08 	0.0027448885 	-2.4525969e-07 	0.00069650594
0.53608247 	0.0013896724 	0.00029812562 	1.9755922e-08 	0.0027597412 	-7.963598e-08 	0.00064401916
0.54639175 	0.0013935257 	0.00031433912 	2.5175486e-07 	0.0027734777 	-2.9303339e-07 	0.00039528637
0.55670103 	0.0013971205 	0.00033172954 	2.7821411e-07 	0.0027868375 	-1.1234804e-06 	0.00057645925
0.56701031 	0.0014008448 	0.00034803932 	2.9636519e-07 	0.0027972734 	-3.7553649e-07 	0.00024797634
0.57731959 	0.0014043794 	0.00036637472 	1.1941376e-07 	0.0028087404 	-4.8729773e-07 	0.00051994932
0.58762887 	0.0014079173 	0.00038376627 	2.3296516e-07 	0.0028165765 	-9.5067268e-07 	0.0004869041
0.59793814 	0.0014116852 	0.00040091369 	3.8150431e-07 	0.0028222677 	-5.451328e-07 	2.0444103e-05
0.60824742 	0.001415169 	0.00041998628 	2.4462184e-07 	0.0028285664 	-1.0501589e-06 	0.0004504117
0.6185567 	0.0014187982 	0.00043784567 	2.5406213e-07 	0.0028315137 	-1.0906859e-06 	0.00042769696
0.62886598 	0.0014227147 	0.0004557364 	2.7758538e-07 	0.0028323041 	-4.6580895e-07 	9.139028e-06
0.63917526 	0.001426714 	0.00047550616 	2.8820958e-07 	0.0028326638 	-1.2798826e-06 	0.00040926921
0.64948454 	0.0014309288 	0.00049411067 	2.8217689e-07 	0.0028302392 	-1.2530926e-06 	0.00039666578
0.65979381 	0.0014355188 	0.00051279942 	1.9341189e-07 	0.0028256733 	-3.9795293e-07 	1.2684627e-05
0.67010309 	0.001440765 	0.00053340095 	3.3645978e-07 	0.0028197596 	-1.5187056e-06 	0.00039506802
0.68041237 	0.0014463171 	0.00055302439 	2.1984935e-07 	0.0028117126 	-9.9235168e-07 	0.00039150534
0.69072165 	0.0014524783 	0.00057340729 	4.2115377e-08 	0.0028017338 	-1.1091511e-07 	0.00028101106
0.70103093 	0.0014600198 	0.00059389736 	4.6171972e-07 	0.0027891775 	-2.1680464e-06 	0.00040652114
0.71134021 	0.0014677063 	0.00061415422 	3.9154425e-08 	0.0027760925 	-1.8385312e-07 	0.00041062177
0.72164948 	0.0014772732 	0.00063545864 	1.5929608e-07 	0.0027600669 	-7.6570759e-07 	0.00043069405
0.73195876 	0.0014881312 	0.00065623748 	2.5944108e-07 	0.002743267 	-1.2470866e-06 	0.00044120632
0.74226804 	0.0015000602 	0.00067739322 	2.7365528e-08 	0.0027247067 	-1.1249193e-07 	0.00027944572
0.75257732 	0.0015148277 	0.00069890258 	4.0036798e-07 	0.002706845 	-1.9000301e-06 	0.00048056715
0.7628866 	0.0015310788 	0.00071973644 	4.4032598e-08 	0.0026868193 	-1.4500265e-07 	0.00015743365
0.77319588 	0.0015501142 	0.0007423064 	3.1733207e-07 	0.0026701582 	-1.3926215e-06 	0.000529209
0.78350515 	0.0015715316 	0.00076389586 	1.7998755e-08 	0.0026525414 	-4.3806648e-08 	0.0003843813
0.79381443 	0.0015969156 	0.00078694577 	2.6496436e-07 	0.0026385485 	-9.7278327e-07 	0.00058758187
0.80412371 	0.0016254091 	0.00080957082 	1.4643246e-08 	0.0026256475 	-3.2050937e-08 	0.00038853327
0.81443299 	0.0016587146 	0.00083395253 	3.0167131e-07 	0.0026187903 	-8.1072813e-07 	0.0006562534
0.82474227 	0.001696193 	0.0008583649 	1.2974271e-08 	0.0026130482 	-2.408778e-08 	0.00011623039
0.83505155 	0.0017394001 	0.00088515846 	3.2725644e-07 	0.0026178176 	-5.4484743e-07 	0.00073590481
0.84536082 	0.0017872554 	0.00091262564 	2.9171478e-09 	0.0026245264 	1.1705848e-08 	0.00056220551
0.8556701 	0.0018427259 	0.00094269574 	6.6781028e-08 	0.0026413665 	-5.3144585e-08 	0.00082716569
0.86597938 	0.0019046338 	0.00097462919 	2.8219954e-07 	0.0026641866 	-4.3589763e-08 	0.00089515907
0.87628866 	0.0019732936 	0.0010085125 	2.3608784e-08 	0.0026918679 	1.1926737e-07 	0.00029297298
0.88659794 	0.002049303 	0.0010455668 	1.0141594e-08 	0.0027314406 	2.7814811e-09 	0.0010077205
0.89690722 	0.0021323683 	0.0010844901 	4.0280022e-07 	0.0027753482 	2.1396626e-07 	0.0010911284
0.90721649 	0.0022208716 	0.0011250372 	8.3264825e-08 	0.0028237844 	5.4712869e-08 	0.0011790675
0.91752577 	0.0023137592 	0.001166084 	2.7091263e-08 	0.0028730343 	1.366102e-07 	0.00057591184
0.92783505 	0.0024087747 	0.0012068603 	3.8910288e-08 	0.0029211516 	2.1431566e-07 	0.00010591468
0.93814433 	0.0025039937 	0.0012462098 	1.8489801e-08 	0.0029651658 	1.2671629e-07 	0.00048855507
0.94845361 	0.002590972 	0.0012709693 	-4.1590297e-09 	0.0029930562 	8.7587035e-08 	0.00056194627
0.95876289 	0.0026808548 	0.0012830022 	-6.719205e-09 	0.0030040068 	-1.2347569e-07 	0.001584248
0.96907216 	0.0027480473 	0.001289048 	-3.6159891e-09 	0.0029789605 	9.2322593e-10 	0.0015115518
0.97938144 	0.0027513198 	0.001276995 	-2.6097358e-09 	0.002878477 	-1.205183e-08 	0.0016739739
0.98969072 	0.0021927947 	0.0010257153 	3.8975186e-08 	0.0022158101 	7.4238634e-08 	0.00067163462
