1.4213861e-19 	0.7438098 	-5.0515775e-14 	-1.8361147e-20
0.010869565 	0.74445226 	-0.00044800433 	4.3895344e-08
0.02173913 	0.74627813 	-0.00088819087 	2.6718355e-08
0.032608696 	0.74930598 	-0.0013239752 	9.7743322e-09
0.043478261 	0.75348358 	-0.0017490934 	1.16002e-07
0.054347826 	0.75877952 	-0.0021650835 	2.6600541e-07
0.065217391 	0.76556318 	-0.0025920858 	4.610404e-07
0.076086957 	0.77229025 	-0.0029437383 	1.5314278e-07
0.086956522 	0.78041734 	-0.0033008137 	7.9138012e-07
0.097826087 	0.78929476 	-0.0036380858 	1.1693621e-06
0.10869565 	0.79891986 	-0.0039575083 	4.1270996e-07
0.11956522 	0.80925961 	-0.0042428965 	1.5185884e-06
0.13043478 	0.82016419 	-0.0045065901 	2.3252165e-06
0.14130435 	0.83158519 	-0.0047492236 	3.192745e-07
0.15217391 	0.84368942 	-0.0049514296 	5.7072869e-06
0.16304348 	0.8559944 	-0.0051427839 	1.3512933e-07
0.17391304 	0.86903889 	-0.0052830423 	6.6262157e-06
0.18478261 	0.88215585 	-0.0054153016 	1.411157e-06
0.19565217 	0.89579526 	-0.0054982505 	8.0796551e-06
0.20652174 	0.90951185 	-0.0055756552 	1.511609e-07
0.2173913 	0.92365892 	-0.0055956073 	1.0897027e-05
0.22826087 	0.93783429 	-0.0056145813 	6.2805992e-08
0.23913043 	0.95227394 	-0.00557535 	9.7374134e-06
0.25 	0.96670786 	-0.0055274669 	3.4187302e-06
0.26086957 	0.98123563 	-0.0054452234 	3.9586316e-06
0.27173913 	0.99561522 	-0.0053368128 	1.0085692e-05
0.2826087 	1.0102097 	-0.0052174263 	4.3679188e-07
0.29347826 	1.0240047 	-0.0050715817 	9.614324e-06
0.30434783 	1.037806 	-0.0049159211 	5.185397e-06
0.31521739 	1.051498 	-0.0047414137 	1.8747622e-07
0.32608696 	1.0641093 	-0.0045611348 	1.1928365e-05
0.33695652 	1.0766659 	-0.0043784978 	2.578755e-06
0.34782609 	1.0887211 	-0.004188587 	1.6281853e-07
0.35869565 	1.0995101 	-0.0040096784 	1.0217124e-05
0.36956522 	1.1101513 	-0.0038305657 	2.6769796e-06
0.38043478 	1.1201273 	-0.0036533452 	2.8981682e-07
0.39130435 	1.1287899 	-0.0034920665 	5.789601e-06
0.40217391 	1.1370028 	-0.0033318391 	4.9639888e-06
0.41304348 	1.144692 	-0.003172587 	3.296942e-07
0.42391304 	1.1513871 	-0.0030274872 	2.0978967e-07
0.43478261 	1.1568788 	-0.0028857308 	8.602482e-06
0.44565217 	1.162305 	-0.0027439953 	3.0230649e-08
0.45652174 	1.1665252 	-0.0026057694 	3.4045356e-07
0.4673913 	1.1701113 	-0.0024782263 	2.3573276e-06
0.47826087 	1.1728298 	-0.0023511268 	5.2876017e-06
0.48913043 	1.175148 	-0.0022239198 	1.4563102e-07
0.5 	1.1765794 	-0.0020982612 	2.7637333e-07
0.51086957 	1.1776011 	-0.0019761625 	2.662858e-06
0.52173913 	1.1779628 	-0.001854944 	3.4050146e-06
0.5326087 	1.1777879 	-0.0017338687 	2.0446427e-07
0.54347826 	1.1770698 	-0.0016113533 	1.9568335e-07
0.55434783 	1.1759371 	-0.0014876065 	3.5987062e-06
0.56521739 	1.1744468 	-0.0013641422 	8.7079697e-07
0.57608696 	1.1723016 	-0.001240195 	3.2841936e-07
0.58695652 	1.1699752 	-0.0011124827 	1.62448e-08
0.59782609 	1.167074 	-0.00098529593 	3.3731206e-06
0.60869565 	1.1638854 	-0.00085808119 	1.6060127e-07
0.61956522 	1.1603041 	-0.00072809855 	1.3401872e-07
0.63043478 	1.1563267 	-0.00059724468 	3.9652929e-06
0.64130435 	1.1520297 	-0.00046759174 	8.4142702e-08
0.65217391 	1.1472854 	-0.00033651267 	1.5407685e-07
0.66304348 	1.1421542 	-0.00020376306 	3.2000743e-06
0.67391304 	1.1366742 	-7.3445144e-05 	7.496321e-08
0.68478261 	1.1307351 	5.825757e-05 	9.9266566e-08
0.69565217 	1.1243538 	0.0001899066 	2.7711673e-06
0.70652174 	1.1176051 	0.00031741598 	9.6742239e-08
0.7173913 	1.1103799 	0.00044817888 	1.0021978e-08
0.72826087 	1.1026705 	0.00057318387 	5.9500628e-07
0.73913043 	1.094521 	0.00069372922 	5.5503918e-08
0.75 	1.0857919 	0.00081555597 	2.0100157e-06
0.76086957 	1.0767039 	0.00092721464 	-2.8629765e-08
0.77173913 	1.066986 	0.0010393107 	3.4617657e-07
0.7826087 	1.0568325 	0.0011375157 	-4.5724941e-08
0.79347826 	1.0460824 	0.0012306318 	-2.8192057e-08
0.80434783 	1.0348524 	0.0013103178 	-2.0853204e-08
0.81521739 	1.0230274 	0.0013776455 	-7.4065053e-08
0.82608696 	1.0106979 	0.0014315984 	-3.9853602e-08
0.83695652 	0.99774893 	0.0014711003 	-3.7010609e-08
0.84782609 	0.98431701 	0.0014914997 	-1.8494881e-07
0.85869565 	0.9701528 	0.0014973547 	-2.1121078e-07
0.86956522 	0.95562194 	0.001479566 	-5.3045981e-07
0.88043478 	0.94010565 	0.0014453597 	-3.7926605e-07
0.89130435 	0.92401911 	0.0013885376 	-6.4693611e-08
0.90217391 	0.90718836 	0.0013033957 	-4.9849097e-07
0.91304348 	0.88913398 	0.0011970639 	-3.3956713e-07
0.92391304 	0.87006942 	0.0010738882 	-9.2846394e-07
0.93478261 	0.84954982 	0.00092805188 	-2.028041e-08
0.94565217 	0.82486159 	0.00074855948 	-1.1527019e-06
0.95652174 	0.7965393 	0.00056770927 	-3.1946882e-07
0.9673913 	0.75890803 	0.00037571706 	-1.0972511e-08
0.97826087 	0.69969909 	0.00019561473 	-1.2439633e-07
0.98913043 	0.55595731 	2.7210465e-05 	-3.7742583e-08
