0.37113402 	0.0021700216 	-0.00080038935 	-2.2601017e-06 	0.0017097721 	3.8976355e-06 	0.0014888611
0.3814433 	0.0029224591 	-0.0011747694 	-1.89226e-06 	0.0022906035 	3.6748586e-06 	0.00093862856
0.39175258 	0.0016901402 	-0.00044567985 	-4.5238527e-07 	0.0017767028 	-6.7822273e-07 	0.00098534632
0.40206186 	0.0015300113 	-9.808768e-05 	-2.5610861e-07 	0.0022944471 	-5.6848998e-07 	0.00082565858
0.41237113 	0.0014567234 	0.00013879936 	-7.6917424e-07 	0.0025131144 	-1.6594195e-06 	0.00014049237
0.42268041 	0.0014375085 	0.00024848415 	-2.0744529e-08 	0.0025483583 	-2.5019782e-07 	0.00057372198
0.43298969 	0.0014320759 	0.0002871012 	6.0001962e-08 	0.0025533459 	-1.6998846e-07 	0.00061808711
0.44329897 	0.0014278364 	0.0003065296 	5.2622724e-08 	0.0025569211 	-3.1482359e-07 	0.00051061574
0.45360825 	0.0014247806 	0.00032280123 	4.3125693e-08 	0.0025617694 	-2.8220489e-07 	0.00040743786
0.46391753 	0.0014233191 	0.00033897078 	1.3817131e-08 	0.0025686009 	-8.2275255e-08 	0.00030815077
0.4742268 	0.0014235777 	0.0003554217 	9.264994e-08 	0.0025766552 	-1.8990479e-07 	5.4492076e-05
0.48453608 	0.0014254156 	0.00037202052 	9.2572537e-08 	0.0025881344 	-5.1629305e-07 	0.00011719941
0.49484536 	0.0014281781 	0.00038852836 	2.034745e-07 	0.0025998628 	-1.1055345e-06 	2.8384374e-05
0.50515464 	0.001431585 	0.00040497092 	5.4514295e-08 	0.0026125864 	-3.0337889e-07 	7.162375e-05
0.51546392 	0.0014356068 	0.00042115004 	7.0824752e-08 	0.002625934 	-3.9414862e-07 	0.00015596917
0.5257732 	0.0014400046 	0.0004370001 	1.4565542e-07 	0.0026390897 	-8.6752475e-07 	0.00024022573
0.53608247 	0.0014445778 	0.00045251002 	1.5271164e-07 	0.0026508796 	-3.1266758e-07 	9.9767943e-06
0.54639175 	0.0014491327 	0.00046766478 	1.3314029e-07 	0.0026645455 	-8.9348285e-07 	0.00039513078
0.55670103 	0.0014537743 	0.00048233408 	8.6312106e-08 	0.002675759 	-1.7960018e-07 	0.00028568611
0.56701031 	0.001458123 	0.00049663701 	8.3329568e-08 	0.0026875809 	-6.6288617e-07 	0.00053609816
0.57731959 	0.0014625121 	0.00051038771 	1.1676985e-07 	0.0026968413 	-2.4857415e-07 	0.00033552808
0.58762887 	0.0014665263 	0.00052403837 	7.2052493e-08 	0.0027070717 	-6.868981e-07 	0.00066300306
0.59793814 	0.0014705765 	0.00053703784 	2.1876591e-07 	0.0027132405 	-4.7983267e-07 	0.00017191051
0.60824742 	0.0014742211 	0.00055020773 	8.5376811e-08 	0.0027221149 	-9.7383938e-07 	0.00077596306
0.6185567 	0.0014779197 	0.00056279427 	2.1962383e-07 	0.0027256993 	-5.0003381e-07 	0.0002145106
0.62886598 	0.001481305 	0.00057547446 	2.572398e-08 	0.0027321454 	-3.3901078e-07 	0.00087544348
0.63917526 	0.001484688 	0.00058811318 	3.4831869e-08 	0.0027348338 	-8.2921777e-08 	0.00079944302
0.64948454 	0.0014881437 	0.00060024646 	1.4227332e-07 	0.0027347582 	-3.3870006e-07 	0.00051255259
0.65979381 	0.0014914337 	0.00061274745 	5.6813935e-08 	0.0027362194 	-8.5702097e-07 	0.00098235735
0.67010309 	0.0014951284 	0.00062480176 	2.0405101e-07 	0.0027319014 	-5.0937389e-07 	0.00029415638
0.68041237 	0.0014987452 	0.0006374983 	1.0413617e-08 	0.0027310848 	-2.5995579e-08 	0.0010087702
0.69072165 	0.0015028072 	0.00065027684 	8.1398098e-09 	0.0027265643 	-1.1923326e-07 	0.0010562643
0.70103093 	0.0015077511 	0.0006624282 	2.1772558e-07 	0.0027171008 	-5.6762951e-07 	0.00020420449
0.71134021 	0.0015129163 	0.00067619359 	6.4869365e-08 	0.0027122039 	-7.9666382e-07 	0.0010964579
0.72164948 	0.0015194148 	0.00068939623 	1.3701107e-07 	0.0027013291 	-3.6746313e-07 	0.00047216486
0.73195876 	0.0015266292 	0.00070346412 	1.2095535e-08 	0.0026929817 	-3.2440175e-08 	0.0010656584
0.74226804 	0.0015354705 	0.00071806603 	2.3478096e-08 	0.0026818201 	-6.2832726e-08 	0.00099429191
0.75257732 	0.0015465061 	0.00073281652 	9.0876156e-08 	0.0026693238 	-2.4320527e-07 	0.00065078582
0.7628866 	0.0015589275 	0.00074890079 	3.4021163e-08 	0.0026588718 	-2.6856562e-07 	0.0011237581
0.77319588 	0.0015747607 	0.00076507422 	1.176001e-07 	0.0026459185 	-3.0018377e-07 	0.00043151555
0.78350515 	0.0015925854 	0.00078294429 	6.4925442e-08 	0.0026371671 	-3.8168666e-07 	0.0011217237
0.79381443 	0.0016147018 	0.00080115592 	1.0140841e-07 	0.0026270312 	-2.3225634e-07 	0.00045786235
0.80412371 	0.0016397805 	0.00082124224 	5.345013e-08 	0.0026220272 	-2.2072373e-07 	0.0011126917
0.81443299 	0.0016702088 	0.0008422551 	4.6095639e-08 	0.0026185278 	-8.7712688e-08 	0.00078964388
0.82474227 	0.0017048041 	0.00086508214 	2.0430211e-08 	0.0026195073 	-2.9462477e-08 	0.00094641494
0.83505155 	0.0017460041 	0.00088989773 	1.0386556e-07 	0.0026265636 	-1.5800446e-07 	0.0011082712
0.84536082 	0.001792725 	0.00091606807 	1.2316994e-07 	0.0026357944 	-1.2040772e-07 	0.00011868365
0.8556701 	0.0018463039 	0.00094566575 	1.5061167e-07 	0.0026566764 	-1.0091373e-07 	0.0010899031
0.86597938 	0.0019070808 	0.00097720986 	7.3929817e-08 	0.0026823733 	-5.5481407e-09 	0.0011005955
0.87628866 	0.0019745202 	0.00101055 	1.208559e-07 	0.0027117576 	-3.0088635e-08 	5.4482154e-06
0.88659794 	0.0020495606 	0.0010477218 	2.9727627e-08 	0.0027537961 	9.3807035e-09 	0.0010758969
0.89690722 	0.0021313819 	0.0010864841 	3.5437274e-07 	0.0027994599 	1.9462094e-07 	0.001082396
0.90721649 	0.002217637 	0.0011264505 	2.0942254e-07 	0.0028487391 	1.3723221e-07 	0.001085053
0.91752577 	0.0023067831 	0.0011667774 	3.9652521e-08 	0.0028993361 	2.4216726e-08 	0.0010820626
0.92783505 	0.0023969439 	0.0012061787 	7.7531084e-09 	0.0029464059 	-2.8606775e-09 	0.00091391343
0.93814433 	0.0024890445 	0.0012392187 	1.1302777e-09 	0.0029833854 	-6.388199e-09 	0.00091768043
0.94845361 	0.0025833074 	0.0012628536 	-3.8679314e-09 	0.0030045464 	-5.0970226e-08 	0.0010314485
0.95876289 	0.0026766091 	0.0012739101 	1.1642961e-08 	0.0030083709 	-2.4289053e-07 	0.00099944824
0.96907216 	0.0027797642 	0.0013035567 	1.4477388e-07 	0.0030050059 	-2.3173022e-07 	0.00097305265
0.97938144 	0.0028927823 	0.0013535772 	1.9798858e-07 	0.0030056082 	2.9310597e-07 	0.00010429786
0.98969072 	0.0025946296 	0.0012127933 	-1.3001393e-06 	0.0026150074 	-2.8683699e-06 	0.00082563024
