0.17894737 	0.55864527 	0.25905318 	-0.0013885054
0.18947368 	1.1287464 	0.46906244 	-4.3262467e-05
0.2 	1.1212039 	0.42954474 	-7.577401e-05
0.21052632 	1.1220514 	0.3981399 	-0.00027895137
0.22105263 	1.1259268 	0.37098449 	-0.00011452664
0.23157895 	1.1308444 	0.34673736 	-0.00042671345
0.24210526 	1.1357796 	0.32550168 	-0.00039889982
0.25263158 	1.1403736 	0.30646774 	-0.00047888131
0.26315789 	1.1444947 	0.2891792 	-0.00029301263
0.27368421 	1.1478916 	0.27309248 	-0.00012278281
0.28421053 	1.1510847 	0.2574447 	-0.00034121401
0.29473684 	1.1549278 	0.24602466 	-1.1846073e-05
0.30526316 	1.1568109 	0.23369436 	-0.00011309335
0.31578947 	1.1587346 	0.22037785 	-0.00035498462
0.32631579 	1.160816 	0.21270809 	-2.7993854e-05
0.33684211 	1.1621327 	0.20129389 	-0.0001312323
0.34736842 	1.1631975 	0.19299753 	-3.833271e-05
0.35789474 	1.1641875 	0.18461563 	-1.7867324e-05
0.36842105 	1.1646237 	0.1762726 	-1.6732835e-05
0.37894737 	1.1650693 	0.16925466 	-6.2038007e-05
0.38947368 	1.1649598 	0.16197726 	-6.3237479e-07
0.4 	1.1650514 	0.1553935 	-0.00010079075
0.41052632 	1.1645366 	0.14905919 	-0.00010154122
0.42105263 	1.1642201 	0.14301975 	-7.3393131e-05
0.43157895 	1.163378 	0.13739138 	-0.00026350311
0.44210526 	1.1626366 	0.13184312 	3.6664368e-07
0.45263158 	1.1614683 	0.12687379 	-0.00037692758
0.46315789 	1.1603013 	0.12189095 	-0.00012255283
0.47368421 	1.1589097 	0.11722789 	-0.00017845217
0.48421053 	1.1574285 	0.1127835 	-0.00026438848
0.49473684 	1.1558964 	0.10815407 	2.4812454e-06
0.50526316 	1.1540306 	0.10436703 	-0.00020456711
0.51578947 	1.1522494 	0.10044537 	-0.00014389168
0.52631579 	1.1502964 	0.096377642 	5.3778227e-06
0.53684211 	1.1481413 	0.093034387 	-0.00017940348
0.54736842 	1.1460698 	0.089572386 	-9.8904064e-05
0.55789474 	1.1438559 	0.085842862 	1.2611333e-05
0.56842105 	1.1413744 	0.082973514 	-0.00011855305
0.57894737 	1.1390463 	0.079960947 	-0.0001070453
0.58947368 	1.1366924 	0.076663681 	1.7562821e-05
0.6 	1.1338147 	0.073989274 	-4.6614394e-05
0.61052632 	1.1311731 	0.071299884 	-0.00012276339
0.62105263 	1.1285503 	0.068482293 	1.0901434e-05
0.63157895 	1.1253908 	0.06586249 	-4.1709866e-06
0.64210526 	1.1223605 	0.0633802 	-0.00011449336
0.65263158 	1.1193674 	0.060799686 	9.8976305e-06
0.66315789 	1.1158835 	0.058381797 	-5.0920603e-06
0.67368421 	1.112481 	0.056091964 	-8.286751e-05
0.68421053 	1.1091505 	0.053648531 	1.6125195e-05
0.69473684 	1.1051911 	0.051488881 	-3.4218549e-05
0.70526316 	1.1013822 	0.049350446 	-3.5884656e-05
0.71578947 	1.0975106 	0.04705834 	1.3954227e-05
0.72631579 	1.0930884 	0.045084464 	-8.2048549e-05
0.73684211 	1.0888678 	0.042996205 	8.2260617e-06
0.74736842 	1.084053 	0.041009628 	-3.2238565e-05
0.75789474 	1.0792607 	0.039091659 	-1.5537921e-05
0.76842105 	1.0740905 	0.037111913 	-5.6427319e-06
0.77894737 	1.068681 	0.035274054 	-3.3491982e-05
0.78947368 	1.0629764 	0.033369729 	1.5083607e-06
0.8 	1.0568227 	0.031601235 	-3.6143237e-05
0.81052632 	1.0503444 	0.029775733 	-1.1034059e-06
0.82105263 	1.0433656 	0.028056324 	-2.6708869e-05
0.83157895 	1.0358863 	0.026296555 	-1.6437396e-05
0.84210526 	1.0279373 	0.024620842 	-7.4520884e-06
0.85263158 	1.0191605 	0.022921319 	-4.063591e-05
0.86315789 	1.010053 	0.021232435 	4.289007e-06
0.87368421 	0.99963933 	0.019622997 	-2.4431611e-05
0.88421053 	0.98846955 	0.017979843 	-3.068915e-05
0.89473684 	0.97643748 	0.016352509 	4.9383191e-07
0.90526316 	0.96284507 	0.014762346 	-8.6135665e-06
0.91578947 	0.94757291 	0.013148913 	-2.81477e-05
0.92631579 	0.93041315 	0.011538455 	-3.4161679e-05
0.93684211 	0.91121795 	0.0099630412 	-2.1443157e-05
0.94736842 	0.88861887 	0.0083738159 	-2.0463881e-05
0.95789474 	0.85912505 	0.0066504409 	-3.2234507e-06
0.96842105 	0.82009989 	0.0049407588 	-8.9025314e-06
0.97894737 	0.75883948 	0.0031583763 	-2.1264759e-06
0.98947368 	0.60878928 	0.0012403798 	-6.4568473e-06
