0.4742268 	0.0012886962 	-0.00047963248 	9.5759126e-09 	0.0012878974 	-2.1948862e-08 	0.00038009768
0.48453608 	0.0064447425 	-0.0029582369 	2.2130009e-09 	0.0064233825 	-3.1412103e-09 	0.0022084525
0.49484536 	0.0059968459 	-0.0027658831 	1.7546001e-06 	0.0059562546 	-4.131278e-06 	0.0022609888
0.50515464 	0.0050236301 	-0.0023222138 	-7.9797024e-11 	0.004965861 	1.7333865e-10 	0.0019707158
0.51546392 	0.003891906 	-0.0017946145 	1.3365029e-06 	0.0038296128 	-2.8694208e-06 	0.0013871802
0.5257732 	0.002848727 	-0.0012955593 	4.8953138e-06 	0.0027913706 	-9.3177175e-06 	0.0010721483
0.53608247 	0.00214523 	-0.00087302805 	1.6778758e-06 	0.0021033153 	-2.4662929e-06 	0.00083217668
0.54639175 	0.0017799782 	-0.00056298876 	2.8125682e-07 	0.0017541394 	-3.0071107e-07 	0.00068633038
0.55670103 	0.0016376716 	-0.00034881767 	1.3870252e-07 	0.0016243834 	-8.4055556e-08 	0.00061942534
0.56701031 	0.0016002391 	-0.00017439129 	5.7962436e-07 	0.0016006228 	-1.3236505e-07 	0.00059891776
0.57731959 	0.0016040215 	-2.8064389e-05 	1.2991174e-06 	0.0016168855 	-4.7530431e-08 	0.00060014938
0.58762887 	0.0016243172 	9.6193723e-05 	1.6480398e-06 	0.0016481525 	1.0138134e-07 	0.00061115266
0.59793814 	0.0016517898 	0.00020446077 	3.2929915e-07 	0.0016855829 	3.6976658e-08 	0.00062694967
0.60824742 	0.0016829476 	0.00029932059 	-1.4096555e-07 	0.0017243585 	-8.8604202e-08 	2.2711553e-05
0.6185567 	0.0017144161 	0.00038163064 	4.6373919e-07 	0.001764561 	6.0854234e-08 	0.00064542948
0.62886598 	0.0017460769 	0.00045541939 	8.137154e-07 	0.0018028448 	1.0104405e-07 	0.00066516909
0.63917526 	0.0017772875 	0.00052211967 	-8.4714051e-08 	0.0018388939 	-6.4909998e-08 	0.00016628503
0.64948454 	0.0018066512 	0.00058006088 	5.112934e-07 	0.0018740719 	4.5504808e-08 	0.00068545381
0.65979381 	0.0018352704 	0.00063302059 	1.9441374e-07 	0.0019068855 	3.7197528e-09 	0.00070556013
0.67010309 	0.0018623502 	0.00068011398 	-7.5411995e-09 	0.0019372527 	-6.2951377e-09 	0.00063512117
0.68041237 	0.0018882067 	0.00072193409 	4.371734e-07 	0.0019659152 	-4.0656881e-08 	0.00072529874
0.69072165 	0.0019132591 	0.00076040104 	-3.0485525e-08 	0.0019923269 	-2.5411817e-08 	0.00033084988
0.70103093 	0.0019371483 	0.00079447995 	4.2124092e-07 	0.0020183998 	-1.0390231e-07 	0.00074466574
0.71134021 	0.0019608882 	0.00082627627 	-2.1168952e-08 	0.002042266 	-1.6308882e-08 	0.00031241117
0.72164948 	0.0019840183 	0.00085470888 	2.8182797e-07 	0.0020665727 	-1.2736693e-07 	0.00076420516
0.73195876 	0.002007156 	0.00088122534 	-4.7114805e-09 	0.0020892147 	-2.2209609e-09 	0.00056427456
0.74226804 	0.0020314163 	0.00090620566 	1.4313367e-07 	0.0021132229 	-7.683425e-08 	0.00078442916
0.75257732 	0.0020558661 	0.00092959427 	1.5739686e-08 	0.0021367505 	-8.4490739e-09 	0.00078447401
0.7628866 	0.0020825894 	0.00095229794 	7.3874839e-08 	0.0021622285 	-2.344731e-08 	0.0008053619
0.77319588 	0.0021106088 	0.00097409397 	2.2160403e-08 	0.0021885876 	-7.0335428e-09 	0.00080541215
0.78350515 	0.0021414689 	0.00099572782 	8.8052215e-08 	0.0022173583 	1.0338848e-08 	0.00082750938
0.79381443 	0.0021743804 	0.001018106 	2.9399619e-09 	0.0022474577 	6.153019e-09 	0.00070382261
0.80412371 	0.0022116379 	0.0010413111 	1.3513985e-07 	0.0022817925 	1.051945e-07 	0.00085168427
0.81443299 	0.0022515702 	0.0010617145 	2.4094332e-08 	0.0023166981 	4.8744451e-08 	0.00010339079
0.82474227 	0.0022976164 	0.0010826241 	1.1589776e-07 	0.0023599975 	2.0468772e-07 	0.00087822729
0.83505155 	0.0023481657 	0.0011051949 	2.5361961e-08 	0.0024059271 	4.7495337e-08 	0.00090796332
0.84536082 	0.0024052521 	0.0011305252 	1.6258432e-08 	0.0024571878 	3.3478298e-08 	0.00058047648
0.8556701 	0.0024714484 	0.001160257 	2.4009937e-07 	0.0025183254 	4.6667061e-07 	0.00094160503
0.86597938 	0.0025467753 	0.0011939556 	1.5791599e-07 	0.0025874857 	3.1361503e-07 	0.00097985349
0.87628866 	0.0026351472 	0.0012331603 	5.1435566e-08 	0.002667366 	1.0601001e-07 	0.00034868897
0.88659794 	0.0027433195 	0.0012815941 	3.3575516e-08 	0.002767246 	6.9406453e-08 	0.00069426716
0.89690722 	0.0028800655 	0.0013428217 	1.9620422e-07 	0.0028937265 	3.9851543e-07 	0.0010795056
0.90721649 	0.0030565256 	0.0014219153 	5.5531588e-07 	0.0030575406 	1.1421611e-06 	0.0011474334
0.91752577 	0.0032863404 	0.0015255927 	8.559389e-07 	0.0032739519 	1.7832001e-06 	0.0012326819
0.92783505 	0.0035846386 	0.0016613009 	8.680086e-07 	0.0035597775 	1.8290673e-06 	0.0013378013
0.93814433 	0.0039588369 	0.0018330365 	2.9552193e-07 	0.0039246703 	6.2859373e-07 	0.0014616692
0.94845361 	0.0043964794 	0.0020351111 	2.103632e-07 	0.004356497 	4.5581089e-07 	0.00026468967
0.95876289 	0.004852102 	0.0022484897 	5.5911611e-07 	0.004818669 	1.2139314e-06 	0.001861021
0.96907216 	0.0052513619 	0.0024291893 	8.0524922e-08 	0.0052247432 	2.0070655e-07 	0.00067952168
0.97938144 	0.005489602 	0.0025177786 	4.0654021e-09 	0.0054753164 	5.8586481e-08 	0.0020740255
0.98969072 	0.0048221644 	0.0022253157 	-9.9079451e-07 	0.0048190319 	-2.260468e-06 	0.0018644254
