0.47777778 	0.0048848297 	-0.0022636017 	2.4526475e-08 	0.0048713625 	-5.1638333e-08 	0.00037487429
0.48888889 	0.0063983334 	-0.0029178009 	1.6135387e-09 	0.0063889008 	7.7576812e-10 	0.0035452947
0.5 	0.0061138711 	-0.0027947344 	-1.2229535e-08 	0.0061000626 	3.4330826e-08 	0.0034473288
0.51111111 	0.0056400577 	-0.0026027316 	-2.3708425e-08 	0.0056209642 	6.0821859e-08 	0.003593019
0.52222222 	0.0050945427 	-0.0023576406 	-8.8798063e-08 	0.0050671788 	2.0969781e-07 	0.001087359
0.53333333 	0.0045289011 	-0.0020993464 	-2.1210827e-08 	0.0045014324 	4.6325812e-08 	0.0035568515
0.54444444 	0.0039321049 	-0.0018211341 	-2.4917289e-08 	0.0039024321 	5.3989035e-08 	0.003280993
0.55555556 	0.0033403596 	-0.0015451079 	-9.5337891e-08 	0.0033072041 	2.0662817e-07 	0.002150639
0.56666667 	0.0028161818 	-0.001290227 	-1.2735784e-07 	0.0027823146 	2.3166949e-07 	0.0016942955
0.57777778 	0.0023843691 	-0.0010334742 	-9.8857432e-08 	0.0023551766 	1.4472685e-07 	0.001645896
0.58888889 	0.00204734 	-0.00079592244 	-7.9607924e-09 	0.0020249563 	9.5494953e-09 	0.0018184475
0.6 	0.0018155854 	-0.00058938539 	-4.3165764e-08 	0.0017989725 	5.178018e-08 	0.0014205766
0.61111111 	0.0016745745 	-0.00041452243 	-1.821816e-07 	0.0016638401 	1.4755305e-07 	0.00065196443
0.62222222 	0.0015968278 	-0.00025703626 	-2.6688807e-07 	0.0015925278 	1.0453029e-07 	0.00012511073
0.63333333 	0.0015633838 	-0.00011526881 	-7.1749709e-08 	0.0015678325 	4.0386625e-09 	0.0010183111
0.64444444 	0.0015665631 	1.5709016e-05 	-5.4015008e-08 	0.0015776851 	3.0404079e-09 	0.0011228971
0.65555556 	0.001592409 	0.00013548126 	-2.0136786e-07 	0.0016069461 	-3.484789e-08 	7.0760956e-05
0.66666667 	0.0016267416 	0.00024410371 	-3.3742877e-08 	0.0016480798 	-1.0877048e-08 	0.0011722162
0.67777778 	0.0016753341 	0.00034491671 	-7.7780256e-08 	0.0016999693 	-2.507254e-08 	0.0008220186
0.68888889 	0.001730862 	0.00043941882 	-7.1667525e-08 	0.0017583875 	-2.7122708e-08 	0.00061924964
0.7 	0.0017906179 	0.00052784872 	-2.2224763e-08 	0.0018222602 	-8.4110028e-09 	0.0013426194
0.71111111 	0.001861008 	0.00061269302 	-5.7030746e-08 	0.0018923371 	-1.235867e-08 	0.00032814653
0.72222222 	0.0019305964 	0.00069267326 	-5.592966e-09 	0.0019656908 	-1.2120063e-09 	0.0016366054
0.73333333 	0.0020114057 	0.00076947126 	-1.6756619e-08 	0.0020444427 	2.9134755e-08 	0.00030063475
0.74444444 	0.0020936417 	0.00084625157 	-1.2493671e-09 	0.0021299612 	2.1722762e-09 	0.0018069217
0.75555556 	0.0021855208 	0.00091784331 	2.6786291e-08 	0.0022184164 	8.7285153e-08 	0.00029392522
0.76666667 	0.0022836104 	0.00099352517 	5.3917644e-08 	0.0023192525 	5.93455e-08 	0.0020936449
0.77777778 	0.0023928076 	0.0010713187 	8.6586836e-08 	0.0024216806 	1.787864e-07 	3.76568e-05
0.78888889 	0.0025114367 	0.0011541933 	1.1054527e-08 	0.0025409089 	2.1991134e-08 	0.0020911528
0.8 	0.0026455512 	0.0012280457 	8.3739934e-08 	0.0026682987 	1.665866e-07 	0.0009498334
0.81111111 	0.0027960187 	0.0013041348 	9.4767216e-08 	0.0028141802 	1.9837678e-07 	0.0011372292
0.82222222 	0.0029646668 	0.0013819601 	5.5268368e-09 	0.002980246 	1.1569361e-08 	0.0026273169
0.83333333 	0.0031600484 	0.0014706211 	1.6346746e-07 	0.0031659773 	3.4581402e-07 	0.00073441943
0.84444444 	0.0033746626 	0.001569319 	1.5077381e-07 	0.0033756626 	3.2143045e-07 	0.0011748599
0.85555556 	0.0036085439 	0.001677777 	1.3257081e-08 	0.0036081378 	2.8444971e-08 	0.0030946866
0.86666667 	0.003855987 	0.0017919067 	5.8939743e-08 	0.0038515553 	1.2646369e-07 	0.0027544101
0.87777778 	0.004109333 	0.0019087056 	1.5853755e-07 	0.00410056 	3.4203316e-07 	0.0015185116
0.88888889 	0.0043644435 	0.0020267368 	2.1588871e-07 	0.0043531053 	4.6814666e-07 	0.00051616586
0.9 	0.0046163951 	0.0021439312 	2.1787593e-07 	0.0046052957 	4.7486847e-07 	8.5919555e-05
0.91111111 	0.0048606784 	0.0022579931 	1.9136448e-07 	0.0048515647 	4.181189e-07 	8.7134747e-05
0.92222222 	0.0050959236 	0.0023679216 	1.3797308e-07 	0.0050896567 	3.1534183e-07 	0.00071101279
0.93333333 	0.0053229078 	0.0024609637 	6.1709439e-08 	0.0053217356 	1.5914501e-07 	0.0024906511
0.94444444 	0.0055413921 	0.0025479377 	6.8223428e-08 	0.0055466824 	1.8794596e-07 	0.0050376502
0.95555556 	0.0057366987 	0.0026243963 	5.7634596e-08 	0.0057330991 	1.5006989e-07 	0.0014969368
0.96666667 	0.0058838053 	0.0026695957 	2.0186367e-09 	0.0058879234 	5.2288316e-09 	0.0051671883
0.97777778 	0.0058986835 	0.002673565 	2.1735496e-08 	0.005896495 	5.4309344e-08 	0.0030092551
0.98888889 	0.0051840061 	0.002378929 	1.2446651e-08 	0.0051864095 	2.8649439e-08 	0.0031235016
