1.4270237e-19 	0.0042523497 	-2.8879952e-16 	-1.0497041e-22 	5.1858958e-19 	2.9281191e-33 	5.2540809e-19
0.010869565 	0.0042623089 	-0.00020954488 	2.0812449e-08 	0.0047186518 	-6.8217017e-06 	0.0027747983
0.02173913 	0.0043018716 	-0.00041681298 	1.0877353e-08 	0.0047555042 	-8.1598519e-06 	0.0025773602
0.032608696 	0.0043662561 	-0.00062107935 	9.9711999e-09 	0.0048152807 	-2.6487548e-06 	0.0023923858
0.043478261 	0.0044524891 	-0.00081927539 	6.0964718e-08 	0.0048951445 	-6.1502746e-06 	0.0022273631
0.054347826 	0.0045576116 	-0.0010115244 	4.9928214e-08 	0.0049911332 	-1.1778288e-07 	0.00155481
0.065217391 	0.0046864799 	-0.0012078811 	1.5773034e-07 	0.0051075206 	-3.4553328e-07 	0.00050655829
0.076086957 	0.0048047723 	-0.0013668338 	1.2403022e-08 	0.0052172142 	-2.5492567e-08 	0.0016251244
0.086956522 	0.0049384943 	-0.0015295676 	4.4862308e-07 	0.005337322 	-7.6816588e-06 	0.0015734849
0.097826087 	0.0050728253 	-0.0016828814 	5.4256979e-07 	0.0054561999 	-6.2300795e-06 	0.0014221742
0.10869565 	0.0052064688 	-0.0018274458 	1.5970863e-07 	0.0055705307 	-3.0278136e-07 	0.00017347461
0.11956522 	0.0053289854 	-0.0019557278 	8.1337672e-07 	0.0056759262 	-6.6318048e-06 	0.0010705009
0.13043478 	0.005442979 	-0.0020743423 	1.0236221e-06 	0.005769287 	-6.248015e-06 	0.00090719566
0.14130435 	0.0055461819 	-0.002182272 	2.3400371e-07 	0.0058503303 	-1.4283188e-06 	0.00071936355
0.15217391 	0.0056263861 	-0.0022719757 	2.6201476e-06 	0.0059066429 	-1.2580733e-05 	0.00055263733
0.16304348 	0.005699372 	-0.0023562562 	3.2759468e-08 	0.0059547305 	-5.7303577e-08 	0.00017323311
0.17391304 	0.0057358298 	-0.0024159532 	3.2702072e-06 	0.0059655045 	-1.2913807e-05 	0.00020683894
0.18478261 	0.0057665755 	-0.002472068 	5.3541984e-07 	0.0059700189 	-1.805058e-06 	3.7841066e-05
0.19565217 	0.0057566909 	-0.0025029438 	4.1787063e-06 	0.0059337916 	-1.408765e-05 	0.00014399905
0.20652174 	0.0057443555 	-0.0025323588 	2.6473943e-10 	0.0058951654 	-4.2580696e-10 	0.00029499582
0.2173913 	0.0056812569 	-0.0025312758 	5.7032807e-06 	0.0058063567 	-1.689986e-05 	0.00043997836
0.22826087 	0.0056181488 	-0.0025301869 	2.6090826e-07 	0.0057175349 	-7.7311871e-07 	0.00058320516
0.23913043 	0.0055068153 	-0.002500047 	4.7885054e-06 	0.0055821207 	-1.2736583e-05 	0.00068413142
0.25 	0.0053867176 	-0.0024645242 	2.1911888e-06 	0.0054385225 	-5.8281773e-06 	0.00080846484
0.26086957 	0.0052396359 	-0.0024120873 	2.0617413e-06 	0.0052695356 	-4.9811087e-06 	0.00085878528
0.27173913 	0.0050651119 	-0.0023416733 	5.7600631e-06 	0.0050757636 	-1.391615e-05 	0.00096219621
0.2826087 	0.0048832175 	-0.0022664332 	5.320024e-08 	0.0048734821 	-6.106201e-08 	0.00026986707
0.29347826 	0.0046735165 	-0.0021704242 	5.230709e-06 	0.0046509864 	-1.1553124e-05 	0.0010316212
0.30434783 	0.0044570717 	-0.0020690462 	3.5092772e-06 	0.0044215322 	-7.7509789e-06 	0.0011132348
0.31521739 	0.0042288197 	-0.0019581504 	1.1571157e-08 	0.0041810766 	-7.0551317e-09 	0.00057752828
0.32608696 	0.0039969468 	-0.0018387599 	6.7610824e-06 	0.0039435616 	-1.3731032e-05 	0.00107677
0.33695652 	0.0037634884 	-0.0017175 	2.2735149e-06 	0.0037041387 	-4.6172645e-06 	0.0011374473
0.34782609 	0.0035271528 	-0.0015899658 	-8.9852813e-09 	0.0034633438 	1.2972214e-08 	0.0005976121
0.35869565 	0.0033086258 	-0.0014659951 	6.0873115e-06 	0.0032447148 	-1.1381918e-05 	0.0010195363
0.36956522 	0.0030914245 	-0.0013414424 	2.3884732e-06 	0.0030270278 	-4.4659134e-06 	0.0010620695
0.38043478 	0.0028821507 	-0.0012161939 	-3.2899996e-08 	0.00281712 	2.110353e-08 	0.00024156362
0.39130435 	0.0027022913 	-0.0011018996 	3.628387e-06 	0.0026400873 	-6.127887e-06 	0.00090927019
0.40217391 	0.0025309051 	-0.00098863516 	3.5912217e-06 	0.0024704116 	-6.0651195e-06 	0.00093783813
0.41304348 	0.0023687528 	-0.00087668291 	-2.1861369e-08 	0.0023089037 	-1.0766986e-08 	0.0003231962
0.42391304 	0.002232925 	-0.00077530389 	5.0750482e-07 	0.0021757233 	-7.1583405e-07 	0.00080080355
0.43478261 	0.0021233911 	-0.00067872848 	5.2724564e-06 	0.0020672703 	-7.4367842e-06 	0.00081981289
0.44565217 	0.0020138572 	-0.00058215308 	4.5142297e-07 	0.0019588173 	-6.3673077e-07 	0.00083882223
0.45652174 	0.0019322557 	-0.00049101101 	-3.1485022e-09 	0.0018762785 	-4.346007e-08 	0.00018186891
0.4673913 	0.0018696456 	-0.00040697588 	1.58899e-06 	0.001814529 	-1.4995086e-06 	0.00075143487
0.47826087 	0.0018245201 	-0.00032293404 	3.2999944e-06 	0.0017685969 	-3.1141606e-06 	0.0007645847
0.48913043 	0.0017840372 	-0.00023902405 	4.8229074e-09 	0.0017268586 	-1.2129555e-08 	0.00063087443
0.5 	0.0017692574 	-0.0001566782 	1.5747356e-08 	0.0017095075 	-3.9604412e-08 	0.00029949794
0.51086957 	0.0017661894 	-7.5461209e-05 	1.745695e-06 	0.0017050567 	-6.109173e-07 	0.00077191604
0.52173913 	0.0017760606 	6.3534156e-06 	2.312031e-06 	0.0017122951 	-8.0911026e-07 	0.00078187396
0.5326087 	0.001794394 	8.8349206e-05 	1.9855906e-08 	0.0017271434 	-1.5940136e-08 	0.00048121492
0.54347826 	0.0018297921 	0.00017209374 	2.2241561e-08 	0.0017590307 	-1.7855317e-08 	0.00048461236
0.55434783 	0.0018771811 	0.00025728243 	2.2502446e-06 	0.001803426 	4.1718622e-07 	0.00086545404
0.56521739 	0.0019312775 	0.00034241033 	9.8909072e-07 	0.0018537619 	1.833734e-07 	0.00087372985
0.57608696 	0.0019979441 	0.00042709236 	5.7794591e-08 	0.0019151209 	-8.5568226e-10 	0.00014073787
0.58695652 	0.0020728637 	0.00051479843 	1.9150688e-07 	0.0019875275 	1.1625853e-07 	0.0010053354
0.59782609 	0.0021607236 	0.00060211401 	2.2624056e-06 	0.0020716545 	1.3734439e-06 	0.0010125691
0.60869565 	0.0022524451 	0.00068906004 	2.9641732e-08 	0.0021590356 	1.6003709e-08 	0.0006317105
0.61956522 	0.002354985 	0.00077745816 	2.7479267e-08 	0.0022583882 	1.4836184e-08 	0.00076865492
0.63043478 	0.0024663275 	0.00086673465 	2.3937974e-06 	0.0023675532 	2.2778365e-06 	0.0011903942
0.64130435 	0.0025812565 	0.00095524595 	1.2433927e-08 	0.002479461 	1.2668513e-08 	0.001003079
0.65217391 	0.0027056366 	0.0010439869 	3.9384331e-08 	0.0026011222 	4.0127378e-08 	0.00067900609
0.66304348 	0.0028370825 	0.001134214 	1.956643e-06 	0.0027323239 	2.4299992e-06 	0.0013927812
0.67391304 	0.0029714063 	0.0012228505 	1.2890793e-08 	0.0028650369 	2.011728e-08 	0.0011141852
0.68478261 	0.0031130615 	0.0013117031 	2.4700709e-08 	0.0030060563 	3.8547748e-08 	0.00098071849
0.69565217 	0.0032597496 	0.0014002337 	1.7746906e-06 	0.0031543622 	2.6803247e-06 	0.001608061
0.70652174 	0.0034074989 	0.0014857123 	1.9119274e-08 	0.0033016267 	5.1702677e-08 	0.00075417179
0.7173913 	0.0035616053 	0.0015726996 	7.99099e-08 	0.0034595797 	1.4214986e-07 	0.0018208058
0.72826087 	0.0037147908 	0.0016548259 	5.8144063e-07 	0.003615756 	1.0343112e-06 	0.0018249589
0.73913043 	0.0038672295 	0.0017332793 	-3.1445178e-09 	0.0037692943 	5.3495691e-08 	0.0004118197
0.75 	0.0040220214 	0.0018117884 	1.0867287e-06 	0.0039318577 	2.2476547e-06 	0.0020280004
0.76086957 	0.0041703578 	0.0018832144 	-2.8446346e-08 	0.0040836138 	4.9831669e-09 	0.00090226658
0.77173913 	0.0043183197 	0.0019530553 	2.5187597e-07 	0.0042406244 	6.1921853e-07 	0.002211229
0.7826087 	0.004456327 	0.0020150428 	-1.2048339e-08 	0.0043855519 	-8.5125477e-09 	0.0019488163
0.79347826 	0.0045883788 	0.0020720877 	-5.8888882e-09 	0.0045265551 	-4.1606931e-09 	0.0022272564
0.80434783 	0.0047070388 	0.0021208794 	4.3810662e-08 	0.0046546327 	1.4240895e-07 	0.0023677642
0.81521739 	0.0048144856 	0.0021623386 	-2.3258674e-08 	0.0047715279 	-2.574823e-08 	0.0020926961
0.82608696 	0.0049059411 	0.0021953349 	4.1338117e-09 	0.004874168 	4.6619885e-08 	0.002486488
0.83695652 	0.0049815054 	0.0022193106 	-6.0377245e-09 	0.0049609167 	1.025297e-09 	0.0025657308
0.84782609 	0.005034831 	0.0022319426 	-5.7654759e-08 	0.005023993 	-9.0101684e-08 	0.0018880096
0.85869565 	0.0050685962 	0.0022351393 	-3.2448889e-07 	0.0050703829 	-3.5368709e-07 	0.0026076193
0.86956522 	0.0050784284 	0.002225985 	-2.1726384e-07 	0.0050861427 	-3.7457221e-07 	0.00021853748
0.88043478 	0.0050648064 	0.002207699 	-4.6428086e-07 	0.0050872685 	-7.0030343e-07 	0.0026123658
0.89130435 	0.0050256531 	0.0021771638 	-9.825981e-09 	0.0050574377 	-1.7242541e-08 	0.0025828114
0.90217391 	0.0049566018 	0.0021334357 	-1.7688655e-07 	0.004991487 	-3.5561029e-07 	0.00065466456
0.91304348 	0.0048599687 	0.00208087 	-4.2121223e-07 	0.0049030355 	-8.4041241e-07 	0.0025238098
0.92391304 	0.0047343 	0.0020186541 	-7.8915867e-07 	0.0047789844 	-1.6436524e-06 	0.002438786
0.93478261 	0.0045774916 	0.0019380836 	-1.0045485e-07 	0.0046214081 	-2.2052807e-07 	0.0023444258
0.94565217 	0.0043738192 	0.0018483128 	-8.3552725e-07 	0.0044121465 	-2.0781173e-06 	0.0022603848
0.95652174 	0.0041368636 	0.001753599 	-8.686786e-08 	0.0041628711 	-2.5038974e-07 	0.00046216165
0.9673913 	0.0038361401 	0.0016464538 	-9.1343182e-08 	0.0038539153 	-2.6490536e-07 	0.0019963304
0.97826087 	0.0034093854 	0.001500943 	-2.2764986e-08 	0.003414378 	-8.9995271e-08 	0.00038755905
0.98913043 	0.002246583 	0.0010277698 	-2.8271226e-10 	0.0022392042 	-9.6969801e-09 	0.0002196513
