0.47777778 	0.79611943 	0.00012929961 	-5.065559e-08
0.48888889 	1.0656299 	2.2397399e-05 	-4.0789131e-08
0.5 	1.1687419 	5.026649e-05 	-6.1833443e-08
0.51111111 	1.233142 	8.4299775e-05 	-4.9468915e-08
0.52222222 	1.2800023 	0.00013309925 	-3.0532926e-07
0.53333333 	1.3171931 	0.00019194288 	7.7707151e-08
0.54444444 	1.3483019 	0.00025935038 	1.2432449e-07
0.55555556 	1.3748079 	0.00033538793 	-1.0352621e-07
0.56666667 	1.3969227 	0.0004083516 	-1.6661939e-07
0.57777778 	1.4148596 	0.00050256317 	-6.2031135e-08
0.58888889 	1.4292093 	0.00058275623 	2.1641128e-07
0.6 	1.4404636 	0.00063299376 	6.6853119e-08
0.61111111 	1.4484806 	0.00067603255 	-4.4133555e-07
0.62222222 	1.4538291 	0.00069583954 	-8.8578494e-07
0.63333333 	1.4571287 	0.00070015321 	-9.9473525e-08
0.64444444 	1.4585549 	0.00068900268 	-1.4329107e-08
0.65555556 	1.458647 	0.0006634654 	-9.0840455e-07
0.66666667 	1.4581076 	0.00063978782 	-4.4419608e-09
0.67777778 	1.4566089 	0.00060698843 	-3.1889844e-07
0.68888889 	1.4545641 	0.00057229504 	-4.5880497e-07
0.7 	1.4521272 	0.00053821547 	-2.3243506e-08
0.71111111 	1.4489281 	0.00049635654 	-6.576502e-07
0.72222222 	1.4456074 	0.00046020345 	-2.0930049e-07
0.73333333 	1.4415737 	0.00042154562 	-6.4620318e-07
0.74444444 	1.437303 	0.00038842675 	-2.3271392e-07
0.75555556 	1.4324439 	0.00034733913 	-6.1194842e-07
0.76666667 	1.4271092 	0.00030944792 	-3.3193365e-07
0.77777778 	1.4212542 	0.00027351088 	-6.7314561e-07
0.78888889 	1.4147897 	0.00024656673 	-1.1163055e-07
0.8 	1.4075338 	0.00022561693 	-3.2044482e-07
0.81111111 	1.3992906 	0.00020673394 	-2.3423091e-07
0.82222222 	1.3898976 	0.0001879391 	-8.1424528e-08
0.83333333 	1.3790376 	0.00017587714 	-3.3656093e-07
0.84444444 	1.3668195 	0.00017249481 	-2.1874463e-07
0.85555556 	1.3531744 	0.0001757583 	7.9584729e-09
0.86666667 	1.3381103 	0.00018059682 	-1.1089625e-08
0.87777778 	1.3216261 	0.00018475434 	-1.808518e-07
0.88888889 	1.303704 	0.00018760983 	-2.8308208e-07
0.9 	1.2841514 	0.00018395355 	-3.1133907e-07
0.91111111 	1.2626983 	0.00017647523 	-2.884913e-07
0.92222222 	1.2387248 	0.00016707129 	-2.1951445e-07
0.93333333 	1.21115 	0.0001459151 	-9.1103421e-08
0.94444444 	1.1784799 	0.00012923384 	-1.2011633e-07
0.95555556 	1.1380298 	9.7544828e-05 	-1.1207375e-07
0.96666667 	1.0844976 	7.9913453e-05 	-5.9383277e-08
0.97777778 	1.003052 	4.5429687e-05 	-3.082331e-08
0.98888889 	0.83190202 	-1.5223188e-05 	-8.2662972e-09
