0.4742268 	0.51740608 	-0.00012754334 	1.4740781e-09
0.48453608 	1.0552535 	0.00025834152 	1.1989404e-09
0.49484536 	1.1992431 	0.00055969631 	1.6810798e-06
0.50515464 	1.2915532 	0.00099310405 	1.8763189e-07
0.51546392 	1.3563186 	0.0014524809 	1.3088023e-06
0.5257732 	1.4018337 	0.0019094708 	4.0364713e-06
0.53608247 	1.4290274 	0.0022190982 	8.6174172e-07
0.54639175 	1.442924 	0.0023262419 	7.0861482e-08
0.55670103 	1.4488225 	0.0023705089 	-2.7635879e-08
0.56701031 	1.4509366 	0.0023462696 	-3.2114043e-07
0.57731959 	1.4512933 	0.002297129 	-1.0013526e-06
0.58762887 	1.4506776 	0.002232386 	-1.7459771e-06
0.59793814 	1.4494332 	0.0021567438 	-5.6072511e-07
0.60824742 	1.4476564 	0.0020705342 	-2.1059324e-07
0.6185567 	1.4455158 	0.0019799789 	-9.2483208e-07
0.62886598 	1.44305 	0.0018829594 	-1.9251904e-06
0.63917526 	1.4403097 	0.0017804754 	-1.2332509e-07
0.64948454 	1.4373253 	0.0016756073 	-1.6009281e-06
0.65979381 	1.434134 	0.0015670942 	-9.0224398e-07
0.67010309 	1.4307249 	0.0014551452 	-4.6554155e-10
0.68041237 	1.4270981 	0.0013411407 	-2.3306203e-06
0.69072165 	1.4233036 	0.0012244132 	-3.9140309e-08
0.70103093 	1.4193427 	0.0011082105 	-2.9733962e-06
0.71134021 	1.4152016 	0.00098915697 	-2.4603934e-08
0.72164948 	1.4109427 	0.00087280888 	-2.7383981e-06
0.73195876 	1.4065692 	0.00075565936 	-2.4974433e-09
0.74226804 	1.4019327 	0.00063843565 	-1.8638797e-06
0.75257732 	1.3972139 	0.00052273021 	-3.8777804e-07
0.7628866 	1.3921957 	0.00040717606 	-1.2007431e-06
0.77319588 	1.3869967 	0.00029100523 	-4.9003549e-07
0.78350515 	1.3815517 	0.00017593427 	-1.2721593e-06
0.79381443 	1.3759198 	6.2516457e-05 	3.4312327e-09
0.80412371 	1.3699455 	-4.6965651e-05 	-1.9293409e-06
0.81443299 	1.3637822 	-0.00015386735 	6.5556572e-08
0.82474227 	1.3570694 	-0.0002600929 	-1.7181457e-06
0.83505155 	1.3500311 	-0.00036458456 	-3.2777288e-07
0.84536082 	1.3424699 	-0.00046500742 	3.0703786e-08
0.8556701 	1.3342263 	-0.00056005705 	-1.3508298e-06
0.86597938 	1.3254186 	-0.00065026429 	-6.0035827e-07
0.87628866 	1.3158924 	-0.00073334728 	9.1522416e-08
0.88659794 	1.3053183 	-0.00080720942 	4.462362e-08
0.89690722 	1.2934079 	-0.00086525356 	-2.2247536e-07
0.90721649 	1.2796798 	-0.0009005121 	-1.4955573e-07
0.91752577 	1.2633 	-0.00090353995 	2.0378568e-07
0.92783505 	1.2429962 	-0.00086247923 	5.0772912e-07
0.93814433 	1.2170542 	-0.00076771113 	3.0017696e-07
0.94845361 	1.1830693 	-0.00061785674 	3.1493217e-07
0.95876289 	1.1379657 	-0.00043058943 	7.164298e-07
0.96907216 	1.0775571 	-0.00025116098 	1.3215964e-07
0.97938144 	0.987619 	-0.00011694793 	1.562302e-07
0.98969072 	0.80240534 	-9.8511976e-05 	-3.5458069e-07
