0.12903226 	0.96166873 	0.63641958 	5.5460049e-06
0.13978495 	0.93599237 	0.5258677 	-0.0025275279
0.15053763 	0.97232428 	0.49262562 	-0.00010662901
0.16129032 	0.99053835 	0.44482133 	-0.00014442294
0.17204301 	1.0103128 	0.41097374 	-0.00026098743
0.1827957 	1.0272084 	0.37772167 	-7.0279148e-05
0.19354839 	1.0448905 	0.35080077 	-0.0001184347
0.20430108 	1.0592339 	0.32691813 	-2.6847511e-05
0.21505376 	1.0719088 	0.30521953 	-0.00029106947
0.22580645 	1.0825403 	0.28630125 	-0.00049924828
0.23655914 	1.0914185 	0.26857783 	-0.00010816664
0.24731183 	1.1001222 	0.25163922 	-0.00025608054
0.25806452 	1.1079352 	0.24054546 	-0.00012073559
0.2688172 	1.1135546 	0.22570512 	-0.00019420116
0.27956989 	1.1193861 	0.21449844 	-0.00011574417
0.29032258 	1.1240076 	0.20521079 	-3.3933821e-05
0.30107527 	1.1284252 	0.19293251 	-5.2773822e-05
0.31182796 	1.1315627 	0.18632388 	-0.00014307074
0.32258065 	1.1352243 	0.17558647 	8.1976526e-06
0.33333333 	1.1371784 	0.16960191 	-0.00024154532
0.34408602 	1.1399637 	0.16087102 	3.3001371e-05
0.35483871 	1.1411955 	0.15517562 	-0.00032365822
0.3655914 	1.1428778 	0.14810295 	2.3152012e-05
0.37634409 	1.1437703 	0.14255471 	-0.00029082924
0.38709677 	1.1445029 	0.13667663 	-9.640946e-05
0.39784946 	1.1450791 	0.13132716 	-0.00020717499
0.40860215 	1.1452747 	0.12620396 	-0.00029673742
0.41935484 	1.1453194 	0.12107986 	-4.6196456e-05
0.43010753 	1.145018 	0.1165308 	-0.00036614939
0.44086022 	1.1447165 	0.11198174 	-4.38025e-05
0.4516129 	1.1438913 	0.10767905 	-0.00010892802
0.46236559 	1.1431106 	0.1037171 	-0.00020012314
0.47311828 	1.1424195 	0.099320075 	3.1381543e-05
0.48387097 	1.1408457 	0.096013432 	-0.00011148197
0.49462366 	1.1396274 	0.092559504 	-0.00010308463
0.50537634 	1.1385265 	0.088518147 	5.0604514e-05
0.51612903 	1.1364515 	0.085737825 	-7.3668695e-05
0.52688172 	1.1348291 	0.082719522 	-7.35109e-05
0.53763441 	1.1333546 	0.079128698 	5.6807828e-05
0.5483871 	1.1309179 	0.076582106 	-1.0886673e-05
0.55913978 	1.1289396 	0.073968885 	-8.9528987e-05
0.56989247 	1.1270609 	0.071035196 	3.8287641e-05
0.58064516 	1.1245831 	0.068385744 	2.5080667e-05
0.59139785 	1.122019 	0.066079214 	-0.00010137887
0.60215054 	1.1197192 	0.063618946 	1.8750733e-05
0.61290323 	1.1172206 	0.061015283 	4.6587821e-05
0.62365591 	1.1140406 	0.058884424 	-5.036872e-05
0.6344086 	1.1112867 	0.056664047 	1.0758616e-05
0.64516129 	1.1085102 	0.054230395 	4.8772624e-05
0.65591398 	1.1049135 	0.052259201 	-4.1383385e-05
0.66666667 	1.1017877 	0.05018383 	1.5580346e-05
0.67741935 	1.0984438 	0.048008978 	3.4158768e-05
0.68817204 	1.0945413 	0.046163652 	-5.567236e-05
0.69892473 	1.0910864 	0.044135549 	3.1846045e-05
0.70967742 	1.0868644 	0.042251927 	5.7185888e-06
0.72043011 	1.0827387 	0.040499582 	-8.2758846e-06
0.7311828 	1.0787071 	0.03852125 	3.4590464e-05
0.74193548 	1.0738048 	0.036864455 	-4.4975116e-05
0.75268817 	1.069367 	0.035032978 	3.1186563e-05
0.76344086 	1.0639332 	0.033389072 	-2.1010612e-05
0.77419355 	1.0588044 	0.03170636 	1.5504975e-05
0.78494624 	1.0528864 	0.030057178 	-1.0092998e-05
0.79569892 	1.0470115 	0.028461824 	9.2785716e-06
0.80645161 	1.0403624 	0.026852213 	-1.1638474e-05
0.8172043 	1.0336588 	0.025292797 	1.0947854e-05
0.82795699 	1.0259869 	0.023757028 	-2.3071702e-05
0.83870968 	1.0183524 	0.022188854 	1.8961836e-05
0.84946237 	1.0093102 	0.020752412 	-2.3899459e-05
0.86021505 	0.99997711 	0.019230296 	2.5100415e-06
0.87096774 	0.98982444 	0.017800321 	3.1815726e-06
0.88172043 	0.97844627 	0.016340723 	-2.8141456e-05
0.89247312 	0.96620078 	0.014877238 	-1.6271049e-06
0.90322581 	0.95283531 	0.01343787 	7.1999123e-06
0.91397849 	0.9372862 	0.012034777 	-6.6388186e-06
0.92473118 	0.91984723 	0.010586736 	-2.0115323e-05
0.93548387 	0.90032495 	0.0091735256 	-1.8725076e-05
0.94623656 	0.87692915 	0.0077240147 	-1.6992462e-05
0.95698925 	0.84768042 	0.0061844274 	2.5007734e-06
0.96774194 	0.80806818 	0.0046546951 	-6.5772366e-07
0.97849462 	0.74598152 	0.0030265933 	-1.6888543e-06
0.98924731 	0.59784312 	0.0012362549 	-5.0607054e-06
