0.36082474 	0.0047340795 	-0.0019724592 	8.1852681e-08 	0.0034852728 	-1.3841884e-07 	0.0037381411
0.37113402 	0.001847158 	-0.00061846711 	-3.1030492e-07 	0.0016242249 	-3.1924127e-07 	0.0012280226
0.3814433 	0.0015745943 	-0.00021286814 	-5.8853586e-07 	0.0021466584 	-1.6082925e-06 	0.00060801195
0.39175258 	0.0014688378 	8.6781472e-05 	-5.175154e-07 	0.0024910535 	-9.9614651e-07 	0.000420762
0.40206186 	0.0014435038 	0.00020312232 	4.4672567e-07 	0.0025420417 	-2.5492364e-07 	0.00062886211
0.41237113 	0.0014349515 	0.00024227697 	1.7488013e-07 	0.0025482587 	-4.1446426e-07 	0.0005130394
0.42268041 	0.001427672 	0.00025858127 	6.5739395e-08 	0.0025501588 	-4.8120081e-07 	0.0003973951
0.43298969 	0.0014215634 	0.00027272238 	8.3618718e-08 	0.0025527007 	-7.1151822e-07 	0.00028649952
0.44329897 	0.0014174196 	0.00028747101 	1.4080147e-07 	0.0025578138 	-9.9886122e-07 	0.00018003633
0.45360825 	0.0014152804 	0.00030284645 	1.1360624e-07 	0.0025655803 	-6.9873018e-07 	7.6886883e-05
0.46391753 	0.0014148025 	0.00031864373 	3.9850542e-08 	0.0025757048 	-2.229417e-07 	3.4917085e-05
0.4742268 	0.0014158717 	0.00033467431 	4.6462027e-08 	0.0025883801 	-2.5992929e-07 	0.00013367384
0.48453608 	0.0014181204 	0.00035084217 	1.7509993e-07 	0.0026021268 	-9.2602678e-07 	0.00023095333
0.49484536 	0.0014210312 	0.00036702294 	3.9830911e-08 	0.002616278 	-2.0881553e-07 	0.00032872147
0.50515464 	0.001424438 	0.00038303092 	5.0432989e-09 	0.002631002 	-2.6439744e-08 	0.00041444279
0.51546392 	0.0014284151 	0.0003989214 	1.2510414e-07 	0.0026452993 	-6.7757519e-07 	0.00050693247
0.5257732 	0.0014324555 	0.00041428212 	3.0735457e-07 	0.0026572062 	-5.9756034e-07 	3.6389104e-05
0.53608247 	0.0014366792 	0.00042992919 	1.0404491e-07 	0.0026731237 	-6.1015498e-07 	0.0006727886
0.54639175 	0.0014408761 	0.00044462567 	2.6663901e-07 	0.0026840872 	-5.248292e-07 	0.00024442279
0.55670103 	0.0014449902 	0.00045960577 	6.3092451e-08 	0.0026984084 	-4.1831703e-07 	0.00082614434
0.56701031 	0.0014489978 	0.00047347803 	3.2746699e-07 	0.0027070986 	-6.583835e-07 	0.00022985032
0.57731959 	0.0014528813 	0.00048797249 	6.3755871e-08 	0.0027200954 	-4.8115266e-07 	0.00096693893
0.58762887 	0.0014565879 	0.00050113875 	4.5773055e-07 	0.0027254701 	-9.491416e-07 	1.2571942e-05
0.59793814 	0.0014601857 	0.00051527855 	3.478788e-08 	0.002737362 	-2.9813257e-07 	0.0010953037
0.60824742 	0.0014635947 	0.00052834782 	2.9143211e-07 	0.002741407 	-6.2986023e-07 	0.00042990155
0.6185567 	0.0014668991 	0.00054168298 	1.4068503e-07 	0.0027481717 	-3.0405677e-07 	0.0008584148
0.62886598 	0.0014701319 	0.00055510555 	6.9133907e-08 	0.0027529141 	-1.575481e-07 	0.0010542454
0.63917526 	0.0014733876 	0.00056774594 	3.8804479e-07 	0.0027517995 	-8.8430876e-07 	0.00021894963
0.64948454 	0.0014764655 	0.00058120976 	1.3756695e-08 	0.0027570726 	-1.4557642e-07 	0.0013375571
0.65979381 	0.0014798753 	0.00059398838 	2.3010043e-07 	0.0027532844 	-5.5758981e-07 	0.00063373783
0.67010309 	0.0014833447 	0.00060713119 	2.4765711e-07 	0.0027506172 	-6.0013393e-07 	0.00061374372
0.68041237 	0.001486888 	0.00062099452 	1.4804066e-08 	0.0027500722 	-1.5673744e-07 	0.0014304652
0.69072165 	0.0014913708 	0.00063357525 	3.1811204e-07 	0.0027400304 	-8.2146363e-07 	0.0002660342
0.70103093 	0.0014958758 	0.00064791014 	1.0274136e-07 	0.0027356501 	-2.6530996e-07 	0.0010968831
0.71134021 	0.0015014675 	0.0006621024 	1.0903466e-07 	0.0027269172 	-2.9711121e-07 	0.001013722
0.72164948 	0.0015081503 	0.00067604761 	2.4704529e-07 	0.0027150378 	-6.7317975e-07 	0.0004220145
0.73195876 	0.0015151427 	0.00069160325 	2.1141744e-08 	0.0027075064 	-1.7994238e-07 	0.0015233711
0.74226804 	0.0015251435 	0.00070621636 	2.7118449e-07 	0.0026915164 	-7.5871107e-07 	0.0001228157
0.75257732 	0.0015351819 	0.0007228099 	1.2868578e-09 	0.0026828946 	-3.6003286e-09 	0.0015375845
0.7628866 	0.0015491512 	0.00073911732 	1.7792459e-07 	0.002667495 	-4.8821139e-07 	0.00046534367
0.77319588 	0.0015641169 	0.00075680382 	3.7048928e-08 	0.0026572683 	-1.0165941e-07 	0.0013275441
0.78350515 	0.0015832767 	0.00077491589 	1.3609658e-07 	0.0026443384 	-3.4215486e-07 	0.00060644219
0.79381443 	0.0016046458 	0.00079438229 	2.924249e-08 	0.002636303 	-7.351735e-08 	0.0013537286
0.80412371 	0.0016311693 	0.00081459422 	1.3720262e-07 	0.0026273358 	-2.882145e-07 	0.00049820942
0.81443299 	0.0016606084 	0.00083663166 	2.8257083e-08 	0.0026255717 	-8.2512698e-08 	0.0015589757
0.82474227 	0.0016968484 	0.00085946089 	1.7875149e-07 	0.0026228392 	-2.7935563e-07 	8.2455811e-05
0.83505155 	0.0017367023 	0.00088502984 	4.9256824e-08 	0.002631052 	-8.6975924e-08 	0.0015563442
0.84536082 	0.0017846628 	0.00091201741 	8.9050982e-08 	0.0026412919 	-8.8853762e-08 	0.00079805102
0.8556701 	0.0018381849 	0.00094133166 	9.1667104e-08 	0.0026587286 	-4.4880167e-08 	0.00074069422
0.86597938 	0.0018987704 	0.00097353026 	1.944914e-07 	0.002685577 	-4.2172974e-08 	0.0015802397
0.87628866 	0.0019672717 	0.0010076835 	7.1495657e-08 	0.0027163495 	-6.0571186e-09 	0.0009159708
0.88659794 	0.0020423026 	0.0010441087 	1.2409881e-07 	0.0027534442 	2.5270112e-08 	0.0003177838
0.89690722 	0.002124266 	0.0010837391 	1.8781959e-08 	0.0028010611 	7.2104927e-09 	0.0013842727
0.90721649 	0.0022119443 	0.0011245339 	2.0781315e-07 	0.0028511639 	1.3066998e-07 	0.0016259669
0.91752577 	0.0023026203 	0.0011655588 	1.1245884e-07 	0.0029022777 	7.1198379e-08 	0.0016439919
0.92783505 	0.0023943358 	0.0012058022 	1.41164e-08 	0.0029506831 	5.8706535e-09 	0.0016535642
0.93814433 	0.0024869968 	0.0012431172 	2.74302e-09 	0.0029892365 	-6.890757e-10 	0.0016534665
0.94845361 	0.0025810175 	0.0012649492 	-6.6664821e-09 	0.0030102362 	-6.1239762e-08 	0.0016423553
0.95876289 	0.0026725985 	0.0012724209 	-1.0664349e-09 	0.0030117386 	-1.339066e-08 	0.0016172674
0.96907216 	0.002764565 	0.0012957524 	2.3241424e-08 	0.0029981609 	-1.1393475e-07 	0.0015973358
0.97938144 	0.0028513238 	0.0013314347 	1.6590352e-07 	0.0029706738 	2.2790863e-07 	0.00068482093
0.98969072 	0.0025148012 	0.0011760014 	3.569624e-09 	0.0025372145 	7.472045e-09 	0.0013646015
