1.4270237e-19 	1.5166452 	-1.0300283e-13 	-3.7438799e-20
0.010869565 	1.5257555 	-0.00085653678 	1.1723613e-07
0.02173913 	1.5394248 	-0.0017002316 	4.2467472e-08
0.032608696 	1.5542025 	-0.002537211 	3.2318727e-08
0.043478261 	1.5701681 	-0.0033568582 	1.847645e-07
0.054347826 	1.5875409 	-0.0041600703 	2.848618e-07
0.065217391 	1.6078197 	-0.0049901847 	9.0710781e-07
0.076086957 	1.6264293 	-0.0056708808 	7.1994888e-08
0.086956522 	1.6481448 	-0.0063702421 	1.5731587e-06
0.097826087 	1.6712106 	-0.0070304519 	2.0543239e-06
0.10869565 	1.6958611 	-0.0076524227 	9.3777683e-07
0.11956522 	1.7219103 	-0.0082039513 	3.2150608e-06
0.13043478 	1.7492728 	-0.0087227838 	3.7696436e-06
0.14130435 	1.777894 	-0.0092136532 	8.6175412e-07
0.15217391 	1.8080997 	-0.0096010375 	1.132863e-05
0.16304348 	1.8388837 	-0.0099449275 	1.9342581e-07
0.17391304 	1.8713088 	-0.010125554 	1.6221234e-05
0.18478261 	1.9039877 	-0.010298216 	2.2178588e-06
0.19565217 	1.9378919 	-0.010429302 	1.7309371e-05
0.20652174 	1.9718746 	-0.010561841 	1.793474e-09
0.2173913 	2.0069825 	-0.0105964 	2.2227117e-05
0.22826087 	2.0420911 	-0.010630923 	1.016825e-06
0.23913043 	2.0780711 	-0.010504603 	2.0199911e-05
0.25 	2.1140963 	-0.010353706 	9.2433475e-06
0.26086957 	2.1504783 	-0.01013736 	8.3889932e-06
0.27173913 	2.1868401 	-0.0098645189 	2.3437048e-05
0.2826087 	2.2236226 	-0.0095774872 	5.6291e-07
0.29347826 	2.2592197 	-0.0092037394 	2.1530083e-05
0.30434783 	2.2948148 	-0.0087973384 	1.444451e-05
0.31521739 	2.3304087 	-0.0083313841 	2.5603498e-07
0.32608696 	2.3633469 	-0.0077717297 	3.094369e-05
0.33695652 	2.3961732 	-0.0071960028 	1.0405277e-05
0.34782609 	2.4278967 	-0.0065529772 	1.1887981e-07
0.35869565 	2.455246 	-0.0060195512 	2.4950719e-05
0.36956522 	2.482087 	-0.0055086692 	9.7898921e-06
0.38043478 	2.5066925 	-0.0050923641 	3.4737577e-07
0.39130435 	2.5262525 	-0.0047651087 	1.133774e-05
0.40217391 	2.5440809 	-0.0044479291 	1.1221609e-05
0.41304348 	2.560085 	-0.0041427946 	4.3026729e-07
0.42391304 	2.5721271 	-0.0038790598 	1.4859612e-06
0.43478261 	2.5806423 	-0.0036375298 	1.5437618e-05
0.44565217 	2.5891575 	-0.0033959998 	1.321755e-06
0.45652174 	2.5939276 	-0.0031731692 	4.5013734e-07
0.4673913 	2.5970229 	-0.0029750719 	4.3695391e-06
0.47826087 	2.5985253 	-0.0027871253 	9.074604e-06
0.48913043 	2.5996001 	-0.0026017886 	1.152907e-07
0.5 	2.5983276 	-0.0024328988 	3.7643761e-07
0.51086957 	2.5963164 	-0.0022716318 	4.3020717e-06
0.52173913 	2.5934503 	-0.0021143531 	5.6977439e-06
0.5326087 	2.5900111 	-0.0019586065 	2.019396e-07
0.54347826 	2.5853755 	-0.0018038769 	2.2620232e-07
0.55434783 	2.5800046 	-0.0016501233 	5.1755842e-06
0.56521739 	2.5742511 	-0.0014982332 	2.2749181e-06
0.57608696 	2.5677521 	-0.0013485564 	3.8334165e-07
0.58695652 	2.5606669 	-0.0011957128 	4.2077728e-07
0.59782609 	2.5527487 	-0.0010469001 	4.9709383e-06
0.60869565 	2.5445742 	-0.00089898929 	1.474145e-07
0.61956522 	2.5356329 	-0.00075019321 	1.3666012e-07
0.63043478 	2.5258955 	-0.00059861337 	5.2462712e-06
0.64130435 	2.5158283 	-0.00044691939 	5.5496473e-08
0.65217391 	2.5048754 	-0.00029156596 	1.7578448e-07
0.66304348 	2.4930363 	-0.00013130931 	4.5134195e-06
0.67391304 	2.4807263 	2.9459433e-05 	6.1690681e-08
0.68478261 	2.4674101 	0.00019548556 	1.1820867e-07
0.69565217 	2.4529927 	0.00036691225 	4.5083232e-06
0.70652174 	2.4379568 	0.00053924569 	1.4089021e-07
0.7173913 	2.4217375 	0.00071987141 	2.4192627e-07
0.72826087 	2.4042039 	0.0009075388 	1.7603046e-06
0.73913043 	2.3857518 	0.0011012366 	1.6880647e-07
0.75 	2.3655899 	0.0012998535 	3.9277117e-06
0.76086957 	2.3444869 	0.0014872983 	8.2878745e-08
0.77173913 	2.3215602 	0.0016766819 	1.2336394e-06
0.7826087 	2.2972447 	0.0018732016 	8.8072901e-09
0.79347826 	2.2711059 	0.002083927 	4.304755e-09
0.80434783 	2.2431065 	0.0022844719 	3.7319203e-07
0.81521739 	2.2131799 	0.0024814133 	-1.7987634e-08
0.82608696 	2.1812419 	0.0026414624 	1.5600563e-07
0.83695652 	2.147109 	0.0027615722 	3.2687731e-08
0.84782609 	2.1110989 	0.0028760496 	-1.0275792e-07
0.85869565 	2.0726627 	0.0029831234 	3.2906822e-07
0.86956522 	2.0328596 	0.0030380626 	-5.9578516e-07
0.88043478 	1.990053 	0.003045098 	-5.1795124e-07
0.89130435 	1.9454969 	0.0029873633 	-2.1904672e-08
0.90217391 	1.8988545 	0.0028608315 	-6.459905e-07
0.91304348 	1.848982 	0.0026906487 	-1.1044106e-06
0.92391304 	1.7970625 	0.0024921537 	-2.2128217e-06
0.93478261 	1.7421972 	0.0022145643 	-3.4646926e-07
0.94565217 	1.6780308 	0.0018260851 	-3.1086538e-06
0.95652174 	1.6080679 	0.0014348335 	-5.1558383e-07
0.9673913 	1.5215634 	0.00099565997 	-3.1471768e-07
0.97826087 	1.4008576 	0.00057306162 	-2.3309501e-07
0.98913043 	1.1615165 	-0.00022079822 	-8.9717935e-08
