0.47777778 	0.033550243 	-0.012397643 	1.5452501e-06 	0.069545058 	1.3373176e-06 	0.0076105383
0.48888889 	0.03338448 	-0.012133934 	2.6197777e-06 	0.068410093 	-1.4541925e-05 	0.022150571
0.5 	0.030344021 	-0.011065469 	1.2890984e-07 	0.062448645 	-7.4742847e-07 	0.019157604
0.51111111 	0.026811771 	-0.0099000271 	1.6553934e-06 	0.055681002 	-8.8961124e-07 	0.0025631009
0.52222222 	0.023532568 	-0.0085796965 	9.9816728e-06 	0.048457835 	-5.4601852e-05 	0.013810493
0.53333333 	0.020430442 	-0.0072568437 	3.3886906e-06 	0.041233854 	-1.8414317e-05 	0.011865291
0.54444444 	0.017715078 	-0.0059532651 	3.1839442e-07 	0.034295022 	2.3312594e-07 	0.005399684
0.55555556 	0.015600121 	-0.0046725528 	3.0791383e-07 	0.027845896 	7.1595762e-07 	0.0013103755
0.56666667 	0.01409777 	-0.0034616837 	1.0307469e-07 	0.022220031 	8.3214943e-07 	0.00094369404
0.57777778 	0.013083399 	-0.0023807233 	-3.2056799e-09 	0.017735565 	4.123627e-07 	0.0027245426
0.58888889 	0.012421814 	-0.0014588835 	8.6045149e-07 	0.01453606 	-3.0239232e-06 	0.0052114176
0.6 	0.012020398 	-0.00069167648 	7.7548041e-06 	0.012650449 	-1.8305381e-05 	0.0046996945
0.61111111 	0.011792023 	-1.9968289e-05 	7.6737302e-06 	0.011765237 	-6.9407698e-06 	0.0044194308
0.62222222 	0.011656005 	0.00057822129 	6.5201337e-08 	0.011638031 	-1.1789007e-07 	0.0034669773
0.63333333 	0.01157107 	0.0010959266 	1.2206138e-07 	0.012069696 	-1.3667526e-07 	0.0034246831
0.64444444 	0.011522479 	0.001550938 	7.8884424e-06 	0.012827909 	1.1497084e-05 	0.0042041458
0.65555556 	0.011502191 	0.0019679626 	3.2518713e-08 	0.013701792 	-2.0491011e-08 	0.0041032603
0.66666667 	0.011526548 	0.0023303764 	8.5605336e-07 	0.014648643 	1.8564603e-06 	0.0042306359
0.67777778 	0.011592163 	0.0026629456 	4.0713383e-06 	0.015623103 	1.0892332e-05 	0.0043516497
0.68888889 	0.01169192 	0.002973264 	1.1137849e-06 	0.016592024 	-1.4156423e-07 	0.0012730419
0.7 	0.011826337 	0.0032509679 	5.6682922e-06 	0.017557186 	1.7491968e-05 	0.004549075
0.71111111 	0.011995151 	0.0035234323 	1.5778948e-06 	0.018513078 	9.2096155e-09 	0.00065020613
0.72222222 	0.012189774 	0.0037660366 	4.7251182e-06 	0.019457931 	1.6403615e-05 	0.0048404322
0.73333333 	0.012418332 	0.0040089053 	1.7616342e-06 	0.020391711 	1.9141207e-07 	0.0006926752
0.74444444 	0.012677669 	0.0042370291 	4.1796303e-06 	0.021362668 	1.6267138e-05 	0.0052254682
0.75555556 	0.012968437 	0.0044653865 	1.88583e-06 	0.022313898 	3.6839057e-07 	0.00078124058
0.76666667 	0.013301536 	0.0046944841 	3.3212986e-06 	0.023363826 	1.4309206e-05 	0.0056936261
0.77777778 	0.013665468 	0.0049268005 	1.0565113e-06 	0.024413927 	2.8944349e-07 	0.0033174324
0.78888889 	0.014073242 	0.0051671104 	1.7031724e-06 	0.025564134 	7.9066881e-06 	0.0062379004
0.8 	0.014522386 	0.005416813 	9.459057e-07 	0.026773806 	4.625784e-06 	0.0067544388
0.81111111 	0.015018848 	0.0056816732 	9.2487062e-07 	0.028062707 	4.0313688e-07 	0.0041805411
0.82222222 	0.015576272 	0.0059652998 	3.7473386e-06 	0.029503989 	1.8996888e-05 	0.0074497358
0.83333333 	0.016184601 	0.0062656133 	6.4826772e-08 	0.031035853 	3.3513285e-08 	0.0078749265
0.84444444 	0.016868635 	0.0065924906 	1.2565463e-06 	0.032702795 	7.4374496e-07 	0.0038094395
0.85555556 	0.017632545 	0.0069449993 	2.1103963e-06 	0.0345715 	1.1238718e-05 	0.0089580051
0.86666667 	0.018481394 	0.0073220732 	3.5685948e-06 	0.036579752 	1.9404682e-05 	0.0097413559
0.87777778 	0.019419317 	0.0077238988 	6.5856815e-07 	0.038748611 	3.6560049e-06 	0.010581586
0.88888889 	0.020461063 	0.0081511352 	8.5315617e-07 	0.041072256 	6.4184063e-07 	0.0069146598
0.9 	0.021607178 	0.0086001609 	1.4432358e-06 	0.043559582 	1.122363e-06 	0.0036407057
0.91111111 	0.022856804 	0.0090668666 	1.3976755e-06 	0.046206399 	1.1027798e-06 	0.0036739993
0.92222222 	0.024202939 	0.0095457583 	7.7116862e-07 	0.048990284 	6.089658e-07 	0.0082115473
0.93333333 	0.02562498 	0.010030511 	6.8052925e-07 	0.051865944 	4.2514006e-06 	0.015308387
0.94444444 	0.027078261 	0.010505749 	2.4264864e-06 	0.054749227 	1.5281494e-05 	0.016266703
0.95555556 	0.028480852 	0.010975134 	8.5831883e-07 	0.057528014 	7.4465577e-07 	0.0058567293
0.96666667 	0.029884717 	0.01127528 	3.2198155e-07 	0.059803987 	3.627421e-06 	0.018518027
0.97777778 	0.030750741 	0.011508703 	-5.0586663e-08 	0.061493394 	2.3016121e-08 	0.019426249
0.98888889 	0.029345191 	0.01106206 	-1.3810341e-06 	0.059474953 	-7.4816931e-06 	0.018861385
