0.4742268 	0.02212985 	-0.0080647651 	2.0361017e-07 	0.043411858 	-1.04608e-06 	0.0067759407
0.48453608 	0.035898349 	-0.013847877 	1.862323e-08 	0.074016628 	-3.7776249e-08 	0.015121719
0.49484536 	0.029581948 	-0.01170232 	1.1598116e-05 	0.061859372 	-6.3586157e-05 	0.015954893
0.50515464 	0.022027172 	-0.0087775605 	-2.1620736e-07 	0.046008282 	1.1363468e-06 	0.011045905
0.51546392 	0.016291047 	-0.0057183602 	4.5685073e-06 	0.030864876 	-2.0905835e-05 	0.0079087387
0.5257732 	0.01271403 	-0.0030112184 	2.0323105e-05 	0.018935087 	-8.4864978e-05 	0.006034043
0.53608247 	0.011043446 	-0.0013204004 	4.3570181e-06 	0.012762047 	-1.4130749e-05 	0.004975214
0.54639175 	0.01066602 	-0.00033104931 	-1.4418631e-08 	0.010882759 	9.9347256e-09 	0.0045498402
0.55670103 	0.010757813 	0.00035922125 	-3.9487586e-08 	0.010982817 	-3.4551266e-08 	0.0043686143
0.56701031 	0.010890029 	0.00086883749 	9.843943e-07 	0.011756385 	1.3393566e-06 	0.0047373508
0.57731959 	0.011014666 	0.0012696507 	2.8367665e-06 	0.012711286 	6.0362303e-06 	0.0048797394
0.58762887 	0.01112594 	0.0016095408 	3.779367e-06 	0.013701083 	9.8523454e-06 	0.005034306
0.59793814 	0.011223398 	0.0019110482 	4.7526528e-07 	0.014682964 	1.387069e-06 	0.0051935053
0.60824742 	0.011307792 	0.0021819346 	-3.1513981e-07 	0.01563092 	-1.1419982e-06 	0.00017048878
0.6185567 	0.011381535 	0.0024254105 	9.074844e-07 	0.016546246 	2.8496739e-06 	0.0053560309
0.62886598 	0.011450785 	0.0026484802 	1.9247616e-06 	0.017413838 	6.3561513e-06 	0.0055177578
0.63917526 	0.011519116 	0.0028537661 	-2.105598e-07 	0.018231017 	-8.5005757e-07 	0.0012119666
0.64948454 	0.011587316 	0.0030377867 	1.1673964e-06 	0.019002045 	3.9875995e-06 	0.0056822377
0.65979381 	0.011659195 	0.0032071899 	3.212737e-07 	0.019722422 	1.117526e-06 	0.0058466908
0.67010309 	0.011736093 	0.0033595117 	-4.6862407e-08 	0.020384047 	-2.000554e-07 	0.0046030472
0.68041237 	0.011818514 	0.0034959615 	9.8967145e-07 	0.020995824 	3.4327176e-06 	0.0060137224
0.69072165 	0.011907159 	0.0036202887 	-1.1936861e-07 	0.021554583 	-5.1893243e-07 	0.0024060006
0.70103093 	0.012000852 	0.0037301271 	8.6190943e-07 	0.022072101 	2.8540607e-06 	0.0061813617
0.71134021 	0.012101433 	0.0038295654 	-1.1379605e-07 	0.022535472 	-5.0168896e-07 	0.0022760624
0.72164948 	0.012205606 	0.0039160994 	3.7860199e-07 	0.022961392 	9.6254018e-07 	0.0063486491
0.73195876 	0.012314625 	0.0039924532 	-5.8012199e-08 	0.023333792 	-2.5869695e-07 	0.0041028138
0.74226804 	0.012430541 	0.0040595274 	2.0768136e-08 	0.023677805 	-2.836794e-07 	0.0065088552
0.75257732 	0.012549121 	0.0041174935 	-7.8104513e-09 	0.023977659 	-3.5206285e-08 	0.0061704238
0.7628866 	0.01267542 	0.0041664476 	-8.0491955e-08 	0.024242048 	-5.3846834e-07 	0.006652525
0.77319588 	0.012805111 	0.0042089772 	-2.1424411e-09 	0.024477394 	-1.4332327e-08 	0.0066529736
0.78350515 	0.012939243 	0.0042436813 	-1.8381243e-07 	0.024678178 	-1.0375104e-06 	0.0067782167
0.79381443 	0.013076383 	0.0042731287 	-2.9873583e-08 	0.024851455 	-1.3923125e-07 	0.005042833
0.80412371 	0.013218924 	0.0042987992 	-4.5654652e-07 	0.025013341 	-2.4933556e-06 	0.0068908137
0.81443299 	0.01336378 	0.0043200597 	-7.8243998e-08 	0.025138516 	-3.8070732e-07 	0.00074606559
0.82474227 	0.01351759 	0.00434434 	-4.3019147e-07 	0.025297698 	-2.4082226e-06 	0.0069961545
0.83505155 	0.013676661 	0.0043694243 	-8.3791293e-09 	0.025444841 	-5.3125698e-08 	0.0071011567
0.84536082 	0.01384601 	0.004400663 	9.5676692e-09 	0.025607246 	1.1162058e-08 	0.003975005
0.8556701 	0.014031808 	0.004447061 	-3.9560419e-08 	0.025841084 	-8.6556291e-07 	0.0072153456
0.86597938 	0.014236737 	0.0045120581 	1.6190541e-07 	0.02614305 	3.7792853e-07 	0.0073490485
0.87628866 	0.014471173 	0.0046060307 	1.5958573e-07 	0.026553584 	6.3711757e-07 	0.0022479225
0.88659794 	0.014752445 	0.00474615 	1.4989799e-07 	0.027172225 	6.2648709e-07 	0.0044578116
0.89690722 	0.015104244 	0.0049501081 	4.3351756e-07 	0.028069398 	1.6966032e-06 	0.0077362108
0.90721649 	0.015566048 	0.0052408506 	1.7574959e-06 	0.029352076 	7.3124108e-06 	0.0080264656
0.91752577 	0.016191257 	0.0056420007 	2.9322787e-06 	0.031154828 	1.278828e-05 	0.0084117221
0.92783505 	0.017063135 	0.0061826768 	2.9448704e-06 	0.03364568 	1.3372931e-05 	0.008915966
0.93814433 	0.018286097 	0.0068861894 	5.3421751e-07 	0.036994472 	2.5372443e-06 	0.0095581123
0.94845361 	0.019995835 	0.0077640663 	8.5697349e-07 	0.041319542 	4.4514363e-06 	0.0015247263
0.95876289 	0.022239534 	0.00881455 	2.1715418e-06 	0.046668838 	1.1750514e-05 	0.012251529
0.96907216 	0.025118221 	0.0098013034 	4.4830549e-07 	0.052176954 	2.603966e-06 	0.0041172445
0.97938144 	0.027923446 	0.010733912 	5.0495685e-07 	0.057490625 	3.0386495e-06 	0.014904501
0.98969072 	0.028256188 	0.010783674 	-1.0313718e-06 	0.058097438 	-5.6203556e-06 	0.015253714
