1.4326613e-19 	0.072228831 	-4.9056934e-15 	-1.7829883e-21 	8.4435062e-18 	-1.8805776e-31 	8.4455724e-18
0.010869565 	0.066997067 	-0.0076894255 	1.064894e-05 	0.082635841 	-0.00013181876 	0.038950179
0.02173913 	0.065140333 	-0.0081239065 	1.3197135e-05 	0.082386258 	-0.00014828537 	0.035253053
0.032608696 	0.063490934 	-0.0085203555 	6.1968867e-06 	0.082200156 	-7.0976351e-05 	0.031905935
0.043478261 	0.061859124 	-0.009015348 	8.9782461e-06 	0.082416877 	-0.00010630846 	0.028647573
0.054347826 	0.060243988 	-0.009594723 	3.1131603e-08 	0.083001059 	-3.3292585e-07 	0.024403506
0.065217391 	0.058554162 	-0.010267484 	5.6867206e-07 	0.083905729 	-4.9077226e-06 	0.0043911042
0.076086957 	0.057179224 	-0.010870801 	9.485938e-07 	0.084969372 	-1.1197239e-05 	0.020483048
0.086956522 	0.055716965 	-0.01155794 	1.160541e-05 	0.086291163 	-0.00014565306 	0.01797508
0.097826087 	0.054266259 	-0.012261068 	7.7827719e-06 	0.087725904 	-9.7599648e-05 	0.015609783
0.10869565 	0.052814507 	-0.012971281 	8.2669618e-07 	0.089200955 	-4.8922898e-06 	0.00075324442
0.11956522 	0.051406482 	-0.013645308 	9.9200227e-06 	0.09066433 	-0.00011875975 	0.011508187
0.13043478 	0.049998421 	-0.01428944 	8.332817e-06 	0.091998833 	-9.1420773e-05 	0.0094992964
0.14130435 	0.04860116 	-0.014891414 	2.8306833e-06 	0.093179261 	-3.1055915e-05 	0.0077824889
0.15217391 	0.04723585 	-0.015407282 	1.9498855e-05 	0.093993613 	-0.00019141307 	0.0060008955
0.16304348 	0.045877157 	-0.015892615 	3.1776637e-07 	0.094657009 	-1.5944733e-06 	0.00088263447
0.17391304 	0.044682924 	-0.016235526 	2.4787723e-05 	0.09451972 	-0.00022245771 	0.0028743984
0.18478261 	0.043512209 	-0.016559681 	1.7212019e-06 	0.09424825 	-1.4586489e-05 	0.0014099388
0.19565217 	0.042582498 	-0.016718474 	3.1447329e-05 	0.092866063 	-0.00026650338 	0.00021952212
0.20652174 	0.041652853 	-0.016878089 	6.3475981e-08 	0.091496461 	-2.0247724e-07 	0.00081035172
0.2173913 	0.040703166 	-0.016828634 	3.974595e-05 	0.089229813 	-0.00029905041 	0.0025594963
0.22826087 	0.039751191 	-0.016777455 	4.5297351e-06 	0.086955957 	-3.4081942e-05 	0.0036801108
0.23913043 	0.038567119 	-0.01652899 	3.3462248e-05 	0.084173806 	-0.00021433402 	0.0044151344
0.25 	0.037326683 	-0.016231902 	1.889531e-05 	0.081271918 	-0.00012102916 	0.0053647188
0.26086957 	0.035951605 	-0.01582063 	1.5046649e-05 	0.078089088 	-8.3360923e-05 	0.0056890027
0.27173913 	0.034406668 	-0.015257995 	4.5597339e-05 	0.074564573 	-0.00025261679 	0.0064598179
0.2826087 	0.032836599 	-0.014676216 	1.3154342e-07 	0.070976589 	-1.289302e-07 	0.003846052
0.29347826 	0.031054748 	-0.013883207 	3.9981509e-05 	0.066990487 	-0.00019391924 	0.0068725494
0.30434783 	0.029229499 	-0.01304546 	3.1781858e-05 	0.062908896 	-0.0001541491 	0.0074625624
0.31521739 	0.027327223 	-0.012134205 	-3.2193932e-08 	0.058655473 	4.4440603e-07 	0.0037128145
0.32608696 	0.025438922 	-0.011090189 	5.5003518e-05 	0.054147061 	-0.00024502923 	0.0069672925
0.33695652 	0.023549368 	-0.01002867 	2.459546e-05 	0.049574842 	-0.00010956766 	0.0073837468
0.34782609 	0.021679278 	-0.0088996548 	-2.0105921e-07 	0.044795408 	1.0014096e-06 	0.0037644009
0.35869565 	0.020077576 	-0.0078114034 	5.0310834e-05 	0.040125995 	-0.00022450674 	0.0061429392
0.36956522 	0.01850163 	-0.0067256015 	2.5576105e-05 	0.035441397 	-0.00011413065 	0.0064093205
0.38043478 	0.017038695 	-0.0056572863 	-5.9187808e-07 	0.030741358 	2.7481329e-06 	0.0011983829
0.39130435 	0.015884594 	-0.0047673945 	2.7171413e-05 	0.026865908 	-0.00012167216 	0.0049315777
0.40217391 	0.014797924 	-0.0039260521 	2.9788804e-05 	0.023251307 	-0.0001333927 	0.0050903821
0.41304348 	0.013767523 	-0.0031256036 	-3.0698235e-07 	0.019855411 	1.3576111e-06 	0.0024956725
0.42391304 	0.012989556 	-0.0025025219 	4.548314e-06 	0.017396324 	-1.7413045e-05 	0.0040254314
0.43478261 	0.012425909 	-0.0019790542 	3.0151215e-05 	0.015592675 	-0.00011543277 	0.0041237724
0.44565217 	0.011862263 	-0.0014555866 	5.8911939e-06 	0.013789026 	-2.2554209e-05 	0.0042221135
0.45652174 	0.011514011 	-0.001030939 	-2.0554126e-07 	0.012629911 	7.3687669e-07 	0.00091318992
0.4673913 	0.011311375 	-0.00068147257 	7.3740663e-06 	0.011978944 	-1.4681963e-05 	0.0038766032
0.47826087 	0.011173445 	-0.00034964784 	1.4583525e-05 	0.011566602 	-2.9036189e-05 	0.003947555
0.48913043 	0.011035516 	-1.7823124e-05 	1.1748121e-07 	0.011154261 	-2.3390822e-07 	0.0040185068
0.5 	0.011042558 	0.00026898178 	-4.0681953e-08 	0.011257374 	5.6849939e-08 	0.0017306618
0.51086957 	0.011079097 	0.00054364273 	6.5949791e-06 	0.011513042 	2.8199459e-06 	0.0041813822
0.52173913 	0.01113765 	0.00081352851 	8.9288143e-06 	0.011869861 	3.8178701e-06 	0.0042384769
0.5326087 	0.011206445 	0.0010806992 	1.1674663e-08 	0.012270168 	9.9909268e-09 	0.0032740692
0.54347826 	0.011325256 	0.0013393227 	1.8606414e-08 	0.012897904 	1.5922971e-08 	0.0029185836
0.55434783 	0.011473447 	0.0016014989 	7.4990275e-06 	0.013636881 	1.6375178e-05 	0.004715066
0.56521739 	0.0116319 	0.001862948 	4.3662992e-06 	0.014407458 	9.5344267e-06 	0.0047630794
0.57608696 	0.011811604 	0.0021211583 	1.121133e-07 	0.015238978 	2.9470751e-07 	0.0011043598
0.58695652 	0.012020294 	0.002387527 	1.5340805e-06 	0.016188437 	4.8868699e-06 	0.0053421583
0.59782609 	0.012263765 	0.0026594212 	8.0394767e-06 	0.017213977 	2.5610049e-05 	0.0053833027
0.60869565 	0.012512942 	0.0029315043 	5.5527887e-08 	0.018249462 	2.0048789e-07 	0.0041772273
0.61956522 	0.012797841 	0.003211757 	6.6401016e-08 	0.019380902 	2.397462e-07 	0.0044262847
0.63043478 	0.013122842 	0.0035064693 	8.615695e-06 	0.020612629 	3.2451626e-05 	0.0061263974
0.64130435 	0.013455425 	0.0038026238 	1.6711087e-07 	0.021856053 	6.2943495e-07 	0.0061619835
0.65217391 	0.013828728 	0.0041099781 	1.5460233e-07 	0.023185913 	6.4361206e-07 	0.0037511035
0.66304348 	0.014242219 	0.0044369659 	8.1429483e-06 	0.024634672 	3.3610843e-05 	0.0069799754
0.67391304 	0.014667955 	0.0047669021 	1.0466658e-08 	0.026100444 	4.6776798e-08 	0.0068346734
0.68478261 	0.015136331 	0.0051131643 	1.3168441e-07 	0.027665635 	5.8851402e-07 	0.0054135891
0.69565217 	0.015652723 	0.0054777261 	9.0893406e-06 	0.029345893 	3.9860014e-05 	0.0079321815
0.70652174 	0.016186178 	0.0058441875 	1.9091395e-07 	0.031037429 	8.9999753e-07 	0.0046661888
0.7173913 	0.016771481 	0.0062314079 	1.4412755e-06 	0.032863642 	6.6685236e-06 	0.0089491345
0.72826087 	0.017402942 	0.0066229385 	4.4172355e-06 	0.034736359 	2.0437757e-05 	0.0089723853
0.73913043 	0.018062276 	0.0070145905 	3.4991098e-07 	0.036619805 	1.7509153e-06 	0.0020798801
0.75 	0.018779371 	0.0074234232 	7.6567485e-06 	0.038644029 	3.7251226e-05 	0.010052809
0.76086957 	0.019510211 	0.0078219705 	1.5562925e-07 	0.040619071 	8.484188e-07 	0.0056014135
0.77173913 	0.020286715 	0.0082285296 	2.8322486e-06 	0.042683933 	1.4476296e-05 	0.011146304
0.7826087 	0.021070638 	0.0086202997 	3.8097826e-07 	0.044695242 	1.9472705e-06 	0.011163102
0.79347826 	0.021875606 	0.0090052776 	3.5424537e-07 	0.046706894 	1.942933e-06 	0.012188675
0.80434783 	0.022671789 	0.0093579024 	1.4131765e-06 	0.048604415 	7.7508626e-06 	0.012202431
0.81521739 	0.023467016 	0.0096911599 	-1.7759871e-09 	0.050443058 	9.4062026e-09 	0.012614766
0.82608696 	0.024227034 	0.0099710978 	7.4451672e-07 	0.052071186 	4.7246641e-06 	0.01312844
0.83695652 	0.024961923 	0.010209636 	1.3120669e-07 	0.053539446 	1.4986807e-06 	0.013877678
0.84782609 	0.025627628 	0.010382392 	-6.107199e-08 	0.054714185 	-2.3821667e-07 	0.012391104
0.85869565 	0.026220911 	0.010486097 	-9.5174121e-07 	0.055592579 	-7.2640183e-07 	0.0144247
0.86956522 	0.02671338 	0.010517758 	-6.408753e-07 	0.056098933 	-2.7722434e-06 	0.0018099264
0.88043478 	0.027089438 	0.010473953 	-2.4832894e-06 	0.056297616 	-8.1941409e-06 	0.014736622
0.89130435 	0.027334445 	0.010349073 	-7.6357238e-07 	0.056075269 	-3.0669561e-06 	0.014808583
0.90217391 	0.027398129 	0.010132468 	-6.1436059e-07 	0.055341949 	-2.9427801e-06 	0.0047522182
0.91304348 	0.027272131 	0.0098375511 	-3.3996234e-06 	0.054208186 	-1.5096499e-05 	0.014655978
0.92391304 	0.026940113 	0.0094629653 	-5.5619798e-06 	0.052603153 	-2.5785313e-05 	0.014288588
0.93478261 	0.026434168 	0.0089790385 	-1.4599358e-06 	0.050454146 	-7.0335407e-06 	0.013820995
0.94565217 	0.025535133 	0.0084132631 	-5.9014283e-06 	0.047703837 	-3.0571791e-05 	0.01335235
0.95652174 	0.024281182 	0.0078307813 	-3.7797479e-07 	0.044619638 	-2.2475214e-06 	0.0034938809
0.9673913 	0.022480117 	0.0072076088 	-1.1815001e-06 	0.041070789 	-6.9962943e-06 	0.011761957
0.97826087 	0.01984271 	0.0065389872 	-1.1584032e-07 	0.036838758 	-9.0648388e-07 	0.0028693814
0.98913043 	0.014772955 	0.0053400727 	-1.0875505e-08 	0.029243242 	-1.8405593e-07 	0.0017922358
