0.47777778 	0.032719026 	-0.012670317 	1.8500678e-08 	0.068001233 	-9.6565617e-08 	0.0033601169
0.48888889 	0.034593412 	-0.01307103 	2.6966249e-06 	0.070372005 	-1.5283557e-05 	0.005994858
0.5 	0.03109434 	-0.011911559 	5.7042942e-06 	0.063798289 	-3.1576561e-05 	0.0054408909
0.51111111 	0.02692083 	-0.010521388 	1.125616e-05 	0.055925282 	-6.2192806e-05 	0.0047800785
0.52222222 	0.023011341 	-0.0089432804 	2.4758924e-06 	0.04751497 	-1.3016192e-05 	0.003800299
0.53333333 	0.019410973 	-0.0073268274 	2.0952559e-05 	0.039099141 	-0.00010702994 	0.0032819465
0.54444444 	0.016487708 	-0.0057019924 	2.2649963e-05 	0.031093808 	-0.00010897905 	0.0027881949
0.55555556 	0.014398505 	-0.0041396522 	1.5895163e-05 	0.023993132 	-7.1198552e-05 	0.0023565277
0.56666667 	0.013028113 	-0.0027752186 	1.3055489e-05 	0.018411672 	-5.2685273e-05 	0.0020123738
0.57777778 	0.012195679 	-0.0016817437 	1.2973501e-05 	0.014657358 	-4.3254771e-05 	0.0017747801
0.58888889 	0.011735759 	-0.00083329612 	1.4448596e-05 	0.01258104 	-3.1300771e-05 	0.0016401401
0.6 	0.011514088 	-0.00015028367 	1.0865511e-05 	0.011750246 	-7.6995854e-06 	0.0015912937
0.61111111 	0.011412198 	0.00041722631 	3.5694349e-06 	0.011740504 	2.1499792e-06 	0.0015896386
0.62222222 	0.011362035 	0.00088869609 	-5.8121609e-08 	0.012242777 	-8.6196352e-08 	0.00088819341
0.63333333 	0.011347655 	0.001268043 	5.4959631e-06 	0.013022825 	8.8422533e-06 	0.0016140581
0.64444444 	0.01135693 	0.0016021637 	5.2985686e-06 	0.013867313 	1.2337111e-05 	0.0016531103
0.65555556 	0.011387115 	0.0019008836 	-6.1459917e-08 	0.014746143 	-1.9234275e-07 	0.00054019115
0.66666667 	0.011449605 	0.0021535916 	4.3942851e-06 	0.015617521 	1.2422593e-05 	0.0017054602
0.67777778 	0.011527296 	0.0023898504 	2.3163903e-06 	0.016472408 	7.3652801e-06 	0.0017654078
0.68888889 	0.01162445 	0.0026050411 	1.4582517e-06 	0.017302125 	4.6367109e-06 	0.0017669895
0.7 	0.011743195 	0.0028022983 	3.5803172e-06 	0.018102229 	1.2314817e-05 	0.0018353344
0.71111111 	0.011872126 	0.0029914772 	2.405815e-07 	0.018887266 	8.2750127e-07 	0.0018368309
0.72222222 	0.012027247 	0.0031643234 	3.7212874e-06 	0.019636545 	1.350533e-05 	0.0019143313
0.73333333 	0.012187679 	0.0033335202 	7.6845898e-08 	0.020376001 	2.7888982e-07 	0.0019157409
0.74444444 	0.012382269 	0.0034967204 	3.4488364e-06 	0.021112637 	1.3165894e-05 	0.0020022999
0.75555556 	0.01258215 	0.0036582638 	-6.0758338e-12 	0.02184517 	-3.0715563e-11 	0.0020018804
0.76666667 	0.012825778 	0.0038255577 	3.6749812e-06 	0.022618976 	1.4711486e-05 	0.0020970613
0.77777778 	0.013078004 	0.0039937712 	1.3274449e-08 	0.023395597 	5.504173e-08 	0.00025209401
0.78888889 	0.013378191 	0.004178429 	3.2649864e-06 	0.024261612 	1.3525637e-05 	0.0021983759
0.8 	0.013698426 	0.0043708533 	1.1283548e-06 	0.025162284 	4.8166202e-06 	0.0023074595
0.81111111 	0.014063695 	0.0045829337 	1.4540171e-06 	0.026157881 	6.2067781e-06 	0.0023093574
0.82222222 	0.014480683 	0.0048201638 	4.5638587e-06 	0.027275724 	2.0021618e-05 	0.0024308473
0.83333333 	0.014938276 	0.0050771823 	6.0228026e-07 	0.028490386 	2.7115224e-06 	0.0025670218
0.84444444 	0.015474621 	0.0053721403 	1.5096016e-06 	0.029893362 	6.7963684e-06 	0.0025696963
0.85555556 	0.016095974 	0.0057059194 	5.6100568e-06 	0.031495181 	2.5906245e-05 	0.0027230191
0.86666667 	0.016802896 	0.0060759829 	4.9507936e-06 	0.033287712 	2.3443873e-05 	0.002894138
0.87777778 	0.017614971 	0.0064875286 	2.0820714e-06 	0.035303984 	1.0107842e-05 	0.0030829846
0.88888889 	0.018554646 	0.0069441679 	2.1263991e-08 	0.037571893 	1.0892755e-07 	0.0027336873
0.9 	0.019644547 	0.0074463368 	1.0712019e-07 	0.04010532 	5.6175799e-07 	0.00048079588
0.91111111 	0.020892256 	0.0079906005 	1.0300874e-07 	0.042905072 	5.5305484e-07 	0.00049349589
0.92222222 	0.022302103 	0.0085706025 	1.2228018e-09 	0.045951387 	6.7219941e-09 	0.0039246866
0.93333333 	0.023860747 	0.0091732582 	2.8968914e-06 	0.049172401 	1.5816803e-05 	0.0042014729
0.94444444 	0.025521715 	0.0097821833 	7.0233209e-06 	0.052498907 	3.8633722e-05 	0.004427093
0.95555556 	0.027201925 	0.010393416 	9.4292261e-07 	0.05581645 	5.0990538e-06 	0.0046409265
0.96666667 	0.028878499 	0.01084051 	1.9770053e-06 	0.058531269 	1.3915639e-05 	0.0049757399
0.97777778 	0.030132649 	0.011195177 	1.0593845e-07 	0.060620584 	8.9158389e-07 	0.0051838379
0.98888889 	0.029063394 	0.010893352 	-3.446344e-06 	0.058958032 	-1.9689363e-05 	0.0049883908
