0.47777778 	1.8133435 	0.00031072209 	-2.9727587e-07
0.48888889 	2.3435084 	9.8774718e-05 	1.1674245e-07
0.5 	2.5861442 	0.00024291234 	2.22217e-07
0.51111111 	2.7454615 	0.00040178851 	1.0873943e-06
0.52222222 	2.8612981 	0.00060751248 	-7.2901991e-07
0.53333333 	2.9494518 	0.00078832252 	1.6734501e-06
0.54444444 	3.0184655 	0.0010077609 	2.0169033e-06
0.55555556 	3.0720577 	0.0012249746 	1.12554e-06
0.56666667 	3.11229 	0.0013809762 	6.4060791e-07
0.57777778 	3.1403156 	0.0014674341 	3.2360127e-07
0.58888889 	3.1575848 	0.0014896705 	-3.4252155e-07
0.6 	3.1664118 	0.0014649943 	-9.5472401e-07
0.61111111 	3.1693376 	0.001404164 	-2.5885253e-07
0.62222222 	3.1679994 	0.0012819386 	-2.9306225e-06
0.63333333 	3.1640852 	0.0012168244 	-1.2506958e-06
0.64444444 	3.1586951 	0.0011044271 	-1.7977023e-06
0.65555556 	3.1522335 	0.00094882464 	-3.3435668e-06
0.66666667 	3.1448981 	0.00085754014 	-1.9949089e-06
0.67777778 	3.1369838 	0.00072630938 	-8.891934e-07
0.68888889 	3.1284809 	0.00059591841 	-2.280431e-07
0.7 	3.1193724 	0.00046473046 	-2.3689829e-06
0.71111111 	3.1098456 	0.00032201087 	-1.594723e-06
0.72222222 	3.0998301 	0.00021162724 	-2.8692474e-06
0.73333333 	3.0894694 	7.6185302e-05 	-1.8298941e-06
0.74444444 	3.0783002 	-2.4771086e-05 	-2.6743797e-06
0.75555556 	3.0668387 	-0.0001508517 	-1.8993629e-06
0.76666667 	3.0541417 	-0.00024268143 	-2.5611284e-06
0.77777778 	3.0410751 	-0.00036575082 	-3.0109052e-06
0.78888889 	3.0265982 	-0.00043607 	-1.6470367e-06
0.8 	3.0114531 	-0.0005197125 	-6.8030883e-08
0.81111111 	2.9948719 	-0.00059482429 	-2.2845501e-07
0.82222222 	2.9766834 	-0.00065472418 	-9.1420751e-07
0.83333333 	2.9571682 	-0.00071080963 	-7.6726697e-07
0.84444444 	2.9353086 	-0.0007430412 	-3.340813e-08
0.85555556 	2.9107714 	-0.00076198517 	-1.2131688e-07
0.86666667 	2.8835558 	-0.00076701753 	1.3090134e-07
0.87777778 	2.8529883 	-0.00075659859 	3.2987815e-08
0.88888889 	2.8180289 	-0.00073895968 	-1.1639219e-06
0.9 	2.7778083 	-0.00069939649 	-1.5530192e-06
0.91111111 	2.7311211 	-0.00064024399 	-1.4090542e-06
0.92222222 	2.6763364 	-0.0005647699 	-7.6943466e-07
0.93333333 	2.6110644 	-0.00047643865 	2.4722912e-07
0.94444444 	2.5318862 	-0.00039317107 	5.3947613e-07
0.95555556 	2.4342326 	-0.0003329624 	-1.4641323e-07
0.96666667 	2.3063235 	-0.00019901641 	1.4417498e-07
0.97777778 	2.1177776 	-0.00013837897 	8.6585074e-08
0.98888889 	1.7686765 	-0.00010004263 	-1.4209976e-06
