0.47777778 	0.032626702 	-0.012631848 	2.3982581e-07 	0.067800473 	-1.2491792e-06 	0.0033519338
0.48888889 	0.034611985 	-0.013070349 	3.2269966e-08 	0.070423454 	-1.191013e-07 	0.023765317
0.5 	0.031206183 	-0.011945509 	-4.4831602e-08 	0.064039224 	3.1816542e-07 	0.021887735
0.51111111 	0.027147118 	-0.0106348 	-1.044714e-07 	0.056538803 	6.1113744e-07 	0.021684356
0.52222222 	0.023280363 	-0.0090462725 	-4.8600187e-07 	0.048090833 	2.724613e-06 	0.0060926983
0.53333333 	0.019692072 	-0.0074942928 	-2.3431767e-08 	0.039952244 	1.2763679e-07 	0.018975329
0.54444444 	0.016712021 	-0.0059139712 	3.3522391e-07 	0.032061493 	-1.6328208e-06 	0.01663964
0.55555556 	0.01459539 	-0.004358211 	-3.5933507e-07 	0.02490532 	1.5503043e-06 	0.010863718
0.56666667 	0.013178075 	-0.0029784803 	-4.287493e-07 	0.019130907 	1.6171436e-06 	0.0086484571
0.57777778 	0.012291789 	-0.0018464686 	-2.2432606e-07 	0.015049742 	6.5470697e-07 	0.008807812
0.58888889 	0.01177596 	-0.00097548655 	1.4230248e-06 	0.01266864 	-3.5086844e-06 	0.0097646254
0.6 	0.011551498 	-0.00027831989 	-2.3785639e-08 	0.011685165 	3.7532263e-08 	0.0092158246
0.61111111 	0.011446857 	0.00029619971 	-4.7732302e-07 	0.011655398 	1.8256645e-08 	0.0046199982
0.62222222 	0.01138637 	0.00077829113 	-7.0752459e-07 	0.012091857 	-9.1387531e-07 	0.00088815517
0.63333333 	0.011354117 	0.0011832955 	-1.2882209e-07 	0.012790375 	-2.9688119e-07 	0.0075804721
0.64444444 	0.011352347 	0.0015267475 	-7.9408319e-08 	0.013637998 	-1.8300306e-07 	0.0084982191
0.65555556 	0.011384235 	0.0018265892 	-4.9914941e-07 	0.014516123 	-1.5118955e-06 	0.00053789681
0.66666667 	0.011431996 	0.0020944605 	-4.9817949e-08 	0.015400005 	-1.758009e-07 	0.0088404591
0.67777778 	0.011510909 	0.0023339778 	-1.774976e-07 	0.016265626 	-6.2636537e-07 	0.0061015733
0.68888889 	0.011609519 	0.0025555836 	-1.9130054e-07 	0.017109192 	-7.4230775e-07 	0.0045989903
0.7 	0.011721296 	0.0027608347 	-3.2976126e-08 	0.017937235 	-1.27958e-07 	0.0097175718
0.71111111 	0.011864408 	0.0029543788 	-1.9487227e-07 	0.018733514 	-8.084693e-07 	0.0023824583
0.72222222 	0.012009197 	0.0031375379 	1.1120623e-07 	0.01952805 	4.0525988e-07 	0.011213405
0.73333333 	0.012190502 	0.003311246 	-1.1612538e-07 	0.020278304 	-5.1256955e-07 	0.0021178514
0.74444444 	0.012378465 	0.0034862666 	1.8219155e-07 	0.021074447 	7.0141771e-07 	0.011740259
0.75555556 	0.01260108 	0.003652721 	-1.943148e-08 	0.021817106 	-1.0932822e-07 	0.0020010212
0.76666667 	0.012843474 	0.0038310316 	5.7009462e-07 	0.02265427 	2.3046485e-06 	0.012311803
0.77777778 	0.013118607 	0.0040071828 	1.0144299e-07 	0.023451353 	4.2118237e-07 	0.00025282992
0.78888889 	0.013420694 	0.0042018807 	8.612733e-08 	0.024380548 	3.6041673e-07 	0.012924238
0.8 	0.013763055 	0.004404573 	1.3341949e-07 	0.025317642 	5.8818545e-07 	0.0057935328
0.81111111 	0.014144553 	0.0046280813 	1.7555131e-07 	0.026369868 	7.9831867e-07 	0.0069334539
0.82222222 	0.014569539 	0.0048735074 	4.0733306e-07 	0.027539735 	1.8035277e-06 	0.014335544
0.83333333 	0.015060054 	0.0051445817 	3.4354833e-07 	0.028808146 	1.6025509e-06 	0.0041723895
0.84444444 	0.01561535 	0.005449513 	3.2125411e-07 	0.030267849 	1.5347654e-06 	0.0066626727
0.85555556 	0.016246055 	0.0057905588 	3.6188838e-07 	0.031923574 	1.6848873e-06 	0.016091791
0.86666667 	0.01697697 	0.0061695218 	8.8270981e-08 	0.033764062 	4.3171698e-07 	0.014790115
0.87777778 	0.017819945 	0.0065878605 	3.8895646e-07 	0.035814278 	1.9472876e-06 	0.0080753072
0.88888889 	0.01878395 	0.0070469189 	6.1557399e-07 	0.038099091 	3.154569e-06 	0.00276199
0.9 	0.019887236 	0.0075480956 	6.9067386e-07 	0.040639068 	3.6227451e-06 	0.00048595964
0.91111111 	0.021140765 	0.0080876279 	6.571155e-07 	0.04342605 	3.5276353e-06 	0.00049853823
0.92222222 	0.022546929 	0.0086592348 	5.1291814e-07 	0.046439311 	2.8180013e-06 	0.0039568781
0.93333333 	0.024092739 	0.0092556822 	2.3638438e-07 	0.049646237 	1.3290491e-06 	0.014053317
0.94444444 	0.025734134 	0.0098546786 	1.3471694e-06 	0.052960501 	7.4299378e-06 	0.026067379
0.95555556 	0.027370433 	0.010441165 	2.0701609e-07 	0.056109786 	1.2463504e-06 	0.0088016818
0.96666667 	0.029073131 	0.010873878 	1.4915326e-07 	0.058830677 	1.0664294e-06 	0.02921601
0.97777778 	0.030217726 	0.011218906 	4.1828473e-08 	0.060790823 	2.7150321e-07 	0.018996787
0.98888889 	0.029152527 	0.010919178 	8.71024e-09 	0.059166751 	5.8184959e-08 	0.021821662
