0.47777778 	1.8310194 	0.00039137809 	-2.6213991e-08
0.48888889 	2.3684745 	0.00032499798 	-5.7271041e-08
0.5 	2.6154911 	0.00061514873 	-1.059584e-07
0.51111111 	2.7776371 	0.00089883528 	-1.3239221e-07
0.52222222 	2.8952153 	0.0012543276 	-3.8378601e-07
0.53333333 	2.9844589 	0.0015568768 	-7.8980217e-08
0.54444444 	3.0522053 	0.0019400183 	-7.6315484e-08
0.55555556 	3.1022612 	0.0022186799 	-2.4884232e-07
0.56666667 	3.1368122 	0.002396463 	-2.5812324e-07
0.57777778 	3.1574311 	0.0024798236 	-1.6551451e-07
0.58888889 	3.1670355 	0.0025004372 	-1.2313684e-08
0.6 	3.1687299 	0.0024686664 	-6.6766795e-08
0.61111111 	3.1662889 	0.0023967666 	-2.6836451e-07
0.62222222 	3.1617155 	0.0023068869 	-3.9078672e-07
0.63333333 	3.1559557 	0.0022073865 	-1.0097463e-07
0.64444444 	3.1490467 	0.0020873018 	-7.6016275e-08
0.65555556 	3.141212 	0.0019520329 	-2.883342e-07
0.66666667 	3.1333201 	0.001820244 	-5.2311599e-08
0.67777778 	3.1246193 	0.0016774892 	-1.2058265e-07
0.68888889 	3.1155395 	0.0015332135 	-1.2813819e-07
0.7 	3.1063181 	0.0013902929 	-3.9736864e-08
0.71111111 	3.0961918 	0.0012400447 	-1.341997e-07
0.72222222 	3.0863423 	0.0010972963 	-1.3160898e-08
0.73333333 	3.0755249 	0.00095107195 	-9.6335883e-08
0.74444444 	3.0645912 	0.00080646279 	-7.1827845e-09
0.75555556 	3.0530043 	0.00066649484 	-4.9967854e-08
0.76666667 	3.0407168 	0.0005215273 	-1.2438879e-07
0.77777778 	3.027837 	0.00038768286 	1.1586222e-09
0.78888889 	3.0140658 	0.00025057107 	5.1296314e-09
0.8 	2.9994377 	0.00012637702 	3.885789e-08
0.81111111 	2.9837302 	7.0360597e-06 	6.761552e-08
0.82222222 	2.9668568 	-0.00010597674 	3.9433432e-09
0.83333333 	2.9482892 	-0.00020071577 	1.3883925e-07
0.84444444 	2.9278812 	-0.0002868053 	1.4440145e-07
0.85555556 	2.9053556 	-0.00036026784 	1.4234627e-08
0.86666667 	2.8798746 	-0.00041240565 	6.3285828e-08
0.87777778 	2.8509442 	-0.00044523527 	1.9229167e-07
0.88888889 	2.8179007 	-0.00045931155 	2.9764038e-07
0.9 	2.7796108 	-0.00045330851 	3.4071601e-07
0.91111111 	2.7347202 	-0.00042685939 	3.3425349e-07
0.92222222 	2.6814678 	-0.00038272725 	2.7307849e-07
0.93333333 	2.6175334 	-0.00032194558 	1.4310628e-07
0.94444444 	2.5397529 	-0.00024135127 	4.2649233e-08
0.95555556 	2.4410471 	-0.00020810065 	1.2374444e-07
0.96666667 	2.3111895 	-8.2872201e-05 	3.6227231e-09
0.97777778 	2.1228524 	-5.5975334e-05 	3.0079419e-08
0.98888889 	1.772941 	-1.9107406e-05 	7.7080235e-09
