0.36082474 	0.023063423 	-0.011515837 	1.5476604e-06 	0.040266457 	-4.8250009e-06 	0.023216343
0.37113402 	0.0099183478 	-0.00053148876 	-1.1244666e-06 	0.010750499 	-3.2265614e-06 	0.0076113695
0.3814433 	0.0098361777 	0.00042558157 	-6.1190624e-07 	0.013186494 	-8.172363e-06 	0.005295369
0.39175258 	0.009500196 	0.00068396321 	-1.7256572e-07 	0.015125098 	-8.6100243e-06 	0.003688568
0.40206186 	0.0091809818 	0.00083091461 	5.0574517e-07 	0.016187356 	2.4211483e-06 	0.0051884155
0.41237113 	0.0091038508 	0.00087628965 	6.5147554e-08 	0.016508449 	-9.0600179e-07 	0.0041675677
0.42268041 	0.0090848007 	0.00089740711 	-7.7642848e-08 	0.016648022 	-2.1604829e-06 	0.0031949841
0.43298969 	0.0090897008 	0.0009127874 	-1.6830582e-07 	0.016770208 	-3.3228848e-06 	0.0022788441
0.44329897 	0.0091103576 	0.00092597616 	-2.9337541e-07 	0.016916851 	-4.4148626e-06 	0.0014146852
0.45360825 	0.0091443475 	0.00093877454 	-2.1515829e-07 	0.017091487 	-2.8107706e-06 	0.00059441551
0.46391753 	0.0091890102 	0.0009516267 	-7.3113569e-08 	0.017292111 	-7.9969763e-07 	0.00026162342
0.4742268 	0.0092442325 	0.00096414658 	-8.5243629e-08 	0.017520061 	-9.3237309e-07 	0.0010144198
0.48453608 	0.0093083074 	0.00097601327 	-3.3116396e-07 	0.017767585 	-2.900258e-06 	0.0017378774
0.49484536 	0.0093777602 	0.00098730792 	-8.205779e-08 	0.018026818 	-5.6355385e-07 	0.0024509789
0.50515464 	0.0094529539 	0.00099717607 	-1.0389966e-08 	0.018297259 	-7.13559e-08 	0.0030911785
0.51546392 	0.0095340827 	0.0010061944 	-2.8906069e-07 	0.018580277 	-1.5598476e-06 	0.0037479719
0.5257732 	0.0096178588 	0.0010116198 	1.1871637e-06 	0.01885576 	-9.408237e-07 	0.00026586461
0.53608247 	0.0097060544 	0.0010209666 	-2.7692299e-07 	0.019163286 	-1.194604e-06 	0.0049374839
0.54639175 	0.0097965625 	0.0010245468 	1.0861102e-06 	0.019452043 	-7.3395844e-07 	0.0017832343
0.55670103 	0.0098889038 	0.0010319552 	-1.9315016e-07 	0.019765825 	-7.019075e-07 	0.0060283003
0.56701031 	0.0099831933 	0.0010334331 	1.4222819e-06 	0.02005909 	-8.2957042e-07 	0.0016715873
0.57731959 	0.010077783 	0.0010408072 	-2.0955599e-07 	0.020381647 	-6.8672013e-07 	0.0070301771
0.58762887 	0.010173293 	0.0010405355 	2.1434894e-06 	0.020673715 	-1.1027558e-06 	9.2963128e-05
0.59793814 	0.010268132 	0.0010495228 	-1.1187689e-07 	0.021005892 	-3.6826665e-07 	0.0079541135
0.60824742 	0.010362283 	0.001051464 	1.4891164e-06 	0.021306867 	-6.9556919e-07 	0.0031237814
0.6185567 	0.01045582 	0.0010583727 	7.1885141e-07 	0.021628022 	-3.357769e-07 	0.0062443934
0.62886598 	0.010547393 	0.0010655405 	3.9072314e-07 	0.021945273 	-1.7092372e-07 	0.0076687525
0.63917526 	0.010637214 	0.0010701912 	2.1931073e-06 	0.022243451 	-9.5938537e-07 	0.0016029465
0.64948454 	0.01072607 	0.0010824612 	-2.1955852e-08 	0.022574784 	-1.7227297e-07 	0.0097719855
0.65979381 	0.010808392 	0.001091989 	1.4574404e-06 	0.022864495 	-6.06363e-07 	0.0046330447
0.67010309 	0.010891694 	0.0011049535 	1.5686431e-06 	0.023171918 	-6.5262852e-07 	0.0045184165
0.68041237 	0.010974965 	0.001122158 	1.2505929e-09 	0.023497501 	-1.8757048e-07 	0.01052432
0.69072165 	0.011046203 	0.0011383113 	2.2753299e-06 	0.02376114 	-9.0950639e-07 	0.0019630132
0.70103093 	0.011125784 	0.001161485 	7.3486841e-07 	0.024088433 	-2.9374532e-07 	0.0081389632
0.71134021 	0.011197531 	0.0011869479 	8.7990739e-07 	0.024383547 	-3.3752367e-07 	0.0075231373
0.72164948 	0.011263798 	0.0012149227 	1.9936503e-06 	0.024658728 	-7.6474429e-07 	0.0031620559
0.73195876 	0.011336055 	0.0012496535 	7.1569387e-08 	0.024985541 	-2.1989359e-07 	0.011393258
0.74226804 	0.011392958 	0.00128726 	2.4483054e-06 	0.025230409 	-8.7147281e-07 	0.00092755911
0.75257732 	0.011460718 	0.0013322316 	1.1617998e-08 	0.025559781 	-4.1354193e-09 	0.011575682
0.7628866 	0.011514832 	0.0013833371 	1.7681316e-06 	0.025810453 	-5.5111784e-07 	0.0035111828
0.77319588 	0.011575434 	0.0014406014 	3.6817496e-07 	0.026117149 	-1.1475831e-07 	0.010034838
0.78350515 	0.011628554 	0.0015064557 	1.448683e-06 	0.026375042 	-3.6068055e-07 	0.0045910122
0.79381443 	0.011686183 	0.0015791954 	3.1127233e-07 	0.026674466 	-7.7497887e-08 	0.010233285
0.80412371 	0.011738721 	0.0016625713 	1.5074374e-06 	0.026926685 	-2.5230074e-07 	0.0037748979
0.81443299 	0.011797809 	0.0017537706 	1.8203479e-07 	0.027233427 	-1.5976178e-07 	0.011728753
0.82474227 	0.011851982 	0.0018579935 	1.9516626e-06 	0.027469026 	-1.3266837e-07 	0.00063438272
0.83505155 	0.011916632 	0.0019721326 	3.2077152e-07 	0.027787934 	-2.1676519e-07 	0.011596363
0.84536082 	0.011980913 	0.0021008885 	9.3730779e-07 	0.028048045 	4.2831248e-08 	0.0058680119
0.8556701 	0.012053131 	0.0022418609 	9.1796393e-07 	0.028329981 	1.4959218e-07 	0.0054477546
0.86597938 	0.012134656 	0.0023964069 	1.2430089e-06 	0.028640267 	-4.8015617e-07 	0.011385631
0.87628866 	0.012222926 	0.0025703432 	6.8426064e-07 	0.028913287 	1.8511989e-07 	0.0064654317
0.88659794 	0.012329053 	0.0027621031 	1.1281177e-06 	0.029181817 	1.3844167e-07 	0.0022553033
0.89690722 	0.012485154 	0.0029688876 	1.6105274e-07 	0.029450851 	-5.2930195e-08 	0.0095405941
0.90721649 	0.012770473 	0.0031777603 	1.3369308e-06 	0.029542051 	-1.7181278e-06 	0.010996917
0.91752577 	0.013074418 	0.0034006996 	7.8018871e-07 	0.029632344 	-9.3586637e-07 	0.01093336
0.92783505 	0.013405191 	0.0036336127 	1.1208905e-07 	0.029719344 	-1.2843814e-07 	0.010846652
0.93814433 	0.01376134 	0.0038799769 	3.7580044e-08 	0.029797243 	-4.1178786e-08 	0.010736802
0.94845361 	0.014127896 	0.0041341801 	4.6245194e-07 	0.02986598 	-9.5816225e-07 	0.010594214
0.95876289 	0.014620151 	0.0043461968 	7.3510147e-08 	0.029736871 	-1.4875989e-07 	0.010427063
0.96907216 	0.014990469 	0.0046414001 	5.9114317e-07 	0.029834864 	-2.7304914e-07 	0.010271396
0.97938144 	0.015305582 	0.0050899604 	4.7279844e-07 	0.030448975 	1.0526522e-06 	0.0044464971
0.98969072 	0.015116469 	0.0058601101 	2.5357173e-08 	0.032140743 	1.204195e-07 	0.0099460242
