0 	0.098833594 	-6.7122745e-15 	-2.4397341e-21 	4.5586351e-28 	1.6569432e-34 	6.0225499e-41
0.010869565 	0.090860247 	-0.006554219 	2.9455494e-06 	0.12262116 	-7.9973006e-05 	0.089947724
0.02173913 	0.087370163 	-0.0081647562 	2.5721815e-06 	0.12620968 	-6.2651079e-05 	0.080245856
0.032608696 	0.084263477 	-0.0097242584 	-8.4556526e-07 	0.12990121 	-3.5585583e-05 	0.044732959
0.043478261 	0.081333327 	-0.011333128 	5.3415683e-06 	0.13385716 	-0.00013270885 	0.063151667
0.054347826 	0.078462453 	-0.012926077 	-2.5356253e-06 	0.13785753 	-6.1067755e-05 	0.0064263783
0.065217391 	0.075748773 	-0.014543945 	-1.5094984e-06 	0.14166872 	-2.7091466e-05 	0.025019339
0.076086957 	0.073441887 	-0.015873216 	-2.4782303e-06 	0.14447823 	-3.1166078e-05 	0.012054323
0.086956522 	0.071104556 	-0.0171965 	5.7867146e-06 	0.14687043 	-0.00011217508 	0.035279726
0.097826087 	0.068870823 	-0.018362845 	1.6608749e-05 	0.14821228 	-0.0002784418 	0.029011116
0.10869565 	0.066784983 	-0.019360918 	-4.4124343e-07 	0.14845773 	-2.4790182e-06 	0.019568598
0.11956522 	0.065158519 	-0.020223491 	8.693339e-06 	0.14654758 	-0.00013934023 	0.018134909
0.13043478 	0.063676217 	-0.020915534 	2.733458e-05 	0.14324495 	-0.00037502916 	0.012940137
0.14130435 	0.062081101 	-0.021441553 	-9.5517784e-07 	0.13915838 	-2.3084174e-06 	0.0019520327
0.15217391 	0.060019019 	-0.021536498 	4.4672561e-05 	0.13396341 	-0.00045976691 	0.0041135935
0.16304348 	0.057803088 	-0.021487738 	1.750223e-05 	0.12840127 	-0.00013949102 	0.00025281025
0.17391304 	0.055200358 	-0.02103697 	4.8328742e-05 	0.122016 	-0.00038517524 	0.003634434
0.18478261 	0.052453279 	-0.020418223 	2.0568072e-05 	0.11534316 	-0.00013105062 	0.0061778643
0.19565217 	0.049415111 	-0.019415583 	5.359176e-05 	0.10812302 	-0.0003414629 	0.0089469142
0.20652174 	0.046296208 	-0.018301345 	6.3777197e-06 	0.10075233 	-3.4735545e-05 	0.009982276
0.2173913 	0.043068333 	-0.016915709 	6.6946653e-05 	0.093288304 	-0.00036461754 	0.012146872
0.22826087 	0.039809846 	-0.015478944 	-2.9042638e-06 	0.085735853 	2.1838385e-06 	0.0022011173
0.23913043 	0.036816606 	-0.014035474 	6.811241e-05 	0.078627799 	-0.00035042691 	0.013404494
0.25 	0.033873615 	-0.012583695 	-4.6719927e-07 	0.071459648 	3.5297756e-07 	0.012739266
0.26086957 	0.031350157 	-0.011278255 	1.7894374e-05 	0.064730114 	-9.5429919e-05 	0.013294994
0.27173913 	0.029026841 	-0.010052964 	2.5738971e-05 	0.058404884 	-0.00013726482 	0.014457999
0.2826087 	0.026898287 	-0.008942529 	-1.3600422e-06 	0.052413696 	-9.4885218e-08 	0.0033078847
0.29347826 	0.025088917 	-0.008007769 	2.946155e-05 	0.047306662 	-0.0001633509 	0.013268223
0.30434783 	0.023344918 	-0.0071089063 	-3.5506815e-08 	0.042430513 	-2.9498056e-07 	0.012997427
0.31521739 	0.021812037 	-0.0063693952 	-2.0497151e-07 	0.038347174 	-1.7028452e-06 	0.0068404345
0.32608696 	0.020450351 	-0.0057064612 	2.4895576e-05 	0.034758134 	-0.00013787655 	0.01243794
0.33695652 	0.019174467 	-0.0050857989 	1.7621004e-07 	0.031415403 	-2.0885314e-06 	0.0084189205
0.34782609 	0.018060064 	-0.0045570324 	2.3328217e-07 	0.028561399 	-2.7649794e-06 	0.0060163775
0.35869565 	0.017079315 	-0.0040754632 	1.5085288e-05 	0.026032611 	-8.1736866e-05 	0.011303022
0.36956522 	0.016200413 	-0.0036255313 	3.300689e-07 	0.02372055 	-1.9017458e-06 	0.0080428666
0.38043478 	0.01544926 	-0.0032273937 	7.2607652e-07 	0.021711188 	-4.1834083e-06 	0.0033319826
0.39130435 	0.014781059 	-0.0028590507 	4.9088752e-06 	0.019912217 	-2.4548109e-05 	0.010242783
0.40217391 	0.014237859 	-0.0025127435 	1.0603942e-07 	0.018345551 	-3.8053325e-07 	0.0096903935
0.41304348 	0.013832222 	-0.0021964909 	1.3628462e-06 	0.017027923 	-4.8907126e-06 	0.00014904561
0.42391304 	0.013462182 	-0.0019058318 	3.16583e-07 	0.015847791 	-1.1360904e-06 	0.0074691429
0.43478261 	0.013184786 	-0.0016235598 	4.8407168e-06 	0.014870379 	-1.9192821e-05 	0.0098271132
0.44565217 	0.013031247 	-0.0013537231 	7.9781259e-07 	0.014149584 	-1.4872515e-06 	0.0048678947
0.45652174 	0.012928001 	-0.0010963115 	1.1664213e-06 	0.013551742 	-2.1743976e-06 	0.0025306141
0.4673913 	0.01283123 	-0.00085132986 	1.0480518e-07 	0.013002156 	-1.9537379e-07 	0.0091865436
0.47826087 	0.012800239 	-0.00060539984 	4.7462853e-07 	0.012690661 	-1.0541103e-06 	0.0099801992
0.48913043 	0.012850865 	-0.00035848098 	1.1008567e-06 	0.012641271 	-4.3945749e-07 	0.0034206686
0.5 	0.012904112 	-0.00011316093 	1.1290027e-06 	0.012616794 	-4.5069323e-07 	0.00343408
0.51086957 	0.012956699 	0.0001305511 	5.6234567e-08 	0.012606524 	-2.2448608e-08 	0.010191754
0.52173913 	0.013035325 	0.00037089525 	1.6683112e-07 	0.012802074 	1.2879062e-07 	0.0095335605
0.5326087 	0.01313958 	0.00060988523 	1.2127819e-06 	0.013151662 	9.3624577e-07 	0.0025906108
0.54347826 	0.013244786 	0.00085681697 	9.3131122e-07 	0.013531112 	7.189555e-07 	0.0048070424
0.55434783 	0.013352168 	0.0011068204 	1.1656154e-06 	0.013938491 	1.1200603e-06 	0.011486101
0.56521739 	0.013481227 	0.0013406282 	4.5655036e-07 	0.014457274 	8.268615e-07 	0.0076975394
0.57608696 	0.013620424 	0.0015698062 	1.3574507e-06 	0.015013202 	2.4584883e-06 	0.00013204931
0.58695652 	0.013760511 	0.0018122692 	4.1091984e-07 	0.01563438 	7.4421975e-07 	0.0087274377
0.59782609 	0.013911505 	0.0020467591 	4.224961e-08 	0.01627153 	1.2493086e-07 	0.012024617
0.60869565 	0.014091093 	0.0022668792 	8.2259086e-07 	0.016935082 	2.4323771e-06 	0.0032531762
0.61956522 	0.014271389 	0.0024956902 	5.9829675e-07 	0.017650546 	1.7691459e-06 	0.0062220998
0.63043478 	0.014456643 	0.0027276658 	1.3085812e-06 	0.018398865 	3.1939763e-06 	0.013488346
0.64130435 	0.014672183 	0.0029512749 	5.4841039e-07 	0.019155516 	2.4127936e-06 	0.0052397557
0.65217391 	0.014892198 	0.0031811158 	5.6514855e-07 	0.019959057 	2.4864351e-06 	0.0053618248
0.66304348 	0.015116645 	0.0034183254 	1.4385243e-06 	0.020816527 	4.2055004e-06 	0.014526115
0.67391304 	0.015372965 	0.0036567105 	4.6974752e-07 	0.021689755 	2.9203288e-06 	0.0053533321
0.68478261 	0.015634831 	0.0039037877 	4.1917454e-07 	0.022625442 	2.6059264e-06 	0.0068123478
0.69565217 	0.015905604 	0.0041596551 	1.1642339e-07 	0.023623719 	3.8765831e-07 	0.015631285
0.70652174 	0.016214536 	0.0044251598 	5.4263273e-07 	0.024652019 	4.4332405e-06 	0.0028870444
0.7173913 	0.016527938 	0.004704488 	2.1223485e-07 	0.025787935 	1.7339318e-06 	0.011448586
0.72826087 	0.016871514 	0.0049971452 	2.0580313e-07 	0.026986455 	1.9699818e-06 	0.011713881
0.73913043 	0.017245622 	0.0053039998 	5.4257442e-07 	0.028247535 	5.1936127e-06 	0.0036164648
0.75 	0.01763189 	0.0056289211 	1.351179e-06 	0.029645194 	5.3617305e-06 	0.018134427
0.76086957 	0.01808274 	0.0059767726 	6.5370261e-07 	0.031114185 	6.4739912e-06 	0.0032251903
0.77173913 	0.018547321 	0.0063458421 	1.5135171e-07 	0.032745362 	1.4989226e-06 	0.015882189
0.7826087 	0.019081251 	0.006742045 	5.8287548e-07 	0.034486705 	5.5079721e-06 	0.0084143729
0.79347826 	0.01965262 	0.0071644024 	3.9532912e-07 	0.036389114 	3.7357237e-06 	0.013050342
0.80434783 	0.020295109 	0.0076177629 	5.8252393e-07 	0.038451735 	5.2211332e-06 	0.011820112
0.81521739 	0.021002254 	0.0081040468 	5.8474619e-07 	0.040695727 	5.2410512e-06 	0.01284057
0.82608696 	0.021793422 	0.0086224723 	7.2648858e-07 	0.043129229 	6.3647971e-06 	0.012488562
0.83695652 	0.022666042 	0.0091767608 	5.491673e-07 	0.045778709 	4.8112779e-06 	0.016509546
0.84782609 	0.02364229 	0.0097577265 	1.1226901e-06 	0.048581103 	9.8629816e-06 	0.009072754
0.85869565 	0.024701367 	0.010379613 	1.2676664e-07 	0.051665605 	1.1136618e-06 	0.02573887
0.86956522 	0.025893561 	0.01097626 	1.2203913e-06 	0.054661516 	1.4398295e-05 	0.00050894438
0.88043478 	0.027181228 	0.011600258 	7.4243956e-08 	0.057975816 	2.2660273e-06 	0.024634113
0.89130435 	0.028582907 	0.012137362 	1.4733657e-07 	0.061033393 	4.4969141e-06 	0.020661534
0.90217391 	0.029880347 	0.012626056 	-1.9947777e-07 	0.063848268 	8.2626797e-06 	0.0031462505
0.91304348 	0.031083132 	0.013075693 	-3.2346298e-07 	0.066610415 	1.140579e-06 	0.025080472
0.92391304 	0.031992786 	0.013390893 	-5.6437806e-08 	0.068736504 	1.9900817e-07 	0.034496581
0.93478261 	0.032521227 	0.013301232 	-8.74901e-07 	0.069158657 	-1.0790492e-06 	0.024962209
0.94565217 	0.032663966 	0.012872597 	-4.0037045e-07 	0.068166149 	-1.4866619e-06 	0.036577107
0.95652174 	0.031992148 	0.011973615 	-5.0831928e-06 	0.06466428 	-1.7951711e-05 	0.0026628302
0.9673913 	0.03025119 	0.010574505 	-2.2276304e-06 	0.058638698 	-9.1162838e-06 	0.019768021
0.97826087 	0.026630334 	0.0086432683 	-4.012911e-06 	0.049167176 	-1.8457916e-05 	0.002514051
0.98913043 	0.018356374 	0.00590494 	-1.6510827e-06 	0.033603325 	-9.3449289e-06 	0.0030157616
