0 	0.087093224 	-5.9152978e-15 	-2.1499199e-21 	2.0779805e-17 	-1.4391232e-31 	2.1062318e-17
0.010869565 	0.082736956 	-0.006528205 	2.0569694e-05 	0.098771459 	-0.00041747369 	0.021643368
0.02173913 	0.08014506 	-0.0079377504 	1.3207348e-05 	0.10066063 	-0.00024156486 	0.027109483
0.032608696 	0.077708401 	-0.0093146284 	2.4145273e-06 	0.1030734 	-4.4865953e-05 	0.03226798
0.043478261 	0.07528077 	-0.010766015 	9.5192231e-06 	0.1061714 	-0.00018025109 	0.036995007
0.054347826 	0.072863397 	-0.012265481 	1.6028471e-06 	0.10971059 	-1.9175117e-05 	0.011991891
0.065217391 	0.070413669 	-0.013830569 	1.8101557e-06 	0.11370034 	-1.9376271e-05 	0.017559776
0.076086957 	0.068324712 	-0.015179983 	2.6081618e-06 	0.11720891 	-2.5193109e-05 	0.015237675
0.086956522 	0.0661756 	-0.016563619 	5.5674133e-07 	0.1208803 	-9.1500844e-06 	0.05385515
0.097826087 	0.064021667 	-0.017885362 	1.4174822e-06 	0.12422557 	-2.0475013e-05 	0.057119873
0.10869565 	0.061917548 	-0.019079384 	4.3050986e-06 	0.12673342 	-3.4855412e-05 	0.012836811
0.11956522 	0.060020393 	-0.02011469 	1.8567952e-06 	0.12858456 	-1.232946e-05 	0.043770411
0.13043478 	0.058329493 	-0.020974173 	1.1519361e-06 	0.12929154 	-7.6490664e-06 	0.05358347
0.14130435 	0.057267628 	-0.021681327 	5.5103591e-06 	0.12764501 	-2.9942293e-05 	0.0066830123
0.15217391 	0.056467956 	-0.022311572 	1.3297592e-06 	0.12574416 	-1.3456112e-05 	0.070214242
0.16304348 	0.055129187 	-0.022504374 	4.3293162e-06 	0.12215331 	-2.241086e-05 	0.011508852
0.17391304 	0.053785893 	-0.02263686 	5.2505104e-07 	0.11890616 	-2.7042128e-06 	0.0573898
0.18478261 	0.05193132 	-0.022389478 	2.1496477e-06 	0.11418472 	-1.1071504e-05 	0.015627452
0.19565217 	0.050070677 	-0.022079085 	-3.8232026e-08 	0.10975798 	-2.6870114e-07 	0.052825955
0.20652174 	0.04764394 	-0.021294692 	-2.6202868e-07 	0.10390103 	-1.8415819e-06 	0.01034341
0.2173913 	0.045327745 	-0.020535058 	9.3072664e-06 	0.098593057 	-5.0034158e-05 	0.049031249
0.22826087 	0.042399856 	-0.019236633 	-3.5275237e-06 	0.091767635 	8.1367524e-06 	0.00068532802
0.23913043 	0.039729619 	-0.018076723 	6.8828739e-06 	0.085816206 	-3.2274895e-05 	0.038571008
0.25 	0.036645414 	-0.016517186 	-3.2809666e-06 	0.078873661 	8.1107068e-06 	0.016315517
0.26086957 	0.033647237 	-0.014972309 	-1.7722508e-06 	0.072240589 	4.3810891e-06 	0.01965415
0.27173913 	0.030757257 	-0.013413853 	5.9646234e-06 	0.065745675 	-2.5883558e-05 	0.027516212
0.2826087 	0.027845552 	-0.01173351 	-5.1300252e-06 	0.059054079 	1.4813396e-05 	0.0020025869
0.29347826 	0.02526061 	-0.010242603 	1.7276198e-05 	0.053107196 	-7.7703619e-05 	0.019334504
0.30434783 	0.023111826 	-0.0088870497 	-7.7249188e-07 	0.047153428 	2.6201236e-06 	0.014760406
0.31521739 	0.021324777 	-0.0076593542 	-2.1008323e-06 	0.041383106 	7.1255638e-06 	0.0056504433
0.32608696 	0.019747436 	-0.0066082351 	2.8752935e-05 	0.036474617 	-0.00013953689 	0.012909313
0.33695652 	0.018320955 	-0.0056802674 	-4.1049848e-07 	0.03211717 	1.2946754e-06 	0.0091338388
0.34782609 	0.01708211 	-0.0048924545 	-7.0273554e-07 	0.028436508 	2.2163649e-06 	0.0048608821
0.35869565 	0.016045911 	-0.0042312413 	2.1836005e-05 	0.025390942 	-0.00010554208 	0.0088040729
0.36956522 	0.015102079 	-0.0036242901 	-1.6585177e-08 	0.022612538 	1.8528271e-08 	0.0080926197
0.38043478 	0.01436719 	-0.0031285704 	-2.2349372e-07 	0.020411724 	2.496779e-07 	0.0025093693
0.39130435 	0.013770371 	-0.0026978552 	1.1645653e-05 	0.018600068 	-5.2185607e-05 	0.0063673946
0.40217391 	0.013260103 	-0.0022969995 	7.1237869e-06 	0.016993317 	-3.1922568e-05 	0.0061384257
0.41304348 	0.012857762 	-0.001927468 	2.3541905e-08 	0.015626098 	-7.5642742e-07 	0.00063073168
0.42391304 	0.012568223 	-0.0016096587 	3.0354067e-06 	0.014586093 	-1.0377825e-05 	0.0050214366
0.43478261 	0.012379562 	-0.0013118308 	1.3787287e-05 	0.013811818 	-4.713769e-05 	0.0048566982
0.44565217 	0.012190902 	-0.001014003 	2.1643525e-07 	0.013037543 	-7.399757e-07 	0.0046919598
0.45652174 	0.01212451 	-0.00074170895 	6.5990184e-08 	0.012588338 	-4.480237e-07 	0.0019910075
0.4673913 	0.012098945 	-0.00048796596 	7.5412087e-06 	0.012345104 	-1.2678399e-05 	0.0042271749
0.47826087 	0.012095096 	-0.0002355904 	9.7775483e-06 	0.012198454 	-1.6438169e-05 	0.0041016372
0.48913043 	0.012096175 	1.6552684e-05 	1.6917362e-08 	0.012073385 	-7.19153e-08 	0.0034624724
0.5 	0.012150545 	0.00026347252 	3.509727e-08 	0.012195204 	-1.4919765e-07 	0.0028576779
0.51086957 	0.012219727 	0.00050145178 	8.5875909e-06 	0.012460019 	8.3074689e-07 	0.0038471207
0.52173913 	0.012292223 	0.00073824375 	7.8642827e-06 	0.012752141 	7.6077545e-07 	0.0037480296
0.5326087 	0.012367862 	0.00097398709 	2.9768603e-08 	0.013069354 	-7.6481837e-08 	0.0026979521
0.54347826 	0.012463472 	0.0012090087 	5.0110346e-07 	0.013557338 	7.2159616e-07 	0.0037468737
0.55434783 	0.012575331 	0.0014375302 	9.6469969e-06 	0.014124926 	1.3891814e-05 	0.0036674505
0.56521739 	0.01268719 	0.0016660517 	4.5297817e-06 	0.014692514 	6.5229506e-06 	0.0035880273
0.57608696 	0.012807156 	0.0018893794 	9.3770547e-08 	0.015293457 	-8.8132107e-08 	0.00025376208
0.58695652 	0.01295041 	0.0021133472 	4.163898e-06 	0.016002854 	9.7487806e-06 	0.0036703991
0.59782609 	0.013103331 	0.0023335938 	7.3630969e-06 	0.016724159 	1.7238947e-05 	0.0036062682
0.60869565 	0.013256698 	0.0025536788 	5.0622361e-09 	0.017446094 	4.4639398e-09 	0.0033734495
0.61956522 	0.0134384 	0.0027733206 	1.4849089e-06 	0.018245044 	4.4241209e-06 	0.00373716
0.63043478 	0.013638867 	0.0029961727 	8.5304818e-06 	0.019084544 	2.5415621e-05 	0.0036854181
0.64130435 	0.013839334 	0.0032190247 	1.2883414e-06 	0.019924044 	3.8384696e-06 	0.0036336762
0.65217391 	0.014064182 	0.0034480099 	6.718518e-07 	0.020827323 	2.318934e-06 	0.0038615517
0.66304348 	0.014318133 	0.0036881965 	8.7434042e-06 	0.021805279 	3.0178348e-05 	0.0038201054
0.67391304 	0.014572083 	0.003928383 	1.2065189e-06 	0.022783235 	4.1643674e-06 	0.0037786591
0.68478261 	0.014858772 	0.0041840767 	1.588864e-06 	0.023856316 	6.0535282e-06 	0.0040456941
0.69565217 	0.01517771 	0.0044562468 	8.1017995e-06 	0.025018953 	3.0867633e-05 	0.0040128291
0.70652174 	0.015498857 	0.0047292135 	4.5249613e-08 	0.026185278 	1.8668775e-07 	0.0031846881
0.7173913 	0.015879166 	0.005035085 	4.8628105e-06 	0.027530238 	1.9884446e-05 	0.0042957354
0.72826087 	0.016282139 	0.005352465 	5.3979099e-06 	0.028933173 	2.2072514e-05 	0.0042701198
0.73913043 	0.016710527 	0.0056828085 	9.1926357e-08 	0.030403714 	4.1482466e-07 	0.0031885288
0.75 	0.017219341 	0.0060546432 	1.155384e-05 	0.03209655 	4.9907328e-05 	0.0046191313
0.76086957 	0.017735233 	0.006428511 	7.2992874e-08 	0.033797794 	3.5397198e-07 	0.0036663322
0.77173913 	0.018356678 	0.0068498018 	8.0159037e-06 	0.035764179 	3.636269e-05 	0.0050356641
0.7826087 	0.019007696 	0.0072820373 	2.8916369e-06 	0.037790932 	1.3117385e-05 	0.0050213669
0.79347826 	0.019752342 	0.0077482549 	5.4412273e-06 	0.040018283 	2.5729841e-05 	0.0055219882
0.80434783 	0.020561093 	0.0082379542 	5.0324351e-06 	0.042380072 	2.3796792e-05 	0.0055121234
0.81521739 	0.021454338 	0.0087501799 	4.5128344e-06 	0.044889383 	2.2344629e-05 	0.0060681464
0.82608696 	0.022440988 	0.0092762168 	4.7715223e-06 	0.047514779 	2.3625483e-05 	0.0060619472
0.83695652 	0.023533936 	0.0097997821 	5.4556873e-06 	0.050209387 	2.9007212e-05 	0.0066605358
0.84782609 	0.024704527 	0.010319223 	1.7988819e-06 	0.052946507 	9.5644319e-06 	0.0066571921
0.85869565 	0.025941996 	0.010817427 	7.9744195e-06 	0.055677663 	4.5408813e-05 	0.0072620373
0.86956522 	0.027168466 	0.011300302 	1.3926864e-07 	0.05835106 	1.3195554e-06 	0.00025463886
0.88043478 	0.028315321 	0.011746836 	5.2663168e-06 	0.060924889 	3.183548e-05 	0.0078088817
0.89130435 	0.029330732 	0.012128573 	1.6779535e-06 	0.063189155 	1.2305482e-05 	0.0082376349
0.90217391 	0.030174515 	0.01241715 	-1.9482598e-07 	0.065018016 	-5.0993245e-07 	0.0037419794
0.91304348 	0.030777903 	0.012477259 	-1.6443637e-06 	0.065892422 	-8.8532812e-07 	0.0085007694
0.92391304 	0.031162689 	0.012307729 	-7.9174543e-06 	0.06575038 	-2.7187259e-05 	0.0085820609
0.93478261 	0.031220532 	0.011899466 	-5.6089664e-06 	0.064483289 	-2.2539231e-05 	0.0084664726
0.94565217 	0.030733362 	0.011177219 	-1.1407163e-05 	0.06161449 	-5.0183156e-05 	0.0082670343
0.95652174 	0.029635303 	0.010211031 	-5.6533258e-07 	0.057318791 	-2.7035627e-06 	0.0028986263
0.9673913 	0.027558423 	0.0089590815 	-5.3832994e-06 	0.051225786 	-2.7381986e-05 	0.0072735877
0.97826087 	0.023961732 	0.0074928841 	-2.7235345e-07 	0.04326558 	-1.6078913e-06 	0.0025320659
0.98913043 	0.016546638 	0.0055019724 	-4.5774686e-08 	0.030967562 	-3.6777051e-07 	0.002540298
