4.1667976e-36 	0.11074952 	-7.5215433e-15 	-2.7338819e-21 	5.1082552e-28 	1.9926054e-34 	9.3722359e-34
0.010869565 	0.083139114 	-0.0042459702 	2.0509131e-06 	0.18001084 	-9.5658432e-05 	0.11057805
0.02173913 	0.082650208 	-0.0047881059 	7.0956564e-07 	0.17794309 	-3.4308951e-05 	0.099060375
0.032608696 	0.083136387 	-0.0041148095 	-3.6093256e-05 	0.1733642 	-3.135385e-05 	0.046421366
0.043478261 	0.083618016 	-0.0051998758 	2.0080282e-06 	0.16904693 	-0.0001639242 	0.077614253
0.054347826 	0.085195612 	-0.0029388877 	-8.7430304e-05 	0.1605847 	2.8588964e-05 	0.0015877911
0.065217391 	0.084305277 	-0.0040766548 	-3.5581813e-05 	0.15800174 	2.1663343e-05 	0.032518081
0.076086957 	0.082252378 	-0.0040528524 	-5.5552251e-05 	0.1558195 	3.7391817e-05 	0.0095624454
0.086956522 	0.079004258 	-0.0060263634 	-6.190357e-06 	0.15671586 	-0.00010305591 	0.041845808
0.097826087 	0.07596584 	-0.0075736751 	-3.4244936e-05 	0.15545303 	-0.00033129459 	0.033776419
0.10869565 	0.073023199 	-0.0096425961 	-6.7544334e-07 	0.15326183 	3.802215e-07 	0.025630867
0.11956522 	0.070153359 	-0.01198382 	-1.2019024e-05 	0.15009397 	-0.00012812099 	0.020422469
0.13043478 	0.067464416 	-0.013748265 	-1.9526609e-05 	0.14578069 	-0.0004173308 	0.013987184
0.14130435 	0.064652963 	-0.015272962 	-3.1727913e-06 	0.14097751 	1.9072233e-06 	0.0020841838
0.15217391 	0.061962959 	-0.016260588 	4.1767216e-06 	0.13522689 	-0.00045933412 	0.0035866542
0.16304348 	0.059157329 	-0.016937009 	1.0440666e-05 	0.12918098 	-0.00015939505 	0.0013277753
0.17391304 	0.056246268 	-0.016998792 	2.3724137e-05 	0.12249804 	-0.00036219051 	0.0053285436
0.18478261 	0.053314741 	-0.016867067 	1.6134198e-05 	0.11566678 	-0.00014324377 	0.0081856533
0.19565217 	0.05024955 	-0.016240507 	3.4712617e-05 	0.10844335 	-0.00030818799 	0.011453434
0.20652174 	0.047219468 	-0.015544872 	5.9237881e-06 	0.10122816 	-4.0686827e-05 	0.012595975
0.2173913 	0.044156596 	-0.014517366 	4.7062138e-05 	0.09404406 	-0.00032324065 	0.015164651
0.22826087 	0.041224343 	-0.013777816 	7.0918726e-06 	0.086923185 	-1.1102145e-05 	0.0042412135
0.23913043 	0.038300563 	-0.012399724 	5.4766113e-05 	0.080290261 	-0.00033487029 	0.016745978
0.25 	0.035546649 	-0.011428043 	3.9275566e-06 	0.073751362 	-5.2494298e-06 	0.012362229
0.26086957 	0.032990775 	-0.010304418 	1.4021966e-05 	0.067747494 	-8.7883834e-05 	0.016743339
0.27173913 	0.030697433 	-0.009359862 	1.5697774e-05 	0.062019789 	-9.8387101e-05 	0.018166789
0.2826087 	0.028746996 	-0.0088354223 	9.0081192e-06 	0.056444525 	-1.2001831e-05 	0.004876058
0.29347826 	0.026862144 	-0.007859825 	2.3465497e-05 	0.05152641 	-0.00015663767 	0.016916473
0.30434783 	0.025145344 	-0.007242661 	2.6562357e-06 	0.046900422 	-4.3142631e-06 	0.013968647
0.31521739 	0.023574772 	-0.0067310056 	5.3609093e-06 	0.04282248 	-8.707199e-06 	0.0087885815
0.32608696 	0.022111759 	-0.0060386929 	1.9972881e-05 	0.039127714 	-0.00013009872 	0.015967426
0.33695652 	0.020778277 	-0.0056389023 	5.0129324e-06 	0.035746847 	-9.8366465e-06 	0.0090553073
0.34782609 	0.019547947 	-0.0051845301 	5.1882217e-06 	0.032686063 	-1.0180609e-05 	0.0076042311
0.35869565 	0.01842939 	-0.0046250122 	1.3403518e-05 	0.02986591 	-8.3388777e-05 	0.014444793
0.36956522 	0.017449316 	-0.0042942622 	3.9447047e-06 	0.027350974 	-8.1569693e-06 	0.0088148023
0.38043478 	0.016566192 	-0.003972269 	6.5528646e-06 	0.025047659 	-1.3550194e-05 	0.0042441703
0.39130435 	0.01574477 	-0.0034785177 	3.8308568e-06 	0.022851362 	-2.1905695e-05 	0.012825862
0.40217391 	0.015111579 	-0.0031668623 	1.5530491e-06 	0.021011777 	-2.7412295e-06 	0.010690486
0.41304348 	0.014620173 	-0.0029734297 	8.287831e-06 	0.019384573 	-1.4628544e-05 	0.00025562162
0.42391304 	0.014115706 	-0.0025763734 	2.2611203e-06 	0.017833738 	-3.9910198e-06 	0.0086157319
0.43478261 	0.013729733 	-0.0022498781 	3.0051309e-06 	0.016505311 	-1.420708e-05 	0.011900291
0.44565217 	0.01357389 	-0.0020357869 	4.0045756e-06 	0.015519234 	-4.8462239e-06 	0.0050923583
0.45652174 	0.013434905 	-0.0017958359 	5.1776264e-06 	0.014617616 	-6.2658166e-06 	0.0029930422
0.4673913 	0.013261679 	-0.0014934136 	8.5261001e-07 	0.013759738 	-1.0318045e-06 	0.010177823
0.47826087 	0.013219364 	-0.0012322221 	4.1023843e-07 	0.013186566 	-1.2846593e-07 	0.010842931
0.48913043 	0.01334586 	-0.0010020325 	3.8956037e-06 	0.012888829 	-1.2199061e-06 	0.003440334
0.5 	0.013431694 	-0.00074676641 	3.75764e-06 	0.012613172 	-1.1767028e-06 	0.0039164028
0.51086957 	0.013482686 	-0.00047001273 	5.1490563e-07 	0.012356435 	-1.612424e-07 	0.011143569
0.52173913 	0.013614312 	-0.00020255487 	7.8328524e-07 	0.012366056 	7.70051e-07 	0.0099618061
0.5326087 	0.013813949 	6.8338936e-05 	3.2062302e-06 	0.012538853 	3.1520583e-06 	0.0025353541
0.54347826 	0.013975218 	0.00035168642 	2.4051269e-06 	0.012753618 	2.3644903e-06 	0.0053932509
0.55434783 	0.014117369 	0.00064113246 	2.0568671e-07 	0.012992129 	8.5230181e-08 	0.013364428
0.56521739 	0.01431559 	0.00091949948 	1.070131e-06 	0.013417115 	2.9986779e-06 	0.0079919309
0.57608696 	0.014527876 	0.0011999807 	2.5767541e-06 	0.013876841 	7.220476e-06 	0.00040080359
0.58695652 	0.014705946 	0.0014846197 	8.9609622e-07 	0.0144188 	2.5110046e-06 	0.0095731307
0.59782609 	0.014898321 	0.0017596024 	2.1957243e-07 	0.014984299 	1.1708726e-06 	0.012581118
0.60869565 	0.015122123 	0.0020211443 	1.2977569e-06 	0.015589466 	6.9203038e-06 	0.0032202563
0.61956522 	0.015340841 	0.0022909048 	9.3090048e-07 	0.016256773 	4.9640377e-06 	0.0068658775
0.63043478 	0.015558258 	0.0025618799 	2.6387117e-07 	0.016957783 	5.170158e-07 	0.015543852
0.64130435 	0.01579135 	0.0028071638 	7.540186e-07 	0.017670566 	6.2055628e-06 	0.0052968771
0.65217391 	0.016033975 	0.0030695103 	7.3588306e-07 	0.018433398 	6.0563075e-06 	0.0059126362
0.66304348 	0.016285736 	0.0033471677 	4.929533e-07 	0.019246739 	1.223605e-06 	0.01659089
0.67391304 	0.016533427 	0.0035872457 	6.278933e-07 	0.020076315 	6.5251335e-06 	0.0053609501
0.68478261 	0.016802779 	0.0038614194 	5.4021822e-07 	0.020966627 	5.6140048e-06 	0.0073749546
0.69565217 	0.017087702 	0.0041539096 	7.5472235e-08 	0.021911323 	8.2993929e-07 	0.016184189
0.70652174 	0.017360499 	0.0043961641 	7.5885889e-07 	0.022883325 	8.3448808e-06 	0.0027322542
0.7173913 	0.017677457 	0.0047143466 	3.2098308e-07 	0.023955572 	3.5297281e-06 	0.012083344
0.72826087 	0.017998252 	0.0050093616 	3.7163638e-07 	0.025076515 	3.8311176e-06 	0.011784366
0.73913043 	0.018326669 	0.0052922131 	7.969118e-07 	0.026254089 	8.2151882e-06 	0.0039856166
0.75 	0.018706156 	0.0056691465 	1.5676734e-07 	0.02754817 	5.8416061e-07 	0.020064025
0.76086957 	0.019077318 	0.0059435738 	1.0175101e-06 	0.0288943 	9.2709592e-06 	0.00299931
0.77173913 	0.019509592 	0.006346817 	2.8744086e-07 	0.03038906 	2.6189937e-06 	0.016296657
0.7826087 	0.01995748 	0.006686637 	9.3005868e-07 	0.031955647 	7.3859396e-06 	0.0081771539
0.79347826 	0.020452381 	0.0070968596 	6.3453568e-07 	0.033665434 	5.0390823e-06 	0.013291183
0.80434783 	0.020991368 	0.0075035727 	9.6742403e-07 	0.035495639 	6.7768913e-06 	0.0114495
0.81521739 	0.021579997 	0.0079464904 	9.1996311e-07 	0.037479917 	6.4444234e-06 	0.012924357
0.82608696 	0.022231974 	0.0084101039 	1.2759178e-06 	0.039622346 	8.0976753e-06 	0.011944809
0.83695652 	0.022948684 	0.0089212882 	9.5827485e-07 	0.041957294 	6.0817386e-06 	0.016324431
0.84782609 	0.023744808 	0.0094244188 	2.1062716e-06 	0.044454703 	1.2520711e-05 	0.0084753091
0.85869565 	0.024623964 	0.010044932 	4.1440004e-07 	0.047230375 	2.4633969e-06 	0.024998194
0.86956522 	0.025599505 	0.010561387 	3.5799633e-06 	0.050094223 	2.0644286e-05 	0.00083587174
0.88043478 	0.026684379 	0.011268729 	1.0637617e-06 	0.053354234 	6.1206765e-06 	0.023121618
0.89130435 	0.027864656 	0.011908212 	1.6673069e-06 	0.056706386 	9.5933575e-06 	0.019995506
0.90217391 	0.029111346 	0.012500373 	3.7095377e-06 	0.060037205 	2.2123983e-05 	0.0026824716
0.91304348 	0.030419776 	0.013185603 	1.0210176e-06 	0.063578996 	7.1263705e-06 	0.023765509
0.92391304 	0.031724075 	0.01373704 	3.4231068e-07 	0.066796883 	2.3892172e-06 	0.034105569
0.93478261 	0.032765285 	0.013974747 	4.8358921e-07 	0.068900953 	5.0997641e-06 	0.025431929
0.94565217 	0.033506291 	0.01401429 	-1.2916474e-07 	0.070143882 	-1.2692913e-07 	0.038224225
0.95652174 	0.033447431 	0.013380329 	-3.5420715e-06 	0.068674373 	-9.1709339e-06 	0.0024116059
0.9673913 	0.032244715 	0.012202748 	-2.5462867e-06 	0.064288373 	-9.3056869e-06 	0.020841103
0.97826087 	0.028968298 	0.01009103 	-5.1886044e-06 	0.055126025 	-2.1686064e-05 	0.0025023421
0.98913043 	0.020550774 	0.0067601621 	-4.3047246e-06 	0.037925741 	-2.049171e-05 	0.0035673702
