0.47777778 	1.8186231 	0.00037744492 	-1.3148802e-08
0.48888889 	2.3514289 	0.0002672914 	3.3959027e-07
0.5 	2.5959252 	0.00050162296 	5.374488e-07
0.51111111 	2.7565659 	0.00075320104 	1.8244082e-06
0.52222222 	2.8731032 	0.0010491321 	-7.310439e-09
0.53333333 	2.9611768 	0.0012950802 	2.753538e-06
0.54444444 	3.0298301 	0.0015977143 	3.0604362e-06
0.55555556 	3.0824749 	0.0018705885 	1.726804e-06
0.56666667 	3.1209287 	0.0020632543 	9.7623929e-07
0.57777778 	3.1463743 	0.0021720509 	4.4357973e-07
0.58888889 	3.1607954 	0.0022146674 	-3.5824486e-07
0.6 	3.1671324 	0.0022087685 	-1.1634297e-06
0.61111111 	3.1681533 	0.0021631977 	-5.5792648e-07
0.62222222 	3.1655742 	0.0020896855 	-1.890629e-07
0.63333333 	3.1607129 	0.0020000733 	-1.6566732e-06
0.64444444 	3.1547068 	0.0018960797 	-2.3824125e-06
0.65555556 	3.1478291 	0.0017792084 	-2.1657157e-07
0.66666667 	3.140139 	0.0016545209 	-2.6663931e-06
0.67777778 	3.131979 	0.0015243434 	-1.5407584e-06
0.68888889 	3.1232946 	0.0013903264 	-7.8562546e-07
0.7 	3.1140609 	0.0012543543 	-3.293738e-06
0.71111111 	3.104504 	0.0011170404 	-5.0333193e-08
0.72222222 	3.0943988 	0.00098257677 	-4.0036982e-06
0.73333333 	3.0840858 	0.00084829896 	-7.3122008e-08
0.74444444 	3.0729308 	0.00071695503 	-3.8851752e-06
0.75555556 	3.0615784 	0.00058658277 	-8.0328063e-08
0.76666667 	3.0490018 	0.00045920291 	-3.8443598e-06
0.77777778 	3.0361301 	0.00033360864 	-1.6981786e-07
0.78888889 	3.0218793 	0.00021619355 	-2.7073042e-06
0.8 	3.0070274 	0.00010347023 	-4.4427152e-07
0.81111111 	2.9908131 	-2.3174624e-07 	-6.805317e-07
0.82222222 	2.9730678 	-9.307688e-05 	-1.8858505e-06
0.83333333 	2.9541021 	-0.00017774549 	-2.5701429e-09
0.84444444 	2.9327635 	-0.00024769544 	-2.6378046e-07
0.85555556 	2.9088675 	-0.00030235435 	-8.3581212e-07
0.86666667 	2.8823368 	-0.00034317248 	-3.280755e-07
0.87777778 	2.8524874 	-0.00036826343 	-1.6658048e-08
0.88888889 	2.8183332 	-0.00037604856 	-2.3071992e-08
0.9 	2.7788179 	-0.00036654524 	-3.3504504e-08
0.91111111 	2.7327745 	-0.00034069567 	-2.7332339e-08
0.92222222 	2.6785292 	-0.00030162919 	-1.019554e-08
0.93333333 	2.6135132 	-0.00024982164 	2.7811921e-07
0.94444444 	2.5345031 	-0.00019846701 	2.3210474e-07
0.95555556 	2.4369251 	-0.00016432501 	3.656659e-08
0.96666667 	2.30907 	-6.7853541e-05 	-5.8227772e-08
0.97777778 	2.1198134 	-4.4163691e-05 	5.3262479e-08
0.98888889 	1.7700114 	-6.3215123e-05 	-1.9466148e-06
