10.053 	0.473584 	0 	0.025122598 	-0.0066158417 	9.4699478e-07 	-0.0061565562 	-3.8648177e-07 	0.0088716025
12.6807 	0.238896 	0 	0.04641006 	-0.069621237 	0.04750153 	-0.035936344 	-0.027210995 	0.11340608
10.0539 	0.615367 	0 	0.0097748159 	0.00026081652 	-1.8069171e-07 	0.011774426 	5.868659e-07 	0.0096200042
10.0539 	0.630498 	0 	0.016102346 	0.00735917 	-2.0600694e-06 	-0.0025579096 	-1.0801788e-06 	0.0093094511
10.054 	0.646706 	0 	0.023230263 	-0.0012180427 	-5.6136962e-06 	-0.0077800577 	9.7680219e-07 	0.0078897218
10.0532 	0.996414 	0 	0.028482958 	0.0092406807 	4.4648589e-07 	-0.0082848754 	2.119426e-07 	0.0090984036
20.1595 	0.998052 	0 	4.4191686e-06 	1.0249972e-07 	-7.5752771e-11 	4.2510686e-06 	-3.3494319e-10 	4.2747521e-06
