0.484691 	0.280018 	0 	1.2015599 	0.33655765 	-1.6622779e-06
2.29128 	0.477535 	0 	1.1809978 	-0.020225043 	-4.0188952e-08
0.4785 	0.995304 	0 	0.61332758 	0.052922576 	2.257833e-08
20.1595 	0.998052 	0 	0.15515523 	0.012983428 	-5.1722006e-05
