0.895251 	0.37352 	0 	1.1746678 	0.21217359 	-1.4797727e-07
2.28993 	0.485623 	0 	1.2286314 	0.038814252 	1.3997262e-08
0.927342 	0.995719 	0 	0.75403195 	-0.0021880231 	-4.2572615e-07
20.1595 	0.998052 	0 	0.15515523 	0.012983428 	-5.1722006e-05
