16.0888 	0.558265 	0 	1.0810559 	-0.0020209774 	-0.00041446677
16.0895 	0.59611 	0 	1.0747591 	-0.00088139878 	-0.0011467272
16.0899 	0.631454 	0 	1.0655874 	-0.001617753 	-0.0016786227
16.0903 	0.664459 	0 	1.0547555 	-0.0019693246 	-0.0020702056
12.8163 	0.936544 	0 	0.97285227 	-0.063578653 	0.0002016082
