-0.195528 	0.965755 	0 	0.050431007 	0.0053162583 	-8.572641e-10 	-0.02550871 	-4.5007583e-09 	0.012752495
20.1595 	0.992073 	0 	0.040469914 	0.032290699 	-5.2746698e-06 	-0.0095856253 	-5.6215634e-06 	0.010314541
