15.5914 	0.517395 	0 	1.0948038 	-0.0051537589 	0.0064622983
15.5948 	0.994032 	0 	0.67178886 	0.076598772 	0.00044253451
20.1595 	0.998052 	0 	0.15515523 	0.012983428 	-5.1722006e-05
