5.09459 	0.473589 	0 	0.78592951 	-0.075165737 	5.7864044e-06
5.09459 	0.56437 	0 	1.3168137 	0.033643716 	2.0352546e-06
5.09459 	0.575867 	0 	1.3488127 	-0.051369903 	1.5662301e-06
5.09459 	0.996415 	0 	0.70529873 	-0.15492895 	1.8395528e-07
20.1595 	0.998052 	0 	0.15515523 	0.012983428 	-5.1722006e-05
