0.589499 	0.982586 	0 	0.025239034 	-0.014572155 	6.1956364e-11 	-0.0023691263 	4.0329689e-08 	0.020253121
20.1595 	0.992073 	0 	0.040469914 	0.032290699 	-5.2746698e-06 	-0.0095856253 	-5.6215634e-06 	0.010314541
