0.813712 	0.980289 	0 	0.9326442 	-0.025980731 	-6.4165003e-08
20.1595 	0.992073 	0 	0.79950685 	-0.043812667 	-0.00023203317
