10.053 	0.473584 	0 	0.87024942 	-0.079886754 	5.1070514e-05
12.6807 	0.238896 	0 	0.73128516 	-0.069641569 	0.062321996
10.0539 	0.615367 	0 	1.3698608 	-0.0036249524 	3.2780767e-05
10.0539 	0.630498 	0 	1.3728249 	0.013045813 	3.1572412e-05
10.054 	0.646706 	0 	1.3879159 	0.02077942 	2.719009e-05
10.0532 	0.996414 	0 	0.84997459 	0.0092640692 	2.0167852e-05
20.1595 	0.998052 	0 	0.15515523 	0.012983428 	-5.1722006e-05
