14.7953 	0.474835 	0 	1.0678187 	0.0073854634 	0.0030405146
14.7969 	0.516833 	0 	1.0738082 	0.00775296 	0.00258369
14.8009 	0.994026 	0 	0.70206184 	-0.029053094 	0.00074097937
20.1595 	0.998052 	0 	0.15515523 	0.012983428 	-5.1722006e-05
