4.4009 	0.473589 	0 	0.84860796 	0.13906749 	2.6109674e-06
4.4009 	0.553636 	0 	1.316986 	-0.045034597 	6.4320307e-07
4.4009 	0.56437 	0 	1.3030231 	-0.016005755 	7.0023159e-07
4.4009 	0.996415 	0 	0.70543291 	-0.11296024 	1.5244318e-07
20.1595 	0.998052 	0 	0.15515523 	0.012983428 	-5.1722006e-05
