4.8964 	0.473589 	0 	0.73687786 	-0.018612058 	3.7574157e-06
4.8964 	0.56437 	0 	1.3296158 	-0.005024006 	1.2363018e-06
4.8964 	0.575867 	0 	1.3290394 	-0.0068168647 	1.2791668e-06
4.8964 	0.996415 	0 	0.73236963 	-0.15544804 	-3.1966266e-08
20.1595 	0.998052 	0 	0.15515523 	0.012983428 	-5.1722006e-05
