5.29279 	0.473589 	0 	0.81736586 	-0.076101841 	8.5072915e-06
5.29279 	0.575867 	0 	1.3468871 	-0.030093726 	2.1086608e-06
5.29279 	0.996415 	0 	0.82609826 	0.075825811 	8.5760273e-09
20.1595 	0.998052 	0 	0.15515523 	0.012983428 	-5.1722006e-05
