11.5457 	0.967852 	0 	1.0293303 	0.001952075 	8.2307018e-05
11.5447 	0.979877 	0 	0.98662461 	-0.0027503545 	6.0693821e-05
20.1595 	0.992073 	0 	0.79950685 	-0.043812667 	-0.00023203317
