12.0782 	0.96169 	0 	0.027579904 	-0.009340526 	-2.2472302e-06 	0.00071933241 	-1.7002372e-05 	0.025730493
12.0774 	0.971863 	0 	0.033621577 	0.02969737 	-3.5154422e-05 	0.03916796 	-0.0001033087 	0.022573731
12.0768 	0.979832 	0 	0.05623335 	-0.036870036 	-8.9069263e-05 	-0.022229414 	0.00010423513 	0.027534884
20.1595 	0.992073 	0 	0.040469914 	0.032290699 	-5.2746698e-06 	-0.0095856253 	-5.6215634e-06 	0.010314541
