0.585121 	0.308207 	0 	0.018164047 	0.010318832 	-3.5227766e-08 	0.015739387 	3.6822109e-08 	0.014386741
2.1835 	0.476681 	0 	0.043263292 	0.028910196 	-2.4664349e-08 	-0.00534722 	8.2128047e-08 	0.031317681
0.590712 	0.995423 	0 	0.011902948 	0.0022976767 	2.5922024e-08 	-0.0029154391 	2.839487e-08 	0.0043758665
20.1595 	0.998052 	0 	4.4191686e-06 	1.0249972e-07 	-7.5752771e-11 	4.2510686e-06 	-3.3494319e-10 	4.2747521e-06
