14.1041 	0.594921 	0 	0.010340887 	0.0002464573 	-0.00012208984 	0.0091410367 	-5.197629e-05 	0.0097590919
14.1048 	0.630367 	0 	0.011022016 	0.00069317944 	-1.7817145e-05 	0.0085355883 	1.3644558e-05 	0.0097385921
14.1052 	0.663469 	0 	0.011839227 	0.0010213533 	0.00015608185 	0.0079709633 	0.00010190119 	0.0098806836
14.1056 	0.694379 	0 	0.012561603 	0.0011962982 	0.00032337791 	0.0076070491 	0.0001731407 	0.010123695
14.1058 	0.723241 	0 	0.013440769 	0.0014571759 	0.00046395049 	0.0072563031 	0.00023258683 	0.010374484
14.0067 	0.750154 	0 	0.013774816 	0.0014524767 	0.00051895138 	0.007565169 	0.00026196263 	0.010816584
12.8163 	0.936544 	0 	0.097685491 	-0.0042766911 	-0.0019971493 	-0.05780847 	-8.0595013e-06 	0.020972838
