4.4009 	0.473589 	0 	0.037233569 	-0.008861478 	9.0314308e-08 	-0.018956682 	-5.0130873e-08 	0.00852324
4.4009 	0.553636 	0 	0.023888887 	0.0065042389 	-1.7164977e-08 	0.026466903 	-2.8286074e-08 	0.021828081
4.4009 	0.56437 	0 	0.023152726 	-0.0020327162 	-3.483229e-09 	0.0012878244 	9.1493877e-09 	0.022952027
4.4009 	0.996415 	0 	0.030982718 	-0.00197437 	-9.9089104e-09 	-0.017365825 	9.3944309e-09 	0.0077510149
20.1595 	0.998052 	0 	4.4191686e-06 	1.0249972e-07 	-7.5752771e-11 	4.2510686e-06 	-3.3494319e-10 	4.2747521e-06
