9.55405 	0.473589 	0 	0.83345039 	-0.084660578 	4.4994508e-05
9.55405 	0.630628 	0 	1.3836842 	-0.004285006 	2.1686234e-05
9.55405 	0.996415 	0 	0.83997261 	0.044957458 	1.4149394e-05
20.1595 	0.998052 	0 	0.15515523 	0.012983428 	-5.1722006e-05
