0.140254 	0.975975 	0 	0.013155684 	0.00069138018 	1.1005683e-08 	0.020434869 	5.6486861e-09 	0.013360717
20.1595 	0.992073 	0 	0.040469914 	0.032290699 	-5.2746698e-06 	-0.0095856253 	-5.6215634e-06 	0.010314541
