0.791476 	0.353506 	0 	0.014830139 	0.010250345 	-1.0578781e-09 	0.0018803306 	4.1569124e-08 	0.016297572
0.788944 	0.356625 	0 	0.056667924 	0.030612762 	-5.6272004e-08 	-0.03613835 	-3.2857467e-08 	0.011910667
0.815132 	0.99563 	0 	0.015316983 	0.0041885571 	6.4986599e-09 	-0.0045082724 	-7.5548998e-09 	0.0050307233
20.1595 	0.998052 	0 	4.4191686e-06 	1.0249972e-07 	-7.5752771e-11 	4.2510686e-06 	-3.3494319e-10 	4.2747521e-06
