16.2823 	0.397591 	0 	0.0099487205 	-0.0018889374 	-0.00023739063 	0.0040784942 	0.00011667475 	0.0072548298
16.284 	0.435425 	0 	0.0085669632 	-0.0012130031 	-0.00015853188 	0.0049925716 	8.2371754e-05 	0.007051888
16.2854 	0.475971 	0 	0.0072104599 	-0.00051555971 	-4.6174602e-05 	0.0059332868 	4.7245985e-05 	0.0068790312
20.1595 	0.478925 	0 	0.004237769 	0.00030881648 	-3.8853804e-06 	0.003254169 	2.0015026e-05 	0.003694519
