4.3018 	0.491402 	0 	1.1997572 	-0.02227846 	1.3360083e-06
4.3018 	0.499054 	0 	1.1695366 	0.022043096 	1.449576e-06
4.3018 	0.509753 	0 	1.2714124 	-0.014269086 	8.254644e-07
4.3018 	0.517368 	0 	1.2531831 	-0.037079657 	9.2358415e-07
4.3018 	0.534259 	0 	1.2783209 	0.03848151 	7.5492543e-07
4.3018 	0.543615 	0 	1.3230031 	-0.00072121675 	4.7255014e-07
20.1595 	0.478925 	0 	1.0693939 	0.0011303939 	0.0016398671
