20.1595 	0.911279 	0 	0.97630382 	-0.0029837527 	5.0950226e-05
20.1595 	0.92568 	0 	0.96313299 	0.021107844 	-1.5898476e-05
12.8163 	0.945314 	0 	0.94469217 	-0.037671902 	0.00052803204
12.8163 	0.959946 	0 	0.96422208 	0.039053049 	0.00021498357
12.8163 	0.966026 	0 	0.93841571 	-0.035758629 	0.00021993992
12.8163 	0.980388 	0 	0.86443224 	0.033712802 	0.00046206011
20.1595 	0.992073 	0 	0.79950685 	-0.043812667 	-0.00023203317
