14.2965 	0.433813 	0 	0.011828156 	-0.0014996789 	-0.00015899506 	0.0093789948 	0.00016620423 	0.010404775
14.2986 	0.474456 	0 	0.010452644 	-0.0008144692 	-9.3091681e-05 	0.010083416 	0.00014328456 	0.010078645
14.3004 	0.516481 	0 	0.0097928747 	-0.00022624666 	-3.2828271e-05 	0.0099785893 	0.00011423341 	0.0097714382
14.3048 	0.994022 	0 	0.031302429 	0.0099509794 	6.8747348e-06 	-0.017005617 	2.7756265e-06 	0.0063028881
20.1595 	0.998052 	0 	4.4191686e-06 	1.0249972e-07 	-7.5752771e-11 	4.2510686e-06 	-3.3494319e-10 	4.2747521e-06
