0.585121 	0.308207 	0 	1.2129709 	0.16916206 	-8.0226891e-07
2.1835 	0.476681 	0 	1.1362411 	0.049695531 	-1.012138e-07
0.590712 	0.995423 	0 	0.63380679 	0.057889666 	1.4128751e-07
20.1595 	0.998052 	0 	0.15515523 	0.012983428 	-5.1722006e-05
