14.5966 	0.474684 	0 	1.0755466 	0.0071166274 	0.0039858661
14.5983 	0.516692 	0 	1.0790282 	0.0076019422 	0.0034379186
14.6025 	0.994025 	0 	0.69192648 	0.061246269 	0.00052527254
20.1595 	0.998052 	0 	0.15515523 	0.012983428 	-5.1722006e-05
