0 	-0.0006632671848 	2.709561524e-17 	1.556120793e-24 	-1.106902893e-30 	-6.35702342e-38 	-3.650884556e-45
0.0003137191626 	-0.0006681380137 	1.166144121e-05 	-2.255032448e-10 	0.0002874136285 	-2.317812451e-09 	5.478902585e-07
0.0006274377305 	-0.000669653304 	-1.653572255e-05 	-1.624473938e-11 	0.0003237853834 	-7.410482472e-10 	6.172249322e-07
0.0007529268723 	-0.0006688205945 	-2.08267354e-05 	-4.297320314e-08 	0.0003258897396 	-2.736333688e-06 	6.2123642e-07
0.000941155703 	-0.0006675721979 	-2.726286487e-05 	-3.409676545e-11 	0.0003290469713 	-1.145568302e-09 	6.272549813e-07
0.001254873079 	-0.0006688059281 	-3.709959383e-05 	-1.100171545e-10 	0.0003324796696 	-3.093965282e-09 	6.337986583e-07
0.001568589859 	-0.0006688707557 	-4.667149798e-05 	-2.151668392e-10 	0.0003329857586 	-5.046275613e-09 	6.347634044e-07
0.001882306041 	-0.0006690816706 	-5.614789435e-05 	-3.508927179e-10 	0.0003334143067 	-7.012728263e-09 	6.355803362e-07
0.002196021624 	-0.0006693385917 	-6.558142946e-05 	-5.1731778e-10 	0.0003337383156 	-8.992708666e-09 	6.361979874e-07
0.00250973661 	-0.0006696472247 	-7.499278688e-05 	-7.142670691e-10 	0.0003340235861 	-1.098805527e-08 	6.367417921e-07
0.002823450996 	-0.0006699967582 	-8.439134389e-05 	-9.414629121e-10 	0.0003342819551 	-1.299987846e-08 	6.372343154e-07
0.003137164783 	-0.0006703891547 	-9.378181409e-05 	-1.198582428e-09 	0.0003345334508 	-1.502997579e-08 	6.37713736e-07
0.003450877969 	-0.0006708251514 	-0.0001031667517 	-1.48527564e-09 	0.0003347881466 	-1.708010366e-08 	6.38199257e-07
0.003764590556 	-0.0006713054401 	-0.0001125476201 	-1.801171884e-09 	0.0003350520993 	-1.915201777e-08 	6.387024241e-07
0.004078302543 	-0.0006718306588 	-0.0001219252954 	-2.145881874e-09 	0.0003353291168 	-2.124745808e-08 	6.392304966e-07
0.004392013928 	-0.0006724015162 	-0.0001313003221 	-2.518998198e-09 	0.000335621862 	-2.336815739e-08 	6.397885502e-07
0.004705724713 	-0.0006730187676 	-0.0001406730499 	-2.92009517e-09 	0.0003359322826 	-2.551583707e-08 	6.403802983e-07
0.005019434897 	-0.0006736832091 	-0.0001500437116 	-3.348728648e-09 	0.000336261876 	-2.769220426e-08 	6.410085947e-07
0.00533314448 	-0.0006743956732 	-0.0001594124684 	-3.804435544e-09 	0.000336611848 	-2.989894956e-08 	6.416757387e-07
0.005646853463 	-0.0006751570262 	-0.0001687794385 	-4.286733546e-09 	0.0003369832135 	-3.213774468e-08 	6.423836645e-07
0.005960561844 	-0.0006759681659 	-0.0001781447142 	-4.795120862e-09 	0.0003373768593 	-3.441024005e-08 	6.431340629e-07
0.006274269624 	-0.0006768300211 	-0.0001875083742 	-5.329076036e-09 	0.0003377935866 	-3.671806292e-08 	6.439284609e-07
0.006587976804 	-0.0006777435557 	-0.0001968704904 	-5.88805779e-09 	0.0003382341411 	-3.906281657e-08 	6.447682802e-07
0.006901683384 	-0.0006787097811 	-0.0002062311333 	-6.471505066e-09 	0.0003386992388 	-4.144608213e-08 	6.456548856e-07
0.007215389363 	-0.0006797297876 	-0.0002155903745 	-7.078837027e-09 	0.0003391895947 	-4.386942228e-08 	6.465896403e-07
0.007529094743 	-0.0006808048157 	-0.0002249482871 	-7.709453019e-09 	0.0003397059654 	-4.633438547e-08 	6.475739864e-07
0.007842799523 	-0.0006819364215 	-0.0002343049431 	-8.362731945e-09 	0.0003402492465 	-4.884256846e-08 	6.486096312e-07
0.008156503703 	-0.0006831268258 	-0.0002436604059 	-9.038030646e-09 	0.0003408206524 	-5.139596124e-08 	6.496988898e-07
0.008470207286 	-0.0006843797226 	-0.000253014718 	-9.73468327e-09 	0.0003414222509 	-5.399762647e-08 	6.508457036e-07
0.00878391027 	-0.0006857010579 	-0.0002623679169 	-1.045200495e-08 	0.0003420563819 	-5.664841967e-08 	6.520545335e-07
0.009097612657 	-0.0006871027502 	-0.0002717191346 	-1.118894867e-08 	0.0003427295073 	-5.933488417e-08 	6.533376977e-07
0.009411314447 	-0.0006888127033 	-0.0002823714649 	-1.20057288e-08 	0.0003435321777 	-6.213213043e-08 	6.548678106e-07
0.009898733563 	-0.000691058888 	-0.000295685929 	-1.315811969e-08 	0.0003445941422 	-6.636042307e-08 	6.5689221e-07
0.01039531224 	-0.0006936481559 	-0.0003104927641 	-1.443136033e-08 	0.0003458412787 	-7.089657391e-08 	6.592695989e-07
0.01090122258 	-0.000696405696 	-0.0003255727126 	-1.577159968e-08 	0.000347169362 	-7.564498407e-08 	6.618012947e-07
0.01141663991 	-0.0006993535134 	-0.0003409356719 	-1.717752713e-08 	0.0003485900219 	-8.05950955e-08 	6.645094674e-07
0.01194174287 	-0.0007025048157 	-0.0003565870982 	-1.864856524e-08 	0.0003501091454 	-8.575670739e-08 	6.674053389e-07
0.01247671344 	-0.0007058698259 	-0.0003725328848 	-2.018375219e-08 	0.0003517320353 	-9.114141026e-08 	6.704990182e-07
0.01302173702 	-0.0007094567953 	-0.0003887792006 	-2.178172624e-08 	0.0003534627559 	-9.675965287e-08 	6.737982527e-07
0.0135770025 	-0.0007132730826 	-0.0004053324896 	-2.344067604e-08 	0.0003553049368 	-1.026214889e-07 	6.773099614e-07
0.01414270231 	-0.000717325563 	-0.0004221994745 	-2.515829838e-08 	0.0003572619576 	-1.087370398e-07 	6.810405871e-07
0.0147190325 	-0.0007216208265 	-0.0004393871667 	-2.693175421e-08 	0.0003593370527 	-1.151165482e-07 	6.84996295e-07
0.01530619282 	-0.0007261652638 	-0.0004569028808 	-2.875762156e-08 	0.0003615333489 	-1.2177037e-07 	6.89183046e-07
0.01590438673 	-0.0007309651099 	-0.0004747542508 	-3.063184545e-08 	0.0003638538862 	-1.287089697e-07 	6.93606635e-07
0.01651382157 	-0.0007360264695 	-0.000492949248 	-3.254968547e-08 	0.0003663016279 	-1.359429132e-07 	6.982727111e-07
0.01713470852 	-0.0007413553378 	-0.0005114961994 	-3.450566102e-08 	0.0003688794612 	-1.434828788e-07 	7.031867779e-07
0.01776726278 	-0.0007469576538 	-0.0005304038089 	-3.6493496e-08 	0.0003715902411 	-1.513397023e-07 	7.083542777e-07
0.01841170354 	-0.0007528394329 	-0.0005496810741 	-3.850599457e-08 	0.0003744369424 	-1.5952449e-07 	7.137808817e-07
0.01906825416 	-0.0007590066432 	-0.0005693438124 	-4.053500162e-08 	0.0003774222389 	-1.680471527e-07 	7.194716863e-07
0.01973714216 	-0.0007654724358 	-0.0005894362218 	-4.255816538e-08 	0.000380552061 	-1.769190743e-07 	7.254379972e-07
0.02042153748 	-0.0007722550016 	-0.0006099643959 	-4.459478573e-08 	0.0003838360498 	-1.861851612e-07 	7.316981926e-07
0.02112091823 	-0.0007793562747 	-0.000630941937 	-4.664126589e-08 	0.0003872746601 	-1.958669065e-07 	7.382531395e-07
0.02183344139 	-0.0007867684671 	-0.0006523791945 	-4.865449478e-08 	0.0003908633725 	-2.059557863e-07 	7.450942229e-07
0.02255935386 	-0.0007944924024 	-0.0006742530195 	-5.062683279e-08 	0.0003946031261 	-2.164604322e-07 	7.522232325e-07
0.02329890722 	-0.0008025330507 	-0.0006965768003 	-5.135921954e-08 	0.0003984959148 	-2.222612955e-07 	7.596439699e-07
0.02405235775 	-0.0008108950537 	-0.00071936364 	-4.980367205e-08 	0.0004025436598 	-2.186242312e-07 	7.673600968e-07
0.02481996657 	-0.0008195828605 	-0.0007426272402 	-4.810257811e-08 	0.000406748278 	-2.146795462e-07 	7.753752676e-07
0.02560199967 	-0.0008286006827 	-0.0007663818973 	-4.6260282e-08 	0.0004111115013 	-2.104108941e-07 	7.836927841e-07
0.02639872806 	-0.0008379525452 	-0.000790642517 	-4.428233848e-08 	0.000415634929 	-2.05801542e-07 	7.923156945e-07
0.02721042784 	-0.000847642302 	-0.0008154246275 	-4.217561533e-08 	0.0004203200341 	-2.008344029e-07 	8.012468068e-07
0.02803738028 	-0.0008576736438 	-0.0008407443923 	-3.994839914e-08 	0.0004251681649 	-1.954920532e-07 	8.104886917e-07
0.02887987195 	-0.0008680501004 	-0.0008666186222 	-3.761050421e-08 	0.0004301805433 	-1.897567463e-07 	8.20043678e-07
0.0297381948 	-0.0008787750412 	-0.000893064786 	-3.517338419e-08 	0.0004353582611 	-1.836104285e-07 	8.299138473e-07
0.03061264626 	-0.0008898516758 	-0.0009201010203 	-3.265024623e-08 	0.0004407022777 	-1.77034758e-07 	8.401010281e-07
0.03150352933 	-0.0009012830551 	-0.0009477461377 	-3.00561675e-08 	0.0004462134166 	-1.700111265e-07 	8.506067906e-07
0.03241115274 	-0.000913072075 	-0.0009760196342 	-2.740821362e-08 	0.0004518923643 	-1.625206849e-07 	8.614324434e-07
0.03333583098 	-0.0009252214848 	-0.001004941695 	-2.472555837e-08 	0.0004577396708 	-1.545443739e-07 	8.725790347e-07
0.03427788447 	-0.0009377339077 	-0.001034533197 	-2.202960394e-08 	0.0004637557556 	-1.460629611e-07 	8.840473645e-07
0.03523763963 	-0.0009506118821 	-0.001064815719 	-1.934410019e-08 	0.0004699409259 	-1.370571028e-07 	8.958380181e-07
0.03621542904 	-0.0009638579475 	-0.001095811541 	-1.669526381e-08 	0.0004762954321 	-1.27507425e-07 	9.07951473e-07
0.03721159148 	-0.0009774747398 	-0.001127543664 	-1.411188626e-08 	0.0004828194735 	-1.173944423e-07 	9.203881092e-07
0.03822647215 	-0.0009914650954 	-0.001160036317 	-1.162607648e-08 	0.0004895131811 	-1.066979267e-07 	9.331481764e-07
0.03926042268 	-0.001005838749 	-0.001193324515 	-9.272538139e-09 	0.0004963800367 	-9.539785485e-08 	9.462383117e-07
0.04031569926 	-0.001020622048 	-0.001227495108 	-7.08041099e-09 	0.0005034310412 	-8.34522912e-08 	9.59679486e-07
0.04139611951 	-0.00103582353 	-0.00126261804 	-5.089969846e-09 	0.0005106686244 	-7.079886082e-08 	9.734763311e-07
0.0424968417 	-0.001051416627 	-0.001298652915 	-3.358066966e-09 	0.0005180791686 	-5.748577372e-08 	9.87602888e-07
0.04361824725 	-0.001067385211 	-0.001335576433 	-1.930876066e-09 	0.0005256531995 	-4.349143484e-08 	1.002041096e-06
0.04476072477 	-0.001083730936 	-0.001373424241 	-8.592251897e-10 	0.0005333892316 	-2.879776022e-08 	1.016788123e-06
0.04592467013 	-0.00110045529 	-0.001412224851 	-1.972392059e-10 	0.000541286314 	-1.338772945e-08 	1.031842157e-06
0.04691067477 	-0.001114675505 	-0.001445303365 	-2.382767606e-08 	0.0005479846994 	-4.516329028e-08 	1.044611142e-06
0.04711048667 	-0.001117552865 	-0.001452007609 	1.465772768e-12 	0.0005493416066 	-2.690821804e-09 	1.047197784e-06
0.04831858527 	-0.001134998829 	-0.001492802194 	3.162527912e-10 	0.0005575481503 	-1.921769023e-08 	1.062841737e-06
0.04954938458 	-0.001152827145 	-0.001534639278 	1.201712307e-09 	0.0005659121919 	-3.654324035e-08 	1.078785925e-06
0.05080331105 	-0.001171040346 	-0.001577550335 	2.725190346e-09 	0.0005744327416 	-5.468447736e-08 	1.095028461e-06
0.0520807992 	-0.001189642966 	-0.001621567614 	4.958229322e-09 	0.0005831097055 	-7.365890285e-08 	1.111569166e-06
0.05338229166 	-0.001208643365 	-0.001666724231 	7.977058432e-09 	0.0005919447985 	-9.348555836e-08 	1.128411308e-06
0.05470823941 	-0.001228057043 	-0.001713054437 	1.186344046e-08 	0.0006009432056 	-1.141869152e-07 	1.145564773e-06
0.05605910188 	-0.001247912205 	-0.00176059429 	1.670610547e-08 	0.0006101162436 	-1.35791017e-07 	1.163051133e-06
0.05743534714 	-0.001268258511 	-0.001809383676 	2.260266726e-08 	0.000619485632 	-1.58329711e-07 	1.180911792e-06
0.05883745205 	-0.001289184312 	-0.001859475967 	2.966317341e-08 	0.0006290924661 	-1.818355299e-07 	1.199225088e-06
0.06026729956 	-0.001310852254 	-0.001911013248 	3.804417766e-08 	0.0006390181363 	-2.064812423e-07 	1.218146174e-06
0.06173156424 	-0.001333445478 	-0.001964164169 	4.792029837e-08 	0.0006493407369 	-2.330485369e-07 	1.237823919e-06
0.06322334345 	-0.001360005763 	-0.002026412969 	6.071534941e-08 	0.0006613876987 	-2.627316551e-07 	1.260788777e-06
0.06551344073 	-0.00139237433 	-0.002104780789 	7.976898289e-08 	0.0006759896965 	-3.065217472e-07 	1.288624243e-06
0.06782907795 	-0.00142620848 	-0.00219146143 	1.03270867e-07 	0.0006911390829 	-3.504035686e-07 	1.317503184e-06
0.07017053993 	-0.001458719709 	-0.002279781062 	1.302902868e-07 	0.0007054999885 	-3.941450498e-07 	1.344879062e-06
0.07253811468 	-0.001490161366 	-0.002369782852 	1.609481313e-07 	0.0007191718074 	-4.38319316e-07 	1.370941348e-06
0.07493209339 	-0.00152066166 	-0.002461385156 	1.648792994e-07 	0.0007322175159 	-4.07630165e-07 	1.395810095e-06
0.07735277052 	-0.001550255756 	-0.002554511262 	1.642681998e-07 	0.0007446441222 	-3.713250116e-07 	1.41949866e-06
0.07980044382 	-0.001578960197 	-0.002649207114 	1.604782153e-07 	0.000756446469 	-3.336277632e-07 	1.441997213e-06
0.08228795177 	-0.00160674472 	-0.002745566049 	1.532669978e-07 	0.0007675943675 	-2.944916898e-07 	1.463248206e-06
0.0848045662 	-0.001633489297 	-0.002843374309 	1.425979155e-07 	0.000778024105 	-2.543082063e-07 	1.483130185e-06
0.08734924993 	-0.001659085671 	-0.002942384635 	1.28374934e-07 	0.0007876782764 	-2.13301406e-07 	1.501533719e-06
0.08992231604 	-0.001683457196 	-0.003042504191 	1.105310741e-07 	0.0007965099007 	-1.716682807e-07 	1.518369249e-06
0.09252408108 	-0.00170652758 	-0.003143624873 	8.901281929e-08 	0.000804475081 	-1.295947519e-07 	1.533553097e-06
0.09515486517 	-0.001728215767 	-0.003245628499 	6.378315857e-08 	0.0008115274369 	-8.72669996e-08 	1.546996847e-06
0.09781499197 	-0.001748441546 	-0.003348395183 	3.482339254e-08 	0.0008176224918 	-4.487325849e-08 	1.558615716e-06
0.100507166 	-0.001767131342 	-0.003451932547 	2.106435614e-09 	0.0008227128246 	-2.561046499e-09 	1.568319305e-06
0.1006723289 	-0.001768161144 	-0.003458229348 	-2.514568106e-08 	0.0008229563008 	-5.096271404e-08 	1.568783438e-06
0.1032407961 	-0.001784138914 	-0.003556040371 	2.79030343e-08 	0.0008266743963 	-3.684673277e-08 	1.575871162e-06
0.1060049194 	-0.001799360803 	-0.003660509385 	6.117683457e-08 	0.000829505468 	-7.561509051e-08 	1.581267971e-06
0.108799876 	-0.00181268339 	-0.003765046558 	9.804396077e-08 	0.0008311563547 	-1.137443741e-07 	1.58441502e-06
0.11162601 	-0.001824006359 	-0.00386946038 	1.383838917e-07 	0.0008315778711 	-1.510618059e-07 	1.585218547e-06
0.114483669 	-0.001833228626 	-0.00397352685 	1.82051838e-07 	0.0008307243589 	-1.87410681e-07 	1.583591516e-06
0.1173732048 	-0.001840251314 	-0.004077002661 	2.28881252e-07 	0.0008285543911 	-2.22657917e-07 	1.579454954e-06
0.1202961886 	-0.001844979209 	-0.004179760722 	2.787513455e-07 	0.0008250226706 	-2.567243404e-07 	1.572722513e-06
0.1232641206 	-0.001847309396 	-0.004281644994 	3.316778914e-07 	0.0008200827864 	-2.897146945e-07 	1.563305721e-06
0.1262651629 	-0.001847158114 	-0.004382196688 	3.873329214e-07 	0.0008137211698 	-3.215146129e-07 	1.551178712e-06
0.1292996849 	-0.001844490906 	-0.004481004409 	4.45690923e-07 	0.0008059481587 	-3.522806358e-07 	1.536361192e-06
0.1323680601 	-0.001839314547 	-0.004577792955 	4.804571817e-07 	0.0007967908975 	-3.623465464e-07 	1.518904907e-06
0.1354706662 	-0.001831682309 	-0.004672278141 	4.473736277e-07 	0.000786306838 	-3.22562983e-07 	1.498919376e-06
0.138607885 	-0.001821688582 	-0.004764236438 	4.116749094e-07 	0.0007745755995 	-2.842872841e-07 	1.476556375e-06
0.1417873791 	-0.00180945038 	-0.00485356284 	3.733909551e-07 	0.0007616798579 	-2.473086478e-07 	1.451973507e-06
0.1450082501 	-0.001795124853 	-0.004940024489 	3.324935317e-07 	0.0007477347268 	-2.114164223e-07 	1.425390211e-06
0.1482650567 	-0.001778901147 	-0.005023302479 	2.888086674e-07 	0.000732876729 	-1.763488778e-07 	1.397066738e-06
0.1515582 	-0.001760943078 	-0.00510321539 	2.419337007e-07 	0.0007172105651 	-1.417780284e-07 	1.367202675e-06
0.1548880853 	-0.001741361058 	-0.005179602105 	1.913909197e-07 	0.0007008055761 	-1.07484385e-07 	1.335930207e-06
0.1582551226 	-0.001720183542 	-0.005252281349 	1.36779568e-07 	0.0006836809557 	-7.345040529e-08 	1.303285921e-06
0.1616658524 	-0.001697329487 	-0.005321088912 	7.783655093e-08 	0.0006657810736 	-3.98571619e-08 	1.269163771e-06
0.1651212069 	-0.001672654361 	-0.005385658897 	1.482848488e-08 	0.0006470233756 	-7.219994742e-09 	1.233406385e-06
0.1659171165 	-0.001666584897 	-0.00539926709 	5.541785357e-07 	0.0006425390465 	-3.392124875e-07 	1.224858007e-06
0.1686151167 	-0.001645947834 	-0.005445285919 	4.542999025e-08 	0.0006273093588 	-2.322489422e-08 	1.19582599e-06
0.1721480121 	-0.001617034673 	-0.005499485464 	1.053991712e-07 	0.0006065355201 	-5.11306288e-08 	1.156225279e-06
0.175720328 	-0.00158574276 	-0.005547663325 	1.654482425e-07 	0.0005846171486 	-7.623743792e-08 	1.114442771e-06
0.1793325041 	-0.001551931824 	-0.005589160936 	2.243191517e-07 	0.0005614991245 	-9.840960732e-08 	1.070373392e-06
0.182994898 	-0.001515538892 	-0.005623334205 	2.811643102e-07 	0.0005371720386 	-1.17840994e-07 	1.023999205e-06
0.1867003698 	-0.001476672159 	-0.005649457322 	3.3525259e-07 	0.0005117423225 	-1.348203553e-07 	9.755230981e-07
0.1904471912 	-0.001435568978 	-0.005666882738 	3.865194267e-07 	0.0004853903791 	-1.498217809e-07 	9.252889699e-07
0.1942358234 	-0.001392533116 	-0.005675146289 	4.35445911e-07 	0.0004583212885 	-1.633001044e-07 	8.736877596e-07
0.1980667329 	-0.001347918012 	-0.005673885931 	4.828810115e-07 	0.0004307688705 	-1.75554239e-07 	8.211651933e-07
0.201946184 	-0.001302082941 	-0.005662905184 	5.299579652e-07 	0.0004029501706 	-1.866629674e-07 	7.681350194e-07
0.205874617 	-0.001255427618 	-0.005642108409 	5.571845767e-07 	0.0003750998484 	-1.894461394e-07 	7.150445647e-07
0.2098468907 	-0.001208368787 	-0.005611522174 	5.011604873e-07 	0.0003474548244 	-1.634233727e-07 	6.623454654e-07
0.2138634941 	-0.001161258304 	-0.005571343563 	4.477470096e-07 	0.0003201951727 	-1.387746627e-07 	6.103809927e-07
0.2179249219 	-0.001114374384 	-0.005521829756 	3.959811461e-07 	0.0002934611012 	-1.153854476e-07 	5.594184223e-07
0.2220370961 	-0.001067921851 	-0.005463323353 	3.449077446e-07 	0.000267340593 	-9.332050025e-08 	5.096254736e-07
0.226200533 	-0.001022094017 	-0.005396233923 	2.93879693e-07 	0.0002419203236 	-7.282927057e-08 	4.61167375e-07
0.2304104359 	-0.0009770770766 	-0.005321043342 	2.425467455e-07 	0.0002172893533 	-5.424366581e-08 	4.142138997e-07
0.2346673231 	-0.0009330017374 	-0.005238294256 	1.908154391e-07 	0.0001935040612 	-3.788412103e-08 	3.688725223e-07
0.238971719 	-0.0008899457969 	-0.005148498537 	1.389050778e-07 	0.0001706054159 	-2.402182654e-08 	3.252213401e-07
0.2433319693 	-0.0008479539327 	-0.005052187617 	8.721569925e-08 	0.0001486160401 	-1.283057914e-08 	2.83303478e-07
0.2477431375 	-0.0008071046006 	-0.004949971265 	3.650385245e-08 	0.0001275877182 	-4.426771024e-09 	2.432176521e-07
0.2510499412 	-0.000777732813 	-0.004870292878 	2.193369685e-06 	0.0001127554633 	-2.489371334e-07 	2.149432518e-07
0.2522035389 	-0.0007674775299 	-0.004842505395 	1.311298415e-08 	0.0001075728806 	-1.182888855e-09 	2.050638087e-07
0.2567137226 	-0.0007291206229 	-0.004730441504 	6.216331137e-08 	8.86041291e-05 	-3.981181508e-09 	1.689040963e-07
0.2612769989 	-0.0006920381792 	-0.004614334199 	1.082917757e-07 	7.070143651e-05 	-4.14509749e-09 	1.347765884e-07
0.2658977798 	-0.0006562497375 	-0.004494800835 	1.509843857e-07 	5.388238739e-05 	-1.966099782e-09 	1.027148062e-07
0.2705701354 	-0.0006217962801 	-0.004372524877 	1.899420247e-07 	3.817115912e-05 	2.216313973e-09 	7.276483841e-08
0.275294641 	-0.000588697387 	-0.004248166475 	2.251793665e-07 	2.356970208e-05 	8.069638432e-09 	4.493040303e-08
0.2800721922 	-0.0005569418678 	-0.004122299696 	2.568749756e-07 	1.005977787e-05 	1.530747712e-08 	1.91767326e-08
0.2849113354 	-0.0005265097389 	-0.003995472595 	2.853321061e-07 	-2.388829744e-06 	2.368888721e-08 	-4.553773433e-09
0.2898044922 	-0.0004974098019 	-0.003868311841 	3.108067056e-07 	-1.379551188e-05 	3.297010486e-08 	-2.629807991e-08
0.2947522652 	-0.0004696375032 	-0.003741396776 	3.337181988e-07 	-2.419184999e-05 	4.291950208e-08 	-4.611638986e-08
0.2997552636 	-0.0004431581342 	-0.003615203292 	3.54521048e-07 	-3.362724026e-05 	5.333799513e-08 	-6.410286614e-08
0.3048217599 	-0.0004179270204 	-0.003490153859 	3.736675051e-07 	-4.215764881e-05 	6.406950572e-08 	-8.036419574e-08
0.3099449938 	-0.0003939178255 	-0.003366712569 	3.601792343e-07 	-4.983097697e-05 	6.896961361e-08 	-9.499169191e-08
0.3151254131 	-0.000371093596 	-0.003245262881 	3.198230269e-07 	-5.66979775e-05 	6.728197179e-08 	-1.080821035e-07
0.3203643454 	-0.0003493942886 	-0.003126074748 	2.826044621e-07 	-6.282002919e-05 	6.44276297e-08 	-1.197524356e-07
0.3256681805 	-0.0003287577219 	-0.003009348554 	2.481447885e-07 	-6.825422536e-05 	6.058469567e-08 	-1.301115238e-07
0.3310312183 	-0.0003091361714 	-0.002895286248 	2.161700193e-07 	-7.304810683e-05 	5.590649844e-08 	-1.392499943e-07
0.3364541189 	-0.0002904759895 	-0.002783999563 	1.864077501e-07 	-7.724527588e-05 	5.055648117e-08 	-1.47250965e-07
0.3419400009 	-0.0002727154134 	-0.002675503206 	1.58820858e-07 	-8.08885362e-05 	4.477089084e-08 	-1.541960318e-07
0.3474910806 	-0.000255801154 	-0.002569770834 	1.330543815e-07 	-8.401310998e-05 	3.870266311e-08 	-1.601523379e-07
0.3531041231 	-0.0002396818118 	-0.002466761945 	1.081736853e-07 	-8.665345697e-05 	3.233680893e-08 	-1.651855731e-07
0.3587798191 	-0.0002242910303 	-0.002366345866 	8.424902168e-08 	-8.884921239e-05 	2.573620208e-08 	-1.693712932e-07
0.3645235755 	-0.0002095641087 	-0.002268316066 	6.154276123e-08 	-9.063374362e-05 	1.908333737e-08 	-1.727731057e-07
0.3703324803 	-0.0001954569357 	-0.002172462439 	3.982919766e-08 	-9.202079431e-05 	1.252182165e-08 	-1.754172098e-07
0.3762062255 	-0.0001819425356 	-0.002078490048 	1.894252804e-08 	-9.299382796e-05 	6.044935761e-09 	-1.772720824e-07
0.3818349366 	-0.0001696791323 	-0.001991006471 	2.841295329e-07 	-9.352101029e-05 	2.398409291e-09 	-1.782770384e-07
0.3821475528 	-0.0001689976576 	-0.001986148004 	1.066114132e-09 	-9.355054442e-05 	3.46847055e-10 	-1.783333387e-07
0.3881582854 	-0.0001565935949 	-0.001895439834 	2.046869151e-08 	-9.374166517e-05 	6.742997088e-09 	-1.78697668e-07
0.3942361112 	-0.000144665969 	-0.001806076851 	3.859912033e-08 	-9.360169084e-05 	1.276014698e-08 	-1.78430838e-07
0.4003822316 	-0.0001331617571 	-0.001717559266 	5.611417272e-08 	-9.313629923e-05 	1.838309225e-08 	-1.775436722e-07
0.4066010098 	-0.0001220615754 	-0.00162953187 	7.291101435e-08 	-9.233727162e-05 	2.363397874e-08 	-1.760205035e-07
0.4128892032 	-0.0001113567818 	-0.00154167835 	8.888767847e-08 	-9.119051998e-05 	2.848316632e-08 	-1.738344762e-07
0.4192475857 	-0.0001010368652 	-0.001453692532 	1.039387938e-07 	-8.968757682e-05 	3.287310975e-08 	-1.709694488e-07
0.4256805892 	-9.108993026e-05 	-0.001365280785 	1.179707308e-07 	-8.782854696e-05 	3.6757347e-08 	-1.674256212e-07
0.4321857004 	-8.151717056e-05 	-0.001276211304 	1.308812724e-07 	-8.561301812e-05 	4.010752163e-08 	-1.632022074e-07
0.4387634212 	-7.232692661e-05 	-0.001186296286 	1.425736805e-07 	-8.30401093e-05 	4.2910205e-08 	-1.582975281e-07
0.4454175046 	-6.352873333e-05 	-0.001095408646 	1.529029495e-07 	-8.011760361e-05 	4.514834502e-08 	-1.5272642e-07
0.4521463543 	-5.514111022e-05 	-0.001003532851 	1.616650025e-07 	-7.68588307e-05 	4.680174933e-08 	-1.465142931e-07
0.4589503101 	-4.718685767e-05 	-0.0009107639193 	1.686793926e-07 	-7.328695204e-05 	4.786659463e-08 	-1.397052996e-07
0.4658328557 	-3.968871549e-05 	-0.0008173367596 	1.73706434e-07 	-6.944543348e-05 	4.834643816e-08 	-1.323822976e-07
0.4727925432 	-3.267576098e-05 	-0.0007237063054 	1.76416171e-07 	-6.539801866e-05 	4.825262874e-08 	-1.246668e-07
0.479829972 	-2.617907654e-05 	-0.0006306015351 	1.764263978e-07 	-6.123669843e-05 	4.762382416e-08 	-1.167341671e-07
0.486948429 	-2.022809574e-05 	-0.0005391541231 	1.732310368e-07 	-5.709385346e-05 	4.651724088e-08 	-1.088367531e-07
0.4941463394 	-1.486427038e-05 	-0.0004511908517 	1.663400732e-07 	-5.315090703e-05 	4.502179929e-08 	-1.013204013e-07
0.5013447716 	-1.014357253e-05 	-0.0003693300703 	1.552069e-07 	-4.964582571e-05 	4.317476176e-08 	-9.463874215e-08
0.508465376 	-6.082541025e-06 	-0.0002960566823 	1.298846376e-07 	-4.682157233e-05 	3.809985378e-08 	-8.925493025e-08
0.5155074155 	-2.629375607e-06 	-0.0002328907843 	1.061853082e-07 	-4.486466277e-05 	3.385943886e-08 	-8.552451673e-08
0.5224724405 	3.07816126e-07 	-0.0001803185649 	8.52423156e-08 	-4.388251402e-05 	3.053269755e-08 	-8.365226823e-08
0.5293615891 	2.833588138e-06 	-0.0001378135818 	6.779689037e-08 	-4.387526938e-05 	2.816897315e-08 	-8.363845795e-08
0.5361747244 	5.042978494e-06 	-0.0001041191572 	5.393974408e-08 	-4.472293578e-05 	2.672401151e-08 	-8.525434569e-08
0.5429133278 	7.008786418e-06 	-7.769699943e-05 	4.328573995e-08 	-4.621495351e-05 	2.605131201e-08 	-8.809854618e-08
0.5495782327 	8.779687909e-06 	-5.706776008e-05 	3.529276608e-08 	-4.810102437e-05 	2.592662807e-08 	-9.169392145e-08
0.5561695966 	1.038720868e-05 	-4.094041171e-05 	2.943417636e-08 	-5.01430929e-05 	2.608397545e-08 	-9.558667163e-08
0.5626887148 	1.185704044e-05 	-2.821708375e-05 	2.526134566e-08 	-5.215961105e-05 	2.632601737e-08 	-9.943071567e-08
0.5691364214 	1.320944928e-05 	-1.797272465e-05 	2.237391671e-08 	-5.402419458e-05 	2.659975388e-08 	-1.029851301e-07
0.5755129821 	1.444955555e-05 	-9.448398325e-06 	2.035594754e-08 	-5.562286757e-05 	2.680574619e-08 	-1.060326452e-07
0.5818194612 	1.557563585e-05 	-2.058325199e-06 	1.887150871e-08 	-5.687503294e-05 	2.68388935e-08 	-1.084196204e-07
0.5880568427 	1.658825458e-05 	4.626978766e-06 	1.771626713e-08 	-5.775233556e-05 	2.668892603e-08 	-1.10092003e-07
0.5942253977 	1.74879152e-05 	1.091808977e-05 	1.675813753e-08 	-5.825222203e-05 	2.634127324e-08 	-1.110449256e-07
0.6003259628 	1.827935126e-05 	1.703981709e-05 	1.592580784e-08 	-5.839921949e-05 	2.580001986e-08 	-1.113251436e-07
0.6063597157 	1.897315138e-05 	2.31606463e-05 	1.519257581e-08 	-5.824005905e-05 	2.509155517e-08 	-1.110217395e-07
0.612326888 	1.958410877e-05 	2.941619108e-05 	1.455573722e-08 	-5.783292432e-05 	2.424726195e-08 	-1.102456276e-07
0.6182282137 	2.013010246e-05 	3.592842136e-05 	1.40234852e-08 	-5.724059782e-05 	2.3298613e-08 	-1.091164887e-07
0.6240647607 	2.06320792e-05 	4.281764419e-05 	1.361208357e-08 	-5.652756401e-05 	2.227836047e-08 	-1.07757248e-07
0.6298369959 	2.111319783e-05 	5.020936794e-05 	1.334332673e-08 	-5.575728585e-05 	2.121899344e-08 	-1.062888838e-07
0.6355455349 	2.159739195e-05 	5.824125013e-05 	1.323810353e-08 	-5.498902267e-05 	2.014557978e-08 	-1.048243606e-07
0.6411911782 	2.211065335e-05 	6.706926325e-05 	1.331733336e-08 	-5.428029456e-05 	1.908179957e-08 	-1.034733279e-07
0.6467747435 	2.26809702e-05 	7.68702964e-05 	1.360455126e-08 	-5.368668753e-05 	1.805220101e-08 	-1.023417479e-07
0.6522966938 	2.333723666e-05 	8.784543824e-05 	1.412170153e-08 	-5.32598113e-05 	1.707383873e-08 	-1.015280031e-07
0.6577577088 	2.410944385e-05 	0.0001002235477 	1.488934944e-08 	-5.304801351e-05 	1.615767262e-08 	-1.011242577e-07
0.6631586198 	2.502958147e-05 	0.0001142618971 	1.592798049e-08 	-5.309871932e-05 	1.531208e-08 	-1.01220917e-07
0.6685000027 	2.613152625e-05 	0.00013024352 	1.725808002e-08 	-5.345883196e-05 	1.454460106e-08 	-1.019073918e-07
0.6737824424 	2.744983648e-05 	0.0001484729108 	1.889193182e-08 	-5.41730014e-05 	1.385778302e-08 	-1.032687973e-07
0.679006589 	2.901939908e-05 	0.0001692676928 	2.083090034e-08 	-5.528387062e-05 	1.32535916e-08 	-1.053864228e-07
0.6841732363 	3.087418683e-05 	0.0001929425384 	2.306312038e-08 	-5.683092678e-05 	1.273618169e-08 	-1.083355418e-07
0.6892828813 	3.304445661e-05 	0.0002197870515 	2.555907158e-08 	-5.884667578e-05 	1.231108497e-08 	-1.121781196e-07
0.6943361397 	3.555354736e-05 	0.0002500417544 	2.826549613e-08 	-6.135224046e-05 	1.19824949e-08 	-1.169544223e-07
0.6993336336 	3.841578262e-05 	0.0002838743291 	3.111088527e-08 	-6.435520386e-05 	1.175465944e-08 	-1.226789052e-07
0.7042760903 	4.163498877e-05 	0.0003213593911 	3.401714339e-08 	-6.784831634e-05 	1.163204504e-08 	-1.293377484e-07
0.7091640066 	4.520331432e-05 	0.0003624682172 	3.690806982e-08 	-7.180809206e-05 	1.161644015e-08 	-1.368861815e-07
0.7139979828 	4.91018502e-05 	0.0004070737383 	3.971461235e-08 	-7.619603851e-05 	1.170440252e-08 	-1.45250827e-07
0.7187786138 	5.330292794e-05 	0.000454967105 	4.238568109e-08 	-8.096244251e-05 	1.188853678e-08 	-1.543369178e-07
0.7235065557 	5.777329596e-05 	0.0005058807458 	4.489486255e-08 	-8.605140572e-05 	1.215911169e-08 	-1.64037896e-07
0.7281823321 	6.247653299e-05 	0.0005595129331 	4.72387881e-08 	-9.140416043e-05 	1.250463681e-08 	-1.742417342e-07
0.7328065091 	6.737535734e-05 	0.0006155528461 	4.942439431e-08 	-9.696222414e-05 	1.291069095e-08 	-1.848369485e-07
0.737379656 	7.243372023e-05 	0.0006737002769 	5.146901562e-08 	-0.0001026703867 	1.33624539e-08 	-1.957182927e-07
0.7419023644 	7.761863128e-05 	0.0007336784257 	5.339794869e-08 	-0.0001084794805 	1.384604396e-08 	-2.067920402e-07
0.7463751843 	8.29008299e-05 	0.0007952394719 	5.524665505e-08 	-0.000114347089 	1.435021955e-08 	-2.179773327e-07
0.7507986441 	8.82545667e-05 	0.0008581680563 	5.704634063e-08 	-0.0001202366488 	1.486312507e-08 	-2.292044707e-07
0.7551732887 	9.365806972e-05 	0.0009222833167 	5.882784942e-08 	-0.0001261180713 	1.537377027e-08 	-2.404160966e-07
0.7594996577 	9.909357738e-05 	0.0009874374453 	6.062219282e-08 	-0.0001319675976 	1.587231474e-08 	-2.515669194e-07
0.7637783137 	0.0001045474761 	0.001053513222 	6.246588434e-08 	-0.0001377679711 	1.635163237e-08 	-2.626240435e-07
0.7680097523 	0.00011000944 	0.001120419937 	6.439491783e-08 	-0.0001435066847 	1.680564556e-08 	-2.735636267e-07
0.7721944944 	0.0001154722199 	0.001188092629 	6.643940034e-08 	-0.0001491755872 	1.722816456e-08 	-2.843701303e-07
0.7763330552 	0.0001209312537 	0.001256489188 	6.862723252e-08 	-0.0001547702218 	1.76141614e-08 	-2.950350589e-07
0.7804259499 	0.000126384463 	0.001325588063 	7.098336006e-08 	-0.0001602896418 	1.796001207e-08 	-3.055566075e-07
0.7844736913 	0.0001318319797 	0.001395383872 	7.353544634e-08 	-0.000165736158 	1.826534663e-08 	-3.159391812e-07
0.7884767633 	0.0001372748262 	0.001465883359 	7.630198191e-08 	-0.0001711130627 	1.853009038e-08 	-3.26189056e-07
0.7924356588 	0.0001427148505 	0.001537104264 	7.929197889e-08 	-0.0001764249378 	1.875501544e-08 	-3.363149661e-07
0.7963508653 	0.0001481538879 	0.001609070367 	8.250656873e-08 	-0.0001816764534 	1.894243347e-08 	-3.463258145e-07
0.8002228677 	0.0001535933279 	0.00168180892 	8.593815095e-08 	-0.0001868720429 	1.909633949e-08 	-3.562300522e-07
0.8040521488 	0.0001590337448 	0.001755345279 	8.957648033e-08 	-0.0001920157153 	1.922402828e-08 	-3.660353213e-07
0.8078391712 	0.0001644735492 	0.001829697903 	9.339759307e-08 	-0.0001971089261 	1.93335258e-08 	-3.757443967e-07