0.3179529243 	3.382526602e-07 	-1.021954564e-09 	1.589725754e-13 	3.367897932e-07 	-4.105961216e-11 	6.420149516e-10
0.3179529243 	3.382526602e-07 	-1.021954564e-09 	1.589725754e-13 	3.367897932e-07 	-4.105961216e-11 	6.420149516e-10
0.318152706 	4.661010792e-06 	-5.758875762e-08 	1.350672922e-11 	4.606006013e-06 	-8.270900416e-10 	8.780327634e-09
0.3183524966 	2.73679194e-05 	-8.003599107e-07 	2.194975293e-10 	2.667456725e-05 	-5.510739407e-09 	5.084913898e-08
0.318552295 	9.433759111e-05 	-5.12996141e-06 	1.553592837e-09 	9.00484183e-05 	-2.037720437e-08 	1.716573129e-07
0.3187521003 	0.0002390806759 	-2.091047086e-05 	6.785342244e-09 	0.0002218774236 	-5.34541909e-08 	4.22960037e-07
0.3189519114 	0.0004982971472 	-6.302722277e-05 	2.139914325e-08 	0.0004468785562 	-1.12293705e-07 	8.518747315e-07
0.3191517275 	0.0009058162857 	-0.0001524013205 	5.292534346e-08 	0.0007820868372 	-2.014388217e-07 	1.490874882e-06
0.3193515475 	0.001483167401 	-0.0003101893086 	1.07733765e-07 	0.001232096031 	-3.201238217e-07 	2.348717478e-06
0.3195513705 	0.002229610427 	-0.0005485693441 	1.865729473e-07 	0.001786477058 	-4.614975041e-07 	3.405521799e-06
0.3197511955 	0.003117782454 	-0.0008635634379 	2.825466248e-07 	0.002421165353 	-6.142591683e-07 	4.615414091e-06
0.3199510214 	0.004099284611 	-0.001235315712 	3.839133548e-07 	0.003103819392 	-7.660378618e-07 	5.916742422e-06
0.3201508474 	0.005117801641 	-0.001635649004 	4.795206004e-07 	0.003800872065 	-9.066056014e-07 	7.245518553e-06
0.3203506724 	0.006122424798 	-0.002037383154 	5.625725663e-07 	0.004483343971 	-1.029449709e-06 	8.54649969e-06
0.3205504955 	0.007075412086 	-0.00242024129 	6.309922814e-07 	0.005129830143 	-1.131653828e-06 	9.778882015e-06
0.3207503157 	0.007953610684 	-0.002772201193 	6.857485753e-07 	0.005726840336 	-1.212903845e-06 	1.091694937e-05
0.3209501321 	0.008746006502 	-0.003088022441 	7.290368737e-07 	0.006267556826 	-1.274385799e-06 	1.194770529e-05
0.3211499436 	0.009450091548 	-0.003366967516 	7.631484889e-07 	0.006750050348 	-1.317950693e-06 	1.286747204e-05
0.3213497493 	0.01006859632 	-0.003610832364 	7.900002889e-07 	0.007175598566 	-1.345611786e-06 	1.367868522e-05
0.3215495483 	0.01060709073 	-0.0038225958 	8.110436612e-07 	0.007547370014 	-1.359297629e-06 	1.438738493e-05
0.3217493395 	0.01107241778 	-0.004005614359 	8.273273682e-07 	0.007869502425 	-1.360756695e-06 	1.500145884e-05
0.3219491221 	0.01147175284 	-0.004163193258 	8.395956463e-07 	0.008146505283 	-1.351535847e-06 	1.552950327e-05
0.322148895 	0.01181208034 	-0.004298385017 	8.483695891e-07 	0.008382895632 	-1.332970124e-06 	1.598012898e-05
0.3223486573 	0.01209992312 	-0.004413918391 	8.541003981e-07 	0.008583003362 	-1.306484287e-06 	1.636158993e-05
0.322548408 	0.0123412298 	-0.004512179864 	8.569294291e-07 	0.008750860194 	-1.273206879e-06 	1.668157171e-05
0.3227481462 	0.0125415298 	-0.004595590335 	8.655647804e-07 	0.008889948836 	-1.229269808e-06 	1.694671332e-05
0.322947871 	0.01270546485 	-0.004665475241 	8.582957826e-07 	0.009003666636 	-1.183064703e-06 	1.716349105e-05
0.3231475813 	0.01283630016 	-0.004720888064 	7.884854294e-07 	0.009095869637 	-1.154433456e-06 	1.733925559e-05
0.3233472762 	0.01293716117 	-0.004761602582 	6.829086315e-07 	0.009169674517 	-1.132774908e-06 	1.747994821e-05
0.3235469548 	0.01301179135 	-0.004790121958 	6.161869215e-07 	0.009226693373 	-1.087561495e-06 	1.7588642e-05
0.3237466161 	0.01306365189 	-0.004809492509 	5.826595805e-07 	0.009267963351 	-1.02077606e-06 	1.766731404e-05
0.3239462591 	0.01309833384 	-0.004822521238 	5.37306312e-07 	0.009297469724 	-9.325752384e-07 	1.772356139e-05
0.32425642 	0.01310876883 	-0.004826654484 	4.742702533e-07 	0.009310942272 	-8.098825256e-07 	1.774924381e-05
0.3245723591 	0.01308267044 	-0.004817285765 	3.89467615e-07 	0.009299054196 	-6.453218557e-07 	1.772658184e-05
0.3248941791 	0.01302021361 	-0.004794394349 	2.88371026e-07 	0.009261144938 	-4.48966225e-07 	1.765431625e-05
0.3252219844 	0.01292383422 	-0.004758829599 	1.692361529e-07 	0.009198739996 	-2.171400984e-07 	1.753535509e-05
0.3255558808 	0.01279538301 	-0.004711247116 	2.994188658e-08 	0.00911300694 	5.452452688e-08 	1.737192406e-05
0.3258959756 	0.01263620383 	-0.0046521165 	-1.320160113e-07 	0.009004748188 	3.710967922e-07 	1.716555279e-05
0.3262423775 	0.01244717815 	-0.004581741767 	-3.033274398e-07 	0.008874445294 	7.009071932e-07 	1.691715925e-05
0.3265951969 	0.01222876076 	-0.004500278979 	-4.774050752e-07 	0.008722299471 	1.035820238e-06 	1.662712703e-05
0.3269545455 	0.01198102286 	-0.004407757227 	-6.548910403e-07 	0.00854828113 	1.37789674e-06 	1.629539971e-05
0.3273205366 	0.01170384996 	-0.004304159661 	-8.326846583e-07 	0.008352302827 	1.720465637e-06 	1.592181059e-05
0.3276932849 	0.01139759685 	-0.004189670444 	-1.002320001e-06 	0.008134715434 	2.046306482e-06 	1.550702854e-05
0.3280729065 	0.01106377425 	-0.004064923767 	-1.154264361e-06 	0.007896795763 	2.336352228e-06 	1.505348752e-05
0.328459519 	0.0107046191 	-0.003930832613 	-1.286728333e-06 	0.00764039699 	2.587097234e-06 	1.45647202e-05
0.3288532414 	0.01032189129 	-0.003788128879 	-1.404043674e-06 	0.00736702265 	2.807451034e-06 	1.404359273e-05
0.3292541942 	0.00991640382 	-0.003637177604 	-1.509414336e-06 	0.00707743643 	3.004327946e-06 	1.349156091e-05
0.329662499 	0.009488386244 	-0.00347810931 	-1.603002182e-06 	0.006771910866 	3.178552054e-06 	1.290914427e-05
0.330078279 	0.009037931988 	-0.003310992724 	-1.682738892e-06 	0.006450574169 	3.326299323e-06 	1.229658721e-05
0.3305016584 	0.008565327175 	-0.003135965317 	-1.745050325e-06 	0.006113681503 	3.440572685e-06 	1.165437616e-05
0.330932763 	0.008071306225 	-0.002953333256 	-1.78553846e-06 	0.005761824026 	3.512649565e-06 	1.098363801e-05
0.3313717196 	0.007557260399 	-0.002763649698 	-1.799521464e-06 	0.005396090482 	3.533242028e-06 	1.028644822e-05
0.3318186562 	0.007025430183 	-0.002567783527 	-1.782481725e-06 	0.005018205291 	3.493444456e-06 	9.566094023e-06
0.332273702 	0.006479098175 	-0.002366985524 	-1.730543577e-06 	0.004630657774 	3.385700045e-06 	8.827320742e-06
0.3327369872 	0.005922754603 	-0.002162945937 	-1.641065839e-06 	0.004236817256 	3.204954294e-06 	8.076551252e-06
0.333208643 	0.005361854048 	-0.00195768135 	-1.513381308e-06 	0.003840696366 	2.950053543e-06 	7.321434741e-06
0.333690202 	0.004799405157 	-0.001752315054 	-1.349012772e-06 	0.003444644052 	2.624101173e-06 	6.566448952e-06
0.3341943182 	0.004241492955 	-0.001549096689 	-1.147861493e-06 	0.003053231374 	2.227065185e-06 	5.8203076e-06
0.3347076387 	0.003703300922 	-0.001353564313 	-9.253378435e-07 	0.002677395399 	1.79004182e-06 	5.103859775e-06
0.3352303273 	0.003199512533 	-0.001170980638 	-6.974350735e-07 	0.002327421724 	1.346846552e-06 	4.436712679e-06
0.3357625509 	0.002739282805 	-0.001004066431 	-4.997524291e-07 	0.002008964602 	9.290778434e-07 	3.829644893e-06
0.3363044791 	0.002324546262 	-0.0008484232174 	-3.429001364e-07 	0.001725011639 	5.613619096e-07 	3.288351626e-06
0.3368562843 	0.001947717488 	-0.0006920112825 	-1.756271277e-07 	0.001475018067 	2.564729123e-07 	2.811794395e-06
0.337418142 	0.00160523128 	-0.0005367362318 	-3.939762973e-09 	0.001253704257 	5.646987487e-09 	2.389908762e-06
0.3374324648 	0.001597711297 	-0.0005332658365 	1.564554141e-07 	0.001248834765 	-2.205773452e-07 	2.380626158e-06
0.337988836 	0.001304639381 	-0.0003980311747 	-1.516600938e-07 	0.001059107286 	2.187272994e-07 	2.01895285e-06
0.3385698873 	0.001052567207 	-0.0002820763028 	-2.62496931e-07 	0.0008951714283 	3.801505611e-07 	1.706445542e-06
0.3391615162 	0.0008532568665 	-0.0001901636495 	-3.178016817e-07 	0.0007658660714 	4.591072629e-07 	1.459953594e-06
0.3397639102 	0.0007066793521 	-0.0001219588572 	-3.169421995e-07 	0.0006716068863 	4.533851091e-07 	1.280269389e-06
0.3403772602 	0.0006072539792 	-7.414717242e-05 	-2.774259229e-07 	0.0006096027935 	3.77977662e-07 	1.162072355e-06
0.3410017602 	0.0005456900304 	-4.194319275e-05 	-2.223249689e-07 	0.0005744357303 	2.621229787e-07 	1.095034158e-06
0.3416376076 	0.0005119620329 	-2.069551862e-05 	-1.686157839e-07 	0.0005596626176 	1.352917365e-07 	1.066872499e-06
0.342285003 	0.0004974038256 	-6.728659348e-06 	-1.239503049e-07 	0.0005592909234 	1.724715403e-08 	1.066163947e-06
0.3429441507 	0.0004952720762 	2.539821484e-06 	-8.967169723e-08 	0.000568328282 	-8.008890903e-08 	1.083391664e-06
0.3436152583 	0.0005007220213 	8.81142039e-06 	-6.438463534e-08 	0.0005830283426 	-1.537097876e-07 	1.111414065e-06
0.3442985368 	0.0005106120019 	1.317863443e-05 	-4.616297946e-08 	0.0006009474068 	-2.087245898e-07 	1.145572782e-06
0.3449942011 	0.0005230649392 	1.633976621e-05 	-3.329703665e-08 	0.0006206654512 	-2.517332617e-07 	1.183160855e-06
0.3457024694 	0.0005370048328 	1.87411117e-05 	-2.437945314e-08 	0.0006414169954 	-2.877908575e-07 	1.222719066e-06
0.3464235639 	0.0005518264532 	2.0667337e-05 	-1.830113627e-08 	0.0006628094097 	-3.202028269e-07 	1.263498953e-06
0.3471577105 	0.0005671925177 	2.229836061e-05 	-1.421808989e-08 	0.000684653077 	-3.509320115e-07 	1.305139054e-06
0.3479051389 	0.0005829196752 	2.375004001e-05 	-1.151549693e-08 	0.0007068572556 	-3.810615024e-07 	1.34746639e-06
0.3486660827 	0.0005989647888 	2.50980924e-05 	-9.753227777e-09 	0.0007294582341 	-4.111602134e-07 	1.390550137e-06
0.34945109 	0.000615391622 	2.638902086e-05 	-8.548290422e-09 	0.0007526166924 	-4.405565407e-07 	1.434696595e-06
0.3502630611 	0.0006321896925 	2.764651433e-05 	-6.658161222e-09 	0.0007763286181 	-4.141691902e-07 	1.479898115e-06
0.3510896352 	0.0006492251046 	2.888154626e-05 	-5.209808541e-09 	0.0008004351164 	-3.877407269e-07 	1.525851801e-06
0.3519310666 	0.000666414055 	3.009917263e-05 	-4.036332944e-09 	0.0008248564068 	-3.609949144e-07 	1.572405568e-06
0.3527876142 	0.0006837463256 	3.13094608e-05 	-3.213683859e-09 	0.0008496113133 	-3.344106345e-07 	1.6195953e-06
0.3536595409 	0.0007012097975 	3.252224964e-05 	-2.816749667e-09 	0.0008747367885 	-3.080272383e-07 	1.667491439e-06
0.3545471142 	0.0007187869412 	3.374791735e-05 	-2.519295561e-09 	0.0009002913115 	-2.796677543e-07 	1.716205463e-06
0.3554506062 	0.0007364585172 	3.499441631e-05 	-2.130238342e-09 	0.0009263239707 	-2.486345566e-07 	1.765830947e-06
0.3563702933 	0.0007542067827 	3.624663634e-05 	-1.653229945e-09 	0.0009527762803 	-2.159824336e-07 	1.816256401e-06
0.357306457 	0.0007719902096 	3.749095353e-05 	-1.135619949e-09 	0.0009796785435 	-1.825079101e-07 	1.867539591e-06
0.358259383 	0.0007919940152 	3.893951749e-05 	-5.984987994e-10 	0.001010694316 	-1.483702072e-07 	1.926664273e-06
0.3597206513 	0.000816338411 	4.076815448e-05 	-9.93715274e-11 	0.001048573792 	-9.443073371e-08 	1.998873084e-06
0.3611962551 	0.0008426774644 	4.283138624e-05 	7.839700735e-11 	0.001089226803 	-3.88232492e-08 	2.076369022e-06
0.3622065599 	0.0008603607027 	4.432455969e-05 	2.834188182e-08 	0.001116479409 	5.186129874e-07 	2.128320064e-06
0.3626853298 	0.0008687608714 	4.503327856e-05 	5.945646603e-12 	0.001129420439 	-1.871483576e-08 	2.152989262e-06
0.3641869071 	0.0008947096536 	4.73959792e-05 	2.368949527e-10 	0.001169750294 	-7.790973286e-08 	2.229869175e-06
0.3657415917 	0.000920672254 	4.994902531e-05 	9.77582186e-10 	0.00121058214 	-1.389259761e-07 	2.307706023e-06
0.3673153958 	0.0009465548595 	5.267907911e-05 	2.224802126e-09 	0.00125148579 	-2.004385267e-07 	2.385679748e-06
0.3689044967 	0.0009722178157 	5.557010454e-05 	3.878031932e-09 	0.001292213608 	-2.634339345e-07 	2.463318289e-06
0.3705090474 	0.0009976639377 	5.863156684e-05 	5.956582776e-09 	0.001332847695 	-3.277236228e-07 	2.540778152e-06
0.372129203 	0.00102291805 	6.186620781e-05 	8.372254184e-09 	0.001373431385 	-3.930528308e-07 	2.618141945e-06
0.3737651208 	0.001048007693 	6.527598323e-05 	1.108927313e-08 	0.001414004553 	-4.592385482e-07 	2.695485681e-06
0.3754169603 	0.001072960497 	6.885589115e-05 	1.411151186e-08 	0.001454617888 	-5.261226796e-07 	2.772905984e-06
0.3770848833 	0.001097818303 	7.260896665e-05 	1.412465302e-08 	0.001495295423 	-4.808136959e-07 	2.850448673e-06
0.3787690537 	0.001122721646 	7.653225481e-05 	1.333733572e-08 	0.001536257831 	-4.189718994e-07 	2.928534407e-06
0.3804988631 	0.001147854427 	8.063741652e-05 	1.214556583e-08 	0.001577810185 	-3.549687045e-07 	3.007744741e-06
0.3822608994 	0.001173214809 	8.492123855e-05 	1.057889716e-08 	0.001619832597 	-2.895236501e-07 	3.08785114e-06
0.384039893 	0.001198684338 	8.93307897e-05 	8.674401091e-09 	0.001662068275 	-2.234035553e-07 	3.16836408e-06
0.3858360178 	0.001224230391 	9.38270286e-05 	6.445323548e-09 	0.001704480379 	-1.566903971e-07 	3.249213339e-06
0.3876494502 	0.001249871709 	9.838498278e-05 	3.889689712e-09 	0.001747109595 	-8.940220118e-08 	3.330476473e-06
0.3894803696 	0.001275609045 	0.0001029760043 	9.858447293e-10 	0.001790007404 	-2.143869147e-08 	3.41225162e-06
0.3900584941 	0.001283679295 	0.0001044149365 	5.516415596e-08 	0.00180351968 	4.954223175e-07 	3.438009772e-06
0.3913268074 	0.0013014147 	0.0001075752572 	2.023341221e-09 	0.001833222634 	-4.708703227e-08 	3.494631857e-06
0.3931901374 	0.001327323921 	0.0001121713571 	5.3205984e-09 	0.001876962419 	-1.168450596e-07 	3.578012046e-06
0.3950927878 	0.001353400146 	0.0001167693004 	9.13180874e-09 	0.001921646633 	-1.896944407e-07 	3.663192577e-06
0.3970388981 	0.001379524981 	0.0001213871043 	1.35196812e-08 	0.001967435515 	-2.669842204e-07 	3.750478912e-06
0.3990036413 	0.001405364746 	0.0001260023713 	1.845234883e-08 	0.002014261057 	-3.493269399e-07 	3.83974141e-06
0.400987215 	0.001430581227 	0.00013060441 	2.391243545e-08 	0.002062313028 	-4.388730776e-07 	3.931341822e-06
0.4029898197 	0.001454861218 	0.0001352271013 	2.986556277e-08 	0.00211198528 	-5.382896267e-07 	4.02603094e-06
0.4050116593 	0.001477833242 	0.000139911538 	3.629520724e-08 	0.002163732613 	-6.507176258e-07 	4.124675738e-06
0.4070529411 	0.001499106232 	0.0001447267482 	3.550898948e-08 	0.00221805771 	-6.400438342e-07 	4.228234472e-06
0.4091191997 	0.001518302838 	0.0001497339931 	3.221212992e-08 	0.002275865894 	-5.884917403e-07 	4.338432939e-06
0.4112474576 	0.001534969274 	0.0001550629334 	2.84018929e-08 	0.002337905441 	-5.283526952e-07 	4.456697557e-06
0.4133959597 	0.001548531781 	0.0001608007284 	2.410761521e-08 	0.002404156062 	-4.574636996e-07 	4.582989654e-06
0.4155649276 	0.001558469728 	0.0001669578629 	1.986231141e-08 	0.002474677211 	-3.737972671e-07 	4.717422566e-06
0.4177545874 	0.00156432318 	0.0001734712745 	1.542450339e-08 	0.002549902214 	-2.717626778e-07 	4.860822328e-06
0.4199651688 	0.0015661649 	0.0001805589865 	5.793608744e-09 	0.002629214375 	-1.482019134e-07 	5.01201335e-06
0.4221969057 	0.001563686663 	0.0001909385793 	-1.134334435e-10 	0.002712096485 	-7.311599658e-09 	5.170009689e-06
0.4223203246 	0.001563461199 	0.0001917829301 	3.454163118e-08 	0.002715940326 	1.405244099e-07 	5.177337118e-06
0.424469228 	0.00155948788 	0.0002064357784 	-5.301950999e-09 	0.002783331783 	-1.119361052e-07 	5.305803965e-06
0.4267889352 	0.001559606427 	0.0002236336098 	-1.050995681e-08 	0.002821508262 	-1.16375895e-07 	5.378578944e-06
0.4291306938 	0.001563052634 	0.0002405621819 	-9.36213993e-09 	0.002839198018 	-1.129568588e-07 	5.412300536e-06
0.4314947558 	0.001566995909 	0.0002555070934 	1.345188415e-08 	0.002853920156 	-1.485141241e-07 	5.440365023e-06
0.4338813777 	0.001571079139 	0.0002668201193 	5.391455126e-08 	0.002867178246 	-1.845919758e-07 	5.465638628e-06
0.4362908213 	0.001574755376 	0.0002753954651 	9.335132202e-08 	0.002879034975 	-2.160811338e-07 	5.488240848e-06
0.43874163 	0.001577887515 	0.0002823459068 	1.297870212e-07 	0.002889444298 	-2.429489343e-07 	5.508083911e-06
0.4412451404 	0.001580413729 	0.0002883100449 	1.560997184e-07 	0.002898436304 	-2.532493907e-07 	5.525225174e-06
0.4437723886 	0.00158232012 	0.0002936235979 	1.441647693e-07 	0.002906085308 	-2.108855183e-07 	5.539806301e-06
0.446323657 	0.001583644558 	0.0002984660125 	1.273559548e-07 	0.002912558133 	-1.721629478e-07 	5.552145305e-06
0.4488992335 	0.001584472061 	0.0003030365173 	1.077785946e-07 	0.002918019123 	-1.368637081e-07 	5.562555471e-06
0.4514994119 	0.001584882545 	0.0003073882861 	8.65491451e-08 	0.002922680417 	-1.044724271e-07 	5.571441192e-06
0.4541616688 	0.001584942605 	0.0003116153537 	6.391170706e-08 	0.002926710337 	-7.397757592e-08 	5.579123339e-06
0.4568588278 	0.001584731207 	0.0003158041564 	4.05438228e-08 	0.002930200895 	-4.533214413e-08 	5.585777313e-06
0.4595815725 	0.001584310138 	0.0003198982003 	1.676859191e-08 	0.002933281428 	-1.822046258e-08 	5.591649665e-06
0.4615041402 	0.001583907179 	0.0003227247004 	2.057492128e-08 	0.002935211406 	-1.85143705e-07 	5.59532874e-06
0.4623294293 	0.001583731895 	0.0003239362982 	7.090380575e-09 	0.002936035609 	-7.712524864e-09 	5.596899899e-06
0.4651017109 	0.001583032697 	0.0003279104898 	3.071389444e-08 	0.002938558994 	-3.269524205e-08 	5.601710172e-06
0.4679286799 	0.001582243294 	0.0003318633154 	5.468731325e-08 	0.002940941058 	-5.716794295e-08 	5.60625105e-06
0.4708000474 	0.00158139984 	0.0003358568483 	7.879965475e-08 	0.002943204803 	-8.11294893e-08 	5.610566376e-06
0.4736987461 	0.001580528473 	0.0003398395525 	1.028136163e-07 	0.002945400423 	-1.045132272e-07 	5.614751838e-06
0.476625129 	0.001579652348 	0.0003438286654 	1.266915206e-07 	0.002947551002 	-1.2741322e-07 	5.618851439e-06
0.4795795562 	0.00157877591 	0.0003478013463 	1.503936116e-07 	0.002949707188 	-1.498915006e-07 	5.622961729e-06
0.4825972259 	0.001577900547 	0.0003518011804 	1.742131553e-07 	0.00295189003 	-1.722705091e-07 	5.627122832e-06
0.4856526605 	0.001577047563 	0.0003558750731 	1.906498359e-07 	0.002954082999 	-1.872821434e-07 	5.631303241e-06
0.4887372686 	0.001576227418 	0.000359961809 	1.679331657e-07 	0.002956311717 	-1.64054143e-07 	5.635551797e-06
0.4918514422 	0.001575442985 	0.0003640665056 	1.453879197e-07 	0.002958584409 	-1.413758499e-07 	5.63988418e-06
0.4950073042 	0.001574687654 	0.0003681864983 	1.229246482e-07 	0.002960924546 	-1.190758817e-07 	5.644345131e-06
0.4982235491 	0.001573966076 	0.0003723771766 	1.004514057e-07 	0.00296331778 	-9.699547421e-08 	5.6489073e-06
0.5014705527 	0.001573288113 	0.0003766271466 	7.827308481e-08 	0.002965754091 	-7.539959312e-08 	5.653551587e-06
0.5047487424 	0.001572658732 	0.0003809112072 	5.640542918e-08 	0.002968236133 	-5.424119367e-08 	5.658283048e-06
0.5080599365 	0.001572065029 	0.000385205525 	3.484481328e-08 	0.002970789375 	-3.34721558e-08 	5.663150236e-06
0.5114411945 	0.001571505133 	0.0003895678604 	1.333905422e-08 	0.002973399254 	-1.280516991e-08 	5.668125392e-06
0.5135991682 	0.001571180465 	0.0003923831407 	2.183517419e-08 	0.002975065239 	-2.672900322e-07 	5.671301222e-06
0.5148541725 	0.001570988834 	0.0003940162776 	7.553347168e-09 	0.002976028914 	-7.384474798e-09 	5.673138255e-06
0.5182988631 	0.001570515753 	0.00039849397 	2.768335086e-08 	0.002978686412 	-2.708306023e-08 	5.678204185e-06
0.5217779526 	0.001570075136 	0.0004029902225 	4.738356422e-08 	0.002981396048 	-4.641498998e-08 	5.683369503e-06
0.52532682 	0.001569665805 	0.00040756093 	6.68644983e-08 	0.002984138049 	-6.560604794e-08 	5.68859652e-06
0.528910028 	0.001569300258 	0.0004122369678 	8.581662145e-08 	0.002986870912 	-8.440151011e-08 	5.693806117e-06
0.5325280828 	0.001568971729 	0.0004169473061 	1.042363892e-07 	0.002989615845 	-1.028150389e-07 	5.699038721e-06
0.5361891746 	0.001568668708 	0.0004216970523 	1.2216232e-07 	0.002992375672 	-1.209092673e-07 	5.704299719e-06
0.539912511 	0.001568394665 	0.0004265372403 	1.396576909e-07 	0.002995121244 	-1.387642544e-07 	5.709533541e-06
0.5436721471 	0.001568158064 	0.0004314783284 	1.565200422e-07 	0.002997821084 	-1.562296511e-07 	5.714680187e-06
0.5474686338 	0.001567945118 	0.0004364514145 	1.727474075e-07 	0.003000503095 	-1.733048663e-07 	5.719792845e-06
0.5513216279 	0.001567751404 	0.0004414923276 	1.759464682e-07 	0.00300314922 	-1.774964526e-07 	5.724837096e-06
0.5552246668 	0.001567586649 	0.0004466473486 	1.588851252e-07 	0.003005716962 	-1.61276328e-07 	5.729731926e-06
0.5591661162 	0.001567446668 	0.0004518744367 	1.423925075e-07 	0.003008209131 	-1.455134251e-07 	5.734482692e-06
0.5631511971 	0.001567320081 	0.0004571519491 	1.264340642e-07 	0.003010633829 	-1.301480296e-07 	5.739104841e-06
0.5671996694 	0.001567211945 	0.0004625312418 	1.109459687e-07 	0.003012955 	-1.150959091e-07 	5.743529638e-06
0.5712881919 	0.001567129854 	0.0004680266477 	9.609048727e-08 	0.003015137588 	-1.005303199e-07 	5.747690258e-06
0.5754174009 	0.001567057205 	0.000473568645 	8.186338679e-08 	0.003017212728 	-8.641782917e-08 	5.751646051e-06
0.5796100922 	0.001566997033 	0.0004792043777 	6.817281061e-08 	0.003019146737 	-7.264932106e-08 	5.755332809e-06
0.5838480727 	0.001566961842 	0.0004849747121 	5.515397717e-08 	0.003020889639 	-5.93750842e-08 	5.758655265e-06
0.5881285045 	0.001566935179 	0.0004908046397 	4.281858362e-08 	0.003022473841 	-4.65904912e-08 	5.761675193e-06
0.592468147 	0.001566919669 	0.0004967274929 	3.1100633e-08 	0.003023869523 	-3.422089239e-08 	5.764335752e-06
0.5968582973 	0.001566928768 	0.0005027897119 	2.008502146e-08 	0.003025024899 	-2.23634634e-08 	5.76653822e-06
0.6012927572 	0.001566948223 	0.0005089267679 	9.79082689e-09 	0.003025966118 	-1.103738005e-08 	5.768332445e-06
0.6057856853 	0.001566981947 	0.000515162871 	1.647554385e-10 	0.003026665315 	-1.881424683e-10 	5.769665308e-06
0.6058686619 	0.001566983104 	0.0005152793846 	1.841438176e-09 	0.003026672798 	-1.758576737e-08 	5.769679573e-06
0.6103303191 	0.001567042428 	0.0005215367145 	8.488081101e-09 	0.003027070248 	-9.963594791e-09 	5.770437224e-06
0.6149212656 	0.001567118328 	0.0005279954569 	1.64198543e-08 	0.003027206678 	-1.95387827e-08 	5.770697297e-06
0.6195723842 	0.001567217915 	0.0005345665942 	2.368175395e-08 	0.003027041788 	-2.857992151e-08 	5.77038297e-06
0.6242759264 	0.001567355353 	0.0005412864004 	3.022009898e-08 	0.003026528354 	-3.700905003e-08 	5.769404222e-06
0.6290278534 	0.001567518623 	0.0005480985123 	3.605164853e-08 	0.003025692471 	-4.482184203e-08 	5.767810797e-06
0.6338430612 	0.001567724034 	0.0005550445415 	4.121582927e-08 	0.003024488967 	-5.204215592e-08 	5.765516584e-06
0.6387094544 	0.001567981667 	0.000562137126 	4.567082788e-08 	0.003022888847 	-5.859508561e-08 	5.762466311e-06
0.6436287687 	0.001568287311 	0.0005693384979 	4.946095164e-08 	0.003020907893 	-6.44989961e-08 	5.758690063e-06
0.6486104566 	0.001568663767 	0.0005766800812 	5.26024511e-08 	0.003018499948 	-6.973590018e-08 	5.754099849e-06
0.6535885607 	0.001569108199 	0.0005840768134 	5.506781704e-08 	0.003015697494 	-7.422416352e-08 	5.748757593e-06
0.65851419 	0.001569623942 	0.0005914594236 	5.690695031e-08 	0.003012537106 	-7.797458043e-08 	5.742733015e-06
0.6633878192 	0.001570238113 	0.0005988437258 	5.815826844e-08 	0.003008999367 	-8.098354227e-08 	5.735989102e-06
0.6682048624 	0.001570949824 	0.0006061937647 	5.889220941e-08 	0.003005133557 	-8.329834708e-08 	5.728619793e-06
0.6729731885 	0.001571774463 	0.0006135347636 	5.917650229e-08 	0.003000948703 	-8.497963128e-08 	5.720642298e-06
0.6776883892 	0.001572727532 	0.0006208840347 	5.903930998e-08 	0.002996446174 	-8.603135459e-08 	5.712059226e-06
0.6823494001 	0.001573806865 	0.0006282076584 	5.855091637e-08 	0.00299167851 	-8.65084894e-08 	5.702970734e-06
0.6869638811 	0.001575039356 	0.0006355395448 	5.775764766e-08 	0.002986637044 	-8.644634973e-08 	5.693360299e-06
0.69152573 	0.001576437719 	0.0006428847105 	5.668750551e-08 	0.002981340035 	-8.585875882e-08 	5.683262727e-06
0.6960360527 	0.001578007127 	0.0006502219759 	5.540023201e-08 	0.002975835568 	-8.480085326e-08 	5.672769683e-06
0.7005001735 	0.001579778032 	0.0006575863659 	5.392504362e-08 	0.002970117862 	-8.329751626e-08 	5.661870147e-06
0.7049135952 	0.001581762066 	0.0006649757799 	5.228987764e-08 	0.002964218832 	-8.137327469e-08 	5.650624957e-06
0.7092775063 	0.001583971048 	0.0006723789314 	5.05405524e-08 	0.00295818429 	-7.90795537e-08 	5.639121442e-06
0.7135960089 	0.001586437668 	0.0006798280059 	4.869631564e-08 	0.002952016056 	-7.643972533e-08 	5.627363073e-06
0.7178657865 	0.001589176281 	0.0006873224435 	4.677843247e-08 	0.002945751384 	-7.348191807e-08 	5.615420868e-06
0.7220875898 	0.00159220126 	0.0006948528691 	4.482084831e-08 	0.002939441892 	-7.025456745e-08 	5.603393222e-06
0.7262652504 	0.00159554786 	0.0007024484297 	4.283715278e-08 	0.00293309831 	-6.678501959e-08 	5.591300592e-06
0.7303960315 	0.001599235984 	0.0007101156625 	4.083845672e-08 	0.002926756855 	-6.310045997e-08 	5.579212016e-06
0.7344805912 	0.001603279023 	0.000717842281 	3.884945058e-08 	0.002920480412 	-5.924770551e-08 	5.56724737e-06
0.7385215828 	0.001607713992 	0.0007256532499 	3.688031925e-08 	0.002914290648 	-5.526075514e-08 	5.55544796e-06
0.7425178833 	0.001612567609 	0.0007335637004 	3.493253427e-08 	0.002908220298 	-5.116468317e-08 	5.543876186e-06
0.7464696505 	0.001617851644 	0.000741559747 	3.302233358e-08 	0.002902342044 	-4.700476809e-08 	5.532670599e-06
0.7503784336 	0.001623602096 	0.0007496599107 	3.115752196e-08 	0.002896691639 	-4.282061213e-08 	5.521899358e-06
0.7542446399 	0.001629851778 	0.0007578851266 	2.933304305e-08 	0.002891301003 	-3.863738021e-08 	5.511623307e-06
0.7580679078 	0.001636614739 	0.0007662274648 	2.755572719e-08 	0.002886242019 	-3.449628334e-08 	5.501979478e-06
0.7618489142 	0.001643920387 	0.0007746952706 	2.583027178e-08 	0.002881569498 	-3.043798068e-08 	5.493072353e-06
0.7655892833 	0.001651805801 	0.0007833108482 	2.415047142e-08 	0.002877319749 	-2.649140995e-08 	5.48497115e-06
0.7692882266 	0.001660293872 	0.0007920807934 	2.251182272e-08 	0.002873549987 	-2.268924332e-08 	5.477784936e-06
0.7729462699 	0.001669403796 	0.0008010034425 	2.091491057e-08 	0.00287033316 	-1.906859522e-08 	5.47165277e-06
0.7765644362 	0.001679172661 	0.0008100979063 	1.935546638e-08 	0.002867714353 	-1.566115552e-08 	5.466660596e-06
0.7801431096 	0.001689633091 	0.0008193830124 	1.782081581e-08 	0.002865737117 	-1.249130317e-08 	5.462891436e-06
0.7836822925 	0.001700803873 	0.000828861243 	1.630586728e-08 	0.002864469839 	-9.589012486e-09 	5.460475652e-06
0.7871824709 	0.001712712437 	0.0008385420862 	1.480531411e-08 	0.002863973259 	-6.981364363e-09 	5.459529033e-06
0.7906446711 	0.001725396339 	0.000848447511 	1.330920503e-08 	0.002864287781 	-4.690236475e-09 	5.460128599e-06
0.7940688637 	0.001738884476 	0.0008585936953 	1.180392349e-08 	0.002865459681 	-2.735323326e-09 	5.462362565e-06
0.7974553732 	0.001753196933 	0.0008689868616 	1.028253655e-08 	0.002867551356 	-1.136913222e-09 	5.46634988e-06
0.8008046515 	0.001768364096 	0.0008796419239 	8.737773421e-09 	0.002870611871 	8.836349777e-11 	5.472184072e-06
0.8041175789 	0.001784421829 	0.0008905810116 	7.15842621e-09 	0.002874674986 	9.266549306e-10 	5.479929499e-06
0.8073941181 	0.001801396024 	0.0009018191772 	5.532585955e-09 	0.002879781863 	1.364597091e-09 	5.489664625e-06
0.8106346707 	0.00181930683 	0.0009133656246 	3.854014473e-09 	0.002885982317 	1.391325148e-09 	5.501484414e-06
0.8138396595 	0.00183818142 	0.0009252350592 	2.116975743e-09 	0.002893315318 	9.991297875e-10 	5.515463151e-06
0.8170097807 	0.0018580507 	0.0009374469021 	3.131849377e-10 	0.002901806292 	1.813563333e-10 	5.531649308e-06
0.8175402391 	0.001861584764 	0.0009395733941 	6.658360643e-08 	0.002903444511 	-1.055173855e-08 	5.534772209e-06
0.8201450131 	0.001878937544 	0.0009500153628 	1.530865133e-09 	0.002911484718 	1.07239634e-09 	5.550099078e-06
0.8232458362 	0.001900856214 	0.0009629484054 	3.44686141e-09 	0.002922386633 	2.76608743e-09 	5.570881158e-06
0.8263126747 	0.001923824746 	0.0009762564918 	5.444868889e-09 	0.002934540643 	4.89781614e-09 	5.594050078e-06
0.8293460587 	0.001947864779 	0.0009899537287 	7.52802991e-09 	0.00294796178 	7.464481374e-09 	5.619634496e-06
0.832346269 	0.001972990761 	0.001004050799 	9.702054834e-09 	0.002962663789 	1.046446997e-08 	5.647660612e-06
0.8353136109 	0.00199920794 	0.001018552171 	1.196648382e-08 	0.002978666509 	1.388877905e-08 	5.678166243e-06
0.8382484591 	0.002026521486 	0.001033462319 	1.431885706e-08 	0.002995983773 	1.772424261e-08 	5.711177761e-06
0.8411512145 	0.002054937801 	0.001048787214 	1.67550971e-08 	0.0030146183 	2.19540623e-08 	5.74670035e-06
0.8440222961 	0.002084459565 	0.00106453178 	1.927381411e-08 	0.003034564945 	2.656362276e-08 	5.784724198e-06
0.8468619449 	0.002115078318 	0.001080694633 	2.186947182e-08 	0.003055822636 	3.153175982e-08 	5.825247266e-06
0.8496705157 	0.002146782502 	0.001097272701 	2.453249222e-08 	0.00307838451 	3.683031242e-08 	5.868256468e-06
0.852448358 	0.002179557619 	0.001114261621 	2.725108139e-08 	0.003102237154 	4.242671094e-08 	5.913726237e-06
0.8551958614 	0.002213387516 	0.001131656521 	3.001215016e-08 	0.003127356646 	4.828531771e-08 	5.96161097e-06
0.857913338 	0.002248249219 	0.001149449757 	3.280408669e-08 	0.003153712281 	5.437231632e-08 	6.011852137e-06
0.8606010833 	0.002284108838 	0.001167627852 	3.56092586e-08 	0.003181275618 	6.064335641e-08 	6.064395518e-06
0.8632594293 	0.002320929641 	0.001186175962 	3.840707599e-08 	0.003210008752 	6.704854959e-08 	6.119168858e-06
0.8658887031 	0.002358669471 	0.001205076734 	4.117460103e-08 	0.003239867392 	7.353377531e-08 	6.176087725e-06
0.8684892567 	0.002397282043 	0.001224310885 	4.388776668e-08 	0.003270798043 	8.004265749e-08 	6.235050141e-06
0.8710613826 	0.00243671307 	0.001243855803 	4.652322269e-08 	0.003302740476 	8.652072522e-08 	6.295941297e-06
0.8736053763 	0.002476897002 	0.001263683403 	4.905220236e-08 	0.003335635442 	9.290407339e-08 	6.358648245e-06
0.8761215493 	0.002517763524 	0.001283763415 	5.14435446e-08 	0.003369414952 	9.912580625e-08 	6.42304138e-06
0.8786102089 	0.002559234461 	0.001304062175 	5.366401844e-08 	0.003404006363 	1.051182997e-07 	6.488982222e-06