0.2644156299 	7.738928871e-05 	8.511958841e-05 	5.908963164e-07 	-7.692880896e-05 	-5.546253111e-07 	-1.466476911e-07
0.2646754896 	4.299911366e-05 	4.467784457e-05 	5.881549792e-07 	-4.285241316e-05 	-5.401117036e-07 	-8.16886097e-08
0.2649353589 	-6.625646269e-06 	-1.419693098e-05 	5.908308507e-07 	6.680152117e-06 	-5.24075924e-07 	1.273422659e-08
0.2651952363 	-5.617336566e-05 	-7.308126771e-05 	5.930385889e-07 	5.612433042e-05 	-5.080513896e-07 	1.069885727e-07
0.2654551202 	-0.0001056091416 	-0.0001320377665 	5.9446755e-07 	0.000105385559 	-4.924168719e-07 	2.008941659e-07
0.2657150089 	-0.0001549442541 	-0.0001910380933 	5.951886059e-07 	0.0001544999565 	-4.769874811e-07 	2.945198581e-07
0.2659749007 	-0.0002041657593 	-0.0002500722964 	5.951645917e-07 	0.0002034536111 	-4.617194735e-07 	3.878391297e-07
0.2662347939 	-0.0002532487107 	-0.0003091187261 	5.943439028e-07 	0.0002522212774 	-4.465621723e-07 	4.808038559e-07
0.2664946871 	-0.000302150943 	-0.0003681409176 	5.926625048e-07 	0.0003007603549 	-4.314525604e-07 	5.733328285e-07
0.2667545784 	-0.0003508085181 	-0.0004270840604 	5.900474053e-07 	0.0003490062528 	-4.163166965e-07 	6.653029192e-07
0.2670144664 	-0.0003991326003 	-0.0004858735624 	5.864224737e-07 	0.0003968688024 	-4.010773325e-07 	7.565422413e-07
0.2672743493 	-0.0004470098056 	-0.0005444167083 	5.817189912e-07 	0.0004442323278 	-3.856630018e-07 	8.468302848e-07
0.2675342255 	-0.000494307034 	-0.0006026086071 	5.758890161e-07 	0.0004909601108 	-3.700195578e-07 	9.359064264e-07
0.2677940935 	-0.0005408808948 	-0.0006603420854 	5.689175921e-07 	0.0005369034427 	-3.541216011e-07 	1.023487186e-06
0.2680539515 	-0.0005865903334 	-0.00071751949 	5.608284907e-07 	0.0005819140873 	-3.379798592e-07 	1.109289985e-06
0.268313798 	-0.0006313098534 	-0.000774063329 	5.516811776e-07 	0.0006258578018 	-3.216421162e-07 	1.193058918e-06
0.2685736313 	-0.0006749405095 	-0.0008299231995 	5.415610571e-07 	0.000668626141 	-3.051874198e-07 	1.27458726e-06
0.2688334499 	-0.0007174165889 	-0.0008850780816 	5.30567529e-07 	0.0007101441745 	-2.88715114e-07 	1.353732171e-06
0.2690932521 	-0.0007587070718 	-0.0009395345319 	5.188032746e-07 	0.0007503727535 	-2.723313556e-07 	1.430419023e-06
0.2693530363 	-0.0007988121135 	-0.0009933218167 	5.063657531e-07 	0.0007893053134 	-2.561362848e-07 	1.504635303e-06
0.2696128008 	-0.0008377558012 	-0.001046485019 	4.93340978e-07 	0.0008269605511 	-2.402147672e-07 	1.576416652e-06
0.2698725442 	-0.0008755771391 	-0.001099077287 	4.798001004e-07 	0.0008633731815 	-2.246323039e-07 	1.645829246e-06
0.2701322648 	-0.000912321332 	-0.001151152575 	4.657992972e-07 	0.0008985850237 	-2.094358204e-07 	1.712952804e-06
0.270391961 	-0.0009480328928 	-0.001202760054 	4.513824699e-07 	0.0009326379718 	-1.94657633e-07 	1.777867187e-06
0.2706516312 	-0.0009827512116 	-0.001253940737 	4.365853377e-07 	0.0009655694516 	-1.803205411e-07 	1.840643741e-06
0.2709112737 	-0.001016508407 	-0.001304726262 	4.214394546e-07 	0.0009974101104 	-1.66442432e-07 	1.901340886e-06
0.2711708871 	-0.001049329059 	-0.001355139015 	4.059751763e-07 	0.001028183627 	-1.530397738e-07 	1.960003761e-06
0.2714304698 	-0.001081230816 	-0.001405193507 	3.902237217e-07 	0.001057907116 	-1.401290937e-07 	2.016664993e-06
0.27169002 	-0.001112229964 	-0.001454895656 	3.742170643e-07 	0.001086600949 	-1.277312134e-07 	2.071363414e-06
0.2719495364 	-0.001142259592 	-0.001504172471 	3.579675901e-07 	0.001114193389 	-1.158520646e-07 	2.123962274e-06
0.2722090172 	-0.001175518505 	-0.0015601087 	3.413982776e-07 	0.001144490867 	-1.036580789e-07 	2.181717688e-06
0.2726121164 	-0.00121564226 	-0.001629493219 	3.15929113e-07 	0.001180693182 	-8.803387176e-08 	2.250729361e-06
0.2730226937 	-0.001258274883 	-0.001705428438 	2.894523726e-07 	0.00121873993 	-7.251227093e-08 	2.323257038e-06
0.2734408794 	-0.001299873439 	-0.001781869978 	2.624934091e-07 	0.001255408419 	-5.814542324e-08 	2.39315737e-06
0.2738668057 	-0.001340315254 	-0.001858659939 	2.352074878e-07 	0.001290565652 	-4.503564117e-08 	2.460176827e-06
0.2743006065 	-0.001379575613 	-0.001935727306 	2.077688229e-07 	0.001324192638 	-3.328956964e-08 	2.524279208e-06
0.2747424172 	-0.001417623541 	-0.002013002743 	1.803611303e-07 	0.001356260091 	-2.30067083e-08 	2.585408686e-06
0.2751923751 	-0.001454427293 	-0.002090416329 	1.531745585e-07 	0.001386738234 	-1.428171115e-08 	2.643508499e-06
0.2756506189 	-0.001489955824 	-0.002167897567 	1.264047024e-07 	0.001415598518 	-7.202622197e-09 	2.698524221e-06
0.2761172892 	-0.001524180273 	-0.002245374855 	1.002516713e-07 	0.001442815751 	-1.849790304e-09 	2.750407832e-06
0.2765925279 	-0.001557074863 	-0.002322775406 	7.491931385e-08 	0.001468369138 	1.704921303e-09 	2.79911969e-06
0.2770764787 	-0.001588617533 	-0.002400025151 	5.061452731e-08 	0.001492243061 	3.398573809e-09 	2.844630021e-06
0.2775692866 	-0.001618790306 	-0.002477048705 	2.754664363e-08 	0.001514427535 	3.177349947e-09 	2.886919796e-06
0.2780710981 	-0.001647579424 	-0.002553769394 	5.926873631e-09 	0.001534918383 	9.965811538e-10 	2.925981046e-06
0.2782174433 	-0.00165542917 	-0.002575634465 	-8.900386343e-07 	0.001540306161 	2.009629485e-07 	2.936251649e-06
0.2785812028 	-0.001674935334 	-0.002630066256 	1.250532423e-08 	0.001553680122 	4.589771543e-09 	2.961746136e-06
0.2791002472 	-0.001700875366 	-0.002705879564 	2.819265245e-08 	0.001570741593 	1.27761321e-08 	2.994270042e-06
0.2796287271 	-0.001725414499 	-0.002781146202 	4.15071398e-08 	0.001586131055 	2.299573689e-08 	3.023606632e-06
0.2801667944 	-0.001748548395 	-0.002855777888 	5.224634838e-08 	0.001599859999 	3.524205706e-08 	3.049777815e-06
0.2807146025 	-0.001770307405 	-0.00292978872 	6.020060067e-08 	0.001611961138 	4.950670593e-08 	3.07284595e-06
0.2812750716 	-0.00179075517 	-0.003003280841 	6.521583818e-08 	0.001622491798 	6.585317376e-08 	3.092920316e-06
0.2818477708 	-0.001809864653 	-0.003076119619 	6.705634544e-08 	0.001631447875 	8.428537799e-08 	3.109993088e-06
0.2824309516 	-0.001827581359 	-0.003148055641 	6.547312889e-08 	0.001638811362 	1.047355372e-07 	3.12402994e-06
0.2830248016 	-0.001843909335 	-0.003218966805 	6.026580013e-08 	0.001644610543 	1.271731683e-07 	3.135084792e-06
0.2836295115 	-0.001858857779 	-0.003288769626 	5.122768039e-08 	0.001648875353 	1.515655329e-07 	3.143214703e-06
0.2842452756 	-0.00187243737 	-0.003357385375 	3.815515784e-08 	0.001651635736 	1.778750225e-07 	3.148476762e-06
0.2848722913 	-0.0018846587 	-0.003424735872 	2.084847305e-08 	0.001652921572 	2.060587147e-07 	3.150927922e-06
0.2855107595 	-0.001895532233 	-0.003490743501 	-8.87156305e-10 	0.001652762639 	2.360686096e-07 	3.150624951e-06
0.2861608845 	-0.001905068055 	-0.003555331291 	-2.724041493e-08 	0.001651188225 	2.678519643e-07 	3.147623682e-06
0.2868228742 	-0.001913275714 	-0.003618422915 	-5.839272162e-08 	0.001648226868 	3.013518043e-07 	3.141978511e-06
0.2874969401 	-0.001920164064 	-0.003679942676 	-9.451699289e-08 	0.001643906128 	3.365076923e-07 	3.133741979e-06
0.2881832971 	-0.001925741124 	-0.003739815509 	-1.35776314e-07 	0.001638252368 	3.732568437e-07 	3.122964343e-06
0.2888821641 	-0.001930013923 	-0.003797966992 	-1.823225436e-07 	0.00163129051 	4.115356361e-07 	3.109693106e-06
0.2895937637 	-0.001932988329 	-0.003854323398 	-2.342949702e-07 	0.001623043753 	4.51281486e-07 	3.093972494e-06
0.2903183221 	-0.001934668865 	-0.003908811766 	-2.918192461e-07 	0.001613533275 	4.924349796e-07 	3.07584288e-06
0.2910560697 	-0.001935058531 	-0.003961359984 	-3.550069012e-07 	0.001602777926 	5.349420613e-07 	3.055340196e-06
0.2918072407 	-0.001934158642 	-0.004011896827 	-4.2395578e-07 	0.001590793962 	5.787559224e-07 	3.03249543e-06
0.2925720732 	-0.001931968771 	-0.004060351897 	-4.987516874e-07 	0.001577594955 	6.238381408e-07 	3.007334454e-06
0.2933508096 	-0.001928486853 	-0.00410665538 	-5.794708537e-07 	0.001563192016 	6.701598726e-07 	2.979878449e-06
0.2941436964 	-0.001923709229 	-0.004150737959 	-6.661771628e-07 	0.001547593717 	7.177142091e-07 	2.950143757e-06
0.2949509843 	-0.001917629052 	-0.004192533563 	-7.589193286e-07 	0.001530801496 	7.665231618e-07 	2.918133116e-06
0.2957729283 	-0.001910235095 	-0.004231971948 	-8.578650375e-07 	0.001512811379 	8.165370394e-07 	2.883838952e-06
0.2966097878 	-0.001901540224 	-0.004268999006 	-9.618049356e-07 	0.001493658441 	8.66535142e-07 	2.84732813e-06
0.2974635723 	-0.001892042724 	-0.004304164947 	-1.072088883e-06 	0.001473859452 	9.143520421e-07 	2.809585753e-06
0.2983377009 	-0.001881812961 	-0.004336161391 	-1.202350972e-06 	0.00145377965 	9.632396397e-07 	2.77130807e-06
0.2992276355 	-0.001870835753 	-0.00436381946 	-1.334474927e-06 	0.001433649464 	1.012485086e-06 	2.732934341e-06
0.300133654 	-0.001859562927 	-0.004388660081 	-1.454889466e-06 	0.001413687488 	1.063898778e-06 	2.694881266e-06
0.3010560391 	-0.001847807335 	-0.004411439162 	-1.580403167e-06 	0.00139343999 	1.122326424e-06 	2.656283907e-06
0.3019950783 	-0.001835246771 	-0.004432153289 	-1.710824948e-06 	0.001372456012 	1.184119624e-06 	2.616282613e-06
0.302951064 	-0.001821751809 	-0.00445078464 	-1.845931159e-06 	0.001350555848 	1.246955745e-06 	2.574534813e-06
0.3039242937 	-0.001807290501 	-0.004467310217 	-1.985401749e-06 	0.001327702171 	1.30957685e-06 	2.530969354e-06
0.3049150699 	-0.001791871659 	-0.004481711082 	-2.128825833e-06 	0.00130391456 	1.371454532e-06 	2.485623556e-06
0.3059237003 	-0.001775518981 	-0.004493975408 	-2.26998523e-06 	0.001279230782 	1.42869934e-06 	2.438569414e-06
0.3069504978 	-0.001758260645 	-0.004504098339 	-2.258504587e-06 	0.001253692318 	1.389219145e-06 	2.389886004e-06
0.3079957807 	-0.001740124559 	-0.004512081442 	-2.238442432e-06 	0.001227337924 	1.346255002e-06 	2.339647204e-06
0.3090598729 	-0.00172113648 	-0.004517932215 	-2.209831334e-06 	0.001200201164 	1.300204687e-06 	2.287916997e-06
0.3101431036 	-0.001701320588 	-0.004521663635 	-2.172764712e-06 	0.001172311407 	1.251432072e-06 	2.234751369e-06
0.3112458079 	-0.001680704591 	-0.004523293369 	-2.127387491e-06 	0.00114370123 	1.200263335e-06 	2.18021242e-06
0.3123683265 	-0.001659329073 	-0.004522842807 	-2.073900271e-06 	0.001114416445 	1.146993136e-06 	2.124387481e-06
0.3135122755 	-0.001637260183 	-0.004520324227 	-2.012476097e-06 	0.001084537007 	1.091738354e-06 	2.067428966e-06
0.3146835825 	-0.001614631341 	-0.00451573568 	-1.942884111e-06 	0.001054237061 	1.034135196e-06 	2.009668847e-06
0.3158758469 	-0.001589058827 	-0.004508236943 	-1.870143264e-06 	0.001020317841 	9.74023503e-07 	1.945009387e-06
0.317704102 	-0.001557030608 	-0.004495531458 	-1.73822162e-06 	0.0009784483515 	8.826155106e-07 	1.865194504e-06
0.3195502637 	-0.001521473252 	-0.004478299541 	-1.599026803e-06 	0.0009324854221 	7.910576091e-07 	1.777576385e-06
0.3214145144 	-0.001485224529 	-0.004457679096 	-1.450380074e-06 	0.0008861773956 	7.003353629e-07 	1.689300416e-06
0.3232970394 	-0.001448547599 	-0.004433958857 	-1.294069744e-06 	0.0008398111443 	6.108039788e-07 	1.600913454e-06
0.3251980266 	-0.001411573335 	-0.004407406954 	-1.131695561e-06 	0.0007935103383 	5.228344563e-07 	1.51265125e-06
0.3271176667 	-0.001374397647 	-0.004378261986 	-9.646595632e-07 	0.0007473617481 	4.36724725e-07 	1.42467921e-06
0.3290561529 	-0.001337080448 	-0.004346695005 	-7.941955992e-07 	0.0007014076546 	3.526676859e-07 	1.337077936e-06
0.3310248725 	-0.001299613064 	-0.00431283304 	-6.202812406e-07 	0.0006556201664 	2.703296959e-07 	1.249794257e-06
0.3330140035 	-0.001262099344 	-0.004276910127 	-4.450106024e-07 	0.0006101030855 	1.904041691e-07 	1.16302605e-06
0.3350225342 	-0.001224707902 	-0.004239154693 	-2.693817782e-07 	0.0005650521818 	1.131610795e-07 	1.077146507e-06
0.3370506672 	-0.00118753853 	-0.004199743747 	-9.419719232e-08 	0.0005205927672 	3.884119838e-08 	9.923945055e-07
0.3381571377 	-0.001167617412 	-0.004177654311 	1.245747822e-06 	0.0004969426612 	-9.041100915e-07 	9.473108304e-07
0.3390971357 	-0.001150702537 	-0.004158889725 	-7.709921857e-08 	0.0004768540329 	3.077771368e-08 	9.090163213e-07
0.3411619064 	-0.001114280024 	-0.004116767761 	-2.431539335e-07 	0.0004339372275 	9.513236716e-08 	8.272049621e-07
0.3432469275 	-0.001078298865 	-0.004073470203 	-4.065602211e-07 	0.0003918898388 	1.558575295e-07 	7.47050953e-07
0.3453545206 	-0.001042788137 	-0.004029077105 	-5.670838e-07 	0.0003507529747 	2.129556352e-07 	6.686326565e-07
0.3474928304 	-0.001007731541 	-0.003983674252 	-7.249523039e-07 	0.0003105078793 	2.665558589e-07 	5.919143192e-07
0.3496519862 	-0.0009732024677 	-0.003937470653 	-8.788823731e-07 	0.0002712298696 	3.163037231e-07 	5.170395159e-07
0.3518322108 	-0.0009392889713 	-0.003890645346 	-1.028608794e-06 	0.0002330221244 	3.623325674e-07 	4.442049342e-07
0.3540337312 	-0.0009060103368 	-0.003843322127 	-1.173927263e-06 	0.000195904387 	4.047666795e-07 	3.734482105e-07
0.3562567775 	-0.0008733591903 	-0.003795623158 	-1.314631168e-06 	0.0001598687783 	4.436689873e-07 	3.047543247e-07
0.3585015842 	-0.0008413178477 	-0.003747665487 	-1.450457861e-06 	0.0001249093959 	4.781474683e-07 	2.381120254e-07
0.3607694558 	-0.0008098032721 	-0.003699207638 	-1.594546247e-06 	9.10512409e-05 	5.056235755e-07 	1.735689715e-07
0.363070291 	-0.0007787434977 	-0.003650031895 	-1.759827937e-06 	5.837886265e-05 	5.238433713e-07 	1.112863378e-07
0.3653935267 	-0.0007480643848 	-0.003599187591 	-1.938621489e-06 	2.715292425e-05 	5.344399496e-07 	5.176102039e-08
0.3677394098 	-0.0007178402065 	-0.003546081721 	-2.116890931e-06 	-2.357146311e-06 	5.429348811e-07 	-4.493376004e-09
0.3701081911 	-0.0006882335979 	-0.003491118938 	-2.270917867e-06 	-3.015306947e-05 	5.527057263e-07 	-5.748013103e-08
0.3725001261 	-0.0006593497666 	-0.003434933322 	-2.405549721e-06 	-5.646864664e-05 	5.634039524e-07 	-1.076449351e-07
0.3749154743 	-0.000631295595 	-0.003378152428 	-2.534601508e-06 	-8.146042197e-05 	5.726665755e-07 	-1.55286205e-07
0.3773607938 	-0.0006040563876 	-0.003320820143 	-2.487597234e-06 	-0.0001051576786 	5.427628887e-07 	-2.004597624e-07
0.3798350537 	-0.000577630203 	-0.003263223223 	-2.30178141e-06 	-0.000127603918 	4.846136529e-07 	-2.432485333e-07
0.382333422 	-0.0005520540947 	-0.003205696374 	-2.116584081e-06 	-0.0001488039605 	4.303780097e-07 	-2.836617066e-07
0.3848561731 	-0.0005273594039 	-0.003148451269 	-1.934791941e-06 	-0.0001687404157 	3.80821467e-07 	-3.216661312e-07
0.3874035867 	-0.0005035296412 	-0.003091616475 	-1.757561671e-06 	-0.0001874518482 	3.350268396e-07 	-3.573353222e-07
0.3899759473 	-0.0004805466028 	-0.00303529467 	-1.585591334e-06 	-0.0002049742004 	2.925258944e-07 	-3.907377955e-07
0.3925787978 	-0.0004583681883 	-0.002979487644 	-1.419519693e-06 	-0.0002213495734 	2.534854865e-07 	-4.219538079e-07
0.3952126831 	-0.0004369517133 	-0.002924217555 	-1.260375285e-06 	-0.0002366332907 	2.178981114e-07 	-4.51088821e-07
0.3978722652 	-0.0004163070595 	-0.002869601018 	-1.109012498e-06 	-0.0002508369508 	1.855867659e-07 	-4.781649447e-07
0.400557846 	-0.0003964275867 	-0.002815675287 	-9.655177801e-07 	-0.0002639732731 	1.562927559e-07 	-5.032064261e-07
0.4032697328 	-0.0003772802289 	-0.002762420459 	-8.297834763e-07 	-0.0002760817725 	1.29803668e-07 	-5.262885914e-07
0.406008239 	-0.0003588448213 	-0.002709810785 	-7.015940802e-07 	-0.0002871839207 	1.059338259e-07 	-5.474523715e-07
0.4087820714 	-0.0003410623871 	-0.002657724635 	-5.803127949e-07 	-0.0002973279018 	8.44458536e-08 	-5.667896189e-07
0.4115848843 	-0.0003239021391 	-0.002606143071 	-4.661175991e-07 	-0.0003065585162 	6.525160105e-08 	-5.843857354e-07
0.4144151314 	-0.0003073752367 	-0.002555102667 	-3.587831496e-07 	-0.0003148758781 	4.821670534e-08 	-6.002409389e-07
0.4172731459 	-0.0002914538018 	-0.002504536745 	-2.57915649e-07 	-0.0003223047355 	3.319349851e-08 	-6.144024058e-07
0.4201592673 	-0.0002761151279 	-0.002454384996 	-1.6310303e-07 	-0.0003288679052 	2.004825012e-08 	-6.269136314e-07
0.4230787224 	-0.000261314796 	-0.002404514436 	-7.376258344e-08 	-0.000334596672 	8.631878073e-09 	-6.378342533e-07
0.4256598016 	-0.0002488105269 	-0.002361080412 	3.524682737e-07 	-0.0003389142651 	-1.298182447e-08 	-6.460647856e-07
0.4260313562 	-0.0002470136999 	-0.002354830765 	-1.007324619e-08 	-0.0003395309844 	1.016946007e-09 	-6.47240424e-07
0.4290112187 	-0.0002332260049 	-0.002305348329 	-8.710707073e-08 	-0.000343663736 	8.24543975e-09 	-6.551185972e-07
0.4320204923 	-0.0002199158864 	-0.002255961449 	-1.598918106e-07 	-0.0003470336498 	1.411291789e-08 	-6.615425895e-07
0.4350595456 	-0.0002070646669 	-0.002206579333 	-2.288172317e-07 	-0.0003496540368 	1.871186039e-08 	-6.665377755e-07
0.4381332835 	-0.0001946356249 	-0.002157054346 	-2.943673931e-07 	-0.0003515474177 	2.213231682e-08 	-6.701470856e-07
0.4412418738 	-0.000182594188 	-0.002107278742 	-3.567345514e-07 	-0.0003527506851 	2.443615349e-08 	-6.724408477e-07
0.4443811937 	-0.0001709414929 	-0.002057223872 	-4.160830953e-07 	-0.0003532728844 	2.568872079e-08 	-6.734363048e-07
0.4475516365 	-0.0001596671788 	-0.002006814442 	-4.727163045e-07 	-0.0003531239861 	2.595919226e-08 	-6.731524632e-07
0.4507536034 	-0.0001487601052 	-0.001955952816 	-5.268988579e-07 	-0.0003523080083 	2.531389569e-08 	-6.715969828e-07
0.4539939518 	-0.0001381883374 	-0.001904490677 	-5.789680431e-07 	-0.0003508453235 	2.38075277e-08 	-6.688086989e-07
0.4572683068 	-0.0001279334911 	-0.001852360942 	-6.288750086e-07 	-0.0003487664146 	2.148033772e-08 	-6.648457209e-07
0.4605752163 	-0.0001180037739 	-0.001799545761 	-6.767416098e-07 	-0.0003460750838 	1.839452692e-08 	-6.597152964e-07
0.463915109 	-0.0001083967735 	-0.001745974059 	-7.22701383e-07 	-0.0003427715083 	1.460641687e-08 	-6.534177633e-07
0.4672907009 	-9.909826375e-05 	-0.001691542883 	-7.668869774e-07 	-0.0003388648818 	1.016362665e-08 	-6.459706473e-07
0.4707054135 	-9.008812253e-05 	-0.00163616368 	-8.092894016e-07 	-0.0003343805443 	5.107340546e-09 	-6.374222538e-07
0.47415421 	-8.137039277e-05 	-0.001579835947 	-8.497742667e-07 	-0.0003293348138 	-5.003257521e-10 	-6.278036889e-07
0.4776375492 	-7.295232278e-05 	-0.001522548612 	-8.883380741e-07 	-0.0003237325929 	-6.589849506e-09 	-6.171242989e-07
0.4811561589 	-6.483281882e-05 	-0.001464246192 	-9.249378846e-07 	-0.0003175763779 	-1.309816216e-08 	-6.053888421e-07
0.4847169261 	-5.699642169e-05 	-0.001404860225 	-9.595042583e-07 	-0.0003108887331 	-1.996722323e-08 	-5.926403323e-07
0.4883134143 	-4.944214317e-05 	-0.001344423673 	-9.916987808e-07 	-0.0003037026225 	-2.710526278e-08 	-5.789416084e-07
0.4919461152 	-4.218255834e-05 	-0.001282990138 	-1.021372441e-06 	-0.0002960325999 	-3.439925908e-08 	-5.643204134e-07
0.4956155304 	-3.522060168e-05 	-0.001220560177 	-1.04831624e-06 	-0.0002878893997 	-4.173996311e-08 	-5.487972106e-07
0.4993283155 	-2.85445833e-05 	-0.001157132384 	-1.072275783e-06 	-0.0002793079377 	-4.90114103e-08 	-5.324385588e-07
0.5030787283 	-2.21507279e-05 	-0.001092807346 	-1.0927499e-06 	-0.000270342028 	-5.604836211e-08 	-5.153470431e-07
0.5068671448 	-1.604935906e-05 	-0.001027718558 	-1.109399413e-06 	-0.0002610288704 	-6.265339996e-08 	-4.975935762e-07
0.5106946664 	-1.023897606e-05 	-0.0009619595004 	-1.05967401e-06 	-0.0002514097559 	-6.482245048e-08 	-4.792568705e-07
0.5145663473 	-4.705399356e-06 	-0.0008956558345 	-1.0068884e-06 	-0.0002415568758 	-6.572090041e-08 	-4.604745425e-07
0.5184773905 	5.607394528e-07 	-0.0008290411694 	-9.541194513e-07 	-0.000231564617 	-6.546049725e-08 	-4.414265201e-07
0.5224283605 	5.560859127e-06 	-0.0007623892247 	-9.010380788e-07 	-0.0002215211371 	-6.394464085e-08 	-4.222808559e-07
0.5264218091 	1.031058749e-05 	-0.0006959782305 	-8.472615192e-07 	-0.0002115354851 	-6.110254023e-08 	-4.032454278e-07
0.53045932 	1.483582303e-05 	-0.0006301778538 	-7.925544485e-07 	-0.0002017572003 	-5.687434876e-08 	-3.846052993e-07
0.5345382192 	1.9157643e-05 	-0.0005654728535 	-7.366536378e-07 	-0.000192353229 	-5.117335529e-08 	-3.666787163e-07
0.5386591113 	2.329887829e-05 	-0.0005024029197 	-6.792321958e-07 	-0.0001835005803 	-4.391105665e-08 	-3.498031074e-07
0.5428263239 	2.729645904e-05 	-0.0004415704589 	-6.200898194e-07 	-0.0001754104784 	-3.504375333e-08 	-3.343811246e-07
0.5470373053 	3.11969691e-05 	-0.00038368632 	-5.594356881e-07 	-0.000168331028 	-2.460822168e-08 	-3.208857245e-07
0.5512918523 	3.504300702e-05 	-0.0003294924765 	-4.977831882e-07 	-0.0001624995499 	-1.274926124e-08 	-3.097693065e-07
0.5555922218 	3.88858903e-05 	-0.0002796594834 	-4.361597361e-07 	-0.0001581369309 	2.139796965e-10 	-3.014529422e-07
0.5599396906 	4.278845983e-05 	-0.0002347373825 	-3.762184714e-07 	-0.0001554410812 	1.377338249e-08 	-2.963139033e-07
0.564332385 	4.680633884e-05 	-0.0001950637352 	-3.198434987e-07 	-0.0001545289605 	2.724716738e-08 	-2.945751479e-07
0.5687713493 	5.097955411e-05 	-0.000160682788 	-2.687116085e-07 	-0.0001554045426 	3.984943581e-08 	-2.962442506e-07
0.5732599783 	5.532908587e-05 	-0.0001313702605 	-2.239961974e-07 	-0.0001579642542 	5.085566055e-08 	-3.011237724e-07
0.5777955849 	5.984438476e-05 	-0.0001067055245 	-1.86194258e-07 	-0.0001619967558 	5.976122167e-08 	-3.088108411e-07
0.5823788822 	6.44798112e-05 	-8.613301638e-05 	-1.551715383e-07 	-0.0001672003122 	6.635757328e-08 	-3.18730266e-07
0.5870133849 	6.917427345e-05 	-6.903543212e-05 	-1.304230264e-07 	-0.0001732436303 	7.073186245e-08 	-3.3025051e-07
0.5916969559 	7.386108783e-05 	-5.48020112e-05 	-1.112348617e-07 	-0.0001798027693 	7.316744353e-08 	-3.427540518e-07
0.596430101 	7.846664038e-05 	-4.285529965e-05 	-9.675685612e-08 	-0.0001865648638 	7.399241538e-08 	-3.556444833e-07
0.6012158168 	8.292487594e-05 	-3.267202255e-05 	-8.614224174e-08 	-0.0001932575783 	7.352364816e-08 	-3.684026575e-07
0.6060527059 	8.717682549e-05 	-2.380893376e-05 	-7.861590745e-08 	-0.0001996514683 	7.203712296e-08 	-3.805911888e-07
0.6109411544 	9.115919182e-05 	-1.58925578e-05 	-7.349243907e-08 	-0.0002055332634 	6.972621496e-08 	-3.918035251e-07
0.6158839412 	9.481660389e-05 	-8.609315809e-06 	-7.022515521e-08 	-0.0002107255905 	6.67522336e-08 	-4.017015437e-07
0.6208798165 	9.810024004e-05 	-1.710827225e-06 	-6.839053548e-08 	-0.0002150860363 	6.326686949e-08 	-4.100137652e-07
0.6259293901 	0.0001009595926 	5.00807334e-06 	-6.764875182e-08 	-0.0002184853201 	5.938877798e-08 	-4.16493745e-07
0.6310352503 	0.0001033571597 	1.171475952e-05 	-6.775541596e-08 	-0.0002208342027 	5.524692143e-08 	-4.209713681e-07
0.6361961061 	0.0001052608627 	1.852291697e-05 	-6.852686714e-08 	-0.0002220743059 	5.098406157e-08 	-4.233353493e-07
0.6413556442 	0.0001066450669 	2.549734105e-05 	-6.979906732e-08 	-0.0002221805439 	4.674403772e-08 	-4.235378685e-07
0.6464578705 	0.0001075238159 	3.267582803e-05 	-7.145967178e-08 	-0.0002212158281 	4.268519711e-08 	-4.216988521e-07
0.6515023363 	0.0001079385008 	4.009955045e-05 	-7.344017352e-08 	-0.000219292056 	3.89348083e-08 	-4.180316078e-07
0.6564904702 	0.0001079443417 	4.78233045e-05 	-7.570343219e-08 	-0.000216539794 	3.55880654e-08 	-4.127850315e-07
0.6614231636 	0.0001076155189 	5.589749099e-05 	-7.825530855e-08 	-0.0002131237464 	3.273835915e-08 	-4.062730953e-07
0.6663004374 	0.0001070275343 	6.437007693e-05 	-8.111465898e-08 	-0.0002092079262 	3.045413689e-08 	-3.988084536e-07
0.6711236044 	0.0001062590764 	7.330132406e-05 	-8.432454024e-08 	-0.0002049552269 	2.87835645e-08 	-3.907016269e-07
0.67589329 	0.0001053971198 	8.275487887e-05 	-8.796366153e-08 	-0.0002005401642 	2.77678759e-08 	-3.822852902e-07
0.6806097216 	0.0001045210564 	9.280374125e-05 	-9.211939577e-08 	-0.0001961169811 	2.742435253e-08 	-3.738534739e-07
0.6852740248 	0.000103705581 	0.0001035399267 	-9.690455433e-08 	-0.0001918233302 	2.775257344e-08 	-3.656685819e-07
0.6898868111 	0.000103023359 	0.0001150737847 	-1.024795983e-07 	-0.0001877858052 	2.875175261e-08 	-3.579719371e-07
0.694448359 	0.0001025235996 	0.000127541617 	-1.090027194e-07 	-0.0001840739985 	3.042368868e-08 	-3.508962018e-07
0.6989595869 	0.0001022591933 	0.0001411030294 	-1.166464428e-07 	-0.0001807606283 	3.287456347e-08 	-3.445799973e-07
0.7034212188 	0.0001024292232 	0.000156088157 	-1.256111889e-07 	-0.0001781897459 	3.617818349e-08 	-3.396791809e-07
0.7078334987 	0.0001031474255 	0.0001727227727 	-1.359060309e-07 	-0.0001765512281 	4.023106848e-08 	-3.365557106e-07
0.7121971452 	0.0001043859907 	0.0001910814197 	-1.474859483e-07 	-0.0001757685718 	4.492434732e-08 	-3.350637501e-07
0.7165130473 	0.0001061854694 	0.0002113618954 	-1.604277068e-07 	-0.0001758796176 	5.018028674e-08 	-3.352754344e-07
0.7207813715 	0.0001085830128 	0.0002337674064 	-1.747521538e-07 	-0.0001769178712 	5.591404579e-08 	-3.372546343e-07
0.7250027336 	0.0001116054546 	0.0002584906498 	-1.903784631e-07 	-0.000178900377 	6.203231063e-08 	-3.410338414e-07
0.7291779672 	0.0001152708667 	0.0002856953762 	-2.071126464e-07 	-0.0001818328726 	6.844341779e-08 	-3.466239931e-07
0.7333073775 	0.0001195874766 	0.0003154942902 	-2.163873506e-07 	-0.0001857101898 	7.229653851e-08 	-3.540152372e-07
0.7373914647 	0.000124546467 	0.000347939134 	-2.231069772e-07 	-0.0001905025744 	7.520195709e-08 	-3.631508542e-07
0.7414308672 	0.0001301253776 	0.0003830163085 	-2.286305041e-07 	-0.0001961625618 	7.764409232e-08 	-3.739403634e-07
0.7454261616 	0.0001362912824 	0.00042064402 	-2.326685568e-07 	-0.0002026319139 	7.955425589e-08 	-3.862727465e-07
0.7493776899 	0.0001429964241 	0.0004606812862 	-2.350461854e-07 	-0.0002098320926 	8.088547837e-08 	-3.999982884e-07
0.753285986 	0.0001501803323 	0.0005029428992 	-2.357044938e-07 	-0.000217666739 	8.16166645e-08 	-4.149333019e-07
0.7571516794 	0.000157777068 	0.0005472121735 	-2.346757447e-07 	-0.0002260345726 	8.175422066e-08 	-4.308847183e-07
0.7609751521 	0.0001657181707 	0.0005932527079 	-2.320513802e-07 	-0.0002348336954 	8.132587178e-08 	-4.476582921e-07
0.7647568488 	0.0001739318782 	0.0006408233844 	-2.279865722e-07 	-0.000243957778 	8.038129822e-08 	-4.650513294e-07
0.7684972659 	0.0001823479394 	0.0006896903082 	-2.22667105e-07 	-0.0002533036136 	7.898226959e-08 	-4.828670896e-07
0.7721969808 	0.0001909030392 	0.0007396322683 	-2.162800471e-07 	-0.000262780824 	7.719524474e-08 	-5.009332868e-07
0.7758563233 	0.0001995399442 	0.0007904449421 	-2.090050769e-07 	-0.0002723093039 	7.508554297e-08 	-5.190972178e-07
0.7794757553 	0.0002082059339 	0.0008419461504 	-2.0102334e-07 	-0.0002818151105 	7.271785537e-08 	-5.372179271e-07
0.7830557412 	0.0002168552347 	0.000893977655 	-1.925018432e-07 	-0.0002912348397 	7.015116926e-08 	-5.55174549e-07
0.7865967991 	0.0002254510544 	0.0009464028799 	-1.835804085e-07 	-0.0003005198655 	6.743556612e-08 	-5.728743888e-07
0.7900992616 	0.000233962735 	0.0009991051438 	-1.743784861e-07 	-0.0003096308714 	6.461325026e-08 	-5.902424983e-07
0.7935635712 	0.0002423637451 	0.001051987828 	-1.65006965e-07 	-0.0003185337759 	6.172171301e-08 	-6.072139087e-07
0.7969901642 	0.0002506326173 	0.001104972581 	-1.555608739e-07 	-0.000327201801 	5.879203802e-08 	-6.237375738e-07
0.8003795064 	0.0002587539736 	0.001157995743 	-1.461149111e-07 	-0.0003356179993 	5.584819894e-08 	-6.397811869e-07
0.8037319478 	0.000266716349 	0.001211005296 	-1.367267426e-07 	-0.0003437713722 	5.290801243e-08 	-6.553237818e-07
0.8070478986 	0.0002745100229 	0.00126396035 	-1.274519877e-07 	-0.0003516526381 	4.998788223e-08 	-6.703476651e-07
0.8103277703 	0.0002821273728 	0.001316829619 	-1.183378132e-07 	-0.0003592551421 	4.710082763e-08 	-6.848401507e-07
0.8135719856 	0.0002895640155 	0.00136958901 	-1.094226195e-07 	-0.0003665774721 	4.425698627e-08 	-6.987985467e-07
0.8167809129 	0.0002968180285 	0.001422218893 	-1.00731882e-07 	-0.0003736223063 	4.14619525e-08 	-7.122279588e-07
0.8199549264 	0.000303887408 	0.001474703709 	-9.229348455e-08 	-0.000380391444 	3.872228843e-08 	-7.251318165e-07
0.8230944158 	0.0003107705443 	0.001527031729 	-8.413318543e-08 	-0.0003868867718 	3.604345029e-08 	-7.375137167e-07
0.8261997663 	0.0003174670012 	0.001579193574 	-7.627380627e-08 	-0.0003931120261 	3.343020792e-08 	-7.493807815e-07
0.8292713657 	0.0003239776967 	0.001631181019 	-6.873144623e-08 	-0.0003990733121 	3.088468093e-08 	-7.607446496e-07
0.8323095512 	0.0003303035208 	0.001682985709 	-6.152051702e-08 	-0.0004047765381 	2.840863128e-08 	-7.716165835e-07
0.8353146926 	0.000336444803 	0.001734600167 	-5.465751152e-08 	-0.0004102262111 	2.600457697e-08 	-7.820051747e-07
0.8382871547 	0.0003424019194 	0.001786017236 	-4.815707418e-08 	-0.0004154266975 	2.367451436e-08 	-7.919187473e-07
0.8412273011 	0.0003481756582 	0.00183723013 	-4.20319865e-08 	-0.0004203829345 	2.141986349e-08 	-8.013667125e-07
0.8441354798 	0.0003537677868 	0.001888231403 	-3.628964651e-08 	-0.0004251016662 	1.923982943e-08 	-8.103619266e-07
0.8470120255 	0.0003591793026 	0.001939012979 	-3.093806918e-08 	-0.0004295879606 	1.713432421e-08 	-8.189140506e-07
0.8498572854 	0.000364411061 	0.001989567711 	-2.598529414e-08 	-0.0004338462321 	1.510344436e-08 	-8.270314997e-07
0.8526716023 	0.0003694641624 	0.002039888668 	-2.1437644e-08 	-0.000437881092 	1.314702888e-08 	-8.347230641e-07
0.8554553162 	0.0003743399245 	0.002089970175 	-1.7300103e-08 	-0.0004416971669 	1.126458893e-08 	-8.419975635e-07
0.858208756 	0.0003790407225 	0.002139807049 	-1.357457915e-08 	-0.000445300862 	9.454228694e-09 	-8.488672079e-07
0.860932241 	0.0003835684855 	0.00218939463 	-1.026372751e-08 	-0.0004486973966 	7.714837486e-09 	-8.55341947e-07
0.8636260981 	0.0003879250849 	0.002238730489 	-7.370904414e-09 	-0.0004518913955 	6.045895691e-09 	-8.614305966e-07
0.8662906499 	0.0003921129603 	0.002287813753 	-4.899372521e-09 	-0.0004548882596 	4.447054395e-09 	-8.671434524e-07
0.8689262156 	0.0003961344511 	0.002336645521 	-2.852632934e-09 	-0.0004576928531 	2.918147288e-09 	-8.724897872e-07
0.8715331104 	0.0003999925727 	0.002385228999 	-1.234132706e-09 	-0.000460311105 	1.458629086e-09 	-8.77480903e-07