0.4709558481 	1.505509968e-07 	-3.073103147e-10 	3.539937822e-15 	1.502645479e-07 	-1.157753255e-12 	2.864459921e-10
0.4709558481 	1.505509968e-07 	-3.073103147e-10 	3.539937822e-15 	1.502645479e-07 	-1.157753255e-12 	2.864459921e-10
0.4711314108 	1.690277961e-06 	-1.34830976e-08 	1.550956981e-13 	1.687061584e-06 	-1.299799927e-11 	3.216008274e-09
0.4713069734 	9.421528681e-06 	-1.759045845e-07 	2.019602279e-12 	9.403594767e-06 	-7.243670947e-11 	1.792586522e-08
0.471482536 	3.136499729e-05 	-1.096612167e-06 	1.254996429e-11 	3.130524995e-05 	-2.409889362e-10 	5.967650724e-08
0.4716580986 	7.746230424e-05 	-4.443182294e-06 	5.055583983e-11 	7.731454637e-05 	-5.941587982e-10 	1.473830139e-07
0.4718336613 	0.0001584191275 	-1.357517896e-05 	1.529332522e-10 	0.0001581163 	-1.21071481e-09 	3.014136139e-07
0.4720092239 	0.0002848723706 	-3.39613625e-05 	3.765310329e-10 	0.0002843262244 	-2.162497525e-09 	5.420048081e-07
0.4721847865 	0.000466332378 	-7.305151639e-05 	7.907712443e-10 	0.0004654352071 	-3.50041891e-09 	8.872488658e-07
0.4723603491 	0.0007098068507 	-0.0001392985352 	1.458134779e-09 	0.0007084360288 	-5.2375539e-09 	1.350475971e-06
0.4725359118 	0.001018305336 	-0.0002403034678 	2.406585961e-09 	0.001016330376 	-7.33482811e-09 	1.937408171e-06
0.4727114744 	0.001389688521 	-0.0003805778072 	3.60712464e-09 	0.00138697917 	-9.697754183e-09 	2.64396779e-06
0.472887037 	0.001816406421 	-0.0005598619613 	4.972047549e-09 	0.001812840876 	-1.219019624e-08 	3.455778562e-06
0.4730625996 	0.00228641326 	-0.0007728526412 	6.378741704e-09 	0.002281887027 	-1.466255711e-08 	4.349910892e-06
0.4732381623 	0.002785044675 	-0.001010488477 	7.706787035e-09 	0.002779479507 	-1.698297038e-08 	5.298460456e-06
0.4734137249 	0.003297227677 	-0.001262128362 	8.868408197e-09 	0.003290577015 	-1.905875629e-08 	6.272754359e-06
0.4735892875 	0.003809344689 	-0.001517650549 	9.820073362e-09 	0.00380159247 	-2.084237769e-08 	7.246891846e-06
0.4737648501 	0.004310360579 	-0.00176881111 	1.055673557e-08 	0.004301514525 	-2.232472417e-08 	8.199882229e-06
0.4739404128 	0.004792190147 	-0.002009735904 	1.109788119e-08 	0.004782273594 	-2.352261405e-08 	9.116342634e-06
0.4741159754 	0.005249516494 	-0.002236782497 	1.147377879e-08 	0.005238561829 	-2.446646398e-08 	9.986154828e-06
0.474291538 	0.005679323449 	-0.002448095063 	1.171589855e-08 	0.005667367819 	-2.519110832e-08 	1.080357823e-05
0.4744671006 	0.006080347992 	-0.002643095611 	1.1851843e-08 	0.006067430634 	-2.573025875e-08 	1.156620914e-05
0.4746426632 	0.00645257297 	-0.002822039376 	1.190354903e-08 	0.00643873344 	-2.611384961e-08 	1.227401549e-05
0.4748182259 	0.006796811073 	-0.002985676418 	1.188735384e-08 	0.006782088009 	-2.636723314e-08 	1.292854473e-05
0.4749937885 	0.007114388874 	-0.003135015872 	1.181489508e-08 	0.00709881912 	-2.65113658e-08 	1.353232226e-05
0.4751693511 	0.007406919534 	-0.003271172207 	1.169424052e-08 	0.007390537687 	-2.656341685e-08 	1.408841892e-05
0.4753449137 	0.007676146388 	-0.003395270625 	1.153095026e-08 	0.007658984342 	-2.653747585e-08 	1.460015286e-05
0.4755204764 	0.007923838898 	-0.003508392409 	1.132895577e-08 	0.007905927003 	-2.644520131e-08 	1.507089421e-05
0.475696039 	0.008151731958 	-0.00361154598 	1.109123276e-08 	0.008133085598 	-2.629637992e-08 	1.550392162e-05
0.4758716016 	0.008361465942 	-0.003705661282 	1.082025988e-08 	0.008342134341 	-2.609939968e-08 	1.590242663e-05
0.4760471642 	0.008554591657 	-0.003791261975 	1.051938634e-08 	0.008534626919 	-2.586133729e-08 	1.626937098e-05
0.4762227269 	0.008756217904 	-0.003881374046 	1.014668847e-08 	0.008735449871 	-2.554823567e-08 	1.665219535e-05
0.4764955107 	0.008983295332 	-0.003981837998 	9.631602319e-09 	0.008961557103 	-2.510655039e-08 	1.708321857e-05
0.4767734216 	0.009207376361 	-0.004078958838 	8.995029714e-09 	0.009184711269 	-2.456434207e-08 	1.750861244e-05
0.4770565557 	0.009408626793 	-0.004166242545 	8.289223978e-09 	0.009385009689 	-2.397257693e-08 	1.78904369e-05
0.4773450114 	0.009589242449 	-0.004244288103 	7.522479972e-09 	0.009564636916 	-2.334433408e-08 	1.823285631e-05
0.4776388886 	0.009751173365 	-0.00431405996 	6.702241846e-09 	0.00972559929 	-2.269250603e-08 	1.853969534e-05
0.4779382892 	0.009896191183 	-0.004376389346 	5.837591641e-09 	0.009869638823 	-2.202957991e-08 	1.881427472e-05
0.4782433171 	0.01002586975 	-0.004432003826 	4.939432192e-09 	0.009998328586 	-2.136761689e-08 	1.905959318e-05
0.4785540779 	0.0101416147 	-0.004481540632 	4.020687755e-09 	0.01011307004 	-2.071820229e-08 	1.927832228e-05
0.4788706795 	0.01024468003 	-0.004525558603 	3.096387202e-09 	0.01021511358 	-2.009215017e-08 	1.947284562e-05
0.4791932316 	0.01033618484 	-0.004564548662 	2.183560383e-09 	0.0103055745 	-1.949905734e-08 	1.964528929e-05
0.4795218461 	0.01041712829 	-0.004598942878 	1.300858594e-09 	0.01038544816 	-1.89466812e-08 	1.979755068e-05
0.4798566368 	0.01048840298 	-0.004629122222 	4.677902201e-10 	0.01045562327 	-1.844014083e-08 	1.993132395e-05
0.48019772 	0.01055080695 	-0.004655423177 	-2.965576489e-10 	0.01051689382 	-1.798095355e-08 	2.004812264e-05
0.4805452138 	0.01060505416 	-0.004678143347 	-9.754602071e-10 	0.01056996952 	-1.756595613e-08 	2.014929968e-05
0.4808992388 	0.01065178389 	-0.004697546209 	-1.557308943e-09 	0.01061548515 	-1.718620844e-08 	2.023606511e-05
0.4812599177 	0.01069156926 	-0.004713865166 	-2.039341909e-09 	0.01065400795 	-1.682597585e-08 	2.030950027e-05
0.4816273755 	0.01072492211 	-0.004727307171 	-2.43233655e-09 	0.01068604974 	-1.646119395e-08 	2.037058083e-05
0.4820017397 	0.01075230265 	-0.004738050881 	-2.767149659e-09 	0.01071206664 	-1.605793508e-08 	2.042017629e-05
0.48238314 	0.01077412906 	-0.004746406654 	-3.101179322e-09 	0.01073245746 	-1.558171415e-08 	2.045904684e-05
0.4827717088 	0.01079075849 	-0.004752299713 	-3.446370447e-09 	0.0107475991 	-1.502951995e-08 	2.048791103e-05
0.4831675807 	0.0108025028 	-0.004755540253 	-3.838958376e-09 	0.01075784488 	-1.445048729e-08 	2.050744234e-05
0.4835708931 	0.01080966475 	-0.004756611661 	-4.328618114e-09 	0.01076349163 	-1.390542435e-08 	2.05182066e-05
0.4839817856 	0.01081251415 	-0.004755804255 	-4.87167284e-09 	0.01076480822 	-1.341318721e-08 	2.052071639e-05
0.4844004009 	0.01081128205 	-0.004753093263 	-5.415394352e-09 	0.01076204591 	-1.295901748e-08 	2.051545066e-05
0.4848268841 	0.01080618146 	-0.004748578213 	-5.92683116e-09 	0.01075541786 	-1.252551795e-08 	2.050281576e-05
0.485261383 	0.01079740402 	-0.00474234526 	-6.3856769e-09 	0.0107451127 	-1.20977632e-08 	2.048317126e-05
0.4857040484 	0.01078511916 	-0.004734472286 	-6.783010801e-09 	0.01073130229 	-1.166126307e-08 	2.045684477e-05
0.4861550336 	0.01076947836 	-0.004725029388 	-7.118774571e-09 	0.01071413894 	-1.120281402e-08 	2.042412666e-05
0.4866144951 	0.01075061642 	-0.004714079501 	-7.399407744e-09 	0.01069375819 	-1.071082981e-08 	2.038527529e-05
0.4870825921 	0.01072865297 	-0.004701679032 	-7.635662687e-09 	0.01067028044 	-1.017572015e-08 	2.034052017e-05
0.487559487 	0.01070369394 	-0.004687878479 	-7.840699439e-09 	0.01064381259 	-9.590115907e-09 	2.029006508e-05
0.4880453452 	0.01067583286 	-0.00467272303 	-8.028489544e-09 	0.01061444942 	-8.948992695e-09 	2.023409073e-05
0.4885403351 	0.0106451521 	-0.004656253155 	-8.21253729e-09 	0.01058227495 	-8.249694975e-09 	2.017275724e-05
0.4890446283 	0.01061172406 	-0.004638505166 	-8.404904971e-09 	0.01054736357 	-7.491876883e-09 	2.010620645e-05
0.4895583997 	0.01057561221 	-0.004619511763 	-8.615516291e-09 	0.01050978123 	-6.677375488e-09 	2.003456407e-05
0.4900818274 	0.01053687211 	-0.004599302556 	-8.851705134e-09 	0.01046958644 	-5.810033357e-09 	1.995794162e-05
0.4906150929 	0.01049555241 	-0.004577904561 	-9.117974244e-09 	0.01042683119 	-4.895485898e-09 	1.987643823e-05
0.4911583811 	0.01045169567 	-0.004555342674 	-9.415927865e-09 	0.0103815619 	-3.94092681e-09 	1.979014239e-05
0.4917118805 	0.01040533927 	-0.004531640124 	-9.744344423e-09 	0.01033382022 	-2.95486209e-09 	1.969913348e-05
0.4922757829 	0.01035651622 	-0.004506818901 	-1.009935814e-08 	0.01028364379 	-1.946860278e-09 	1.960348325e-05
0.4928502838 	0.01030525587 	-0.004480900152 	-1.047472235e-08 	0.01023106696 	-9.273037749e-10 	1.950325721e-05
0.4934355824 	0.01025158473 	-0.004453904562 	-1.086213106e-08 	0.01017612149 	9.285619105e-11 	1.939851587e-05
0.4940318817 	0.01019552709 	-0.004425852691 	-1.125157975e-08 	0.01011883714 	1.102340364e-09 	1.928931597e-05
0.4946393885 	0.01013710571 	-0.004396765288 	-1.163174958e-08 	0.01005924227 	2.08977873e-09 	1.917571158e-05
0.4952583133 	0.01007634246 	-0.004366663565 	-1.199040285e-08 	0.009997364359 	3.043945768e-09 	1.905775509e-05
0.4958888709 	0.01001325889 	-0.004335569426 	-1.231478014e-08 	0.009933230514 	3.953995466e-09 	1.893549816e-05
0.4965312797 	0.009947876817 	-0.004303505651 	-1.259199155e-08 	0.009866867887 	4.809697636e-09 	1.880899255e-05
0.4971857627 	0.009880218783 	-0.004270496033 	-1.280939616e-08 	0.009798304076 	5.601676375e-09 	1.867829087e-05
0.4978525466 	0.009810308575 	-0.004236565451 	-1.295496465e-08 	0.009727567465 	6.32165061e-09 	1.854344723e-05
0.4985318627 	0.009738171617 	-0.004201739885 	-1.301762051e-08 	0.009654687506 	6.962675475e-09 	1.840451777e-05
0.4992239466 	0.009663835351 	-0.004166046366 	-1.298755591e-08 	0.009579694957 	7.519382199e-09 	1.826156113e-05
0.4999290382 	0.009587329546 	-0.004129512858 	-1.285651787e-08 	0.009502622058 	7.988213164e-09 	1.811463876e-05
0.5006473819 	0.009508686558 	-0.004092168062 	-1.261806192e-08 	0.009423502658 	8.367648679e-09 	1.796381519e-05
0.501379227 	0.009427941504 	-0.004054041148 	-1.226777171e-08 	0.009342372343 	8.658415665e-09 	1.780915826e-05
0.502124827 	0.009345132453 	-0.0040151614 	-1.180344704e-08 	0.009259268347 	8.863697151e-09 	1.765073895e-05
0.5028844406 	0.009260300509 	-0.003975557735 	-1.122527173e-08 	0.009174229498 	8.989279205e-09 	1.748863127e-05
0.5036583311 	0.009173491673 	-0.003935258174 	-1.053598136e-08 	0.009087292434 	9.044232917e-09 	1.732290506e-05
0.5044467669 	0.009084747405 	-0.003894289688 	-9.740729561e-09 	0.008998510218 	9.039118302e-09 	1.715366148e-05
0.5052500214 	0.008994116421 	-0.003852661991 	-8.856741586e-09 	0.008907928256 	8.987231678e-09 	1.698098709e-05
0.506068373 	0.008889767042 	-0.003805650514 	-7.702823989e-09 	0.008803677616 	8.900067941e-09 	1.678225639e-05
0.507324668 	0.008759681496 	-0.003747110735 	-6.19322117e-09 	0.008673850031 	8.79265145e-09 	1.653476893e-05
0.5085949819 	0.008616062737 	-0.003682015139 	-4.523628168e-09 	0.008530722448 	8.720603832e-09 	1.626192798e-05
0.5098794711 	0.008470949588 	-0.00361659951 	-2.812652441e-09 	0.008386238085 	8.755083686e-09 	1.598650062e-05
0.5111782938 	0.008324412837 	-0.003550890564 	-1.122407211e-09 	0.008240440856 	8.94708046e-09 	1.570857058e-05
0.5124916099 	0.008176496345 	-0.003484926905 	4.98200568e-10 	0.008093371411 	9.343333904e-09 	1.542821535e-05
0.5138195812 	0.008027237358 	-0.003418732926 	2.004087767e-09 	0.00794503335 	9.987226206e-09 	1.514544177e-05
0.5151623712 	0.007876654739 	-0.003352319426 	3.354584977e-09 	0.007795423725 	1.091582489e-08 	1.486024425e-05
0.5165201452 	0.007724754464 	-0.003285685136 	4.513600942e-09 	0.00764452903 	1.216007638e-08 	1.457259702e-05
0.5178930705 	0.007571531718 	-0.00321881821 	5.449865238e-09 	0.007492327862 	1.374438117e-08 	1.428245929e-05
0.5192813161 	0.007416973176 	-0.003151697823 	6.13718107e-09 	0.00733879314 	1.56864294e-08 	1.398977944e-05
0.520685053 	0.007261059144 	-0.003084295768 	6.55462323e-09 	0.007183894464 	1.799718789e-08 	1.369449951e-05
0.522104454 	0.007103765751 	-0.003016578017 	6.686634067e-09 	0.007027600276 	2.068104708e-08 	1.339655935e-05
0.523539694 	0.006945067102 	-0.002948506244 	6.522985089e-09 	0.006869879953 	2.373608937e-08 	1.309590057e-05
0.5249909497 	0.006784937427 	-0.002880039263 	6.058580704e-09 	0.006710705793 	2.715444784e-08 	1.279247039e-05
0.5264583998 	0.006623353196 	-0.002811134389 	5.293081728e-09 	0.00655005495 	3.092271912e-08 	1.248622523e-05
0.527942225 	0.006460295235 	-0.002741748694 	4.2303244e-09 	0.006387911301 	3.502238407e-08 	1.217713437e-05
0.5294426081 	0.006295750822 	-0.002671840153 	2.877518857e-09 	0.006224267304 	3.943016245e-08 	1.186518343e-05
0.5309597337 	0.00612971582 	-0.002601368655 	1.244261192e-09 	0.006059125864 	4.411820461e-08 	1.155037794e-05
0.5324937889 	0.00596219688 	-0.002530296903 	-6.584573699e-10 	0.005892502322 	4.905391774e-08 	1.123274716e-05
0.5340449624 	0.00579321391 	-0.002458591229 	-2.818691785e-09 	0.005724426536 	5.419949342e-08 	1.0912348e-05
0.5356134452 	0.005622802733 	-0.002386222536 	-5.222241484e-09 	0.005554946046 	5.95090987e-08 	1.058927108e-05
0.5371994306 	0.005451018451 	-0.002313166947 	-7.849146765e-09 	0.005384130757 	6.492812968e-08 	1.026364966e-05
0.5388031139 	0.005277942533 	-0.002239429628 	-1.062549008e-08 	0.005212075918 	7.03968729e-08 	9.935665321e-06
0.5404246925 	0.00510386837 	-0.002165064614 	-1.350648748e-08 	0.005039083332 	7.561594653e-08 	9.605893371e-06
0.5420643661 	0.004929430967 	-0.002090089194 	-1.648498634e-08 	0.004865797546 	8.021385851e-08 	9.275562502e-06
0.5437223366 	0.004755300036 	-0.002014466308 	-1.94895442e-08 	0.00469289934 	8.425484006e-08 	8.945970467e-06
0.5453988083 	0.004581942768 	-0.001938205762 	-2.248227242e-08 	0.004520861098 	8.793642692e-08 	8.618017761e-06
0.5470939875 	0.004409683524 	-0.001861350764 	-2.546888962e-08 	0.004350010654 	9.132241544e-08 	8.292329329e-06
0.5488080831 	0.004238756689 	-0.00178394095 	-2.844501374e-08 	0.004180587997 	9.44678345e-08 	7.969362657e-06
0.5505413061 	0.004069332212 	-0.001706024305 	-3.140696023e-08 	0.004012768032 	9.740625799e-08 	7.649451159e-06
0.5522938699 	0.00390153894 	-0.001627656543 	-3.43459894e-08 	0.003846683668 	1.001533224e-07 	7.332848201e-06
0.5540659904 	0.003735484583 	-0.001548902789 	-3.724724917e-08 	0.00368244617 	1.027089828e-07 	7.019765882e-06
0.5558578859 	0.003571276052 	-0.001469839173 	-4.00906252e-08 	0.003520165203 	1.050580148e-07 	6.710413256e-06
0.5576697768 	0.003409039577 	-0.0013905548 	-4.285284605e-08 	0.003359969086 	1.071702263e-07 	6.405034934e-06
0.5595018865 	0.003248940169 	-0.001311154084 	-4.55098733e-08 	0.00320202377 	1.089987334e-07 	6.103947262e-06
0.5613544406 	0.003091197612 	-0.001231760939 	-4.803887723e-08 	0.003046550036 	1.104738713e-07 	5.807571114e-06
0.563227667 	0.002936107951 	-0.001152509675 	-5.039372814e-08 	0.002893845867 	1.115076589e-07 	5.516474525e-06
0.5651217966 	0.002784012024 	-0.00107358278 	-5.254409578e-08 	0.002744246637 	1.119685298e-07 	5.231296814e-06
0.5670370626 	0.002635324036 	-0.0009951927568 	-5.451994686e-08 	0.002598153583 	1.117011701e-07 	4.952802849e-06
0.5689737009 	0.002490636867 	-0.000917535269 	-5.62569887e-08 	0.002456149869 	1.106424506e-07 	4.682104302e-06
0.5709319499 	0.002350637605 	-0.0008408492002 	-5.76477166e-08 	0.002318915122 	1.087503307e-07 	4.420496731e-06
0.5729120508 	0.002216055084 	-0.0007654247175 	-5.863516217e-08 	0.002187169132 	1.059303459e-07 	4.169352258e-06
0.5749142474 	0.00208771038 	-0.0006915800208 	-5.915204502e-08 	0.002061722076 	1.020955589e-07 	3.930215303e-06
0.5769387863 	0.001966493878 	-0.0006196654306 	-5.915246065e-08 	0.001943450228 	9.717238486e-08 	3.704756289e-06
0.5789859169 	0.001853335617 	-0.0005500545716 	-5.861170923e-08 	0.001833266652 	9.111620938e-08 	3.494715769e-06
0.5810558911 	0.001749160738 	-0.0004831309182 	-5.752481394e-08 	0.001732077744 	8.393217238e-08 	3.301821586e-06
0.583148964 	0.001654829867 	-0.0004192683388 	-5.590792408e-08 	0.001640724335 	7.569633533e-08 	3.127676598e-06
0.5852653933 	0.001571066053 	-0.0003588059905 	-5.38028957e-08 	0.00155990942 	6.657281391e-08 	2.973620908e-06
0.5874054395 	0.001498373827 	-0.0003020202338 	-5.127892268e-08 	0.00149011834 	5.682012656e-08 	2.840579713e-06
0.5895693664 	0.001436962704 	-0.0002490954713 	-4.844209413e-08 	0.001431544594 	4.678584207e-08 	2.728921874e-06
0.5917574402 	0.001386723221 	-0.000200130389 	-4.534530219e-08 	0.001384068388 	3.656700513e-08 	2.63841903e-06
0.5939699306 	0.001347486743 	-0.0001551400796 	-4.210504824e-08 	0.001347516539 	2.623611102e-08 	2.568741045e-06
0.5962071099 	0.001318969647 	-0.0001140015065 	-3.891546613e-08 	0.001321603548 	1.631712009e-08 	2.519343683e-06
0.5984692536 	0.001300378598 	-7.647776826e-05 	-3.584450546e-08 	0.001305535495 	7.269081755e-09 	2.488713508e-06
0.6007566404 	0.001290565448 	-4.228697697e-05 	-3.29389625e-08 	0.001298167867 	-7.449289486e-10 	2.474668761e-06
0.6030695519 	0.001288317986 	-1.111053225e-05 	-3.026025986e-08 	0.001298296848 	-7.652929889e-09 	2.474914634e-06
0.6054082729 	0.00129244057 	1.739253781e-05 	-2.783396411e-08 	0.001304737303 	-1.346146331e-08 	2.487191933e-06
0.6077730914 	0.00130181268 	4.356235185e-05 	-2.566943517e-08 	0.001316379954 	-1.823568521e-08 	2.50938606e-06
0.6101642987 	0.001315425667 	6.772434413e-05 	-2.376238736e-08 	0.001332227429 	-2.207686965e-08 	2.539595753e-06
0.6125821893 	0.001332400244 	9.017989794e-05 	-2.209905982e-08 	0.001351411062 	-2.510285256e-08 	2.576165089e-06
0.6150270608 	0.00135198909 	0.0001112009891 	-2.066003297e-08 	0.001373193024 	-2.743363397e-08 	2.617687562e-06
0.6174992144 	0.001373569336 	0.0001310281505 	-1.942329156e-08 	0.001396958612 	-2.918192948e-08 	2.662991379e-06
0.6199989545 	0.001396629183 	0.0001498708377 	-1.836636911e-08 	0.001422202848 	-3.044791387e-08 	2.71111391e-06
0.622526589 	0.001420751978 	0.0001679092637 	-1.746764194e-08 	0.001448514635 	-3.131715987e-08 	2.761271488e-06
0.625082429 	0.001445600202 	0.0001852969512 	-1.670698673e-08 	0.001475560821 	-3.186082516e-08 	2.812829035e-06
0.6276667894 	0.001470900919 	0.0002021634972 	-1.606603651e-08 	0.001503071721 	-3.213726174e-08 	2.865272457e-06
0.6302799884 	0.001496433559 	0.000218617273 	-1.552823088e-08 	0.001530828932 	-3.219435236e-08 	2.918185417e-06
0.6329223478 	0.001522020283 	0.000234747951 	-1.507880136e-08 	0.001558655741 	-3.207199341e-08 	2.971231048e-06
0.6355941931 	0.001547518732 	0.0002506288528 	-1.470476853e-08 	0.001586409939 	-3.180426262e-08 	3.024138265e-06
0.6382958531 	0.001572816638 	0.0002663191579 	-1.439495971e-08 	0.001613978564 	-3.142097032e-08 	3.076691726e-06
0.6410276607 	0.001597827652 	0.0002818659886 	-1.414000611e-08 	0.001641273887 	-3.094850503e-08 	3.128724197e-06
0.6437899523 	0.001622487794 	0.0002973063494 	-1.393227178e-08 	0.001668230053 	-3.041010051e-08 	3.180110142e-06
0.646583068 	0.001646752149 	0.0003126688677 	-1.376569842e-08 	0.001694799936 	-2.982578922e-08 	3.230759723e-06
0.6494073518 	0.001670591638 	0.0003279752903 	-1.363558964e-08 	0.001720952036 	-2.921231846e-08 	3.280612894e-06
0.6522631514 	0.001693989932 	0.0003432417176 	-1.35383741e-08 	0.001746667455 	-2.85832101e-08 	3.32963363e-06
0.6551508186 	0.001716940615 	0.0003584795906 	-1.347137965e-08 	0.001771937076 	-2.794901707e-08 	3.377804551e-06
0.658070709 	0.001739444724 	0.0003736964607 	-1.343263364e-08 	0.001796759088 	-2.731773354e-08 	3.425122206e-06
0.6610231822 	0.001761508732 	0.0003888965822 	-1.342069262e-08 	0.001821136931 	-2.669527646e-08 	3.47159315e-06
0.6640086017 	0.001783142954 	0.0004040813608 	-1.343449956e-08 	0.001845077668 	-2.608596189e-08 	3.517230848e-06
0.6670273351 	0.001804360363 	0.0004192496893 	-1.347326559e-08 	0.00186859076 	-2.549292569e-08 	3.562053337e-06
0.6700797543 	0.001825175711 	0.0004343981966 	-1.353637341e-08 	0.001891687171 	-2.491846641e-08 	3.606081514e-06
0.6731662352 	0.001845604921 	0.0004495214323 	-1.362329955e-08 	0.001914378723 	-2.436430809e-08 	3.649337921e-06
0.6762871577 	0.001865664648 	0.0004646120048 	-1.373355244e-08 	0.001936677659 	-2.383179208e-08 	3.69184589e-06
0.6794429063 	0.001885371995 	0.0004796606886 	-1.386662355e-08 	0.001958596329 	-2.332201141e-08 	3.733628967e-06
0.6826338695 	0.001904744304 	0.0004946565126 	-1.402194883e-08 	0.001980146983 	-2.283590107e-08 	3.774710503e-06
0.6858604404 	0.001923799034 	0.000509586838 	-1.419887829e-08 	0.002001341629 	-2.237429619e-08 	3.815113388e-06
0.6891230163 	0.001942553667 	0.0005244374352 	-1.439665195e-08 	0.002022191929 	-2.193796705e-08 	3.854859856e-06
0.6924219988 	0.00196102566 	0.000539192564 	-1.461438073e-08 	0.002042709136 	-2.152763811e-08 	3.893971355e-06
0.6957577944 	0.001979232414 	0.0005538350634 	-1.48510315e-08 	0.002062904044 	-2.11439958e-08 	3.932468463e-06
0.6991308138 	0.001997191264 	0.0005683464544 	-1.510541565e-08 	0.002082786958 	-2.078768849e-08 	3.970370823e-06
0.7025414724 	0.002014919489 	0.000582707061 	-1.537618077e-08 	0.002102367675 	-2.045932113e-08 	4.007697112e-06
0.7059901901 	0.002032434328 	0.0005968961515 	-1.566180549e-08 	0.00212165548 	-2.015944586e-08 	4.044465029e-06
0.7094773917 	0.002049753022 	0.0006108921059 	-1.596059745e-08 	0.00214065915 	-1.988855012e-08 	4.080691306e-06
0.7130035066 	0.002066892858 	0.0006246726107 	-1.62706947e-08 	0.002159386974 	-1.964704271e-08 	4.116391742e-06
0.7165689691 	0.002083871237 	0.0006382148863 	-1.659007072e-08 	0.002177846784 	-1.943523895e-08 	4.151581271e-06
0.7201742182 	0.002100705753 	0.0006514959511 	-1.69165437e-08 	0.002196046008 	-1.925334568e-08 	4.186274052e-06
0.7238196978 	0.00211741427 	0.0006644929239 	-1.724779044e-08 	0.00221399175 	-1.910144647e-08 	4.220483623e-06
0.727505857 	0.002134015055 	0.0006771833685 	-1.758136662e-08 	0.002231690817 	-1.897948874e-08 	4.254222963e-06
0.7312331497 	0.002150526863 	0.0006895457457 	-1.791471126e-08 	0.002249149823 	-1.888727982e-08 	4.287504681e-06
0.7350020349 	0.002166926393 	0.0007015260694 	-1.824439455e-08 	0.002266331153 	-1.882437916e-08 	4.320257071e-06
0.7387709215 	0.002183100565 	0.0007130111044 	-1.856529603e-08 	0.00228310629 	-1.878953745e-08 	4.352235145e-06
0.7424982157 	0.002198943554 	0.0007239120294 	-1.887258906e-08 	0.00229936045 	-1.878039886e-08 	4.383220092e-06
0.7461843763 	0.002214445543 	0.000734220196 	-1.916367455e-08 	0.002315082785 	-1.87942015e-08 	4.413191233e-06
0.7498298574 	0.002229637588 	0.0007439581801 	-1.943719515e-08 	0.002330306052 	-1.882819356e-08 	4.442211011e-06
0.7534351078 	0.002244549608 	0.0007531508769 	-1.969212088e-08 	0.002345062383 	-1.887958251e-08 	4.470340678e-06
0.7570005716 	0.002259210645 	0.000761825499 	-1.992770428e-08 	0.002359383536 	-1.89455642e-08 	4.497640777e-06
0.7605266877 	0.002273649106 	0.0007700114506 	-2.014346277e-08 	0.002373301239 	-1.902334025e-08 	4.524171786e-06
0.7640138905 	0.002287893036 	0.0007777402026 	-2.033915192e-08 	0.002386847463 	-1.91101279e-08 	4.549994654e-06
0.7674626093 	0.002301970399 	0.0007850451789 	-2.051472979e-08 	0.002400054698 	-1.920316474e-08 	4.575171315e-06
0.770873269 	0.002315909357 	0.0007919616412 	-2.067032019e-08 	0.00241295622 	-1.929970826e-08 	4.599765202e-06
0.7742462894 	0.002329738563 	0.0007985265726 	-2.080616781e-08 	0.002425586342 	-1.939703016e-08 	4.623841725e-06
0.777582086 	0.002343487456 	0.000804778579 	-2.092258382e-08 	0.002437980668 	-1.949240532e-08 	4.647468754e-06
0.7808810695 	0.002357186569 	0.0008107578043 	-2.101988667e-08 	0.002450176337 	-1.958309536e-08 	4.670717089e-06
0.7841436462 	0.002370867834 	0.0008165058613 	-2.109833602e-08 	0.002462212272 	-1.966632632e-08 	4.693660927e-06
0.787370218 	0.002384564913 	0.0008220657816 	-2.115806084e-08 	0.002474129427 	-1.973926027e-08 	4.716378336e-06
0.7905611821 	0.002398313521 	0.0008274819865 	-2.119898273e-08 	0.002485971038 	-1.979896025e-08 	4.738951738e-06
0.7937169314 	0.002412151766 	0.000832800279 	-2.122073616e-08 	0.002497782885 	-1.984234855e-08 	4.761468402e-06
0.7968378547 	0.002426120492 	0.0008380678586 	-2.122258825e-08 	0.00250961356 	-1.986615872e-08 	4.784020956e-06
0.7999243362 	0.002440263623 	0.0008433333556 	-2.120336134e-08 	0.002521514741 	-1.986688202e-08 	4.806707915e-06
0.8029767561 	0.002454628503 	0.0008486468851 	-2.116136297e-08 	0.002533541483 	-1.984070992e-08 	4.829634229e-06
0.8059954902 	0.002469266236 	0.0008540601125 	-2.109432875e-08 	0.002545752508 	-1.978347558e-08 	4.852911835e-06
0.8089809102 	0.002484231994 	0.0008596263249 	-2.09993852e-08 	0.002558210498 	-1.969059817e-08 	4.876660227e-06
0.8119333839 	0.002499585319 	0.0008654004979 	-2.087304008e-08 	0.002570982389 	-1.955703579e-08 	4.901007001e-06
0.8148532749 	0.002515390371 	0.0008714393436 	-2.071120898e-08 	0.002584139641 	-1.937725423e-08 	4.926088381e-06
0.8177409426 	0.002531716139 	0.0008778013238 	-2.050928655e-08 	0.002597758485 	-1.914522014e-08 	4.952049683e-06
0.8205967427 	0.00254863658 	0.0008845466085 	-2.026226952e-08 	0.002611920115 	-1.885442789e-08 	4.979045686e-06
0.8234210268 	0.00256623069 	0.0008917369606 	-1.996493618e-08 	0.002626710815 	-1.849796848e-08 	5.00724087e-06
0.8262141429 	0.002584582479 	0.0008994355251 	-1.961208193e-08 	0.002642221985 	-1.80686467e-08 	5.036809471e-06
0.8289764348 	0.002603780851 	0.0009077065061 	-1.919880356e-08 	0.002658550057 	-1.755914755e-08 	5.067935314e-06
0.8317082427 	0.002623919374 	0.0009166147219 	-1.872081635e-08 	0.00267579626 	-1.696224684e-08 	5.100811371e-06
0.8344099031 	0.00264509594 	0.0009262250368 	-1.817477855e-08 	0.002694066241 	-1.62710533e-08 	5.135639032e-06
0.8370817486 	0.002667412312 	0.0009366016829 	-1.755859024e-08 	0.002713469511 	-1.547926346e-08 	5.172627057e-06
0.8397241082 	0.002690973558 	0.0009478074976 	-1.687163077e-08 	0.002734118743 	-1.458140719e-08 	5.211990233e-06
0.8423373074 	0.00271588737 	0.0009599031175 	-1.611490297e-08 	0.002756128925 	-1.357306305e-08 	5.253947758e-06
0.844921668 	0.002742263285 	0.0009729461751 	-1.529106455e-08 	0.002779616387 	-1.245102833e-08 	5.298721389e-06
0.8474775082 	0.002770211793 	0.0009869905453 	-1.44043443e-08 	0.00280469774 	-1.121343719e-08 	5.346533418e-06
0.8500051427 	0.002799843352 	0.001002085684 	-1.346035927e-08 	0.002831488747 	-9.859829241e-09 	5.397604523e-06
0.8525048829 	0.002831267307 	0.001018276083 	-1.246586286e-08 	0.002860103158 	-8.391177451e-09 	5.452151543e-06
0.8549770366 	0.002864590738 	0.001035600859 	-1.142845961e-08 	0.002890651527 	-6.809887098e-09 	5.510385225e-06
0.8574219081 	0.002899917247 	0.001054093464 	-1.035631962e-08 	0.002923240031 	-5.119776399e-09 	5.572507972e-06
0.8598397987 	0.002937345705 	0.001073781502 	-9.257916174e-09 	0.00295796931 	-3.326045699e-09 	5.63871163e-06
0.862231006 	0.002976969002 	0.001094686647 	-8.141797978e-09 	0.002994933331 	-1.435237215e-09 	5.709175328e-06
0.8645958245 	0.003018872806 	0.001116824607 	-7.016395906e-09 	0.003034218306 	5.448173844e-10 	5.784063409e-06
0.8669345455 	0.003063134391 	0.001140205149 	-5.889855264e-09 	0.003075901665 	2.605067999e-09 	5.863523476e-06
0.8692474569 	0.003109821549 	0.001164832145 	-4.769879708e-09 	0.00312005111 	4.735344434e-09 	5.94768459e-06
0.8715348435 	0.003158991616 	0.001190703653 	-3.663571758e-09 	0.003166723768 	6.924491745e-09 	6.036655647e-06
0.8737969871 	0.003210690665 	0.001217812026 	-2.577257086e-09 	0.003215965457 	9.160551605e-09 	6.130523992e-06
0.8760341663 	0.003264952863 	0.00124614406 	-1.516284573e-09 	0.003267810102 	1.143099671e-08 	6.229354295e-06
0.8782466565 	0.003321800045 	0.001275681207 	-4.848007179e-10 	0.00332227931 	1.372302161e-08 	6.333187744e-06
0.8804347301 	0.003381241498 	0.001306399848 	5.144956109e-10 	0.003379382132 	1.602388868e-08 	6.442041595e-06
0.8825986568 	0.003443273989 	0.001338271672 	1.480604916e-09 	0.003439115034 	1.832132214e-08 	6.555909107e-06
0.8847387028 	0.003507882029 	0.001371264146 	2.414466028e-09 	0.003501462073 	2.060393704e-08 	6.674759893e-06
0.8868551318 	0.003575038377 	0.001405341096 	3.319158817e-09 	0.003566395311 	2.286168466e-08 	6.798540691e-06
0.8889482045 	0.003644704758 	0.00144046339 	4.200045589e-09 	0.003633875432 	2.508629064e-08 	6.927176558e-06
0.8910181784 	0.003716832789 	0.001476589712 	5.064826994e-09 	0.003703852577 	2.727165955e-08 	7.060572445e-06
0.8930653087 	0.003791365066 	0.001513677403 	5.923491756e-09 	0.003776267352 	2.941421781e-08 	7.198615132e-06
0.8950898473 	0.003868236378 	0.001551683337 	6.788145171e-09 	0.003851051993 	3.151316781e-08 	7.341175443e-06
0.8970920436 	0.003947374999 	0.001590564805 	7.672708322e-09 	0.003928131645 	3.357062853e-08 	7.488110683e-06
0.8990721441 	0.004028704012 	0.001630280352 	8.59248774e-09 	0.004007425705 	3.559164211e-08 	7.639267199e-06
0.9010303927 	0.004112142603 	0.001670790539 	9.563623044e-09 	0.004088849186 	3.758403122e-08 	7.794482986e-06
0.9029670306 	0.004197607281 	0.001712058588 	1.060242727e-08 	0.004172314058 	3.955809847e-08 	7.95359023e-06
0.9048822962 	0.004285012975 	0.001754050864 	1.172464073e-08 	0.004257730504 	4.152616571e-08 	8.116417715e-06
0.9067764254 	0.004374273955 	0.001796737178 	1.294462395e-08 	0.004345008053 	4.350195828e-08 	8.282792982e-06
0.9086496514 	0.004465304547 	0.001840090875 	1.427451868e-08 	0.004434056552 	4.549984603e-08 	8.45254417e-06
0.910502205 	0.004558019611 	0.001884088696 	1.572340753e-08 	0.004524786926 	4.753395986e-08 	8.62550148e-06
0.9123343142 	0.004652334754 	0.001928710412 	1.729650372e-08 	0.004617111706 	4.961720881e-08 	8.801498171e-06
0.9141462048 	0.004748166268 	0.001973938221 	1.899440191e-08 	0.004710945295 	5.176022874e-08 	8.980371072e-06
0.9159380997 	0.004845430793 	0.002019755922 	2.081241966e-08 	0.004806203963 	5.397029912e-08 	9.161960568e-06
0.9177102197 	0.004944044707 	0.002066147901 	2.27400578e-08 	0.004902805548 	5.625026937e-08 	9.34611004e-06
0.9194627831 	0.005043923265 	0.002113097934 	2.476060539e-08 	0.005000668894 	5.85975401e-08 	9.532664776e-06
0.9211960055 	0.00514497952 	0.002160587861 	2.685091284e-08 	0.005099713004 	6.100314815e-08 	9.721470378e-06
0.9229101006 	0.005247123054 	0.002208596168 	2.89813537e-08 	0.005199855971 	6.345100579e-08 	9.912370706e-06