0 	-0.0001444731974 	5.772572542e-18 	-5.649746324e-21 	1.812344984e-18 	7.912869086e-20 	3.454833254e-21
0.0003162438639 	-0.0001454582727 	-4.290318137e-06 	-1.860671441e-10 	6.236517148e-05 	-4.97458119e-09 	1.188853503e-07
0.0006324872147 	-0.0001457445377 	-1.478384421e-05 	2.442434899e-10 	7.049000305e-05 	-5.133733383e-09 	1.343735375e-07
0.0009487300516 	-0.0001452937191 	-2.234023963e-05 	3.604474293e-10 	7.163324711e-05 	-4.722934541e-09 	1.365528784e-07
0.001264972374 	-0.0001455125353 	-2.982233673e-05 	4.390820206e-10 	7.234078261e-05 	-4.270276018e-09 	1.379016377e-07
0.001581214182 	-0.0001454771227 	-3.727527554e-05 	4.877877229e-10 	7.242757857e-05 	-3.774743889e-09 	1.380670949e-07
0.001897455474 	-0.0001454629137 	-4.472025647e-05 	5.091502447e-10 	7.249291321e-05 	-3.2769197e-09 	1.381916409e-07
0.002213696249 	-0.000145448167 	-5.216278473e-05 	5.039330133e-10 	7.253055149e-05 	-2.777128038e-09 	1.3826339e-07
0.002529936509 	-0.0001454337017 	-5.960472342e-05 	4.724270794e-10 	7.255429772e-05 	-2.276495624e-09 	1.383086569e-07
0.002846176251 	-0.0001454173753 	-6.704677554e-05 	4.147632068e-10 	7.256715317e-05 	-1.775490117e-09 	1.383331629e-07
0.003162415477 	-0.000145399596 	-7.448922564e-05 	3.310111765e-10 	7.257345269e-05 	-1.274525463e-09 	1.383451716e-07
0.003478654184 	-0.0001453805116 	-8.193219357e-05 	2.21216674e-10 	7.257537417e-05 	-7.738717748e-10 	1.383488345e-07
0.003794892374 	-0.0001453602581 	-8.937573043e-05 	8.541677646e-11 	7.257421732e-05 	-2.737349605e-10 	1.383466292e-07
0.003968138875 	-0.0001453485982 	-9.345382111e-05 	1.392006927e-10 	7.257234786e-05 	-1.104908862e-07 	1.383430655e-07
0.004111130046 	-0.0001453392502 	-9.681985532e-05 	7.621845842e-11 	7.257094255e-05 	-2.319413111e-10 	1.383403866e-07
0.004427367199 	-0.0001453176922 	-0.0001042645772 	2.635899526e-10 	7.256614763e-05 	-7.442907817e-10 	1.383312461e-07
0.004743603834 	-0.0001452953944 	-0.0001117099057 	4.768060116e-10 	7.256007232e-05 	-1.255612564e-09 	1.383196649e-07
0.005059839951 	-0.0001452725243 	-0.0001191558459 	7.158192992e-10 	7.255303193e-05 	-1.765774246e-09 	1.383062439e-07
0.005376075549 	-0.0001452492604 	-0.0001266024031 	9.805768834e-10 	7.254527933e-05 	-2.274651427e-09 	1.382914653e-07
0.005692310628 	-0.0001452257918 	-0.0001340495835 	1.271019841e-09 	7.253702709e-05 	-2.782126315e-09 	1.382757343e-07
0.006008545189 	-0.0001452023189 	-0.0001414973936 	1.587083108e-09 	7.252846186e-05 	-3.288086868e-09 	1.382594065e-07
0.006324779232 	-0.0001451790549 	-0.0001489458404 	1.928695229e-09 	7.251975413e-05 	-3.792426161e-09 	1.382428072e-07
0.006641012756 	-0.0001451562272 	-0.0001563949308 	2.295778272e-09 	7.251106538e-05 	-4.29504211e-09 	1.38226244e-07
0.006957245763 	-0.0001451340806 	-0.000163844671 	2.688247735e-09 	7.250255367e-05 	-4.795837501e-09 	1.382100183e-07
0.007273478251 	-0.0001451128821 	-0.0001712950656 	3.106012601e-09 	7.249437905e-05 	-5.294720417e-09 	1.381944352e-07
0.007589710222 	-0.0001450929321 	-0.0001787461144 	3.548975469e-09 	7.248671109e-05 	-5.79160498e-09 	1.38179818e-07
0.007905941675 	-0.0001450745909 	-0.0001861978079 	4.017032796e-09 	7.247974753e-05 	-6.286412913e-09 	1.381665435e-07
0.008222172612 	-0.0001450583304 	-0.0001936501166 	4.510075338e-09 	7.247374092e-05 	-6.779075859e-09 	1.381550932e-07
0.008538403032 	-0.0001450448306 	-0.0002011029699 	5.027988902e-09 	7.246902898e-05 	-7.26954083e-09 	1.38146111e-07
0.008854632936 	-0.0001450350279 	-0.0002085562161 	5.570658934e-09 	7.246579901e-05 	-7.75774206e-09 	1.381399537e-07
0.009170862325 	-0.0001450310319 	-0.0002160094978 	6.13787749e-09 	7.246528198e-05 	-8.243700139e-09 	1.381389681e-07
0.009487091198 	-0.0001450378163 	-0.0002245069763 	6.759930425e-09 	7.246661071e-05 	-8.724919678e-09 	1.381415011e-07
0.009978436983 	-0.0001450628598 	-0.0002351258773 	7.699249591e-09 	7.247781471e-05 	-9.474535529e-09 	1.38162859e-07
0.01047901633 	-0.0001451109069 	-0.0002469298426 	8.745186421e-09 	7.250451601e-05 	-1.02328054e-08 	1.382137591e-07
0.01098900275 	-0.0001451855646 	-0.0002589565067 	9.87215966e-09 	7.254425183e-05 	-1.100166855e-08 	1.382895066e-07
0.01150857298 	-0.0001452907384 	-0.0002712108903 	1.108335738e-08 	7.259932271e-05 	-1.17816071e-08 	1.38394487e-07
0.01203790712 	-0.0001454287592 	-0.0002836970668 	1.238196671e-08 	7.267065391e-05 	-1.257301146e-08 	1.385304641e-07
0.01257718863 	-0.0001456016369 	-0.0002964193448 	1.37712057e-08 	7.275923034e-05 	-1.337634085e-08 	1.386993154e-07
0.01312660441 	-0.0001458111937 	-0.0003093821568 	1.525432171e-08 	7.286594703e-05 	-1.419207695e-08 	1.389027471e-07
0.01368634489 	-0.0001460591912 	-0.0003225900434 	1.683458664e-08 	7.299166926e-05 	-1.502073519e-08 	1.391424086e-07
0.01425660407 	-0.000146347384 	-0.0003360476444 	1.85152914e-08 	7.313725389e-05 	-1.586286805e-08 	1.394199334e-07
0.01483757959 	-0.0001466775447 	-0.0003497596965 	2.029974041e-08 	7.3303565e-05 	-1.67190687e-08 	1.397369686e-07
0.01542947281 	-0.0001470514729 	-0.000363731033 	2.219124627e-08 	7.349147804e-05 	-1.75899731e-08 	1.400951831e-07
0.01603248888 	-0.0001474709954 	-0.0003779665865 	2.419312411e-08 	7.370188034e-05 	-1.847626168e-08 	1.404962683e-07
0.01664683679 	-0.0001479379658 	-0.0003924713907 	2.630868618e-08 	7.393567052e-05 	-1.937866071e-08 	1.409419374e-07
0.01727272946 	-0.0001484542598 	-0.0004072505839 	2.854123652e-08 	7.41937526e-05 	-2.02979423e-08 	1.414339135e-07
0.01791038382 	-0.0001490217866 	-0.0004223094135 	3.089406638e-08 	7.447705746e-05 	-2.123492709e-08 	1.419739714e-07
0.01856002087 	-0.000149642475 	-0.0004376531492 	3.337043401e-08 	7.478650602e-05 	-2.219046843e-08 	1.425638663e-07
0.01922186577 	-0.0001503182752 	-0.0004532901209 	3.597418053e-08 	7.512299582e-05 	-2.316547277e-08 	1.432053094e-07
0.0198961479 	-0.0001510519879 	-0.0004692390971 	3.871042526e-08 	7.548796725e-05 	-2.416100153e-08 	1.439010464e-07
0.02058563617 	-0.0001518468694 	-0.0004855245839 	4.158866284e-08 	7.588304088e-05 	-2.518258442e-08 	1.446541665e-07
0.02128991459 	-0.000152704524 	-0.0005021561295 	4.461526399e-08 	7.630880705e-05 	-2.623173215e-08 	1.454657952e-07
0.0220074278 	-0.0001536257117 	-0.000519117741 	4.779029492e-08 	7.676566912e-05 	-2.730718205e-08 	1.463367013e-07
0.02273842446 	-0.0001546119545 	-0.0005363999248 	5.11152058e-08 	7.725444341e-05 	-2.841052393e-08 	1.472684409e-07
0.02348315793 	-0.0001556651028 	-0.0005540104868 	5.459458422e-08 	7.777591957e-05 	-2.954328192e-08 	1.482625194e-07
0.0242418863 	-0.0001567870009 	-0.000571955892 	5.823287562e-08 	7.833096352e-05 	-3.070711333e-08 	1.493205874e-07
0.02501487254 	-0.0001579794566 	-0.0005902428242 	6.20346585e-08 	7.892043244e-05 	-3.19037359e-08 	1.50444279e-07
0.02580238453 	-0.0001592442266 	-0.0006088781406 	6.600464973e-08 	7.954514061e-05 	-3.313491932e-08 	1.516351464e-07
0.0266046952 	-0.0001605830275 	-0.0006278688785 	7.014771693e-08 	8.020587949e-05 	-3.440248731e-08 	1.528946984e-07
0.02742208261 	-0.0001619975332 	-0.0006472222598 	7.446889036e-08 	8.090341464e-05 	-3.570831425e-08 	1.542243943e-07
0.02825483002 	-0.0001634893733 	-0.0006669456962 	7.897337585e-08 	8.163848423e-05 	-3.705432137e-08 	1.556256412e-07
0.02910322603 	-0.0001650601305 	-0.0006870467937 	8.366656821e-08 	8.241179725e-05 	-3.844247268e-08 	1.570997907e-07
0.02996756467 	-0.0001667113385 	-0.0007075333572 	8.855406426e-08 	8.322403197e-05 	-3.987477087e-08 	1.586481359e-07
0.03084814547 	-0.0001684444808 	-0.0007284133945 	9.015880816e-08 	8.407583446e-05 	-3.98151784e-08 	1.602719081e-07
0.03174527359 	-0.0001702609886 	-0.0007496951195 	8.924186057e-08 	8.496781733e-05 	-3.867865514e-08 	1.619722754e-07
0.03265925994 	-0.0001721622411 	-0.0007713869551 	8.814848061e-08 	8.590055879e-05 	-3.752165054e-08 	1.637503399e-07
0.03359042126 	-0.000174149565 	-0.000793497535 	8.687320099e-08 	8.687460213e-05 	-3.634207832e-08 	1.656071372e-07
0.03453908024 	-0.0001762242373 	-0.0008160357038 	8.541040855e-08 	8.789045578e-05 	-3.513776597e-08 	1.675436366e-07
0.03550556561 	-0.0001783874883 	-0.0008390105157 	8.375432845e-08 	8.894859249e-05 	-3.390646029e-08 	1.695607393e-07
0.03649021232 	-0.0001806405191 	-0.0008624312319 	8.189900736e-08 	9.004946637e-05 	-3.264583593e-08 	1.716593109e-07
0.03749336157 	-0.0001829845187 	-0.0008863072888 	7.983829331e-08 	9.119351532e-05 	-3.13534921e-08 	1.738401861e-07
0.03851536099 	-0.000185420657 	-0.0009106493142 	7.756595566e-08 	9.238109927e-05 	-3.002697684e-08 	1.761040512e-07
0.03955656474 	-0.0001879512133 	-0.0009354763442 	7.507604755e-08 	9.361322037e-05 	-2.866395983e-08 	1.784528165e-07
0.04061897128 	-0.0001905811 	-0.000960831037 	7.235522496e-08 	9.489212151e-05 	-2.725899604e-08 	1.808907575e-07
0.04170592738 	-0.0001933123897 	-0.0009867505633 	6.93821437e-08 	9.62183207e-05 	-2.580391551e-08 	1.834188617e-07
0.04281330888 	-0.0001961418662 	-0.001013209562 	6.617106992e-08 	9.759020071e-05 	-2.430465241e-08 	1.860340464e-07
0.04394149955 	-0.0001990678539 	-0.001040184862 	6.271068162e-08 	9.900685688e-05 	-2.275825785e-08 	1.887345867e-07
0.04509089038 	-0.0002020911133 	-0.001067691221 	5.899366543e-08 	0.0001004681642 	-2.116192495e-08 	1.915202447e-07
0.04626187967 	-0.0002052124502 	-0.001095739615 	5.501174519e-08 	0.0001019742706 	-1.951297894e-08 	1.943913021e-07
0.04745487324 	-0.0002084325877 	-0.001124341334 	5.075630942e-08 	0.0001035252526 	-1.780869082e-08 	1.973479049e-07
0.04867028451 	-0.0002117521774 	-0.001153507821 	4.621837825e-08 	0.0001051210834 	-1.604631479e-08 	2.003900018e-07
0.04990853466 	-0.0002151718813 	-0.001183250651 	4.138858635e-08 	0.0001067617262 	-1.422310366e-08 	2.035175229e-07
0.05117005281 	-0.000218692431 	-0.001213581482 	3.625716526e-08 	0.0001084471535 	-1.233631275e-08 	2.067304159e-07
0.05245527612 	-0.0002223147501 	-0.001244511981 	3.081392506e-08 	0.0001101774043 	-1.038320308e-08 	2.100287549e-07
0.05376464996 	-0.0002260401919 	-0.001276053703 	2.504823422e-08 	0.0001119526992 	-8.361042719e-09 	2.134129604e-07
0.05509862807 	-0.0002298710115 	-0.001308217888 	1.894899478e-08 	0.0001137736781 	-6.267102982e-09 	2.168842522e-07
0.05645767272 	-0.0002338112423 	-0.001341015186 	1.250460616e-08 	0.0001156418244 	-4.098642181e-09 	2.204454582e-07
0.05784225485 	-0.0002378681143 	-0.001374456125 	5.702911386e-09 	0.0001175599489 	-1.852866204e-09 	2.241019367e-07
0.05896828177 	-0.0002412105452 	-0.001401678217 	-3.577349713e-09 	0.0001191356799 	-8.144229768e-09 	2.27105718e-07
0.05925285427 	-0.0002420561646 	-0.001408558339 	1.462358503e-09 	0.0001195343349 	-4.871224887e-10 	2.278656652e-07
0.06069116533 	-0.0002464070907 	-0.001443371505 	8.9937136e-09 	0.0001215825081 	-2.970710301e-09 	2.317700525e-07
0.06216301825 	-0.0002509553015 	-0.001478978006 	1.696509236e-08 	0.0001237197406 	-5.558093886e-09 	2.358442117e-07
0.06366252918 	-0.0002563279151 	-0.00152024479 	2.541137938e-08 	0.000126225175 	-8.252537773e-09 	2.406202661e-07
0.06596449751 	-0.0002629752038 	-0.00157172717 	3.873774363e-08 	0.000129307448 	-1.244136634e-08 	2.464959351e-07
0.06829214032 	-0.00027008003 	-0.001628278013 	5.290709227e-08 	0.0001325857602 	-1.678176347e-08 	2.527453093e-07
0.07064574395 	-0.0002770751553 	-0.001685489543 	6.786430349e-08 	0.0001357825611 	-2.125431681e-08 	2.588393002e-07
0.07302559793 	-0.0002840055926 	-0.001743386647 	8.362361153e-08 	0.0001389177772 	-2.585309654e-08 	2.648158936e-07
0.07543199503 	-0.0002908934641 	-0.001801943064 	1.001983986e-07 	0.0001420045061 	-3.057185217e-08 	2.707000568e-07
0.07786523129 	-0.0002977425683 	-0.001861142285 	1.176018989e-07 	0.0001450424112 	-3.540370204e-08 	2.764911481e-07
0.08032560603 	-0.0003045551241 	-0.001921023174 	1.358521573e-07 	0.0001480303418 	-4.034128236e-08 	2.821869744e-07
0.08282424014 	-0.0003113258346 	-0.001981652532 	1.550387695e-07 	0.0001509625778 	-4.539703157e-08 	2.877766312e-07
0.08535191995 	-0.0003180314271 	-0.002042952173 	1.75102267e-07 	0.0001538262497 	-5.053813921e-08 	2.932355858e-07
0.08790779437 	-0.0003246497909 	-0.002104819197 	1.960338823e-07 	0.0001566093635 	-5.574982309e-08 	2.985409741e-07
0.09049217788 	-0.0003311648493 	-0.002167230618 	2.156621266e-07 	0.0001593013843 	-6.040832309e-08 	3.03672714e-07
0.09310538849 	-0.0003375609272 	-0.00223016194 	2.032625051e-07 	0.0001618926302 	-5.605381207e-08 	3.086123489e-07
0.09574774776 	-0.0003438216319 	-0.002293586615 	1.900162254e-07 	0.000164372936 	-5.156626717e-08 	3.133405011e-07
0.09841958081 	-0.0003499310666 	-0.002357486441 	1.759115075e-07 	0.0001667322196 	-4.695550969e-08 	3.178379513e-07
0.1011232676 	-0.0003558771545 	-0.002421895555 	1.609252888e-07 	0.0001689616368 	-4.222769137e-08 	3.220878402e-07
0.1038669738 	-0.0003616417106 	-0.002486834468 	1.449881673e-07 	0.0001710488611 	-3.737918301e-08 	3.260666699e-07
0.1066412871 	-0.0003671960517 	-0.002552184747 	1.281791255e-07 	0.0001729787249 	-3.244688949e-08 	3.297455266e-07
0.109446549 	-0.0003725156504 	-0.002617838639 	1.104888956e-07 	0.0001747377978 	-2.7445269e-08 	3.330988084e-07
0.1122831048 	-0.0003775799716 	-0.002683754647 	9.191822287e-08 	0.0001763131985 	-2.239019525e-08 	3.3610196e-07
0.1151513035 	-0.0003823680804 	-0.002749881109 	7.247059802e-08 	0.0001776925204 	-1.729918538e-08 	3.387313309e-07
0.1180514982 	-0.0003868585142 	-0.002816168126 	5.215359782e-08 	0.0001788629254 	-1.219102386e-08 	3.409624482e-07
0.1209850947 	-0.0003910320286 	-0.002882615347 	3.097110505e-08 	0.000179811819 	-7.083628376e-09 	3.427713031e-07
0.1239620669 	-0.0003948642202 	-0.002949221906 	8.863781212e-09 	0.0001805232386 	-1.98190299e-09 	3.441274667e-07
0.1251390251 	-0.000396216649 	-0.002975267028 	9.436063633e-08 	0.0001807023479 	-6.901455057e-08 	3.444688987e-07
0.1269722515 	-0.000398328718 	-0.003015842794 	1.41536132e-08 	0.0001809834964 	-3.181500232e-09 	3.450048458e-07
0.1300160189 	-0.0004013951694 	-0.003082332532 	3.803324051e-08 	0.000181176998 	-8.340428591e-09 	3.453737137e-07
0.133093744 	-0.0004040335518 	-0.003148611754 	6.266701827e-08 	0.0001810862859 	-1.33934567e-08 	3.452007912e-07
0.1362058055 	-0.0004062170288 	-0.003214590012 	8.800324701e-08 	0.0001806963381 	-1.831140119e-08 	3.444574424e-07
0.1393525864 	-0.0004079187018 	-0.003280194447 	1.13980292e-07 	0.0001799917956 	-2.306339308e-08 	3.431143885e-07
0.1425407528 	-0.0004091086978 	-0.003345382771 	1.405791176e-07 	0.000178954166 	-2.762662412e-08 	3.411363781e-07
0.1457695841 	-0.0004097537401 	-0.003410030901 	1.676809547e-07 	0.0001775655175 	-3.195959777e-08 	3.384892281e-07
0.1490344407 	-0.0004098217742 	-0.00347394089 	1.951276403e-07 	0.0001758109232 	-3.601714834e-08 	3.351444838e-07
0.1523357245 	-0.0004092818584 	-0.003536953256 	2.227933642e-07 	0.0001736742164 	-3.976195915e-08 	3.310713268e-07
0.155673842 	-0.0004081032275 	-0.0035989234 	2.505336825e-07 	0.0001711391826 	-4.315547969e-08 	3.262388478e-07
0.1590492042 	-0.0004062544685 	-0.003659708986 	2.781823109e-07 	0.0001681895807 	-4.61575677e-08 	3.206160866e-07
0.1624675126 	-0.0004037005765 	-0.003719189191 	3.05590807e-07 	0.0001648056602 	-4.873150776e-08 	3.141653937e-07
0.1659296299 	-0.000400407159 	-0.003777174038 	3.106126241e-07 	0.0001609703822 	-4.748215127e-08 	3.068542879e-07
0.1694303785 	-0.0003963450173 	-0.003833396439 	2.839601506e-07 	0.000156672531 	-4.14921742e-08 	2.98661389e-07
0.1729701892 	-0.0003914857017 	-0.003887612479 	2.567155645e-07 	0.0001518997184 	-3.573838922e-08 	2.895630816e-07
0.176549498 	-0.0003858011855 	-0.003939584207 	2.290143373e-07 	0.0001466398048 	-3.026047686e-08 	2.795362244e-07
0.1801687455 	-0.0003792620362 	-0.003989073837 	2.01016988e-07 	0.0001408800936 	-2.509861899e-08 	2.68556614e-07
0.1838369307 	-0.0003718372708 	-0.004035837585 	1.728476024e-07 	0.0001346062133 	-2.028636127e-08 	2.565968544e-07
0.1875479555 	-0.0003635096579 	-0.004079533634 	1.448146261e-07 	0.0001278163413 	-1.587897395e-08 	2.436534712e-07
0.1913003917 	-0.0003542722327 	-0.004119786344 	1.171966138e-07 	0.0001205162557 	-1.192107663e-08 	2.297374791e-07
0.1950947013 	-0.0003441219952 	-0.004156240078 	9.029545945e-08 	0.0001127128971 	-8.450029555e-09 	2.148621087e-07
0.1989313516 	-0.0003330639793 	-0.004188522089 	6.445251512e-08 	0.0001044202182 	-5.496362278e-09 	1.990539579e-07
0.2028158131 	-0.0003211124959 	-0.004216252055 	4.001963351e-08 	9.565819394e-05 	-3.076534245e-09 	1.823511045e-07
0.206748532 	-0.0003083090269 	-0.004239003053 	1.744462553e-08 	8.646720821e-05 	-1.195272733e-09 	1.648305312e-07
0.2101444497 	-0.0002967138295 	-0.004253795186 	4.046384675e-07 	7.830856741e-05 	-7.036878112e-08 	1.492778942e-07
0.2107251389 	-0.0002947304691 	-0.004256321087 	2.829392978e-09 	7.691296182e-05 	-1.820288887e-10 	1.466174821e-07
0.2147461234 	-0.0002804823115 	-0.004267787924 	2.049479458e-08 	6.707862728e-05 	-1.177797669e-09 	1.278705071e-07
0.2188119806 	-0.0002656881783 	-0.004273008653 	3.498242352e-08 	5.70639234e-05 	-1.824845813e-09 	1.087796981e-07
0.2229278897 	-0.0002505078177 	-0.004271642972 	4.604701379e-08 	4.699106852e-05 	-2.27792897e-09 	8.957803709e-08
0.2270943661 	-0.0002351465566 	-0.00426342097 	5.358279831e-08 	3.701305853e-05 	-2.730466261e-09 	7.05571768e-08
0.2313073414 	-0.0002198506198 	-0.004248190775 	5.774482051e-08 	2.730872519e-05 	-3.401245824e-09 	5.205802027e-08
0.2355673346 	-0.0002048804944 	-0.004225966378 	5.901942001e-08 	1.806176947e-05 	-4.505321294e-09 	3.443075262e-08
0.2398748701 	-0.0001904909531 	-0.004196925967 	5.821456712e-08 	9.447906611e-06 	-6.214360431e-09 	1.801033591e-08
0.2442372224 	-0.0001769148948 	-0.004161434374 	5.642988421e-08 	1.620343262e-06 	-8.61257473e-09 	3.088824609e-09
0.248650206 	-0.000164353007 	-0.004120067782 	5.492613687e-08 	-5.29949151e-06 	-1.164997219e-08 	-1.010230374e-08
0.2531124416 	-0.0001529366311 	-0.004073567595 	5.495988859e-08 	-1.124832358e-05 	-1.512147041e-08 	-2.144243106e-08
0.2576244788 	-0.0001427003238 	-0.004022755324 	5.750958153e-08 	-1.623844328e-05 	-1.867321328e-08 	-3.095498614e-08
0.2621892502 	-0.0001335776382 	-0.003968435221 	6.30212826e-08 	-2.035727051e-05 	-2.184527303e-08 	-3.880661561e-08
0.2668106401 	-0.0001254134006 	-0.003911327092 	6.758131581e-08 	-2.37565507e-05 	-2.291455538e-08 	-4.528658843e-08
0.2714836098 	-0.0001179868016 	-0.003852002176 	6.612596359e-08 	-2.663235e-05 	-2.05258694e-08 	-5.076866118e-08
0.2762087349 	-0.0001110349286 	-0.003790773836 	6.355185348e-08 	-2.920241918e-05 	-1.723172772e-08 	-5.566792736e-08
0.2809868679 	-0.0001042900851 	-0.00372764137 	5.875420016e-08 	-3.167402522e-05 	-1.344343041e-08 	-6.03794954e-08
0.2858254639 	-9.752158204e-05 	-0.00366233018 	5.129717573e-08 	-3.42130187e-05 	-9.612874621e-09 	-6.521952266e-08
0.2907180655 	-9.05726001e-05 	-0.003594408049 	4.145364027e-08 	-3.691926359e-05 	-6.152178927e-09 	-7.037837757e-08
0.2956652752 	-8.336961415e-05 	-0.003523309551 	3.003366315e-08 	-3.982054286e-05 	-3.353932972e-09 	-7.590902224e-08
0.3006677021 	-7.591966497e-05 	-0.003448391944 	1.819153839e-08 	-4.287714887e-05 	-1.360104157e-09 	-8.173576284e-08
0.3057325688 	-6.830198934e-05 	-0.003369051649 	7.197658448e-09 	-4.599321144e-05 	-1.650809986e-10 	-8.767584415e-08
0.3108541272 	-6.065273317e-05 	-0.003284872415 	-1.761797213e-09 	-4.903566254e-05 	3.582514916e-10 	-9.347560157e-08
0.3160328503 	-5.313569832e-05 	-0.003195612945 	-7.771858613e-09 	-5.185235334e-05 	4.201688552e-10 	-9.884499708e-08
0.3212699707 	-4.589300894e-05 	-0.003101185325 	-1.034759026e-08 	-5.433430438e-05 	2.024264923e-10 	-1.035762856e-07
0.3265710904 	-3.905362574e-05 	-0.003001753085 	-9.487583819e-09 	-5.638277775e-05 	-2.986913373e-11 	-1.074812452e-07
0.3319313799 	-3.279135294e-05 	-0.002897797688 	-5.359912026e-09 	-5.7827002e-05 	-7.472447461e-11 	-1.10234338e-07
0.3361906379 	-2.840788615e-05 	-0.002812968322 	1.427145536e-06 	-5.84437072e-05 	1.446977106e-09 	-1.114099495e-07
0.3373514992 	-2.721369196e-05 	-0.002789840446 	-1.796188959e-09 	-5.861124125e-05 	-4.433893956e-11 	-1.11729316e-07
0.3428342305 	-2.23107296e-05 	-0.002678391006 	-1.128133447e-08 	-5.881194587e-05 	-3.754435953e-10 	-1.121119148e-07
0.3483815784 	-1.807438125e-05 	-0.002564184269 	-2.1830628e-08 	-5.843157728e-05 	-9.151835355e-10 	-1.113868265e-07
0.3539908448 	-1.447951141e-05 	-0.002448132758 	-3.253885018e-08 	-5.750198823e-05 	-1.493113529e-09 	-1.096147714e-07
0.3596627202 	-1.145726173e-05 	-0.002331086749 	-4.266369137e-08 	-5.613468364e-05 	-2.102950237e-09 	-1.070083088e-07
0.3654019652 	-8.951307207e-06 	-0.002213805699 	-5.154692636e-08 	-5.440281003e-05 	-2.762552887e-09 	-1.037068764e-07
0.3712061637 	-6.90280386e-06 	-0.002097033653 	-5.864815589e-08 	-5.236825874e-05 	-3.345741467e-09 	-9.982845616e-08
0.3770751474 	-5.237868527e-06 	-0.001981421861 	-6.361682439e-08 	-5.011210181e-05 	-3.778544265e-09 	-9.552759399e-08
0.3830113807 	-3.882130803e-06 	-0.001867484052 	-6.631066732e-08 	-4.771119124e-05 	-4.039609023e-09 	-9.095079114e-08
0.3890165364 	-2.768027458e-06 	-0.001755627815 	-6.67443958e-08 	-4.523169862e-05 	-4.111248309e-09 	-8.622418908e-08
0.3950887203 	-1.836953349e-06 	-0.001646163531 	-6.509803803e-08 	-4.272881245e-05 	-3.995203681e-09 	-8.145299239e-08
0.4012290711 	-1.040151345e-06 	-0.001539253097 	-6.167006963e-08 	-4.024521635e-05 	-3.708805284e-09 	-7.671856794e-08
0.4074414565 	-3.40166559e-07 	-0.001434937195 	-5.681806981e-08 	-3.78105603e-05 	-3.279760113e-09 	-7.207743683e-08
0.4137231831 	2.889798933e-07 	-0.001333202433 	-5.09333111e-08 	-3.544346342e-05 	-2.742263829e-09 	-6.756509227e-08
0.420075024 	8.633489033e-07 	-0.001233941992 	-4.441459248e-08 	-3.315210898e-05 	-2.132476636e-09 	-6.319713386e-08
0.4265009097 	1.390423177e-06 	-0.001136981885 	-3.762632895e-08 	-3.093633206e-05 	-1.484678767e-09 	-5.897324722e-08
0.4329987794 	1.870264378e-06 	-0.001042156923 	-3.08871723e-08 	-2.879051373e-05 	-8.298454555e-10 	-5.488272107e-08
0.4395691754 	2.297699411e-06 	-0.0009492920772 	-2.446873081e-08 	-2.670507623e-05 	-1.938126393e-10 	-5.090729759e-08
0.4462154458 	2.664291127e-06 	-0.0008582276953 	-1.74328347e-08 	-2.466906505e-05 	3.784760374e-10 	-4.70260944e-08
0.452936325 	2.959623856e-06 	-0.0007688892556 	-1.143483924e-08 	-2.267264096e-05 	8.093911077e-10 	-4.32203552e-08
0.4597322186 	3.173268215e-06 	-0.0006812909383 	-6.97903821e-09 	-2.070877631e-05 	1.11327817e-09 	-3.947668335e-08
0.4666062465 	3.296775109e-06 	-0.0005955754503 	-3.794894508e-09 	-1.877604706e-05 	1.31158633e-09 	-3.579236422e-08
0.4735572746 	3.325361291e-06 	-0.0005121020703 	-1.618109786e-09 	-1.688162474e-05 	1.425724887e-09 	-3.218106875e-08
0.4805859366 	3.260328392e-06 	-0.0004314914813 	-1.942200444e-10 	-1.504377924e-05 	1.476812923e-09 	-2.867762443e-08
0.4876951865 	3.112148e-06 	-0.0003547141436 	7.163538755e-10 	-1.329567094e-05 	1.485642293e-09 	-2.534524415e-08
0.4948837842 	2.90399074e-06 	-0.0002833163694 	1.31559025e-09 	-1.169131875e-05 	1.471633312e-09 	-2.228690298e-08
0.5020728327 	2.672453229e-06 	-0.0002193853301 	1.728822593e-09 	-1.030320328e-05 	1.451294059e-09 	-1.964076907e-08
0.5091839357 	2.458636894e-06 	-0.0001645442635 	2.004330485e-09 	-9.19242967e-06 	1.435632334e-09 	-1.752332586e-08
0.5162165766 	2.295086153e-06 	-0.0001192283336 	2.148152434e-09 	-8.382929965e-06 	1.428537451e-09 	-1.598019443e-08
0.5231722107 	2.198651621e-06 	-8.287798054e-05 	2.163880188e-09 	-7.859843478e-06 	1.429013177e-09 	-1.49830462e-08
0.5300519365 	2.170073092e-06 	-5.427798336e-05 	2.075902254e-09 	-7.577447261e-06 	1.433642621e-09 	-1.444472052e-08
0.5368557511 	2.199117467e-06 	-3.195018167e-05 	1.923823374e-09 	-7.474405738e-06 	1.437833796e-09 	-1.424829474e-08
0.5435850468 	2.271520811e-06 	-1.447164984e-05 	1.746621023e-09 	-7.490076855e-06 	1.437335365e-09 	-1.427816824e-08
0.5502406551 	2.373744907e-06 	-6.336366735e-07 	1.572925377e-09 	-7.574086006e-06 	1.429300254e-09 	-1.443831304e-08
0.5568228235 	2.494629507e-06 	1.052303936e-05 	1.418283844e-09 	-7.688361123e-06 	1.411630357e-09 	-1.465615317e-08
0.5633327798 	2.625786335e-06 	1.973400742e-05 	1.28877753e-09 	-7.806369754e-06 	1.3833151e-09 	-1.488111042e-08
0.5697713528 	2.761397786e-06 	2.755613569e-05 	1.185469726e-09 	-7.911325817e-06 	1.344804971e-09 	-1.508118585e-08
0.5761388792 	2.897629151e-06 	3.44142235e-05 	1.106585195e-09 	-7.99382466e-06 	1.29698753e-09 	-1.523845157e-08
0.5824363843 	3.032545631e-06 	4.064112968e-05 	1.04960156e-09 	-8.050616886e-06 	1.241352676e-09 	-1.534671334e-08
0.5886648223 	3.166047924e-06 	4.650759601e-05 	1.012539579e-09 	-8.083493882e-06 	1.18025018e-09 	-1.540938603e-08
0.5948245315 	3.299424767e-06 	5.224477402e-05 	9.936748342e-10 	-8.097499746e-06 	1.115803058e-09 	-1.54360851e-08
0.6009163367 	3.43526886e-06 	5.806194951e-05 	9.918778686e-10 	-8.099999925e-06 	1.049886974e-09 	-1.544085114e-08
0.6069413562 	3.577433408e-06 	6.41595563e-05 	1.007266603e-09 	-8.100005931e-06 	9.844485606e-10 	-1.544086259e-08
0.6128998905 	3.730775539e-06 	7.073983068e-05 	1.04100479e-09 	-8.107252813e-06 	9.208875147e-10 	-1.545467716e-08
0.6187926729 	3.901148278e-06 	7.801740883e-05 	1.095352357e-09 	-8.131872538e-06 	8.59934093e-10 	-1.55016092e-08
0.6246207232 	4.095711826e-06 	8.622910109e-05 	1.174205375e-09 	-8.184790196e-06 	8.020976175e-10 	-1.560248496e-08
0.630384542 	4.32322191e-06 	9.56431156e-05 	1.283280949e-09 	-8.278099114e-06 	7.477666829e-10 	-1.578035769e-08
0.6360847567 	4.59418435e-06 	0.0001065687821 	1.429141242e-09 	-8.425128127e-06 	6.967425478e-10 	-1.606063585e-08
0.6417221536 	4.9214e-06 	0.0001193649195 	1.619014566e-09 	-8.641296145e-06 	6.487094991e-10 	-1.647271218e-08
0.6472975325 	5.320285423e-06 	0.000134443784 	1.860728861e-09 	-8.944572593e-06 	6.035923122e-10 	-1.705084138e-08
0.6528113863 	5.808697567e-06 	0.0001522687243 	2.160514974e-09 	-9.35511049e-06 	5.610990239e-10 	-1.783344071e-08
0.6582643935 	6.406566736e-06 	0.0001733431813 	2.521435287e-09 	-9.894762384e-06 	5.208751026e-10 	-1.886216721e-08
0.663657363 	7.135138942e-06 	0.000198187267 	2.942536281e-09 	-1.058622402e-05 	4.827421019e-10 	-2.018028527e-08
0.6689908816 	8.01558864e-06 	0.0002273017293 	3.418968241e-09 	-1.145136292e-05 	4.467787756e-10 	-2.182948047e-08
0.6742655434 	9.067190982e-06 	0.0002611253463 	3.939586113e-09 	-1.250895474e-05 	4.128490452e-10 	-2.384554442e-08
0.6794819976 	1.030580763e-05 	0.0002999941057 	4.488791459e-09 	-1.377306374e-05 	3.807918441e-10 	-2.625528752e-08
0.6846410163 	1.174285994e-05 	0.0003441112635 	5.050448071e-09 	-1.525208506e-05 	3.505167645e-10 	-2.907471322e-08
0.6897431149 	1.33848624e-05 	0.0003935365817 	5.610382763e-09 	-1.694835966e-05 	3.21901873e-10 	-3.230828406e-08
0.6947889098 	1.523371336e-05 	0.0004481991706 	6.154440996e-09 	-1.885868832e-05 	2.945950147e-10 	-3.594990145e-08
0.6997790223 	1.728754821e-05 	0.0005079263001 	6.670172207e-09 	-2.097566962e-05 	2.684737469e-10 	-3.998545619e-08
0.7047141634 	1.95415514e-05 	0.000572476068 	7.149018229e-09 	-2.328910478e-05 	2.433919397e-10 	-4.439550658e-08
0.7095948444 	2.198741812e-05 	0.0006415636305 	7.583311089e-09 	-2.578518636e-05 	2.207429676e-10 	-4.915373182e-08
0.7144216649 	2.461572181e-05 	0.0007148791647 	7.960100899e-09 	-2.845217839e-05 	2.005412942e-10 	-5.423775989e-08
0.719195219 	2.739793848e-05 	0.0007920890937 	8.268070068e-09 	-3.124584014e-05 	1.897349763e-10 	-5.956325564e-08
0.7239161526 	3.032165643e-05 	0.0008728334355 	8.503659195e-09 	-3.416105664e-05 	1.704324293e-10 	-6.512046853e-08
0.7285849967 	3.339853481e-05 	0.000956880373 	8.715244292e-09 	-3.724220598e-05 	1.395248891e-10 	-7.099399553e-08
0.7332023176 	3.658902644e-05 	0.001044250343 	8.938450413e-09 	-4.039060489e-05 	1.34446596e-10 	-7.699571892e-08
0.7377686838 	3.989772859e-05 	0.001134829768 	9.088413217e-09 	-4.358719899e-05 	1.292421389e-10 	-8.308931572e-08
0.7422846824 	4.334591655e-05 	0.001228142148 	9.092095912e-09 	-4.692663173e-05 	1.138719931e-10 	-8.945520266e-08
0.7467508634 	4.684868545e-05 	0.00132366034 	8.981952891e-09 	-5.030779354e-05 	1.184668254e-10 	-9.590063682e-08
0.7511677575 	5.033684191e-05 	0.001420918528 	8.784926055e-09 	-5.363058145e-05 	1.299455044e-10 	-1.022347941e-07
0.7555359085 	5.378052694e-05 	0.001519439835 	8.502693227e-09 	-5.688072653e-05 	1.420404104e-10 	-1.08430474e-07
0.7598558555 	5.713020105e-05 	0.001618721046 	8.138461185e-09 	-6.000978537e-05 	1.591882378e-10 	-1.143953298e-07
0.764128156 	6.033324868e-05 	0.001718223926 	7.705797725e-09 	-6.29659302e-05 	1.787062806e-10 	-1.200305634e-07
0.768353309 	6.333665019e-05 	0.001817382634 	7.219646601e-09 	-6.569824846e-05 	1.998700091e-10 	-1.252391215e-07
0.7725318348 	6.608652206e-05 	0.001915609828 	6.690578e-09 	-6.815508558e-05 	2.215068269e-10 	-1.299225358e-07
0.776664248 	6.852919437e-05 	0.002012301422 	6.129210881e-09 	-7.028545553e-05 	2.426249158e-10 	-1.339836131e-07
0.7807510619 	7.061200347e-05 	0.002106840709 	5.545540316e-09 	-7.203984028e-05 	2.630877891e-10 	-1.37327958e-07
0.7847927877 	7.228330846e-05 	0.002198602775 	4.952458939e-09 	-7.336985231e-05 	2.828993928e-10 	-1.398633306e-07
0.7887899104 	7.348587164e-05 	0.002286956922 	4.350553886e-09 	-7.421654974e-05 	3.148138402e-10 	-1.414773712e-07
0.7927429222 	7.416075211e-05 	0.002371471289 	3.914160186e-09 	-7.452681884e-05 	3.34740172e-10 	-1.420688304e-07
0.7966523098 	7.456279797e-05 	0.002455365491 	3.284135138e-09 	-7.458792962e-05 	2.989858143e-10 	-1.421853245e-07
0.8005185571 	7.51201422e-05 	0.002532258238 	2.678713532e-09 	-7.480290452e-05 	2.186115699e-10 	-1.425951264e-07
0.8043421454 	7.6340501e-05 	0.0026019335 	2.514994148e-09 	-7.564093775e-05 	1.593795303e-10 	-1.441926507e-07
0.8081235378 	7.826000887e-05 	0.002674061385 	2.448310527e-09 	-7.718538292e-05 	1.469407427e-10 	-1.471367924e-07