0.4709558481 	2.868937585e-08 	-0.006718541656 	2.525205223e-08 	-2.716763566e-08 	-7.377678474e-12 	-5.178906547e-11
0.4709558481 	2.868937585e-08 	-0.006718541656 	2.525205223e-08 	-2.716763566e-08 	-7.377678474e-12 	-5.178906547e-11
0.4711314108 	6.064529022e-08 	-0.00671589407 	2.526439602e-08 	-6.084108971e-08 	-1.613019162e-11 	-1.159800266e-10
0.4713069734 	1.220239749e-07 	-0.006708847209 	2.527290385e-08 	-1.230916758e-07 	-3.171774057e-11 	-2.346469454e-10
0.471482536 	1.861786635e-07 	-0.006701366186 	2.527871537e-08 	-1.908118967e-07 	-4.735477982e-11 	-3.637405082e-10
0.4716580986 	2.522347251e-07 	-0.00669300219 	2.527753364e-08 	-2.622183661e-07 	-6.24419483e-11 	-4.998610853e-10
0.4718336613 	3.186986134e-07 	-0.006683104014 	2.526296168e-08 	-3.342395025e-07 	-7.725759675e-11 	-6.371533886e-10
0.4720092239 	3.812062532e-07 	-0.006670841306 	2.522759605e-08 	-3.979856838e-07 	-9.204792559e-11 	-7.586713274e-10
0.4721847865 	4.349160813e-07 	-0.006655304843 	2.516526592e-08 	-4.43489135e-07 	-1.070189818e-10 	-8.454135525e-10
0.4723603491 	4.794393979e-07 	-0.006635670587 	2.507361685e-08 	-4.69518372e-07 	-1.221606092e-10 	-8.950325125e-10
0.4725359118 	5.22415742e-07 	-0.006611373922 	2.495565019e-08 	-4.907108874e-07 	-1.372299652e-10 	-9.354313371e-10
0.4727114744 	5.764653841e-07 	-0.006582231777 	2.481940238e-08 	-5.31520126e-07 	-1.520642626e-10 	-1.013225088e-09
0.472887037 	6.503447831e-07 	-0.006548483256 	2.467629761e-08 	-6.086264672e-07 	-1.669453193e-10 	-1.160211205e-09
0.4730625996 	7.425325415e-07 	-0.006510758764 	2.453927351e-08 	-7.182181639e-07 	-1.825554991e-10 	-1.369123438e-09
0.4732381623 	8.436183394e-07 	-0.0064699957 	2.442106907e-08 	-8.408320104e-07 	-1.995258601e-10 	-1.602859509e-09
0.4734137249 	9.44308247e-07 	-0.006427310121 	2.433249079e-08 	-9.573693235e-07 	-2.180592535e-10 	-1.825012017e-09
0.4735892875 	1.04103732e-06 	-0.0063838426 	2.428087992e-08 	-1.060298656e-06 	-2.379514813e-10 	-2.021223933e-09
0.4737648501 	1.135741104e-06 	-0.006340616021 	2.426942044e-08 	-1.153177514e-06 	-2.588534194e-10 	-2.198276851e-09
0.4739404128 	1.232484219e-06 	-0.006298442323 	2.429755129e-08 	-1.243895938e-06 	-2.804703476e-10 	-2.37121138e-09
0.4741159754 	1.334686243e-06 	-0.006257890885 	2.436210175e-08 	-1.339116964e-06 	-3.025985511e-10 	-2.552729121e-09
0.474291538 	1.444215813e-06 	-0.006219305954 	2.445854798e-08 	-1.442452854e-06 	-3.250778869e-10 	-2.749716049e-09
0.4744671006 	1.561688501e-06 	-0.006182850157 	2.458199294e-08 	-1.555049751e-06 	-3.477466039e-10 	-2.964357029e-09
0.4746426632 	1.687050524e-06 	-0.006148554356 	2.472776202e-08 	-1.676746961e-06 	-3.704242955e-10 	-3.196345736e-09
0.4748182259 	1.820006306e-06 	-0.006116362244 	2.489167963e-08 	-1.806927446e-06 	-3.929134272e-10 	-3.444505921e-09
0.4749937885 	1.960237997e-06 	-0.006086165238 	2.5070141e-08 	-1.94495506e-06 	-4.150064115e-10 	-3.707624917e-09
0.4751693511 	2.107410426e-06 	-0.006057827455 	2.526007645e-08 	-2.090184908e-06 	-4.364921577e-10 	-3.984473371e-09
0.4753449137 	2.26133409e-06 	-0.006031202455 	2.545887219e-08 	-2.24229039e-06 	-4.571572162e-10 	-4.274428696e-09
0.4755204764 	2.421153724e-06 	-0.006006143746 	2.566428301e-08 	-2.399645402e-06 	-4.767806837e-10 	-4.574391083e-09
0.475696039 	2.593372479e-06 	-0.005982510906 	2.587435424e-08 	-2.575347271e-06 	-4.95108327e-10 	-4.909327678e-09
0.4758716016 	2.75821148e-06 	-0.005960184409 	2.608734017e-08 	-2.730048621e-06 	-5.121438968e-10 	-5.20423145e-09
0.4760471642 	2.913086601e-06 	-0.005938568399 	2.630256095e-08 	-2.858829969e-06 	-5.276919215e-10 	-5.449724492e-09
0.4762227269 	3.151062693e-06 	-0.005917687319 	2.656005362e-08 	-3.119865717e-06 	-5.42612236e-10 	-5.947331178e-09
0.4764955107 	3.456935686e-06 	-0.0058924722 	2.687665398e-08 	-3.451857595e-06 	-5.574573047e-10 	-6.58019997e-09
0.4767734216 	3.750926967e-06 	-0.005863618665 	2.721031585e-08 	-3.715444509e-06 	-5.694038636e-10 	-7.082669888e-09
0.4770565557 	4.083076356e-06 	-0.005836624738 	2.753980152e-08 	-4.032891648e-06 	-5.755960627e-10 	-7.687812364e-09
0.4773450114 	4.457109973e-06 	-0.005810597123 	2.78602043e-08 	-4.410520839e-06 	-5.753665431e-10 	-8.407678559e-09
0.4776388886 	4.844759585e-06 	-0.005785402143 	2.816630745e-08 	-4.790943268e-06 	-5.683837816e-10 	-9.132869442e-09
0.4779382892 	5.258760508e-06 	-0.005760902101 	2.845291642e-08 	-5.198615339e-06 	-5.540360119e-10 	-9.910005716e-09
0.4782433171 	5.698429614e-06 	-0.005736974187 	2.871484292e-08 	-5.631272103e-06 	-5.318237703e-10 	-1.073476976e-08
0.4785540779 	6.164651442e-06 	-0.005713508356 	2.894692981e-08 	-6.08985519e-06 	-5.013141624e-10 	-1.160895658e-08
0.4788706795 	6.65800933e-06 	-0.005690405601 	2.914407794e-08 	-6.574802386e-06 	-4.621483921e-10 	-1.253340072e-08
0.4791932316 	7.17909733e-06 	-0.005667576529 	2.930127645e-08 	-7.086687895e-06 	-4.140506319e-10 	-1.350919677e-08
0.4795218461 	7.72835423e-06 	-0.005644940107 	2.941363583e-08 	-7.625908058e-06 	-3.568404627e-10 	-1.453710027e-08
0.4798566368 	8.306068583e-06 	-0.005622422576 	2.947642328e-08 	-8.192706984e-06 	-2.904440804e-10 	-1.561757656e-08
0.48019772 	8.912364735e-06 	-0.005599956515 	2.94851005e-08 	-8.787162753e-06 	-2.149047003e-10 	-1.675077447e-08
0.4805452138 	9.547191843e-06 	-0.005577480031 	2.943536369e-08 	-9.409177965e-06 	-1.303919268e-10 	-1.793650835e-08
0.4808992388 	1.021031302e-05 	-0.005554936073 	2.932318598e-08 	-1.005846887e-05 	-3.72098089e-11 	-1.917423727e-08
0.4812599177 	1.090129645e-05 	-0.005532271842 	2.914486196e-08 	-1.073455678e-05 	6.4196724e-11 	-2.046304874e-08
0.4816273755 	1.161950824e-05 	-0.005509438294 	2.889705421e-08 	-1.143676127e-05 	1.732373268e-10 	-2.180164567e-08
0.4820017397 	1.236410684e-05 	-0.005486389714 	2.857684192e-08 	-1.216419491e-05 	2.891738579e-10 	-2.318833637e-08
0.48238314 	1.313403909e-05 	-0.005463083359 	2.81817708e-08 	-1.291575962e-05 	4.111203643e-10 	-2.462102758e-08
0.4827717088 	1.392803771e-05 	-0.005439479161 	2.77099044e-08 	-1.369014445e-05 	5.380456634e-10 	-2.609722029e-08
0.4831675807 	1.474462032e-05 	-0.005415539475 	2.715987636e-08 	-1.448582491e-05 	6.687786881e-10 	-2.761400841e-08
0.4835708931 	1.558208978e-05 	-0.005391228874 	2.653094246e-08 	-1.53010636e-05 	8.020166823e-10 	-2.916807993e-08
0.4839817856 	1.643853598e-05 	-0.005366513983 	2.582303215e-08 	-1.613391214e-05 	9.363363773e-10 	-3.075572072e-08
0.4844004009 	1.7311839e-05 	-0.005341363347 	2.503679911e-08 	-1.698221464e-05 	1.070208202e-09 	-3.237282107e-08
0.4848268841 	1.819967371e-05 	-0.00531574733 	2.417366924e-08 	-1.78436125e-05 	1.202013481e-09 	-3.401488481e-08
0.485261383 	1.909951597e-05 	-0.005289638044 	2.323588522e-08 	-1.871555071e-05 	1.33006456e-09 	-3.567704136e-08
0.4857040484 	2.000865037e-05 	-0.005263009302 	2.222654639e-08 	-1.959528579e-05 	1.452627728e-09 	-3.735406094e-08
0.4861550336 	2.092417996e-05 	-0.005235836593 	2.114964237e-08 	-2.047989562e-05 	1.567948717e-09 	-3.904037314e-08
0.4866144951 	2.184303789e-05 	-0.005208097085 	2.001007898e-08 	-2.136629116e-05 	1.674280494e-09 	-4.073008941e-08
0.4870825921 	2.27620014e-05 	-0.005179769636 	1.881369466e-08 	-2.225123055e-05 	1.769912974e-09 	-4.241702983e-08
0.487559487 	2.367770835e-05 	-0.005150834829 	1.756726569e-08 	-2.313133556e-05 	1.8532042e-09 	-4.409475461e-08
0.4880453452 	2.458667648e-05 	-0.005121275023 	1.62784983e-08 	-2.400311097e-05 	1.922612458e-09 	-4.575660083e-08
0.4885403351 	2.548532574e-05 	-0.005091074407 	1.495600585e-08 	-2.486296679e-05 	1.976728726e-09 	-4.7395725e-08
0.4890446283 	2.637000384e-05 	-0.005060219073 	1.360926933e-08 	-2.570724375e-05 	2.014308759e-09 	-4.900515155e-08
0.4895583997 	2.723701517e-05 	-0.005028697085 	1.22485796e-08 	-2.65322422e-05 	2.034304115e-09 	-5.057782789e-08
0.4900818274 	2.80826533e-05 	-0.00499649856 	1.088495989e-08 	-2.733425439e-05 	2.035891332e-09 	-5.210668604e-08
0.4906150929 	2.890323688e-05 	-0.004963615736 	9.530067575e-09 	-2.810960029e-05 	2.018498478e-09 	-5.358471081e-08
0.4911583811 	2.969514909e-05 	-0.00493004304 	8.196074467e-09 	-2.885466677e-05 	1.981828314e-09 	-5.50050146e-08
0.4917118805 	3.045488018e-05 	-0.004895777149 	6.895525482e-09 	-2.956595005e-05 	1.925877317e-09 	-5.636091822e-08
0.4922757829 	3.117907312e-05 	-0.004860817028 	5.641176181e-09 	-3.024010098e-05 	1.850949885e-09 	-5.764603726e-08
0.4928502838 	3.186457157e-05 	-0.004825163949 	4.445810115e-09 	-3.087397285e-05 	1.757667126e-09 	-5.885437322e-08
0.4934355824 	3.250846994e-05 	-0.004788821492 	3.3220379e-09 	-3.146467108e-05 	1.646969748e-09 	-5.998040824e-08
0.4940318817 	3.310816461e-05 	-0.004751795503 	2.282080644e-09 	-3.200960421e-05 	1.520114684e-09 	-6.101920224e-08
0.4946393885 	3.366140576e-05 	-0.004714094028 	1.337541079e-09 	-3.25065353e-05 	1.378665243e-09 	-6.196649101e-08
0.4952583133 	3.41663487e-05 	-0.004675727203 	4.991666167e-10 	-3.2953633e-05 	1.224474741e-09 	-6.281878348e-08
0.4958888709 	3.462160398e-05 	-0.004636707095 	-2.233907506e-10 	-3.334952124e-05 	1.059663706e-09 	-6.35734565e-08
0.4965312797 	3.502628515e-05 	-0.004597047507 	-8.218121086e-10 	-3.36933266e-05 	8.865909503e-10 	-6.422884507e-08
0.4971857627 	3.538005308e-05 	-0.004556763721 	-1.289340753e-09 	-3.398472227e-05 	7.078189358e-10 	-6.478432622e-08
0.4978525466 	3.568315595e-05 	-0.004515872205 	-1.620996416e-09 	-3.422396756e-05 	5.260740211e-10 	-6.524039424e-08
0.4985318627 	3.593646371e-05 	-0.004474390254 	-1.813768089e-09 	-3.441194189e-05 	3.442023033e-10 	-6.559872554e-08
0.4992239466 	3.614149638e-05 	-0.004432335601 	-1.866779136e-09 	-3.455017299e-05 	1.651219263e-10 	-6.586223245e-08
0.4999290382 	3.630044464e-05 	-0.004389725969 	-1.781418966e-09 	-3.464085728e-05 	-8.227270608e-12 	-6.60351019e-08
0.5006473819 	3.641618087e-05 	-0.004346578593 	-1.561436372e-09 	-3.468686975e-05 	-1.72935404e-10 	-6.612281447e-08
0.501379227 	3.649223091e-05 	-0.004302909707 	-1.212990921e-09 	-3.469170551e-05 	-3.261776819e-10 	-6.613203276e-08
0.502124827 	3.6532828e-05 	-0.004258733996 	-7.446600781e-10 	-3.465959693e-05 	-4.652585053e-10 	-6.607082489e-08
0.5028844406 	3.654288634e-05 	-0.004214063982 	-1.674023327e-10 	-3.459548201e-05 	-5.876938904e-10 	-6.594860402e-08
0.5036583311 	3.653021169e-05 	-0.004168909425 	5.055201604e-10 	-3.450945262e-05 	-6.909718815e-10 	-6.578460809e-08
0.5044467669 	3.649437109e-05 	-0.004123277593 	1.258936491e-09 	-3.439456203e-05 	-7.737211936e-10 	-6.55655947e-08
0.5052500214 	3.64400673e-05 	-0.00407714527 	2.068279744e-09 	-3.425368252e-05 	-8.352281564e-10 	-6.529703919e-08
0.506068373 	3.63869414e-05 	-0.004025338884 	3.054089038e-09 	-3.411635841e-05 	-8.725287278e-10 	-6.503526127e-08
0.507324668 	3.630806113e-05 	-0.003961244175 	4.26869515e-09 	-3.393332002e-05 	-8.721308407e-10 	-6.468633923e-08
0.5085949819 	3.618972368e-05 	-0.003890445701 	5.525165163e-09 	-3.368621307e-05 	-8.185909006e-10 	-6.42152847e-08
0.5098794711 	3.607080887e-05 	-0.003819744285 	6.68473944e-09 	-3.344579524e-05 	-7.114259585e-10 	-6.375698151e-08
0.5111782938 	3.595919578e-05 	-0.003749041716 	7.681794418e-09 	-3.321921578e-05 	-5.588539513e-10 	-6.332505808e-08
0.5124916099 	3.585301936e-05 	-0.003678279548 	8.469155809e-09 	-3.299633436e-05 	-3.689766467e-10 	-6.290018414e-08
0.5138195812 	3.576079405e-05 	-0.00360739444 	9.0074852e-09 	-3.278958672e-05 	-1.49478217e-10 	-6.250606569e-08
0.5151623712 	3.568532998e-05 	-0.003536319967 	9.26583598e-09 	-3.260187967e-05 	9.147043888e-11 	-6.214824387e-08
0.5165201452 	3.562778326e-05 	-0.003464988253 	9.221416812e-09 	-3.243458118e-05 	3.45878417e-10 	-6.182932646e-08
0.5178930705 	3.558762083e-05 	-0.003393331413 	8.859253842e-09 	-3.228732585e-05 	6.060551822e-10 	-6.154861686e-08
0.5192813161 	3.556286644e-05 	-0.003321282926 	8.171748172e-09 	-3.215834931e-05 	8.647894077e-10 	-6.130275173e-08
0.520685053 	3.555023553e-05 	-0.003248778865 	7.158137449e-09 	-3.204457789e-05 	1.115490868e-09 	-6.108587178e-08
0.522104454 	3.554533837e-05 	-0.00317575897 	5.823874881e-09 	-3.194183801e-05 	1.352309263e-09 	-6.089002102e-08
0.523539694 	3.554289005e-05 	-0.003102167551 	4.17993957e-09 	-3.184506958e-05 	1.570221035e-09 	-6.07055535e-08
0.5249909497 	3.553692284e-05 	-0.003027954221 	2.242092e-09 	-3.174854158e-05 	1.765082864e-09 	-6.052154429e-08
0.5264583998 	3.552099322e-05 	-0.002953074455 	3.008583144e-11 	-3.164606105e-05 	1.933647839e-09 	-6.032618793e-08
0.527942225 	3.548837491e-05 	-0.002877489939 	-2.433157488e-09 	-3.153116551e-05 	2.073550198e-09 	-6.01071651e-08
0.5294426081 	3.543223404e-05 	-0.002801168703 	-5.12241089e-09 	-3.139729918e-05 	2.183260908e-09 	-5.985197866e-08
0.5309597337 	3.534578056e-05 	-0.00272408499 	-8.011030148e-09 	-3.123797287e-05 	2.262214106e-09 	-5.954825844e-08
0.5324937889 	3.522247054e-05 	-0.002646218886 	-1.107190136e-08 	-3.104707301e-05 	2.310104396e-09 	-5.918435024e-08
0.5340449624 	3.505541438e-05 	-0.002567555697 	-1.428005215e-08 	-3.081766101e-05 	2.325489198e-09 	-5.874702721e-08
0.5356134452 	3.483727067e-05 	-0.002488086905 	-1.758724294e-08 	-3.054195668e-05 	2.310176461e-09 	-5.822145814e-08
0.5371994306 	3.456275303e-05 	-0.002407858367 	-2.091181694e-08 	-3.021576492e-05 	2.271366293e-09 	-5.759964598e-08
0.5388031139 	3.422764449e-05 	-0.0023269292 	-2.426122361e-08 	-2.983599733e-05 	2.212011041e-09 	-5.68757034e-08
0.5404246925 	3.382688426e-05 	-0.002245293137 	-2.768660838e-08 	-2.939663591e-05 	2.131689308e-09 	-5.603815842e-08
0.5420643661 	3.335772016e-05 	-0.002162953526 	-3.113279434e-08 	-2.889477882e-05 	2.033941032e-09 	-5.508147933e-08
0.5437223366 	3.28193072e-05 	-0.002079954408 	-3.454411695e-08 	-2.833095751e-05 	1.921468543e-09 	-5.40066792e-08
0.5453988083 	3.221000257e-05 	-0.001996346072 	-3.790898686e-08 	-2.770421195e-05 	1.795402942e-09 	-5.281192796e-08
0.5470939875 	3.152802258e-05 	-0.001912184411 	-4.120972342e-08 	-2.701293578e-05 	1.658238358e-09 	-5.149416346e-08
0.5488080831 	3.077212497e-05 	-0.001827530852 	-4.443037099e-08 	-2.625615526e-05 	1.512340158e-09 	-5.005152945e-08
0.5505413061 	2.994155282e-05 	-0.001742453816 	-4.755464692e-08 	-2.543336835e-05 	1.35961452e-09 	-4.848306891e-08
0.5522938699 	2.903604614e-05 	-0.001657030078 	-5.056645549e-08 	-2.454456065e-05 	1.201836705e-09 	-4.678875441e-08
0.5540659904 	2.805581642e-05 	-0.001571346094 	-5.344947898e-08 	-2.359015293e-05 	1.040567887e-09 	-4.496938804e-08
0.5558578859 	2.70015298e-05 	-0.001485499571 	-5.618661708e-08 	-2.257095996e-05 	8.77159038e-10 	-4.302652297e-08
0.5576697768 	2.587429608e-05 	-0.001399601417 	-5.875927971e-08 	-2.148814649e-05 	7.127530169e-10 	-4.096237954e-08
0.5595018865 	2.467567478e-05 	-0.001313778124 	-6.114658828e-08 	-2.034319556e-05 	5.483160589e-10 	-3.877978484e-08
0.5613544406 	2.340770536e-05 	-0.001228174653 	-6.332451156e-08 	-1.913789913e-05 	3.846810106e-10 	-3.648215484e-08
0.563227667 	2.207296596e-05 	-0.001142957808 	-6.526497397e-08 	-1.787437687e-05 	2.225989171e-10 	-3.407353025e-08
0.5651217966 	2.067466177e-05 	-0.001058320044 	-6.693501619e-08 	-1.655512595e-05 	6.279625773e-11 	-3.155867131e-08
0.5670370626 	1.921674196e-05 	-0.0009744835544 	-6.829615921e-08 	-1.518310186e-05 	-9.396255795e-11 	-2.894321208e-08
0.5689737009 	1.770404114e-05 	-0.0008917042685 	-6.930422098e-08 	-1.376182923e-05 	-2.468069601e-10 	-2.623387142e-08
0.5709319499 	1.614243707e-05 	-0.0008102751646 	-6.990995552e-08 	-1.22955387e-05 	-3.946861342e-10 	-2.343871414e-08
0.5729120508 	1.453900978e-05 	-0.0007305279365 	-7.006101018e-08 	-1.078932289e-05 	-5.362921673e-10 	-2.056744816e-08
0.5749142474 	1.290217675e-05 	-0.0006528316649 	-6.970576372e-08 	-9.249296565e-06 	-6.699940172e-10 	-1.763172996e-08
0.5769387863 	1.124176397e-05 	-0.0005775868141 	-6.879949083e-08 	-7.682732062e-06 	-7.938156453e-10 	-1.464542262e-08
0.5789859169 	9.568960904e-06 	-0.0005052128216 	-6.731281673e-08 	-6.098128432e-06 	-9.055231379e-10 	-1.162472768e-08
0.5810558911 	7.896094152e-06 	-0.0004361280689 	-6.524145514e-08 	-4.50514387e-06 	-1.002853689e-09 	-8.588056356e-09
0.583148964 	6.236227755e-06 	-0.0003707223328 	-6.261506603e-08 	-2.914436489e-06 	-1.084078768e-09 	-5.555725973e-09
0.5852653933 	4.602314635e-06 	-0.0003093242975 	-5.95024253e-08 	-1.336840226e-06 	-1.149126262e-09 	-2.548389026e-09
0.5874054395 	3.005923737e-06 	-0.0002521670963 	-5.599682635e-08 	2.180476078e-07 	-1.199269703e-09 	4.156593436e-10
0.5895693664 	1.456390359e-06 	-0.0001994071279 	-5.218011804e-08 	1.742950223e-06 	-1.236068398e-09 	3.322547553e-09
0.5917574402 	-4.007758269e-08 	-0.0001510858373 	-4.820695324e-08 	3.233355463e-06 	-1.260568216e-09 	6.163674177e-09
0.5939699306 	-1.47969626e-06 	-0.0001070746886 	-4.426132816e-08 	4.685579253e-06 	-1.272827585e-09 	8.932016346e-09
0.5962071099 	-2.860521047e-06 	-6.714381193e-05 	-4.044179903e-08 	6.096455892e-06 	-1.27517757e-09 	1.162153935e-08
0.5984692536 	-4.183847473e-06 	-3.099592803e-05 	-3.683448632e-08 	7.46585913e-06 	-1.271743183e-09 	1.423200253e-08
0.6007566404 	-5.453986786e-06 	1.728761547e-06 	-3.351499527e-08 	8.796694087e-06 	-1.26519227e-09 	1.676894384e-08
0.6030695519 	-6.676959771e-06 	3.141844962e-05 	-3.052098821e-08 	1.009342499e-05 	-1.257387016e-09 	1.924087335e-08
0.6054082729 	-7.859713016e-06 	5.846488566e-05 	-2.786547276e-08 	1.136130312e-05 	-1.249735013e-09 	2.165780145e-08
0.6077730914 	-9.009524931e-06 	8.324490783e-05 	-2.55424294e-08 	1.260589379e-05 	-1.243080977e-09 	2.403033718e-08
0.6101642987 	-1.013348234e-05 	0.0001061080006 	-2.353270916e-08 	1.38325775e-05 	-1.237776722e-09 	2.636873729e-08
0.6125821893 	-1.123813983e-05 	0.0001273691972 	-2.180940532e-08 	1.504623358e-05 	-1.233845222e-09 	2.868230309e-08
0.6150270608 	-1.232933788e-05 	0.0001473062929 	-2.034209066e-08 	1.625107937e-05 	-1.231118056e-09 	3.097907404e-08
0.6174992144 	-1.341213853e-05 	0.0001661601251 	-1.909977764e-08 	1.745062229e-05 	-1.229321508e-09 	3.326573624e-08
0.6199989545 	-1.44908285e-05 	0.0001841367417 	-1.80527443e-08 	1.864766806e-05 	-1.228116055e-09 	3.554763817e-08
0.622526589 	-1.556895075e-05 	0.0002014105296 	-1.717350316e-08 	1.984434522e-05 	-1.227111031e-09 	3.782883744e-08
0.625082429 	-1.664934327e-05 	0.0002181276724 	-1.643721018e-08 	2.104212915e-05 	-1.225877294e-09 	4.011214652e-08
0.6276667894 	-1.773418065e-05 	0.0002344095759 	-1.582177078e-08 	2.224186896e-05 	-1.223972308e-09 	4.239918405e-08
0.6302799884 	-1.882502354e-05 	0.0002503561006 	-1.530782562e-08 	2.344383039e-05 	-1.220979703e-09 	4.469045659e-08
0.6329223478 	-1.992288278e-05 	0.0002660485635 	-1.4878709e-08 	2.464776557e-05 	-1.21655378e-09 	4.698549167e-08
0.6355941931 	-2.102829917e-05 	0.0002815525168 	-1.452038793e-08 	2.585300992e-05 	-1.210453402e-09 	4.928302237e-08
0.6382958531 	-2.214143266e-05 	0.0002969202984 	-1.422134682e-08 	2.705859339e-05 	-1.20255262e-09 	5.158119954e-08
0.6410276607 	-2.32621488e-05 	0.0003121933214 	-1.397238984e-08 	2.826334673e-05 	-1.192825536e-09 	5.387779426e-08
0.6437899523 	-2.439009106e-05 	0.0003274040651 	-1.376636847e-08 	2.946598501e-05 	-1.18131378e-09 	5.617035708e-08
0.646583068 	-2.552473242e-05 	0.0003425777447 	-1.359786893e-08 	3.066515968e-05 	-1.168090069e-09 	5.84563173e-08
0.6494073518 	-2.666540598e-05 	0.0003577336667 	-1.346289672e-08 	3.185948068e-05 	-1.153229238e-09 	6.073302505e-08
0.6522631514 	-2.781131886e-05 	0.0003728862991 	-1.335858356e-08 	3.304751665e-05 	-1.136792032e-09 	6.299775182e-08
0.6551508186 	-2.896155545e-05 	0.0003880460964 	-1.328292877e-08 	3.422778343e-05 	-1.118821175e-09 	6.524766834e-08
0.658070709 	-3.011507526e-05 	0.0004032201205 	-1.323457864e-08 	3.539872895e-05 	-1.099346125e-09 	6.747981594e-08
0.6610231822 	-3.1270709e-05 	0.0004184124987 	-1.321264362e-08 	3.655872e-05 	-1.078392391e-09 	6.96910813e-08
0.6640086017 	-3.242715492e-05 	0.0004336247539 	-1.321655058e-08 	3.770603306e-05 	-1.055992174e-09 	7.187817886e-08
0.6670273351 	-3.358297587e-05 	0.0004488560385 	-1.32459262e-08 	3.883884944e-05 	-1.032194413e-09 	7.403764173e-08
0.6700797543 	-3.473659711e-05 	0.0004641032983 	-1.330050635e-08 	3.99552541e-05 	-1.007073312e-09 	7.616581929e-08
0.6731662352 	-3.58863043e-05 	0.0004793613867 	-1.338006649e-08 	4.105323664e-05 	-9.807351193e-10 	7.825887919e-08
0.6762871577 	-3.703024107e-05 	0.0004946231472 	-1.34843681e-08 	4.213069343e-05 	-9.533232197e-10 	8.03128113e-08
0.6794429063 	-3.816640561e-05 	0.0005098794757 	-1.361311712e-08 	4.318542952e-05 	-9.250217294e-10 	8.232343144e-08
0.6826338695 	-3.929264582e-05 	0.0005251193729 	-1.376593124e-08 	4.421515949e-05 	-8.960577806e-10 	8.428638296e-08
0.6858604404 	-4.040665243e-05 	0.0005403299943 	-1.394231333e-08 	4.521750644e-05 	-8.667026205e-10 	8.619713484e-08
0.6891230163 	-4.150594995e-05 	0.0005554967043 	-1.414162951e-08 	4.618999858e-05 	-8.372715958e-10 	8.805097514e-08
0.6924219988 	-4.258788498e-05 	0.0005706031383 	-1.436309035e-08 	4.713006284e-05 	-8.08123042e-10 	8.984299889e-08
0.6957577944 	-4.364961177e-05 	0.0005856312785 	-1.460573465e-08 	4.803501532e-05 	-7.796560719e-10 	9.156808985e-08
0.6991308138 	-4.468807485e-05 	0.0006005615465 	-1.486841517e-08 	4.890204825e-05 	-7.523072212e-10 	9.322089558e-08
0.7025414724 	-4.569998868e-05 	0.0006153729164 	-1.514978619e-08 	4.97282133e-05 	-7.265459064e-10 	9.479579579e-08
0.7059901901 	-4.668181438e-05 	0.0006300430536 	-1.544829274e-08 	5.051040149e-05 	-7.028686505e-10 	9.628686388e-08
0.7094773917 	-4.762973372e-05 	0.0006445484814 	-1.576216179e-08 	5.12453196e-05 	-6.817920221e-10 	9.768782206e-08
0.7130035066 	-4.853962067e-05 	0.0006588647818 	-1.608939548e-08 	5.192946356e-05 	-6.638442435e-10 	9.89919906e-08
0.7165689691 	-4.940701147e-05 	0.0006729668329 	-1.642776677e-08 	5.255909003e-05 	-6.495554122e-10 	1.001922336e-07
0.7201742182 	-5.022707385e-05 	0.0006868290886 	-1.677481812e-08 	5.313018635e-05 	-6.394463471e-10 	1.01280902e-07
0.7238196978 	-5.099458329e-05 	0.0007004259065 	-1.712786377e-08 	5.363845328e-05 	-6.340150073e-10 	1.022498e-07
0.727505857 	-5.170386852e-05 	0.0007137319248 	-1.748399713e-08 	5.407922246e-05 	-6.337206915e-10 	1.030900285e-07
0.7312331497 	-5.234879209e-05 	0.0007267225369 	-1.784009136e-08 	5.444743776e-05 	-6.389709637e-10 	1.037919492e-07
0.7350020349 	-5.292144084e-05 	0.0007393389986 	-1.819201069e-08 	5.473720925e-05 	-6.500643841e-10 	1.043443343e-07
0.7387709215 	-5.341192374e-05 	0.000751459676 	-1.853369117e-08 	5.494248797e-05 	-6.670228239e-10 	1.047356525e-07
0.7424982157 	-5.381321528e-05 	0.0007629873696 	-1.88592646e-08 	5.506004268e-05 	-6.895523805e-10 	1.049597445e-07
0.7461843763 	-5.412310673e-05 	0.0007739090681 	-1.916523739e-08 	5.508973225e-05 	-7.172294551e-10 	1.050163411e-07
0.7498298574 	-5.434114224e-05 	0.0007842452422 	-1.944944583e-08 	5.503238709e-05 	-7.495774946e-10 	1.049070253e-07
0.7534351078 	-5.446710067e-05 	0.0007940192079 	-1.971004685e-08 	5.488894892e-05 	-7.860529053e-10 	1.046335922e-07
0.7570005716 	-5.450101457e-05 	0.0008032570799 	-1.99454944e-08 	5.466047725e-05 	-8.260580377e-10 	1.041980617e-07
0.7605266877 	-5.444322838e-05 	0.0008119876337 	-2.015453655e-08 	5.434823832e-05 	-8.689550471e-10 	1.036028476e-07
0.7640138905 	-5.429441929e-05 	0.0008202421569 	-2.033620788e-08 	5.395372452e-05 	-9.140790217e-10 	1.028507946e-07
0.7674626093 	-5.40556164e-05 	0.000828054299 	-2.048981431e-08 	5.347867581e-05 	-9.607526338e-10 	1.019452197e-07
0.770873269 	-5.372821102e-05 	0.0008354599255 	-2.06149193e-08 	5.292509278e-05 	-1.008301248e-09 	1.008899366e-07
0.7742462894 	-5.331395727e-05 	0.0008424969612 	-2.07113249e-08 	5.229524066e-05 	-1.056066259e-09 	9.968926341e-08
0.777582086 	-5.281496513e-05 	0.0008492052357 	-2.077904466e-08 	5.159164556e-05 	-1.103418202e-09 	9.834801559e-08
0.7808810695 	-5.223368644e-05 	0.0008556263403 	-2.081827466e-08 	5.081708385e-05 	-1.14976921e-09 	9.68714857e-08
0.7841436462 	-5.157289412e-05 	0.0008618034922 	-2.082935836e-08 	4.997456516e-05 	-1.194584404e-09 	9.52654109e-08
0.787370218 	-5.083565482e-05 	0.0008677814071 	-2.081274594e-08 	4.906730915e-05 	-1.237392158e-09 	9.353592879e-08
0.7905611821 	-5.002529628e-05 	0.0008736061857 	-2.076894765e-08 	4.809871718e-05 	-1.277792771e-09 	9.168952329e-08
0.7937169314 	-4.914537018e-05 	0.0008793252126 	-2.0698481e-08 	4.707233979e-05 	-1.315465279e-09 	8.973296271e-08
0.7968378547 	-4.819961199e-05 	0.0008849870723 	-2.060181198e-08 	4.599184141e-05 	-1.350172047e-09 	8.76732325e-08
0.7999243362 	-4.719189907e-05 	0.0008906414795 	-2.047929055e-08 	4.486096349e-05 	-1.381760743e-09 	8.551746488e-08
0.8029767561 	-4.612620847e-05 	0.000896339228 	-2.033108145e-08 	4.368348747e-05 	-1.410163284e-09 	8.327286831e-08
0.8059954902 	-4.500657603e-05 	0.0009021321537 	-2.015709195e-08 	4.246319909e-05 	-1.435391312e-09 	8.09466595e-08
0.8089809102 	-4.383705836e-05 	0.0009080731137 	-1.995689894e-08 	4.120385563e-05 	-1.457527837e-09 	7.854600085e-08
0.8119333839 	-4.26216993e-05 	0.0009142159755 	-1.97296791e-08 	3.990915739e-05 	-1.476714754e-09 	7.607794617e-08
0.8148532749 	-4.13645022e-05 	0.0009206156136 	-1.947414658e-08 	3.8582725e-05 	-1.493136214e-09 	7.354939736e-08
0.8177409426 	-4.006940947e-05 	0.0009273279064 	-1.918850438e-08 	3.722808356e-05 	-1.506998116e-09 	7.096707428e-08
0.8205967427 	-3.874028994e-05 	0.0009344097245 	-1.887041608e-08 	3.584865457e-05 	-1.518504549e-09 	6.833749923e-08
0.8234210268 	-3.738093454e-05 	0.0009419188994 	-1.851700568e-08 	3.444775564e-05 	-1.527832592e-09 	6.56669965e-08
0.8262141429 	-3.599505937e-05 	0.000949914161 	-1.812489299e-08 	3.302860758e-05 	-1.535107636e-09 	6.296170588e-08
0.8289764348 	-3.458631479e-05 	0.000958455028 	-1.769027113e-08 	3.159434727e-05 	-1.540382058e-09 	6.022760709e-08
0.8317082427 	-3.31582978e-05 	0.0009676016381 	-1.72090302e-08 	3.014804372e-05 	-1.543620507e-09 	5.747055054e-08
0.8344099031 	-3.171456406e-05 	0.0009774145046 	-1.667692722e-08 	2.869271404e-05 	-1.54469509e-09 	5.469628769e-08
0.8370817486 	-3.025863545e-05 	0.0009879541877 	-1.608979682e-08 	2.723133521e-05 	-1.543393003e-09 	5.191049346e-08
0.8397241082 	-2.879399899e-05 	0.0009992808778 	-1.54437908e-08 	2.576684758e-05 	-1.539437693e-09 	4.911877301e-08
0.8423373074 	-2.732409372e-05 	0.001011453892 	-1.473562758e-08 	2.430214704e-05 	-1.532522419e-09 	4.632664669e-08
0.844921668 	-2.585228395e-05 	0.001024531098 	-1.396282801e-08 	2.284006397e-05 	-1.522352595e-09 	4.353951e-08
0.8474775082 	-2.438181934e-05 	0.00103856828 	-1.312391139e-08 	2.13833295e-05 	-1.508691037e-09 	4.076256923e-08
0.8500051427 	-2.291578515e-05 	0.001053618483 	-1.221852892e-08 	1.993453201e-05 	-1.491399012e-09 	3.800075853e-08
0.8525048829 	-2.14570479e-05 	0.001069731367 	-1.124751899e-08 	1.849606888e-05 	-1.470466129e-09 	3.5258648e-08
0.8549770366 	-2.000820339e-05 	0.001086952602 	-1.02128805e-08 	1.70700999e-05 	-1.446023832e-09 	3.254035479e-08
0.8574219081 	-1.857153409e-05 	0.001105323332 	-9.117673268e-09 	1.5658509e-05 	-1.418340122e-09 	2.984947021e-08
0.8598397987 	-1.714898186e-05 	0.001124879741 	-7.965865938e-09 	1.426288004e-05 	-1.387796393e-09 	2.718901352e-08
0.862231006 	-1.574214002e-05 	0.00114565271 	-6.762158582e-09 	1.288449043e-05 	-1.354850223e-09 	2.456141981e-08
0.8645958245 	-1.435226628e-05 	0.001167667589 	-5.5118087e-09 	1.152432404e-05 	-1.319989958e-09 	2.196856464e-08
0.8669345455 	-1.298031507e-05 	0.001190944052 	-4.220485008e-09 	1.018310235e-05 	-1.283687686e-09 	1.941182332e-08
0.8692474569 	-1.162698602e-05 	0.001215496031 	-2.8941652e-09 	8.86133048e-06 	-1.246356899e-09 	1.689215877e-08
0.8715348435 	-1.029278334e-05 	0.001241331706 	-1.539083474e-09 	7.559353446e-06 	-1.208319884e-09 	1.441022868e-08
0.8737969871 	-8.978080238e-06 	0.001268453529 	-1.617232061e-10 	6.277416884e-06 	-1.169788265e-09 	1.19665013e-08
0.8760341663 	-7.683182073e-06 	0.001296858279 	1.23115872e-09 	5.015726486e-06 	-1.130858218e-09 	9.561368731e-09
0.8782466565 	-6.408382892e-06 	0.001326537127 	2.6324954e-09 	3.77450079e-06 	-1.091520224e-09 	7.195247574e-09
0.8804347301 	-5.154010542e-06 	0.001357475724 	4.034883415e-09 	2.554012886e-06 	-1.051681764e-09 	4.868658412e-09
0.8825986568 	-3.920457096e-06 	0.001389654308 	5.430587828e-09 	1.354617807e-06 	-1.011200387e-09 	2.582278037e-09
0.8847387028 	-2.708192665e-06 	0.001423047854 	6.811596453e-09 	1.767637237e-07 	-9.699239605e-10 	3.369607862e-10
0.8868551318 	-1.517762031e-06 	0.001457626269 	8.16973541e-09 	-9.790136093e-07 	-9.277347406e-10 	-1.866272042e-09
0.8889482045 	-3.497648415e-07 	0.001493354666 	9.496850906e-09 	-2.112112499e-06 	-8.845940118e-10 	-4.026273454e-09
0.8910181784 	7.951789321e-07 	0.001530193716 	1.0785055e-08 	-3.22190138e-06 	-8.405843163e-10 	-6.141839512e-09
0.8930653087 	1.916475704e-06 	0.001568100101 	1.202702647e-08 	-4.307766838e-06 	-7.95946674e-10 	-8.211800876e-09
0.8950898473 	3.013614064e-06 	0.001607027063 	1.321635231e-08 	-5.369170541e-06 	-7.511105112e-10 	-1.023513133e-08
0.8970920436 	4.086226147e-06 	0.001646925059 	1.434789127e-08 	-6.40571163e-06 	-7.067142496e-10 	-1.221106674e-08
0.8990721441 	5.134150839e-06 	0.001687742501 	1.541813796e-08 	-7.417190877e-06 	-6.636146337e-10 	-1.413922731e-08
0.9010303927 	6.15749493e-06 	0.00172942658 	1.64255643e-08 	-8.403672708e-06 	-6.228829358e-10 	-1.601973586e-08
0.9029670306 	7.156688234e-06 	0.001771924143 	1.737091463e-08 	-9.365541156e-06 	-5.857862369e-10 	-1.785332446e-08
0.9048822962 	8.132528673e-06 	0.0018151826 	1.825743056e-08 	-1.030354573e-05 	-5.537521512e-10 	-1.964142188e-08
0.9067764254 	9.086213367e-06 	0.001859150837 	1.909098297e-08 	-1.121883325e-05 	-5.283157112e-10 	-2.138621429e-08
0.9086496514 	1.001935193e-05 	0.001903780097 	1.988008985e-08 	-1.211296188e-05 	-5.11047773e-10 	-2.309067198e-08