0.4709558481 	1.02710703e-07 	-2.108468434e-10 	3.964261306e-16 	1.025154679e-07 	-1.54770221e-13 	1.954229745e-10
0.4709558481 	1.02710703e-07 	-2.108468434e-10 	3.964261306e-16 	1.025154679e-07 	-1.54770221e-13 	1.954229745e-10
0.4711314108 	1.153162423e-06 	-9.250972104e-09 	1.760492056e-14 	1.151001667e-06 	-1.737563512e-12 	2.194129082e-09
0.4713069734 	6.427666011e-06 	-1.207162814e-07 	2.323774515e-13 	6.416479256e-06 	-9.687847172e-12 	1.223159283e-08
0.471482536 	2.139866203e-05 	-7.530867376e-07 	1.465762957e-12 	2.13700619e-05 	-3.228033604e-11 	4.073727748e-08
0.4716580986 	5.28538234e-05 	-3.05632343e-06 	6.011610952e-12 	5.283299266e-05 	-7.98693807e-11 	1.007143682e-07
0.4718336613 	0.0001081240871 	-9.367806167e-06 	1.860357286e-11 	0.0001082803473 	-1.638455993e-10 	2.06412437e-07
0.4720092239 	0.0001945617713 	-2.356353769e-05 	4.717568022e-11 	0.0001954528665 	-2.959456576e-10 	3.725874869e-07
0.4721847865 	0.0003189104063 	-5.111085073e-05 	1.029497646e-10 	0.0003218971208 	-4.872007614e-10 	6.13625379e-07
0.4723603491 	0.0004865006634 	-9.86131637e-05 	1.993375761e-10 	0.0004942874795 	-7.461679183e-10 	9.422493161e-07
0.4725359118 	0.0007003638161 	-0.0001727402582 	3.494012315e-10 	0.0007174923264 	-1.076383846e-09 	1.367739791e-06
0.4727114744 	0.0009604887442 	-0.0002787015336 	5.622603996e-10 	0.0009935097865 	-1.47350716e-09 	1.893905785e-06
0.472887037 	0.001263502384 	-0.0004187443283 	8.396105245e-10 	0.001320594117 	-1.923211913e-09 	2.517419428e-06
0.4730625996 	0.001602959679 	-0.0005913041812 	1.173842392e-09 	0.001692983323 	-2.401081043e-09 	3.227296755e-06
0.4732381623 	0.001970209049 	-0.0007912090037 	1.548692882e-09 	0.002101480837 	-2.875126573e-09 	4.006006551e-06
0.4734137249 	0.00235557976 	-0.001010839406 	1.942165295e-09 	0.002534779683 	-3.310373495e-09 	4.831994581e-06
0.4735892875 	0.002749551431 	-0.00124172031 	2.330472865e-09 	0.002981089978 	-3.674005605e-09 	5.68278605e-06
0.4737648501 	0.003143641771 	-0.001475941706 	2.691608222e-09 	0.003429564015 	-3.939514324e-09 	6.537702211e-06
0.4739404128 	0.003530906658 	-0.001707047249 	3.007705275e-09 	0.003871204673 	-4.088989689e-09 	7.379592052e-06
0.4741159754 	0.00390608667 	-0.00193034829 	3.266068495e-09 	0.004299211453 	-4.113539139e-09 	8.195491933e-06
0.474291538 	0.004265506065 	-0.002142822455 	3.45917723e-09 	0.004708900582 	-4.012345493e-09 	8.976473281e-06
0.4744671006 	0.004606839067 	-0.002342802043 	3.584077477e-09 	0.005097388623 	-3.791001311e-09 	9.717039461e-06
0.4746426632 	0.004928832706 	-0.002529610692 	3.64149589e-09 	0.005463196526 	-3.45963769e-09 	1.0414371e-05
0.4748182259 	0.005231041356 	-0.002703237134 	3.634891283e-09 	0.005805870971 	-3.031174827e-09 	1.106760373e-05
0.4749937885 	0.005513599521 	-0.002864080056 	3.56956221e-09 	0.006125667439 	-2.51985658e-09 	1.167722468e-05
0.4751693511 	0.005777040531 	-0.003012766166 	3.451867417e-09 	0.006423305825 	-1.940120013e-09 	1.224460617e-05
0.4753449137 	0.006022158592 	-0.003150029578 	3.288580949e-09 	0.006699791759 	-1.305791052e-09 	1.27716652e-05
0.4755204764 	0.00624990719 	-0.00327663707 	3.086385719e-09 	0.006956292608 	-6.295607008e-10 	1.326062711e-05
0.475696039 	0.006461326721 	-0.003393345246 	2.851501207e-09 	0.007194040297 	7.721920008e-11 	1.371384029e-05
0.4758716016 	0.006657489757 	-0.003500883825 	2.589406294e-09 	0.007414330586 	8.049275467e-10 	1.41337748e-05
0.4760471642 	0.006839512515 	-0.003599638368 	2.306445756e-09 	0.007618321868 	1.545018293e-09 	1.452263888e-05
0.4762227269 	0.007030674243 	-0.003704149723 	1.953845017e-09 	0.00783278552 	2.395914512e-09 	1.493146621e-05
0.4764955107 	0.007247648591 	-0.003821605026 	1.507879708e-09 	0.008075684992 	3.449446332e-09 	1.539450011e-05
0.4767734216 	0.007463752466 	-0.003936300929 	1.023490368e-09 	0.008316712454 	4.597271849e-09 	1.585396545e-05
0.4770565557 	0.007659352687 	-0.004039971393 	5.288196739e-10 	0.008534748087 	5.738692496e-09 	1.626960196e-05
0.4773450114 	0.007836295323 	-0.00413324492 	2.455321478e-11 	0.008731691173 	6.869519264e-09 	1.664503022e-05
0.4776388886 	0.00799623321 	-0.004217124745 	-4.922659123e-10 	0.008909496459 	7.987867625e-09 	1.698397652e-05
0.4779382892 	0.008140695759 	-0.004292498431 	-1.02463068e-09 	0.009069879681 	9.09207715e-09 	1.728971151e-05
0.4782433171 	0.008271082527 	-0.00436015872 	-1.57541486e-09 	0.009214426598 	1.018096372e-08 	1.756525811e-05
0.4785540779 	0.008388668709 	-0.004420813513 	-2.147237837e-09 	0.009344573167 	1.125331458e-08 	1.781335365e-05
0.4788706795 	0.008494611584 	-0.004475095291 	-2.742373667e-09 	0.009461619079 	1.230772887e-08 	1.803647569e-05
0.4791932316 	0.008589958367 	-0.004523569998 	-3.3626869e-09 	0.009566737813 	1.334250389e-08 	1.823686121e-05
0.4795218461 	0.008675654511 	-0.004566744987 	-4.009583111e-09 	0.009660987691 	1.435557986e-08 	1.841652767e-05
0.4798566368 	0.008752552058 	-0.004605075992 	-4.683970046e-09 	0.009745322216 	1.534451959e-08 	1.857729272e-05
0.48019772 	0.008821417753 	-0.004638973172 	-5.386228767e-09 	0.009820599837 	1.630651658e-08 	1.872079278e-05
0.4805452138 	0.008882940774 	-0.004668806299 	-6.116195405e-09 	0.009887592994 	1.723842352e-08 	1.884850036e-05
0.4808992388 	0.008937739984 	-0.004694909226 	-6.873154058e-09 	0.009946996435 	1.813679531e-08 	1.896173983e-05
0.4812599177 	0.008986370682 	-0.004717583727 	-7.655840713e-09 	0.00999943482 	1.899794147e-08 	1.906170197e-05
0.4816273755 	0.009029330828 	-0.00473710283 	-8.462457307e-09 	0.01004546964 	1.981798388e-08 	1.914945712e-05
0.4820017397 	0.009067066761 	-0.004753713717 	-9.290694607e-09 	0.01008560548 	2.059291644e-08 	1.92259672e-05
0.48238314 	0.00909997842 	-0.00476764027 	-1.013776217e-08 	0.01012029575 	2.131866403e-08 	1.929209649e-05
0.4827717088 	0.009128424105 	-0.004779085322 	-1.100042357e-08 	0.01014994781 	2.199113895e-08 	1.934862156e-05
0.4831675807 	0.009152724781 	-0.004788232656 	-1.187503553e-08 	0.01017492764 	2.260629338e-08 	1.939624006e-05
0.4835708931 	0.009173167985 	-0.004795248796 	-1.275758909e-08 	0.01019556404 	2.316016731e-08 	1.943557878e-05
0.4839817856 	0.009190011337 	-0.004800284612 	-1.364375166e-08 	0.01021215246 	2.364893146e-08 	1.94672009e-05
0.4844004009 	0.009203485711 	-0.004803476779 	-1.452890945e-08 	0.01022495835 	2.406892543e-08 	1.94916125e-05
0.4848268841 	0.009213798069 	-0.004804949087 	-1.540820938e-08 	0.01023422034 	2.441669141e-08 	1.950926843e-05
0.485261383 	0.009221134011 	-0.004804813638 	-1.627659993e-08 	0.01024015292 	2.468900393e-08 	1.952057757e-05
0.4857040484 	0.009225660047 	-0.004803171937 	-1.712887078e-08 	0.01024294897 	2.488289623e-08 	1.952590761e-05
0.4861550336 	0.009227525632 	-0.004800115885 	-1.795969153e-08 	0.01024278199 	2.499568414e-08 	1.952558931e-05
0.4866144951 	0.009226864975 	-0.004795728686 	-1.876364948e-08 	0.01023980812 	2.502498819e-08 	1.951992028e-05
0.4870825921 	0.009223798658 	-0.00479008568 	-1.953528672e-08 	0.01023416789 	2.496875448e-08 	1.950916844e-05
0.487559487 	0.009218435065 	-0.004783255098 	-2.026913702e-08 	0.0102259879 	2.482527515e-08 	1.94935751e-05
0.4880453452 	0.009210871667 	-0.00477529876 	-2.095976294e-08 	0.0102153822 	2.459320893e-08 	1.947335769e-05
0.4885403351 	0.009201196155 	-0.004766272711 	-2.160179347e-08 	0.0102024536 	2.427160215e-08 	1.944871219e-05
0.4890446283 	0.009189487455 	-0.004756227802 	-2.218996272e-08 	0.01018729486 	2.385991067e-08 	1.941981542e-05
0.4895583997 	0.009175816623 	-0.004745210219 	-2.271915003e-08 	0.01016998967 	2.335802274e-08 	1.938682691e-05
0.4900818274 	0.009160247651 	-0.004733261972 	-2.318442177e-08 	0.0101506136 	2.276628294e-08 	1.934989073e-05
0.4906150929 	0.009142838186 	-0.004720421329 	-2.358107492e-08 	0.01012923492 	2.208551703e-08 	1.930913704e-05
0.4911583811 	0.009123640169 	-0.004706723221 	-2.390468274e-08 	0.01010591537 	2.13170575e-08 	1.926468349e-05
0.4917118805 	0.009102700409 	-0.004692199597 	-2.415114223e-08 	0.01008071077 	2.04627693e-08 	1.921663651e-05
0.4922757829 	0.00908006111 	-0.00467687975 	-2.431672336e-08 	0.01005367164 	1.952507539e-08 	1.916509243e-05
0.4928502838 	0.009055760334 	-0.004660790602 	-2.439811956e-08 	0.01002484376 	1.850698123e-08 	1.911013847e-05
0.4934355824 	0.009029832431 	-0.004643956953 	-2.439249909e-08 	0.00999426859 	1.741209757e-08 	1.90518537e-05
0.4940318817 	0.009002308435 	-0.004626401696 	-2.429755649e-08 	0.009961983733 	1.624466071e-08 	1.899030979e-05
0.4946393885 	0.008973216417 	-0.004608145999 	-2.411156346e-08 	0.009928023316 	1.500954905e-08 	1.892557179e-05
0.4952583133 	0.008942581824 	-0.00458920944 	-2.383341801e-08 	0.009892418324 	1.371229522e-08 	1.885769878e-05
0.4958888709 	0.00891042778 	-0.004569610121 	-2.346269086e-08 	0.009855196904 	1.235909235e-08 	1.878674441e-05
0.4965312797 	0.008876775373 	-0.004549364722 	-2.299966793e-08 	0.00981638464 	1.095679377e-08 	1.871275745e-05
0.4971857627 	0.008841643914 	-0.004528488533 	-2.24453876e-08 	0.009776004778 	9.512904676e-09 	1.863578221e-05
0.4978525466 	0.008805051177 	-0.004506995429 	-2.180167135e-08 	0.009734078422 	8.035564878e-09 	1.855585892e-05
0.4985318627 	0.008767013601 	-0.004484897806 	-2.107114652e-08 	0.009690624695 	6.533521469e-09 	1.847302404e-05
0.4992239466 	0.008727546475 	-0.004462206468 	-2.025726008e-08 	0.009645660851 	5.01609055e-09 	1.838731046e-05
0.4999290382 	0.008686664074 	-0.00443893048 	-1.936428227e-08 	0.009599202348 	3.493107186e-09 	1.829874764e-05
0.5006473819 	0.008644379768 	-0.004415076985 	-1.83972997e-08 	0.009551262878 	1.974862848e-09 	1.820736168e-05
0.501379227 	0.008600706066 	-0.00439065101 	-1.736219796e-08 	0.009501854438 	4.720287317e-10 	1.811317546e-05
0.502124827 	0.008555654635 	-0.004365655296 	-1.626563465e-08 	0.009450987105 	-1.004424349e-09 	1.801620819e-05
0.5028844406 	0.008509236247 	-0.004340090164 	-1.511500526e-08 	0.009398669122 	-2.443311038e-09 	1.791647557e-05
0.5036583311 	0.008461460986 	-0.004313953603 	-1.391840056e-08 	0.009344900489 	-3.833213953e-09 	1.781397761e-05
0.5044467669 	0.008412336546 	-0.004287242278 	-1.268455911e-08 	0.009289704066 	-5.163494573e-09 	1.770875789e-05
0.5052500214 	0.008361875339 	-0.004259912391 	-1.142310857e-08 	0.009233075442 	-6.4235296e-09 	1.760080799e-05
0.506068373 	0.008303298908 	-0.004229107113 	-9.955883485e-09 	0.009167682148 	-7.749491492e-09 	1.74761502e-05
0.507324668 	0.008229751604 	-0.004190298611 	-8.174405882e-09 	0.009085536923 	-9.194270239e-09 	1.731955857e-05
0.5085949819 	0.00814797752 	-0.004146378201 	-6.310077305e-09 	0.008993947186 	-1.051549966e-08 	1.714496308e-05
0.5098794711 	0.008064604058 	-0.004101780574 	-4.528890526e-09 	0.008900630778 	-1.155785672e-08 	1.696707606e-05
0.5111782938 	0.00797966121 	-0.004056448184 	-2.857754542e-09 	0.008805584894 	-1.231224971e-08 	1.678589219e-05
0.5124916099 	0.00789315858 	-0.004010388615 	-1.319438673e-09 	0.008708840736 	-1.277498068e-08 	1.660147094e-05
0.5138195812 	0.007805099407 	-0.003963604992 	6.687503781e-11 	0.00861038744 	-1.294622084e-08 	1.641379159e-05
0.5151623712 	0.007715479953 	-0.003916097684 	1.285617398e-09 	0.008510219705 	-1.283053249e-08 	1.622284405e-05
0.5165201452 	0.007624291594 	-0.003867865131 	2.324818921e-09 	0.008408327777 	-1.243616714e-08 	1.602860972e-05
0.5178930705 	0.007531522242 	-0.003818904251 	3.176031801e-09 	0.008304699562 	-1.177459915e-08 	1.583106554e-05
0.5192813161 	0.007437157658 	-0.003769210808 	3.834202447e-09 	0.008199321557 	-1.086006062e-08 	1.563018577e-05
0.520685053 	0.007341182592 	-0.003718779736 	4.297501114e-09 	0.008092180012 	-9.709094603e-09 	1.542594421e-05
0.522104454 	0.007243581784 	-0.003667605452 	4.567115498e-09 	0.007983261801 	-8.340118413e-09 	1.521831582e-05
0.523539694 	0.007144340822 	-0.003615682178 	4.647013932e-09 	0.00787255518 	-6.773001572e-09 	1.500727824e-05
0.5249909497 	0.007043446902 	-0.003563004259 	4.543683115e-09 	0.007760050447 	-5.028659333e-09 	1.479281295e-05
0.5264583998 	0.006940889491 	-0.003509566468 	4.265844646e-09 	0.00764574052 	-3.128662892e-09 	1.457490645e-05
0.527942225 	0.006836660944 	-0.003455364281 	3.824154211e-09 	0.007529621458 	-1.094867626e-09 	1.435355125e-05
0.5294426081 	0.006730757085 	-0.003400394127 	3.230887205e-09 	0.007411692951 	1.050938626e-09 	1.412874674e-05
0.5309597337 	0.006623177771 	-0.003344653583 	2.499614634e-09 	0.00729195878 	3.287364881e-09 	1.390050013e-05
0.5324937889 	0.006513927444 	-0.003288141536 	1.644873542e-09 	0.007170427261 	5.593721018e-09 	1.366882728e-05
0.5340449624 	0.006403015677 	-0.003230858287 	6.818363699e-10 	0.007047111668 	7.950293589e-09 	1.343375348e-05
0.5356134452 	0.006290457686 	-0.00317280561 	-3.740158395e-10 	0.006922030636 	1.033859035e-08 	1.319531427e-05
0.5371994306 	0.006176274789 	-0.003113986774 	-1.507211328e-09 	0.006795208501 	1.274155064e-08 	1.295355603e-05
0.5388031139 	0.006060494781 	-0.003054406511 	-2.702591413e-09 	0.006666675568 	1.514371913e-08 	1.270853654e-05
0.5404246925 	0.005943152173 	-0.002994070968 	-3.945595026e-09 	0.006536468261 	1.753138056e-08 	1.246032522e-05
0.5420643661 	0.005824288253 	-0.002932987609 	-5.22251914e-09 	0.006404629124 	1.98926538e-08 	1.220900319e-05
0.5437223366 	0.005703950939 	-0.002871165122 	-6.520750638e-09 	0.00627120664 	2.221754368e-08 	1.195466285e-05
0.5453988083 	0.005582194381 	-0.002808613293 	-7.828965766e-09 	0.006136254841 	2.449794946e-08 	1.169740721e-05
0.5470939875 	0.005459078317 	-0.002745342886 	-9.137293896e-09 	0.005999832711 	2.672762875e-08 	1.143734872e-05
0.5488080831 	0.005334667194 	-0.002681365526 	-1.043744285e-08 	0.005862003404 	2.89021154e-08 	1.117460775e-05
0.5505413061 	0.005209029102 	-0.002616693591 	-1.172278316e-08 	0.005722833301 	3.101858984e-08 	1.090931085e-05
0.5522938699 	0.005082234605 	-0.002551340128 	-1.298838819e-08 	0.00558239101 	3.307569907e-08 	1.064158881e-05
0.5540659904 	0.004954355549 	-0.002485318798 	-1.423102584e-08 	0.005440746364 	3.507332359e-08 	1.037157475e-05
0.5558578859 	0.00482546399 	-0.002418643868 	-1.544909509e-08 	0.00529796955 	3.701228767e-08 	1.009940246e-05
0.5576697768 	0.004695631336 	-0.002351330269 	-1.664249699e-08 	0.005154130458 	3.88940099e-08 	9.825205169e-06
0.5595018865 	0.004564927808 	-0.002283393718 	-1.781242518e-08 	0.005009298348 	4.072009257e-08 	9.549114913e-06
0.5613544406 	0.004433422322 	-0.002214850931 	-1.896105659e-08 	0.004863541905 	4.249185206e-08 	9.271262623e-06
0.563227667 	0.00430118281 	-0.002145719936 	-2.009112089e-08 	0.004716929728 	4.420980036e-08 	8.991779065e-06
0.5651217966 	0.004168277031 	-0.002076020467 	-2.120533227e-08 	0.004569531244 	4.587310057e-08 	8.710796587e-06
0.5670370626 	0.004034773848 	-0.002005774458 	-2.230568476e-08 	0.004421418054 	4.747903896e-08 	8.428451681e-06
0.5689737009 	0.00390074495 	-0.001935006578 	-2.339264969e-08 	0.004272665657 	4.90225803e-08 	8.144888268e-06
0.5709319499 	0.003766267002 	-0.00186374481 	-2.446437533e-08 	0.004123355528 	5.049609587e-08 	7.860261664e-06
0.5729120508 	0.003631424186 	-0.001792021013 	-2.551606654e-08 	0.003973577532 	5.188935728e-08 	7.574743174e-06
0.5749142474 	0.003496311119 	-0.00171987147 	-2.653979155e-08 	0.003823432689 	5.318985117e-08 	7.288525374e-06
0.5769387863 	0.00336103615 	-0.00164733744 	-2.752496801e-08 	0.003673036383 	5.438336121e-08 	7.001828214e-06
0.5789859169 	0.003225725026 	-0.001574465847 	-2.845964535e-08 	0.003522522125 	5.545457893e-08 	6.714906205e-06
0.5810558911 	0.003090524926 	-0.001501310316 	-2.933236268e-08 	0.003372046059 	5.638729105e-08 	6.428057001e-06
0.583148964 	0.002955608851 	-0.001427932926 	-3.013384544e-08 	0.003221792337 	5.71635751e-08 	6.141631645e-06
0.5852653933 	0.002821180317 	-0.001354407029 	-3.085733165e-08 	0.003071979405 	5.776165449e-08 	5.856046558e-06
0.5874054395 	0.002687478327 	-0.001280821388 	-3.14962811e-08 	0.002922866955 	5.815245396e-08 	5.571796786e-06
0.5895693664 	0.002554782557 	-0.001207285557 	-3.203900139e-08 	0.002774763108 	5.829709499e-08 	5.289469688e-06
0.5917574402 	0.002423419085 	-0.001133933397 	-3.246197873e-08 	0.002628030146 	5.814687007e-08 	5.009755882e-06
0.5939699306 	0.002293841329 	-0.001060940407 	-3.272792499e-08 	0.002483163483 	5.756703409e-08 	4.733599758e-06
0.5962071099 	0.002166655091 	-0.0009885169786 	-3.279425082e-08 	0.002340812006 	5.644959334e-08 	4.462238279e-06
0.5984692536 	0.002042412912 	-0.0009168827155 	-3.262466657e-08 	0.002201579383 	5.487915104e-08 	4.196822202e-06
0.6007566404 	0.001921536808 	-0.0008462832853 	-3.219566286e-08 	0.002065957691 	5.291945246e-08 	3.938289562e-06
0.6030695519 	0.001804478657 	-0.0007769930146 	-3.150700952e-08 	0.001934479198 	5.053696185e-08 	3.687655012e-06
0.6054082729 	0.001691793271 	-0.0007093013169 	-3.058249567e-08 	0.001807781422 	4.770605848e-08 	3.446133837e-06
0.6077730914 	0.001584117562 	-0.0006435177656 	-2.945129104e-08 	0.001686593062 	4.440242288e-08 	3.215115141e-06
0.6101642987 	0.00148215961 	-0.0005799143315 	-2.812971955e-08 	0.001571709573 	4.061059379e-08 	2.99611528e-06
0.6125821893 	0.001386672179 	-0.0005188872876 	-2.662278173e-08 	0.001464009277 	3.633936116e-08 	2.790808582e-06
0.6150270608 	0.001298437462 	-0.0004608870139 	-2.494219987e-08 	0.001364415919 	3.163548255e-08 	2.600955962e-06
0.6174992144 	0.00121822524 	-0.0004061025736 	-2.312258803e-08 	0.001273774786 	2.658545357e-08 	2.428168769e-06
0.6199989545 	0.001146684158 	-0.0003547092036 	-2.123004377e-08 	0.001192816852 	2.130281732e-08 	2.273840446e-06
0.622526589 	0.001084297878 	-0.0003069225836 	-1.934229299e-08 	0.001122126484 	1.590955549e-08 	2.139084958e-06
0.625082429 	0.001031364269 	-0.0002628272658 	-1.752026428e-08 	0.001062070692 	1.053195035e-08 	2.024601926e-06
0.6276667894 	0.0009879379565 	-0.0002224161342 	-1.58036614e-08 	0.001012741349 	5.30865849e-09 	1.930566489e-06
0.6302799884 	0.0009538235871 	-0.000185593037 	-1.422133588e-08 	0.0009739385921 	3.575774625e-10 	1.856597649e-06
0.6329223478 	0.0009285982638 	-0.0001521725868 	-1.280442705e-08 	0.0009451907171 	-4.222838312e-09 	1.801796209e-06
0.6355941931 	0.0009116060831 	-0.0001218888324 	-1.157854791e-08 	0.0009257525892 	-8.331397791e-09 	1.764741735e-06
0.6382958531 	0.0009019889391 	-9.4435257e-05 	-1.055135364e-08 	0.0009146502267 	-1.191156827e-08 	1.743577546e-06
0.6410276607 	0.0008987803292 	-6.949424512e-05 	-9.716645471e-09 	0.0009107876099 	-1.496452047e-08 	1.736214325e-06
0.6437899523 	0.0009009902486 	-4.675498763e-05 	-9.05855569e-09 	0.0009130426658 	-1.752451384e-08 	1.740513088e-06
0.646583068 	0.000907664223 	-2.59304446e-05 	-8.554791931e-09 	0.0009203357257 	-1.96462573e-08 	1.754415687e-06
0.6494073518 	0.0009179247856 	-6.765216997e-06 	-8.181022504e-09 	0.0009316768284 	-2.139354357e-08 	1.776034981e-06
0.6522631514 	0.0009309949967 	1.096213676e-05 	-7.913794051e-09 	0.0009461919347 	-2.2830746e-08 	1.803704808e-06
0.6551508186 	0.0009462068559 	2.744044929e-05 	-7.732077726e-09 	0.000963131592 	-2.401743877e-08 	1.835996503e-06
0.658070709 	0.0009629988811 	4.282921746e-05 	-7.617831913e-09 	0.0009818672296 	-2.500562744e-08 	1.871711836e-06
0.6610231822 	0.0009809071398 	5.726252741e-05 	-7.555986883e-09 	0.001001880113 	-2.583886607e-08 	1.909861954e-06
0.6640086017 	0.0009995531847 	7.085294659e-05 	-7.534170478e-09 	0.001022746974 	-2.655254623e-08 	1.94963999e-06
0.6670273351 	0.001018631249 	8.369509445e-05 	-7.54235129e-09 	0.001044125023 	-2.717478864e-08 	1.990392493e-06
0.6700797543 	0.001037896076 	9.586879817e-05 	-7.572478209e-09 	0.001065737906 	-2.772755334e-08 	2.031592656e-06
0.6731662352 	0.001057152066 	0.0001074418184 	-7.618148239e-09 	0.001087363345 	-2.822774728e-08 	2.072816753e-06
0.6762871577 	0.001076243965 	0.0001184721649 	-7.67431504e-09 	0.001108822674 	-2.868822338e-08 	2.113724197e-06
0.6794429063 	0.001095049103 	0.00012901004 	-7.737041268e-09 	0.001129972235 	-2.911863364e-08 	2.154041139e-06
0.6826338695 	0.001113471031 	0.0001390994588 	-7.803292415e-09 	0.001150696444 	-2.95261343e-08 	2.193547243e-06
0.6858604404 	0.001131434388 	0.000148779598 	-7.870766973e-09 	0.001170902297 	-2.991595684e-08 	2.232065214e-06
0.6891230163 	0.001148880792 	0.0001580859224 	-7.937756836e-09 	0.001190515077 	-3.02918634e-08 	2.269452624e-06
0.6924219988 	0.001165765583 	0.0001670511371 	-8.003032085e-09 	0.00120947506 	-3.06565056e-08 	2.305595621e-06
0.6957577944 	0.001182055242 	0.0001757060033 	-8.06574509e-09 	0.001227735012 	-3.101170366e-08 	2.340404165e-06
0.6991308138 	0.001197725382 	0.0001840800538 	-8.125349727e-09 	0.001245258328 	-3.135866056e-08 	2.373808474e-06
0.7025414724 	0.001212759179 	0.0001922022363 	-8.181532274e-09 	0.001262017669 	-3.169812305e-08 	2.405756436e-06
0.7059901901 	0.001227146192 	0.0002001015128 	-8.234151232e-09 	0.001277994006 	-3.20304999e-08 	2.436211775e-06
0.7094773917 	0.001240881514 	0.0002078074348 	-8.283183779e-09 	0.001293175985 	-3.23559451e-08 	2.465152847e-06
0.7130035066 	0.00125396522 	0.0002153507211 	-8.328659325e-09 	0.001307559563 	-3.267441322e-08 	2.492571944e-06
0.7165689691 	0.00126640211 	0.0002227638622 	-8.370646921e-09 	0.001321147893 	-3.298568199e-08 	2.518475078e-06
0.7201742182 	0.001278201741 	0.0002300817559 	-8.409208654e-09 	0.001333951456 	-3.328933231e-08 	2.542882228e-06
0.7238196978 	0.001289378762 	0.0002373424073 	-8.444321072e-09 	0.001345988489 	-3.358473307e-08 	2.565828158e-06
0.727505857 	0.001299953608 	0.0002445876948 	-8.475903104e-09 	0.001357285685 	-3.387101541e-08 	2.587363753e-06
0.7312331497 	0.001309953575 	0.0002518650555 	-8.503886029e-09 	0.001367879302 	-3.414697823e-08 	2.607558132e-06
0.7350020349 	0.001319393469 	0.0002592046603 	-8.52799693e-09 	0.001377793716 	-3.441060605e-08 	2.626457762e-06
0.7387709215 	0.001328259068 	0.0002665955801 	-8.547265242e-09 	0.001387025588 	-3.465853749e-08 	2.644056274e-06
0.7424982157 	0.001336560771 	0.0002740362908 	-8.560404167e-09 	0.001395604535 	-3.48870045e-08 	2.660410132e-06
0.7461843763 	0.001344369922 	0.0002815727412 	-8.566331791e-09 	0.001403628967 	-3.509264049e-08 	2.67570693e-06
0.7498298574 	0.001351785931 	0.0002892681651 	-8.56373412e-09 	0.001411227017 	-3.527188939e-08 	2.690190924e-06
0.7534351078 	0.001358916622 	0.0002971862582 	-8.550809391e-09 	0.001418535036 	-3.542059156e-08 	2.704122041e-06
0.7570005716 	0.00136587942 	0.0003053924139 	-8.525340051e-09 	0.001425698712 	-3.553391628e-08 	2.717777997e-06
0.7605266877 	0.001372802442 	0.0003139539765 	-8.484652687e-09 	0.001432874073 	-3.560629884e-08 	2.73145623e-06
0.7640138905 	0.001379825414 	0.0003229405006 	-8.42557908e-09 	0.001440228345 	-3.563138408e-08 	2.745475516e-06
0.7674626093 	0.001387100359 	0.0003324239721 	-8.344417622e-09 	0.001447940596 	-3.560197832e-08 	2.76017721e-06
0.770873269 	0.001394791998 	0.0003424789775 	-8.236899159e-09 	0.001456202143 	-3.551001851e-08 	2.775926015e-06
0.7742462894 	0.001403077814 	0.0003531828078 	-8.098162595e-09 	0.001465216616 	-3.534656359e-08 	2.793110107e-06
0.777582086 	0.001412147703 	0.0003646154765 	-7.92274699e-09 	0.001475199629 	-3.510181466e-08 	2.812140504e-06
0.7808810695 	0.001422203177 	0.0003768596316 	-7.704608263e-09 	0.001486377973 	-3.476517191e-08 	2.833449534e-06
0.7841436462 	0.00143345605 	0.0003900003373 	-7.437169538e-09 	0.00149898829 	-3.432533636e-08 	2.857488304e-06
0.787370218 	0.001446126598 	0.000404124702 	-7.113414518e-09 	0.001513275186 	-3.377046603e-08 	2.884723097e-06
0.7905611821 	0.001460441175 	0.0004193213252 	-6.726032438e-09 	0.001529488758 	-3.308839511e-08 	2.915630672e-06
0.7937169314 	0.001476629302 	0.0004356795428 	-6.267621114e-09 	0.001547881576 	-3.226692414e-08 	2.950692496e-06
0.7968378547 	0.001494920302 	0.0004532884528 	-5.730950745e-09 	0.001568705142 	-3.129418592e-08 	2.990387999e-06
0.7999243362 	0.001515539539 	0.0004722357137 	-5.109285696e-09 	0.001592205927 	-3.0159087e-08 	3.035187027e-06
0.8029767561 	0.001538704403 	0.000492606121 	-4.396754528e-09 	0.001618621103 	-2.885181725e-08 	3.085541694e-06
0.8059954902 	0.001564620162 	0.0005144799846 	-3.588750776e-09 	0.001648174104 	-2.736441093e-08 	3.141877928e-06
0.8089809102 	0.001593475852 	0.00053793135 	-2.682339288e-09 	0.001681070195 	-2.569133192e-08 	3.204587021e-06
0.8119333839 	0.001625440375 	0.0005630261264 	-1.676636774e-09 	0.001717492221 	-2.383004592e-08 	3.274017526e-06
0.8148532749 	0.001660658955 	0.0005898202043 	-5.731318212e-10 	0.001757596718 	-2.178153429e-08 	3.350467843e-06
0.8177409426 	0.001699250116 	0.0006183576601 	6.240897881e-10 	0.001801510547 	-1.955070069e-08 	3.434179806e-06
0.8205967427 	0.001741303298 	0.0006486691505 	1.908243354e-09 	0.001849328216 	-1.714662397e-08 	3.525333573e-06
0.8234210268 	0.001786877217 	0.0006807706006 	3.269886375e-09 	0.001901109987 	-1.458261987e-08 	3.624044022e-06
0.8262141429 	0.001835999014 	0.0007146622725 	4.697108656e-09 	0.001956880859 	-1.187608923e-08 	3.730358805e-06
0.8289764348 	0.001888664215 	0.0007503282827 	6.175862899e-09 	0.002016630451 	-9.048150251e-09 	3.844258134e-06
0.8317082427 	0.001944837485 	0.0007877366054 	7.690413321e-09 	0.002080313787 	-6.12307331e-09 	3.96565627e-06
0.8344099031 	0.002004454109 	0.0008268395642 	9.223868679e-09 	0.002147852909 	-3.127556014e-09 	4.09440461e-06
0.8370817486 	0.002067422105 	0.0008675747848 	1.075875942e-08 	0.002219139246 	-8.989067769e-11 	4.230296182e-06
0.8397241082 	0.002133624872 	0.000909866547 	1.227761725e-08 	0.002294036581 	2.960916092e-09 	4.373071318e-06
0.8423373074 	0.002202924213 	0.0009536274571 	1.376351893e-08 	0.002372384493 	5.996011903e-09 	4.522424215e-06
0.844921668 	0.002275163627 	0.0009987603439 	1.520056341e-08 	0.002454002109 	8.987501949e-09 	4.678010075e-06
0.8474775082 	0.002350171711 	0.001045160281 	1.657426153e-08 	0.002538691993 	1.190914564e-08 	4.839452532e-06
0.8500051427 	0.002427765566 	0.001092716641 	1.787182745e-08 	0.00262624405 	1.473691912e-08 	5.006351086e-06
0.8525048829 	0.002507754089 	0.001141315093 	1.908237092e-08 	0.002716439295 	1.744943095e-08 	5.178288292e-06
0.8549770366 	0.002589941077 	0.001190839489 	2.019699717e-08 	0.0028090534 	2.002819139e-08 	5.354836517e-06
0.8574219081 	0.002674128059 	0.001241173569 	2.120882647e-08 	0.002903859928 	2.245774628e-08 	5.53556411e-06
0.8598397987 	0.002760116831 	0.001292202466 	2.211294844e-08 	0.003000633216 	2.472569344e-08 	5.720040893e-06
0.862231006 	0.002847711665 	0.001343813994 	2.2906327e-08 	0.003099150867 	2.682260382e-08 	5.907842917e-06
0.8645958245 	0.002936721178 	0.001395899707 	2.358767111e-08 	0.003199195851 	2.874187035e-08 	6.098556463e-06
0.8669345455 	0.003026959875 	0.001448355743 	2.415728438e-08 	0.003300558229 	3.04795066e-08 	6.291781327e-06
0.8692474569 	0.003118249381 	0.001501083464 	2.461690436e-08 	0.003403036505 	3.203391487e-08 	6.487133404e-06
0.8715348435 	0.003210419391 	0.00155398992 	2.496953942e-08 	0.003506438661 	3.340563987e-08 	6.684246652e-06
0.8737969871 	0.00330330835 	0.001606988152 	2.521930885e-08 	0.003610582883 	3.459712049e-08 	6.882774484e-06
0.8760341663 	0.003396763914 	0.001659997354 	2.537128936e-08 	0.003715298034 	3.561244901e-08 	7.082390666e-06
0.8782466565 	0.003490643207 	0.00171294293 	2.54313697e-08 	0.003820423902 	3.645714347e-08 	7.28278979e-06
0.8804347301 	0.0035848129 	0.001765756455 	2.540611324e-08 	0.003925811258 	3.713793673e-08 	7.48368738e-06
0.8825986568 	0.003679149153 	0.001818375561 	2.530262811e-08 	0.004031321747 	3.766258342e-08 	7.684819698e-06
0.8847387028 	0.003773537424 	0.001870743773 	2.512844333e-08 	0.004136827658 	3.803968449e-08 	7.885943287e-06
0.8868551318 	0.003867872174 	0.001922810288 	2.489138952e-08 	0.004242211572 	3.827852809e-08 	8.086834318e-06
0.8889482045 	0.003962056486 	0.001974529736 	2.459948259e-08 	0.004347365929 	3.838894476e-08 	8.287287748e-06
0.8910181784 	0.004056001601 	0.002025861904 	2.426080903e-08 	0.004452192511 	3.838117462e-08 	8.487116349e-06
0.8930653087 	0.0041496264 	0.002076771453 	2.388341187e-08 	0.004556601872 	3.82657442e-08 	8.686149611e-06
0.8950898473 	0.004242856823 	0.002127227613 	2.347517655e-08 	0.004660512713 	3.80533507e-08 	8.884232554e-06
0.8970920436 	0.004335625248 	0.002177203875 	2.304371664e-08 	0.004763851219 	3.775475142e-08 	9.081224468e-06
0.8990721441 	0.00442786984 	0.002226677678 	2.259625967e-08 	0.00486655037 	3.738065688e-08 	9.276997593e-06
0.9010303927 	0.004519533873 	0.002275630093 	2.213953377e-08 	0.004968549228 	3.694162589e-08 	9.471435766e-06
0.9029670306 	0.004610565048 	0.002324045494 	2.167965627e-08 	0.005069792227 	3.644796131e-08 	9.664433061e-06
0.9048822962 	0.004700914817 	0.00237191125 	2.122202588e-08 	0.005170228463 	3.59096057e-08 	9.855892441e-06
0.9067764254 	0.00479053773 	0.002419217395 	2.077122006e-08 	0.005269811017 	3.533603583e-08 	1.004572447e-05
0.9086496514 	0.004879390834 	0.002465956315 	2.033089987e-08 	0.005368496313 	3.473615547e-08 	1.023384607e-05
0.910502205 	0.004967433134 	0.002512122437 	1.990372425e-08 	0.005466243546 	3.411818618e-08 	1.042017946e-05
0.9123343142 	0.00505462514 	0.002557711912 	1.949127631e-08 	0.00556301418 	3.348955597e-08 	1.060465119e-05
0.9141462048 	0.005140928522 	0.002602722319 	1.909400386e-08 	0.00565877155 	3.285678613e-08 	1.078719135e-05
0.9159380997 	0.005226305876 	0.002647152364 	1.871117652e-08 	0.005753480556 	3.222537739e-08 	1.096773304e-05
0.9177102197 	0.005310720615 	0.002691001588 	1.834086191e-08 	0.005847107479 	3.159969716e-08 	1.114621197e-05
0.9194627831 	0.005394136976 	0.002734270081 	1.797992299e-08 	0.005939619886 	3.098287057e-08 	1.132256634e-05
0.9211960055 	0.005476520123 	0.002776958206 	1.762403871e-08 	0.00603098664 	3.037667908e-08 	1.149673676e-05
0.9229101006 	0.005557836343 	0.00281906632 	1.726774982e-08 	0.006121177962 	2.978147141e-08 	1.166866649e-05