6.380870453e-34 	0.6080555878 	-2.484012572e-14 	-1.426586397e-21
0.0003225556171 	0.6080589591 	-6.717461166e-06 	3.191280519e-10
0.000645110925 	0.6080699468 	-1.255819032e-05 	5.880475476e-10
0.0009676659232 	0.6080891604 	-1.844598377e-05 	8.48572895e-10
0.001290220611 	0.6081162857 	-2.4514673e-05 	1.108386403e-09
0.001612774989 	0.608151258 	-3.058931461e-05 	1.358838382e-09
0.001935329056 	0.6081940456 	-3.667392817e-05 	1.600085139e-09
0.002257882812 	0.6082446248 	-4.276492289e-05 	1.83191497e-09
0.002580436257 	0.608302974 	-4.886170967e-05 	2.054286088e-09
0.00290298939 	0.6083690715 	-5.496342089e-05 	2.26713725e-09
0.003225542212 	0.6084428939 	-6.106976474e-05 	2.470434959e-09
0.003548094721 	0.6085244163 	-6.718068901e-05 	2.664157533e-09
0.003870646918 	0.6086136114 	-7.329627744e-05 	2.848290395e-09
0.004193198803 	0.6087104497 	-7.94166889e-05 	3.022823053e-09
0.004515750376 	0.6088148991 	-8.554213001e-05 	3.18774779e-09
0.004838301637 	0.6089269252 	-9.167283759e-05 	3.343058853e-09
0.005160852584 	0.6090464905 	-9.780906757e-05 	3.488751943e-09
0.00548340322 	0.6091735551 	-0.0001039510876 	3.624823884e-09
0.005805953543 	0.6093080761 	-0.0001100991719 	3.751272422e-09
0.006128503553 	0.6094500077 	-0.000116253598 	3.868096078e-09
0.006451053251 	0.6095993015 	-0.0001224146442 	3.975294064e-09
0.006773602636 	0.6097559058 	-0.0001285825873 	4.072866223e-09
0.00709615171 	0.6099197658 	-0.0001347577014 	4.160812991e-09
0.007418700471 	0.6100908241 	-0.0001409402568 	4.239135381e-09
0.00774124892 	0.6102690196 	-0.0001471305182 	4.307834966e-09
0.008063797057 	0.6104542883 	-0.0001533287454 	4.366913861e-09
0.008386344883 	0.6106465627 	-0.0001595351965 	4.416374642e-09
0.008708892398 	0.6108457713 	-0.0001657501223 	4.456220558e-09
0.009031439602 	0.611051838 	-0.0001719736885 	4.486457163e-09
0.009353986494 	0.6112646787 	-0.0001782058251 	4.507092351e-09
0.009676533077 	0.611515462 	-0.0001853231738 	4.539378212e-09
0.01017769553 	0.6118408649 	-0.0001942337512 	4.517827684e-09
0.01068827656 	0.6122177598 	-0.0002041590828 	4.492024126e-09
0.01120845316 	0.6126180371 	-0.0002142962054 	4.441069784e-09
0.01173840565 	0.6130423754 	-0.0002246511062 	4.363589836e-09
0.01227831774 	0.6134914335 	-0.0002352297743 	4.258158408e-09
0.01282837659 	0.6139658542 	-0.0002460381975 	4.123298873e-09
0.01338877288 	0.6144662644 	-0.0002570824819 	3.957480352e-09
0.01395970086 	0.6149932747 	-0.0002683688709 	3.759116421e-09
0.01454135846 	0.6155474784 	-0.000279903736 	3.526564338e-09
0.0151339473 	0.6161294504 	-0.0002916935706 	3.258124303e-09
0.0157376728 	0.6167397465 	-0.0003037449862 	2.952038833e-09
0.01635274424 	0.6173789029 	-0.0003160647069 	2.606492308e-09
0.01697937483 	0.6180474351 	-0.0003286595656 	2.219610719e-09
0.01761778179 	0.6187458379 	-0.0003415364981 	1.789461661e-09
0.01826818643 	0.6194745851 	-0.0003547025335 	1.314054602e-09
0.0189308142 	0.6202341294 	-0.000368164818 	7.913415927e-10
0.0196058948 	0.6210249018 	-0.0003819305969 	2.192180919e-10
0.01985315174 	0.6213207345 	-0.0003869939183 	-1.054734283e-08
0.02029366225 	0.6218477627 	-0.0003960150704 	4.075578253e-10
0.02099588292 	0.6227039539 	-0.0004104394065 	1.093457915e-09
0.0217124055 	0.6235938085 	-0.0004252094399 	1.839851322e-09
0.02244239383 	0.6245169256 	-0.0004403195979 	2.647615533e-09
0.02318610096 	0.6254733106 	-0.0004557719987 	3.519602031e-09
0.0239437847 	0.6264632807 	-0.0004715743871 	4.458805447e-09
0.02471570767 	0.6274871358 	-0.0004877345252 	5.468337436e-09
0.02550213747 	0.6285451604 	-0.0005042602552 	6.551430595e-09
0.02630334669 	0.6296376243 	-0.0005211594742 	7.711441591e-09
0.02711961307 	0.630764784 	-0.0005384401371 	8.951854457e-09
0.02795121954 	0.6319268834 	-0.0005561102537 	1.027628379e-08
0.02879845437 	0.6331241552 	-0.0005741778876 	1.168847793e-08
0.02966161124 	0.6343568216 	-0.0005926511536 	1.319232208e-08
0.03054098934 	0.6356250954 	-0.0006115382166 	1.479184141e-08
0.03143689349 	0.636929181 	-0.0006308472891 	1.649120407e-08
0.03234963424 	0.6382692753 	-0.00065058663 	1.829472421e-08
0.03327952795 	0.6396455683 	-0.0006707645421 	2.020686483e-08
0.03422689696 	0.6410582441 	-0.0006913893706 	2.223224068e-08
0.03519206965 	0.6425074817 	-0.0007124695005 	2.4375621e-08
0.03617538056 	0.6439934552 	-0.0007340133538 	2.664193209e-08
0.03717717053 	0.6455163345 	-0.0007560293816 	2.903625981e-08
0.03819778679 	0.6470762853 	-0.0007785260789 	3.156385281e-08
0.0392375831 	0.648673469 	-0.0008015120153 	3.423012628e-08
0.04029691988 	0.6503084251 	-0.0008250011693 	3.704112796e-08
0.04137715132 	0.6519827791 	-0.0008490231365 	4.000724202e-08
0.04248044704 	0.6536974269 	-0.0008735972425 	4.314042613e-08
0.04360447683 	0.6554511189 	-0.0008987117493 	4.643776501e-08
0.0447496303 	0.6572429738 	-0.0009243603025 	4.990412828e-08
0.04591630441 	0.6590731451 	-0.0009505516071 	5.354592599e-08
0.04710490354 	0.6609417823 	-0.0009772942123 	5.736972196e-08
0.04831583968 	0.6628490317 	-0.001004596734 	6.138225335e-08
0.04954953259 	0.6647950367 	-0.001032467746 	6.559042586e-08
0.05080640988 	0.6667799373 	-0.001060915796 	7.000131527e-08
0.05208690721 	0.668803869 	-0.001089949391 	7.462216801e-08
0.05339146842 	0.6708669604 	-0.001119576995 	7.946040212e-08
0.0547205457 	0.6729693285 	-0.001149807011 	8.452360855e-08
0.05607459972 	0.6751110684 	-0.001180647772 	8.981955282e-08
0.05745409982 	0.6772922313 	-0.001212107562 	9.53561779e-08
0.05885952414 	0.679512778 	-0.001244194542 	1.011416258e-07
0.06029135983 	0.6817727761 	-0.001276920091 	1.071849306e-07
0.06175082976 	0.6840735129 	-0.001310316567 	1.13501678e-07
0.06324165326 	0.6864151743 	-0.001344426174 	1.20113203e-07
0.06476049349 	0.6890998547 	-0.001383703535 	1.273966068e-07
0.06709213948 	0.6924332197 	-0.001432704528 	1.379183869e-07
0.06944979626 	0.6960892342 	-0.001486721756 	1.405472315e-07
0.07183375399 	0.6997714528 	-0.001541347128 	1.383803181e-07
0.07424430605 	0.703481922 	-0.001596539666 	1.357650961e-07
0.07668174913 	0.7072213428 	-0.001652295924 	1.326934826e-07
0.0791463832 	0.7109897904 	-0.001708605775 	1.291584718e-07
0.08163851157 	0.7147895345 	-0.001765494127 	1.251582267e-07
0.08416496108 	0.7186231842 	-0.001822992508 	1.206408844e-07
0.08672030433 	0.7224881658 	-0.001881053597 	1.156430655e-07
0.08930415545 	0.7263816291 	-0.001939624388 	1.1015926e-07
0.09191683248 	0.7303031542 	-0.001998687661 	1.041836923e-07
0.09455865701 	0.7342526047 	-0.002058229188 	9.77112064e-08
0.09722995422 	0.738229873 	-0.00211823445 	9.073680805e-08
0.0999310529 	0.7422353303 	-0.002178694875 	8.325612541e-08
0.1026635218 	0.7462715671 	-0.002239634087 	7.525683296e-08
0.1054324181 	0.7503404122 	-0.002301063265 	6.670142309e-08
0.1082322065 	0.7544391324 	-0.00236292261 	5.763300337e-08
0.1110632316 	0.7585657267 	-0.002425162136 	4.804613194e-08
0.1139258419 	0.7627203021 	-0.002487762767 	3.793764721e-08
0.1168203898 	0.766902979 	-0.002550704495 	2.730459432e-08
0.1197472317 	0.7711141141 	-0.002613969808 	1.614430609e-08
0.12270736 	0.7753563462 	-0.002677573937 	4.449275173e-09
0.1238093945 	0.7769272199 	-0.002701068835 	2.86069515e-08
0.1257069328 	0.7796320276 	-0.00274152843 	7.874904661e-09
0.128739973 	0.7839386914 	-0.002805767951 	2.075543295e-08
0.1318068542 	0.7882744299 	-0.002870234193 	3.416377977e-08
0.1349079538 	0.7926395033 	-0.002934901351 	4.809951178e-08
0.1380436537 	0.7970341806 	-0.002999742182 	6.25615566e-08
0.14121434 	0.8014600259 	-0.003064747067 	7.754904699e-08
0.1444241869 	0.8059198082 	-0.003129922244 	9.309004396e-08
0.1476729191 	0.8104135779 	-0.003195231735 	1.091647941e-07
0.1509579006 	0.8149392844 	-0.003260607241 	1.257399381e-07
0.1542795359 	0.8194963154 	-0.003326000252 	1.428073307e-07
0.1576382339 	0.8240850855 	-0.003391375182 	1.603583665e-07
0.1610344082 	0.8287070784 	-0.003456709369 	1.78384482e-07
0.1644716629 	0.8333650725 	-0.003521995724 	1.969002868e-07
0.1679506875 	0.8380596583 	-0.003587192963 	2.158807537e-07
0.1714685328 	0.8427890899 	-0.003652224689 	2.352775318e-07
0.1750256321 	0.847552887 	-0.003717030199 	2.550701402e-07
0.1786224232 	0.8523516997 	-0.003781561251 	2.752376513e-07
0.182259349 	0.8571878701 	-0.003845788453 	2.957600894e-07
0.1859420126 	0.8620644422 	-0.003909687088 	3.166464724e-07
0.1896669197 	0.8669807487 	-0.003973178407 	3.378214439e-07
0.193433393 	0.8719356621 	-0.004036174564 	3.459171529e-07
0.1972418962 	0.8769298064 	-0.004098606338 	3.324421521e-07
0.2010928983 	0.8819651757 	-0.004160416098 	3.184683892e-07
0.2049898859 	0.8870449509 	-0.004221554283 	3.039817859e-07
0.2089333194 	0.8921703529 	-0.00428194013 	2.89016521e-07
0.2129207593 	0.8973407006 	-0.004341464555 	2.736208958e-07
0.2169526964 	0.9025565365 	-0.004400027391 	2.578127905e-07
0.2210296273 	0.9078202645 	-0.004457542098 	2.41614372e-07
0.2251548737 	0.913135444 	-0.00451392564 	2.250265319e-07
0.2293289488 	0.9185038456 	-0.004569065891 	2.080987905e-07
0.2335496053 	0.9239254724 	-0.004622824552 	1.90890767e-07
0.2378173632 	0.9294014999 	-0.004675067832 	1.734351901e-07
0.2421327478 	0.9349352822 	-0.00472567296 	1.55769299e-07
0.2465003553 	0.9405309767 	-0.004774512262 	1.379079962e-07
0.250917877 	0.9461898972 	-0.004821420915 	1.199452723e-07
0.2553846982 	0.9519129234 	-0.004866221623 	1.019426274e-07
0.259901369 	0.9577027942 	-0.004908741999 	8.395617353e-08
0.2644698782 	0.9635638816 	-0.004948808522 	6.603823735e-08
0.2690927907 	0.969499919 	-0.004986228436 	4.826846582e-08
0.273767296 	0.97551227 	-0.005020781502 	3.075949483e-08
0.2784939697 	0.9816032184 	-0.005052243078 	1.359553954e-08
0.2823705472 	0.9866109439 	-0.0050750714 	4.780765489e-07
0.283273557 	0.98777751 	-0.005080388553 	3.145691425e-09
0.2881107851 	0.9940403729 	-0.005104979274 	1.940925966e-08
0.2930019987 	1.000393833 	-0.005125747216 	3.497783621e-08
0.2979478001 	1.006840532 	-0.005142415225 	4.973498576e-08
0.3029487983 	1.013385755 	-0.005154700181 	6.354873326e-08
0.3080095909 	1.020035458 	-0.005162292218 	7.646324668e-08
0.3131269609 	1.026792558 	-0.005165156098 	8.804278686e-08
0.3183014433 	1.033660581 	-0.005162439429 	9.804384718e-08
0.323534034 	1.040646975 	-0.005153444322 	1.072423195e-07
0.3288283649 	1.047761024 	-0.005138769437 	1.145971291e-07
0.3341817839 	1.055007483 	-0.005117705233 	1.194545617e-07
0.33959495 	1.06239012 	-0.005089385706 	1.225700413e-07
0.3450698045 	1.069914325 	-0.005053751966 	1.23605356e-07
0.3506078229 	1.077584288 	-0.005010420734 	1.224329289e-07
0.3562076492 	1.08540184 	-0.004959067274 	1.189765773e-07
0.3618699728 	1.093369195 	-0.004899396102 	1.13231768e-07
0.3675979394 	1.101488243 	-0.00483117026 	1.052625284e-07
0.3733903722 	1.109756586 	-0.004754268539 	9.524686153e-08
0.3792474522 	1.118169194 	-0.004668712033 	8.354036738e-08
0.3851709504 	1.126719074 	-0.004574692892 	7.068599478e-08
0.3911621639 	1.135394564 	-0.004472635785 	5.742292206e-08
0.3972202431 	1.144178204 	-0.004363238989 	4.467974994e-08
0.4033461698 	1.153049462 	-0.004247446098 	3.347550156e-08
0.4095425735 	1.161984831 	-0.004126411662 	2.477679028e-08
0.415808133 	1.170956612 	-0.004001455425 	1.933010423e-08
0.4221436196 	1.179938049 	-0.003873897945 	1.742661669e-08
0.4285517109 	1.188905695 	-0.003744908894 	1.881137094e-08
0.4350314771 	1.19783875 	-0.003615419038 	2.167949977e-08
0.4415835607 	1.206722786 	-0.003486003974 	2.545992813e-08
0.448210299 	1.215549854 	-0.003356854683 	2.914263268e-08
0.4549112516 	1.224314543 	-0.003227846532 	3.177946693e-08
0.4616869897 	1.233012759 	-0.003098638966 	3.290321475e-08
0.4685397235 	1.241638535 	-0.002968791163 	3.242758562e-08
0.4754691032 	1.250178064 	-0.002838049859 	3.085450546e-08
0.4824758482 	1.258605004 	-0.002706295995 	2.860475094e-08
0.48956208 	1.266872935 	-0.002574359203 	2.737368518e-08
0.4967273963 	1.274887125 	-0.00244364179 	2.641140388e-08
0.5038929853 	1.28247736 	-0.002315800571 	2.581889401e-08
0.5109803352 	1.289456879 	-0.002195144823 	2.890625318e-08
0.5179894793 	1.295653818 	-0.002085171667 	3.290638612e-08
0.524921636 	1.300883161 	-0.001987835464 	3.737013338e-08
0.531777805 	1.304990027 	-0.001905307417 	4.229913149e-08
0.538558318 	1.307928604 	-0.001837506719 	4.537857789e-08
0.5452643442 	1.309795186 	-0.00178214898 	4.667409033e-08
0.5518967112 	1.310783287 	-0.001736067933 	4.626283396e-08
0.5584558909 	1.311103575 	-0.00169639199 	4.488055901e-08
0.5649429425 	1.310929433 	-0.001660951728 	4.298013224e-08
0.5713586812 	1.310382312 	-0.001628292063 	4.092088989e-08
0.5777036221 	1.309538448 	-0.001597407106 	3.887860237e-08
0.583978692 	1.30843977 	-0.001567567966 	3.696758996e-08
0.5901847713 	1.307102103 	-0.001538143133 	3.5277962e-08
0.5963223658 	1.305519209 	-0.001508482553 	3.393046e-08
0.6023922714 	1.303662761 	-0.001477760948 	3.308572085e-08
0.6083954574 	1.30147896 	-0.001444806148 	3.311336926e-08
0.6143323969 	1.298883336 	-0.001407865685 	3.44128863e-08
0.6202038208 	1.295757984 	-0.00136431591 	3.79046715e-08
0.6260106295 	1.291961409 	-0.001310854331 	4.379629828e-08
0.6317534071 	1.287362446 	-0.001243378994 	5.313255556e-08
0.6374328113 	1.281894392 	-0.00116013776 	6.295263359e-08
0.6430495922 	1.27559541 	-0.00106011676 	7.39451329e-08
0.6486045051 	1.268586092 	-0.0009438638463 	8.476881086e-08
0.6540981175 	1.261015275 	-0.0008173983788 	8.973593401e-08
0.6595311055 	1.253031843 	-0.0006840160062 	9.32125367e-08
0.6649042208 	1.244766978 	-0.0005455986379 	9.544414669e-08
0.6702180788 	1.236321836 	-0.0004056685444 	9.497926878e-08
0.6754732958 	1.227769698 	-0.0002661294859 	9.341641603e-08
0.680670519 	1.219163211 	-0.0001284215944 	9.074603783e-08
0.6858104664 	1.210540992 	6.376686638e-06 	8.734171717e-08
0.6908936988 	1.201932372 	0.0001374635413 	8.337278178e-08
0.695920835 	1.193360004 	0.0002642333192 	7.898338544e-08
0.7008924939 	1.184841194 	0.0003862361999 	7.427888958e-08
0.7058093461 	1.17638907 	0.0005031438611 	6.93707784e-08
0.7106719389 	1.168013719 	0.0006147320736 	6.437121231e-08
0.7154808702 	1.159722855 	0.0007208463458 	5.938990011e-08
0.720236732 	1.151522245 	0.0008214786058 	5.4607476e-08
0.724940145 	1.143416043 	0.0009163425885 	5.001227646e-08
0.729591658 	1.135383185 	0.001006013175 	4.576868878e-08
0.7341918387 	1.127353728 	0.001092334818 	4.230044714e-08
0.7387412535 	1.119250199 	0.001177225278 	3.95978808e-08
0.7432404775 	1.111039923 	0.001261409551 	3.730924912e-08
0.7476900611 	1.102733217 	0.001344250067 	3.490531156e-08
0.7520905407 	1.094363763 	0.001424887498 	3.189371855e-08
0.7564424581 	1.085979062 	0.001502252366 	2.805487913e-08
0.7607463499 	1.077636718 	0.001575093837 	2.338030976e-08
0.7650027615 	1.069402147 	0.001642046511 	1.79822796e-08
0.7692122007 	1.061343249 	0.00170178966 	1.213873352e-08
0.773375186 	1.053518804 	0.00175337237 	6.486961286e-09
0.7774922298 	1.045960009 	0.001796253234 	1.935328392e-09
0.781563842 	1.038647449 	0.001832194545 	-7.554958515e-10
0.7855905287 	1.031504656 	0.001863228292 	-1.95164935e-09
0.7895727781 	1.024452104 	0.001889834576 	-2.749163899e-09
0.7935110805 	1.017461245 	0.001913235107 	-3.254380701e-09
0.797405921 	1.010531325 	0.001933774156 	-3.487914802e-09
0.8012577807 	1.003661105 	0.001951214038 	-3.734924694e-09
0.8050671369 	0.9968494422 	0.001965833419 	-3.953281215e-09
0.8088344542 	0.9900951519 	0.001977767646 	-4.169481291e-09
0.8125601965 	0.9833969479 	0.001987148442 	-4.385095008e-09
0.8162448224 	0.9767534285 	0.00199409443 	-4.596584408e-09
0.8198887859 	0.9701630973 	0.001998717396 	-4.798537693e-09
0.8234925387 	0.963624401 	0.002001121843 	-4.987231093e-09
0.8270565217 	0.9571357728 	0.002001405904 	-5.161082727e-09
0.8305811736 	0.9506956611 	0.00199966185 	-5.320272527e-09
0.8340669283 	0.9443025466 	0.001995976583 	-5.46631192e-09
0.8375142152 	0.9379549487 	0.001990432122 	-5.601496902e-09
0.8409234592 	0.9316514199 	0.00198310604 	-5.728462193e-09
0.844295081 	0.9253905352 	0.001974071923 	-5.849988568e-09
0.8476294945 	0.9191708808 	0.001963399776 	-5.968601339e-09
0.8509271103 	0.9129910395 	0.001951156357 	-6.086471693e-09
0.8541883344 	0.90684958 	0.001937405486 	-6.205419193e-09
0.8574135685 	0.9007450482 	0.001922208312 	-6.326900619e-09
0.8606032099 	0.8946759593 	0.001905623528 	-6.452024935e-09
0.8637576519 	0.888640792 	0.00188770757 	-6.581686949e-09
0.8668772823 	0.8826379815 	0.001868514797 	-6.716441436e-09
0.8699624852 	0.8766659131 	0.001848097629 	-6.856538215e-09
0.8730136406 	0.8707229135 	0.001826506685 	-7.002009059e-09
0.8760311243 	0.8648072442 	0.001803790907 	-7.152700793e-09
0.8790153077 	0.8589170911 	0.001779997665 	-7.308304303e-09
0.8819665587 	0.8530505547 	0.001755172851 	-7.46841768e-09
0.8848852405 	0.8472056375 	0.001729360975 	-7.632598101e-09
0.8877717125 	0.8413802297 	0.001702605246 	-7.800225199e-09
0.8906263301 	0.8355720913 	0.001674947626 	-7.970600628e-09
0.8934494449 	0.8297788321 	0.001646428907 	-8.142968028e-09
0.8962414044 	0.8239978871 	0.001617088766 	-8.31652457e-09
0.8990025526 	0.8182264882 	0.001586965816 	-8.490430623e-09
0.9017332295 	0.8124616299 	0.00155609765 	-8.663850353e-09
0.9044337714 	0.8067000306 	0.001524520891 	-8.83597705e-09
0.9071045107 	0.8009380877 	0.001492271238 	-9.00591033e-09
0.9097457765 	0.7951718281 	0.001459383495 	-9.172725571e-09
0.9123578938 	0.789396857 	0.001425891627 	-9.335474892e-09
0.9149411845 	0.7836083059 	0.0013918288 	-9.493179483e-09
0.9174959666 	0.777800788 	0.001357227417 	-9.644817939e-09
0.9200225548 	0.7719683632 	0.001322119318 	-9.789310537e-09
0.9225212602 	0.7661045208 	0.001286535436 	-9.925554109e-09
0.9249923905 	0.7602021811 	0.001250507437 	-1.005229065e-08
0.92743625 	0.7542537125 	0.001214052466 	-1.016812815e-08
0.9298531397 	0.748250962 	0.001177229593 	-1.027165911e-08
0.9322433571 	0.7426957654 	0.001143184258 	-1.035392431e-08
0.9338003482 	0.7381613891 	0.001115424797 	-1.041052399e-08
0.9353286156 	0.7341479526 	0.001090930504 	-1.045214672e-08
0.936828689 	0.7301468493 	0.001066603104 	-1.048556884e-08
0.9383010886 	0.7261574753 	0.001042436337 	-1.051058292e-08
0.9397463251 	0.7221793212 	0.001018444935 	-1.052710489e-08
0.9411648994 	0.7182119363 	0.0009946375523 	-1.053515265e-08
0.9425573035 	0.7142548907 	0.0009710223703 	-1.053476553e-08
0.9439240201 	0.7103077408 	0.0009476068396 	-1.052600854e-08
0.9452655232 	0.706370001 	0.0009243978741 	-1.050897107e-08
0.9465822779 	0.7024411235 	0.0009014018258 	-1.048376019e-08
0.9478747407 	0.6985204847 	0.0008786245282 	-1.045049525e-08
0.9491433598 	0.694607377 	0.0008560713367 	-1.0409304e-08
0.950388575 	0.6907010056 	0.0008337471687 	-1.036031975e-08
0.9516108182 	0.6868004867 	0.0008116565394 	-1.030367946e-08
0.9528105132 	0.6829048473 	0.0007898035973 	-1.023952241e-08
0.9539880758 	0.6790130249 	0.0007681921573 	-1.016798925e-08
0.9551439144 	0.6751238674 	0.0007468257315 	-1.008922154e-08
0.9562784298 	0.6712361315 	0.0007257075604 	-1.000336135e-08
0.9573920154 	0.6673484808 	0.000704840641 	-9.910551046e-09
0.9584850572 	0.6634594823 	0.000684227755 	-9.810933247e-09
0.9595579343 	0.6595676024 	0.0006638714958 	-9.704650943e-09
0.9606110187 	0.6556712013 	0.0006437742933 	-9.591852461e-09
0.9616446755 	0.651768526 	0.00062393844 	-9.47268299e-09
0.9626592631 	0.6478577031 	0.0006043661141 	-9.347285658e-09
0.9636551333 	0.6439367291 	0.0005850594024 	-9.215804046e-09
0.9646326314 	0.6400034601 	0.0005660203226 	-9.078382394e-09
0.9655920964 	0.6360556002 	0.0005472508444 	-8.935165818e-09
0.9665338609 	0.6320906876 	0.0005287529102 	-8.786300586e-09
0.9674582514 	0.6281060797 	0.000510528454 	-8.631934441e-09
0.9683655886 	0.6240989362 	0.0004925794208 	-8.472216973e-09
0.969256187 	0.6200661996 	0.0004749077837 	-8.307300061e-09
0.9701303553 	0.6160045742 	0.0004575155613 	-8.13733837e-09
0.9709883968 	0.6119105022 	0.0004404048331 	-7.962489915e-09
0.9718306089 	0.6077801362 	0.0004235777552 	-7.782916712e-09
0.9726572836 	0.60360931 	0.0004070365733 	-7.598785499e-09
0.9734687076 	0.5993935041 	0.0003907836356 	-7.410268556e-09
0.9742651622 	0.5951278084 	0.0003748214043 	-7.217544626e-09
0.9750469236 	0.5908068797 	0.0003591524649 	-7.02079995e-09
0.9758142629 	0.5864248944 	0.0003437795349 	-6.820229426e-09
0.9765674461 	0.5819754949 	0.0003287054694 	-6.616037902e-09
0.9773067343 	0.5774517305 	0.0003139332661 	-6.40844161e-09
0.978032384 	0.5728459897 	0.0002994660661 	-6.197669742e-09
0.9787446467 	0.5681499255 	0.0002853071536 	-5.983966169e-09
0.9794437694 	0.5633543703 	0.0002714599514 	-5.767591367e-09
0.9801299944 	0.5584492411 	0.0002579280129 	-5.548824996e-09
0.9808035598 	0.5534234324 	0.0002447150111 	-5.327966689e-09
0.9814646991 	0.5482646957 	0.0002318247218 	-5.105338688e-09
0.9821136415 	0.5429595034 	0.0002192610034 	-4.881288326e-09
0.982750612 	0.5374928957 	0.0002070277711 	-4.656190322e-09
0.9833758316 	0.5318483072 	0.0001951289659 	-4.43044905e-09
0.9839895169 	0.5260073706 	0.0001835685208 	-4.204500724e-09
0.9845918807 	0.5199496944 	0.0001723503144 	-3.978815439e-09
0.985183132 	0.5136526097 	0.000161478129 	-3.753898915e-09
0.9857634758 	0.5070908827 	0.0001509554925 	-3.530293913e-09
0.9863331132 	0.500236386 	0.0001407863319 	-3.30857981e-09
0.9868922417 	0.4930577255 	0.0001309734145 	-3.089380259e-09
0.9874410553 	0.4855198164 	0.0001215288621 	-2.873349757e-09
0.9879797443 	0.4775834073 	0.0001123919129 	-2.661311169e-09
0.9885084954 	0.4692046288 	0.0001037158286 	-2.453245155e-09
0.9890274919 	0.4611101058 	9.614934138e-05 	-2.267458433e-09
0.9893615162 	0.4541958587 	9.008715048e-05 	-2.121092988e-09
0.9896955405 	0.4477686692 	8.489506493e-05 	-1.993876765e-09
0.9900295649 	0.4409760582 	7.985629387e-05 	-1.867872598e-09
0.9903635892 	0.4337818959 	7.489440003e-05 	-1.743822751e-09
0.9906976135 	0.42614675 	7.004494241e-05 	-1.622051136e-09
0.9910316378 	0.4180276565 	6.530744239e-05 	-1.502864059e-09
0.9913656622 	0.409377939 	6.068568105e-05 	-1.386602084e-09
0.9916996865 	0.4001470452 	5.61829572e-05 	-1.273611799e-09
0.9920337108 	0.3902804254 	5.180319895e-05 	-1.16424031e-09
0.9923677351 	0.3797195028 	4.755105734e-05 	-1.058833089e-09
0.9927017594 	0.3684018347 	4.34327284e-05 	-9.577308058e-10
0.9930357838 	0.3562616447 	3.945703851e-05 	-8.612600045e-10
0.9933698081 	0.343231037 	3.563655064e-05 	-7.697075344e-10
0.9937038324 	0.3292423787 	3.19875441e-05 	-6.832608887e-10
0.9940378567 	0.3142325237 	2.85262291e-05 	-6.019043945e-10
0.9943718811 	0.2981496235 	2.525775987e-05 	-5.253261192e-10
0.9947059054 	0.2809629771 	2.215913133e-05 	-4.530271268e-10
0.9950399297 	0.2626753408 	1.917125331e-05 	-3.848466324e-10
0.995373954 	0.2433351308 	1.622785151e-05 	-3.216384393e-10
0.9957079784 	0.2230435774 	1.332477502e-05 	-2.650921051e-10
0.9960420027 	0.2019510351 	1.056833784e-05 	-2.161884221e-10
0.996376027 	0.1802396277 	8.125001902e-06 	-1.738712956e-10
0.9967100513 	0.158096083 	6.099977897e-06 	-1.359515788e-10
0.9970440756 	0.135684556 	4.47306965e-06 	-1.012921177e-10
0.9973781 	0.1131293065 	3.151616477e-06 	-7.052177975e-11
0.9977121243 	0.09051113519 	2.061128918e-06 	-4.487349736e-11
0.9980461486 	0.0678746175 	1.182437718e-06 	-2.503625085e-11
0.9983801729 	0.04523998587 	5.334096333e-07 	-1.107044047e-11
0.9987141973 	0.02261433599 	1.445882321e-07 	-2.962552142e-12
0.9990482216 	0.009538459401 	1.63672705e-08 	-3.273857079e-13
0.9990482216 	0.009538459401 	1.63672705e-08 	-3.273857079e-13
