0 	-0.003509468768 	1.43367888e-16 	8.233721563e-24 	-5.856826962e-30 	-3.363618111e-37 	-1.931750224e-44
0.0003149815133 	-0.003528272371 	-3.91319771e-06 	-3.982907484e-09 	0.001445274017 	-5.768188958e-08 	2.75509397e-06
0.0006299624726 	-0.003531984296 	-0.0001661776161 	-8.329110222e-10 	0.00169437236 	-5.894208788e-08 	3.229944645e-06
0.0009449428773 	-0.003523233045 	-0.0002570972679 	-6.713665451e-10 	0.001735176866 	-4.883668518e-08 	3.307729374e-06
0.001259922727 	-0.003530020799 	-0.0003451586744 	-5.971351133e-10 	0.001760650902 	-3.754196607e-08 	3.356289967e-06
0.00157490202 	-0.003531682017 	-0.0004323009327 	-4.836661346e-10 	0.001768993467 	-2.554598818e-08 	3.372193214e-06
0.001889880757 	-0.003534336442 	-0.0005191276813 	-2.998379782e-10 	0.001777767138 	-1.346768904e-08 	3.38891827e-06
0.002204858937 	-0.003537507435 	-0.0006058326113 	-3.409262053e-11 	0.001786885132 	-1.323042396e-09 	3.4062997e-06
0.002239077857 	-0.003537910392 	-0.0006152469713 	-5.573590273e-10 	0.00178796 	-1.165221679e-06 	3.408348698e-06
0.002519836559 	-0.00354123313 	-0.00069248843 	-3.360965114e-10 	0.001796787907 	-1.124153356e-08 	3.425177141e-06
0.002834813624 	-0.003545450667 	-0.0007791296298 	-8.054193896e-10 	0.001807569157 	-2.390308962e-08 	3.445729201e-06
0.00314979013 	-0.003550167164 	-0.0008657733365 	-1.376512561e-09 	0.001819362243 	-3.661754706e-08 	3.468210101e-06
0.003464766077 	-0.003555385781 	-0.0009524291041 	-2.05387322e-09 	0.001832235227 	-4.93875611e-08 	3.492749587e-06
0.003779741465 	-0.003561109252 	-0.001039102607 	-2.842311348e-09 	0.001846228747 	-6.221665737e-08 	3.519425124e-06
0.004094716294 	-0.003567339992 	-0.001125797346 	-3.74704108e-09 	0.001861368271 	-7.510859816e-08 	3.548285265e-06
0.004409690564 	-0.003574080653 	-0.001212515462 	-4.773725833e-09 	0.001877671318 	-8.806710566e-08 	3.579363404e-06
0.004724664274 	-0.00358133403 	-0.001299258158 	-5.928500417e-09 	0.001895150406 	-1.010956747e-07 	3.612683403e-06
0.005039637424 	-0.003589103039 	-0.001386025918 	-7.217981672e-09 	0.001913814842 	-1.141974547e-07 	3.648263005e-06
0.005354610015 	-0.003597390718 	-0.001472818622 	-8.649272758e-09 	0.001933671805 	-1.273751663e-07 	3.686115896e-06
0.005669582045 	-0.003606200212 	-0.001559635608 	-1.022996294e-08 	0.001954727012 	-1.406310394e-07 	3.726252973e-06
0.005984553517 	-0.003615534776 	-0.001646475698 	-1.196812544e-08 	0.001976985134 	-1.539667619e-07 	3.768683139e-06
0.006299524428 	-0.003625397773 	-0.001733337206 	-1.387231275e-08 	0.002000450062 	-1.673834369e-07 	3.813413814e-06
0.00661449478 	-0.003635792685 	-0.001820217935 	-1.59515513e-08 	0.002025125089 	-1.808815451e-07 	3.860451273e-06
0.006929464573 	-0.003646723158 	-0.00190711516 	-1.821533486e-08 	0.002051013034 	-1.944609142e-07 	3.909800893e-06
0.007244433807 	-0.003658193095 	-0.001994025595 	-2.06736188e-08 	0.002078116361 	-2.081206937e-07 	3.961467367e-06
0.007559402482 	-0.003670206879 	-0.002080945326 	-2.333681742e-08 	0.002106437314 	-2.218593409e-07 	4.015454974e-06
0.007874370599 	-0.003682769914 	-0.002167869685 	-2.621581013e-08 	0.002135978305 	-2.356746446e-07 	4.071768315e-06
0.008189338158 	-0.003695889679 	-0.002254792981 	-2.932196907e-08 	0.002166742448 	-2.49563792e-07 	4.13041332e-06
0.008504305159 	-0.003709577949 	-0.002341707951 	-3.266723675e-08 	0.002198734661 	-2.635236927e-07 	4.19139937e-06
0.008819271603 	-0.003723851566 	-0.002428605019 	-3.626424755e-08 	0.00223195415 	-2.775498121e-07 	4.254724949e-06
0.009134237491 	-0.003738748814 	-0.002515463345 	-4.012772644e-08 	0.002266419831 	-2.916392833e-07 	4.320426116e-06
0.009449202822 	-0.003756583262 	-0.00261437157 	-4.461627803e-08 	0.002307219716 	-3.058865888e-07 	4.398202038e-06
0.009938585273 	-0.003779797938 	-0.002737661896 	-5.129865637e-08 	0.002360327018 	-3.278390845e-07 	4.499439316e-06
0.01043716429 	-0.003806543433 	-0.00287416084 	-5.906635062e-08 	0.002421893847 	-3.504732863e-07 	4.616802803e-06
0.01094511266 	-0.003834893504 	-0.003012485023 	-6.769378017e-08 	0.002487273726 	-3.736340312e-07 	4.741435023e-06
0.01146260645 	-0.003864944496 	-0.003152569666 	-7.724643561e-08 	0.002556592073 	-3.973126332e-07 	4.873575058e-06
0.011989825 	-0.003896751515 	-0.003294327206 	-8.779387567e-08 	0.002629925428 	-4.214884923e-07 	5.013368816e-06
0.01252695103 	-0.003930357815 	-0.0034376655 	-9.94073618e-08 	0.00270734399 	-4.46135912e-07 	5.160950113e-06
0.01307417071 	-0.003965796207 	-0.003582486199 	-1.121596232e-07 	0.002788903376 	-4.712216009e-07 	5.316424971e-06
0.01363167369 	-0.004003091693 	-0.003728684358 	-1.261245214e-07 	0.002874645767 	-4.967050037e-07 	5.479873799e-06
0.01419965319 	-0.004042262324 	-0.00387614841 	-1.413766077e-07 	0.002964599522 	-5.22538171e-07 	5.651350657e-06
0.01477830605 	-0.004083319494 	-0.004024760349 	-1.579906064e-07 	0.00305877878 	-5.486657321e-07 	5.830882499e-06
0.01536783281 	-0.004126267912 	-0.004174396067 	-1.760408308e-07 	0.003157182895 	-5.750249344e-07 	6.018468091e-06
0.01596843781 	-0.004171105483 	-0.00432492581 	-1.956005472e-07 	0.003259795931 	-6.015458086e-07 	6.214077058e-06
0.01658032918 	-0.004217823198 	-0.004476214723 	-2.167412958e-07 	0.003366586287 	-6.281514723e-07 	6.417649158e-06
0.01720371899 	-0.004266405048 	-0.00462812346 	-2.395321801e-07 	0.003477506361 	-6.547585658e-07 	6.629093647e-06
0.0178388233 	-0.004316828207 	-0.004780508881 	-2.640391441e-07 	0.003592492843 	-6.812778674e-07 	6.848289841e-06
0.01848586221 	-0.004369062474 	-0.004933223571 	-2.903242397e-07 	0.00371146495 	-7.076149663e-07 	7.075083743e-06
0.01914505996 	-0.004423087509 	-0.005086162128 	-3.184406489e-07 	0.003834362737 	-7.336783703e-07 	7.309361082e-06
0.01981664503 	-0.004478922258 	-0.005239328648 	-3.484288367e-07 	0.003961215015 	-7.5939163e-07 	7.551176781e-06
0.02050358683 	-0.004536554143 	-0.005392667708 	-3.805075608e-07 	0.004091989259 	-7.847046352e-07 	7.800468838e-06
0.02120541641 	-0.004595938392 	-0.005546067066 	-4.147302863e-07 	0.004226585695 	-8.095227292e-07 	8.057047054e-06
0.02192043459 	-0.004656952813 	-0.005699210411 	-4.510034583e-07 	0.004364720618 	-8.337319525e-07 	8.320370608e-06
0.02264888916 	-0.004719455699 	-0.005851748686 	-4.893761512e-07 	0.004506060241 	-8.572098163e-07 	8.589803214e-06
0.02339103257 	-0.004783379364 	-0.006003556039 	-5.298778198e-07 	0.004650439007 	-8.798635192e-07 	8.86502927e-06
0.02414712203 	-0.004848645689 	-0.006154493141 	-5.72528987e-07 	0.004797670109 	-9.016060457e-07 	9.145692671e-06
0.02491741955 	-0.004915173278 	-0.006304426871 	-6.173429562e-07 	0.004947560453 	-9.223569745e-07 	9.431425326e-06
0.0257021921 	-0.00498287784 	-0.006453230603 	-6.643256158e-07 	0.005099911199 	-9.420433752e-07 	9.721848192e-06
0.02650171163 	-0.005051673195 	-0.006600784951 	-7.07122323e-07 	0.005254519984 	-9.520474875e-07 	1.001657551e-05
0.02731625522 	-0.005121472105 	-0.006746978461 	-7.103358914e-07 	0.005411182762 	-9.083503863e-07 	1.03152183e-05
0.02814610515 	-0.0051921871 	-0.006891708223 	-7.113501542e-07 	0.005569695637 	-8.642644847e-07 	1.06173879e-05
0.02899154899 	-0.00526373129 	-0.007034880399 	-7.100623884e-07 	0.005729856678 	-8.19935822e-07 	1.092269936e-05
0.02985287974 	-0.005336019168 	-0.007176410659 	-7.063783319e-07 	0.005891467669 	-7.755107274e-07 	1.123077483e-05
0.03073039586 	-0.005408967385 	-0.007316224517 	-7.002127774e-07 	0.0060543358 	-7.311340856e-07 	1.154124675e-05
0.03162440146 	-0.00548249547 	-0.007454257567 	-6.914900775e-07 	0.006218275245 	-6.869477981e-07 	1.18537609e-05
0.03253520634 	-0.005556526515 	-0.007590455618 	-6.801445582e-07 	0.006383108617 	-6.430892749e-07 	1.216797912e-05
0.03346312612 	-0.005630987787 	-0.007724774733 	-6.661208314e-07 	0.006548668293 	-5.996898263e-07 	1.248358187e-05
0.03440848235 	-0.005705811306 	-0.007857181159 	-6.493739859e-07 	0.006714797599 	-5.568729714e-07 	1.280027051e-05
0.03537160262 	-0.005780934393 	-0.00798765115 	-6.298696316e-07 	0.00688135184 	-5.147528138e-07 	1.311776918e-05
0.03635282068 	-0.005856300324 	-0.008116170672 	-6.075837919e-07 	0.007048199448 	-4.734326649e-07 	1.343582709e-05
0.03735247653 	-0.005931858768 	-0.008242734753 	-5.825026111e-07 	0.007215222319 	-4.330039224e-07 	1.375421911e-05
0.03837091657 	-0.006007572464 	-0.008367356823 	-5.546228843e-07 	0.007382329801 	-3.935450564e-07 	1.407277241e-05
0.03940849371 	-0.006083430691 	-0.008490086375 	-5.239564682e-07 	0.007549488319 	-3.551138457e-07 	1.439142301e-05
0.04046733527 	-0.006159491735 	-0.008611089637 	-4.904453785e-07 	0.007716823099 	-3.177009744e-07 	1.471040961e-05
0.04155102344 	-0.006235821529 	-0.00873056854 	-4.539719619e-07 	0.007884499788 	-2.812542079e-07 	1.503004798e-05
0.04265507529 	-0.00631226259 	-0.00884835206 	-4.147581223e-07 	0.008052185346 	-2.459710402e-07 	1.534970326e-05
0.0437798734 	-0.006388671108 	-0.008964270008 	-3.728351358e-07 	0.008219553015 	-2.118593425e-07 	1.566875255e-05
0.04492580757 	-0.00646506953 	-0.009078418939 	-3.28248685e-07 	0.008386643506 	-1.789154977e-07 	1.598727347e-05
0.0460932749 	-0.006541460816 	-0.009190856691 	-2.810514406e-07 	0.008553457422 	-1.471174578e-07 	1.630526716e-05
0.04728267995 	-0.006617854531 	-0.009301648602 	-2.31301066e-07 	0.008720010312 	-1.164282155e-07 	1.662276326e-05
0.04849443489 	-0.006694266776 	-0.009410865241 	-1.790595604e-07 	0.008886331471 	-8.679644922e-08 	1.693981761e-05
0.04972895962 	-0.00677072119 	-0.009518581446 	-1.243925319e-07 	0.009052465041 	-5.815679499e-08 	1.725651437e-05
0.05098668193 	-0.006847249738 	-0.009624875167 	-6.73683856e-08 	0.009218469991 	-3.042996849e-08 	1.757296594e-05
0.05226803766 	-0.006923894262 	-0.009729825774 	-8.057378214e-09 	0.009384420583 	-3.522726176e-09 	1.78893139e-05
0.05244057823 	-0.006934048054 	-0.009743531712 	7.958415536e-07 	0.009406360669 	-3.981667002e-07 	1.79311378e-05
0.05357347081 	-0.007000755696 	-0.009833466212 	-5.543818236e-08 	0.009550423822 	-2.337692356e-08 	1.820576221e-05
0.05490343374 	-0.007077869216 	-0.00993590547 	-1.214354985e-07 	0.009716576787 	-4.979282679e-08 	1.852249594e-05
0.0562583873 	-0.007155332064 	-0.01003720901 	-1.895634213e-07 	0.009883014539 	-7.575742877e-08 	1.883977255e-05
0.057638801 	-0.007233303228 	-0.0101374165 	-2.597546022e-07 	0.01004992351 	-1.014316695e-07 	1.915794745e-05
0.05904515316 	-0.007312043255 	-0.01023654879 	-3.319562551e-07 	0.01021759533 	-1.270004127e-07 	1.947757654e-05
0.06047923244 	-0.00739201716 	-0.01033464966 	-4.062075088e-07 	0.01038660142 	-1.527223797e-07 	1.979974911e-05
0.06194729124 	-0.007473997257 	-0.01043193974 	-4.828433359e-07 	0.01055799417 	-1.789564911e-07 	2.012647132e-05
0.06344293631 	-0.007569963083 	-0.0105417526 	-5.619948273e-07 	0.01075624876 	-2.058892656e-07 	2.050439968e-05
0.06573896912 	-0.007687113652 	-0.01067561957 	-6.823936598e-07 	0.01099947056 	-2.479635859e-07 	2.096804804e-05
0.06806060914 	-0.007810318749 	-0.01081956601 	-8.041437231e-07 	0.01125946407 	-2.914466923e-07 	2.146366792e-05
0.07040814194 	-0.007930592373 	-0.01096245519 	-9.263314509e-07 	0.01151670925 	-3.369254426e-07 	2.195404873e-05
0.0727818563 	-0.008049016479 	-0.01110441866 	-1.048657558e-06 	0.01177241377 	-3.851084974e-07 	2.244149262e-05
0.07518204421 	-0.008166068558 	-0.01124539535 	-1.170881049e-06 	0.01202700791 	-4.366896799e-07 	2.29268198e-05
0.07760900091 	-0.008282069978 	-0.01138550727 	-1.292774537e-06 	0.01228087798 	-4.924156729e-07 	2.341076671e-05
0.08006302493 	-0.008397323411 	-0.01152504635 	-1.413990781e-06 	0.01253454626 	-5.531795545e-07 	2.389432898e-05
0.08255609596 	-0.008512171259 	-0.01166450602 	-1.356122059e-06 	0.01278876323 	-5.482119817e-07 	2.437893716e-05
0.08507824308 	-0.008626579305 	-0.01180395912 	-1.230485333e-06 	0.01304349612 	-5.177473584e-07 	2.486452885e-05
0.08762852215 	-0.008740427997 	-0.0119433475 	-1.102602897e-06 	0.01329849356 	-4.867571428e-07 	2.535062485e-05
0.09020724696 	-0.008853834745 	-0.01208293092 	-9.735233285e-07 	0.01355404618 	-4.541839809e-07 	2.583777918e-05
0.09281473479 	-0.008966882146 	-0.01222292984 	-8.444445977e-07 	0.01381038586 	-4.186879325e-07 	2.632643386e-05
0.09545130646 	-0.009079644542 	-0.01236354823 	-7.161687988e-07 	0.01406772621 	-3.789595016e-07 	2.681699608e-05
0.09811728639 	-0.00919219293 	-0.01250498424 	-5.892678451e-07 	0.01432627779 	-3.336989375e-07 	2.730986725e-05
0.1008152168 	-0.009304695149 	-0.01264757846 	-4.641718412e-07 	0.01458649454 	-2.816713858e-07 	2.780591271e-05
0.1035538849 	-0.009417298504 	-0.01279168826 	-3.411439372e-07 	0.01484882422 	-2.216824899e-07 	2.830598597e-05
0.1063231032 	-0.009529827267 	-0.01293725137 	-2.213225208e-07 	0.01511296867 	-1.535419385e-07 	2.880951873e-05
0.1091232125 	-0.009642162216 	-0.01308421491 	-1.052167599e-07 	0.0153787077 	-7.748226626e-08 	2.931609118e-05
0.1117768629 	-0.009747342959 	-0.01322341965 	5.029928968e-07 	0.01562947576 	-3.562914594e-07 	2.979412478e-05
0.1119545574 	-0.009754397991 	-0.01323273899 	-7.139362637e-09 	0.01564628461 	-5.92362861e-09 	2.982616713e-05
0.1148174862 	-0.009866816745 	-0.01338291011 	-1.179876312e-07 	0.01591616273 	-1.06770237e-07 	3.034062984e-05
0.1177123515 	-0.009979453921 	-0.01353502621 	-2.231565073e-07 	0.01618864872 	-2.191955057e-07 	3.086006386e-05
0.1206406417 	-0.01009185436 	-0.0136887117 	-3.212411396e-07 	0.01646286705 	-3.474516344e-07 	3.138280021e-05
0.1236130938 	-0.01020576704 	-0.0138448434 	-4.147624373e-07 	0.01674172846 	-4.833551496e-07 	3.191438756e-05
0.1266187072 	-0.01032252596 	-0.01400454274 	-5.0905663e-07 	0.0170277391 	-6.035149398e-07 	3.245960335e-05
0.1296578519 	-0.01043920658 	-0.01416693167 	-6.00186742e-07 	0.01731616639 	-7.174093793e-07 	3.300942591e-05
0.132730902 	-0.01055446102 	-0.01433182709 	-6.869697641e-07 	0.0176050029 	-8.329138046e-07 	3.356002859e-05
0.1358382358 	-0.01066889206 	-0.01449961971 	-7.728539104e-07 	0.01789536855 	-9.427267562e-07 	3.411354622e-05
0.1389802357 	-0.01078245393 	-0.01467023952 	-8.574539248e-07 	0.01818715383 	-1.046681854e-06 	3.466977006e-05
0.142164066 	-0.01089517458 	-0.01484389778 	-9.409868935e-07 	0.0184805431 	-1.143641803e-06 	3.522905156e-05
0.1453889171 	-0.01100680851 	-0.01502061631 	-1.023640562e-06 	0.01877516618 	-1.232438187e-06 	3.579068503e-05
0.1486497487 	-0.01111682862 	-0.01520017177 	-9.752233405e-07 	0.01907004578 	-1.157883257e-06 	3.635280749e-05
0.1519469623 	-0.0112247327 	-0.01538249955 	-8.740659569e-07 	0.01936432388 	-1.020653236e-06 	3.691378336e-05
0.1552809637 	-0.01132978675 	-0.01556742648 	-7.763959369e-07 	0.01965672346 	-8.812263149e-07 	3.747117821e-05
0.1586521634 	-0.01143172543 	-0.01575491537 	-6.779942063e-07 	0.01994676401 	-7.522984009e-07 	3.802407613e-05
0.1620666825 	-0.01153054234 	-0.01594496206 	-5.757488183e-07 	0.02023439242 	-6.442652817e-07 	3.857237581e-05
0.1655254184 	-0.01162523543 	-0.0161369387 	-4.766775041e-07 	0.02051768643 	-5.369315771e-07 	3.911241293e-05
0.1690227476 	-0.01171472516 	-0.01633022162 	-3.83036554e-07 	0.02079457674 	-4.25328306e-07 	3.964024282e-05
0.1725591007 	-0.01179830302 	-0.01652435472 	-2.936790065e-07 	0.02106359057 	-3.162670482e-07 	4.015305795e-05
0.176134913 	-0.0118752121 	-0.01671859581 	-2.086173236e-07 	0.02132299502 	-2.130666803e-07 	4.064755493e-05
0.1797506248 	-0.01194486471 	-0.01691214277 	-1.268439377e-07 	0.02157129905 	-1.19802387e-07 	4.112089142e-05
0.1834159144 	-0.01200696291 	-0.01710420668 	-4.660553783e-08 	0.02180745953 	-3.968490171e-08 	4.157107893e-05
0.1855771689 	-0.01203868317 	-0.01721459475 	2.759274944e-06 	0.02193741049 	-3.918924123e-06 	4.181880158e-05
0.1871241627 	-0.01206135861 	-0.01729357894 	-3.467347248e-08 	0.02203036555 	-2.569449114e-08 	4.199599976e-05
0.1908737914 	-0.01210822609 	-0.01747899561 	-1.194404069e-07 	0.02223935316 	-7.617558121e-08 	4.239438824e-05
0.1946652623 	-0.01214830752 	-0.01765957905 	-2.068312884e-07 	0.02243488914 	-1.150925566e-07 	4.276713415e-05
0.1984990422 	-0.01218283627 	-0.01783467512 	-2.961722377e-07 	0.02261834389 	-1.494970981e-07 	4.311684989e-05
0.2023809985 	-0.01221359479 	-0.01800409962 	-3.857839119e-07 	0.0227922356 	-1.88420985e-07 	4.344833583e-05
0.2063115745 	-0.01224269441 	-0.01816794161 	-4.72665471e-07 	0.02295976116 	-2.418679436e-07 	4.37676861e-05
0.2102860148 	-0.01227238812 	-0.01832660991 	-5.528515397e-07 	0.02312454034 	-3.195522126e-07 	4.408180102e-05
0.2143048088 	-0.01230501441 	-0.01848114148 	-6.2207095e-07 	0.02329074772 	-4.292665508e-07 	4.439863849e-05
0.2183684513 	-0.01234264105 	-0.01863302673 	-6.763176016e-07 	0.02346247573 	-5.749810523e-07 	4.472599979e-05
0.2224824929 	-0.01238687132 	-0.01878406786 	-7.128046424e-07 	0.02364333194 	-7.553351183e-07 	4.5070762e-05
0.2266474495 	-0.01243849031 	-0.01893589183 	-7.306932704e-07 	0.02383557284 	-9.621912477e-07 	4.54372266e-05
0.2308588887 	-0.01249730233 	-0.01908966714 	-7.320424829e-07 	0.02403966073 	-1.180773357e-06 	4.582627482e-05
0.2351173289 	-0.01256229032 	-0.01924613388 	-6.202801841e-07 	0.02425452846 	-1.195137185e-06 	4.623587245e-05
0.2394232945 	-0.01263168577 	-0.01940541919 	-5.131667752e-07 	0.02447757641 	-1.137466635e-06 	4.666106382e-05
0.2437845959 	-0.01270317706 	-0.01956694987 	-4.267703954e-07 	0.0247049131 	-1.031736591e-06 	4.709443074e-05
0.2481966718 	-0.01277398038 	-0.01972919907 	-3.613706718e-07 	0.02493129174 	-8.873246391e-07 	4.752597136e-05
0.2526579903 	-0.01284119865 	-0.01988998698 	-3.143472518e-07 	0.025150858 	-7.178697192e-07 	4.794452567e-05
0.2571691007 	-0.01290217252 	-0.02004687542 	-2.807764216e-07 	0.0253579595 	-5.392390088e-07 	4.833931868e-05
0.2617331245 	-0.01295461249 	-0.0201973646 	-2.543250997e-07 	0.02554748412 	-3.67298584e-07 	4.870060529e-05
0.2663542099 	-0.01299660479 	-0.02033896719 	-2.283010068e-07 	0.02571491048 	-2.162638949e-07 	4.901976646e-05
0.2710268726 	-0.01302659025 	-0.02046929565 	-1.965849953e-07 	0.02585632507 	-9.736430056e-08 	4.928934198e-05
0.275751688 	-0.01304347675 	-0.0205864248 	-1.541868792e-07 	0.02596883196 	-1.795911202e-08 	4.950381139e-05
0.28052953 	-0.01304657244 	-0.02068897892 	-9.771330817e-08 	0.02605051677 	1.826340128e-08 	4.965952532e-05
0.2853683996 	-0.01303546635 	-0.02077602019 	-2.541139674e-08 	0.02610017911 	1.079145729e-08 	4.975419555e-05
0.2868768159 	-0.01302763496 	-0.02079789807 	3.814049027e-06 	0.02610546732 	-5.781805037e-06 	4.976427635e-05
0.2902612788 	-0.01300990001 	-0.02084679219 	-6.549100826e-08 	0.02611694857 	4.100673026e-08 	4.978616281e-05
0.2952087702 	-0.01296980411 	-0.02090100643 	-1.716690947e-07 	0.02610055283 	1.302449677e-07 	4.975490797e-05
0.3002114828 	-0.01291525752 	-0.02093871028 	-2.895680375e-07 	0.02605116491 	2.500218817e-07 	4.966076087e-05
0.3052771643 	-0.01284644711 	-0.02096011842 	-4.166006386e-07 	0.02596922902 	3.945233873e-07 	4.950456829e-05
0.3103995605 	-0.0127636841 	-0.02096553716 	-5.496180735e-07 	0.02585543269 	5.574641899e-07 	4.928764085e-05
0.3155791317 	-0.01266739972 	-0.02095542777 	-6.857610246e-07 	0.02571074821 	7.329335983e-07 	4.901183202e-05
0.320817158 	-0.01255819379 	-0.02093046499 	-8.222909126e-07 	0.02553655148 	9.15296582e-07 	4.867976465e-05
0.3261196354 	-0.01243683226 	-0.02089146522 	-9.565542375e-07 	0.02533457899 	1.099144007e-06 	4.829474894e-05
0.3314812991 	-0.01230428908 	-0.02083938924 	-1.085832349e-06 	0.02510698159 	1.279109883e-06 	4.786088504e-05
0.336902809 	-0.01216168327 	-0.02077536755 	-1.207910375e-06 	0.024856249 	1.450565279e-06 	4.738291902e-05
0.3423871157 	-0.01201027957 	-0.02070072041 	-1.320813163e-06 	0.02458522405 	1.609348059e-06 	4.686627015e-05
0.3479363295 	-0.01185145886 	-0.02061687731 	-1.422573733e-06 	0.02429700903 	1.751531593e-06 	4.631685221e-05
0.3535474839 	-0.01168667014 	-0.02052534258 	-1.511623491e-06 	0.02399485532 	1.873975584e-06 	4.574086327e-05
0.3592212696 	-0.01151734045 	-0.0204276647 	-1.586864563e-06 	0.02368200306 	1.974430317e-06 	4.514447991e-05
0.3649627704 	-0.01134482249 	-0.02032535936 	-1.450985766e-06 	0.0233615579 	1.806649428e-06 	4.453362237e-05
0.370769322 	-0.01117038603 	-0.02021984647 	-1.307429998e-06 	0.02303642883 	1.624675254e-06 	4.391383599e-05
0.3766406864 	-0.0109950968 	-0.02011236582 	-1.166866427e-06 	0.02270908595 	1.443501242e-06 	4.328982948e-05
0.3825794668 	-0.01081979381 	-0.02000397296 	-1.030923349e-06 	0.02238151825 	1.266577854e-06 	4.26653944e-05
0.3885874109 	-0.01064505071 	-0.01989543586 	-9.011774548e-07 	0.02205512509 	1.097014793e-06 	4.204319832e-05
0.3946624157 	-0.01047111907 	-0.01978718239 	-7.787784568e-07 	0.02173058362 	9.371504991e-07 	4.142453209e-05
0.4008056513 	-0.01029785247 	-0.01967926577 	-6.644336374e-07 	0.02140770914 	7.885197584e-07 	4.080904358e-05
0.4070212331 	-0.01012462158 	-0.01957123436 	-5.587337896e-07 	0.02108526228 	6.522928292e-07 	4.019437025e-05
0.4133061932 	-0.009950236525 	-0.01946201163 	-4.620944845e-07 	0.02076074818 	5.29263238e-07 	3.957575617e-05
0.4196613049 	-0.009772747993 	-0.01934972591 	-3.745735895e-07 	0.02043000884 	4.196360727e-07 	3.894527507e-05
0.4260907495 	-0.009589247462 	-0.01923146069 	-2.961616878e-07 	0.02008677908 	3.233927015e-07 	3.829098376e-05
0.4325922399 	-0.009395607093 	-0.01910288335 	-2.268438312e-07 	0.01972207387 	2.403958158e-07 	3.759575427e-05
0.4391662983 	-0.009186003817 	-0.01895771722 	-1.663750795e-07 	0.01932315436 	1.701536813e-07 	3.683530281e-05
0.4458164752 	-0.008952325701 	-0.01878697117 	-1.145630354e-07 	0.01887219824 	1.121565977e-07 	3.597565511e-05
0.4525413396 	-0.008683368258 	-0.01857775223 	-7.137787468e-08 	0.01834444777 	6.602461777e-08 	3.496961603e-05
0.4593412644 	-0.008363701706 	-0.01831156057 	-3.687974437e-08 	0.01770562268 	3.146102094e-08 	3.375183785e-05
0.4662195511 	-0.007972448191 	-0.01796189978 	-1.159015845e-08 	0.01690900321 	8.623285398e-09 	3.223325972e-05
0.471104341 	-0.007628362548 	-0.01763135282 	9.454348082e-06 	0.01619564736 	-1.623494545e-05 	3.087340521e-05
0.4731749089 	-0.007482538285 	-0.01749128609 	-2.926752832e-09 	0.01589332915 	1.074621514e-09 	3.029710267e-05
0.4802079543 	-0.006861835954 	-0.01684852814 	-3.828266246e-09 	0.01458457148 	-4.667351597e-09 	2.780224681e-05
0.4873218078 	-0.00608011818 	-0.01596987713 	1.183748565e-08 	0.01291039622 	-2.564053097e-08 	2.461080345e-05
0.4945150618 	-0.005127477428 	-0.01479196687 	4.843386758e-08 	0.01084022355 	-6.046312363e-08 	2.066447897e-05
0.5017088021 	-0.004040957538 	-0.01328142909 	1.08147727e-07 	0.008445782693 	-1.001356552e-07 	1.61000092e-05
0.5088246559 	-0.002913984337 	-0.01146416766 	1.869927894e-07 	0.005927422279 	-1.259504832e-07 	1.12993143e-05
0.5158619961 	-0.00187287582 	-0.009437608152 	2.740733012e-07 	0.003568030696 	-1.172199708e-07 	6.801658189e-06
0.5228223256 	-0.001029720581 	-0.007357838144 	3.549043796e-07 	0.001629173748 	-6.446794202e-08 	3.105657969e-06
0.5297067628 	-0.0004360308518 	-0.005390925227 	4.182033083e-07 	0.0002418921857 	2.340777093e-08 	4.611137363e-07
0.5365152377 	-7.394360668e-05 	-0.003658435592 	4.614403851e-07 	-0.0006205857813 	1.261951768e-07 	-1.183008982e-06
0.5432491873 	0.000114948246 	-0.00221217734 	4.895676142e-07 	-0.001081880297 	2.260860131e-07 	-2.062364539e-06
0.5499094439 	0.0001939991237 	-0.001044487684 	5.097147402e-07 	-0.001281775432 	3.143542312e-07 	-2.443420224e-06
0.55649621 	0.0002118362104 	-0.0001144806758 	5.275533091e-07 	-0.001329764395 	3.897497484e-07 	-2.534900526e-06
0.5630107473 	0.0001990483893 	0.0006289084617 	5.460755952e-07 	-0.001295925849 	4.542453958e-07 	-2.470394852e-06
0.5694538871 	0.0001723564654 	0.001233673052 	5.661837285e-07 	-0.001219513243 	5.101443369e-07 	-2.324731187e-06
0.5758259306 	0.0001397529098 	0.001739833432 	5.880578508e-07 	-0.001120269809 	5.594180387e-07 	-2.135545619e-06
0.5821279228 	0.0001043288109 	0.002179112599 	6.117850838e-07 	-0.001006970968 	6.036971309e-07 	-1.919566538e-06
0.5883608325 	6.65827623e-05 	0.00257627201 	6.3759231e-07 	-0.0008825599977 	6.44396636e-07 	-1.68240465e-06
0.5945249646 	2.562230151e-05 	0.002950871446 	6.661981024e-07 	-0.0007467712897 	6.831693323e-07 	-1.423553633e-06
0.6006211498 	-2.024349634e-05 	0.003318913992 	6.987020092e-07 	-0.0005973666485 	7.220105217e-07 	-1.138746861e-06
0.606650536 	-7.326652157e-05 	0.003694044254 	7.363375903e-07 	-0.0004305890328 	7.631750259e-07 	-8.208223726e-07
0.6126133893 	-0.0001362426788 	0.004088386131 	7.80512706e-07 	-0.0002411621188 	8.093562522e-07 	-4.59722026e-07
0.6185104433 	-0.0002125975459 	0.004513151348 	8.327389422e-07 	-2.2092265e-05 	8.637573194e-07 	-4.211399733e-08
0.6243427419 	-0.0003064922942 	0.004978950076 	8.944164875e-07 	0.0002355446629 	9.30018951e-07 	4.490135937e-07
0.6301107689 	-0.0004229514799 	0.005495841545 	9.667145178e-07 	0.000542838237 	1.012225491e-06 	1.034800554e-06
0.6358151458 	-0.0005680102293 	0.006073242955 	1.050620292e-06 	0.0009133035812 	1.115063726e-06 	1.741010465e-06
0.6414566659 	-0.0007487417396 	0.006719624483 	1.146592833e-06 	0.001362867959 	1.24356902e-06 	2.59800512e-06
0.647036138 	-0.0009731306821 	0.007441850633 	1.254097965e-06 	0.00190949634 	1.402559007e-06 	3.64003074e-06
0.65255404 	-0.001249715925 	0.008244248227 	1.371378263e-06 	0.002572277382 	1.596026442e-06 	4.903475617e-06
0.6580110512 	-0.00158685422 	0.009127469217 	1.494957997e-06 	0.003369652907 	1.825835259e-06 	6.423494987e-06
0.6634079914 	-0.001991504913 	0.01008720655 	1.619229307e-06 	0.00431658632 	2.089959184e-06 	8.228613259e-06
0.6687454422 	-0.002467612479 	0.01111308582 	1.736478994e-06 	0.005420878132 	2.380760031e-06 	1.033370038e-05
0.6740239929 	-0.003014416558 	0.01218829072 	1.837914025e-06 	0.006679422209 	2.684572215e-06 	1.273283518e-05
0.6792442933 	-0.003625151702 	0.01329032559 	1.914974214e-06 	0.008075490201 	2.982561515e-06 	1.539412879e-05
0.6844071263 	-0.004286725076 	0.01439299242 	1.961036463e-06 	0.009578345195 	3.253605307e-06 	1.82589881e-05
0.6895129981 	-0.004980790477 	0.01546934964 	1.973040507e-06 	0.01114602204 	3.478772455e-06 	2.124741588e-05
0.6945625248 	-0.005686149074 	0.01649502753 	1.95235172e-06 	0.0127309745 	3.645834144e-06 	2.426877579e-05
0.6995563279 	-0.00638176946 	0.01745096231 	1.904156906e-06 	0.01428689159 	3.751363977e-06 	2.72347862e-05
0.7044951269 	-0.007049516448 	0.01832486091 	1.836017535e-06 	0.01577462716 	3.800202842e-06 	3.007082369e-05
0.7093794255 	-0.007675930353 	0.01911128694 	1.756305267e-06 	0.01716585269 	3.803186622e-06 	3.272288623e-05
0.7142098238 	-0.008252842435 	0.01981072028 	1.67286438e-06 	0.01844408723 	3.774100542e-06 	3.515955652e-05
0.7189869164 	-0.008776961074 	0.0204280263 	1.59202024e-06 	0.01960351354 	3.726601135e-06 	3.736974533e-05
0.7237113541 	-0.009248836615 	0.02097080405 	1.518200853e-06 	0.02064653319 	3.672213667e-06 	3.935803067e-05
0.7283836644 	-0.009671641407 	0.02144794444 	1.454025433e-06 	0.02158101742 	3.619510879e-06 	4.113941734e-05
0.7330044134 	-0.01005008357 	0.02186858482 	1.400632726e-06 	0.02241792182 	3.574184415e-06 	4.273478974e-05
0.7375741699 	-0.01038953626 	0.02224141119 	1.357860868e-06 	0.0231694146 	3.539052874e-06 	4.416734383e-05
0.7420935234 	-0.01069540073 	0.02257423174 	1.324444774e-06 	0.02384753209 	3.514338664e-06 	4.546002423e-05
0.7465630238 	-0.01097266768 	0.02287373072 	1.298116647e-06 	0.02446326824 	3.497789445e-06 	4.663378847e-05
0.7509832008 	-0.01122566713 	0.02314536502 	1.275694635e-06 	0.02502606101 	3.485159532e-06 	4.770662792e-05
0.7553545986 	-0.01145791712 	0.02339334897 	1.252980254e-06 	0.02554349047 	3.469694208e-06 	4.869299228e-05
0.7596777566 	-0.01167214288 	0.02362057295 	1.224409669e-06 	0.02602131002 	3.44589949e-06 	4.960384915e-05
0.7639532349 	-0.01186988359 	0.0238288069 	1.186287329e-06 	0.02646273178 	3.397663094e-06 	5.044532171e-05
0.7681815307 	-0.01204870605 	0.02401614671 	1.029305544e-06 	0.02686242452 	3.076465872e-06 	5.120724716e-05
0.7723631646 	-0.01215347813 	0.02413042664 	3.287837428e-07 	0.02710603887 	1.568363844e-06 	5.167164383e-05
0.7764986516 	-0.01216948299 	0.02415846387 	-2.360040592e-07 	0.02716362789 	3.430923538e-07 	5.17814245e-05
0.7805885059 	-0.01216040883 	0.02416123316 	-2.366301332e-07 	0.02716712303 	3.354306762e-07 	5.178808721e-05
0.7846332395 	-0.01215260138 	0.02416310939 	-2.410683185e-07 	0.02717091331 	3.365896417e-07 	5.179531253e-05
0.7886333369 	-0.01214655372 	0.02416373431 	-2.477023589e-07 	0.02717596684 	3.441568918e-07 	5.180494596e-05
0.7925892905 	-0.0121425446 	0.02416290886 	-2.552305639e-07 	0.02718251839 	3.504820668e-07 	5.181743503e-05
0.7965015875 	-0.01214074343 	0.02416044027 	-2.642045841e-07 	0.02719069217 	3.587790518e-07 	5.183301654e-05
0.8003707124 	-0.01214141711 	0.02415610667 	-2.745250823e-07 	0.02720079304 	3.688218814e-07 	5.18522716e-05
0.8041971471 	-0.01214481615 	0.02414969105 	-2.860635699e-07 	0.0272130836 	3.803578586e-07 	5.187570083e-05
0.8079813545 	-0.01215120314 	0.02414097195 	-2.985822622e-07 	0.02722784248 	3.931892992e-07 	5.190383536e-05
0.8117238006 	-0.01216080528 	0.02412973597 	-3.113307911e-07 	0.02724527706 	4.058711879e-07 	5.19370705e-05
0.8154249461 	-0.01217417474 	0.02411569228 	-3.232664182e-07 	0.0272662209 	4.189273058e-07 	5.197699529e-05
0.819085247 	-0.01219129156 	0.02409843758 	-3.327735734e-07 	0.02729018169 	4.288182468e-07 	5.202267122e-05
0.8227051594 	-0.01220706158 	0.02408192397 	-3.227546127e-07 	0.02731221516 	4.121393462e-07 	5.206467313e-05
0.8262851241 	-0.01221484837 	0.02407206538 	-2.864599607e-07 	0.027326903 	3.675541544e-07 	5.209267224e-05
0.8298255813 	-0.01221582311 	0.02406767784 	-2.559176775e-07 	0.02733469917 	3.289299135e-07 	5.210753391e-05
0.8333269671 	-0.01221481532 	0.02406482173 	-2.481897578e-07 	0.02733994598 	3.153285118e-07 	5.211753579e-05