0.3362433877 	3.690039214e-05 	-0.0001043209761 	1.425807826e-10 	-3.634318778e-05 	1.294448734e-10 	-6.928021697e-08
0.3362433877 	3.690039214e-05 	-0.0001043209761 	1.425807826e-10 	-3.634318778e-05 	1.294448733e-10 	-6.928021697e-08
0.3363017955 	6.571509333e-05 	-0.0001895295043 	-3.719636098e-06 	-6.316951394e-05 	-1.171116528e-06 	-1.204186506e-07
0.3364356309 	0.0001318820193 	-0.0003852238177 	1.607009487e-09 	-0.0001247702691 	1.135448742e-09 	-2.378468111e-07
0.3366277463 	0.0003548101176 	-0.001105689305 	1.230970873e-08 	-0.0003069845848 	7.253440498e-09 	-5.851979405e-07
0.3368198693 	0.0006750002426 	-0.002345278925 	4.407808711e-08 	-0.0004843637565 	1.975302124e-08 	-9.233319419e-07
0.3370119991 	0.001011569398 	-0.004143881598 	1.113195269e-07 	-0.0004677733521 	3.18847823e-08 	-8.9170602e-07
0.3372041348 	0.001250299654 	-0.006485447725 	2.269062834e-07 	-2.226500191e-05 	2.711963619e-08 	-4.244328187e-08
0.3373962757 	0.001280106381 	-0.009279307124 	3.958691897e-07 	0.001044796409 	-1.356151213e-08 	1.991672342e-06
0.3375884208 	0.001037468524 	-0.0123480926 	6.091888095e-07 	0.002784074152 	-9.708738177e-08 	5.307219128e-06
0.3377805694 	0.0005373731069 	-0.01545032189 	8.436433578e-07 	0.005053413256 	-2.078582393e-07 	9.633210189e-06
0.3379727207 	-0.0001327558011 	-0.01833991078 	1.070736911e-06 	0.007563988863 	-3.138025404e-07 	1.441906508e-05
0.3381648737 	-0.0008546879728 	-0.02083333615 	1.269384262e-06 	0.009999945898 	-3.856784579e-07 	1.906267622e-05
0.3383570277 	-0.001527476193 	-0.02284650815 	1.432994661e-06 	0.01213020196 	-4.123362158e-07 	2.312353635e-05
0.3385491818 	-0.002093348417 	-0.02438765642 	1.567365713e-06 	0.01385146159 	-4.01045585e-07 	2.64047356e-05
0.3387413353 	-0.002536381725 	-0.02552275366 	1.683746179e-06 	0.01516590744 	-3.678718872e-07 	2.891043472e-05
0.3389334873 	-0.002867182866 	-0.02633870809 	1.792923238e-06 	0.01613363891 	-3.283744271e-07 	3.075519987e-05
0.3391256369 	-0.003107355712 	-0.02691876911 	1.902610962e-06 	0.01683230989 	-2.933444862e-07 	3.208706094e-05
0.3393177834 	-0.003279608455 	-0.02733152635 	2.017319468e-06 	0.017334266 	-2.685993224e-07 	3.30439288e-05
0.3395099259 	-0.003403304416 	-0.0276288633 	2.139209649e-06 	0.01769787045 	-2.564020451e-07 	3.373705995e-05
0.3397020636 	-0.003493339276 	-0.0278480643 	2.269010825e-06 	0.01796666629 	-2.569649142e-07 	3.424945953e-05
0.3398941957 	-0.003560526934 	-0.02801509143 	2.406687099e-06 	0.01817168377 	-2.695146012e-07 	3.464027982e-05
0.3400863214 	-0.003612449672 	-0.02814766618 	2.551841828e-06 	0.01833442147 	-2.929124022e-07 	3.495050311e-05
0.3402784399 	-0.003654306419 	-0.02825772089 	2.70393628e-06 	0.01846949971 	-3.259665943e-07 	3.520799979e-05
0.3404705503 	-0.00368960378 	-0.0283531986 	2.862396064e-06 	0.01858671882 	-3.675657283e-07 	3.543145198e-05
0.3406626518 	-0.003720669833 	-0.02843931699 	3.026655258e-06 	0.01869255017 	-4.167185422e-07 	3.563319596e-05
0.3408547436 	-0.003749017819 	-0.02851943203 	3.196166936e-06 	0.01879117492 	-4.725493061e-07 	3.582120214e-05
0.3410468249 	-0.003775593522 	-0.02859561484 	3.370393497e-06 	0.01888518418 	-5.342682402e-07 	3.60004099e-05
0.3412388949 	-0.003800943343 	-0.02866902783 	3.54877983e-06 	0.0189760469 	-6.011096243e-07 	3.617361951e-05
0.3414309528 	-0.003825269091 	-0.02874015222 	3.730701874e-06 	0.01906430446 	-6.72205254e-07 	3.634186294e-05
0.3416229978 	-0.00384872201 	-0.02880906257 	3.915500848e-06 	0.01915022847 	-7.469072225e-07 	3.6505658e-05
0.341815029 	-0.003869537794 	-0.02887166692 	4.100997052e-06 	0.01922883986 	-8.246970909e-07 	3.665551315e-05
0.3420070457 	-0.003899153652 	-0.02895622241 	4.310083602e-06 	0.0193349982 	-9.277969849e-07 	3.685788045e-05
0.3423053646 	-0.003938085797 	-0.02906682713 	4.701398232e-06 	0.01947364862 	-1.161825703e-06 	3.71221867e-05
0.3426092492 	-0.003970033517 	-0.02916662419 	4.780459361e-06 	0.01959804232 	-9.877733015e-07 	3.735931566e-05
0.3429187992 	-0.003984932994 	-0.02923298142 	4.503992615e-06 	0.01967845308 	-3.559710608e-07 	3.751260092e-05
0.343234116 	-0.003984996649 	-0.02927168764 	4.51313714e-06 	0.01972135588 	-7.551933937e-08 	3.759438558e-05
0.3435553022 	-0.003981520519 	-0.0293065372 	4.737496324e-06 	0.01975721581 	-6.686665479e-08 	3.766274458e-05
0.3438824622 	-0.003977149501 	-0.0293422815 	4.96799181e-06 	0.01979271704 	-6.788698026e-08 	3.773041978e-05
0.3442157019 	-0.003972048461 	-0.02937885294 	5.203690463e-06 	0.01982806123 	-6.799735043e-08 	3.779779564e-05
0.3445551286 	-0.003966075787 	-0.0294161351 	5.443991696e-06 	0.01986288626 	-6.196306081e-08 	3.786418181e-05
0.3449008511 	-0.00395904337 	-0.02945398987 	5.688513393e-06 	0.01989674091 	-4.874074655e-08 	3.792871818e-05
0.3452529799 	-0.003950753967 	-0.02949226159 	5.936805559e-06 	0.01992914595 	-2.665155866e-08 	3.79904912e-05
0.3456116268 	-0.003941003081 	-0.02953077952 	6.188402572e-06 	0.01995959534 	5.870661513e-09 	3.804853619e-05
0.3459769053 	-0.003929589939 	-0.02956936467 	6.442896881e-06 	0.01998757997 	5.003584345e-08 	3.810188268e-05
0.3463489302 	-0.003916338987 	-0.02960784548 	6.700148247e-06 	0.0200126388 	1.060318732e-07 	3.814965177e-05
0.346727818 	-0.00390114378 	-0.02964609154 	6.960715686e-06 	0.02003446551 	1.717215904e-07 	3.819125955e-05
0.3471136864 	-0.003884028532 	-0.02968406812 	7.226335856e-06 	0.02005306343 	2.416897159e-07 	3.822671237e-05
0.3475066549 	-0.003865187625 	-0.02972188872 	7.499852468e-06 	0.02006885946 	3.082836964e-07 	3.825682399e-05
0.347906844 	-0.003844961663 	-0.02975982173 	7.399412785e-06 	0.0200826714 	3.465695242e-07 	3.828315338e-05
0.348314376 	-0.003823750967 	-0.02979823098 	7.157982641e-06 	0.0200955135 	3.60869214e-07 	3.830763399e-05
0.3487293745 	-0.003801911578 	-0.02983748641 	6.916152948e-06 	0.02010834171 	3.609790581e-07 	3.833208813e-05
0.3491519642 	-0.003779690997 	-0.02987790259 	6.672289253e-06 	0.02012188494 	3.520651092e-07 	3.835790528e-05
0.3495822713 	-0.003757231819 	-0.02991972895 	6.425092233e-06 	0.02013663725 	3.377752575e-07 	3.838602728e-05
0.3500204234 	-0.00373462231 	-0.02996317722 	6.174015797e-06 	0.02015296559 	3.192455697e-07 	3.841715365e-05
0.3504665492 	-0.003712005971 	-0.03000846644 	5.919340503e-06 	0.02017133436 	2.951257527e-07 	3.845216962e-05
0.3509207785 	-0.003689391586 	-0.03005589258 	5.662170671e-06 	0.02019205071 	2.618261969e-07 	3.849166075e-05
0.3513845503 	-0.003666976931 	-0.03010631656 	5.40411812e-06 	0.02021639565 	2.136215473e-07 	3.853806896e-05
0.3518696828 	-0.003645283602 	-0.03016077857 	5.139137537e-06 	0.02024631981 	1.431314305e-07 	3.859511273e-05
0.3523637086 	-0.003625199127 	-0.0302199948 	4.879269181e-06 	0.02028389067 	4.35035867e-08 	3.866673323e-05
0.3528667873 	-0.003608068908 	-0.0302852241 	4.627284563e-06 	0.02033249295 	-9.214399787e-08 	3.875938269e-05
0.3533790813 	-0.003595490991 	-0.03035868046 	4.386132851e-06 	0.0203969319 	-2.708559876e-07 	3.888222124e-05
0.3539007558 	-0.003589729212 	-0.03044341032 	4.157976185e-06 	0.02048391563 	-4.991396219e-07 	3.904803641e-05
0.354431979 	-0.003593940336 	-0.03054351286 	3.94233937e-06 	0.02060263237 	-7.834245287e-07 	3.927434349e-05
0.3549729218 	-0.003612832468 	-0.03066420019 	3.731175663e-06 	0.02076589166 	-1.128947004e-06 	3.958556109e-05
0.3555237583 	-0.003652545507 	-0.03081102554 	3.499283763e-06 	0.02098907938 	-1.442348119e-06 	4.001101892e-05
0.3560846653 	-0.003714393728 	-0.03098641754 	3.177381585e-06 	0.02127573851 	-1.547614676e-06 	4.055747088e-05
0.3566558229 	-0.003755939929 	-0.0310885388 	-3.105633785e-07 	0.02149874953 	2.031179652e-06 	4.098259187e-05
0.3572374142 	-0.003496946107 	-0.03039951546 	-5.082793324e-06 	0.02082687938 	6.916356234e-06 	3.970182062e-05
0.3578296256 	-0.002810346623 	-0.02853162757 	-6.258333229e-06 	0.01885389553 	7.400403034e-06 	3.594076504e-05
0.3584326466 	-0.001961519395 	-0.02599176039 	-5.426857495e-06 	0.0162818986 	5.569281243e-06 	3.103782406e-05
0.35904667 	-0.001087654809 	-0.02286968351 	-3.191061817e-06 	0.0134036713 	2.752900969e-06 	2.555112286e-05
0.3595770964 	-0.0004112564135 	-0.01969251455 	2.558906977e-05 	0.01085331158 	-2.051789765e-05 	2.06894284e-05
0.3596716997 	-0.0002902862794 	-0.01912425846 	-5.589968014e-07 	0.01039713998 	4.817411827e-07 	1.981983854e-05
0.3603070346 	0.000245837448 	-0.01500333936 	-4.884130764e-06 	0.007733604018 	3.313476269e-06 	1.47423987e-05
0.3609539542 	0.0003943393884 	-0.01091724571 	-9.310577807e-06 	0.005855086177 	4.362775658e-06 	1.116142159e-05
0.3616126648 	0.0001504029857 	-0.007262909558 	-1.23879428e-05 	0.004954616198 	2.89225488e-06 	9.444875538e-06
0.3622833765 	-0.0003652311105 	-0.004297020878 	-1.330057387e-05 	0.004900532484 	-2.382471246e-07 	9.341776946e-06
0.3629663027 	-0.0009842123307 	-0.002080657706 	-1.2269574e-05 	0.00536964224 	-3.372299931e-06 	1.023603053e-05
0.3636616609 	-0.001572880369 	-0.000524941886 	-1.015637794e-05 	0.006042309338 	-5.38788586e-06 	1.151832097e-05
0.364369672 	-0.002064988236 	0.0005218447795 	-7.79783836e-06 	0.006713395647 	-6.170581392e-06 	1.2797598e-05
0.3650905608 	-0.002449102752 	0.001209718325 	-5.691250837e-06 	0.007296296857 	-6.19305201e-06 	1.390876971e-05
0.3658245562 	-0.002742254895 	0.001659288833 	-4.01975541e-06 	0.007778463778 	-5.940484247e-06 	1.482791387e-05
0.3665815357 	-0.002969842999 	0.001956270404 	-2.780154159e-06 	0.008179378613 	-5.705364136e-06 	1.559216898e-05
0.3673642267 	-0.003152278822 	0.002156614426 	-1.896233938e-06 	0.008520187081 	-5.610937729e-06 	1.624184464e-05
0.3681610793 	-0.003303436764 	0.002295375447 	-1.285329432e-06 	0.008816702971 	-5.678362925e-06 	1.680708634e-05
0.3689723428 	-0.003434631627 	0.002395310845 	-8.725858022e-07 	0.009084029308 	-5.893106081e-06 	1.731668464e-05
0.369798271 	-0.003553998453 	0.002471368708 	-5.946660574e-07 	0.009333753689 	-6.225012255e-06 	1.779272871e-05
0.3706391218 	-0.003666598892 	0.002532705343 	-4.057012562e-07 	0.009573258859 	-6.646995437e-06 	1.824929214e-05
0.3714951578 	-0.003775970105 	0.002584945268 	-2.737726519e-07 	0.009808066073 	-7.139813803e-06 	1.869689995e-05
0.372366646 	-0.003885034175 	0.002631593403 	-1.704190753e-07 	0.01004330806 	-7.42034103e-06 	1.914533656e-05
0.3732538578 	-0.003996815892 	0.002674935237 	-8.300102423e-08 	0.01028503268 	-6.975717773e-06 	1.960613087e-05
0.3741570696 	-0.004115653075 	0.002716513004 	-2.116744897e-08 	0.0105424477 	-6.533519417e-06 	2.009683544e-05
0.3750765622 	-0.004264001615 	0.002765864445 	2.860963672e-08 	0.01086263098 	-6.09571116e-06 	2.070719375e-05
0.376486773 	-0.004442366482 	0.00282730535 	6.92142108e-08 	0.01124306897 	-5.354432957e-06 	2.143241431e-05
0.3779110756 	-0.004620276144 	0.002893938767 	9.382110745e-08 	0.01161560522 	-4.56057085e-06 	2.214257194e-05
0.3793496129 	-0.004787839868 	0.0029650129 	1.026836997e-07 	0.01196034032 	-3.725936148e-06 	2.279973286e-05
0.3808025294 	-0.004952650077 	0.003040099013 	1.01488408e-07 	0.01229490289 	-2.861788507e-06 	2.343750209e-05
0.3823059562 	-0.005119687388 	0.003119303511 	8.403646024e-08 	0.01262992097 	-1.9711488e-06 	2.407613968e-05
0.3838280091 	-0.005286568679 	0.0032036276 	5.026265e-08 	0.01296130671 	-1.070356184e-06 	2.470785299e-05
0.3853651093 	-0.005452087269 	0.003291998237 	6.668439885e-09 	0.01328691885 	-1.332016367e-07 	2.532856023e-05
0.3855803392 	-0.005475143282 	0.003304848225 	4.740949241e-07 	0.01333187703 	1.772190826e-06 	2.541426303e-05
0.3869151756 	-0.005618696828 	0.003384693055 	4.11905117e-08 	0.01361182498 	-8.023093235e-07 	2.594792162e-05
0.3884802461 	-0.005786302771 	0.00348211467 	9.180355757e-08 	0.0139362254 	-1.773031332e-06 	2.656631898e-05
0.3900608389 	-0.005952919128 	0.003583388723 	1.427872476e-07 	0.01425611628 	-2.780486037e-06 	2.717611992e-05
0.3916571133 	-0.006117963799 	0.003687247078 	1.94667241e-07 	0.0145704347 	-3.812551556e-06 	2.777529819e-05
0.3932692312 	-0.006280220649 	0.003792681298 	2.524008005e-07 	0.01487749249 	-4.859869935e-06 	2.836063568e-05
0.3948973565 	-0.006442182405 	0.0038991632 	3.128725384e-07 	0.01518284626 	-5.954721057e-06 	2.894272483e-05
0.3965690669 	-0.006607566476 	0.004007123112 	3.497370499e-07 	0.01549367393 	-7.231319837e-06 	2.953524875e-05
0.3982718105 	-0.006773258932 	0.00411643003 	3.601552459e-07 	0.01580391247 	-8.654420796e-06 	3.012664964e-05
0.3999912797 	-0.006936856725 	0.004225615459 	3.715298443e-07 	0.01610912399 	-9.798015839e-06 	3.070846763e-05
0.4017276483 	-0.007097471535 	0.00433314482 	3.339859914e-07 	0.01640757756 	-8.673313785e-06 	3.127740309e-05
0.4034810924 	-0.007253389638 	0.00443768927 	3.302749829e-07 	0.01669597039 	-7.398022309e-06 	3.182715997e-05
0.4052517911 	-0.007404571581 	0.004538372975 	3.307504833e-07 	0.0169743419 	-6.113480691e-06 	3.235781343e-05
0.4070399258 	-0.007550534631 	0.004634728647 	3.055543436e-07 	0.01724208034 	-4.931536023e-06 	3.286819731e-05
0.4088456808 	-0.007692465661 	0.004726689484 	2.584218046e-07 	0.01750190119 	-3.822498738e-06 	3.336348807e-05
0.4106892378 	-0.00783445363 	0.004814567713 	1.963851422e-07 	0.0177617041 	-2.725700737e-06 	3.385874462e-05
0.4125745154 	-0.007978664388 	0.004899611543 	1.218704353e-07 	0.01802590046 	-1.617566468e-06 	3.436237632e-05
0.4144781776 	-0.008127194289 	0.004982271102 	3.803702093e-08 	0.01829907946 	-4.91904723e-07 	3.488313141e-05
0.4152956098 	-0.008194764096 	0.005016609514 	1.032122322e-06 	0.01842413729 	4.377321938e-06 	3.51215264e-05
0.4163989494 	-0.008286200526 	0.005062939028 	4.778879084e-08 	0.01859332655 	-6.584003481e-07 	3.544404815e-05
0.4183374299 	-0.008463724652 	0.005143648353 	1.343294498e-07 	0.01892442373 	-1.8799771e-06 	3.60752114e-05
0.4202949142 	-0.008669515603 	0.005226958767 	2.206528991e-07 	0.01931134567 	-3.260602404e-06 	3.681279216e-05
0.4222716086 	-0.008914491613 	0.005316732994 	2.99082016e-07 	0.0197752263 	-4.897444208e-06 	3.769707757e-05
0.4242727255 	-0.009215270056 	0.005416251596 	3.588112542e-07 	0.02034706406 	-6.925742688e-06 	3.878715927e-05
0.4263330869 	-0.009590323856 	0.005531258455 	3.870564956e-07 	0.02106049892 	-9.54448183e-06 	4.014716441e-05
0.4284134725 	-0.0100545719 	0.005667368898 	3.654068673e-07 	0.02194169835 	-1.291229448e-05 	4.182697544e-05
0.4305141024 	-0.0106278804 	0.005828254292 	2.762470828e-07 	0.02302419758 	-1.724705501e-05 	4.389051982e-05
0.4326352002 	-0.01133403748 	0.006019530966 	9.511182523e-08 	0.02434679084 	-2.119436988e-05 	4.641175018e-05
0.4347769937 	-0.01219456726 	0.006247023194 	-1.262721617e-07 	0.025941951 	-2.164546461e-05 	4.94525688e-05
0.4369397142 	-0.01323074586 	0.006516348182 	-3.158193891e-07 	0.02783938888 	-2.161017936e-05 	5.306961277e-05
0.4391442892 	-0.01447091443 	0.006830167293 	-3.889921509e-07 	0.03007840734 	-2.103423412e-05 	5.733780426e-05
0.4413946634 	-0.01592715112 	0.0071887488 	-4.87974216e-07 	0.03266866523 	-1.916776212e-05 	6.227555572e-05
0.443666834 	-0.01758397324 	0.007634153272 	-1.053284148e-06 	0.03558282627 	-1.659564078e-05 	6.78307566e-05
0.4459610492 	-0.01930216199 	0.008219368763 	-6.738247083e-07 	0.03860766736 	-8.669599152e-06 	7.359694443e-05
0.448277562 	-0.02035187817 	0.008745720314 	-8.514508705e-09 	0.04051766566 	-1.625000673e-06 	7.723793205e-05
0.4505459865 	-0.02052912597 	0.009086288692 	4.012989184e-07 	0.04095486934 	3.648518573e-07 	7.807136378e-05
0.4506165593 	-0.02053500492 	0.009096966486 	2.699879544e-09 	0.04096909667 	-2.381963753e-08 	7.809848503e-05
0.4529933429 	-0.02052249567 	0.009403307545 	1.000968714e-07 	0.04108313046 	-7.726664398e-07 	7.831586513e-05
0.4554208951 	-0.02050632452 	0.009644656119 	4.74651057e-07 	0.04116302076 	-1.440044797e-06 	7.846815824e-05
0.4578719627 	-0.02049617847 	0.00980762524 	1.081414799e-06 	0.04122458227 	-2.093408783e-06 	7.858551159e-05
0.4603468233 	-0.0204898526 	0.009921597842 	1.685109312e-06 	0.04127438756 	-2.719013574e-06 	7.868045431e-05
0.4628457593 	-0.02048461616 	0.0100092977 	2.286021705e-06 	0.04131540218 	-3.33601729e-06 	7.875863958e-05
0.4653690586 	-0.02048029677 	0.01007912763 	2.873525872e-06 	0.04135094716 	-3.953282314e-06 	7.882639819e-05
0.4679520536 	-0.02047663813 	0.01013741518 	3.445973286e-06 	0.04138330765 	-4.579762335e-06 	7.888808627e-05
0.470569172 	-0.0204728431 	0.01018991927 	3.999148986e-06 	0.04141306372 	-5.20592635e-06 	7.894480962e-05
0.4732116477 	-0.02046911506 	0.01023692245 	3.800600641e-06 	0.04144082634 	-4.883897788e-06 	7.899773288e-05
0.4758797916 	-0.02046519395 	0.01028044968 	3.330690093e-06 	0.04146685566 	-4.244016079e-06 	7.9047352e-05
0.478573921 	-0.02046118655 	0.01032063329 	2.852229235e-06 	0.04149152295 	-3.613361939e-06 	7.909437471e-05
0.4813208668 	-0.02045718487 	0.01035777158 	2.364812854e-06 	0.04151524755 	-2.983194146e-06 	7.91396004e-05
0.4841109496 	-0.02045276341 	0.01039376932 	1.874503357e-06 	0.04153780068 	-2.357281416e-06 	7.918259294e-05
0.4869280722 	-0.02044811636 	0.01042770487 	1.386935731e-06 	0.04155918493 	-1.740082281e-06 	7.922335726e-05
0.4897725782 	-0.0204430857 	0.01046022612 	9.03361424e-07 	0.04157926849 	-1.131397193e-06 	7.92616421e-05
0.4926448178 	-0.02043793917 	0.01049039368 	4.245419036e-07 	0.04159833259 	-5.310174161e-07 	7.929798358e-05
0.4952388018 	-0.02043329107 	0.01051529531 	-2.277899388e-07 	0.041614467 	-1.08286393e-06 	7.932874024e-05
0.4955778201 	-0.02043268313 	0.01051848555 	5.295059841e-08 	0.04161656653 	-6.851373295e-08 	7.933274253e-05
0.4985460505 	-0.02042691807 	0.01054569692 	5.061502532e-07 	0.04163356988 	-6.546639206e-07 	7.936515565e-05
0.50154319 	-0.0204208321 	0.01057141921 	9.520128032e-07 	0.04164934275 	-1.231199833e-06 	7.939522311e-05
0.5045696182 	-0.02041441593 	0.01059573392 	1.390358901e-06 	0.04166388454 	-1.798221045e-06 	7.94229438e-05
0.5076367908 	-0.02040786769 	0.01061799737 	1.822980536e-06 	0.04167742816 	-2.358254608e-06 	7.944876171e-05
0.5107623923 	-0.02040095006 	0.01063924426 	2.251967371e-06 	0.04168983248 	-2.914143649e-06 	7.94724078e-05
0.5139184742 	-0.02039355362 	0.01065975154 	2.671578573e-06 	0.04170087783 	-3.459026839e-06 	7.94934633e-05
0.5171054487 	-0.02038569462 	0.01067929348 	3.081918571e-06 	0.04171046492 	-3.99298337e-06 	7.951173896e-05
0.520325042 	-0.02037768269 	0.01069677632 	3.483126432e-06 	0.04171889341 	-4.516279588e-06 	7.952780601e-05
0.523612288 	-0.02036938167 	0.01071289083 	3.880175344e-06 	0.04172610814 	-5.035054287e-06 	7.954155929e-05
0.5269316876 	-0.02036045905 	0.01072879229 	3.537992788e-06 	0.04173172205 	-4.595835984e-06 	7.955226097e-05
0.5302836887 	-0.02035105018 	0.01074376212 	3.133851568e-06 	0.04173572168 	-4.075587837e-06 	7.955988537e-05
0.533669638 	-0.0203414499 	0.0107568028 	2.738912239e-06 	0.04173838991 	-3.566446096e-06 	7.956497175e-05
0.5371230183 	-0.02033152544 	0.01076855096 	2.348714874e-06 	0.04173962211 	-3.062310155e-06 	7.956732067e-05
0.5406103399 	-0.02032088925 	0.01078034592 	1.968999248e-06 	0.04173897744 	-2.571301272e-06 	7.956609174e-05
0.5441320894 	-0.02030982367 	0.010790987 	1.59999158e-06 	0.04173661816 	-2.092971361e-06 	7.956159431e-05
0.5476960233 	-0.0202985069 	0.0107999752 	1.240582506e-06 	0.0417327067 	-1.625745077e-06 	7.955413797e-05
0.5513203417 	-0.02028673889 	0.01080811458 	8.891521804e-07 	0.04172701458 	-1.1674646e-06 	7.954328722e-05
0.5549805169 	-0.02027425166 	0.0108162684 	5.495687674e-07 	0.04171920358 	-7.231938041e-07 	7.952839728e-05
0.5586770766 	-0.02026142099 	0.01082301838 	2.217914158e-07 	0.04170958204 	-2.92547191e-07 	7.951005595e-05
0.5612874305 	-0.02025226897 	0.0108268469 	-9.833304546e-07 	0.04170161755 	-3.719724738e-06 	7.949487341e-05
0.5624282509 	-0.02024828642 	0.0108283758 	9.129543883e-08 	0.04169812667 	-1.257796781e-07 	7.948821883e-05
0.5662275028 	-0.02023454875 	0.01083335893 	3.818125884e-07 	0.04168445517 	-5.275208981e-07 	7.946215716e-05
0.5700647233 	-0.0202202446 	0.01083784931 	6.599917867e-07 	0.04166857392 	-9.146237716e-07 	7.943188307e-05
0.5739448569 	-0.02020563084 	0.01084105038 	9.265173512e-07 	0.04165068681 	-1.288030137e-06 	7.939778527e-05
0.5778866303 	-0.02019054603 	0.01084367898 	1.182507781e-06 	0.04163053139 	-1.649364595e-06 	7.935936344e-05
0.5818679746 	-0.02017473201 	0.01084659215 	1.425227331e-06 	0.04160777362 	-1.99515909e-06 	7.931598081e-05
0.5858894948 	-0.02015858186 	0.01084839867 	1.655099298e-06 	0.04158279355 	-2.325741636e-06 	7.926836185e-05
0.5899727857 	-0.02014205538 	0.01084952068 	1.873745789e-06 	0.04155541593 	-2.643340251e-06 	7.921617249e-05
0.5941006535 	-0.02012479455 	0.0108511993 	2.078680454e-06 	0.04152517048 	-2.945055878e-06 	7.915851625e-05
0.5982704142 	-0.02010715605 	0.01085215366 	2.270211208e-06 	0.04149243352 	-3.230817864e-06 	7.909611052e-05
0.6024979472 	-0.02008917719 	0.01085259931 	2.449533371e-06 	0.04145709672 	-3.502200424e-06 	7.902874874e-05
0.6067750414 	-0.0200705281 	0.01085371503 	2.614967381e-06 	0.04141868135 	-3.757430292e-06 	7.895551838e-05
0.6110958307 	-0.02005149614 	0.01085449904 	2.766685578e-06 	0.04137750756 	-3.996158665e-06 	7.887702969e-05
0.6154737333 	-0.02003215055 	0.01085509963 	2.905698955e-06 	0.04133349398 	-4.219605494e-06 	7.879312758e-05
0.6199031021 	-0.02001220199 	0.0108565982 	3.030658433e-06 	0.04128617407 	-4.426412414e-06 	7.870292268e-05
0.6243780584 	-0.01999192118 	0.01085810435 	2.913430087e-06 	0.04123586729 	-4.280641496e-06 	7.860702397e-05
0.6289117321 	-0.0199713567 	0.01085990354 	2.73347221e-06 	0.04118244593 	-4.041068392e-06 	7.850518801e-05
0.6334968048 	-0.01995027037 	0.01086293045 	2.564707814e-06 	0.04112548824 	-3.816378793e-06 	7.839661083e-05
0.6381294517 	-0.01992894747 	0.01086633394 	2.407183722e-06 	0.04106534582 	-3.606171281e-06 	7.828196266e-05
0.6428238051 	-0.01990735578 	0.01087073262 	2.259928248e-06 	0.04100174609 	-3.409201971e-06 	7.816072389e-05
0.6475684204 	-0.01988538063 	0.01087666528 	2.123688653e-06 	0.04093444564 	-3.227098346e-06 	7.803243053e-05
0.6523649443 	-0.01986327974 	0.01088357863 	1.997945551e-06 	0.0408637325 	-3.058796216e-06 	7.789763164e-05
0.6572223575 	-0.01984097435 	0.01089237393 	1.882380114e-06 	0.04078937617 	-2.904079388e-06 	7.77558878e-05
0.6620766355 	-0.0198187084 	0.01090288438 	1.778267654e-06 	0.04071212168 	-2.765053282e-06 	7.760861928e-05
0.6668799146 	-0.01979683619 	0.0109149387 	1.685353111e-06 	0.0406328507 	-2.641330071e-06 	7.745750675e-05
0.6716326517 	-0.01977525902 	0.01092929829 	1.603126612e-06 	0.04055151414 	-2.53258009e-06 	7.730245666e-05
0.6763304893 	-0.01975412253 	0.01094552241 	1.530747499e-06 	0.04046850823 	-2.437568646e-06 	7.714422433e-05
0.680980885 	-0.0197334534 	0.01096397727 	1.467043424e-06 	0.04038385231 	-2.354704174e-06 	7.698284662e-05
0.6855796658 	-0.01971312186 	0.01098512272 	1.411679056e-06 	0.04029740885 	-2.283902378e-06 	7.681806135e-05
0.690125814 	-0.01969329384 	0.01100848396 	1.363758107e-06 	0.04020961948 	-2.223737931e-06 	7.665071041e-05
0.6946265976 	-0.01967392105 	0.01103464082 	1.322417446e-06 	0.0401203523 	-2.173140553e-06 	7.648054236e-05
0.6990762349 	-0.01965491684 	0.0110638059 	1.287346516e-06 	0.04002957561 	-2.131921513e-06 	7.630749675e-05
0.7034757701 	-0.01963640997 	0.01109568345 	1.257727077e-06 	0.03993765828 	-2.098746237e-06 	7.613227677e-05
0.7078302603 	-0.01961831084 	0.0111308749 	1.232987638e-06 	0.03984440279 	-2.072966048e-06 	7.59545059e-05
0.7121354456 	-0.01960055965 	0.01116941827 	1.212812002e-06 	0.0397498488 	-2.054233975e-06 	7.577425971e-05
0.7163924516 	-0.01958324392 	0.01121115645 	1.196527126e-06 	0.03965429327 	-2.041432396e-06 	7.559210432e-05
0.7206051784 	-0.0195662603 	0.01125663089 	1.183713798e-06 	0.03955753201 	-2.03409061e-06 	7.540765046e-05
0.7247704865 	-0.01954953624 	0.01130584822 	1.174108823e-06 	0.03945958809 	-2.031879005e-06 	7.522094212e-05
0.7288890892 	-0.0195331308 	0.0113586498 	1.167184353e-06 	0.03936074301 	-2.033876867e-06 	7.503251593e-05
0.7329646301 	-0.01951694438 	0.01141550312 	1.16257649e-06 	0.03926082176 	-2.039633457e-06 	7.484203826e-05
0.7369945217 	-0.01950086403 	0.0114764726 	1.160109764e-06 	0.03915975882 	-2.048955145e-06 	7.464938421e-05
0.7409793914 	-0.01948492669 	0.0115412993 	1.159391718e-06 	0.03905785778 	-2.061084499e-06 	7.445513251e-05
0.7449217639 	-0.01946904593 	0.01161035763 	1.16007528e-06 	0.03895500984 	-2.075540498e-06 	7.425907574e-05
0.7488205855 	-0.01945306519 	0.01168379052 	1.162067606e-06 	0.03885103944 	-2.092268074e-06 	7.406087925e-05
0.7526760103 	-0.01943699179 	0.01176123463 	1.165104517e-06 	0.03874624959 	-2.110680554e-06 	7.386112069e-05
0.7564895149 	-0.01942075574 	0.01184291985 	1.168863129e-06 	0.03864063069 	-2.130271863e-06 	7.365978171e-05
0.7602614981 	-0.01940418213 	0.01192902946 	1.17329387e-06 	0.03853395609 	-2.151047239e-06 	7.345643027e-05
0.763991624 	-0.0193872241 	0.01201920906 	1.178249851e-06 	0.03842642555 	-2.172628248e-06 	7.325144717e-05
0.767680541 	-0.0193698327 	0.01211343617 	1.183487635e-06 	0.03831816475 	-2.194557132e-06 	7.3045072e-05
0.7713298015 	-0.01935185479 	0.01221187864 	1.188913417e-06 	0.03820900593 	-2.216724142e-06 	7.283698494e-05
0.7749386674 	-0.0193331692 	0.0123143488 	1.194490262e-06 	0.03809893167 	-2.239024911e-06 	7.262715281e-05
0.7785076447 	-0.01931374466 	0.01242052204 	1.200092732e-06 	0.03798818369 	-2.261111226e-06 	7.241603639e-05
0.7820377123 	-0.01929347377 	0.01253047671 	1.205549533e-06 	0.03787673466 	-2.282706278e-06 	7.220358356e-05
0.7855292473 	-0.01927220119 	0.0126441864 	1.210875328e-06 	0.0377644323 	-2.30387111e-06 	7.198950405e-05
0.7889822604 	-0.0192498633 	0.01276128135 	1.216014145e-06 	0.03765141643 	-2.324407704e-06 	7.177406438e-05
0.7923972207 	-0.01922641169 	0.01288156989 	1.220841601e-06 	0.03753784492 	-2.344066478e-06 	7.155756553e-05
0.7957751119 	-0.01920172317 	0.01300507551 	1.225243864e-06 	0.03742362988 	-2.362721096e-06 	7.133983991e-05
0.799115918 	-0.0191756828 	0.01313162644 	1.229216958e-06 	0.03730869828 	-2.380415627e-06 	7.112074834e-05
0.8024199552 	-0.01914825837 	0.01326084993 	1.232675371e-06 	0.03719321957 	-2.396967494e-06 	7.090061382e-05
0.8056876609 	-0.01911940184 	0.01339259472 	1.235466462e-06 	0.03707729758 	-2.412182585e-06 	7.067963429e-05
0.808919881 	-0.01908900929 	0.0135268213 	1.237470526e-06 	0.03696084179 	-2.425993837e-06 	7.045763718e-05
0.8121165911 	-0.01905701262 	0.01366328963 	1.197572028e-06 	0.03684383672 	-2.357571737e-06 	7.023459301e-05
0.815278181 	-0.01902340608 	0.01380165667 	1.1414736e-06 	0.03672643687 	-2.256769407e-06 	7.001079625e-05
0.8184050606 	-0.01898816919 	0.01394174179 	1.086658694e-06 	0.03660874307 	-2.158019274e-06 	6.978643917e-05
0.8214979011 	-0.01895123954 	0.01408345143 	1.033030909e-06 	0.03649070143 	-2.061295748e-06 	6.956141899e-05
0.824556818 	-0.01891259314 	0.01422652927 	9.805197046e-07 	0.03637232159 	-1.966541732e-06 	6.933575412e-05
0.8275821714 	-0.01887225986 	0.01437063546 	9.291528248e-07 	0.03625374816 	-1.873850389e-06 	6.91097202e-05
0.8305743473 	-0.01883026897 	0.01451553079 	8.78932572e-07 	0.03613511728 	-1.783293435e-06 	6.888357677e-05
0.8335338579 	-0.01878661387 	0.01466107374 	8.298229064e-07 	0.03601643809 	-1.694874197e-06 	6.865734126e-05
0.8364609812 	-0.01874131004 	0.01480702789 	7.817729079e-07 	0.035897724 	-1.608506219e-06 	6.84310392e-05
0.8393560156 	-0.01869443314 	0.01495304573 	7.348282869e-07 	0.03577912627 	-1.524247986e-06 	6.820495897e-05
0.8422193257 	-0.01864606482 	0.0150988515 	6.890270811e-07 	0.03566080953 	-1.442157889e-06 	6.797941436e-05
0.8450513006 	-0.01859626363 	0.01524425279 	6.443934674e-07 	0.03554286011 	-1.362273097e-06 	6.775456999e-05
0.8478523485 	-0.01854508407 	0.01538905166 	6.009160695e-07 	0.03542530763 	-1.284531041e-06 	6.753048229e-05
0.8506227078 	-0.01849263806 	0.01553293498 	5.586395118e-07 	0.03530829482 	-1.208943034e-06 	6.730742337e-05
0.8533627237 	-0.0184390454 	0.01567562997 	5.176229365e-07 	0.03519198056 	-1.135560921e-06 	6.708569605e-05
0.8560727368 	-0.018384427 	0.01581690204 	4.77918133e-07 	0.03507651749 	-1.064427009e-06 	6.686559136e-05
0.8587531258 	-0.01832888487 	0.01595657715 	4.395613197e-07 	0.03496200021 	-9.955575497e-07 	6.664728958e-05
0.861404197 	-0.0182725281 	0.01609445465 	4.02567054e-07 	0.03484849714 	-9.289044475e-07 	6.643092119e-05
0.8640262397 	-0.0182155158 	0.01623026211 	3.669933773e-07 	0.03473618459 	-8.645019162e-07 	6.621682226e-05
0.8666195773 	-0.01815799407 	0.01636379213 	3.328891608e-07 	0.03462521165 	-8.023860122e-07 	6.600527699e-05
0.8691845291 	-0.01810011109 	0.01649485388 	3.002954025e-07 	0.03451572402 	-7.425844929e-07 	6.579656313e-05
0.8717214379 	-0.01804200217 	0.01662329473 	2.692355961e-07 	0.03440783157 	-6.851010884e-07 	6.559089014e-05
0.8742305906 	-0.01798381151 	0.01674893514 	2.397094156e-07 	0.03430162874 	-6.298923258e-07 	6.538843803e-05
0.8767122763 	-0.01792572857 	0.01687153425 	2.117243833e-07 	0.03419730406 	-5.769624832e-07 	6.518956619e-05
0.8791667987 	-0.01786793681 	0.01699088176 	1.85251603e-07 	0.03409502739 	-5.26296043e-07 	6.499459843e-05
0.881594458 	-0.01781064146 	0.01710673602 	1.60212784e-07 	0.03399499344 	-4.778440142e-07 	6.480390592e-05
0.8839955611 	-0.01775407151 	0.01721881977 	1.364582563e-07 	0.03389742082 	-4.315072754e-07 	6.461790539e-05
0.8863703967 	-0.01769850617 	0.01732675011 	1.137406274e-07 	0.03380256157 	-3.870945348e-07 	6.443707729e-05
0.8887192369 	-0.01764434431 	0.0174299395 	9.172824749e-08 	0.03371083941 	-3.443849685e-07 	6.426222936e-05
0.891042368 	-0.01759210787 	0.01752759119 	7.000404213e-08 	0.03362282648 	-3.031062505e-07 	6.409445225e-05
0.8933400725 	-0.01754249194 	0.01761859995 	4.812507769e-08 	0.03353928538 	-2.629650166e-07 	6.39351997e-05
0.8956126298 	-0.01749642212 	0.01770146829 	2.576688572e-08 	0.0334612558 	-2.237511053e-07 	6.378645363e-05