0.3362433877 	3.186464307e-07 	-9.319256099e-10 	2.556466242e-15 	3.173747517e-07 	-6.726335893e-13 	6.050044864e-10
0.3362433877 	3.186464307e-07 	-9.319256099e-10 	2.556466242e-15 	3.173747517e-07 	-6.726335892e-13 	6.050044864e-10
0.3363017955 	1.495514738e-06 	-1.564293494e-08 	-6.422920273e-10 	1.481506397e-06 	5.082535101e-08 	2.824162956e-09
0.3364356309 	4.198180173e-06 	-4.94245224e-08 	4.229923244e-13 	4.15492744e-06 	-2.710253301e-11 	7.920446502e-09
0.3366277463 	2.42715559e-05 	-6.72602484e-07 	1.538230379e-11 	2.374538223e-05 	-4.078798746e-10 	4.526529823e-08
0.3368198693 	8.287071367e-05 	-4.267797949e-06 	1.618581993e-10 	7.966773695e-05 	-2.252827695e-09 	1.518688491e-07
0.3370119991 	0.0002087006502 	-1.732737692e-05 	9.166569978e-10 	0.0001959413722 	-7.682485244e-09 	3.735187146e-07
0.3372041348 	0.0004332640388 	-5.227897263e-05 	3.508221113e-09 	0.0003951475939 	-1.958654826e-08 	7.532611395e-07
0.3373962757 	0.00078637508 	-0.0001271305643 	1.014553385e-08 	0.0006942111698 	-4.09648255e-08 	1.323359436e-06
0.3375884208 	0.001289085781 	-0.0002613656121 	2.360236032e-08 	0.001100273692 	-7.396387054e-08 	2.097427463e-06
0.3377805694 	0.001945568772 	-0.0004685740308 	4.598205274e-08 	0.001607844068 	-1.189637448e-07 	3.064997672e-06
0.3379727207 	0.002738227974 	-0.0007495233346 	7.734573781e-08 	0.002198849947 	-1.742248988e-07 	4.191619138e-06
0.3381648737 	0.00363000026 	-0.001090413848 	1.153693024e-07 	0.0028461815 	-2.363647309e-07 	5.425612994e-06
0.3383570277 	0.004573527706 	-0.001467671511 	1.563991565e-07 	0.003519438805 	-3.0139091e-07 	6.70902854e-06
0.3385491818 	0.005522385265 	-0.001855851639 	1.970088687e-07 	0.004190492203 	-3.65696957e-07 	7.988242826e-06
0.3387413353 	0.006439180747 	-0.002233957408 	2.349553748e-07 	0.004837034473 	-4.26609848e-07 	9.220732091e-06
0.3389334873 	0.007298577569 	-0.002588028631 	2.69258834e-07 	0.005443741239 	-4.824694196e-07 	1.037728381e-05
0.3391256369 	0.008086408202 	-0.002910716424 	2.998038447e-07 	0.006001702338 	-5.32437e-07 	1.144091274e-05
0.3393177834 	0.008797021022 	-0.003199531154 	3.268972166e-07 	0.00650703934 	-5.762305185e-07 	1.240422552e-05
0.3395099259 	0.009430444458 	-0.003455002177 	3.509706192e-07 	0.006959394153 	-6.138971296e-07 	1.326653952e-05
0.3397020636 	0.009990088642 	-0.00367926706 	3.724330169e-07 	0.00736064078 	-6.456568852e-07 	1.403142711e-05
0.3398941957 	0.01048113027 	-0.003875154547 	3.916188716e-07 	0.007713925245 	-6.71809609e-07 	1.470488549e-05
0.3400863214 	0.01090947723 	-0.00404565289 	4.087832905e-07 	0.008023010018 	-6.926850408e-07 	1.529408697e-05
0.3402784399 	0.0112811511 	-0.004193632277 	4.24114784e-07 	0.008291854924 	-7.086184611e-07 	1.580658009e-05
0.3404705503 	0.01160194459 	-0.004321718635 	4.377514995e-07 	0.008524364932 	-7.199397672e-07 	1.624980879e-05
0.3406626518 	0.01187724964 	-0.004432250871 	4.497953553e-07 	0.008724248811 	-7.269689989e-07 	1.663084301e-05
0.3408547436 	0.01211198645 	-0.004527280491 	4.603225096e-07 	0.008894948565 	-7.300147951e-07 	1.695624419e-05
0.3410468249 	0.0123105898 	-0.004608590098 	4.693898274e-07 	0.009039611824 	-7.293733971e-07 	1.723201257e-05
0.3412388949 	0.01247702476 	-0.00467771864 	4.770367668e-07 	0.009161091832 	-7.253246109e-07 	1.746358723e-05
0.3414309528 	0.01261482716 	-0.004735981082 	4.832799799e-07 	0.00926194069 	-7.181174919e-07 	1.765583318e-05
0.3416229978 	0.01272711042 	-0.004784523437 	4.881370812e-07 	0.009344497136 	-7.080392771e-07 	1.781320871e-05
0.341815029 	0.01281644429 	-0.004823809915 	4.915293149e-07 	0.009411039045 	-6.958192375e-07 	1.794005608e-05
0.3420070457 	0.01289462873 	-0.004861264855 	4.933440959e-07 	0.009468579056 	-6.746363028e-07 	1.804974334e-05
0.3423053646 	0.01296069499 	-0.004896706911 	5.089329055e-07 	0.009517027595 	-6.442685615e-07 	1.814209972e-05
0.3426092492 	0.01299745235 	-0.004919451652 	4.742709855e-07 	0.009546020105 	-6.151626129e-07 	1.81973675e-05
0.3429187992 	0.01300041032 	-0.0049252129 	3.85521897e-07 	0.00955290459 	-5.925836688e-07 	1.821049124e-05
0.343234116 	0.01297298078 	-0.004915876522 	3.286544012e-07 	0.009539425321 	-5.434166549e-07 	1.818479601e-05
0.3435553022 	0.01291858948 	-0.004895580152 	2.928500039e-07 	0.009506160079 	-4.703820881e-07 	1.812138321e-05
0.3438824622 	0.01283914391 	-0.004865670713 	2.484713107e-07 	0.009454245731 	-3.820331325e-07 	1.802242003e-05
0.3442157019 	0.01273597632 	-0.004826677758 	1.940860227e-07 	0.009384697026 	-2.744137192e-07 	1.788984087e-05
0.3445551286 	0.01261017319 	-0.00477899161 	1.284748174e-07 	0.00929819666 	-1.445686078e-07 	1.772494713e-05
0.3449008511 	0.0124625566 	-0.004722899794 	5.045069908e-08 	0.009195218677 	9.923075562e-09 	1.752864248e-05
0.3452529799 	0.01229369226 	-0.004658595326 	-4.143713495e-08 	0.009076051556 	1.920662449e-07 	1.730147682e-05
0.3456116268 	0.01210389741 	-0.004586179748 	-1.488902323e-07 	0.008940804618 	4.053317181e-07 	1.704365857e-05
0.3459769053 	0.01189324479 	-0.004505666437 	-2.738646859e-07 	0.008789417794 	6.536309907e-07 	1.675507321e-05
0.3463489302 	0.01166156979 	-0.004416986491 	-4.185036737e-07 	0.008621679547 	9.411083754e-07 	1.643531749e-05
0.346727818 	0.01140853439 	-0.004320018671 	-5.844444553e-07 	0.00843729756 	1.270653224e-06 	1.608383417e-05
0.3471136864 	0.01113393777 	-0.00421471348 	-7.704128288e-07 	0.008236157522 	1.639125446e-06 	1.570040536e-05
0.3475066549 	0.01083825974 	-0.004101300751 	-9.710565121e-07 	0.008018739409 	2.035225538e-06 	1.528594601e-05
0.347906844 	0.01052277197 	-0.003980325641 	-1.123423645e-06 	0.007786181798 	2.328335633e-06 	1.484262656e-05
0.348314376 	0.01018888671 	-0.003852389905 	-1.243451316e-06 	0.007539752019 	2.554121293e-06 	1.437286291e-05
0.3487293745 	0.009837536172 	-0.003717904123 	-1.352725211e-06 	0.007280331433 	2.757976198e-06 	1.387833517e-05
0.3491519642 	0.009469138152 	-0.003577067779 	-1.453151359e-06 	0.007008357213 	2.944323726e-06 	1.335987672e-05
0.3495822713 	0.009083828205 	-0.003429958961 	-1.544967991e-06 	0.006723997049 	3.114126472e-06 	1.281780721e-05
0.3500204234 	0.008681668242 	-0.003276619914 	-1.627089849e-06 	0.006427327533 	3.265483937e-06 	1.225227266e-05
0.3504665492 	0.008262814701 	-0.003117131599 	-1.697369588e-06 	0.006118498952 	3.394193084e-06 	1.166355955e-05
0.3509207785 	0.007827329984 	-0.002951523537 	-1.753303644e-06 	0.005797541607 	3.495166619e-06 	1.105172565e-05
0.3513845503 	0.007372304527 	-0.002778724717 	-1.792207297e-06 	0.005462398604 	3.562858679e-06 	1.041284993e-05
0.3518696828 	0.006895869251 	-0.002598074211 	-1.806852543e-06 	0.00511183035 	3.582762507e-06 	9.744569408e-06
0.3523637086 	0.006403469844 	-0.002411668206 	-1.794446756e-06 	0.004749956783 	3.549392807e-06 	9.05473781e-06
0.3528667873 	0.005901522289 	-0.002221977067 	-1.750687005e-06 	0.004381689975 	3.454331762e-06 	8.35271892e-06
0.3533790813 	0.005394350978 	-0.002030662873 	-1.672830503e-06 	0.004010398113 	3.292273311e-06 	7.644933437e-06
0.3539007558 	0.004887497321 	-0.001839838207 	-1.559684623e-06 	0.003640363871 	3.061016598e-06 	6.939545324e-06
0.354431979 	0.004387768878 	-0.001652076703 	-1.412493521e-06 	0.003276807371 	2.763116109e-06 	6.24650559e-06
0.3549729218 	0.003903070869 	-0.001470357668 	-1.2359445e-06 	0.002925799535 	2.407862516e-06 	5.577387097e-06
0.3555237583 	0.003441915948 	-0.001297859333 	-1.039916681e-06 	0.002593795013 	2.017775241e-06 	4.944494204e-06
0.3560846653 	0.00301250223 	-0.001137425574 	-8.39025554e-07 	0.002286066631 	1.626712651e-06 	4.357878379e-06
0.3566558229 	0.002619496737 	-0.0009888869084 	-7.072514512e-07 	0.002005106844 	1.255548734e-06 	3.822290935e-06
0.3572374142 	0.002256648348 	-0.0008388999243 	-6.041591796e-07 	0.001751176072 	9.285373604e-07 	3.338228308e-06
0.3578296256 	0.001917178063 	-0.000682737964 	-4.362859463e-07 	0.001519783843 	6.45491187e-07 	2.897130406e-06
0.3584326466 	0.001605522248 	-0.0005358987593 	-2.578098233e-07 	0.00130683615 	3.823156225e-07 	2.491192918e-06
0.35904667 	0.001327966426 	-0.0004050280479 	-1.040947096e-07 	0.001116639417 	1.519829313e-07 	2.128625082e-06
0.3595770964 	0.001126833571 	-0.0003092710523 	7.693748258e-07 	0.0009796948894 	-1.107045114e-06 	1.867570751e-06
0.3596716997 	0.001090848041 	-0.0002921409525 	-1.810833326e-08 	0.0009551970697 	2.648468872e-08 	1.820871098e-06
0.3603070346 	0.000900520656 	-0.0002007581667 	-1.140978137e-07 	0.0008264982127 	1.648560728e-07 	1.575535307e-06
0.3609539542 	0.0007576854074 	-0.0001310186057 	-1.644350852e-07 	0.0007311457445 	2.32451333e-07 	1.393767e-06
0.3616126648 	0.0006586343416 	-8.063937868e-05 	-1.747033175e-07 	0.0006672307134 	2.329072946e-07 	1.271927187e-06
0.3622833765 	0.0005958425988 	-4.568174579e-05 	-1.593628868e-07 	0.0006300470716 	1.842661274e-07 	1.201044831e-06
0.3629663027 	0.0005605839732 	-2.198163648e-05 	-1.330131097e-07 	0.0006137081967 	1.090715798e-07 	1.169898394e-06
0.3636616609 	0.0005449745266 	-6.032564543e-06 	-1.053624788e-07 	0.0006125890001 	2.583016754e-08 	1.167764894e-06
0.364369672 	0.0005424976752 	4.761282397e-06 	-8.102006187e-08 	0.0006217184682 	-5.062805568e-08 	1.185168198e-06
0.3650905608 	0.0005482223805 	1.218274085e-05 	-6.12674019e-08 	0.0006371583707 	-1.129945292e-07 	1.214600944e-06
0.3658245562 	0.0005589037004 	1.74224161e-05 	-4.595406954e-08 	0.0006563406638 	-1.624838607e-07 	1.251167726e-06
0.3665815357 	0.0005726452202 	2.12666138e-05 	-3.449064724e-08 	0.0006778809425 	-2.032572419e-07 	1.292229484e-06
0.3673642267 	0.0005883002948 	2.421714122e-05 	-2.614591196e-08 	0.0007009335973 	-2.387398511e-07 	1.336174251e-06
0.3681610793 	0.0006050793076 	2.658440948e-05 	-2.025738132e-08 	0.0007248535851 	-2.709872148e-07 	1.381772396e-06
0.3689723428 	0.0006225111876 	2.85769601e-05 	-1.623467359e-08 	0.0007493082814 	-3.017302739e-07 	1.428389844e-06
0.369798271 	0.0006403616618 	3.034058927e-05 	-1.353719089e-08 	0.0007741816839 	-3.320613481e-07 	1.475805462e-06
0.3706391218 	0.0006584994899 	3.196797114e-05 	-1.174629932e-08 	0.0007994194789 	-3.626319375e-07 	1.523915714e-06
0.3714951578 	0.0006768467839 	3.351790397e-05 	-1.054949771e-08 	0.0008250061544 	-3.938355368e-07 	1.572691029e-06
0.372366646 	0.0006953511506 	3.502742899e-05 	-9.371257152e-09 	0.0008509533565 	-4.109713877e-07 	1.622153608e-06
0.3732538578 	0.0007139675323 	3.651953674e-05 	-7.620815316e-09 	0.0008772972015 	-3.862948757e-07 	1.672372298e-06
0.3741570696 	0.0007326379871 	3.800686837e-05 	-6.175630624e-09 	0.0009041112303 	-3.607631512e-07 	1.72348729e-06
0.3750765622 	0.0007536594473 	3.974131501e-05 	-4.862057804e-09 	0.0009349980017 	-3.347932145e-07 	1.78236606e-06
0.376486773 	0.0007792086789 	4.192472862e-05 	-3.407795629e-09 	0.0009727477584 	-2.925470601e-07 	1.854327589e-06
0.3779110756 	0.00080676377 	4.43696823e-05 	-2.204740465e-09 	0.001013277831 	-2.489908649e-07 	1.931589172e-06
0.3793496129 	0.0008340065613 	4.695812163e-05 	-1.279841393e-09 	0.001053364129 	-2.040878058e-07 	2.008004797e-06
0.3808025294 	0.0008611761349 	4.969601897e-05 	-5.379658544e-10 	0.001093565563 	-1.577917488e-07 	2.084639903e-06
0.3823059562 	0.0008884465092 	5.260336405e-05 	-5.660749932e-11 	0.001134279172 	-1.089851891e-07 	2.162251359e-06
0.3838280091 	0.0009156722632 	5.569518089e-05 	1.100161433e-10 	0.001175231002 	-5.884800152e-08 	2.240316928e-06
0.3853651093 	0.0009426829803 	5.895207755e-05 	2.890430573e-11 	0.001216156248 	-7.270378615e-09 	2.318331821e-06
0.3855803392 	0.0009463951965 	5.942803238e-05 	1.931416782e-08 	0.001221834357 	2.255300536e-07 	2.329155877e-06
0.3869151756 	0.0009694653325 	6.238628391e-05 	1.854360321e-10 	0.001257125156 	-4.498854643e-08 	2.396429947e-06
0.3884802461 	0.0009960534913 	6.601504633e-05 	5.355225848e-10 	0.001298174046 	-9.848343394e-08 	2.474680541e-06
0.3900608389 	0.001022480544 	6.983507431e-05 	9.750429306e-10 	0.001339264053 	-1.531361375e-07 	2.553009514e-06
0.3916571133 	0.001048774948 	7.383167664e-05 	1.503005357e-09 	0.001380406974 	-2.08706469e-07 	2.631439356e-06
0.3932692312 	0.001074990695 	7.798843946e-05 	2.227941284e-09 	0.001421618913 	-2.651048514e-07 	2.710000767e-06
0.3948973565 	0.001101255032 	8.230099799e-05 	3.135127572e-09 	0.001463176415 	-3.228846354e-07 	2.789220916e-06
0.3965690669 	0.001127722617 	8.679677191e-05 	3.718695477e-09 	0.001505450108 	-3.849535776e-07 	2.869806324e-06
0.3982718105 	0.00115437347 	9.147789365e-05 	3.832180997e-09 	0.001548282177 	-4.505090431e-07 	2.951456152e-06
0.3999912797 	0.001181064113 	9.630245649e-05 	3.964752558e-09 	0.001591380512 	-5.046147623e-07 	3.033613557e-06
0.4017276483 	0.001207752322 	0.0001012330261 	3.740865616e-09 	0.001634648812 	-4.480045738e-07 	3.116094963e-06
0.4034810924 	0.001234454991 	0.0001062379211 	4.199570835e-09 	0.001678028418 	-3.884885491e-07 	3.198788548e-06
0.4052517911 	0.001261171246 	0.0001112905558 	4.828892726e-09 	0.001721511492 	-3.283468781e-07 	3.281679374e-06
0.4070399258 	0.001287902394 	0.0001163687803 	4.949965755e-09 	0.001765066998 	-2.694442717e-07 	3.364708274e-06
0.4088456808 	0.001314701009 	0.0001214610941 	4.534625595e-09 	0.001808819786 	-2.111269159e-07 	3.448113247e-06
0.4106892378 	0.001341659006 	0.0001265769128 	3.679551425e-09 	0.001853104798 	-1.516002821e-07 	3.532532789e-06
0.4125745154 	0.001368716837 	0.0001317345037 	2.420939561e-09 	0.001897951773 	-9.021427703e-08 	3.618023587e-06
0.4144781776 	0.001395628285 	0.0001369041057 	8.006138996e-10 	0.001943137841 	-2.734781539e-08 	3.704160792e-06
0.4152956098 	0.00140690983 	0.0001390953927 	8.308293435e-08 	0.001962504299 	7.056399537e-07 	3.741078643e-06
0.4163989494 	0.001422158389 	0.0001420569949 	1.031773616e-09 	0.001988679081 	-3.725531902e-08 	3.790975053e-06
0.4183374299 	0.001448127467 	0.0001472132405 	3.114639377e-09 	0.002034779793 	-1.044657795e-07 	3.878855823e-06
0.4202949142 	0.001473317123 	0.0001524035398 	5.539831761e-09 	0.002081699282 	-1.758068621e-07 	3.968297411e-06
0.4222716086 	0.001497494274 	0.0001576919887 	8.244687801e-09 	0.002129736755 	-2.529057759e-07 	4.059870185e-06
0.4242727255 	0.001520452707 	0.0001631361907 	1.111697485e-08 	0.002179565803 	-3.380929059e-07 	4.154858199e-06
0.4263330869 	0.001541890926 	0.0001688690349 	1.404478562e-08 	0.002231793908 	-4.353843622e-07 	4.254419483e-06
0.4284134725 	0.001561305698 	0.0001749827782 	1.678818177e-08 	0.00228646972 	-5.457267387e-07 	4.358646778e-06
0.4305141024 	0.001578179981 	0.0001815047745 	1.917803054e-08 	0.002343824029 	-6.717616818e-07 	4.467980032e-06
0.4326352002 	0.001592100114 	0.0001885312886 	1.963085806e-08 	0.002404311597 	-7.590960096e-07 	4.583286148e-06
0.4347769937 	0.001602736605 	0.0001961622548 	1.635904696e-08 	0.002468200501 	-7.1346755e-07 	4.705076156e-06
0.4369397142 	0.001609874523 	0.0002044983268 	1.317864444e-08 	0.002535729224 	-6.571330943e-07 	4.83380467e-06
0.4391442892 	0.001613283655 	0.0002135966602 	1.174376186e-08 	0.002607351821 	-5.904506534e-07 	4.970337247e-06
0.4413946634 	0.001612928226 	0.0002234644327 	8.452580437e-09 	0.002682769515 	-5.006092741e-07 	5.114104333e-06
0.443666834 	0.001609068788 	0.0002354103321 	-1.365530617e-08 	0.002760493551 	-3.964582989e-07 	5.262267949e-06
0.4459610492 	0.001602159428 	0.0002525655034 	-2.047427134e-08 	0.002835022456 	-2.045927807e-07 	5.404340756e-06
0.448277562 	0.001597719393 	0.0002727244518 	-8.790631938e-09 	0.002883802443 	-4.749978872e-08 	5.497328967e-06
0.4505459865 	0.001598507586 	0.0002918543429 	2.429675467e-08 	0.00290173204 	5.995745881e-09 	5.531507763e-06
0.4506165593 	0.001598529042 	0.0002924510756 	-2.426351224e-10 	0.002902302117 	-9.5148224e-10 	5.532594487e-06
0.4529933429 	0.001600844729 	0.0003111278393 	-5.841906683e-09 	0.00291296435 	-3.128349958e-08 	5.552919669e-06
0.4554208951 	0.001603713971 	0.0003262041789 	4.586633145e-09 	0.002922664483 	-6.306524988e-08 	5.571410818e-06
0.4578719627 	0.001606501729 	0.000337517406 	2.642539705e-08 	0.002931677297 	-9.483860514e-08 	5.588591746e-06
0.4603468233 	0.001608912729 	0.0003462876082 	5.095684248e-08 	0.002939769871 	-1.234538723e-07 	5.604018442e-06
0.4628457593 	0.001610886881 	0.0003534840311 	7.666142136e-08 	0.002946801924 	-1.490302121e-07 	5.617423488e-06
0.4653690586 	0.001612382108 	0.0003595972954 	1.021416559e-07 	0.002952853683 	-1.718001055e-07 	5.628959823e-06
0.4679520536 	0.001613400403 	0.0003650268882 	1.270496574e-07 	0.002958017315 	-1.926362537e-07 	5.638803141e-06
0.470569172 	0.001613997087 	0.0003700615234 	1.511464214e-07 	0.0029623448 	-2.119029051e-07 	5.64705253e-06
0.4732116477 	0.001614228869 	0.0003747557343 	1.461941454e-07 	0.002965981323 	-1.928571492e-07 	5.653984753e-06
0.4758797916 	0.00161416774 	0.000379230797 	1.298006531e-07 	0.002969043136 	-1.631979998e-07 	5.65982142e-06
0.478573921 	0.00161387277 	0.0003835291088 	1.122683132e-07 	0.002971673259 	-1.358552946e-07 	5.664835166e-06
0.4813208668 	0.001613387668 	0.0003877109848 	9.381367684e-08 	0.002973985295 	-1.100746373e-07 	5.669242548e-06
0.4841109496 	0.001612768615 	0.0003918642985 	7.483492859e-08 	0.002976027818 	-8.56567074e-08 	5.673136165e-06
0.4869280722 	0.001612054457 	0.000395948942 	5.565661352e-08 	0.002977886463 	-6.245525236e-08 	5.67667926e-06
0.4897725782 	0.001611283268 	0.0003999944047 	3.64061401e-08 	0.002979607455 	-4.021056249e-08 	5.679959949e-06
0.4926448178 	0.001610468548 	0.000403981706 	1.716976759e-08 	0.002981265115 	-1.872438087e-08 	5.683119908e-06
0.4952388018 	0.001609718622 	0.0004074990433 	5.650111074e-09 	0.002982703435 	-7.853296196e-08 	5.685861746e-06
0.4955778201 	0.001609619935 	0.0004079580992 	2.209373599e-09 	0.002982889819 	-2.423537272e-09 	5.686217047e-06
0.4985460505 	0.001608762926 	0.0004119743422 	2.118114986e-08 	0.002984462562 	-2.302324016e-08 	5.689215132e-06
0.50154319 	0.001607915804 	0.0004159789848 	3.994043872e-08 	0.002986036287 	-4.310019501e-08 	5.692215088e-06
0.5045696182 	0.001607086236 	0.0004199810891 	5.845886366e-08 	0.002987625081 	-6.272316925e-08 	5.695243773e-06
0.5076367908 	0.00160626895 	0.0004239754116 	7.679384321e-08 	0.002989258854 	-8.20229346e-08 	5.698358197e-06
0.5107623923 	0.001605472549 	0.0004280205759 	9.502637957e-08 	0.002990920729 	-1.011303093e-07 	5.701526193e-06
0.5139184742 	0.00160470886 	0.0004321099989 	1.129108475e-07 	0.002992605422 	-1.198509042e-07 	5.704737687e-06
0.5171054487 	0.001603983902 	0.0004362199029 	1.304410214e-07 	0.002994321181 	-1.382108439e-07 	5.7080084e-06
0.520325042 	0.001603283867 	0.0004403226123 	1.476074906e-07 	0.002996098481 	-1.562358328e-07 	5.711396428e-06
0.523612288 	0.001602608952 	0.0004444747719 	1.646198639e-07 	0.002997918062 	-1.741371898e-07 	5.714865054e-06
0.5269316876 	0.001601974043 	0.0004487054396 	1.502689817e-07 	0.002999745147 	-1.589835816e-07 	5.718347986e-06
0.5302836887 	0.001601378948 	0.0004529619145 	1.33241129e-07 	0.003001596568 	-1.410737629e-07 	5.721877309e-06
0.533669638 	0.001600808042 	0.000457221162 	1.165535515e-07 	0.003003494613 	-1.235678113e-07 	5.72549551e-06
0.5371230183 	0.001600261654 	0.0004615366303 	1.000283341e-07 	0.00300541502 	-1.062244501e-07 	5.72915634e-06
0.5406103399 	0.001599755135 	0.0004659445398 	8.392344659e-08 	0.003007313904 	-8.933173539e-08 	5.732776141e-06
0.5441320894 	0.001599279203 	0.0004703738573 	6.824446737e-08 	0.003009220518 	-7.284892834e-08 	5.736410677e-06
0.5476960233 	0.001598822328 	0.0004748262032 	5.294621128e-08 	0.003011138334 	-5.670586769e-08 	5.740066566e-06
0.5513203417 	0.001598389398 	0.0004793506456 	3.796765251e-08 	0.00301303469 	-4.081508782e-08 	5.743681549e-06
0.5549805169 	0.001597990658 	0.0004839623091 	2.347911255e-08 	0.003014877198 	-2.534950474e-08 	5.747193881e-06
0.5586770766 	0.001597609446 	0.0004885912278 	9.479449279e-09 	0.00301670116 	-1.028372668e-08 	5.75067086e-06
0.5612874305 	0.001597354293 	0.0004918467209 	1.431015503e-08 	0.003017944777 	-2.392670282e-07 	5.75304154e-06
0.5624282509 	0.001597241402 	0.0004932671239 	4.029845807e-09 	0.003018485474 	-4.45523068e-09 	5.754072258e-06
0.5662275028 	0.001596897051 	0.0004980337677 	1.68579311e-08 	0.003020183577 	-1.87430602e-08 	5.757309314e-06
0.5700647233 	0.001596573699 	0.0005028580442 	2.914602116e-08 	0.003021804685 	-3.260506336e-08 	5.760399596e-06
0.5739448569 	0.001596258766 	0.0005077153674 	4.091877037e-08 	0.003023360491 	-4.607711728e-08 	5.763365396e-06
0.5778866303 	0.00159595872 	0.0005126538036 	5.222195925e-08 	0.003024812462 	-5.921613274e-08 	5.766133255e-06
0.5818679746 	0.001595682948 	0.0005176917286 	6.293475147e-08 	0.003026124399 	-7.190405743e-08 	5.768634173e-06
0.5858894948 	0.001595411839 	0.0005227593313 	7.30683479e-08 	0.003027334334 	-8.414942648e-08 	5.770940646e-06
0.5899727857 	0.00159514982 	0.000527899457 	8.268919703e-08 	0.003028407068 	-9.602459971e-08 	5.772985573e-06
0.5941006535 	0.001594911705 	0.0005331547847 	9.16903847e-08 	0.003029290465 	-1.074283996e-07 	5.774669574e-06
0.5982704142 	0.001594678282 	0.0005384524613 	1.00078288e-07 	0.003030023181 	-1.183518302e-07 	5.776066335e-06
0.6024979472 	0.001594453207 	0.0005438218803 	1.07899093e-07 	0.003030575648 	-1.28839493e-07 	5.77711949e-06
0.6067750414 	0.001594252033 	0.0005493095705 	1.150824352e-07 	0.00303089438 	-1.388234437e-07 	5.777727083e-06
0.6110958307 	0.00159405852 	0.0005548541379 	1.216305366e-07 	0.003031010502 	-1.482832753e-07 	5.777948443e-06
0.6154737333 	0.001593877348 	0.000560476482 	1.275812383e-07 	0.003030897611 	-1.572459126e-07 	5.777733241e-06
0.6199031021 	0.001593724729 	0.0005662211637 	1.328795881e-07 	0.003030503106 	-1.656525198e-07 	5.776981205e-06
0.6243780584 	0.001593585872 	0.0005720320461 	1.275354491e-07 	0.003029856525 	-1.608680163e-07 	5.775748642e-06
0.6289117321 	0.001593470027 	0.0005779335762 	1.194399498e-07 	0.003028926915 	-1.524794635e-07 	5.773976546e-06
0.6334968048 	0.001593393355 	0.000583962299 	1.118408627e-07 	0.003027667077 	-1.4456292e-07 	5.771574946e-06
0.6381294517 	0.001593342576 	0.0005900650113 	1.047388801e-07 	0.003026108091 	-1.371092665e-07 	5.768603085e-06
0.6428238051 	0.001593335733 	0.0005962805059 	9.809050607e-08 	0.003024206478 	-1.30067833e-07 	5.764978081e-06
0.6475684204 	0.001593384617 	0.0006026232056 	9.193217012e-08 	0.003021934905 	-1.23510432e-07 	5.760647831e-06
0.6523649443 	0.001593484792 	0.0006090576548 	8.623959521e-08 	0.00301931414 	-1.17399528e-07 	5.755651927e-06
0.6572223575 	0.001593662117 	0.0006156153135 	8.099960204e-08 	0.003016301244 	-1.117225004e-07 	5.749908509e-06
0.6620766355 	0.0015939165 	0.0006222215951 	7.62701757e-08 	0.003012936526 	-1.065703409e-07 	5.743494422e-06
0.6668799146 	0.001594253657 	0.0006288148894 	7.203889912e-08 	0.003009264202 	-1.019313759e-07 	5.736493951e-06
0.6716326517 	0.001594701223 	0.000635413788 	6.828658614e-08 	0.003005268393 	-9.778886324e-08 	5.728876829e-06
0.6763304893 	0.00159525793 	0.0006419867865 	6.497647806e-08 	0.003000998961 	-9.410385696e-08 	5.720738105e-06
0.680980885 	0.001595942275 	0.0006485585062 	6.205347764e-08 	0.002996462875 	-9.082007953e-08 	5.712091063e-06
0.6855796658 	0.001596772079 	0.0006551482597 	5.950347308e-08 	0.002991661937 	-8.793454321e-08 	5.702939142e-06
0.690125814 	0.001597745941 	0.0006617259863 	5.728810771e-08 	0.002986651077 	-8.539116324e-08 	5.693387049e-06
0.6946265976 	0.001598892907 	0.0006683249462 	5.536946538e-08 	0.002981423281 	-8.314110848e-08 	5.683421417e-06
0.6990762349 	0.001600227672 	0.0006749524293 	5.373508612e-08 	0.002975997937 	-8.117305246e-08 	5.673079204e-06
0.7034757701 	0.001601756533 	0.0006815902426 	5.235125257e-08 	0.00297042531 	-7.942927157e-08 	5.662456228e-06
0.7078302603 	0.001603512109 	0.0006882728656 	5.119406469e-08 	0.002964701235 	-7.787344949e-08 	5.651544551e-06
0.7121354456 	0.001605507802 	0.0006950006722 	5.025230431e-08 	0.00295885881 	-7.648369255e-08 	5.640407265e-06
0.7163924516 	0.001607756703 	0.0007017646987 	4.950011862e-08 	0.002952945724 	-7.520666711e-08 	5.629135279e-06
0.7206051784 	0.001610293436 	0.0007085966999 	4.892191267e-08 	0.002946965447 	-7.400913924e-08 	5.617735209e-06
0.7247704865 	0.001613133966 	0.0007154982561 	4.851038554e-08 	0.002940956233 	-7.286570898e-08 	5.606279976e-06
0.7288890892 	0.001616293797 	0.0007224620846 	4.824780785e-08 	0.00293497122 	-7.172776245e-08 	5.594870879e-06
0.7329646301 	0.001619809753 	0.0007295169258 	4.812288356e-08 	0.002929022691 	-7.055983223e-08 	5.583531329e-06
0.7369945217 	0.001623703173 	0.0007366708078 	4.8133574e-08 	0.002923147452 	-6.933816904e-08 	5.572331491e-06
0.7409793914 	0.001627988343 	0.0007439136789 	4.826991439e-08 	0.002917409184 	-6.801908246e-08 	5.561392756e-06
0.7449217639 	0.001632703435 	0.0007512702644 	4.852322502e-08 	0.002911830576 	-6.65652497e-08 	5.550758379e-06
0.7488205855 	0.00163787638 	0.0007587564743 	4.889635367e-08 	0.002906444343 	-6.495534621e-08 	5.540490721e-06
0.7526760103 	0.001643519675 	0.0007663607977 	4.938638543e-08 	0.002901322793 	-6.315265572e-08 	5.530727625e-06
0.7564895149 	0.001649670084 	0.0007741019029 	4.99873035e-08 	0.002896501666 	-6.11209378e-08 	5.521537217e-06
0.7602614981 	0.00165636134 	0.0007820009641 	5.07049634e-08 	0.002892012093 	-5.884025697e-08 	5.512978843e-06
0.763991624 	0.001663608113 	0.0007900520689 	5.154219923e-08 	0.002887924264 	-5.628307304e-08 	5.505186305e-06
0.767680541 	0.001671440236 	0.0007982642869 	5.249744641e-08 	0.002884291603 	-5.341927922e-08 	5.498261442e-06
0.7713298015 	0.001679895282 	0.0008066597983 	5.357540693e-08 	0.00288114888 	-5.022756867e-08 	5.492270539e-06
0.7749386674 	0.001688996581 	0.0008152461455 	5.478350424e-08 	0.002878550688 	-4.669087259e-08 	5.487317663e-06
0.7785076447 	0.001698763437 	0.0008240228061 	5.612539251e-08 	0.002876567225 	-4.278830457e-08 	5.483536632e-06
0.7820377123 	0.001709232896 	0.0008330085965 	5.760220209e-08 	0.002875241236 	-3.850008809e-08 	5.481008928e-06
0.7855292473 	0.001720437539 	0.0008422220653 	5.922322038e-08 	0.002874613428 	-3.381505217e-08 	5.479812152e-06
0.7889822604 	0.00173239588 	0.0008516662362 	6.099410887e-08 	0.002874748696 	-2.872142384e-08 	5.480070009e-06
0.7923972207 	0.001745134674 	0.0008613503858 	6.291707724e-08 	0.00287570467 	-2.320754722e-08 	5.481892362e-06
0.7957751119 	0.001758690563 	0.0008712953362 	6.499446607e-08 	0.002877518995 	-1.726336243e-08 	5.485350969e-06
0.799115918 	0.001773091346 	0.0008815163423 	6.723330064e-08 	0.002880234706 	-1.088395657e-08 	5.490527869e-06
0.8024199552 	0.001788355617 	0.0008920189926 	6.963557727e-08 	0.002883910732 	-4.065814455e-09 	5.497535397e-06
0.8056876609 	0.001804511782 	0.0009028167644 	7.219974403e-08 	0.002888593141 	3.193802002e-09 	5.50646137e-06
0.808919881 	0.001821593412 	0.0009139297619 	7.492555168e-08 	0.002894312854 	1.089667889e-08 	5.517364732e-06
0.8121165911 	0.001839623884 	0.0009253712895 	7.523518722e-08 	0.002901107607 	1.840895008e-08 	5.53031742e-06
0.815278181 	0.001858620441 	0.0009371489163 	7.450877889e-08 	0.00290902345 	2.544668248e-08 	5.545407216e-06
0.8184050606 	0.001878606896 	0.000949275181 	7.379507152e-08 	0.002918095702 	3.214437143e-08 	5.562701451e-06
0.8214979011 	0.001899610429 	0.0009617669161 	7.307824651e-08 	0.002928345997 	3.848342832e-08 	5.582241362e-06
0.824556818 	0.001921648492 	0.0009746352194 	7.234215258e-08 	0.002939799914 	4.444236225e-08 	5.604075712e-06
0.8275821714 	0.001944731907 	0.0009878861492 	7.157691715e-08 	0.002952488185 	5.000240579e-08 	5.628263083e-06
0.8305743473 	0.00196887389 	0.001001527463 	7.077217239e-08 	0.002966434202 	5.514765805e-08 	5.654848068e-06
0.8335338579 	0.001994090445 	0.001015569977 	6.99153571e-08 	0.002981647633 	5.986345794e-08 	5.683849094e-06
0.8364609812 	0.002020389961 	0.001030021013 	6.899094849e-08 	0.002998136189 	6.413147325e-08 	5.715280865e-06
0.8393560156 	0.002047771141 	0.001044881711 	6.799020635e-08 	0.003015912904 	6.793759417e-08 	5.749168224e-06
0.8422193257 	0.002076232001 	0.001060152891 	6.690514286e-08 	0.00303498436 	7.127067201e-08 	5.785523721e-06
0.8450513006 	0.002105771197 	0.001075836466 	6.572785478e-08 	0.00305534565 	7.412229994e-08 	5.824337998e-06
0.8478523485 	0.002136383165 	0.001091933063 	6.444674313e-08 	0.003076983414 	7.648070696e-08 	5.865585591e-06
0.8506227078 	0.002168050723 	0.001108436978 	6.305455406e-08 	0.003099887651 	7.833766393e-08 	5.909247433e-06
0.8533627237 	0.002200753008 	0.001125340559 	6.154721883e-08 	0.003124042072 	7.969029076e-08 	5.955292472e-06
0.8560727368 	0.00223446564 	0.001142634563 	5.992175991e-08 	0.00314942354 	8.053921846e-08 	6.003676604e-06
0.8587531258 	0.002269162102 	0.001160308971 	5.817543277e-08 	0.003175998044 	8.088729592e-08 	6.054334996e-06
0.861404197 	0.002304808648 	0.001178350821 	5.630332212e-08 	0.003203724487 	8.073519808e-08 	6.107189301e-06
0.8640262397 	0.002341360305 	0.001196741324 	5.430661734e-08 	0.003232563601 	8.009182077e-08 	6.162164668e-06
0.8666195773 	0.002378768906 	0.00121546014 	5.218862182e-08 	0.003262466555 	7.897119342e-08 	6.21916801e-06
0.8691845291 	0.002416980587 	0.001234484304 	4.995434481e-08 	0.003293378185 	7.739165096e-08 	6.278094167e-06
0.8717214379 	0.002455937193 	0.001253788855 	4.760944852e-08 	0.003325234207 	7.53742229e-08 	6.338820599e-06
0.8742305906 	0.002495572402 	0.001273345481 	4.515854865e-08 	0.003357963994 	7.293990849e-08 	6.40121267e-06
0.8767122763 	0.00253580845 	0.001293120465 	4.261160297e-08 	0.003391498396 	7.011969233e-08 	6.465138561e-06
0.8791667987 	0.002576562297 	0.001313077776 	3.998010048e-08 	0.003425760682 	6.695105398e-08 	6.530452001e-06
0.881594458 	0.002617742004 	0.001333177735 	3.727639839e-08 	0.003460671408 	6.347812044e-08 	6.597001548e-06
0.8839955611 	0.002659246509 	0.001353377036 	3.451282824e-08 	0.003496148518 	5.97519613e-08 	6.664630779e-06