0 	0.001426525182 	-5.849780919e-17 	-9.686493707e-21 	8.378441521e-17 	3.658106569e-18 	1.597163821e-19
0.0003200309159 	0.001426421944 	-3.829008102e-06 	1.265604754e-10 	0.001453479331 	-1.065269787e-07 	2.770735578e-06
0.0006400614409 	0.00142648764 	-7.790280648e-06 	3.289256197e-10 	0.001454767847 	-1.035866875e-07 	2.773191848e-06
0.0009600915746 	0.001426735107 	-1.158874299e-05 	4.790738311e-10 	0.001455124881 	-1.005186179e-07 	2.773872453e-06
0.001280121317 	0.001426973477 	-1.540544407e-05 	6.188268014e-10 	0.001455507114 	-9.74355676e-08 	2.774601097e-06
0.001600150666 	0.001427331855 	-1.922941995e-05 	7.485248766e-10 	0.001455890421 	-9.433618254e-08 	2.775331786e-06
0.001920179623 	0.001427771783 	-2.305838765e-05 	8.683770382e-10 	0.00145635922 	-9.123064785e-08 	2.776225448e-06
0.002240208187 	0.001428296798 	-2.689125535e-05 	9.784114763e-10 	0.001456913027 	-8.81196272e-08 	2.777281158e-06
0.002560236358 	0.001428907488 	-3.072754612e-05 	1.078623913e-09 	0.00145755444 	-8.500406695e-08 	2.778503869e-06
0.002880264135 	0.001429605 	-3.456709404e-05 	1.169004265e-09 	0.001458284798 	-8.188475127e-08 	2.779896134e-06
0.003200291518 	0.001430390309 	-3.84099022e-05 	1.249543471e-09 	0.001459105767 	-7.87624759e-08 	2.78146113e-06
0.003520318506 	0.001431264583 	-4.225607198e-05 	1.320235364e-09 	0.001460018861 	-7.563800342e-08 	2.78320174e-06
0.003840345101 	0.001432229134 	-4.61057651e-05 	1.381077143e-09 	0.001461025609 	-7.25120824e-08 	2.785120882e-06
0.0041603713 	0.001433285403 	-4.995918222e-05 	1.432069457e-09 	0.001462127607 	-6.938545304e-08 	2.787221597e-06
0.004480397105 	0.001434434953 	-5.381655031e-05 	1.473216362e-09 	0.001463326538 	-6.625885016e-08 	2.789507091e-06
0.004800422516 	0.001435679459 	-5.767811474e-05 	1.504525263e-09 	0.001464624175 	-6.313300403e-08 	2.79198075e-06
0.005120447531 	0.001437020699 	-6.154413438e-05 	1.52600685e-09 	0.001466022389 	-6.000864065e-08 	2.794646133e-06
0.005440472151 	0.001438460548 	-6.541487826e-05 	1.537675049e-09 	0.001467523136 	-5.68864816e-08 	2.797506975e-06
0.005760496377 	0.00144000097 	-6.929062346e-05 	1.539546974e-09 	0.001469128462 	-5.376724372e-08 	2.800567172e-06
0.006080520207 	0.001441644008 	-7.317165354e-05 	1.531642896e-09 	0.001470840491 	-5.06516386e-08 	2.803830774e-06
0.006400543643 	0.001443391777 	-7.705825743e-05 	1.513986201e-09 	0.001472661418 	-4.754037197e-08 	2.807301968e-06
0.006720566684 	0.001445246454 	-8.095072847e-05 	1.486603356e-09 	0.001474593506 	-4.443414299e-08 	2.810985065e-06
0.007040589331 	0.001447210272 	-8.48493636e-05 	1.449523872e-09 	0.001476639072 	-4.133364357e-08 	2.814884482e-06
0.007360611583 	0.001449285505 	-8.875446254e-05 	1.402780257e-09 	0.001478800483 	-3.823955751e-08 	2.819004732e-06
0.007680633441 	0.001451474458 	-9.266632703e-05 	1.34640796e-09 	0.001481080144 	-3.515255976e-08 	2.823350399e-06
0.008000654905 	0.001453779448 	-9.658525951e-05 	1.280445288e-09 	0.001483480495 	-3.207331556e-08 	2.827926135e-06
0.008320675975 	0.001456202777 	-0.0001005115609 	1.204933297e-09 	0.001486004001 	-2.900247966e-08 	2.83273664e-06
0.008640696652 	0.001458746687 	-0.0001044455267 	1.119915671e-09 	0.001488653132 	-2.594069546e-08 	2.837786619e-06
0.008960716935 	0.00146141329 	-0.0001083874171 	1.025438762e-09 	0.001491430306 	-2.288859316e-08 	2.843080685e-06
0.009280736826 	0.001464204182 	-0.00011233815 	9.215485254e-10 	0.001494338237 	-1.984679288e-08 	2.84862401e-06
0.009600756325 	0.001467547611 	-0.000116854455 	8.119464561e-10 	0.001497824504 	-1.681179641e-08 	2.855269804e-06
0.01009799211 	0.001472059391 	-0.0001225139993 	6.141259716e-10 	0.001502524607 	-1.21309481e-08 	2.864229506e-06
0.01060457247 	0.001477556103 	-0.000128824757 	3.931792228e-10 	0.001508239904 	-7.389181715e-09 	2.87512445e-06
0.01112067299 	0.001483677552 	-0.0001352785339 	1.445990793e-10 	0.001514595322 	-2.589528898e-09 	2.887239644e-06
0.01140056368 	0.001487279808 	-0.0001387929838 	-3.893452536e-09 	0.001518331495 	-1.261648324e-06 	2.894361828e-06
0.01164647258 	0.0014904451 	-0.0001418808923 	1.33643391e-10 	0.001521614483 	-2.293803024e-09 	2.900620115e-06
0.01218215349 	0.001497880881 	-0.0001486364671 	4.430026499e-10 	0.001529320632 	-7.265684428e-09 	2.915310177e-06
0.0127279014 	0.001506006685 	-0.0001555501079 	7.837364885e-10 	0.001537736432 	-1.229892412e-08 	2.931353032e-06
0.01328390549 	0.00151484508 	-0.000162626821 	1.157076192e-09 	0.001546885305 	-1.739483533e-08 	2.948793327e-06
0.01385035847 	0.001524418689 	-0.0001698717417 	1.564277526e-09 	0.001556790694 	-2.255486446e-08 	2.96767575e-06
0.0144274567 	0.001534750094 	-0.0001772901277 	2.006621687e-09 	0.001567475987 	-2.778060737e-08 	2.988044889e-06
0.01501540022 	0.001545861753 	-0.0001848873521 	2.485416324e-09 	0.00157896445 	-3.307382427e-08 	3.009945092e-06
0.0156143928 	0.001557775929 	-0.0001926688965 	3.001996633e-09 	0.001591279153 	-3.843645309e-08 	3.033420339e-06
0.01622464209 	0.00157051462 	-0.0002006403453 	3.557726522e-09 	0.001604442907 	-4.387062111e-08 	3.058514113e-06
0.01684635961 	0.0015840995 	-0.0002088073777 	4.153999813e-09 	0.001618478205 	-4.937865437e-08 	3.085269291e-06
0.01747976086 	0.001598551861 	-0.0002171757616 	4.792241414e-09 	0.00163340716 	-5.49630848e-08 	3.113728028e-06
0.01812506539 	0.001613892562 	-0.000225751347 	5.473908455e-09 	0.001649251468 	-6.062665511e-08 	3.143931684e-06
0.01878249687 	0.001630141974 	-0.0002345400361 	6.200489834e-09 	0.001666032362 	-6.637232061e-08 	3.175920731e-06
0.01945228319 	0.001647319957 	-0.0002435485816 	6.973556507e-09 	0.001683770514 	-7.220324575e-08 	3.20973458e-06
0.02013465651 	0.001665458947 	-0.0002527887195 	7.794926323e-09 	0.001702499665 	-7.812302633e-08 	3.245437548e-06
0.02083178422 	0.001684602446 	-0.0002622771049 	8.669211531e-09 	0.001722264994 	-8.416162129e-08 	3.283115758e-06
0.02154340914 	0.001704768803 	-0.000272020581 	9.598918047e-09 	0.001743085499 	-9.03264811e-08 	3.322805426e-06
0.02226840742 	0.001725954728 	-0.0002820143295 	1.058420104e-08 	0.001764957946 	-9.660763075e-08 	3.36450039e-06
0.02300703036 	0.001748167714 	-0.0002922590341 	1.162688362e-08 	0.001787890465 	-1.03011504e-07 	3.408216145e-06
0.02375953399 	0.001771424085 	-0.0003027615086 	1.272923817e-08 	0.001811900262 	-1.095450748e-07 	3.453985492e-06
0.02452617913 	0.001795739552 	-0.0003135281158 	1.38936003e-08 	0.001837003899 	-1.162156733e-07 	3.501839999e-06
0.0253072315 	0.001821129199 	-0.0003245652731 	1.512240841e-08 	0.001863217327 	-1.230309803e-07 	3.55181008e-06
0.02610296183 	0.001847607504 	-0.0003358794352 	1.641820656e-08 	0.001890555885 	-1.299990154e-07 	3.60392497e-06
0.02691364592 	0.001875188339 	-0.0003474770946 	1.778364835e-08 	0.001919034315 	-1.371281265e-07 	3.658212773e-06
0.02773956477 	0.00190388499 	-0.0003593647823 	1.922150079e-08 	0.001948666775 	-1.444269759e-07 	3.714700477e-06
0.02858100463 	0.001933710171 	-0.0003715490693 	2.073464818e-08 	0.001979466857 	-1.519045257e-07 	3.773413995e-06
0.02943825716 	0.001964676039 	-0.000384036569 	2.232609572e-08 	0.002011447607 	-1.595700214e-07 	3.834378192e-06
0.03031161947 	0.001996794213 	-0.0003968339401 	2.399897305e-08 	0.002044621539 	-1.674329739e-07 	3.897616926e-06
0.03120139428 	0.002030075793 	-0.0004099478896 	2.575653804e-08 	0.002079000658 	-1.755031418e-07 	3.963153083e-06
0.03210788998 	0.002064531379 	-0.0004233851766 	2.760218041e-08 	0.002114596481 	-1.837905111e-07 	4.031008614e-06
0.03303142075 	0.002100171082 	-0.0004371526169 	2.953942532e-08 	0.002151420047 	-1.923052751e-07 	4.101204566e-06
0.03397230668 	0.002137004544 	-0.0004512570864 	3.157193712e-08 	0.002189481943 	-2.010578139e-07 	4.173761119e-06
0.03493087388 	0.00217504095 	-0.0004657055258 	3.37035234e-08 	0.002228792311 	-2.100586723e-07 	4.248697605e-06
0.03590745458 	0.002214289029 	-0.0004805049448 	3.593813878e-08 	0.002269360858 	-2.193185383e-07 	4.326032531e-06
0.03690238724 	0.002254757057 	-0.0004956624271 	3.827988893e-08 	0.00231119687 	-2.288482211e-07 	4.405783597e-06
0.0379160167 	0.002296452831 	-0.0005111851265 	4.073303323e-08 	0.002354309216 	-2.386586297e-07 	4.487967712e-06
0.03894869426 	0.002339383663 	-0.0005270807179 	4.330204938e-08 	0.002398706275 	-2.487607422e-07 	4.572600846e-06
0.04000077783 	0.002383569536 	-0.0005433615575 	4.599212885e-08 	0.002444409603 	-2.591668605e-07 	4.659724092e-06
0.04107387931 	0.002429067907 	-0.00056005176 	4.881228555e-08 	0.00249147966 	-2.699056683e-07 	4.749452704e-06
0.04217063918 	0.002475911603 	-0.0005771707128 	5.177306578e-08 	0.002539950878 	-2.810120662e-07 	4.841852316e-06
0.04328800965 	0.002524058365 	-0.0005947084356 	5.487187684e-08 	0.002589780053 	-2.924578694e-07 	4.936840573e-06
0.044426378 	0.002573477202 	-0.0006126570854 	5.811171514e-08 	0.002640936332 	-3.042503758e-07 	5.034358659e-06
0.0455861388 	0.002624172609 	-0.0006310260089 	6.149829355e-08 	0.002693425492 	-3.164003653e-07 	5.134417586e-06
0.04676769399 	0.002676148493 	-0.0006498231591 	6.503727666e-08 	0.002747252663 	-3.289184873e-07 	5.237027135e-06
0.04797145311 	0.002729408085 	-0.0006690566591 	6.756765487e-08 	0.002802422379 	-3.360123372e-07 	5.342195947e-06
0.04919783336 	0.002783953909 	-0.0006887347517 	6.69380972e-08 	0.002858938463 	-3.274246803e-07 	5.449931312e-06
0.05044725979 	0.002839787675 	-0.0007088657956 	6.61995388e-08 	0.002916803993 	-3.185948069e-07 	5.560239094e-06
0.05172016545 	0.002896910158 	-0.0007294582476 	6.534683958e-08 	0.0029760212 	-3.095071973e-07 	5.67312355e-06
0.0530169915 	0.002955320998 	-0.0007505206232 	6.437464686e-08 	0.003036591352 	-3.00146275e-07 	5.788587094e-06
0.0543381874 	0.003015018361 	-0.0007720614218 	6.327738757e-08 	0.003098514563 	-2.904964486e-07 	5.906629945e-06
0.05568421106 	0.003075998304 	-0.0007940890097 	6.204926397e-08 	0.003161789505 	-2.805421611e-07 	6.02724957e-06
0.05705552898 	0.003138253559 	-0.0008166115074 	6.068425275e-08 	0.003226412864 	-2.702679531e-07 	6.150439653e-06
0.05845261643 	0.003201771359 	-0.0008396372692 	5.917614024e-08 	0.003292378118 	-2.596585343e-07 	6.276187762e-06
0.05987595761 	0.003266539934 	-0.0008631802029 	5.751888871e-08 	0.003359684371 	-2.486998253e-07 	6.404492188e-06
0.06132696399 	0.003332586592 	-0.0008872744642 	5.570381122e-08 	0.003428385324 	-2.373667302e-07 	6.535455297e-06
0.06281019925 	0.003399897696 	-0.0009119910628 	5.370887292e-08 	0.00349849667 	-2.255810947e-07 	6.669107009e-06
0.06432130776 	0.00347713163 	-0.0009408199714 	5.169612778e-08 	0.003579064417 	-2.136459577e-07 	6.822691529e-06
0.0666410827 	0.003573134803 	-0.0009768261496 	4.796832046e-08 	0.003679222658 	-1.944021506e-07 	7.013620973e-06
0.06898673389 	0.003678536757 	-0.001016330136 	4.403231816e-08 	0.003789104043 	-1.747730883e-07 	7.223085434e-06
0.07135854997 	0.003784679462 	-0.001056401202 	3.972855651e-08 	0.003899700637 	-1.545169487e-07 	7.433913281e-06
0.0737568228 	0.003891519318 	-0.001097076999 	3.504864662e-08 	0.004011010423 	-1.336281098e-07 	7.646100669e-06
0.07618184749 	0.003998994261 	-0.001138346879 	2.998371155e-08 	0.004122999927 	-1.121048844e-07 	7.85958379e-06
0.07863392243 	0.004107037213 	-0.001180204952 	2.452495605e-08 	0.004235609779 	-8.994891428e-08 	8.074249466e-06
0.08111334936 	0.004215665527 	-0.001222675792 	1.866419075e-08 	0.004348863501 	-6.716678522e-08 	8.290142537e-06
0.0836286727 	0.004324909203 	-0.001265797003 	1.23576261e-08 	0.004462792795 	-4.364329293e-08 	8.507323436e-06
0.08617295058 	0.00443460874 	-0.001309531514 	5.628970439e-09 	0.004577229339 	-1.951283443e-08 	8.725471294e-06
0.08820882703 	0.004521643445 	-0.001344588031 	-4.455837232e-08 	0.004668046735 	-1.987370795e-07 	8.898594494e-06
0.08874561102 	0.004544592786 	-0.001353832337 	1.537528058e-09 	0.004691993738 	-5.226422026e-09 	8.944244137e-06
0.09134697064 	0.00465477658 	-0.001398694086 	9.180399677e-09 	0.004806996558 	-3.06366341e-08 	9.163471476e-06
0.0939773496 	0.00476507925 	-0.001444110195 	1.726996898e-08 	0.004922151353 	-5.658668115e-08 	9.38298852e-06
0.09663707163 	0.004875420139 	-0.001490074603 	2.581400019e-08 	0.005037371882 	-8.305297202e-08 	9.602630872e-06
0.09932646406 	0.004985732339 	-0.001536587738 	3.482020499e-08 	0.005152585704 	-1.100096977e-07 	9.82226044e-06
0.1020474201 	0.005096022088 	-0.001583677759 	4.430470773e-08 	0.005267796462 	-1.374532252e-07 	1.004188416e-05
0.1048062404 	0.005206264242 	-0.001631365715 	5.429991681e-08 	0.005382972752 	-1.654239025e-07 	1.026144219e-05
0.1075958387 	0.005316272873 	-0.001679599437 	6.477396806e-08 	0.005497914982 	-1.937702313e-07 	1.048055402e-05
0.1104165586 	0.005425885642 	-0.001728332847 	7.572943648e-08 	0.005612449857 	-2.224509093e-07 	1.069888933e-05
0.113268747 	0.00553501002 	-0.001777556495 	8.716996402e-08 	0.005726476428 	-2.514244869e-07 	1.091625566e-05
0.1161527553 	0.005643550936 	-0.001827256574 	9.909799296e-08 	0.005839890559 	-2.806467844e-07 	1.113245452e-05
0.1190689383 	0.00575141795 	-0.001877422674 	1.115151576e-07 	0.005952592292 	-3.100713516e-07 	1.134729535e-05
0.1220184539 	0.005858589747 	-0.001928071997 	1.244291217e-07 	0.006064553451 	-3.396640258e-07 	1.156072443e-05
0.1250089864 	0.005965030783 	-0.00197922294 	1.378716335e-07 	0.006175728238 	-3.694489963e-07 	1.177265448e-05
0.1280328844 	0.006070546891 	-0.00203081352 	1.517939855e-07 	0.006285904464 	-3.992531032e-07 	1.198268099e-05
0.1310905201 	0.006174961395 	-0.002082783231 	1.661850846e-07 	0.006394889844 	-4.29010755e-07 	1.219043741e-05
0.1341822699 	0.006278164528 	-0.002135111079 	1.810362766e-07 	0.006502560817 	-4.586585119e-07 	1.239568821e-05
0.1373085144 	0.006380043929 	-0.002187771342 	1.759721496e-07 	0.006608790085 	-4.375014556e-07 	1.259819072e-05
0.1404696386 	0.00648052103 	-0.002240751577 	1.67636296e-07 	0.006713484979 	-4.089554084e-07 	1.279776829e-05
0.1436708133 	0.006579545328 	-0.002294057945 	1.587675939e-07 	0.006816579633 	-3.800067406e-07 	1.299429535e-05
0.1469115851 	0.006676983241 	-0.0023476521 	1.493796595e-07 	0.006917919402 	-3.507459297e-07 	1.318747712e-05
0.1501885166 	0.006772642059 	-0.002401453937 	1.394973653e-07 	0.007017288493 	-3.212928705e-07 	1.337690222e-05
0.1535020113 	0.006866369172 	-0.002455406234 	1.291240147e-07 	0.007114512365 	-2.917036352e-07 	1.356223794e-05
0.1568524772 	0.006958037603 	-0.00250946543 	1.182672846e-07 	0.007209441596 	-2.620389983e-07 	1.374319944e-05
0.1602403266 	0.007047543006 	-0.002563594533 	1.069384098e-07 	0.007301949246 	-2.323634508e-07 	1.391954474e-05
0.1636700028 	0.007134805293 	-0.002617773464 	9.512775725e-08 	0.007391930893 	-2.026896611e-07 	1.409107476e-05
0.1671422645 	0.007219684488 	-0.0026719443 	8.286190642e-08 	0.007479217664 	-1.731122151e-07 	1.425746761e-05
0.1706532711 	0.007301985082 	-0.002726002861 	7.019098991e-08 	0.007563583703 	-1.437719787e-07 	1.441829273e-05
0.1742034549 	0.007381541428 	-0.002779862054 	5.714105554e-08 	0.007644833579 	-1.147460049e-07 	1.457317757e-05
0.1777932531 	0.00745821027 	-0.002833447767 	4.374384079e-08 	0.007722793494 	-8.611529277e-08 	1.472179084e-05
0.1814231076 	0.007531875692 	-0.002886696088 	3.003650969e-08 	0.007797316893 	-5.796443975e-08 	1.486385315e-05
0.1850999798 	0.007602424156 	-0.002939550311 	1.602766225e-08 	0.0078682566 	-3.031744297e-08 	1.499908395e-05
0.188819334 	0.007669665071 	-0.00299188989 	1.809727492e-09 	0.007935386682 	-3.355180247e-09 	1.512705254e-05
0.1892955931 	0.007677736867 	-0.002998434858 	4.553973534e-08 	0.007943376874 	-5.283967252e-07 	1.514228407e-05
0.1925801925 	0.007733400687 	-0.003043575852 	1.259171266e-08 	0.007998475864 	-2.284158849e-08 	1.524731806e-05
0.1963830182 	0.007793459676 	-0.003094491491 	2.707112257e-08 	0.008057319069 	-4.813029407e-08 	1.535948956e-05
0.2002282796 	0.007849684855 	-0.00314452344 	4.155020956e-08 	0.008111725595 	-7.239833504e-08 	1.546320352e-05
0.2041202567 	0.007901923034 	-0.003193565096 	5.59675391e-08 	0.008161507385 	-9.556318879e-08 	1.555810145e-05
0.2080594045 	0.007949981778 	-0.003241471988 	7.021643479e-08 	0.008206437971 	-1.174735769e-07 	1.564375163e-05
0.2120425111 	0.007993640072 	-0.003288060379 	8.417398605e-08 	0.008246266512 	-1.379671006e-07 	1.57196759e-05
0.2160700672 	0.008032688079 	-0.003333156239 	9.773136241e-08 	0.008280754892 	-1.56915957e-07 	1.578542034e-05
0.2201425686 	0.008066924749 	-0.003376591851 	1.10769778e-07 	0.008309674454 	-1.741852646e-07 	1.584054906e-05
0.2242640801 	0.00809614201 	-0.003418198696 	1.231729075e-07 	0.008332789633 	-1.896499594e-07 	1.588461302e-05
0.2284351157 	0.008120101933 	-0.003457772453 	1.347795003e-07 	0.008349839902 	-2.031298202e-07 	1.591711557e-05
0.2326526998 	0.008138547806 	-0.00349507337 	1.45415312e-07 	0.008360553992 	-2.144458491e-07 	1.593753961e-05
0.2369173517 	0.008151223624 	-0.003529864875 	1.549129722e-07 	0.008364664549 	-2.234412017e-07 	1.594537547e-05
0.2412295967 	0.008157867238 	-0.003561910402 	1.630901032e-07 	0.008361899371 	-2.299483689e-07 	1.594010427e-05
0.2455951021 	0.008158196473 	-0.003590962038 	1.697576095e-07 	0.008351969189 	-2.337991454e-07 	1.592117458e-05
0.2500108086 	0.0081519105 	-0.003616729566 	1.746710811e-07 	0.008334579204 	-2.347801754e-07 	1.588802444e-05
0.2544757956 	0.008138702519 	-0.003638902449 	1.775938089e-07 	0.008309439109 	-2.327137638e-07 	1.584010043e-05
0.2589906129 	0.00811825267 	-0.003657168208 	1.714025763e-07 	0.008276250237 	-2.186558016e-07 	1.577683322e-05
0.263557627 	0.008090216861 	-0.003671200581 	1.510658835e-07 	0.008234694037 	-1.872707868e-07 	1.569761555e-05
0.2681799304 	0.008054233882 	-0.003680647909 	1.309318804e-07 	0.008184448019 	-1.57336715e-07 	1.560183267e-05
0.2728538215 	0.008009948461 	-0.003685132183 	1.111598185e-07 	0.008125220297 	-1.291688941e-07 	1.548892817e-05
0.2775798758 	0.007956961404 	-0.003684271963 	9.190622134e-08 	0.008056792731 	-1.026662936e-07 	1.535848622e-05
0.2823588813 	0.007894946959 	-0.003677678643 	7.368868032e-08 	0.007978705992 	-7.800960923e-08 	1.520963119e-05
0.2871966566 	0.007823577007 	-0.003665274108 	5.6856793e-08 	0.007890504785 	-5.595659961e-08 	1.504149517e-05
0.2920884254 	0.007742290668 	-0.003647242847 	4.074338213e-08 	0.007792340927 	-3.606564569e-08 	1.485436758e-05
0.2970347901 	0.007650702835 	-0.003623025913 	2.513327587e-08 	0.007683982152 	-1.825349828e-08 	1.464780563e-05
0.3020363598 	0.007548575448 	-0.003591450699 	1.093832417e-08 	0.007564860677 	-3.421740946e-09 	1.442072699e-05
0.307098782 	0.00743543279 	-0.00355179284 	-1.173593385e-09 	0.007434976321 	8.407219004e-09 	1.417313131e-05
0.3122178274 	0.007310959024 	-0.003503769375 	-1.08506632e-08 	0.007294418599 	1.731836352e-08 	1.390518923e-05
0.3173940061 	0.0071750207 	-0.003447199262 	-1.776083127e-08 	0.007143199875 	2.318547226e-08 	1.361692431e-05
0.3226284087 	0.007027507632 	-0.003382068803 	-2.173505739e-08 	0.006981490875 	2.604601584e-08 	1.330866201e-05
0.3279254551 	0.006868420666 	-0.003308458724 	-2.267437347e-08 	0.006809593733 	2.601324985e-08 	1.298097828e-05
0.3332816223 	0.006698000598 	-0.003226598161 	-2.070987078e-08 	0.006628077262 	2.329703592e-08 	1.263495744e-05
0.3386975697 	0.006516730795 	-0.003137291511 	-1.627819536e-08 	0.006437705893 	1.820698474e-08 	1.22720567e-05
0.3441755749 	0.006325311977 	-0.003041643139 	-9.933898364e-09 	0.006239362837 	1.116464e-08 	1.189395971e-05
0.3497173251 	0.006124712844 	-0.002940857145 	-2.376204062e-09 	0.006034081636 	2.712882637e-09 	1.150263668e-05
0.3514027616 	0.006061993711 	-0.002909448252 	1.987771268e-06 	0.005970601654 	-4.03856523e-06 	1.13816262e-05
0.3553209274 	0.005916179036 	-0.002836430386 	-5.574433247e-09 	0.005823023911 	6.520861209e-09 	1.1100302e-05
0.3609870718 	0.005701056723 	-0.002729874667 	-1.300013399e-08 	0.005607286669 	1.594509812e-08 	1.068904686e-05
0.3667195497 	0.005480682662 	-0.00262254083 	-1.923170465e-08 	0.005387824289 	2.512243899e-08 	1.027069056e-05
0.3725166888 	0.005256390687 	-0.002515512334 	-2.390705791e-08 	0.00516551096 	3.37614808e-08 	9.846899569e-06
0.3783785302 	0.005029285017 	-0.002409441552 	-2.704491203e-08 	0.004940978932 	4.185002334e-08 	9.418879119e-06
0.3843071225 	0.004800066811 	-0.002304489239 	-2.898182573e-08 	0.004714510304 	4.954407366e-08 	8.98716697e-06
0.3903039129 	0.004569129173 	-0.00220038933 	-3.027833369e-08 	0.004486182824 	5.703200153e-08 	8.551911333e-06
0.396367634 	0.004336647329 	-0.002096539533 	-3.16110124e-08 	0.004255991807 	6.454724679e-08 	8.113103276e-06
0.4024993303 	0.004102547632 	-0.001992091356 	-3.36267264e-08 	0.00402382799 	7.228137982e-08 	7.670534513e-06
0.4087021267 	0.003866629949 	-0.001886107236 	-3.68124396e-08 	0.003789583228 	8.029191094e-08 	7.223998893e-06
0.4149741531 	0.00362877318 	-0.001777743731 	-4.141482146e-08 	0.003553320671 	8.846886132e-08 	6.773616793e-06
0.4213161813 	0.003388946237 	-0.001666325825 	-4.741177442e-08 	0.003315241319 	9.655354191e-08 	6.319771378e-06
0.4277313904 	0.003147304852 	-0.001551436509 	-5.450154303e-08 	0.003075735065 	1.041258552e-07 	5.86320589e-06
0.4342183981 	0.002904361636 	-0.001433024363 	-6.213087307e-08 	0.002835510182 	1.106367159e-07 	5.405270497e-06
0.4407778066 	0.002660946524 	-0.001311393651 	-6.957959672e-08 	0.002595529355 	1.154919369e-07 	4.94780034e-06
0.4474123577 	0.002418217393 	-0.001187202849 	-7.602841385e-08 	0.002356998533 	1.18137408e-07 	4.493094299e-06
0.4541212809 	0.002177732803 	-0.001061480744 	-8.067108339e-08 	0.002121440095 	1.17997133e-07 	4.044054444e-06
0.4609050812 	0.001941354247 	-0.0009355686653 	-8.290095185e-08 	0.001890643227 	1.148843367e-07 	3.604091467e-06
0.4677663327 	0.001711262458 	-0.0008111360015 	-8.191888481e-08 	0.001666525476 	1.088249527e-07 	3.176860745e-06
0.4747043718 	0.00148996083 	-0.0006901981207 	-7.727527321e-08 	0.001451277816 	9.959967295e-08 	2.766538879e-06
0.4817198836 	0.001280120855 	-0.0005746894663 	-7.018894846e-08 	0.001247470097 	8.78274064e-08 	2.378024722e-06
0.4888153226 	0.001084752157 	-0.0004661402454 	-6.184369198e-08 	0.001057911651 	7.427288576e-08 	2.016673638e-06
0.4959899515 	0.0009077415431 	-0.000366418647 	-5.220824208e-08 	0.0008862245608 	5.92781914e-08 	1.689390326e-06
0.5031649243 	0.0007539876324 	-0.000278221742 	-4.176412158e-08 	0.0007371399023 	4.377037374e-08 	1.405193531e-06
0.5102617754 	0.0006274135362 	-0.0002037249647 	-3.159932104e-08 	0.0006144205162 	2.86771879e-08 	1.171256273e-06
0.5172803182 	0.0005294513114 	-0.000143600146 	-2.259040269e-08 	0.0005194388243 	1.47221185e-08 	9.901947696e-07
0.5242218659 	0.000459135277 	-9.715738416e-05 	-1.535314573e-08 	0.0004512897658 	2.650198153e-09 	8.602837232e-07
0.5310874576 	0.0004130942681 	-6.251359584e-05 	-9.718317419e-09 	0.0004067275884 	-6.812950001e-09 	7.753358276e-07
0.5378772912 	0.0003861695376 	-3.711225416e-05 	-6.058903545e-09 	0.0003807588858 	-1.328639258e-08 	7.258322628e-07
0.5445926252 	0.000372764948 	-1.844516407e-05 	-3.872538387e-09 	0.0003679489394 	-1.746050659e-08 	7.014129446e-07
0.5512342888 	0.0003680452914 	-4.489690673e-06 	-2.626707405e-09 	0.0003635919753 	-2.007322191e-08 	6.931073601e-07
0.557802664 	0.0003684395447 	6.223328965e-06 	-1.951218854e-09 	0.0003642077022 	-2.169855338e-08 	6.942811068e-07
0.5642988774 	0.0003715778024 	1.471958768e-05 	-1.608657456e-09 	0.0003674836454 	-2.270924887e-08 	7.00525965e-07
0.5707237498 	0.0003760061262 	2.171705687e-05 	-1.450517395e-09 	0.0003719991191 	-2.332404757e-08 	7.091337129e-07
0.577077725 	0.0003809012647 	2.773599584e-05 	-1.381469795e-09 	0.0003769481945 	-2.36579648e-08 	7.18568026e-07
0.5833617689 	0.0003858615759 	3.317698106e-05 	-1.336930638e-09 	0.0003819363209 	-2.37637856e-08 	7.280767814e-07
0.5895767917 	0.0003907738652 	3.837356805e-05 	-1.269033615e-09 	0.0003868505962 	-2.365813991e-08 	7.37444756e-07
0.5957232321 	0.0003957374725 	4.363009123e-05 	-1.134282812e-09 	0.0003917859068 	-2.332680259e-08 	7.468528296e-07
0.6018018976 	0.0004010308099 	4.925410657e-05 	-8.8341778e-10 	0.0003970118582 	-2.272544909e-08 	7.568149455e-07
0.6078138169 	0.000407110305 	5.558858546e-05 	-4.509055874e-10 	0.0004029709842 	-2.177415556e-08 	7.681746958e-07
0.6137593944 	0.0004146375189 	6.304876215e-05 	2.598852442e-10 	0.0004103041933 	-2.034007554e-08 	7.821538307e-07
0.6196393617 	0.0004245332051 	7.216903624e-05 	1.396132663e-09 	0.0004199013859 	-1.821144394e-08 	8.004487471e-07
0.625454667 	0.0004380564522 	8.365949732e-05 	3.186622653e-09 	0.0004329757735 	-1.505997331e-08 	8.253721638e-07
0.6312058611 	0.0004569054761 	9.847263477e-05 	5.965550547e-09 	0.0004511592942 	-1.040022134e-08 	8.60035008e-07
0.6368935895 	0.000483317001 	0.0001178661815 	1.017712105e-08 	0.0004765947604 	-3.565771376e-09 	9.08522076e-07
0.6425186168 	0.0005201053525 	0.0001434253885 	1.634506602e-08 	0.0005119718007 	6.24769745e-09 	9.759605474e-07
0.6480817161 	0.0005705551286 	0.0001769919752 	2.495278274e-08 	0.0005604210612 	1.984056579e-08 	1.068318304e-06
0.653583425 	0.0006380870346 	0.0002204440468 	3.623624696e-08 	0.0006252025767 	3.769247405e-08 	1.191809877e-06
0.6590244207 	0.0007257126832 	0.0002753237519 	4.993621526e-08 	0.0007091956598 	5.977549404e-08 	1.351924038e-06
0.6644054777 	0.0008354205697 	0.0003424294289 	6.52028936e-08 	0.0008143465123 	8.516953102e-08 	1.552370788e-06
0.6697271999 	0.0009678094281 	0.000421655212 	8.13334127e-08 	0.0009412179014 	1.123772592e-07 	1.794222918e-06
0.6749901949 	0.001122062551 	0.0005123686168 	9.789608201e-08 	0.001089026821 	1.401054059e-07 	2.075987801e-06
0.6801951104 	0.001296166072 	0.0006135747724 	1.134001668e-07 	0.001256036404 	1.666434014e-07 	2.394354482e-06
0.6853426864 	0.001487432445 	0.000723402925 	1.262270869e-07 	0.001439694716 	1.906755328e-07 	2.744458272e-06
0.6904334652 	0.001692849236 	0.000839370514 	1.361792401e-07 	0.001637112153 	2.119527249e-07 	3.120790775e-06
0.6954680649 	0.001909311507 	0.000959294621 	1.434552587e-07 	0.00184555122 	2.300342472e-07 	3.51813357e-06
0.7004471053 	0.002133984484 	0.001081426749 	1.481455434e-07 	0.00206239308 	2.447599176e-07 	3.931494423e-06
0.705371273 	0.002364408313 	0.001204258949 	1.50499635e-07 	0.002285311532 	2.564616198e-07 	4.356438949e-06
0.7102411011 	0.002598502064 	0.001326515253 	1.507699881e-07 	0.002512386053 	2.65313361e-07 	4.789306098e-06
0.715057188 	0.002834408503 	0.001447121464 	1.491864853e-07 	0.002741871673 	2.714462037e-07 	5.226769473e-06
0.7198201268 	0.003070395848 	0.001565162054 	1.460028988e-07 	0.002972133977 	2.7514016e-07 	5.665713423e-06
0.724530548 	0.003305065386 	0.001679881634 	1.41466245e-07 	0.003201844582 	2.767523046e-07 	6.103605679e-06
0.7291889935 	0.003537364622 	0.001790660357 	1.358124519e-07 	0.003429997539 	2.765829847e-07 	6.538528628e-06
0.7337960302 	0.003766479982 	0.001896981887 	1.293222508e-07 	0.003655806183 	2.748994462e-07 	6.968982663e-06
0.7383522256 	0.003991830474 	0.001998434818 	1.223734159e-07 	0.003878673664 	2.719187429e-07 	7.393830025e-06
0.7428581594 	0.004213022487 	0.002094716641 	1.154735845e-07 	0.004098245553 	2.679134361e-07 	7.812395072e-06
0.747314382 	0.004429941401 	0.002188603605 	1.171676305e-07 	0.004314190284 	2.631237545e-07 	8.224045748e-06
0.7517214274 	0.004643372385 	0.002278277445 	1.052310014e-07 	0.004526507986 	2.594120711e-07 	8.6287823e-06
0.7560798383 	0.004855214159 	0.002358170022 	9.033571328e-08 	0.004736432709 	2.576800754e-07 	9.028957167e-06
0.7603901521 	0.005066950147 	0.002434307197 	9.376320848e-08 	0.004945608942 	2.557715606e-07 	9.427705204e-06
0.7646529193 	0.005278193688 	0.002513168483 	9.574101078e-08 	0.005154348969 	2.519376413e-07 	9.825621713e-06
0.7688686441 	0.005487178774 	0.002593758205 	9.583988123e-08 	0.005361308561 	2.453315504e-07 	1.022014422e-05
0.7730378455 	0.005691660249 	0.002674827647 	9.391496342e-08 	0.005564357051 	2.353502979e-07 	1.060721107e-05
0.7771610371 	0.005889314433 	0.002755093595 	8.996154869e-08 	0.005761299518 	2.217539158e-07 	1.098263815e-05
0.78123873 	0.006077964046 	0.002833333224 	8.405216709e-08 	0.005950104386 	2.04777851e-07 	1.13425527e-05
0.7852714323 	0.006255567509 	0.002908410708 	7.628272541e-08 	0.006129013629 	1.849541639e-07 	1.168360345e-05
0.789259631 	0.006420108592 	0.002979277847 	6.675729758e-08 	0.006296601628 	1.629553082e-07 	1.200307275e-05
0.7932038172 	0.006569561919 	0.003044992942 	5.567071221e-08 	0.006451840035 	1.395564642e-07 	1.22990003e-05
0.7971044765 	0.006702130103 	0.003104798138 	4.346989765e-08 	0.006594170761 	1.15826937e-07 	1.257032222e-05
0.8009620913 	0.006816895717 	0.003158265274 	3.097877159e-08 	0.006723501837 	9.079303151e-08 	1.28168632e-05
0.8047771403 	0.006915294504 	0.003205456359 	1.942346503e-08 	0.006839090884 	6.411179622e-08 	1.303720805e-05
0.8085500876 	0.007001549055 	0.003239984978 	-3.835409188e-08 	0.006940245862 	3.9627819e-08 	1.323003756e-05
0.8122813978 	0.007079459036 	0.00325213377 	-6.93985539e-08 	0.007028642669 	1.774605249e-08 	1.339854644e-05
0.8159715303 	0.007150302154 	0.003257359509 	-4.924335912e-08 	0.007106663909 	-5.466179449e-10 	1.354727661e-05
0.8196209396 	0.007213931923 	0.003266601191 	-5.042785441e-08 	0.007176039026 	-1.307207892e-08 	1.367952486e-05
0.8232300789 	0.007270095242 	0.003272574116 	-5.096243934e-08 	0.007237985101 	-2.364595771e-08 	1.37976113e-05
0.8267993892 	0.007319072145 	0.003275767526 	-5.197594244e-08 	0.007292684857 	-3.418572629e-08 	1.390188423e-05
0.8303293095 	0.00736120177 	0.003276383731 	-5.322567896e-08 	0.007340217384 	-4.400905172e-08 	1.399249444e-05
0.8338202746 	0.007396701366 	0.003274597352 	-5.449939098e-08 	0.007380909532 	-5.335472354e-08 	1.407006499e-05
0.8372727143 	0.007425827303 	0.003270568266 	-5.560773791e-08 	0.007415012341 	-6.218327026e-08 	1.413507442e-05