0.4709558481 	1.650572004e-07 	-4.02877624e-10 	9.663491195e-15 	1.647435738e-07 	-2.870509966e-12 	3.140470398e-10
0.4709558481 	1.650572004e-07 	-4.02877624e-10 	9.663491195e-15 	1.647435738e-07 	-2.870509966e-12 	3.140470398e-10
0.4711314108 	1.853118504e-06 	-1.767602695e-08 	4.239602692e-13 	1.849667573e-06 	-3.222903315e-11 	3.525980482e-09
0.4713069734 	1.03284695e-05 	-2.305911447e-07 	5.52791975e-12 	1.031116939e-05 	-1.796610542e-10 	1.96559547e-08
0.471482536 	3.437660315e-05 	-1.437203228e-06 	3.439555737e-11 	3.433851183e-05 	-5.982041696e-10 	6.545874744e-08
0.4716580986 	8.485442583e-05 	-5.820018625e-06 	1.387337992e-10 	8.487223861e-05 	-1.477582365e-09 	1.617900758e-07
0.4718336613 	0.0001733502774 	-1.776326995e-05 	4.201663961e-10 	0.0001738287812 	-3.021164639e-09 	3.313659702e-07
0.4720092239 	0.000311140267 	-4.436068604e-05 	1.035505318e-09 	0.0003133313935 	-5.42595234e-09 	5.97296722e-07
0.4721847865 	0.0005078629245 	-9.51657869e-05 	2.176431042e-09 	0.0005146830606 	-8.851820643e-09 	9.811289622e-07
0.4723603491 	0.0007698980582 	-0.0001807933712 	4.015854254e-09 	0.0007868427598 	-1.337667202e-08 	1.499940992e-06
0.4725359118 	0.001098801343 	-0.0003103984887 	6.633042209e-09 	0.001134489366 	-1.894727435e-08 	2.162652046e-06
0.4727114744 	0.001490387613 	-0.0004887878248 	9.954502698e-09 	0.00155620875 	-2.535109865e-08 	2.966566403e-06
0.472887037 	0.001934977786 	-0.0007144613587 	1.375221197e-08 	0.002043672876 	-3.223686465e-08 	3.895808511e-06
0.4730625996 	0.002418875893 	-0.0009796289627 	1.77090657e-08 	0.002582481452 	-3.91879921e-08 	4.922927412e-06
0.4732381623 	0.002926592719 	-0.001272200251 	2.15158416e-08 	0.003154558493 	-4.581805626e-08 	6.013465251e-06
0.4734137249 	0.003443067453 	-0.001578707177 	2.494717529e-08 	0.00374119859 	-5.184375142e-08 	7.131764324e-06
0.4735892875 	0.003955293835 	-0.001886878454 	2.788804803e-08 	0.004325669437 	-5.711058488e-08 	8.245928204e-06
0.4737648501 	0.004453135996 	-0.002187129038 	3.031783967e-08 	0.004894729395 	-6.157711002e-08 	9.330714647e-06
0.4739404128 	0.004929444945 	-0.00247294393 	3.227607477e-08 	0.005439035797 	-6.527943414e-08 	1.036831393e-05
0.4741159754 	0.005379730945 	-0.002740538948 	3.382990713e-08 	0.005952791221 	-6.829535216e-08 	1.134767456e-05
0.474291538 	0.005801639168 	-0.002988221371 	3.505188472e-08 	0.006433034957 	-7.071761316e-08 	1.22631526e-05
0.4744671006 	0.006194399964 	-0.003215734644 	3.60081178e-08 	0.00687887557 	-7.263774947e-08 	1.311304872e-05
0.4746426632 	0.006558344651 	-0.003423718459 	3.675372245e-08 	0.007290819699 	-7.41381294e-08 	1.389832872e-05
0.4748182259 	0.006894519667 	-0.003613314978 	3.733232752e-08 	0.007670249357 	-7.528920583e-08 	1.462162711e-05
0.4749937885 	0.007204399077 	-0.003785904326 	3.777740964e-08 	0.008019044148 	-7.614955839e-08 	1.528652693e-05
0.4751693511 	0.007489680875 	-0.003942938103 	3.811419047e-08 	0.008339322856 	-7.676719022e-08 	1.589706716e-05
0.4753449137 	0.007752148719 	-0.004085840936 	3.836149148e-08 	0.008633274137 	-7.718121333e-08 	1.645742e-05
0.4755204764 	0.007993581908 	-0.004215956433 	3.853331354e-08 	0.008903052552 	-7.74235256e-08 	1.697169264e-05
0.475696039 	0.008215700481 	-0.004334521116 	3.864009682e-08 	0.009150700246 	-7.752008412e-08 	1.744377797e-05
0.4758716016 	0.008420128884 	-0.004442661957 	3.868975846e-08 	0.009378186635 	-7.749279161e-08 	1.787743026e-05
0.4760471642 	0.008608435696 	-0.004541034087 	3.868556935e-08 	0.009587192582 	-7.735883897e-08 	1.827585368e-05
0.4762227269 	0.008804741349 	-0.004644704756 	3.863992176e-08 	0.009805369637 	-7.710071421e-08 	1.869175979e-05
0.4764955107 	0.009025833617 	-0.004760205741 	3.852306548e-08 	0.01005046264 	-7.664466143e-08 	1.915897517e-05
0.4767734216 	0.009244199734 	-0.004871603822 	3.832710373e-08 	0.01029141022 	-7.599379014e-08 	1.961828824e-05
0.4770565557 	0.009440115791 	-0.00497152455 	3.808392743e-08 	0.01050741167 	-7.520691523e-08 	2.003004703e-05
0.4773450114 	0.009615792417 	-0.005060703269 	3.779197404e-08 	0.0107007373 	-7.42978563e-08 	2.039857942e-05
0.4776388886 	0.009773135114 	-0.005140273732 	3.745259148e-08 	0.01087363732 	-7.327894957e-08 	2.072817491e-05
0.4779382892 	0.009913851246 	-0.005211213665 	3.706627785e-08 	0.01102801732 	-7.215938454e-08 	2.102246608e-05
0.4782433171 	0.01003946124 	-0.005274376523 	3.663308258e-08 	0.01116559643 	-7.094690168e-08 	2.128473011e-05
0.4785540779 	0.01015131929 	-0.00533050789 	3.615277006e-08 	0.01128789608 	-6.96478932e-08 	2.151786724e-05
0.4788706795 	0.01025063128 	-0.005380259636 	3.562493289e-08 	0.01139626649 	-6.826775929e-08 	2.172445137e-05
0.4791932316 	0.01033847148 	-0.005424202522 	3.504907709e-08 	0.01149190602 	-6.681114036e-08 	2.190676689e-05
0.4795218461 	0.01041579759 	-0.005462837155 	3.442468841e-08 	0.01157587966 	-6.528210156e-08 	2.206684397e-05
0.4798566368 	0.01048346417 	-0.005496603479 	3.375128686e-08 	0.011649135 	-6.368427219e-08 	2.220648902e-05
0.48019772 	0.0105422346 	-0.00552588895 	3.302847312e-08 	0.01171251637 	-6.202095525e-08 	2.232731152e-05
0.4805452138 	0.01059279149 	-0.005551035548 	3.225596967e-08 	0.01176677709 	-6.029521438e-08 	2.243074754e-05
0.4808992388 	0.01063574594 	-0.005572345793 	3.143365779e-08 	0.0118125903 	-5.850994338e-08 	2.251808026e-05
0.4812599177 	0.01067164555 	-0.005590087898 	3.056161137e-08 	0.01185055829 	-5.666792212e-08 	2.25904578e-05
0.4816273755 	0.01070098146 	-0.005604500186 	2.96401278e-08 	0.01188122066 	-5.477186139e-08 	2.26489088e-05
0.4820017397 	0.01072419455 	-0.005615794876 	2.866975594e-08 	0.01190506144 	-5.282443838e-08 	2.269435594e-05
0.48238314 	0.01074168077 	-0.005624161338 	2.765132069e-08 	0.01192251524 	-5.082832416e-08 	2.272762774e-05
0.4827717088 	0.01075379592 	-0.005629768897 	2.658594642e-08 	0.01193397271 	-4.878620442e-08 	2.274946885e-05
0.4831675807 	0.01076085976 	-0.005632769256 	2.547507633e-08 	0.01193978519 	-4.67007934e-08 	2.276054907e-05
0.4835708931 	0.0107631597 	-0.005633298577 	2.432048528e-08 	0.01194026892 	-4.457484115e-08 	2.276147119e-05
0.4839817856 	0.01076095397 	-0.005631479287 	2.312429112e-08 	0.01193570861 	-4.241113545e-08 	2.275277796e-05
0.4844004009 	0.01075447451 	-0.005627421662 	2.188896219e-08 	0.01192636066 	-4.021249824e-08 	2.273495817e-05
0.4848268841 	0.01074392949 	-0.005621225196 	2.061731847e-08 	0.01191245598 	-3.798177622e-08 	2.2708452e-05
0.485261383 	0.01072950553 	-0.005612979792 	1.931252797e-08 	0.0118942025 	-3.57218261e-08 	2.267365578e-05
0.4857040484 	0.01071136975 	-0.00560276682 	1.797809739e-08 	0.01187178734 	-3.343549461e-08 	2.263092626e-05
0.4861550336 	0.01068967154 	-0.005590660034 	1.661785691e-08 	0.01184537882 	-3.112559325e-08 	2.258058429e-05
0.4866144951 	0.01066454416 	-0.005576726386 	1.523593851e-08 	0.01181512822 	-2.879486817e-08 	2.252291822e-05
0.4870825921 	0.01063610624 	-0.005561026744 	1.383674788e-08 	0.01178117129 	-2.644596512e-08 	2.245818689e-05
0.487559487 	0.01060446305 	-0.005543616522 	1.242492942e-08 	0.01174362975 	-2.408138988e-08 	2.238662228e-05
0.4880453452 	0.01056970772 	-0.005524546251 	1.100532438e-08 	0.01170261248 	-2.170346436e-08 	2.230843196e-05
0.4885403351 	0.0105319223 	-0.00550386207 	9.582922064e-09 	0.0116582167 	-1.931427889e-08 	2.222380127e-05
0.4890446283 	0.01049117877 	-0.005481606174 	8.162804113e-09 	0.01161052899 	-1.691564093e-08 	2.213289524e-05
0.4895583997 	0.01044753994 	-0.005457817203 	6.750082136e-09 	0.01155962622 	-1.450902103e-08 	2.20358604e-05
0.4900818274 	0.01040106025 	-0.005432530595 	5.349828905e-09 	0.01150557639 	-1.209549633e-08 	2.193282641e-05
0.4906150929 	0.01035178656 	-0.005405778888 	3.967003674e-09 	0.01144843942 	-9.675692709e-09 	2.182390746e-05
0.4911583811 	0.01029975887 	-0.005377591991 	2.606372183e-09 	0.0113882678 	-7.249726102e-09 	2.170920362e-05
0.4917118805 	0.01024501088 	-0.005347997422 	1.272422128e-09 	0.01132510726 	-4.817144115e-09 	2.158880209e-05
0.4922757829 	0.01018757068 	-0.005317020502 	-3.072486701e-11 	0.01125899735 	-2.376868914e-09 	2.146277823e-05
0.4928502838 	0.01012746124 	-0.005284684536 	-1.299403752e-09 	0.01118997192 	7.285749029e-11 	2.133119658e-05
0.4934355824 	0.01006470096 	-0.005251010948 	-2.530497665e-09 	0.01111805965 	2.534524361e-09 	2.11941118e-05
0.4940318817 	0.009999304096 	-0.005216019398 	-3.721529204e-09 	0.01104328443 	5.011398475e-09 	2.105156945e-05
0.4946393885 	0.009931281243 	-0.005179727874 	-4.870749806e-09 	0.01096566581 	7.507564219e-09 	2.090360679e-05
0.4952583133 	0.009860639717 	-0.005142152746 	-5.977225464e-09 	0.01088521933 	1.002795622e-08 	2.075025343e-05
0.4958888709 	0.009787383948 	-0.005103308812 	-7.040916995e-09 	0.01080195683 	1.257838323e-08 	2.059153197e-05
0.4965312797 	0.009711515824 	-0.005063209306 	-8.062752982e-09 	0.01071588682 	1.516554205e-08 	2.042745861e-05
0.4971857627 	0.009633035036 	-0.00502186589 	-9.04469348e-09 	0.01062701468 	1.77970203e-08 	2.025804361e-05
0.4978525466 	0.009551939375 	-0.004979288628 	-9.989782568e-09 	0.01053534297 	2.048128707e-08 	2.008329185e-05
0.4985318627 	0.009468225038 	-0.004935485926 	-1.090218787e-08 	0.01044087164 	2.322767058e-08 	1.990320323e-05
0.4992239466 	0.009381886892 	-0.00489046447 	-1.17872252e-08 	0.01034359824 	2.604632201e-08 	1.971777311e-05
0.4999290382 	0.009292918741 	-0.004844229134 	-1.265136652e-08 	0.01024351818 	2.894816516e-08 	1.952699269e-05
0.5006473819 	0.00920131356 	-0.00479678287 	-1.350222975e-08 	0.01014062484 	3.194483151e-08 	1.933084939e-05
0.501379227 	0.009107063718 	-0.004748126577 	-1.434854921e-08 	0.01003490991 	3.50485809e-08 	1.912932735e-05
0.502124827 	0.009010161183 	-0.004698258937 	-1.52001264e-08 	0.0099263633 	3.827221476e-08 	1.892240734e-05
0.5028844406 	0.008910597685 	-0.004647176172 	-1.606776288e-08 	0.009814973528 	4.162896385e-08 	1.871006748e-05
0.5036583311 	0.008808365145 	-0.00459487187 	-1.696317695e-08 	0.009700721402 	4.513239646e-08 	1.849227117e-05
0.5044467669 	0.008703454205 	-0.004541337801 	-1.789884939e-08 	0.009583610263 	4.87958415e-08 	1.826902479e-05
0.5052500214 	0.008595862342 	-0.004486518933 	-1.888963592e-08 	0.00946361629 	5.263316941e-08 	1.804028292e-05
0.506068373 	0.008471258819 	-0.004423873128 	-2.008584145e-08 	0.009325024042 	5.718569322e-08 	1.777608758e-05
0.507324668 	0.008314976611 	-0.004345210136 	-2.168445511e-08 	0.009151257262 	6.307834157e-08 	1.74448398e-05
0.5085949819 	0.008141324944 	-0.004257113673 	-2.360631541e-08 	0.008958058091 	6.986281009e-08 	1.707654848e-05
0.5098794711 	0.007964558809 	-0.004167590123 	-2.573718258e-08 	0.008761570906 	7.701638833e-08 	1.67019893e-05
0.5111782938 	0.007784772866 	-0.004076585036 	-2.810383216e-08 	0.008561859916 	8.453570485e-08 	1.632128465e-05
0.5124916099 	0.007602046203 	-0.003984099272 	-3.072540108e-08 	0.008359023707 	9.241020082e-08 	1.593462246e-05
0.5138195812 	0.007416455996 	-0.003890130381 	-3.36150765e-08 	0.008153125799 	1.006229518e-07 	1.554212382e-05
0.5151623712 	0.007228077882 	-0.003794674688 	-3.678017472e-08 	0.007944239794 	1.091510265e-07 	1.514392903e-05
0.5165201452 	0.007036988841 	-0.003697728356 	-4.022249941e-08 	0.007732441159 	1.179659102e-07 	1.474018197e-05
0.5178930705 	0.006843269505 	-0.003599288194 	-4.393876415e-08 	0.007517810172 	1.270338267e-07 	1.433103565e-05
0.5192813161 	0.006647006625 	-0.003499352461 	-4.792101204e-08 	0.007300434 	1.36316034e-07 	1.391665625e-05
0.520685053 	0.006448295926 	-0.003397921658 	-5.215684328e-08 	0.007080409454 	1.457679754e-07 	1.349722832e-05
0.522104454 	0.006247245855 	-0.00329499936 	-5.662969601e-08 	0.006857847442 	1.553369452e-07 	1.307296326e-05
0.523539694 	0.006043982622 	-0.00319059744 	-6.130002058e-08 	0.006632880424 	1.64955989e-07 	1.26441136e-05
0.5249909497 	0.005838688158 	-0.00308476548 	-6.609154271e-08 	0.00640570528 	1.744518495e-07 	1.221105464e-05
0.5264583998 	0.005631743148 	-0.002977595753 	-7.094883375e-08 	0.006176710116 	1.834492313e-07 	1.177452621e-05
0.527942225 	0.005423872965 	-0.002869161179 	-7.590046876e-08 	0.005946581505 	1.915356799e-07 	1.133583711e-05
0.5294426081 	0.005216036035 	-0.002759485601 	-8.097430191e-08 	0.005716193471 	1.985486308e-07 	1.089665349e-05
0.5309597337 	0.005009119376 	-0.002648596885 	-8.610820548e-08 	0.005486354928 	2.046072906e-07 	1.045851735e-05
0.5324937889 	0.004803770292 	-0.002536569488 	-9.121969114e-08 	0.00525767876 	2.099054549e-07 	1.002259701e-05
0.5340449624 	0.004600427742 	-0.002423509747 	-9.625827591e-08 	0.005030608615 	2.145800968e-07 	9.589738206e-06
0.5356134452 	0.004399394271 	-0.002309538018 	-1.011816659e-07 	0.004805476506 	2.187195739e-07 	9.160573833e-06
0.5371994306 	0.004200880751 	-0.002194789335 	-1.059437872e-07 	0.004582541167 	2.223795502e-07 	8.735597115e-06
0.5388031139 	0.004005040503 	-0.002079416145 	-1.104958484e-07 	0.004362019034 	2.255828125e-07 	8.315220639e-06
0.5404246925 	0.003812003162 	-0.00196359065 	-1.147861485e-07 	0.004144115594 	2.283144287e-07 	7.89983612e-06
0.5420643661 	0.003621910291 	-0.001847507665 	-1.187593789e-07 	0.003929058528 	2.305167304e-07 	7.489877579e-06
0.5437223366 	0.00343495073 	-0.001731388185 	-1.22355688e-07 	0.003717131157 	2.320877062e-07 	7.085885108e-06
0.5453988083 	0.003251391995 	-0.001615483712 	-1.255096878e-07 	0.003508703108 	2.32884108e-07 	6.688563318e-06
0.5470939875 	0.003071604756 	-0.001500081249 	-1.281495826e-07 	0.00330425554 	2.327281882e-07 	6.29882943e-06
0.5488080831 	0.002896079148 	-0.001385508762 	-1.301965816e-07 	0.003104399752 	2.314161112e-07 	5.917848751e-06
0.5505413061 	0.002725433219 	-0.001272140773 	-1.31564842e-07 	0.002909889227 	2.287267112e-07 	5.547057629e-06
0.5522938699 	0.002560414294 	-0.00116040351 	-1.321623792e-07 	0.002721625383 	2.244307299e-07 	5.188174417e-06
0.5540659904 	0.002401893393 	-0.001050778649 	-1.318936426e-07 	0.002540656401 	2.183020989e-07 	4.84319724e-06
0.5558578859 	0.002250851525 	-0.000943804097 	-1.306647046e-07 	0.002368166842 	2.101337046e-07 	4.514384199e-06
0.5576697768 	0.002108355305 	-0.0008400695614 	-1.283921101e-07 	0.002205453874 	1.997601518e-07 	4.204208059e-06
0.5595018865 	0.001975518365 	-0.0007402041374 	-1.250161555e-07 	0.002053884538 	1.870890485e-07 	3.915274776e-06
0.5613544406 	0.001853445123 	-0.0006448530577 	-1.205183446e-07 	0.001914828329 	1.721398925e-07 	3.650194995e-06
0.563227667 	0.001743155083 	-0.0005546418891 	-1.149407169e-07 	0.001789561731 	1.550856657e-07 	3.411402041e-06
0.5651217966 	0.001645489458 	-0.0004701292466 	-1.084018585e-07 	0.001679146871 	1.362880368e-07 	3.200920631e-06
0.5670370626 	0.001561007079 	-0.0003917534277 	-1.01102185e-07 	0.001584294861 	1.163146744e-07 	3.020106337e-06
0.5689737009 	0.001489883434 	-0.0003197834381 	-9.331153806e-08 	0.00150523608 	9.592222025e-08 	2.869398327e-06
0.5709319499 	0.001431829293 	-0.0002542870274 	-8.530619634e-08 	0.001441622928 	7.603284231e-08 	2.748133979e-06
0.5729120508 	0.001386323446 	-0.0001951926408 	-7.729034029e-08 	0.001392768508 	5.686390729e-08 	2.655003876e-06
0.5749142474 	0.001352898481 	-0.0001422520927 	-6.95713632e-08 	0.001357945356 	3.845227472e-08 	2.588621269e-06
0.5769387863 	0.001330768419 	-9.498622815e-05 	-6.244536996e-08 	0.001336043183 	2.174690944e-08 	2.546869641e-06
0.5789859169 	0.001318580554 	-5.28334322e-05 	-5.59848527e-08 	0.001325370946 	7.431641122e-09 	2.526525391e-06
0.5810558911 	0.001314788751 	-1.521923145e-05 	-5.022783792e-08 	0.001324065841 	-4.488364987e-09 	2.524037499e-06
0.583148964 	0.001317923006 	1.84442215e-05 	-4.519738711e-08 	0.001330384034 	-1.417735878e-08 	2.536081729e-06
0.5852653933 	0.001326650653 	4.872142758e-05 	-4.086128439e-08 	0.001342772912 	-2.189141919e-08 	2.559698374e-06
0.5874054395 	0.001339806098 	7.613297376e-05 	-3.716348776e-08 	0.001359901648 	-2.79204978e-08 	2.592350507e-06
0.5895693664 	0.001356397749 	0.0001011453562 	-3.403525645e-08 	0.001380662099 	-3.254948109e-08 	2.631925696e-06
0.5917574402 	0.001375599659 	0.0001241673604 	-3.140307841e-08 	0.001404150898 	-3.603645414e-08 	2.676701875e-06
0.5939699306 	0.001396734565 	0.0001455507752 	-2.919429873e-08 	0.001429642601 	-3.86032905e-08 	2.725296146e-06
0.5962071099 	0.001419253303 	0.0001655939529 	-2.734073879e-08 	0.00145656044 	-4.04340953e-08 	2.776609028e-06
0.5984692536 	0.001442713962 	0.0001845470345 	-2.578075857e-08 	0.001484448655 	-4.167817039e-08 	2.829771717e-06
0.6007566404 	0.00146676276 	0.0002026179205 	-2.446019387e-08 	0.001512948389 	-4.245516506e-08 	2.884100131e-06
0.6030695519 	0.001491117679 	0.0002199783302 	-2.333256345e-08 	0.001541777849 	-4.286082101e-08 	2.939057095e-06
0.6054082729 	0.001515555093 	0.0002367695543 	-2.235886094e-08 	0.001570716612 	-4.297226595e-08 	2.994222421e-06
0.6077730914 	0.001539899135 	0.0002531077053 	-2.150711356e-08 	0.001599593485 	-4.285226574e-08 	3.049269766e-06
0.6101642987 	0.00156401324 	0.0002690883891 	-2.075177593e-08 	0.001628277125 	-4.255226291e-08 	3.103948756e-06
0.6125821893 	0.001587793265 	0.0002847907603 	-2.007298381e-08 	0.001656668629 	-4.211437139e-08 	3.158070854e-06
0.6150270608 	0.001611161702 	0.0003002809485 	-1.945570799e-08 	0.001684695479 	-4.157268548e-08 	3.21149782e-06
0.6174992144 	0.001634062684 	0.000315614864 	-1.888887542e-08 	0.001712306441 	-4.095426996e-08 	3.264131987e-06
0.6199989545 	0.001656457673 	0.0003308404217 	-1.836452985e-08 	0.001739467218 	-4.028008021e-08 	3.315907977e-06
0.622526589 	0.001678321764 	0.0003459992508 	-1.787708554e-08 	0.001766156774 	-3.956591071e-08 	3.36678569e-06
0.625082429 	0.001699640625 	0.000361127972 	-1.742270019e-08 	0.001792364291 	-3.8823359e-08 	3.4167445e-06
0.6276667894 	0.00172040803 	0.000376259127 	-1.699877063e-08 	0.001818086711 	-3.806074512e-08 	3.465778582e-06
0.6302799884 	0.001740623926 	0.0003914218386 	-1.660354184e-08 	0.001843326818 	-3.72839279e-08 	3.513893241e-06
0.6329223478 	0.001760292972 	0.0004066422691 	-1.623581348e-08 	0.001868091768 	-3.64969838e-08 	3.56110212e-06
0.6355941931 	0.001779423443 	0.0004219439308 	-1.589472736e-08 	0.001892391993 	-3.570274056e-08 	3.607425102e-06
0.6382958531 	0.001798026442 	0.0004373478923 	-1.557961943e-08 	0.001916240388 	-3.490317683e-08 	3.652886771e-06
0.6410276607 	0.001816115312 	0.0004528729127 	-1.528992222e-08 	0.001939651722 	-3.409970945e-08 	3.69751528e-06
0.6437899523 	0.001833705224 	0.0004685355265 	-1.502510556e-08 	0.001962642201 	-3.329339272e-08 	3.741341524e-06
0.646583068 	0.001850812862 	0.000484350095 	-1.47846458e-08 	0.001985229152 	-3.248505294e-08 	3.784398529e-06
0.6494073518 	0.001867456194 	0.000500328836 	-1.456801528e-08 	0.002007430773 	-3.167537776e-08 	3.826720989e-06
0.6522631514 	0.00188365429 	0.0005164818364 	-1.437468559e-08 	0.002029265953 	-3.086497611e-08 	3.868344911e-06
0.6551508186 	0.001899427174 	0.0005328170529 	-1.420413924e-08 	0.002050754116 	-3.005441979e-08 	3.909307323e-06
0.658070709 	0.001914795701 	0.0005493403017 	-1.405588536e-08 	0.0020719151 	-2.924427487e-08 	3.949646039e-06
0.6610231822 	0.00192978145 	0.000566055238 	-1.3929476e-08 	0.002092769044 	-2.843512773e-08 	3.989399453e-06
0.6640086017 	0.001944406626 	0.0005829633254 	-1.382452044e-08 	0.002113336295 	-2.762760865e-08 	4.02860635e-06
0.6670273351 	0.001958693976 	0.0006000637959 	-1.374069574e-08 	0.002133637316 	-2.682241407e-08 	4.067305738e-06
0.6700797543 	0.001972666705 	0.0006173536009 	-1.367775258e-08 	0.002153692598 	-2.60203279e-08 	4.105536679e-06
0.6731662352 	0.001986348412 	0.0006348273533 	-1.363551613e-08 	0.002173522572 	-2.522224146e-08 	4.143338122e-06
0.6762871577 	0.001999763021 	0.0006524772641 	-1.361388246e-08 	0.002193147522 	-2.442917143e-08 	4.180748732e-06
0.6794429063 	0.002012934734 	0.000670293074 	-1.361281119e-08 	0.002212587487 	-2.364227523e-08 	4.217806707e-06
0.6826338695 	0.00202588798 	0.000688261984 	-1.363231581e-08 	0.002231862159 	-2.286286344e-08 	4.25454959e-06
0.6858604404 	0.002038647386 	0.0007063685882 	-1.367245263e-08 	0.002250990781 	-2.209240892e-08 	4.291014058e-06
0.6891230163 	0.002051237746 	0.0007245948116 	-1.373330975e-08 	0.002269992021 	-2.133255286e-08 	4.327235704e-06
0.6924219988 	0.002063684008 	0.0007429198589 	-1.381499678e-08 	0.002288883858 	-2.058510774e-08 	4.363248796e-06
0.6957577944 	0.00207601127 	0.0007613201758 	-1.391763571e-08 	0.002307683445 	-1.985205788e-08 	4.399086033e-06
0.6991308138 	0.002088244774 	0.0007797694286 	-1.404135305e-08 	0.002326406974 	-1.913555774e-08 	4.434778284e-06
0.7025414724 	0.00210040992 	0.0007982385072 	-1.418627249e-08 	0.002345069537 	-1.843792837e-08 	4.470354316e-06
0.7059901901 	0.002112532278 	0.0008166955525 	-1.435250728e-08 	0.002363684985 	-1.776165213e-08 	4.505840534e-06
0.7094773917 	0.002124637605 	0.0008351060163 	-1.454015081e-08 	0.00238226579 	-1.71093655e-08 	4.541260712e-06
0.7130035066 	0.00213675187 	0.0008534327552 	-1.474926392e-08 	0.00240082291 	-1.648384956e-08 	4.57663574e-06
0.7165689691 	0.00214890127 	0.0008716361644 	-1.49798572e-08 	0.00241936567 	-1.58880172e-08 	4.611983395e-06
0.7201742182 	0.002161112257 	0.0008896743562 	-1.523186665e-08 	0.002437901654 	-1.53248962e-08 	4.647318133e-06
0.7238196978 	0.002173411558 	0.0009075033886 	-1.550512127e-08 	0.002456436629 	-1.479760589e-08 	4.682650946e-06
0.727505857 	0.00218582619 	0.0009250775502 	-1.579930136e-08 	0.002474974407 	-1.430933019e-08 	4.717989104e-06
0.7312331497 	0.002198383471 	0.0009423497277 	-1.61138872e-08 	0.002493516842 	-1.386328205e-08 	4.753336138e-06
0.7350020349 	0.00221107744 	0.0009592259844 	-1.644733606e-08 	0.002512014701 	-1.346364394e-08 	4.788598199e-06
0.7387709215 	0.00222382675 	0.0009755245121 	-1.679560444e-08 	0.002530312586 	-1.311578987e-08 	4.823479052e-06
0.7424982157 	0.002236546545 	0.000991088627 	-1.715358362e-08 	0.002548261156 	-1.282301462e-08 	4.857694015e-06
0.7461843763 	0.002249223099 	0.001005872282 	-1.75176487e-08 	0.002565820709 	-1.258521591e-08 	4.891167403e-06
0.7498298574 	0.002261874207 	0.001019876035 	-1.788502745e-08 	0.002582998981 	-1.240095456e-08 	4.923913965e-06
0.7534351078 	0.002274515602 	0.001033104596 	-1.825276906e-08 	0.002599803089 	-1.226841849e-08 	4.955947266e-06
0.7570005716 	0.002287161191 	0.00104556676 	-1.861774787e-08 	0.002616239888 	-1.218542013e-08 	4.987280372e-06
0.7605266877 	0.002299823275 	0.001057275314 	-1.897667942e-08 	0.002632316401 	-1.214939584e-08 	5.017926674e-06
0.7640138905 	0.002312512764 	0.001068246927 	-1.932614076e-08 	0.002648040139 	-1.21574139e-08 	5.04790049e-06
0.7674626093 	0.002325239384 	0.001078502016 	-1.966259398e-08 	0.002663419396 	-1.220618582e-08 	5.077217627e-06
0.770873269 	0.002338011872 	0.001088064598 	-1.998241427e-08 	0.002678463502 	-1.229208196e-08 	5.105895875e-06
0.7742462894 	0.002350838174 	0.001096962129 	-2.028191812e-08 	0.002693183058 	-1.241114919e-08 	5.13395544e-06
0.777582086 	0.002363725633 	0.001105225327 	-2.055738755e-08 	0.002707590134 	-1.25591293e-08 	5.16141933e-06
0.7808810695 	0.002376681178 	0.001112888002 	-2.080510123e-08 	0.002721698442 	-1.2731481e-08 	5.188313687e-06
0.7841436462 	0.002389711515 	0.001119986863 	-2.102136251e-08 	0.002735523493 	-1.292340161e-08 	5.214668077e-06
0.787370218 	0.002402823318 	0.001126561331 	-2.120252147e-08 	0.002749082728 	-1.312984658e-08 	5.240515748e-06
0.7905611821 	0.002416023426 	0.001132653353 	-2.134499838e-08 	0.002762395641 	-1.334554863e-08 	5.265893859e-06
0.7937169314 	0.002429319036 	0.001138307218 	-2.144530377e-08 	0.002775483882 	-1.356503483e-08 	5.290843685e-06
0.7968378547 	0.002442717912 	0.001143569377 	-2.15000557e-08 	0.002788371366 	-1.378264144e-08 	5.315410812e-06
0.7999243362 	0.002456228588 	0.00114848827 	-2.150599446e-08 	0.002801084363 	-1.399252581e-08 	5.339645317e-06
0.8029767561 	0.002469860589 	0.001153114158 	-2.145999458e-08 	0.002813651592 	-1.41886754e-08 	5.363601949e-06
0.8059954902 	0.002483624651 	0.001157498966 	-2.135907444e-08 	0.00282610432 	-1.436491359e-08 	5.387340308e-06
0.8089809102 	0.002497532949 	0.001161696136 	-2.120040376e-08 	0.002838476453 	-1.451490262e-08 	5.410925033e-06
0.8119333839 	0.002511599343 	0.001165760484 	-2.098130939e-08 	0.002850804644 	-1.463214368e-08 	5.434425992e-06
0.8148532749 	0.002525839613 	0.001169748074 	-2.069927971e-08 	0.002863128402 	-1.470997469e-08 	5.457918499e-06
0.8177409426 	0.002540271723 	0.001173716095 	-2.035196826e-08 	0.002875490205 	-1.47415662e-08 	5.481483532e-06
0.8205967427 	0.002554916072 	0.001177722748 	-1.993719705e-08 	0.002887935633 	-1.471991634e-08 	5.505207977e-06
0.8234210268 	0.002569795761 	0.00118182714 	-1.945296004e-08 	0.0029005135 	-1.463784546e-08 	5.529184886e-06
0.8262141429 	0.002584936863 	0.001186089185 	-1.889742748e-08 	0.002913275995 	-1.448799175e-08 	5.553513749e-06
0.8289764348 	0.002600368687 	0.001190569504 	-1.826895148e-08 	0.002926278837 	-1.42628089e-08 	5.57830078e-06
0.8317082427 	0.002616124049 	0.001195329334 	-1.756607354e-08 	0.002939581426 	-1.395456733e-08 	5.603659212e-06
0.8344099031 	0.002632239532 	0.001200430428 	-1.678753444e-08 	0.002953247 	-1.355536039e-08 	5.629709595e-06
0.8370817486 	0.00264875574 	0.001205934957 	-1.593228714e-08 	0.00296734279 	-1.305711749e-08 	5.656580089e-06
0.8397241082 	0.00266571754 	0.0012119054 	-1.499951301e-08 	0.00298194016 	-1.24516258e-08 	5.684406733e-06
0.8423373074 	0.002683174274 	0.001218404436 	-1.398864205e-08 	0.002997114741 	-1.173056268e-08 	5.713333702e-06
0.844921668 	0.002701179962 	0.001225494802 	-1.289937724e-08 	0.003012946539 	-1.088554084e-08 	5.743513509e-06
0.8474775082 	0.002719793453 	0.001233239157 	-1.17317234e-08 	0.003029520009 	-9.908168384e-09 	5.775107149e-06
0.8500051427 	0.002739078548 	0.00124169991 	-1.048602068e-08 	0.003046924095 	-8.7901257e-09 	5.808284174e-06
0.8525048829 	0.002759104066 	0.001250939031 	-9.162982387e-09 	0.003065252212 	-7.523261066e-09 	5.843222658e-06
0.8549770366 	0.002779943844 	0.001261017832 	-7.763736946e-09 	0.003084602166 	-6.099706226e-09 	5.880109049e-06
0.8574219081 	0.002801676679 	0.001271996726 	-6.289872997e-09 	0.003105076003 	-4.512012716e-09 	5.919137872e-06
0.8598397987 	0.002824386173 	0.001283934941 	-4.743486428e-09 	0.00312677976 	-2.753308627e-09 	5.960511267e-06
0.862231006 	0.002848160501 	0.001296890219 	-3.127227437e-09 	0.00314982313 	-8.174742764e-10 	6.004438335e-06
0.8645958245 	0.002873092068 	0.001310918467 	-1.444345134e-09 	0.003174319005 	1.300666296e-09 	6.05113428e-06
0.8669345455 	0.002899277066 	0.001326073392 	3.012735039e-10 	0.003200382906 	3.605142962e-09 	6.100819319e-06
0.8692474569 	0.002926814917 	0.001342406099 	2.105074052e-09 	0.003228132296 	6.098633029e-09 	6.153717369e-06
0.8715348435 	0.002955807599 	0.001359964681 	3.961818646e-09 	0.003257685762 	8.782259376e-09 	6.210054489e-06
0.8737969871 	0.002986358867 	0.001378793784 	5.865587886e-09 	0.003289162084 	1.165540335e-08 	6.270057108e-06
0.8760341663 	0.003018573362 	0.001398934186 	7.809804808e-09 	0.003322679198 	1.471554366e-08 	6.333950042e-06
0.8782466565 	0.003052555631 	0.001420422378 	9.78728432e-09 	0.003358353058 	1.795813268e-08 	6.401954334e-06
0.8804347301 	0.003088409062 	0.001443290177 	1.179031035e-08 	0.003396296441 	2.137652086e-08 	6.474284968e-06
0.8825986568 	0.003126234768 	0.001467564376 	1.381074123e-08 	0.0034366177 	2.496193814e-08 	6.551148495e-06
0.8847387028 	0.003166130425 	0.001493266455 	1.584014176e-08 	0.003479419515 	2.870353877e-08 	6.632740649e-06
0.8868551318 	0.003208189111 	0.001520412356 	1.786993806e-08 	0.003524797655 	3.258851215e-08 	6.719243997e-06
0.8889482045 	0.00325249816 	0.001549012345 	1.989158913e-08 	0.003572839815 	3.660225842e-08 	6.810825707e-06
0.8910181784 	0.003299138065 	0.00157907096 	2.189676665e-08 	0.003623624534 	4.072862339e-08 	6.907635497e-06
0.8930653087 	0.003348181462 	0.001610587058 	2.387753343e-08 	0.003677220247 	4.495018312e-08 	7.009803822e-06
0.8950898473 	0.003399692212 	0.001643553949 	2.582650933e-08 	0.003733684483 	4.924856504e-08 	7.117440348e-06
0.8970920436 	0.003453724616 	0.001677959627 	2.773701384e-08 	0.00379306324 	5.360478962e-08 	7.230632763e-06
0.8990721441 	0.003510322763 	0.001713787082 	2.960317444e-08 	0.003855390553 	5.799961491e-08 	7.349445944e-06
0.9010303927 	0.003569520037 	0.001751014675 	3.141999163e-08 	0.003920688239 	6.241386524e-08 	7.473921482e-06
0.9029670306 	0.003631338787 	0.001789616565 	3.318335293e-08 	0.00398896585 	6.682872627e-08 	7.604077586e-06
0.9048822962 	0.003695790142 	0.001829563174 	3.488999092e-08 	0.004060220789 	7.122598974e-08 	7.739909303e-06
0.9067764254 	0.003762873986 	0.001870821647 	3.653738271e-08 	0.004134438593 	7.558823374e-08 	7.881389067e-06
0.9086496514 	0.003832579059 	0.001913356315 	3.812359128e-08 	0.004211593354 	7.9898928e-08 	8.028467484e-06
0.910502205 	0.00390488318 	0.001957129112 	3.964705171e-08 	0.004291648232 	8.414245706e-08 	8.181074332e-06
0.9123343142 	0.003979753556 	0.00200209995 	4.110630821e-08 	0.004374556058 	8.830405854e-08 	8.339119692e-06
0.9141462048 	0.004057147165 	0.002048227011 	4.249970993e-08 	0.004460259963 	9.236967797e-08 	8.502495155e-06
0.9159380997 	0.004137011178 	0.002095466962 	4.382507577e-08 	0.004548694017 	9.632574563e-08 	8.67107504e-06
0.9177102197 	0.004219283399 	0.002143775078 	4.507934019e-08 	0.004639783842 	1.001588847e-07 	8.844717563e-06
0.9194627831 	0.004303892698 	0.002193105257 	4.625819297e-08 	0.004733447172 	1.038555629e-07 	9.023265903e-06
0.9211960055 	0.00439075942 	0.002243409937 	4.735572761e-08 	0.004829594335 	1.074017041e-07 	9.206549119e-06
0.9229101006 	0.00447979575 	0.002294639922 	4.836411306e-08 	0.004928128643 	1.107822755e-07 	9.394382895e-06
0.9246052793 	0.004570906021 	0.0023467441 	4.927330489e-08 	0.005028946668 	1.139808724e-07 	9.586570073e-06