0 	-0.007206679957 	2.944053796e-16 	1.690791401e-23 	-1.202697054e-29 	-6.907176221e-37 	-3.966841292e-44
0.0003137191626 	-0.007227701956 	7.950488796e-05 	-1.007680018e-09 	0.002743419184 	-1.932225387e-08 	5.229719458e-06
0.0006274377305 	-0.00722155245 	-0.0001216403518 	-3.198010569e-10 	0.003409367691 	-8.140340214e-09 	6.499202405e-06
0.0007529268723 	-0.007214937191 	-0.0001534348393 	-3.263529162e-07 	0.003455166194 	-2.778108863e-05 	6.58650708e-06
0.000941155703 	-0.007205035449 	-0.0002011185867 	-7.742711786e-10 	0.003523888547 	-1.336200471e-08 	6.717510985e-06
0.001254873079 	-0.007215930625 	-0.0002736725228 	-2.713773691e-09 	0.003587184337 	-3.667291716e-08 	6.838170352e-06
0.001568589859 	-0.007217712903 	-0.0003442947697 	-5.481230553e-09 	0.003602967096 	-5.994198194e-08 	6.868256677e-06
0.001882306041 	-0.007220922189 	-0.0004141291683 	-9.084815423e-09 	0.00361788429 	-8.337747413e-08 	6.896692996e-06
0.002196021624 	-0.007224751487 	-0.0004835614279 	-1.35280513e-08 	0.003631971325 	-1.069163796e-07 	6.9235468e-06
0.00250973661 	-0.007229245259 	-0.0005527294166 	-1.881408847e-08 	0.003646436088 	-1.30565182e-07 	6.951120659e-06
0.002823450996 	-0.007234313386 	-0.0006216918404 	-2.494583688e-08 	0.003661552263 	-1.543156371e-07 	6.979936289e-06
0.003137164783 	-0.007239967747 	-0.0006904705126 	-3.192647029e-08 	0.003677675829 	-1.781779732e-07 	7.010672287e-06
0.003450877969 	-0.007246209469 	-0.0007590709782 	-3.975942265e-08 	0.00369497906 	-2.021608783e-07 	7.043657054e-06
0.003764590556 	-0.007253038584 	-0.0008274903756 	-4.844841659e-08 	0.003713556653 	-2.262724477e-07 	7.07907111e-06
0.004078302543 	-0.007260454047 	-0.0008957212611 	-5.799745883e-08 	0.003733459412 	-2.505197757e-07 	7.117011301e-06
0.004392013928 	-0.007268454805 	-0.0009637535052 	-6.84108311e-08 	0.003754714574 	-2.749091379e-07 	7.157529547e-06
0.004705724713 	-0.007277039654 	-0.001031575335 	-7.969307216e-08 	0.003777334188 	-2.994458661e-07 	7.200648819e-06
0.005019434897 	-0.00728620723 	-0.001099173927 	-9.184895655e-08 	0.003801320241 	-3.241342883e-07 	7.246372902e-06
0.00533314448 	-0.007295956012 	-0.00116653576 	-1.048834677e-07 	0.003826667781 	-3.489776952e-07 	7.294692358e-06
0.005646853463 	-0.007306284328 	-0.001233646838 	-1.18801769e-07 	0.003853366906 	-3.739783194e-07 	7.345588311e-06
0.005960561844 	-0.007317190377 	-0.001300492833 	-1.336091726e-07 	0.003881404053 	-3.991373253e-07 	7.399034905e-06
0.006274269624 	-0.007328672246 	-0.001367059179 	-1.493111069e-07 	0.003910762874 	-4.244548112e-07 	7.455000978e-06
0.006587976804 	-0.007340727985 	-0.001433331128 	-1.659130866e-07 	0.003941424873 	-4.499298314e-07 	7.51345127e-06
0.006901683384 	-0.007353355738 	-0.001499293773 	-1.834206944e-07 	0.003973369903 	-4.755604459e-07 	7.574347376e-06
0.007215389363 	-0.007366554047 	-0.001564932011 	-2.018395862e-07 	0.004006576631 	-5.013437612e-07 	7.637648629e-06
0.007529094743 	-0.007380322479 	-0.001630230402 	-2.211755546e-07 	0.00404102305 	-5.272758798e-07 	7.703313078e-06
0.007842799523 	-0.007394663061 	-0.001695172789 	-2.414347322e-07 	0.004076687534 	-5.533526148e-07 	7.771299497e-06
0.008156503703 	-0.007409583251 	-0.00175974145 	-2.626241645e-07 	0.004113550499 	-5.79574326e-07 	7.841570553e-06
0.008470207286 	-0.007425102726 	-0.001823915231 	-2.847531724e-07 	0.00415160028 	-6.05955329e-07 	7.914104011e-06
0.00878391027 	-0.007441260385 	-0.001887666434 	-3.078349673e-07 	0.004190819244 	-6.324647311e-07 	7.988866256e-06
0.009097612657 	-0.007458143037 	-0.00195094747 	-3.318833352e-07 	0.004231231529 	-6.588306653e-07 	8.065903304e-06
0.009411314447 	-0.007478390328 	-0.002022374997 	-3.589102303e-07 	0.004278478956 	-6.850111993e-07 	8.155970032e-06
0.009898733563 	-0.00750456667 	-0.002110837392 	-3.97788177e-07 	0.00433948163 	-7.253635535e-07 	8.272258083e-06
0.01039531224 	-0.007534267061 	-0.00220828965 	-4.414113104e-07 	0.004409666467 	-7.676774164e-07 	8.406049889e-06
0.01090122258 	-0.007565309514 	-0.002306387336 	-4.880737186e-07 	0.004483292426 	-8.111932359e-07 	8.546401431e-06
0.01141663991 	-0.007597836433 	-0.002405057877 	-5.378893793e-07 	0.004560457104 	-8.555448572e-07 	8.693498754e-06
0.01194174287 	-0.007631900284 	-0.002504210515 	-5.909683027e-07 	0.004641160961 	-9.006931784e-07 	8.847342736e-06
0.01247671344 	-0.007667523386 	-0.002603761684 	-6.474129355e-07 	0.004725397897 	-9.466301097e-07 	9.007921749e-06
0.01302173702 	-0.007704706879 	-0.002703631008 	-7.073179723e-07 	0.004813138353 	-9.933260831e-07 	9.175179443e-06
0.0135770025 	-0.007743439919 	-0.002803739547 	-7.7077061e-07 	0.004904338829 	-1.040741862e-06 	9.349032899e-06
0.01414270231 	-0.007783703365 	-0.002904009179 	-8.378504276e-07 	0.004998943619 	-1.088835972e-06 	9.529375923e-06
0.0147190325 	-0.007825471723 	-0.003004362528 	-9.086289014e-07 	0.005096886195 	-1.137566272e-06 	9.716081694e-06
0.01530619282 	-0.0078687142 	-0.003104723161 	-9.831687852e-07 	0.005198090069 	-1.186890899e-06 	9.909004405e-06
0.01590438673 	-0.007913395447 	-0.003205015902 	-1.061523469e-06 	0.005302469653 	-1.236769505e-06 	1.01079809e-05
0.01651382157 	-0.007959476183 	-0.003305167182 	-1.143736377e-06 	0.005409931134 	-1.28716459e-06 	1.031283235e-05
0.01713470852 	-0.008006913816 	-0.003405105377 	-1.229840464e-06 	0.005520373294 	-1.33804314e-06 	1.052336581e-05
0.01776726278 	-0.008055663348 	-0.003504761062 	-1.319857909e-06 	0.005633689029 	-1.389378808e-06 	1.073937709e-05
0.01841170354 	-0.008105678483 	-0.003604066393 	-1.413799428e-06 	0.0057497675 	-1.441155519e-06 	1.096065492e-05
0.01906825416 	-0.008156935183 	-0.003702996962 	-1.511678606e-06 	0.005868542964 	-1.493351932e-06 	1.118707397e-05
0.01973714216 	-0.008209489199 	-0.003801673352 	-1.613486657e-06 	0.005990129449 	-1.546045001e-06 	1.14188516e-05
0.02042153748 	-0.008263224504 	-0.00389994542 	-1.719586179e-06 	0.006114288452 	-1.599287292e-06 	1.165553317e-05
0.02112091823 	-0.008318080355 	-0.003997778827 	-1.830033016e-06 	0.006240910143 	-1.653153048e-06 	1.18969093e-05
0.02183344139 	-0.008374031002 	-0.004095172391 	-1.944481795e-06 	0.006369933278 	-1.707784471e-06 	1.214286326e-05
0.02255935386 	-0.008430917183 	-0.004191882168 	-2.062848838e-06 	0.006500989147 	-1.763145913e-06 	1.239269217e-05
0.02329890722 	-0.00848869191 	-0.004287874948 	-2.135778345e-06 	0.006633961291 	-1.778232417e-06 	1.264617403e-05
0.02405235775 	-0.008547305354 	-0.004383118319 	-2.116173806e-06 	0.006768731206 	-1.718027592e-06 	1.290308295e-05
0.02481996657 	-0.008606709637 	-0.004477585721 	-2.09109646e-06 	0.006905187359 	-1.657110378e-06 	1.31632063e-05
0.02560199967 	-0.008666858937 	-0.004571256262 	-2.060459542e-06 	0.007043223429 	-1.595549403e-06 	1.342634142e-05
0.02639872806 	-0.008727710261 	-0.004664114583 	-2.024191095e-06 	0.007182739856 	-1.533400652e-06 	1.369229851e-05
0.02721042784 	-0.008789223928 	-0.004756150772 	-1.982234198e-06 	0.007323644725 	-1.470705679e-06 	1.396090235e-05
0.02803738028 	-0.008851363944 	-0.00484736027 	-1.93454701e-06 	0.007465854533 	-1.40748979e-06 	1.423199377e-05
0.02887987195 	-0.008914098308 	-0.004937743763 	-1.881102655e-06 	0.007609294811 	-1.343760348e-06 	1.45054308e-05
0.0297381948 	-0.008977399263 	-0.005027307052 	-1.821888973e-06 	0.007753900664 	-1.279505303e-06 	1.478108975e-05
0.03061264626 	-0.009041243506 	-0.005116060887 	-1.756908171e-06 	0.007899617218 	-1.214691925e-06 	1.5058866e-05
0.03150352933 	-0.009105612368 	-0.005204020778 	-1.686176361e-06 	0.008046399973 	-1.149265772e-06 	1.533867473e-05
0.03241115274 	-0.009170491973 	-0.005291206771 	-1.60972302e-06 	0.008194215096 	-1.083149875e-06 	1.562045144e-05
0.03333583098 	-0.009235873399 	-0.005377643175 	-1.527590375e-06 	0.008343039638 	-1.016244163e-06 	1.590415238e-05
0.03427788447 	-0.009301752879 	-0.005463358227 	-1.439832728e-06 	0.008492861737 	-9.484251208e-07 	1.618975494e-05
0.03523763963 	-0.009368132108 	-0.005548383654 	-1.346515736e-06 	0.008643680846 	-8.79545894e-07 	1.647725808e-05
0.03621542904 	-0.0094350188 	-0.005632754086 	-1.247715655e-06 	0.008795508309 	-8.094367399e-07 	1.676668342e-05
0.03721159148 	-0.009502427298 	-0.005716506324 	-1.143518338e-06 	0.008948367285 	-7.37903876e-07 	1.705807511e-05
0.03822647215 	-0.009570381381 	-0.005799680971 	-1.034021304e-06 	0.009102297262 	-6.64716592e-07 	1.735150843e-05
0.03926042268 	-0.009638920234 	-0.005882331163 	-9.19332223e-07 	0.009257370461 	-5.89614571e-07 	1.764712105e-05
0.04031569926 	-0.009708192396 	-0.00596465709 	-7.993073484e-07 	0.009413924675 	-5.122432851e-07 	1.79455569e-05
0.04139611951 	-0.009778308318 	-0.006046858549 	-6.73637437e-07 	0.009572260768 	-4.320624719e-07 	1.82473895e-05
0.0424968417 	-0.009849119917 	-0.006128807016 	-5.431097493e-07 	0.009732077605 	-3.491534683e-07 	1.855204481e-05
0.04361824725 	-0.009920551804 	-0.006210409246 	-4.078255274e-07 	0.009893184236 	-2.631883086e-07 	1.885915882e-05
0.04476072477 	-0.009992689353 	-0.006291752103 	-2.679230102e-07 	0.01005574804 	-1.738177741e-07 	1.916905061e-05
0.04592467013 	-0.01006558909 	-0.006372888031 	-1.23535088e-07 	0.01021987938 	-8.068198477e-08 	1.948193058e-05
0.04691067477 	-0.01012688793 	-0.006440229386 	5.743850407e-07 	0.01035775365 	-7.196308754e-07 	1.974475725e-05
0.04711048667 	-0.01013931118 	-0.006453913035 	-2.34165103e-08 	0.01038576061 	-1.927538019e-08 	1.97981463e-05
0.04831858527 	-0.01021392475 	-0.006535044946 	-1.657047382e-07 	0.01055378147 	-1.377018249e-07 	2.011844075e-05
0.04954938458 	-0.01028951802 	-0.006616132854 	-3.121395317e-07 	0.01072379288 	-2.62137732e-07 	2.044252975e-05
0.05080331105 	-0.01036617959 	-0.006697225705 	-4.626370835e-07 	0.01089595659 	-3.930308231e-07 	2.077072164e-05
0.0520807992 	-0.01044401479 	-0.006778364102 	-6.171319407e-07 	0.01107045363 	-5.308559581e-07 	2.11033615e-05
0.05338229166 	-0.01052315458 	-0.006859572892 	-7.755860379e-07 	0.01124749076 	-6.761253416e-07 	2.144084346e-05
0.05470823941 	-0.01060377151 	-0.006940848284 	-9.38002197e-07 	0.01142731254 	-8.294066896e-07 	2.178363375e-05
0.05605910188 	-0.01068610686 	-0.007022136962 	-1.10444382e-06 	0.01161022203 	-9.913443069e-07 	2.213231008e-05
0.05743534714 	-0.01077051603 	-0.007103307355 	-1.275062065e-06 	0.01179662247 	-1.162645323e-06 	2.248764113e-05
0.05883745205 	-0.01085752687 	-0.007184110007 	-1.450122324e-06 	0.01198707479 	-1.344054594e-06 	2.285069618e-05
0.06026729956 	-0.01094806056 	-0.00726429273 	-1.630203705e-06 	0.01218275265 	-1.53771579e-06 	2.322371257e-05
0.06173156424 	-0.01104332005 	-0.007343586725 	-1.817029571e-06 	0.01238516084 	-1.750618284e-06 	2.360955885e-05
0.06322334345 	-0.01115803543 	-0.00743303009 	-2.009058986e-06 	0.01262468906 	-2.000075863e-06 	2.40661662e-05
0.06551344073 	-0.01129934824 	-0.007546064077 	-2.308420193e-06 	0.0129241004 	-2.36296213e-06 	2.463692743e-05
0.06782907795 	-0.01144734214 	-0.007674284127 	-2.603901958e-06 	0.01324827557 	-2.747283752e-06 	2.525489541e-05
0.07017053993 	-0.01159168364 	-0.007807658945 	-2.895727356e-06 	0.01357321858 	-3.148477035e-06 	2.587432709e-05
0.07253811468 	-0.01173409815 	-0.007945182829 	-3.183695178e-06 	0.01390020333 	-3.572525564e-06 	2.649765091e-05
0.07493209339 	-0.01187526994 	-0.00808602952 	-2.927278187e-06 	0.01422937558 	-3.393360036e-06 	2.712514471e-05
0.07735277052 	-0.01201554009 	-0.008229788883 	-2.636804249e-06 	0.01456070389 	-3.159351461e-06 	2.775674855e-05
0.07980044382 	-0.01215523638 	-0.008376489349 	-2.342998557e-06 	0.01489453917 	-2.902957091e-06 	2.839313139e-05
0.08228795177 	-0.01229465804 	-0.00852648571 	-2.046013582e-06 	0.01523148326 	-2.621719304e-06 	2.903544047e-05
0.0848045662 	-0.01243349095 	-0.008679656714 	-1.748438854e-06 	0.01557083077 	-2.317187457e-06 	2.968233114e-05
0.08734924993 	-0.01257140501 	-0.008835772404 	-1.451666202e-06 	0.01591175456 	-1.989639172e-06 	3.033222663e-05
0.08992231604 	-0.01270839761 	-0.008994929967 	-1.156836093e-06 	0.0162541964 	-1.639497977e-06 	3.098501597e-05
0.09252408108 	-0.01284438532 	-0.00915719841 	-8.649955638e-07 	0.01659796785 	-1.267294446e-06 	3.164033989e-05
0.09515486517 	-0.0129792534 	-0.00932265419 	-5.771238909e-07 	0.01694283764 	-8.737919609e-07 	3.229775757e-05
0.09781499197 	-0.01311283561 	-0.009491379223 	-2.941371687e-07 	0.01728850691 	-4.600151428e-07 	3.295669927e-05
0.100507166 	-0.01324516539 	-0.009663748886 	-1.664494873e-08 	0.01763522439 	-2.687800031e-08 	3.361763915e-05
0.1006723289 	-0.01325307648 	-0.009674400434 	2.116240473e-07 	0.01765622682 	-3.75225694e-07 	3.36576756e-05
0.1032407961 	-0.01337651888 	-0.009839721854 	-2.729105035e-07 	0.01798317557 	-4.327220522e-07 	3.428093081e-05
0.1060049194 	-0.01350591952 	-0.01001952552 	-5.538866416e-07 	0.01833103759 	-9.113759557e-07 	3.494405249e-05
0.108799876 	-0.01363286861 	-0.01020304948 	-8.24492693e-07 	0.0186778355 	-1.405835914e-06 	3.560514571e-05
0.11162601 	-0.01375706901 	-0.01039038678 	-1.084263189e-06 	0.01902307292 	-1.912837094e-06 	3.626326418e-05
0.114483669 	-0.01387812122 	-0.01058157792 	-1.332880017e-06 	0.01936605945 	-2.428785486e-06 	3.691709183e-05
0.1173732048 	-0.013995551 	-0.01077663136 	-1.570218449e-06 	0.01970596905 	-2.94978572e-06 	3.7565054e-05
0.1202961886 	-0.01410906239 	-0.01097581568 	-1.796422963e-06 	0.0200424687 	-3.472304319e-06 	3.820651587e-05
0.1232641206 	-0.01421832539 	-0.01117938676 	-2.012666058e-06 	0.02037516909 	-3.994426918e-06 	3.884073526e-05
0.1262651629 	-0.01432257003 	-0.01138690342 	-2.218616423e-06 	0.02070246171 	-4.510322051e-06 	3.946464597e-05
0.1292996849 	-0.01442125682 	-0.01159788323 	-2.415556622e-06 	0.02102308724 	-5.017614281e-06 	4.007584734e-05
0.1323680601 	-0.01451420062 	-0.01181202458 	-2.469432573e-06 	0.02133652057 	-5.22792531e-06 	4.067333838e-05
0.1354706662 	-0.01460131959 	-0.01202886924 	-2.184957871e-06 	0.02164231807 	-4.702889109e-06 	4.125627342e-05
0.138607885 	-0.01468275464 	-0.01224796904 	-1.913611705e-06 	0.02194043412 	-4.178631199e-06 	4.182456546e-05
0.1417873791 	-0.01475909192 	-0.01246909315 	-1.653565943e-06 	0.02223171253 	-3.657446018e-06 	4.237982307e-05
0.1450082501 	-0.01483087965 	-0.01269164495 	-1.403472612e-06 	0.0225166742 	-3.141395899e-06 	4.292303922e-05
0.1482650567 	-0.01489864523 	-0.01291477158 	-1.161954697e-06 	0.0227956077 	-2.631089854e-06 	4.345476399e-05
0.1515582 	-0.01496325437 	-0.0131380447 	-9.27319931e-07 	0.02306963 	-2.124852697e-06 	4.397712666e-05
0.1548880853 	-0.01502547439 	-0.01336129834 	-6.984546064e-07 	0.02333987065 	-1.62037499e-06 	4.449228045e-05
0.1582551226 	-0.0150857858 	-0.01358463839 	-4.750634649e-07 	0.0236071647 	-1.116122739e-06 	4.500181718e-05
0.1616658524 	-0.01514448354 	-0.01380863315 	-2.57358119e-07 	0.02387233167 	-6.119452861e-07 	4.550729914e-05
0.1651212069 	-0.01520117629 	-0.01403366847 	-4.674643374e-08 	0.02413491185 	-1.122404634e-07 	4.600784993e-05
0.1659171165 	-0.01521341429 	-0.01408516043 	6.582606616e-07 	0.02419374792 	-2.623194496e-06 	4.612000784e-05
0.1686151167 	-0.0152547864 	-0.01425970675 	-1.585902117e-07 	0.02439305121 	-3.742939255e-07 	4.649993531e-05
0.1721480121 	-0.01530389362 	-0.01448693906 	-3.571179499e-07 	0.02464438761 	-8.238135443e-07 	4.697905235e-05
0.175720328 	-0.01534690856 	-0.01471536371 	-5.485387897e-07 	0.02488623433 	-1.222730606e-06 	4.744007941e-05
0.1793325041 	-0.01538219683 	-0.01494477713 	-7.34545009e-07 	0.0251157576 	-1.560606748e-06 	4.787761454e-05
0.182994898 	-0.01540834924 	-0.01517476692 	-9.182003544e-07 	0.02533038082 	-1.831215307e-06 	4.828674606e-05
0.1867003698 	-0.01542400555 	-0.01540408178 	-1.101936537e-06 	0.02552706297 	-2.030955692e-06 	4.866167691e-05
0.1904471912 	-0.01542821656 	-0.01563112153 	-1.288358131e-06 	0.02570322269 	-2.162684174e-06 	4.89974863e-05
0.1942358234 	-0.01542071441 	-0.01585442448 	-1.479166554e-06 	0.02585750299 	-2.234413886e-06 	4.929158742e-05
0.1980667329 	-0.0154016125 	-0.01607254218 	-1.674589702e-06 	0.02598920826 	-2.257712439e-06 	4.954265427e-05
0.201946184 	-0.01537159837 	-0.01628435177 	-1.87343169e-06 	0.02609876979 	-2.246629289e-06 	4.975150901e-05
0.205874617 	-0.01533159703 	-0.01648867161 	-1.99910888e-06 	0.02618693233 	-2.136532105e-06 	4.991957131e-05
0.2098468907 	-0.01528266938 	-0.01668434018 	-1.813433844e-06 	0.02625463383 	-1.73977524e-06 	5.004862917e-05
0.2138634941 	-0.01522615136 	-0.01687072377 	-1.622025251e-06 	0.02630357381 	-1.413438321e-06 	5.014192238e-05
0.2179249219 	-0.01516329593 	-0.01704753833 	-1.425702616e-06 	0.02633556202 	-1.1453177e-06 	5.020290079e-05
0.2220370961 	-0.01509538138 	-0.01721491172 	-1.226242784e-06 	0.02635269903 	-9.230009734e-07 	5.023556871e-05
0.226200533 	-0.01502346417 	-0.0173729396 	-1.026600461e-06 	0.02635669726 	-7.353386322e-07 	5.024319045e-05
0.2304104359 	-0.0149483143 	-0.0175216292 	-8.299780552e-07 	0.02634874615 	-5.729887034e-07 	5.022803341e-05
0.2346673231 	-0.01487058247 	-0.01766122215 	-6.390161781e-07 	0.0263300078 	-4.288833933e-07 	5.019231291e-05
0.238971719 	-0.01479063165 	-0.01779205589 	-4.557161094e-07 	0.02630129575 	-2.985155326e-07 	5.013757977e-05
0.2433319693 	-0.01470868054 	-0.01791455203 	-2.810975348e-07 	0.02626325539 	-1.795258484e-07 	5.006506426e-05
0.2477431375 	-0.01462466834 	-0.01802881262 	-1.160828618e-07 	0.02621588718 	-7.183962096e-08 	4.99747673e-05
0.2510499412 	-0.0145606681 	-0.01810736958 	2.384819758e-06 	0.0261735562 	-5.893821801e-06 	4.989407269e-05
0.2522035389 	-0.01453836596 	-0.01813480366 	-3.923430589e-08 	0.02615882307 	-2.654428649e-08 	4.986598725e-05
0.2567137226 	-0.01444950707 	-0.01823258291 	-1.847228241e-07 	0.02609170622 	-1.193446914e-07 	4.973804387e-05
0.2612769989 	-0.01435750946 	-0.0183222302 	-3.221598437e-07 	0.02601379659 	-1.947558833e-07 	4.958952646e-05
0.2658977798 	-0.01426184485 	-0.01840371999 	-4.529210502e-07 	0.02592432114 	-2.5087066e-07 	4.941896138e-05
0.2705701354 	-0.01416185137 	-0.01847680457 	-5.779170549e-07 	0.02582214273 	-2.869918199e-07 	4.922418094e-05
0.275294641 	-0.01405688177 	-0.01854128754 	-6.979968299e-07 	0.02570617432 	-3.032279855e-07 	4.900311292e-05
0.2800721922 	-0.01394635744 	-0.01859709751 	-8.136430706e-07 	0.02557553093 	-3.000841961e-07 	4.875407031e-05
0.2849113354 	-0.0138297945 	-0.01864420776 	-9.250671419e-07 	0.02542949757 	-2.783933541e-07 	4.847569013e-05
0.2898044922 	-0.01370681066 	-0.01868246505 	-1.031947814e-06 	0.02526742949 	-2.392217518e-07 	4.816674333e-05
0.2947522652 	-0.01357719152 	-0.01871182729 	-1.134184636e-06 	0.02508901863 	-1.843941393e-07 	4.782664263e-05
0.2997552636 	-0.01344097921 	-0.01873253206 	-1.231333293e-06 	0.02489455951 	-1.164787639e-07 	4.74559495e-05
0.3048217599 	-0.01329841758 	-0.01874497639 	-1.322758795e-06 	0.02468477357 	-3.840266213e-08 	4.70560392e-05
0.3099449938 	-0.01314991634 	-0.01874955532 	-1.294896856e-06 	0.02446063897 	4.31218473e-08 	4.662877636e-05
0.3151254131 	-0.01299601937 	-0.01874678404 	-1.163008634e-06 	0.02422343075 	1.069445217e-07 	4.617659156e-05
0.3203643454 	-0.01283747868 	-0.01873744671 	-1.034946657e-06 	0.02397493124 	1.51722059e-07 	4.570288244e-05
0.3256681805 	-0.0126751229 	-0.01872239457 	-9.111696496e-07 	0.02371709443 	1.794056955e-07 	4.52113738e-05
0.3310312183 	-0.01250982119 	-0.01870242863 	-7.923349356e-07 	0.0234518965 	1.916415583e-07 	4.470583285e-05
0.3364541189 	-0.01234248079 	-0.0186784176 	-6.785174459e-07 	0.02318142972 	1.896943749e-07 	4.419024799e-05
0.3419400009 	-0.01217408415 	-0.0186513312 	-5.678605564e-07 	0.02290795876 	1.716442064e-07 	4.366893633e-05
0.3474910806 	-0.01200560335 	-0.0186220557 	-4.612235129e-07 	0.02263364679 	1.426062122e-07 	4.314602148e-05
0.3531041231 	-0.01183795196 	-0.01859149566 	-3.645394923e-07 	0.02236057462 	1.182240384e-07 	4.262547002e-05
0.3587798191 	-0.01167177368 	-0.01856054615 	-2.770088387e-07 	0.02209040033 	9.529129763e-08 	4.211044273e-05
0.3645235755 	-0.01150752913 	-0.01852995796 	-1.956671276e-07 	0.02182438083 	6.831626451e-08 	4.160333563e-05
0.3703324803 	-0.0113455706 	-0.01850020538 	-1.215461198e-07 	0.02156340994 	4.268528696e-08 	4.110585258e-05
0.3762062255 	-0.01118581078 	-0.01847113207 	-5.564251413e-08 	0.02130727339 	2.056061774e-08 	4.061758513e-05
0.3818349366 	-0.01103726845 	-0.01844468758 	7.197707141e-07 	0.0210705924 	-1.324893244e-06 	4.016640538e-05
0.3821475528 	-0.01102902158 	-0.01844322011 	-3.037253495e-09 	0.02105744841 	1.093032774e-09 	4.014134929e-05
0.3881582854 	-0.01087839089 	-0.01841928326 	-5.827507142e-08 	0.02082065394 	2.536978894e-08 	3.968995321e-05
0.3942361112 	-0.01073355292 	-0.01839992453 	-1.100963244e-07 	0.02059678891 	5.470502843e-08 	3.926320424e-05
0.4003822316 	-0.01059199748 	-0.01838359911 	-1.529084873e-07 	0.02038084546 	7.300276013e-08 	3.885155601e-05
0.4066010098 	-0.01045280093 	-0.01836962125 	-1.864999839e-07 	0.0201708316 	8.143743051e-08 	3.845121122e-05
0.4128892032 	-0.01031459282 	-0.01835684197 	-2.106723128e-07 	0.0199637697 	7.983886186e-08 	3.805649369e-05
0.4192475857 	-0.01017553515 	-0.01834377918 	-2.256383897e-07 	0.01975572617 	6.799154333e-08 	3.765990489e-05
0.4256805892 	-0.01003306433 	-0.01832838541 	-2.306795817e-07 	0.01954123571 	4.401385726e-08 	3.725102646e-05
0.4321857004 	-0.00988362647 	-0.01830755039 	-2.241176069e-07 	0.01931256134 	4.632682048e-09 	3.681510957e-05
0.4387634212 	-0.009722478632 	-0.01827694117 	-2.039988343e-07 	0.01905930007 	-5.3746453e-08 	3.633232319e-05
0.4454175046 	-0.009543256856 	-0.01823065036 	-1.674402388e-07 	0.0187674641 	-1.359608898e-07 	3.577600271e-05
0.4521463543 	-0.009337229887 	-0.01816025805 	-1.101776946e-07 	0.01841775027 	-2.487169045e-07 	3.510935096e-05
0.4589503101 	-0.009092401656 	-0.01805381691 	-2.577122703e-08 	0.0179835339 	-4.020035986e-07 	3.428161388e-05
0.4658328557 	-0.008792241631 	-0.01789425303 	9.554258504e-08 	0.01742793214 	-6.097462057e-07 	3.32224825e-05
0.4727925432 	-0.008414225288 	-0.01765687448 	2.679610664e-07 	0.01670026028 	-8.896873444e-07 	3.18353377e-05
0.479829972 	-0.007928981363 	-0.01730669883 	5.110064295e-07 	0.01573367471 	-1.26085592e-06 	2.999275695e-05
0.486948429 	-0.007302507661 	-0.01679719913 	8.480180928e-07 	0.01444927199 	-1.733000027e-06 	2.754432839e-05
0.4941463394 	-0.006505182444 	-0.01607326302 	1.298534158e-06 	0.01277473567 	-2.283853318e-06 	2.435219673e-05
0.5013447716 	-0.005529846869 	-0.01508278903 	1.857261734e-06 	0.01068339024 	-2.820134772e-06 	2.03655111e-05
0.508465376 	-0.004410107625 	-0.01379557488 	2.295301126e-06 	0.008237269216 	-2.940041211e-06 	1.570252456e-05
0.5155074155 	-0.003227544715 	-0.01222424085 	2.654955302e-06 	0.005608940763 	-2.728823372e-06 	1.069220002e-05
0.5224724405 	-0.002098723583 	-0.01044004768 	2.858170092e-06 	0.003058118462 	-2.158151764e-06 	5.829623748e-06
0.5293615891 	-0.001136049975 	-0.008566302371 	2.858035234e-06 	0.0008463457053 	-1.334780181e-06 	1.613370144e-06
0.5361747244 	-0.0004053344226 	-0.006746859695 	2.667185269e-06 	-0.0008615694258 	-4.564232644e-07 	-1.642390786e-06
0.5429133278 	9.087523862e-05 	-0.005103303905 	2.353286803e-06 	-0.002042005143 	2.971622568e-07 	-3.892629348e-06
0.5495782327 	0.0003964335299 	-0.00370520119 	2.003035439e-06 	-0.002779964796 	8.414927692e-07 	-5.299385552e-06
0.5561695966 	0.0005707009789 	-0.002566005866 	1.683597356e-06 	-0.003201186288 	1.182980908e-06 	-6.102350788e-06
0.5626887148 	0.0006655672332 	-0.0016586045 	1.428576696e-06 	-0.003419933089 	1.373820213e-06 	-6.519342989e-06
0.5691364214 	0.0007166928996 	-0.0009364631773 	1.242171559e-06 	-0.003517363515 	1.474132417e-06 	-6.70507246e-06
0.5755129821 	0.0007444474882 	-0.0003506372139 	1.110084809e-06 	-0.003540676664 	1.521885053e-06 	-6.749513802e-06
0.5818194612 	0.0007590417962 	0.0001406873036 	1.015509798e-06 	-0.003514918924 	1.536200294e-06 	-6.70041239e-06
0.5880568427 	0.0007650970777 	0.0005697541923 	9.464137324e-07 	-0.003453850397 	1.530558392e-06 	-6.583998804e-06
0.5942253977 	0.0007642141691 	0.000960385145 	8.944396894e-07 	-0.003364494692 	1.511421179e-06 	-6.413661997e-06
0.6003259628 	0.0007566101391 	0.001330059106 	8.546047408e-07 	-0.003250802104 	1.482910802e-06 	-6.196932324e-06
0.6063597157 	0.0007418996758 	0.001691944736 	8.24431761e-07 	-0.003115206497 	1.448719683e-06 	-5.93844941e-06
0.612326888 	0.0007193317999 	0.002056477726 	8.028745016e-07 	-0.002958897553 	1.411992117e-06 	-5.640481118e-06
0.6182282137 	0.0006878189548 	0.002432615886 	7.89542236e-07 	-0.00278178766 	1.375524652e-06 	-5.302860437e-06
0.6240647607 	0.0006459359078 	0.002828575347 	7.845237161e-07 	-0.002582453494 	1.342108082e-06 	-4.922874116e-06
0.6298369959 	0.0005918310601 	0.00325217858 	7.882004546e-07 	-0.002357979177 	1.314631999e-06 	-4.494963678e-06
0.6355455349 	0.0005230445944 	0.003711118553 	8.007850294e-07 	-0.00210363924 	1.295746294e-06 	-4.010121068e-06
0.6411911782 	0.0004364397825 	0.004213097464 	8.222443165e-07 	-0.00181281212 	1.288174354e-06 	-3.455723747e-06
0.6467747435 	0.0003281246499 	0.004765607773 	8.523383652e-07 	-0.001476848902 	1.294824742e-06 	-2.815284476e-06
0.6522966938 	0.0001933516755 	0.005375601019 	8.902396644e-07 	-0.001084923838 	1.31813154e-06 	-2.068166375e-06
0.6577577088 	2.655637499e-05 	0.006049041619 	9.344143948e-07 	-0.0006242148832 	1.359830717e-06 	-1.189927059e-06
0.6631586198 	-0.0001783858847 	0.00679018179 	9.826236634e-07 	-8.058085208e-05 	1.420761772e-06 	-1.536095003e-07
0.6685000027 	-0.0004276931341 	0.007600613168 	1.031962027e-06 	0.0005602732279 	1.500496296e-06 	1.068036492e-06
0.6737824424 	-0.0007270104084 	0.008478352464 	1.078582151e-06 	0.001311168773 	1.596343899e-06 	2.499452101e-06
0.679006589 	-0.001080437665 	0.009417090964 	1.118030532e-06 	0.002181167683 	1.703159059e-06 	4.157911828e-06
0.6841732363 	-0.001489385847 	0.01040568103 	1.145846436e-06 	0.003172957268 	1.813547249e-06 	6.04853843e-06
0.6892828813 	-0.001951559627 	0.01142822147 	1.158180285e-06 	0.004280589452 	1.918417679e-06 	8.159993223e-06
0.6943361397 	-0.002460405622 	0.01246503286 	1.152314462e-06 	0.005488362931 	2.007939143e-06 	1.046234516e-05
0.6993336336 	-0.003005241072 	0.01349442424 	1.12743557e-06 	0.006771329008 	2.073573032e-06 	1.290803508e-05
0.7042760903 	-0.003572182355 	0.01449488401 	1.085022288e-06 	0.008097626729 	2.110049556e-06 	1.543632717e-05
0.7091640066 	-0.004145789503 	0.01544730399 	1.028459109e-06 	0.009432357151 	2.116150985e-06 	1.798069432e-05
0.7139979828 	-0.004711025573 	0.01633681566 	9.621929344e-07 	0.01074203882 	2.094312321e-06 	2.047731159e-05
0.7187786138 	-0.005254959697 	0.01715376567 	8.909931958e-07 	0.01199835733 	2.049828202e-06 	2.287220384e-05
0.7235065557 	-0.005767832988 	0.01789372692 	8.192427787e-07 	0.01318039625 	1.989523262e-06 	2.512549856e-05
0.7281823321 	-0.006243407609 	0.01855675374 	7.503989119e-07 	0.01427522911 	1.920258655e-06 	2.721255427e-05
0.7328065091 	-0.006678758229 	0.01914631061 	6.866814589e-07 	0.01527728528 	1.847604308e-06 	2.912275185e-05
0.737379656 	-0.007073660989 	0.01966810434 	6.29286636e-07 	0.01618688012 	1.775697876e-06 	3.085669241e-05
0.7419023644 	-0.007429819823 	0.02012902774 	5.786401907e-07 	0.01700844703 	1.707325841e-06 	3.24228273e-05
0.7463751843 	-0.007750115011 	0.02053631158 	5.347059431e-07 	0.01774886665 	1.644315759e-06 	3.383427288e-05
0.7507986441 	-0.008038046689 	0.02089698482 	4.97073438e-07 	0.01841624518 	1.58744111e-06 	3.510648185e-05
0.7551732887 	-0.008297342948 	0.02121759854 	4.65192549e-07 	0.01901907261 	1.536910214e-06 	3.625563848e-05
0.7594996577 	-0.008531674836 	0.02150406056 	4.384905718e-07 	0.01956562417 	1.492626831e-06 	3.729751765e-05
0.7637783137 	-0.008744487603 	0.02176159019 	4.16463607e-07 	0.02006361555 	1.454471954e-06 	3.824682763e-05
0.7680097523 	-0.008938907206 	0.02199470898 	3.986508478e-07 	0.02052001723 	1.422229786e-06 	3.911685608e-05
0.7721944944 	-0.009117746436 	0.02220733171 	3.846045158e-07 	0.02094107778 	1.395527921e-06 	3.991951452e-05
0.7763330552 	-0.009283500762 	0.02240282638 	3.739131089e-07 	0.02133232552 	1.373966635e-06 	4.066534145e-05
0.7804259499 	-0.009438370329 	0.02258408784 	3.661856387e-07 	0.02169862246 	1.357119286e-06 	4.136360522e-05
0.7844736913 	-0.009584256318 	0.02275357458 	3.610713184e-07 	0.02204416419 	1.344649242e-06 	4.202230381e-05
0.7884767633 	-0.009722782751 	0.02291334006 	3.581916885e-07 	0.02237252763 	1.336082513e-06 	4.264825578e-05
0.7924356588 	-0.009855345687 	0.02306511082 	3.571370469e-07 	0.02268677685 	1.330829469e-06 	4.324730214e-05
0.7963508653 	-0.009983109832 	0.02321029344 	3.574796191e-07 	0.02298945829 	1.328238968e-06 	4.382429709e-05
0.8002228677 	-0.01010703927 	0.02335001819 	3.587717545e-07 	0.02328266593 	1.327601369e-06 	4.438323235e-05
0.8040521488 	-0.01022788676 	0.02348514233 	3.6057754e-07 	0.0235680217 	1.328261546e-06 	4.492719975e-05
0.8078391712 	-0.01034620182 	0.02361625329 	3.624325531e-07 	0.02384669189 	1.329458458e-06 	4.545842259e-05
0.8115844012 	-0.01046236868 	0.02374371811 	3.638447554e-07 	0.02411946746 	1.330342631e-06 	4.597840864e-05
0.8152883001 	-0.01057659939 	0.02386768297 	3.643054269e-07 	0.02438675131 	1.330026315e-06 	4.648792594e-05
0.8189513238 	-0.01068895117 	0.02398809078 	3.632776119e-07 	0.02464859452 	1.327571051e-06 	4.698707188e-05
0.8225739295 	-0.01079933537 	0.02410469905 	3.601858567e-07 	0.02490471593 	1.322001725e-06 	4.747531046e-05
0.8261565578 	-0.01090750382 	0.02421706204 	3.543727147e-07 	0.02515447204 	1.312239078e-06 	4.795141503e-05
0.8296996493 	-0.01101307173 	0.02432454494 	3.450008253e-07 	0.02539690032 	1.296893844e-06 	4.841355071e-05
0.8332036402 	-0.01111553206 	0.02442632201 	3.311451019e-07 	0.02563074731 	1.275060683e-06 	4.885932807e-05