0 	0.4435425903 	-1.812017643e-14 	-3.125750034e-20
0.0003162438639 	0.4435440429 	-2.364250172e-05 	1.324768163e-09
0.0006324872147 	0.4435496587 	-4.422206061e-05 	2.263514741e-09
0.0009487300516 	0.4435603963 	-6.491902145e-05 	3.007422727e-09
0.001264972374 	0.4435756836 	-8.62709795e-05 	3.578330573e-09
0.001581214182 	0.4435954292 	-0.0001076390228 	3.94261832e-09
0.001897455474 	0.4436196049 	-0.0001290366553 	4.100413876e-09
0.002213696249 	0.4436481989 	-0.0001504491167 	4.050830999e-09
0.002529936509 	0.4436812057 	-0.000171873632 	3.79358133e-09
0.002846176251 	0.443718623 	-0.000193305939 	3.328426965e-09
0.003162415477 	0.44376045 	-0.0002147438349 	2.655268069e-09
0.003478654184 	0.4438066868 	-0.0002361859678 	1.774083225e-09
0.003794892374 	0.4438573343 	-0.0002576314839 	6.849078042e-10
0.003968138875 	0.4438874976 	-0.0002693810664 	9.431700665e-10
0.004111130046 	0.4439122784 	-0.0002790802447 	6.313632974e-10
0.004427367199 	0.4439714964 	-0.0003005320536 	2.18340472e-09
0.004743603834 	0.4440351297 	-0.0003219861405 	3.949593844e-09
0.005059839951 	0.4441031801 	-0.0003434423077 	5.929738027e-09
0.005376075549 	0.4441756498 	-0.0003649004138 	8.123612103e-09
0.005692310628 	0.4442525408 	-0.0003863603566 	1.053095924e-08
0.006008545189 	0.4443338549 	-0.0004078220622 	1.315149182e-08
0.006324779232 	0.4444195943 	-0.0004292854764 	1.59848917e-08
0.006641012756 	0.4445097607 	-0.0004507505598 	1.903081067e-08
0.006957245763 	0.4446043559 	-0.0004722172827 	2.228887067e-08
0.007273478251 	0.4447033814 	-0.0004936856224 	2.575866404e-08
0.007589710222 	0.4448068385 	-0.0005151555603 	2.943975361e-08
0.007905941675 	0.444914728 	-0.00053662708 	3.333167292e-08
0.008222172612 	0.4450270506 	-0.0005581001699 	3.743392651e-08
0.008538403032 	0.4451438061 	-0.0005795748221 	4.174599017e-08
0.008854632936 	0.4452649935 	-0.0006010510133 	4.626731322e-08
0.009170862325 	0.4453906099 	-0.0006225283964 	5.099729453e-08
0.009487091198 	0.4455392485 	-0.0006470207326 	5.619507465e-08
0.009978436983 	0.4457330419 	-0.0006776241888 	6.404182118e-08
0.01047901633 	0.4459588234 	-0.0007116363013 	7.279231177e-08
0.01098900275 	0.446200152 	-0.0007462907887 	8.223615833e-08
0.01150857298 	0.4464576925 	-0.0007816001824 	9.240323094e-08
0.01203790712 	0.4467321233 	-0.000817576792 	1.033241637e-07
0.01257718863 	0.4470241371 	-0.000854233126 	1.150304087e-07
0.01312660441 	0.4473344402 	-0.0008915818918 	1.275542198e-07
0.01368634489 	0.4476637524 	-0.0009296360081 	1.409286418e-07
0.01425660407 	0.4480128061 	-0.0009684085988 	1.551874966e-07
0.01483757959 	0.4483823455 	-0.001007912994 	1.703653656e-07
0.01542947281 	0.4487731254 	-0.001048162729 	1.864975704e-07
0.01603248888 	0.4491859104 	-0.001089171544 	2.036201498e-07
0.01664683679 	0.4496214733 	-0.001130953387 	2.217698323e-07
0.01727272946 	0.4500805944 	-0.001173522408 	2.409840064e-07
0.01791038382 	0.4505640598 	-0.001216892953 	2.613006841e-07
0.01856002087 	0.4510726602 	-0.001261079601 	2.827584624e-07
0.01922186577 	0.451607189 	-0.001306097081 	3.05396452e-07
0.0198961479 	0.4521689824 	-0.001352003892 	3.292662017e-07
0.02058563617 	0.4527598426 	-0.001398890456 	3.544917705e-07
0.02128991459 	0.4533805551 	-0.001446761395 	3.811289606e-07
0.0220074278 	0.4540310563 	-0.001495559927 	4.091722061e-07
0.02273842446 	0.4547117567 	-0.001545271848 	4.386642953e-07
0.02348315793 	0.4554234478 	-0.001595913207 	4.696580438e-07
0.0242418863 	0.4561669149 	-0.001647500208 	5.022078625e-07
0.02501487254 	0.4569429356 	-0.001700049275 	5.36369813e-07
0.02580238453 	0.4577522796 	-0.001753577019 	5.722016532e-07
0.0266046952 	0.4585957073 	-0.001808100229 	6.097628877e-07
0.02742208261 	0.4594739695 	-0.001863635877 	6.491148201e-07
0.02825483002 	0.4603878064 	-0.001920201105 	6.903206047e-07
0.02910322603 	0.4613379475 	-0.001977813225 	7.334452981e-07
0.02996756467 	0.462325111 	-0.002036489712 	7.7855591e-07
0.03084814547 	0.4633500036 	-0.002096248194 	7.950099327e-07
0.03174527359 	0.4644133205 	-0.002157106445 	7.892802248e-07
0.03265925994 	0.4655157457 	-0.002219082377 	7.819667436e-07
0.03359042126 	0.4666579516 	-0.00228219403 	7.730012733e-07
0.03453908024 	0.4678405999 	-0.002346459554 	7.623135089e-07
0.03550556561 	0.4690643416 	-0.002411897206 	7.498309922e-07
0.03649021232 	0.4703298174 	-0.002478525319 	7.354790485e-07
0.03749336157 	0.4716376585 	-0.002546362321 	7.191807255e-07
0.03851536099 	0.4729884863 	-0.002615426695 	7.008567108e-07
0.03955656474 	0.474383468 	-0.002685764659 	6.804330387e-07
0.04061897128 	0.4758253709 	-0.002757500729 	6.577744695e-07
0.04170592738 	0.477315951 	-0.002830704608 	6.326607314e-07
0.04281330888 	0.4788538129 	-0.002905291719 	6.051843003e-07
0.04394149955 	0.4804380373 	-0.002981205941 	5.75234603e-07
0.04509089038 	0.4820692163 	-0.00305846555 	5.427177745e-07
0.04626187967 	0.4837479382 	-0.003137088683 	5.07537427e-07
0.04745487324 	0.4854747886 	-0.00321709346 	4.695945387e-07
0.04867028451 	0.4872503516 	-0.003298497781 	4.287874073e-07
0.04990853466 	0.4890752101 	-0.003381319313 	3.850116211e-07
0.05117005281 	0.4909499458 	-0.003465575458 	3.381600329e-07
0.05245527612 	0.4928751386 	-0.003551283302 	2.881227375e-07
0.05376464996 	0.4948513636 	-0.003638459575 	2.347870514e-07
0.05509862807 	0.4968791852 	-0.003727120594 	1.780374971e-07
0.05645767272 	0.4989591456 	-0.003817282237 	1.177557901e-07
0.05784225485 	0.5010917406 	-0.003908959863 	5.382082965e-08
0.05896828177 	0.502836811 	-0.003983374664 	3.165086327e-08
0.05925285427 	0.5032776742 	-0.00400219779 	1.433613971e-08
0.06069116533 	0.5055197184 	-0.004097169361 	8.832729779e-08
0.06216301825 	0.5078207652 	-0.004193945717 	1.668934523e-07
0.06366252918 	0.5104823994 	-0.004305075908 	2.504629812e-07
0.06596449751 	0.513817836 	-0.004443248098 	3.825009705e-07
0.06829214032 	0.5175149546 	-0.004594916976 	5.23263394e-07
0.07064574395 	0.5212759183 	-0.004747597359 	6.721351957e-07
0.07302559793 	0.5251017557 	-0.004901234115 	8.291714603e-07
0.07543199503 	0.5289929638 	-0.005055788613 	9.944234475e-07
0.07786523129 	0.5329498039 	-0.005211218286 	1.167939068e-06
0.08032560603 	0.5369768661 	-0.005367646766 	1.349809374e-06
0.08282424014 	0.5410796055 	-0.005525219563 	1.540869196e-06
0.08535191995 	0.5452543363 	-0.005683718705 	1.740405934e-06
0.08790779437 	0.5494966975 	-0.005842904386 	1.948306119e-06
0.09049217788 	0.5538066946 	-0.006002697792 	2.142926289e-06
0.09310538849 	0.5581848694 	-0.006163034214 	2.019051164e-06
0.09574774776 	0.5626318369 	-0.006323845542 	1.88667292e-06
0.09841958081 	0.5671491424 	-0.006485089751 	1.745768642e-06
0.1011232676 	0.5717426289 	-0.006646866577 	1.596180237e-06
0.1038669738 	0.5764168073 	-0.006809212882 	1.437310364e-06
0.1066412871 	0.5811674744 	-0.006971852056 	1.269980382e-06
0.109446549 	0.5859916606 	-0.007134553256 	1.094163694e-06
0.1122831048 	0.590890487 	-0.007297219274 	9.098783076e-07
0.1151513035 	0.5958651454 	-0.007459747987 	7.171514884e-07
0.1180514982 	0.6009173531 	-0.00762204598 	5.160211985e-07
0.1209850947 	0.6060535433 	-0.007784157393 	3.064469753e-07
0.1239620669 	0.611279825 	-0.007946096314 	8.772834802e-08
0.1251390251 	0.6133568413 	-0.00800920447 	6.271658872e-07
0.1269722515 	0.6165917039 	-0.008107666842 	1.438608262e-07
0.1300160189 	0.6219867063 	-0.008268562108 	3.867555786e-07
0.133093744 	0.627467116 	-0.008428569321 	6.378069608e-07
0.1362058055 	0.6330348332 	-0.008587537185 	8.968776709e-07
0.1393525864 	0.6386946383 	-0.008745381816 	1.163824323e-06
0.1425407528 	0.6444540874 	-0.008902074341 	1.439052438e-06
0.1457695841 	0.6503150954 	-0.009057407956 	1.722071173e-06
0.1490344407 	0.6562750158 	-0.009211045956 	2.012128131e-06
0.1523357245 	0.6623343084 	-0.009362727274 	2.308948919e-06
0.155673842 	0.668495795 	-0.009512236675 	2.612243457e-06
0.1590492042 	0.6747648692 	-0.009659400899 	2.921711689e-06
0.1624675126 	0.6811501066 	-0.009804091666 	3.237499073e-06
0.1659296299 	0.6876553576 	-0.009946040723 	3.324591424e-06
0.1694303785 	0.6942791433 	-0.01008484635 	3.076179064e-06
0.1729701892 	0.701022894 	-0.01022015846 	2.820595763e-06
0.176549498 	0.7078908076 	-0.01035166239 	2.558126287e-06
0.1801687455 	0.7148913539 	-0.01047909315 	2.289102035e-06
0.1838369307 	0.7220350116 	-0.0106021784 	2.013170432e-06
0.1875479555 	0.7293234745 	-0.01072045392 	1.73162074e-06
0.1913003917 	0.7367571987 	-0.01083342264 	1.445080004e-06
0.1950947013 	0.7443409495 	-0.01094063601 	1.154043439e-06
0.1989313516 	0.7520830246 	-0.01104166659 	8.590565454e-07
0.2028158131 	0.7599948647 	-0.01113609025 	5.602969635e-07
0.206748532 	0.7680828192 	-0.01122339019 	2.587450884e-07
0.2101444497 	0.7751406339 	-0.01129136499 	8.965517627e-07
0.2107251389 	0.776347668 	-0.01130303008 	4.606155557e-08
0.2147461234 	0.7847922421 	-0.01137467047 	3.614433776e-07
0.2188119806 	0.7934245316 	-0.01143763909 	6.772712189e-07
0.2229278897 	0.8022538252 	-0.01149154014 	9.933883846e-07
0.2270943661 	0.811282752 	-0.01153601433 	1.309049382e-06
0.2313073414 	0.8205064387 	-0.01157080358 	1.623672656e-06
0.2355673346 	0.8299201072 	-0.01159583488 	1.937473244e-06
0.2398748701 	0.839521697 	-0.01161123933 	2.251021734e-06
0.2442372224 	0.8493077312 	-0.01161734677 	2.565600215e-06
0.248650206 	0.8592626512 	-0.01161468276 	2.881542745e-06
0.2531124416 	0.8693659565 	-0.01160396953 	3.19981712e-06
0.2576244788 	0.8795998043 	-0.01158605224 	3.521346211e-06
0.2621892502 	0.8899495511 	-0.01156179923 	3.846720094e-06
0.2668106401 	0.9003984427 	-0.01153201237 	3.962948241e-06
0.2714836098 	0.9109240031 	-0.01149734796 	3.679577223e-06
0.2762087349 	0.9215088696 	-0.01145821593 	3.394159943e-06
0.2809868679 	0.9321458798 	-0.01141471375 	3.105555422e-06
0.2858254639 	0.9428323201 	-0.01136665122 	2.813164049e-06
0.2907180655 	0.9535591908 	-0.0113136445 	2.518136961e-06
0.2956652752 	0.9643214105 	-0.01125515764 	2.221362469e-06
0.3006677021 	0.9751221824 	-0.0111905618 	1.924131499e-06
0.3057325688 	0.9859661895 	-0.01111925866 	1.627787682e-06
0.3108541272 	0.9968486566 	-0.01104082799 	1.334571545e-06
0.3160328503 	1.007764732 	-0.01095502451 	1.045608854e-06
0.3212699707 	1.018713668 	-0.01086180933 	7.615525008e-07
0.3265710904 	1.029692898 	-0.01076118948 	4.829985136e-07
0.3319313799 	1.040690986 	-0.01065353301 	2.10275248e-07
0.3361906379 	1.049340116 	-0.0105640929 	2.704933441e-06
0.3373514992 	1.05169758 	-0.01053976429 	5.941463623e-08
0.3428342305 	1.062704977 	-0.01042064371 	3.325062873e-07
0.3483815784 	1.073702292 	-0.01029659316 	6.010259956e-07
0.3539908448 	1.084674229 	-0.01016863412 	8.652917292e-07
0.3596627202 	1.095609177 	-0.01003758951 	1.125592144e-06
0.3654019652 	1.106498482 	-0.009904092711 	1.382643479e-06
0.3712061637 	1.117329087 	-0.009768887661 	1.636287742e-06
0.3770751474 	1.128089249 	-0.009632629627 	1.886660235e-06
0.3830113807 	1.138771483 	-0.009495814191 	2.13389923e-06
0.3890165364 	1.149368099 	-0.009358839847 	2.377349531e-06
0.3950887203 	1.159869775 	-0.009222015783 	2.616560424e-06
0.4012290711 	1.170270729 	-0.009085498664 	2.851309403e-06
0.4074414565 	1.180566983 	-0.008949330047 	3.080895706e-06
0.4137231831 	1.190750879 	-0.008813511236 	3.30448994e-06
0.420075024 	1.200816522 	-0.008677941953 	3.521818791e-06
0.4265009097 	1.210758995 	-0.00854244941 	3.732358785e-06
0.4329987794 	1.220568284 	-0.008406875356 	3.935255594e-06
0.4395691754 	1.230232853 	-0.008271028612 	4.130365167e-06
0.4462154458 	1.239738713 	-0.008134706697 	4.050697855e-06
0.452936325 	1.249063514 	-0.007997770064 	3.844096169e-06
0.4597322186 	1.258177347 	-0.007860109067 	3.641412302e-06
0.4666062465 	1.267039923 	-0.007721668395 	3.442920194e-06
0.4735572746 	1.275592807 	-0.007582516204 	3.249220849e-06
0.4805859366 	1.283756477 	-0.007442824646 	3.060163431e-06
0.4876951865 	1.291424294 	-0.007302912173 	2.87602142e-06
0.4948837842 	1.298441308 	-0.007163611157 	2.697141898e-06
0.5020728327 	1.304600326 	-0.007026689244 	2.525044791e-06
0.5091839357 	1.309730662 	-0.006893784555 	2.361617125e-06
0.5162165766 	1.313766371 	-0.006765406285 	2.206567764e-06
0.5231722107 	1.316737079 	-0.006641463728 	2.05944758e-06
0.5300519365 	1.318753039 	-0.006521670097 	1.92053603e-06
0.5368557511 	1.319975282 	-0.006405642169 	1.789644046e-06
0.5435850468 	1.320575263 	-0.006292992551 	1.666459838e-06
0.5502406551 	1.320704835 	-0.006183377771 	1.551100604e-06
0.5568228235 	1.320483848 	-0.006076490989 	1.443130243e-06
0.5633327798 	1.320000035 	-0.005972060762 	1.342042804e-06
0.5697713528 	1.319314253 	-0.005869843381 	1.247750385e-06
0.5761388792 	1.318466755 	-0.005769604347 	1.159752606e-06
0.5824363843 	1.317482515 	-0.005671120002 	1.077510507e-06
0.5886648223 	1.316375343 	-0.005574173049 	1.000893682e-06
0.5948245315 	1.315150852 	-0.005478541687 	9.294934051e-07
0.6009163367 	1.313808336 	-0.005384000063 	8.628172368e-07
0.6069413562 	1.312342032 	-0.005290313241 	8.006990474e-07
0.6128998905 	1.310741955 	-0.005197230799 	7.428840488e-07
0.6187926729 	1.308994168 	-0.005104477142 	6.889600601e-07
0.6246207232 	1.307080908 	-0.005011749272 	6.386717264e-07
0.630384542 	1.304980711 	-0.004918707876 	5.919371403e-07
0.6360847567 	1.302668423 	-0.004824962004 	5.484291726e-07
0.6417221536 	1.300115375 	-0.004730072531 	5.078539747e-07
0.6472975325 	1.297290032 	-0.004633545252 	4.701674115e-07
0.6528113863 	1.294159199 	-0.004534835705 	4.351769236e-07
0.6582643935 	1.290689766 	-0.004433366351 	4.026243663e-07
0.663657363 	1.286851202 	-0.004328559585 	3.723360179e-07
0.6689908816 	1.282618596 	-0.004219878112 	3.442841019e-07
0.6742655434 	1.27797549 	-0.004106869968 	3.182593058e-07
0.6794819976 	1.272915879 	-0.003989216125 	2.940533532e-07
0.6846410163 	1.267444943 	-0.003866755636 	2.715722233e-07
0.6897431149 	1.261578293 	-0.0037394879 	2.507682405e-07
0.6947889098 	1.255339716 	-0.003607549247 	2.314723369e-07
0.6997790223 	1.248758218 	-0.003471179382 	2.135301957e-07
0.7047141634 	1.241865195 	-0.003330681796 	1.968896407e-07
0.7095948444 	1.234692201 	-0.003186388774 	1.815151512e-07
0.7144216649 	1.227269309 	-0.003038659997 	1.67257576e-07
0.719195219 	1.219624266 	-0.002887780246 	1.540040887e-07
0.7239161526 	1.211782397 	-0.002734472267 	1.416096064e-07
0.7285849967 	1.203766913 	-0.002578782423 	1.303043685e-07
0.7332023176 	1.195596411 	-0.002420542998 	1.1986889e-07
0.7377686838 	1.187284305 	-0.002260936812 	1.100023241e-07
0.7422846824 	1.178843185 	-0.00209997172 	1.009287069e-07
0.7467508634 	1.170286357 	-0.00193736555 	9.255600584e-08
0.7511677575 	1.16162686 	-0.001773833236 	8.473660428e-08
0.7555359085 	1.152877205 	-0.001609819209 	7.746388014e-08
0.7598558555 	1.14404947 	-0.00144578395 	7.065946263e-08
0.764128156 	1.135155504 	-0.00128224159 	6.432551034e-08
0.768353309 	1.126207114 	-0.001119729779 	5.845586777e-08
0.7725318348 	1.117216161 	-0.0009588128643 	5.300559697e-08
0.776664248 	1.108194671 	-0.0008000751469 	4.793429733e-08
0.7807510619 	1.099154967 	-0.0006441188902 	4.320919034e-08
0.7847927877 	1.090109784 	-0.0004915582852 	3.884452725e-08
0.7887899104 	1.081072365 	-0.0003430216815 	3.482688338e-08
0.7927429222 	1.072056505 	-0.0001992097815 	3.105926053e-08
0.7966523098 	1.063075164 	-6.078558798e-05 	2.764343095e-08
0.8005185571 	1.05411021 	7.291241399e-05 	2.467401343e-08
0.8043421454 	1.045102075 	0.0002042528029 	2.21295729e-08
0.8081235378 	1.03600365 	0.0003355858506 	1.98784849e-08
0.8118631999 	1.026803596 	0.0004677853033 	1.779105686e-08
0.8155615922 	1.01750854 	0.0006005552831 	1.58679722e-08
0.8192191701 	1.008134205 	0.0007333228807 	1.408770082e-08
0.8228363893 	0.9987004085 	0.0008654038838 	1.244364476e-08
0.8264136904 	0.9892280868 	0.0009960659226 	1.094010947e-08
0.8299515134 	0.9797375728 	0.001124560089 	9.564811938e-09
0.833450294 	0.9702475205 	0.001250170628 	8.307739356e-09
0.836910463 	0.9607742702 	0.001372258591 	7.15967363e-09
0.8403324473 	0.9513318608 	0.001490276458 	6.112290464e-09
0.8437166697 	0.9419331524 	0.001603736392 	5.172821078e-09
0.8470635448 	0.9325924433 	0.001712117755 	4.335710122e-09
0.8503734847 	0.9233294782 	0.001814714846 	3.587715246e-09
0.853646897 	0.9141737331 	0.001910467973 	2.916070021e-09
0.8568841848 	0.9051663562 	0.001997842574 	2.310550744e-09
0.860085747 	0.8963557384 	0.002074922204 	1.763605936e-09
0.8632519787 	0.8877826114 	0.002139715988 	1.297537359e-09
0.8663832688 	0.8794527281 	0.002193213587 	9.218718581e-10
0.8694800027 	0.8713077139 	0.002237464841 	6.220632298e-10
0.8725425619 	0.8632660775 	0.002273767254 	3.874433086e-10
0.8755713235 	0.8552953299 	0.002304582077 	1.951224925e-10
0.8785666604 	0.8473960577 	0.002330364378 	3.435690264e-11
0.8793111533 	0.8454286628 	0.002335440141 	1.354280351e-07
0.881528942 	0.839567939 	0.002350560471 	1.018858051e-10
0.8844585328 	0.8318103184 	0.002365469502 	2.073833323e-10
0.8873557934 	0.8241220085 	0.002375217578 	2.847962366e-10
0.8902210805 	0.8165011796 	0.002379951091 	3.390113567e-10
0.893054747 	0.8089453246 	0.002379829567 	3.742674176e-10
0.8958571419 	0.8014512848 	0.002375029616 	3.941713407e-10
0.8986286103 	0.7940153128 	0.002365737723 	4.017367555e-10
0.9013694936 	0.7866331418 	0.002352145078 	3.987446037e-10
0.9040801293 	0.7793000376 	0.002334443293 	3.859097771e-10
0.906760851 	0.7720108171 	0.002312821327 	3.655343182e-10
0.909411989 	0.7647598303 	0.002287463748 	3.396001748e-10
0.9120338697 	0.7575409156 	0.002258550418 	3.097388082e-10
0.9146268159 	0.7503473372 	0.002226256932 	2.772809011e-10
0.9171911471 	0.7431717205 	0.002190755574 	2.432996502e-10
0.9197271789 	0.7360059965 	0.00215221664 	2.086380753e-10
0.9222352237 	0.7288413599 	0.002110809139 	1.736449834e-10
0.9247155904 	0.7216682404 	0.00206670374 	1.389147535e-10
0.9271685843 	0.7144762777 	0.002020055058 	1.051028104e-10
0.9295945076 	0.7072542927 	0.001971080998 	7.271356047e-11
0.931993659 	0.7006001875 	0.00192430947 	4.465544243e-11
0.9335564697 	0.6951888903 	0.001885196007 	2.31371752e-11
0.9350904493 	0.6904135036 	0.001850037148 	5.267822155e-12
0.9365961296 	0.6856663443 	0.001814561357 	-1.147329322e-11
0.9380740326 	0.6809467529 	0.001778808488 	-2.709945992e-11
0.939524671 	0.6762542275 	0.001742845941 	-4.163212761e-11
0.9409485475 	0.6715883865 	0.001706730137 	-5.507988717e-11
0.942346156 	0.6669489223 	0.001670512994 	-6.745307665e-11
0.9437179811 	0.662335553 	0.001634242282 	-7.877547381e-11
0.9450644983 	0.6577479804 	0.001597962252 	-8.907722042e-11
0.9463861746 	0.6531858539 	0.001561713898 	-9.839319574e-11
0.9476834683 	0.6486487443 	0.001525535263 	-1.067616231e-10
0.9489568292 	0.6441361253 	0.001489461718 	-1.142229181e-10
0.9502066987 	0.6396473623 	0.00145352621 	-1.208187447e-10
0.9514335103 	0.6351817067 	0.001417759472 	-1.26591251e-10
0.9526376894 	0.6307382944 	0.001382190214 	-1.315824615e-10
0.9538196534 	0.6263161465 	0.001346845282 	-1.358338001e-10
0.9549798122 	0.6219141711 	0.001311749797 	-1.393857272e-10
0.9561185681 	0.6175311662 	0.001276927275 	-1.422774725e-10
0.957236316 	0.6131658217 	0.001242399732 	-1.445468468e-10
0.9583334433 	0.608816721 	0.001208187779 	-1.462301238e-10
0.9594103305 	0.6044823415 	0.001174310688 	-1.473610585e-10
0.960467351 	0.6001610542 	0.00114078647 	-1.479510988e-10
0.9615048713 	0.5958511217 	0.001107631935 	-1.480230226e-10
0.9625232512 	0.5915506953 	0.001074862737 	-1.476078656e-10
0.9635228437 	0.5872578094 	0.001042493421 	-1.467357135e-10
0.9645039954 	0.582970376 	0.001010537461 	-1.454357003e-10
0.9654670466 	0.5786861762 	0.0009790072971 	-1.437360209e-10
0.9664123311 	0.5744028506 	0.0009479143666 	-1.416639564e-10
0.9673401768 	0.5701178876 	0.000917269129 	-1.39245908e-10
0.9682509054 	0.5658286094 	0.0008870810939 	-1.365074386e-10
0.9691448325 	0.5615321564 	0.0008573588441 	-1.334733206e-10
0.9700222683 	0.5572254683 	0.0008281100591 	-1.301675844e-10
0.9708835169 	0.5529052631 	0.0007993415371 	-1.266135736e-10
0.9717288769 	0.5485680132 	0.0007710592177 	-1.228339987e-10
0.9725586415 	0.5442099174 	0.0007432682044 	-1.188509939e-10
0.9733730984 	0.5398268707 	0.0007159727879 	-1.146861735e-10
0.97417253 	0.5354144288 	0.000689176471 	-1.10360688e-10
0.9749572134 	0.530967769 	0.0006628819931 	-1.058952797e-10
0.9757274208 	0.5264816458 	0.0006370913579 	-1.013103356e-10
0.9764834191 	0.5219503413 	0.0006118058614 	-9.662593923e-11
0.9772254706 	0.5173676091 	0.0005870261221 	-9.186191806e-11
0.9779538326 	0.5127266107 	0.0005627521131 	-8.703788822e-11
0.9786687575 	0.5080198441 	0.0005389831965 	-8.217329499e-11
0.9793704933 	0.5032390634 	0.0005157181573 	-7.728717507e-11
0.9800592833 	0.4983751872 	0.0004929552429 	-7.239626738e-11
0.9807353663 	0.4934181958 	0.0004706922034 	-6.751968844e-11
0.9813989767 	0.4883570142 	0.0004489263287 	-6.267721013e-11
0.9820503447 	0.4831793812 	0.0004276544911 	-5.788851895e-11
0.982689696 	0.4778716992 	0.0004068731862 	-5.317320115e-11
0.9833172525 	0.4724188663 	0.0003865785728 	-4.85507162e-11
0.9839332316 	0.4668040844 	0.000366766513 	-4.404035845e-11
0.9845378469 	0.4610086424 	0.0003474326046 	-3.96612048e-11
0.9851313081 	0.4550116683 	0.0003285722174 	-3.543204731e-11
0.985713821 	0.4487898491 	0.0003101804356 	-3.137131845e-11
0.9862855876 	0.4423171113 	0.0002922527008 	-2.749696861e-11
0.986846806 	0.4355642602 	0.0002747834641 	-2.382636192e-11
0.987397671 	0.4284985779 	0.0002577751618 	-2.037557616e-11
0.9879383734 	0.421083381 	0.0002411673634 	-1.716243291e-11
0.9884691008 	0.4132776155 	0.0002250928817 	-1.420080002e-11
0.9889900372 	0.4057553926 	0.0002108146253 	-1.172171937e-11
0.98932531 	0.3993427434 	0.0001993488738 	-9.877889552e-12
0.9896605828 	0.3933912996 	0.0001893724976 	-8.36660556e-12
0.9899958556 	0.387111027 	0.0001795137456 	-6.965903905e-12
0.9903311284 	0.3804697478 	0.0001697035731 	-5.681077808e-12
0.9906664012 	0.3734324447 	0.0001599758153 	-4.515909165e-12
0.991001674 	0.3659611166 	0.000150334688 	-3.47548597e-12
0.9913369469 	0.3580146699 	0.0001407895616 	-2.563414187e-12
0.9916722197 	0.3495488186 	0.0001313512112 	-1.782265028e-12
0.9920074925 	0.3405160289 	0.0001220329839 	-1.133366198e-12
0.9923427653 	0.3308655846 	0.000112851054 	-6.165633211e-13
0.9926780381 	0.3205439132 	0.0001038252435 	-2.298720377e-13
0.9930133109 	0.3094954184 	9.497980263e-05 	3.103864694e-14
0.9933485837 	0.2976641851 	8.634349715e-05 	1.736640542e-13
0.9936838566 	0.2849970593 	7.794745995e-05 	2.098440042e-13
0.9940191294 	0.2714486541 	6.981876666e-05 	1.569239414e-13
0.9943544022 	0.2569886486 	6.196986785e-05 	3.754326875e-14
0.994689675 	0.2416110954 	5.43915044e-05 	-1.238312861e-13
0.9950249478 	0.2253441792 	4.706517169e-05 	-3.07001269e-13
0.9953602206 	0.2082572305 	4.000304591e-05 	-4.985071403e-13
0.9956954934 	0.1904608421 	3.3288381e-05 	-6.841030483e-13
0.9960307663 	0.1720971837 	2.706494712e-05 	-8.379638816e-13
0.9963660391 	0.1533215437 	2.146584394e-05 	-9.258946451e-13
0.9967013119 	0.1342807445 	1.654656573e-05 	-9.247960827e-13
0.9970365847 	0.1150958675 	1.228711727e-05 	-8.376134879e-13
0.9973718575 	0.0958541753 	8.647331255e-06 	-6.886916263e-13
0.9977071303 	0.07661036912 	5.612160108e-06 	-5.087980847e-13
0.9980424031 	0.05739379569 	3.198229784e-06 	-3.257588565e-13
0.998377676 	0.03821743838 	1.440298094e-06 	-1.645382242e-13
0.9987129488 	0.01908567971 	3.919579898e-07 	-5.096581312e-14
0.9990482216 	0.008042426036 	4.521751443e-08 	-8.005144075e-15
0.9990482216 	0.008042426036 	4.521751443e-08 	-8.005144067e-15
