0.3810449493 	2.738842683e-07 	-7.388143067e-10 	2.594319192e-13 	2.729779153e-07 	-7.382395966e-11 	5.203717768e-10
0.3812213909 	3.26658706e-06 	-3.422568589e-08 	1.668843904e-11 	3.24253806e-06 	-1.197048009e-09 	6.18117876e-09
0.3813978397 	1.824769145e-05 	-4.442022062e-07 	2.403125726e-10 	1.798145768e-05 	-7.265070632e-09 	3.427765602e-08
0.381574295 	6.100361477e-05 	-2.752918851e-06 	1.535817598e-09 	5.945285481e-05 	-2.460079627e-08 	1.133336653e-07
0.3817507564 	0.0001514980266 	-1.105925225e-05 	6.205929419e-09 	0.0001454468368 	-6.016897733e-08 	2.772620957e-07
0.3819272234 	0.0003116364851 	-3.335035274e-05 	1.851842577e-08 	0.0002936668236 	-1.196873479e-07 	5.598105862e-07
0.3821036954 	0.0005629991826 	-8.182864054e-05 	4.429226676e-08 	0.000519298245 	-2.060469777e-07 	9.899267864e-07
0.3822801719 	0.0009233172543 	-0.0001712992139 	8.902076947e-08 	0.0008323346114 	-3.179862986e-07 	1.586661105e-06
0.3824566525 	0.001401903573 	-0.000315278695 	1.548943356e-07 	0.001235044827 	-4.494906676e-07 	2.354338704e-06
0.3826331365 	0.001995596391 	-0.0005209908131 	2.384333679e-07 	0.001720527369 	-5.905738451e-07 	3.27980336e-06
0.3828096235 	0.002687468276 	-0.0007858189792 	3.307639958e-07 	0.002273266058 	-7.295148594e-07 	4.333476928e-06
0.382986113 	0.003449593569 	-0.001097445925 	4.208120955e-07 	0.002871823675 	-8.556950306e-07 	5.474494106e-06
0.3831626043 	0.004248921086 	-0.001437618021 	4.993213744e-07 	0.003492747746 	-9.617429336e-07 	6.658147962e-06
0.3833390971 	0.005053634843 	-0.001787248099 	5.612111351e-07 	0.004114255052 	-1.04422181e-06 	7.842913627e-06
0.3835155909 	0.005837637655 	-0.002130352058 	6.055461043e-07 	0.004718643545 	-1.103036471e-06 	8.995046077e-06
0.383692085 	0.00658234844 	-0.002455760733 	6.341006366e-07 	0.005293189677 	-1.140258959e-06 	1.009029069e-05
0.3838685789 	0.007276380319 	-0.002756998944 	6.49786921e-07 	0.005829895527 	-1.15899183e-06 	1.111340121e-05
0.3840450723 	0.007914137466 	-0.003031254701 	6.555936531e-07 	0.006324632697 	-1.162558932e-06 	1.205650776e-05
0.3842215645 	0.008494166402 	-0.003278178721 	6.540846656e-07 	0.006776125872 	-1.154049985e-06 	1.291717924e-05
0.384398055 	0.009017708164 	-0.003498881747 	6.472664198e-07 	0.007185030525 	-1.136127755e-06 	1.369666516e-05
0.3845745433 	0.009487597899 	-0.003695224551 	6.366330033e-07 	0.00755320377 	-1.110990948e-06 	1.439850569e-05
0.384751029 	0.009907500389 	-0.003869366363 	6.232692237e-07 	0.007883175929 	-1.080412574e-06 	1.502752434e-05
0.3849275114 	0.0102814125 	-0.004023501338 	6.079550753e-07 	0.00817779084 	-1.04580551e-06 	1.558914224e-05
0.3851039901 	0.01061335717 	-0.004159717883 	5.912515147e-07 	0.00843997352 	-1.008290759e-06 	1.60889353e-05
0.3852804646 	0.01090720638 	-0.004279932537 	5.735644777e-07 	0.008672588008 	-9.687580834e-07 	1.653236316e-05
0.3854569344 	0.01116658759 	-0.004385866273 	5.551902164e-07 	0.008878355787 	-9.279159232e-07 	1.692461374e-05
0.385633399 	0.01139484107 	-0.004479043672 	5.363466267e-07 	0.009059815659 	-8.863314615e-07 	1.727052669e-05
0.3858098578 	0.01159501566 	-0.004560800067 	5.171929462e-07 	0.00921929365 	-8.444575941e-07 	1.757453607e-05
0.3859863103 	0.01176984973 	-0.004632317284 	4.978518073e-07 	0.009358958118 	-8.026668233e-07 	1.784077536e-05
0.3861627561 	0.01192171583 	-0.004694208459 	4.783243145e-07 	0.009480860203 	-7.613066984e-07 	1.807315462e-05
0.3863391946 	0.01207037296 	-0.004756656896 	4.577919289e-07 	0.009599604534 	-7.171376948e-07 	1.829951431e-05
0.3866133237 	0.01222279889 	-0.004821226459 	4.291622205e-07 	0.009721923835 	-6.583173253e-07 	1.85326889e-05
0.3868925839 	0.01235431996 	-0.004876833653 	3.994239339e-07 	0.00982884413 	-5.977680233e-07 	1.87365087e-05
0.3871770685 	0.01245351848 	-0.004920959217 	3.70182496e-07 	0.009909759538 	-5.388293673e-07 	1.889075596e-05
0.3874668729 	0.01252352272 	-0.004954207476 	3.414192266e-07 	0.009967472122 	-4.819954387e-07 	1.900077218e-05
0.3877620936 	0.01256722833 	-0.004977671137 	3.132329036e-07 	0.01000439322 	-4.276192449e-07 	1.907115406e-05
0.3880628288 	0.01258724124 	-0.004992281154 	2.857133313e-07 	0.01002260349 	-3.759771665e-07 	1.91058679e-05
0.3883691783 	0.0125858705 	-0.004998863153 	2.589522414e-07 	0.01002398086 	-3.272928559e-07 	1.910849354e-05
0.3886812435 	0.01256517576 	-0.004998145704 	2.330393778e-07 	0.01001019747 	-2.817379619e-07 	1.908221856e-05
0.3889991275 	0.01252699467 	-0.004990773053 	2.080608365e-07 	0.00998274561 	-2.394357067e-07 	1.902988769e-05
0.3893229347 	0.01247296924 	-0.004977315472 	1.840948672e-07 	0.009942955302 	-2.004435388e-07 	1.895403631e-05
0.3896527714 	0.01240456874 	-0.004958278619 	1.612484884e-07 	0.009892009396 	-1.6491082e-07 	1.885691925e-05
0.3899887454 	0.01232309219 	-0.004934117548 	1.39553687e-07 	0.009830991865 	-1.331336337e-07 	1.874060288e-05
0.3903309662 	0.01222971541 	-0.004905302441 	1.225738719e-07 	0.009760854811 	-1.032109152e-07 	1.860690216e-05
0.3906795449 	0.01212583318 	-0.004873139946 	1.088953774e-07 	0.009681991442 	-7.442963668e-08 	1.845656666e-05
0.3910345942 	0.01201225133 	-0.004837203892 	7.226337376e-08 	0.009594866845 	-5.326769267e-08 	1.829048296e-05
0.3913962286 	0.01188806147 	-0.004792267032 	3.650123373e-08 	0.009500854157 	-3.391246847e-08 	1.811126865e-05
0.391764564 	0.01175343928 	-0.004738648096 	2.172042403e-08 	0.009399705431 	-1.27260255e-08 	1.791845107e-05
0.3921397182 	0.01160940419 	-0.004680697935 	1.069127924e-08 	0.009290284323 	4.18011078e-09 	1.770986402e-05
0.3925218105 	0.01145577384 	-0.004618755078 	2.057121248e-09 	0.009172679982 	1.602735146e-08 	1.748567746e-05
0.3929109619 	0.01129232944 	-0.004552791603 	-3.819090193e-09 	0.009046928626 	2.252359252e-08 	1.724596042e-05
0.3933072949 	0.01111891579 	-0.004482739076 	-6.475615635e-09 	0.008912860135 	2.275980333e-08 	1.699038862e-05
0.3937109339 	0.01093533966 	-0.004408511691 	-5.427270793e-09 	0.008770260546 	1.574567987e-08 	1.671855417e-05
0.3941220045 	0.01074134671 	-0.004330003352 	-1.463376453e-10 	0.008618879331 	3.838836101e-10 	1.64299795e-05
0.394129973 	0.01073744567 	-0.004328422876 	7.297369073e-08 	0.008615819861 	-1.415715108e-07 	1.64241473e-05
0.3945400737 	0.0105364232 	-0.004246975012 	-8.41567996e-09 	0.008458154943 	2.153998583e-08 	1.612359414e-05
0.3949668698 	0.01031873632 	-0.004158695554 	-2.210773772e-08 	0.008286639483 	5.370334033e-08 	1.579663801e-05
0.3954119652 	0.01008641507 	-0.004064414809 	-4.215129937e-08 	0.008102841818 	9.870412987e-08 	1.544626857e-05
0.395865298 	0.009840447438 	-0.003964528657 	-6.887072353e-08 	0.00790748741 	1.570040469e-07 	1.507386878e-05
0.3963270188 	0.009582264788 	-0.003859654783 	-1.023743103e-07 	0.007701835984 	2.287148494e-07 	1.468184e-05
0.3967972809 	0.009312229887 	-0.003749971189 	-1.427048724e-07 	0.007486292329 	3.137707235e-07 	1.427095389e-05
0.3972762401 	0.009030506656 	-0.003635584175 	-1.901904072e-07 	0.00726113715 	4.126769557e-07 	1.384174554e-05
0.3977640554 	0.008737180191 	-0.00351656224 	-2.449930301e-07 	0.007026566686 	5.256470223e-07 	1.339458904e-05
0.3982608883 	0.008432500462 	-0.003393034258 	-3.072195427e-07 	0.006782889464 	6.528268789e-07 	1.293007252e-05
0.3987669034 	0.008116805352 	-0.003265158427 	-3.771351804e-07 	0.006530464588 	7.94711538e-07 	1.244888055e-05
0.399282268 	0.00779046824 	-0.003133101748 	-4.548984839e-07 	0.006269660638 	9.516095153e-07 	1.195171574e-05
0.3998071528 	0.007453932293 	-0.002997054702 	-5.405904398e-07 	0.006000885563 	1.123682362e-06 	1.143935574e-05
0.4003417311 	0.007107736925 	-0.00285724348 	-6.341343875e-07 	0.005724614528 	1.31076268e-06 	1.091270636e-05
0.4008861797 	0.006752559795 	-0.002713948619 	-7.352023191e-07 	0.005441432104 	1.512146951e-06 	1.037288196e-05
0.4014406782 	0.006389276863 	-0.00256753073 	-8.43071936e-07 	0.005152089679 	1.726285604e-06 	9.821314878e-06
0.4020054097 	0.006019045639 	-0.002418465334 	-9.564313991e-07 	0.004857582232 	1.950365842e-06 	9.259901829e-06
0.4025805604 	0.005643412638 	-0.002267387062 	-1.073139535e-06 	0.004559244828 	2.179803614e-06 	8.691187819e-06
0.4031663199 	0.005264439399 	-0.002115140582 	-1.189974205e-06 	0.004258862966 	2.407718034e-06 	8.118576504e-06
0.4037628812 	0.004884830467 	-0.001962831018 	-1.302439361e-06 	0.003958780817 	2.624536793e-06 	7.546536523e-06
0.4043704407 	0.004508026359 	-0.001811859531 	-1.404767581e-06 	0.003661977685 	2.81801273e-06 	6.980747262e-06
0.4049891984 	0.004138188694 	-0.001663917506 	-1.49035911e-06 	0.003372056687 	2.974102533e-06 	6.428077261e-06
0.4056193577 	0.003779966978 	-0.001520885978 	-1.553362652e-06 	0.003092990014 	3.081777008e-06 	5.896098619e-06
0.4062611258 	0.003438057683 	-0.001384506392 	-1.592744019e-06 	0.002827930165 	3.149526894e-06 	5.390820877e-06
0.4069147136 	0.003115505511 	-0.001254902063 	-1.653132003e-06 	0.00257780421 	3.201040763e-06 	4.914011288e-06
0.4075803356 	0.002808922247 	-0.001122191832 	-1.911212002e-06 	0.002341577157 	3.25457743e-06 	4.463696869e-06
0.4082582104 	0.002512254515 	-0.0009805976652 	-1.919040172e-06 	0.002115075466 	3.057166032e-06 	4.031921693e-06
0.4089563963 	0.002224438904 	-0.0008396949307 	-1.751411217e-06 	0.001894267812 	2.842975062e-06 	3.611000933e-06
0.4096771504 	0.001948430565 	-0.0007043687214 	-1.620758827e-06 	0.001681937463 	2.560647739e-06 	3.206240276e-06
0.4104111267 	0.001689608649 	-0.0005750310944 	-1.455674906e-06 	0.001484235626 	2.238630709e-06 	2.829365626e-06
0.411158564 	0.001454036395 	-0.0004550060526 	-1.259441296e-06 	0.001305739933 	1.885072864e-06 	2.489103224e-06
0.411919705 	0.001247053696 	-0.0003472650487 	-1.039211492e-06 	0.001150361867 	1.509819477e-06 	2.192909444e-06
0.4126947969 	0.001073261797 	-0.0002544130306 	-8.112925458e-07 	0.001021606288 	1.134367683e-06 	1.947465527e-06
0.4134840914 	0.0009353648246 	-0.000177927004 	-5.972404109e-07 	0.0009215913049 	7.864950633e-07 	1.75680917e-06
0.4142878445 	0.0008331132787 	-0.0001176496747 	-4.157786487e-07 	0.000850253635 	4.93791062e-07 	1.620819744e-06
0.4151063168 	0.0007630878386 	-7.18931915e-05 	-2.755216681e-07 	0.0008050628419 	2.710905666e-07 	1.534673532e-06
0.4159397736 	0.0007199651196 	-3.805749482e-05 	-1.749736836e-07 	0.0007820694352 	1.159128355e-07 	1.490841708e-06
0.4167884849 	0.0006966776187 	-1.19246468e-05 	-1.04311382e-07 	0.0007769077721 	1.156513305e-08 	1.481002144e-06
0.4180905889 	0.0006918832506 	9.589660034e-06 	-5.013679202e-08 	0.0007901677223 	-4.129371243e-08 	1.506279294e-06
0.419406252 	0.0007039456733 	2.549506955e-05 	-2.043044959e-08 	0.0008186805728 	-4.618576837e-08 	1.560632712e-06
0.4207356172 	0.0007250924283 	3.602479906e-05 	-6.477808113e-09 	0.0008537627887 	-2.821411146e-08 	1.627509166e-06
0.4220788289 	0.000750595993 	4.358628516e-05 	-2.209735837e-10 	0.0008918870067 	-1.625044907e-09 	1.700184522e-06
0.4221548793 	0.0007521164588 	4.391249214e-05 	1.412063086e-08 	0.0008940688466 	8.98701806e-08 	1.704343715e-06
0.4234639132 	0.0007783091843 	4.955022383e-05 	-3.160928876e-09 	0.0009316663274 	-2.838593285e-08 	1.776014963e-06
0.4248663094 	0.0008070631286 	5.470514464e-05 	-4.505891044e-09 	0.0009722081725 	-6.032642907e-08 	1.853298988e-06
0.4262832195 	0.0008362434299 	5.945185657e-05 	-5.054648434e-09 	0.001013098492 	-9.332401058e-08 	1.931247303e-06
0.4277147966 	0.0008655809255 	6.404157077e-05 	-5.379766196e-09 	0.001054253356 	-1.27093502e-07 	2.009699912e-06
0.4291611958 	0.0008949426694 	6.861465882e-05 	-5.710431993e-09 	0.001095594154 	-1.615870491e-07 	2.088506961e-06
0.4306225742 	0.0009242649424 	7.32483533e-05 	-6.118020282e-09 	0.001137090089 	-1.968170368e-07 	2.167609747e-06
0.4320990907 	0.0009535105608 	7.797956428e-05 	-6.607361892e-09 	0.001178746665 	-2.328088197e-07 	2.24701876e-06
0.4335909064 	0.0009826780207 	8.283834727e-05 	-7.155595563e-09 	0.001220533838 	-2.695770055e-07 	2.326676725e-06
0.4350981844 	0.001011875735 	8.783626018e-05 	-7.753600796e-09 	0.00126261961 	-3.072991753e-07 	2.406903903e-06
0.4366434922 	0.001041243389 	9.299796773e-05 	-8.420528101e-09 	0.001305294361 	-3.468061462e-07 	2.488253839e-06
0.4382166345 	0.001070731021 	9.833518268e-05 	-8.662938148e-09 	0.001348418212 	-3.685822299e-07 	2.570459885e-06
0.4398059559 	0.001100170667 	0.0001038042744 	-7.661849085e-09 	0.001391701794 	-3.360702852e-07 	2.652970423e-06
0.4414116291 	0.001129480835 	0.0001093808824 	-6.695563529e-09 	0.001435071609 	-3.027038463e-07 	2.735645344e-06
0.4430338293 	0.001158644138 	0.0001150587833 	-5.742628909e-09 	0.001478512367 	-2.684777215e-07 	2.818455502e-06
0.4446727339 	0.001187637146 	0.0001208269211 	-4.79880092e-09 	0.001522008882 	-2.333833931e-07 	2.901371951e-06
0.4463285227 	0.001216444477 	0.0001266863691 	-3.86875908e-09 	0.001565515366 	-1.974111112e-07 	2.9843074e-06
0.4480013782 	0.00124511948 	0.0001326370065 	-2.965486574e-09 	0.001609085845 	-1.605681581e-07 	3.067364844e-06
0.4497078613 	0.001273758187 	0.0001386879349 	-2.098812247e-09 	0.001652949736 	-1.223477455e-07 	3.150981611e-06
0.4514512468 	0.001302338928 	0.0001448638223 	-1.292011132e-09 	0.001697048605 	-8.265417462e-08 	3.235046311e-06
0.4532124669 	0.001330701172 	0.0001511306288 	-5.844660454e-10 	0.00174105923 	-4.207858663e-08 	3.318942796e-06
0.454991715 	0.001358724965 	0.0001574508138 	-7.501976806e-12 	0.001784852917 	-6.285606271e-10 	3.402425735e-06
0.4550186889 	0.001359139674 	0.0001575464499 	3.775517823e-09 	0.001785506746 	2.455545483e-08 	3.403672115e-06
0.4567876948 	0.001386365964 	0.0001638258996 	-4.658632117e-10 	0.001828429518 	-4.127281441e-08 	3.485494847e-06
0.4586020882 	0.001413577864 	0.0001702567278 	-7.593433183e-10 	0.001871794948 	-8.404020722e-08 	3.56816141e-06
0.4604351201 	0.001440351181 	0.0001767689184 	-8.531274124e-10 	0.00191493181 	-1.277488384e-07 	3.650392257e-06
0.462291103 	0.00146673181 	0.0001833548686 	-7.441291876e-10 	0.001958130869 	-1.726900617e-07 	3.732741671e-06
0.4641986841 	0.00149270304 	0.0001900789109 	-4.481749136e-10 	0.002001639639 	-2.199821783e-07 	3.81568148e-06
0.4661257233 	0.001518068396 	0.0001969635895 	-5.977808263e-12 	0.00204522911 	-2.689516834e-07 	3.898775125e-06
0.4680724357 	0.001542594234 	0.0002039636184 	4.975361899e-10 	0.002088856915 	-3.200607063e-07 	3.981941848e-06
0.4700390397 	0.001566117985 	0.0002111269503 	9.370494389e-10 	0.002132717861 	-3.739510965e-07 	4.065553001e-06
0.4720257568 	0.001588485164 	0.0002185156653 	1.141390645e-09 	0.002176966812 	-4.314335243e-07 	4.149903801e-06
0.4740328119 	0.0016095559 	0.0002261924673 	8.876341207e-10 	0.002221888066 	-4.935251168e-07 	4.235536195e-06
0.4760774571 	0.001629170682 	0.0002342518778 	-8.616942984e-11 	0.002267950307 	-4.602226815e-07 	4.32334363e-06
0.478163013 	0.001647090133 	0.0002428304257 	-1.430340091e-09 	0.002315341579 	-4.244300573e-07 	4.413684566e-06
0.4802697826 	0.001663009547 	0.000251982498 	-2.97010919e-09 	0.002364005105 	-3.869544856e-07 	4.506450771e-06
0.4823980057 	0.001676652736 	0.000261754057 	-4.482528619e-09 	0.002414067003 	-3.468433894e-07 	4.601882664e-06
0.4845479263 	0.001687831179 	0.0002722539206 	-5.717611304e-09 	0.002465694413 	-3.031349498e-07 	4.700298856e-06
0.4867197918 	0.001696427471 	0.0002835723765 	-6.430427946e-09 	0.002519066724 	-2.549264033e-07 	4.802041315e-06
0.488928055 	0.001702342658 	0.0002958111067 	-6.389663087e-09 	0.002574501465 	-2.008168642e-07 	4.907715339e-06
0.4911816255 	0.001705534793 	0.0003091059818 	-5.381469755e-09 	0.002631942938 	-1.397093538e-07 	5.01721475e-06
0.4934580691 	0.00170603541 	0.0003234634642 	-3.264108983e-09 	0.00269094378 	-7.212548805e-08 	5.129686753e-06
0.4957035467 	0.001703956033 	0.0003384871502 	1.42739265e-08 	0.002749793017 	5.05553262e-08 	5.241869756e-06
0.4957576181 	0.001703906583 	0.0003388489622 	-9.049247349e-11 	0.002751210751 	-1.757232829e-09 	5.244572351e-06
0.4980792332 	0.001699158683 	0.0003552852767 	-4.490592933e-09 	0.002812702181 	-7.963170758e-08 	5.361792108e-06
0.5004245514 	0.001691965201 	0.0003726443791 	-9.814025153e-09 	0.002875243273 	-1.625172811e-07 	5.481012811e-06
0.5028227957 	0.001682674426 	0.0003928670774 	-2.818254256e-08 	0.002937759653 	-2.489447081e-07 	5.600186408e-06
0.5052529341 	0.001672547525 	0.000418788817 	-5.766677321e-08 	0.002993106924 	-2.720499168e-07 	5.705693688e-06
0.5077077682 	0.00166830546 	0.0004444800587 	-6.010701975e-08 	0.003020250242 	-1.619026239e-07 	5.757436396e-06
0.5101875913 	0.001670223039 	0.000467373078 	-5.638665812e-08 	0.003023209214 	-8.780748129e-08 	5.763077019e-06
0.5126927018 	0.001673066772 	0.0004886811679 	-4.03764761e-08 	0.003023135894 	-1.073714872e-07 	5.762937251e-06
0.5152453314 	0.001676074809 	0.000505545925 	6.722674596e-10 	0.003024035974 	-1.409610785e-07 	5.764653054e-06
0.5178375627 	0.001678738548 	0.0005182307099 	4.073461433e-08 	0.003026055627 	-1.72401641e-07 	5.768503074e-06
0.5204561288 	0.001680961432 	0.0005279705894 	7.399793501e-08 	0.003028598932 	-1.973978837e-07 	5.773351319e-06
0.5231013502 	0.00168273383 	0.0005357122302 	8.739310958e-08 	0.003031225023 	-1.858164801e-07 	5.77835738e-06
0.5257735529 	0.001684048545 	0.0005420578589 	8.916645249e-08 	0.003033734241 	-1.64964327e-07 	5.783140647e-06
0.5285003312 	0.00168494227 	0.0005474946281 	8.512920633e-08 	0.003035976264 	-1.431446936e-07 	5.787414565e-06
0.5312618722 	0.001685489198 	0.0005523850164 	7.773539225e-08 	0.003037830733 	-1.218806445e-07 	5.790949699e-06
0.5340515049 	0.001685736042 	0.0005568476759 	6.844617122e-08 	0.003039343894 	-1.017681162e-07 	5.793834204e-06
0.53686958 	0.001685742271 	0.0005610152768 	5.81034914e-08 	0.003040551402 	-8.29213391e-08 	5.796136049e-06
0.5397256397 	0.001685544465 	0.0005649493234 	4.714129941e-08 	0.003041533969 	-6.516444967e-08 	5.798009095e-06
0.5426344385 	0.001685197077 	0.000568764245 	3.578885803e-08 	0.003042300146 	-4.825989014e-08 	5.799469643e-06
0.5455728418 	0.001684743869 	0.0005724988768 	2.437531171e-08 	0.00304288404 	-3.225744446e-08 	5.800582705e-06
0.5485412272 	0.0016842156 	0.0005761567126 	1.3017327e-08 	0.003043339234 	-1.698776897e-08 	5.801450432e-06
0.5515410631 	0.001683615375 	0.0005797177897 	1.784692451e-09 	0.003043741917 	-2.3055295e-09 	5.802218058e-06
0.5520281168 	0.001683512017 	0.000580279751 	3.978843214e-10 	0.003043796599 	-1.126595129e-07 	5.802322297e-06
0.5546006518 	0.001682965886 	0.0005832461876 	9.348851212e-09 	0.003044077715 	-1.214606746e-08 	5.802858183e-06
0.5576913108 	0.001682302933 	0.0005867980667 	2.022131618e-08 	0.003044325517 	-2.612069021e-08 	5.803330561e-06
0.5608136116 	0.001681630731 	0.0005903319666 	3.081945258e-08 	0.003044533998 	-3.967025416e-08 	5.803727984e-06
0.5639687067 	0.001680937792 	0.0005938216187 	4.112953605e-08 	0.003044747761 	-5.284587291e-08 	5.804135477e-06
0.567184494 	0.001680235433 	0.0005973178592 	5.125908557e-08 	0.003044940421 	-6.581873104e-08 	5.80450274e-06
0.5704332106 	0.001679551209 	0.000600873552 	6.103922188e-08 	0.003045062236 	-7.842884528e-08 	5.804734954e-06
0.5737152938 	0.001678871032 	0.0006044231313 	7.047509281e-08 	0.003045166182 	-9.069462236e-08 	5.804933103e-06
0.5770372296 	0.001678185631 	0.000607961321 	7.959286767e-08 	0.003045263553 	-1.026596337e-07 	5.805118719e-06
0.5804142413 	0.001677506352 	0.0006115328792 	8.843162084e-08 	0.003045316293 	-1.143757459e-07 	5.805219257e-06
0.5838259791 	0.001676849914 	0.000615165611 	9.688924798e-08 	0.0030452873 	-1.257478936e-07 	5.805163989e-06
0.5872729134 	0.001676192631 	0.000618790945 	1.049800212e-07 	0.003045231641 	-1.367803072e-07 	5.805057886e-06
0.5907705878 	0.001675535133 	0.0006224318285 	1.127592132e-07 	0.003045128692 	-1.475336319e-07 	5.804861636e-06
0.5943140224 	0.001674895174 	0.0006261349234 	1.201721337e-07 	0.003044926683 	-1.57961801e-07 	5.804476551e-06
0.5978940924 	0.001674266707 	0.0006298727656 	1.116524549e-07 	0.00304463742 	-1.475023032e-07 	5.803925136e-06
0.6015149511 	0.001673634322 	0.0006336156033 	1.030394555e-07 	0.003044283592 	-1.368476384e-07 	5.803250642e-06
0.6051922863 	0.001673009017 	0.0006374027906 	9.470443622e-08 	0.003043823219 	-1.264709052e-07 	5.802373043e-06
0.6089077541 	0.001672405605 	0.0006412616802 	8.672302322e-08 	0.0030432148 	-1.164993598e-07 	5.801213226e-06
0.612661888 	0.001671797506 	0.0006451259314 	7.909454775e-08 	0.003042512354 	-1.069060884e-07 	5.79987417e-06
0.6164727598 	0.001671193328 	0.0006490276419 	7.176013489e-08 	0.003041680058 	-9.76004435e-08 	5.798287582e-06
0.6203260974 	0.001670614139 	0.0006530116335 	6.477803732e-08 	0.003040660199 	-8.868731146e-08 	5.796343448e-06
0.6242196901 	0.001670035303 	0.0006570146439 	5.815591809e-08 	0.003039503699 	-8.016170593e-08 	5.794138836e-06
0.6281668391 	0.001669463526 	0.0006610568181 	5.184947241e-08 	0.003038184176 	-7.195922959e-08 	5.791623459e-06
0.6321607674 	0.001668919933 	0.0006651825332 	4.589170944e-08 	0.003036645199 	-6.414262166e-08 	5.788689741e-06
0.6361966073 	0.001668385382 	0.0006693417565 	4.029286115e-08 	0.003034926523 	-5.672247742e-08 	5.785413467e-06
0.6402856089 	0.001667867069 	0.0006735481042 	3.501671274e-08 	0.003033007361 	-4.964916618e-08 	5.78175501e-06
0.6444231319 	0.001667386714 	0.000677843087 	3.00877683e-08 	0.003030834547 	-4.297187691e-08 	5.777613024e-06
0.6486042948 	0.001666928099 	0.0006821822701 	2.550986e-08 	0.003028445577 	-3.669863321e-08 	5.773058982e-06
0.6528401147 	0.001666503786 	0.0006865834593 	2.125105632e-08 	0.003025816197 	-3.078971973e-08 	5.768046654e-06
0.6571245484 	0.001666135753 	0.0006910819194 	1.733494995e-08 	0.003022901019 	-2.529351366e-08 	5.762489513e-06
0.6614544254 	0.001665810612 	0.0006956360275 	1.375427176e-08 	0.003019739999 	-2.020631377e-08 	5.756463732e-06
0.6658416149 	0.001665551595 	0.0007002771711 	1.048223906e-08 	0.003016297055 	-1.54992841e-08 	5.749900523e-06
0.6702766106 	0.001665376528 	0.0007050233227 	7.541056446e-09 	0.003012549786 	-1.121921934e-08 	5.742757187e-06
0.6747608143 	0.001665283532 	0.0007098479357 	4.908917903e-09 	0.003008529435 	-7.344344837e-09 	5.735093281e-06
0.6793018053 	0.001665306169 	0.0007147800257 	2.577121303e-09 	0.003004205226 	-3.874607209e-09 	5.726850137e-06
0.6838407313 	0.001665450971 	0.0007197688767 	5.711011261e-10 	0.002999634734 	-8.621612941e-10 	5.718137508e-06
0.68533741 	0.00166554347 	0.000721435402 	3.410091955e-09 	0.002998050347 	-3.549506655e-07 	5.715117226e-06
0.6883321244 	0.001665728806 	0.0007247695639 	1.124705688e-09 	0.002994879147 	-1.709582868e-09 	5.709072039e-06
0.6927764795 	0.001666169767 	0.000729803043 	2.525657798e-09 	0.002989933254 	-3.845032409e-09 	5.699643791e-06
0.6971701987 	0.00166677424 	0.0007348494539 	3.66174971e-09 	0.002984848453 	-5.576046143e-09 	5.689950748e-06
0.7015195371 	0.001667567201 	0.0007399303149 	4.56543377e-09 	0.002979632048 	-6.944134722e-09 	5.68000683e-06
0.7058210368 	0.001668572118 	0.0007450667155 	5.24281039e-09 	0.002974288874 	-7.953592743e-09 	5.669821255e-06
0.7100738481 	0.001669791094 	0.0007502391032 	5.72319002e-09 	0.002968877281 	-8.645085806e-09 	5.659505254e-06
0.7142840845 	0.001671257688 	0.0007554766375 	6.026701753e-09 	0.002963397186 	-9.047826566e-09 	5.64905867e-06
0.7184469364 	0.001672991531 	0.0007607902028 	6.159135034e-09 	0.002957871568 	-9.172351261e-09 	5.638525306e-06
0.7225632872 	0.001675002536 	0.0007661693574 	6.145735184e-09 	0.002952354466 	-9.059214862e-09 	5.628008178e-06
0.7266374089 	0.001677327449 	0.000771644406 	5.996958454e-09 	0.002946848699 	-8.729557214e-09 	5.617512654e-06
0.730665764 	0.001679984066 	0.0007772204434 	5.719317643e-09 	0.002941390306 	-8.201092648e-09 	5.60710744e-06
0.7346493111 	0.001682988811 	0.0007828941911 	5.332137949e-09 	0.002936030385 	-7.511172382e-09 	5.596889942e-06
0.7385913566 	0.001686379627 	0.0007886937731 	4.840996234e-09 	0.002930778799 	-6.679482547e-09 	5.586878959e-06
0.7424893035 	0.001690176196 	0.0007946248965 	4.250213502e-09 	0.002925675848 	-5.726006344e-09 	5.577151316e-06
0.74634377 	0.001694396752 	0.0008006855398 	3.574057814e-09 	0.002920776704 	-4.685297437e-09 	5.567812186e-06
0.7501578474 	0.001699080327 	0.000806901252 	2.816447652e-09 	0.002916098998 	-3.579209125e-09 	5.558895177e-06
0.7539294053 	0.001704251114 	0.0008132824307 	1.977613062e-09 	0.002911680698 	-2.426537837e-09 	5.55047267e-06
0.7576589941 	0.001709925576 	0.0008198249663 	1.067756795e-09 	0.002907585024 	-1.259374276e-09 	5.542665177e-06
0.7613487646 	0.001716142865 	0.0008265510816 	9.072527652e-11 	0.002903838194 	-1.023621608e-10 	5.535522678e-06
0.7616645071 	0.001716730442 	0.0008271503556 	1.128940533e-08 	0.002903547098 	-6.539123515e-08 	5.534967769e-06
0.7649978035 	0.001722933168 	0.0008334770153 	9.513664705e-10 	0.002900472968 	-1.028670739e-09 	5.529107621e-06
0.7686063318 	0.001730310433 	0.0008405976183 	2.056354508e-09 	0.002897558435 	-2.104301266e-09 	5.523551712e-06
0.7721756267 	0.001738311288 	0.0008479302863 	3.220553399e-09 	0.002895131023 	-3.098436013e-09 	5.51892439e-06
0.7757060681 	0.001746970048 	0.0008554948755 	4.449909669e-09 	0.002893221013 	-3.995040624e-09 	5.515283379e-06
0.779197407 	0.001756302522 	0.0008632905057 	5.742485e-09 	0.002891892863 	-4.770126439e-09 	5.512751557e-06
0.7826502185 	0.001766337863 	0.0008713270793 	7.094826798e-09 	0.002891196646 	-5.399472028e-09 	5.511424374e-06
0.7860658461 	0.001777112573 	0.0008796245834 	8.510882136e-09 	0.002891164794 	-5.865531724e-09 	5.511363656e-06
0.7894437099 	0.00178864962 	0.0008881919428 	9.994143368e-09 	0.002891845501 	-6.150755267e-09 	5.512661272e-06
0.7927842666 	0.001800967222 	0.0008970313553 	1.154308631e-08 	0.002893301013 	-6.235345086e-09 	5.515435882e-06
0.7960883722 	0.001814099304 	0.0009061592366 	1.315708689e-08 	0.002895569338 	-6.101656295e-09 	5.519759941e-06
0.7993563864 	0.001828075571 	0.0009155918184 	1.484298923e-08 	0.002898684916 	-5.737002357e-09 	5.525699097e-06
0.8025883531 	0.001842911818 	0.0009253331121 	1.660135425e-08 	0.0029027026 	-5.127389835e-09 	5.533357919e-06
0.8057846993 	0.001858630038 	0.0009353910598 	1.843089801e-08 	0.002907671172 	-4.260313276e-09 	5.542829399e-06
0.8089462876 	0.00187526047 	0.000945781905 	2.033258945e-08 	0.002913621174 	-3.125475278e-09 	5.554171756e-06
0.812073146 	0.001892824533 	0.0009565173339 	2.231115812e-08 	0.002920586037 	-1.715387951e-09 	5.567448721e-06
0.8151655736 	0.001911333767 	0.0009676009609 	2.436504652e-08 	0.002928612419 	-2.440062376e-11 	5.582749237e-06
0.8182239713 	0.001930807004 	0.0009790415083 	2.649113434e-08 	0.002937735609 	1.950921293e-09 	5.600140572e-06
0.8212490869 	0.001951266632 	0.0009908521454 	2.868893545e-08 	0.002947976345 	4.212372562e-09 	5.61966226e-06
0.8242409391 	0.001972724567 	0.001003040289 	3.095905768e-08 	0.00295935922 	6.758760919e-09 	5.641361184e-06
0.8271998887 	0.001995185396 	0.001015608133 	3.329647768e-08 	0.002971914883 	9.584547829e-09 	5.665295769e-06
0.8301263136 	0.002018657785 	0.001028560707 	3.569431059e-08 	0.002985663781 	1.268129042e-08 	5.691504988e-06
0.8330208137 	0.002043151945 	0.001041905535 	3.814711635e-08 	0.003000612562 	1.603910237e-08 	5.720001521e-06
0.835883524 	0.002068667848 	0.001055645017 	4.065049974e-08 	0.003016768823 	1.964469623e-08 	5.750799844e-06
0.8387147803 	0.002095197569 	0.001069776744 	4.319424237e-08 	0.003034142781 	2.347827302e-08 	5.783919437e-06
0.8415149398 	0.002122733283 	0.001084298524 	4.576607394e-08 	0.003052736821 	2.75161807e-08 	5.819364845e-06
0.8442844673 	0.002151267872 	0.001099209518 	4.835302356e-08 	0.003072539311 	3.1732539e-08 	5.857113895e-06
0.8470236332 	0.002180785846 	0.001114505318 	5.09446528e-08 	0.003093534294 	3.609946565e-08 	5.897136168e-06
0.8497327213 	0.002211261233 	0.001130175799 	5.352466468e-08 	0.003115708194 	4.058054842e-08 	5.939405784e-06
0.8524120703 	0.002242665418 	0.001146209433 	5.607435097e-08 	0.003139040134 	4.513491677e-08 	5.983882947e-06
0.8550620396 	0.002274968642 	0.001162594498 	5.857290065e-08 	0.003163497402 	4.971831916e-08 	6.030505296e-06
0.8576830073 	0.002308135992 	0.001179317374 	6.100200919e-08 	0.003189037754 	5.428638741e-08 	6.079192307e-06
0.8602752069 	0.002342120864 	0.001196358687 	6.33402532e-08 	0.003215619865 	5.878765984e-08 	6.129865198e-06
0.8628389602 	0.002376871889 	0.001213696593 	6.556270309e-08 	0.003243195557 	6.316563876e-08 	6.182432132e-06
0.8653745848 	0.002412333316 	0.001231307142 	6.764287365e-08 	0.003271709691 	6.736105825e-08 	6.236787995e-06
0.8678824306 	0.002448446424 	0.001249165009 	6.95533394e-08 	0.003301096782 	7.131439908e-08 	6.292807959e-06
0.8703627885 	0.002485145131 	0.001267241854 	7.126837144e-08 	0.003331284703 	7.496933195e-08 	6.350354526e-06
0.8728159327 	0.002522352113 	0.001285504049 	7.275734744e-08 	0.003362203333 	7.826729016e-08 	6.409294029e-06
0.8752421656 	0.002559984952 	0.001303915664 	7.398552444e-08 	0.003393776259 	8.115735549e-08 	6.469480801e-06
0.8776417855 	0.002597952474 	0.001322437241 	7.491273219e-08 	0.003425925639 	8.360406668e-08 	6.530766455e-06
0.8800151111 	0.002636153138 	0.001341025484 	7.549047401e-08 	0.003458572866 	8.560115452e-08 	6.593001142e-06
0.8823624151 	0.002674466845 	0.00135963081 	7.565821974e-08 	0.003491645894 	8.719004697e-08 	6.656047526e-06
0.8846839699 	0.0027127448 	0.00137819374 	7.533206555e-08 	0.003525092898 	8.847529067e-08 	6.719806813e-06
0.8869800602 	0.0027508052 	0.001396644589 	7.439959038e-08 	0.003558883259 	8.965157271e-08 	6.784220631e-06
0.889250967 	0.002788419597 	0.001414899667 	7.271840705e-08 	0.003593020784 	9.10096055e-08 	6.849296242e-06
0.8914969771 	0.002825306113 	0.001432859825 	7.012966815e-08 	0.003627548361 	9.289170342e-08 	6.915115401e-06
0.8937183629 	0.002861132235 	0.001450411831 	6.649903896e-08 	0.003662543624 	9.557312654e-08 	6.981826098e-06