6.380870453e-34 	0.0007969792693 	-3.255798588e-17 	-1.869828692e-24 	1.33005021e-30 	7.638574614e-38 	4.386888682e-45
0.0003225556171 	0.0007969701095 	-2.81307086e-06 	1.578376325e-10 	0.000807280743 	-7.455222856e-08 	1.538901468e-06
0.000645110925 	0.0007970929287 	-5.41007042e-06 	3.278446362e-10 	0.0008078950724 	-7.338377041e-08 	1.540072551e-06
0.0009676659232 	0.0007973583393 	-8.030725336e-06 	4.801078818e-10 	0.0008082071934 	-7.215807265e-08 	1.54066754e-06
0.001290220611 	0.0007976931742 	-1.067005693e-05 	6.274168991e-10 	0.0008086015717 	-7.092868946e-08 	1.541419335e-06
0.001612774989 	0.0007981473076 	-1.331740567e-05 	7.694045244e-10 	0.0008090695844 	-6.969449229e-08 	1.542311497e-06
0.001935329056 	0.0007987057584 	-1.597005776e-05 	9.059920466e-10 	0.0008096444155 	-6.846008605e-08 	1.543407285e-06
0.002257882812 	0.0007993701848 	-1.86270546e-05 	1.037119648e-09 	0.000810326121 	-6.722544112e-08 	1.544706805e-06
0.002580436257 	0.0008001412208 	-2.128811359e-05 	1.162746332e-09 	0.000811116106 	-6.599067415e-08 	1.546212736e-06
0.00290298939 	0.0008010198054 	-2.395325906e-05 	1.282842716e-09 	0.0008120154147 	-6.475582397e-08 	1.547927068e-06
0.003225542212 	0.0008020069036 	-2.66226717e-05 	1.397386777e-09 	0.0008130252946 	-6.352093651e-08 	1.54985218e-06
0.003548094721 	0.0008031036333 	-2.929661954e-05 	1.506361515e-09 	0.0008141470114 	-6.228604192e-08 	1.551990484e-06
0.003870646918 	0.0008043112378 	-3.197542289e-05 	1.609753626e-09 	0.0008153819067 	-6.105116421e-08 	1.554344538e-06
0.004193198803 	0.0008056310746 	-3.465943534e-05 	1.70755273e-09 	0.0008167314104 	-5.98163243e-08 	1.556917067e-06
0.004515750376 	0.0008070646039 	-3.734903281e-05 	1.799750916e-09 	0.0008181970436 	-5.858154167e-08 	1.559710971e-06
0.004838301637 	0.0008086133795 	-4.004460676e-05 	1.886342472e-09 	0.0008197804143 	-5.734683503e-08 	1.562729316e-06
0.005160852584 	0.0008102790401 	-4.274656003e-05 	1.967323715e-09 	0.0008214832113 	-5.611222266e-08 	1.56597532e-06
0.00548340322 	0.0008120632998 	-4.545530393e-05 	2.042692898e-09 	0.0008233071977 	-5.487772264e-08 	1.569452345e-06
0.005805953543 	0.0008139679387 	-4.817125636e-05 	2.112450156e-09 	0.0008252542019 	-5.364335285e-08 	1.573163876e-06
0.006128503553 	0.0008159947935 	-5.089484038e-05 	2.176597473e-09 	0.0008273261098 	-5.240913107e-08 	1.577113509e-06
0.006451053251 	0.0008181457474 	-5.362648314e-05 	2.235138661e-09 	0.0008295248543 	-5.117507484e-08 	1.581304927e-06
0.006773602636 	0.0008204227196 	-5.636661493e-05 	2.288079344e-09 	0.0008318524064 	-4.994120143e-08 	1.585741888e-06
0.00709615171 	0.0008228276552 	-5.911566842e-05 	2.335426938e-09 	0.0008343107642 	-4.870752772e-08 	1.590428201e-06
0.007418700471 	0.0008253625126 	-6.187407803e-05 	2.377190629e-09 	0.0008369019425 	-4.747407008e-08 	1.595367707e-06
0.00774124892 	0.0008280292515 	-6.464227979e-05 	2.413381291e-09 	0.0008396279617 	-4.624084428e-08 	1.600564257e-06
0.008063797057 	0.0008308298154 	-6.74207119e-05 	2.444011299e-09 	0.0008424908374 	-4.500786542e-08 	1.606021694e-06
0.008386344883 	0.0008337661101 	-7.02098169e-05 	2.469094063e-09 	0.0008454925681 	-4.377514796e-08 	1.611743827e-06
0.008708892398 	0.000836839975 	-7.301004715e-05 	2.488642994e-09 	0.0008486351031 	-4.254270538e-08 	1.617734372e-06
0.009031439602 	0.0008400531228 	-7.582185392e-05 	2.502668854e-09 	0.0008519202985 	-4.131054953e-08 	1.623996868e-06
0.009353986494 	0.0008434068552 	-7.864642479e-05 	2.511182852e-09 	0.0008553501147 	-4.007870024e-08 	1.630535051e-06
0.009676533077 	0.0008474070012 	-8.188377144e-05 	2.525550014e-09 	0.000859443017 	-3.884979925e-08 	1.63833726e-06
0.01017769553 	0.000852717428 	-8.595245674e-05 	2.508893094e-09 	0.0008648755444 	-3.693624147e-08 	1.648693167e-06
0.01068827656 	0.0008590447313 	-9.050383961e-05 	2.489247018e-09 	0.0008713443273 	-3.499228126e-08 	1.661024466e-06
0.01120845316 	0.0008659477224 	-9.517490005e-05 	2.455467481e-09 	0.0008783986224 	-3.301460128e-08 	1.674471913e-06
0.01173840565 	0.0008734440259 	-9.997132845e-05 	2.406904018e-09 	0.0008860573861 	-3.100204819e-08 	1.689071645e-06
0.01227831774 	0.0008815515973 	-0.0001048978188 	2.34289799e-09 	0.0008943391997 	-2.895338193e-08 	1.704859083e-06
0.01282837659 	0.0008902882608 	-0.0001099592169 	2.26278646e-09 	0.000903262411 	-2.686727196e-08 	1.721869204e-06
0.01338877288 	0.0008996716117 	-0.000115160427 	2.165897462e-09 	0.0009128451225 	-2.474229065e-08 	1.740136516e-06
0.01395970086 	0.0009097189602 	-0.0001205064108 	2.051547773e-09 	0.0009231051378 	-2.257690659e-08 	1.759694956e-06
0.01454135846 	0.0009204472847 	-0.000126002181 	1.919041181e-09 	0.0009340599217 	-2.036947866e-08 	1.780577819e-06
0.0151339473 	0.0009318731922 	-0.0001316527934 	1.76766693e-09 	0.0009457265676 	-1.811825102e-08 	1.802817689e-06
0.0157376728 	0.0009440128879 	-0.0001374633379 	1.596698193e-09 	0.0009581217698 	-1.582134916e-08 	1.826446389e-06
0.01635274424 	0.0009568821525 	-0.0001434389307 	1.405390524e-09 	0.0009712618015 	-1.347677711e-08 	1.851494942e-06
0.01697937483 	0.0009704963262 	-0.0001495847065 	1.192980311e-09 	0.0009851624995 	-1.108241611e-08 	1.877993536e-06
0.01761778179 	0.0009848702988 	-0.0001559058117 	9.586832789e-10 	0.0009998392541 	-8.636024654e-09 	1.905971509e-06
0.01826818643 	0.001000018504 	-0.0001624073993 	7.01693088e-10 	0.00101530701 	-6.135240304e-09 	1.935457352e-06
0.0189308142 	0.001015954916 	-0.0001690946143 	4.21180019e-10 	0.001031580268 	-3.577582993e-09 	1.966478703e-06
0.0196058948 	0.001032693063 	-0.0001759729765 	1.162907763e-10 	0.001048673062 	-9.604600407e-10 	1.999062319e-06
0.01985315174 	0.001039006988 	-0.0001785175774 	-1.408701826e-08 	0.001055121153 	-2.968671246e-07 	2.011354173e-06
0.02029366225 	0.001050256293 	-0.0001830511913 	2.14968129e-10 	0.001066609518 	-1.733402175e-09 	2.033254189e-06
0.02099588292 	0.001068675525 	-0.0001903410275 	5.748452001e-10 	0.001085421489 	-4.513708313e-09 	2.069115036e-06
0.0217124055 	0.001087962373 	-0.000197847777 	9.6405708e-10 	0.001105121014 	-7.376609547e-09 	2.106667806e-06
0.02244239383 	0.001108112742 	-0.0002055698401 	1.382788967e-09 	0.001125704158 	-1.031807567e-08 	2.145904999e-06
0.02318610096 	0.001129131115 	-0.0002135091787 	1.832259387e-09 	0.001147175854 	-1.334240024e-08 	2.186836018e-06
0.0239437847 	0.001151028791 	-0.000221671192 	2.313769022e-09 	0.001169547974 	-1.645408649e-08 	2.229483498e-06
0.02471570767 	0.001173816791 	-0.000230061029 	2.828677592e-09 	0.001192832109 	-1.965781667e-08 	2.27386953e-06
0.02550213747 	0.001197505877 	-0.0002386838553 	3.378409025e-09 	0.001217039608 	-2.2958448e-08 	2.320015752e-06
0.02630334669 	0.001222106594 	-0.0002475448498 	3.964453407e-09 	0.001242181609 	-2.636100761e-08 	2.367943394e-06
0.02711961307 	0.001247629297 	-0.0002566492107 	4.588369025e-09 	0.00126826907 	-2.987068733e-08 	2.417673344e-06
0.02795121954 	0.001274084173 	-0.0002660021612 	5.251784272e-09 	0.001295312795 	-3.349283801e-08 	2.469226202e-06
0.02879845437 	0.001301481277 	-0.0002756089556 	5.956399456e-09 	0.00132332347 	-3.723296376e-08 	2.522622333e-06
0.02966161124 	0.001329830551 	-0.0002854748854 	6.703988536e-09 	0.001352311679 	-4.109671581e-08 	2.577881916e-06
0.03054098934 	0.001359141846 	-0.0002956052855 	7.496400816e-09 	0.001382287932 	-4.508988642e-08 	2.635024986e-06
0.03143689349 	0.001389424944 	-0.0003060055399 	8.335562569e-09 	0.001413262686 	-4.921840255e-08 	2.694071476e-06
0.03234963424 	0.001420689576 	-0.0003166810882 	9.223478763e-09 	0.001445246359 	-5.348831952e-08 	2.755041246e-06
0.03327952795 	0.001452945427 	-0.000327637431 	1.016223456e-08 	0.001478249345 	-5.790581461e-08 	2.81795411e-06
0.03422689696 	0.001486202154 	-0.0003388801353 	1.115399683e-08 	0.001512282024 	-6.247718061e-08 	2.882829855e-06
0.03519206965 	0.001520469384 	-0.0003504148391 	1.220101578e-08 	0.001547354767 	-6.720881927e-08 	2.949688251e-06
0.03617538056 	0.001555756718 	-0.0003622472561 	1.33056264e-08 	0.001583477937 	-7.210723463e-08 	3.018549053e-06
0.03717717053 	0.001592073716 	-0.00037438318 	1.447024994e-08 	0.001620661884 	-7.717902656e-08 	3.08943199e-06
0.03819778679 	0.001629429872 	-0.0003868284861 	1.569739494e-08 	0.001658916939 	-8.243088436e-08 	3.162356757e-06
0.0392375831 	0.001667834592 	-0.0003995894035 	1.698968075e-08 	0.001698253352 	-8.786957606e-08 	3.237342894e-06
0.04029691988 	0.001707306398 	-0.0004126752804 	1.835004073e-08 	0.001738690759 	-9.35025861e-08 	3.314427831e-06
0.04137715132 	0.001747890226 	-0.0004261030246 	1.978346029e-08 	0.00178027593 	-9.934653198e-08 	3.393700725e-06
0.04248044704 	0.001789613777 	-0.0004398859587 	2.129595285e-08 	0.001823037693 	-1.054219883e-07 	3.475216531e-06
0.04360447683 	0.001832452444 	-0.0004540191867 	2.288606425e-08 	0.00186695131 	-1.117140736e-07 	3.55892809e-06
0.0447496303 	0.001876389976 	-0.0004684996444 	2.455599242e-08 	0.001912000966 	-1.182279491e-07 	3.644805255e-06
0.04591630441 	0.001921435147 	-0.0004833347655 	2.630897701e-08 	0.001958196447 	-1.249706394e-07 	3.73286668e-06
0.04710490354 	0.001967596439 	-0.0004985311942 	2.814826545e-08 	0.00200554723 	-1.319491749e-07 	3.823130434e-06
0.04831583968 	0.002014881985 	-0.0005140957039 	3.007720746e-08 	0.002054062492 	-1.391705905e-07 	3.915614006e-06
0.04954953259 	0.002063299517 	-0.000530035168 	3.209925301e-08 	0.002103751012 	-1.466419083e-07 	4.010334136e-06
0.05080640988 	0.002112856276 	-0.0005463565552 	3.421795337e-08 	0.002154621125 	-1.543701285e-07 	4.107306709e-06
0.05208690721 	0.002163558903 	-0.0005630669132 	3.643696137e-08 	0.002206680619 	-1.623622152e-07 	4.206546575e-06
0.05339146842 	0.002215413265 	-0.0005801733345 	3.876003103e-08 	0.002259936615 	-1.706250829e-07 	4.308067305e-06
0.0547205457 	0.002268424182 	-0.0005976828879 	4.119101499e-08 	0.002314395379 	-1.791655816e-07 	4.411880845e-06
0.05607459972 	0.002322594892 	-0.0006156025044 	4.373386064e-08 	0.002370062012 	-1.879904845e-07 	4.51799692e-06
0.05745409982 	0.002377926015 	-0.000633938855 	4.639260668e-08 	0.002426939857 	-1.971064828e-07 	4.6264219e-06
0.05885952414 	0.002434413572 	-0.0006526986935 	4.917141133e-08 	0.002485029181 	-2.065201892e-07 	4.737156297e-06
0.06029135983 	0.00249205253 	-0.000671892855 	5.207491437e-08 	0.002544332349 	-2.162391616e-07 	4.850204619e-06
0.06175082976 	0.002550861013 	-0.0006915472625 	5.511036858e-08 	0.0026048872 	-2.262814823e-07 	4.965638995e-06
0.06324165326 	0.002610822359 	-0.0007117253929 	5.828872839e-08 	0.002666698199 	-2.366789243e-07 	5.083467937e-06
0.06476049349 	0.002679664705 	-0.0007353248868 	6.179129136e-08 	0.002737748956 	-2.47794457e-07 	5.218910429e-06
0.06709213948 	0.002765296721 	-0.0007647918923 	6.686341324e-08 	0.002826138381 	-2.641220154e-07 	5.387405238e-06
0.06944979626 	0.002859374859 	-0.000797068547 	6.811677321e-08 	0.002923194113 	-2.647853086e-07 	5.57242044e-06
0.07183375399 	0.002954223642 	-0.0008298242393 	6.705724084e-08 	0.003021009467 	-2.566097133e-07 	5.75888369e-06
0.07424430605 	0.003049836281 	-0.0008630953281 	6.579031969e-08 	0.003119608998 	-2.479266546e-07 	5.9468418e-06
0.07668174913 	0.003146180602 	-0.0008968712888 	6.431094926e-08 	0.003218983309 	-2.387332705e-07 	6.136276858e-06
0.0791463832 	0.003243215474 	-0.000931145218 	6.261456463e-08 	0.003319096549 	-2.290275766e-07 	6.327120517e-06
0.08163851157 	0.003340955965 	-0.0009659308112 	6.069888946e-08 	0.003419967886 	-2.188154597e-07 	6.519409323e-06
0.08416496108 	0.00343942458 	-0.001001250131 	5.853733698e-08 	0.003521621165 	-2.080150575e-07 	6.713188724e-06
0.08672030433 	0.003538507963 	-0.001037077614 	5.614649688e-08 	0.003623938585 	-1.967077161e-07 	6.908234164e-06
0.08930415545 	0.003638082811 	-0.001073381961 	5.352157338e-08 	0.003726792655 	-1.848990732e-07 	7.104302609e-06
0.09191683248 	0.003738085589 	-0.001110158072 	5.065844644e-08 	0.003830117292 	-1.725928081e-07 	7.301268084e-06
0.09455865701 	0.003838457295 	-0.001147401114 	4.755307924e-08 	0.003933850846 	-1.597943183e-07 	7.499013069e-06
0.09722995422 	0.003939136872 	-0.001185106081 	4.420144682e-08 	0.004037929368 	-1.465100453e-07 	7.697415659e-06
0.0999310529 	0.004040072557 	-0.001223272413 	4.059980573e-08 	0.004142298213 	-1.327481093e-07 	7.896371686e-06
0.1026635218 	0.004141265099 	-0.001261917137 	3.674039886e-08 	0.004246956904 	-1.185040956e-07 	8.09588024e-06
0.1054324181 	0.004242692713 	-0.001301052622 	3.260300674e-08 	0.00435188044 	-1.037358039e-07 	8.295893662e-06
0.1082322065 	0.004344216576 	-0.001340644364 	2.820670862e-08 	0.004456922692 	-8.853207011e-08 	8.496133388e-06
0.1110632316 	0.004445714199 	-0.001380661954 	2.354654662e-08 	0.004561955396 	-7.290319559e-08 	8.696354916e-06
0.1139258419 	0.004547113128 	-0.001421098722 	1.861899178e-08 	0.00466690181 	-5.686323985e-08 	8.896411949e-06
0.1168203898 	0.00464833855 	-0.001461945312 	1.342044185e-08 	0.004771682568 	-4.042741914e-08 	9.096153196e-06
0.1197472317 	0.004749318587 	-0.001503195024 	7.947376138e-09 	0.004876221086 	-2.361220444e-08 	9.295432666e-06
0.12270736 	0.004850032262 	-0.001544858737 	2.193787549e-09 	0.004980493388 	-6.427920464e-09 	9.494204655e-06
0.1238093945 	0.004886924143 	-0.00156032167 	-6.714457619e-08 	0.005018690916 	-2.916907916e-07 	9.567019758e-06
0.1257069328 	0.004950449196 	-0.001586948879 	3.880299603e-09 	0.005084464477 	-1.120464992e-08 	9.692402447e-06
0.128739973 	0.005050419453 	-0.001629425947 	1.024485317e-08 	0.005187975227 	-2.916558783e-08 	9.889722705e-06
0.1318068542 	0.005149804924 	-0.001672251481 	1.689331853e-08 	0.005290879852 	-4.740861224e-08 	1.008588752e-05
0.1349079538 	0.005248517008 	-0.001715413354 	2.382790025e-08 	0.005393083433 	-6.59088551e-08 	1.028071595e-05
0.1380436537 	0.005346464518 	-0.001758896937 	3.105048362e-08 	0.005494488045 	-8.463985409e-08 	1.047402133e-05
0.14121434 	0.005443581509 	-0.001802696731 	3.856303617e-08 	0.005595021829 	-1.035744525e-07 	1.066566666e-05
0.1444241869 	0.005539823588 	-0.001846819639 	4.638192996e-08 	0.005694634168 	-1.22721059e-07 	1.085555547e-05
0.1476729191 	0.005635082682 	-0.001891244802 	5.449971767e-08 	0.005793207552 	-1.420243899e-07 	1.104346373e-05
0.1509579006 	0.005729204174 	-0.001935924963 	6.290156958e-08 	0.005890576759 	-1.61414297e-07 	1.12290765e-05
0.1542795359 	0.005822063111 	-0.001980828287 	7.158501795e-08 	0.005986607259 	-1.808530551e-07 	1.141213733e-05
0.1576382339 	0.005913553643 	-0.002025933164 	8.054730709e-08 	0.006081183646 	-2.003018171e-07 	1.159242621e-05
0.1610344082 	0.006003587504 	-0.002071223301 	8.978532755e-08 	0.006174208404 	-2.19721014e-07 	1.176975725e-05
0.1644716629 	0.006092096209 	-0.002116694384 	9.930740836e-08 	0.006265603265 	-2.390955991e-07 	1.194398126e-05
0.1679506875 	0.006178964001 	-0.002162319071 	1.091014254e-07 	0.006355239763 	-2.583633797e-07 	1.211485334e-05
0.1714685328 	0.006264029822 	-0.002208040722 	1.191423046e-07 	0.006442942765 	-2.774402019e-07 	1.228203963e-05
0.1750256321 	0.006347155878 	-0.002253814798 	1.294183734e-07 	0.006528560835 	-2.962741103e-07 	1.244525147e-05
0.1786224232 	0.006428222626 	-0.002299607372 	1.399174039e-07 	0.006611960347 	-3.148123961e-07 	1.260423412e-05
0.182259349 	0.006507134516 	-0.002345392503 	1.506268317e-07 	0.006693031849 	-3.330023108e-07 	1.275877894e-05
0.1859420126 	0.006583800568 	-0.002391151218 	1.615478267e-07 	0.006771668539 	-3.508161815e-07 	1.290868232e-05
0.1896669197 	0.006658065868 	-0.002436823465 	1.726376433e-07 	0.006847696796 	-3.681454555e-07 	1.305361331e-05
0.193433393 	0.00672976881 	-0.002482337001 	1.770475609e-07 	0.006920936329 	-3.706418083e-07 	1.319322822e-05
0.1972418962 	0.006798773327 	-0.002527637656 	1.703896618e-07 	0.006991231834 	-3.500736042e-07 	1.332723099e-05
0.2010928983 	0.006864958342 	-0.002572675058 	1.634306215e-07 	0.007058442545 	-3.294326074e-07 	1.345535328e-05
0.2049898859 	0.006928211321 	-0.002617405439 	1.561620757e-07 	0.007122434771 	-3.087292398e-07 	1.357734025e-05
0.2089333194 	0.006988387922 	-0.002661761007 	1.486008792e-07 	0.007183041014 	-2.880303505e-07 	1.36928726e-05
0.2129207593 	0.007045318936 	-0.002705647388 	1.40771555e-07 	0.00724006862 	-2.674201982e-07 	1.380158306e-05
0.2169526964 	0.007098848725 	-0.00274897822 	1.326842369e-07 	0.007293338167 	-2.469465622e-07 	1.390312962e-05
0.2210296273 	0.007148836647 	-0.002791674425 	1.24352428e-07 	0.007342684701 	-2.266593244e-07 	1.399719783e-05
0.2251548737 	0.007195144304 	-0.002833659167 	1.157797116e-07 	0.007387944242 	-2.065853596e-07 	1.40834751e-05
0.2293289488 	0.007237608423 	-0.00287483164 	1.069958132e-07 	0.007428927377 	-1.868016225e-07 	1.416160034e-05
0.2335496053 	0.007276047586 	-0.002915065303 	9.803684851e-08 	0.0074654277 	-1.673953848e-07 	1.42311801e-05
0.2378173632 	0.007310287078 	-0.002954237788 	8.892675547e-08 	0.007497245735 	-1.484244338e-07 	1.429183412e-05
0.2421327478 	0.00734015902 	-0.002992231238 	7.969354986e-08 	0.007524188631 	-1.299482564e-07 	1.434319477e-05
0.2465003553 	0.007365487649 	-0.003028923918 	7.035547402e-08 	0.007546055234 	-1.120054343e-07 	1.438487859e-05
0.250917877 	0.007386073365 	-0.003064161083 	6.097356932e-08 	0.0075626233 	-9.470518806e-08 	1.441646193e-05
0.2553846982 	0.00740171066 	-0.003097772665 	5.15942351e-08 	0.007573667613 	-7.812558818e-08 	1.443751546e-05
0.259901369 	0.007412193611 	-0.00312959209 	4.226375488e-08 	0.007578963429 	-6.233704736e-08 	1.444761076e-05
0.2644698782 	0.007417307282 	-0.003159448685 	3.302931519e-08 	0.007578277912 	-4.740555218e-08 	1.444630397e-05
0.2690927907 	0.007416821155 	-0.003187153479 	2.395500325e-08 	0.007571365938 	-3.341713221e-08 	1.443312783e-05
0.273767296 	0.007410494394 	-0.003212489741 	1.512475892e-08 	0.0075579788 	-2.047969803e-08 	1.440760822e-05
0.2784939697 	0.007398079408 	-0.003235234348 	6.611754031e-09 	0.007537864973 	-8.676160476e-09 	1.436926568e-05
0.2823705472 	0.007382859651 	-0.003251396407 	2.902167886e-07 	0.007515881885 	-1.270943585e-06 	1.43273598e-05
0.283273557 	0.007379312091 	-0.003255160328 	1.501917362e-09 	0.007510758392 	-1.89933706e-09 	1.4317593e-05
0.2881107851 	0.007353908465 	-0.003272025256 	9.119748048e-09 	0.00747637774 	-1.112372795e-08 	1.425205392e-05
0.2930019987 	0.007321585179 	-0.003285559431 	1.612405596e-08 	0.007434452292 	-1.891107581e-08 	1.417213237e-05
0.2979478001 	0.007282048962 	-0.003295481572 	2.240917719e-08 	0.007384707934 	-2.516962542e-08 	1.40773058e-05
0.3029487983 	0.007234981111 	-0.003301501721 	2.786312912e-08 	0.007326844162 	-2.985444477e-08 	1.396700136e-05
0.3080095909 	0.007179992134 	-0.003303319387 	3.238570052e-08 	0.007260641344 	-3.281230498e-08 	1.384080039e-05
0.3131269609 	0.007116835217 	-0.00330060345 	3.606032202e-08 	0.007185641359 	-3.38519455e-08 	1.369782958e-05
0.3183014433 	0.007045299747 	-0.003293363342 	3.909043081e-08 	0.007101341982 	-3.321732513e-08 	1.353713153e-05
0.323534034 	0.00696478664 	-0.003281942794 	4.092374451e-08 	0.007007887955 	-3.054401454e-08 	1.335898218e-05
0.3288283649 	0.006874863395 	-0.003265823784 	4.071910956e-08 	0.006904955142 	-2.534346331e-08 	1.316276363e-05
0.3341817839 	0.006775346422 	-0.003243715898 	3.84833733e-08 	0.006791826804 	-1.817148428e-08 	1.294710958e-05
0.33959495 	0.00666572708 	-0.003214786081 	3.433394747e-08 	0.006668438404 	-9.040295206e-09 	1.2711897e-05
0.3450698045 	0.00654551729 	-0.00317860339 	2.812630215e-08 	0.006534649648 	2.374303729e-09 	1.245685844e-05
0.3506078229 	0.006414377904 	-0.003134745214 	1.979047832e-08 	0.006390137056 	1.59730793e-08 	1.218137728e-05
0.3562076492 	0.006271982808 	-0.003082821935 	9.265663548e-09 	0.006234763643 	3.16622598e-08 	1.188519237e-05
0.3618699728 	0.006118037639 	-0.003022482263 	-3.447519533e-09 	0.006068436046 	4.928122971e-08 	1.156812574e-05
0.3675979394 	0.005952297874 	-0.002953440785 	-1.82550881e-08 	0.0058911346 	6.858159399e-08 	1.12301399e-05
0.3733903722 	0.005774670608 	-0.002875546532 	-3.490610538e-08 	0.005703012674 	8.91704948e-08 	1.087152723e-05
0.3792474522 	0.005585212375 	-0.002788817111 	-5.295728708e-08 	0.005504381784 	1.105261019e-07 	1.049288154e-05
0.3851709504 	0.005384142047 	-0.002693476941 	-7.174599871e-08 	0.005295705084 	1.31997228e-07 	1.009508576e-05
0.3911621639 	0.005171932507 	-0.002590025926 	-9.036899254e-08 	0.005077666722 	1.527951546e-07 	9.679444036e-06
0.3972202431 	0.004949370848 	-0.002479280141 	-1.07737214e-07 	0.004851201824 	1.720636091e-07 	9.247738998e-06
0.4033461698 	0.004717510079 	-0.00236233195 	-1.227048715e-07 	0.004617415281 	1.889882345e-07 	8.80207687e-06
0.4095425735 	0.004477662093 	-0.002240499127 	-1.342537126e-07 	0.004377552929 	2.028888122e-07 	8.344832561e-06
0.415808133 	0.004231410551 	-0.002115248193 	-1.416305023e-07 	0.00413300999 	2.131131063e-07 	7.878665752e-06
0.4221436196 	0.003980471019 	-0.001988009655 	-1.446523283e-07 	0.00388520564 	2.195114712e-07 	7.406281787e-06
0.4285517109 	0.003726473651 	-0.001859996186 	-1.437986023e-07 	0.003635405956 	2.228535921e-07 	6.930094162e-06
0.4350314771 	0.003470778836 	-0.001732105465 	-1.330402475e-07 	0.003384597346 	2.129060776e-07 	6.451983242e-06
0.4415835607 	0.003214439376 	-0.001604830865 	-1.202612254e-07 	0.003133502391 	2.000986873e-07 	5.973326469e-06
0.448210299 	0.002958255026 	-0.001478237418 	-1.082039537e-07 	0.002882672336 	1.873948717e-07 	5.495174669e-06
0.4549112516 	0.002702831457 	-0.00135205699 	-9.786758074e-08 	0.002632575014 	1.753538606e-07 	5.018419664e-06
0.4616869897 	0.00244864236 	-0.001225845148 	-8.971643315e-08 	0.002383659857 	1.641571056e-07 	4.543918191e-06
0.4685397235 	0.002196170518 	-0.001099033775 	-8.372363321e-08 	0.002136493307 	1.536411274e-07 	4.07275005e-06
0.4754691032 	0.001946193836 	-0.0009711944791 	-7.933896073e-08 	0.001891980388 	1.433523363e-07 	3.606640469e-06
0.4824758482 	0.001700051522 	-0.0008424552746 	-7.560048138e-08 	0.001651621505 	1.325654054e-07 	3.148449632e-06
0.48956208 	0.001459934874 	-0.0007135151475 	-7.162224037e-08 	0.001417684156 	1.207073171e-07 	2.702500027e-06
0.4967273963 	0.001229749293 	-0.0005863774386 	-6.640393506e-08 	0.001193902037 	1.072507033e-07 	2.275909111e-06
0.5038929853 	0.001015845059 	-0.0004650838187 	-5.917953348e-08 	0.0009864718361 	9.163363403e-08 	1.880489495e-06
0.5109803352 	0.0008251002683 	-0.0003539234785 	-5.021257941e-08 	0.0008020423292 	7.402167018e-08 	1.528915596e-06
0.5179894793 	0.0006632077221 	-0.0002563070848 	-3.998835837e-08 	0.0006458673341 	5.513151844e-08 	1.231202648e-06
0.524921636 	0.0005344776042 	-0.0001753923907 	-2.913290871e-08 	0.0005219238792 	3.631845548e-08 	9.949319751e-07
0.531777805 	0.0004403997458 	-0.0001130165107 	-1.916358131e-08 	0.0004315073623 	1.972783608e-08 	8.225729639e-07
0.538558318 	0.0003781217484 	-6.813478086e-05 	-1.15475599e-08 	0.0003717487289 	7.073420441e-09 	7.086563994e-07
0.5452643442 	0.0003410273312 	-3.726317465e-05 	-6.603554407e-09 	0.0003362446952 	-1.301423473e-09 	6.409758433e-07
0.5518967112 	0.000321293123 	-1.628760691e-05 	-3.758894424e-09 	0.0003174639589 	-6.2313156e-09 	6.051745403e-07
0.5584558909 	0.0003122707017 	-1.788893167e-06 	-2.244720909e-09 	0.0003090015314 	-8.923592319e-09 	5.890428013e-07
0.5649429425 	0.0003093706156 	8.644014032e-06 	-1.469589405e-09 	0.0003064287646 	-1.032562309e-08 	5.841383928e-07
0.5713586812 	0.0003098234099 	1.660838633e-05 	-1.063498225e-09 	0.0003070694151 	-1.100951501e-08 	5.853596507e-07
0.5777036221 	0.0003121277896 	2.316928189e-05 	-8.112922298e-10 	0.0003094707553 	-1.12661588e-08 	5.899372725e-07
0.583978692 	0.000315602284 	2.908858996e-05 	-5.815082957e-10 	0.0003129728304 	-1.121777613e-08 	5.96613201e-07
0.5901847713 	0.0003201225289 	3.499377894e-05 	-2.704765775e-10 	0.0003174539796 	-1.088021314e-08 	6.05155517e-07
0.5963223658 	0.0003260194944 	4.151697826e-05 	2.436310953e-10 	0.0003232309486 	-1.017255021e-08 	6.161680254e-07
0.6023922714 	0.0003341180326 	4.944049484e-05 	1.149268408e-09 	0.000331092683 	-8.887476717e-09 	6.311546762e-07
0.6083954574 	0.0003459210828 	5.988015432e-05 	2.76065537e-09 	0.0003424732465 	-6.610726339e-09 	6.528491933e-07
0.6143323969 	0.0003639564781 	7.452469033e-05 	5.581537432e-09 	0.0003597774624 	-2.609649208e-09 	6.858358383e-07
0.6202038208 	0.0003922363639 	9.589459859e-05 	1.032133043e-08 	0.0003868219715 	4.257995387e-09 	7.373901892e-07
0.6260106295 	0.0004365647852 	0.0001274578892 	1.77421376e-08 	0.0004291119153 	1.532795523e-08 	8.180065761e-07
0.6317534071 	0.0005040519913 	0.0001732394975 	2.818772274e-08 	0.0004934467259 	3.151441588e-08 	9.40646606e-07
0.6374328113 	0.0006013789402 	0.0002366197549 	4.093418138e-08 	0.0005862239282 	5.218750666e-08 	1.11750574e-06
0.6430495922 	0.0007323496765 	0.0003190311513 	5.447343628e-08 	0.0007110751822 	7.498293615e-08 	1.35550693e-06
0.6486045051 	0.000896367268 	0.0004195320861 	6.71898921e-08 	0.0008677028062 	9.71826425e-08 	1.654082714e-06
0.6540981175 	0.001089203787 	0.0005348714213 	7.719499477e-08 	0.001052272472 	1.163973517e-07 	2.005923796e-06
0.6595311055 	0.001304864856 	0.0006603023789 	8.342515718e-08 	0.001259040209 	1.314103648e-07 	2.40008057e-06
0.6649042208 	0.001537066434 	0.000791320977 	8.654229711e-08 	0.001482250808 	1.424445755e-07 	2.825582011e-06
0.6702180788 	0.001780282005 	0.0009245883607 	8.749678432e-08 	0.001716789316 	1.499108831e-07 	3.272677593e-06
0.6754732958 	0.002030056534 	0.001057758477 	8.682350077e-08 	0.001958353158 	1.543185179e-07 	3.733165416e-06
0.680670519 	0.002282898262 	0.001189170367 	8.494813615e-08 	0.00220361032 	1.563342627e-07 	4.200693732e-06
0.6858104664 	0.002536225337 	0.001317632774 	8.221181079e-08 	0.002450084078 	1.565453344e-07 	4.670541219e-06
0.6908936988 	0.002788133956 	0.001442283314 	7.884955871e-08 	0.002695939169 	1.552909808e-07 	5.139209355e-06
0.695920835 	0.003036987546 	0.00156247018 	7.498820167e-08 	0.002939582057 	1.526580524e-07 	5.603660416e-06
0.7008924939 	0.003281359551 	0.001677704016 	7.076609658e-08 	0.003179608129 	1.489458327e-07 	6.06121682e-06
0.7058093461 	0.003520247538 	0.001787648423 	6.63164058e-08 	0.003415017297 	1.44475153e-07 	6.509972122e-06
0.7106719389 	0.003753008912 	0.001892075853 	6.174757314e-08 	0.003645154458 	1.394202098e-07 	6.948677515e-06
0.7154808702 	0.003979231344 	0.001990840159 	5.71879998e-08 	0.00386956067 	1.339154992e-07 	7.376458127e-06
0.720236732 	0.004198663913 	0.00208387952 	5.277840848e-08 	0.004088006651 	1.281141121e-07 	7.79287688e-06
0.724940145 	0.004411279937 	0.00217453327 	5.26727864e-08 	0.004300277343 	1.221327116e-07 	8.197523815e-06
0.729591658 	0.004617865183 	0.002259642222 	4.550397313e-08 	0.004506561467 	1.168358164e-07 	8.590758691e-06
0.7341918387 	0.004820261722 	0.002334700428 	3.661670318e-08 	0.004708055248 	1.125528856e-07 	8.974861839e-06
0.7387412535 	0.005019663229 	0.002406590657 	3.680643442e-08 	0.004906039013 	1.081627039e-07 	9.352273921e-06
0.7432404775 	0.005215369218 	0.002479748964 	3.631345622e-08 	0.00510057827 	1.028960932e-07 	9.723119815e-06
0.7476900611 	0.005405578408 	0.002553116741 	3.500909436e-08 	0.005290321768 	9.657064985e-08 	1.008482366e-05
0.7520905407 	0.005588094047 	0.002625439979 	3.29051748e-08 	0.005473255402 	8.913250146e-08 	1.043354601e-05
0.7564424581 	0.005760640765 	0.002695461753 	3.008026534e-08 	0.005647365922 	8.062215875e-08 	1.076544905e-05
0.7607463499 	0.005921162808 	0.002762040986 	2.667656925e-08 	0.005810889153 	7.126443771e-08 	1.107716978e-05
0.7650027615 	0.006068074209 	0.002824250001 	2.290648555e-08 	0.005962480825 	6.144967541e-08 	1.136614564e-05
0.7692122007 	0.006200521232 	0.00288147165 	1.904032375e-08 	0.006101346694 	5.159486472e-08 	1.163086258e-05
0.773375186 	0.006318602812 	0.002933485494 	1.537616212e-08 	0.006227410563 	4.206714623e-08 	1.187117535e-05
0.7774922298 	0.006423761199 	0.002980504718 	1.219100617e-08 	0.006340879625 	3.327051903e-08 	1.208747892e-05
0.781563842 	0.006518501782 	0.003019427486 	2.827652656e-09 	0.006442605585 	2.598420254e-08 	1.228139688e-05
0.7855905287 	0.006604936808 	0.003043767875 	-9.689410482e-10 	0.006534908128 	2.055396689e-08 	1.245735118e-05
0.7895727781 	0.006684422512 	0.003063340062 	3.029943927e-09 	0.006619605573 	1.619463917e-08 	1.261880805e-05
0.7935110805 	0.006757540434 	0.003085426194 	2.887277945e-09 	0.006697348457 	1.22748492e-08 	1.276700759e-05
0.797405921 	0.006824271735 	0.003104582733 	2.823348741e-09 	0.006768733955 	8.807296507e-09 	1.290308819e-05
0.8012577807 	0.006884806287 	0.003121128392 	2.830640783e-09 	0.006833964531 	5.738081561e-09 	1.30274358e-05
0.8050671369 	0.00693939841 	0.003135207265 	2.856774739e-09 	0.006893120169 	2.955357337e-09 	1.314020289e-05
0.8088344542 	0.006988226604 	0.003146954558 	2.879811507e-09 	0.006946434963 	4.446285144e-10 	1.32418357e-05
0.8125601965 	0.007031489074 	0.003156493086 	2.897680057e-09 	0.006994104943 	-1.824093386e-09 	1.333270793e-05
0.8162448224 	0.007069383202 	0.003163936614 	2.915336625e-09 	0.007036326647 	-3.868847208e-09 	1.341319424e-05
0.8198887859 	0.007102106148 	0.003169392393 	2.938732167e-09 	0.007073293868 	-5.702586384e-09 	1.348366403e-05
0.8234925387 	0.007129853362 	0.003172962324 	2.971991054e-09 	0.007105198926 	-7.335515551e-09 	1.354448394e-05
0.8270565217 	0.00715281823 	0.003174743162 	3.016769432e-09 	0.007132232087 	-8.777093522e-09 	1.359601666e-05
0.8305811736 	0.007171191708 	0.003174826414 	3.072537906e-09 	0.007154581474 	-1.003646764e-08 	1.36386208e-05
0.8340669283 	0.007185162115 	0.003173298173 	3.13735535e-09 	0.007172432849 	-1.112284578e-08 	1.367265049e-05
0.8375142152 	0.007194914954 	0.003170239123 	3.208555174e-09 	0.007185969379 	-1.204552252e-08 	1.369845487e-05
0.8409234592 	0.007200632738 	0.003165724888 	3.283267341e-09 	0.007195371367 	-1.281383021e-08 	1.371637768e-05