0 	-0.0007049922635 	2.136139565e-17 	-3.24781685e-19 	1.751544661e-17 	7.647409143e-19 	3.33893094e-20
0.0003200309159 	-0.0007100281186 	-0.0001273074484 	-5.226007733e-09 	0.0003028021871 	-1.33776685e-08 	5.772251282e-07
0.0006400614409 	-0.0007126713189 	-0.0002591642327 	-7.683896333e-09 	0.0003474936148 	-1.470157523e-08 	6.624194107e-07
0.0009600915746 	-0.0007127480888 	-0.0003855623073 	-1.093893264e-08 	0.0003581009504 	-1.427783065e-08 	6.826399405e-07
0.001280121317 	-0.0007168198324 	-0.0005124535632 	-1.403299877e-08 	0.0003682345762 	-1.365600445e-08 	7.019574477e-07
0.001600150666 	-0.0007205662607 	-0.0006395012257 	-1.692276095e-08 	0.000377176357 	-1.282233926e-08 	7.190029672e-07
0.001920179623 	-0.0007252777301 	-0.0007665987397 	-1.959227257e-08 	0.0003878841239 	-1.192048879e-08 	7.394149469e-07
0.002240208187 	-0.0007308489816 	-0.0008936872287 	-2.203512062e-08 	0.0004003245519 	-1.09599309e-08 	7.631298604e-07
0.002560236358 	-0.0007372804555 	-0.001020726733 	-2.424805205e-08 	0.0004145611847 	-9.953918625e-09 	7.902688393e-07
0.002880264135 	-0.000744559921 	-0.001147687512 	-2.622925431e-08 	0.0004306051013 	-8.913240964e-09 	8.208530037e-07
0.003200291518 	-0.0007526861674 	-0.001274544824 	-2.797776631e-08 	0.0004484713693 	-7.848845102e-09 	8.549110761e-07
0.003520318506 	-0.0007616562893 	-0.001401276716 	-2.949322922e-08 	0.0004681631451 	-6.771149793e-09 	8.924490738e-07
0.003840345101 	-0.0007714668427 	-0.001527862733 	-3.077577357e-08 	0.0004896780992 	-5.690298501e-09 	9.33462556e-07
0.0041603713 	-0.000782113885 	-0.001654283178 	-3.18259629e-08 	0.0005130104425 	-4.61622223e-09 	9.779404873e-07
0.004480397105 	-0.0007935930607 	-0.001780518659 	-3.264476417e-08 	0.0005381520498 	-3.558662754e-09 	1.025867379e-06
0.004800422516 	-0.0008058995683 	-0.001906549807 	-3.323353173e-08 	0.000565092908 	-2.527165491e-09 	1.077224142e-06
0.005120447531 	-0.0008190281446 	-0.002032357085 	-3.35939985e-08 	0.000593821376 	-1.531063211e-09 	1.131988587e-06
0.005440472151 	-0.0008329730527 	-0.002157920668 	-3.372827112e-08 	0.0006243243306 	-5.794541847e-10 	1.190135696e-06
0.005760496377 	-0.0008477280703 	-0.002283220352 	-3.363882729e-08 	0.0006565872436 	3.188229124e-10 	1.251637775e-06
0.006080520207 	-0.0008632864781 	-0.002408235499 	-3.332851409e-08 	0.0006905942201 	1.155215978e-09 	1.316464524e-06
0.006400543643 	-0.0008796410466 	-0.002532945 	-3.280054675e-08 	0.0007263280121 	1.921487499e-09 	1.384583063e-06
0.006720566684 	-0.0008967840258 	-0.002657327245 	-3.205850734e-08 	0.0007637700186 	2.609743009e-09 	1.455957934e-06
0.007040589331 	-0.0009147071438 	-0.002781360107 	-3.110634304e-08 	0.0008029002818 	3.212459535e-09 	1.530551092e-06
0.007360611583 	-0.0009334016293 	-0.002905020929 	-2.994836408e-08 	0.0008436974892 	3.722513788e-09 	1.608321908e-06
0.007680633441 	-0.0009528582936 	-0.003028286504 	-2.858924109e-08 	0.0008861390113 	4.133209987e-09 	1.689227245e-06
0.008000654905 	-0.0009730677585 	-0.003151133027 	-2.70340019e-08 	0.0009302010447 	4.438306917e-09 	1.773221727e-06
0.008320675975 	-0.0009940209131 	-0.003273535967 	-2.528802746e-08 	0.0009758587755 	4.63204213e-09 	1.860258052e-06
0.008640696652 	-0.001015709633 	-0.003395469778 	-2.335704658e-08 	0.001023086058 	4.709147732e-09 	1.950286378e-06
0.008960716935 	-0.001038128196 	-0.003516906525 	-2.124711031e-08 	0.001071854198 	4.664884241e-09 	2.043252009e-06
0.009280736826 	-0.001061288326 	-0.003637836887 	-1.896498545e-08 	0.001122154676 	4.495332776e-09 	2.139138699e-06
0.009600756325 	-0.001088666976 	-0.003775017884 	-1.65742317e-08 	0.001181455954 	4.251299228e-09 	2.252183417e-06
0.01009799211 	-0.001124015264 	-0.003945115321 	-1.240332129e-08 	0.001258043879 	3.47394388e-09 	2.398181288e-06
0.01060457247 	-0.00116452603 	-0.004132268979 	-7.842586003e-09 	0.001346004279 	2.394549164e-09 	2.565858259e-06
0.01112067299 	-0.001207150756 	-0.004320716235 	-2.845867371e-09 	0.001438665721 	9.395766585e-10 	2.742496721e-06
0.01140056368 	-0.001230986167 	-0.004421637635 	2.841519019e-07 	0.001490510882 	5.735302222e-07 	2.841328006e-06
0.01164647258 	-0.001251927046 	-0.00451030438 	-2.574358746e-09 	0.001536059676 	9.039831798e-10 	2.928156669e-06
0.01218215349 	-0.001298856743 	-0.0047008413 	-8.404396302e-09 	0.001638165416 	3.153510823e-09 	3.122798587e-06
0.0127279014 	-0.001347928142 	-0.004892132445 	-1.462917134e-08 	0.001744942212 	5.836049571e-09 	3.326344838e-06
0.01328390549 	-0.001399118836 	-0.005083977906 	-2.12286108e-08 	0.001856329165 	8.964525268e-09 	3.538679328e-06
0.01385035847 	-0.001452396359 	-0.005276173122 	-2.817955103e-08 	0.001972244659 	1.254775632e-08 	3.759646477e-06
0.0144274567 	-0.001507718676 	-0.005468509852 	-3.545585594e-08 	0.002092586522 	1.659008983e-08 	3.989051515e-06
0.01501540022 	-0.001565034555 	-0.005660777305 	-4.302858407e-08 	0.002217232461 	2.109109788e-08 	4.226661319e-06
0.0156143928 	-0.00162428389 	-0.005852763373 	-5.086620163e-08 	0.00234604066 	2.604534392e-08 	4.472205547e-06
0.01622464209 	-0.001685398072 	-0.006044255933 	-5.893483816e-08 	0.002478850581 	3.144222755e-08 	4.725378167e-06
0.01684635961 	-0.001748300449 	-0.006235044166 	-6.719858025e-08 	0.002615483991 	3.726591389e-08 	4.985839423e-06
0.01747976086 	-0.001812906867 	-0.006424919889 	-7.56197984e-08 	0.002755746185 	4.349535238e-08 	5.25321815e-06
0.01812506539 	-0.001879126475 	-0.006613678862 	-8.415950006e-08 	0.002899427749 	5.010438344e-08 	5.527115143e-06
0.01878249687 	-0.001946862303 	-0.006801121378 	-9.277771743e-08 	0.003046305705 	5.70619411e-08 	5.80710535e-06
0.01945228319 	-0.002016019806 	-0.006987076512 	-1.014334605e-07 	0.003196162497 	6.433222451e-08 	6.092774046e-06
0.02013465651 	-0.002086533605 	-0.007171460637 	-1.100836728e-07 	0.003348842021 	7.187451797e-08 	6.383823655e-06
0.02083178422 	-0.002158367753 	-0.007354274628 	-1.187395969e-07 	0.003504255019 	7.967848782e-08 	6.680084023e-06
0.02154340914 	-0.002231411949 	-0.007535350837 	-1.273614925e-07 	0.003662156652 	8.769995251e-08 	6.981088422e-06
0.02226840742 	-0.002305462556 	-0.00771430382 	-1.358799724e-07 	0.003822095739 	9.586995474e-08 	7.285976775e-06
0.02300703036 	-0.002380357981 	-0.007890871361 	-1.442627244e-07 	0.003983709556 	1.041400583e-07 	7.594057629e-06
0.02375953399 	-0.00245598653 	-0.008064933092 	-1.524757242e-07 	0.004146745657 	1.124591012e-07 	7.904849751e-06
0.02452617913 	-0.002532231959 	-0.008236367812 	-1.604869672e-07 	0.00431094257 	1.207749755e-07 	8.217854703e-06
0.0253072315 	-0.002608980309 	-0.008405067801 	-1.682664204e-07 	0.004476044664 	1.290351401e-07 	8.532585182e-06
0.02610296183 	-0.00268612036 	-0.008570938568 	-1.75786181e-07 	0.004641803061 	1.371871507e-07 	8.848566756e-06
0.02691364592 	-0.002763544503 	-0.008733898916 	-1.830205841e-07 	0.004807977495 	1.451791394e-07 	9.165341414e-06
0.02773956477 	-0.002841149432 	-0.008893880888 	-1.899462678e-07 	0.004974337778 	1.52960252e-07 	9.482470351e-06
0.02858100463 	-0.002918836753 	-0.009050829609 	-1.965421928e-07 	0.005140665119 	1.604810279e-07 	9.79953649e-06
0.02943825716 	-0.00299651352 	-0.009204703028 	-2.027896298e-07 	0.00530675326 	1.676937288e-07 	1.011614665e-05
0.03031161947 	-0.003074092684 	-0.009355471571 	-2.086721105e-07 	0.005472409422 	1.745526049e-07 	1.043193334e-05
0.03120139428 	-0.003151493455 	-0.009503117697 	-2.141753408e-07 	0.005637455057 	1.810140928e-07 	1.074655619e-05
0.03210788998 	-0.003228641587 	-0.009647635409 	-2.192870896e-07 	0.005801726425 	1.870369541e-07 	1.105970307e-05
0.03303142075 	-0.003305469588 	-0.00978902969 	-2.239970558e-07 	0.005965074998 	1.925823544e-07 	1.137109085e-05
0.03397230668 	-0.003381916858 	-0.009927315894 	-2.282967129e-07 	0.006127367693 	1.976138818e-07 	1.168046584e-05
0.03493087388 	-0.003457929767 	-0.01006251911 	-2.321791359e-07 	0.006288486965 	2.020975066e-07 	1.198760395e-05
0.03590745458 	-0.003533461689 	-0.01019467347 	-2.356388248e-07 	0.006448330747 	2.060015012e-07 	1.229231063e-05
0.03690238724 	-0.003608473101 	-0.0103238215 	-2.386715245e-07 	0.0066068125 	2.092963119e-07 	1.259442089e-05
0.0379160167 	-0.003682931677 	-0.0104500132 	-2.412740583e-07 	0.006763861068 	2.119544243e-07 	1.289379911e-05
0.03894869426 	-0.003756816752 	-0.01057331431 	-2.434438789e-07 	0.00691943019 	2.139500675e-07 	1.31903571e-05
0.04000077783 	-0.003830133058 	-0.01069382591 	-2.451761193e-07 	0.007073526407 	2.152556536e-07 	1.348410732e-05
0.04107387931 	-0.003902924315 	-0.01081170282 	-2.464924841e-07 	0.007226238349 	2.158595162e-07 	1.377521872e-05
0.04217063918 	-0.003975234856 	-0.01092711285 	-2.47443342e-07 	0.007377668991 	2.157726697e-07 	1.406388761e-05
0.04328800965 	-0.004046976773 	-0.01104000246 	-2.479396679e-07 	0.00752763921 	2.149119548e-07 	1.434977253e-05
0.044426378 	-0.004118072809 	-0.0111503165 	-2.479969597e-07 	0.007675981985 	2.132747647e-07 	1.463255509e-05
0.0455861388 	-0.004188549872 	-0.01125817098 	-2.47612924e-07 	0.007822754166 	2.108399509e-07 	1.491234366e-05
0.04676769399 	-0.004258423042 	-0.01136365711 	-2.467863623e-07 	0.007967987175 	2.075875721e-07 	1.518919814e-05
0.04797145311 	-0.004327713261 	-0.0114668702 	-2.413475146e-07 	0.008111725332 	2.000426116e-07 	1.546320302e-05
0.04919783336 	-0.004396446185 	-0.01156790827 	-2.247968469e-07 	0.008254022922 	1.830737329e-07 	1.573446178e-05
0.05044725979 	-0.004464652471 	-0.01166687151 	-2.087460867e-07 	0.008394944356 	1.664905917e-07 	1.60030972e-05
0.05172016545 	-0.004532367804 	-0.01176386154 	-1.932094368e-07 	0.008534563569 	1.503458367e-07 	1.626925022e-05
0.0530169915 	-0.004599633241 	-0.01185898045 	-1.781994904e-07 	0.008672963546 	1.346891791e-07 	1.653307904e-05
0.0543381874 	-0.004666496222 	-0.011952329 	-1.637275152e-07 	0.008810235999 	1.195676332e-07 	1.679475849e-05
0.05568421106 	-0.004733013359 	-0.01204400397 	-1.498037159e-07 	0.008946482214 	1.050257155e-07 	1.705448165e-05
0.05705552898 	-0.004799257122 	-0.0121340948 	-1.364375992e-07 	0.009081817356 	9.110577682e-08 	1.731246804e-05
0.05845261643 	-0.004865333408 	-0.01222268794 	-1.236386869e-07 	0.009216390146 	7.784901733e-08 	1.756900118e-05
0.05987595761 	-0.00493142891 	-0.01230989766 	-1.11417777e-07 	0.009350454976 	6.529741412e-08 	1.782456601e-05
0.06132696399 	-0.004997895204 	-0.01239588154 	-9.979079988e-08 	0.009484509617 	5.350191093e-08 	1.808011141e-05
0.06281019925 	-0.005065541981 	-0.01248135631 	-8.8823544e-08 	0.009619932232 	4.258123368e-08 	1.833826456e-05
0.06432130776 	-0.005145354013 	-0.01258006806 	-7.808115023e-08 	0.009778705252 	3.187933664e-08 	1.864093006e-05
0.0666410827 	-0.005242161799 	-0.01269880483 	-6.44851661e-08 	0.009971408025 	1.963675806e-08 	1.90082751e-05
0.06898673389 	-0.005342905095 	-0.01282239657 	-5.158476463e-08 	0.01017302922 	8.379695603e-09 	1.939262113e-05
0.07135854997 	-0.005441636546 	-0.0129435747 	-4.019166233e-08 	0.01037165654 	-5.928879688e-10 	1.977126002e-05
0.0737568228 	-0.005539175091 	-0.01306274428 	-3.026615697e-08 	0.0105684021 	-7.271816589e-09 	2.014631175e-05
0.07618184749 	-0.00563581846 	-0.01317988802 	-2.176256673e-08 	0.01076355003 	-1.165947259e-08 	2.051831792e-05
0.07863392243 	-0.005731790943 	-0.01329516846 	-1.464932922e-08 	0.0109574111 	-1.374245514e-08 	2.088787101e-05
0.08111334936 	-0.005827320859 	-0.01340884132 	-8.902884203e-09 	0.01115039074 	-1.349646837e-08 	2.125574384e-05
0.0836286727 	-0.005922664592 	-0.01352127082 	-4.507833144e-09 	0.01134302092 	-1.084501997e-08 	2.162295049e-05
0.08617295058 	-0.006017894468 	-0.01363262202 	-1.459128713e-09 	0.01153548093 	-5.769293137e-09 	2.198983277e-05
0.08820882703 	-0.006093188174 	-0.01371995339 	2.623610153e-06 	0.01168770957 	-1.346255862e-06 	2.228002288e-05
0.08874561102 	-0.006113043792 	-0.01374298282 	-2.376571239e-10 	0.01172785336 	-1.81766978e-09 	2.235654809e-05
0.09134697064 	-0.006208277949 	-0.01385260191 	-5.59807033e-10 	0.01192049655 	-1.208518435e-08 	2.272377956e-05
0.0939773496 	-0.006303738865 	-0.01396169595 	4.748036384e-10 	0.01211372321 	-2.495551807e-08 	2.309212328e-05
0.09663707163 	-0.006399568533 	-0.01407047369 	2.872676888e-09 	0.0123078453 	-4.048974922e-08 	2.346217393e-05
0.09932646406 	-0.006495921657 	-0.01417915395 	6.6437203e-09 	0.01250320136 	-5.875374922e-08 	2.383457687e-05
0.1020474201 	-0.006592985723 	-0.01428798473 	1.180210878e-08 	0.01270019711 	-7.983497162e-08 	2.421010553e-05
0.1048062404 	-0.006690948521 	-0.01439723272 	1.835500149e-08 	0.01289925799 	-1.038488376e-07 	2.458957089e-05
0.1075958387 	-0.006789830625 	-0.01450696549 	2.632886126e-08 	0.01310046198 	-1.308140072e-07 	2.497312162e-05
0.1104165586 	-0.006889661528 	-0.0146172341 	3.573504429e-08 	0.01330388731 	-1.607914647e-07 	2.536090683e-05
0.113268747 	-0.006990580203 	-0.01472821659 	4.659197217e-08 	0.01350984076 	-1.938540792e-07 	2.575351135e-05
0.1161527553 	-0.007092701926 	-0.01484005897 	5.891836923e-08 	0.01371857916 	-2.300732709e-07 	2.615142475e-05
0.1190689383 	-0.007196155687 	-0.01495292196 	7.273414624e-08 	0.01393038991 	-2.695207632e-07 	2.655519492e-05
0.1220184539 	-0.007301104747 	-0.01506699885 	8.806797455e-08 	0.01414563121 	-3.122927901e-07 	2.696550466e-05
0.1250089864 	-0.007407739711 	-0.01518253309 	1.049278447e-07 	0.01436473687 	-3.585261239e-07 	2.738318095e-05
0.1280328844 	-0.007516069471 	-0.01529956588 	1.233447117e-07 	0.0145877641 	-4.081915879e-07 	2.780833284e-05
0.1310905201 	-0.007626095056 	-0.01541810771 	1.433231832e-07 	0.01481473817 	-4.613123447e-07 	2.82410085e-05
0.1341822699 	-0.007737938679 	-0.01553830829 	1.648803329e-07 	0.01504594021 	-5.179315067e-07 	2.868174384e-05
0.1373085144 	-0.007851703209 	-0.01566029601 	1.685278101e-07 	0.01528161262 	-5.181211567e-07 	2.913100096e-05
0.1404696386 	-0.007967508451 	-0.01578421664 	1.682051721e-07 	0.01552203512 	-5.073122846e-07 	2.958931307e-05
0.1436708133 	-0.008085528988 	-0.01591028783 	1.66366006e-07 	0.0157676139 	-4.932597909e-07 	3.005745448e-05
0.1469115851 	-0.008205844141 	-0.0160386354 	1.630116916e-07 	0.01601856572 	-4.759325442e-07 	3.053583839e-05
0.1501885166 	-0.008328419825 	-0.01616925479 	1.581609726e-07 	0.01627486394 	-4.55334745e-07 	3.102441403e-05
0.1535020113 	-0.008453293563 	-0.01630221806 	1.517928954e-07 	0.01653663027 	-4.314042273e-07 	3.152341341e-05
0.1568524772 	-0.008580542893 	-0.01643764621 	1.438927854e-07 	0.01680407428 	-4.040989341e-07 	3.203323602e-05
0.1602403266 	-0.008710246711 	-0.01657566541 	1.344502497e-07 	0.0170774124 	-3.733928913e-07 	3.255429445e-05
0.1636700028 	-0.008842538739 	-0.01671647371 	1.234178767e-07 	0.01735698804 	-3.391868674e-07 	3.308724333e-05
0.1671422645 	-0.008977466252 	-0.01686019084 	1.108003897e-07 	0.01764297192 	-3.015090902e-07 	3.363240809e-05
0.1706532711 	-0.009114943362 	-0.0170067937 	9.663935334e-08 	0.01793525046 	-2.604806199e-07 	3.418957222e-05
0.1742034549 	-0.009254941075 	-0.0171563222 	8.093538371e-08 	0.01823382932 	-2.161441419e-07 	3.475874652e-05
0.1777932531 	-0.009397474596 	-0.01730887216 	6.369673445e-08 	0.01853881217 	-1.685722493e-07 	3.53401286e-05
0.1814231076 	-0.009542573089 	-0.01746456302 	4.49385472e-08 	0.01885033859 	-1.17866327e-07 	3.593398453e-05
0.1850999798 	-0.00969031421 	-0.01762358313 	2.462597793e-08 	0.01916866378 	-6.401729282e-08 	3.654080082e-05
0.188819334 	-0.009840594969 	-0.01778593898 	2.854686884e-09 	0.01949366014 	-7.354704434e-09 	3.71603342e-05
0.1892955931 	-0.009859924492 	-0.01780691109 	1.045894062e-06 	0.01953562219 	-3.220292928e-07 	3.724032554e-05
0.1925801925 	-0.009993244087 	-0.01795156441 	2.036115688e-08 	0.01982504953 	-5.198929834e-08 	3.77920545e-05
0.1963830182 	-0.01014818508 	-0.01812050327 	4.492662336e-08 	0.02016275864 	-1.136266993e-07 	3.843582193e-05
0.2002282796 	-0.01030534525 	-0.01829281484 	7.077561036e-08 	0.02050672781 	-1.772507924e-07 	3.909152276e-05
0.2041202567 	-0.01046469845 	-0.01846862235 	9.786741852e-08 	0.02085700593 	-2.426117508e-07 	3.97592502e-05
0.2080594045 	-0.01062610997 	-0.01864794565 	1.260866681e-07 	0.02121341097 	-3.092550761e-07 	4.043865728e-05
0.2120425111 	-0.01078930789 	-0.01883066268 	1.552890159e-07 	0.02157546065 	-3.766334369e-07 	4.112882458e-05
0.2160700672 	-0.01095407101 	-0.01901671192 	1.853492088e-07 	0.0219427811 	-4.442401257e-07 	4.182903946e-05
0.2201425686 	-0.01112021054 	-0.01920608214 	2.161242211e-07 	0.02231507563 	-5.115071272e-07 	4.25387363e-05
0.2242640801 	-0.01128756621 	-0.01939880888 	2.474698917e-07 	0.02269211747 	-5.778576247e-07 	4.325748285e-05
0.2284351157 	-0.01145585883 	-0.0195948113 	2.791500946e-07 	0.02307342147 	-6.424719593e-07 	4.398435425e-05
0.2326526998 	-0.01162466433 	-0.01979385902 	3.108904166e-07 	0.02345818235 	-7.044153736e-07 	4.471781542e-05
0.2369173517 	-0.011793587 	-0.01999576233 	3.424073484e-07 	0.02384565768 	-7.627266221e-07 	4.54564511e-05
0.2412295967 	-0.01196225248 	-0.02020037929 	3.733724121e-07 	0.02423516483 	-8.163099327e-07 	4.619895997e-05
0.2455951021 	-0.01213027619 	-0.02040757666 	4.034049119e-07 	0.0246260078 	-8.639433802e-07 	4.694401531e-05
0.2500108086 	-0.01229707168 	-0.02061700749 	4.319652302e-07 	0.02501704088 	-9.039940266e-07 	4.768943305e-05
0.2544757956 	-0.01246193952 	-0.02082821216 	4.584569936e-07 	0.02540686924 	-9.346897951e-07 	4.843255424e-05
0.2589906129 	-0.01262418767 	-0.02104075865 	4.635868844e-07 	0.02579412354 	-9.17201847e-07 	4.917076857e-05
0.263557627 	-0.01278308286 	-0.02125419833 	4.300159348e-07 	0.0261773568 	-8.214604555e-07 	4.990131768e-05
0.2681799304 	-0.01293775241 	-0.02146793842 	3.944847252e-07 	0.0265548136 	-7.22646149e-07 	5.062085524e-05
0.2728538215 	-0.01308710499 	-0.02168112052 	3.569502511e-07 	0.02692423353 	-6.220934141e-07 	5.13250723e-05
0.2775798758 	-0.01323016809 	-0.02189274157 	3.177206367e-07 	0.02728362975 	-5.187485695e-07 	5.20101814e-05
0.2823588813 	-0.0133654184 	-0.02210198822 	2.789294891e-07 	0.02762970913 	-4.191658404e-07 	5.266990488e-05
0.2871966566 	-0.01348532484 	-0.02230365478 	1.728063229e-07 	0.02794736624 	-1.542872848e-07 	5.327544763e-05
0.2920884254 	-0.01351128264 	-0.02243396968 	9.022835839e-08 	0.0280769786 	4.795569685e-08 	5.35225248e-05
0.2970347901 	-0.01345355029 	-0.02249958598 	8.566707303e-08 	0.02803823847 	4.779758286e-08 	5.344867534e-05
0.3020363598 	-0.0133946162 	-0.0225658314 	7.895089023e-08 	0.0279978298 	4.476582771e-08 	5.337164519e-05
0.307098782 	-0.0133352909 	-0.02263207405 	7.059861752e-08 	0.02795703423 	3.97657358e-08 	5.32938775e-05
0.3122178274 	-0.01327639844 	-0.0226976746 	6.111751468e-08 	0.02791689762 	3.409418061e-08 	5.321736597e-05
0.3173940061 	-0.01321822642 	-0.02276213005 	5.076415359e-08 	0.02787730763 	2.764092758e-08 	5.314189644e-05
0.3226284087 	-0.01316140571 	-0.02282477848 	4.004236059e-08 	0.02783877238 	2.093289612e-08 	5.306843755e-05
0.3279254551 	-0.01310672535 	-0.02288482183 	2.953071753e-08 	0.02780194622 	1.452148361e-08 	5.299823665e-05
0.3332816223 	-0.01305521832 	-0.02294124233 	1.98469286e-08 	0.02776769119 	8.905739945e-09 	5.293293703e-05
0.3386975697 	-0.01300798911 	-0.022992967 	1.155489836e-08 	0.02773690968 	4.463582838e-09 	5.287425892e-05
0.3441755749 	-0.012966022 	-0.02303906581 	5.103073124e-09 	0.02771040922 	1.451392267e-09 	5.282374169e-05
0.3497173251 	-0.01293006968 	-0.02307885211 	8.239934154e-10 	0.02768882043 	7.134650707e-11 	5.278258744e-05
0.3514027616 	-0.01292116604 	-0.023088837 	4.42114508e-06 	0.02768389129 	-6.041438336e-06 	5.277319115e-05
0.3553209274 	-0.01290048899 	-0.02311202679 	9.299167239e-10 	0.02767244998 	-5.818548511e-10 	5.275138081e-05
0.3609870718 	-0.01287706178 	-0.02313885321 	4.213017297e-10 	0.02766111855 	-2.768535865e-09 	5.272977997e-05
0.3667195497 	-0.01285898025 	-0.02316017348 	-1.637400775e-09 	0.02765414047 	-6.024374738e-09 	5.271647781e-05
0.3725166888 	-0.01284493475 	-0.02317731993 	-4.284833438e-09 	0.02765039561 	-9.527224957e-09 	5.270933906e-05
0.3783785302 	-0.01283325864 	-0.02319197472 	-6.484370114e-09 	0.02764846358 	-1.240834945e-08 	5.270565608e-05
0.3843071225 	-0.0128221574 	-0.02320594235 	-7.359842371e-09 	0.02764681996 	-1.393814027e-08 	5.270252289e-05
0.3903039129 	-0.01280997077 	-0.02322088774 	-6.35506396e-09 	0.02764405286 	-1.366094636e-08 	5.269724802e-05
0.396367634 	-0.01279540306 	-0.02323810819 	-3.348767453e-09 	0.02763906196 	-1.151105094e-08 	5.268773398e-05
0.4024993303 	-0.01277767748 	-0.02325838016 	1.317664542e-09 	0.02763119448 	-7.816639089e-09 	5.267273638e-05
0.4087021267 	-0.01275659495 	-0.02328189926 	6.937377852e-09 	0.02762029334 	-3.209692025e-09 	5.265195578e-05
0.4149741531 	-0.01273250124 	-0.02330831498 	1.261736889e-08 	0.02760666777 	1.499518793e-09 	5.262598164e-05
0.4213161813 	-0.01270616124 	-0.02333685975 	1.745941592e-08 	0.02759098629 	5.508934134e-09 	5.259608838e-05
0.4277313904 	-0.01267860671 	-0.02336650324 	2.070073169e-08 	0.02757414125 	8.137569161e-09 	5.256397706e-05
0.4342183981 	-0.0126509887 	-0.02339609183 	2.181945477e-08 	0.02755710637 	8.957525235e-09 	5.253150385e-05
0.4407778066 	-0.01262446119 	-0.02342447989 	2.052460156e-08 	0.02754084994 	7.584880148e-09 	5.250051457e-05
0.4474123577 	-0.01260001203 	-0.02345063633 	1.689141981e-08 	0.02752613228 	4.622907794e-09 	5.247245862e-05
0.4541212809 	-0.0125785051 	-0.02347370076 	1.106103805e-08 	0.02751357803 	-1.268605695e-09 	5.244852672e-05
0.4609050812 	-0.01256073716 	-0.02349289569 	4.27013338e-09 	0.02750408584 	-6.377228925e-09 	5.243043197e-05
0.4677663327 	-0.01254656372 	-0.02350789732 	-1.908664911e-09 	0.02749630094 	-6.880417993e-09 	5.241559179e-05
0.4747043718 	-0.01243871256 	-0.02343237913 	-5.475020626e-07 	0.0272880151 	1.216658929e-06 	5.20185411e-05
0.4817198836 	-0.01187070603 	-0.02292289824 	-1.200784093e-06 	0.02611181116 	2.640208638e-06 	4.977636947e-05
0.4888153226 	-0.01080229184 	-0.02191009217 	-1.390108625e-06 	0.02387078805 	2.935822912e-06 	4.550435656e-05
0.4959899515 	-0.009443381422 	-0.02053274892 	-1.574332033e-06 	0.02098748272 	3.138518793e-06 	4.000797523e-05
0.5031649243 	-0.007794380983 	-0.01870876682 	-1.716082763e-06 	0.01744658858 	3.150032831e-06 	3.325804686e-05
0.5102617754 	-0.005939577769 	-0.01639875645 	-1.789301742e-06 	0.0134110481 	2.920592766e-06 	2.556518509e-05
0.5172803182 	-0.004057195131 	-0.01364399861 	-1.760073645e-06 	0.009258057671 	2.430204285e-06 	1.764843106e-05
0.5242218659 	-0.002390397302 	-0.01061308524 	-1.606279605e-06 	0.005528937383 	1.759964331e-06 	1.053969134e-05
0.5310874576 	-0.001139823415 	-0.007578740128 	-1.294171812e-06 	0.002693617626 	1.037855835e-06 	5.134783847e-06
0.5378772912 	-0.0003635917103 	-0.004812392686 	-9.45316594e-07 	0.0009108361925 	4.995491625e-07 	1.736306937e-06
0.5445926252 	1.909934689e-05 	-0.002479230043 	-6.335807234e-07 	1.781367511e-05 	1.883367807e-07 	3.395781581e-08
0.5512342888 	0.0001440071706 	-0.0006118329612 	-3.896864772e-07 	-0.0002849379834 	4.726798492e-08 	-5.431709907e-07
0.557802664 	0.0001283620735 	0.0008467098578 	-2.14825568e-07 	-0.0002622273735 	2.691898272e-09 	-4.998782562e-07
0.5642988774 	4.678132387e-05 	0.001986857728 	-9.490477485e-08 	-8.451551951e-05 	2.425853781e-09 	-1.611100701e-07
0.5707237498 	-6.185156559e-05 	0.002897676153 	-1.285655764e-08 	0.0001586613824 	1.904671455e-08 	3.024526926e-07
0.577077725 	-0.0001808854845 	0.003654012566 	4.6051312e-08 	0.0004285590679 	4.122040244e-08 	8.169526952e-07
0.5833617689 	-0.0003058396357 	0.004315569571 	9.312240101e-08 	0.0007143766049 	6.598734659e-08 	1.36180036e-06
0.5895767917 	-0.0004387448001 	0.004930017126 	1.368136e-07 	0.001020331522 	9.443398931e-08 	1.945035467e-06
0.5957232321 	-0.0005855211397 	0.00553675683 	1.839187297e-07 	0.001359649833 	1.29913713e-07 	2.591870477e-06
0.6018018976 	-0.0007551591259 	0.00617037013 	2.405801655e-07 	0.001752666546 	1.777319743e-07 	3.341069565e-06
0.6078138169 	-0.0009599702086 	0.006863338708 	3.130515318e-07 	0.002227334788 	2.456589196e-07 	4.245919162e-06
0.6137593944 	-0.001216521555 	0.007647914997 	4.082874365e-07 	0.002821236166 	3.450035625e-07 	5.378060255e-06
0.6196393617 	-0.001546972551 	0.00855702354 	5.339777164e-07 	0.003584450641 	4.919647684e-07 	6.832959169e-06
0.625454667 	-0.001980219572 	0.009623168109 	6.98163403e-07 	0.004581795651 	7.089327768e-07 	8.734175955e-06
0.6312058611 	-0.002551846801 	0.01087448593 	9.059424169e-07 	0.005891992195 	1.022170794e-06 	1.123177472e-05
0.6368935895 	-0.003300585611 	0.01232679547 	1.153059896e-06 	0.007598659649 	1.452166075e-06 	1.448515723e-05
0.6425186168 	-0.004258563126 	0.01397163113 	1.419561902e-06 	0.009767311247 	1.995019374e-06 	1.861920992e-05
0.6480817161 	-0.005434662438 	0.01576464949 	1.666467417e-06 	0.01240789921 	2.600431146e-06 	2.365290449e-05
0.653583425 	-0.006796733164 	0.01762233596 	1.843808589e-06 	0.0154373532 	3.161060417e-06 	2.942788578e-05
0.6590244207 	-0.008264732784 	0.01943417659 	1.907241386e-06 	0.01866930966 	3.549254091e-06 	3.558889308e-05
0.6644054777 	-0.009725616526 	0.02108925452 	1.840091417e-06 	0.0218530181 	3.658775125e-06 	4.165792623e-05
0.6697271999 	-0.01106990753 	0.02250968047 	1.686541745e-06 	0.02475419171 	3.525917788e-06 	4.718836948e-05
0.6749901949 	-0.01202382078 	0.02348099206 	8.085929369e-07 	0.02680476877 	1.692357697e-06 	5.109733928e-05
0.6801951104 	-0.01233942045 	0.02381599093 	2.463670081e-08 	0.0274983593 	-2.162006781e-08 	5.24195156e-05
0.6853426864 	-0.01232662365 	0.02383117681 	2.153974551e-08 	0.02749393044 	-2.415794038e-08 	5.241107296e-05
0.6904334652 	-0.01231750625 	0.02384220702 	1.566588843e-08 	0.02749096265 	-1.819654996e-08 	5.240541553e-05
0.6954680649 	-0.0123128115 	0.02384923198 	9.270314987e-09 	0.02749212744 	-9.508776796e-09 	5.240763593e-05
0.7004471053 	-0.01231242965 	0.02385260635 	3.746714239e-09 	0.02749746088 	-3.671811942e-09 	5.241780297e-05
0.705371273 	-0.01231545389 	0.02385284746 	-1.44309645e-09 	0.02750574305 	2.352910178e-09 	5.243359109e-05
0.7102411011 	-0.01232163258 	0.02385027201 	-6.20404524e-09 	0.02751689364 	7.729689002e-09 	5.24548472e-05
0.715057188 	-0.01233056135 	0.02384520355 	-1.055892664e-08 	0.02753050135 	1.267443951e-08 	5.248078728e-05
0.7198201268 	-0.01234195253 	0.02383790211 	-1.447354114e-08 	0.02754632033 	1.708513867e-08 	5.251094265e-05
0.724530548 	-0.01235553463 	0.02382859763 	-1.793242434e-08 	0.02756409192 	2.095882556e-08 	5.254482024e-05
0.7291889935 	-0.01237105416 	0.02381750315 	-2.081034248e-08 	0.02758357041 	2.417711853e-08 	5.258195167e-05
0.7337960302 	-0.01238827601 	0.02380482627 	-2.277335854e-08 	0.02760453817 	2.64165846e-08 	5.262192204e-05
0.7383522256 	-0.0124068792 	0.02379081824 	-2.326521461e-08 	0.02762662928 	2.690246602e-08 	5.266403384e-05
0.7428581594 	-0.01242683629 	0.02377569598 	-2.184891762e-08 	0.02765010194 	2.554628763e-08 	5.270877926e-05
0.747314382 	-0.01244796917 	0.02375931294 	-2.019405418e-08 	0.02767424497 	2.401964026e-08 	5.275480257e-05
0.7517214274 	-0.01246582088 	0.02374526422 	-1.967307036e-08 	0.0276944234 	2.243314589e-08 	5.279326826e-05
0.7560798383 	-0.01247573397 	0.02373794615 	-1.752584201e-08 	0.02770683281 	1.853585345e-08 	5.281692404e-05
0.7603901521 	-0.01248111507 	0.02373420815 	-1.375936191e-08 	0.027714231 	1.349873155e-08 	5.283102705e-05
0.7646529193 	-0.01248726224 	0.02372956946 	-1.30374727e-08 	0.02772182865 	1.213798977e-08 	5.284551029e-05
0.7688686441 	-0.01249545047 	0.02372324548 	-1.650107731e-08 	0.027731551 	1.589937486e-08 	5.28640438e-05
0.7730378455 	-0.01250568853 	0.02371513841 	-2.128313164e-08 	0.02774335097 	2.160582135e-08 	5.288653782e-05
0.7771610371 	-0.01251809283 	0.02370515029 	-2.528160167e-08 	0.02775734148 	2.651517156e-08 	5.291320761e-05
0.78123873 	-0.01253288749 	0.02369310268 	-2.898522689e-08 	0.02777374196 	3.103860575e-08 	5.294447149e-05
0.7852714323 	-0.01255083359 	0.02367834782 	-3.477451422e-08 	0.02779334241 	3.797927018e-08 	5.298183538e-05
0.789259631 	-0.01257382129 	0.0236592426 	-4.582685981e-08 	0.02781809652 	5.115223982e-08 	5.302902361e-05
0.7932038172 	-0.01260512642 	0.02363291736 	-6.489254211e-08 	0.02785139906 	7.348266614e-08 	5.30925075e-05
0.7971044765 	-0.01264870483 	0.02359586892 	-9.169988864e-08 	0.02789738518 	1.062880601e-07 	5.318016984e-05
0.8009620913 	-0.01270671297 	0.02354604466 	-1.152073005e-07 	0.02795847703 	1.301560097e-07 	5.329662788e-05
0.8047771403 	-0.01277236977 	0.02348816196 	-1.157473505e-07 	0.02802543483 	1.280409286e-07 	5.342426806e-05
0.8085500876 	-0.01279768761 	0.02341178774 	-4.417387442e-07 	0.028018242 	-7.337500239e-07 	5.341055651e-05
0.8122813978 	-0.01265573421 	0.02322159008 	-5.761639134e-07 	0.02768522909 	-1.194459059e-06 	5.277574135e-05
0.8159715303 	-0.01244924429 	0.02299311571 	-3.586792074e-07 	0.02722808577 	-7.789356656e-07 	5.190429913e-05
0.8196209396 	-0.01230514281 	0.02282478163 	-3.212371267e-07 	0.02690216054 	-7.057548375e-07 	5.128299506e-05
0.8232300789 	-0.01216509523 	0.02266129249 	-2.879961312e-07 	0.02658627619 	-6.208043736e-07 	5.068083168e-05
0.8267993892 	-0.01203150968 	0.02250449538 	-2.612413928e-07 	0.02628482438 	-5.551334536e-07 	5.010618075e-05
0.8303293095 	-0.01190383882 	0.02235449297 	-2.38715104e-07 	0.02599658201 	-4.999285712e-07 	4.955671069e-05
0.8338202746 	-0.01178224837 	0.02221102482 	-2.182432883e-07 	0.0257217701 	-4.529717009e-07 	4.90328428e-05
0.8372727143 	-0.01166656332 	0.02207391577 	-1.985676829e-07 	0.0254599907 	-4.107486016e-07 	4.853381852e-05
0.8406870545 	-0.0115566024 	0.02194301728 	-1.79018857e-07 	0.02521086108 	-3.708143026e-07 	4.805890822e-05
0.8440637165 	-0.01145220676 	0.02181821515 	-1.593417598e-07 	0.02497405434 	-3.31679179e-07 	4.760748875e-05
0.8474031146 	-0.01135324917 	0.02169940981 	-1.395175609e-07 	0.0247493049 	-2.9264723e-07 	4.717905385e-05