0.4709558481 	-1.36982431e-07 	-6.86209269e-05 	2.537924387e-11 	3.09816302e-07 	-2.718783526e-13 	5.905959806e-10
0.4709558481 	-1.36982431e-07 	-6.86209269e-05 	2.537924388e-11 	3.09816302e-07 	-2.718783526e-13 	5.905959806e-10
0.4711314108 	-1.6615888e-06 	-0.0002274907132 	8.855621105e-11 	3.757999724e-06 	-3.321572204e-12 	7.163791956e-09
0.4713069734 	-1.123096929e-05 	-0.0006367656654 	2.612990025e-10 	2.539913014e-05 	-2.285491562e-11 	4.841780137e-08
0.471482536 	-4.504318818e-05 	-0.00132238327 	5.708765787e-10 	0.0001018497796 	-9.418149025e-11 	1.941539877e-07
0.4716580986 	-0.0001307557117 	-0.002294194478 	1.038027957e-09 	0.0002955557801 	-2.821776279e-10 	5.634114624e-07
0.4718336613 	-0.0003056923906 	-0.003542268461 	1.671698703e-09 	0.0006905170997 	-6.8115189e-10 	1.316317511e-06
0.4720092239 	-0.0006118195672 	-0.005039602725 	2.468567485e-09 	0.00138047144 	-1.405169683e-09 	2.631562247e-06
0.4721847865 	-0.00108715255 	-0.006740258529 	3.413571209e-09 	0.002448839825 	-2.568474503e-09 	4.668169326e-06
0.4723603491 	-0.001754514659 	-0.008578876108 	4.48349377e-09 	0.003942911912 	-4.260431086e-09 	7.51628598e-06
0.4725359118 	-0.002610883323 	-0.01047455166 	5.652896061e-09 	0.005850234851 	-6.523865834e-09 	1.115217361e-05
0.4727114744 	-0.003622212438 	-0.01233985243 	6.899606493e-09 	0.008088646304 	-9.345051054e-09 	1.541920798e-05
0.472887037 	-0.004727599837 	-0.01409319925 	8.206804404e-09 	0.01051814569 	-1.265727349e-08 	2.005050906e-05
0.4730625996 	-0.005852495684 	-0.01567079075 	9.560750037e-09 	0.01297246427 	-1.635309959e-08 	2.472912241e-05
0.4732381623 	-0.006925774119 	-0.01703406832 	1.094601559e-08 	0.01529738813 	-2.029881854e-08 	2.916107347e-05
0.4734137249 	-0.007893643264 	-0.01817072429 	1.234147391e-08 	0.01738006366 	-2.434786933e-08 	3.313123188e-05
0.4735892875 	-0.008725877083 	-0.01909010374 	1.371941049e-08 	0.01916040669 	-2.835337336e-08 	3.652506052e-05
0.4737648501 	-0.009414358367 	-0.01981572629 	1.504797882e-08 	0.02062595675 	-3.218011504e-08 	3.931880626e-05
0.4739404128 	-0.009967053877 	-0.02037777709 	1.629551579e-08 	0.02179772508 	-3.571480931e-08 	4.155252236e-05
0.4741159754 	-0.01040098553 	-0.02080733327 	1.743482233e-08 	0.02271476334 	-3.887283621e-08 	4.330065216e-05
0.474291538 	-0.01073646981 	-0.02113282055 	1.844610658e-08 	0.02342199321 	-4.160046395e-08 	4.464882886e-05
0.4744671006 	-0.01099337164 	-0.02137836954 	1.93181655e-08 	0.02396254263 	-4.387295948e-08 	4.56792663e-05
0.4746426632 	-0.01118916091 	-0.02156345205 	2.004803039e-08 	0.02437392395 	-4.56898967e-08 	4.646347343e-05
0.4748182259 	-0.01133821947 	-0.02170322481 	2.063958833e-08 	0.02468679602 	-4.706915917e-08 	4.705989455e-05
0.4749937885 	-0.01145186959 	-0.02180917677 	2.110170001e-08 	0.02492517619 	-4.80408284e-08 	4.751431342e-05
0.4751693511 	-0.01153874516 	-0.02188984207 	2.1446214e-08 	0.02510731581 	-4.864168937e-08 	4.786152215e-05
0.4753449137 	-0.01160527588 	-0.02195146057 	2.168613172e-08 	0.02524677336 	-4.891070531e-08 	4.812736701e-05
0.4755204764 	-0.01165616824 	-0.02199853744 	2.183406751e-08 	0.02535345599 	-4.888552776e-08 	4.833073375e-05
0.475696039 	-0.01169479723 	-0.02203430381 	2.190103136e-08 	0.02543446158 	-4.860042618e-08 	4.848515292e-05
0.4758716016 	-0.01172371258 	-0.02206106992 	2.189559308e-08 	0.0254951378 	-4.808322289e-08 	4.860081866e-05
0.4760471642 	-0.01174270116 	-0.02207867305 	2.183325114e-08 	0.02553505089 	-4.737426132e-08 	4.86769041e-05
0.4762227269 	-0.01176599019 	-0.02210050205 	2.16452304e-08 	0.02558402016 	-4.625672509e-08 	4.877025313e-05
0.4764955107 	-0.01178440662 	-0.02211804533 	2.142307237e-08 	0.02562289556 	-4.482047487e-08 	4.884436045e-05
0.4767734216 	-0.01178854346 	-0.02212239951 	2.126452967e-08 	0.02563196834 	-4.334502867e-08 	4.886165569e-05
0.4770565557 	-0.01179121562 	-0.02212557691 	2.10944342e-08 	0.02563804107 	-4.177388815e-08 	4.887323201e-05
0.4773450114 	-0.01179060913 	-0.02212594628 	2.089661895e-08 	0.02563732501 	-4.007409701e-08 	4.887186699e-05
0.4776388886 	-0.01178774469 	-0.02212430849 	2.064213039e-08 	0.02563194591 	-3.81884019e-08 	4.886161294e-05
0.4779382892 	-0.01178312704 	-0.02212117712 	2.030579878e-08 	0.0256229641 	-3.607038026e-08 	4.884449111e-05
0.4782433171 	-0.0117771131 	-0.0221168712 	1.98654686e-08 	0.02561112567 	-3.367996103e-08 	4.882192376e-05
0.4785540779 	-0.01176992198 	-0.02211159023 	1.93013568e-08 	0.02559688836 	-3.098302522e-08 	4.87947835e-05
0.4788706795 	-0.01176168726 	-0.0221054535 	1.859570805e-08 	0.02558053037 	-2.795050537e-08 	4.876360062e-05
0.4791932316 	-0.01175248839 	-0.02209853034 	1.773260279e-08 	0.02556221608 	-2.45579003e-08 	4.87286885e-05
0.4795218461 	-0.01174237388 	-0.02209086069 	1.669790194e-08 	0.02554204458 	-2.078504057e-08 	4.869023602e-05
0.4798566368 	-0.01173137663 	-0.02208246924 	1.547928319e-08 	0.02552008171 	-1.6616051e-08 	4.864836868e-05
0.48019772 	-0.01171952391 	-0.02207337472 	1.406632957e-08 	0.02549638104 	-1.20394155e-08 	4.860318861e-05
0.4805452138 	-0.01170684346 	-0.02206359559 	1.245063652e-08 	0.02547099676 	-7.048076146e-09 	4.855479911e-05
0.4808992388 	-0.01169336697 	-0.02205315333 	1.06259125e-08 	0.02544399092 	-1.63951653e-09 	4.850331848e-05
0.4812599177 	-0.01167913157 	-0.02204207401 	8.588057428e-09 	0.02541543676 	4.184200594e-09 	4.844888633e-05
0.4816273755 	-0.0116641802 	-0.02203038879 	6.335210811e-09 	0.02538541948 	1.041645498e-08 	4.839166505e-05
0.4820017397 	-0.01164856114 	-0.02201813361 	3.867766744e-09 	0.0253540354 	1.704615257e-08 	4.833183827e-05
0.48238314 	-0.01163232713 	-0.02200534859 	1.18835728e-09 	0.02532139022 	2.405786495e-08 	4.826960747e-05
0.4827717088 	-0.01161553431 	-0.02199207712 	-1.698192093e-09 	0.02528759678 	3.143201462e-08 	4.820518778e-05
0.4831675807 	-0.01159824104 	-0.02197836494 	-4.784931104e-09 	0.02525277274 	3.91450969e-08 	4.813880349e-05
0.4835708931 	-0.01158050677 	-0.02196425918 	-8.062871297e-09 	0.02521703828 	4.716992477e-08 	4.807068368e-05
0.4839817856 	-0.01156239107 	-0.02194980755 	-1.1521085e-08 	0.02518051404 	5.547588569e-08 	4.800105832e-05
0.4844004009 	-0.01154395274 	-0.02193505752 	-1.514681438e-08 	0.0251433193 	6.40292066e-08 	4.79301548e-05
0.4848268841 	-0.01152524909 	-0.02192005573 	-1.892558613e-08 	0.02510557051 	7.279322006e-08 	4.785819512e-05
0.485261383 	-0.01150633537 	-0.0219048475 	-2.284132726e-08 	0.02506738011 	8.1728624e-08 	4.778539361e-05
0.4857040484 	-0.01148726439 	-0.02188947637 	-2.687648086e-08 	0.02502885571 	9.079373522e-08 	4.77119554e-05
0.4861550336 	-0.01146808624 	-0.02187398393 	-3.10121206e-08 	0.02499009947 	9.994473738e-08 	4.763807522e-05
0.4866144951 	-0.01144884813 	-0.02185840958 	-3.522806331e-08 	0.02495120781 	1.091359239e-07 	4.756393692e-05
0.4870825921 	-0.01142959441 	-0.02184279053 	-3.950297925e-08 	0.02491227139 	1.183199381e-07 	4.748971327e-05
0.487559487 	-0.01141036662 	-0.02182716175 	-4.38145008e-08 	0.02487337513 	1.274480129e-07 	4.741556619e-05
0.4880453452 	-0.01139120361 	-0.02181155614 	-4.813933103e-08 	0.02483459857 	1.364702155e-07 	4.73416473e-05
0.4885403351 	-0.01137214178 	-0.02179600462 	-5.245335324e-08 	0.02479601626 	1.453357e-07 	4.726809869e-05
0.4890446283 	-0.01135321532 	-0.02178053635 	-5.673174337e-08 	0.02475769825 	1.539929708e-07 	4.719505391e-05
0.4895583997 	-0.01133445649 	-0.02176517897 	-6.09490871e-08 	0.02471971068 	1.623901612e-07 	4.712263905e-05
0.4900818274 	-0.01131589594 	-0.02174995883 	-6.507950394e-08 	0.02468211641 	1.704753308e-07 	4.705097393e-05
0.4906150929 	-0.01129756297 	-0.02173490129 	-6.909677966e-08 	0.02464497564 	1.781967817e-07 	4.698017329e-05
0.4911583811 	-0.01127948588 	-0.02172003098 	-7.297450918e-08 	0.02460834651 	1.855033958e-07 	4.691034798e-05
0.4917118805 	-0.01126169218 	-0.02170537205 	-7.668625119e-08 	0.02457228568 	1.92344995e-07 	4.684160601e-05
0.4922757829 	-0.01124420888 	-0.02169094842 	-8.020569529e-08 	0.02453684884 	1.9867272e-07 	4.677405356e-05
0.4928502838 	-0.01122706261 	-0.02167678401 	-8.350684255e-08 	0.02450209114 	2.044394294e-07 	4.670779571e-05
0.4934355824 	-0.01121027982 	-0.02166290283 	-8.656419925e-08 	0.02446806741 	2.096001144e-07 	4.664293703e-05
0.4940318817 	-0.01119388674 	-0.02164932916 	-8.935298324e-08 	0.02443483237 	2.141123257e-07 	4.657958181e-05
0.4946393885 	-0.01117790941 	-0.02163608754 	-9.184934177e-08 	0.02440244053 	2.179366093e-07 	4.651783395e-05
0.4952583133 	-0.01116237352 	-0.02162320266 	-9.403057878e-08 	0.02437094595 	2.210369436e-07 	4.645779653e-05
0.4958888709 	-0.01114730412 	-0.02161069925 	-9.587538893e-08 	0.02434040174 	2.233811738e-07 	4.639957079e-05
0.4965312797 	-0.01113272526 	-0.02159860172 	-9.736409556e-08 	0.02431085928 	2.249414364e-07 	4.634325465e-05
0.4971857627 	-0.01111865942 	-0.02158693372 	-9.847888851e-08 	0.02428236711 	2.256945672e-07 	4.628894065e-05
0.4978525466 	-0.01110512688 	-0.02157571757 	-9.92040578e-08 	0.02425496954 	2.256224864e-07 	4.623671327e-05
0.4985318627 	-0.01109214481 	-0.02156497342 	-9.952621882e-08 	0.02422870487 	2.247125536e-07 	4.61866455e-05
0.4992239466 	-0.01107972629 	-0.02155471837 	-9.94345251e-08 	0.02420360328 	2.229578888e-07 	4.613879489e-05
0.4999290382 	-0.01106787917 	-0.02154496533 	-9.892086535e-08 	0.02417968443 	2.203576544e-07 	4.609319893e-05
0.5006473819 	-0.01105660485 	-0.02153572181 	-9.798004279e-08 	0.02415695492 	2.169172973e-07 	4.604987016e-05
0.501379227 	-0.01104589725 	-0.02152698872 	-9.660993842e-08 	0.02413540595 	2.126487497e-07 	4.600879184e-05
0.502124827 	-0.01103574145 	-0.0215187594 	-9.481165884e-08 	0.0241150106 	2.075706352e-07 	4.596991262e-05
0.5028844406 	-0.01102611322 	-0.02151101866 	-9.258967796e-08 	0.0240957226 	2.017084928e-07 	4.593314433e-05
0.5036583311 	-0.0110169679 	-0.02150374621 	-8.995193463e-08 	0.02407745424 	1.950953653e-07 	4.589831976e-05
0.5044467669 	-0.01100830168 	-0.02149690691 	-8.691031829e-08 	0.02406019914 	1.877689145e-07 	4.586542674e-05
0.5052500214 	-0.01099987289 	-0.02149027088 	-8.348177098e-08 	0.02404345369 	1.797755849e-07 	4.583350527e-05
0.506068373 	-0.010994514 	-0.02148684224 	-7.90549728e-08 	0.02403331328 	1.698076217e-07 	4.581417483e-05
0.507324668 	-0.01098700696 	-0.02148176198 	-7.314174886e-08 	0.02401892699 	1.568764422e-07 	4.578675056e-05
0.5085949819 	-0.01097470424 	-0.02147222634 	-6.631560655e-08 	0.02399459358 	1.423519159e-07 	4.574036432e-05
0.5098794711 	-0.01096282515 	-0.0214631758 	-5.906331331e-08 	0.0239711896 	1.273451679e-07 	4.569574982e-05
0.5111782938 	-0.01095099024 	-0.02145428486 	-5.150777469e-08 	0.02394794034 	1.120919999e-07 	4.565143027e-05
0.5124916099 	-0.01093924276 	-0.02144556992 	-4.376723015e-08 	0.02392495 	9.681172094e-08 	4.56076043e-05
0.5138195812 	-0.01092756114 	-0.02143705917 	-3.595578011e-08 	0.02390219024 	8.17116751e-08 	4.556421788e-05
0.5151623712 	-0.01091594972 	-0.02142877448 	-2.818209036e-08 	0.02387968146 	6.698190351e-08 	4.552130988e-05
0.5165201452 	-0.01090441712 	-0.02142073765 	-2.054776894e-08 	0.02385744979 	5.279417038e-08 	4.547893013e-05
0.5178930705 	-0.01089297596 	-0.02141296874 	-1.314613648e-08 	0.02383552659 	3.930070261e-08 	4.543713842e-05
0.5192813161 	-0.01088164076 	-0.02140548499 	-6.06125553e-09 	0.02381394423 	2.663336517e-08 	4.539599644e-05
0.520685053 	-0.01087042663 	-0.02139829962 	6.327919961e-10 	0.02379273359 	1.490319774e-08 	4.535556306e-05
0.522104454 	-0.01085934802 	-0.02139142114 	6.872406085e-09 	0.02377192169 	4.200305421e-09 	4.531588981e-05
0.523539694 	-0.0108484178 	-0.02138485289 	1.260476801e-08 	0.02375153002 	-5.405947659e-09 	4.527701761e-05
0.5249909497 	-0.01083764654 	-0.02137859284 	1.778795581e-08 	0.02373157334 	-1.386647399e-08 	4.523897464e-05
0.5264583998 	-0.01082704196 	-0.02137263359 	2.23908898e-08 	0.02371205882 	-2.115175056e-08 	4.520177454e-05
0.527942225 	-0.0108166083 	-0.02136696229 	2.639311742e-08 	0.02369298503 	-2.725087269e-08 	4.51654146e-05
0.5294426081 	-0.01080634558 	-0.02136156039 	2.978444357e-08 	0.02367434067 	-3.217038195e-08 	4.512987326e-05
0.5309597337 	-0.0107962485 	-0.02135640318 	3.256441025e-08 	0.02365610264 	-3.593287314e-08 	4.509510651e-05
0.5324937889 	-0.01078630507 	-0.02135145891 	3.474162929e-08 	0.0236382334 	-3.857538638e-08 	4.506104277e-05
0.5340449624 	-0.01077649478 	-0.02134668753 	3.633297188e-08 	0.0236206774 	-4.014759069e-08 	4.502757615e-05
0.5356134452 	-0.01076678634 	-0.02134203895 	3.736262083e-08 	0.02360335668 	-4.070977042e-08 	4.499455804e-05
0.5371994306 	-0.01075713515 	-0.02133745098 	3.786099326e-08 	0.02358616564 	-4.033062889e-08 	4.496178715e-05
0.5388031139 	-0.0107474804 	-0.02133284687 	3.786354357e-08 	0.02356896528 	-3.908492669e-08 	4.492899849e-05
0.5404246925 	-0.0107377421 	-0.02132813273 	3.740945813e-08 	0.02355157705 	-3.705097412e-08 	4.489585168e-05
0.5420643661 	-0.01072781818 	-0.0213231949 	3.654025369e-08 	0.02353377684 	-3.430799632e-08 	4.486191952e-05
0.5437223366 	-0.01071758181 	-0.02131789744 	3.52982906e-08 	0.02351528945 	-3.093338702e-08 	4.482667743e-05
0.5453988083 	-0.01070687914 	-0.02131208 	3.372520925e-08 	0.02349578392 	-2.699985996e-08 	4.478949448e-05
0.5470939875 	-0.01069552774 	-0.0213055561 	3.186029415e-08 	0.02347487004 	-2.257250101e-08 	4.47496268e-05
0.5488080831 	-0.01068331559 	-0.02129811197 	2.973876476e-08 	0.02345209621 	-1.770571628e-08 	4.470621355e-05
0.5505413061 	-0.01067000084 	-0.02128950589 	2.738998841e-08 	0.02342694873 	-1.244007245e-08 	4.465827546e-05
0.5522938699 	-0.01065531211 	-0.02127946787 	2.483561107e-08 	0.02339885213 	-6.799039329e-09 	4.460471553e-05
0.5540659904 	-0.01063894915 	-0.02126769961 	2.208761004e-08 	0.02336717018 	-7.856815874e-10 	4.454432093e-05
0.5558578859 	-0.01062058354 	-0.02125387419 	1.914629731e-08 	0.02333120692 	5.620576403e-09 	4.447576497e-05
0.5576697768 	-0.01059985905 	-0.02123763535 	1.59983493e-08 	0.0232902069 	1.246686485e-08 	4.439760753e-05
0.5595018865 	-0.01057639133 	-0.02121859584 	1.261501559e-08 	0.02324335381 	1.982903469e-08 	4.430829252e-05
0.5613544406 	-0.01054976637 	-0.02119633452 	8.950769871e-09 	0.02318976666 	2.78124255e-08 	4.420614051e-05
0.563227667 	-0.01051953751 	-0.0211703918 	4.942802105e-09 	0.02312849268 	3.655036567e-08 	4.408933528e-05
0.5651217966 	-0.01048522038 	-0.02114026308 	5.11879203e-10 	0.02305849607 	4.619942366e-08 	4.395590228e-05
0.5670370626 	-0.01044628539 	-0.02110538975 	-4.434849192e-09 	0.02297864153 	5.69306078e-08 	4.380367734e-05
0.5689737009 	-0.01040214707 	-0.02106514697 	-9.998678618e-09 	0.02288767136 	6.891644088e-08 	4.363026292e-05
0.5709319499 	-0.01035214941 	-0.02101882757 	-1.628192287e-08 	0.02278417421 	8.231538301e-08 	4.343296859e-05
0.5729120508 	-0.01029554621 	-0.02096562058 	-2.337941723e-08 	0.02266654341 	9.725753711e-08 	4.320873158e-05
0.5749142474 	-0.01023147555 	-0.02090458281 	-3.137176122e-08 	0.02253292244 	1.138385208e-07 	4.295401287e-05
0.5769387863 	-0.01015892764 	-0.02083460179 	-4.032489413e-08 	0.02238113587 	1.321304373e-07 	4.266466548e-05
0.5789859169 	-0.01007670689 	-0.02075434869 	-5.030145805e-08 	0.02220860604 	1.522174202e-07 	4.233577567e-05
0.5810558911 	-0.009983390472 	-0.02066222121 	-6.138751796e-08 	0.02201225963 	1.742549876e-07 	4.196148484e-05
0.583148964 	-0.009877288542 	-0.02055627915 	-7.373158913e-08 	0.02178843368 	1.985355602e-07 	4.153481038e-05
0.5852653933 	-0.009756413207 	-0.02043417811 	-8.758136109e-08 	0.02153279613 	2.25521209e-07 	4.104749415e-05
0.5874054395 	-0.009618463467 	-0.02029310943 	-1.032909985e-07 	0.02124029729 	2.557879282e-07 	4.048991008e-05
0.5895693664 	-0.009460831385 	-0.0201297554 	-1.212642879e-07 	0.02090516704 	2.89849935e-07 	3.985105866e-05
0.5917574402 	-0.009280582709 	-0.01994021896 	-1.418234775e-07 	0.02052086289 	3.278837809e-07 	3.911846815e-05
0.5939699306 	-0.009074096059 	-0.01971958457 	-1.658116503e-07 	0.02007929641 	3.70973422e-07 	3.827671971e-05
0.5962071099 	-0.008836715219 	-0.01946144451 	-1.937527261e-07 	0.01957008584 	4.195074115e-07 	3.730602284e-05
0.5984692536 	-0.008563943239 	-0.01915905524 	-2.24416705e-07 	0.01898310381 	4.705022431e-07 	3.618707194e-05
0.6007566404 	-0.008252570478 	-0.01880645361 	-2.567410399e-07 	0.0183108893 	5.214866361e-07 	3.490564426e-05
0.6030695519 	-0.007899763975 	-0.0183972763 	-2.909274568e-07 	0.01754667377 	5.723846398e-07 	3.344883705e-05
0.6054082729 	-0.007502522184 	-0.01792385991 	-3.276526319e-07 	0.01668316388 	6.235680709e-07 	3.18027472e-05
0.6077730914 	-0.007058376767 	-0.01737763553 	-3.676760114e-07 	0.01571401183 	6.74904061e-07 	2.995527402e-05
0.6101642987 	-0.006564863989 	-0.01674795014 	-4.111316031e-07 	0.01463267446 	7.244886685e-07 	2.789394447e-05
0.6125821893 	-0.00602418347 	-0.01602771021 	-4.569721395e-07 	0.01344263316 	7.683586788e-07 	2.5625395e-05
0.6150270608 	-0.005442949148 	-0.01521312259 	-5.031099291e-07 	0.01215700937 	8.013904548e-07 	2.317463873e-05
0.6174992144 	-0.004826481958 	-0.01429585623 	-5.470656884e-07 	0.01078625785 	8.183759403e-07 	2.056160534e-05
0.6199989545 	-0.004185972466 	-0.01327300184 	-5.865218518e-07 	0.009353997435 	8.152878176e-07 	1.783131892e-05
0.622526589 	-0.003540262262 	-0.0121513683 	-6.192109467e-07 	0.00790120633 	7.894460777e-07 	1.506189529e-05
0.625082429 	-0.002911047825 	-0.01094354832 	-6.424019543e-07 	0.006475986893 	7.393317543e-07 	1.234503093e-05
0.6276667894 	-0.00232175297 	-0.009669978596 	-6.530857015e-07 	0.005131248734 	6.657796617e-07 	9.781586244e-06
0.6302799884 	-0.001794208044 	-0.008357814883 	-6.493530317e-07 	0.003917313058 	5.734339267e-07 	7.467487449e-06
0.6329223478 	-0.001345108521 	-0.007037707066 	-6.314699404e-07 	0.002873711371 	4.703681877e-07 	5.47809258e-06
0.6355941931 	-0.0009836852217 	-0.005740044758 	-6.014813969e-07 	0.002023501768 	3.656453499e-07 	3.857356773e-06
0.6382958531 	-0.0007113612491 	-0.004492095073 	-5.626290672e-07 	0.00137200215 	2.672242341e-07 	2.615417427e-06
0.6410276607 	-0.0005227137142 	-0.00331523723 	-5.187337527e-07 	0.0009086256209 	1.806680941e-07 	1.732092973e-06
0.6437899523 	-0.0004075171821 	-0.002223495122 	-4.733233296e-07 	0.000611388264 	1.086194175e-07 	1.165475958e-06
0.646583068 	-0.0003532034322 	-0.001223861548 	-4.291203444e-07 	0.0004525196913 	5.124567518e-08 	8.62628303e-07
0.6494073518 	-0.0003469078892 	-0.0003174640514 	-3.879267589e-07 	0.0004032212556 	7.11924634e-09 	7.686517828e-07
0.6522631514 	-0.0003768377649 	0.0004988700499 	-3.507186482e-07 	0.0004368992811 	-2.593615315e-08 	8.328514596e-07
0.6551508186 	-0.0004329666611 	0.001231073239 	-3.178386581e-07 	0.0005308459512 	-5.023270541e-08 	1.011939924e-06
0.658070709 	-0.00050722197 	0.001886558027 	-2.892025155e-07 	0.0006667357578 	-6.786668083e-08 	1.270983664e-06
0.6610231822 	-0.0005933631979 	0.002473273331 	-2.64474587e-07 	0.0008303921266 	-8.057007418e-08 	1.582958189e-06
0.6640086017 	-0.000686713718 	0.002999077977 	-2.431982115e-07 	0.001011201544 	-8.968911723e-08 	1.927631191e-06
0.6670273351 	-0.0007838534012 	0.003471369873 	-2.248826006e-07 	0.001201426442 	-9.622681851e-08 	2.290252717e-06
0.6700797543 	-0.0008823310234 	0.003896900152 	-2.090548372e-07 	0.00139555575 	-1.009083773e-07 	2.660317134e-06
0.6731662352 	-0.0009804215609 	0.00428170958 	-1.95286945e-07 	0.001589753427 	-1.042470385e-07 	3.030511881e-06
0.6762871577 	-0.001076933766 	0.004631138928 	-1.832067851e-07 	0.001781419168 	-1.066005991e-07 	3.395880054e-06
0.6794429063 	-0.001171063812 	0.004949879608 	-1.724993673e-07 	0.001968852741 	-1.082159311e-07 	3.753180539e-06
0.6826338695 	-0.001262287277 	0.005242042749 	-1.629030239e-07 	0.002151004873 	-1.092622744e-07 	4.100413129e-06
0.6858604404 	-0.00135028136 	0.005511233607 	-1.542032235e-07 	0.00232729643 	-1.098552722e-07 	4.436473834e-06
0.6891230163 	-0.001434870168 	0.005760623992 	-1.462256409e-07 	0.002497489674 	-1.100738857e-07 	4.76090946e-06
0.6924219988 	-0.00151598725 	0.005993019126 	-1.388293604e-07 	0.002661598392 	-1.099720592e-07 	5.073746288e-06
0.6957577944 	-0.001593650818 	0.006210917574 	-1.319006369e-07 	0.002819826644 	-1.09586617e-07 	5.375373314e-06
0.6991308138 	-0.001667948196 	0.00641656416 	-1.253473803e-07 	0.002972528418 	-1.089425001e-07 	5.666465337e-06
0.7025414724 	-0.001739026857 	0.006611996469 	-1.190943816e-07 	0.003120182451 	-1.080561368e-07 	5.947934962e-06
0.7059901901 	-0.00180709009 	0.006799085835 	-1.13079224e-07 	0.003263378044 	-1.069375057e-07 	6.220905561e-06
0.7094773917 	-0.00187239586 	0.00697957384 	-1.072487864e-07 	0.0034028089 	-1.055912778e-07 	6.486699525e-06
0.7130035066 	-0.001935257836 	0.007155105338 	-1.015556406e-07 	0.003539272904 	-1.040169364e-07 	6.746837845e-06
0.7165689691 	-0.001996048026 	0.007327259169 	-9.595655642e-08 	0.003673676778 	-1.022095075e-07 	7.003048984e-06
0.7201742182 	-0.002055200647 	0.007497576631 	-9.041042643e-08 	0.003807044438 	-1.001581436e-07 	7.257284811e-06
0.7238196978 	-0.002113217622 	0.00766758871 	-8.487503042e-08 	0.003940529881 	-9.784467963e-08 	7.511745166e-06
0.727505857 	-0.002170674391 	0.007838842007 	-7.930742163e-08 	0.004075432031 	-9.524535801e-08 	7.768906158e-06
0.7312331497 	-0.002228236548 	0.008012949761 	-7.366565864e-08 	0.004213234609 	-9.233200943e-08 	8.031596173e-06
0.7350020349 	-0.002286444686 	0.008190990558 	-6.792102856e-08 	0.004355102324 	-8.90753628e-08 	8.302035468e-06
0.7387709215 	-0.002345513571 	0.008372860762 	-6.206291681e-08 	0.004501346902 	-8.544498657e-08 	8.58081828e-06
0.7424982157 	-0.00240580897 	0.008558546072 	-5.607149978e-08 	0.004652490942 	-8.140369825e-08 	8.868940828e-06
0.7461843763 	-0.002468145712 	0.008749092516 	-4.990427161e-08 	0.004810050288 	-7.690513694e-08 	9.169292734e-06
0.7498298574 	-0.002533476306 	0.008945843552 	-4.350739565e-08 	0.004975872642 	-7.18916702e-08 	9.485396228e-06
0.7534351078 	-0.00260274123 	0.009150023603 	-3.68225708e-08 	0.005151787301 	-6.62935713e-08 	9.820738461e-06
0.7570005716 	-0.002676876422 	0.009362764934 	-2.979021301e-08 	0.005339624415 	-6.003114411e-08 	1.017880821e-05
0.7605266877 	-0.002756808271 	0.00958509991 	-2.235020808e-08 	0.005541205165 	-5.301470892e-08 	1.056307714e-05
0.7640138905 	-0.002843447053 	0.009817950401 	-1.444303006e-08 	0.005758327699 	-4.514506293e-08 	1.097697304e-05
0.7674626093 	-0.002937678292 	0.01006211356 	-6.011194449e-09 	0.005992747778 	-3.631442009e-08 	1.142384286e-05
0.770873269 	-0.00304035172 	0.01031824452 	2.998901676e-09 	0.006246153472 	-2.640810807e-08 	1.190690455e-05
0.7742462894 	-0.003152267429 	0.0105868368 	1.263470155e-08 	0.00652013324 	-1.530722148e-08 	1.242918613e-05
0.777582086 	-0.0032741591 	0.01086820138 	2.293473878e-08 	0.006816137263 	-2.892460206e-09 	1.299345207e-05
0.7808810695 	-0.003406674392 	0.01116244566 	3.392541313e-08 	0.007135432416 	1.095064006e-08 	1.360211738e-05
0.7841436462 	-0.003550352905 	0.01146945388 	4.561734104e-08 	0.007479051972 	2.632493677e-08 	1.425715175e-05
0.787370218 	-0.003705602482 	0.01178887073 	5.800140334e-08 	0.007847741896 	4.331333606e-08 	1.495997722e-05
0.7905611821 	-0.00387267496 	0.01212008964 	7.104470551e-08 	0.008241906395 	6.196902327e-08 	1.571136431e-05
0.7937169314 	-0.004051642846 	0.01246224777 	8.468676991e-08 	0.008661556097 	8.230466147e-08 	1.651133327e-05
0.7968378547 	-0.004242378618 	0.01281422883 	9.883638078e-08 	0.009106262776 	1.042812458e-07 	1.735906781e-05
0.7999243362 	-0.004444538517 	0.01317467487 	1.133695803e-07 	0.009575124799 	1.277976097e-07 	1.825284914e-05
0.8029767561 	-0.004657552621 	0.01354200754 	1.281293387e-07 	0.01006674725 	1.526818415e-07 	1.919001817e-05
0.8059954902 	-0.00488062278 	0.01391445846 	1.429273703e-07 	0.01057924016 	1.786860131e-07 	2.016697208e-05
0.8089809102 	-0.005112729535 	0.01429010794 	1.575484249e-07 	0.01111023707 	2.054855816e-07 	2.117919979e-05
0.8119333839 	-0.005352648553 	0.01466693039 	1.717571419e-07 	0.01165693501 	2.326845309e-07 	2.222135801e-05
0.8148532749 	-0.005598976383 	0.01504284445 	1.853072498e-07 	0.01221615494 	2.598267829e-07 	2.328738662e-05
0.8177409426 	-0.005850164606 	0.01541576527 	1.979525533e-07 	0.01278442041 	2.864136592e-07 	2.437065855e-05
0.8205967427 	-0.006104560739 	0.01578365647 	2.094588525e-07 	0.01335805048 	3.119263438e-07 	2.546415689e-05
0.8234210268 	-0.006360453726 	0.01614457923 	2.196157369e-07 	0.01393326169 	3.358515238e-07 	2.656066933e-05
0.8262141429 	-0.006616121437 	0.01649673612 	2.28247143e-07 	0.01450627339 	3.577078377e-07 	2.76529889e-05
0.8289764348 	-0.006869877509 	0.016838508 	2.352196802e-07 	0.01507341031 	3.770705625e-07 	2.87341095e-05
0.8317082427 	-0.007120114965 	0.01716848236 	2.404479929e-07 	0.01563119679 	3.935921706e-07 	2.979740555e-05
0.8344099031 	-0.007365344389 	0.01748547271 	2.438967969e-07 	0.01617643794 	4.070169434e-07 	3.083678672e-05
0.8370817486 	-0.007604224957 	0.01778852849 	2.455796253e-07 	0.01670628423 	4.171886363e-07 	3.184682101e-05
0.8397241082 	-0.007835587281 	0.01807693628 	2.455546822e-07 	0.01721827747 	4.240510734e-07 	3.282282244e-05
0.8423373074 	-0.008058447665 	0.01835021294 	2.439184666e-07 	0.01771037768 	4.27642362e-07 	3.376090221e-05
0.844921668 	-0.008272014009 	0.01860809215 	2.407979741e-07 	0.0181809716 	4.280840237e-07 	3.465798501e-05
0.8474775082 	-0.008475684149 	0.01885050564 	2.363422987e-07 	0.01862886493 	4.255666744e-07 	3.551179418e-05
0.8500051427 	-0.008669037765 	0.01907756096 	2.307143674e-07 	0.01905326092 	4.203339545e-07 	3.63208109e-05
0.8525048829 	-0.008851823243 	0.019289517 	2.240833854e-07 	0.01945372854 	4.126662517e-07 	3.708421348e-05
0.8549770366 	-0.009023940954 	0.01948675888 	2.1661838e-07 	0.01983016339 	4.028654499e-07 	3.780180293e-05
0.8574219081 	-0.009185424324 	0.01966977324 	2.084830428e-07 	0.02018274456 	3.912415636e-07 	3.847392063e-05
0.8598397987 	-0.009336419967 	0.01983912486 	1.998319123e-07 	0.02051188994 	3.78101741e-07 	3.91013632e-05
0.862231006 	-0.009477167896 	0.01999543535 	1.908078165e-07 	0.02081821235 	3.637417897e-07 	3.968529887e-05
0.8645958245 	-0.009607982639 	0.02013936412 	1.81540414e-07 	0.02110247808 	3.484401328e-07 	4.022718836e-05
0.8669345455 	-0.009729235805 	0.02027159203 	1.721456316e-07 	0.02136556892 	3.324539294e-07 	4.072871262e-05
0.8692474569 	-0.009841340494 	0.02039280761 	1.627257864e-07 	0.02160844854 	3.160170027e-07 	4.119170868e-05
0.8715348435 	-0.009944737707 	0.02050369588 	1.533701886e-07 	0.02183213339 	2.993391859e-07 	4.161811417e-05
0.8737969871 	-0.01003988481 	0.02060492941 	1.441560495e-07 	0.02203766824 	2.826067078e-07 	4.200992071e-05
0.8760341663 	-0.01012724601 	0.02069716155 	1.35149546e-07 	0.02222610606 	2.659832787e-07 	4.236913558e-05
0.8782466565 	-0.01020728464 	0.02078102148 	1.264069295e-07 	0.02239849209 	2.496115931e-07 	4.269775127e-05
0.8804347301 	-0.01028045723 	0.02085711084 	1.17975595e-07 	0.02255585142 	2.336150222e-07 	4.299772187e-05
0.8825986568 	-0.01034720893 	0.02092600166 	1.098950539e-07 	0.02269917983 	2.18099328e-07 	4.327094567e-05
0.8847387028 	-0.01040797034 	0.02098823537 	1.021977775e-07 	0.02282943745 	2.031542784e-07 	4.35192529e-05
0.8868551318 	-0.01046315539 	0.02104432271 	9.490989462e-08 	0.02294754459 	1.888550883e-07 	4.374439792e-05
0.8889482045 	-0.01051316007 	0.02109474423 	8.805173984e-08 	0.02305437953 	1.752636444e-07 	4.394805501e-05
0.8910181784 	-0.01055836198 	0.02113995138 	8.163826182e-08 	0.0231507779 	1.62429498e-07 	4.41318171e-05
0.8930653087 	-0.01059912045 	0.02118036797 	7.567930405e-08 	0.02323753319 	1.503906309e-07 	4.42971968e-05
0.8950898473 	-0.01063577708 	0.02121639182 	7.017977832e-08 	0.02331539824 	1.391740141e-07 	4.444562922e-05
0.8970920436 	-0.01066865665 	0.02124839668 	6.513975226e-08 	0.02338508737 	1.287959899e-07 	4.457847607e-05
0.8990721441 	-0.01069806824 	0.0212767341 	6.05544748e-08 	0.02344727898 	1.192625117e-07 	4.469703056e-05
0.9010303927 	-0.01072430648 	0.02130173538 	5.641436366e-08 	0.02350261838 	1.105692846e-07 	4.480252284e-05
0.9029670306 	-0.01074765286 	0.02132371342 	5.270497868e-08 	0.02355172067 	1.027018475e-07 	4.489612547e-05
0.9048822962 	-0.01076837699 	0.02134296437 	4.940700491e-08 	0.0235951735 	9.563564168e-08 	4.497895862e-05
0.9067764254 	-0.01078673764 	0.02135976914 	4.649626742e-08 	0.02363353946 	8.933610715e-08 	4.505209481e-05
0.9086496514 	-0.01080298371 	0.02137439461 	4.394379856e-08 	0.02366735811 	8.375884706e-08 	4.511656257e-05
0.910502205 	-0.01081735482 	0.02138709452 	4.171597588e-08 	0.02369714738 	7.884989662e-08 	4.517334918e-05
0.9123343142 	-0.0108300816 	0.02139810997 	3.97747466e-08 	0.02372340416 	7.454612761e-08 	4.522340191e-05
0.9141462048 	-0.01084138564 	0.0214076696 	3.807795022e-08 	0.02374660431 	7.077581298e-08 	4.526762784e-05
0.9159380997 	-0.01085147898 	0.02141598935 	3.657974768e-08 	0.02376720167 	6.74593681e-08 	4.530689213e-05
0.9177102197 	-0.01086056337 	0.0214232718 	3.523116019e-08 	0.02378562644 	6.451027624e-08 	4.534201486e-05
0.9194627831 	-0.01086882906 	0.02142970532 	3.398071681e-08 	0.02380228284 	6.183619714e-08 	4.53737666e-05
0.9211960055 	-0.01087645345 	0.02143546288 	3.277520456e-08 	0.02381754625 	5.934024805e-08 	4.540286291e-05
0.9229101006 	-0.01088359958 	0.02144070074 	3.156051123e-08 	0.02383176008 	5.692243983e-08 	4.54299584e-05
0.9246052793 	-0.01089041451 	0.02144555715 	3.028254698e-08 	0.0238452325 	5.44812445e-08 	4.545564058e-05
0.9262817504 	-0.01089702785 	0.02145015111 	2.888822848e-08 	0.02385823348 	5.191526768e-08 	4.548042406e-05
0.9279397204 	-0.01090355048 	0.02145458138 	2.732650766e-08 	0.02387099211 	4.912499815e-08 	4.550474556e-05
0.9295793934 	-0.01091007352 	0.02145892572 	2.554942559e-08 	0.02388369468 	4.601460715e-08 	4.552896019e-05