0.4709558481 	0.01123572897 	4.818438504e-10 	8.314551265e-13
0.4709558481 	0.01123572897 	4.818438504e-10 	8.314551265e-13
0.4711314108 	0.03089502745 	7.063933452e-09 	9.995528029e-12
0.4713069734 	0.06175648041 	2.977842388e-08 	3.859607391e-11
0.471482536 	0.09258368454 	7.657035018e-08 	8.902331692e-11
0.4716580986 	0.1233708539 	1.581880249e-07 	1.61828459e-10
0.4718336613 	0.1541029703 	2.858138162e-07 	2.580896502e-10
0.4720092239 	0.1847485502 	4.605300617e-07 	3.788661785e-10
0.4721847865 	0.2152513103 	6.612112034e-07 	5.249805427e-10
0.4723603491 	0.2455228676 	8.419841083e-07 	6.967472956e-10
0.4725359118 	0.2754394851 	9.5168921e-07 	8.93613561e-10
0.4727114744 	0.3048457872 	9.70618055e-07 	1.113776855e-09
0.472887037 	0.3335666586 	9.352762217e-07 	1.35396279e-09
0.4730625996 	0.3614254881 	9.228915371e-07 	1.609508264e-09
0.4732381623 	0.3882640714 	1.004111412e-06 	1.87472792e-09
0.4734137249 	0.4139586733 	1.204291243e-06 	2.143389963e-09
0.4735892875 	0.4384285523 	1.501611294e-06 	2.4091299e-09
0.4737648501 	0.4616363905 	1.852843279e-06 	2.665740029e-09
0.4739404128 	0.4835826651 	2.219827557e-06 	2.907355067e-09
0.4741159754 	0.5042969805 	2.581097724e-06 	3.128567208e-09
0.474291538 	0.5238289772 	2.93040217e-06 	3.324490568e-09
0.4744671006 	0.5422404136 	3.270347843e-06 	3.490789254e-09
0.4746426632 	0.5595990571 	3.606857178e-06 	3.62368394e-09
0.4748182259 	0.5759743893 	3.946061082e-06 	3.719950169e-09
0.4749937885 	0.5914348234 	4.293112645e-06 	3.776916653e-09
0.4751693511 	0.606046054 	4.652059659e-06 	3.792466842e-09
0.4753449137 	0.6198701877 	5.02562803e-06 	3.765039932e-09
0.4755204764 	0.632965378 	5.416615011e-06 	3.693638613e-09
0.475696039 	0.6453857651 	5.823040021e-06 	3.577814724e-09
0.4758716016 	0.6571815842 	6.283592152e-06 	3.417940186e-09
0.4760471642 	0.6683994023 	6.683659352e-06 	3.214303541e-09
0.4762227269 	0.6805233753 	7.122374326e-06 	2.930964342e-09
0.4764955107 	0.6947775938 	7.988748349e-06 	2.503313155e-09
0.4767734216 	0.7095924845 	8.949402858e-06 	1.938058149e-09
0.4770565557 	0.7236691222 	9.849992307e-06 	1.273306624e-09
0.4773450114 	0.7370669148 	1.091565497e-05 	5.128991948e-10
0.4776388886 	0.7498403108 	1.207516352e-05 	-3.399665973e-10
0.4779382892 	0.7620391318 	1.334520803e-05 	-1.281244785e-09
0.4782433171 	0.7737089954 	1.473043184e-05 	-2.306616482e-09
0.4785540779 	0.7848917099 	1.623628694e-05 	-3.411489704e-09
0.4788706795 	0.7956256354 	1.786695339e-05 	-4.591045854e-09
0.4791932316 	0.8059460075 	1.962618716e-05 	-5.840275023e-09
0.4795218461 	0.8158852264 	2.151721482e-05 	-7.154013003e-09
0.4798566368 	0.8254731123 	2.354275892e-05 	-8.526974474e-09
0.48019772 	0.8347371326 	2.570505927e-05 	-9.953782899e-09
0.4805452138 	0.8437026034 	2.800590576e-05 	-1.142899717e-08
0.4808992388 	0.8523928694 	3.044667266e-05 	-1.294713514e-08
0.4812599177 	0.860829465 	3.3028355e-05 	-1.450269418e-08
0.4816273755 	0.8690322597 	3.575160575e-05 	-1.609016896e-08
0.4820017397 	0.8770195902 	3.861677309e-05 	-1.770406659e-08
0.48238314 	0.8848083797 	4.162393653e-05 	-1.933891951e-08
0.4827717088 	0.8924142476 	4.477294138e-05 	-2.098929616e-08
0.4831675807 	0.8998516101 	4.80634306e-05 	-2.264980984e-08
0.4835708931 	0.9071337721 	5.149487365e-05 	-2.431512602e-08
0.4839817856 	0.9142730116 	5.506659187e-05 	-2.597996835e-08
0.4844004009 	0.9212806586 	5.877778023e-05 	-2.763912364e-08
0.4848268841 	0.9281671663 	6.262752491e-05 	-2.928744632e-08
0.485261383 	0.9349421774 	6.661481699e-05 	-3.091986249e-08
0.4857040484 	0.9416145856 	7.073856202e-05 	-3.253137421e-08
0.4861550336 	0.9481925911 	7.499758561e-05 	-3.411706422e-08
0.4866144951 	0.9546837527 	7.939063522e-05 	-3.567210164e-08
0.4870825921 	0.9610950347 	8.391637829e-05 	-3.719174908e-08
0.487559487 	0.9674328504 	8.857339716e-05 	-3.867137152e-08
0.4880453452 	0.9737031018 	9.336018108e-05 	-4.010644746e-08
0.4885403351 	0.9799112156 	9.827511571e-05 	-4.149258271e-08
0.4890446283 	0.9860621757 	0.0001033164708 	-4.28255271e-08
0.4895583997 	0.9921605532 	0.0001084823865 	-4.410119456e-08
0.4900818274 	0.9982105332 	0.0001137708588 	-4.531568651e-08
0.4906150929 	1.004215938 	0.0001191797255 	-4.64653189e-08
0.4911583811 	1.010180251 	0.0001247066521 	-4.754665273e-08
0.4917118805 	1.016106632 	0.0001303491205 	-4.855652796e-08
0.4922757829 	1.021997937 	0.0001361044185 	-4.949210045e-08
0.4928502838 	1.027856732 	0.0001419696339 	-5.035088157e-08
0.4934355824 	1.033685309 	0.0001479416518 	-5.113077983e-08
0.4940318817 	1.039485692 	0.0001540171569 	-5.183014386e-08
0.4946393885 	1.045259653 	0.0001601926416 	-5.244780583e-08
0.4952583133 	1.051008719 	0.00016646442 	-5.298312441e-08
0.4958888709 	1.056734182 	0.0001728286487 	-5.343602624e-08
0.4965312797 	1.062437105 	0.0001792813555 	-5.380704473e-08
0.4971857627 	1.068118339 	0.0001858184747 	-5.409735514e-08
0.4978525466 	1.073778523 	0.0001924358905 	-5.430880484e-08
0.4985318627 	1.079418106 	0.0001991294881 	-5.444393758e-08
0.4992239466 	1.085037355 	0.0002058952113 	-5.450601091e-08
0.4999290382 	1.090636375 	0.000212729127 	-5.449900584e-08
0.5006473819 	1.096215128 	0.0002196274949 	-5.44276279e-08
0.501379227 	1.101773459 	0.0002265868399 	-5.429729891e-08
0.502124827 	1.107311122 	0.0002336039183 	-5.411413654e-08
0.5028844406 	1.112827808 	0.0002406760349 	-5.388493571e-08
0.5036583311 	1.118323178 	0.000247800798 	-5.36171439e-08
0.5044467669 	1.123796894 	0.0002549849717 	-5.331899448e-08
0.5052500214 	1.129248645 	0.0002622027487 	-5.2998231e-08
0.506068373 	1.135368746 	0.0002703866636 	-5.262015213e-08
0.507324668 	1.142778911 	0.0002804839392 	-5.215918844e-08
0.5085949819 	1.150703434 	0.0002914326522 	-5.168639121e-08
0.5098794711 	1.158462905 	0.0003022964095 	-5.127373829e-08
0.5111782938 	1.166069139 	0.0003131393174 	-5.094714078e-08
0.5124916099 	1.173533229 	0.000323959515 	-5.072743423e-08
0.5138195812 	1.180865567 	0.0003347789117 	-5.063219446e-08
0.5151623712 	1.188075854 	0.0003456192763 	-5.067534095e-08
0.5165201452 	1.195173119 	0.0003565033184 	-5.086726579e-08
0.5178930705 	1.202165731 	0.0003674535952 	-5.121499896e-08
0.5192813161 	1.209061414 	0.0003784922804 	-5.172242371e-08
0.520685053 	1.215867271 	0.0003896407189 	-5.2390512e-08
0.522104454 	1.22258981 	0.0004009190709 	-5.321757871e-08
0.523539694 	1.229234978 	0.0004123460169 	-5.419954918e-08
0.5249909497 	1.23580819 	0.0004239385252 	-5.53302363e-08
0.5264583998 	1.242314369 	0.0004357116728 	-5.660162433e-08
0.527942225 	1.24875798 	0.0004476785186 	-5.800415689e-08
0.5294426081 	1.25514307 	0.0004598500244 	-5.952702699e-08
0.5309597337 	1.2614733 	0.0004722350213 	-6.115846638e-08
0.5324937889 	1.267751983 	0.0004848402174 	-6.288603185e-08
0.5340449624 	1.273982114 	0.0004976702447 	-6.469688499e-08
0.5356134452 	1.2801664 	0.0005107277404 	-6.657806249e-08
0.5371994306 	1.286307287 	0.0005240134585 	-6.851673315e-08
0.5388031139 	1.292406987 	0.0005375264068 	-7.050043822e-08
0.5404246925 	1.298467493 	0.0005512640036 	-7.251731148e-08
0.5420643661 	1.304490601 	0.0005652222491 	-7.455627597e-08
0.5437223366 	1.310477926 	0.0005793959023 	-7.660721432e-08
0.5453988083 	1.316430906 	0.0005937786593 	-7.866111045e-08
0.5470939875 	1.322350815 	0.0006083633231 	-8.071016073e-08
0.5488080831 	1.328238767 	0.0006231419575 	-8.274785287e-08
0.5505413061 	1.334095713 	0.0006381060177 	-8.476901143e-08
0.5522938699 	1.339922447 	0.0006532464486 	-8.676980812e-08
0.5540659904 	1.345719595 	0.0006685537434 	-8.87477345e-08
0.5558578859 	1.351487615 	0.000684017955 	-9.070153267e-08
0.5576697768 	1.357226789 	0.000699628653 	-9.263107721e-08
0.5595018865 	1.362937215 	0.0007153748221 	-9.453719792e-08
0.5613544406 	1.368618797 	0.0007312446978 	-9.642142948e-08
0.563227667 	1.374271237 	0.000747225541 	-9.828567293e-08
0.5651217966 	1.379894022 	0.0007633033571 	-1.001317566e-07
0.5670370626 	1.385486408 	0.0007794625724 	-1.019608979e-07
0.5689737009 	1.391047403 	0.0007956856888 	-1.037730948e-07
0.5709319499 	1.396575742 	0.0008119529445 	-1.055665228e-07
0.5729120508 	1.402069857 	0.0008282420082 	-1.073370765e-07
0.5749142474 	1.407527834 	0.000844527722 	-1.090782523e-07
0.5769387863 	1.41294736 	0.0008607818735 	-1.107815876e-07
0.5789859169 	1.418325658 	0.0008769729104 	-1.124377788e-07
0.5810558911 	1.423659396 	0.000893065417 	-1.140383427e-07
0.583148964 	1.428944592 	0.0009090190724 	-1.155772486e-07
0.5852653933 	1.434176495 	0.0009247867749 	-1.170514613e-07
0.5874054395 	1.439349461 	0.0009403116052 	-1.184592653e-07
0.5895693664 	1.444456824 	0.0009555228157 	-1.197947734e-07
0.5917574402 	1.449490769 	0.0009703311948 	-1.210439552e-07
0.5939699306 	1.454442186 	0.0009846267428 	-1.221817138e-07
0.5962071099 	1.459300565 	0.0009982771183 	-1.231692211e-07
0.5984692536 	1.464054064 	0.001011125898 	-1.239684587e-07
0.6007566404 	1.468689605 	0.001023000235 	-1.245605626e-07
0.6030695519 	1.473192801 	0.001033719476 	-1.249478026e-07
0.6054082729 	1.477547832 	0.001043089014 	-1.251486325e-07
0.6077730914 	1.48173741 	0.001050908695 	-1.251838285e-07
0.6101642987 	1.485742897 	0.001056960885 	-1.250608192e-07
0.6125821893 	1.489543827 	0.00106099772 	-1.247724092e-07
0.6150270608 	1.49311743 	0.001062798549 	-1.243094484e-07
0.6174992144 	1.496440704 	0.001062159167 	-1.236864462e-07
0.6199989545 	1.499492982 	0.001058876204 	-1.229510051e-07
0.622526589 	1.502256567 	0.00105280309 	-1.221578522e-07
0.625082429 	1.504717592 	0.001043840232 	-1.213439626e-07
0.6276667894 	1.506867725 	0.001031928806 	-1.205301275e-07
0.6302799884 	1.508705507 	0.00101707281 	-1.197364917e-07
0.6329223478 	1.510237013 	0.0009993417371 	-1.189890997e-07
0.6355941931 	1.511475694 	0.0009788667999 	-1.183142668e-07
0.6382958531 	1.512441256 	0.0009558283035 	-1.177311888e-07
0.6410276607 	1.513157816 	0.0009304390335 	-1.172477311e-07
0.6437899523 	1.51365185 	0.0009029250599 	-1.168614135e-07
0.646583068 	1.513950338 	0.0008735102583 	-1.165627516e-07
0.6494073518 	1.51407928 	0.0008424055591 	-1.163382801e-07
0.6522631514 	1.514062689 	0.0008098021851 	-1.161731131e-07
0.6551508186 	1.513922027 	0.0007758686494 	-1.160526426e-07
0.658070709 	1.513675992 	0.000740750419 	-1.159635003e-07
0.6610231822 	1.513340561 	0.0007045712911 	-1.158939795e-07
0.6640086017 	1.51292918 	0.0006674356757 	-1.158341172e-07
0.6670273351 	1.512453017 	0.0006294312179 	-1.157755909e-07
0.6700797543 	1.511921245 	0.0005906314127 	-1.157115287e-07
0.6731662352 	1.511341312 	0.0005510980219 	-1.15636294e-07
0.6762871577 	1.510719183 	0.0005108832121 	-1.155452779e-07
0.6794429063 	1.510059551 	0.0004700313947 	-1.154347117e-07
0.6826338695 	1.509366019 	0.0004285807811 	-1.153015062e-07
0.6858604404 	1.508641248 	0.0003865646865 	-1.151431176e-07
0.6891230163 	1.507887077 	0.0003440126188 	-1.149574342e-07
0.6924219988 	1.507104625 	0.0003009511906 	-1.147426845e-07
0.6957577944 	1.506294362 	0.0002574048913 	-1.144973595e-07
0.6991308138 	1.505456172 	0.000213396752 	-1.142201479e-07
0.7025414724 	1.504589398 	0.0001689489322 	-1.139098815e-07
0.7059901901 	1.503692868 	0.0001240832537 	-1.135654878e-07
0.7094773917 	1.502764917 	7.882170816e-05 	-1.131859486e-07
0.7130035066 	1.50180339 	3.31869558e-05 	-1.127702613e-07
0.7165689691 	1.500805638 	-1.279715407e-05 	-1.12317386e-07
0.7201742182 	1.499768495 	-5.910503151e-05 	-1.118262248e-07
0.7238196978 	1.498688245 	-0.0001057087156 	-1.112956218e-07
0.727505857 	1.49756057 	-0.0001525773198 	-1.107243117e-07
0.7312331497 	1.496380485 	-0.0001996761355 	-1.101108725e-07
0.7350020349 	1.495145584 	-0.0002468401498 	-1.094555013e-07
0.7387709215 	1.493860836 	-0.000293629594 	-1.087627127e-07
0.7424982157 	1.492532275 	-0.0003396143884 	-1.080379627e-07
0.7461843763 	1.491159058 	-0.0003846440655 	-1.072830935e-07
0.7498298574 	1.489736773 	-0.0004286910227 	-1.064978963e-07
0.7534351078 	1.488260794 	-0.0004717258458 	-1.056818342e-07
0.7570005716 	1.48672628 	-0.0005137169193 	-1.04834024e-07
0.7605266877 	1.485128181 	-0.000554630269 	-1.039532258e-07
0.7640138905 	1.483461249 	-0.0005944294529 	-1.030378171e-07
0.7674626093 	1.481720055 	-0.0006330754758 	-1.020857721e-07
0.770873269 	1.479899013 	-0.0006705267574 	-1.010946452e-07
0.7742462894 	1.477992415 	-0.000706739164 	-1.000615625e-07
0.777582086 	1.475994476 	-0.0007416661148 	-9.898322625e-08
0.7808810695 	1.473899388 	-0.0007752587786 	-9.785593808e-08
0.7841436462 	1.471701387 	-0.0008074663717 	-9.667564736e-08
0.787370218 	1.469394827 	-0.000838236572 	-9.543803049e-08
0.7905611821 	1.466974273 	-0.00086751606 	-9.413860706e-08
0.7937169314 	1.464434583 	-0.0008952511949 	-9.277289689e-08
0.7968378547 	1.461771016 	-0.0009213888308 	-9.133661872e-08
0.7999243362 	1.458979321 	-0.0009458772698 	-8.982592779e-08
0.8029767561 	1.456055835 	-0.0009686673415 	-8.823768402e-08
0.8059954902 	1.452997571 	-0.0009897135882 	-8.656973739e-08
0.8089809102 	1.449802287 	-0.001008975522 	-8.482121148e-08
0.8119333839 	1.446468549 	-0.001026418909 	-8.299276239e-08
0.8148532749 	1.442995767 	-0.00104201703 	-8.10867883e-08
0.8177409426 	1.439384216 	-0.001055751849 	-7.910756623e-08
0.8205967427 	1.435635027 	-0.001067615025 	-7.706129694e-08
0.8234210268 	1.431750163 	-0.001077608716 	-7.49560465e-08
0.8262141429 	1.427732372 	-0.001085746102 	-7.280158299e-08
0.8289764348 	1.423585119 	-0.001092051606 	-7.060911666e-08
0.8317082427 	1.419312504 	-0.001096560785 	-6.839096204e-08
0.8344099031 	1.414919176 	-0.0010993199 	-6.616014703e-08
0.8370817486 	1.410410228 	-0.001100385179 	-6.392999823e-08
0.8397241082 	1.4057911 	-0.001099821832 	-6.171373161e-08
0.8423373074 	1.401067475 	-0.00109770285 	-5.952407437e-08
0.844921668 	1.396245189 	-0.001094107681 	-5.737293798e-08
0.8474775082 	1.391330138 	-0.001089120821 	-5.527115555e-08
0.8500051427 	1.386328201 	-0.001082830404 	-5.322828913e-08
0.8525048829 	1.381245171 	-0.001075326832 	-5.125250615e-08
0.8549770366 	1.376086695 	-0.00106670149 	-4.935051926e-08
0.8574219081 	1.370858233 	-0.001057045586 	-4.752758044e-08
0.8598397987 	1.365565013 	-0.001046449131 	-4.578751848e-08
0.862231006 	1.360212012 	-0.001035000064 	-4.413280867e-08
0.8645958245 	1.354803933 	-0.001022783534 	-4.256466457e-08
0.8669345455 	1.349345194 	-0.001009881327 	-4.108314272e-08
0.8692474569 	1.343839927 	-0.0009963714272 	-3.968725337e-08
0.8715348435 	1.338291975 	-0.0009823276964 	-3.837507205e-08
0.8737969871 	1.332704897 	-0.0009678196657 	-3.714384838e-08
0.8760341663 	1.327081978 	-0.0009529124125 	-3.599011032e-08
0.8782466565 	1.321426233 	-0.0009376665149 	-3.490976308e-08
0.8804347301 	1.315740423 	-0.0009221380666 	-3.389818282e-08
0.8825986568 	1.310027065 	-0.0009063787406 	-3.295030604e-08
0.8847387028 	1.304288445 	-0.0008904358914 	-3.206071573e-08
0.8868551318 	1.298526625 	-0.0008743526857 	-3.122372573e-08
0.8889482045 	1.292743462 	-0.0008581682557 	-3.043346439e-08
0.8910181784 	1.28694061 	-0.0008419178688 	-2.968395883e-08
0.8930653087 	1.281119537 	-0.0008256331086 	-2.896922061e-08
0.8950898473 	1.275281531 	-0.0008093420657 	-2.828333331e-08
0.8970920436 	1.269427704 	-0.0007930695349 	-2.762054226e-08
0.8990721441 	1.263559005 	-0.0007768372176 	-2.697534622e-08
0.9010303927 	1.257676222 	-0.0007606639295 	-2.634259043e-08
0.9029670306 	1.251779986 	-0.0007445658115 	-2.571756012e-08
0.9048822962 	1.245870777 	-0.0007285565453 	-2.509607322e-08
0.9067764254 	1.239948925 	-0.0007126475723 	-2.447457082e-08
0.9086496514 	1.234014615 	-0.0006968483168 	-2.385020349e-08
0.910502205 	1.228067887 	-0.0006811664118 	-2.322091164e-08
0.9123343142 	1.22210864 	-0.0006656079285 	-2.258549766e-08
0.9141462048 	1.216136632 	-0.0006501776082 	-2.194368784e-08
0.9159380997 	1.210151483 	-0.0006348790951 	-2.129618159e-08
0.9177102197 	1.204152676 	-0.0006197151699 	-2.064468588e-08
0.9194627831 	1.198139559 	-0.0006046879821 	-1.999193257e-08
0.9211960055 	1.192111348 	-0.0005897992788 	-1.934167642e-08
0.9229101006 	1.186067125 	-0.0005750506294 	-1.869867185e-08
0.9246052793 	1.180005841 	-0.0005604436421 	-1.806862638e-08
0.9262817504 	1.173926317 	-0.0005459801714 	-1.745812929e-08
0.9279397204 	1.167827239 	-0.000531662513 	-1.68745542e-08
0.9295793934 	1.161707154 	-0.0005174935832 	-1.632593458e-08
0.9312009714 	1.155564469 	-0.0005034770798 	-1.582081232e-08
0.9328046541 	1.149397441 	-0.0004896176213 	-1.536805952e-08
0.9343906389 	1.143204165 	-0.0004759208609 	-1.497667527e-08
0.9359591211 	1.136982566 	-0.0004623935709 	-1.465555953e-08
0.937510294 	1.130730376 	-0.0004490436943 	-1.441326785e-08
0.9390443485 	1.124445123 	-0.0004358803592 	-1.425775129e-08
0.9405614735 	1.118124105 	-0.0004229138534 	-1.419608752e-08
0.942061856 	1.111764365 	-0.0004101555535 	-1.423420965e-08
0.9435456805 	1.105362665 	-0.000397617808 	-1.437664067e-08
0.9450131299 	1.098915457 	-0.0003853137697 	-1.462624187e-08
0.946464385 	1.092418846 	-0.0003732571776 	-1.498398448e-08
0.9478996243 	1.085868563 	-0.0003614620864 	-1.544875357e-08
0.9493190246 	1.079259923 	-0.0003499425466 	-1.601719401e-08
0.9507227608 	1.072587794 	-0.0003387122352 	-1.668360717e-08
0.9521110058 	1.065846563 	-0.0003277840454 	-1.743990698e-08
0.9534839303 	1.0590301 	-0.0003171696416 	-1.827564297e-08
0.9548417036 	1.052131733 	-0.0003068789889 	-1.91780962e-08
0.9561844929 	1.045144214 	-0.0002969198895 	-2.01324534e-08
0.9575124634 	1.038059695 	-0.0002872972583 	-2.112205272e-08
0.9588257788 	1.030869701 	-0.000278013185 	-2.212872343e-08
0.9601246008 	1.023565092 	-0.0002690648287 	-2.313315619e-08
0.9614090893 	1.016136019 	-0.0002604653645 	-2.411608993e-08
0.9626794024 	1.00857187 	-0.0002521587217 	-2.505681416e-08
0.9639356968 	1.001519471 	-0.000244809371 	-2.586396879e-08
0.9647540487 	0.9957091402 	-0.0002390786619 	-2.647045304e-08
0.9655573034 	0.9905429118 	-0.000234169324 	-2.696043483e-08
0.9663457395 	0.9853652292 	-0.0002294067271 	-2.740244299e-08
0.9671196303 	0.9801761143 	-0.0002248047627 	-2.779457389e-08
0.9678792442 	0.9749755804 	-0.0002203460122 	-2.813459921e-08
0.9686248445 	0.9697636151 	-0.0002160208371 	-2.842108112e-08
0.9693566897 	0.964540158 	-0.0002118200669 	-2.865307307e-08
0.9700750337 	0.9593050775 	-0.0002077351391 	-2.88300758e-08
0.9707801255 	0.954058147 	-0.0002037578978 	-2.895199509e-08
0.9714722095 	0.9487990235 	-0.0001998806942 	-2.901910396e-08
0.9721515258 	0.9435272283 	-0.0001960963839 	-2.903199992e-08
0.9728183099 	0.9382421312 	-0.0001923983131 	-2.899156196e-08
0.9734727929 	0.9329429368 	-0.000188780299 	-2.889890859e-08
0.9741152019 	0.9276286743 	-0.0001852366064 	-2.8755358e-08
0.9747457596 	0.9222981878 	-0.0001817619221 	-2.85623907e-08
0.9753646845 	0.9169501288 	-0.0001783513262 	-2.832161546e-08
0.9759721914 	0.9115829486 	-0.000175000263 	-2.803473882e-08
0.9765684907 	0.9061948911 	-0.0001717045107 	-2.770353832e-08
0.9771537895 	0.9007839846 	-0.0001684601508 	-2.732983969e-08
0.9777282904 	0.8953480328 	-0.0001652635377 	-2.691549777e-08
0.9782921928 	0.8898846049 	-0.0001621112683 	-2.646238129e-08
0.9788456922 	0.8843910235 	-0.0001590001523 	-2.597236112e-08
0.9793889805 	0.878864351 	-0.0001559271838 	-2.544730181e-08
0.979922246 	0.8733013743 	-0.0001528895134 	-2.488905622e-08
0.9804456737 	0.8676985863 	-0.0001498844221 	-2.429946279e-08
0.9809594451 	0.8620521669 	-0.0001469092965 	-2.36803453e-08
0.9814637383 	0.8563579593 	-0.0001439616064 	-2.30335146e-08
0.9819587281 	0.8506114458 	-0.0001410388841 	-2.236077219e-08
0.9824445862 	0.844807719 	-0.0001381387059 	-2.166391522e-08
0.9829214811 	0.8389414517 	-0.0001352586767 	-2.094474258e-08
0.9833895781 	0.8330068625 	-0.0001323964166 	-2.020506196e-08
0.9838490396 	0.8269976787 	-0.0001295495508 	-1.944669746e-08
0.9843000247 	0.820907096 	-0.0001267157019 	-1.867149757e-08
0.98474269 	0.8147277335 	-0.0001238924864 	-1.788134339e-08
0.9851771888 	0.8084515865 	-0.0001210775125 	-1.707815675e-08
0.9856036719 	0.8020699739 	-0.0001182683827 	-1.62639082e-08
0.9860222871 	0.7955734816 	-0.0001154626988 	-1.544062474e-08
0.9864331796 	0.7889519023 	-0.0001126580704 	-1.461039691e-08
0.9868364919 	0.7821941692 	-0.0001098521259 	-1.377538551e-08
0.9872323637 	0.7752882862 	-0.0001070425272 	-1.293782759e-08
0.9876209323 	0.7682212515 	-0.0001042269875 	-1.210004157e-08
0.9880023326 	0.7609789767 	-0.0001014032912 	-1.126443156e-08
0.9883766967 	0.7535462001 	-9.856931673e-05 	-1.043349048e-08
0.9887441544 	0.7459063932 	-9.572306206e-05 	-9.609802108e-09
0.9891048331 	0.7380416612 	-9.28626719e-05 	-8.796041549e-09
0.9894588579 	0.7299326369 	-8.998646677e-05 	-7.994974093e-09
0.9898063516 	0.7215583659 	-8.709297347e-05 	-7.209452086e-09
0.9901474347 	0.7128961851 	-8.41809565e-05 	-6.442409492e-09
0.9904822253 	0.7039215907 	-8.124944986e-05 	-5.696853794e-09
0.9908108397 	0.6946080969 	-7.829778871e-05 	-4.975854808e-09
0.9911333916 	0.6849270834 	-7.532563898e-05 	-4.28252999e-09
0.9914499931 	0.6748476307 	-7.233303065e-05 	-3.620025673e-09
0.9917607538 	0.6643363432 	-6.932037938e-05 	-2.991493691e-09
0.9920657815 	0.6533571612 	-6.628859799e-05 	-2.400061613e-09
0.9923651819 	0.6418711643 	-6.323849377e-05 	-1.848807468e-09
0.992659059 	0.6298363747 	-6.017251745e-05 	-1.340713267e-09
0.9929475145 	0.6172075735 	-5.708455268e-05 	-8.787225481e-10
0.9932306485 	0.6039361536 	-5.403613354e-05 	-4.646925436e-10
0.9935085592 	0.5899701242 	-5.084305179e-05 	-1.01820996e-10
0.9937813429 	0.5765391209 	-4.787494266e-05 	1.829320224e-10
0.9939569055 	0.5651236254 	-4.565838615e-05 	3.805806925e-10
0.9941324681 	0.5545713434 	-4.365281693e-05 	5.307121912e-10
0.9943080307 	0.5434895133 	-4.154908828e-05 	6.582450007e-10
0.9944835934 	0.5318405423 	-3.944979233e-05 	7.63132904e-10
0.994659156 	0.519585091 	-3.73281264e-05 	8.449499526e-10
0.9948347186 	0.5066823201 	-3.518887757e-05 	9.040735112e-10
0.9950102812 	0.4930903591 	-3.303379546e-05 	9.411624262e-10
0.9951858439 	0.4787670515 	-3.086566529e-05 	9.572063916e-10
0.9953614065 	0.4636710906 	-2.868764165e-05 	9.535061358e-10
0.9955369691 	0.4477636821 	-2.650422772e-05 	9.316569854e-10
0.9957125317 	0.4310108632 	-2.432246765e-05 	8.935308824e-10
0.9958880943 	0.4133865646 	-2.21537632e-05 	8.412779947e-10
0.996063657 	0.3948763743 	-2.001580101e-05 	7.773626369e-10
0.9962392196 	0.3754817428 	-1.793321461e-05 	7.046265232e-10
0.9964147822 	0.3552240437 	-1.593490187e-05 	6.263143084e-10
0.9965903448 	0.3341475604 	-1.404679737e-05 	5.459346697e-10
0.9967659075 	0.3123202604 	-1.228231375e-05 	4.66863148e-10
0.9969414701 	0.2898313719 	-1.063678813e-05 	3.917922064e-10
0.9971170327 	0.2667854424 	-9.092159764e-06 	3.223659203e-10
0.9972925953 	0.2432936112 	-7.631010365e-06 	2.592958953e-10
0.997468158 	0.2194638413 	-6.250447212e-06 	2.028643955e-10
0.9976437206 	0.1953922838 	-4.9656635e-06 	1.533748224e-10
0.9978192832 	0.1711575324 	-3.801890852e-06 	1.112177704e-10
0.9979948458 	0.1468184898 	-2.782466909e-06 	7.663348502e-11
0.9981704085 	0.1224154656 	-1.921388037e-06 	4.948333304e-11
0.9983459711 	0.0979734162 	-1.222766672e-06 	2.922192531e-11
0.9985215337 	0.0735060747 	-6.846181379e-07 	1.503683742e-11
0.9986970963 	0.0490199501 	-3.036273823e-07 	6.022991242e-12
0.998872659 	0.02451756188 	-8.137229354e-08 	1.390606913e-12
0.9990482216 	0.01032485813 	-8.991204854e-09 	7.272695273e-14
0.9990482216 	0.01032485813 	-8.991204854e-09 	7.272695273e-14
