0.4709558481 	2.148034169e-08 	-0.005944299569 	1.852702453e-08 	-2.034994149e-08 	3.979155468e-12 	-3.879264538e-11
0.4709558481 	2.148034169e-08 	-0.005944299569 	1.852702453e-08 	-2.034994149e-08 	3.979155468e-12 	-3.879264538e-11
0.4711314108 	4.524921684e-08 	-0.005941946035 	1.849792278e-08 	-4.533266228e-08 	8.802959048e-12 	-8.641665359e-11
0.4713069734 	9.068385727e-08 	-0.005935730903 	1.844294293e-08 	-9.114826986e-08 	1.750594931e-11 	-1.737539354e-10
0.471482536 	1.376976142e-07 	-0.005929242704 	1.838329689e-08 	-1.402253365e-07 	2.645744269e-11 	-2.673084646e-10
0.4716580986 	1.857352171e-07 	-0.00592219423 	1.831499682e-08 	-1.914476765e-07 	3.532943259e-11 	-3.649524813e-10
0.4718336613 	2.343338271e-07 	-0.005914158358 	1.823269689e-08 	-2.438628374e-07 	4.41777949e-11 	-4.64870346e-10
0.4720092239 	2.813332746e-07 	-0.005904567541 	1.813003941e-08 	-2.930934881e-07 	5.29373298e-11 	-5.587176491e-10
0.4721847865 	3.236380343e-07 	-0.005892758652 	1.800063405e-08 	-3.328418291e-07 	6.153602593e-11 	-6.344890345e-10
0.4723603491 	3.594591976e-07 	-0.005878065646 	1.783949151e-08 	-3.593532591e-07 	7.000363319e-11 	-6.850271887e-10
0.4725359118 	3.90977845e-07 	-0.005859939108 	1.764438133e-08 	-3.767326713e-07 	7.85340635e-11 	-7.181571787e-10
0.4727114744 	4.246333321e-07 	-0.005838056116 	1.741654948e-08 	-3.975371323e-07 	8.740483614e-11 	-7.578162637e-10
0.472887037 	4.675289813e-07 	-0.005812388189 	1.716060379e-08 	-4.356376205e-07 	9.678404726e-11 	-8.304463835e-10
0.4730625996 	5.224740231e-07 	-0.005783215364 	1.688379338e-08 	-4.96370773e-07 	1.066076457e-10 	-9.462206522e-10
0.4732381623 	5.862150535e-07 	-0.005751091349 	1.659496071e-08 	-5.73052976e-07 	1.16659069e-10 	-1.092398244e-09
0.4734137249 	6.523222895e-07 	-0.005716769109 	1.630328332e-08 	-6.5276366e-07 	1.267589143e-10 	-1.244348962e-09
0.4735892875 	7.156372334e-07 	-0.005681098886 	1.601696119e-08 	-7.252153287e-07 	1.368707896e-10 	-1.382461979e-09
0.4737648501 	7.745284427e-07 	-0.005644919148 	1.574219097e-08 	-7.872250292e-07 	1.470598147e-10 	-1.500669703e-09
0.4739404128 	8.302140149e-07 	-0.005608966243 	1.548273292e-08 	-8.413219396e-07 	1.573948245e-10 	-1.60379345e-09
0.4741159754 	8.848962134e-07 	-0.005573820931 	1.524008519e-08 	-8.919881522e-07 	1.678919984e-10 	-1.700377333e-09
0.474291538 	9.404013413e-07 	-0.005539894152 	1.501402278e-08 	-9.429192219e-07 	1.785161874e-10 	-1.797466108e-09
0.4744671006 	9.977623604e-07 	-0.005507441862 	1.480321602e-08 	-9.961792959e-07 	1.892065449e-10 	-1.898994612e-09
0.4746426632 	1.057375938e-06 	-0.005476594784 	1.46057512e-08 	-1.052514108e-06 	1.998980284e-10 	-2.00638442e-09
0.4748182259 	1.119297338e-06 	-0.005447391508 	1.441949828e-08 	-1.11194761e-06 	2.105311908e-10 	-2.119681194e-09
0.4749937885 	1.183465784e-06 	-0.005419808151 	1.42423427e-08 	-1.174245301e-06 	2.210538576e-10 	-2.238437908e-09
0.4751693511 	1.249760901e-06 	-0.005393781843 	1.407232124e-08 	-1.239042962e-06 	2.314189844e-10 	-2.361960259e-09
0.4753449137 	1.31817595e-06 	-0.005369227828 	1.390769725e-08 	-1.306208921e-06 	2.41582934e-10 	-2.489997246e-09
0.4755204764 	1.388159992e-06 	-0.005346051124 	1.374699879e-08 	-1.374545241e-06 	2.515010504e-10 	-2.620265265e-09
0.475696039 	1.465191562e-06 	-0.005324153979 	1.358903265e-08 	-1.454923459e-06 	2.611623444e-10 	-2.773488487e-09
0.4758716016 	1.531964548e-06 	-0.005303450188 	1.343289625e-08 	-1.512758521e-06 	2.704441252e-10 	-2.88373819e-09
0.4760471642 	1.587272013e-06 	-0.005283424025 	1.327785555e-08 	-1.545701206e-06 	2.792739077e-10 	-2.946536103e-09
0.4762227269 	1.700773345e-06 	-0.005263992621 	1.310788755e-08 	-1.681007929e-06 	2.890386292e-10 	-3.204468325e-09
0.4764955107 	1.844283162e-06 	-0.005240656031 	1.289457887e-08 	-1.849688896e-06 	3.003692141e-10 	-3.526021129e-09
0.4767734216 	1.954798621e-06 	-0.005214232307 	1.2651023e-08 	-1.935134447e-06 	3.11603949e-10 	-3.688904098e-09
0.4770565557 	2.085823549e-06 	-0.005189686854 	1.240363407e-08 	-2.053959682e-06 	3.219262585e-10 	-3.915418021e-09
0.4773450114 	2.24138093e-06 	-0.005166222077 	1.215329752e-08 	-2.214022877e-06 	3.312953889e-10 	-4.22054296e-09
0.4776388886 	2.395922005e-06 	-0.005143722299 	1.190062818e-08 	-2.364329865e-06 	3.395573229e-10 	-4.507069855e-09
0.4779382892 	2.559166373e-06 	-0.005122067137 	1.16463002e-08 	-2.524313065e-06 	3.467471357e-10 	-4.812042299e-09
0.4782433171 	2.729692726e-06 	-0.005101148213 	1.139099794e-08 	-2.691232377e-06 	3.528694338e-10 	-5.130236899e-09
0.4785540779 	2.90742473e-06 	-0.005080867883 	1.113538204e-08 	-2.865093046e-06 	3.579436775e-10 	-5.461663658e-09
0.4788706795 	3.092047125e-06 	-0.005061138111 	1.088006455e-08 	-3.045482825e-06 	3.620030827e-10 	-5.805536712e-09
0.4791932316 	3.283294718e-06 	-0.005041879498 	1.062559222e-08 	-3.232144777e-06 	3.650946134e-10 	-6.161366274e-09
0.4795218461 	3.480835167e-06 	-0.005023020356 	1.037243646e-08 	-3.42473817e-06 	3.672766798e-10 	-6.528502808e-09
0.4798566368 	3.684292387e-06 	-0.005004495877 	1.012098854e-08 	-3.622878685e-06 	3.686171624e-10 	-6.906213701e-09
0.48019772 	3.893253758e-06 	-0.004986247379 	9.87155886e-09 	-3.82614526e-06 	3.691912005e-10 	-7.293696288e-09
0.4805452138 	4.107279398e-06 	-0.00496822163 	9.624379208e-09 	-4.034090322e-06 	3.690788078e-10 	-7.69009737e-09
0.4808992388 	4.325910556e-06 	-0.004950370252 	9.379607215e-09 	-4.246247905e-06 	3.683623946e-10 	-8.09452869e-09
0.4812599177 	4.548678282e-06 	-0.004932649184 	9.137332514e-09 	-4.462142316e-06 	3.671243085e-10 	-8.506083443e-09
0.4816273755 	4.77511182e-06 	-0.004915018212 	8.897583893e-09 	-4.681296522e-06 	3.654444743e-10 	-8.923852269e-09
0.4820017397 	5.004746426e-06 	-0.004897440549 	8.660337204e-09 	-4.903239959e-06 	3.633982103e-10 	-9.346938147e-09
0.48238314 	5.237130387e-06 	-0.004879882463 	8.42552362e-09 	-5.12751553e-06 	3.61054292e-10 	-9.774469719e-09
0.4827717088 	5.471831085e-06 	-0.004862312945 	8.193038111e-09 	-5.353685614e-06 	3.584733058e-10 	-1.020561276e-08
0.4831675807 	5.708439985e-06 	-0.004844703411 	7.962747838e-09 	-5.581336988e-06 	3.557063276e-10 	-1.063957955e-08
0.4835708931 	5.946576533e-06 	-0.004827027442 	7.734500402e-09 	-5.810084651e-06 	3.527939544e-10 	-1.107563617e-08
0.4839817856 	6.185890953e-06 	-0.004809260543 	7.508131833e-09 	-6.039574548e-06 	3.497656826e-10 	-1.15131077e-08
0.4844004009 	6.426065961e-06 	-0.004791379939 	7.283474052e-09 	-6.26948518e-06 	3.466396256e-10 	-1.195138127e-08
0.4848268841 	6.66681751e-06 	-0.004773364378 	7.060362e-09 	-6.499528261e-06 	3.434225661e-10 	-1.238990732e-08
0.485261383 	6.907894677e-06 	-0.00475519397 	6.838640236e-09 	-6.729448523e-06 	3.401103026e-10 	-1.282819924e-08
0.4857040484 	7.149078787e-06 	-0.004736850031 	6.618168938e-09 	-6.959022755e-06 	3.366882568e-10 	-1.326583153e-08
0.4861550336 	7.390181937e-06 	-0.004718314951 	6.398829374e-09 	-7.188058236e-06 	3.331323084e-10 	-1.370243681e-08
0.4866144951 	7.631045046e-06 	-0.004699572077 	6.180528736e-09 	-7.416390721e-06 	3.294098113e-10 	-1.413770199e-08
0.4870825921 	7.871535585e-06 	-0.004680605598 	5.963204426e-09 	-7.643882096e-06 	3.254807508e-10 	-1.457136378e-08
0.487559487 	8.11154511e-06 	-0.004661400458 	5.746827737e-09 	-7.870417848e-06 	3.21299002e-10 	-1.500320389e-08
0.4880453452 	8.350986717e-06 	-0.004641942269 	5.531406933e-09 	-8.095904461e-06 	3.168136429e-10 	-1.543304404e-08
0.4885403351 	8.589792536e-06 	-0.004622217232 	5.316989812e-09 	-8.320266853e-06 	3.119702954e-10 	-1.586074112e-08
0.4890446283 	8.827911345e-06 	-0.004602212077 	5.103665654e-09 	-8.543445937e-06 	3.067124576e-10 	-1.628618248e-08
0.4895583997 	9.06530638e-06 	-0.004581913999 	4.891566673e-09 	-8.765396378e-06 	3.009828022e-10 	-1.670928171e-08
0.4900818274 	9.301953395e-06 	-0.004561310612 	4.680868985e-09 	-8.986084598e-06 	2.947244201e-10 	-1.71299748e-08
0.4906150929 	9.537839007e-06 	-0.004540389897 	4.471793024e-09 	-9.205487068e-06 	2.878819946e-10 	-1.754821688e-08
0.4911583811 	9.772959343e-06 	-0.004519140169 	4.264603488e-09 	-9.423588894e-06 	2.804028991e-10 	-1.796397958e-08
0.4917118805 	1.000731899e-05 	-0.004497550042 	4.059608785e-09 	-9.640382702e-06 	2.722382133e-10 	-1.837724884e-08
0.4922757829 	1.024093024e-05 	-0.004475608399 	3.857159954e-09 	-9.855867804e-06 	2.633436629e-10 	-1.878802333e-08
0.4928502838 	1.047381252e-05 	-0.004453304371 	3.657649043e-09 	-1.00700496e-05 	2.536804935e-10 	-1.919631336e-08
0.4934355824 	1.07059921e-05 	-0.004430627319 	3.461506842e-09 	-1.028293915e-05 	2.432162846e-10 	-1.960214002e-08
0.4940318817 	1.093750184e-05 	-0.004407566821 	3.269199921e-09 	-1.049455289e-05 	2.319257269e-10 	-2.000553461e-08
0.4946393885 	1.116838089e-05 	-0.004384112659 	3.081226911e-09 	-1.070491225e-05 	2.197913781e-10 	-2.040653803e-08
0.4952583133 	1.139867432e-05 	-0.00436025482 	2.898113875e-09 	-1.091404326e-05 	2.068044174e-10 	-2.080519985e-08
0.4958888709 	1.162843233e-05 	-0.004335983487 	2.720408727e-09 	-1.112197565e-05 	1.929654289e-10 	-2.120157679e-08
0.4965312797 	1.185770887e-05 	-0.004311289044 	2.548674723e-09 	-1.132874158e-05 	1.782852454e-10 	-2.159573012e-08
0.4971857627 	1.208655945e-05 	-0.004286162077 	2.38348297e-09 	-1.153437343e-05 	1.627858996e-10 	-2.198772156e-08
0.4978525466 	1.231503772e-05 	-0.004260593372 	2.225404085e-09 	-1.173890049e-05 	1.465017533e-10 	-2.237760699e-08
0.4985318627 	1.254319065e-05 	-0.004234573914 	2.074999171e-09 	-1.194234434e-05 	1.294809e-10 	-2.276542752e-08
0.4992239466 	1.277105224e-05 	-0.00420809488 	1.932810179e-09 	-1.214471317e-05 	1.117869796e-10 	-2.315119875e-08
0.4999290382 	1.29986353e-05 	-0.00418114762 	1.799349634e-09 	-1.234599405e-05 	9.350153825e-11 	-2.353489605e-08
0.5006473819 	1.322592125e-05 	-0.004153723637 	1.675089316e-09 	-1.254614301e-05 	7.472698857e-11 	-2.391643559e-08
0.501379227 	1.345282407e-05 	-0.004125814556 	1.560447045e-09 	-1.274502477e-05 	5.558971252e-11 	-2.429555951e-08
0.502124827 	1.367923755e-05 	-0.00409741209 	1.455769901e-09 	-1.294251931e-05 	3.624648865e-11 	-2.467203899e-08
0.5028844406 	1.390498206e-05 	-0.004068507997 	1.361311593e-09 	-1.313842585e-05 	1.689573909e-11 	-2.50454913e-08
0.5036583311 	1.413174451e-05 	-0.004039094084 	1.277204005e-09 	-1.333634429e-05 	-2.175264569e-12 	-2.542277886e-08
0.5044467669 	1.435341336e-05 	-0.004009163338 	1.203407446e-09 	-1.35243665e-05 	-2.087115776e-11 	-2.578120145e-08
0.5052500214 	1.456856762e-05 	-0.003978676125 	1.14004695e-09 	-1.370009843e-05 	-3.895999644e-11 	-2.611619536e-08
0.506068373 	1.482256606e-05 	-0.003944309266 	1.09155216e-09 	-1.392203806e-05 	-5.742835813e-11 	-2.653927396e-08
0.507324668 	1.512230519e-05 	-0.003901367953 	1.044183518e-09 	-1.418127098e-05 	-7.714958627e-11 	-2.703344397e-08
0.5085949819 	1.541514652e-05 	-0.003853347453 	9.955091959e-10 	-1.441503633e-05 	-9.49269897e-11 	-2.74790657e-08
0.5098794711 	1.56926661e-05 	-0.003804972498 	9.58568268e-10 	-1.463777727e-05 	-1.075986525e-10 	-2.790367183e-08
0.5111782938 	1.595546809e-05 	-0.003756183741 	9.280963699e-10 	-1.485009778e-05 	-1.148542967e-10 	-2.830841373e-08
0.5124916099 	1.619657489e-05 	-0.003706979693 	8.982417403e-10 	-1.503757541e-05 	-1.166345549e-10 	-2.86657982e-08
0.5138195812 	1.641995229e-05 	-0.003657357071 	8.629431901e-10 	-1.520748995e-05 	-1.126527861e-10 	-2.898970255e-08
0.5151623712 	1.662631859e-05 	-0.003607311765 	8.159052538e-10 	-1.536053624e-05 	-1.027711333e-10 	-2.928145131e-08
0.5165201452 	1.68166721e-05 	-0.003556838736 	7.506222943e-10 	-1.549785833e-05 	-8.691655947e-11 	-2.954322538e-08
0.5178930705 	1.699206075e-05 	-0.003505931834 	6.604013278e-10 	-1.56205994e-05 	-6.507904371e-11 	-2.977720398e-08
0.5192813161 	1.715364464e-05 	-0.003454583654 	5.383925833e-10 	-1.573004577e-05 	-3.731698087e-11 	-2.998583918e-08
0.520685053 	1.730262244e-05 	-0.003402785429 	3.776316119e-10 	-1.582751122e-05 	-3.76920302e-12 	-3.017163541e-08
0.522104454 	1.744019478e-05 	-0.003350526948 	1.710967681e-10 	-1.591430371e-05 	3.533189349e-11 	-3.033708601e-08
0.523539694 	1.756751829e-05 	-0.003297796529 	-8.821476936e-11 	-1.599168038e-05 	7.964660182e-11 	-3.048458747e-08
0.5249909497 	1.768565643e-05 	-0.003244581036 	-4.071904114e-10 	-1.606079975e-05 	1.28715235e-10 	-3.061634819e-08
0.5264583998 	1.779552881e-05 	-0.003190865942 	-7.92484472e-10 	-1.612267204e-05 	1.819482501e-10 	-3.073429397e-08
0.527942225 	1.789786195e-05 	-0.003136635442 	-1.250380658e-09 	-1.617811127e-05 	2.386207733e-10 	-3.083997656e-08
0.5294426081 	1.799314379e-05 	-0.003081872614 	-1.78663775e-09 	-1.622769106e-05 	2.978728571e-10 	-3.093448941e-08
0.5309597337 	1.808158378e-05 	-0.003026559626 	-2.406323074e-09 	-1.627170597e-05 	3.587164223e-10 	-3.101839406e-08
0.5324937889 	1.816308018e-05 	-0.002970677986 	-3.113639673e-09 	-1.631014006e-05 	4.200493641e-10 	-3.109166012e-08
0.5340449624 	1.823719569e-05 	-0.002914208844 	-3.911753961e-09 	-1.634264379e-05 	4.806767999e-10 	-3.115362127e-08
0.5356134452 	1.830314264e-05 	-0.002857133332 	-4.802631055e-09 	-1.636852013e-05 	5.39338945e-10 	-3.120294877e-08
0.5371994306 	1.835977801e-05 	-0.002799432952 	-5.786885027e-09 	-1.638672055e-05 	5.947446353e-10 	-3.123764382e-08
0.5388031139 	1.840560877e-05 	-0.002741089995 	-6.86365099e-09 	-1.639585098e-05 	6.456091546e-10 	-3.125504895e-08
0.5404246925 	1.843880741e-05 	-0.002682088014 	-8.030485283e-09 	-1.639418781e-05 	6.906947499e-10 	-3.125187849e-08
0.5420643661 	1.845723726e-05 	-0.002622412315 	-9.28329929e-09 	-1.637970345e-05 	7.288520496e-10 	-3.122426728e-08
0.5437223366 	1.845848714e-05 	-0.00256205049 	-1.061633158e-08 	-1.63501009e-05 	7.590605141e-10 	-3.116783659e-08
0.5453988083 	1.843991424e-05 	-0.002500992969 	-1.202216204e-08 	-1.630285647e-05 	7.804659796e-10 	-3.107777558e-08
0.5470939875 	1.839869457e-05 	-0.002439233602 	-1.349177056e-08 	-1.623526978e-05 	7.924132248e-10 	-3.094893655e-08
0.5488080831 	1.833187947e-05 	-0.00237677024 	-1.501464053e-08 	-1.614451987e-05 	7.944711551e-10 	-3.077594201e-08
0.5505413061 	1.823645754e-05 	-0.002313605331 	-1.657890426e-08 	-1.602772659e-05 	7.864475592e-10 	-3.055330156e-08
0.5522938699 	1.810942065e-05 	-0.0022497465 	-1.817152108e-08 	-1.588201611e-05 	7.683893699e-10 	-3.027553689e-08
0.5540659904 	1.794783373e-05 	-0.002185207122 	-1.977846956e-08 	-1.570459014e-05 	7.405631244e-10 	-2.993731367e-08
0.5558578859 	1.774890815e-05 	-0.002120006869 	-2.138492124e-08 	-1.549279871e-05 	7.034094855e-10 	-2.953358035e-08
0.5576697768 	1.751008001e-05 	-0.002054172216 	-2.297534571e-08 	-1.52442177e-05 	6.57466652e-10 	-2.905971585e-08
0.5595018865 	1.722909606e-05 	-0.001987736902 	-2.45334803e-08 	-1.495673361e-05 	6.032628609e-10 	-2.851169127e-08
0.5613544406 	1.690411204e-05 	-0.001920742303 	-2.604209455e-08 	-1.462864031e-05 	5.411918285e-10 	-2.788625424e-08
0.563227667 	1.653380971e-05 	-0.00185323768 	-2.74825151e-08 	-1.425875382e-05 	4.714109757e-10 	-2.718114779e-08
0.5651217966 	1.611753793e-05 	-0.00178528022 	-2.883398851e-08 	-1.384655039e-05 	3.938410993e-10 	-2.639537349e-08
0.5670370626 	1.56554756e-05 	-0.001716934783 	-3.00731857e-08 	-1.33923255e-05 	3.083864992e-10 	-2.55294946e-08
0.5689737009 	1.514879499e-05 	-0.001648273259 	-3.117448194e-08 	-1.289735216e-05 	2.154974683e-10 	-2.458593786e-08
0.5709319499 	1.45997662e-05 	-0.001579373508 	-3.211193139e-08 	-1.23639788e-05 	1.170942942e-10 	-2.356917998e-08
0.5729120508 	1.401169749e-05 	-0.001510318056 	-3.286370667e-08 	-1.179556418e-05 	1.755574723e-11 	-2.248562373e-08
0.5749142474 	1.338855567e-05 	-0.001441193055 	-3.341864907e-08 	-1.119608258e-05 	-7.592155152e-11 	-2.134284519e-08
0.5769387863 	1.273420979e-05 	-0.0013720884 	-3.378236701e-08 	-1.056938425e-05 	-1.547978766e-10 	-2.014818399e-08
0.5789859169 	1.205106266e-05 	-0.00130310005 	-3.39780711e-08 	-9.917528067e-06 	-2.127501713e-10 	-1.890556493e-08
0.5810558911 	1.134022443e-05 	-0.001234335061 	-3.403597556e-08 	-9.24205716e-06 	-2.508375307e-10 	-1.761792964e-08
0.583148964 	1.060046063e-05 	-0.001165920779 	-3.397470755e-08 	-8.541885521e-06 	-2.807810279e-10 	-1.62832079e-08
0.5852653933 	9.82776561e-06 	-0.001097928217 	-3.377380705e-08 	-7.810834494e-06 	-3.202740299e-10 	-1.488962145e-08
0.5874054395 	9.027026182e-06 	-0.001030595993 	-3.337040007e-08 	-7.054367853e-06 	-3.795536791e-10 	-1.344758579e-08
0.5895693664 	8.210000241e-06 	-0.0009642531361 	-3.27020205e-08 	-6.285819455e-06 	-4.468726745e-10 	-1.198251893e-08
0.5917574402 	7.383470294e-06 	-0.000898937503 	-3.176789272e-08 	-5.509342607e-06 	-4.941963089e-10 	-1.050233825e-08
0.5939699306 	6.557672199e-06 	-0.0008347429817 	-3.064500902e-08 	-4.734700317e-06 	-5.043530582e-10 	-9.025654745e-09
0.5962071099 	5.743998389e-06 	-0.0007718827945 	-2.943999142e-08 	-3.974846351e-06 	-4.843221991e-10 	-7.577161897e-09
0.5984692536 	4.945619759e-06 	-0.000710493827 	-2.82285504e-08 	-3.231826453e-06 	-4.53504207e-10 	-6.16075946e-09
0.6007566404 	4.16246643e-06 	-0.0006507256681 	-2.702562816e-08 	-2.504407704e-06 	-4.27529144e-10 	-4.774097148e-09
0.6030695519 	3.394734343e-06 	-0.0005927440506 	-2.580424847e-08 	-1.792278133e-06 	-4.113363151e-10 	-3.41658026e-09
0.6054082729 	2.643154666e-06 	-0.0005367279668 	-2.453231126e-08 	-1.095300906e-06 	-4.021165365e-10 	-2.08794795e-09
0.6077730914 	1.90915855e-06 	-0.000482861705 	-2.319612127e-08 	-4.13985323e-07 	-3.952677955e-10 	-7.89171087e-10
0.6101642987 	1.194135451e-06 	-0.0004313256358 	-2.180401851e-08 	2.512550169e-07 	-3.879090707e-10 	4.78961895e-10
0.6125821893 	4.988035885e-07 	-0.000382286991 	-2.037911498e-08 	9.006804327e-07 	-3.794514013e-10 	1.716947236e-09
0.6150270608 	-1.771216565e-07 	-0.0003358902975 	-1.895096451e-08 	1.535497712e-06 	-3.706731226e-10 	2.927085408e-09
0.6174992144 	-8.350165962e-07 	-0.0002922471273 	-1.755031183e-08 	2.157898422e-06 	-3.628240132e-10 	4.11355415e-09
0.6199989545 	-1.477354853e-06 	-0.0002514249226 	-1.620807158e-08 	2.771062388e-06 	-3.570835029e-10 	5.282415088e-09
0.622526589 	-2.107738499e-06 	-0.0002134439266 	-1.494497334e-08 	3.379100249e-06 	-3.542659507e-10 	6.441504247e-09
0.625082429 	-2.730692487e-06 	-0.0001782755696 	-1.378240249e-08 	3.98679247e-06 	-3.547490099e-10 	7.59993452e-09
0.6276667894 	-3.350929806e-06 	-0.0001458325506 	-1.274496958e-08 	4.598865787e-06 	-3.584729012e-10 	8.766716378e-09
0.6302799884 	-3.972953665e-06 	-0.0001159765726 	-1.183963619e-08 	5.219484107e-06 	-3.653200994e-10 	9.949787389e-09
0.6329223478 	-4.601226842e-06 	-8.853667368e-05 	-1.106722107e-08 	5.852453841e-06 	-3.751796565e-10 	1.115640363e-08
0.6355941931 	-5.239985928e-06 	-6.331861734e-05 	-1.042696195e-08 	6.501184683e-06 	-3.877671475e-10 	1.239306492e-08
0.6382958531 	-5.892835582e-06 	-4.011623777e-05 	-9.911140424e-09 	7.168287401e-06 	-4.027303332e-10 	1.366474811e-08
0.6410276607 	-6.562548584e-06 	-1.872361734e-05 	-9.508764011e-09 	7.855388725e-06 	-4.197223104e-10 	1.49745542e-08
0.6437899523 	-7.250990832e-06 	1.056124805e-06 	-9.206822467e-09 	8.563125496e-06 	-4.384418636e-10 	1.632369719e-08
0.646583068 	-7.959126219e-06 	1.940493377e-05 	-8.991553307e-09 	9.291205492e-06 	-4.586367107e-10 	1.771162002e-08
0.6494073518 	-8.687089383e-06 	3.648662145e-05 	-8.849450097e-09 	1.00385285e-05 	-4.801142668e-10 	1.913622538e-08
0.6522631514 	-9.434281105e-06 	5.244584273e-05 	-8.767919462e-09 	1.080331751e-05 	-5.027306044e-10 	2.059412579e-08
0.6551508186 	-1.019945155e-05 	6.740856019e-05 	-8.735633808e-09 	1.158322362e-05 	-5.263758484e-10 	2.208084361e-08
0.658070709 	-1.098075634e-05 	8.148341311e-05 	-8.742665538e-09 	1.237539229e-05 	-5.509612361e-10 	2.359093727e-08
0.6610231822 	-1.177578616e-05 	9.476356054e-05 	-8.78047933e-09 	1.317649598e-05 	-5.764100342e-10 	2.511806356e-08
0.6640086017 	-1.25815774e-05 	0.0001073287048 	-8.841838222e-09 	1.398274494e-05 	-6.026508406e-10 	2.665499815e-08
0.6670273351 	-1.339461289e-05 	0.0001192471052 	-8.920663763e-09 	1.478988758e-05 	-6.296112613e-10 	2.819363637e-08
0.6700797543 	-1.421082028e-05 	0.0001305774659 	-9.011879478e-09 	1.559320986e-05 	-6.572108138e-10 	2.97249919e-08
0.6731662352 	-1.50255746e-05 	0.0001413706377 	-9.111257436e-09 	1.638754042e-05 	-6.853530742e-10 	3.123920672e-08
0.6762871577 	-1.583371046e-05 	0.000151671111 	-9.215279393e-09 	1.71672675e-05 	-7.139178195e-10 	3.272558326e-08
0.6794429063 	-1.66295494e-05 	0.0001615183008 	-9.321017418e-09 	1.792637269e-05 	-7.427541537e-10 	3.417264872e-08
0.6826338695 	-1.74069472e-05 	0.0001709476396 	-9.426034541e-09 	1.865848603e-05 	-7.716755257e-10 	3.556826023e-08
0.6858604404 	-1.815936552e-05 	0.0001799915026 	-9.528303399e-09 	1.935696618e-05 	-8.004573275e-10 	3.689975752e-08
0.6891230163 	-1.887996998e-05 	0.0001886799893 	-9.626139639e-09 	2.001500706e-05 	-8.288375254e-10 	3.815416634e-08
0.6924219988 	-1.956175507e-05 	0.000197041589 	-9.718146505e-09 	2.06257701e-05 	-8.565205397e-10 	3.931845044e-08
0.6957577944 	-2.019769252e-05 	0.0002051037533 	-9.803167211e-09 	2.118253785e-05 	-8.831843642e-10 	4.037980453e-08
0.6991308138 	-2.078089715e-05 	0.0002128933998 	-9.880242361e-09 	2.167888171e-05 	-9.084906687e-10 	4.132597388e-08
0.7025414724 	-2.13048006e-05 	0.000220437368 	-9.948570555e-09 	2.210883335e-05 	-9.320973108e-10 	4.21455812e-08
0.7059901901 	-2.176332127e-05 	0.0002277628484 	-1.000747142e-08 	2.246704745e-05 	-9.536723006e-10 	4.282843684e-08
0.7094773917 	-2.215101724e-05 	0.0002348978065 	-1.005635137e-08 	2.274894251e-05 	-9.729078224e-10 	4.336580716e-08
0.7130035066 	-2.246320909e-05 	0.0002418714202 	-1.00946733e-08 	2.295080667e-05 	-9.895325494e-10 	4.375061637e-08
0.7165689691 	-2.269606279e-05 	0.0002487145573 	-1.012193119e-08 	2.306986032e-05 	-1.003320449e-09 	4.397756571e-08
0.7201742182 	-2.28466212e-05 	0.0002554603108 	-1.013763221e-08 	2.31042611e-05 	-1.014093872e-09 	4.404314315e-08
0.7238196978 	-2.29128022e-05 	0.000262144612 	-1.01412872e-08 	2.305309009e-05 	-1.02172414e-09 	4.394559699e-08
0.727505857 	-2.289334e-05 	0.0002688069077 	-1.013240152e-08 	2.291626605e-05 	-1.026125895e-09 	4.368477233e-08
0.7312331497 	-2.278764251e-05 	0.0002754924571 	-1.011067506e-08 	2.269432298e-05 	-1.027231067e-09 	4.326168717e-08
0.7350020349 	-2.259595743e-05 	0.0002822312484 	-1.00760639e-08 	2.238892929e-05 	-1.02492697e-09 	4.26795219e-08
0.7387709215 	-2.232124347e-05 	0.0002890135195 	-1.002843879e-08 	2.200510109e-05 	-1.019052392e-09 	4.194783868e-08
0.7424982157 	-2.197023012e-05 	0.0002958368435 	-9.967899481e-09 	2.155130563e-05 	-1.009536539e-09 	4.10827784e-08
0.7461843763 	-2.15512232e-05 	0.0003027434585 	-9.89506881e-09 	2.10366006e-05 	-9.964812385e-10 	4.010160756e-08
0.7498298574 	-2.107262895e-05 	0.0003097908652 	-9.810523081e-09 	2.046970765e-05 	-9.801068076e-10 	3.902095203e-08
0.7534351078 	-2.054279248e-05 	0.0003170353892 	-9.714596683e-09 	1.985913773e-05 	-9.606889825e-10 	3.785703608e-08
0.7570005716 	-1.996979893e-05 	0.0003245338707 	-9.607558747e-09 	1.921296863e-05 	-9.385293346e-10 	3.662525817e-08
0.7605266877 	-1.93613648e-05 	0.0003323437139 	-9.489605357e-09 	1.85387734e-05 	-9.139432518e-10 	3.534005469e-08
0.7640138905 	-1.872474892e-05 	0.0003405229417 	-9.360862529e-09 	1.784355752e-05 	-8.87253144e-10 	3.401477999e-08
0.7674626093 	-1.80666839e-05 	0.000349130189 	-9.221389915e-09 	1.713370818e-05 	-8.58781479e-10 	3.266160987e-08
0.770873269 	-1.739333473e-05 	0.0003582246215 	-9.07118048e-09 	1.641497264e-05 	-8.288485524e-10 	3.129150015e-08
0.7742462894 	-1.671027648e-05 	0.0003678657704 	-8.910151029e-09 	1.569245376e-05 	-7.977733134e-10 	2.991417835e-08
0.777582086 	-1.602248628e-05 	0.0003781132756 	-8.738119355e-09 	1.497061853e-05 	-7.658762992e-10 	2.853815978e-08
0.7808810695 	-1.533434503e-05 	0.0003890265367 	-8.554765443e-09 	1.425331451e-05 	-7.334834151e-10 	2.717077896e-08
0.7841436462 	-1.464964488e-05 	0.0004006642745 	-8.359576102e-09 	1.354379062e-05 	-7.009295067e-10 	2.581822922e-08
0.787370218 	-1.397160012e-05 	0.0004130840191 	-8.151774197e-09 	1.284471967e-05 	-6.685609841e-10 	2.448560569e-08
0.7905611821 	-1.330285948e-05 	0.0004263415412 	-7.930235122e-09 	1.2158221e-05 	-6.367371212e-10 	2.317694842e-08
0.7937169314 	-1.26455194e-05 	0.0004404902548 	-7.693394415e-09 	1.148588262e-05 	-6.058298993e-10 	2.189528461e-08
0.7968378547 	-1.200113791e-05 	0.0004555806222 	-7.43915183e-09 	1.082878279e-05 	-5.762222886e-10 	2.06426697e-08
0.7999243362 	-1.137074985e-05 	0.0004716595973 	-7.164779315e-09 	1.018751147e-05 	-5.483046725e-10 	1.942022834e-08
0.8029767561 	-1.075488395e-05 	0.0004887701414 	-6.866843471e-09 	9.562192558e-06 	-5.224688152e-10 	1.822819669e-08
0.8059954902 	-1.015358295e-05 	0.0005069508464 	-6.541156912e-09 	8.952507766e-06 	-4.990985629e-10 	1.706596802e-08
0.8089809102 	-9.566428162e-06 	0.0005262356882 	-6.182776503e-09 	8.357723844e-06 	-4.785565354e-10 	1.593214456e-08
0.8119333839 	-8.992570275e-06 	0.0005466539246 	-5.786068102e-09 	7.776724642e-06 	-4.61166544e-10 	1.48245986e-08
0.8148532749 	-8.430768171e-06 	0.0005682301356 	-5.344855412e-09 	7.208050165e-06 	-4.471923518e-10 	1.374054699e-08
0.8177409426 	-7.879437934e-06 	0.0005909843819 	-4.852663722e-09 	6.649944598e-06 	-4.368144737e-10 	1.267664266e-08
0.8205967427 	-7.336713431e-06 	0.0006149324461 	-4.303057681e-09 	6.100414918e-06 	-4.301076844e-10 	1.162908636e-08
0.8234210268 	-6.800519106e-06 	0.0006400861023 	-3.690057595e-09 	5.557300806e-06 	-4.270224451e-10 	1.059375991e-08
0.8262141429 	-6.268654101e-06 	0.0006664533561 	-3.008603828e-09 	5.018355153e-06 	-4.273733372e-10 	9.566379702e-09
0.8289764348 	-5.738885192e-06 	0.0006940386009 	-2.255027314e-09 	4.481332832e-06 	-4.308367781e-10 	8.542665901e-09
0.8317082427 	-5.209044347e-06 	0.0007228426476 	-1.427478696e-09 	3.944083734e-06 	-4.369589799e-10 	7.518519797e-09
0.8344099031 	-4.677125495e-06 	0.0007528626074 	-5.262706634e-10 	3.404644854e-06 	-4.451736113e-10 	6.490199363e-09
0.8370817486 	-4.141374507e-06 	0.00078409163 	4.459027912e-10 	2.861325619e-06 	-4.548273083e-10 	5.454481894e-09
0.8397241082 	-3.600366623e-06 	0.0008165185266 	1.483892262e-09 	2.312780818e-06 	-4.652103149e-10 	4.408803044e-09
0.8423373074 	-3.053066521e-06 	0.0008501273224 	2.580169738e-09 	1.758066479e-06 	-4.755892556e-10 	3.351363338e-09
0.844921668 	-2.49886778e-06 	0.000884896801 	3.725046561e-09 	1.196675496e-06 	-4.85239281e-10 	2.281196095e-09
0.8474775082 	-1.937610301e-06 	0.0009208001004 	4.907010436e-09 	6.285516433e-07 	-4.934734284e-10 	1.198194129e-09
0.8500051427 	-1.369576081e-06 	0.0009578044189 	6.113151265e-09 	5.408235274e-08 	-4.996677887e-10 	1.030959957e-10
0.8525048829 	-7.954653018e-07 	0.0009958708747 	7.329641981e-09 	-5.259277577e-07 	-5.032817674e-10 	-1.00256448e-09
0.8549770366 	-2.163558843e-07 	0.001034954548 	8.542240785e-09 	-1.110299494e-06 	-5.038732602e-10 	-2.116539427e-09
0.8574219081 	3.663496014e-07 	0.001075004717 	9.736784247e-09 	-1.697533978e-06 	-5.01108887e-10 	-3.235971567e-09
0.8598397987 	9.50985526e-07 	0.001115965276 	1.08996456e-08 	-2.285875705e-06 	-4.947695706e-10 	-4.35751442e-09
0.862231006 	1.535689216e-06 	0.001157775327 	1.201813818e-08 	-2.873379724e-06 	-4.847517741e-10 	-5.477460368e-09
0.8645958245 	2.118467702e-06 	0.001200369895 	1.308084996e-08 	-3.457979283e-06 	-4.710646885e-10 	-6.59186961e-09
0.8669345455 	2.697262044e-06 	0.001243680753 	1.407790046e-08 	-4.037550812e-06 	-4.538236589e-10 	-7.696694026e-09
0.8692474569 	3.270006732e-06 	0.001287637293 	1.500111675e-08 	-4.60997375e-06 	-4.332401763e-10 	-8.787891244e-09
0.8715348435 	3.834682314e-06 	0.001332167425 	1.584412935e-08 	-5.173183404e-06 	-4.09608847e-10 	-9.86152538e-09
0.8737969871 	4.389360012e-06 	0.001377198455 	1.660239277e-08 	-5.725215607e-06 	-3.832918783e-10 	-1.091385219e-08
0.8760341663 	4.93223769e-06 	0.001422657921 	1.727313829e-08 	-6.264242565e-06 	-3.547017417e-10 	-1.194138738e-08
0.8782466565 	5.461666994e-06 	0.001468474356 	1.785526881e-08 	-6.788599719e-06 	-3.242827865e-10 	-1.294095786e-08
0.8804347301 	5.976171898e-06 	0.001514577965 	1.834920684e-08 	-7.296803892e-06 	-2.924926402e-10 	-1.390973626e-08
0.8825986568 	6.474459203e-06 	0.001560901209 	1.875670765e-08 	-7.78756327e-06 	-2.597842397e-10 	-1.484526003e-08
0.8847387028 	6.955421768e-06 	0.001607379282 	1.908064932e-08 	-8.25978004e-06 	-2.265892856e-10 	-1.574543644e-08
0.8868551318 	7.418135426e-06 	0.001653950486 	1.932481104e-08 	-8.71254663e-06 	-1.933038063e-10 	-1.66085354e-08
0.8889482045 	7.861850607e-06 	0.001700556507 	1.949364999e-08 	-9.145136631e-06 	-1.602763686e-10 	-1.743317218e-08
0.8910181784 	8.285979776e-06 	0.001747142601 	1.959208546e-08 	-9.556991494e-06 	-1.277993011e-10 	-1.821828202e-08
0.8930653087 	8.690081743e-06 	0.00179365769 	1.962529782e-08 	-9.947704112e-06 	-9.61031034e-11 	-1.896308886e-08
0.8950898473 	9.073843905e-06 	0.001840054386 	1.959854768e-08 	-1.031700034e-05 	-6.535403547e-11 	-1.96670701e-08
0.8970920436 	9.437063387e-06 	0.001886288955 	1.951701932e-08 	-1.066471943e-05 	-3.565471243e-11 	-2.032991933e-08
0.8990721441 	9.779627962e-06 	0.001932321228 	1.938569065e-08 	-1.099079434e-05 	-7.047387233e-12 	-2.095150875e-08
0.9010303927 	1.010149753e-05 	0.001978114458 	1.920923049e-08 	-1.129523261e-05 	2.04805096e-11 	-2.15318527e-08
0.9029670306 	1.040268683e-05 	0.002023635167 	1.899192288e-08 	-1.157809853e-05 	4.698908381e-11 	-2.207107376e-08
0.9048822962 	1.068324983e-05 	0.002068852949 	1.873761679e-08 	-1.183949711e-05 	7.25774993e-11 	-2.256937211e-08
0.9067764254 	1.094326636e-05 	0.002113740272 	1.844969892e-08 	-1.207956031e-05 	9.737487273e-11 	-2.30269993e-08
0.9086496514 	1.118283104e-05 	0.002158272268 	1.813108665e-08 	-1.229843565e-05 	1.215310872e-10 	-2.344423653e-08