0.4709558481 	5.249403428e-08 	-0.00694849313 	4.565116954e-08 	-4.973290304e-08 	-7.664737181e-13 	-9.480473682e-11
0.4709558481 	5.249403428e-08 	-0.00694849313 	4.565116954e-08 	-4.973290304e-08 	-7.664737181e-13 	-9.480473682e-11
0.4711314108 	1.106295718e-07 	-0.006945815225 	4.563899563e-08 	-1.107750324e-07 	-1.700334646e-12 	-2.111679997e-10
0.4713069734 	2.217133061e-07 	-0.006938605819 	4.559756795e-08 	-2.22510167e-07 	-3.360873003e-12 	-4.241662215e-10
0.471482536 	3.363646057e-07 	-0.006930901868 	4.554507237e-08 	-3.414002389e-07 	-5.000173349e-12 	-6.508037423e-10
0.4716580986 	4.527328598e-07 	-0.006922199425 	4.547041553e-08 	-4.637001775e-07 	-6.586668222e-12 	-8.839414167e-10
0.4718336613 	5.691625648e-07 	-0.006911774763 	4.53586293e-08 	-5.859614601e-07 	-8.349786735e-12 	-1.117005402e-09
0.4720092239 	6.806160955e-07 	-0.006898718031 	4.519318994e-08 	-6.978242324e-07 	-1.064017829e-11 	-1.330246937e-09
0.4721847865 	7.819758014e-07 	-0.006882053834 	4.496048938e-08 	-7.885422901e-07 	-1.362029043e-11 	-1.503180769e-09
0.4723603491 	8.739599273e-07 	-0.006860927876 	4.465470076e-08 	-8.587533095e-07 	-1.685185708e-11 	-1.637022486e-09
0.4725359118 	9.666546441e-07 	-0.00683479374 	4.428032626e-08 	-9.275466397e-07 	-1.93403106e-11 	-1.768161693e-09
0.4727114744 	1.074816436e-06 	-0.006803531187 	4.385118253e-08 	-1.023176197e-06 	-2.026899177e-11 	-1.950458208e-09
0.472887037 	1.20723917e-06 	-0.006767472285 	4.338723824e-08 	-1.161985701e-06 	-1.973470316e-11 	-2.215067704e-09
0.4730625996 	1.360480047e-06 	-0.006727354861 	4.291135471e-08 	-1.336048132e-06 	-1.859967526e-11 	-2.546879074e-09
0.4732381623 	1.523156488e-06 	-0.006684223803 	4.244627651e-08 	-1.52186046e-06 	-1.761951486e-11 	-2.901089016e-09
0.4734137249 	1.685436788e-06 	-0.006639287616 	4.201137778e-08 	-1.699326344e-06 	-1.683977669e-11 	-3.239388315e-09
0.4735892875 	1.844442446e-06 	-0.006593750908 	4.161979509e-08 	-1.862507087e-06 	-1.575381671e-11 	-3.550456164e-09
0.4737648501 	2.002930838e-06 	-0.006548666389 	4.127727909e-08 	-2.016922781e-06 	-1.380197331e-11 	-3.844815396e-09
0.4739404128 	2.165229101e-06 	-0.006504845392 	4.098313192e-08 	-2.171362583e-06 	-1.066370152e-11 	-4.139220582e-09
0.4741159754 	2.334466023e-06 	-0.00646283598 	4.073236137e-08 	-2.332299379e-06 	-6.245753236e-12 	-4.446010845e-09
0.474291538 	2.511971184e-06 	-0.00642295081 	4.051791517e-08 	-2.50264819e-06 	-5.555373001e-13 	-4.770743025e-09
0.4744671006 	2.697816592e-06 	-0.006385318603 	4.03323362e-08 	-2.682820569e-06 	6.39161698e-12 	-5.114201656e-09
0.4746426632 	2.891499494e-06 	-0.006349938714 	4.01687164e-08 	-2.872072259e-06 	1.460439194e-11 	-5.474967977e-09
0.4748182259 	3.092380266e-06 	-0.00631672785 	4.00211069e-08 	-3.069369626e-06 	2.411342559e-11 	-5.851071594e-09
0.4749937885 	3.299883025e-06 	-0.00628555545 	3.988459614e-08 	-3.273787228e-06 	3.496002953e-11 	-6.240748359e-09
0.4751693511 	3.513480289e-06 	-0.006256268331 	3.975522329e-08 	-3.484477125e-06 	4.718464293e-11 	-6.642381861e-09
0.4753449137 	3.732851388e-06 	-0.006228706754 	3.96298307e-08 	-3.700986945e-06 	6.082174317e-11 	-7.055109753e-09
0.4755204764 	3.957095867e-06 	-0.006202714218 	3.950590958e-08 	-3.921692261e-06 	7.588062587e-11 	-7.475835427e-09
0.475696039 	4.192731577e-06 	-0.006178142947 	3.938146272e-08 	-4.159768556e-06 	9.248120365e-11 	-7.929675015e-09
0.4758716016 	4.419272807e-06 	-0.006154867919 	3.925498365e-08 	-4.37446525e-06 	1.10373579e-10 	-8.338946586e-09
0.4760471642 	4.634390465e-06 	-0.006132301811 	3.912255529e-08 	-4.561343029e-06 	1.294160497e-10 	-8.695187573e-09
0.4762227269 	4.942006477e-06 	-0.006110406501 	3.897845481e-08 	-4.891315103e-06 	1.534956287e-10 	-9.324206056e-09
0.4764955107 	5.333131077e-06 	-0.00608389462 	3.878051158e-08 	-5.307732538e-06 	1.860301931e-10 	-1.011801342e-08
0.4767734216 	5.716935104e-06 	-0.006053496484 	3.852592292e-08 	-5.658141525e-06 	2.245794406e-10 	-1.078599035e-08
0.4770565557 	6.137371816e-06 	-0.006024905955 	3.824648097e-08 	-6.060733905e-06 	2.674456254e-10 	-1.155344332e-08
0.4773450114 	6.598340237e-06 	-0.005997244614 	3.793591804e-08 	-6.52273198e-06 	3.146118082e-10 	-1.243414005e-08
0.4776388886 	7.070161981e-06 	-0.005970377109 	3.759186049e-08 	-6.984480225e-06 	3.657873798e-10 	-1.331436055e-08
0.4779382892 	7.565077807e-06 	-0.005944165793 	3.721193494e-08 	-7.469975927e-06 	4.211682505e-10 	-1.423985029e-08
0.4782433171 	8.081974844e-06 	-0.005918488503 	3.679394672e-08 	-7.976593604e-06 	4.806936307e-10 	-1.520560439e-08
0.4785540779 	8.62128031e-06 	-0.005893236366 	3.633586901e-08 	-8.5048194e-06 	5.442818886e-10 	-1.621254957e-08
0.4788706795 	9.183162803e-06 	-0.005868311985 	3.583584355e-08 	-9.054672538e-06 	6.11799537e-10 	-1.726072247e-08
0.4791932316 	9.767859125e-06 	-0.005843627948 	3.529218861e-08 	-9.626368121e-06 	6.830624565e-10 	-1.835053315e-08
0.4795218461 	1.037551373e-05 	-0.005819105506 	3.470341116e-08 	-1.022000748e-05 	7.578310398e-10 	-1.948217477e-08
0.4798566368 	1.100618789e-05 	-0.005794673434 	3.406822166e-08 	-1.083560683e-05 	8.358086363e-10 	-2.065567822e-08
0.48019772 	1.165984988e-05 	-0.005770267032 	3.338555054e-08 	-1.147308756e-05 	9.166403587e-10 	-2.187089367e-08
0.4805452138 	1.233636738e-05 	-0.005745827279 	3.265456576e-08 	-1.213227014e-05 	9.999127061e-10 	-2.312747888e-08
0.4808992388 	1.303549911e-05 	-0.005721300089 	3.187469055e-08 	-1.281286567e-05 	1.085154087e-09 	-2.442488311e-08
0.4812599177 	1.375688762e-05 	-0.005696635687 	3.104562102e-08 	-1.351446895e-05 	1.171836364e-09 	-2.576233397e-08
0.4816273755 	1.45000534e-05 	-0.00567178807 	3.016734328e-08 	-1.423655288e-05 	1.259377518e-09 	-2.713882663e-08
0.4820017397 	1.526439001e-05 	-0.005646714548 	2.924014937e-08 	-1.497846385e-05 	1.347145436e-09 	-2.855311515e-08
0.48238314 	1.604916043e-05 	-0.005621375351 	2.826465134e-08 	-1.573941826e-05 	1.434462882e-09 	-3.000370576e-08
0.4827717088 	1.685349507e-05 	-0.0055957333 	2.724179503e-08 	-1.651850089e-05 	1.520613772e-09 	-3.148885378e-08
0.4831675807 	1.767639124e-05 	-0.005569753532 	2.617287137e-08 	-1.731466477e-05 	1.604850625e-09 	-3.300656341e-08
0.4835708931 	1.851671364e-05 	-0.00554340325 	2.505952285e-08 	-1.812673164e-05 	1.686403042e-09 	-3.455458857e-08
0.4839817856 	1.937319683e-05 	-0.005516651525 	2.39037491e-08 	-1.895339466e-05 	1.764487422e-09 	-3.613043805e-08
0.4844004009 	2.024444936e-05 	-0.005489469128 	2.270790951e-08 	-1.979322297e-05 	1.838317742e-09 	-3.773138423e-08
0.4848268841 	2.112895932e-05 	-0.005461828385 	2.147472086e-08 	-2.064466725e-05 	1.907117106e-09 	-3.935447366e-08
0.485261383 	2.202510143e-05 	-0.005433703053 	2.020725125e-08 	-2.1506067e-05 	1.970130074e-09 	-4.099654101e-08
0.4857040484 	2.293114587e-05 	-0.005405068224 	1.890890948e-08 	-2.237565953e-05 	2.026635558e-09 	-4.265422606e-08
0.4861550336 	2.384526846e-05 	-0.005375900233 	1.758342941e-08 	-2.325159029e-05 	2.075960063e-09 	-4.432399353e-08
0.4866144951 	2.476556245e-05 	-0.005346176593 	1.623484908e-08 	-2.413192466e-05 	2.117491064e-09 	-4.600215552e-08
0.4870825921 	2.569005155e-05 	-0.005315875926 	1.486748423e-08 	-2.501466116e-05 	2.150690254e-09 	-4.768489663e-08
0.487559487 	2.661670432e-05 	-0.005284977922 	1.348589599e-08 	-2.589774581e-05 	2.175106423e-09 	-4.936830142e-08
0.4880453452 	2.754344969e-05 	-0.005253463286 	1.209485237e-08 	-2.677908773e-05 	2.190387674e-09 	-5.104838407e-08
0.4885403351 	2.846819356e-05 	-0.005221313706 	1.06992837e-08 	-2.765657567e-05 	2.196292707e-09 	-5.272111997e-08
0.4890446283 	2.938883621e-05 	-0.005188511815 	9.304231848e-09 	-2.852809548e-05 	2.192700888e-09 	-5.438247896e-08
0.4895583997 	3.030329059e-05 	-0.00515504116 	7.914793233e-09 	-2.939154826e-05 	2.179620814e-09 	-5.602845995e-08
0.4900818274 	3.120950098e-05 	-0.005120886171 	6.536055986e-09 	-3.024486906e-05 	2.157197121e-09 	-5.765512655e-08
0.4906150929 	3.210546219e-05 	-0.005086032131 	5.173031446e-09 	-3.108604591e-05 	2.125715283e-09 	-5.925864342e-08
0.4911583811 	3.298923883e-05 	-0.005050465136 	3.8305807e-09 	-3.191313904e-05 	2.085604165e-09 	-6.083531281e-08
0.4917118805 	3.385898454e-05 	-0.005014172066 	2.513336605e-09 	-3.272430002e-05 	2.037436149e-09 	-6.238161108e-08
0.4922757829 	3.471296097e-05 	-0.004977140538 	1.225622174e-09 	-3.351779057e-05 	1.981924664e-09 	-6.389422461e-08
0.4928502838 	3.554955621e-05 	-0.004939358859 	-2.863358932e-11 	-3.429200092e-05 	1.91991902e-09 	-6.537008472e-08
0.4934355824 	3.636730244e-05 	-0.004900815977 	-1.245981313e-09 	-3.504546733e-05 	1.85239646e-09 	-6.680640111e-08
0.4940318817 	3.716489259e-05 	-0.004861501413 	-2.423537065e-09 	-3.577688861e-05 	1.780451443e-09 	-6.820069336e-08
0.4946393885 	3.794119568e-05 	-0.004821405194 	-3.559066827e-09 	-3.648514137e-05 	1.705282178e-09 	-6.955081997e-08
0.4952583133 	3.86952706e-05 	-0.004780517772 	-4.651068053e-09 	-3.716929369e-05 	1.62817453e-09 	-7.085500444e-08
0.4958888709 	3.942637808e-05 	-0.004738829938 	-5.698846648e-09 	-3.7828617e-05 	1.550483464e-09 	-7.211185791e-08
0.4965312797 	4.013399052e-05 	-0.004696332716 	-6.702587613e-09 	-3.846259588e-05 	1.473612236e-09 	-7.332039788e-08
0.4971857627 	4.081779951e-05 	-0.004653017258 	-7.663417576e-09 	-3.907093554e-05 	1.398989632e-09 	-7.448006234e-08
0.4978525466 	4.147772054e-05 	-0.004608874722 	-8.583457428e-09 	-3.965356651e-05 	1.32804557e-09 	-7.55907189e-08
0.4985318627 	4.211389474e-05 	-0.004563896142 	-9.465863299e-09 	-4.021064646e-05 	1.262185467e-09 	-7.665266812e-08
0.4992239466 	4.272668736e-05 	-0.004518072293 	-1.031485418e-08 	-4.074255912e-05 	1.202763768e-09 	-7.766664149e-08
0.4999290382 	4.331668209e-05 	-0.004471393544 	-1.113572452e-08 	-4.124990893e-05 	1.151057061e-09 	-7.863379124e-08
0.5006473819 	4.388467064e-05 	-0.004423849714 	-1.193484028e-08 	-4.173351121e-05 	1.108237258e-09 	-7.955567159e-08
0.501379227 	4.443161109e-05 	-0.004375429913 	-1.271961711e-08 	-4.219432604e-05 	1.075345196e-09 	-8.043411273e-08
0.502124827 	4.495866157e-05 	-0.004326122374 	-1.349848028e-08 	-4.263354958e-05 	1.053269103e-09 	-8.127139488e-08
0.5028844406 	4.546707862e-05 	-0.004275914231 	-1.428080703e-08 	-4.305244219e-05 	1.042715627e-09 	-8.206992062e-08
0.5036583311 	4.596023256e-05 	-0.004224791275 	-1.507685374e-08 	-4.345639059e-05 	1.044202618e-09 	-8.283995855e-08
0.5044467669 	4.64340162e-05 	-0.004172739109 	-1.589761055e-08 	-4.383578298e-05 	1.057755513e-09 	-8.356318588e-08
0.5052500214 	4.688844489e-05 	-0.004119701315 	-1.675629781e-08 	-4.418929476e-05 	1.083137797e-09 	-8.423707759e-08
0.506068373 	4.740010436e-05 	-0.004059357996 	-1.778232053e-08 	-4.459852499e-05 	1.127914602e-09 	-8.501718414e-08
0.507324668 	4.799732822e-05 	-0.003984035773 	-1.914741989e-08 	-4.506933291e-05 	1.203391316e-09 	-8.59146749e-08
0.5085949819 	4.858956069e-05 	-0.003900237538 	-2.07885492e-08 	-4.551026344e-05 	1.306096955e-09 	-8.675521105e-08
0.5098794711 	4.913943258e-05 	-0.003815588927 	-2.261125264e-08 	-4.591437526e-05 	1.425939369e-09 	-8.752556049e-08
0.5111782938 	4.9645606e-05 	-0.003730008327 	-2.464077788e-08 	-4.62805549e-05 	1.556718577e-09 	-8.822360065e-08
0.5124916099 	5.009875373e-05 	-0.003643468318 	-2.689528602e-08 	-4.659281664e-05 	1.692364314e-09 	-8.881885832e-08
0.5138195812 	5.049904538e-05 	-0.003555940586 	-2.9387443e-08 	-4.685490772e-05 	1.827053694e-09 	-8.931847676e-08
0.5151623712 	5.084270538e-05 	-0.003467398051 	-3.212455035e-08 	-4.706344987e-05 	1.955309948e-09 	-8.971601606e-08
0.5165201452 	5.112547457e-05 	-0.003377815382 	-3.510894828e-08 	-4.721477216e-05 	2.072095013e-09 	-9.00044784e-08
0.5178930705 	5.134246667e-05 	-0.003287169419 	-3.833851689e-08 	-4.730455385e-05 	2.172857583e-09 	-9.017562727e-08
0.5192813161 	5.148832676e-05 	-0.003195439495 	-4.180726716e-08 	-4.732807394e-05 	2.253668422e-09 	-9.022046309e-08
0.520685053 	5.155727713e-05 	-0.003102607558 	-4.550592493e-08 	-4.728025258e-05 	2.310904367e-09 	-9.012930228e-08
0.522104454 	5.154287833e-05 	-0.003008657965 	-4.942286742e-08 	-4.71551531e-05 	2.340474432e-09 	-8.98908279e-08
0.523539694 	5.143776042e-05 	-0.002913580613 	-5.35281562e-08 	-4.694549123e-05 	2.339277357e-09 	-8.949115411e-08
0.5249909497 	5.123476122e-05 	-0.002817395835 	-5.77592071e-08 	-4.664460509e-05 	2.307684015e-09 	-8.89175815e-08
0.5264583998 	5.092787981e-05 	-0.002720161832 	-6.206553839e-08 	-4.624782045e-05 	2.246852453e-09 	-8.81611997e-08
0.527942225 	5.051118606e-05 	-0.002621926571 	-6.646276093e-08 	-4.574993431e-05 	2.154981348e-09 	-8.721209034e-08
0.5294426081 	4.997867573e-05 	-0.002522703455 	-7.096704019e-08 	-4.514465762e-05 	2.03177385e-09 	-8.605826472e-08
0.5309597337 	4.932579761e-05 	-0.002422512089 	-7.55246853e-08 	-4.442778e-05 	1.881432773e-09 	-8.469169674e-08
0.5324937889 	4.85493933e-05 	-0.002321409359 	-8.006988639e-08 	-4.359745559e-05 	1.706843106e-09 	-8.310886764e-08
0.5340449624 	4.764630775e-05 	-0.002219475423 	-8.456418972e-08 	-4.265156149e-05 	1.508100048e-09 	-8.130573059e-08
0.5356134452 	4.661328479e-05 	-0.002116800009 	-8.897387795e-08 	-4.158727535e-05 	1.286428799e-09 	-7.92769054e-08
0.5371994306 	4.544777165e-05 	-0.002013484732 	-9.326032735e-08 	-4.040238119e-05 	1.044596952e-09 	-7.701816781e-08
0.5388031139 	4.414829181e-05 	-0.001909646308 	-9.738186009e-08 	-3.909579485e-05 	7.857189825e-10 	-7.452745109e-08
0.5404246925 	4.271454009e-05 	-0.001805418736 	-1.012942768e-07 	-3.766758568e-05 	5.131230984e-10 	-7.180488747e-08
0.5420643661 	4.114748681e-05 	-0.001700955445 	-1.049507713e-07 	-3.611904038e-05 	2.303573203e-10 	-6.885292973e-08
0.5437223366 	3.944947255e-05 	-0.00159643176 	-1.083014453e-07 	-3.445271265e-05 	-5.888825269e-11 	-6.567644594e-08
0.5453988083 	3.762429991e-05 	-0.001492047911 	-1.112925562e-07 	-3.267245424e-05 	-3.508267317e-10 	-6.228277863e-08
0.5470939875 	3.567734092e-05 	-0.001388032694 	-1.13865635e-07 	-3.078345346e-05 	-6.415876702e-10 	-5.868181812e-08
0.5488080831 	3.361567142e-05 	-0.001284647774 	-1.159566043e-07 	-2.879229731e-05 	-9.272097259e-10 	-5.488612108e-08
0.5505413061 	3.144823483e-05 	-0.001182192519 	-1.174950908e-07 	-2.670706374e-05 	-1.203625986e-09 	-5.091108633e-08
0.5522938699 	2.918602905e-05 	-0.001081009056 	-1.184042726e-07 	-2.453744165e-05 	-1.46665382e-09 	-4.677518362e-08
0.5540659904 	2.684230033e-05 	-0.000981486908 	-1.186018057e-07 	-2.22948686e-05 	-1.712000012e-09 	-4.25002161e-08
0.5558578859 	2.443271603e-05 	-0.0008840661252 	-1.180026122e-07 	-1.999266767e-05 	-1.935290422e-09 	-3.811158125e-08
0.5576697768 	2.197547209e-05 	-0.0007892371887 	-1.165245072e-07 	-1.764615408e-05 	-2.132133887e-09 	-3.363847417e-08
0.5595018865 	1.949127011e-05 	-0.0006975353639 	-1.140976379e-07 	-1.527266547e-05 	-2.298239966e-09 	-2.91139452e-08
0.5613544406 	1.700307307e-05 	-0.0006095267698 	-1.106782091e-07 	-1.289144154e-05 	-2.429633139e-09 	-2.457467056e-08
0.563227667 	1.453553354e-05 	-0.000525783757 	-1.062655909e-07 	-1.052325725e-05 	-2.523039695e-09 	-2.006025311e-08
0.5651217966 	1.21139981e-05 	-0.0004468487766 	-1.009195479e-07 	-8.18970117e-06 	-2.576458812e-09 	-1.561184664e-08
0.5670370626 	9.763135297e-06 	-0.0003731889496 	-9.477193235e-08 	-5.912172527e-06 	-2.590216863e-09 	-1.127024404e-08
0.5689737009 	7.504980969e-06 	-0.0003051478862 	-8.802648248e-08 	-3.709980085e-06 	-2.568989533e-09 	-7.072253177e-09
0.5709319499 	5.356733621e-06 	-0.0002429042159 	-8.091368146e-08 	-1.597900376e-06 	-2.520881754e-09 	-3.04604223e-09
0.5729120508 	3.330205464e-06 	-0.0001865106588 	-7.361987387e-08 	4.149875151e-07 	-2.45437557e-09 	7.910815437e-10
0.5749142474 	1.430531516e-06 	-0.0001358542708 	-6.643251674e-08 	2.325829039e-06 	-2.376441092e-09 	4.43367658e-09
0.5769387863 	-3.432520498e-07 	-9.059972673e-05 	-5.964731585e-08 	4.135094523e-06 	-2.29053255e-09 	7.882639452e-09
0.5789859169 	-1.995830662e-06 	-5.030361985e-05 	-5.338298295e-08 	5.844931301e-06 	-2.202150189e-09 	1.114206357e-08
0.5810558911 	-3.536158868e-06 	-1.447150549e-05 	-4.77254863e-08 	7.461870519e-06 	-2.119078753e-09 	1.422439913e-08
0.583148964 	-4.976655866e-06 	1.743288737e-05 	-4.273243193e-08 	8.99624358e-06 	-2.045379136e-09 	1.714934064e-08
0.5852653933 	-6.331036454e-06 	4.594430123e-05 	-3.839895873e-08 	1.045968285e-05 	-1.982865419e-09 	1.993906262e-08
0.5874054395 	-7.613159561e-06 	7.156890111e-05 	-3.46879388e-08 	1.186396632e-05 	-1.932268003e-09 	2.261601722e-08
0.5895693664 	-8.836297724e-06 	9.476847931e-05 	-3.154248908e-08 	1.322040627e-05 	-1.893286549e-09 	2.520176878e-08
0.5917574402 	-1.001258172e-05 	0.0001159526582 	-2.889589533e-08 	1.453926461e-05 	-1.864851952e-09 	2.771587932e-08
0.5939699306 	-1.115269394e-05 	0.0001354768281 	-2.667897611e-08 	1.582941173e-05 	-1.845450194e-09 	3.017525831e-08
0.5962071099 	-1.226575882e-05 	0.0001536439863 	-2.482496715e-08 	1.709819729e-05 	-1.833402242e-09 	3.259391623e-08
0.5984692536 	-1.335938037e-05 	0.0001707089495 	-2.327242881e-08 	1.83514918e-05 	-1.827072713e-09 	3.49830439e-08
0.6007566404 	-1.443976975e-05 	0.0001868837706 	-2.19667248e-08 	1.959383515e-05 	-1.824997953e-09 	3.735129561e-08
0.6030695519 	-1.551191189e-05 	0.0002023435413 	-2.086056361e-08 	2.082863006e-05 	-1.825943814e-09 	3.970515792e-08
0.6054082729 	-1.657973526e-05 	0.0002172320732 	-1.99139831e-08 	2.205833613e-05 	-1.828916198e-09 	4.204931947e-08
0.6077730914 	-1.764626744e-05 	0.0002316671833 	-1.909401124e-08 	2.328464287e-05 	-1.833145889e-09 	4.438700093e-08
0.6101642987 	-1.871377265e-05 	0.0002457454473 	-1.837411371e-08 	2.450861652e-05 	-1.838060014e-09 	4.672023491e-08
0.6125821893 	-1.978387261e-05 	0.0002595463558 	-1.773348294e-08 	2.57308221e-05 	-1.843245244e-09 	4.905009843e-08
0.6150270608 	-2.085765298e-05 	0.000273135843 	-1.715622142e-08 	2.695142216e-05 	-1.848406276e-09 	5.13769014e-08
0.6174992144 	-2.193575532e-05 	0.0002865691937 	-1.66304863e-08 	2.817025376e-05 	-1.853324554e-09 	5.370033319e-08
0.6199989545 	-2.301845432e-05 	0.0002998933647 	-1.61476634e-08 	2.938688485e-05 	-1.857822692e-09 	5.601957018e-08
0.622526589 	-2.410572018e-05 	0.0003131487862 	-1.57016224e-08 	3.060065312e-05 	-1.861738373e-09 	5.833334987e-08
0.625082429 	-2.519726707e-05 	0.00032637072 	-1.528808133e-08 	3.181069148e-05 	-1.864908654e-09 	6.064001929e-08
0.6276667894 	-2.62925899e-05 	0.0003395902606 	-1.490408828e-08 	3.301594448e-05 	-1.867163237e-09 	6.293756648e-08
0.6302799884 	-2.739099174e-05 	0.0003528350535 	-1.454761467e-08 	3.421517992e-05 	-1.868323999e-09 	6.522364254e-08
0.6329223478 	-2.849160465e-05 	0.0003661298016 	-1.421724729e-08 	3.540699871e-05 	-1.868208007e-09 	6.749558041e-08
0.6355941931 	-2.959340613e-05 	0.0003794966143 	-1.391196345e-08 	3.658984502e-05 	-1.866631761e-09 	6.975041423e-08
0.6382958531 	-3.06952331e-05 	0.0003929552443 	-1.363097314e-08 	3.776201809e-05 	-1.863415134e-09 	7.198490189e-08
0.6410276607 	-3.179579495e-05 	0.0004065232461 	-1.337361379e-08 	3.892168638e-05 	-1.858384221e-09 	7.419555197e-08
0.6437899523 	-3.289368655e-05 	0.0004202160801 	-1.313928484e-08 	4.006690434e-05 	-1.851372891e-09 	7.637865569e-08
0.646583068 	-3.398740234e-05 	0.0004340471814 	-1.292741183e-08 	4.119563192e-05 	-1.842223249e-09 	7.853032418e-08
0.6494073518 	-3.507535195e-05 	0.0004480280018 	-1.273743141e-08 	4.230575702e-05 	-1.830785516e-09 	8.064653117e-08
0.6522631514 	-3.615587782e-05 	0.0004621680352 	-1.256879056e-08 	4.339512067e-05 	-1.816917938e-09 	8.272316105e-08
0.6551508186 	-3.722727527e-05 	0.0004764748286 	-1.242095457e-08 	4.446154502e-05 	-1.800487322e-09 	8.475606225e-08
0.658070709 	-3.828781482e-05 	0.0004909539824 	-1.229341941e-08 	4.550286383e-05 	-1.781370697e-09 	8.674110533e-08
0.6610231822 	-3.933576688e-05 	0.0005056091394 	-1.218572504e-08 	4.65169552e-05 	-1.759458348e-09 	8.867424534e-08
0.6640086017 	-4.036942822e-05 	0.0005204419648 	-1.209746736e-08 	4.750177566e-05 	-1.734658277e-09 	9.055158685e-08
0.6670273351 	-4.138714947e-05 	0.0005354521164 	-1.202830687e-08 	4.845539499e-05 	-1.706901876e-09 	9.236945033e-08
0.6700797543 	-4.238736292e-05 	0.0005506372063 	-1.197797334e-08 	4.937603048e-05 	-1.67615039e-09 	9.412443745e-08
0.6731662352 	-4.33686092e-05 	0.0005659927541 	-1.194626606e-08 	5.026207937e-05 	-1.642401614e-09 	9.58134929e-08
0.6762871577 	-4.432956175e-05 	0.0005815121346 	-1.193305017e-08 	5.111214797e-05 	-1.605696213e-09 	9.743395992e-08
0.6794429063 	-4.526904756e-05 	0.0005971865211 	-1.193824973e-08 	5.192507602e-05 	-1.566123071e-09 	9.898362672e-08
0.6826338695 	-4.618606298e-05 	0.0006130048268 	-1.196183864e-08 	5.269995473e-05 	-1.523823194e-09 	1.004607609e-07
0.6858604404 	-4.707978326e-05 	0.0006289536479 	-1.200383042e-08 	5.343613732e-05 	-1.478991863e-09 	1.018641295e-07
0.6891230163 	-4.79495648e-05 	0.0006450172106 	-1.206426798e-08 	5.413324091e-05 	-1.431878947e-09 	1.031930027e-07
0.6924219988 	-4.87949393e-05 	0.0006611773274 	-1.214321406e-08 	5.479113887e-05 	-1.382787495e-09 	1.044471391e-07
0.6957577944 	-4.96155991e-05 	0.0006774133636 	-1.224074272e-08 	5.540994321e-05 	-1.332070924e-09 	1.056267522e-07
0.6991308138 	-5.041137351e-05 	0.0006937022209 	-1.235693201e-08 	5.598997672e-05 	-1.280129259e-09 	1.067324572e-07
0.7025414724 	-5.118219597e-05 	0.0007100183385 	-1.249185711e-08 	5.653173496e-05 	-1.227404945e-09 	1.07765199e-07
0.7059901901 	-5.192806203e-05 	0.0007263337189 	-1.264558332e-08 	5.703583838e-05 	-1.174378782e-09 	1.087261602e-07
0.7094773917 	-5.26489787e-05 	0.0007426179792 	-1.281815755e-08 	5.750297521e-05 	-1.121566439e-09 	1.096166529e-07
0.7130035066 	-5.334490523e-05 	0.0007588384337 	-1.300959694e-08 	5.793383555e-05 	-1.069515875e-09 	1.104379924e-07
0.7165689691 	-5.401568644e-05 	0.0007749602116 	-1.321987319e-08 	5.83290383e-05 	-1.01880584e-09 	1.111913587e-07
0.7201742182 	-5.466097875e-05 	0.0007909464138 	-1.344889098e-08 	5.868905096e-05 	-9.700454344e-10 	1.118776429e-07
0.7238196978 	-5.528017446e-05 	0.0008067583148 	-1.369645931e-08 	5.901411284e-05 	-9.238740409e-10 	1.124973012e-07
0.727505857 	-5.587229378e-05 	0.000822355614 	-1.396225462e-08 	5.930409982e-05 	-8.80963682e-10 	1.13050097e-07
0.7312331497 	-5.643590225e-05 	0.0008376967619 	-1.424577522e-08 	5.955844607e-05 	-8.420210397e-10 	1.135349516e-07
0.7350020349 	-5.696772844e-05 	0.0008526985663 	-1.454560144e-08 	5.97756675e-05 	-8.078611951e-10 	1.13949036e-07
0.7387709215 	-5.746160561e-05 	0.0008671994647 	-1.485808213e-08 	5.995329316e-05 	-7.793996862e-10 	1.142876399e-07
0.7424982157 	-5.791215072e-05 	0.0008810597815 	-1.517864079e-08 	6.008957732e-05 	-7.573353837e-10 	1.145474354e-07
0.7461843763 	-5.831719394e-05 	0.000894238031 	-1.550404967e-08 	6.018405929e-05 	-7.42024719e-10 	1.147275443e-07
0.7498298574 	-5.867556273e-05 	0.0009067342049 	-1.583184743e-08 	6.023639331e-05 	-7.336697592e-10 	1.148273075e-07
0.7534351078 	-5.898571529e-05 	0.000918552023 	-1.615941297e-08 	6.024577832e-05 	-7.324103428e-10 	1.148451979e-07
0.7570005716 	-5.924579589e-05 	0.0009296988752 	-1.648396795e-08 	6.021101092e-05 	-7.383202239e-10 	1.147789216e-07
0.7605266877 	-5.945372632e-05 	0.0009401857442 	-1.68025901e-08 	6.013060615e-05 	-7.5140134e-10 	1.146256478e-07
0.7640138905 	-5.960727437e-05 	0.0009500271098 	-1.711223067e-08 	6.000287086e-05 	-7.71581429e-10 	1.143821488e-07
0.7674626093 	-5.970412493e-05 	0.0009592408365 	-1.740973451e-08 	5.98259817e-05 	-7.98712473e-10 	1.140449489e-07
0.770873269 	-5.974194867e-05 	0.0009678480448 	-1.769186469e-08 	5.959805907e-05 	-8.325705525e-10 	1.13610465e-07
0.7742462894 	-5.971846762e-05 	0.0009758729702 	-1.795532711e-08 	5.931723674e-05 	-8.728569398e-10 	1.130751396e-07
0.777582086 	-5.963151688e-05 	0.0009833428145 	-1.819679194e-08 	5.898172597e-05 	-9.192005824e-10 	1.124355628e-07
0.7808810695 	-5.947910063e-05 	0.0009902875905 	-1.841292117e-08 	5.858987342e-05 	-9.711626769e-10 	1.11688583e-07
0.7841436462 	-5.925944157e-05 	0.0009967399577 	-1.860039365e-08 	5.814021157e-05 	-1.028242606e-09 	1.108314025e-07
0.787370218 	-5.897102386e-05 	0.001002735057 	-1.875592493e-08 	5.763150163e-05 	-1.089884693e-09 	1.098616599e-07
0.7905611821 	-5.861262948e-05 	0.001008310347 	-1.887628858e-08 	5.706276941e-05 	-1.155486089e-09 	1.087774983e-07
0.7937169314 	-5.818336758e-05 	0.001013505438 	-1.895833448e-08 	5.643333392e-05 	-1.224405589e-09 	1.075776193e-07
0.7968378547 	-5.768269652e-05 	0.001018361936 	-1.899900476e-08 	5.574282837e-05 	-1.295973112e-09 	1.062613238e-07
0.7999243362 	-5.711043862e-05 	0.001022923285 	-1.899534744e-08 	5.499121374e-05 	-1.369499511e-09 	1.048285374e-07
0.8029767561 	-5.646678783e-05 	0.00102723462 	-1.894452778e-08 	5.417878538e-05 	-1.444286491e-09 	1.032798232e-07
0.8059954902 	-5.575231053e-05 	0.001031342622 	-1.884383746e-08 	5.330617275e-05 	-1.519636372e-09 	1.01616381e-07
0.8089809102 	-5.496793989e-05 	0.001035295387 	-1.869070184e-08 	5.237433311e-05 	-1.594861466e-09 	9.984003561e-08
0.8119333839 	-5.411496441e-05 	0.001039142299 	-1.848268571e-08 	5.138453951e-05 	-1.669292853e-09 	9.795321389e-08
0.8148532749 	-5.319501117e-05 	0.001042933909 	-1.821749782e-08 	5.03383639e-05 	-1.742288372e-09 	9.595891242e-08
0.8177409426 	-5.221002452e-05 	0.00104672183 	-1.789299461e-08 	4.923765609e-05 	-1.813239692e-09 	9.386065741e-08
0.8205967427 	-5.116224091e-05 	0.00105055863 	-1.75071838e-08 	4.808451923e-05 	-1.881578339e-09 	9.166245804e-08
0.8234210268 	-5.00541608e-05 	0.001054497733 	-1.705822805e-08 	4.688128267e-05 	-1.946780604e-09 	8.936875474e-08
0.8262141429 	-4.888851824e-05 	0.001058593331 	-1.654444942e-08 	4.563047305e-05 	-2.008371301e-09 	8.698436397e-08
0.8289764348 	-4.766824907e-05 	0.00106290029 	-1.596433516e-08 	4.433478425e-05 	-2.065926351e-09 	8.4514421e-08
0.8317082427 	-4.639645847e-05 	0.001067474065 	-1.531654521e-08 	4.299704704e-05 	-2.119074209e-09 	8.196432208e-08
0.8344099031 	-4.507638848e-05 	0.001072370607 	-1.45999221e-08 	4.162019911e-05 	-2.167496198e-09 	7.933966724e-08
0.8370817486 	-4.371138636e-05 	0.001077646273 	-1.381350367e-08 	4.020725604e-05 	-2.210925801e-09 	7.664620505e-08
0.8397241082 	-4.230487425e-05 	0.001083357722 	-1.295653908e-08 	3.876128392e-05 	-2.249147012e-09 	7.388978029e-08
0.8423373074 	-4.086032065e-05 	0.00108956181 	-1.202850863e-08 	3.728537386e-05 	-2.281991856e-09 	7.107628551e-08
0.844921668 	-3.938121422e-05 	0.001096315465 	-1.102914761e-08 	3.578261906e-05 	-2.309337228e-09 	6.82116172e-08
0.8474775082 	-3.787104021e-05 	0.001103675549 	-9.958474467e-09 	3.425609443e-05 	-2.331101217e-09 	6.530163698e-08
0.8500051427 	-3.633325966e-05 	0.001111698701 	-8.816823392e-09 	3.270883916e-05 	-2.347239122e-09 	6.235213839e-08
0.8525048829 	-3.477129149e-05 	0.001120441161 	-7.604881053e-09 	3.114384212e-05 	-2.357739387e-09 	5.936881907e-08
0.8549770366 	-3.318849743e-05 	0.001129958557 	-6.32372707e-09 	2.956403012e-05 	-2.362619735e-09 	5.63572583e-08
0.8574219081 	-3.158816959e-05 	0.001140305679 	-4.97487731e-09 	2.797225868e-05 	-2.361923769e-09 	5.332289953e-08
0.8598397987 	-2.997352026e-05 	0.001151536215 	-3.560328634e-09 	2.637130508e-05 	-2.355718334e-09 	5.027103701e-08
0.862231006 	-2.834767352e-05 	0.00116370246 	-2.082603155e-09 	2.476386311e-05 	-2.344091906e-09 	4.720680584e-08
0.8645958245 	-2.671365815e-05 	0.001176854996 	-5.447894488e-10 	2.315253899e-05 	-2.327154191e-09 	4.413517423e-08
0.8669345455 	-2.507440115e-05 	0.001191042341 	1.049422426e-09 	2.153984787e-05 	-2.305037064e-09 	4.106093672e-08
0.8692474569 	-2.343272126e-05 	0.001206310585 	2.695715797e-09 	1.99282102e-05 	-2.277896796e-09 	3.79887074e-08
0.8715348435 	-2.179132194e-05 	0.001222703002 	4.389136146e-09 	1.831994752e-05 	-2.245917428e-09 	3.492291174e-08
0.8737969871 	-2.015278351e-05 	0.001240259655 	6.124097839e-09 	1.671727709e-05 	-2.209314932e-09 	3.186777646e-08
0.8760341663 	-1.85195539e-05 	0.00125901701 	7.894412561e-09 	1.512230515e-05 	-2.168341715e-09 	2.882731664e-08
0.8782466565 	-1.689393831e-05 	0.001279007558 	9.693342402e-09 	1.353701875e-05 	-2.123290854e-09 	2.580532015e-08
0.8804347301 	-1.527808777e-05 	0.001300259472 	1.151367928e-08 	1.196327623e-05 	-2.074499454e-09 	2.280532951e-08
0.8825986568 	-1.36739871e-05 	0.001322796301 	1.334785064e-08 	1.040279676e-05 	-2.022350468e-09 	1.983062193e-08
0.8847387028 	-1.208344281e-05 	0.001346636728 	1.51880495e-08 	8.85714948e-06 	-1.967272413e-09 	1.688418863e-08
0.8868551318 	-1.050807188e-05 	0.001371794388 	1.702638441e-08 	7.32774301e-06 	-1.909736501e-09 	1.396871482e-08
0.8889482045 	-8.949292081e-06 	0.001398277773 	1.885504322e-08 	5.815816059e-06 	-1.850250853e-09 	1.108656183e-08
0.8910181784 	-7.408314847e-06 	0.00142609022 	2.066646225e-08 	4.322430095e-06 	-1.789351597e-09 	8.239753118e-09
0.8930653087 	-5.886141559e-06 	0.001455229986 	2.245349147e-08 	2.848464925e-06 	-1.727590805e-09 	5.429965837e-09
0.8950898473 	-4.383564091e-06 	0.001485690415 	2.420954535e-08 	1.394618028e-06 	-1.665521375e-09 	2.658529575e-09
0.8970920436 	-2.901170351e-06 	0.001517460186 	2.592872904e-08 	-3.859155036e-08 	-1.603679035e-09 	-7.356622103e-11
0.8990721441 	-1.439355482e-06 	0.001550523632 	2.760593038e-08 	-1.45081405e-06 	-1.542561826e-09 	-2.765654812e-09
0.9010303927 	1.66076056e-09 	0.001584861117 	2.923686931e-08 	-2.841854022e-06 	-1.482607457e-09 	-5.417363619e-09
0.9029670306 	1.421810096e-06 	0.001620449465 	3.081809862e-08 	-4.211649087e-06 	-1.424169072e-09 	-8.028573726e-09
0.9048822962 	2.821145065e-06 	0.001657262393 	3.234695163e-08 	-5.56024215e-06 	-1.367490033e-09 	-1.059936693e-08
0.9067764254 	4.199801674e-06 	0.001695270968 	3.382143565e-08 	-6.88774704e-06 	-1.312678448e-09 	-1.312996021e-08
0.9086496514 	5.557955545e-06 	0.001734444027 	3.524007215e-08 	-8.194307703e-06 	-1.259682243e-09 	-1.562062797e-08