0.3985144112 	-0.001166687055 	-0.003271907607 	6.061450526e-07 	0.001163218613 	4.674134032e-08 	2.217417976e-06
0.3987124635 	-0.001176305422 	-0.003302593538 	5.825767442e-07 	0.001173499245 	5.130743183e-08 	2.237015719e-06
0.3989105207 	-0.001190165383 	-0.003348139927 	5.537992038e-07 	0.001186850344 	5.802206646e-08 	2.262466623e-06
0.3991085821 	-0.001203751698 	-0.00339348376 	5.257939931e-07 	0.00119969787 	6.430080635e-08 	2.28695758e-06
0.3993066473 	-0.001217299776 	-0.003438215611 	4.986597042e-07 	0.001212626012 	7.025545134e-08 	2.31160221e-06
0.3995047155 	-0.001230592171 	-0.00348212311 	4.723663849e-07 	0.001225290155 	7.58143196e-08 	2.335743587e-06
0.3997027863 	-0.00124349487 	-0.003524850652 	4.468937796e-07 	0.001237553369 	8.095338977e-08 	2.359120681e-06
0.399900859 	-0.001255847018 	-0.003565965964 	4.222136799e-07 	0.001249254485 	8.564966335e-08 	2.381426262e-06
0.4000989332 	-0.001267467114 	-0.003604993572 	3.982997079e-07 	0.001260209521 	8.987734745e-08 	2.402309604e-06
0.4002970082 	-0.001278170426 	-0.003641471906 	3.751378524e-07 	0.001270226473 	9.360833035e-08 	2.421404699e-06
0.4004950834 	-0.00128779389 	-0.003675020623 	3.527329704e-07 	0.001279130501 	9.681537577e-08 	2.438378251e-06
0.4006931583 	-0.001296219324 	-0.003705399206 	3.31108341e-07 	0.001286788097 	9.947570777e-08 	2.452975757e-06
0.4008912323 	-0.001303390629 	-0.003732539905 	3.103000115e-07 	0.001293127687 	1.015746906e-07 	2.465060777e-06
0.4010893049 	-0.001309321136 	-0.003756551282 	2.903489511e-07 	0.001298150952 	1.031092557e-07 	2.474636516e-06
0.4012873754 	-0.001314089304 	-0.003777697353 	2.71292724e-07 	0.001301930283 	1.040904168e-07 	2.481840973e-06
0.4014854434 	-0.001317823612 	-0.003796357909 	2.531573553e-07 	0.001304592459 	1.04543662e-07 	2.486915819e-06
0.4016835082 	-0.001320680586 	-0.003812975464 	2.359509353e-07 	0.001306294228 	1.045064464e-07 	2.490159864e-06
0.4018815693 	-0.001322821882 	-0.003827998333 	2.196611453e-07 	0.001307197815 	1.040234505e-07 	2.491882352e-06
0.4020796261 	-0.001324395861 	-0.003841832578 	2.042574535e-07 	0.001307452234 	1.031413254e-07 	2.492367346e-06
0.4022776781 	-0.001325526462 	-0.003854812236 	1.896965438e-07 	0.001307182476 	1.019044617e-07 	2.491853112e-06
0.4024757247 	-0.001326309272 	-0.003867189499 	1.759286099e-07 	0.001306485757 	1.003524315e-07 	2.490524971e-06
0.4026737653 	-0.001326812947 	-0.003879140025 	1.629027118e-07 	0.001305432796 	9.851898482e-08 	2.488517736e-06
0.4028717994 	-0.001327083599 	-0.003890776362 	1.505704677e-07 	0.001304071963 	9.64321445e-08 	2.485923609e-06
0.4030698264 	-0.001327150189 	-0.003902163587 	1.388881302e-07 	0.001302434475 	9.41149175e-08 	2.482802102e-06
0.4032678458 	-0.001327029678 	-0.003913333591 	1.27817433e-07 	0.001300539509 	9.158624211e-08 	2.47918977e-06
0.4034658569 	-0.001326731133 	-0.003924296626 	1.173256218e-07 	0.001298398191 	8.886195048e-08 	2.475107823e-06
0.4036638593 	-0.001326259297 	-0.003935049549 	1.07385036e-07 	0.001296017656 	8.595559898e-08 	2.470569861e-06
0.4038618524 	-0.001325614127 	-0.003945583152 	9.797241321e-08 	0.00129339771 	8.287958928e-08 	2.465575517e-06
0.4040598357 	-0.00132481236 	-0.003955882057 	8.906875378e-08 	0.001290572124 	7.964402073e-08 	2.460189164e-06
0.4042578085 	-0.001323758453 	-0.003965671017 	8.064829698e-08 	0.001287443398 	7.625249685e-08 	2.454224943e-06
0.4044557703 	-0.001322790706 	-0.00397790016 	7.226530851e-08 	0.001283987375 	7.2846027e-08 	2.447636803e-06
0.4047633343 	-0.001321155224 	-0.003992346938 	6.131078885e-08 	0.001279152622 	6.703321141e-08 	2.43842042e-06
0.4050766481 	-0.001318531782 	-0.004006220234 	5.07675625e-08 	0.00127292523 	6.090678072e-08 	2.42654928e-06
0.4053958166 	-0.001315596124 	-0.004019918555 	4.115392138e-08 	0.00126620657 	5.440640791e-08 	2.413741646e-06
0.4057209459 	-0.001312203312 	-0.004033034839 	3.246123152e-08 	0.001258840036 	4.754621502e-08 	2.399698984e-06
0.4060521443 	-0.001308368805 	-0.004045510536 	2.470287538e-08 	0.001250863751 	4.034603556e-08 	2.384493968e-06
0.4063895215 	-0.001304086689 	-0.004057300314 	1.788755513e-08 	0.001242270927 	3.283000162e-08 	2.368113659e-06
0.4067331892 	-0.001299358403 	-0.004068365195 	1.201920126e-08 	0.001233067085 	2.502470355e-08 	2.350568578e-06
0.4070832607 	-0.001294187805 	-0.004078674346 	7.096426215e-09 	0.001223260092 	1.695966835e-08 	2.331873724e-06
0.4074398513 	-0.001288581696 	-0.004088203742 	3.112321485e-09 	0.001212861628 	8.666938836e-09 	2.312051361e-06
0.4078030778 	-0.001282549279 	-0.004096935374 	5.457419904e-11 	0.001201886461 	1.806164203e-10 	2.291129641e-06
0.4078108127 	-0.001282414525 	-0.004097101183 	-3.792075258e-09 	0.001201645348 	-1.134189001e-08 	2.290670013e-06
0.4081725207 	-0.001276097983 	-0.00410484756 	1.948313721e-09 	0.001190348172 	8.571876805e-09 	2.269134455e-06
0.4085488195 	-0.00126924486 	-0.004111941056 	3.102964517e-09 	0.001178270985 	1.744310819e-08 	2.246111981e-06
0.4089321083 	-0.001262004528 	-0.004118211116 	3.450894016e-09 	0.001165677297 	2.639259674e-08 	2.222104911e-06
0.4093225113 	-0.001254392627 	-0.004123655515 	3.030639197e-09 	0.00115259121 	3.538328342e-08 	2.197159193e-06
0.4097201548 	-0.001246425618 	-0.004128274135 	1.88037353e-09 	0.001139038281 	4.437948763e-08 	2.171323544e-06
0.4101251668 	-0.001238120691 	-0.004132068765 	3.720148839e-11 	0.001125045414 	5.334721249e-08 	2.14464925e-06
0.4105376773 	-0.001229492401 	-0.0041350321 	-2.463027281e-09 	0.001110637915 	6.225392243e-08 	2.117184551e-06
0.4109578179 	-0.001220550412 	-0.004137186612 	-5.589918939e-09 	0.001095826125 	7.106835442e-08 	2.088949163e-06
0.4113876857 	-0.001211296754 	-0.004138552604 	-9.326554581e-09 	0.001080609693 	7.981901203e-08 	2.059942415e-06
0.4118269536 	-0.001201742574 	-0.004139092014 	-1.365122292e-08 	0.00106501734 	8.848121226e-08 	2.030219057e-06
0.4122743862 	-0.00119191707 	-0.004138800884 	-1.853183625e-08 	0.001049097629 	9.699602462e-08 	1.999871662e-06
0.412730134 	-0.001181845687 	-0.004137701638 	-2.39464745e-08 	0.001032887889 	1.053443268e-07 	1.968971392e-06
0.4131943501 	-0.001171544432 	-0.004135796153 	-2.987695855e-08 	0.0010164165 	1.135078486e-07 	1.937572347e-06
0.4136671905 	-0.00116102705 	-0.004133089379 	-3.630799318e-08 	0.000999706949 	1.214697329e-07 	1.905719299e-06
0.4141488139 	-0.001150306547 	-0.004129586359 	-4.322678348e-08 	0.0009827816817 	1.292146095e-07 	1.873455035e-06
0.4146393819 	-0.001139395017 	-0.004125292036 	-5.062279872e-08 	0.0009656618116 	1.367284211e-07 	1.840819805e-06
0.4151390593 	-0.001128303571 	-0.004120211253 	-5.848755774e-08 	0.0009483669442 	1.439982503e-07 	1.807850981e-06
0.4156480135 	-0.001117042292 	-0.004114348749 	-6.681440332e-08 	0.0009309150636 	1.510121528e-07 	1.774582846e-06
0.4161664152 	-0.001105620235 	-0.004107709138 	-7.559827178e-08 	0.0009133225058 	1.577590055e-07 	1.741046541e-06
0.4166944381 	-0.00109404545 	-0.004100296894 	-8.483546708e-08 	0.0008956039582 	1.642283688e-07 	1.707270065e-06
0.4172322591 	-0.001082325007 	-0.004092116329 	-9.452344466e-08 	0.0008777724855 	1.704103626e-07 	1.673278322e-06
0.4177800583 	-0.001070465042 	-0.004083171588 	-1.04660608e-07 	0.0008598395764 	1.762955581e-07 	1.639093213e-06
0.418338019 	-0.001058470809 	-0.004073466636 	-1.152461201e-07 	0.000841815207 	1.818748849e-07 	1.604733755e-06
0.418906328 	-0.00104634673 	-0.004063005248 	-1.262797307e-07 	0.0008237079132 	1.871395501e-07 	1.57021622e-06
0.4194851754 	-0.001034096458 	-0.004051791016 	-1.377616183e-07 	0.0008055248654 	1.920809722e-07 	1.535554278e-06
0.4200747546 	-0.001021722928 	-0.004039827341 	-1.496922468e-07 	0.0007872719434 	1.966907236e-07 	1.500759135e-06
0.4206752628 	-0.001009228415 	-0.004027117439 	-1.620722323e-07 	0.0007689538258 	2.009604883e-07 	1.465839712e-06
0.4212869005 	-0.0009966146112 	-0.004013664328 	-1.749022228e-07 	0.0007505741051 	2.048819953e-07 	1.430802856e-06
0.421909872 	-0.0009838825463 	-0.003999471069 	-1.881828089e-07 	0.0007321350497 	2.084471708e-07 	1.395652891e-06
0.4225443853 	-0.0009710317302 	-0.003984536172 	-2.019132827e-07 	0.0007136373644 	2.116473727e-07 	1.360391162e-06
0.4231906521 	-0.0009580559552 	-0.003968855743 	-2.160968972e-07 	0.0006950720522 	2.144703627e-07 	1.325000517e-06
0.4238501406 	-0.0009449362526 	-0.003952428932 	-2.30769e-07 	0.000676406427 	2.16920282e-07 	1.289418647e-06
0.4245253395 	-0.0009316573768 	-0.003935210337 	-2.459612664e-07 	0.0006576274768 	2.190066341e-07 	1.253620749e-06
0.4252130261 	-0.0009182344673 	-0.003917215417 	-2.616050715e-07 	0.0006387569568 	2.206661146e-07 	1.217648293e-06
0.4259134289 	-0.0009046854771 	-0.003898496282 	-2.776975659e-07 	0.0006198124034 	2.219040643e-07 	1.181534709e-06
0.4266267807 	-0.0008910096837 	-0.003879046392 	-2.94229793e-07 	0.0006007951176 	2.227106428e-07 	1.145282476e-06
0.4273533182 	-0.0008772021199 	-0.003858869181 	-3.111955495e-07 	0.0005816949997 	2.230747384e-07 	1.108872343e-06
0.4280932826 	-0.0008632584339 	-0.003837967238 	-3.285860899e-07 	0.0005625032017 	2.229849786e-07 	1.072287442e-06
0.4288469195 	-0.0008491737916 	-0.0038163433 	-3.463900523e-07 	0.0005432096744 	2.224293921e-07 	1.035508617e-06
0.4296144787 	-0.0008349430042 	-0.0037940003 	-3.645929339e-07 	0.0005238033504 	2.213952147e-07 	9.985147695e-07
0.430396215 	-0.0008205607612 	-0.003770941431 	-3.831764579e-07 	0.0005042725097 	2.198689909e-07 	9.612835588e-07
0.4311923873 	-0.0008060220194 	-0.003747170204 	-4.021178823e-07 	0.0004846054345 	2.17836853e-07 	9.237926473e-07
0.4320032595 	-0.0007913225201 	-0.003722690501 	-4.213892932e-07 	0.0004647912963 	2.152850643e-07 	8.860213928e-07
0.4328291002 	-0.0007764594755 	-0.003697506617 	-4.409569192e-07 	0.0004448213639 	2.122009408e-07 	8.479531512e-07
0.4336701831 	-0.0007614321855 	-0.003671623516 	-4.607806553e-07 	0.0004246900113 	2.085742768e-07 	8.095771979e-07
0.4345267865 	-0.0007462421617 	-0.003645044585 	-4.808126268e-07 	0.0004043955562 	2.043981352e-07 	7.708903261e-07
0.435399194 	-0.0007308893439 	-0.003617764508 	-5.010007088e-07 	0.0003839352302 	1.996596896e-07 	7.31887258e-07
0.4362886099 	-0.0007153699537 	-0.003589778401 	-5.213236741e-07 	0.0003632989541 	1.943638926e-07 	6.925487802e-07
0.4371993628 	-0.000699667585 	-0.003561009774 	-5.417627472e-07 	0.0003424731845 	1.886153571e-07 	6.528490752e-07
0.4381268879 	-0.0006819660829 	-0.003528236123 	-5.62828656e-07 	0.0003189646058 	1.811137826e-07 	6.080351903e-07
0.4395501106 	-0.0006602463645 	-0.003487263385 	-5.924904063e-07 	0.0002902444543 	1.721951029e-07 	5.532865992e-07
0.4409884004 	-0.0006366402002 	-0.003441419057 	-6.203308118e-07 	0.0002592150268 	1.594663706e-07 	4.941358862e-07
0.44244192 	-0.0006133359239 	-0.003395060753 	-6.00210142e-07 	0.0002287270281 	1.346206585e-07 	4.36017287e-07
0.443910834 	-0.0005904172477 	-0.003348410992 	-5.783895889e-07 	0.0001988911336 	1.112910761e-07 	3.791417796e-07
0.4453953093 	-0.0005679380894 	-0.003301582727 	-5.550317214e-07 	0.0001697955722 	8.952032139e-08 	3.236775528e-07
0.4468955146 	-0.0005459432343 	-0.003254674002 	-5.30319977e-07 	0.0001415170749 	6.935045495e-08 	2.697708774e-07
0.448411621 	-0.00052445154 	-0.003207774373 	-5.044763308e-07 	0.0001140858769 	5.082291498e-08 	2.1747939e-07
0.449951937 	-0.0005034706924 	-0.00316088018 	-4.775157951e-07 	8.754043966e-05 	3.393612851e-08 	1.668764086e-07
0.4515094159 	-0.0004830420994 	-0.003114106409 	-4.498540613e-07 	6.194787907e-05 	1.874387564e-08 	1.18089875e-07
0.4530833577 	-0.0004632160658 	-0.003067646326 	-4.217724685e-07 	3.737056633e-05 	5.296747656e-09 	7.123868605e-08
0.4546739418 	-0.0004440125296 	-0.003021562048 	-3.934900942e-07 	1.385034584e-05 	-6.406958853e-09 	2.640260869e-08
0.4562813499 	-0.000425430309 	-0.00297590997 	-3.652191037e-07 	-8.611158911e-06 	-1.639184681e-08 	-1.641526223e-08
0.4579057659 	-0.0004074641618 	-0.002930731294 	-3.371504355e-07 	-3.00173213e-05 	-2.469627194e-08 	-5.722135728e-08
0.4595473762 	-0.0003901001437 	-0.002886047276 	-3.094524469e-07 	-5.038442773e-05 	-3.13753662e-08 	-9.604672287e-08
0.4612079065 	-0.0003733087473 	-0.002841848334 	-2.822366262e-07 	-6.975167707e-05 	-3.64891995e-08 	-1.32966083e-07
0.4628933738 	-0.0003570620008 	-0.002798071997 	-2.555110407e-07 	-8.81413266e-05 	-4.010384821e-08 	-1.680218661e-07
0.4645966365 	-0.0003413561336 	-0.002754767973 	-2.295323341e-07 	-0.0001055652503 	-4.231017325e-08 	-2.012367074e-07
0.4663178905 	-0.0003261922589 	-0.002712007407 	-2.043800309e-07 	-0.0001220336281 	-4.318017195e-08 	-2.326300126e-07
0.4680573339 	-0.0003115542663 	-0.00266975805 	-1.800896092e-07 	-0.0001375621356 	-4.280772762e-08 	-2.622316639e-07
0.4698151678 	-0.0002974158737 	-0.002627994641 	-1.566793526e-07 	-0.0001521900616 	-4.12898681e-08 	-2.901165564e-07
0.4715915958 	-0.0002837518985 	-0.002586676308 	-1.341478001e-07 	-0.0001659519157 	-3.872605811e-08 	-3.163504753e-07
0.4733876059 	-0.0002705293891 	-0.002545747703 	-1.124659e-07 	-0.0001788937169 	-3.520669247e-08 	-3.410211453e-07
0.4752105253 	-0.0002577183899 	-0.002505095172 	-9.15024555e-08 	-0.0001910400244 	-3.079768797e-08 	-3.641753834e-07
0.477052684 	-0.0002453060487 	-0.002464711572 	-7.135790263e-08 	-0.000202417245 	-2.563073241e-08 	-3.85863528e-07
0.4789142958 	-0.0002332891234 	-0.0024246277 	-5.198642532e-08 	-0.0002130444723 	-1.979040847e-08 	-4.061219768e-07
0.480795578 	-0.0002216549597 	-0.002384779273 	-3.332705571e-08 	-0.0002229324206 	-1.336356582e-08 	-4.249711546e-07
0.4826967503 	-0.0002103800683 	-0.002345111376 	-1.531660427e-08 	-0.0002321163133 	-6.433190377e-09 	-4.424782066e-07
0.4843826563 	-0.0002007819031 	-0.002310411289 	2.583273813e-07 	-0.0002395853934 	-4.133253757e-08 	-4.567163491e-07
0.48461787 	-0.0001994422977 	-0.00230556881 	-1.958642299e-09 	-0.0002406278025 	-9.196196804e-10 	-4.587034706e-07
0.4865627896 	-0.0001888192152 	-0.002266064379 	-1.770456257e-08 	-0.0002484860955 	-8.627308403e-09 	-4.736835612e-07
0.488532044 	-0.0001784938297 	-0.002226508693 	-3.305589102e-08 	-0.0002557124698 	-1.664231193e-08 	-4.87459039e-07
0.4905221263 	-0.0001684612437 	-0.002186908888 	-4.803175539e-08 	-0.0002623281233 	-2.48767712e-08 	-5.000703133e-07
0.4925332712 	-0.0001587189032 	-0.002147234571 	-6.269636561e-08 	-0.0002683387244 	-3.326868385e-08 	-5.115281896e-07
0.494565717 	-0.0001492536004 	-0.002107426062 	-7.710859727e-08 	-0.000273762244 	-4.176254247e-08 	-5.218669253e-07
0.4966197052 	-0.0001400493688 	-0.002067428307 	-9.132453456e-08 	-0.0002786226699 	-5.030626774e-08 	-5.311322481e-07
0.4986993654 	-0.0001310921753 	-0.002027147934 	-1.054277134e-07 	-0.0002829290798 	-5.887230674e-08 	-5.393414621e-07
0.500805203 	-0.000122370127 	-0.00198651656 	-1.194376089e-07 	-0.0002866957912 	-6.740945143e-08 	-5.46521861e-07
0.5029333272 	-0.0001138811648 	-0.001945540769 	-1.333469772e-07 	-0.0002899407418 	-7.58493995e-08 	-5.527076388e-07
0.5050839924 	-0.0001056277167 	-0.001904201872 	-1.471857588e-07 	-0.0002926653216 	-8.415093921e-08 	-5.57901445e-07
0.507257457 	-9.760290039e-05 	-0.001862450463 	-1.609736422e-07 	-0.000294879973 	-9.228226821e-08 	-5.621231862e-07
0.5094539826 	-8.97968956e-05 	-0.001820238 	-1.747284029e-07 	-0.0002965996276 	-1.002084323e-07 	-5.654013258e-07
0.5116800765 	-8.220382619e-05 	-0.001777472622 	-1.884958276e-07 	-0.0002978198887 	-1.079283611e-07 	-5.677274825e-07
0.5139311403 	-7.481844493e-05 	-0.001734135286 	-2.02204482e-07 	-0.0002985581663 	-1.153827683e-07 	-5.691348449e-07
0.5162060616 	-6.764554524e-05 	-0.001690255871 	-2.158387902e-07 	-0.0002988252617 	-1.225345013e-07 	-5.69644003e-07
0.5185051168 	-6.068976136e-05 	-0.001645807116 	-2.293756239e-07 	-0.0002986157592 	-1.293612181e-07 	-5.69244633e-07
0.5208285862 	-5.394629197e-05 	-0.001600761913 	-2.427918738e-07 	-0.0002979412988 	-1.358408274e-07 	-5.679589241e-07
0.523180392 	-4.741377484e-05 	-0.001555061883 	-2.560733934e-07 	-0.0002967980173 	-1.419665391e-07 	-5.657795117e-07
0.5255607218 	-4.108948279e-05 	-0.0015086833 	-2.691451843e-07 	-0.0002951954216 	-1.477116001e-07 	-5.627245188e-07
0.5279663095 	-3.497748976e-05 	-0.001461666643 	-2.819310994e-07 	-0.0002931473265 	-1.530388459e-07 	-5.588202804e-07
0.530397451 	-2.908492825e-05 	-0.001414027047 	-2.943759876e-07 	-0.0002906537317 	-1.579316252e-07 	-5.540667957e-07
0.5328544466 	-2.341233767e-05 	-0.001365757622 	-3.064220679e-07 	-0.000287720181 	-1.623726521e-07 	-5.484746327e-07
0.5353409917 	-1.796001612e-05 	-0.00131682723 	-3.180185704e-07 	-0.0002843459017 	-1.663561835e-07 	-5.420423184e-07
0.5378573206 	-1.272595151e-05 	-0.001267240818 	-3.290622418e-07 	-0.0002805448178 	-1.698608107e-07 	-5.347963961e-07
0.5404003993 	-7.713393255e-06 	-0.001217062364 	-3.394614546e-07 	-0.0002763357773 	-1.728574762e-07 	-5.26772795e-07
0.5429705454 	-2.927672504e-06 	-0.001166333399 	-3.49145853e-07 	-0.0002717266798 	-1.753337878e-07 	-5.179865742e-07
0.5455680808 	1.631406605e-06 	-0.001115069278 	-3.580459032e-07 	-0.0002667281507 	-1.772721734e-07 	-5.084579884e-07
0.5481981886 	5.965008335e-06 	-0.001063266092 	-3.660998721e-07 	-0.000261347724 	-1.786703232e-07 	-4.982013998e-07
0.5508576999 	1.007883644e-05 	-0.001010984036 	-3.731860565e-07 	-0.0002556183575 	-1.795015772e-07 	-4.872796348e-07
0.5535455538 	1.397358665e-05 	-0.0009583183683 	-3.79241407e-07 	-0.0002495710386 	-1.797500782e-07 	-4.757517642e-07
0.556262091 	1.764923295e-05 	-0.0009053291426 	-3.744246654e-07 	-0.0002432256028 	-1.748342802e-07 	-4.636556e-07
0.5590093701 	2.111286931e-05 	-0.0008520588692 	-3.599108724e-07 	-0.0002366108855 	-1.655166195e-07 	-4.510461103e-07
0.5617900605 	2.437579439e-05 	-0.0007985725468 	-3.452407315e-07 	-0.0002297693377 	-1.563236671e-07 	-4.380042188e-07
0.5646004358 	2.745062393e-05 	-0.0007450008101 	-3.304794561e-07 	-0.0002227612945 	-1.472758297e-07 	-4.246449406e-07
0.5674408566 	3.034878049e-05 	-0.0006914788457 	-3.156072409e-07 	-0.0002156448582 	-1.38355968e-07 	-4.110790351e-07
0.5703118841 	3.308564843e-05 	-0.0006381208367 	-3.005947175e-07 	-0.0002084799517 	-1.295566155e-07 	-3.974207319e-07
0.5732187732 	3.568251446e-05 	-0.0005850567 	-2.854616344e-07 	-0.0002013400428 	-1.209078999e-07 	-3.838100811e-07
0.5761567623 	3.81657441e-05 	-0.0005324962056 	-2.702613969e-07 	-0.0001943243378 	-1.124509601e-07 	-3.704361975e-07
0.5791262329 	4.056036156e-05 	-0.0004806810773 	-2.54961058e-07 	-0.0001875342284 	-1.041660468e-07 	-3.574923618e-07
0.5821275725 	4.28950396e-05 	-0.0004298422705 	-2.395306605e-07 	-0.0001810739402 	-9.602998765e-08 	-3.451772569e-07
0.5851658635 	4.521025316e-05 	-0.0003802438511 	-2.239348981e-07 	-0.0001750756535 	-8.803502989e-08 	-3.337428553e-07
0.5882368608 	4.75551017e-05 	-0.0003322329264 	-2.082179535e-07 	-0.0001697025206 	-8.021659585e-08 	-3.235001707e-07
0.591340855 	4.997726671e-05 	-0.0002861861311 	-1.924232978e-07 	-0.0001651159984 	-7.260531919e-08 	-3.147569846e-07
0.5944786826 	5.252521263e-05 	-0.0002424559192 	-1.76641328e-07 	-0.0001614682055 	-6.525359973e-08 	-3.078032775e-07
0.5976542396 	5.525424917e-05 	-0.0002013813711 	-1.610547466e-07 	-0.0001589150792 	-5.825561568e-08 	-3.029363092e-07
0.6008639663 	5.82166325e-05 	-0.0001632778761 	-1.459588396e-07 	-0.0001575939711 	-5.174616501e-08 	-3.004179098e-07
0.6041082905 	6.144952567e-05 	-0.0001283651144 	-1.316697024e-07 	-0.0001575865614 	-4.585742101e-08 	-3.00403785e-07
0.6073891503 	6.49759946e-05 	-9.672305718e-05 	-1.184961867e-07 	-0.0001589140664 	-4.072361986e-08 	-3.029343784e-07
0.6107078431 	6.880592019e-05 	-6.831178413e-05 	-1.06710728e-07 	-0.000161544627 	-3.647002803e-08 	-3.079489581e-07
0.6140623721 	7.292386884e-05 	-4.298899001e-05 	-9.64778646e-08 	-0.0001653761326 	-3.316156174e-08 	-3.152528726e-07
0.6174531904 	7.729108114e-05 	-2.051757891e-05 	-8.783561676e-08 	-0.0001702455648 	-3.078571954e-08 	-3.245353637e-07
0.620883615 	8.185929932e-05 	-5.990939198e-07 	-8.072334588e-08 	-0.0001759647258 	-2.927442622e-08 	-3.354376743e-07
0.6243517981 	8.657733948e-05 	1.707300328e-05 	-7.502374543e-08 	-0.0001823440269 	-2.852892798e-08 	-3.475983953e-07
0.6278575798 	9.13840017e-05 	3.279677075e-05 	-7.056194329e-08 	-0.0001891823702 	-2.842086215e-08 	-3.606341781e-07
0.6314026713 	9.621824694e-05 	4.685913012e-05 	-6.714295141e-08 	-0.0001962873667 	-2.882147928e-08 	-3.741782762e-07
0.6349881336 	0.0001010300992 	5.950907622e-05 	-6.458863186e-08 	-0.0002035004988 	-2.962429233e-08 	-3.879285107e-07
0.6386125585 	0.0001057658373 	7.095360472e-05 	-6.273307224e-08 	-0.0002106679258 	-3.073449327e-08 	-4.015916187e-07
0.642276724 	0.0001103692763 	8.137463086e-05 	-6.142760073e-08 	-0.0002176393839 	-3.207050542e-08 	-4.148811555e-07
0.6459832748 	0.0001147923147 	9.092761186e-05 	-6.055624073e-08 	-0.0002242885756 	-3.357495078e-08 	-4.275563628e-07
0.64973021 	0.0001189868091 	9.973617237e-05 	-6.002956616e-08 	-0.0002304980497 	-3.520420641e-08 	-4.393933464e-07
0.6535180509 	0.0001228980193 	0.0001079098476 	-5.976742997e-08 	-0.0002361431615 	-3.691431472e-08 	-4.501544985e-07
0.6573495086 	0.0001264774701 	0.0001155504892 	-5.9707193e-08 	-0.0002411163261 	-3.867227558e-08 	-4.596347324e-07
0.6612230164 	0.0001296845929 	0.0001227381205 	-5.980419166e-08 	-0.0002453328795 	-4.04523132e-08 	-4.67672655e-07
0.665138934 	0.0001324746833 	0.0001295445945 	-6.000921975e-08 	-0.0002487045907 	-4.221509642e-08 	-4.741000737e-07
0.6690995676 	0.0001348137751 	0.0001360421816 	-6.028081458e-08 	-0.0002511670767 	-4.392545932e-08 	-4.787942565e-07
0.6731039138 	0.0001366837763 	0.0001422873453 	-6.059274085e-08 	-0.0002526922513 	-4.555582614e-08 	-4.817016632e-07
0.6771522377 	0.0001380662738 	0.0001483352657 	-6.091415481e-08 	-0.0002532530962 	-4.706653498e-08 	-4.827707893e-07
0.681246681 	0.0001389569764 	0.0001542493231 	-6.122476955e-08 	-0.0002528500479 	-4.842896817e-08 	-4.820024672e-07
0.6853863423 	0.000139368028 	0.0001600863432 	-6.152039345e-08 	-0.0002515176158 	-4.962700526e-08 	-4.794624814e-07
0.6895716523 	0.0001393108098 	0.0001659133643 	-6.179311769e-08 	-0.000249287146 	-5.063620142e-08 	-4.75210586e-07
0.6938046212 	0.000138811418 	0.0001718126638 	-6.204838427e-08 	-0.0002462163592 	-5.144701691e-08 	-4.693568129e-07
0.6980842929 	0.0001379114255 	0.0001778526778 	-6.230146629e-08 	-0.0002423978506 	-5.205481833e-08 	-4.620776742e-07
0.7023638346 	0.0001366691593 	0.0001840859926 	-6.254845466e-08 	-0.0002379629346 	-5.244127463e-08 	-4.536234918e-07
0.7065967077 	0.0001351766806 	0.0001905739407 	-6.27982961e-08 	-0.0002331021701 	-5.261461524e-08 	-4.443575237e-07
0.7107825189 	0.0001335297176 	0.000197406295 	-6.30718463e-08 	-0.0002279970786 	-5.259704617e-08 	-4.346258004e-07
0.71492229 	0.0001318155441 	0.0002047023242 	-6.338368432e-08 	-0.0002228013155 	-5.241354333e-08 	-4.247212318e-07
0.7190167156 	0.0001301262708 	0.0002125908139 	-6.376226909e-08 	-0.00021767387 	-5.21141893e-08 	-4.149468956e-07
0.7230657653 	0.0001285412537 	0.0002212089346 	-6.423246629e-08 	-0.000212745676 	-5.174871616e-08 	-4.05552388e-07
0.7270703972 	0.0001271307754 	0.0002307131337 	-6.481520247e-08 	-0.0002081263112 	-5.135734845e-08 	-3.967465948e-07
0.7310311116 	0.0001259670742 	0.000241263959 	-6.552336384e-08 	-0.0002039281582 	-5.101628523e-08 	-3.887437484e-07
0.7349480478 	0.0001251119908 	0.000253025106 	-6.630902974e-08 	-0.0002002417394 	-5.077996188e-08 	-3.817164097e-07
0.7388220362 	0.0001246226355 	0.0002661426389 	-6.669101109e-08 	-0.0001971475241 	-5.082956479e-08 	-3.758179753e-07
0.7426535726 	0.0001246147743 	0.0002808781987 	-6.767682978e-08 	-0.000194813447 	-5.044482249e-08 	-3.713685756e-07
0.7464428493 	0.0001251463406 	0.0002974634186 	-6.988650575e-08 	-0.0001933073318 	-4.960062931e-08 	-3.684975015e-07
0.7501905479 	0.0001262323067 	0.0003161071964 	-7.280688148e-08 	-0.0001926325893 	-4.917489102e-08 	-3.672112546e-07
0.7538972527 	0.0001279157898 	0.0003370480098 	-7.503263937e-08 	-0.0001928459107 	-4.999707552e-08 	-3.676179045e-07
0.7575631456 	0.0001301375849 	0.0003602380469 	-7.333103351e-08 	-0.0001938467603 	-5.04027099e-08 	-3.69525802e-07
0.7611887622 	0.0001328830277 	0.0003856792289 	-7.020923842e-08 	-0.0001955939045 	-4.987885209e-08 	-3.728563445e-07
0.7647748095 	0.000136214873 	0.0004135215512 	-6.722455758e-08 	-0.0001981652066 	-4.922831003e-08 	-3.77757961e-07
0.7683214281 	0.0001401507347 	0.0004438291346 	-6.444382418e-08 	-0.0002015769786 	-4.868705477e-08 	-3.842617467e-07
0.7718290835 	0.0001446764549 	0.0004766151325 	-6.177140126e-08 	-0.0002057979174 	-4.83630752e-08 	-3.92308029e-07
0.7752984274 	0.0001497645136 	0.0005118363084 	-5.909857598e-08 	-0.0002107797753 	-4.824664813e-08 	-4.018048349e-07
0.7787297262 	0.0001553787914 	0.0005493905784 	-5.637502253e-08 	-0.0002164657002 	-4.829287545e-08 	-4.126437881e-07
0.7821233653 	0.0001614693806 	0.0005891292951 	-5.3601045e-08 	-0.0002227786391 	-4.845088984e-08 	-4.246780042e-07
0.7854798396 	0.0001679794136 	0.0006308724656 	-5.079833902e-08 	-0.000229633244 	-4.867131699e-08 	-4.377447864e-07
0.788799627 	0.0001748515088 	0.0006744115046 	-4.799296558e-08 	-0.0002369480828 	-4.890687896e-08 	-4.516889022e-07
0.7920830061 	0.0001820231225 	0.0007195188309 	-4.521318226e-08 	-0.0002446349432 	-4.911504777e-08 	-4.663421944e-07
0.795330395 	0.0001894290385 	0.0007659625106 	-4.248390162e-08 	-0.0002526016656 	-4.925881919e-08 	-4.815289817e-07
0.7985422953 	0.0001970082418 	0.0008135141761 	-3.982330661e-08 	-0.000260764467 	-4.930810469e-08 	-4.970895498e-07
0.8017190362 	0.000204704687 	0.0008619502555 	-3.724198058e-08 	-0.0002690489128 	-4.923785821e-08 	-5.128820061e-07
0.8048609729 	0.0002124635792 	0.0009110591437 	-3.474720474e-08 	-0.0002773813887 	-4.903070701e-08 	-5.28766021e-07
0.8079685004 	0.000220234384 	0.000960649659 	-3.234097257e-08 	-0.000285693915 	-4.867531554e-08 	-5.446120065e-07
0.811042089 	0.0002279750457 	0.001010549719 	-3.002030443e-08 	-0.0002939324694 	-4.816499457e-08 	-5.603169811e-07
0.8140820236 	0.0002356491699 	0.00106060394 	-2.777954402e-08 	-0.0003020515185 	-4.749641451e-08 	-5.757941452e-07
0.8170886756 	0.0002432233682 	0.00111067677 	-2.56132714e-08 	-0.0003100083328 	-4.66711582e-08 	-5.909620448e-07
0.820062419 	0.0002506694933 	0.001160655277 	-2.351544838e-08 	-0.0003177671443 	-4.569375512e-08 	-6.057524958e-07
0.8230036812 	0.000257966721 	0.001210444585 	-2.147961369e-08 	-0.0003253037798 	-4.45695486e-08 	-6.201194178e-07
0.8259127482 	0.0002650983682 	0.001259963878 	-1.950074308e-08 	-0.0003325997857 	-4.330471387e-08 	-6.340276329e-07
0.8287899789 	0.0002720498438 	0.001309148217 	-1.757655742e-08 	-0.0003396382466 	-4.19078496e-08 	-6.474448955e-07
0.8316357286 	0.0002788101301 	0.001357948943 	-1.5706553e-08 	-0.0003464067925 	-4.03881155e-08 	-6.603476254e-07
0.8344503826 	0.0002853730408 	0.001406330248 	-1.389178931e-08 	-0.0003529005562 	-3.875384359e-08 	-6.727265437e-07
0.8372342416 	0.0002917352438 	0.001454264491 	-1.213539868e-08 	-0.0003591187706 	-3.701211467e-08 	-6.845801886e-07
0.8399876419 	0.0002978940501 	0.001501733404 	-1.044352854e-08 	-0.0003650603729 	-3.517169869e-08 	-6.959065341e-07
0.8427109212 	0.0003038482411 	0.001548728503 	-8.824091715e-09 	-0.0003707257281 	-3.324094694e-08 	-7.067062756e-07
0.8454044284 	0.000309599345 	0.001595249426 	-7.286472491e-09 	-0.0003761194528 	-3.122751752e-08 	-7.16988214e-07
0.8480684794 	0.000315150958 	0.001641299383 	-5.84110166e-09 	-0.0003812495487 	-2.913645176e-08 	-7.267676026e-07
0.850703385 	0.0003205062349 	0.001686884798 	-4.500174797e-09 	-0.0003861225374 	-2.697431231e-08 	-7.360568734e-07
0.8533094671 	0.0003256683382 	0.001732017451 	-3.276506051e-09 	-0.0003907442749 	-2.474753163e-08 	-7.448671897e-07
0.8558870443 	0.0003306415531 	0.001776712389 	-2.183110659e-09 	-0.0003951224339 	-2.246225876e-08 	-7.532131776e-07
0.8584364432 	0.0003354311522 	0.001820986612 	-1.232709731e-09 	-0.0003992664283 	-2.012266095e-08 	-7.611127827e-07
0.8609579507 	0.0003400422777 	0.00186485569 	-4.377401637e-10 	-0.0004031855096 	-1.773270347e-08 	-7.685836408e-07
0.8634518736 	0.0003444790399 	0.001908336394 	1.901834502e-10 	-0.0004068868315 	-1.529758337e-08 	-7.756393891e-07
0.865918515 	0.0003487453812 	0.001951445584 	6.408074344e-10 	-0.0004103772979 	-1.282237461e-08 	-7.822931883e-07
0.8683581774 	0.0003528452268 	0.001994200563 	9.055470858e-10 	-0.0004136638966 	-1.031201815e-08 	-7.885583588e-07
0.8707711573 	0.0003567829601 	0.002036616509 	9.774601981e-10 	-0.0004167548548 	-7.769539572e-09 	-7.944505842e-07
0.8731577363 	0.0003605617764 	0.002078704968 	8.516160512e-10 	-0.0004196564842 	-5.199085058e-09 	-7.999818963e-07
0.8755182041 	0.0003641839146 	0.00212047724 	5.254110299e-10 	-0.0004223734191 	-2.605579277e-09 	-8.051611295e-07
0.8778475053 	0.0003676434225 	0.002161846979 	3.566218159e-09 	-0.0004249043807 	-1.345370878e-10 	-8.099858457e-07
0.8778528463 	0.0003676513508 	0.002161941842 	1.278999006e-12 	-0.000424910179 	-5.748024766e-12 	-8.099968988e-07
0.8801617703 	0.0003709629504 	0.002203104362 	6.603071039e-10 	-0.0004272676551 	-2.513741333e-09 	-8.144909034e-07
0.8824454411 	0.0003741229428 	0.002243971353 	1.520885591e-09 	-0.0004294532548 	-5.033327337e-09 	-8.18657264e-07
0.8847041277 	0.0003771319031 	0.002284542888 	2.576974168e-09 	-0.0004314698901 	-7.560406291e-09 	-8.225015313e-07
0.8869381035 	0.0003799894824 	0.002324818115 	3.820697279e-09 	-0.0004333188774 	-1.009029666e-08 	-8.26026215e-07
0.8891476383 	0.000382695275 	0.002364793551 	5.242799174e-09 	-0.0004350017499 	-1.261846936e-08 	-8.292342379e-07
0.8913329993 	0.0003852481896 	0.002404463772 	6.833014713e-09 	-0.0004365189455 	-1.514057613e-08 	-8.321264344e-07