/*--------------------------------*- C++ -*----------------------------------*\
  =========                 |
  \\      /  F ield         | OpenFOAM: The Open Source CFD Toolbox
   \\    /   O peration     | Website:  https://openfoam.org
    \\  /    A nd           | Version:  7
     \\/     M anipulation  |
\*---------------------------------------------------------------------------*/
FoamFile
{
    version     2.0;
    format      ascii;
    class       volScalarField;
    location    "2000";
    object      nut;
}
// * * * * * * * * * * * * * * * * * * * * * * * * * * * * * * * * * * * * * //

dimensions      [0 2 -1 0 0 0 0];

internalField   nonuniform List<scalar> 
15296
(
0.0044609309
0.0044641966
0.0044740589
0.0044894491
0.0045079997
0.0045277683
0.0045476684
0.0045672278
0.0045862897
0.0046048361
0.0046229053
0.0046405561
0.0046578509
0.0046748484
0.0046916012
0.0047081549
0.0047245461
0.0047408123
0.0047569844
0.0047730894
0.004789151
0.0048051906
0.0048212276
0.0048372797
0.0048533647
0.0048695024
0.0048857197
0.0049020614
0.0049186186
0.0049355238
0.004953065
0.0049727214
0.0049936492
0.0044103491
0.0025841211
0.0013642308
0.00081536809
0.00024411209
0.0044609024
0.0044642775
0.0044742077
0.0044896391
0.0045081996
0.0045279599
0.0045478448
0.0045673875
0.0045864333
0.0046049644
0.0046230196
0.0046406574
0.0046579401
0.0046749263
0.0046916683
0.0047082119
0.0047245935
0.0047408504
0.0047570134
0.0047731095
0.0047891624
0.0048051935
0.0048212219
0.0048372655
0.0048533421
0.0048694712
0.0048856797
0.0049020118
0.0049185584
0.0049354506
0.0049529691
0.0049725971
0.0049933598
0.0044455185
0.0025806053
0.001341578
0.00075218204
0.00023682537
0.0044608786
0.00446445
0.0044745478
0.0044900806
0.0045086726
0.0045284231
0.0045482819
0.0045677945
0.0045868104
0.0046053137
0.0046233432
0.0046409576
0.0046582188
0.0046751852
0.004691909
0.0047084357
0.0047248013
0.0047410432
0.0047571919
0.0047732743
0.004789314
0.0048053322
0.0048213481
0.0048373795
0.004853444
0.004869561
0.0048857574
0.0049020767
0.0049186093
0.0049354848
0.0049529761
0.00497257
0.0049931507
0.004521237
0.0026326533
0.0013814846
0.00075333964
0.00024245443
0.0044608699
0.0044647127
0.0044750735
0.0044907646
0.0045094082
0.0045291479
0.0045489706
0.0045684405
0.0045874142
0.0046058779
0.0046238712
0.0046414526
0.0046586838
0.0046756229
0.0046923216
0.0047088254
0.0047251694
0.0047413913
0.0047575213
0.0047735858
0.0047896085
0.0048056103
0.0048216104
0.0048376264
0.0048536758
0.004869778
0.0048859595
0.0049022634
0.0049187795
0.0049356359
0.0049530974
0.0049726544
0.0049930517
0.004547169
0.0026498082
0.0014007507
0.00074397044
0.00026509805
0.0044608809
0.0044650719
0.0044757881
0.0044916916
0.0045104049
0.0045301318
0.0045499087
0.0045693237
0.0045882429
0.0046066556
0.0046246024
0.0046421415
0.0046593343
0.0046762385
0.0046929054
0.0047093801
0.0047256974
0.0047418944
0.0047580011
0.0047740438
0.0047900457
0.0048060277
0.0048220086
0.0048380062
0.0048540377
0.0048701224
0.0048862865
0.0049025725
0.0049190696
0.0049359045
0.0049533339
0.004972851
0.0049930666
0.0045847284
0.0026730425
0.001425277
0.000739273
0.00028940264
0.0044609256
0.0044656708
0.0044769607
0.0044932033
0.0045120266
0.0045317334
0.0045514379
0.0045707665
0.0045895999
0.0046079325
0.004625806
0.0046432788
0.0046604117
0.0046772614
0.0046938788
0.0047103083
0.004726584
0.0047427427
0.0047588138
0.0047748232
0.0047907936
0.0048067457
0.004822698
0.004838668
0.0048546728
0.0048707314
0.0048868696
0.0049031292
0.0049195989
0.0049364028
0.0049537878
0.0049732496
0.0049932349
0.0046342441
0.0027031265
0.0014591839
0.00073757437
0.00031328625
0.004461056
0.0044667341
0.0044789709
0.0044957577
0.0045147506
0.0045344204
0.0045540061
0.0045731941
0.0045918883
0.0046100911
0.0046278463
0.0046452123
0.0046622488
0.0046790114
0.0046955495
0.0047119069
0.0047281167
0.0047442147
0.0047602297
0.0047761867
0.0047921081
0.0048080137
0.0048239218
0.0048398494
0.0048558132
0.0048718319
0.0048879307
0.0049041504
0.0049205786
0.0049373367
0.0049546588
0.0049740413
0.0049937442
0.0046970755
0.00273864
0.0015025216
0.00073777903
0.00033700621
0.0044613259
0.0044683936
0.0044819561
0.0044994675
0.0045186686
0.0045382741
0.00455769
0.0045766805
0.00459518
0.0046132017
0.0046307924
0.0046480102
0.0046649132
0.0046815551
0.0046979839
0.0047142416
0.0047303606
0.0047463751
0.0047623131
0.0047781987
0.0047940533
0.0048098962
0.0048257447
0.0048416153
0.0048575242
0.0048734896
0.0048895358
0.0049057023
0.0049220758
0.0049387739
0.0049560172
0.0049752985
0.004994702
0.0047705453
0.0027787137
0.0015528745
0.00074296123
0.00035986148
0.0044618464
0.0044709909
0.0044863362
0.0045047445
0.0045241671
0.0045436584
0.0045628339
0.0045815523
0.0045997856
0.0046175604
0.0046349275
0.0046519442
0.0046686664
0.0046851452
0.0047014259
0.0047175489
0.0047335451
0.0047494468
0.0047652809
0.0047810704
0.0047968357
0.0048125947
0.0048283639
0.0048441589
0.0048599952
0.00487589
0.0048918668
0.0049079634
0.0049242647
0.0049408852
0.0049580299
0.0049771818
0.0049962793
0.0048558446
0.0028242533
0.0016097631
0.00075285621
0.00037815959
0.0044628488
0.0044750987
0.0044927307
0.0045121467
0.0045317485
0.0045510403
0.0045698796
0.0045882303
0.0046061071
0.0046235532
0.0046406231
0.0046573732
0.0046738559
0.0046901186
0.0047062034
0.004722148
0.0047379816
0.0047537338
0.0047694304
0.004785093
0.0048007405
0.0048163894
0.0048320549
0.0048477514
0.0048634931
0.0048792962
0.0048951829
0.0049111889
0.0049273964
0.0049439173
0.0049609394
0.004979925
0.0049987227
0.0049574662
0.0028775444
0.0016737194
0.00076855878
0.00039345412
0.0044648412
0.0044816843
0.0045020324
0.0045224033
0.0045420418
0.0045609963
0.0045793699
0.0045972311
0.0046146396
0.0046316561
0.0046483394
0.004664743
0.0046809149
0.0046968974
0.0047127282
0.0047284411
0.0047440634
0.0047596211
0.0047751387
0.0047906363
0.0048061308
0.0048216373
0.0048371691
0.0048527388
0.0048683593
0.0048840449
0.0048998161
0.0049157062
0.0049317936
0.0049481876
0.0049650577
0.0049838293
0.0050023509
0.0050487604
0.0029411878
0.0017446487
0.00079175641
0.00040902223
0.0044689851
0.0044923707
0.0045154703
0.0045364203
0.0045558021
0.0045742088
0.0045919424
0.0046091597
0.0046259624
0.0046424277
0.0046586164
0.0046745779
0.0046903532
0.0047059782
0.0047214845
0.0047369011
0.004752253
0.0047675608
0.0047828481
0.0047981331
0.0048134308
0.0048287541
0.0048441143
0.004859522
0.0048749876
0.0048905235
0.0049061478
0.0049218905
0.0049378251
0.0049540578
0.0049707402
0.0049892382
0.0050075266
0.0050513416
0.0030173245
0.001821548
0.00082263487
0.00042673128
0.0044780586
0.0045097422
0.0045345687
0.0045552476
0.0045739119
0.0045914786
0.0046083458
0.004624729
0.0046407631
0.0046565356
0.0046721053
0.0046875138
0.0047027932
0.0047179706
0.0047330702
0.0047481149
0.0047631256
0.0047781185
0.0047931143
0.0048081293
0.0048231764
0.0048382666
0.0048534087
0.0048686107
0.0048838802
0.0048992269
0.0049146656
0.0049302224
0.0049459644
0.0049619934
0.004978445
0.0049965962
0.005014702
0.005055112
0.003109947
0.0019059375
0.00086250302
0.00044769844
0.0044991702
0.004537151
0.0045607764
0.0045799807
0.0045973695
0.004613729
0.0046294519
0.0046447825
0.0046598693
0.0046747973
0.0046896151
0.0047043521
0.0047190287
0.0047336612
0.0047482648
0.004762855
0.0047774471
0.0047920533
0.0048066893
0.0048213697
0.0048361055
0.0048509053
0.0048657757
0.0048807217
0.0048957478
0.0049108598
0.0049260687
0.0049413954
0.0049568989
0.004972675
0.0049888455
0.0050065636
0.0050245219
0.0050609099
0.0032235682
0.0020003805
0.00091248633
0.00047282212
0.0045518075
0.0045750861
0.0045946228
0.0046116404
0.0046271927
0.0046419053
0.0046561699
0.0046702215
0.0046841859
0.0046981237
0.0047120616
0.0047260116
0.0047399795
0.0047539698
0.0047679874
0.0047820392
0.0047961338
0.0048102795
0.0048244844
0.004838762
0.0048531211
0.0048675683
0.0048821079
0.004896742
0.0049114716
0.0049262985
0.0049412284
0.0049562759
0.0049714897
0.0049869573
0.0050027894
0.005019979
0.005037781
0.0050698681
0.003367755
0.0021078216
0.00097786117
0.00050085194
0.0046309432
0.0046342382
0.00464584
0.0046586834
0.0046711621
0.0046833677
0.0046955597
0.0047078707
0.0047203393
0.0047329644
0.0047457333
0.0047586318
0.0047716473
0.00478477
0.0047979927
0.0048113116
0.0048247263
0.0048382393
0.0048518509
0.0048655703
0.0048794038
0.0048933557
0.0049074281
0.00492162
0.0049359286
0.0049503502
0.0049648838
0.0049795349
0.0049943371
0.0050093656
0.005024719
0.0050411642
0.0050586912
0.0050857863
0.0035781238
0.0022510478
0.001074166
0.00054178356
0.0046944733
0.0047072191
0.004714542
0.0047215658
0.0047296501
0.0047387798
0.0047486895
0.0047591606
0.0047700506
0.0047812707
0.004792765
0.0048044958
0.0048164363
0.0048285657
0.0048408681
0.0048533311
0.0048659462
0.0048787087
0.0048916148
0.0049046625
0.0049178579
0.0049312019
0.0049446939
0.0049583307
0.0049721061
0.0049860112
0.005000037
0.0050141786
0.0050284488
0.0050429146
0.0050576407
0.0050731455
0.0050901085
0.0051125336
0.0038653561
0.0024405062
0.0012044339
0.00060663895
0.0047839946
0.004782399
0.0047828883
0.0047863526
0.0047922494
0.0047997792
0.004808351
0.0048176126
0.0048273693
0.0048375139
0.0048479849
0.0048587437
0.0048697634
0.004881023
0.0048925049
0.004904194
0.0049160777
0.0049281464
0.0049403931
0.0049528112
0.0049653978
0.0049781537
0.0049910767
0.0050041618
0.0050174001
0.0050307784
0.0050442809
0.0050578918
0.0050716039
0.005085466
0.0050995142
0.0051140404
0.0051301764
0.0051488685
0.0042150917
0.0026735308
0.0013645976
0.00069175739
0.0048612628
0.0048451884
0.0048444672
0.0048497155
0.0048570104
0.0048650964
0.0048736383
0.004882546
0.0048917826
0.0049013243
0.0049111543
0.0049212597
0.0049316294
0.0049422521
0.0049531159
0.0049642082
0.0049755167
0.0049870302
0.0049987395
0.0050106376
0.0050227123
0.0050349637
0.0050473906
0.0050599839
0.0050727327
0.0050856206
0.0050986258
0.0051117226
0.0051248864
0.0051381305
0.0051514768
0.005165024
0.0051801171
0.0051958015
0.0046426141
0.0029594758
0.0015606921
0.00079566108
0.0048560391
0.0048864577
0.0049040724
0.0049162062
0.0049262964
0.0049356577
0.0049447921
0.0049539202
0.0049631548
0.0049725589
0.0049821685
0.0049920028
0.0050020708
0.005012374
0.0050229086
0.0050336669
0.0050446394
0.005055816
0.0050671869
0.0050787446
0.0050904769
0.0051023797
0.0051144436
0.0051266662
0.0051390321
0.0051515216
0.0051641076
0.005176755
0.0051894243
0.005202088
0.0052147485
0.0052273526
0.0052412485
0.0052545762
0.005162381
0.0033167982
0.0018031606
0.00092493707
0.0049449231
0.0049641262
0.0049797126
0.0049924183
0.0050033514
0.0050133539
0.0050229434
0.0050324083
0.005041903
0.0050515105
0.0050612764
0.0050712265
0.0050813743
0.0050917251
0.0051022786
0.0051130301
0.0051239723
0.0051350968
0.005146395
0.0051578589
0.0051694802
0.0051812512
0.0051931586
0.0052051918
0.0052173444
0.0052295893
0.005241895
0.0052542163
0.0052665006
0.0052786748
0.0052907471
0.0053024871
0.0053150906
0.0053266953
0.005352454
0.0037665013
0.0021071647
0.0010892482
0.0050733667
0.0050711904
0.0050750184
0.0050820115
0.0050904749
0.0050996045
0.0051090796
0.0051187885
0.0051286935
0.0051387809
0.0051490441
0.0051594794
0.0051700841
0.0051808555
0.0051917893
0.0052028802
0.0052141213
0.0052255056
0.005237026
0.0052486759
0.0052604485
0.005272336
0.0052843293
0.0052964093
0.00530856
0.0053207573
0.0053329716
0.005345141
0.0053571982
0.0053690281
0.0053806425
0.0053916456
0.0054029716
0.0054132156
0.005431956
0.0043457793
0.0024955878
0.0013015312
0.0051571225
0.0051624781
0.0051683924
0.0051755271
0.0051838821
0.0051931843
0.0052031527
0.0052135779
0.0052243201
0.0052352912
0.0052464376
0.0052577277
0.0052691436
0.0052806746
0.0052923141
0.0053040563
0.0053158956
0.0053278271
0.0053398461
0.0053519482
0.0053641287
0.0053763813
0.0053886969
0.0054010619
0.0054134469
0.0054258268
0.0054381559
0.0054503691
0.0054623847
0.0054740608
0.0054853582
0.0054957961
0.005505996
0.0055149557
0.00552817
0.0050961478
0.0030019716
0.0015803829
0.0052343853
0.0052457576
0.0052575309
0.0052694427
0.0052814375
0.0052935139
0.0053056781
0.0053179278
0.005330251
0.0053426324
0.0053550597
0.0053675257
0.0053800281
0.0053925673
0.0054051449
0.0054177619
0.005430418
0.0054431127
0.0054558447
0.0054686128
0.0054814148
0.0054942463
0.0055070987
0.0055199572
0.0055327968
0.0055455816
0.0055582497
0.0055707274
0.0055829183
0.0055946405
0.005605797
0.0056159381
0.0056252491
0.0056328817
0.0056423643
0.0056535638
0.0036732614
0.0019521136
0.0053200122
0.0053402223
0.0053584848
0.0053753388
0.005391214
0.0054063942
0.0054210797
0.0054354166
0.0054495076
0.0054634237
0.0054772151
0.0054909183
0.0055045615
0.0055181664
0.0055317492
0.0055453206
0.0055588875
0.0055724536
0.0055860207
0.0055995898
0.0056131599
0.0056267275
0.0056402838
0.0056538123
0.0056672853
0.0056806603
0.0056938744
0.0057068328
0.0057194177
0.0057314141
0.0057426546
0.0057527275
0.0057614416
0.0057678392
0.0057748488
0.0057778679
0.004590927
0.002461757
0.0054555372
0.005473184
0.0054905269
0.0055074042
0.0055237894
0.0055397146
0.0055552491
0.0055704752
0.0055854665
0.0056002825
0.0056149697
0.0056295649
0.0056440973
0.0056585895
0.0056730579
0.0056875132
0.0057019609
0.0057164028
0.0057308391
0.0057452683
0.0057596876
0.0057740914
0.0057884686
0.0058027993
0.0058170515
0.0058311752
0.005845099
0.0058587147
0.0058718825
0.0058843707
0.005895945
0.00590611
0.0059146317
0.0059201383
0.0059250609
0.0059232201
0.0058664081
0.0031767482
0.0056215594
0.0056356029
0.0056498088
0.005664188
0.0056787256
0.0056933839
0.0057081355
0.0057229674
0.0057378709
0.0057528373
0.005767859
0.0057829309
0.00579805
0.0058132149
0.0058284229
0.0058436697
0.005858949
0.0058742528
0.0058895729
0.0059049011
0.0059202291
0.0059355462
0.0059508369
0.0059660769
0.0059812282
0.0059962336
0.0060110116
0.0060254412
0.0060393637
0.0060525216
0.0060646457
0.0060751438
0.0060838181
0.006088906
0.0060919358
0.0060883748
0.0061065953
0.0042011366
0.0057918018
0.0058032151
0.0058154643
0.0058284491
0.0058420503
0.0058561481
0.0058706491
0.0058854862
0.0059006054
0.0059159593
0.0059315077
0.0059472185
0.0059630673
0.0059790349
0.0059951047
0.0060112608
0.0060274867
0.0060437664
0.0060600845
0.0060764271
0.0060927809
0.0061091313
0.0061254591
0.0061417356
0.0061579182
0.0061739435
0.0061897215
0.00620512
0.0062199648
0.0062339778
0.006246854
0.0062579675
0.0062669724
0.006272319
0.006274102
0.006269621
0.0062747709
0.0057115895
0.0059350255
0.0059505486
0.0059664842
0.0059827027
0.0059991117
0.0060156477
0.0060322834
0.0060490155
0.0060658456
0.0060827713
0.006099788
0.0061168909
0.0061340766
0.0061513418
0.0061686818
0.0061860882
0.00620355
0.0062210542
0.0062385875
0.006256137
0.0062736904
0.0062912336
0.006308747
0.0063262014
0.0063435519
0.0063607314
0.0063776448
0.0063941522
0.0064100682
0.0064251034
0.0064389208
0.0064509009
0.0064605062
0.0064665599
0.006468109
0.0064627997
0.0064624504
0.0064104266
0.0060654741
0.006089227
0.0061116757
0.0061330701
0.0061536639
0.0061736576
0.0061932163
0.0062124758
0.0062315384
0.0062504748
0.0062693337
0.0062881501
0.0063069509
0.006325756
0.0063445775
0.0063634195
0.0063822796
0.0064011509
0.0064200246
0.0064388917
0.0064577431
0.0064765673
0.0064953469
0.0065140534
0.0065326421
0.0065510443
0.0065691622
0.0065868528
0.0066039245
0.0066200852
0.0066349795
0.0066480008
0.0066585358
0.0066654293
0.0066678325
0.0066624925
0.0066597189
0.0066036577
0.0062450579
0.0062636183
0.006282522
0.0063016593
0.0063209417
0.006340311
0.0063597464
0.0063792503
0.0063988279
0.0064184779
0.0064381953
0.0064579762
0.006477819
0.0064977223
0.0065176821
0.0065376892
0.0065577305
0.0065777908
0.0065978554
0.0066179114
0.0066379475
0.006657951
0.0066779041
0.0066977775
0.0067175253
0.006737078
0.0067563363
0.0067751569
0.0067933478
0.0068106222
0.0068266216
0.006840766
0.0068524212
0.0068604716
0.006864118
0.0068604804
0.0068563728
0.0068049175
0.0064087824
0.0064248811
0.0064418863
0.0064596482
0.0064780026
0.0064968187
0.0065160127
0.0065355315
0.0065553324
0.0065753729
0.006595614
0.0066160245
0.0066365814
0.0066572655
0.0066780569
0.006698932
0.0067198658
0.0067408335
0.0067618134
0.0067827883
0.0068037442
0.0068246673
0.0068455385
0.0068663281
0.0068869897
0.0069074535
0.0069276219
0.0069473554
0.0069664678
0.0069846873
0.0070016671
0.0070168744
0.0070296798
0.0070391271
0.0070441769
0.0070431946
0.0070394654
0.0069986344
0.0064892346
0.0065150017
0.0065396474
0.0065633816
0.0065864088
0.0066089107
0.0066310492
0.0066529571
0.0066747297
0.0066964269
0.0067180855
0.0067397322
0.006761387
0.0067830617
0.0068047568
0.0068264628
0.0068481648
0.0068698466
0.0068914948
0.0069130992
0.0069346524
0.0069561463
0.0069775668
0.006998888
0.0070200678
0.007041042
0.0070617197
0.0070819722
0.0071016278
0.0071204393
0.0071380886
0.0071541034
0.0071679033
0.0071786899
0.0071854111
0.0071871035
0.0071846362
0.007159232
0.0065764786
0.006596592
0.0066174322
0.0066387717
0.006660395
0.0066821667
0.0067040218
0.0067259356
0.0067478948
0.0067698845
0.0067918908
0.0068139062
0.0068359278
0.0068579501
0.0068799607
0.0069019417
0.0069238748
0.006945744
0.0069675382
0.0069892504
0.0070108766
0.0070324121
0.0070538474
0.007075162
0.0070963206
0.0071172676
0.0071379231
0.0071581736
0.0071778671
0.0071967866
0.0072146531
0.0072310612
0.0072455048
0.0072573484
0.0072655647
0.0072700713
0.0072683968
0.0072599289
0.0065774354
0.0066045471
0.0066301821
0.0066546941
0.0066783671
0.0067014258
0.0067240505
0.0067463844
0.0067685297
0.0067905472
0.0068124699
0.0068343188
0.006856107
0.006877838
0.0068995047
0.0069210952
0.0069425977
0.0069640024
0.0069853019
0.007006491
0.0070275673
0.0070485293
0.0070693728
0.0070900854
0.007110641
0.0071309946
0.0071510787
0.0071707953
0.0071900131
0.0072085456
0.0072261564
0.0072425062
0.0072571727
0.0072696769
0.0072790357
0.0072860234
0.0072851166
0.0072923951
0.0065753035
0.0065950464
0.0066154314
0.0066362062
0.0066571236
0.0066780316
0.0066988676
0.0067196366
0.0067403661
0.0067610701
0.0067817454
0.0068023835
0.0068229776
0.0068435189
0.0068639965
0.0068844005
0.0069047219
0.0069249513
0.0069450771
0.006965089
0.0069849821
0.0070047577
0.0070244191
0.0070439638
0.0070633764
0.007082622
0.0071016437
0.0071203563
0.0071386477
0.0071563599
0.0071732997
0.0071891917
0.0072037011
0.0072164951
0.0072266489
0.0072357263
0.007235436
0.0072572359
0.0065027814
0.0065245461
0.0065452672
0.0065652647
0.006584732
0.0066037974
0.0066225777
0.0066412103
0.0066598141
0.0066784455
0.0066971054
0.0067157739
0.0067344348
0.0067530786
0.0067717002
0.0067902958
0.006808857
0.006827366
0.0068457982
0.0068641322
0.0068823599
0.0069004882
0.0069185313
0.0069364991
0.0069543856
0.0069721629
0.0069897802
0.0070071614
0.0070242108
0.0070407964
0.0070567688
0.0070719135
0.0070859857
0.0070987879
0.007109462
0.0071202887
0.0071204823
0.0071553929
0.0063942972
0.0064104487
0.0064264879
0.0064425103
0.0064584785
0.0064743388
0.0064901079
0.0065059056
0.0065218549
0.0065379905
0.0065542675
0.0065706257
0.0065870319
0.0066034806
0.0066199776
0.0066365242
0.0066531035
0.0066696782
0.006686203
0.006702645
0.0067189977
0.0067352807
0.0067515242
0.0067677503
0.0067839599
0.0068001266
0.0068162011
0.006832112
0.0068477778
0.0068630916
0.0068779481
0.0068921926
0.006905671
0.0069183102
0.0069293264
0.0069416271
0.0069422685
0.0069886123
0.0062134427
0.0062283618
0.0062424018
0.0062560807
0.006269568
0.0062828763
0.0062960791
0.0063093849
0.0063229749
0.0063368714
0.0063509769
0.0063651936
0.0063794884
0.006393878
0.0064083883
0.0064230212
0.00643774
0.0064524788
0.0064671705
0.0064817776
0.0064963063
0.0065107971
0.0065252993
0.0065398458
0.0065544386
0.006569047
0.0065836178
0.0065980816
0.0066123702
0.0066264024
0.0066401191
0.006653425
0.0066662575
0.0066786549
0.0066899147
0.0067034586
0.0067045995
0.006760412
0.0059751379
0.005985785
0.0059968795
0.006008308
0.0060198001
0.0060311251
0.0060423175
0.0060536723
0.0060654285
0.0060775756
0.0060899473
0.0061024148
0.0061149663
0.006127658
0.006140536
0.0061535899
0.0061667497
0.0061799158
0.0061930062
0.0062059916
0.0062189025
0.0062318065
0.0062447716
0.0062578353
0.0062709936
0.0062842047
0.0062974072
0.0063105325
0.0063235278
0.0063363409
0.0063489629
0.0063613583
0.0063735552
0.0063856862
0.0063971357
0.0064117075
0.0064134399
0.0064765548
0.0056709435
0.0056845945
0.0056962699
0.005707031
0.0057172494
0.0057269777
0.0057364693
0.0057462196
0.005756539
0.0057673483
0.0057783843
0.0057894893
0.0058006876
0.005812078
0.0058237118
0.0058355462
0.0058474657
0.0058593406
0.0058710868
0.005882698
0.005894238
0.0059058024
0.0059174716
0.0059292792
0.0059412053
0.0059531905
0.0059651637
0.0059770596
0.005988847
0.0060005102
0.0060120957
0.0060236272
0.0060352183
0.0060470739
0.006058666
0.0060740392
0.0060764368
0.0061446365
0.0053416031
0.0053489383
0.0053564819
0.0053644625
0.0053725814
0.0053804887
0.0053883667
0.0053967849
0.0054060312
0.0054158812
0.0054259423
0.0054360348
0.0054462316
0.0054566672
0.0054673774
0.0054782697
0.005489183
0.005499972
0.0055105692
0.005521004
0.005531377
0.0055418061
0.0055523734
0.0055630956
0.0055739278
0.0055847894
0.0055956027
0.0056063155
0.00561693
0.0056274765
0.0056380613
0.0056487616
0.0056597649
0.0056713187
0.0056829792
0.0056988925
0.0057019594
0.0057731203
0.0049661903
0.0049735778
0.0049804501
0.0049875117
0.0049945969
0.0050013732
0.005008184
0.005015771
0.0050243987
0.0050336725
0.0050430758
0.0050524352
0.0050618874
0.0050715926
0.0050815538
0.0050916262
0.0051016199
0.0051113985
0.0051209303
0.0051302878
0.0051396034
0.005149005
0.00515856
0.0051682546
0.005178012
0.0051877339
0.005197349
0.0052068356
0.005216245
0.0052256614
0.0052352479
0.0052451206
0.00525552
0.0052667025
0.0052783024
0.0052944402
0.0052980795
0.0053702635
0.004568378
0.004574789
0.0045810121
0.0045876231
0.00459422
0.0046003564
0.0046065453
0.0046137042
0.0046220374
0.0046309581
0.004639847
0.0046485718
0.0046573418
0.0046663299
0.0046754992
0.0046846686
0.00469365
0.0047023426
0.0047107633
0.0047190245
0.0047272761
0.0047356353
0.0047441351
0.0047527191
0.0047612807
0.0047697199
0.004777996
0.0047861402
0.0047942655
0.0048025078
0.0048110711
0.0048200849
0.0048298155
0.0048404942
0.0048518318
0.0048678154
0.004871826
0.0049433115
0.004157624
0.0041637557
0.0041696678
0.0041759779
0.0041821395
0.0041876667
0.0041932971
0.0042000972
0.004208141
0.0042166212
0.0042248457
0.0042327542
0.0042406295
0.0042486461
0.0042567362
0.0042647136
0.0042724257
0.0042798261
0.0042869789
0.0042940202
0.0043010922
0.0043082734
0.004315543
0.0043227999
0.0043299256
0.0043368497
0.004343593
0.0043502579
0.0043570172
0.0043640388
0.0043715367
0.0043796215
0.0043885592
0.0043985305
0.0044093319
0.0044247292
0.004428833
0.0044981125
0.0037454248
0.0037503591
0.0037554246
0.0037610807
0.0037665012
0.003771152
0.0037760117
0.0037822253
0.003789651
0.0037972564
0.0038043333
0.0038109348
0.0038174203
0.0038239671
0.0038305001
0.0038368627
0.0038429592
0.0038487974
0.0038544704
0.0038601077
0.0038658083
0.0038715826
0.0038773465
0.0038829723
0.0038883686
0.003893536
0.003898582
0.0039036787
0.0039090328
0.0039148052
0.0039211825
0.0039282266
0.0039361903
0.0039451934
0.0039551407
0.0039695041
0.0039733965
0.0040391931
0.0033363542
0.0033396333
0.0033436036
0.0033483159
0.0033525751
0.0033558849
0.0033595173
0.0033646124
0.0033707382
0.0033766818
0.003381817
0.003386366
0.003390776
0.0033952374
0.0033996902
0.0034040224
0.0034081899
0.0034122317
0.0034162359
0.0034202848
0.003424394
0.0034284869
0.0034324311
0.0034361192
0.0034395418
0.0034428064
0.0034461066
0.0034496503
0.0034536283
0.0034581478
0.0034633371
0.0034691996
0.0034759813
0.0034837461
0.0034925389
0.0035054713
0.003508882
0.00357024
0.0029314267
0.00293433
0.0029375412
0.0029409072
0.0029431922
0.0029442748
0.0029458301
0.0029488886
0.0029526735
0.0029558875
0.0029581105
0.0029597883
0.0029614611
0.0029633299
0.002965342
0.0029674059
0.0029694941
0.0029716395
0.0029738837
0.0029762151
0.0029785351
0.0029806885
0.0029825489
0.0029841024
0.0029854739
0.0029868814
0.0029885626
0.0029906962
0.0029933981
0.002996688
0.0030006319
0.003005189
0.0030106237
0.0030169548
0.0030243966
0.0030356271
0.0030383938
0.0030947796
0.0025378523
0.0025387836
0.0025396028
0.0025398523
0.0025384204
0.0025357974
0.002534034
0.0025338568
0.0025341044
0.0025335229
0.0025320074
0.0025302481
0.0025288522
0.0025279887
0.0025275542
0.0025274186
0.0025275284
0.0025278764
0.0025284144
0.0025289934
0.0025293943
0.0025294401
0.0025291077
0.0025285572
0.0025280657
0.0025279127
0.0025282953
0.0025292865
0.0025308865
0.0025330281
0.002535741
0.0025389755
0.0025430381
0.0025479113
0.0025539865
0.0025634276
0.0025656121
0.0026165618
0.0022027415
0.0021983136
0.0021943972
0.0021895004
0.0021827553
0.0021753925
0.0021696102
0.0021656344
0.0021619893
0.0021575658
0.0021525472
0.0021477918
0.0021439136
0.0021409813
0.0021387623
0.0021370369
0.0021357122
0.0021347294
0.0021339224
0.0021329966
0.0021316695
0.0021298525
0.002127721
0.0021256263
0.0021239303
0.0021228682
0.0021225097
0.00212279
0.0021236138
0.0021248766
0.0021266171
0.0021288116
0.0021318041
0.0021355541
0.0021405719
0.0021485357
0.0021505429
0.0021951098
0.0019447312
0.0019368454
0.0019280731
0.0019178247
0.0019061243
0.0018946423
0.001885339
0.0018781497
0.0018715993
0.0018645982
0.0018572678
0.0018504774
0.0018449157
0.0018406475
0.0018373371
0.0018346657
0.0018324959
0.0018307236
0.001829087
0.0018271911
0.0018247398
0.0018217485
0.0018185507
0.0018156131
0.0018133153
0.0018118231
0.0018111026
0.001811002
0.0018113792
0.0018121225
0.0018132797
0.0018148452
0.0018171615
0.0018201788
0.0018244306
0.0018312754
0.0018330731
0.0018724224
0.0017075502
0.0016935085
0.0016784839
0.0016623674
0.0016459731
0.0016309165
0.0016184603
0.0016084272
0.0015996482
0.0015909363
0.0015820426
0.0015737514
0.001566927
0.0015617188
0.0015576974
0.0015544293
0.0015517326
0.0015494726
0.0015473171
0.0015448042
0.0015416497
0.0015379647
0.0015341946
0.001530862
0.0015283235
0.0015266729
0.0015258014
0.0015255103
0.0015256419
0.0015260914
0.0015269121
0.001528106
0.0015299967
0.0015325209
0.0015362124
0.0015421294
0.0015438497
0.0015782304
0.0014875351
0.0014651898
0.0014433584
0.0014219107
0.0014019703
0.0013844675
0.0013695601
0.0013572082
0.0013469175
0.0013373443
0.0013276195
0.0013183644
0.0013106918
0.0013049032
0.0013004982
0.0012969392
0.0012940116
0.0012915652
0.0012892218
0.0012864821
0.0012830821
0.0012791994
0.0012753355
0.0012720172
0.0012695578
0.0012679928
0.0012671703
0.0012668768
0.0012669574
0.0012673178
0.0012680099
0.0012690359
0.0012706883
0.0012728912
0.0012761631
0.0012812815
0.0012829961
0.0013126023
0.0012811348
0.0012489701
0.0012218458
0.0011969778
0.0011750761
0.001156291
0.0011396373
0.0011254646
0.001114257
0.0011045228
0.0010946221
0.0010849266
0.001076801
0.0010707396
0.0010662216
0.0010626409
0.0010597607
0.0010574185
0.0010552092
0.0010526198
0.0010494053
0.0010457723
0.0010422249
0.0010392569
0.0010371317
0.0010358458
0.0010352325
0.0010350847
0.0010352596
0.0010356737
0.0010363728
0.0010373555
0.0010388788
0.0010408567
0.0010437804
0.0010481704
0.0010498867
0.0010749074
0.001083823
0.0010437461
0.001015373
0.00098952698
0.00096663345
0.00094722051
0.00092950321
0.00091407677
0.00090238277
0.00089294405
0.00088340715
0.00087379171
0.0008656102
0.00085955492
0.00085516176
0.00085180787
0.00084923156
0.00084724793
0.00084544083
0.00084330776
0.00084062119
0.00083758204
0.00083465379
0.00083227101
0.0008306476
0.00082975909
0.0008294451
0.00082951932
0.00082985705
0.00083038618
0.00083114554
0.00083213021
0.00083355953
0.00083534119
0.0008379301
0.00084161375
0.00084329249
0.0008639169
0.00089322257
0.00085121119
0.00082687036
0.00080152559
0.00077721781
0.00075729575
0.00073950755
0.00072368588
0.00071178602
0.00070279078
0.0006940114
0.00068500779
0.00067720778
0.00067145294
0.00066741958
0.00066452147
0.0006624605
0.00066101501
0.00065977691
0.00065828331
0.0006563285
0.00065408362
0.0006519402
0.00065025624
0.00064919843
0.00064873526
0.00064872756
0.0006490199
0.00064951061
0.00065014119
0.00065094427
0.00065191236
0.00065322736
0.00065479335
0.00065702197
0.00065999099
0.00066157924
0.00067796233
0.00071034265
0.00067557157
0.00065865526
0.00063332087
0.00060619717
0.00058587774
0.00056955372
0.00055455812
0.00054264492
0.00053397915
0.00052621253
0.00051835826
0.00051143261
0.00050631389
0.00050287754
0.00050062086
0.00049920335
0.00049836347
0.00049772726
0.0004969037
0.00049572018
0.00049430668
0.00049296496
0.00049196724
0.00049143568
0.00049134083
0.00049157393
0.00049201659
0.00049259351
0.00049326143
0.00049404799
0.00049494375
0.00049609398
0.00049740131
0.00049922962
0.00050146972
0.00050293618
0.00051513831
0.00054202192
0.00052134244
0.00050990427
0.00048307597
0.00045257028
0.0004324392
0.00041922438
0.00040638455
0.00039475261
0.00038629684
0.00037972249
0.00037349612
0.00036792932
0.00036378598
0.00036114925
0.00035963325
0.000358869
0.00035857334
0.0003584368
0.00035816809
0.000357641
0.00035694453
0.00035628723
0.00035585532
0.00035572983
0.00035588769
0.0003562534
0.00035674668
0.00035731879
0.00035794145
0.00035863778
0.00035939646
0.00036032807
0.00036133617
0.00036273412
0.000364256
0.00036560664
0.00037356528
0.00040142522
0.00038996604
0.00037573374
0.00034816869
0.00031660678
0.00029744412
0.00028800569
0.00027836107
0.0002676675
0.00025966088
0.00025447567
0.0002501748
0.00024629549
0.00024336918
0.00024163869
0.00024084272
0.00024061651
0.00024069505
0.00024086142
0.00024093788
0.00024085179
0.0002406585
0.00024048239
0.00024043205
0.00024055226
0.00024082664
0.00024121004
0.00024165618
0.00024213949
0.00024264424
0.00024318879
0.0002437599
0.0002444369
0.00024512776
0.0002460928
0.00024696072
0.00024820519
0.00025186638
0.00031732092
0.00028591003
0.00026035004
0.00023810876
0.00021016088
0.00019163841
0.00018459499
0.00017839009
0.00016964697
0.00016277183
0.00015908652
0.00015660851
0.00015436652
0.00015262017