/*--------------------------------*- C++ -*----------------------------------*\
  =========                 |
  \\      /  F ield         | OpenFOAM: The Open Source CFD Toolbox
   \\    /   O peration     | Website:  https://openfoam.org
    \\  /    A nd           | Version:  7
     \\/     M anipulation  |
\*---------------------------------------------------------------------------*/
FoamFile
{
    version     2.0;
    format      ascii;
    class       volScalarField;
    location    "2000";
    object      omega;
}
// * * * * * * * * * * * * * * * * * * * * * * * * * * * * * * * * * * * * * //

dimensions      [0 0 -1 0 0 0 0];

internalField   nonuniform List<scalar> 
15296
(
0.85603823
0.8529991
0.85001892
0.84709887
0.84423487
0.84142539
0.83866929
0.83596565
0.8333136
0.83071222
0.82816055
0.82565758
0.8232023
0.82079372
0.81843083
0.81611274
0.81383783
0.81160565
0.8094152
0.80726549
0.80515562
0.8030847
0.80105189
0.79905649
0.79709814
0.79517726
0.79329605
0.7914603
0.7896866
0.78798739
0.78644369
0.78515522
0.78501388
0.78578364
0.7990117
0.80096427
1.1797719
2.3390996
0.85606425
0.85302367
0.85004531
0.84712624
0.84426312
0.84145448
0.83869917
0.83599628
0.83334494
0.83074422
0.82819317
0.82569079
0.82323606
0.82082798
0.81846557
0.81614792
0.81387341
0.8116416
0.80945148
0.80730207
0.80519247
0.8031218
0.8010892
0.79909398
0.79713578
0.79521499
0.7933338
0.7914979
0.78972387
0.78802381
0.7864782
0.7851825
0.7850284
0.78572209
0.79912464
0.79752626
1.2247899
0.39649705
0.85611853
0.85307671
0.85010056
0.84718256
0.84432038
0.8415126
0.8387581
0.83605596
0.8334053
0.83080523
0.82825476
0.8257529
0.82329865
0.820891
0.81852895
0.81621165
0.8139374
0.81170582
0.80951588
0.80736661
0.80525711
0.80318649
0.8011539
0.79915863
0.79720034
0.79527939
0.79339792
0.79156156
0.78978681
0.78808544
0.78653719
0.785233
0.78506229
0.78566058
0.79941811
0.79260666
1.2545726
0.14860639
0.85619805
0.85315723
0.85018312
0.84726616
0.84440489
0.84159793
0.83884418
0.83614272
0.83349269
0.83089316
0.82834318
0.82584174
0.82338784
0.82098048
0.81861866
0.81630154
0.8140274
0.81179588
0.80960594
0.80745661
0.80534699
0.8032762
0.80124339
0.79924785
0.7972892
0.79536782
0.7934858
0.79164866
0.78987285
0.78816987
0.78661862
0.78530581
0.78511764
0.78560879
0.79991972
0.78753322
1.2587786
0.94806075
0.85630179
0.85326519
0.85029274
0.84737676
0.84451637
0.84171019
0.83895712
0.83625627
0.83360677
0.8310077
0.8284581
0.82595697
0.82350329
0.82109609
0.81873435
0.81641721
0.81414305
0.81191142
0.80972127
0.80757168
0.80546174
0.80339056
0.8013573
0.79936124
0.79740199
0.79547991
0.79359704
0.79175881
0.78998158
0.78827668
0.78672202
0.78540041
0.78519417
0.78556032
0.80061525
0.78240798
1.2450462
1.1599145
0.85646676
0.85343973
0.85046885
0.84755409
0.8446948
0.84188955
0.83913728
0.83643712
0.8337882
0.83118959
0.82864034
0.82613944
0.8236859
0.82127871
0.81891688
0.81659953
0.81432513
0.81209311
0.80990247
0.80775228
0.80564165
0.80356969
0.80153555
0.7995385
0.79757815
0.79565482
0.79377049
0.79193048
0.79015093
0.78844315
0.7868836
0.78555039
0.78532123
0.78550144
0.8016693
0.7761153
1.2353139
0.75241218
0.8567404
0.8537304
0.85076087
0.84784767
0.84498973
0.84218554
0.83943412
0.83673464
0.83408623
0.83148797
0.82893889
0.826438
0.82398429
0.82157677
0.81921446
0.81689643
0.81462132
0.81238837
0.81019662
0.80804519
0.80593317
0.80385968
0.80182385
0.79982496
0.79786259
0.795937
0.79405011
0.79220706
0.79042361
0.78871144
0.78714471
0.78579579
0.78553974
0.78547068
0.80280522
0.77026294
1.251479
0.14297591
0.85714179
0.85414284
0.85117653
0.84826552
0.84540904
0.84260588
0.83985522
0.83715627
0.83450816
0.83190997
0.82936073
0.82685945
0.82440514
0.8219968
0.81963346
0.81731417
0.81503772
0.81280315
0.81060955
0.80845609
0.80634185
0.80426594
0.80222749
0.80022576
0.79826031
0.79633133
0.79444065
0.79259321
0.79080407
0.78908607
0.78751005
0.78614211
0.78585791
0.78551459
0.8037336
0.76636862
1.2518629
0.24880962
0.85771866
0.8547138
0.85175515
0.84884727
0.84599237
0.84319019
0.84044013
0.83774146
0.83509334
0.83249482
0.82994495
0.82744273
0.82498719
0.82257734
0.82021221
0.81789083
0.81561222
0.81337507
0.81117862
0.80902205
0.80690446
0.80482494
0.80278262
0.80077672
0.79880676
0.7968729
0.79497679
0.79312319
0.79132615
0.7896003
0.78801228
0.78662125
0.786306
0.78568821
0.8043045
0.76539599
1.2269638
0.42796185
0.85849583
0.85550027
0.85254888
0.84964461
0.84679168
0.84399065
0.84124121
0.83854273
0.83589436
0.83329517
0.83074422
0.82824053
0.82578313
0.82337104
0.82100331
0.81867895
0.81639729
0.81415646
0.81195601
0.80979512
0.80767288
0.80558836
0.80354068
0.80152904
0.79955291
0.79761234
0.79570883
0.7938469
0.79203954
0.7903031
0.78869972
0.78728061
0.78692746
0.78606752
0.80438814
0.76798599
1.1815063
0.62551978
0.85953062
0.85656973
0.85362435
0.85072428
0.84787407
0.84507467
0.8423261
0.83962786
0.83697913
0.83437901
0.83182657
0.82932087
0.82686094
0.82444583
0.8220746
0.81974625
0.81746059
0.81521476
0.813009
0.81084237
0.80871394
0.80662279
0.804568
0.80254874
0.8005644
0.79861494
0.79670164
0.7948287
0.7930079
0.7912576
0.78963464
0.78818165
0.78777709
0.78674477
0.80392898
0.77400129
1.1226508
0.83070103
0.86095081
0.85799601
0.8550638
0.85217029
0.84932368
0.84652638
0.84377886
0.84108076
0.83843133
0.83582972
0.83327505
0.8307664
0.82830286
0.82588349
0.82350738
0.82117354
0.81888191
0.81662959
0.81441665
0.81224222
0.81010543
0.80800532
0.80594094
0.80391143
0.8019161
0.79995474
0.79802837
0.79614086
0.79430252
0.79253399
0.79088598
0.78939261
0.78891516
0.78780401
0.80305151
0.78242345
1.0590532
1.0117993
0.86283479
0.85989424
0.85697612
0.85409027
0.85124831
0.84845378
0.84570749
0.84300929
0.84035858
0.83775461
0.83519657
0.83268362
0.83021489
0.82778949
0.82540654
0.82306508
0.82076465
0.81850392
0.81628118
0.81409613
0.811948
0.80983578
0.80775849
0.80571521
0.80370514
0.80172789
0.79978414
0.79787732
0.79601615
0.7942237
0.79254358
0.79100258
0.79042291
0.78932904
0.80204682
0.79209255
0.99357649
1.2040789
0.86530123
0.86241009
0.85950178
0.85662398
0.85378878
0.85099859
0.8482544
0.84555641
0.84290426
0.84029735
0.83773504
0.83521657
0.83274116
0.83030797
0.82791618
0.8255649
0.82325336
0.82098174
0.81874607
0.81654734
0.81438457
0.8122567
0.81016273
0.80810168
0.80607258
0.80407481
0.80210866
0.80017698
0.79828676
0.79646341
0.79474251
0.79314582
0.79242869
0.79143452
0.80133879
0.80148677
0.93688199
1.3170969
0.86862479
0.86570859
0.86281377
0.85994986
0.85712498
0.85434151
0.85160096
0.84890401
0.84625063
0.84364052
0.8410732
0.8385481
0.83606453
0.83362176
0.83121901
0.82885549
0.82653029
0.8242441
0.82199281
0.81977709
0.81759591
0.81544831
0.81333331
0.81124983
0.8091967
0.80717298
0.80517847
0.80321532
0.80128868
0.79942568
0.79765342
0.79599176
0.79510116
0.79424095
0.80143877
0.80922559
0.89571282
1.3438803
0.87375461
0.8708384
0.86795843
0.86511309
0.86230392
0.85953121
0.85679669
0.85410172
0.85144682
0.84883209
0.84625738
0.84372236
0.84122654
0.83876932
0.83635006
0.83396805
0.83162245
0.82931288
0.82703922
0.82479792
0.82258885
0.82041143
0.81826473
0.81614741
0.81405801
0.81199513
0.80995789
0.80794732
0.8059666
0.80404228
0.80219386
0.80044132
0.79930945
0.7985612
0.80306627
0.81601916
0.86569616
1.3104349
0.88132166
0.878451
0.87560094
0.87277884
0.86998862
0.86722958
0.86450303
0.86181071
0.85915362
0.85653235
0.85394716
0.85139806
0.84888484
0.84640712
0.84396439
0.84155607
0.83918149
0.83683984
0.83453204
0.83225562
0.83000665
0.82778694
0.82559532
0.82343
0.82128907
0.81917058
0.81707274
0.8149949
0.81293902
0.81092012
0.80896892
0.80709438
0.80567757
0.80486839
0.80735116
0.82161182
0.84931348
1.2396083
0.89095071
0.88810253
0.885276
0.88247465
0.87970192
0.87695565
0.87423644
0.87154605
0.86888578
0.86625653
0.86365893
0.8610933
0.85855968
0.85605789
0.8535876
0.85114837
0.84873964
0.8463607
0.84401108
0.84169187
0.83939698
0.83712848
0.83488407
0.83266188
0.83045982
0.82827534
0.82610567
0.82394814
0.82180357
0.8196708
0.81760126
0.81558244
0.8138844
0.81284139
0.81399347
0.82712926
0.84325104
1.1643955
0.90300167
0.900154
0.89733796
0.89454842
0.89178627
0.88904713
0.88633039
0.8836376
0.88097005
0.87832876
0.87571454
0.8731279
0.87056905
0.86803798
0.86553451
0.86305829
0.86060887
0.85818564
0.85578792
0.8534151
0.85106779
0.84874305
0.84643573
0.8441462
0.84187212
0.83961016
0.83735633
0.83510572
0.83285705
0.83059995
0.8283915
0.82620112
0.82422057
0.822827
0.82299515
0.8340921
0.84280262
1.1023209
0.91781378
0.91498196
0.91217507
0.90938896
0.90662728
0.90388554
0.90116245
0.89845918
0.89577687
0.89311641
0.89047859
0.88786395
0.88527277
0.88270514
0.88016093
0.87763987
0.87514157
0.87266547
0.87021095
0.86777674
0.86536488
0.86297112
0.86059306
0.8582255
0.85586769
0.85351592
0.85116475
0.84880691
0.84643796
0.84404186
0.84167326
0.83928506
0.83701437
0.83520043
0.83452965
0.84293541
0.84874891
1.0416697
0.93585029
0.93302637
0.9302201
0.92742766
0.92465597
0.92190115
0.91916145
0.91643784
0.91373125
0.91104241
0.908372
0.9057205
0.90308819
0.90047514
0.89788125
0.89530628
0.89274983
0.89021137
0.88769023
0.88518529
0.88269611
0.88022059
0.87775939
0.87530623
0.87285352
0.87040014
0.86793857
0.86545945
0.86295435
0.86040558
0.85783962
0.85523497
0.85266782
0.85039073
0.84890538
0.85432425
0.85985099
0.99117987
0.95762009
0.9547718
0.95194703
0.94913517
0.94634212
0.9435629
0.94079474
0.93803843
0.93529494
0.93256499
0.92984925
0.92714823
0.9244622
0.92179121
0.91913515
0.91649377
0.91386666
0.91125325
0.90865282
0.90606432
0.90348654
0.90091764
0.89835532
0.89579957
0.89324125
0.89067509
0.88808755
0.88547141
0.88281394
0.88009557
0.8773022
0.87446227
0.87158707
0.86881104
0.8665847
0.86923454
0.87440674
0.95868157
0.98359728
0.9807173
0.97786968
0.97503178
0.97220706
0.96939011
0.96657794
0.96377189
0.96097357
0.9581841
0.95540444
0.95263526
0.94987691
0.9471295
0.94439292
0.94166691
0.93895104
0.93624471
0.93354711
0.93085716
0.92817337
0.92549374
0.92281542
0.92013466
0.91744997
0.91474965
0.91202201
0.90925392
0.90642786
0.903516
0.90048871
0.89738237
0.89417432
0.89088156
0.88799017
0.88827999
0.89224981
0.94338907
1.0143467
1.0114736
1.0086089
1.0057344
1.0028597
0.99998329
0.99710349
0.99422299
0.99134447
0.98846979
0.98560037
0.98273722
0.9798809
0.97703161
0.97418931
0.97135375
0.9685245
0.96570094
0.96288218
0.96006704
0.95725389
0.95444044
0.95162353
0.94879853
0.94596007
0.94309863
0.94020645
0.93726224
0.93424277
0.9311183
0.92784892
0.92441308
0.92085392
0.91705359
0.91349573
0.91156945
0.91390348
0.94158431
1.0508768
1.047897
1.044944
1.0419829
1.0390172
1.0360436
1.0330598
1.0300689
1.0270744
1.0240789
1.0210844
1.0180922
1.0151033
1.0121179
1.0091361
1.0061578
1.0031825
1.0002096
0.99723808
0.99426676
0.9912938
0.98831667
0.98533179
0.98233407
0.97931652
0.9762689
0.97317804
0.97002424
0.96678043
0.96341398
0.95987899
0.95607962
0.95214567
0.94784228
0.94357925
0.93971952
0.94045277
0.95080464
1.0938224
1.0907542
1.0876943
1.0846085
1.081505
1.0783841
1.0752453
1.072093
1.068932
1.0657657
1.0625967
1.059427
1.0562575
1.053089
1.0499215
1.0467549
1.043589
1.0404231
1.0372562
1.0340868
1.0309132
1.0277324
1.0245404
1.0213317
1.0180981
1.0148283
1.0115066
1.0081105
1.0046101
1.0009604
0.99711796
0.99297063
0.98857805
0.98375823
0.97878453
0.97343742
0.97241849
0.9700578
1.1444916
1.1412009
1.1379308
1.134634
1.1313141
1.1279711
1.1246041
1.1212182
1.1178194
1.1144119
1.1109992
1.1075835
1.1041664
1.1007488
1.0973311
1.0939132
1.0904949
1.0870756
1.0836543
1.0802294
1.0767988
1.0733594
1.0699068
1.0664346
1.0629341
1.0593923
1.0557918
1.0521072
1.0483048
1.0443333
1.0401375
1.0356109
1.0306934
1.025333
1.0196492
1.0130223
1.0101962
0.9986685
1.2040293
1.200457
1.1969017
1.1933089
1.1896813
1.1860209
1.1823291
1.1786127
1.1748797
1.171136
1.1673858
1.1636325
1.1598781
1.1561237
1.1523701
1.1486173
1.1448651
1.1411129
1.1373596
1.1336035
1.1298422
1.1260724
1.122289
1.1184852
1.114651
1.1107724
1.10683
1.1027957
1.0986322
1.0942827
1.0896818
1.0847166
1.0792869
1.0732606
1.0668461
1.0590948
1.0546797
1.0366566
1.274359
1.2703524
1.2663623
1.2623262
1.258245
1.2541235
1.2499653
1.2457799
1.2415772
1.237365
1.2331489
1.2289328
1.2247193
1.2205098
1.2163051
1.2121053
1.20791
1.2037186
1.1995298
1.1953415
1.1911511
1.1869548
1.1827471
1.1785204
1.1742638
1.169962
1.1655938
1.1611285
1.1565251
1.1517221
1.146646
1.1411708
1.1351961
1.1284361
1.1212104
1.1124077
1.106695
1.083945
1.3579121
1.3532535
1.3486123
1.3439191
1.3391739
1.3343849
1.3295594
1.3247098
1.3198487
1.3149854
1.3101264
1.3052763
1.3004376
1.2956118
1.2907992
1.2859999
1.2812132
1.2764379
1.2716724
1.2669145
1.262161
1.2574078
1.2526487
1.2478754
1.2430761
1.2382344
1.2333271
1.2283213
1.2231725
1.2178148
1.2121673
1.2060959
1.1994799
1.1920259
1.1838337
1.1739639
1.1670664
1.1408661
1.4579761
1.4523581
1.4467664
1.4411245
1.4354309
1.4296974
1.4239357
1.4181612
1.4123889
1.4066293
1.4008896
1.3951741
1.3894852
1.3838237
1.3781897
1.3725824
1.367001
1.3614438
1.3559088
1.3503934
1.3448943
1.3394065
1.3339238
1.3284369
1.3229334
1.3173954
1.3117982
1.3061067
1.3002731
1.2942278
1.2878824
1.2810984
1.2737321
1.2655018
1.2563605
1.2452172
1.2371066
1.2083922
1.5792458
1.5722491
1.5652998
1.5583139
1.5512868
1.544233
1.5371685
1.5301121
1.52308
1.5160839
1.5091308
1.5022249
1.4953679
1.4885604
1.4818019
1.4750916
1.4684282
1.46181
1.4552348
1.4486999
1.4422016
1.4357349
1.4292928
1.4228656
1.41644
1.4099967
1.4035095
1.3969409
1.3902401
1.3833337
1.3761271
1.368477
1.3602255
1.3510789
1.3409966
1.3285826
1.319008
1.2880419
1.7235003
1.7146384
1.7058485
1.6970411
1.6882065
1.679361
1.6705263
1.6617254
1.6529775
1.6442962
1.6356901
1.6271642
1.6187211
1.6103619
1.6020868
1.5938952
1.5857862
1.5777581
1.5698089
1.5619356
1.5541342
1.5463993
1.5387233
1.5310954
1.5235009
1.5159193
1.5083222
1.5006695
1.4929071
1.4849579
1.4767213
1.4680494
1.4587737
1.4485919
1.4374534
1.4239082
1.4129977
1.3796223
1.8863986
1.8751471
1.8639849
1.8528162
1.8416295
1.8304471
1.8193015
1.8082244
1.7972422
1.786374
1.7756327
1.7650263
1.7545593
1.7442343
1.7340521
1.7240125
1.7141143
1.7043554
1.6947328
1.6852426
1.6758795
1.6666366
1.6575047
1.6484712
1.6395194
1.6306265
1.6217614
1.612881
1.6039275
1.5948195
1.5854511
1.575669
1.5652975
1.5540225
1.541804
1.5270819
1.5152269
1.4795386
2.0648839
2.0507367
2.036641
2.0225131
2.0083595
1.9942267
1.9801728
1.9662491
1.9524956
1.9389404
1.9256014
1.9124892
1.8996091
1.8869628
1.8745497
1.8623675
1.8504125
1.8386799
1.8271641
1.8158581
1.804754
1.7938419
1.7831099
1.7725428
1.7621208
1.7518183
1.7416009
1.7314223
1.7212205
1.7109098
1.7003789
1.689468
1.6779959
1.6656336
1.6523619
1.6364931
1.6237963
1.5859896
2.2617777
2.2437852
2.2258397
2.2078857
2.1899576
2.1721331
2.1544984
2.1371229
2.1200558
2.1033287
2.0869588
2.070953
2.0553119
2.040032
2.025107
2.0105289
1.9962889
1.9823771
1.968783
1.9554955
1.9425026
1.9297908
1.9173446
1.9051457
1.8931714
1.8813928
1.8697726
1.8582607
1.8467913
1.8352734
1.8235901
1.8115734
1.7990364
1.7856293
1.7713602
1.7543863
1.7409822
1.7008275
2.4805558
2.4574123
2.4344037
2.411548
2.3889138
2.3665992
2.3446996
2.3232814
2.3023852
2.282031
2.2622236
2.2429583
2.2242247
2.2060092
2.1882966
2.1710713
2.154317
2.1380179
2.122158
2.1067217
2.0916928
2.0770545
2.0627885
2.0488738
2.0352852
2.0219913
2.0089515
1.9961122
1.9834028
1.9707259
1.957957
1.9449165
1.9314093
1.9170564
1.9018976
1.8838907
1.8699721
1.8270694
2.7246612
2.6947496
2.6655246
2.6369016
2.6088519
2.5814241
2.5546879
2.5286908
2.5034578
2.4789951
2.455295
2.4323408
2.4101116
2.3885843
2.3677352
2.347541
2.3279791
2.3090282
2.2906682
2.2728801
2.2556454
2.2389452
2.2227596
2.2070656
2.1918359
2.1770359
2.1626211
2.1485318
2.13469
2.1209878
2.1072889
2.0933954
2.0790985
2.0639788
2.048109
2.0291952
2.0150137
1.9688884
2.9984948
2.9615033
2.9254843
2.8903755
2.8561183
2.8227578
2.7903669
2.7589931
2.7286583
2.699363
2.6710906
2.6438149
2.6175055
2.5921302
2.5676572
2.5440567
2.5213013
2.4993666
2.4782305
2.4578728
2.4382742
2.4194144
2.4012713
2.3838184
2.367023
2.3508431
2.3352246
2.3200953
2.3053625
2.2908997
2.2765501
2.2620878
2.2472816
2.2316576
2.2153214
2.1956751
2.1815097
2.1316757
3.313516
3.2675406
3.2229932
3.1797967
3.1378416
3.0971659
3.0578408
3.0199089
2.9833858
2.9482613
2.9145065
2.8820829
2.8509486
2.8210625
2.7923868
2.7648884
2.7385392
2.713315
2.689194
2.666155
2.6441749
2.6232274
2.6032805
2.5842947
2.566221
2.5489979
2.5325487
2.5167763
2.5015604
2.4867432
2.4721364
2.457474
2.4424934
2.4266538
2.4100923
2.3898693
2.3759266
2.3219248
3.669704
3.6151382
3.5617178
3.5095871
3.4587994
3.4095469
3.3619983
3.3162526
3.2723537
3.2303004
3.1900626
3.1515976
3.1148612
3.0798135
3.046421
3.0146561
2.9844947
2.9559124
2.9288815
2.9033678
2.8793286
2.8567115
2.8354532
2.8154785
2.7966999
2.7790156
2.7623076
2.7464365
2.7312403
2.716518
2.7020398
2.6874916
2.6725752
2.6566772
2.6399684
2.6191562
2.6053989
2.546778
4.0876876
4.0194819
3.9532326
3.8889864
3.8267223
3.7666467
3.7089345
3.6536844
3.6009343
3.5506733
3.5028663
3.457475
3.4144683
3.3738225
3.3355169
3.2995271
3.265818
3.2343385
3.2050196
3.1777734
3.1524952
3.1290648
3.1073499
3.0872066
3.0684816
3.0510107
3.0346187
3.019113
3.0042835
2.9898829
2.9756416
2.9611999
2.9462311
2.930056
2.912888
2.8911031
2.8770543
2.8132882
4.5699714
4.485504
4.4037535
4.3247957
4.2486142
4.1754752
4.1055745
4.0390247
3.9758764
3.9161407
3.8598196
3.8069209
3.7574525
3.7114076
3.6687488
3.6293984
3.5932351
3.5600976
3.5297919
3.5021009
3.4767935
3.4536323
3.4323791
3.4127982
3.3946582
3.3777299
3.3617849
3.3465875
3.3318929
3.3174241
3.3028892
3.2879022
3.2721279
3.254842
3.2363155
3.2126423
3.1972719
3.1276426
5.1333782
5.0280049
4.926796
4.8296135
4.7363674
4.6473494
4.562776
4.4828256
4.4076531
4.3373965
4.2721758
4.2120667
4.1570658
4.1070665
4.0618539
4.0211204
3.9844908
3.9515511
3.9218751
3.8950442
3.8706616
3.8483595
3.8278015
3.808682
3.7907225
3.7736651
3.7572672
3.7412881
3.7254859
3.7095883
3.6933145
3.676281
3.6581718
3.6382442
3.61684
3.5898298
3.571623
3.495131
5.8016926
5.6701612
5.5443761
5.4240193
5.3090753
5.2000675
5.0974188
5.0016189
4.9131504
4.8323862
4.7594979
4.6943941
4.6367115
4.5858557
4.5410785
4.5015628
4.4664943
4.4351122
4.4067372
4.3807823
4.3567511
4.3342291
4.3128721
4.2923927
4.2725479
4.2531252
4.2339315
4.2147757
4.195464
4.1757662
4.1554421
4.1341356
4.1115673
4.086993
4.0608245
4.0287504
4.0060281
3.9213734
6.6198302
6.4506857
6.2904401
6.1381937
5.9941207
5.8592255
5.734645
5.6215736
5.5208803
5.4327794
5.3567469
5.2916375
5.2359157
5.1879033
5.1459823
5.1087241
5.0749451
5.0437108
5.0143092
4.9862121
4.9590345
4.9324987
4.9064036
4.8806012
4.8549764
4.8294304
4.8038677
4.7781785
4.7522362
4.7258618
4.6988567
4.6708879
4.6417011
4.6105418
4.5778629
4.5391675
4.510558
4.4161119
7.6391925
7.4158717
7.2066156
7.009964
6.8271962
6.6609479
6.5139193
6.3877431
6.2822542
6.1954716
6.1242045
6.0648334
6.0139579
5.9687634
5.927135
5.8876085
5.8492453
5.8114919
5.774056
5.7368103
5.6997237
5.6628147
5.626122
5.5896842
5.553528
5.5176572
5.4820477
5.446635
5.4113172
5.3759226
5.3402474
5.3039375
5.2667142
5.2277722
5.1875502
5.1412959
5.1061773
4.9997871
8.935113
8.6289033
8.3486632
8.0916605
7.8625771
7.6674393
7.509219
7.3858541
7.2909384
7.216225
7.153895
7.0978905
7.0442408
6.9907463
6.9364614
6.8812122
6.8252334
6.7689288
6.71273
6.6570233
6.6021203
6.5482512
6.4955698
6.4441611
6.3940498
6.3452059
6.2975504
6.2509509
6.2052294
6.1601324
6.1153708
6.0704983
6.0251422
5.9783819
5.930595
5.8765743
5.8352962
5.7132417
10.603634
10.179881
9.8037283
9.4754068
9.2103203
9.0143779
8.877754
8.7816007
8.7060599
8.6361752
8.5635202
8.4849888
8.4007347
8.3124087
8.222052
8.1315322
8.0423231
7.9554696
7.8716377
7.7911939
7.714284
7.6409001
7.5709296
7.5041898
7.4404507
7.3794473
7.320887
7.2644447
7.2097678
7.1564404
7.1040209
7.0519049
6.999577
6.9459048
6.89124
6.8294846
6.7828885
6.6388713
12.515808
11.942519
11.456753
11.082026
10.838315
10.698116
10.60999
10.530235
10.435252
10.319241
10.186258
10.043537
9.8979022
9.754477
9.616578
9.4860552
9.3637074
9.2496411
9.1435443
9.0448785
8.9530046
8.8672589
8.7869923
8.7115879
8.6404657
8.5730774
8.5088996
8.4474147
8.3881034
8.3303967
8.2737053
8.217264
8.1604042
8.101735
8.0416148
7.9727538
7.9214291
7.7531517
14.480414
13.721633
13.151616
12.804092
12.641592
12.558355
12.467999
12.33403
12.156566
11.95152
11.736151
11.523412
11.321284
11.133788
10.962291
10.806558
10.665492
10.537608
10.421325
10.315123
10.217628
10.12763
10.044076
9.9660534
9.8927616
9.8234863
9.7575751
9.6944043
9.6333596
9.5737769
9.5149653
9.4560302
9.3961834
9.3337624
9.2692134
9.1938424
9.138661
8.9434839
16.825196
15.855228
15.283618
15.057285
14.980664
14.875792
14.677606
14.401668
14.08836
13.771885
13.472893
13.201051
12.959119
12.746069
12.559092
12.394745
12.249573
12.12041
12.004518
11.899611
11.803817
11.715612
11.633751
11.557204
11.485097
11.416671
11.351239
11.288142
11.226721
11.166249
11.10594
11.044775
10.981801
10.915065
10.845041
10.761352
10.70093
10.47012
19.676064
18.50305
18.067135
17.971351
17.854099
17.572468
17.160503
16.701976
16.257882
15.85783
15.511013
15.216015
14.966863
14.756252
14.577078
14.423062
14.288946
14.170498
14.064407
13.968138
13.879752
13.797763
13.721006
13.648541
13.579583
13.513447
13.449497
13.387102
13.325587
13.264182
13.201993
13.137856
13.070596
12.997878
12.920248
12.824939
12.757077
12.478164
23.117479
21.884937
21.611362
21.478562
21.122735
20.560469
19.937975
19.356452
18.85556
18.441843
18.106985
17.837384
17.619205
17.440417
17.291249
17.164057
17.053054
16.954004
16.86388
16.780556
16.702522
16.628685
16.558212
16.490438
16.424794
16.360754
16.297791
16.235328
16.172686
16.109034
16.043334
15.974218
15.900221
15.818421
15.729663
15.617376
15.539255
15.193309
27.476547
26.115214
25.772375
25.374816
24.717438
23.978865
23.303409
22.742386
22.300193
21.962507
21.707368
21.512816
21.360984
21.238546
21.135847
21.046067
20.964596
20.888487
20.815946
20.745905
20.677715
20.610952
20.545296
20.480469
20.416185
20.352116
20.287854
20.222869
20.156448
20.08765
20.015231
19.937504
19.852621
19.756776
19.651528
19.514218
19.422741
18.979614
32.958491
30.969655
30.285976
29.648069
29.015899
28.449108
27.975707
27.616192
27.365298
27.199124
27.089184
27.011967
26.952089
26.900127
26.850312
26.799376
26.745848
26.689405
26.630305
26.569011
26.505983
26.441587
26.376072
26.309559
26.24204
26.17336
26.103192
26.031001
25.955977
25.876978
25.792463
25.700249
25.597974
25.480609
25.351032
25.177234
25.06945
24.480244
39.484545
35.817456
34.983226
34.990711
35.169665
35.250079
35.283474
35.340981
35.432045
35.534152
35.622939
35.687034
35.725044
35.739054
35.731997
35.707272
35.668437
35.618754
35.560903
35.496934
35.428346
35.356196
35.281193
35.203762
35.12408
35.042086
34.957453
34.869555
34.777405
34.67956
34.574099
34.458171
34.329473
34.18085
34.017101
33.793435
33.666957
32.862553
44.689927
38.412422
40.454381
43.445158
45.525537
46.871609
47.852998
48.631085
49.24121
49.694354
50.003604
50.198351
50.308618
50.3574
50.361529
50.333725
50.283425
50.2173
50.139911
50.054352
49.96272
49.866427
49.766389
49.663136
49.556871
49.447484
49.334525
49.217167
49.09413
48.963546
48.822999
48.668794
48.498354
48.302354
48.087774
47.796017
47.642172
46.528634
41.509722
38.278836
50.94977
59.725413
65.13063
68.843436
71.561922
73.502637
74.802488
75.616109
76.094674
76.345215
76.449308
76.461036
76.414991
76.332949
76.228056
76.10806
75.97764
75.83976
75.696359
75.548691
75.397518
75.243214
75.085813
74.925015
74.760147
74.590106
74.413268
74.227332
74.029391
73.815007
73.580844
73.316313
73.029999
72.65578
72.450871
71.004809
27.44141
42.533029
73.323113
89.308375
100.2743
108.418
114.05389
117.56675
119.55187
120.58295
121.07782
121.2246
121.18428
121.05169
120.87407
120.67355
120.46014
120.23849
120.01116
119.77976
119.54531
119.30846
119.0695
118.82847
118.58517
118.33912
118.08951
117.8352
117.5745
117.30523
117.02449
116.72837
116.41353
116.07124
115.70845
115.27444
114.97991
113.59616
17.378479
57.163141
117.12829
138.04
158.9116
174.96197
184.88704
190.24436
192.83055
193.95165
194.37883
194.28308
193.99213
193.64646
193.2889
192.93069
192.57361
192.21732
191.86145
191.50586
191.15044
190.79508
190.4396
190.08381
189.72745
189.37017
189.01151
188.6509
188.28749
187.92046
187.54845
187.17045
186.78537
186.39126
185.99378
185.57631
185.23707
184.5489
87.483868
112.04655
289.42825
256.13667
299.75578
334.04627
352.1762
360.97856
364.83477
366.30956
366.76533
366.09365
365.29297
364.53813
363.82262
363.13349
362.46196
361.80259
361.15208
360.50837
359.87013
359.23649
358.60702
357.98164
357.36058
356.74451
356.13441
355.53208
354.93948
354.3608
353.799
353.26428
352.75821
352.30894
351.89981
351.63063
351.33811
352.12349
1083.3387
462.55119
1086.8489
744.55498
916.59901
1043.1763
1116.9512
1157.1285
1176.7617
1185.4641
1189.0996
1186.5884
1183.7516
1181.0012
1178.2976
1175.6241
1172.973
1170.3403
1167.7236
1165.1213
1162.5324
1159.9564
1157.3929
1154.8424
1152.3053
1149.7827
1147.2763
1144.7889
1142.323
1139.8857
1137.479
1135.1228
1132.8068
1130.5981
1128.4071
1126.5173
1124.3851
1123.9532
14868.059
14494.831
14501.361
14421.591
14382.324
14348.202
14317.082
14288.709
14262.188
14236.724
14211.803
14187.502
14163.31
14139.194
14115.148
14091.172
14067.263
14043.422
14019.647
13995.939
13972.298
13948.722
13925.212
13901.767
13878.389
13855.075
13831.827
13808.645
13785.529
13762.48
13739.498
13716.586
13693.741
13670.979
13648.271
13625.694
13603.092
13580.662
14864.984
15995.125
17961.009
19561.678
20949.462
22190.134
23308.28
24316.065
25219.981
26024.268
26732.072
27345.366
27865.436
28294.353
28634.316
28886.964
29054.814
29140.877
29148.643
29082.01
28945.228
28742.819
28479.526
28160.254
27789.937
27374.282
904.48528
1339.413
978.95964
1458.031
1926.5289
2234.694
2458.6824
2635.3191
2785.1766
2917.0901
3032.141
3131.2686
3218.0952
3290.7247
3346.5262
3388.5767
3416.7296
3431.193
3432.5688
3421.641
3399.1712
3365.839
3322.337
3269.548
3208.2019
3139.4911
146.50477
303.20805
405.89256
579.19829
733.55791
834.65168
902.55515
954.61636
999.13675
1039.1796
1075.0058
1106.3097
1133.5665
1156.4277
1174.7758
1189.0659
1198.8316
1203.8195
1204.1976
1200.3978
1192.79
1181.5093
1166.5769
1148.2279
1126.5946
1102.2871
74.007594
103.58233
192.10781
300.35996
395.2904
461.15182
505.05292
536.8054
562.67874
585.51713
606.04221
624.14704
639.64982
652.28485
662.44605
670.43241
675.99512
678.8655
678.99933
676.62398
672.05827
665.46933
656.83644
646.25526
633.82129
619.96322
49.273919
58.492587
96.729707
168.97331
236.39978
286.51842
320.61403
344.41576
362.90723
378.83544
393.16209
405.94669
416.79583
425.4347
432.29954
437.70341
441.53165
443.55981
443.66903
441.97601
438.76787
434.25416
428.433
421.33698
413.05533
403.9052
33.776914
38.887098
47.511108
87.97947
130.66463
168.53356
197.90947
217.59175
231.82685
243.29362
253.32353
262.30717
269.91736
275.88834
280.5629
284.25622
286.94258
288.4472
288.63862
287.57265
285.48708
282.59066
278.89452
274.38533
269.13214
263.34162
23.923019
26.996374
29.297555
44.082554
70.720474
96.048047
117.52042
134.92139
148.0173
157.69744
165.45757
172.17617
177.86131
182.33312
185.8064
188.55472
190.61334
191.86349
192.19569
191.64013
190.38208
188.60409
186.33024
183.5305
180.25356
176.61543
17.111563
19.395293
21.404407
26.26385
38.506426
55.791647
71.722941
85.254183
96.533779
105.81965
112.77842
118.45668
123.1246
126.77293
129.59384
131.83437
133.56138
134.70085
135.16672
134.96997
134.2514
133.17088
131.7664
130.00454
127.91302
125.54296
12.183915
14.972079
16.819519
19.068516
23.682828
32.510333
44.115079
55.012521
64.031298
71.654676
78.298836
83.754922
88.03831
91.280335
93.710318
95.609374
97.090474
98.130363
98.672992
98.715957
98.358297
97.73479
96.893501
95.805094
94.481039
92.92673
8.6089192
12.009386
13.497904
15.034633
16.95186
20.860085
27.015807
35.052763
42.598295
48.780596
54.222699
59.116914
63.336232
66.561283
68.921858
70.7157
72.097143
73.107502
73.734237
73.973399
73.891437
73.600743
73.157482
72.541322
71.753496
70.76647
6.2631366
9.7213413
11.023909
12.195214
13.500434
15.313232
17.964854
22.19656
27.560303
32.957251
37.518687
41.499239
45.042731
48.039154
50.473347
52.360508
53.805838
54.895963
55.660063
56.102354
56.266869
56.246788
56.10483
55.833825
55.431744
54.848084
4.8466909
7.9599781
9.2138899
10.05042
11.135503
12.196603
13.332738
15.198555
18.12499
21.817496
25.695698
29.118624
32.052696
34.534399
36.654367
38.475811
39.968749
41.141306
42.030118
42.646173
43.017021
43.215665
43.304665
43.289193
43.170093
42.884074
3.8874819
6.5656051
7.756074
8.2930808
8.9976092
9.9045465
10.567359
11.481347
12.911522
14.882762
17.382874
20.110087
22.689926
24.838187
26.596102
28.122798
29.465591
30.609484
31.547767
32.269444
32.783347
33.140706
33.396004
33.562103
33.645496
33.577254
3.2067916
5.4245226
6.4763267
7.0000074
7.4943699
8.2096079
8.743414
9.2313966
9.9066612
10.87507
12.206049
13.905494
15.788919
17.609207
19.156619
20.456703
21.583722
22.57365
23.438365
24.166177
24.745803
25.197791
25.558952
25.843655
26.063993
26.150606
2.6986381
4.4781328
5.4013535
5.845294
6.1728446
6.6706249
7.1771288
7.5555354
7.9396385
8.4566982
9.1825163
10.105355
11.188803
12.39877
13.607116
14.729463
15.712265
16.558752
17.299585
17.943657
18.489912
18.950001
19.344332
19.681087
19.973446
20.154395
2.2580748
3.6078323
4.3768469
4.7927601
5.0597798
5.2747466
5.557321
5.9007776
6.246496
6.6157025
7.013248
7.4271748
7.8989775
8.4879651
9.1893948
9.9340748
10.668591
11.36033
11.97809
12.51068
12.964891
13.358319
13.708819
14.023245
14.316176
14.52946
1.8949658
2.8635095
3.4738392
3.8335654
4.0641825
4.2605029
4.4613582
4.7474918
5.0760631
5.3866314
5.6343648
5.8016713
5.972494
6.2330254
6.5763894
6.9487009
7.3381828
7.743908
8.1499019
8.5372806
8.8922949
9.2134355
9.5063245
9.7738301
10.02847
10.227017
1.6469345