/*--------------------------------*- C++ -*----------------------------------*\
  =========                 |
  \\      /  F ield         | OpenFOAM: The Open Source CFD Toolbox
   \\    /   O peration     | Website:  https://openfoam.org
    \\  /    A nd           | Version:  7
     \\/     M anipulation  |
\*---------------------------------------------------------------------------*/
FoamFile
{
    version     2.0;
    format      ascii;
    class       volSymmTensorField;
    location    "2000";
    object      Rall;
}
// * * * * * * * * * * * * * * * * * * * * * * * * * * * * * * * * * * * * * //

dimensions      [0 2 -2 0 0 0 0];

internalField   nonuniform List<symmTensor> 
15296
(
(0.0011678182 9.5829633e-06 3.1446715e-15 0.0011150874 2.047064e-16 0.0011045775)
(0.0011257307 3.952789e-06 3.1397832e-15 0.0011254593 2.4272722e-16 0.0011253081)
(0.0011166431 3.408721e-06 1.7663405e-19 0.00112407 -3.5179535e-17 0.0011252701)
(0.0011093025 3.088772e-06 6.4179718e-15 0.0011222091 2.1963972e-16 0.0011243367)
(0.0011026057 2.8115056e-06 -1.1606996e-18 0.0011202545 -8.7630656e-17 0.0011231619)
(0.0010979157 2.5921377e-06 6.5782676e-15 0.0011176647 3.345439e-16 0.0011208886)
(0.0010945642 2.4257271e-06 3.3355882e-15 0.0011146811 7.6854018e-17 0.001117921)
(0.0010918779 2.2966588e-06 1.631878e-18 0.0011115517 -1.9576394e-17 0.0011146677)
(0.0010896251 2.1960418e-06 -4.1450959e-19 0.0011083568 -9.4227182e-17 0.0011112659)
(0.0010876532 2.1180951e-06 3.4766771e-15 0.001105148 1.3924668e-16 0.0011078039)
(0.0010858268 2.0573227e-06 -1.2550613e-19 0.0011019715 -3.7579143e-17 0.001104359)
(0.0010840674 2.0095263e-06 -6.6162746e-20 0.0010988529 -4.8444308e-18 0.0011009743)
(0.0010823437 1.9721515e-06 -3.6333604e-15 0.0010958 -2.5231915e-16 0.0010976639)
(0.0010806496 1.9438902e-06 3.6862175e-15 0.0010928115 2.3781856e-16 0.0010944274)
(0.0010789926 1.9243666e-06 1.0598459e-18 0.0010898812 -5.6507908e-17 0.0010912561)
(0.001077395 1.9144224e-06 3.7969627e-15 0.0010869974 6.9588997e-17 0.0010881328)
(0.0010758844 1.9156929e-06 3.8548109e-15 0.0010841455 -3.5132743e-17 0.0010850366)
(0.0010745108 1.931957e-06 3.913503e-15 0.001081304 2.2627233e-16 0.0010819345)
(0.0010733266 1.9682867e-06 7.5527514e-19 0.0010784492 1.3578667e-16 0.0010787926)
(0.0010722911 2.0228663e-06 3.6896939e-19 0.0010755938 -6.9860466e-17 0.0010756334)
(0.0010715577 2.1136499e-06 -7.0040718e-19 0.0010726777 -9.1253676e-17 0.001072359)
(0.0010702326 2.161074e-06 -1.3851476e-18 0.0010700359 -1.2626783e-16 0.001069523)
(0.0010685207 2.1792882e-06 4.2323924e-15 0.0010676327 2.5261939e-16 0.0010669623)
(0.0010709659 2.5679265e-06 -8.6084681e-15 0.0010636156 -3.0517967e-16 0.0010619139)
(0.001078664 3.517785e-06 9.5679544e-20 0.0010576466 -4.3851859e-17 0.0010540165)
(0.0010877268 5.011697e-06 -4.4819855e-15 0.001051551 -3.5699218e-16 0.0010457061)
(0.0010944127 6.0445922e-06 -4.3923762e-15 0.001045125 -2.4106403e-16 0.0010375535)
(0.0011061025 7.1848781e-06 -1.6459855e-19 0.0010351511 2.4388991e-17 0.0010248518)
(0.0011521948 1.3988007e-05 1.9282647e-18 0.0010222995 7.4230786e-18 0.001003179)
(0.0010632845 9.0744821e-06 -2.1049514e-15 0.00099085119 -1.0192749e-16 0.00098338219)
(0.00097266962 2.6568408e-06 -9.960008e-19 0.00094253443 -2.6592162e-16 0.00094512816)
(0.0008698031 1.9668108e-06 2.6072189e-19 0.00084443256 4.0297045e-17 0.00085156478)
(0.00083717753 4.9799815e-06 -4.7511352e-16 0.00077761293 -2.5780589e-16 0.00078797411)
(0.00097676894 1.7216149e-05 -1.9130026e-15 0.00079220414 -3.864849e-16 0.00079827487)
(0.0012434412 6.1880801e-05 -7.2186199e-18 0.00064467999 -5.6908238e-17 0.00061573033)
(0.0010966475 7.174466e-05 -9.1667341e-18 0.00049349076 -9.3340637e-18 0.00050655303)
(0.00049615199 2.1510372e-06 4.8547544e-17 0.00041843312 1.8539468e-16 0.00049231568)
(0.00038213404 2.7431676e-05 -7.1592961e-17 0.00016578954 -2.5085131e-16 0.00030689054)
(0.0011653349 2.1171856e-05 1.011821e-18 0.0011130626 5.8389486e-17 0.0011092018)
(0.0011256028 9.5317427e-06 -1.0448437e-15 0.0011255909 -2.3359772e-17 0.0011254089)
(0.0011165571 8.0814394e-06 1.058033e-15 0.0011246967 1.1956575e-17 0.0011248332)
(0.00110916 7.4645998e-06 -2.453564e-18 0.0011232428 3.1695414e-17 0.0011235461)
(0.0011024054 6.9984204e-06 -2.5872206e-18 0.0011216366 -2.1205936e-17 0.0011220783)
(0.001097683 6.642728e-06 1.0960679e-15 0.001119192 1.4122025e-16 0.0011196907)
(0.0010943177 6.3769492e-06 1.1130821e-15 0.0011162207 7.0403913e-17 0.0011167237)
(0.0010916268 6.1712354e-06 3.9321012e-18 0.0011130413 2.0034247e-17 0.0011135247)
(0.0010893757 6.0049684e-06 -1.1420823e-15 0.0011097593 -1.0789936e-16 0.0011102085)
(0.0010874099 5.8667197e-06 -1.1606626e-15 0.0011064422 -1.0313546e-17 0.0011068493)
(0.0010855918 5.7487937e-06 -1.1781353e-15 0.0011031503 -1.1224223e-16 0.0011035126)
(0.0010838417 5.6456392e-06 2.3836282e-15 0.0010999169 1.0036487e-16 0.0011002347)
(0.0010821278 5.5535051e-06 2.4199865e-15 0.0010967528 3.2598712e-17 0.0010970275)
(0.0010804436 5.4699054e-06 3.3149324e-18 0.0010936569 1.6814521e-16 0.0010938901)
(0.0010787968 5.3931151e-06 -1.2453146e-15 0.0010906219 -1.2102911e-16 0.0010908149)
(0.0010772102 5.3220332e-06 1.2652154e-15 0.0010876338 7.2275377e-17 0.0010877867)
(0.0010757118 5.2558592e-06 1.2870795e-15 0.0010846747 9.4860752e-17 0.0010847869)
(0.0010743525 5.1943603e-06 9.8005133e-20 0.0010817182 9.9536757e-17 0.0010817871)
(0.0010731863 5.1383668e-06 -9.6321161e-19 0.0010787353 2.2416835e-17 0.0010787566)
(0.0010721717 5.0858955e-06 1.3449337e-15 0.0010757432 7.4593354e-17 0.0010757144)
(0.0010714672 5.0468557e-06 -2.9766314e-18 0.0010726634 3.3981208e-18 0.001072576)
(0.0010701669 5.0007549e-06 -9.5477764e-19 0.0010699274 6.6969585e-19 0.0010698101)
(0.0010684393 4.9383075e-06 3.0852223e-18 0.0010674716 5.6470931e-17 0.0010673207)
(0.0010709346 4.8596617e-06 2.0879746e-18 0.0010629943 -9.4254963e-17 0.0010626754)
(0.0010788572 4.9221378e-06 -1.4667742e-15 0.001056107 -1.0650131e-16 0.0010554875)
(0.0010881933 5.8267399e-06 -1.4989885e-15 0.0010489961 -9.7583629e-17 0.0010480079)
(0.0010948735 5.7706277e-06 1.4538736e-15 0.0010418365 9.303169e-17 0.001040567)
(0.0011063775 4.1594821e-06 2.7965353e-15 0.0010306009 1.2029782e-16 0.0010289369)
(0.0011550283 8.4782901e-06 3.4074e-18 0.0010135502 7.3645373e-18 0.0010105027)
(0.0010671324 7.2964655e-06 2.0850779e-18 0.00098570515 -3.5906641e-17 0.00098450475)
(0.0009752281 3.9503869e-07 1.9985087e-16 0.00094274959 -1.6491195e-17 0.00094335345)
(0.00087340293 -1.8505734e-07 1.0312026e-16 0.00084724938 2.7636357e-17 0.00084868971)
(0.00083579918 -3.5444951e-07 2.7363179e-18 0.00077746615 -5.0573502e-17 0.00077953979)
(0.00096642554 -3.6336348e-07 -2.9223005e-16 0.00078673995 -2.3111594e-16 0.00078836536)
(0.0012431332 6.4900202e-07 6.3238989e-16 0.00062358928 -2.4449871e-17 0.00062043163)
(0.0011067723 1.2987797e-05 -2.8569046e-18 0.00049400839 5.2200946e-17 0.00049494079)
(0.00050967152 -7.1628294e-06 1.0800224e-18 0.00043717239 1.5557769e-17 0.00044992343)
(0.0003792802 -1.667855e-05 -3.0682383e-18 0.00014907061 -1.5131324e-16 0.00029319101)
(0.0011618592 3.2382934e-05 1.0215121e-18 0.0011151165 1.9358988e-17 0.0011108679)
(0.0011253465 1.5929786e-05 6.3037808e-16 0.0011259587 2.4692364e-17 0.0011255237)
(0.0011166167 1.3204726e-05 -1.2682587e-15 0.0011248757 -6.1420304e-17 0.0011248127)
(0.001109281 1.2171749e-05 -1.2886296e-15 0.0011234113 -9.4367653e-17 0.0011234631)
(0.0011025661 1.1423331e-05 1.2968786e-15 0.0011218067 4.5017243e-17 0.0011219447)
(0.0010978615 1.0854794e-05 -6.5797829e-16 0.0011193569 5.0530589e-17 0.001119537)
(0.0010945008 1.0430618e-05 1.7646867e-18 0.0011163762 6.0983998e-17 0.001116569)
(0.0010918088 1.0102214e-05 -6.7234478e-16 0.001113186 -3.0695024e-17 0.0011133778)
(0.0010895527 9.8361142e-06 -6.8556129e-16 0.0011098927 -1.4649186e-16 0.0011100749)
(0.0010875799 9.6139706e-06 -6.9840766e-16 0.0011065647 -8.6414366e-17 0.0011067321)
(0.0010857542 9.4236042e-06 -1.5102467e-18 0.0011032625 -1.4250001e-16 0.0011034129)
(0.0010839965 9.2562461e-06 -1.4346e-15 0.0011000196 -4.679329e-17 0.0011001525)
(0.0010822752 9.1059336e-06 -7.2889826e-16 0.0010968468 3.8897733e-17 0.0010969623)
(0.0010805838 8.9686558e-06 -7.3514871e-16 0.001093743 5.6272329e-17 0.0010938415)
(0.0010789298 8.8415517e-06 7.5066163e-16 0.0010907008 -7.1782596e-17 0.0010907825)
(0.0010773354 8.7226103e-06 1.7444111e-18 0.0010877058 7.0779632e-17 0.0010877704)
(0.0010758283 8.6102535e-06 -7.6862537e-16 0.0010847405 -4.2021121e-18 0.0010847872)
(0.0010744588 8.5034359e-06 -7.8473881e-16 0.0010817779 -3.084769e-17 0.001081805)
(0.0010732805 8.4028387e-06 -1.4061373e-18 0.001078789 -7.9587096e-17 0.0010787938)
(0.0010722518 8.3056201e-06 -8.0972007e-16 0.0010757915 1.7922114e-17 0.0010757721)
(0.0010715336 8.22463e-06 -8.2657736e-16 0.0010727041 -3.1555666e-17 0.0010726559)
(0.001070228 8.1419444e-06 1.6660916e-15 0.0010699637 6.8672637e-17 0.0010698999)
(0.001068478 8.0344785e-06 8.5081993e-16 0.0010675134 1.1342801e-16 0.0010674327)
(0.0010708779 7.8336263e-06 -8.5982809e-16 0.0010630335 -8.988997e-17 0.0010628683)
(0.001078702 7.7930761e-06 6.6903605e-19 0.0010561426 -1.7615545e-17 0.0010558177)
(0.0010880122 9.1180407e-06 -9.4518891e-19 0.0010490665 -6.5410216e-17 0.0010485231)
(0.0010940472 8.888871e-06 -8.7070306e-16 0.0010421488 1.3571751e-17 0.0010414126)
(0.0011041909 5.9498319e-06 8.1632333e-16 0.0010311041 1.4933632e-16 0.0010301885)
(0.00115487 1.238848e-05 2.823591e-18 0.0010141144 1.6196381e-17 0.0010125063)
(0.0010705204 1.112367e-05 -4.7510018e-16 0.00098348436 -1.3880219e-17 0.00098236232)
(0.00097577532 1.6854715e-07 -1.2831829e-16 0.0009433418 -6.0102655e-17 0.00094304127)
(0.00087511346 -5.8486681e-07 2.0064247e-19 0.00085085615 8.4038541e-17 0.00085076973)
(0.00082358318 -1.0859471e-06 -7.5157203e-17 0.00077542512 -5.9622978e-17 0.00077517312)
(0.00092415273 -2.3390023e-06 -6.4536069e-19 0.00078086199 -1.5944454e-16 0.00077962241)
(0.0011863754 -3.82032e-06 -4.2806864e-18 0.00063217129 -3.1333288e-17 0.00062711303)
(0.0011012334 1.5473504e-05 4.0041785e-16 0.00049653927 8.0333058e-17 0.00048781762)
(0.00049078618 -8.0348554e-06 8.0779969e-18 0.00043717692 1.524936e-17 0.00043748257)
(0.0002580228 -8.1368194e-06 7.481195e-19 0.00019959411 -2.8544473e-17 0.00023478699)
(0.0011592551 4.2202405e-05 2.2286305e-18 0.0011168726 9.1783051e-18 0.0011120761)
(0.0011249908 2.2567061e-05 -4.465281e-16 0.0011264994 -6.366394e-18 0.001125684)
(0.0011165989 1.8422327e-05 -4.5368558e-16 0.001125166 -1.1907563e-16 0.0011248686)
(0.0011092948 1.6927309e-05 -4.2531816e-18 0.0011236833 -7.9340678e-17 0.0011234861)
(0.0011025771 1.5887676e-05 -2.2032063e-18 0.0011220887 3.8828815e-17 0.0011219436)
(0.0010978706 1.5100979e-05 4.7039869e-16 0.0011196381 4.1065926e-17 0.0011195248)
(0.0010945104 1.4514295e-05 1.5522812e-18 0.0011166487 8.6086945e-17 0.0011165536)
(0.0010918198 1.4059988e-05 4.8664627e-16 0.0011134473 -9.9304719e-18 0.0011133629)
(0.001089566 1.3691629e-05 1.8857263e-19 0.0011101418 -1.0000479e-16 0.0011100633)
(0.0010875962 1.3383884e-05 -3.4856928e-18 0.001106801 -9.0083594e-17 0.0011067254)
(0.0010857741 1.3119947e-05 5.0240252e-16 0.0011034866 -4.3099284e-17 0.0011034121)
(0.0010840203 1.2887692e-05 -1.0193041e-18 0.0011002323 -5.9321726e-17 0.001100158)
(0.001082303 1.2678865e-05 -5.2108157e-16 0.001097049 -1.2139955e-17 0.0010969742)
(0.0010806156 1.2487898e-05 5.2975793e-16 0.0010939354 1.8367705e-17 0.0010938598)
(0.0010789653 1.2310805e-05 3.641494e-18 0.001090884 -4.2803786e-17 0.0010908072)
(0.0010773746 1.2144731e-05 -1.0839207e-15 0.0010878802 -4.7651019e-18 0.0010878019)
(0.0010758708 1.1987427e-05 2.5123936e-18 0.0010849058 -4.3791608e-17 0.0010848256)
(0.0010745044 1.1837238e-05 -2.4492195e-18 0.0010819338 -2.8206466e-17 0.001081851)
(0.0010733293 1.1694993e-05 -1.1371552e-18 0.0010789343 -4.1152435e-17 0.0010788482)
(0.0010723035 1.1556869e-05 -1.1564938e-15 0.0010759256 -8.2595377e-17 0.0010758356)
(0.0010715918 1.1439669e-05 -5.9366211e-16 0.0010728233 -5.9473565e-17 0.0010727282)
(0.0010702931 1.132422e-05 -5.9612634e-16 0.0010700722 6.4582435e-17 0.0010699752)
(0.0010685283 1.1173678e-05 -6.0157132e-16 0.0010676285 7.2680469e-17 0.0010675245)
(0.0010708889 1.0869667e-05 1.2328848e-15 0.0010631203 -2.763075e-17 0.0010630001)
(0.0010787678 1.0772576e-05 -6.2904068e-16 0.0010561501 -2.3934766e-17 0.0010560194)
(0.0010882783 1.259908e-05 -6.4734132e-16 0.0010490487 -8.957443e-17 0.0010488416)
(0.0010935549 1.2249328e-05 6.0382726e-16 0.0010424305 -3.6760976e-18 0.0010421116)
(0.0011021226 7.9968781e-06 5.6140772e-16 0.0010315069 1.2589442e-16 0.0010312558)
(0.0011551783 1.6854985e-05 2.0228742e-18 0.0010148962 1.5784577e-17 0.0010145579)
(0.0010783431 1.5416128e-05 3.6199196e-18 0.00097939996 -9.0572469e-18 0.00097893418)
(0.00097821872 -9.439992e-08 -7.1758703e-19 0.00094341697 -7.4106124e-17 0.00094330897)
(0.00087978982 -8.893761e-07 4.48806e-17 0.00085518912 7.9504621e-17 0.00085518537)
(0.00081301154 -1.3987325e-06 4.8307974e-17 0.00077192741 -3.3876901e-17 0.00077189159)
(0.00087536595 -3.1037541e-06 -7.8546216e-17 0.00076532236 -1.1957034e-16 0.00076505603)
(0.0011083054 -7.3411052e-06 -2.1288911e-16 0.00063745911 -8.2484761e-17 0.00063555911)
(0.0010902613 1.6098046e-05 1.41583e-16 0.00048985721 8.5112139e-17 0.00048463466)
(0.000458389 -6.2862424e-06 4.2455893e-18 0.00041867974 2.140979e-17 0.00041857867)
(0.00019593706 -4.4233719e-06 5.9945141e-20 0.00017023203 -4.1286167e-18 0.0001841521)
(0.0011568184 5.0751816e-05 2.5240614e-18 0.0011188864 9.7423772e-18 0.0011129713)
(0.0011245908 2.9237518e-05 -3.4784555e-16 0.0011271419 -3.4922761e-17 0.0011259064)
(0.0011165862 2.3678207e-05 -3.5293942e-16 0.0011255051 -1.1699214e-16 0.0011249803)
(0.0011093487 2.1690444e-05 3.53547e-16 0.0011239462 -1.3963847e-17 0.0011235785)
(0.0011026435 2.0357346e-05 7.2073727e-16 0.0011223227 5.8411099e-17 0.0011220266)
(0.0010979401 1.9353801e-05 9.4004046e-19 0.0011198531 3.8282183e-17 0.0011196013)
(0.0010945806 1.8605431e-05 -3.6943518e-16 0.0011168488 5.0484175e-17 0.0011166254)
(0.0010918896 1.8025611e-05 3.7849122e-16 0.0011136355 2.9210921e-17 0.0011134315)
(0.0010896347 1.7555174e-05 -5.6702081e-19 0.0011103205 -4.6735357e-17 0.00111013)
(0.0010876641 1.7161922e-05 3.8341637e-16 0.0011069721 -1.7518456e-17 0.0011067912)
(0.0010858416 1.6824482e-05 3.905941e-16 0.0011036517 2.9722004e-17 0.0011034778)
(0.001084088 1.6527397e-05 -3.9985673e-16 0.0011003927 -3.2171433e-17 0.0011002242)
(0.0010823712 1.6260132e-05 -1.7471208e-18 0.0010972057 -1.8345657e-17 0.0010970415)
(0.0010806844 1.6015582e-05 4.1336213e-16 0.0010940894 3.797402e-17 0.0010939287)
(0.0010790349 1.5788649e-05 -4.1208109e-16 0.0010910358 -4.004898e-17 0.001090878)
(0.0010774448 1.5575662e-05 -4.1971282e-16 0.0010880303 -6.7381724e-17 0.0010878747)
(0.0010759412 1.5373726e-05 -1.2832531e-15 0.0010850546 -1.1952055e-16 0.0010849007)
(0.0010745744 1.5180631e-05 -8.7382113e-16 0.0010820815 -4.3651828e-17 0.0010819287)
(0.0010733987 1.4997419e-05 -4.4486712e-16 0.0010790809 -2.5166186e-17 0.0010789286)
(0.0010723715 1.4819232e-05 -2.7287935e-18 0.0010760714 -1.1140128e-16 0.0010759188)
(0.0010716615 1.4667077e-05 4.4921795e-16 0.0010729666 1.688086e-18 0.001072813)
(0.001070367 1.4519665e-05 4.6404097e-16 0.0010702106 5.9493222e-17 0.0010700586)
(0.0010685848 1.4327352e-05 -9.3803733e-16 0.001067783 -2.0812263e-17 0.0010676212)
(0.001070886 1.392369e-05 1.2495854e-18 0.0010632795 5.4889926e-18 0.0010631131)
(0.0010788035 1.3781346e-05 4.9173611e-16 0.0010562949 -1.2106829e-17 0.0010561525)
(0.0010885924 1.6151547e-05 -1.8942546e-18 0.0010492544 -5.4692382e-17 0.0010490329)
(0.0010928792 1.5678889e-05 9.2422104e-16 0.0010431269 7.7923331e-17 0.0010427658)
(0.001099475 1.0069438e-05 4.1559119e-16 0.0010324412 9.5104725e-17 0.0010322404)
(0.0011539249 2.1413587e-05 8.6189571e-19 0.0010173294 1.0753514e-17 0.0010171222)
(0.0010921698 1.9952905e-05 7.3235477e-16 0.00097467807 2.8737218e-17 0.00097399782)
(0.00098366969 -5.4474459e-07 3.6465365e-19 0.00094481152 -3.7877987e-17 0.00094458618)
(0.00088853557 -1.2016638e-06 -3.6997183e-17 0.0008624345 1.4176649e-17 0.00086232235)
(0.00080754075 -1.5409694e-06 -3.227182e-17 0.00077196765 -2.6988019e-17 0.00077177144)
(0.00082462982 -3.0786157e-06 -1.7084198e-19 0.00074502034 -7.8361197e-17 0.00074455871)
(0.0010035462 -9.6057316e-06 1.9447297e-18 0.00064580565 -5.9718273e-17 0.00064325786)
(0.001073715 1.5382759e-05 -1.1609963e-16 0.00048290094 1.1584003e-17 0.00047679428)
(0.00041211428 -4.2034139e-06 -2.0420897e-18 0.00038589609 6.9191531e-18 0.00038545925)
(0.00015087613 -2.5385182e-06 7.4542298e-21 0.00013570222 -4.6673775e-19 0.00014364419)
(0.0011540863 5.9944354e-05 3.0825492e-18 0.0011213878 1.0840318e-17 0.0011139565)
(0.0011240596 3.7674605e-05 1.1915394e-19 0.0011280966 -1.8133051e-17 0.0011262397)
(0.0011165509 3.0466819e-05 6.061103e-19 0.0011260615 -8.4519498e-17 0.0011251709)
(0.0011094267 2.7816475e-05 -3.6428971e-16 0.0011243623 -6.2170954e-17 0.0011237479)
(0.0011027441 2.6103962e-05 -2.0655153e-18 0.0011226782 1.735864e-17 0.0011221893)
(0.0010980451 2.4825672e-05 -3.7046557e-16 0.0011201723 -2.2926306e-17 0.0011197559)
(0.0010946854 2.3872355e-05 1.7475047e-18 0.0011171422 2.335761e-17 0.0011167712)
(0.0010919924 2.3132922e-05 -3.7877464e-16 0.0011139088 -1.0241675e-17 0.0011135693)
(0.0010897349 2.2532354e-05 -8.907243e-19 0.0011105784 -4.342952e-17 0.0011102609)
(0.0010877617 2.2029917e-05 -3.9572914e-16 0.0011072184 -3.6355991e-17 0.0011069164)
(0.0010859377 2.1598522e-05 -3.0822441e-18 0.0011038892 4.3260962e-17 0.0011035986)
(0.0010841833 2.1218517e-05 -2.6934031e-18 0.0011006237 -2.2069338e-17 0.0011003419)
(0.0010824665 2.0876493e-05 4.0833497e-16 0.0010974322 -9.458124e-18 0.0010971573)
(0.0010807804 2.0563403e-05 4.1967088e-16 0.0010943128 4.7821192e-17 0.0010940436)
(0.0010791318 2.0272763e-05 3.8190471e-18 0.0010912573 -2.0322545e-17 0.0010909927)
(0.0010775425 1.9999892e-05 2.1370568e-18 0.0010882507 -6.2498954e-17 0.0010879898)
(0.0010760396 1.974112e-05 5.1682985e-18 0.0010852747 -1.2266075e-16 0.0010850166)
(0.0010746727 1.9493593e-05 -4.4357808e-16 0.0010823019 -1.3973348e-16 0.0010820455)
(0.0010734966 1.925873e-05 4.445523e-16 0.0010793019 5.3842568e-18 0.0010790463)
(0.001072468 1.9030252e-05 -4.5787146e-16 0.0010762934 -1.0483296e-16 0.0010760374)
(0.0010717607 1.8834917e-05 -7.3972494e-18 0.0010731881 -2.0708927e-17 0.0010729306)
(0.0010704721 1.8647615e-05 4.695059e-16 0.0010704256 7.4364084e-17 0.0010701722)
(0.0010686663 1.8403643e-05 4.5421436e-18 0.0010680262 -2.1116198e-17 0.0010677514)
(0.0010708883 1.7876421e-05 2.2309478e-18 0.0010635305 -5.1588263e-18 0.0010632524)
(0.0010788698 1.7690249e-05 4.9935404e-16 0.0010565229 6.8275682e-17 0.0010562884)
(0.001089206 2.0824306e-05 -5.2038698e-16 0.0010495454 -2.543759e-17 0.001049186)
(0.0010921096 2.0228836e-05 4.5441128e-16 0.0010441741 9.8879346e-17 0.0010436115)
(0.0010959638 1.2799257e-05 -2.9428659e-18 0.0010337308 6.0516853e-17 0.0010334468)
(0.0011510208 2.7411488e-05 5.4396809e-16 0.001021535 5.8856944e-17 0.0010210607)
(0.0011207441 2.6204807e-05 4.9880655e-16 0.0009669044 7.4974918e-17 0.00096476001)
(0.00099562292 -1.461913e-06 -2.28451e-19 0.00094838264 -1.9090677e-17 0.00094783715)
(0.00090498613 -1.6465552e-06 4.2171978e-20 0.00087456266 1.0426281e-17 0.00087430809)
(0.00081117654 -1.6181521e-06 -4.2654427e-19 0.00077880804 -4.1891971e-17 0.00077853925)
(0.00077053908 -2.2161981e-06 3.0498034e-17 0.00071722554 -1.4178906e-17 0.00071695344)
(0.00086739156 -1.0783002e-05 2.3854635e-18 0.00064283005 -4.7946021e-17 0.00063914877)
(0.001045218 1.2600945e-05 2.8628382e-19 0.00047311311 -4.7621114e-17 0.00046127592)
(0.00033792208 -2.0626975e-06 6.4585516e-20 0.00032371495 -2.0421493e-18 0.00032340542)
(9.9545088e-05 -1.3767314e-06 -1.4226494e-19 9.1529509e-05 -1.0817693e-18 9.5692405e-05)
(0.00115135 6.9874232e-05 3.8937211e-18 0.0011240868 2.0764767e-17 0.0011152524)
(0.0011233761 4.7950924e-05 -1.4692727e-18 0.0011295568 -3.9545874e-17 0.0011267475)
(0.0011165049 3.9050286e-05 2.4653452e-16 0.0011269972 2.937651e-18 0.001125507)
(0.0011095703 3.5577828e-05 -1.5191256e-18 0.0011250903 -4.6250282e-17 0.0011240377)
(0.0011029312 3.3390575e-05 2.5074407e-16 0.0011233192 4.0534076e-18 0.001122459)
(0.0010982428 3.1773905e-05 -2.5452372e-16 0.0011207591 -5.1400797e-17 0.0011200102)
(0.0010948845 3.0568269e-05 2.5638083e-18 0.0011176877 2.7433829e-17 0.0011170112)
(0.0010921891 2.9631499e-05 -2.6113747e-16 0.001114421 -4.0740556e-17 0.0011137968)
(0.0010899271 2.8869308e-05 -2.6826496e-16 0.0011110636 -8.2988994e-17 0.0011104778)
(0.0010879494 2.8230691e-05 -2.6863289e-18 0.0011076816 -2.4571792e-17 0.0011071247)
(0.0010861215 2.7681681e-05 -3.3200585e-18 0.0011043343 1.8563867e-17 0.0011038003)
(0.0010843645 2.719755e-05 2.7389907e-16 0.0011010545 2.0814694e-17 0.0011005389)
(0.0010826462 2.6761385e-05 2.8188125e-16 0.0010978515 9.5701547e-18 0.0010973516)
(0.0010809595 2.6361766e-05 -2.8176126e-16 0.0010947231 2.5020149e-17 0.0010942366)
(0.001079311 2.5990497e-05 3.4203387e-18 0.0010916606 -8.8113639e-18 0.0010911858)
(0.0010777221 2.5641647e-05 1.4165503e-18 0.0010886486 -3.835608e-17 0.001088184)
(0.0010762193 2.5310567e-05 -2.9513565e-16 0.0010856682 -8.5285319e-17 0.0010852127)
(0.0010748519 2.4993545e-05 -3.0469114e-16 0.001082692 -1.5632429e-16 0.0010822442)
(0.0010736751 2.4692467e-05 -3.4323392e-18 0.0010796887 6.4855065e-18 0.0010792479)
(0.0010726446 2.4399136e-05 -3.1828844e-16 0.0010766772 -7.7430893e-17 0.0010762421)
(0.0010719407 2.4147652e-05 3.1255366e-16 0.0010735666 2.047102e-18 0.0010731364)
(0.0010706589 2.3909033e-05 -1.4568106e-19 0.0010707924 6.2283492e-17 0.0010703726)
(0.0010688232 2.3601068e-05 4.2664615e-18 0.0010684257 3.3879874e-18 0.0010679778)
(0.0010709394 2.2904977e-05 4.5491932e-18 0.0010639301 -5.8875445e-18 0.0010634978)
(0.0010790029 2.2656308e-05 -6.8914038e-16 0.0010568484 -1.2651161e-17 0.0010565287)
(0.0010902658 2.6867557e-05 3.6531846e-16 0.0010498087 -5.1787104e-18 0.0010493817)
(0.0010915421 2.6057015e-05 -3.1186013e-16 0.001045428 -7.7424266e-18 0.001044716)
(0.0010921833 1.6106429e-05 2.4714796e-16 0.0010351053 5.8589216e-17 0.001034882)
(0.0011468129 3.4648273e-05 3.4935091e-16 0.0010268478 1.0802641e-16 0.0010262001)
(0.001165255 3.3650053e-05 4.862805e-16 0.00095445081 1.0130996e-16 0.00095040834)
(0.00101034 -3.183167e-06 7.831187e-19 0.00095394049 -1.378836e-18 0.00095322279)
(0.0009226594 -2.2678533e-06 -1.0525638e-18 0.00088706303 2.2908835e-17 0.00088682647)
(0.00082394448 -1.8290863e-06 4.0893693e-17 0.00079179911 -3.5995158e-18 0.00079159632)
(0.00073215018 -1.1479377e-06 2.8385449e-19 0.00069568969 8.772568e-18 0.00069540624)
(0.00073711808 -1.0556426e-05 3.3514473e-17 0.00059874124 -1.5013868e-17 0.00060258582)
(0.00099289801 6.283692e-06 -2.8194956e-18 0.00045264349 -4.1124726e-17 0.00043546291)
(0.00018948492 -3.5498645e-07 -2.3983334e-21 0.00018643934 -1.6373362e-19 0.0001863787)
(2.8677182e-05 -2.7177719e-07 4.1800043e-22 2.7310809e-05 -1.547208e-19 2.7990406e-05)
(0.0011490172 7.9070229e-05 -3.4012446e-16 0.00112685 -3.2881939e-17 0.0011166712)
(0.0011226712 5.8723882e-05 1.7152389e-16 0.001131424 -2.4117323e-17 0.0011274334)
(0.0011164746 4.8550087e-05 1.7537488e-16 0.0011283138 4.8715538e-17 0.0011260132)
(0.0011097953 4.424591e-05 -2.6486826e-18 0.0011261383 -1.7391141e-17 0.0011244839)
(0.0011032241 4.1547566e-05 1.761937e-16 0.0011242467 4.3573234e-17 0.0011228792)
(0.0010985541 3.956831e-05 1.8358133e-16 0.0011216113 -1.4640681e-17 0.0011204098)
(0.0010951997 3.8092186e-05 3.1961461e-18 0.0011184827 9.0274202e-18 0.0011173911)
(0.0010925012 3.6942509e-05 -1.0469754e-19 0.0011151698 -3.3884788e-17 0.0011141582)
(0.0010902324 3.6004711e-05 -1.0250906e-18 0.0011117741 -7.8785413e-17 0.0011108228)
(0.0010882468 3.5217243e-05 -1.9314964e-16 0.0011083601 -1.6252676e-17 0.0011074553)
(0.0010864117 3.4539045e-05 -1.9796802e-16 0.0011049861 -3.3978875e-17 0.0011041187)
(0.0010846486 3.3940078e-05 1.9195492e-16 0.0011016841 3.5178957e-17 0.0011008477)
(0.0010829259 3.3399738e-05 5.9956387e-16 0.0010984631 9.3157185e-17 0.0010976533)
(0.0010812362 3.2904094e-05 5.7124497e-18 0.0010953202 3.0592934e-17 0.0010945336)
(0.0010795857 3.2443141e-05 3.3237936e-18 0.001092246 -1.6994793e-18 0.0010914802)
(0.0010779956 3.2009622e-05 7.5699028e-19 0.0010892246 -2.0595866e-17 0.0010884773)
(0.0010764919 3.1597848e-05 -2.0824052e-16 0.0010862369 -8.7475696e-17 0.0010855065)
(0.001075123 3.1203179e-05 -2.1452278e-16 0.0010832545 -1.3873974e-16 0.0010825395)
(0.0010739448 3.0828102e-05 -2.2211575e-16 0.0010802456 -2.7218274e-17 0.0010795451)
(0.0010729114 3.0462091e-05 -4.373794e-18 0.0010772289 -6.1868908e-17 0.0010765416)
(0.0010722112 3.0147885e-05 2.1981191e-16 0.0010741113 2.5304228e-17 0.0010734362)
(0.0010709356 2.9851877e-05 2.2899887e-16 0.0010713215 7.3506668e-17 0.0010706641)
(0.0010690674 2.9475701e-05 -2.2902255e-16 0.0010689902 1.0880486e-17 0.0010683002)
(0.0010710578 2.8579551e-05 -2.3214804e-16 0.0010645011 -1.6508059e-19 0.0010638417)
(0.0010791872 2.8261405e-05 5.7654976e-19 0.001057317 -4.8764094e-17 0.0010568425)
(0.0010918093 3.3887842e-05 -2.7027645e-16 0.001050025 2.8805115e-18 0.001049498)
(0.0010915474 3.2851765e-05 -3.3521572e-18 0.0010467636 -4.8431268e-17 0.0010458162)
(0.00108887 1.9719944e-05 -1.66466e-16 0.0010364363 3.9323325e-17 0.0010362536)
(0.0011417531 4.229538e-05 -2.2691934e-16 0.001032664 6.1393245e-17 0.0010314717)
(0.0012326447 4.0497218e-05 3.6567361e-18 0.00093261066 7.9564841e-17 0.00093186745)
(0.0010258425 -5.6150766e-06 -7.0903004e-17 0.00096324518 -1.7713845e-17 0.0009624265)
(0.00093802342 -2.8772759e-06 -2.9153224e-17 0.00089942832 -2.2679432e-18 0.00089917071)
(0.00083745472 -2.0336357e-06 -1.5933176e-17 0.00080504013 1.2630384e-17 0.00080480637)
(0.00071452693 -3.802757e-07 5.8575249e-20 0.00068662925 8.594656e-18 0.00068664095)
(0.00066042859 -9.378496e-06 7.5298781e-19 0.00053026677 8.4655956e-18 0.00053085786)
(0.00080923446 -6.6994778e-07 -1.2554547e-18 0.00047084114 -5.9592696e-18 0.00046203661)
(5.3321272e-05 -1.8371847e-08 -8.9780103e-21 5.3118111e-05 4.1895981e-21 5.31123e-05)
(2.1641461e-06 -1.0680593e-08 2.5808776e-23 2.1155506e-06 -1.1721183e-21 2.1383832e-06)
(0.0011470405 8.7318279e-05 -2.4455217e-16 0.0011297878 -5.5835711e-17 0.0011183702)
(0.0011220667 6.9829438e-05 -2.489715e-16 0.0011336881 -4.8553191e-17 0.001128361)
(0.0011165068 5.8910024e-05 -2.522074e-16 0.0011300949 -3.7249014e-18 0.001126744)
(0.0011101383 5.3857543e-05 -2.7242146e-18 0.0011276014 -2.211795e-17 0.0011251392)
(0.0011036644 5.0640833e-05 -3.2437205e-18 0.0011255482 4.6292361e-17 0.0011235022)
(0.0010990235 4.8285522e-05 1.354915e-18 0.0011228105 4.7124882e-18 0.0011210064)
(0.001095676 4.6527218e-05 -2.6222498e-16 0.0011196037 -1.9097222e-17 0.0011179613)
(0.0010929734 4.5153346e-05 -1.3790113e-18 0.0011162266 -2.5290431e-17 0.0011147028)
(0.0010906945 4.4028667e-05 -7.2239353e-19 0.0011127767 -3.4138731e-17 0.0011113432)
(0.0010886964 4.3081299e-05 -1.3417887e-18 0.0011093163 -1.9860133e-17 0.0011079535)
(0.0010868486 4.226322e-05 -3.2050342e-18 0.0011059025 -2.9349831e-17 0.001104597)
(0.0010850741 4.1539069e-05 -3.0121194e-18 0.0011025666 2.3916118e-17 0.0011013091)
(0.0010833416 4.0884503e-05 -1.3786804e-18 0.0010993173 1.0080472e-16 0.0010981011)
(0.0010816443 4.0283043e-05 4.309202e-18 0.001096151 3.1910561e-17 0.001094971)
(0.0010799882 3.9722828e-05 -1.4596803e-16 0.001093058 -1.1516096e-17 0.0010919102)
(0.0010783938 3.9195237e-05 1.5026429e-16 0.0010900214 -1.9571332e-19 0.0010889027)
(0.0010768867 3.8693498e-05 3.1018081e-16 0.0010870215 -3.7924599e-17 0.0010859295)
(0.0010755144 3.8211949e-05 1.5922583e-16 0.0010840294 -9.879514e-17 0.0010829616)
(0.001074333 3.775384e-05 -3.1877464e-16 0.0010810122 -7.2094211e-17 0.0010799674)
(0.0010732953 3.7305815e-05 1.5659487e-16 0.0010779878 -6.8676619e-17 0.0010769645)
(0.0010725985 3.6920768e-05 1.5855638e-16 0.0010748614 3.3447543e-17 0.001073858)
(0.001071328 3.6559977e-05 1.6499772e-16 0.0010720516 9.6563205e-17 0.0010710738)
(0.0010694224 3.6112937e-05 -1.6495244e-16 0.0010697614 7.3234867e-18 0.0010687437)
(0.0010712687 3.4972756e-05 -1.6631832e-16 0.0010652882 -2.3265779e-17 0.0010643157)
(0.0010794068 3.4552739e-05 -3.5247614e-16 0.0010579827 -4.1901017e-17 0.0010572583)
(0.0010939292 4.2097764e-05 -2.4079648e-18 0.0010501693 -1.4798476e-17 0.0010494878)
(0.0010924836 4.0926497e-05 -3.6125584e-18 0.0010480788 -3.6174547e-17 0.0010467823)
(0.0010862426 2.3620841e-05 -2.2200676e-16 0.0010376923 -2.0105085e-17 0.0010375457)
(0.0011363312 4.9338199e-05 -4.2373393e-19 0.0010382487 2.7387825e-17 0.0010364301)
(0.0013574559 4.5068766e-05 -2.7910004e-18 0.00089904292 5.9797551e-17 0.00088863199)
(0.0010411642 -8.0777099e-06 9.1702164e-19 0.00097909301 -2.0096104e-17 0.00097777701)
(0.00094960044 -3.2119222e-06 -4.0575355e-19 0.00091259894 -1.6606449e-17 0.00091225236)
(0.00084266996 -1.9216142e-06 -5.557509e-19 0.00081314046 -1.7450457e-18 0.00081292713)
(0.00069695489 -4.81426e-07 1.0685882e-19 0.00067495146 6.8623349e-18 0.00067504154)
(0.00085917056 -2.2935376e-05 -6.3485973e-17 0.00039163531 8.019053e-18 0.000378365)
(0.00051951583 -5.516601e-07 -3.0139824e-19 0.00048049069 -8.427227e-19 0.00048110824)
(7.2451324e-06 -3.3134068e-10 1.2645961e-22 7.240574e-06 3.8569074e-22 7.2404403e-06)
(2.6016274e-08 -5.4706811e-11 2.7544115e-25 2.5783274e-08 3.489034e-24 2.5887782e-08)
(0.001145927 9.4805951e-05 2.6987968e-18 0.0011326029 -2.3160702e-17 0.0011202805)
(0.0011217383 8.1085309e-05 1.4361561e-18 0.001136366 -4.8139224e-17 0.001129606)
(0.0011166766 7.0022833e-05 1.2209587e-18 0.0011324374 -7.0992543e-18 0.0011277721)
(0.0011106527 6.4423331e-05 1.8531743e-16 0.0011296026 1.0146804e-17 0.0011260699)
(0.0011043047 6.0728854e-05 -3.3451999e-18 0.0011273515 -3.7145545e-18 0.0011243893)