0.4534793519 	1.965809659e-07 	-1.450524123e-09 	2.493945488e-13 	1.965644435e-07 	-1.545072147e-11 	3.747064615e-10
0.4534793519 	1.965809659e-07 	-1.450524123e-09 	2.493945488e-13 	1.965644435e-07 	-1.545072147e-11 	3.747064615e-10
0.4545349715 	1.612381569e-05 	-1.075067648e-06 	1.234137428e-10 	1.644987152e-05 	-8.221375448e-10 	3.135802711e-08
0.4555906243 	0.0001814511373 	-3.74508091e-05 	2.972836549e-09 	0.0002014416619 	-6.57332067e-09 	3.840037955e-07
0.4566462771 	0.0007705236674 	-0.0002653488362 	1.453770219e-08 	0.0009610236619 	-1.556137126e-08 	1.831978202e-06
0.4577018969 	0.001807993901 	-0.0007786635549 	2.991620389e-08 	0.002427752696 	-8.498653839e-09 	4.627971398e-06
0.4587574508 	0.003094231346 	-0.001446211276 	3.77858483e-08 	0.004281587852 	2.224175513e-08 	8.161896452e-06
0.4603822371 	0.004353060785 	-0.002066372242 	3.472576812e-08 	0.006052801193 	5.836365995e-08 	1.153832136e-05
0.4622175431 	0.005289559589 	-0.002510034994 	2.762969349e-08 	0.007349623635 	8.036381247e-08 	1.401042537e-05
0.4642903799 	0.005874572538 	-0.002780927874 	2.041253246e-08 	0.008146229459 	8.102958163e-08 	1.552897748e-05
0.4666426815 	0.006211226797 	-0.002933541727 	1.388637551e-08 	0.008590072088 	6.375767819e-08 	1.637506489e-05
0.4693021407 	0.00637821119 	-0.003004884724 	8.151978188e-09 	0.008796270304 	3.586717968e-08 	1.6768136e-05
0.4723056461 	0.006430652021 	-0.003020971062 	1.71727211e-09 	0.008842564427 	6.187644736e-09 	1.685638546e-05
0.4730447499 	0.006424759236 	-0.00301606316 	4.224094262e-07 	0.008828376182 	-1.217437238e-06 	1.682933872e-05
0.4756893738 	0.006403551457 	-0.00299841797 	7.38186982e-09 	0.008777492237 	1.308312395e-08 	1.673233978e-05
0.4795279125 	0.00631716549 	-0.0029471447 	1.951615296e-08 	0.008629411583 	2.364245368e-08 	1.64500569e-05
0.4838641516 	0.006182779546 	-0.002872704221 	3.443439004e-08 	0.008413560596 	2.570271624e-08 	1.603858492e-05
0.4887697617 	0.00598657853 	-0.002768099861 	5.180138126e-08 	0.008108865793 	1.818344736e-08 	1.545775194e-05
0.4962020164 	0.005697549174 	-0.002619040584 	7.59256087e-08 	0.007672995256 	1.717335348e-09 	1.462686156e-05
0.5041837956 	0.005326431751 	-0.002432646031 	9.564562382e-08 	0.007126555465 	-1.520810747e-08 	1.358519544e-05
0.5127499606 	0.004898535469 	-0.002222125746 	1.051438858e-07 	0.006507968038 	-1.547762747e-08 	1.240599588e-05
0.5219457739 	0.004416843443 	-0.001988824824 	1.011483175e-07 	0.005820998584 	6.24177915e-09 	1.109644116e-05
0.5318185128 	0.003890172561 	-0.001735696054 	8.835403027e-08 	0.005076517628 	3.309618878e-08 	9.677253543e-06
0.5424177356 	0.003352801194 	-0.00146197448 	8.059670737e-08 	0.004303278651 	2.791671927e-08 	8.203245144e-06
0.5537955805 	0.002854280281 	-0.001169767054 	7.524793136e-08 	0.003543073324 	-1.293243139e-08 	6.754082502e-06
0.5660070967 	0.002421765157 	-0.0008781004787 	6.628914753e-08 	0.002836737836 	-5.337239313e-08 	5.407610745e-06
0.5791106073 	0.00207227776 	-0.0006078803516 	3.991423643e-08 	0.002226359866 	-6.893845317e-08 	4.244060688e-06
0.5931681036 	0.001828066663 	-0.0003694701705 	-1.746901737e-08 	0.001753822681 	-8.17717579e-08 	3.34327348e-06
0.6082461593 	0.001699031778 	-0.0001643198567 	-8.349380887e-08 	0.001445780936 	-1.402655238e-07 	2.756060299e-06
0.6244207255 	0.001670220896 	9.026859283e-06 	-1.452047285e-07 	0.00130424358 	-2.47333371e-07 	2.486250759e-06
0.641762148 	0.001710284198 	0.000148928573 	-2.29113087e-07 	0.001316834729 	-3.578751233e-07 	2.510252988e-06
0.6603550546 	0.001773175646 	0.0002435501595 	-2.885817543e-07 	0.00141616709 	-5.089644719e-07 	2.699608077e-06
0.6802847741 	0.001885589546 	0.0003320255821 	-2.422624408e-07 	0.00156074094 	-5.207632824e-07 	2.975206018e-06
0.7016438663 	0.00208737418 	0.0004839346225 	-1.645315687e-07 	0.00176046732 	-3.403441892e-07 	3.355940008e-06
0.7245320632 	0.002321529867 	0.0006825643944 	-1.665884317e-07 	0.002010354053 	-2.678259565e-07 	3.832293574e-06
0.747428821 	0.002509272016 	0.000822310238 	-1.932050361e-07 	0.002258035643 	-3.033238967e-07 	4.304443524e-06
0.7688123516 	0.002691381072 	0.0009169614624 	-1.778737771e-07 	0.002516780283 	-3.095842895e-07 	4.797682723e-06
0.7887815006 	0.002940129604 	0.001061670125 	-1.124966129e-07 	0.002854856121 	-2.501919126e-07 	5.442149232e-06
0.8074292531 	0.00323418327 	0.001254825577 	-2.638013133e-08 	0.003262352738 	-1.641898181e-07 	6.218951043e-06
0.824842804 	0.003553126232 	0.001465223813 	3.02273643e-08 	0.003718222561 	-8.788974143e-08 	7.087965627e-06
0.8411037828 	0.003895350896 	0.001666645711 	5.933006174e-08 	0.004203984736 	-3.152192838e-08 	8.013963343e-06
0.8562883075 	0.00426685421 	0.001863014807 	7.538204127e-08 	0.004715625318 	2.383364674e-09 	8.989292497e-06
0.8704676062 	0.004656916382 	0.002061856047 	7.749979429e-08 	0.005240015279 	1.166086164e-08 	9.988925508e-06
0.8837081452 	0.00504129892 	0.002254381012 	7.243798189e-08 	0.005751506091 	7.719358908e-09 	1.096396916e-05
0.8960719989 	0.005401104081 	0.002433659268 	6.46567321e-08 	0.00623166226 	-5.18672219e-11 	1.187928027e-05
0.9076171404 	0.005726123423 	0.002595808045 	5.639154023e-08 	0.006670626107 	-6.641388947e-09 	1.271606736e-05
0.9183977073 	0.00601206867 	0.002739294683 	4.868310951e-08 	0.007064595479 	-9.974411055e-09 	1.346708249e-05
0.9284642592 	0.006258102374 	0.002863918101 	4.194115026e-08 	0.007413094814 	-9.640017821e-09 	1.413141908e-05
0.9378640164 	0.006464740427 	0.00296996713 	3.621922376e-08 	0.007716814291 	-6.184683819e-09 	1.471039282e-05
0.9466410813 	0.00663193835 	0.003057312068 	3.138808158e-08 	0.007975152756 	-6.251576771e-10 	1.520285773e-05
0.954836645 	0.00675663276 	0.00312434234 	2.723417747e-08 	0.008183208701 	5.818578236e-09 	1.559947019e-05
0.9624891797 	0.00682692576 	0.003164838537 	2.343597565e-08 	0.008320603204 	1.114392986e-08 	1.58613823e-05
0.967553421 	0.006845883599 	0.003179760989 	2.080744054e-08 	0.00838679973 	1.475215922e-08 	1.598757128e-05
0.9720360117 	0.006826460599 	0.003175755085 	1.809752232e-08 	0.008401141771 	1.638737038e-08 	1.601491119e-05
0.9760037277 	0.006763468471 	0.003150854301 	1.514770609e-08 	0.008359304936 	1.60003611e-08 	1.593515856e-05
0.9795156849 	0.006642506396 	0.003098340434 	1.187651347e-08 	0.008242761393 	1.349440157e-08 	1.571299417e-05
0.9826242168 	0.006441941597 	0.003008145571 	8.356276361e-09 	0.008024023519 	9.195710473e-09 	1.529601899e-05
0.9853756515 	0.00612951996 	0.002865321328 	4.8176355e-09 	0.007662289998 	3.839002898e-09 	1.460645436e-05
0.9878109997 	0.005657626043 	0.002647631317 	1.631789396e-09 	0.007096429573 	-1.466652934e-09 	1.352776712e-05
0.9899665651 	0.004960531131 	0.002322696568 	-7.127570959e-10 	0.006236605009 	-5.412557584e-09 	1.188870252e-05
0.9918744833 	0.003960285253 	0.001853175046 	-1.857513753e-09 	0.004983895459 	-6.824739091e-09 	9.500689947e-06
0.9935632004 	0.002714065617 	0.001234279951 	-2.293946914e-09 	0.003389289208 	-6.161609832e-09 	6.460927235e-06
0.9946601717 	0.001512366447 	0.000613365742 	-1.991067904e-09 	0.001826480714 	-4.519337969e-09 	3.481779886e-06
0.9957571594 	0.0006101145295 	0.0001914930536 	-9.128122207e-10 	0.0006916566936 	-2.175287623e-09 	1.318489894e-06
0.9968541637 	0.0001361505616 	2.419389138e-05 	-1.760395328e-10 	0.0001420194393 	-5.311634379e-10 	2.707285235e-07
0.9979511844 	1.157343796e-05 	6.294821455e-07 	-6.578032878e-12 	1.159673963e-05 	-5.05424797e-11 	2.210660888e-08
0.9990482216 	1.464528743e-07 	8.413134007e-10 	-1.220628399e-14 	1.461779283e-07 	-8.860335231e-13 	2.786557593e-10
