0.3673995292 	3.567323107e-07 	-3.745080945e-09 	4.720365614e-12 	3.538633958e-07 	-2.930760695e-10 	6.745619837e-10
0.3673995292 	3.567323107e-07 	-3.745080945e-09 	4.720365614e-12 	3.538633958e-07 	-2.930760695e-10 	6.745619837e-10
0.3684829761 	3.112688536e-05 	-2.762556498e-06 	5.029890967e-09 	2.947299476e-05 	-3.520101881e-08 	5.618371961e-08
0.3695665877 	0.0003715271559 	-8.772691603e-05 	1.611197382e-07 	0.0003203483303 	-3.940235036e-07 	6.106729538e-07
0.3706502347 	0.001532524158 	-0.0005258627115 	7.671086646e-07 	0.001225619935 	-1.233631845e-06 	2.33637224e-06
0.3717337888 	0.003263442779 	-0.001274432317 	1.330464221e-06 	0.002516931505 	-1.784902531e-06 	4.797970994e-06
0.3728171224 	0.004880174169 	-0.002003078953 	1.419977107e-06 	0.003707671777 	-1.225867662e-06 	7.067852902e-06
0.3744841553 	0.00579571742 	-0.002423306294 	4.276161505e-07 	0.004389081366 	7.462916759e-07 	8.366808966e-06
0.3763660564 	0.005684936909 	-0.002348031031 	-1.412461903e-06 	0.004341793374 	3.425450798e-06 	8.276664911e-06
0.3784895005 	0.004934080973 	-0.001988452661 	-2.581328062e-06 	0.003820404108 	5.23239961e-06 	7.282752055e-06
0.3808839529 	0.004029497139 	-0.001596682237 	-3.111345518e-06 	0.003170417864 	4.956252036e-06 	6.043697621e-06
0.3836378911 	0.003243434254 	-0.001185528153 	-3.307566614e-06 	0.002671073796 	2.505339241e-06 	5.091809042e-06
0.3867652482 	0.002708635006 	-0.0008124381947 	-2.700809704e-06 	0.002435076312 	-8.242984498e-07 	4.641932246e-06
0.390290462 	0.002427822702 	-0.0005521196848 	-1.824082026e-06 	0.002427717061 	-3.649720844e-06 	4.627903467e-06
0.3942632783 	0.002299174975 	-0.0003672607222 	-1.191042344e-06 	0.002560139024 	-4.96315234e-06 	4.880336534e-06
0.3988211095 	0.002239461355 	-0.0002290216207 	-7.126605417e-07 	0.002747252601 	-5.189816113e-06 	5.237027017e-06
0.4039948728 	0.002204462145 	-0.0001142356689 	-4.348648008e-07 	0.002958251817 	-4.901712114e-06 	5.639250167e-06
0.4118367251 	0.002170097017 	-4.20974612e-07 	-2.964466475e-07 	0.003173776696 	-4.162896954e-06 	6.050100488e-06
0.420339507 	0.002127480752 	0.0001143909583 	-3.12544621e-07 	0.003357212341 	-3.310519044e-06 	6.39977981e-06
0.429540511 	0.002075640414 	0.0002295220278 	-3.488889969e-07 	0.003488920501 	-2.093857843e-06 	6.65085217e-06
0.4394675757 	0.002021020772 	0.0003417298764 	-1.545305167e-07 	0.003542294417 	-8.103505422e-07 	6.752597689e-06
0.450208819 	0.001974431165 	0.0004298710666 	1.013680769e-07 	0.003517062468 	-3.073070259e-07 	6.704498581e-06
0.4618721886 	0.001936772223 	0.000484420729 	2.185070785e-07 	0.003465246435 	-2.094563847e-07 	6.605722821e-06
0.4744877587 	0.001903767097 	0.0005126768747 	1.794544309e-07 	0.003415610885 	-1.338719234e-07 	6.511103667e-06
0.488139843 	0.001871355835 	0.0005288414736 	7.166360969e-08 	0.003369482432 	-4.832720565e-08 	6.423170015e-06
0.4975745988 	0.00185083623 	0.0005379399295 	-6.719741261e-08 	0.003341497691 	-2.210579059e-06 	6.36982332e-06
0.5028917562 	0.001839169766 	0.0005430200294 	3.873219206e-08 	0.003325427862 	-2.6456248e-08 	6.33918976e-06
0.5188499572 	0.00180885967 	0.0005571768131 	1.385080494e-07 	0.003284820772 	-9.05142989e-08 	6.26178136e-06
0.5361130653 	0.001781454921 	0.0005713506746 	2.274057114e-07 	0.003249824414 	-1.478956924e-07 	6.195068574e-06
0.5547594807 	0.001756950661 	0.000585947627 	3.023275451e-07 	0.003220294834 	-2.032653425e-07 	6.138776988e-06
0.574931013 	0.001734707991 	0.0006015560481 	3.60982266e-07 	0.003194095482 	-2.570334389e-07 	6.088833742e-06
0.596680164 	0.001714222377 	0.0006189585076 	4.011912074e-07 	0.003168245048 	-3.100112481e-07 	6.039555629e-06
0.6201143357 	0.00169502565 	0.0006386831761 	4.209730549e-07 	0.003139203008 	-3.608413806e-07 	5.98419343e-06
0.645332846 	0.0016765638 	0.0006609100608 	4.184994963e-07 	0.003102609816 	-4.051298821e-07 	5.914436636e-06
0.6724342449 	0.001658857591 	0.0006851927036 	3.953590577e-07 	0.003054706145 	-4.353937293e-07 	5.823118925e-06
0.6995933348 	0.001642961806 	0.0007097722521 	3.572859839e-07 	0.002995735227 	-4.459291603e-07 	5.710703964e-06
0.7249828856 	0.001630438372 	0.0007330095298 	3.135470838e-07 	0.002929890206 	-4.362239264e-07 	5.585185053e-06
0.7487060318 	0.001622737027 	0.0007549135408 	2.712484103e-07 	0.002861086684 	-4.083359654e-07 	5.454026417e-06
0.7708663551 	0.001621291377 	0.0007762648954 	2.338359032e-07 	0.002792393188 	-3.655616245e-07 	5.323077522e-06
0.7915646598 	0.001627710749 	0.0007978656407 	2.030268253e-07 	0.002727373703 	-3.115569349e-07 	5.199132312e-06
0.8108975394 	0.001643770548 	0.0008206137752 	1.793987597e-07 	0.002669918095 	-2.50064693e-07 	5.089605955e-06
0.8289546918 	0.001671435229 	0.000845579321 	1.628555326e-07 	0.0026239586 	-1.847935799e-07 	5.001994383e-06
0.8458208373 	0.00171294001 	0.0008740495554 	1.527120166e-07 	0.002593194422 	-1.189675662e-07 	4.94334931e-06
0.861574609 	0.001770838121 	0.0009074927865 	1.477510022e-07 	0.002580905017 	-5.525405991e-08 	4.919922288e-06
0.8762895743 	0.001847919437 	0.0009474453055 	1.461021337e-07 	0.002589820631 	3.905652281e-09 	4.936917926e-06
0.8900342399 	0.00194680848 	0.0009952731237 	1.450865694e-07 	0.00262207319 	5.56015651e-08 	4.998400268e-06
0.9028724742 	0.002069065133 	0.001051791142 	1.413101709e-07 	0.002679031928 	9.536905686e-08 	5.106979453e-06
0.9148639184 	0.002213828548 	0.001116768664 	1.311608097e-07 	0.00276050853 	1.164403092e-07 	5.262296501e-06
0.9260642485 	0.002376377072 	0.001188351723 	1.118529763e-07 	0.002863073549 	1.114424347e-07 	5.457813935e-06
0.9365254628 	0.00254734146 	0.001262593859 	8.324086307e-08 	0.002978149062 	7.788297237e-08 	5.677179847e-06
0.9462961394 	0.002713462427 	0.001333556306 	4.998977094e-08 	0.003091590996 	2.43685646e-08 	5.893431702e-06
0.9554216696 	0.002850866265 	0.001390694302 	2.418178171e-08 	0.003181062757 	-2.264933783e-08 	6.063989746e-06
0.9614619036 	0.00294856742 	0.001429330827 	1.428507095e-08 	0.003236265325 	-4.257768692e-08 	6.169221183e-06
0.9668091954 	0.003022845451 	0.001456457138 	2.094355536e-08 	0.003268208292 	-2.841668567e-08 	6.230113357e-06
0.9715429241 	0.003085456237 	0.001477199222 	4.297123931e-08 	0.003285999087 	2.126995044e-08 	6.264027557e-06
0.9757334019 	0.003136715741 	0.001492154551 	7.832140057e-08 	0.003292211376 	1.042373345e-07 	6.275869905e-06
0.9794429011 	0.003170329392 	0.001499141794 	1.218063295e-07 	0.003283933178 	2.089669119e-07 	6.260089359e-06
0.9827265717 	0.003167962616 	0.001490472845 	1.643092199e-07 	0.003245785743 	3.125493677e-07 	6.187369746e-06
0.9856332522 	0.003091785722 	0.001450172198 	1.959114698e-07 	0.003141018494 	3.84053003e-07 	5.987654251e-06
0.9882061891 	0.002875929434 	0.001346361249 	1.948105868e-07 	0.002902989066 	3.899318107e-07 	5.533904003e-06
0.9904836754 	0.002431023725 	0.00113471439 	1.519189493e-07 	0.00244151197 	3.143352956e-07 	4.654200398e-06
0.9924996163 	0.001753439568 	0.0008140931965 	9.00420462e-08 	0.001755440968 	1.936733662e-07 	3.346358385e-06
0.9938092065 	0.00101735213 	0.0004404822025 	3.51215278e-08 	0.0010178802 	9.010601843e-08 	1.940362566e-06
0.9951188621 	0.0004178534144 	0.000142769839 	6.761325541e-09 	0.0004181214671 	3.168464827e-08 	7.970557272e-07
0.9964285831 	9.146146752e-05 	1.875304626e-05 	7.264289945e-10 	9.14045563e-05 	8.168224016e-09 	1.742424889e-07
0.9977383696 	7.185193989e-06 	4.823357317e-07 	5.056173449e-11 	7.172576624e-06 	1.107912277e-09 	1.367292456e-08
0.9990482216 	7.577226842e-08 	5.46972144e-10 	1.671186051e-13 	7.562723758e-08 	2.316151251e-11 	1.441665343e-10
0.9990482216 	7.577226842e-08 	5.46972144e-10 	1.671186051e-13 	7.562723758e-08 	2.316151251e-11 	1.441665343e-10
