0.2739420079 	2.617390446e-07 	-3.312214088e-09 	4.152052215e-12 	2.577030588e-07 	2.404842388e-11 	4.912536549e-10
0.275272557 	2.83639683e-05 	-3.081471028e-06 	6.921548866e-09 	2.503186789e-05 	-1.615390316e-08 	4.771769744e-08
0.2766031854 	0.0003728428274 	-9.428029145e-05 	1.466966564e-07 	0.0002719650475 	-1.409617717e-07 	5.184409692e-07
0.2779335901 	0.001438916525 	-0.000469852551 	8.358836994e-08 	0.0009390901575 	1.642275e-07 	1.790166847e-06
0.2792634708 	0.002713951094 	-0.0009587163261 	-9.220619678e-07 	0.001701459255 	1.390906125e-06 	3.243454236e-06
0.2805925299 	0.003472313972 	-0.001244813377 	-2.313855451e-06 	0.002180356692 	2.421406929e-06 	4.156365853e-06
0.2826362867 	0.003573071202 	-0.001256805973 	-2.559458718e-06 	0.002328558855 	9.144745126e-07 	4.438880368e-06
0.2849408702 	0.003263364944 	-0.001063946011 	-2.509619601e-06 	0.002346212229 	-3.314063799e-06 	4.472532604e-06
0.2875370716 	0.002956585769 	-0.0008030746106 	-2.260299572e-06 	0.002502606844 	-7.180067166e-06 	4.770664209e-06
0.2904580691 	0.002761348898 	-0.0005668521757 	-1.276411153e-06 	0.002783586026 	-8.760933379e-06 	5.306288624e-06
0.2938196317 	0.002657530407 	-0.0004112734803 	-4.547601995e-07 	0.003080931758 	-8.669116298e-06 	5.873112232e-06
0.2976320779 	0.002582696186 	-0.0003101898811 	-4.867441848e-08 	0.003338479205 	-7.718679231e-06 	6.364069246e-06
0.3019179803 	0.002500990251 	-0.0002339645902 	-7.165024757e-09 	0.003531040149 	-6.03567889e-06 	6.731143926e-06
0.3067337774 	0.002399965025 	-0.0001617772559 	-1.006757294e-07 	0.003652574386 	-3.937534747e-06 	6.96282196e-06
0.3122569715 	0.002278166192 	-8.322052066e-05 	-9.654503017e-08 	0.003684826887 	-2.033481093e-06 	7.024304192e-06
0.3185112727 	0.0021326981 	9.633674083e-07 	5.052876357e-08 	0.003606768504 	-8.186363847e-07 	6.875503219e-06
0.3279565291 	0.0019794621 	7.248529332e-05 	1.114840438e-07 	0.003452273903 	-2.151604986e-07 	6.580993568e-06
0.3358853299 	0.001881329872 	0.0001035195831 	3.271610712e-07 	0.003323796922 	-2.538273917e-06 	6.336080735e-06
0.3381259885 	0.00185272388 	0.0001123361201 	2.544389074e-08 	0.003286412207 	-4.512762928e-08 	6.264815078e-06
0.3489508731 	0.001766650673 	0.0001265517219 	2.389026911e-07 	0.00316428286 	-1.716309319e-07 	6.032002598e-06
0.3605981766 	0.001718911027 	0.0001347916968 	5.066599241e-07 	0.00310358326 	-2.830686882e-07 	5.91629229e-06
0.3731708885 	0.001693929899 	0.0001438806825 	7.682177074e-07 	0.003083566888 	-4.365062689e-07 	5.878135522e-06
0.3867969958 	0.001669612634 	0.0001552149941 	1.040858724e-06 	0.003066685893 	-5.220409189e-07 	5.845955654e-06
0.4014972221 	0.001648116622 	0.0001697696928 	1.324391262e-06 	0.003055641551 	-6.88577561e-07 	5.824902068e-06
0.4173643717 	0.001617197544 	0.0001854812196 	1.625127833e-06 	0.003027472902 	-7.124138132e-07 	5.771204794e-06
0.4344885207 	0.001589991693 	0.000203953817 	1.917584418e-06 	0.00300620723 	-7.457279163e-07 	5.730666513e-06
0.4530046648 	0.00156875569 	0.0002244770061 	1.728948287e-06 	0.002995318902 	-6.850602868e-07 	5.709910334e-06
0.4729699124 	0.001549355842 	0.0002470269475 	1.491343297e-06 	0.002987997041 	-5.269196623e-07 	5.695952831e-06
0.4944634565 	0.001538337239 	0.0002731567319 	1.248022354e-06 	0.00299573656 	-5.031753136e-07 	5.710706505e-06
0.5176484568 	0.001527277223 	0.000301713044 	1.020489955e-06 	0.003002394404 	-4.161150567e-07 	5.723398206e-06
0.542569778 	0.001521044883 	0.0003353376884 	8.087663072e-07 	0.003015251929 	-3.843468821e-07 	5.747908222e-06
0.5693462178 	0.001515710287 	0.0003748834485 	6.188295601e-07 	0.003023713783 	-3.402535951e-07 	5.764038868e-06
0.5980874262 	0.00151223853 	0.0004216017273 	4.563927755e-07 	0.003025169409 	-3.071711928e-07 	5.766813696e-06
0.6289040372 	0.001509724662 	0.0004746963463 	3.261028488e-07 	0.003012006113 	-2.765802028e-07 	5.741720796e-06
0.6597287896 	0.001508441674 	0.0005294059827 	2.328610002e-07 	0.002981238409 	-2.537893858e-07 	5.683068999e-06
0.6885070106 	0.001509092325 	0.0005813542942 	1.670618877e-07 	0.00293465212 	-2.372401944e-07 	5.594262585e-06
0.7153735372 	0.001512665933 	0.0006286454299 	1.248446942e-07 	0.00287626308 	-2.12562457e-07 	5.482956847e-06
0.7404577418 	0.001520503022 	0.0006707287782 	1.233905585e-07 	0.002809520935 	-1.536392619e-07 	5.355727767e-06
0.763881608 	0.001534250111 	0.0007072228398 	1.50085502e-07 	0.00273842745 	-7.88939674e-08 	5.220203826e-06
0.7857594625 	0.001555155758 	0.0007390493693 	1.74120913e-07 	0.002668367419 	-1.940241781e-08 	5.086649934e-06
0.8061955834 	0.001583207302 	0.000770317566 	1.85565777e-07 	0.002606691785 	2.836655708e-08 	4.969079034e-06
0.8252873287 	0.001619521409 	0.0008049208433 	1.751340458e-07 	0.002559389399 	6.722118807e-08 	4.87890754e-06
0.8431242394 	0.001667670658 	0.0008432506628 	1.4320377e-07 	0.002529309162 	1.022319286e-07 	4.821566248e-06
0.8597896056 	0.001732047072 	0.0008842219974 	9.515008659e-08 	0.002518357213 	1.361167421e-07 	4.800688789e-06
0.8753606451 	0.001816394113 	0.0009292399699 	6.366543279e-08 	0.002529351012 	1.823529178e-07 	4.821646025e-06
0.8899091601 	0.00192425875 	0.0009814292646 	7.61397389e-08 	0.002565649571 	2.50676848e-07 	4.890841167e-06
0.9035021065 	0.002059124312 	0.00104313383 	1.098225391e-07 	0.002630322059 	3.292161784e-07 	5.014124904e-06
0.9162019423 	0.00222207203 	0.001115653792 	1.38666343e-07 	0.002725731794 	3.985145227e-07 	5.196002377e-06
0.9280669907 	0.002408991509 	0.001197663772 	1.516101117e-07 	0.002850049879 	4.327057843e-07 	5.432987201e-06
0.939151752 	0.00260761837 	0.001284145953 	1.371423311e-07 	0.002992689739 	4.024360801e-07 	5.704898417e-06
0.9495071738 	0.002783878278 	0.001360240168 	9.635911401e-08 	0.003122794733 	3.073530653e-07 	5.952914697e-06
0.9563628554 	0.002910913322 	0.001413945756 	4.684654909e-08 	0.003213379398 	1.862366803e-07 	6.125594246e-06
0.962432965 	0.002998561904 	0.001449168753 	5.025298902e-09 	0.003267347123 	7.661703783e-08 	6.228471728e-06
0.9678072944 	0.003057621522 	0.001470365516 	-2.423666142e-08 	0.003291016918 	-1.077674663e-08 	6.273592937e-06
0.9725654226 	0.003088142384 	0.001477470701 	-3.513379287e-08 	0.003283844073 	-6.029182027e-08 	6.2599195e-06
0.9767778614 	0.00308739702 	0.001469373465 	-2.632875716e-08 	0.003243888678 	-6.433047021e-08 	6.183753413e-06
0.9805070848 	0.00304515069 	0.001441776004 	-1.901573665e-09 	0.003163076057 	-2.768884735e-08 	6.029702096e-06
0.9838084378 	0.00293711958 	0.001384132822 	2.732220801e-08 	0.003019534555 	2.601802312e-08 	5.756072098e-06
0.9867309446 	0.002716366238 	0.001275700455 	3.81896264e-08 	0.002767521034 	5.178707542e-08 	5.275664284e-06
0.9893180269 	0.002307713598 	0.00108004437 	1.178322834e-08 	0.002332631158 	6.073292787e-09 	4.446643308e-06
0.9916081409 	0.001689156582 	0.0007850766144 	-2.919446689e-08 	0.00169794175 	-7.948056859e-08 	3.236748894e-06
0.9930959046 	0.0009978840311 	0.0004329581874 	-4.820319958e-08 	0.00100103706 	-1.157303796e-07 	1.908254861e-06
0.9945837944 	0.000414414837 	0.0001436066749 	-2.8180008e-08 	0.0004154202677 	-6.702723185e-08 	7.919064904e-07
0.9960718106 	8.972947193e-05 	1.885372478e-05 	-3.381788495e-09 	8.97534284e-05 	-1.101350723e-08 	1.710949802e-07
0.9975599529 	6.680877516e-06 	4.544066356e-07 	4.143746977e-11 	6.670260828e-06 	4.961074623e-10 	1.271537104e-08
0.9990482216 	6.21614543e-08 	4.330988582e-10 	3.242751793e-13 	6.204264926e-08 	3.256296006e-11 	1.182705333e-10
0.9990482216 	6.21614543e-08 	4.330988582e-10 	3.242751793e-13 	6.204264926e-08 	3.256296006e-11 	1.182705333e-10
