6.483489025e-34 	0.00786019759 	-5.338245994e-16 	-1.940311127e-22 	3.625464878e-29 	1.317760525e-35 	4.789710726e-42
0.001935329056 	0.007853814487 	-4.737077509e-05 	7.540450947e-09 	0.008770838513 	-1.250083677e-06 	1.671965593e-05
0.003870646918 	0.007852148307 	-0.0001058998531 	2.517217216e-08 	0.008808795141 	-1.245261277e-06 	1.679201182e-05
0.005805953543 	0.007856907342 	-0.000158579296 	3.79167864e-08 	0.008817302627 	-1.231865377e-06 	1.680822945e-05
0.00774124892 	0.007858121153 	-0.0002109888878 	4.994497034e-08 	0.008827551987 	-1.219076414e-06 	1.682776758e-05
0.009676533077 	0.007861270989 	-0.0002708180068 	6.326023378e-08 	0.008836181463 	-1.205961182e-06 	1.684421776e-05
0.0126558162 	0.00786651068 	-0.0003474722996 	7.945313776e-08 	0.008849574491 	-1.18575474e-06 	1.686974859e-05
0.0160218712 	0.007874358721 	-0.0004390434861 	9.800299302e-08 	0.008870374116 	-1.164957933e-06 	1.690939846e-05
0.01982490545 	0.00788522937 	-0.0005424417852 	1.177979324e-07 	0.008899437771 	-1.143475479e-06 	1.696480186e-05
0.02413483307 	0.007900040679 	-0.0006591379123 	1.38559646e-07 	0.008939418012 	-1.119970456e-06 	1.704101531e-05
0.02900746903 	0.007919990684 	-0.000790640044 	1.600497794e-07 	0.008993443105 	-1.096053687e-06 	1.714400216e-05
0.03451265705 	0.007946540392 	-0.0009385415682 	1.818627427e-07 	0.009065347337 	-1.071968812e-06 	1.728107161e-05
0.04073250544 	0.007981570966 	-0.001104656695 	2.034446212e-07 	0.009159728275 	-1.047380741e-06 	1.746098791e-05
0.0477826567 	0.008027380077 	-0.001291009358 	2.238329547e-07 	0.009282028446 	-1.020192554e-06 	1.769412602e-05
0.05574940349 	0.008086435391 	-0.001499328373 	2.421078742e-07 	0.009438631836 	-9.908092065e-07 	1.799265561e-05
0.06476049349 	0.008169376033 	-0.001753422401 	2.599858937e-07 	0.00965633112 	-9.61089633e-07 	1.840765095e-05
0.07840541888 	0.008290061858 	-0.002071674415 	2.672523166e-07 	0.009963326706 	-8.976177294e-07 	1.899286987e-05
0.09305181054 	0.008443758757 	-0.002422707735 	2.645504028e-07 	0.01033846762 	-8.216765095e-07 	1.970799272e-05
0.1087667242 	0.008619570102 	-0.002779385493 	2.473749871e-07 	0.01075018242 	-7.235370073e-07 	2.049283556e-05
0.1256313686 	0.008810579596 	-0.003135094465 	2.151147857e-07 	0.01117917593 	-5.996803247e-07 	2.131061642e-05
0.1437313485 	0.009005031543 	-0.003480521059 	1.680341773e-07 	0.01159792135 	-4.497596462e-07 	2.210886157e-05
0.1631570974 	0.009185376993 	-0.003801747583 	1.073643152e-07 	0.01196819388 	-2.772004944e-07 	2.281470392e-05
0.1840043494 	0.009327113392 	-0.004074911971 	3.658295111e-08 	0.01224046801 	-9.232908736e-08 	2.33337341e-05
0.1952923877 	0.009366170696 	-0.004186661665 	5.316992065e-06 	0.01229441282 	-2.672265648e-05 	2.343656789e-05
0.2063746485 	0.009404552893 	-0.004296424095 	3.805504581e-08 	0.01234730408 	-8.738413934e-08 	2.353739334e-05
0.2303758959 	0.009374714755 	-0.004454684105 	1.146978004e-07 	0.01223457992 	-2.374539402e-07 	2.332250975e-05
0.2561229333 	0.009169440554 	-0.004504763907 	1.732232616e-07 	0.01186327462 	-3.379276407e-07 	2.261469865e-05
0.2837387559 	0.008714349294 	-0.004407479421 	2.029644787e-07 	0.01116582317 	-3.512910109e-07 	2.128516235e-05
0.3133605011 	0.007928887536 	-0.004115229035 	1.758000464e-07 	0.01005230513 	-2.344846091e-07 	1.916248747e-05
0.3451213801 	0.00673444985 	-0.003563906233 	6.209593662e-08 	0.008440850613 	4.354359201e-08 	1.609060728e-05
0.3791749318 	0.005113663858 	-0.002696153432 	-1.401639411e-07 	0.006336685313 	4.278851302e-07 	1.20794834e-05
0.4156786692 	0.003324564489 	-0.001636768009 	-2.583705834e-07 	0.004070744329 	6.262554667e-07 	7.759970095e-06
0.4548022144 	0.002005644782 	-0.0007783324879 	-1.870959901e-07 	0.002328807062 	4.308802806e-07 	4.439353518e-06
0.4967273963 	0.001481895657 	-0.0002413309805 	-7.919988285e-08 	0.001516840896 	1.397065142e-07 	2.891520331e-06
0.5386674328 	0.001465027823 	0.000141872509 	-1.033274798e-08 	0.001450839459 	3.48416354e-08 	2.765703248e-06
0.5778332805 	0.001655170155 	0.0004416975649 	2.643082333e-08 	0.001760480887 	5.420132359e-08 	3.355965872e-06
0.6144050965 	0.001947052006 	0.0007053606132 	4.62022172e-08 	0.002219004903 	1.033052329e-07 	4.230040085e-06
0.6485527742 	0.002307334498 	0.0009642547254 	6.742632699e-08 	0.002750717222 	1.577863512e-07 	5.243631548e-06
0.6804359545 	0.002724705998 	0.001234417258 	8.372586811e-08 	0.003339824617 	2.115407394e-07 	6.366633976e-06
0.7102043027 	0.003209489071 	0.001497149018 	9.933701377e-08 	0.003980270907 	2.68532781e-07 	7.587502607e-06
0.7379976686 	0.003767580897 	0.001760123057 	1.194160596e-07 	0.004685547417 	3.233602253e-07 	8.931955657e-06
0.7639469474 	0.00437296327 	0.002044731805 	1.253495479e-07 	0.00545056737 	3.426691165e-07 	1.039029631e-05
0.7881743872 	0.004970469503 	0.002325855566 	1.061617542e-07 	0.006209999795 	2.959202692e-07 	1.183798559e-05
0.8107941812 	0.005495930329 	0.002573812546 	6.184213954e-08 	0.006885947837 	1.817224274e-07 	1.312653043e-05
0.8319129813 	0.005903785287 	0.002767041773 	1.172604613e-09 	0.007420711656 	2.263133936e-08 	1.41459389e-05
0.8516303754 	0.00616925739 	0.002893793858 	-6.483323003e-08 	0.007781919284 	-1.527286744e-07 	1.483450103e-05
0.8700393505 	0.006284267493 	0.002950302139 	-1.242124188e-07 	0.007958049111 	-3.127877552e-07 	1.517025343e-05
0.8872267278 	0.006259734208 	0.002941109563 	-1.671441819e-07 	0.007958890543 	-4.315947673e-07 	1.517185743e-05
0.903273569 	0.006122464624 	0.002876922508 	-1.983182533e-07 	0.007810871772 	-5.017907e-07 	1.488969252e-05
0.9182555581 	0.005906119499 	0.002752026963 	-2.113925467e-07 	0.007534041569 	-5.227912288e-07 	1.436197721e-05
0.9322433571 	0.005649762602 	0.002589812916 	-1.931909958e-07 	0.007179785796 	-4.966743999e-07 	1.368666725e-05
0.9414993065 	0.005399715131 	0.002446470211 	-1.63327826e-07 	0.006837619557 	-4.485497217e-07 	1.303440329e-05
0.9496916368 	0.005161572964 	0.002325761472 	-1.36519135e-07 	0.006520572664 	-3.960704373e-07 	1.24300238e-05
0.9569425705 	0.004919330187 	0.002212417397 	-1.103762464e-07 	0.006204852225 	-3.395041368e-07 	1.182817289e-05
0.9633602853 	0.004673183517 	0.002105921859 	-8.574845672e-08 	0.005891259175 	-2.812942821e-07 	1.123037738e-05
0.969040528 	0.004420452182 	0.002003894113 	-6.344584839e-08 	0.005576544382 	-2.231253131e-07 	1.063044351e-05
0.974068043 	0.004154567861 	0.001901561162 	-4.404911776e-08 	0.005251398045 	-1.672607591e-07 	1.001062422e-05
0.9785178364 	0.003861164804 	0.00179190639 	-2.680164482e-08 	0.004897363773 	-1.149887651e-07 	9.335736503e-06
0.9824562955 	0.0035109067 	0.001645856925 	-1.95994022e-08 	0.004463790236 	-7.404693439e-08 	8.509224837e-06
0.9859421785 	0.003036484974 	0.001424755189 	-1.584114502e-08 	0.003855082972 	-4.506349788e-08 	7.34885961e-06
0.9890274919 	0.00236616974 	0.001106496776 	-5.565642371e-09 	0.002994190502 	-2.133148407e-08 	5.707759288e-06
0.9910316378 	0.001554243359 	0.0006997280144 	9.008557022e-10 	0.001942302937 	-5.816168319e-09 	3.702569233e-06
0.9930357838 	0.0007204215562 	0.0002816361126 	1.491453241e-09 	0.0008645119625 	8.090983257e-11 	1.648000079e-06
0.9950399297 	0.0001653607288 	4.329562923e-05 	5.147241769e-10 	0.000181224865 	4.600152466e-10 	3.454649615e-07
0.9970440756 	1.115408573e-05 	9.06682747e-07 	1.580741274e-11 	1.123726792e-05 	2.516609844e-11 	2.14213559e-08
0.9990482216 	7.953252377e-08 	5.391495005e-10 	1.145068968e-14 	7.938406153e-08 	2.646847032e-13 	1.513280849e-10
0.9990482216 	7.953252377e-08 	5.391495005e-10 	1.145068968e-14 	7.938406153e-08 	2.646847032e-13 	1.513280849e-10
