0.3524915403 	0.05560807033 	0.009019624886 	-2.98060593e-05
0.3536068642 	0.214760916 	0.03416161003 	-0.0001162464577
0.3547223496 	0.4205196459 	0.06597217826 	-0.0002282206417
0.3558378442 	0.6076676413 	0.0947130718 	-0.000331556653
0.3569531967 	0.7637109234 	0.1189598815 	-0.0004188084565
0.3580682569 	0.8993537648 	0.1402223007 	-0.0004933155975
0.35978394 	1.024109645 	0.159521333 	-0.0005636957359
0.361720438 	1.127220581 	0.1749908973 	-0.0006180378789
0.3639049575 	1.205051019 	0.1860882705 	-0.0006499495093
0.3663674413 	1.259144009 	0.193209289 	-0.0006463504913
0.36920096 	1.29245735 	0.1967381021 	-0.0005987712172
0.3724184949 	1.310576765 	0.1974719872 	-0.0005507841638
0.3760438857 	1.319723258 	0.1965089887 	-0.0005080546359
0.3801277765 	1.32451768 	0.1946199846 	-0.0004667758259
0.3848143963 	1.327291756 	0.1920948244 	-0.0004234453418
0.3901331779 	1.329022534 	0.1887438255 	-0.0003764877167
0.3981914987 	1.329885854 	0.1842799851 	-0.0003139931453
0.4069277984 	1.329690058 	0.1791512744 	-0.0002525984907
0.4163791821 	1.328422891 	0.1736922848 	-0.0001918258106
0.4265723647 	1.325916186 	0.1677794816 	-0.0001342549382
0.4375983103 	1.322199139 	0.161400641 	-8.264339994e-05
0.4495688352 	1.317671686 	0.1547378413 	-3.623878505e-05
0.4609124074 	1.313281958 	0.1487328244 	-5.43862058e-05
0.4625033521 	1.31265558 	0.1478936513 	-4.480045307e-06
0.4764361663 	1.307157962 	0.1408754315 	-3.78632083e-05
0.4915177733 	1.301177989 	0.133659051 	-6.570445181e-05
0.5078705597 	1.294699287 	0.1262643663 	-8.781665534e-05
0.5255559403 	1.287725838 	0.118718068 	-0.000103982771
0.5446528007 	1.280257974 	0.1110498548 	-0.0001142883202
0.5653073198 	1.272280888 	0.1032757011 	-0.0001190718988
0.5875706324 	1.263759302 	0.09542092402 	-0.000118794561
0.6115522574 	1.25462357 	0.08750902685 	-0.0001141842555
0.6373531822 	1.244748603 	0.07954616751 	-0.0001060453234
0.6650736862 	1.234145498 	0.07166987447 	-9.551261521e-05
0.6928473989 	1.223207436 	0.06427243589 	-8.411959253e-05
0.7188076063 	1.212365731 	0.05764399654 	-7.331458093e-05
0.7430616173 	1.20168814 	0.05175168131 	-6.36108822e-05
0.7657166274 	1.191068152 	0.04647662317 	-5.508756674e-05
0.7868765632 	1.180402538 	0.04172661859 	-4.768791999e-05
0.8066407466 	1.169587055 	0.03742709054 	-4.129981781e-05
0.825101173 	1.158516028 	0.03351719218 	-3.57961473e-05
0.8423446134 	1.14707946 	0.02994730572 	-3.105305429e-05
0.8584514973 	1.135153894 	0.02667674349 	-2.695917934e-05
0.8734970175 	1.122586687 	0.02367098945 	-2.341509133e-05
0.8875511498 	1.109175591 	0.02090073796 	-2.033628302e-05
0.900679109 	1.094647108 	0.01834033235 	-1.76528155e-05
0.9129417823 	1.078644788 	0.01596621251 	-1.530461045e-05
0.9243960038 	1.060743294 	0.01375613319 	-1.323776732e-05
0.9350948531 	1.040485599 	0.01168907131 	-1.140392678e-05
0.9450879208 	1.01740425 	0.009745763618 	-9.76328416e-06
0.954421548 	0.9929544179 	0.008035673001 	-8.353966801e-06
0.9605997311 	0.9701355872 	0.006686420801 	-7.284821571e-06
0.9660692856 	0.948160585 	0.005579841885 	-6.385568359e-06
0.9709113578 	0.9246396448 	0.004589837507 	-5.55623881e-06
0.9751978312 	0.8986458885 	0.00370912896 	-4.777488601e-06
0.9789923751 	0.8687761154 	0.002930553755 	-4.036445357e-06
0.9823513805 	0.8330494446 	0.002246042874 	-3.327979767e-06
0.9853247881 	0.7888236094 	0.001646561137 	-2.647786756e-06
0.987956823 	0.7327258617 	0.001136786702 	-1.986123355e-06
0.9902866465 	0.6606671324 	0.0007578017435 	-1.370635179e-06
0.9923489342 	0.5748045266 	0.0006097352971 	-9.057683536e-07
0.993688642 	0.4842421299 	0.0005439325745 	-6.309955911e-07
0.9950284246 	0.3839512669 	0.0002676011129 	-4.115045436e-07
0.9963682821 	0.2669873861 	-2.978143211e-05 	-1.757883543e-07
0.9977082144 	0.1382157234 	-0.0001287151146 	1.474390398e-08
0.9990482216 	0.03989475535 	-7.826648974e-05 	5.033931343e-08
0.9990482216 	0.03989475535 	-7.826648974e-05 	5.033931343e-08
