0.4709558481 	2.275217495e-07 	-1.834685537e-09 	2.160605814e-14 	2.271051295e-07 	-1.855431413e-12 	4.329254974e-10
0.4709558481 	2.275217495e-07 	-1.834685537e-09 	2.160605814e-14 	2.271051295e-07 	-1.855431413e-12 	4.329254974e-10
0.4720092239 	1.866239133e-05 	-1.334783542e-06 	1.55720602e-11 	1.875982978e-05 	-1.540042389e-10 	3.576144958e-08
0.4730625996 	0.0002125465338 	-4.584297223e-05 	4.931506928e-10 	0.0002263947582 	-1.880956535e-09 	4.315713324e-07
0.4741159754 	0.0009039623819 	-0.000316472994 	2.801386481e-09 	0.00105319032 	-8.019738805e-09 	2.00767347e-06
0.4751693511 	0.002101063094 	-0.0009036779129 	6.364053139e-09 	0.002589620749 	-1.657076801e-08 	4.936536895e-06
0.4762227269 	0.003538886876 	-0.001637334947 	8.680932985e-09 	0.004462348756 	-2.276951156e-08 	8.506476975e-06
0.4778443634 	0.004902237912 	-0.002298685159 	9.597617379e-09 	0.006210388812 	-2.565253478e-08 	1.183872716e-05
0.4796765386 	0.005893908166 	-0.002766327653 	9.599337423e-09 	0.007475229758 	-2.555048747e-08 	1.424986555e-05
0.4817465869 	0.00650903304 	-0.003054076437 	8.702536695e-09 	0.008256456546 	-2.313973601e-08 	1.573910094e-05
0.4840853915 	0.006865190081 	-0.003220285309 	7.253811034e-09 	0.008705030733 	-1.907575907e-08 	1.659420802e-05
0.4867278453 	0.007045114251 	-0.003304122507 	5.218770727e-09 	0.00893023836 	-1.338557778e-08 	1.702351634e-05
0.4897133715 	0.007100875524 	-0.003329945729 	2.530761196e-09 	0.008998299973 	-5.895605057e-09 	1.71532607e-05
0.4930865115 	0.007062910248 	-0.003311883388 	-9.433558004e-10 	0.008947354604 	3.756247764e-09 	1.705614466e-05
0.4968975894 	0.006947918283 	-0.003257735084 	-5.403307542e-09 	0.008798453006 	1.611172508e-08 	1.677229683e-05
0.5012034633 	0.006763973067 	-0.003171227003 	-1.111088736e-08 	0.00856164917 	3.187280851e-08 	1.632088291e-05
0.506068373 	0.006486530965 	-0.003040760626 	-1.912158075e-08 	0.008205321569 	5.389350634e-08 	1.564162346e-05
0.5134203412 	0.006069213276 	-0.002844687045 	-3.083662015e-08 	0.007670846137 	8.590023966e-08 	1.462276474e-05
0.5212948542 	0.005527262589 	-0.002590254001 	-4.582188703e-08 	0.006978569949 	1.265530437e-07 	1.330309392e-05
0.529729052 	0.004899962728 	-0.002296072138 	-6.249143742e-08 	0.006179786281 	1.714197426e-07 	1.178039023e-05
0.5387627144 	0.004210646229 	-0.001973181718 	-7.675902493e-08 	0.005305039118 	2.096623559e-07 	1.011287902e-05
0.5484384488 	0.003517303566 	-0.001648126135 	-8.147544602e-08 	0.004426353213 	2.222043275e-07 	8.437859465e-06
0.5588018907 	0.002893442247 	-0.001327737999 	-9.144502315e-08 	0.003613083347 	2.176108821e-07 	6.887541065e-06
0.5699019192 	0.002380892207 	-0.001007074702 	-9.757991493e-08 	0.002896520866 	1.989712937e-07 	5.521573817e-06
0.5817908876 	0.001995843561 	-0.0007143986516 	-8.81627328e-08 	0.002317819991 	1.569126119e-07 	4.418409107e-06
0.5945248701 	0.001747105137 	-0.0004703466317 	-7.667931731e-08 	0.001916848564 	1.034149102e-07 	3.654046124e-06
0.6081639266 	0.001619337379 	-0.0002660899854 	-6.775656358e-08 	0.00169119531 	5.332740039e-08 	3.223888303e-06
0.6227723857 	0.001576103553 	-8.671385474e-05 	-6.455942097e-08 	0.001606491567 	1.560768372e-08 	3.062419428e-06
0.638419148 	0.001581880559 	7.539961734e-05 	-6.171686478e-08 	0.001619996237 	-1.132266364e-08 	3.088163083e-06
0.6551780116 	0.001614156864 	0.00022261661 	-5.824321892e-08 	0.001696908804 	-3.041784562e-08 	3.234779812e-06
0.6731280194 	0.001663031833 	0.0003585814018 	-5.356475855e-08 	0.001814497635 	-4.308652548e-08 	3.458936806e-06
0.6923538328 	0.001725213669 	0.000485940939 	-4.594951054e-08 	0.001959143473 	-4.824463474e-08 	3.734671974e-06
0.7129461301 	0.001801102138 	0.0006068083146 	-3.429006167e-08 	0.002123542459 	-4.386812008e-08 	4.048062135e-06
0.7350020349 	0.001892724274 	0.0007218615151 	-1.884577373e-08 	0.002302853233 	-2.863663012e-08 	4.389878308e-06
0.7570579485 	0.002000688107 	0.0008294924385 	-1.906133425e-09 	0.002491018256 	-4.748401542e-09 	4.748573139e-06
0.7776502527 	0.002125337627 	0.0009305977809 	1.547365981e-08 	0.002685943759 	2.420077906e-08 	5.120155325e-06
0.7968760713 	0.002269897789 	0.001032567597 	2.559260012e-08 	0.002895044241 	5.215216522e-08 	5.51875896e-06
0.814826083 	0.002443531842 	0.001137129486 	3.320938529e-08 	0.003127534122 	8.270917032e-08 	5.961949291e-06
0.831584949 	0.002658158558 	0.00124627003 	4.627730172e-08 	0.003396485833 	1.195462257e-07 	6.474646002e-06
0.8472317127 	0.002921228329 	0.001370564915 	5.899452251e-08 	0.003719289919 	1.555756744e-07 	7.09000031e-06
0.8618401721 	0.00323442464 	0.001516616721 	6.994597976e-08 	0.004105039393 	1.865366428e-07 	7.825346019e-06
0.8754792281 	0.00359353269 	0.001684369913 	7.773751222e-08 	0.00455111331 	2.086768551e-07 	8.675686884e-06
0.8882132094 	0.003986738372 	0.001868317571 	8.113133633e-08 	0.005043009069 	2.189168156e-07 	9.613376917e-06
0.9001021759 	0.004394727421 	0.002059415454 	7.977680959e-08 	0.005556406363 	2.162722023e-07 	1.059205485e-05
0.9112022019 	0.004796679705 	0.002247899808 	7.438655396e-08 	0.006064786562 	2.025236011e-07 	1.156116881e-05
0.9215656407 	0.005175736319 	0.002425823935 	6.623805987e-08 	0.006546331834 	1.810400299e-07 	1.247912793e-05
0.9312413717 	0.005520066769 	0.002587586265 	5.672374815e-08 	0.006985442731 	1.555721255e-07 	1.331619535e-05
0.9402750304 	0.005822016346 	0.002729539008 	4.702590348e-08 	0.00737175556 	1.293467429e-07 	1.405261497e-05
0.9487092242 	0.006076289235 	0.002849081178 	3.796317249e-08 	0.007697723883 	1.046353138e-07 	1.467400119e-05
0.9565837329 	0.00627683902 	0.002943361606 	3.000424499e-08 	0.007955229415 	8.277635447e-08 	1.516487831e-05
0.9639356968 	0.006406551883 	0.003004455403 	2.378608878e-08 	0.008122487077 	6.559338413e-08 	1.54837179e-05
0.9688006083 	0.006467810857 	0.003033411133 	1.954762145e-08 	0.008202128077 	5.382098026e-08 	1.563553578e-05
0.9731064834 	0.006482375223 	0.003040353115 	1.655541867e-08 	0.008221691654 	4.548112651e-08 	1.567282939e-05
0.976917562 	0.006452336309 	0.003026340911 	1.424741153e-08 	0.008184262111 	3.903639887e-08 	1.560147828e-05
0.9802907021 	0.006367299471 	0.002986560699 	1.247132951e-08 	0.008076923324 	3.407423057e-08 	1.539686072e-05
0.9832762282 	0.006209048291 	0.002912505902 	1.110044731e-08 	0.007876757747 	3.024787109e-08 	1.50152895e-05
0.9859186816 	0.005947145432 	0.002790020135 	1.002702021e-08 	0.007545564774 	2.726242455e-08 	1.438394364e-05
0.9882574856 	0.005532705388 	0.002596244834 	9.138196339e-09 	0.007021137203 	2.482208804e-08 	1.338423893e-05
0.990327533 	0.004893488047 	0.00229578746 	8.301511677e-09 	0.006207145453 	2.251757174e-08 	1.183254442e-05
0.9921597073 	0.003940822046 	0.001846756658 	7.253968162e-09 	0.004992252395 	1.963295182e-08 	9.516620589e-06
0.9937813429 	0.002722916568 	0.00124474673 	5.66339857e-09 	0.003420909367 	1.53490988e-08 	6.521204046e-06
0.9948347186 	0.001531680199 	0.0006310235589 	3.479288025e-09 	0.001863803895 	9.758342314e-09 	3.55292824e-06
0.9958880943 	0.0006258028867 	0.0002022988211 	1.325351446e-09 	0.0007152765233 	4.225110615e-09 	1.363515854e-06
0.9969414701 	0.0001419751081 	2.679781483e-05 	2.007309621e-10 	0.0001490211031 	9.268704414e-10 	2.840756407e-07
0.9979948458 	1.232970653e-05 	7.468202092e-07 	5.868304977e-12 	1.236882913e-05 	7.649240379e-11 	2.357842607e-08
0.9990482216 	1.646442764e-07 	1.116882154e-09 	8.780177762e-15 	1.643396089e-07 	1.014374158e-12 	3.132769703e-10
