0.4327753378 	1.605812151e-07 	-8.57921405e-10 	3.436033431e-12 	1.60632657e-07 	-2.850348393e-10 	3.062104898e-10
0.4327753378 	1.605812151e-07 	-8.57921405e-10 	3.436033431e-12 	1.60632657e-07 	-2.850348393e-10 	3.062104898e-10
0.4338772721 	1.371207492e-05 	-7.086236882e-07 	2.084268681e-09 	1.398116621e-05 	-1.879172277e-08 	2.665198866e-08
0.4349792558 	0.0001580845889 	-2.755247138e-05 	5.951862051e-08 	0.0001692974646 	-1.789089526e-07 	3.227280212e-07
0.4360812236 	0.0006931457985 	-0.0002223114968 	3.319099162e-07 	0.000784149491 	-5.596041724e-07 	1.494806873e-06
0.4371831111 	0.001676902649 	-0.0007229125253 	7.168560298e-07 	0.001967243021 	-7.377133358e-07 	3.750111965e-06
0.438284854 	0.00294277808 	-0.001437119573 	8.043860366e-07 	0.003505911406 	-2.911742905e-07 	6.683241557e-06
0.439980521 	0.004220130071 	-0.002119201793 	5.698340986e-07 	0.00503209585 	6.373980408e-07 	9.592573289e-06
0.4418954567 	0.005207109308 	-0.002611709502 	2.601288228e-07 	0.006181648178 	1.662990828e-06 	1.178393953e-05
0.4440574903 	0.00585113229 	-0.002925133455 	-4.570796554e-08 	0.006900664574 	2.489500226e-06 	1.315458462e-05
0.4465121601 	0.006239332855 	-0.003112820241 	-2.971553423e-07 	0.0073012041 	2.991191204e-06 	1.391812428e-05
0.4492868824 	0.006444368451 	-0.003208975062 	-4.48304749e-07 	0.007476642737 	3.136341979e-06 	1.425255908e-05
0.4524193417 	0.006523878248 	-0.003241869958 	-5.105888902e-07 	0.007497515413 	2.995687048e-06 	1.42923482e-05
0.4559554006 	0.006518435192 	-0.003231557723 	-5.175222067e-07 	0.007412409475 	2.676828689e-06 	1.413011263e-05
0.4599707967 	0.00645326098 	-0.003190514103 	-5.023099001e-07 	0.007252501674 	2.285561826e-06 	1.382528392e-05
0.464503981 	0.006343479034 	-0.003126151561 	-4.911511711e-07 	0.007037015995 	1.917006003e-06 	1.341450832e-05
0.4696303012 	0.006179681605 	-0.003033081011 	-4.962521558e-07 	0.006751990135 	1.615730306e-06 	1.287116982e-05
0.477393966 	0.005935423439 	-0.002897189845 	-4.88883783e-07 	0.006364854537 	1.304905545e-06 	1.213318177e-05
0.4857273663 	0.00561663119 	-0.002722801099 	-4.560160478e-07 	0.005896500721 	9.678364767e-07 	1.124036922e-05
0.494665021 	0.005240419539 	-0.00252028944 	-4.100396537e-07 	0.005379729514 	6.372154431e-07 	1.025525967e-05
0.5042536707 	0.004807770933 	-0.002290311198 	-3.925248591e-07 	0.00481625066 	4.173304155e-07 	9.181112366e-06
0.5145418952 	0.004323009596 	-0.002026003098 	-5.036685241e-07 	0.004209923525 	3.806973615e-07 	8.025284326e-06
0.5255804116 	0.003802647492 	-0.001730728711 	-7.187445886e-07 	0.003578156263 	4.954080843e-07 	6.820960334e-06
0.5374224194 	0.003280567001 	-0.001404331634 	-8.947391113e-07 	0.002958813113 	5.616721217e-07 	5.640320153e-06
0.5501239917 	0.002793330278 	-0.001055041117 	-8.862725601e-07 	0.002393770739 	3.971595513e-07 	4.563192343e-06
0.5637445137 	0.002376314865 	-0.000726703217 	-6.707311939e-07 	0.001913532473 	9.240688619e-08 	3.647724732e-06
0.5783471685 	0.002066023328 	-0.0004487348116 	-4.739499422e-07 	0.001534524533 	-1.579972662e-07 	2.925230259e-06
0.5940000683 	0.001886595219 	-0.0002185053251 	-4.666055188e-07 	0.001258130269 	-2.952054315e-07 	2.398345972e-06
0.6107820558 	0.001830535972 	-2.489238066e-05 	-5.679919722e-07 	0.001072852373 	-3.889728011e-07 	2.045154807e-06
0.6287644862 	0.001850482339 	0.0001333532619 	-5.859599007e-07 	0.0009752728015 	-5.087747136e-07 	1.859141023e-06
0.6480354667 	0.001881363188 	0.0002229563757 	-5.612768429e-07 	0.001014596613 	-4.975421147e-07 	1.934103138e-06
0.6686833505 	0.001980996346 	0.0002963623356 	-5.828288803e-07 	0.001164959533 	-4.282046123e-07 	2.220736654e-06
0.6908046552 	0.002199008804 	0.000458487255 	-5.370072832e-07 	0.001300743124 	-5.398041672e-07 	2.479577917e-06
0.7145040182 	0.002439579088 	0.000673117924 	-4.452324305e-07 	0.001391376268 	-6.019318959e-07 	2.65234988e-06
0.7382093303 	0.002626473436 	0.0007874543518 	-3.319170292e-07 	0.001582466812 	-5.478820722e-07 	3.016621567e-06
0.7603476902 	0.002827587372 	0.000853299558 	-2.172271635e-07 	0.001888300717 	-4.748104333e-07 	3.599625992e-06
0.7810231972 	0.003116220117 	0.001013581252 	-1.529781122e-07 	0.002200666924 	-4.144128451e-07 	4.195082801e-06
0.8003330468 	0.003460928693 	0.00124145493 	-1.13853487e-07 	0.002528796545 	-4.087385369e-07 	4.820589057e-06
0.8183678884 	0.003833500381 	0.001488942475 	-8.366050147e-08 	0.002897411392 	-4.236667521e-07 	5.523271408e-06
0.8352122747 	0.00422336034 	0.001715456354 	-4.612416755e-08 	0.003317793535 	-4.124313691e-07 	6.324636611e-06
0.8509448023 	0.004635685166 	0.001925844661 	-8.925052953e-09 	0.003772795504 	-3.636571385e-07 	7.191996825e-06
0.8656389188 	0.005063088709 	0.002137306963 	3.172929781e-08 	0.00423179921 	-2.988023447e-07 	8.066985461e-06
0.8793630728 	0.005480100119 	0.002340712187 	6.825588803e-08 	0.004674601408 	-2.364210187e-07 	8.911089522e-06
0.8921811598 	0.005867641567 	0.002529507281 	9.729096544e-08 	0.005088044388 	-1.842910998e-07 	9.699226752e-06
0.9041528421 	0.006215881038 	0.002700438878 	1.191908007e-07 	0.005465858426 	-1.416108304e-07 	1.041944532e-05
0.9153338379 	0.006521304707 	0.002852594092 	1.360068056e-07 	0.005806569564 	-1.038429504e-07 	1.106893544e-05
0.9257761958 	0.006784122452 	0.002986378238 	1.510637057e-07 	0.006111244373 	-6.382794877e-08 	1.164973031e-05
0.9355285441 	0.007005908831 	0.003102604716 	1.687128884e-07 	0.006381654752 	-1.228409515e-08 	1.216520765e-05
0.9446363202 	0.007187324928 	0.003201466407 	1.933149651e-07 	0.006617969622 	5.991246424e-08 	1.261568947e-05
0.9531419822 	0.00732501483 	0.003281136678 	2.267505566e-07 	0.006815813594 	1.564134428e-07 	1.299283507e-05
0.9610852055 	0.007404361623 	0.003333167136 	2.60996878e-07 	0.006954246172 	2.569405623e-07 	1.325672604e-05
0.9663424224 	0.007425952472 	0.003356474014 	2.849249399e-07 	0.007028286472 	3.361767117e-07 	1.339786743e-05
0.9709962279 	0.007401613774 	0.003357508247 	2.894727835e-07 	0.007053192199 	3.746674537e-07 	1.344534466e-05
0.9751158091 	0.007323935562 	0.003333526234 	2.685668407e-07 	0.007024358622 	3.612952151e-07 	1.339037985e-05
0.9787624354 	0.007176042887 	0.003276586677 	2.169404591e-07 	0.006924520798 	2.840805514e-07 	1.320006121e-05
0.9819903612 	0.006934896363 	0.003175919625 	1.362435812e-07 	0.006730408486 	1.45575648e-07 	1.283002919e-05
0.9848476266 	0.006568396168 	0.00301655781 	3.730747436e-08 	0.006409849748 	-3.178038221e-08 	1.221895514e-05
0.9873767673 	0.006030943701 	0.002777167689 	-5.920586347e-08 	0.005916334832 	-2.036777586e-07 	1.127817855e-05
0.9896154434 	0.005260881289 	0.002428217078 	-1.228188431e-07 	0.005180831959 	-3.125475547e-07 	9.876105652e-06
0.9915969973 	0.004184007342 	0.001933734873 	-1.27139996e-07 	0.004128540452 	-3.029515056e-07 	7.870145571e-06
0.9933509477 	0.002849240843 	0.001263834637 	-1.199410465e-07 	0.002819320241 	-2.03692712e-07 	5.374407968e-06
0.9944903227 	0.001562466499 	0.0005950625562 	-9.516545282e-08 	0.001553232133 	-1.142819508e-07 	2.960892144e-06
0.9956297375 	0.0006150827399 	0.0001736530743 	-3.918309176e-08 	0.0006133795071 	-6.038536804e-08 	1.169271821e-06
0.9967691923 	0.0001332862316 	2.024963563e-05 	-8.153398495e-09 	0.0001329768883 	-2.18746253e-08 	2.53490908e-07
0.997908687 	1.104784097e-05 	4.932077095e-07 	-3.664088692e-10 	1.10242287e-05 	-3.302086408e-09 	2.101524392e-08
0.9990482216 	1.346090657e-07 	6.085793466e-10 	-8.168823489e-13 	1.343501913e-07 	-8.070575111e-11 	2.561088053e-10
