0.3524915403 	3.57987683e-07 	-4.413550396e-09 	5.709810703e-12 	3.545317284e-07 	-2.631618156e-10 	6.758360112e-10
0.3536068642 	3.222348706e-05 	-3.427067665e-06 	7.15867583e-09 	3.054745189e-05 	-3.780464825e-08 	5.823193352e-08
0.3547223496 	0.0003835364477 	-0.0001068763817 	2.25754392e-07 	0.0003604158651 	-4.947462933e-07 	6.870528113e-07
0.3558378442 	0.001527334914 	-0.0005864373366 	9.398904578e-07 	0.001468505791 	-1.588283944e-06 	2.799380189e-06
0.3569531967 	0.003160943651 	-0.001350811969 	1.573005352e-06 	0.003047473452 	-1.974656002e-06 	5.8093314e-06
0.3580682569 	0.004615043311 	-0.002064683687 	1.514372917e-06 	0.004407250212 	-4.715901359e-07 	8.401443835e-06
0.35978394 	0.005317526636 	-0.002424530883 	-1.317293108e-08 	0.00506049951 	2.975298123e-06 	9.646718558e-06
0.361720438 	0.00502495715 	-0.002265736199 	-2.257221023e-06 	0.004828543352 	6.790135046e-06 	9.204545654e-06
0.3639049575 	0.00423904971 	-0.001883346017 	-3.002720862e-06 	0.004130741824 	8.1199493e-06 	7.874341997e-06
0.3663674413 	0.003445420855 	-0.001508183395 	-3.059063917e-06 	0.003398528398 	6.226618876e-06 	6.478539699e-06
0.36920096 	0.00285992667 	-0.001154385218 	-2.557567617e-06 	0.002878314277 	2.172615784e-06 	5.486866998e-06
0.3724184949 	0.002505879069 	-0.0008580624113 	-1.626762754e-06 	0.002654862428 	-2.076744238e-06 	5.060905669e-06
0.3760438857 	0.002296822488 	-0.0006320348796 	-1.170169915e-06 	0.002693162886 	-5.018974393e-06 	5.133916986e-06
0.3801277765 	0.002142883911 	-0.0004466044846 	-8.00243672e-07 	0.002891172729 	-6.388171665e-06 	5.511378781e-06
0.3848143963 	0.001999093256 	-0.0002873141155 	-5.400782681e-07 	0.003161918516 	-6.66543698e-06 	6.027495502e-06
0.3901331779 	0.001837741579 	-0.0001303094348 	-4.609650846e-07 	0.003480359344 	-6.309657504e-06 	6.634532226e-06
0.3981914987 	0.001649456646 	5.215704916e-05 	-5.617262771e-07 	0.003823975619 	-5.408433604e-06 	7.289560349e-06
0.4069277984 	0.001468811458 	0.0002584595099 	-6.440705501e-07 	0.004124768661 	-3.721376662e-06 	7.862955488e-06
0.4163791821 	0.001359936895 	0.0004557059087 	-2.807660628e-07 	0.004298873057 	-1.4290369e-06 	8.194846857e-06
0.4265723647 	0.001347190347 	0.0005994770974 	1.258332225e-07 	0.004311549262 	-3.722874896e-07 	8.219011227e-06
0.4375983103 	0.001367101096 	0.0006777189487 	2.426068613e-07 	0.004252385086 	-2.000501739e-07 	8.106227864e-06
0.4495688352 	0.001375645358 	0.0007131162273 	1.525129201e-07 	0.004194854803 	-1.020211713e-07 	7.996559154e-06
0.4609124074 	0.001376064504 	0.0007262071361 	-5.093603364e-08 	0.00414950838 	-8.933600626e-07 	7.910116268e-06
0.4625033521 	0.00137613564 	0.0007279799307 	1.907015155e-08 	0.004142944174 	-1.551046059e-08 	7.897603067e-06
0.4764361663 	0.001375387886 	0.000737133219 	1.74376183e-07 	0.004090006373 	-1.364615397e-07 	7.796688905e-06
0.4915177733 	0.00137654983 	0.0007451727238 	3.12483438e-07 	0.004037671585 	-2.386668973e-07 	7.696924253e-06
0.5078705597 	0.001380298369 	0.0007517975283 	4.32026739e-07 	0.003990057917 	-3.314128025e-07 	7.606159369e-06
0.5255559403 	0.001387250022 	0.000757158995 	5.295305648e-07 	0.00394935578 	-4.219408507e-07 	7.528569784e-06
0.5446528007 	0.001397698171 	0.0007615577459 	6.015244287e-07 	0.003914945045 	-5.145195182e-07 	7.462973358e-06
0.5653073198 	0.001411486171 	0.000765154604 	6.471448819e-07 	0.00388323628 	-6.049866602e-07 	7.40252764e-06
0.5875706324 	0.001428834682 	0.0007684884851 	6.614940022e-07 	0.003850080595 	-6.94675729e-07 	7.339323688e-06
0.6115522574 	0.001449381681 	0.0007716006332 	6.432633604e-07 	0.003810267563 	-7.756173426e-07 	7.263428983e-06
0.6373531822 	0.001472195345 	0.0007741322067 	5.928428137e-07 	0.003757791612 	-8.389953265e-07 	7.163395237e-06
0.6650736862 	0.001495510241 	0.000775622394 	5.172796441e-07 	0.00368784881 	-8.696813906e-07 	7.030064816e-06
0.6928473989 	0.001516630585 	0.0007756032815 	4.311995562e-07 	0.003601830502 	-8.604394982e-07 	6.866090013e-06
0.7188076063 	0.001533954462 	0.0007743043465 	3.504049601e-07 	0.00350655887 	-8.142295725e-07 	6.684475805e-06
0.7430616173 	0.001548216589 	0.0007727660587 	2.834800314e-07 	0.003408005439 	-7.385164428e-07 	6.496605573e-06
0.7657166274 	0.001561316526 	0.0007722276435 	2.321044427e-07 	0.003310529093 	-6.411048118e-07 	6.310788564e-06
0.7868765632 	0.00157550758 	0.0007738177818 	1.958120883e-07 	0.00321887215 	-5.289417747e-07 	6.136064957e-06
0.8066407466 	0.001593365953 	0.0007786329346 	1.730466451e-07 	0.003137970899 	-4.082905719e-07 	5.981844687e-06
0.825101173 	0.00161774716 	0.0007877877577 	1.618680166e-07 	0.003072642719 	-2.849187971e-07 	5.857311019e-06
0.8423446134 	0.001651754639 	0.0008024749855 	1.601384542e-07 	0.00302727203 	-1.633075942e-07 	5.770821877e-06
0.8584514973 	0.00169868182 	0.0008239898495 	1.656938851e-07 	0.003005654059 	-4.648119213e-08 	5.729612014e-06
0.8734970175 	0.001761947833 	0.0008536942564 	1.761317703e-07 	0.003010956104 	6.303736033e-08 	5.739719186e-06
0.8875511498 	0.00184487175 	0.0008928857085 	1.880327204e-07 	0.003045781512 	1.616083207e-07 	5.806106093e-06
0.900679109 	0.001950029545 	0.0009424810373 	1.963197914e-07 	0.003112081495 	2.421728446e-07 	5.932492287e-06
0.9129417823 	0.0020780236 	0.001002457498 	1.946796991e-07 	0.003210289562 	2.919241538e-07 	6.119704159e-06
0.9243960038 	0.002225818216 	0.001071159779 	1.772786804e-07 	0.00333722781 	2.938668215e-07 	6.361683741e-06
0.9350948531 	0.002385361413 	0.0011447368 	1.417675426e-07 	0.003483335035 	2.363491078e-07 	6.64020472e-06
0.9450879208 	0.002543586702 	0.001217114101 	9.291524674e-08 	0.003631349483 	1.268704642e-07 	6.922361395e-06
0.954421548 	0.002675527306 	0.001276877489 	4.835565589e-08 	0.003751288521 	1.148940693e-08 	7.150998538e-06
0.9605997311 	0.002768016044 	0.001318215109 	2.454084133e-08 	0.003826982821 	-6.132238702e-08 	7.295292911e-06
0.9660692856 	0.002835217864 	0.001347647788 	2.50191552e-08 	0.003870700308 	-7.342733007e-08 	7.378630593e-06
0.9709113578 	0.002888078741 	0.001370065184 	4.849327356e-08 	0.003893010827 	-2.039573832e-08 	7.421160643e-06
0.9751978312 	0.002927348061 	0.001385872719 	9.250831118e-08 	0.003896473276 	9.912832744e-08 	7.427761033e-06
0.9789923751 	0.002948276632 	0.001393026666 	1.50463287e-07 	0.003878228087 	2.707870572e-07 	7.392980632e-06
0.9823513805 	0.002935677621 	0.001384678996 	2.104377485e-07 	0.003822390955 	4.581441811e-07 	7.286539538e-06
0.9853247881 	0.002857023569 	0.001346455682 	2.582532349e-07 	0.003689546872 	6.037375614e-07 	7.033301794e-06
0.987956823 	0.002654308568 	0.001250427242 	2.621272259e-07 	0.003405897234 	6.380569925e-07 	6.492586748e-06
0.9902866465 	0.002245995124 	0.001055949234 	2.047733597e-07 	0.00286737017 	5.197089837e-07 	5.466004488e-06
0.9923489342 	0.001624838072 	0.0007608574981 	1.199589875e-07 	0.002066535859 	3.123067581e-07 	3.939391711e-06
0.993688642 	0.0009518386696 	0.0004223600012 	4.65220252e-08 	0.001188302461 	1.326708294e-07 	2.265234763e-06
0.9950284246 	0.0003987879363 	0.0001457673845 	8.785507509e-09 	0.0004705925733 	3.978382758e-08 	8.970802391e-07
0.9963682821 	8.919046075e-05 	2.052640128e-05 	9.765737363e-10 	9.583282516e-05 	1.053263148e-08 	1.826840001e-07
0.9977082144 	7.034354641e-06 	5.402700425e-07 	9.246287957e-11 	7.080375454e-06 	1.678864512e-09 	1.34971635e-08
0.9990482216 	7.267265677e-08 	5.969634716e-10 	3.254316424e-13 	7.254028083e-08 	3.757259569e-11 	1.382819368e-10
0.9990482216 	7.267265677e-08 	5.969634716e-10 	3.254316424e-13 	7.254028083e-08 	3.757259569e-11 	1.382819368e-10
