0.2472849305 	2.467864087e-07 	-3.390201365e-09 	1.181123121e-11 	2.419336154e-07 	-4.391889429e-10 	4.611927128e-10
0.2487094669 	2.891429154e-05 	-3.327434197e-06 	1.388213953e-08 	2.456517661e-05 	-6.212307045e-08 	4.682805416e-08
0.2501340182 	0.000388856461 	-9.658746476e-05 	2.773107068e-07 	0.0002641649698 	-5.868950987e-07 	5.035718534e-07
0.2515582136 	0.001425667098 	-0.0004379430331 	4.244516399e-07 	0.000869031703 	-1.085814531e-06 	1.656615961e-06
0.2529816857 	0.002552159572 	-0.0008319143622 	-1.115560544e-07 	0.001513164234 	-1.0107966e-06 	2.884511592e-06
0.2544040707 	0.003151373307 	-0.001022570259 	-7.415735677e-07 	0.001927056018 	-1.895531654e-06 	3.673504367e-06
0.2565908305 	0.003256531077 	-0.001002106932 	-1.467806457e-06 	0.002205019717 	-5.617057898e-06 	4.203380434e-06
0.2590557457 	0.003077853698 	-0.0008148259403 	-1.795985243e-06 	0.002509543453 	-1.001804429e-05 	4.783887313e-06
0.2618311143 	0.002905603166 	-0.0006000035933 	-9.565268083e-07 	0.002897364336 	-1.183536537e-05 	5.523181706e-06
0.2649514479 	0.002798385795 	-0.0004489621146 	5.321258781e-09 	0.003268571567 	-1.139939891e-05 	6.23080586e-06
0.2685402304 	0.002713341485 	-0.0003561497241 	3.32299528e-07 	0.003556622486 	-9.578919298e-06 	6.779910971e-06
0.2726074998 	0.002610631346 	-0.0002861104163 	2.343181083e-07 	0.003748758082 	-6.86491548e-06 	7.146174818e-06
0.2771758575 	0.002480873716 	-0.0002165950004 	1.043130757e-07 	0.003829121225 	-4.118187897e-06 	7.299369303e-06
0.2823040561 	0.002329930522 	-0.0001415264849 	1.189667845e-07 	0.003801907075 	-1.989925305e-06 	7.24749157e-06
0.28818069 	0.002171463014 	-6.920954672e-05 	2.199781404e-07 	0.003685493944 	-8.167466327e-07 	7.025575788e-06
0.2948278042 	0.002013033332 	-1.372274404e-05 	2.209027391e-07 	0.003500741124 	-3.211860649e-07 	6.673385563e-06
0.3039520189 	0.001883343848 	1.463909583e-05 	9.897188369e-08 	0.00332336322 	-1.167877528e-06 	6.335253977e-06
0.3048289965 	0.001870318817 	1.727705785e-05 	1.407433979e-08 	0.003305503848 	-2.716300793e-08 	6.301209052e-06
0.3153909723 	0.001757080979 	2.896099278e-05 	2.714929863e-07 	0.003134604049 	-2.459669012e-07 	5.975426536e-06
0.3267808322 	0.001674378344 	3.529132421e-05 	5.909557815e-07 	0.003011741632 	-3.391187152e-07 	5.74121662e-06
0.3390183242 	0.00162937281 	4.18202082e-05 	9.100418919e-07 	0.00295490945 	-3.808111477e-07 	5.632878686e-06
0.3522090375 	0.001613254069 	4.97191426e-05 	1.25345241e-06 	0.002950504251 	-5.541213561e-07 	5.624481153e-06
0.3664845753 	0.001592063499 	5.963524991e-05 	1.630901183e-06 	0.002939163224 	-5.582240035e-07 	5.602862003e-06
0.3818620373 	0.001579504426 	7.292955713e-05 	2.033252328e-06 	0.00294488932 	-8.067914156e-07 	5.613777533e-06
0.3984348019 	0.001552645941 	8.771645255e-05 	2.349783904e-06 	0.002924600617 	-8.235287173e-07 	5.575101626e-06
0.4162929946 	0.001528285525 	0.0001060987702 	2.062247657e-06 	0.002910236309 	-5.919739605e-07 	5.547719263e-06
0.4355739439 	0.001512834736 	0.0001274395279 	1.753840456e-06 	0.002912173062 	-5.674937939e-07 	5.551411253e-06
0.4563323823 	0.001495040465 	0.0001514819618 	1.436346831e-06 	0.002910638143 	-3.79186035e-07 	5.54848527e-06
0.4786466123 	0.00148935181 	0.0001802402947 	1.123403e-06 	0.002931880508 	-3.670167126e-07 	5.588979122e-06
0.5026835755 	0.001480786677 	0.0002121859301 	8.268006553e-07 	0.002947054267 	-2.720017725e-07 	5.617904524e-06
0.5284859607 	0.001478733786 	0.0002504082255 	5.631437816e-07 	0.002972254606 	-2.260275831e-07 	5.665943374e-06
0.5561749938 	0.001476795536 	0.000296337077 	3.405374351e-07 	0.002991659579 	-1.644133485e-07 	5.702934646e-06
0.5858631148 	0.001477159676 	0.0003515925427 	1.727768945e-07 	0.003004443848 	-1.069640604e-07 	5.727305016e-06
0.6176648077 	0.001478668535 	0.0004153285461 	6.72579144e-08 	0.003001296207 	-5.534302702e-08 	5.721304737e-06
0.6494508416 	0.001481608035 	0.0004813871045 	2.035703894e-08 	0.002978154603 	-2.285817052e-08 	5.677190408e-06
0.6791106475 	0.00148647509 	0.0005441640405 	9.274228342e-09 	0.002936080324 	-1.023085724e-08 	5.596985139e-06
0.7067905922 	0.001495136143 	0.0005997233963 	1.375316786e-08 	0.002877786285 	-7.30040538e-09 	5.485860499e-06
0.7326288344 	0.001511316603 	0.0006435351451 	2.797416689e-08 	0.002804078681 	-1.348276658e-09 	5.345353319e-06
0.7567541468 	0.001533643134 	0.0006778208945 	4.848673202e-08 	0.002724046736 	1.015251564e-08 	5.192790188e-06
0.7792862258 	0.001559412981 	0.0007085245731 	6.787337003e-08 	0.002648420632 	2.244183618e-08 	5.048625814e-06
0.8003336001 	0.001588683137 	0.0007406471485 	8.339031105e-08 	0.002583523079 	3.613454458e-08 	4.924913042e-06
0.8199971472 	0.001623045429 	0.0007784624607 	9.741167139e-08 	0.002534381553 	5.602563871e-08 	4.831235635e-06
0.8383693647 	0.001666993038 	0.0008217820852 	1.057400994e-07 	0.002502968828 	8.180947921e-08 	4.771354251e-06
0.8555361083 	0.001725658459 	0.0008688628173 	9.725007073e-08 	0.002490895929 	1.080485367e-07 	4.748339949e-06
0.8715768547 	0.001804032149 	0.0009181584996 	7.102091584e-08 	0.002499801969 	1.327152288e-07 	4.765317338e-06
0.8865654396 	0.001906498278 	0.0009706374019 	4.504106369e-08 	0.002532294076 	1.625158645e-07 	4.827256324e-06
0.9005706783 	0.002036520858 	0.001030440181 	4.731267278e-08 	0.002592403237 	2.063807065e-07 	4.94184109e-06
0.913656745 	0.002195903391 	0.001101093986 	7.228325855e-08 	0.002684052963 	2.588295229e-07 	5.116550942e-06
0.9258835601 	0.002382139431 	0.001182608609 	9.0281845e-08 	0.002807488983 	2.982368815e-07 	5.351854302e-06
0.9373071183 	0.00258449109 	0.001270748383 	9.212512949e-08 	0.00295419118 	3.012257651e-07 	5.631509465e-06
0.9479797699 	0.002768297763 	0.001350459849 	7.42453129e-08 	0.003093081873 	2.574644718e-07 	5.896273727e-06
0.9550458569 	0.002903399899 	0.001408190766 	4.475917062e-08 	0.003193676639 	1.840356381e-07 	6.08803531e-06
0.9613025204 	0.002997464535 	0.001446808375 	1.603173925e-08 	0.003256572439 	1.091376403e-07 	6.207932186e-06
0.9668422226 	0.003060610828 	0.001470451809 	-7.844082491e-09 	0.003287406904 	4.098579625e-08 	6.266711247e-06
0.9717469214 	0.003092216119 	0.001478687417 	-2.219999312e-08 	0.003284632158 	-8.842826726e-09 	6.26142181e-06
0.9760892456 	0.003089660353 	0.001470356448 	-2.537379403e-08 	0.003245896842 	-3.41521931e-08 	6.187581532e-06
0.9799335525 	0.00304362467 	0.001441472758 	-1.911536744e-08 	0.003163541957 	-3.60954016e-08 	6.030590231e-06
0.9833368611 	0.002931693303 	0.001382230538 	-9.232878704e-09 	0.003017306361 	-2.620709853e-08 	5.751824542e-06
0.9863496834 	0.002709908094 	0.001273410388 	-9.013287464e-09 	0.002764388002 	-2.85225144e-08 	5.269691853e-06
0.9890167622 	0.002305750445 	0.001079740128 	-2.779078587e-08 	0.002333128746 	-6.65079015e-08 	4.447591849e-06
0.9913777266 	0.001694297025 	0.0007876318113 	-5.393678842e-08 	0.001704375724 	-1.195728747e-07 	3.249013837e-06
0.9929115363 	0.001006022141 	0.0004366976605 	-5.911696897e-08 	0.001009730249 	-1.291842566e-07 	1.924826495e-06
0.9944454907 	0.000419211068 	0.0001457055472 	-2.993928402e-08 	0.0004203988009 	-7.106126094e-08 	8.013969584e-07
0.9959795897 	9.056079203e-05 	1.910944025e-05 	-3.775872053e-09 	9.060530335e-05 	-1.324474116e-08 	1.727188906e-07
0.9975138333 	6.655993729e-06 	4.522263598e-07 	3.337747355e-12 	6.645663433e-06 	-2.826709286e-11 	1.266848157e-08
0.9990482216 	6.009273108e-08 	4.122466179e-10 	2.029189925e-13 	5.997793758e-08 	1.910080056e-11 	1.14334619e-10
0.9990482216 	6.009273108e-08 	4.122466179e-10 	2.029189925e-13 	5.997793758e-08 	1.910080056e-11 	1.14334619e-10
