0.121376578 	1.328423965e-06 	1.650506163e-09 	-3.985576676e-10 	1.248813513e-06 	-3.372125102e-08 	2.380585645e-09
0.123583729 	0.0001897027157 	-6.548471931e-06 	-1.027728133e-07 	0.0001373512701 	-3.48437632e-06 	2.618296957e-07
0.1257894093 	0.001382607535 	-0.0003715427055 	8.414271779e-06 	0.001013180205 	-2.02977229e-05 	1.93140307e-06
0.1279925952 	0.002797803621 	-0.0009241869207 	1.525831444e-05 	0.002295306726 	-3.100304012e-05 	4.375492567e-06
0.1301922761 	0.003140540697 	-0.00134624823 	1.394678763e-05 	0.003487011593 	-2.796955842e-05 	6.647213261e-06
0.132387455 	0.00303835063 	-0.001569528891 	1.320757919e-05 	0.004433026005 	-2.345502687e-05 	8.450579662e-06
0.1357557942 	0.002831356588 	-0.001502623996 	1.117257274e-05 	0.004831468902 	-1.442886312e-05 	9.210122565e-06
0.1395413836 	0.002442145662 	-0.001370725754 	8.534279997e-06 	0.004811190062 	-5.100906992e-06 	9.17146546e-06
0.1437868381 	0.002138090614 	-0.001250381522 	6.644461751e-06 	0.004557744686 	5.742633585e-07 	8.68832813e-06
0.1485346694 	0.001980142437 	-0.00114372984 	5.86682601e-06 	0.00430490092 	2.408963572e-06 	8.20633764e-06
0.1539572698 	0.001851274983 	-0.001055823439 	5.132943035e-06 	0.004074737181 	2.440875436e-06 	7.767581581e-06
0.1600645007 	0.001725081543 	-0.0009847503483 	4.196194799e-06 	0.003829779378 	1.805987324e-06 	7.300623927e-06
0.1668783649 	0.001612163058 	-0.0009356035814 	3.119598336e-06 	0.003601218835 	1.188116887e-06 	6.864924006e-06
0.1744706299 	0.001508414763 	-0.000895872822 	1.99016249e-06 	0.003405977784 	8.118286446e-07 	6.492740298e-06
0.1830959347 	0.001413074023 	-0.0008592024963 	9.661120765e-07 	0.003244986378 	3.801820839e-07 	6.185845933e-06
0.1922476596 	0.001311566588 	-0.0008170123482 	1.467999446e-07 	0.00308989165 	-7.74128056e-07 	5.890192276e-06
0.1926955792 	0.001307007771 	-0.0008140864412 	6.37173024e-08 	0.003079070482 	-1.085307483e-08 	5.869564123e-06
0.2053746929 	0.00123886501 	-0.0007655001815 	1.679822412e-06 	0.002934999933 	-1.424271955e-07 	5.594925613e-06
0.2189675343 	0.001184296141 	-0.0007272005806 	3.14490559e-06 	0.002823080433 	-1.065800005e-07 	5.38157594e-06
0.2334990144 	0.001158907511 	-0.00070959871 	4.706779652e-06 	0.002770488081 	-5.831328467e-07 	5.2813203e-06
0.2489714712 	0.001101642781 	-0.0006698374962 	5.824747403e-06 	0.002662259583 	5.89815242e-08 	5.075006702e-06
0.2654937654 	0.00111035417 	-0.000670109341 	7.115737713e-06 	0.002721075424 	6.872306929e-07 	5.187126042e-06
0.2832036071 	0.001094515096 	-0.0006545389565 	6.87083029e-06 	0.002727127491 	1.314985213e-06 	5.198662963e-06
0.3020930082 	0.001103160694 	-0.0006516750267 	5.485570337e-06 	0.002807025246 	1.571396052e-06 	5.350970292e-06
0.3222472526 	0.001110088129 	-0.0006468913835 	4.275331982e-06 	0.002885827832 	1.126758676e-06 	5.501189922e-06
0.3437457136 	0.001082872049 	-0.0006165049614 	2.956565133e-06 	0.0028976276 	9.409696319e-07 	5.52368356e-06
0.366723401 	0.00108393453 	-0.0005969906683 	1.832469103e-06 	0.002995819966 	5.32538408e-07 	5.710865499e-06
0.3912146542 	0.001052904248 	-0.0005499502278 	7.003060578e-07 	0.003027809498 	2.228046382e-07 	5.77184644e-06
0.4093312864 	0.00104685105 	-0.0005171231442 	7.539932399e-07 	0.003104373961 	-1.253056932e-06 	5.917799586e-06
0.4171316319 	0.001046004458 	-0.0005011439601 	3.595597329e-07 	0.003136181577 	8.279528685e-08 	5.978433742e-06
0.444521887 	0.001026822235 	-0.0004261788945 	1.379851891e-06 	0.003208199276 	3.022407575e-07 	6.115719493e-06
0.4737879914 	0.001016906286 	-0.0003361441324 	2.151945551e-06 	0.003308951794 	3.849476571e-07 	6.307781795e-06
0.5050603485 	0.001006160913 	-0.0002145547936 	2.530691608e-06 	0.003394960171 	3.300553343e-07 	6.471737667e-06
0.5384624778 	0.001029220487 	-5.590087492e-05 	2.359066547e-06 	0.003436251693 	5.991725006e-07 	6.550450783e-06
0.574124097 	0.001099563474 	0.000116573285 	1.860807134e-06 	0.003405250951 	1.430157863e-06 	6.491354754e-06
0.6096731358 	0.001203205122 	0.0002592917685 	1.454090472e-06 	0.003309814233 	2.168420073e-06 	6.309425844e-06
0.642780273 	0.00131159248 	0.0003610482306 	1.139650432e-06 	0.003185266388 	2.315617427e-06 	6.072003035e-06
0.6736372215 	0.001398780399 	0.0004340979449 	8.348709335e-07 	0.003072169765 	1.946739243e-06 	5.856409438e-06
0.7024167125 	0.001465145427 	0.0004900845541 	5.932435643e-07 	0.002974521069 	1.530241312e-06 	5.670263882e-06
0.7292743072 	0.001514327419 	0.0005362693399 	4.23131104e-07 	0.002891879755 	1.196538766e-06 	5.512726569e-06
0.7543509671 	0.001551260016 	0.0005768561682 	3.105777576e-07 	0.002822244166 	9.553590077e-07 	5.379981782e-06
0.777772227 	0.001580394864 	0.0006149807536 	2.373733969e-07 	0.002765761969 	7.901829823e-07 	5.272311017e-06
0.7996531056 	0.001606249311 	0.00065308951 	1.910965958e-07 	0.002723891224 	6.843722625e-07 	5.192493739e-06
0.8200980707 	0.001633683229 	0.0006931803835 	1.652545649e-07 	0.002699165849 	6.269552241e-07 	5.145360302e-06
0.8392033992 	0.001668063487 	0.0007369463492 	1.529771611e-07 	0.002694908376 	6.068171763e-07 	5.137244376e-06
0.8570577716 	0.00171518855 	0.0007857688907 	1.456682631e-07 	0.002714950143 	6.085777493e-07 	5.175449553e-06
0.8737433156 	0.001781094322 	0.0008408074649 	1.334707803e-07 	0.002762925369 	6.093137615e-07 	5.266903668e-06
0.8893364195 	0.001872520494 	0.0009024029765 	9.697097505e-08 	0.002841002868 	5.835061593e-07 	5.415741082e-06
0.9039082323 	0.001997229785 	0.000968419137 	7.535570541e-08 	0.002950068667 	5.665633244e-07 	5.623650809e-06
0.917525146 	0.00215758501 	0.001041631621 	9.267265875e-08 	0.003096363847 	5.762136334e-07 	5.902530081e-06
0.9302491908 	0.002347463338 	0.001126661369 	1.030907147e-07 	0.003284288689 	5.559131168e-07 	6.260767062e-06
0.9421383606 	0.002536666789 	0.001211851976 	8.648576896e-08 	0.003483414276 	4.731911124e-07 	6.640355775e-06
0.9500106837 	0.002688465981 	0.001280400144 	5.484771544e-08 	0.003647376461 	3.577508548e-07 	6.952913271e-06
0.9569817698 	0.002801429183 	0.001331212769 	2.136923051e-08 	0.00376733141 	2.370948858e-07 	7.181580743e-06
0.9631544511 	0.002881478815 	0.001366707253 	-8.514107616e-09 	0.003846457938 	1.241210388e-07 	7.332417898e-06
0.9686199044 	0.002924482614 	0.001384887254 	-2.984075292e-08 	0.003877805994 	3.333825136e-08 	7.392176005e-06
0.9734589462 	0.002927176697 	0.001384160631 	-4.132665672e-08 	0.003856206665 	-2.98370405e-08 	7.351001681e-06
0.9777432055 	0.002882766847 	0.001361386047 	-4.519621591e-08 	0.003773279034 	-6.892921264e-08 	7.192918568e-06
0.9815361564 	0.002774811365 	0.001308929897 	-4.647744822e-08 	0.003609275005 	-9.560541889e-08 	6.880281306e-06
0.9848940386 	0.002569124868 	0.00121116497 	-5.060078989e-08 	0.003321351991 	-1.273935346e-07 	6.331420017e-06
0.9878666762 	0.002204431771 	0.001037527333 	-6.709190405e-08 	0.002831749625 	-1.796506638e-07 	5.398101829e-06
0.9904982048 	0.001649147668 	0.0007734735387 	-8.953480678e-08 	0.002106799524 	-2.309071069e-07 	4.016145447e-06
0.9922078258 	0.001008891968 	0.0004512999253 	-8.633261376e-08 	0.001266491144 	-2.207594435e-07 	2.414284124e-06
0.993917638 	0.0004351394139 	0.0001637858334 	-4.325922595e-08 	0.0005188548605 	-1.173011913e-07 	9.890815723e-07
0.9956276413 	9.584227566e-05 	2.316873433e-05 	-6.654818516e-09 	0.0001038535473 	-2.255949033e-08 	1.979737258e-07
0.9973378359 	6.818616714e-06 	5.305382907e-07 	-7.381635947e-11 	6.866664134e-06 	-6.912753429e-10 	1.308977033e-08
0.9990482216 	5.531580922e-08 	4.099920718e-10 	9.977268497e-14 	5.521444312e-08 	7.761811931e-12 	1.052540746e-10
