0.4709558481 	0.03508628026 	3.031019337e-05 	-2.956097606e-10
0.4720092239 	0.1345383155 	0.0001558005604 	-1.480457247e-09
0.4730625996 	0.2674971328 	0.0001941068034 	-2.044871486e-09
0.4741159754 	0.3943352577 	-9.11171078e-05 	-1.878130428e-09
0.4751693511 	0.506030803 	-0.0002999649331 	-4.48783894e-09
0.4762227269 	0.6077253252 	-0.0001031845282 	-8.956102693e-09
0.4778443634 	0.7054439531 	0.0001228071697 	-1.239773769e-08
0.4796765386 	0.7906742643 	0.0001366838974 	-1.629059616e-08
0.4817465869 	0.8615432818 	8.702156889e-05 	-2.158945351e-08
0.4840853915 	0.9221133499 	6.70718151e-05 	-2.763690583e-08
0.4867278453 	0.9752985763 	6.770040914e-05 	-3.456671101e-08
0.4897133715 	1.023148593 	7.82081247e-05 	-4.241464049e-08
0.4930865115 	1.067109359 	9.565431071e-05 	-5.122484352e-08
0.4968975894 	1.108221539 	0.0001195355436 	-6.107401005e-08
0.5012034633 	1.147268538 	0.0001498427658 	-7.206143145e-08
0.506068373 	1.188224381 	0.0001934405032 	-8.561048504e-08
0.5134203412 	1.23272229 	0.0002595541254 	-1.035970736e-07
0.5212948542 	1.275769463 	0.0003436565771 	-1.26018455e-07
0.529729052 	1.314840504 	0.0004428771657 	-1.51721534e-07
0.5387627144 	1.350315491 	0.0005543410624 	-1.710758002e-07
0.5484384488 	1.381863967 	0.0006583218711 	-1.931103203e-07
0.5588018907 	1.408726166 	0.0007665136397 	-2.188081611e-07
0.5699019192 	1.430493626 	0.0008799898633 	-2.185907449e-07
0.5817908876 	1.447133466 	0.0009512557242 	-2.06938747e-07
0.5945248701 	1.458602043 	0.0009747295321 	-1.930125955e-07
0.6081639266 	1.465312008 	0.00096083877 	-1.7272432e-07
0.6227723857 	1.468365888 	0.0009118120456 	-1.575646626e-07
0.638419148 	1.468971714 	0.0008405977721 	-1.444615477e-07
0.6551780116 	1.467888944 	0.0007529836785 	-1.304791768e-07
0.6731280194 	1.465415448 	0.0006518135721 	-1.153792762e-07
0.6923538328 	1.461582832 	0.0005373893646 	-1.042131358e-07
0.7129461301 	1.456264586 	0.0004111641762 	-1.035389547e-07
0.7350020349 	1.449335715 	0.0002780776888 	-1.178277972e-07
0.7570579485 	1.440973906 	0.0001468281462 	-1.436888377e-07
0.7776502527 	1.431543465 	2.660819572e-05 	-1.707233574e-07
0.7968760713 	1.421131585 	-7.715288354e-05 	-1.839556925e-07
0.814826083 	1.409498986 	-0.0001626826235 	-1.803585972e-07
0.831584949 	1.396240657 	-0.0002236819103 	-1.598558405e-07
0.8472317127 	1.380898992 	-0.0002565227237 	-1.24797875e-07
0.8618401721 	1.363101134 	-0.0002644526439 	-9.562645056e-08
0.8754792281 	1.342693686 	-0.0002493108549 	-7.641324025e-08
0.8882132094 	1.319755609 	-0.0002153029679 	-6.105619178e-08
0.9001021759 	1.294493242 	-0.0001704138709 	-5.140079641e-08
0.9112022019 	1.267132252 	-0.0001222757423 	-4.639434974e-08
0.9215656407 	1.237837564 	-7.676217896e-05 	-4.415379016e-08
0.9312413717 	1.206650199 	-3.767318344e-05 	-4.316502331e-08
0.9402750304 	1.173424685 	-7.241545862e-06 	-4.23479134e-08
0.9487092242 	1.137760237 	1.38734902e-05 	-4.096538052e-08
0.9565837329 	1.098922533 	2.814950579e-05 	-3.872247718e-08
0.9639356968 	1.058972777 	3.57114808e-05 	-3.5778401e-08
0.9688006083 	1.022224739 	3.591157125e-05 	-3.267205967e-08
0.9731064834 	0.9871021714 	3.236903654e-05 	-2.959351807e-08
0.976917562 	0.9499859654 	2.705691535e-05 	-2.64027208e-08
0.9802907021 	0.9100947269 	1.954472348e-05 	-2.314621701e-08
0.9832762282 	0.8664111975 	8.853687098e-06 	-1.988717434e-08
0.9859186816 	0.8175509288 	-8.230460735e-06 	-1.669434948e-08
0.9882574856 	0.7615952306 	-4.165972603e-05 	-1.369138023e-08
0.990327533 	0.6958946518 	-9.912466245e-05 	-1.108450858e-08
0.9921597073 	0.6169661762 	-5.747427914e-05 	-9.137148142e-09
0.9937813429 	0.5271367451 	0.0001571927128 	-6.144998762e-09
0.9948347186 	0.4349397599 	0.0002440352009 	-2.085983722e-09
0.9958880943 	0.3362490923 	1.796426333e-05 	-1.042723691e-09
0.9969414701 	0.2269555358 	-0.0001624630182 	-2.196926551e-09
0.9979948458 	0.1138784027 	-9.982457599e-05 	-1.568935535e-09
0.9990482216 	0.03257856438 	-1.798683339e-05 	-3.330415583e-10
0.9990482216 	0.03257856438 	-1.798683339e-05 	-3.330415583e-10
