0.470659737 	0.03526559187 	-8.293983068e-05 	-1.011110039e-07
0.4716964622 	0.1354973203 	-0.0002634862861 	-3.861056757e-07
0.4727331945 	0.2687761862 	-0.000616908792 	-7.680943493e-07
0.4737699337 	0.3955796532 	-0.001274119137 	-1.143873334e-06
0.4748066793 	0.5073039057 	-0.001833853096 	-1.495515471e-06
0.4758434311 	0.6092095897 	-0.001975324477 	-1.834089341e-06
0.4774394867 	0.7071255921 	-0.002068730193 	-2.188515425e-06
0.4792427742 	0.7923426338 	-0.002340082014 	-2.526065063e-06
0.4812801995 	0.8629547737 	-0.002644428755 	-2.844481394e-06
0.48358615 	0.9230756342 	-0.00289516732 	-3.15537005e-06
0.486192473 	0.9756388739 	-0.003107667562 	-3.46758508e-06
0.4891372032 	1.022719383 	-0.003297582654 	-3.788062913e-06
0.4924642826 	1.065818047 	-0.003472249902 	-4.122819134e-06
0.496230251 	1.106007324 	-0.003635511101 	-4.478465337e-06
0.5004856092 	1.144059706 	-0.003789592685 	-4.857437053e-06
0.505296538 	1.183855603 	-0.003944532351 	-5.275552046e-06
0.512575218 	1.226979461 	-0.004098975131 	-5.836900815e-06
0.5203808573 	1.268637255 	-0.004234314339 	-6.408891388e-06
0.5287496252 	1.306517184 	-0.004339526162 	-6.97263058e-06
0.5377230685 	1.341220587 	-0.00441036447 	-7.519211468e-06
0.547345261 	1.372738618 	-0.00445862109 	-8.034081376e-06
0.5576630227 	1.400475199 	-0.00447972201 	-8.501227965e-06
0.5687261579 	1.423882185 	-0.004459592034 	-8.911927445e-06
0.5805877104 	1.442822314 	-0.004427598007 	-9.248698807e-06
0.5933042393 	1.457104354 	-0.004401070108 	-9.485521259e-06
0.6069361121 	1.466562179 	-0.004375685143 	-9.612210727e-06
0.6215479937 	1.471645763 	-0.004355981917 	-9.63694299e-06
0.6372107484 	1.473422686 	-0.004338756681 	-9.566204014e-06
0.6539962598 	1.472938244 	-0.004315126921 	-9.396419707e-06
0.6719847469 	1.470770991 	-0.00427443158 	-9.142566194e-06
0.6912601121 	1.46709649 	-0.004210311529 	-8.77758147e-06
0.7119125193 	1.461829707 	-0.004125946024 	-8.250024762e-06
0.7340386155 	1.454819036 	-0.004025108345 	-7.583349246e-06
0.7561688545 	1.446238161 	-0.003893607398 	-6.816251153e-06
0.7768330656 	1.436342177 	-0.003739789899 	-6.062645365e-06
0.7961274613 	1.42494782 	-0.003589817756 	-5.416304539e-06
0.814142334 	1.411818551 	-0.003424557688 	-4.818798006e-06
0.8309622617 	1.39687826 	-0.003219318702 	-4.253884556e-06
0.8466663774 	1.379899312 	-0.002988278754 	-3.749388559e-06
0.8613285871 	1.360521693 	-0.002754699195 	-3.296832374e-06
0.8750179829 	1.338656629 	-0.00251837467 	-2.891560822e-06
0.8877990797 	1.314571511 	-0.002276944369 	-2.529763923e-06
0.8997321264 	1.288590506 	-0.002040440979 	-2.207558567e-06
0.9108733837 	1.260943408 	-0.001814495048 	-1.92028722e-06
0.9212753826 	1.231726599 	-0.001602362572 	-1.663668041e-06
0.9309871706 	1.200883518 	-0.001405660732 	-1.43386301e-06
0.9400545422 	1.1681687 	-0.001224767905 	-1.227388091e-06
0.9485202539 	1.133091715 	-0.001058869847 	-1.041165848e-06
0.9564242262 	1.094842536 	-0.0009044625204 	-8.724693491e-07
0.9638037307 	1.05538715 	-0.0007692885225 	-7.271064141e-07
0.9686868836 	1.018970701 	-0.0006643608501 	-6.169995466e-07
0.9730089153 	0.9840540595 	-0.0005790628284 	-5.268108537e-07
0.976834303 	0.9470478367 	-0.0005020695703 	-4.465144636e-07
0.9802201149 	0.90717702 	-0.0004329835173 	-3.744767613e-07
0.9832168622 	0.863437089 	-0.0003721893232 	-3.094585382e-07
0.9858692517 	0.8144639243 	-0.0003226177145 	-2.506264406e-07
0.9882168534 	0.7583690867 	-0.0002943175529 	-1.975247477e-07
0.9902946903 	0.6925455901 	-0.0002951850995 	-1.501162043e-07
0.992133761 	0.6135622802 	-0.0002013888863 	-1.077046733e-07
0.9937615021 	0.5237852106 	5.91036105e-05 	-7.297262434e-08
0.9948188447 	0.4317329179 	0.0001804533998 	-4.90529703e-08
0.9958761879 	0.3333101503 	-2.240559535e-05 	-3.094111419e-08
0.9969335318 	0.2245530819 	-0.0001847797019 	-1.495317178e-08
0.9979908764 	0.1124291933 	-0.0001074541706 	-4.575761991e-09
0.9990482216 	0.0316797044 	-1.866037224e-05 	-8.324340869e-10
0.9990482216 	0.0316797044 	-1.866037224e-05 	-8.324340869e-10
